/*--------------------------------*- C++ -*----------------------------------*\
  =========                 |
  \\      /  F ield         | OpenFOAM: The Open Source CFD Toolbox
   \\    /   O peration     | Website:  https://openfoam.org
    \\  /    A nd           | Version:  7
     \\/     M anipulation  |
\*---------------------------------------------------------------------------*/
FoamFile
{
    version     2.0;
    format      ascii;
    class       volVectorField;
    location    "20";
    object      U;
}
// * * * * * * * * * * * * * * * * * * * * * * * * * * * * * * * * * * * * * //

dimensions      [0 1 -1 0 0 0 0];

internalField   nonuniform List<vector> 
21000
(
(-0.00177292 0.000225323 -6.21202e-21)
(-0.00438063 0.000123325 2.06028e-21)
(-0.00475805 -0.000152819 -8.02835e-22)
(-0.000716963 -0.000536332 -4.13496e-21)
(0.00753469 -0.000924657 -9.6968e-22)
(0.019732 -0.00131048 4.30436e-21)
(0.035498 -0.00166453 5.39619e-21)
(0.0542457 -0.00199045 -4.52734e-21)
(0.0756197 -0.00228155 6.25015e-21)
(0.0991534 -0.00254204 -1.75315e-21)
(0.124519 -0.00277185 -1.04656e-21)
(0.151441 -0.00297393 -1.9869e-22)
(0.179538 -0.00314981 -3.94272e-21)
(0.20884 -0.00330214 -3.50344e-21)
(-0.00178275 0.000673519 6.39646e-21)
(-0.00433743 0.00036582 -1.17339e-20)
(-0.00461521 -0.000462682 -4.06708e-21)
(-0.000453173 -0.00161251 2.94011e-21)
(0.00793694 -0.00277625 -7.81292e-21)
(0.0202828 -0.00393224 -1.5457e-21)
(0.0362075 -0.00499269 2.07213e-21)
(0.0551223 -0.00596864 -8.71756e-21)
(0.0766724 -0.00684 -3.77151e-21)
(0.100391 -0.00761939 3.68148e-21)
(0.125952 -0.00830665 -7.82182e-21)
(0.153078 -0.00891055 -3.83106e-21)
(0.181389 -0.00943575 3.40557e-21)
(0.210916 -0.00989001 1.07518e-20)
(-0.00180207 0.00111442 2.27666e-21)
(-0.00425044 0.000595898 6.50427e-21)
(-0.00432891 -0.000785239 -7.51723e-21)
(7.48909e-05 -0.00269932 1.07704e-20)
(0.0087417 -0.00463489 2.04248e-20)
(0.0213843 -0.00655668 -1.62048e-20)
(0.037626 -0.00831856 -2.12253e-21)
(0.0568744 -0.00993918 2.03694e-21)
(0.0787761 -0.011385 -5.99221e-21)
(0.102864 -0.0126772 -1.84833e-20)
(0.128812 -0.0138153 -1.04337e-20)
(0.156346 -0.014814 -3.86074e-21)
(0.185083 -0.0156811 9.76073e-21)
(0.215059 -0.016429 -1.33692e-21)
(-0.0018302 0.00154321 -2.50848e-20)
(-0.00411848 0.000805373 -7.88283e-21)
(-0.00389796 -0.00112884 3.94871e-20)
(0.000868204 -0.00380376 -1.31719e-20)
(0.00994949 -0.00650516 -3.36085e-20)
(0.0230364 -0.00918549 3.66511e-20)
(0.0397526 -0.0116405 -2.5032e-20)
(0.0595001 -0.0138969 -9.4701e-21)
(0.0819273 -0.0159076 5.90096e-21)
(0.106567 -0.0177023 1.48713e-20)
(0.133094 -0.0192805 1.59223e-20)
(0.161235 -0.0206624 -1.0252e-20)
(0.190607 -0.0218589 9.99532e-21)
(0.22125 -0.0228869 -2.27114e-20)
(-0.00186611 0.00195516 3.47765e-20)
(-0.00393976 0.000986195 -2.10999e-20)
(-0.00332056 -0.0015017 -5.18869e-20)
(0.00192822 -0.00493262 4.032e-20)
(0.0115611 -0.00839148 2.51846e-20)
(0.025239 -0.0118202 -2.89281e-20)
(0.042586 -0.0149568 2.80624e-20)
(0.0629963 -0.0178364 -1.57163e-20)
(0.0861211 -0.0203987 1.71351e-20)
(0.111492 -0.0226817 5.48156e-21)
(0.138786 -0.0246848 -8.95787e-22)
(0.16773 -0.0264335 1.34398e-20)
(0.19794 -0.0279425 -1.73783e-20)
(0.229461 -0.0292315 1.19739e-20)
(-0.00190847 0.00234563 1.99091e-20)
(-0.00371196 0.0011305 2.70223e-20)
(-0.00259433 -0.00191179 5.91309e-20)
(0.00325687 -0.00609248 -7.47795e-20)
(0.0135776 -0.0102981 -7.15525e-20)
(0.0279919 -0.0144622 6.53263e-20)
(0.0461241 -0.0182655 -4.51438e-21)
(0.067359 -0.0217523 5.09016e-20)
(0.0913505 -0.024849 -3.08861e-20)
(0.117629 -0.0276021 4.49674e-20)
(0.145873 -0.0300107 1.58712e-20)
(0.17581 -0.0321057 -9.81471e-21)
(0.207053 -0.0339053 -2.23398e-20)
(0.239655 -0.0354313 -1.32641e-21)
(-0.00195559 0.00271013 -5.81583e-20)
(-0.00343215 0.00123068 -1.52242e-20)
(-0.00171631 -0.0023668 -4.41426e-21)
(0.00485654 -0.00728965 4.51574e-20)
(0.0160002 -0.0122288 8.81784e-20)
(0.0312948 -0.0171124 -4.57156e-20)
(0.0503648 -0.0215643 -3.22875e-20)
(0.0725831 -0.025639 1.26877e-20)
(0.0976071 -0.0292491 5.7394e-20)
(0.124964 -0.0324503 -4.88584e-20)
(0.154336 -0.035241 -3.69119e-20)
(0.185449 -0.0376572 -2.49896e-20)
(0.217913 -0.0397211 3.43816e-20)
(0.251788 -0.0414553 2.9811e-20)
(-0.0020055 0.00304431 1.06258e-20)
(-0.00309688 0.0012794 3.12028e-20)
(-0.000682995 -0.00287404 -6.68063e-20)
(0.00673008 -0.00853008 -3.04142e-21)
(0.0188304 -0.0141873 -2.27923e-20)
(0.0351473 -0.0197716 -7.35247e-20)
(0.0553051 -0.0248509 5.2019e-20)
(0.0786628 -0.0294905 3.01495e-21)
(0.104881 -0.0335896 -7.11446e-20)
(0.133484 -0.0372128 -6.0756e-21)
(0.164153 -0.0403583 1.56524e-20)
(0.196617 -0.0430665 5.05243e-20)
(0.230479 -0.0453641 -2.43628e-20)
(0.265804 -0.0472733 -2.25004e-20)
(-0.0020559 0.00334403 3.39788e-20)
(-0.00270217 0.00126968 -2.87726e-20)
(0.000509667 -0.00344048 -3.36727e-20)
(0.00888075 -0.00981928 -2.50048e-20)
(0.0220701 -0.0161767 -1.53524e-21)
(0.0395491 -0.0224402 3.13093e-20)
(0.0609418 -0.0281224 -1.48858e-20)
(0.0855908 -0.0333005 -9.51064e-20)
(0.11316 -0.0378606 6.96442e-20)
(0.143168 -0.0418763 6.9926e-20)
(0.175299 -0.0453451 1.1721e-20)
(0.209278 -0.0483123 -3.07741e-20)
(0.244702 -0.0508091 -1.09903e-20)
(0.281641 -0.0528556 -6.63533e-21)
(-0.00210423 0.00360534 2.05167e-20)
(-0.00224351 0.00119493 8.32539e-20)
(0.00186624 -0.0040726 1.24178e-19)
(0.0113122 -0.0111623 8.02267e-20)
(0.025721 -0.0181996 3.26837e-21)
(0.0444997 -0.025118 2.3778e-20)
(0.0672711 -0.0313755 3.29545e-20)
(0.0933593 -0.0370626 -1.91248e-20)
(0.12243 -0.0420521 -8.92609e-20)
(0.153999 -0.046427 -8.88682e-20)
(0.187745 -0.0501844 -2.40405e-21)
(0.223393 -0.0533736 7.33019e-20)
(0.26053 -0.0560313 -1.57517e-20)
(0.299229 -0.058174 8.29254e-21)
(0.338551 -0.0598586 -2.13245e-20)
(-0.00214763 0.00382455 -3.608e-20)
(-0.00171592 0.001049 -9.32659e-20)
(0.00339179 -0.00477639 -2.49052e-20)
(0.0140286 -0.0125636 -1.08253e-19)
(0.0297855 -0.0202583 2.69853e-20)
(0.0499984 -0.0278045 -6.05075e-20)
(0.0742887 -0.0346066 -6.55479e-20)
(0.101959 -0.0407698 2.63138e-20)
(0.132678 -0.0461538 3.32709e-20)
(0.165951 -0.0508513 -1.7273e-20)
(0.201459 -0.0548588 -8.49489e-20)
(0.238916 -0.0582298 -9.5128e-20)
(0.277903 -0.0610067 4.55215e-20)
(0.318489 -0.0632009 -1.1569e-20)
(0.359694 -0.0648916 -7.51264e-21)
(-0.002183 0.00399824 -9.07337e-20)
(-0.00111397 0.000826194 -3.45935e-20)
(0.00509185 -0.00555726 3.76061e-20)
(0.0170343 -0.014027 7.88413e-20)
(0.0342657 -0.0223543 -7.1016e-20)
(0.0560446 -0.0304984 9.50035e-20)
(0.0819899 -0.0378114 1.22302e-19)
(0.111381 -0.0444149 3.08313e-20)
(0.143885 -0.0501552 -1.65411e-20)
(0.179001 -0.0551352 1.23276e-19)
(0.216403 -0.0593512 1.58949e-19)
(0.2558 -0.0628604 1.17419e-19)
(0.296755 -0.0657119 -4.71568e-20)
(0.339336 -0.0679104 -8.27665e-22)
(0.382517 -0.0695613 1.09201e-20)
(-0.00220701 0.00412325 8.35475e-20)
(-0.000431783 0.000521332 5.58782e-20)
(0.00697236 -0.00641999 -9.11763e-20)
(0.020334 -0.015556 -4.42022e-20)
(0.039164 -0.0244886 5.44742e-20)
(0.0626374 -0.0331982 -5.63179e-20)
(0.0903694 -0.0409855 -2.42948e-20)
(0.121613 -0.04799 2.34354e-20)
(0.156035 -0.0540453 3.02001e-20)
(0.193121 -0.0592649 -3.43328e-20)
(0.23254 -0.0636445 -5.16606e-20)
(0.273989 -0.0672457 -6.19712e-20)
(0.317016 -0.0701244 2.58448e-20)
(0.361677 -0.0722778 -1.4389e-20)
(0.406901 -0.0738414 3.38572e-20)
(-0.00221603 0.00419653 -7.66184e-20)
(0.00033686 0.00012999 9.55879e-20)
(0.00903971 -0.00736872 2.7111e-20)
(0.023933 -0.0171529 3.53786e-20)
(0.0444831 -0.0266614 1.24907e-19)
(0.0697757 -0.0359013 -5.95162e-20)
(0.0994214 -0.0441233 -1.51442e-19)
(0.132643 -0.0514869 2.88811e-21)
(0.169106 -0.057813 -5.43071e-21)
(0.208281 -0.0632261 -1.14342e-19)
(0.249828 -0.067722 -6.05249e-20)
(0.293428 -0.0713663 -4.08742e-20)
(0.33861 -0.0742228 -1.68212e-20)
(0.385415 -0.07628 2.59361e-21)
(0.432722 -0.0777077 -6.59465e-20)
(-0.0022061 0.004215 4.57358e-20)
(0.00119848 -0.000351328 -7.06521e-20)
(0.0113006 -0.00840686 9.43606e-21)
(0.0278364 -0.0188197 -1.5569e-19)
(0.0502255 -0.0288723 -1.1667e-19)
(0.0774583 -0.0386047 1.31827e-19)
(0.109139 -0.0472192 -2.16794e-20)
(0.144459 -0.054897 8.51302e-20)
(0.183078 -0.0614467 1.3856e-20)
(0.224449 -0.0670047 1.02473e-19)
(0.26822 -0.0715668 7.50996e-20)
(0.314054 -0.0752032 -1.75203e-20)
(0.361455 -0.0779864 3.09723e-20)
(0.410444 -0.0798955 9.59642e-20)
(0.459849 -0.0811385 2.01567e-20)
(-0.00217329 0.00417709 5.45415e-20)
(0.0021603 -0.000926538 2.80273e-20)
(0.013762 -0.00953714 -2.68387e-20)
(0.0320499 -0.0205573 1.87445e-19)
(0.0563939 -0.0311201 -1.0316e-19)
(0.0856838 -0.0413047 -9.94868e-20)
(0.119517 -0.0502666 6.88007e-20)
(0.157046 -0.0582109 -1.00704e-20)
(0.197928 -0.0649345 6.27839e-20)
(0.241591 -0.0705862 -6.77648e-20)
(0.28767 -0.0751626 2.63039e-20)
(0.335803 -0.0787384 3.4999e-20)
(0.385466 -0.0813961 1.18744e-19)
(0.436655 -0.0831049 -8.39864e-20)
(0.488145 -0.0841147 -5.32329e-20)
(-0.00211382 0.00408159 -9.50291e-20)
(0.00322966 -0.00159902 -4.55574e-20)
(0.0164312 -0.0107614 1.0042e-19)
(0.0365793 -0.022366 -2.48276e-20)
(0.0629909 -0.0334026 1.00521e-19)
(0.0944505 -0.0439967 1.4188e-19)
(0.130546 -0.0532583 -6.01562e-20)
(0.17039 -0.061419 -6.76835e-20)
(0.21363 -0.0682642 -1.96079e-19)
(0.259671 -0.0739563 1.42372e-19)
(0.308126 -0.078493 -1.791e-20)
(0.358605 -0.0819544 -1.01125e-20)
(0.410554 -0.0844338 -7.25999e-20)
(0.463934 -0.0858905 4.30853e-20)
(0.517466 -0.0866199 4.00583e-20)
(-0.00202333 0.00392648 -4.33373e-20)
(0.00441392 -0.0023704 -3.33928e-20)
(0.0193161 -0.0120808 -1.25924e-19)
(0.0414304 -0.0242451 -1.74125e-20)
(0.0700192 -0.035717 7.65696e-20)
(0.103756 -0.0466753 -1.16552e-19)
(0.142218 -0.0561866 1.85888e-20)
(0.184475 -0.0645109 7.45293e-20)
(0.23016 -0.0714233 1.46501e-19)
(0.278649 -0.0771007 -1.45183e-19)
(0.329533 -0.0815423 -5.00566e-20)
(0.382389 -0.0848346 7.14476e-20)
(0.436625 -0.0870829 1.62216e-20)
(0.492162 -0.0882371 2.00621e-20)
(0.547668 -0.0886408 3.37319e-20)
(-0.00189739 0.00371042 2.12998e-19)
(0.00572075 -0.00324187 -6.83361e-20)
(0.0224241 -0.0134955 1.6493e-19)
(0.0466093 -0.0261931 -8.01909e-21)
(0.0774813 -0.0380596 -8.78614e-20)
(0.113599 -0.0493345 2.05464e-21)
(0.154525 -0.0590428 6.11842e-20)
(0.199282 -0.067476 -1.07207e-20)
(0.247488 -0.074399 -1.04378e-19)
(0.298486 -0.0800047 1.05876e-20)
(0.351837 -0.0842949 -1.94184e-21)
(0.40708 -0.0873633 -6.69107e-21)
(0.463582 -0.0893284 -1.82253e-19)
(0.521217 -0.0901317 -4.2784e-20)
(0.578601 -0.0901673 -4.21522e-20)
(-0.00173153 0.00343262 -1.33448e-19)
(0.00715803 -0.00421406 2.07395e-19)
(0.0257634 -0.0150049 -2.00446e-19)
(0.0521219 -0.0282075 1.37172e-22)
(0.0853797 -0.0404256 -1.96548e-20)
(0.123976 -0.0519672 -8.25268e-20)
(0.167457 -0.0618177 1.2649e-21)
(0.214794 -0.0703027 9.22889e-20)
(0.265587 -0.0771782 1.88687e-19)
(0.319138 -0.0826542 -9.83104e-20)
(0.374978 -0.0867361 6.29581e-20)
(0.432599 -0.089526 -2.79748e-20)
(0.491325 -0.091157 1.25475e-19)
(0.550974 -0.0915635 -1.61463e-20)
(0.610114 -0.0911923 -2.03268e-20)
(-0.00152122 0.00309269 -5.53873e-20)
(0.0087338 -0.0052869 -2.46846e-19)
(0.029342 -0.0166075 1.83e-19)
(0.0579744 -0.0302849 1.43438e-19)
(0.0937164 -0.0428096 1.18363e-19)
(0.134884 -0.0545657 1.12726e-19)
(0.181003 -0.0645014 2.00274e-19)
(0.230992 -0.0729794 -2.66621e-19)
(0.284425 -0.0797475 -1.52526e-19)
(0.340561 -0.0850349 4.14413e-20)
(0.398894 -0.0888513 -2.60371e-20)
(0.458866 -0.091309 -8.92764e-20)
(0.519751 -0.0925571 -6.59522e-20)
(0.581308 -0.0925247 3.03343e-21)
(0.642055 -0.0917123 5.45465e-20)
(-0.00126187 0.00269056 1.43135e-19)
(0.0104561 -0.00645955 1.85026e-19)
(0.0331677 -0.0183008 -7.45448e-20)
(0.0641726 -0.0324209 -1.71205e-19)
(0.102494 -0.0452049 -1.24901e-19)
(0.146319 -0.0571214 -7.15524e-20)
(0.195153 -0.0670833 -1.67569e-19)
(0.247854 -0.0754937 4.93715e-20)
(0.303969 -0.0820936 5.9448e-20)
(0.362708 -0.0871329 -2.94568e-20)
(0.423522 -0.090627 2.69965e-20)
(0.485797 -0.0927002 1.44708e-21)
(0.548756 -0.0935191 1.40353e-19)
(0.612088 -0.09301 -6.0881e-20)
(0.674272 -0.0917273 -2.69761e-20)
(-0.000948837 0.00222659 -1.66988e-19)
(0.0123332 -0.0077304 -1.47761e-19)
(0.0372488 -0.0200816 -1.95328e-19)
(0.0707224 -0.0346101 2.38873e-20)
(0.111713 -0.0476041 6.79081e-20)
(0.158277 -0.0596246 3.87918e-20)
(0.209894 -0.069552 -1.19461e-19)
(0.26536 -0.0778328 1.10259e-19)
(0.324186 -0.0842027 -1.2725e-19)
(0.385531 -0.0889342 5.99936e-20)
(0.448796 -0.0920502 5.41695e-20)
(0.513308 -0.0936889 1.48267e-19)
(0.578234 -0.0940356 2.29872e-20)
(0.643188 -0.093017 5.89424e-20)
(0.706615 -0.0912407 -2.87349e-20)
(0.769545 -0.0877652 9.42494e-20)
(-0.000577512 0.00170148 7.41906e-20)
(0.0143731 -0.00909713 -1.3029e-20)
(0.0415931 -0.0219456 6.14121e-20)
(0.0776294 -0.0368462 -5.07244e-20)
(0.121375 -0.0499989 3.25576e-20)
(0.170753 -0.0620651 1.615e-19)
(0.225214 -0.0718955 -1.03411e-19)
(0.283484 -0.0799836 -2.85835e-20)
(0.34504 -0.0860612 1.89564e-19)
(0.408978 -0.0904257 -8.44632e-20)
(0.474649 -0.0931091 2.37657e-20)
(0.541312 -0.0942657 2.69467e-20)
(0.608076 -0.0941013 -1.76173e-19)
(0.674479 -0.0925459 5.51532e-20)
(0.738934 -0.0902595 -2.65311e-20)
(0.802355 -0.0862351 -1.94525e-20)
(-0.000143277 0.00111632 1.16191e-19)
(0.016584 -0.0105566 2.82248e-19)
(0.0462086 -0.0238876 1.6012e-19)
(0.0848989 -0.039122 -2.66172e-21)
(0.131481 -0.0523799 -1.21254e-19)
(0.183741 -0.0644318 -6.75564e-20)
(0.241098 -0.0741013 1.81329e-19)
(0.302204 -0.0819325 -7.12302e-21)
(0.366493 -0.0876553 8.95845e-22)
(0.432998 -0.0915945 1.52978e-19)
(0.501011 -0.0937926 -8.71672e-20)
(0.569721 -0.0944229 -9.6371e-20)
(0.638175 -0.0937132 1.50367e-19)
(0.705833 -0.0916002 5.49688e-20)
(0.771087 -0.0887941 1.18487e-19)
(0.834723 -0.0842338 -1.37939e-19)
(0.00035844 0.000472565 1.05652e-19)
(0.0189738 -0.012105 -1.11813e-19)
(0.0511027 -0.0259014 -9.72119e-20)
(0.092536 -0.0414292 9.26968e-20)
(0.142032 -0.0547368 1.61732e-19)
(0.197236 -0.0667126 4.64499e-20)
(0.257531 -0.0761562 7.11574e-20)
(0.321493 -0.0836659 -1.25305e-19)
(0.388507 -0.0889716 8.25094e-20)
(0.457537 -0.0924281 -1.60966e-19)
(0.527812 -0.094091 -1.85234e-19)
(0.598444 -0.0941548 -4.04686e-21)
(0.668423 -0.0928708 -3.82158e-20)
(0.737126 -0.0901862 -1.27448e-19)
(0.802932 -0.0868585 -5.68667e-20)
(0.8665 -0.0817846 9.05173e-20)
(0.000932154 -0.000227959 -1.13068e-19)
(0.0215503 -0.0137378 -1.44438e-19)
(0.056283 -0.0279802 7.84776e-20)
(0.100545 -0.0437585 9.33403e-20)
(0.153026 -0.0570586 -5.55199e-20)
(0.21123 -0.068895 -1.58043e-19)
(0.274498 -0.0780464 -1.61476e-20)
(0.341324 -0.0851696 -4.42519e-20)
(0.411042 -0.0899967 -3.03817e-19)
(0.482538 -0.0929152 1.21913e-19)
(0.554977 -0.0939958 2.48878e-19)
(0.627393 -0.0934573 3.60822e-20)
(0.698713 -0.0915758 -5.76259e-20)
(0.768235 -0.0883132 2.36283e-20)
(0.834338 -0.08447 -1.3258e-19)
(0.897548 -0.0789143 -3.19944e-20)
(0.0015823 -0.000983071 -3.0238e-19)
(0.0243212 -0.0154495 1.83922e-19)
(0.0617564 -0.0301159 -1.31882e-19)
(0.108931 -0.0460998 -2.73514e-19)
(0.164463 -0.0593332 -9.2647e-20)
(0.225714 -0.0709654 4.02886e-20)
(0.29198 -0.0797579 -8.55017e-21)
(0.361669 -0.0864296 1.45583e-19)
(0.434055 -0.0907175 2.01366e-19)
(0.507946 -0.0930448 1.96256e-19)
(0.582435 -0.0934999 -7.11195e-20)
(0.656477 -0.0923284 -1.21388e-19)
(0.728939 -0.0898328 2.01955e-20)
(0.799043 -0.0859933 -5.48478e-20)
(0.865176 -0.0816488 5.13815e-20)
(0.92774 -0.0756524 3.26048e-20)
(0.00231321 -0.00179024 1.08365e-19)
(0.0272938 -0.0172343 -3.95255e-20)
(0.0675297 -0.0322999 2.46397e-20)
(0.117696 -0.0484421 2.33904e-19)
(0.176341 -0.0615478 7.02846e-20)
(0.24068 -0.0729099 -2.83755e-19)
(0.309959 -0.0812759 1.55716e-19)
(0.382497 -0.0874317 -1.43737e-19)
(0.457502 -0.0911213 -4.36607e-20)
(0.533701 -0.0928073 -8.52336e-20)
(0.610111 -0.0925976 6.65308e-20)
(0.685606 -0.0907681 -9.45042e-20)
(0.758998 -0.0876487 -8.3788e-20)
(0.829434 -0.0832413 1.18644e-19)
(0.895329 -0.0784182 1.65227e-19)
(0.956962 -0.0720305 1.00392e-20)
(0.00312909 -0.00264659 -3.35901e-21)
(0.0304754 -0.0190852 8.5523e-20)
(0.0736091 -0.0345224 1.65311e-19)
(0.126845 -0.0507732 -8.56996e-20)
(0.188658 -0.0636887 -2.89807e-19)
(0.256117 -0.0747136 1.44791e-19)
(0.328416 -0.0825858 -3.27092e-19)
(0.403776 -0.0881618 1.95533e-19)
(0.48134 -0.0911962 8.83917e-20)
(0.559743 -0.0921937 -1.18415e-20)
(0.637929 -0.0912849 -9.13901e-20)
(0.714691 -0.0887787 1.94234e-20)
(0.788788 -0.0850329 1.34203e-19)
(0.859302 -0.0800751 -1.18147e-19)
(0.924685 -0.0748038 -8.96672e-21)
(0.985113 -0.0680823 -5.76285e-20)
(0.00403403 -0.00354893 2.10089e-19)
(0.0338726 -0.0209949 -2.38412e-20)
(0.0800004 -0.0367731 -1.16096e-19)
(0.136378 -0.0530806 -1.63553e-19)
(0.20141 -0.0657415 1.39549e-19)
(0.272014 -0.0763616 -1.52459e-19)
(0.347328 -0.0836723 1.40862e-19)
(0.425474 -0.088606 -4.31992e-20)
(0.505521 -0.0909306 -1.83399e-19)
(0.586012 -0.0911966 -8.74366e-21)
(0.665815 -0.0895597 9.76604e-20)
(0.743643 -0.0863645 1.99569e-19)
(0.818211 -0.0819975 -8.84464e-20)
(0.888544 -0.0765145 1.48033e-19)
(0.953147 -0.0708339 2.46081e-21)
(1.0121 -0.0638427 9.36815e-20)
(1.06275 -0.058912 -9.4449e-20)
(0.00503193 -0.00449373 -1.78353e-19)
(0.0374918 -0.0229553 -9.65518e-20)
(0.0867086 -0.0390405 -8.95316e-20)
(0.146298 -0.0553505 3.23111e-19)
(0.214591 -0.0676913 1.71773e-19)
(0.288358 -0.077838 2.01803e-19)
(0.366674 -0.0845202 9.2595e-20)
(0.447557 -0.0887507 3.67245e-20)
(0.529997 -0.0903138 1.28549e-19)
(0.612446 -0.0898096 -3.45784e-19)
(0.693694 -0.0874213 -1.13846e-20)
(0.772378 -0.083532 -4.56574e-20)
(0.847174 -0.0785567 1.73138e-19)
(0.917064 -0.072582 2.42101e-21)
(0.980623 -0.0665382 3.53177e-20)
(1.03786 -0.0593476 -9.20716e-20)
(1.0865 -0.0543132 3.69701e-20)
(0.00612654 -0.00547717 -1.66067e-19)
(0.0413391 -0.0249577 4.55873e-20)
(0.0937384 -0.0413128 2.22253e-20)
(0.156605 -0.0575686 -1.12146e-19)
(0.228198 -0.0695224 -1.17255e-19)
(0.305136 -0.0791269 -5.72958e-20)
(0.386429 -0.0851143 1.28588e-19)
(0.469987 -0.0885826 6.52489e-20)
(0.55472 -0.0893362 -5.85918e-20)
(0.638983 -0.088028 1.72199e-19)
(0.721491 -0.0848713 9.82308e-20)
(0.80081 -0.0802899 -8.49416e-21)
(0.875588 -0.0747272 -1.05673e-19)
(0.944776 -0.0683019 -1.46604e-19)
(1.00704 -0.0619482 -8.8814e-20)
(1.06233 -0.0546331 2.98086e-20)
(1.10876 -0.0495547 -9.52488e-22)
(0.00732139 -0.00649513 -6.95072e-21)
(0.0454199 -0.0269927 1.74743e-21)
(0.101094 -0.0435772 1.62252e-19)
(0.167299 -0.0597198 -2.10965e-19)
(0.242222 -0.0712186 1.22552e-19)
(0.322332 -0.0802119 1.5349e-19)
(0.406567 -0.0854395 -8.42941e-20)
(0.492728 -0.0880892 4.01976e-20)
(0.579639 -0.087989 -5.38861e-20)
(0.66556 -0.0858483 -1.03914e-20)
(0.749133 -0.081913 3.86941e-20)
(0.828859 -0.0766491 6.78111e-20)
(0.903369 -0.0705278 -1.05551e-20)
(0.9716 -0.0637004 1.19206e-19)
(1.03232 -0.0570962 8.02788e-20)
(1.08545 -0.049735 3.51274e-20)
(1.12952 -0.0446754 -9.77991e-21)
(0.00861983 -0.00754322 4.51364e-19)
(0.0497392 -0.0290505 -1.26158e-19)
(0.108777 -0.0458202 -2.60606e-19)
(0.178379 -0.0617887 2.18716e-19)
(0.256656 -0.0727632 -1.03692e-19)
(0.33993 -0.0810766 -3.17561e-20)
(0.427062 -0.0854807 2.81463e-20)
(0.515741 -0.0872583 2.2895e-20)
(0.604703 -0.0862647 3.50797e-20)
(0.692115 -0.083269 -7.59619e-20)
(0.776547 -0.0785516 -1.06989e-20)
(0.856446 -0.0726227 -2.5094e-19)
(0.930438 -0.0659791 -5.46466e-20)
(0.997465 -0.0588048 -4.64467e-20)
(1.05641 -0.0520153 -1.60541e-20)
(1.10721 -0.0446887 2.47975e-20)
(1.14877 -0.0397122 -6.49843e-21)
(0.010025 -0.00861676 -3.72062e-19)
(0.0543015 -0.0311205 3.48156e-20)
(0.116792 -0.0480279 1.601e-19)
(0.189842 -0.0637588 -1.5049e-19)
(0.271491 -0.0741393 -1.33784e-19)
(0.357911 -0.0817046 -1.91889e-19)
(0.447884 -0.0852235 -8.46819e-20)
(0.538985 -0.0860788 -2.04624e-19)
(0.629861 -0.0841569 -1.92231e-20)
(0.718584 -0.0802899 6.76809e-20)
(0.803661 -0.0747945 -1.95588e-19)
(0.883496 -0.0682255 8.77997e-20)
(0.956724 -0.0611037 -3.75999e-20)
(1.02231 -0.0536439 -8.92552e-20)
(1.07927 -0.0467388 -1.14402e-19)
(1.12758 -0.0395282 1.08026e-20)
(1.16652 -0.0347001 4.41196e-20)
(0.0115396 -0.00971086 3.19205e-19)
(0.0591106 -0.033192 7.99187e-20)
(0.125138 -0.0501856 1.47757e-19)
(0.201685 -0.0656135 1.21671e-19)
(0.286716 -0.0753295 3.54122e-19)
(0.376256 -0.0820792 1.60568e-19)
(0.469005 -0.0846536 -3.06171e-20)
(0.56242 -0.0845404 8.32143e-20)
(0.655059 -0.0816607 -9.81737e-20)
(0.744905 -0.0769128 1.73562e-19)
(0.830409 -0.0706508 8.78561e-20)
(0.90994 -0.0634745 1.96482e-20)
(0.982162 -0.0559254 1.48943e-19)
(1.04608 -0.0482468 2.81984e-20)
(1.10087 -0.0412994 8.98433e-20)
(1.14655 -0.0342861 -1.37942e-19)
(1.18279 -0.0296715 -1.06929e-19)
(1.21082 -0.0226097 1.17575e-21)
(0.0131665 -0.0108204 -4.04757e-19)
(0.0641697 -0.0352533 1.15885e-20)
(0.133817 -0.0522783 -1.78731e-19)
(0.213903 -0.0673358 1.6054e-20)
(0.302319 -0.0763165 -4.45897e-19)
(0.394944 -0.0821841 2.19415e-20)
(0.490392 -0.0837574 2.86989e-20)
(0.586003 -0.0826338 -2.01553e-20)
(0.680245 -0.0787727 6.15607e-20)
(0.771017 -0.0731412 -1.65911e-20)
(0.856722 -0.0661316 4.54306e-20)
(0.935713 -0.0583882 2.43594e-20)
(1.00669 -0.0504693 -3.86997e-20)
(1.06874 -0.0426433 -1.22112e-20)
(1.12119 -0.0357296 -4.59988e-20)
(1.16413 -0.0289931 1.41388e-19)
(1.19762 -0.0246561 5.51384e-20)
(1.22265 -0.0183256 5.51267e-20)
(0.0149078 -0.0119399 3.20245e-19)
(0.0694813 -0.0372928 -1.93879e-19)
(0.142829 -0.0542904 1.72585e-20)
(0.22649 -0.0689081 -1.99508e-19)
(0.318287 -0.0770826 5.02401e-19)
(0.413953 -0.0820034 1.77118e-19)
(0.512012 -0.0825222 -2.79177e-19)
(0.60969 -0.0803509 -6.49745e-20)
(0.705365 -0.075491 1.08334e-21)
(0.79686 -0.0689803 1.2143e-20)
(0.882538 -0.06125 -1.16273e-19)
(0.960752 -0.0529867 4.44895e-20)
(1.03027 -0.0447617 1.15195e-19)
(1.09024 -0.036863 1.72828e-19)
(1.14021 -0.0300605 4.92588e-20)
(1.18034 -0.0236776 -4.56701e-20)
(1.21106 -0.0196809 -1.90677e-20)
(1.23316 -0.0141469 -7.23247e-20)
(0.0167656 -0.0130639 8.67284e-20)
(0.0750474 -0.0392981 3.035e-19)
(0.152171 -0.056206 -9.62436e-20)
(0.23944 -0.0703128 9.05232e-20)
(0.334605 -0.0776105 -1.94303e-19)
(0.433258 -0.0815213 -6.77578e-20)
(0.533832 -0.0809358 1.96845e-19)
(0.633437 -0.0776849 1.64574e-20)
(0.730367 -0.0718152 8.67023e-20)
(0.822374 -0.0644373 -4.00523e-20)
(0.907797 -0.0560205 6.60339e-20)
(0.985004 -0.0472915 -3.43929e-20)
(1.05284 -0.0388291 -5.12305e-20)
(1.11057 -0.0309354 -1.78467e-19)
(1.15793 -0.024322 -9.668e-20)
(1.1952 -0.0183657 -4.01272e-20)
(1.22314 -0.0147702 6.61618e-21)
(1.24244 -0.010084 5.33732e-20)
(0.0187419 -0.0141868 -3.79697e-19)
(0.0808692 -0.041257 -5.74552e-20)
(0.161841 -0.0580091 9.41404e-20)
(0.252743 -0.0715323 -9.54396e-20)
(0.351257 -0.0778829 -1.19467e-19)
(0.452835 -0.0807229 -2.25091e-19)
(0.555816 -0.0789872 -2.08179e-19)
(0.657199 -0.0746302 1.86562e-19)
(0.755197 -0.0677468 6.35588e-20)
(0.847502 -0.059521 -2.04243e-19)
(0.932442 -0.0504594 -5.24021e-20)
(1.00842 -0.0413252 -1.50324e-19)
(1.07438 -0.0326986 -7.15592e-20)
(1.12972 -0.0248892 1.73984e-19)
(1.17436 -0.0185423 9.40467e-20)
(1.20876 -0.013081 -8.28713e-20)
(1.23394 -0.0099452 -6.52869e-21)
(1.25057 -0.0061414 -5.09846e-20)
(1.26209 -0.00679335 7.55166e-20)
(0.0208381 -0.0153027 2.60899e-19)
(0.086947 -0.0431565 -4.94884e-20)
(0.171836 -0.0596833 2.06778e-19)
(0.266391 -0.0725486 2.0474e-19)
(0.368225 -0.0778827 1.71853e-19)
(0.472655 -0.0795936 1.04848e-19)
(0.577927 -0.0766664 2.79318e-19)
(0.680931 -0.0711829 -1.2703e-19)
(0.779803 -0.0632887 -1.24784e-20)
(0.872189 -0.0542421 2.51193e-19)
(0.95642 -0.0445845 1.12856e-19)
(1.03095 -0.0351113 2.82344e-19)
(1.09485 -0.0263975 1.63246e-20)
(1.14766 -0.0187523 -1.58456e-19)
(1.18952 -0.0127476 -5.31697e-20)
(1.22104 -0.00784426 1.6465e-19)
(1.24351 -0.00522369 2.31207e-20)
(1.25762 -0.0023206 6.59149e-20)
(1.26714 -0.00302995 -9.00338e-21)
(0.0230551 -0.0164054 -1.89896e-19)
(0.0932803 -0.0449835 -8.71914e-21)
(0.182151 -0.0612117 -2.7322e-19)
(0.280372 -0.073344 -2.17876e-20)
(0.38549 -0.077593 1.12136e-19)
(0.492691 -0.0781196 -1.00208e-20)
(0.600128 -0.0739644 -4.29955e-20)
(0.704586 -0.0673402 -1.69448e-19)
(0.804134 -0.0584457 -4.32603e-20)
(0.896382 -0.0486129 -2.58102e-19)
(0.979682 -0.0384149 -3.54356e-20)
(1.05257 -0.0286739 -1.93673e-19)
(1.11424 -0.0199526 3.0301e-20)
(1.1644 -0.0125512 2.38391e-20)
(1.20343 -0.00696198 3.73157e-20)
(1.23209 -0.00267383 -1.36801e-19)
(1.25193 -0.000619774 -5.63667e-20)
(1.26367 0.00137905 2.93291e-20)
(1.27123 0.000492623 -6.46716e-20)
(0.0253937 -0.0174887 2.66129e-19)
(0.0998677 -0.0467246 -8.87091e-20)
(0.192779 -0.0625776 8.45305e-20)
(0.294673 -0.0739006 5.61908e-20)
(0.40303 -0.0769977 -3.43756e-19)
(0.512913 -0.0762882 -1.7379e-19)
(0.62238 -0.0708737 2.8447e-20)
(0.728118 -0.0631013 1.1116e-19)
(0.828138 -0.0532244 -5.81195e-20)
(0.92003 -0.042647 3.49266e-19)
(1.00218 -0.0319706 1.22481e-19)
(1.07323 -0.0220377 1.26299e-19)
(1.13252 -0.0133903 -1.19767e-20)
(1.17996 -0.00631136 -2.46861e-20)
(1.21613 -0.00120738 -8.8341e-20)
(1.24198 0.00241459 5.04882e-21)
(1.25926 0.00385599 1.07187e-19)
(1.26879 0.00495784 -9.30612e-20)
(1.27449 0.00378875 5.75316e-20)
(0.0278543 -0.0185463 -2.09677e-19)
(0.106707 -0.0483664 2.1581e-19)
(0.203714 -0.0637644 -1.58312e-19)
(0.30928 -0.0742011 -2.24281e-19)
(0.420825 -0.0760811 1.34765e-19)
(0.53329 -0.0740873 1.85002e-19)
(0.644643 -0.0673879 9.72874e-20)
(0.751482 -0.0584668 7.50809e-21)
(0.851768 -0.0476327 8.80917e-21)
(0.943086 -0.0363598 -3.16355e-19)
(1.02389 -0.025273 -2.14848e-19)
(1.09292 -0.0152274 -9.20654e-20)
(1.1497 -0.00673634 -9.48477e-20)
(1.19434 -5.63487e-05 -1.58629e-20)
(1.22765 0.0044967 -4.35937e-20)
(1.25075 0.00740776 -9.10367e-21)
(1.26557 0.00819627 -3.96163e-20)
(1.27306 0.00841519 8.03031e-20)
(1.27701 0.00687444 -1.03343e-19)
(1.27414 0.00516356 1.71315e-20)
(0.0304369 -0.0195717 -1.89931e-19)
(0.113796 -0.0498955 -3.81913e-19)
(0.214948 -0.0647555 3.95949e-20)
(0.324178 -0.0742284 1.62853e-19)
(0.438849 -0.0748282 1.08991e-19)
(0.55379 -0.0715063 3.66311e-20)
(0.666878 -0.0635024 -2.68233e-19)
(0.774632 -0.0534389 -3.15273e-20)
(0.874975 -0.0416805 -3.39567e-20)
(0.965507 -0.029768 8.10362e-20)
(1.04476 -0.0183438 2.04403e-19)
(1.11161 -0.00826768 -6.82329e-20)
(1.16578 -1.54911e-05 4.92372e-20)
(1.20757 0.00619188 1.4642e-19)
(1.23803 0.0101331 1.74961e-19)
(1.25846 0.0122948 8.51626e-20)
(1.27094 0.0123965 9.25805e-20)
(1.27653 0.0117507 -3.77732e-21)
(1.27888 0.00976645 1.56667e-19)
(1.27535 0.00706982 -3.46e-20)
(0.0331413 -0.0205586 3.747e-21)
(0.121129 -0.0512982 -4.18153e-21)
(0.226469 -0.0655342 5.73601e-20)
(0.339351 -0.0739659 2.97369e-20)
(0.457079 -0.073225 -1.31249e-19)
(0.574379 -0.0685355 -1.66985e-19)
(0.689044 -0.0592137 3.41214e-19)
(0.797522 -0.0480216 -3.88602e-20)
(0.897713 -0.0353791 -9.64977e-20)
(0.987251 -0.0228894 1.2599e-21)
(1.06476 -0.0112055 -2.42295e-19)
(1.12929 -0.00118302 1.01192e-19)
(1.18075 0.00674866 -8.87692e-22)
(1.21968 0.0124132 -1.10791e-20)
(1.24732 0.0156869 -7.21172e-20)
(1.26518 0.0170672 -1.50229e-19)
(1.27543 0.0164543 -9.2554e-20)
(1.27929 0.0149645 -1.84925e-20)
(1.28018 0.0124812 -1.02692e-19)
(1.27608 0.00895023 3.98186e-20)
(0.0359667 -0.0215003 1.79886e-19)
(0.128703 -0.052561 4.85921e-19)
(0.238269 -0.0660845 2.1017e-19)
(0.354779 -0.0733975 1.17279e-19)
(0.475488 -0.0712582 1.40107e-19)
(0.595023 -0.0651667 3.80076e-20)
(0.7111 -0.0545201 -1.23221e-19)
(0.820108 -0.0422205 1.40542e-19)
(0.91994 -0.0287414 3.78128e-20)
(1.00828 -0.0157427 8.05198e-20)
(1.08388 -0.00388087 1.1944e-19)
(1.14595 0.00600263 -1.38893e-19)
(1.19463 0.0135338 9.46611e-20)
(1.23069 0.0185895 -6.95447e-20)
(1.25557 0.0211457 -6.50477e-20)
(1.27096 0.0217183 8.77831e-20)
(1.27912 0.0203696 6.08836e-21)
(1.28139 0.018058 -9.5505e-21)
(1.28097 0.0150343 2.41994e-20)
(1.27638 0.0107816 2.52038e-20)
(0.038912 -0.0223904 2.16826e-19)
(0.136511 -0.0536705 -1.60804e-19)
(0.250335 -0.0663903 -1.3543e-19)
(0.370444 -0.0725078 -3.49789e-19)
(0.494048 -0.0689157 -1.7194e-19)
(0.615687 -0.061393 5.40827e-20)
(0.733005 -0.0494215 -9.56432e-20)
(0.842347 -0.0360429 -1.286e-20)
(0.941612 -0.0217816 1.16377e-20)
(1.02856 -0.00834793 -1.63371e-19)
(1.10208 0.00360708 -1.89553e-19)
(1.16158 0.013266 1.81842e-19)
(1.20744 0.0203191 -1.35625e-19)
(1.24064 0.0247045 8.60893e-20)
(1.26284 0.026499 1.09674e-19)
(1.27586 0.0262436 -2.98416e-20)
(1.28207 0.0241438 5.84229e-20)
(1.28289 0.0210332 4.14346e-20)
(1.28131 0.0174399 -1.20151e-20)
(1.27629 0.0125494 3.68214e-20)
(0.0419757 -0.0232222 -2.55707e-19)
(0.144548 -0.0546134 -2.2768e-19)
(0.262653 -0.0664362 -1.16535e-19)
(0.386324 -0.0712821 1.76162e-19)
(0.51273 -0.0661863 -1.47089e-19)
(0.636336 -0.0572087 -1.48387e-19)
(0.754718 -0.0439194 1.13628e-19)
(0.864196 -0.0294974 4.95395e-20)
(0.962693 -0.0145151 1.62832e-19)
(1.04807 -0.00072538 2.63081e-19)
(1.11936 0.0112355 1.20396e-19)
(1.1762 0.0205846 -2.07626e-19)
(1.2192 0.0270851 9.90251e-20)
(1.24957 0.0307438 -1.37605e-19)
(1.26916 0.0317383 -8.74331e-22)
(1.27995 0.0306402 1.24613e-19)
(1.28435 0.0277796 -3.40491e-20)
(1.28385 0.0238932 -5.42578e-21)
(1.28124 0.0197111 -1.07449e-20)
(1.27586 0.0142444 -7.90917e-20)
(0.0451559 -0.0239892 3.29112e-19)
(0.152805 -0.0553765 1.72457e-19)
(0.275209 -0.066207 4.44512e-20)
(0.402398 -0.0697064 9.30164e-20)
(0.531505 -0.0630601 1.46014e-19)
(0.656931 -0.05261 1.46432e-19)
(0.776199 -0.0380168 -1.57163e-19)
(0.885615 -0.0225946 1.14939e-20)
(0.983146 -0.00695874 -1.00574e-19)
(1.06677 0.0071039 2.62262e-20)
(1.1357 0.0189817 -1.20446e-19)
(1.18981 0.0279371 -1.4521e-20)
(1.22993 0.0338142 -7.33181e-21)
(1.25752 0.036695 1.56932e-20)
(1.2746 0.0368574 -1.359e-19)
(1.28328 0.0349067 -1.67528e-19)
(1.286 0.0312806 -3.66886e-20)
(1.28433 0.0266414 -4.90606e-20)
(1.28082 0.0218597 -2.6012e-20)
(1.27513 0.015862 -1.94711e-20)
(0.0484502 -0.0246849 -1.36252e-19)
(0.161273 -0.0559468 4.24696e-20)
(0.287988 -0.0656882 2.11313e-19)
(0.418641 -0.0677678 -2.54918e-19)
(0.550342 -0.0595286 1.06298e-19)
(0.677438 -0.0475942 -2.9007e-19)
(0.797407 -0.0317184 7.74882e-20)
(0.906563 -0.0153461 -5.49741e-20)
(1.00294 0.000869829 5.93071e-20)
(1.08464 0.0151185 8.64922e-20)