/*--------------------------------*- C++ -*----------------------------------*\
  =========                 |
  \\      /  F ield         | OpenFOAM: The Open Source CFD Toolbox
   \\    /   O peration     | Website:  https://openfoam.org
    \\  /    A nd           | Version:  7
     \\/     M anipulation  |
\*---------------------------------------------------------------------------*/
FoamFile
{
    version     2.0;
    format      ascii;
    class       volScalarField;
    location    "30";
    object      p;
}
// * * * * * * * * * * * * * * * * * * * * * * * * * * * * * * * * * * * * * //

dimensions      [0 2 -2 0 0 0 0];

internalField   nonuniform List<scalar> 
657
(
-0.0610039
-0.0570763
-0.0533354
-0.154862
-0.16444
-0.161071
-0.156529
-0.151584
-0.145971
-0.140075
-0.134047
-0.127987
-0.121965
-0.116027
-0.110206
-0.104522
-0.0989913
-0.0936242
-0.0884291
-0.0834121
-0.0785776
-0.0739285
-0.0694663
-0.0651912
-0.0611022
-0.0571969
-0.0534721
-0.15231
-0.159604
-0.156903
-0.152835
-0.14839
-0.143269
-0.137805
-0.132155
-0.126422
-0.120682
-0.114986
-0.109373
-0.103867
-0.098488
-0.0932507
-0.0881659
-0.083242
-0.0784853
-0.0739006
-0.0694909
-0.0652577
-0.0612014
-0.0573208
-0.0536137
-0.149494
-0.154793
-0.152646
-0.14904
-0.145066
-0.140427
-0.135398
-0.130136
-0.124743
-0.119299
-0.113859
-0.108466
-0.103151
-0.0979352
-0.0928376
-0.0878717
-0.0830483
-0.0783758
-0.0738609
-0.0695082
-0.0653208
-0.0613003
-0.0574469
-0.0537595
-0.146308
-0.149984
-0.148291
-0.145145
-0.141619
-0.137451
-0.132859
-0.127992
-0.12295
-0.117814
-0.112644
-0.107485
-0.102371
-0.0973303
-0.0923824
-0.0875442
-0.082829
-0.0782474
-0.073808
-0.0695171
-0.0653794
-0.061398
-0.0575744
-0.0539088
-0.14271
-0.145158
-0.143834
-0.141146
-0.138053
-0.134347
-0.13019
-0.125724
-0.121043
-0.116227
-0.111338
-0.106426
-0.101527
-0.0966709
-0.0918827
-0.0871811
-0.0825821
-0.0780983
-0.0737403
-0.0695162
-0.0654325
-0.0614937
-0.0577028
-0.0540613
-0.138701
-0.140294
-0.139277
-0.137046
-0.134376
-0.13112
-0.127397
-0.123335
-0.119022
-0.114537
-0.109942
-0.105287
-0.100614
-0.0959546
-0.0913362
-0.0867804
-0.0823056
-0.0779267
-0.0736562
-0.0695043
-0.065479
-0.0615865
-0.0578313
-0.0542162
-0.134308
-0.135377
-0.134627
-0.132847
-0.130595
-0.127779
-0.124488
-0.120831
-0.116892
-0.112746
-0.108454
-0.104069
-0.0996322
-0.09518
-0.0907411
-0.0863402
-0.0819977
-0.0777308
-0.0735542
-0.0694798
-0.0655175
-0.0616751
-0.0579588
-0.0543727
-0.129578
-0.130398
-0.129898
-0.128559
-0.126722
-0.124336
-0.121471
-0.11822
-0.114659
-0.110858
-0.106878
-0.102771
-0.0985816
-0.0943462
-0.0900964
-0.085859
-0.0816568
-0.0775092
-0.0734327
-0.0694413
-0.0655467
-0.0617585
-0.0580842
-0.0545299
-0.124567
-0.125354
-0.125103
-0.124193
-0.122769
-0.120805
-0.118359
-0.115511
-0.112329
-0.108878
-0.105217
-0.101397
-0.0974631
-0.0934535
-0.0894016
-0.0853361
-0.0812819
-0.0772605
-0.0732904
-0.0693875
-0.0655653
-0.0618352
-0.0582065
-0.0546866
-0.119339
-0.120256
-0.120264
-0.119768
-0.118753
-0.1172
-0.115166
-0.112717
-0.109914
-0.106815
-0.103477
-0.0999505
-0.0962793
-0.0925034
-0.0886572
-0.0847714
-0.0808724
-0.0769839
-0.0731262
-0.0693171
-0.0655721
-0.0619042
-0.0583244
-0.0548418
-0.113962
-0.115119
-0.115404
-0.115305
-0.114691
-0.113541
-0.11191
-0.109854
-0.107425
-0.104679
-0.101667
-0.0984374
-0.0950348
-0.0914988
-0.0878652
-0.0841656
-0.0804285
-0.076679
-0.0729394
-0.0692292
-0.0655658
-0.061964
-0.0584365
-0.054994
-0.108506
-0.109971
-0.110551
-0.11083
-0.110608
-0.10985
-0.108611
-0.106939
-0.10488
-0.102483
-0.0997962
-0.0968661
-0.0937357
-0.0904444
-0.0870286
-0.083521
-0.0799513
-0.0763462
-0.0727297
-0.0691232
-0.0655456
-0.0620135
-0.0585415
-0.0551419
-0.103041
-0.104845
-0.105736
-0.106375
-0.106531
-0.106151
-0.105291
-0.103992
-0.102295
-0.100242
-0.0978784
-0.0952474
-0.0923904
-0.0893466
-0.0861522
-0.0828407
-0.0794428
-0.0759866
-0.0724975
-0.0689987
-0.0655107
-0.0620518
-0.0586383
-0.0552842
-0.0976358
-0.0997842
-0.100994
-0.101974
-0.102488
-0.102473
-0.101976
-0.101038
-0.0996919
-0.0979754
-0.0959293
-0.0935943
-0.0910098
-0.0882139
-0.0852425
-0.0821296
-0.0789065
-0.0756024
-0.0722441
-0.0688562
-0.0654608
-0.0620781
-0.0587257
-0.0554193
-0.0923579
-0.094833
-0.0963626
-0.0976624
-0.0985151
-0.0988457
-0.0986965
-0.0981034
-0.0970948
-0.0957039
-0.0939673
-0.0919225
-0.0896068
-0.0870568
-0.084308
-0.0813941
-0.078347
-0.0751968
-0.0719715
-0.0686967
-0.0653963
-0.0620919
-0.0588027
-0.055546
-0.0872701
-0.0900409
-0.0918836
-0.0934815
-0.0946483
-0.0953042
-0.095483
-0.095217
-0.0945304
-0.0934517
-0.0920136
-0.0902504
-0.088197
-0.0858884
-0.0833591
-0.0806425
-0.0777708
-0.0747746
-0.0716827
-0.0685222
-0.065318
-0.0620932
-0.0588686
-0.0556631
-0.0824322
-0.0854596
-0.0876004
-0.0894732
-0.0909281
-0.0918857
-0.0923709
-0.0924116
-0.0920285
-0.0912459
-0.0900923
-0.0885991
-0.0867986
-0.084724
-0.0824086
-0.0798851
-0.0771859
-0.0743417
-0.0713822
-0.0683353
-0.0652273
-0.0620825
-0.0589231
-0.0557695
-0.0779003
-0.081142
-0.0835588
-0.0856819
-0.0873973
-0.0886307
-0.0893982
-0.089723
-0.0896223
-0.0891165
-0.0882307
-0.0869927
-0.0854326
-0.0835815
-0.0814713
-0.0791342
-0.0766019
-0.0739056
-0.0710754
-0.06814
-0.0651267
-0.0620609
-0.0589663
-0.0558643
-0.0737274
-0.0771415
-0.0798071
-0.0821545
-0.0841017
-0.0855828
-0.0866062
-0.0871899
-0.0873479
-0.0870969
-0.0864587
-0.0854581
-0.0841226
-0.0824813
-0.0805647
-0.0784041
-0.0760307
-0.0734756
-0.0707693
-0.0679412
-0.0650193
-0.0620301
-0.0589985
-0.0559472
-0.0699649
-0.0735126
-0.076396
-0.0789404
-0.0810899
-0.0827891
-0.0840397
-0.0848547
-0.0852448
-0.0852237
-0.0848099
-0.0840254
-0.0828953
-0.0814467
-0.0797087
-0.0777114
-0.0754857
-0.0730624
-0.0704721
-0.0677448
-0.0649091
-0.0619925
-0.0590207
-0.0560177
-0.0666643
-0.0703118
-0.0733795
-0.0760927
-0.0784143
-0.0803003
-0.0817475
-0.0827636
-0.0833565
-0.0835371
-0.0833211
-0.0827279
-0.0817802
-0.0805036
-0.0789255
-0.0770751
-0.0749826
-0.0726786
-0.0701937
-0.0675581
-0.0648012
-0.0619511
-0.0590344
-0.056076
-0.0638798
-0.0675986
-0.0708163
-0.0736687
-0.0761317
-0.0781719
-0.0797827
-0.0809671
-0.0817304
-0.0820812
-0.0820327
-0.0816021
-0.0808102
-0.0796808
-0.0782401
-0.0765163
-0.0745389
-0.0723382
-0.0699449
-0.0673894
-0.0647014
-0.0619096
-0.0590413
-0.0561223
-0.0616717
-0.0654386
-0.0687711
-0.0717319
-0.0743046
-0.0764648
-0.0782036
-0.0795206
-0.0804186
-0.0809044
-0.0809892
-0.0806883
-0.0800211
-0.0790099
-0.0776797
-0.0760581
-0.0741738
-0.072057
-0.0697382
-0.0672479
-0.0646162
-0.0618721
-0.0590436
-0.056157
-0.0601087
-0.0639056
-0.067317
-0.0703537
-0.0730027
-0.0752465
-0.0770752
-0.0784854
-0.0794784
-0.0800596
-0.0802389
-0.0800304
-0.079452
-0.0785251
-0.0772741
-0.0757257
-0.0739084
-0.071852
-0.0695869
-0.0671437
-0.0645527
-0.0618432
-0.0590436
-0.0561806
-0.0592675
-0.0630837
-0.0665388
-0.0696168
-0.0723066
-0.0745947
-0.076471
-0.0779308
-0.0789743
-0.0796063
-0.079836
-0.0796768
-0.0791459
-0.0782641
-0.0770556
-0.0755464
-0.0737651
-0.0717411
-0.069505
-0.0670872
-0.0645181
-0.0618274
-0.0590434
-0.0561932
-0.0533018
-0.169207
-0.165185
-0.187408
-0.161083
-0.18069
-0.156622
-0.173587
-0.151811
-0.166345
-0.146707
-0.159102
-0.141342
-0.15191
-0.135755
-0.144794
-0.129997
-0.137774
-0.124125
-0.130871
-0.118197
-0.124103
-0.112268
-0.117494
-0.106394
-0.111072
-0.100625
-0.104865
-0.0950093
-0.0988993
-0.0895902
-0.0932028
-0.0844073
-0.0878007
-0.0794967
-0.0827167
-0.0748915
-0.0779738
-0.0706228
-0.0735953
-0.0667218
-0.0696061
-0.063221
-0.0660347
-0.0601565
-0.0629148
-0.0575696
-0.0602871
-0.0555109
-0.0582022
-0.0540395
-0.0567212
-0.053214
-0.0559088
)
;

boundaryField
{
    inlet
    {
        type            zeroGradient;
    }
    outlet
    {
        type            fixedValue;
        value           nonuniform 0();
    }
    cylinder
    {
        type            zeroGradient;
    }
    top
    {
        type            symmetryPlane;
    }
    bottom
    {
        type            symmetryPlane;
    }
    defaultFaces
    {
        type            empty;
    }
    procBoundary14to9
    {
        type            processor;
        value           nonuniform List<scalar> 8(-0.163327 -0.15936 -0.155177 -0.150629 -0.145749 -0.140627 -0.13532 -0.129866);
    }
    procBoundary14to10
    {
        type            processor;
        value           nonuniform List<scalar> 
29
(
-0.0609077
-0.0569596
-0.0532043
-0.15733
-0.15733
-0.169314
-0.165159
-0.160115
-0.154636
-0.148526
-0.142204
-0.13581
-0.129437
-0.123149
-0.116984
-0.110969
-0.10512
-0.0994478
-0.0939606
-0.0886636
-0.0835608
-0.0786547
-0.0739465
-0.0694362
-0.0651228
-0.0651228
-0.173182
-0.193624
-0.193624
)
;
    }
    procBoundary14to11
    {
        type            processor;
        value           uniform -0.0497762;
    }
    procBoundary14to13
    {
        type            processor;
        value           nonuniform List<scalar> 
19
(
-0.124304
-0.118676
-0.11302
-0.107377
-0.101788
-0.0962929
-0.0909317
-0.085743
-0.0807639
-0.0760298
-0.0715747
-0.0674319
-0.0636347
-0.060218
-0.0572194
-0.0546815
-0.0526548
-0.0511967
-0.0503619
)
;
    }
    procBoundary14to15
    {
        type            processor;
        value           nonuniform List<scalar> 
26
(
-0.0499234
-0.0500768
-0.0502359
-0.0504002
-0.0505693
-0.0507427
-0.0509197
-0.0510996
-0.0512812
-0.0514636
-0.0516453
-0.0518251
-0.0520014
-0.0521726
-0.0523371
-0.0524933
-0.0526396
-0.0527747
-0.052897
-0.0530054
-0.0530988
-0.0531763
-0.0532367
-0.0532791
-0.0532791
-0.0503926
)
;
    }
}


// ************************************************************************* //
