/*--------------------------------*- C++ -*----------------------------------*\
  =========                 |
  \\      /  F ield         | OpenFOAM: The Open Source CFD Toolbox
   \\    /   O peration     | Website:  https://openfoam.org
    \\  /    A nd           | Version:  7
     \\/     M anipulation  |
\*---------------------------------------------------------------------------*/
FoamFile
{
    version     2.0;
    format      ascii;
    class       volVectorField;
    location    "30";
    object      U;
}
// * * * * * * * * * * * * * * * * * * * * * * * * * * * * * * * * * * * * * //

dimensions      [0 1 -1 0 0 0 0];

internalField   nonuniform List<vector> 
2625
(
(0.423639 -0.00145869 -3.81842e-23)
(0.431127 -0.00143045 3.48194e-23)
(0.43858 -0.00140215 -3.80265e-23)
(0.445994 -0.00137383 3.57427e-23)
(0.453365 -0.00134554 -2.71043e-23)
(0.460693 -0.00131732 3.17146e-23)
(0.467973 -0.00128921 1.83682e-23)
(0.475205 -0.00126123 3.14305e-24)
(0.482385 -0.00123342 2.1842e-23)
(0.489512 -0.00120582 -4.75841e-24)
(0.496584 -0.00117844 1.34909e-23)
(0.503598 -0.00115132 -7.89663e-24)
(0.510555 -0.00112447 -1.30571e-23)
(0.517451 -0.00109791 6.03966e-24)
(0.524286 -0.00107167 -2.4725e-23)
(0.531058 -0.00104576 -9.2205e-25)
(0.537767 -0.0010202 1.83249e-23)
(0.54441 -0.000994992 -2.2765e-23)
(0.550987 -0.000970157 9.15397e-24)
(0.557497 -0.000945705 7.05884e-24)
(0.56394 -0.000921644 4.6868e-24)
(0.570314 -0.000897982 -1.38066e-23)
(0.57662 -0.000874727 3.13437e-24)
(0.582855 -0.000851884 -4.13951e-24)
(0.589021 -0.000829458 5.52074e-24)
(0.595116 -0.000807453 -2.58824e-24)
(0.60114 -0.000785872 -1.40521e-23)
(0.607093 -0.000764716 4.79515e-24)
(0.612975 -0.000743988 -6.36671e-24)
(0.618786 -0.000723686 6.33e-24)
(0.624525 -0.000703812 -3.38617e-24)
(0.630193 -0.000684364 3.22971e-24)
(0.63579 -0.000665339 -2.27449e-24)
(0.641315 -0.000646734 6.49419e-24)
(0.646769 -0.000628548 -6.35039e-27)
(0.652152 -0.000610774 3.49737e-25)
(0.657464 -0.000593408 -6.30125e-24)
(0.662705 -0.000576444 -3.87057e-24)
(0.667877 -0.000559873 -2.79565e-27)
(0.672977 -0.00054369 2.65883e-24)
(0.67801 -0.000527879 -6.01939e-26)
(0.682969 -0.00051244 -2.41118e-24)
(0.687865 -0.000497337 -9.28911e-25)
(0.69268 -0.000482593 -1.25549e-24)
(0.697445 -0.000468114 1.50138e-24)
(0.702107 -0.000454012 -1.34737e-25)
(0.706758 -0.000439991 1.69565e-24)
(0.711233 -0.000426505 -8.61129e-25)
(0.715818 -0.000412569 -5.25712e-26)
(0.720013 -0.00039982 -7.5213e-25)
(0.724672 -0.000384994 -2.70739e-26)
(0.728326 -0.000373668 -1.14964e-24)
(0.733453 -0.000355156 2.48183e-24)
(0.735851 -0.000347598 -1.67828e-24)
(0.74252 -0.000316208 -2.35425e-24)
(0.424288 -0.00437342 -1.95106e-22)
(0.431763 -0.00428877 1.6719e-22)
(0.439203 -0.00420394 -1.7087e-22)
(0.446603 -0.00411906 1.64758e-22)
(0.453961 -0.00403426 -1.00856e-22)
(0.461276 -0.00394966 -1.66407e-23)
(0.468543 -0.00386537 -8.29343e-23)
(0.475762 -0.00378151 1.49477e-23)
(0.48293 -0.00369816 -8.71728e-23)
(0.490045 -0.00361541 2.15024e-23)
(0.497104 -0.00353334 1.07079e-22)
(0.504107 -0.00345203 -5.39689e-23)
(0.511052 -0.00337154 6.15402e-23)
(0.517937 -0.00329194 -9.09706e-25)
(0.52476 -0.00321327 -4.6171e-23)
(0.531522 -0.0031356 1.52464e-23)
(0.538219 -0.00305896 2.07974e-23)
(0.544851 -0.0029834 5.47949e-23)
(0.551418 -0.00290895 -3.36186e-23)
(0.557918 -0.00283564 -2.2485e-23)
(0.564351 -0.00276351 3.68025e-23)
(0.570715 -0.00269257 -8.0195e-24)
(0.57701 -0.00262286 -1.9201e-23)
(0.583236 -0.00255437 4.63896e-24)
(0.589393 -0.00248714 -2.34218e-24)
(0.595478 -0.00242117 1.04433e-23)
(0.601494 -0.00235647 9.30377e-24)
(0.607438 -0.00229304 -2.28261e-24)
(0.613311 -0.00223089 6.48826e-24)
(0.619114 -0.00217003 -2.69842e-23)
(0.624845 -0.00211044 9.54724e-24)
(0.630504 -0.00205214 8.8813e-24)
(0.636093 -0.0019951 -9.60913e-24)
(0.64161 -0.00193932 -9.52974e-24)
(0.647057 -0.00188479 6.55827e-24)
(0.652432 -0.0018315 -2.81906e-24)
(0.657737 -0.00177944 5.41887e-24)
(0.662971 -0.00172857 1.10562e-23)
(0.668136 -0.00167889 5.91781e-26)
(0.673229 -0.00163037 -5.96128e-25)
(0.678255 -0.00158297 -4.01935e-24)
(0.683208 -0.00153668 2.05275e-24)
(0.688097 -0.0014914 7.26087e-25)
(0.692907 -0.00144719 2.88377e-24)
(0.697666 -0.00140378 -1.60202e-24)
(0.702321 -0.0013615 2.07484e-24)
(0.706966 -0.00131946 -3.03204e-24)
(0.711436 -0.00127902 4.79348e-25)
(0.716015 -0.00123724 -4.37467e-25)
(0.720205 -0.00119901 3.99148e-25)
(0.724859 -0.00115456 -2.3352e-26)
(0.728509 -0.0011206 1.23339e-24)
(0.73363 -0.0010651 -4.23857e-24)
(0.736025 -0.00104245 6.80743e-25)
(0.742686 -0.000948343 -1.55693e-24)
(0.425586 -0.00728023 1.67853e-22)
(0.433034 -0.00713939 -8.04813e-23)
(0.440446 -0.00699824 1.06341e-22)
(0.44782 -0.00685699 -6.50819e-23)
(0.455152 -0.00671589 -1.77932e-23)
(0.46244 -0.00657511 -1.84907e-23)
(0.469683 -0.00643486 6.51948e-24)
(0.476876 -0.00629531 1.6052e-22)
(0.484019 -0.00615661 -9.31171e-23)
(0.491109 -0.0060189 1.31072e-23)
(0.498145 -0.00588233 4.52431e-23)
(0.505124 -0.00574702 -7.69758e-23)
(0.512045 -0.00561307 7.30042e-23)
(0.518907 -0.0054806 -4.97973e-23)
(0.525708 -0.00534968 3.72365e-23)
(0.532447 -0.00522041 7.31193e-24)
(0.539122 -0.00509287 -8.86688e-23)
(0.545733 -0.00496711 8.52055e-23)
(0.552279 -0.0048432 -8.45546e-23)
(0.558758 -0.00472119 7.96484e-23)
(0.565171 -0.00460114 -9.69461e-23)
(0.571515 -0.00448307 4.10997e-23)
(0.577791 -0.00436703 -9.08884e-23)
(0.583998 -0.00425305 6.56759e-23)
(0.590135 -0.00414114 -3.23082e-23)
(0.596203 -0.00403133 -5.19352e-23)
(0.6022 -0.00392363 4.57544e-23)
(0.608127 -0.00381806 -2.15408e-23)
(0.613983 -0.00371462 -1.42657e-23)
(0.619768 -0.00361331 3.20545e-23)
(0.625482 -0.00351412 -4.34687e-23)
(0.631126 -0.00341706 1.99372e-23)
(0.636699 -0.00332211 1.11918e-24)
(0.6422 -0.00322926 -1.18943e-23)
(0.647631 -0.0031385 1.58338e-23)
(0.652992 -0.00304979 -1.29118e-23)
(0.658282 -0.00296311 -1.00991e-23)
(0.663502 -0.00287845 -6.71446e-24)
(0.668653 -0.00279574 -1.21075e-24)
(0.673733 -0.00271497 -3.15969e-24)
(0.678745 -0.00263605 2.26698e-24)
(0.683685 -0.00255899 -3.33421e-24)
(0.688562 -0.00248361 -1.35826e-23)
(0.693359 -0.00241002 5.01726e-24)
(0.698106 -0.00233774 4.5584e-24)
(0.702749 -0.00226736 -6.63752e-25)
(0.707383 -0.00219737 1.97048e-25)
(0.711841 -0.00213006 4.88457e-24)
(0.71641 -0.00206049 2.15467e-25)
(0.720589 -0.00199687 2.13691e-24)
(0.725232 -0.00192286 3.66253e-25)
(0.728873 -0.00186634 -7.7564e-25)
(0.733983 -0.00177395 9.39717e-25)
(0.736372 -0.00173627 5.37986e-24)
(0.74302 -0.00157963 8.46925e-24)
(0.427529 -0.0101739 2.84842e-22)
(0.434936 -0.00997722 -1.44016e-22)
(0.442308 -0.00978008 -1.07716e-22)
(0.449642 -0.00958282 -2.32662e-22)
(0.456934 -0.00938575 3.19699e-22)
(0.464184 -0.00918914 -1.1004e-24)
(0.471388 -0.00899325 -1.02272e-22)
(0.478543 -0.00879834 -1.83108e-22)
(0.485649 -0.00860461 2.54069e-22)
(0.492702 -0.00841227 -3.06179e-22)
(0.499702 -0.00822151 3.8437e-23)
(0.506645 -0.0080325 1.55114e-22)
(0.513532 -0.00784539 3.23335e-23)
(0.520359 -0.00766034 2.84031e-23)
(0.527126 -0.00747746 -1.15936e-22)
(0.533832 -0.00729688 -1.90802e-23)
(0.540475 -0.0071187 -6.02214e-23)
(0.547054 -0.00694301 1.26277e-22)
(0.553568 -0.0067699 6.77977e-23)
(0.560016 -0.00659945 -1.31176e-22)
(0.566398 -0.00643172 1.18684e-22)
(0.572713 -0.00626677 2.41102e-23)
(0.57896 -0.00610464 -9.74363e-24)
(0.585138 -0.00594538 -5.75593e-24)
(0.591247 -0.00578902 1.38583e-23)
(0.597287 -0.00563559 7.13952e-23)
(0.603258 -0.00548511 -4.24281e-23)
(0.609158 -0.00533759 -8.25231e-24)
(0.614988 -0.00519305 6.40398e-24)
(0.620748 -0.00505148 -1.73897e-23)
(0.626438 -0.00491288 -2.90588e-23)
(0.632057 -0.00477725 2.28362e-23)
(0.637606 -0.00464457 1.86087e-23)
(0.643084 -0.00451482 -3.31638e-23)
(0.648492 -0.00438798 1.76118e-23)
(0.653831 -0.00426401 -1.94557e-23)
(0.659099 -0.00414289 -2.67807e-24)
(0.664298 -0.00402456 2.08008e-23)
(0.669428 -0.00390898 -1.96232e-23)
(0.674487 -0.00379609 -1.49922e-25)
(0.67948 -0.00368581 7.22229e-24)
(0.6844 -0.00357811 -8.21318e-24)
(0.689258 -0.00347276 1.04632e-23)
(0.694036 -0.0033699 -2.42143e-24)
(0.698765 -0.00326889 -3.05161e-24)
(0.703391 -0.00317052 -3.37433e-25)
(0.708007 -0.00307271 4.41014e-24)
(0.712448 -0.00297863 -4.12948e-26)
(0.717001 -0.0028814 -6.0419e-26)
(0.721164 -0.00279249 -2.62947e-24)
(0.725791 -0.00268905 -2.69145e-26)
(0.729418 -0.00261009 2.74562e-24)
(0.734512 -0.00248096 1.11166e-24)
(0.736892 -0.00242837 -1.03088e-23)
(0.74352 -0.00220951 1.25276e-23)
(0.430111 -0.0130492 1.83193e-23)
(0.437464 -0.0127972 -2.81838e-22)
(0.444783 -0.0125445 1.39653e-22)
(0.452063 -0.0122918 4.86527e-22)
(0.459304 -0.0120392 -5.90365e-22)
(0.466502 -0.0117872 4.85189e-22)
(0.473654 -0.0115362 -2.36873e-22)
(0.48076 -0.0112863 1.51585e-22)
(0.487816 -0.011038 -1.01423e-22)
(0.494821 -0.0107915 1.83424e-22)
(0.501772 -0.010547 -1.7451e-22)
(0.508668 -0.0103047 2.63136e-23)
(0.515508 -0.0100649 -1.89141e-23)
(0.52229 -0.00982764 -8.28499e-23)
(0.529012 -0.0095932 2.69884e-22)
(0.535674 -0.00936169 -9.801e-23)
(0.542273 -0.00913326 4.82615e-24)
(0.54881 -0.00890802 -1.96414e-22)
(0.555282 -0.00868608 4.74243e-23)
(0.561689 -0.00846754 5.94221e-23)
(0.568031 -0.00825247 1.38505e-23)
(0.574306 -0.00804097 1.82787e-22)
(0.580514 -0.00783308 -3.55873e-23)
(0.586654 -0.00762886 -8.08612e-23)
(0.592726 -0.00742836 1.06691e-24)
(0.59873 -0.00723161 -1.97433e-23)
(0.604664 -0.00703864 2.83123e-23)
(0.610529 -0.00684946 2.68205e-23)
(0.616325 -0.00666409 -2.51827e-23)
(0.622052 -0.00648254 6.95348e-23)
(0.627708 -0.00630479 -5.41285e-24)
(0.633295 -0.00613084 -1.38969e-23)
(0.638812 -0.00596066 1.63101e-23)
(0.64426 -0.00579425 -1.05589e-23)
(0.649638 -0.00563156 1.51037e-23)
(0.654946 -0.00547256 -2.36226e-23)
(0.660186 -0.0053172 5.21365e-23)
(0.665356 -0.00516543 3.73174e-24)
(0.670458 -0.00501717 -1.09681e-24)
(0.675491 -0.00487238 2.26512e-23)
(0.680457 -0.00473091 -4.20633e-24)
(0.685351 -0.00459276 1.91543e-24)
(0.690184 -0.00445762 -4.15945e-24)
(0.694937 -0.00432568 -1.14577e-23)
(0.699642 -0.00419611 -9.94438e-24)
(0.704244 -0.00406992 -1.13477e-23)
(0.708838 -0.00394444 2.21357e-24)
(0.713257 -0.00382376 -7.731e-24)
(0.717787 -0.00369903 7.87649e-24)
(0.72193 -0.00358499 -3.03177e-24)
(0.726536 -0.00345229 3.83374e-25)
(0.730145 -0.00335105 -5.63421e-24)
(0.735216 -0.00318542 5.98266e-24)
(0.737584 -0.00311807 1.67265e-23)
(0.744185 -0.00283742 -7.01393e-25)
(0.433327 -0.0159011 1.88827e-22)
(0.440613 -0.0155943 -3.00239e-22)
(0.447864 -0.0152868 -4.64542e-22)
(0.455079 -0.0149791 9.61047e-22)
(0.462254 -0.0146716 -8.07037e-22)
(0.469388 -0.0143649 -6.54784e-23)
(0.476477 -0.0140592 8.02475e-23)
(0.48352 -0.0137551 3.13566e-22)
(0.490515 -0.0134528 -2.42933e-22)
(0.497459 -0.0131526 1.57589e-22)
(0.50435 -0.0128549 -1.524e-22)
(0.511188 -0.0125599 1.26969e-22)
(0.51797 -0.0122679 1.72013e-22)
(0.524695 -0.011979 -2.22977e-22)
(0.531361 -0.0116935 2.08156e-22)
(0.537968 -0.0114116 -2.19546e-22)
(0.544513 -0.0111334 2.65606e-22)
(0.550997 -0.0108591 -2.23296e-22)
(0.557417 -0.0105888 1.96482e-22)
(0.563773 -0.0103226 1.05817e-22)
(0.570065 -0.0100606 -1.36101e-22)
(0.576291 -0.00980301 1.48292e-23)
(0.58245 -0.00954978 2.73784e-23)
(0.588543 -0.00930102 9.11294e-23)
(0.594569 -0.00905677 6.07781e-23)
(0.600527 -0.00881708 -1.87185e-22)
(0.606417 -0.00858199 -6.88781e-23)
(0.612238 -0.00835152 -2.55968e-23)
(0.617991 -0.00812568 1.84879e-22)
(0.623676 -0.00790447 -1.19835e-22)
(0.629291 -0.0076879 7.26347e-23)
(0.634838 -0.00747596 7.74496e-23)
(0.640316 -0.00726861 -9.81401e-23)
(0.645725 -0.00706584 -8.79012e-24)
(0.651065 -0.0068676 1.84489e-23)
(0.656337 -0.00667385 1.50034e-23)
(0.661541 -0.00648453 -2.94456e-23)
(0.666676 -0.00629958 -1.49972e-24)
(0.671743 -0.00611891 1.22213e-23)
(0.676742 -0.00594246 2.80236e-24)
(0.681675 -0.00577005 2.24283e-23)
(0.686537 -0.00560169 2.26202e-23)
(0.691338 -0.00543699 -4.31474e-24)
(0.696061 -0.0052762 -2.56728e-23)
(0.700735 -0.00511828 1.99876e-24)
(0.705309 -0.00496448 1.04334e-23)
(0.709873 -0.00481155 -9.91634e-24)
(0.714265 -0.00466448 -8.78965e-25)
(0.718768 -0.00451246 -1.21318e-23)
(0.722885 -0.00437349 2.77653e-24)
(0.727464 -0.00421176 -2.77045e-25)
(0.731051 -0.00408845 5.61257e-24)
(0.736095 -0.00388661 6.37997e-25)
(0.738447 -0.00380469 -1.15235e-23)
(0.745015 -0.0034628 -2.00402e-23)
(0.437168 -0.0187244 -5.10055e-22)
(0.444373 -0.0183636 3.83164e-22)
(0.451545 -0.018002 8.20756e-22)
(0.458681 -0.0176401 -3.43846e-22)
(0.465779 -0.0172785 -5.28825e-22)
(0.472836 -0.0169177 6.03077e-22)
(0.479849 -0.0165582 -6.29867e-22)
(0.486818 -0.0162005 5.3472e-22)
(0.493738 -0.0158449 6.55492e-23)
(0.50061 -0.0154918 -2.34293e-23)
(0.50743 -0.0151416 4.35885e-23)
(0.514198 -0.0147945 -1.94468e-22)
(0.520911 -0.0144509 5.67561e-22)
(0.527568 -0.014111 -9.82156e-23)
(0.534167 -0.0137751 -2.35672e-22)
(0.540708 -0.0134434 -2.0558e-22)
(0.54719 -0.013116 1.84821e-22)
(0.55361 -0.0127932 -1.79016e-22)
(0.559968 -0.0124751 -1.20108e-23)
(0.566263 -0.0121618 4.86686e-23)
(0.572495 -0.0118535 -1.14591e-22)
(0.578662 -0.0115503 -1.83128e-24)
(0.584764 -0.0112522 1.08986e-23)
(0.590801 -0.0109594 -1.55603e-22)
(0.596771 -0.0106719 4.80467e-23)
(0.602675 -0.0103897 1.61795e-23)
(0.608512 -0.010113 4.52709e-23)
(0.614281 -0.00984164 -3.99594e-24)
(0.619983 -0.00957575 -4.58465e-23)
(0.625617 -0.00931532 1.83562e-23)
(0.631184 -0.00906033 -6.48924e-23)
(0.636683 -0.00881078 9.12055e-23)
(0.642114 -0.00856664 -2.07954e-23)
(0.647477 -0.00832788 6.03036e-24)
(0.652772 -0.00809444 8.04461e-23)
(0.658 -0.00786629 -1.69083e-23)
(0.66316 -0.00764335 2.3775e-23)
(0.668253 -0.00742555 1.84905e-23)
(0.67328 -0.00721279 -9.78642e-24)
(0.678238 -0.00700498 -1.00292e-24)
(0.683132 -0.00680194 -6.10301e-23)
(0.687956 -0.00660366 -2.54923e-23)
(0.692719 -0.00640968 2.05778e-23)
(0.697405 -0.0062203 2.63954e-23)
(0.702044 -0.0060343 2.56585e-24)
(0.706582 -0.00585317 1.00293e-23)
(0.711113 -0.00567304 -2.492e-25)
(0.715471 -0.00549983 6.49419e-24)
(0.719941 -0.00532076 9.18849e-24)
(0.724028 -0.00515713 9.78376e-25)
(0.728576 -0.00496662 6.09884e-25)
(0.732135 -0.00482149 -2.13427e-24)
(0.737147 -0.00458379 -6.92762e-24)
(0.739481 -0.00448755 1.1563e-23)
(0.746009 -0.0040851 3.01659e-23)
(0.441625 -0.0215142 6.65999e-22)
(0.448736 -0.0211003 -6.75013e-22)
(0.455816 -0.0206854 5.48188e-22)
(0.462861 -0.0202702 -1.56488e-22)
(0.469868 -0.0198554 2.91039e-22)
(0.476836 -0.0194414 -2.66604e-22)
(0.483762 -0.019029 2.64509e-22)
(0.490644 -0.0186184 -2.81478e-22)
(0.497479 -0.0182104 6.33562e-22)
(0.504267 -0.0178052 -8.65388e-22)
(0.511005 -0.0174032 -1.30703e-22)
(0.517691 -0.0170049 6.51713e-22)
(0.524324 -0.0166105 5.37042e-24)
(0.530902 -0.0162203 -4.22912e-22)
(0.537425 -0.0158347 1.0008e-22)
(0.54389 -0.0154539 1.9406e-22)
(0.550296 -0.015078 6.63475e-23)
(0.556643 -0.0147074 1.80247e-22)
(0.562929 -0.0143421 -1.15214e-22)
(0.569154 -0.0139824 -1.76454e-22)
(0.575316 -0.0136284 1.38969e-22)
(0.581416 -0.0132802 9.30235e-23)
(0.587451 -0.0129379 -4.72436e-23)
(0.593422 -0.0126016 1.20054e-22)
(0.599328 -0.0122714 -7.97108e-23)
(0.605169 -0.0119473 3.3773e-23)
(0.610944 -0.0116294 1.05885e-22)
(0.616653 -0.0113177 -3.21185e-23)
(0.622296 -0.0110123 9.06791e-23)
(0.627873 -0.0107131 -1.33486e-22)
(0.633382 -0.0104202 7.07628e-23)
(0.638826 -0.0101335 -3.27632e-24)
(0.644202 -0.00985302 3.14577e-24)
(0.649512 -0.0095787 -9.9345e-23)
(0.654755 -0.00931049 -7.33696e-23)
(0.659932 -0.00904835 3.61954e-23)
(0.665042 -0.00879218 2.30594e-23)
(0.670087 -0.00854191 -5.49492e-23)
(0.675065 -0.00829742 1.43411e-23)
(0.679977 -0.00805863 -2.84589e-23)
(0.684825 -0.0078253 -1.56396e-24)
(0.689604 -0.00759743 4.13008e-24)
(0.694324 -0.00737451 2.26048e-23)
(0.698968 -0.00715688 -2.77661e-23)
(0.703565 -0.00694311 2.33007e-24)
(0.708063 -0.00673494 -2.26632e-23)
(0.712554 -0.00652791 1.55543e-23)
(0.716874 -0.00632887 5.99796e-24)
(0.721306 -0.00612305 -3.66541e-24)
(0.725358 -0.00593503 -7.6541e-24)
(0.729868 -0.00571607 -1.01649e-25)
(0.733397 -0.00554941 -2.25026e-25)
(0.73837 -0.00527627 -1.71082e-24)
(0.740684 -0.00516598 4.39605e-24)
(0.747166 -0.00470376 -4.52261e-23)
(0.446686 -0.0242657 -2.54673e-22)
(0.453691 -0.0237997 8.97094e-22)
(0.460666 -0.0233326 -4.91749e-22)
(0.467607 -0.0228651 6.52731e-22)
(0.474512 -0.0223979 -2.83518e-22)
(0.481379 -0.0219318 -4.75303e-22)
(0.488206 -0.0214673 4.40378e-22)
(0.494989 -0.021005 4.11114e-22)
(0.501728 -0.0205454 -1.19589e-22)
(0.508421 -0.020089 -4.33654e-23)
(0.515065 -0.0196362 -2.87012e-22)
(0.521659 -0.0191875 -1.37774e-22)
(0.528201 -0.0187432 -3.48704e-22)
(0.53469 -0.0183036 6.29916e-22)
(0.541125 -0.0178691 -1.29761e-22)
(0.547504 -0.01744 2.85661e-22)
(0.553826 -0.0170165 -2.744e-22)
(0.56009 -0.0165988 -8.57828e-23)
(0.566294 -0.0161872 -1.0532e-22)
(0.572439 -0.0157818 1.93893e-22)
(0.578523 -0.0153827 -9.02584e-23)
(0.584545 -0.0149902 4.13595e-23)
(0.590505 -0.0146044 4.9996e-24)
(0.596401 -0.0142253 7.93231e-23)
(0.602235 -0.013853 -2.01131e-22)
(0.608004 -0.0134876 2.99927e-23)
(0.61371 -0.0131292 -4.0848e-23)
(0.61935 -0.0127778 -7.87367e-23)
(0.624926 -0.0124334 -1.93603e-23)
(0.630437 -0.012096 7.93622e-23)
(0.635882 -0.0117657 4.97429e-23)
(0.641262 -0.0114424 -9.16061e-23)
(0.646577 -0.011126 1.22433e-22)
(0.651826 -0.0108167 2.75773e-23)
(0.65701 -0.0105142 3.14373e-24)
(0.662129 -0.0102185 -1.26844e-23)
(0.667183 -0.00992954 1.35004e-23)
(0.672172 -0.00964725 2.90491e-23)
(0.677097 -0.00937146 -8.78234e-23)
(0.681956 -0.00910209 2.2674e-23)
(0.686752 -0.00883888 3.26632e-23)
(0.69148 -0.00858182 1.59886e-23)
(0.696151 -0.00833033 9.03996e-24)
(0.700746 -0.0080848 1.1694e-23)
(0.705296 -0.00784363 3.69863e-24)
(0.709748 -0.00760878 -2.08853e-24)
(0.714194 -0.00737519 1.0287e-24)
(0.718471 -0.00715065 -9.09647e-24)
(0.72286 -0.00691842 -2.91216e-24)
(0.726871 -0.00670636 7.917e-24)
(0.73134 -0.00645931 -8.2185e-25)
(0.734834 -0.00627145 -8.8617e-24)
(0.739764 -0.00596334 9.25018e-24)
(0.742053 -0.00583932 -3.36556e-23)
(0.748483 -0.00531824 -2.55189e-23)
(0.452338 -0.026974 -1.6569e-22)
(0.459225 -0.0264571 7.66586e-22)
(0.466083 -0.0259389 -1.69581e-22)
(0.472909 -0.0254202 -7.77753e-23)
(0.4797 -0.0249019 -5.68341e-22)
(0.486454 -0.0243847 3.44808e-22)
(0.49317 -0.0238693 2.31916e-22)
(0.499844 -0.0233562 7.27479e-23)
(0.506475 -0.0228462 4.49392e-22)
(0.513061 -0.0223396 -9.47438e-22)
(0.519601 -0.021837 5.52122e-22)
(0.526092 -0.0213389 -2.38686e-22)
(0.532533 -0.0208457 1.32979e-22)
(0.538923 -0.0203577 -1.32205e-23)
(0.54526 -0.0198753 -3.89009e-23)
(0.551543 -0.0193988 6.12013e-22)
(0.55777 -0.0189285 -6.39376e-22)
(0.563941 -0.0184646 2.72942e-22)
(0.570055 -0.0180075 -4.07208e-23)
(0.57611 -0.0175572 -2.39816e-22)
(0.582106 -0.0171139 3.10936e-22)
(0.588043 -0.0166779 -3.67253e-23)
(0.593918 -0.0162493 6.26943e-23)
(0.599732 -0.0158281 8.17316e-23)
(0.605484 -0.0154145 -1.14816e-22)
(0.611174 -0.0150085 -3.85217e-23)
(0.616802 -0.0146103 1.17879e-22)
(0.622366 -0.0142198 -5.47989e-23)
(0.627867 -0.013837 4.58805e-23)
(0.633304 -0.0134621 -8.26167e-23)
(0.638678 -0.013095 -1.89858e-23)
(0.643988 -0.0127356 1.34162e-22)
(0.649233 -0.012384 -7.50919e-23)
(0.654415 -0.0120402 -4.68082e-23)
(0.659534 -0.0117039 1.16134e-22)
(0.664588 -0.0113752 -3.27153e-23)
(0.669579 -0.011054 1.44271e-23)
(0.674506 -0.0107402 -2.45962e-23)
(0.67937 -0.0104336 5.73724e-23)
(0.68417 -0.0101341 -1.07714e-23)
(0.688908 -0.00984144 -2.09146e-23)
(0.693581 -0.00955562 1.32818e-23)
(0.698196 -0.009276 -1.85266e-23)
(0.702737 -0.00900299 7.63621e-24)
(0.707235 -0.00873481 6.98719e-25)
(0.711636 -0.00847368 5.0067e-24)
(0.716032 -0.00821392 2.61729e-23)
(0.72026 -0.00796426 -1.13747e-23)
(0.724601 -0.007706 1.33269e-24)
(0.728567 -0.00747027 -6.0603e-24)
(0.732989 -0.00719553 -4.04942e-25)
(0.736444 -0.00698686 1.8081e-24)
(0.741326 -0.00664432 -2.56625e-24)
(0.743589 -0.00650692 4.85716e-24)
(0.74996 -0.00592798 8.73757e-23)
(0.458568 -0.0296347 4.67626e-22)
(0.465325 -0.029068 3.10325e-22)
(0.472054 -0.0285 2.80652e-23)
(0.478752 -0.0279314 -9.84386e-22)
(0.485418 -0.0273632 -3.07367e-22)
(0.492048 -0.0267962 3.55181e-22)
(0.498642 -0.026231 -3.46888e-23)
(0.505196 -0.0256684 -4.55511e-22)
(0.511708 -0.0251091 3.53152e-22)
(0.518178 -0.0245535 -1.75256e-23)
(0.524602 -0.0240023 2.67465e-22)
(0.53098 -0.0234559 -3.01513e-22)
(0.53731 -0.0229148 -1.47365e-22)
(0.54359 -0.0223794 1.04092e-23)
(0.54982 -0.0218501 -5.53408e-23)
(0.555997 -0.0213273 -2.20993e-22)
(0.562121 -0.0208112 3.00819e-22)
(0.56819 -0.0203021 1.62529e-22)
(0.574203 -0.0198003 1.34086e-22)
(0.58016 -0.0193061 -1.10824e-22)
(0.58606 -0.0188195 8.53599e-23)
(0.591901 -0.0183409 -2.46412e-22)
(0.597684 -0.0178703 1.58749e-22)
(0.603407 -0.0174079 -2.55861e-22)
(0.60907 -0.0169537 8.61513e-23)
(0.614673 -0.0165079 -2.53099e-22)
(0.620214 -0.0160706 -6.96474e-24)
(0.625694 -0.0156417 1.25248e-22)
(0.631113 -0.0152214 1.62808e-22)
(0.636469 -0.0148096 -1.8785e-22)
(0.641764 -0.0144064 -8.13895e-24)
(0.646996 -0.0140116 -6.12746e-24)
(0.652167 -0.0136254 -4.38196e-23)
(0.657274 -0.0132476 4.0365e-23)
(0.66232 -0.0128782 -3.65213e-23)
(0.667303 -0.0125171 1.23128e-23)
(0.672225 -0.0121642 5.86466e-23)
(0.677084 -0.0118194 -3.81924e-23)
(0.681881 -0.0114825 1.91771e-23)
(0.686616 -0.0111534 -2.01747e-23)
(0.691291 -0.0108318 3.8871e-23)
(0.695901 -0.0105177 -1.37272e-23)
(0.700456 -0.0102104 2.00752e-23)
(0.704938 -0.00991037 -6.63781e-23)
(0.709378 -0.00961564 8.85853e-24)
(0.713722 -0.00932866 1.38258e-23)
(0.718063 -0.00904316 -2.11087e-23)
(0.722238 -0.0087688 -1.12277e-23)
(0.726527 -0.00848493 -8.08556e-24)
(0.730443 -0.00822595 9.04811e-25)
(0.734814 -0.00792397 -4.18768e-25)
(0.738225 -0.0076949 1.25626e-23)
(0.743054 -0.00731852 -1.9011e-23)
(0.745288 -0.00716814 -5.45887e-24)
(0.751595 -0.00653246 -8.18018e-23)
(0.46536 -0.0322431 1.54286e-21)
(0.471975 -0.0316282 1.07375e-21)
(0.478564 -0.0310117 -1.19073e-21)
(0.485124 -0.0303947 6.01339e-22)
(0.491653 -0.0297779 -1.31826e-21)
(0.498148 -0.0291624 1.54014e-22)
(0.504608 -0.0285488 3.54386e-22)
(0.511031 -0.027938 3.02935e-23)
(0.517415 -0.0273306 3.15405e-22)
(0.523757 -0.0267273 -6.30274e-22)
(0.530057 -0.0261286 3.58811e-23)
(0.536312 -0.0255352 2.78127e-22)
(0.54252 -0.0249474 -4.62393e-22)
(0.548682 -0.0243658 4.7236e-22)
(0.554794 -0.0237907 1.82401e-22)
(0.560856 -0.0232226 -2.23802e-22)
(0.566867 -0.0226618 5.93973e-23)
(0.572825 -0.0221086 -5.19514e-23)
(0.57873 -0.0215633 -6.98989e-23)
(0.58458 -0.021026 1.87594e-22)
(0.590374 -0.0204972 -3.2682e-22)
(0.596113 -0.0199768 1.54267e-22)
(0.601794 -0.0194652 -2.16084e-22)
(0.607418 -0.0189624 4.98081e-22)
(0.612984 -0.0184686 -2.00306e-22)
(0.618492 -0.0179838 -4.23011e-24)
(0.62394 -0.0175082 -2.98469e-23)
(0.629328 -0.0170418 3.23527e-24)
(0.634657 -0.0165846 1.08924e-22)
(0.639926 -0.0161367 -1.55636e-24)
(0.645135 -0.0156981 -3.02516e-23)
(0.650283 -0.0152687 4.47521e-23)
(0.655371 -0.0148485 -2.72994e-24)
(0.660398 -0.0144375 -6.26771e-24)
(0.665364 -0.0140356 -7.95183e-24)
(0.67027 -0.0136427 -3.02235e-23)
(0.675116 -0.0132587 -3.74423e-23)
(0.679901 -0.0128835 2.72312e-23)
(0.684626 -0.0125169 -2.94742e-23)
(0.68929 -0.0121587 -2.37672e-23)
(0.693896 -0.0118087 3.60059e-23)
(0.698439 -0.0114669 2.91412e-23)
(0.702927 -0.0111325 -3.90447e-23)
(0.707345 -0.0108059 2.544e-23)
(0.711722 -0.0104851 2.03874e-23)
(0.716005 -0.0101728 -2.42946e-23)
(0.720285 -0.00986198 2.31287e-23)
(0.724402 -0.00956339 2.72965e-24)
(0.728633 -0.00925437 5.32325e-24)
(0.732496 -0.00897259 1.54595e-23)
(0.736811 -0.00864386 1.69707e-24)
(0.740175 -0.00839485 -5.6182e-24)
(0.744946 -0.00798527 3.16961e-25)
(0.747148 -0.00782233 2.21749e-23)
(0.753384 -0.00713114 1.6998e-23)
(0.472697 -0.0347951 -8.04137e-22)
(0.479159 -0.0341335 -2.9901e-23)
(0.485597 -0.0334701 1.31621e-21)
(0.492007 -0.032806 -1.44092e-21)
(0.498389 -0.0321421 9.2959e-22)
(0.504739 -0.0314795 -2.75657e-22)
(0.511056 -0.030819 -3.87347e-22)
(0.517337 -0.0301614 1.02498e-21)
(0.523582 -0.0295074 -1.31555e-21)
(0.529787 -0.0288577 -3.09931e-23)
(0.535951 -0.0282129 7.13185e-22)
(0.542074 -0.0275737 4.97838e-23)
(0.548152 -0.0269405 2.96433e-23)
(0.554185 -0.0263139 -2.74078e-22)
(0.560171 -0.0256943 -1.7011e-22)
(0.566109 -0.0250822 3.11253e-22)
(0.571998 -0.0244778 -7.49393e-22)
(0.577837 -0.0238816 4.19468e-22)
(0.583624 -0.0232938 5.93019e-23)
(0.589358 -0.0227146 -1.67527e-22)
(0.59504 -0.0221445 2.59801e-22)
(0.600668 -0.0215835 -3.56154e-22)
(0.60624 -0.0210318 9.26765e-23)
(0.611757 -0.0204896 -1.46551e-22)
(0.617219 -0.0199571 1.33076e-22)
(0.622623 -0.0194343 -5.68589e-23)
(0.627971 -0.0189213 -6.58113e-23)
(0.633261 -0.0184182 1.13693e-22)
(0.638493 -0.017925 -3.13215e-23)
(0.643667 -0.0174418 9.82502e-24)
(0.648783 -0.0169686 -1.85129e-23)
(0.65384 -0.0165053 -9.73962e-23)
(0.658839 -0.0160519 1.52045e-22)
(0.663779 -0.0156084 -5.28039e-23)
(0.668661 -0.0151747 -1.04499e-22)
(0.673483 -0.0147506 9.91952e-23)
(0.678247 -0.0143362 -6.994e-23)
(0.682953 -0.0139312 -1.27083e-23)
(0.6876 -0.0135355 -2.89692e-23)
(0.692188 -0.013149 9.04761e-23)
(0.696719 -0.0127712 -8.32002e-23)
(0.701188 -0.0124022 1.68012e-23)
(0.705606 -0.0120411 6.71906e-23)
(0.709954 -0.0116886 -3.27401e-23)
(0.714263 -0.0113423 2.25473e-23)
(0.718479 -0.011005 1.52868e-23)
(0.722695 -0.0106695 1.1081e-23)
(0.726749 -0.0103472 4.17177e-24)
(0.730919 -0.0100135 7.17135e-25)
(0.734723 -0.00970942 -1.01708e-23)
(0.738977 -0.00935447 8.77578e-25)
(0.742291 -0.00908601 -7.33757e-25)
(0.746999 -0.00864391 -2.51301e-24)
(0.749167 -0.00846888 -1.5219e-23)
(0.755328 -0.0077235 -4.78351e-24)
(0.480562 -0.0372866 4.318e-22)
(0.48686 -0.0365798 -3.11788e-22)
(0.493135 -0.0358711 -2.57718e-22)
(0.499386 -0.0351616 -1.12592e-21)
(0.50561 -0.0344523 6.34747e-22)
(0.511804 -0.0337442 5.03896e-22)
(0.517968 -0.0330382 -4.11563e-22)
(0.524098 -0.0323353 1.49876e-22)
(0.530194 -0.0316361 4.82639e-22)
(0.536252 -0.0309415 4.38745e-22)
(0.542273 -0.0302521 4.09507e-23)
(0.548253 -0.0295685 -1.21057e-22)
(0.554191 -0.0288913 -5.21891e-22)
(0.560087 -0.0282211 7.41767e-23)
(0.565938 -0.0275583 2.89185e-22)
(0.571744 -0.0269033 -4.93019e-22)
(0.577503 -0.0262566 4.06064e-22)
(0.583213 -0.0256186 -2.36237e-22)
(0.588875 -0.0249895 2.10279e-22)
(0.594486 -0.0243696 -4.24129e-22)
(0.600047 -0.0237593 2.15408e-22)
(0.605556 -0.0231587 1.83419e-23)
(0.611012 -0.0225681 -1.0356e-23)
(0.616415 -0.0219875 -3.27303e-23)
(0.621764 -0.0214173 2.75818e-22)
(0.627059 -0.0208574 -1.88275e-22)
(0.632299 -0.0203079 6.08442e-23)
(0.637483 -0.0197691 4.59669e-23)
(0.642612 -0.0192408 -3.17113e-22)
(0.647685 -0.0187232 1.8122e-22)
(0.652702 -0.0182162 2.01156e-22)
(0.657662 -0.0177198 -1.03459e-22)
(0.662566 -0.017234 -5.22513e-23)
(0.667413 -0.0167588 -2.56204e-23)
(0.672203 -0.016294 -6.02888e-23)
(0.676936 -0.0158396 1.32208e-22)
(0.681613 -0.0153955 -3.36755e-23)
(0.686233 -0.0149614 1.80723e-23)
(0.690797 -0.0145373 4.61674e-24)
(0.695303 -0.0141229 -4.22725e-23)
(0.699754 -0.013718 -3.60569e-23)
(0.704146 -0.0133224 4.40871e-24)
(0.708487 -0.0129354 -5.00805e-23)
(0.712761 -0.0125574 -3.63762e-23)
(0.716997 -0.0121861 4.92931e-24)
(0.721142 -0.0118246 -2.5506e-23)
(0.725289 -0.0114648 2.65919e-24)
(0.729276 -0.0111193 -5.17934e-24)
(0.733379 -0.0107615 7.63086e-24)
(0.737121 -0.0104357 6.15594e-24)
(0.741311 -0.0100551 6.25747e-26)
(0.74457 -0.00976767 -2.38889e-24)
(0.749212 -0.00929382 2.77961e-23)
(0.751342 -0.00910717 2.98578e-23)
(0.757422 -0.00830901 6.20858e-24)
(0.488935 -0.0397136 1.56451e-21)
(0.495058 -0.0389635 -8.01913e-22)
(0.501162 -0.0382112 -3.07298e-22)
(0.507243 -0.0374579 1.89247e-21)
(0.513299 -0.0367048 -7.34123e-22)
(0.519328 -0.0359529 2.2568e-23)
(0.525328 -0.0352032 -9.26866e-22)
(0.531298 -0.0344566 1.37629e-21)
(0.537235 -0.0337138 3.02891e-22)
(0.543138 -0.0329758 -8.00744e-22)
(0.549006 -0.0322433 7.01852e-22)
(0.554835 -0.0315168 -7.32121e-22)
(0.560625 -0.030797 5.54204e-23)
(0.566375 -0.0300846 -2.10751e-22)
(0.572083 -0.0293799 6.97107e-23)
(0.577748 -0.0286835 -4.11563e-22)
(0.583369 -0.0279958 -4.59156e-22)
(0.588943 -0.0273173 -3.30749e-23)
(0.594472 -0.0266481 -1.50116e-22)
(0.599952 -0.0259888 1.06228e-23)
(0.605384 -0.0253395 3.487e-22)
(0.610767 -0.0247005 -2.58449e-22)
(0.6161 -0.024072 2.54294e-22)
(0.621381 -0.0234542 5.24072e-23)
(0.626612 -0.0228473 -2.22187e-22)
(0.63179 -0.0222513 1.94703e-22)
(0.636915 -0.0216665 8.75224e-23)
(0.641988 -0.0210928 -1.3777e-22)
(0.647007 -0.0205304 2.07017e-22)
(0.651972 -0.0199793 -1.24219e-22)
(0.656883 -0.0194394 -3.17842e-23)
(0.66174 -0.0189109 -5.59925e-24)
(0.666543 -0.0183935 -7.29982e-23)
(0.671291 -0.0178874 9.63239e-24)
(0.675984 -0.0173924 6.04321e-23)
(0.680623 -0.0169083 -7.48306e-23)
(0.685207 -0.0164352 9.45798e-23)
(0.689736 -0.0159728 3.45232e-23)
(0.694211 -0.015521 -9.40003e-23)
(0.698631 -0.0150796 7.33844e-23)
(0.702997 -0.0146481 9.03567e-23)
(0.707306 -0.0142266 -3.61115e-23)
(0.711566 -0.0138142 9.58047e-23)
(0.715761 -0.0134115 3.47067e-23)
(0.719919 -0.0130158 -4.80181e-24)
(0.72399 -0.0126306 -2.78862e-23)
(0.728063 -0.0122472 7.54974e-24)
(0.731979 -0.011879 1.10713e-23)
(0.736011 -0.0114977 -1.27873e-23)
(0.739687 -0.0111506 6.46873e-24)
(0.743808 -0.0107449 -6.93591e-25)
(0.747009 -0.0104392 3.1891e-24)
(0.75158 -0.00993436 -6.54227e-25)
(0.753672 -0.00973661 -2.92949e-24)
(0.759664 -0.00888716 -7.84515e-25)
(0.497795 -0.0420724 7.87476e-22)
(0.503735 -0.0412808 -1.483e-21)
(0.509657 -0.0404868 1.90624e-21)
(0.515558 -0.0396916 -1.82556e-21)
(0.521437 -0.0388965 4.46742e-22)
(0.527292 -0.0381026 1.00052e-21)
(0.53312 -0.0373108 -2.63356e-22)
(0.53892 -0.0365222 -6.6472e-22)
(0.544691 -0.0357375 2.70313e-22)
(0.550429 -0.0349578 1.32971e-21)
(0.556135 -0.0341837 -8.36413e-22)
(0.561805 -0.0334159 -7.03826e-22)
(0.567439 -0.0326551 5.48084e-22)
(0.573035 -0.0319019 3.43202e-23)
(0.578592 -0.0311569 -3.44306e-22)
(0.584108 -0.0304205 6.29534e-22)
(0.589583 -0.0296932 1.23932e-22)
(0.595014 -0.0289755 2.86748e-22)
(0.600402 -0.0282676 -2.54765e-23)