/*--------------------------------*- C++ -*----------------------------------*\
  =========                 |
  \\      /  F ield         | OpenFOAM: The Open Source CFD Toolbox
   \\    /   O peration     | Website:  https://openfoam.org
    \\  /    A nd           | Version:  7
     \\/     M anipulation  |
\*---------------------------------------------------------------------------*/
FoamFile
{
    version     2.0;
    format      ascii;
    class       volVectorField;
    location    "30";
    object      U;
}
// * * * * * * * * * * * * * * * * * * * * * * * * * * * * * * * * * * * * * //

dimensions      [0 1 -1 0 0 0 0];

internalField   nonuniform List<vector> 
656
(
(1.25148 -0.00249891 -6.00752e-22)
(1.25369 -0.00237667 7.70602e-23)
(1.25218 -0.00736302 -2.04576e-21)
(1.25439 -0.00701844 -3.35784e-21)
(1.25352 -0.0119925 5.29533e-21)
(1.25575 -0.0114295 6.20901e-21)
(1.25542 -0.0163663 -5.85426e-21)
(1.25769 -0.0155848 -7.04203e-21)
(1.2578 -0.0204767 1.46911e-20)
(1.26012 -0.0194703 5.13864e-21)
(1.26056 -0.0243129 4.45235e-21)
(1.26292 -0.0230692 -9.24654e-21)
(1.26362 -0.0278578 -2.272e-20)
(1.266 -0.0263588 9.76914e-21)
(1.26688 -0.0310878 1.50436e-20)
(1.26925 -0.0293107 1.2202e-20)
(1.27021 -0.0339745 -7.59126e-21)
(1.27251 -0.0318926 -1.18814e-20)
(1.2735 -0.0364869 1.26211e-20)
(1.27566 -0.0340707 -1.39752e-20)
(1.27661 -0.0385937 -9.17745e-21)
(1.27853 -0.0358127 1.15579e-20)
(1.2794 -0.0402668 -2.26581e-20)
(1.28097 -0.037091 4.72202e-20)
(1.28173 -0.0414836 -5.90577e-21)
(1.2828 -0.0378852 -8.29976e-20)
(1.28346 -0.0422286 9.69439e-20)
(1.28388 -0.0381834 1.13071e-19)
(1.28448 -0.0424954 3.33299e-21)
(1.28407 -0.0379838 -3.17349e-20)
(1.28466 -0.042286 -8.17423e-20)
(1.28324 -0.0372939 -9.21068e-21)
(1.28392 -0.0416118 -7.60151e-20)
(1.2813 -0.0361299 -3.91008e-20)
(1.28219 -0.040492 1.65556e-20)
(1.27817 -0.034516 1.07607e-19)
(1.27942 -0.0389531 1.13734e-19)
(1.27379 -0.0324825 -1.36444e-19)
(1.27556 -0.0370278 4.17304e-20)
(1.26814 -0.0300658 -5.07813e-20)
(1.2706 -0.0347538 -1.70162e-19)
(1.26119 -0.0273073 1.4489e-19)
(1.26454 -0.0321728 1.73146e-20)
(1.25294 -0.0242551 -1.13153e-19)
(1.25736 -0.0293308 9.3361e-20)
(1.24342 -0.0209671 4.58972e-22)
(1.24907 -0.0262776 1.52547e-20)
(1.23265 -0.0175149 4.83342e-20)
(1.23967 -0.0230585 -6.76612e-20)
(1.22068 -0.0139827 -1.93384e-19)
(1.22911 -0.0197165 8.66319e-20)
(1.20754 -0.0104659 9.60727e-20)
(1.21742 -0.0163379 -9.90344e-20)
(1.22269 -0.0217325 -1.59794e-20)
(1.25639 -0.00217974 0)
(1.25944 -0.00193459 0)
(1.26221 -0.00169303 0)
(1.26467 -0.00145516 0)
(1.26682 -0.00122179 0)
(1.26865 -0.000994946 0)
(1.27015 -0.00077662 0)
(1.27132 -0.000568437 0)
(1.27215 -0.00037178 0)
(1.27265 -0.000187825 0)
(1.27282 -1.75132e-05 0)
(1.27268 0.000138463 0)
(1.27223 0.000279698 0)
(1.27149 0.000406039 0)
(1.27048 0.000517572 0)
(1.2692 0.000614613 0)
(1.26769 0.000697683 0)
(1.26595 0.000767475 0)
(1.26402 0.000824826 0)
(1.2619 0.00087068 0)
(1.25961 0.000906062 0)
(1.25719 0.000932042 0)
(1.25463 0.000949708 0)
(1.25197 0.000960144 0)
(1.2571 -0.00643492 0)
(1.26014 -0.00570484 0)
(1.26288 -0.00498595 0)
(1.26532 -0.00427875 0)
(1.26744 -0.00358575 0)
(1.26922 -0.00291289 0)
(1.27068 -0.00226588 0)
(1.27179 -0.00164943 0)
(1.27257 -0.0010675 0)
(1.27301 -0.000523508 0)
(1.27313 -2.01456e-05 0)
(1.27293 0.000440596 0)
(1.27241 0.000857589 0)
(1.27161 0.00123043 0)
(1.27053 0.00155943 0)
(1.26919 0.00184555 0)
(1.26761 0.00209038 0)
(1.2658 0.00229597 0)
(1.2638 0.00246482 0)
(1.26161 0.00259972 0)
(1.25926 0.0027037 0)
(1.25676 0.00277991 0)
(1.25413 0.00283157 0)
(1.2514 0.00286186 0)
(1.25848 -0.0104679 0)
(1.26148 -0.00926245 0)
(1.26416 -0.00807743 0)
(1.26653 -0.00691313 0)
(1.26857 -0.0057739 0)
(1.27028 -0.00466939 0)
(1.27164 -0.00360873 0)
(1.27265 -0.00259932 0)
(1.27333 -0.00164749 0)
(1.27366 -0.000758627 0)
(1.27366 6.30252e-05 0)
(1.27334 0.00081445 0)
(1.2727 0.00149393 0)
(1.27178 0.00210094 0)
(1.27057 0.00263613 0)
(1.2691 0.0031012 0)
(1.26739 0.0034988 0)
(1.26546 0.00383237 0)
(1.26332 0.00410601 0)
(1.261 0.00432431 0)
(1.25851 0.00449219 0)
(1.25588 0.0046148 0)
(1.25312 0.00469735 0)
(1.25025 0.004745 0)
(1.26043 -0.0142518 0)
(1.26336 -0.0125793 0)
(1.26594 -0.0109376 0)
(1.2682 -0.00932636 0)
(1.27013 -0.00775204 0)
(1.27171 -0.00622817 0)
(1.27293 -0.00476697 0)
(1.2738 -0.0033783 0)
(1.27431 -0.00207065 0)
(1.27448 -0.000851151 0)
(1.27431 0.000274666 0)
(1.27381 0.001303 0)
(1.273 0.00223174 0)
(1.27189 0.00306043 0)
(1.2705 0.0037902 0)
(1.26884 0.00442358 0)
(1.26694 0.00496436 0)
(1.26482 0.00541737 0)
(1.26249 0.00578829 0)
(1.25998 0.00608344 0)
(1.25731 0.00630957 0)
(1.25449 0.00647372 0)
(1.25154 0.00658297 0)
(1.24848 0.00664437 0)
(1.26286 -0.0177677 0)
(1.26568 -0.0156321 0)
(1.26812 -0.0135398 0)
(1.27024 -0.0114887 0)
(1.272 -0.00948831 0)
(1.27341 -0.00755566 0)
(1.27444 -0.0057057 0)
(1.2751 -0.0039505 0)
(1.2754 -0.00230042 0)
(1.27535 -0.00076408 0)
(1.27495 0.000651961 0)
(1.27422 0.00194334 0)
(1.27317 0.00310783 0)
(1.27182 0.00414525 0)
(1.27019 0.00505736 0)
(1.26829 0.00584765 0)
(1.26614 0.00652111 0)
(1.26378 0.00708398 0)
(1.26121 0.00754354 0)
(1.25845 0.00790777 0)
(1.25553 0.00818521 0)
(1.25247 0.00838468 0)
(1.24928 0.00851506 0)
(1.24598 0.00858517 0)
(1.26566 -0.0209952 0)
(1.26832 -0.0183975 0)
(1.27058 -0.0158578 0)
(1.2725 -0.0133722 0)
(1.27407 -0.0109531 0)
(1.27524 -0.00862109 0)
(1.27602 -0.00639336 0)
(1.27643 -0.0042838 0)
(1.27646 -0.00230442 0)
(1.27613 -0.000465018 0)
(1.27545 0.00122711 0)
(1.27442 0.00276731 0)
(1.27308 0.00415349 0)
(1.27143 0.00538596 0)
(1.26949 0.00646728 0)
(1.26729 0.00740201 0)
(1.26485 0.00819644 0)
(1.26219 0.00885829 0)
(1.25932 0.00939638 0)
(1.25627 0.00982041 0)
(1.25306 0.0101406 0)
(1.24971 0.0103676 0)
(1.24624 0.0105118 0)
(1.24266 0.010584 0)
(1.26871 -0.0239101 0)
(1.27117 -0.0208503 0)
(1.27319 -0.0178651 0)
(1.27487 -0.0149491 0)
(1.27617 -0.0121183 0)
(1.27706 -0.00939601 0)
(1.27754 -0.00680127 0)
(1.27763 -0.00434952 0)
(1.27734 -0.00205412 0)
(1.27667 7.42178e-05 0)
(1.27564 0.00202777 0)
(1.27426 0.00380189 0)
(1.27256 0.00539483 0)
(1.27055 0.0068076 0)
(1.26826 0.00804376 0)
(1.26571 0.00910908 0)
(1.26292 0.0100112 0)
(1.2599 0.0107595 0)
(1.25669 0.0113643 0)
(1.25331 0.011837 0)
(1.24977 0.0121896 0)
(1.2461 0.0124344 0)
(1.24231 0.0125836 0)
(1.23842 0.0126495 0)
(1.27188 -0.0264846 0)
(1.27408 -0.0229636 0)
(1.27581 -0.019535 0)
(1.2772 -0.0161929 0)
(1.27817 -0.0129575 0)
(1.27871 -0.00985441 0)
(1.27884 -0.00690377 0)
(1.27855 -0.00412243 0)
(1.27786 -0.00152488 0)
(1.27679 0.000877568 0)
(1.27536 0.00307703 0)
(1.27357 0.00506908 0)
(1.27146 0.00685258 0)
(1.26904 0.00842948 0)
(1.26634 0.00980449 0)
(1.26338 0.0109848 0)
(1.26019 0.0119796 0)
(1.25678 0.0127997 0)
(1.25319 0.0134574 0)
(1.24944 0.0139658 0)
(1.24554 0.0143385 0)
(1.24151 0.0145896 0)
(1.23739 0.0147331 0)
(1.23318 0.0147826 0)
(1.27503 -0.0286888 0)
(1.27691 -0.0247098 0)
(1.27828 -0.0208411 0)
(1.27931 -0.0170787 0)
(1.2799 -0.013447 0)
(1.28004 -0.00997337 0)
(1.27974 -0.00667873 0)
(1.27901 -0.00358122 0)
(1.27787 -0.000696265 0)
(1.27634 0.00196438 0)
(1.27444 0.00439293 0)
(1.27218 0.00658545 0)
(1.2696 0.00854163 0)
(1.26672 0.0102646 0)
(1.26356 0.0117605 0)
(1.26016 0.013038 0)
(1.25653 0.0141082 0)
(1.2527 0.0149836 0)
(1.2487 0.0156784 0)
(1.24454 0.0162074 0)
(1.24026 0.0165861 0)
(1.23588 0.0168304 0)
(1.2314 0.0169559 0)
(1.22686 0.0169779 0)
(1.27799 -0.0304933 0)
(1.27948 -0.0260632 0)
(1.28045 -0.0217598 0)
(1.28105 -0.0175846 0)
(1.2812 -0.0135666 0)
(1.28086 -0.00973382 0)
(1.28007 -0.0061081 0)
(1.27884 -0.00270893 0)
(1.27719 0.000447392 0)
(1.27514 0.00334887 0)
(1.27271 0.00598799 0)
(1.26994 0.00836153 0)
(1.26684 0.0104703 0)
(1.26345 0.012319 0)
(1.25979 0.0139155 0)
(1.2559 0.0152703 0)
(1.25181 0.0163963 0)
(1.24753 0.0173083 0)
(1.2431 0.0180223 0)
(1.23854 0.0185552 0)
(1.23387 0.0189244 0)
(1.22912 0.0191473 0)
(1.2243 0.0192415 0)
(1.21943 0.0192238 0)
(1.2806 -0.0318719 0)
(1.28163 -0.0270018 0)
(1.28213 -0.0222715 0)
(1.28225 -0.0176933 0)
(1.28188 -0.0133005 0)
(1.28102 -0.0091211 0)
(1.27968 -0.00517833 0)
(1.27788 -0.00149334 0)
(1.27566 0.00191669 0)
(1.27303 0.00503967 0)
(1.27002 0.00786855 0)
(1.26667 0.0104012 0)
(1.26302 0.01264 0)
(1.25908 0.0145914 0)
(1.2549 0.0162655 0)
(1.25051 0.0176751 0)
(1.24593 0.0188355 0)
(1.24119 0.0197635 0)
(1.23633 0.0204773 0)
(1.23136 0.020996 0)
(1.22631 0.0213388 0)
(1.22121 0.0215252 0)
(1.21606 0.0215742 0)
(1.21088 0.0215042 0)
(1.28268 -0.0328042 0)
(1.2832 -0.0275093 0)
(1.28317 -0.0223621 0)
(1.28274 -0.0173928 0)
(1.2818 -0.0126378 0)
(1.28034 -0.0081252 0)
(1.27839 -0.00388063 0)
(1.27597 7.27151e-05 0)
(1.27311 0.00371672 0)
(1.26985 0.00703929 0)
(1.26622 0.0100342 0)
(1.26226 0.012701 0)
(1.25801 0.0150441 0)
(1.25351 0.0170726 0)
(1.24878 0.0187989 0)
(1.24387 0.0202388 0)
(1.23881 0.0214099 0)
(1.23362 0.0223318 0)
(1.22834 0.023025 0)
(1.22298 0.0235107 0)
(1.21757 0.0238101 0)
(1.21213 0.0239444 0)
(1.20668 0.0239344 0)
(1.20123 0.0237998 0)
(1.28406 -0.0332778 0)
(1.28402 -0.027576 0)
(1.28342 -0.0220239 0)
(1.28238 -0.0166764 0)
(1.2808 -0.0115724 0)
(1.27868 -0.00674075 0)
(1.27605 -0.002211 0)
(1.27295 0.00199109 0)
(1.26941 0.00584648 0)
(1.26547 0.00934343 0)
(1.26118 0.0124773 0)
(1.25658 0.0152498 0)
(1.25172 0.0176685 0)
(1.24664 0.0197454 0)
(1.24137 0.0214964 0)
(1.23595 0.0229401 0)
(1.23042 0.0240974 0)
(1.2248 0.0249904 0)
(1.21912 0.0256421 0)
(1.21339 0.0260759 0)
(1.20766 0.0263149 0)
(1.20192 0.0263822 0)
(1.1962 0.0262998 0)
(1.19052 0.0260891 0)
(1.28458 -0.0332891 0)
(1.28394 -0.0271996 0)
(1.28271 -0.0212548 0)
(1.281 -0.0155427 0)
(1.27873 -0.0101024 0)
(1.27589 -0.00496663 0)
(1.27253 -0.000170266 0)
(1.26869 0.00425796 0)
(1.26442 0.0082984 0)
(1.25977 0.0119405 0)
(1.2548 0.0151821 0)
(1.24955 0.0180284 0)
(1.24408 0.0204908 0)
(1.23842 0.0225854 0)
(1.23262 0.0243317 0)
(1.22672 0.0257521 0)
(1.22074 0.0268704 0)
(1.21472 0.0277117 0)
(1.20868 0.0283014 0)
(1.20264 0.0286651 0)
(1.19661 0.0288279 0)
(1.19063 0.0288141 0)
(1.18469 0.0286474 0)
(1.17882 0.0283501 0)
(1.2841 -0.0328441 0)
(1.28284 -0.0263845 0)
(1.28094 -0.0200584 0)
(1.2785 -0.0139939 0)
(1.27547 -0.00822971 0)
(1.27186 -0.00280582 0)
(1.26771 0.00223563 0)
(1.26309 0.00686324 0)
(1.25806 0.0110577 0)
(1.25267 0.014811 0)
(1.24701 0.018125 0)
(1.24111 0.0210099 0)
(1.23504 0.0234818 0)
(1.22883 0.0255615 0)
(1.22254 0.0272732 0)
(1.21619 0.0286428 0)
(1.20981 0.0296975 0)
(1.20344 0.0304652 0)
(1.19708 0.0309738 0)
(1.19077 0.0312507 0)
(1.18451 0.0313226 0)
(1.17833 0.0312155 0)
(1.17223 0.030954 0)
(1.16622 0.0305614 0)
(1.28251 -0.031957 0)
(1.2806 -0.0251402 0)
(1.27799 -0.0184417 0)
(1.27476 -0.012035 0)
(1.27091 -0.00595883 0)
(1.26647 -0.000265394 0)
(1.26148 0.00499512 0)
(1.25605 0.00978982 0)
(1.25023 0.0141016 0)
(1.24411 0.0179272 0)
(1.23776 0.0212745 0)
(1.23124 0.0241599 0)
(1.2246 0.0266055 0)
(1.21789 0.0286377 0)
(1.21115 0.030285 0)
(1.2044 0.0315774 0)
(1.19768 0.0325453 0)
(1.19101 0.0332194 0)
(1.1844 0.0336294 0)
(1.17788 0.0338048 0)
(1.17145 0.0337736 0)
(1.16513 0.0335627 0)
(1.15892 0.0331979 0)
(1.15283 0.0327031 0)
(1.27968 -0.0306497 0)
(1.27715 -0.0234797 0)
(1.27377 -0.0164138 0)
(1.26969 -0.00967263 0)
(1.26496 -0.00329704 0)
(1.25963 0.00264286 0)
(1.25377 0.00809 0)
(1.2475 0.0130127 0)
(1.2409 0.0173992 0)
(1.23406 0.0212535 0)
(1.22706 0.0245919 0)
(1.21995 0.0274383 0)
(1.2128 0.0298217 0)
(1.20564 0.0317742 0)
(1.19851 0.0333289 0)
(1.19144 0.0345198 0)
(1.18444 0.0353801 0)
(1.17754 0.0359428 0)
(1.17074 0.0362396 0)
(1.16407 0.0363011 0)
(1.15753 0.0361567 0)
(1.15113 0.0358341 0)
(1.14488 0.0353596 0)
(1.13877 0.0347577 0)
(1.27556 -0.0289488 0)
(1.27242 -0.0214173 0)
(1.2682 -0.013984 0)
(1.26321 -0.00691369 0)
(1.25755 -0.000254746 0)
(1.25128 0.00590127 0)
(1.24453 0.0114943 0)
(1.23742 0.0164983 0)
(1.23006 0.0209109 0)
(1.22254 0.024747 0)
(1.21493 0.0280326 0)
(1.20731 0.0308005 0)
(1.19971 0.0330871 0)
(1.19217 0.0349299 0)
(1.18473 0.0363666 0)
(1.1774 0.0374345 0)
(1.17019 0.0381694 0)
(1.16313 0.038606 0)
(1.15622 0.0387776 0)
(1.14947 0.0387158 0)
(1.14289 0.0384507 0)
(1.13647 0.0380106 0)
(1.13022 0.0374222 0)
(1.12415 0.0367102 0)
(1.27008 -0.0268833 0)
(1.26635 -0.0189659 0)
(1.26124 -0.0111601 0)
(1.25525 -0.00376595 0)
(1.2486 0.00315311 0)
(1.24137 0.00948454 0)
(1.23372 0.0151728 0)
(1.2258 0.0202041 0)
(1.21772 0.0245898 0)
(1.20958 0.0283586 0)
(1.20145 0.0315479 0)
(1.19339 0.0341998 0)
(1.18542 0.0363576 0)
(1.17759 0.0380642 0)
(1.16991 0.039361 0)
(1.1624 0.040288 0)
(1.15507 0.0408831 0)
(1.14792 0.0411824 0)
(1.14097 0.0412199 0)
(1.13421 0.0410281 0)
(1.12764 0.0406374 0)
(1.12127 0.0400765 0)
(1.11509 0.039372 0)
(1.10911 0.0385488 0)
(1.26322 -0.0244815 0)
(1.25891 -0.0161348 0)
(1.25281 -0.00794737 0)
(1.24575 -0.000239086 0)
(1.23807 0.00690472 0)
(1.22987 0.0133579 0)
(1.22135 0.0190808 0)
(1.21267 0.024079 0)
(1.20395 0.0283825 0)
(1.19528 0.0320354 0)
(1.18671 0.0350874 0)
(1.1783 0.0375893 0)
(1.17006 0.0395906 0)
(1.16203 0.0411387 0)
(1.1542 0.042278 0)
(1.14659 0.0430504 0)
(1.13921 0.0434951 0)
(1.13205 0.043649 0)
(1.12512 0.0435468 0)
(1.11841 0.0432211 0)
(1.11192 0.0427023 0)
(1.10565 0.0420193 0)
(1.09959 0.0411986 0)
(1.09375 0.0402648 0)
(1.25494 -0.0217667 0)
(1.25008 -0.0129276 0)
(1.24287 -0.00434928 0)
(1.23468 0.00365261 0)
(1.22594 0.0109685 0)
(1.21679 0.0174755 0)
(1.20746 0.0231636 0)
(1.19811 0.028065 0)
(1.18885 0.0322315 0)
(1.17975 0.0357233 0)
(1.17085 0.0386014 0)
(1.16218 0.0409243 0)
(1.15377 0.0427467 0)
(1.14562 0.044119 0)
(1.13774 0.0450877 0)
(1.13012 0.0456958 0)
(1.12276 0.0459833 0)
(1.11566 0.0459873 0)
(1.10881 0.0457426 0)
(1.10221 0.0452815 0)
(1.09586 0.0446345 0)
(1.08975 0.0438301 0)
(1.08386 0.0428946 0)
(1.07821 0.0418524 0)
(1.24526 -0.0187527 0)
(1.23982 -0.00934084 0)
(1.23138 -0.000369076 0)
(1.222 0.00788623 0)
(1.21222 0.0153004 0)
(1.20218 0.0217795 0)
(1.19214 0.027358 0)
(1.18223 0.0320993 0)
(1.17254 0.0360779 0)
(1.16312 0.039369 0)
(1.154 0.042043 0)
(1.1452 0.0441643 0)
(1.13671 0.0457909 0)
(1.12854 0.0469753 0)
(1.12067 0.0477651 0)
(1.11312 0.0482035 0)
(1.10585 0.0483305 0)
(1.09888 0.048183 0)
(1.09218 0.0477955 0)
(1.08575 0.0472 0)
(1.07958 0.0464266 0)
(1.07367 0.0455032 0)
(1.06801 0.0444559 0)
(1.06258 0.0433085 0)
(1.23419 -0.0154381 0)
(1.22809 -0.00536366 0)
(1.21828 0.00398581 0)
(1.2077 0.0124251 0)
(1.19692 0.0198409 0)
(1.18611 0.0262012 0)
(1.17548 0.0315947 0)
(1.16515 0.0361176 0)
(1.15517 0.0398648 0)
(1.14557 0.0429233 0)
(1.13634 0.0453704 0)
(1.1275 0.0472741 0)
(1.11903 0.0486941 0)
(1.11092 0.0496838 0)
(1.10316 0.0502905 0)
(1.09574 0.0505574 0)
(1.08864 0.0505237 0)
(1.08184 0.050226 0)
(1.07535 0.0496978 0)
(1.06914 0.0489708 0)
(1.06321 0.0480743 0)
(1.05754 0.0470358 0)
(1.05213 0.0458807 0)
(1.04696 0.0446326 0)
(1.22172 -0.0117991 0)
(1.21484 -0.000979914 0)
(1.20352 0.00869689 0)
(1.19178 0.0172134 0)
(1.18013 0.024515 0)
(1.1687 0.0306628 0)
(1.15765 0.0358021 0)
(1.14706 0.0400575 0)
(1.13692 0.0435395 0)
(1.12726 0.0463428 0)
(1.11804 0.0485481 0)
(1.10927 0.0502249 0)
(1.1009 0.0514334 0)
(1.09294 0.052226 0)
(1.08535 0.0526497 0)
(1.07813 0.0527466 0)
(1.07124 0.0525549 0)
(1.06469 0.0521102 0)
(1.05844 0.0514454 0)
(1.05249 0.0505913 0)
(1.04683 0.0495765 0)
(1.04145 0.0484277 0)
(1.03632 0.0471699 0)
(1.03145 0.045826 0)
(1.20785 -0.00778249 0)
(1.19995 0.00382621 0)
(1.18707 0.013726 0)
(1.17429 0.0221731 0)
(1.16196 0.0292342 0)
(1.15011 0.0350825 0)
(1.13883 0.0399106 0)
(1.12812 0.0438625 0)
(1.11798 0.047057 0)
(1.10837 0.0495918 0)
(1.09927 0.0515482 0)
(1.09065 0.0529953 0)
(1.08248 0.053992 0)
(1.07473 0.0545897 0)
(1.06738 0.0548336 0)
(1.06041 0.0547646 0)
(1.0538 0.0544198 0)
(1.04752 0.0538334 0)
(1.04156 0.0530375 0)
(1.03592 0.0520619 0)
(1.03056 0.0509344 0)
(1.02549 0.0496811 0)
(1.02068 0.0483263 0)
(1.01613 0.0468921 0)
(1.19254 -0.00329781 0)
(1.18331 0.00905992 0)
)
;

boundaryField
{
    inlet
    {
        type            uniformFixedValue;
        uniformValue    constant (1 0 0);
        value           nonuniform 0();
    }
    outlet
    {
        type            pressureInletOutletVelocity;
        value           nonuniform 0();
    }
    cylinder
    {
        type            fixedValue;
        value           nonuniform 0();
    }
    top
    {
        type            symmetryPlane;
    }
    bottom
    {
        type            symmetryPlane;
    }
    defaultFaces
    {
        type            empty;
    }
    procBoundary2to1
    {
        type            processor;
        value           nonuniform List<vector> 
19
(
(1.24913 -0.00260769 -3.67028e-21)
(1.24982 -0.00766453 -1.66775e-21)
(1.25114 -0.0124829 4.67389e-21)
(1.253 -0.0170464 -8.31552e-21)
(1.25533 -0.0213535 1.8537e-21)
(1.25805 -0.0253998 -5.76133e-21)
(1.26107 -0.0291739 2.56671e-21)
(1.26432 -0.0326582 2.15952e-20)
(1.26768 -0.0358291 -2.80644e-20)
(1.27106 -0.0386593 2.11934e-20)
(1.27433 -0.0411198 -5.84955e-21)
(1.27737 -0.0431828 1.85017e-20)
(1.28006 -0.0448239 -4.36142e-22)
(1.28227 -0.046024 -1.30721e-20)
(1.28387 -0.0467713 -4.42098e-21)
(1.28477 -0.0470612 4.04962e-20)
(1.28488 -0.046897 -1.21995e-19)
(1.28411 -0.0462895 6.28698e-20)
(1.2824 -0.045256 -1.2078e-21)
)
;
    }
    procBoundary2to3
    {
        type            processor;
        value           nonuniform List<vector> 
25
(
(1.24921 0.000964401 0)
(1.24856 0.00287388 0)
(1.24728 0.00476278 0)
(1.24532 0.00666475 0)
(1.24259 0.00860355 0)
(1.23899 0.0105942 0)
(1.23446 0.0126437 0)
(1.2289 0.0147516 0)
(1.22227 0.0169113 0)
(1.21454 0.0191105 0)
(1.2057 0.021333 0)
(1.1958 0.0235596 0)
(1.18488 0.02577 0)
(1.17302 0.0279432 0)
(1.16031 0.0300595 0)
(1.14687 0.0321007 0)
(1.13281 0.0340511 0)
(1.11825 0.0358975 0)
(1.10331 0.0376298 0)
(1.08812 0.0392408 0)
(1.07277 0.0407259 0)
(1.05738 0.0420832 0)
(1.04204 0.0433128 0)
(1.02682 0.0444169 0)
(1.01182 0.0453991 0)
)
;
    }
    procBoundary2to5
    {
        type            processor;
        value           nonuniform List<vector> 10((1.27973 -0.0438199 4.66663e-20) (1.27605 -0.0420097 -4.92296e-20) (1.27136 -0.0398576 -4.99804e-20) (1.26567 -0.0373997 6.67035e-21) (1.25897 -0.0346727 1.08899e-19) (1.25129 -0.031705 4.31808e-20) (1.24264 -0.0285237 -1.04236e-19) (1.23309 -0.025187 -2.01599e-21) (1.23309 -0.025187 -2.01599e-21) (1.2393 -0.030817 -5.95546e-20));
    }
    procBoundary2to6
    {
        type            processor;
        value           nonuniform List<vector> 
30
(
(1.19333 -0.00711052 -3.21889e-20)
(1.19333 -0.00711052 -3.21889e-20)
(1.20463 -0.0130337 -6.77011e-20)
(1.20463 -0.0130337 -6.77011e-20)
(1.21127 -0.0179489 -4.30357e-20)
(1.16891 0.0190065 0)
(1.15533 0.0272043 0)
(1.14258 0.033903 0)
(1.13053 0.0393815 0)
(1.1192 0.0438588 0)
(1.10855 0.0474858 0)
(1.09853 0.0503819 0)
(1.08909 0.0526437 0)
(1.0802 0.0543511 0)
(1.07182 0.0555708 0)
(1.0639 0.0563599 0)
(1.05643 0.0567678 0)
(1.04938 0.0568378 0)
(1.04271 0.0566092 0)
(1.0364 0.0561176 0)
(1.03045 0.0553962 0)
(1.02482 0.0544757 0)
(1.0195 0.053385 0)
(1.01448 0.0521513 0)
(1.00973 0.0507997 0)
(1.00526 0.0493538 0)
(1.00105 0.0478354 0)
(1.17564 0.00180667 0)
(1.16891 0.0190065 0)
(1.16475 0.0146987 0)
)
;
    }
}


// ************************************************************************* //
