/*--------------------------------*- C++ -*----------------------------------*\
  =========                 |
  \\      /  F ield         | OpenFOAM: The Open Source CFD Toolbox
   \\    /   O peration     | Website:  https://openfoam.org
    \\  /    A nd           | Version:  7
     \\/     M anipulation  |
\*---------------------------------------------------------------------------*/
FoamFile
{
    version     2.0;
    format      ascii;
    class       surfaceScalarField;
    location    "5";
    object      phi;
}
// * * * * * * * * * * * * * * * * * * * * * * * * * * * * * * * * * * * * * //

dimensions      [0 3 -1 0 0 0 0];

internalField   nonuniform List<scalar> 
5147
(
0.00367827
1.18142e-05
0.00366696
1.13105e-05
0.00365616
1.0796e-05
0.00364589
1.02743e-05
0.00363614
9.74909e-06
0.00362691
9.2237e-06
0.00361821
8.70138e-06
0.00361003
8.1851e-06
0.00360235
7.67756e-06
0.00359517
7.18115e-06
0.00358847
6.69796e-06
0.00358224
6.22978e-06
0.00357646
5.77813e-06
0.00357112
5.34425e-06
0.00356619
4.92911e-06
0.00356165
4.53347e-06
0.0035575
4.15788e-06
0.00355369
3.80271e-06
0.00355023
3.46812e-06
0.00354707
3.15413e-06
0.00354421
2.86061e-06
0.00354162
2.58727e-06
0.00353929
2.3337e-06
0.00353719
2.09936e-06
0.00353531
1.88358e-06
0.00353362
1.68564e-06
0.00353212
1.50469e-06
0.00353078
1.33984e-06
0.00352959
1.19017e-06
0.00352853
1.05471e-06
0.0035276
9.32482e-07
0.00352678
8.22523e-07
0.00352605
7.2389e-07
0.00352542
6.35649e-07
0.00352486
5.56937e-07
0.00352437
4.86881e-07
0.00352395
4.24729e-07
0.00352358
3.69669e-07
0.00352326
3.21102e-07
0.00352298
2.78237e-07
0.00352274
2.40696e-07
0.00352253
2.07604e-07
0.00352235
1.78953e-07
0.0035222
1.53554e-07
0.00352207
1.32076e-07
0.00352195
1.12564e-07
0.00352186
9.69615e-08
0.00352178
8.1728e-08
0.0035217
7.10669e-08
0.00352165
5.87831e-08
5.06955e-08
0.00363524
2.34888e-05
0.00362406
2.2487e-05
0.0036134
2.14637e-05
0.00360324
2.04263e-05
0.00359361
1.93817e-05
0.0035845
1.8337e-05
0.0035759
1.72983e-05
0.00356781
1.62717e-05
0.00356023
1.52625e-05
0.00355313
1.42755e-05
0.00354652
1.33148e-05
0.00354036
1.23839e-05
0.00353466
1.1486e-05
0.00352938
1.06233e-05
0.00352451
9.79801e-06
0.00352003
9.01148e-06
0.00351592
8.26482e-06
0.00351217
7.55875e-06
0.00350874
6.89362e-06
0.00350563
6.26946e-06
0.0035028
5.68599e-06
0.00350025
5.14265e-06
0.00349794
4.63861e-06
0.00349587
4.17279e-06
0.00349401
3.74389e-06
0.00349234
3.35043e-06
0.00349086
2.99076e-06
0.00348953
2.6631e-06
0.00348836
2.3656e-06
0.00348732
2.09635e-06
0.00348639
1.85341e-06
0.00348558
1.63485e-06
0.00348487
1.4388e-06
0.00348424
1.26341e-06
0.00348369
1.10696e-06
0.00348321
9.6772e-07
0.00348279
8.44178e-07
0.00348242
7.34755e-07
0.00348211
6.38203e-07
0.00348183
5.53035e-07
0.00348159
4.78373e-07
0.00348139
4.12671e-07
0.00348121
3.55615e-07
0.00348106
3.05301e-07
0.00348093
2.62355e-07
0.00348082
2.23962e-07
0.00348072
1.92365e-07
0.00348064
1.62971e-07
0.00348057
1.40456e-07
0.00348051
1.18043e-07
1.00009e-07
0.00359265
3.50238e-05
0.00358161
3.35293e-05
0.00357107
3.20027e-05
0.00356104
3.0455e-05
0.00355153
2.88969e-05
0.00354253
2.73385e-05
0.00353404
2.57894e-05
0.00352605
2.42583e-05
0.00351856
2.27532e-05
0.00351155
2.12812e-05
0.00350502
1.98486e-05
0.00349894
1.84606e-05
0.00349331
1.71216e-05
0.00348809
1.58355e-05
0.00348329
1.46049e-05
0.00347887
1.34323e-05
0.00347481
1.23192e-05
0.0034711
1.12666e-05
0.00346772
1.0275e-05
0.00346465
9.3446e-06
0.00346186
8.47484e-06
0.00345934
7.66493e-06
0.00345706
6.91361e-06
0.00345501
6.21928e-06
0.00345318
5.57999e-06
0.00345154
4.99354e-06
0.00345007
4.45745e-06
0.00344876
3.96909e-06
0.0034476
3.52568e-06
0.00344657
3.12437e-06
0.00344567
2.76228e-06
0.00344486
2.43653e-06
0.00344416
2.14434e-06
0.00344354
1.88295e-06
0.003443
1.64977e-06
0.00344252
1.44225e-06
0.00344211
1.25812e-06
0.00344175
1.09505e-06
0.00344143
9.51137e-07
0.00344116
8.24223e-07
0.00344093
7.12922e-07
0.00344073
6.15046e-07
0.00344055
5.29947e-07
0.0034404
4.55061e-07
0.00344027
3.90906e-07
0.00344016
3.33915e-07
0.00344007
2.86481e-07
0.00343999
2.43191e-07
0.00343992
2.08868e-07
0.00343986
1.76621e-07
1.48603e-07
0.0035505
4.64195e-05
0.0035396
4.44371e-05
0.00352919
4.24124e-05
0.00351928
4.03599e-05
0.00350989
3.82937e-05
0.003501
3.62273e-05
0.00349261
3.41733e-05
0.00348473
3.21433e-05
0.00347733
3.0148e-05
0.00347042
2.81968e-05
0.00346397
2.62978e-05
0.00345797
2.44581e-05
0.00345241
2.26835e-05
0.00344727
2.0979e-05
0.00344252
1.93483e-05
0.00343816
1.77944e-05
0.00343416
1.63194e-05
0.0034305
1.49247e-05
0.00342717
1.3611e-05
0.00342413
1.23783e-05
0.00342138
1.1226e-05
0.00341889
1.0153e-05
0.00341665
9.1577e-06
0.00341463
8.2379e-06
0.00341282
7.39105e-06
0.0034112
6.61419e-06
0.00340975
5.90406e-06
0.00340846
5.25717e-06
0.00340732
4.66983e-06
0.00340631
4.13826e-06
0.00340541
3.65865e-06
0.00340462
3.22718e-06
0.00340392
2.84016e-06
0.00340331
2.49393e-06
0.00340278
2.18508e-06
0.00340231
1.91023e-06
0.0034019
1.66634e-06
0.00340155
1.45036e-06
0.00340124
1.25974e-06
0.00340097
1.09166e-06
0.00340074
9.44222e-07
0.00340054
8.14622e-07
0.00340037
7.01857e-07
0.00340022
6.02755e-07
0.00340009
5.17661e-07
0.00339998
4.42366e-07
0.00339989
3.7926e-07
0.00339981
3.22349e-07
0.00339974
2.76266e-07
0.00339969
2.34485e-07
1.96453e-07
0.00350879
5.7676e-05
0.00349802
5.52104e-05
0.00348774
5.26924e-05
0.00347796
5.01402e-05
0.00346868
4.75712e-05
0.00345991
4.50022e-05
0.00345163
4.24488e-05
0.00344385
3.99256e-05
0.00343655
3.74457e-05
0.00342973
3.50208e-05
0.00342336
3.26609e-05
0.00341745
3.03749e-05
0.00341196
2.81701e-05
0.00340689
2.60524e-05
0.00340221
2.40266e-05
0.00339791
2.20963e-05
0.00339396
2.02642e-05
0.00339036
1.85319e-05
0.00338707
1.69003e-05
0.00338408
1.53693e-05
0.00338136
1.39383e-05
0.00337891
1.26059e-05
0.0033767
1.137e-05
0.00337471
1.02278e-05
0.00337292
9.17628e-06
0.00337133
8.21168e-06
0.0033699
7.32997e-06
0.00336863
6.52679e-06
0.0033675
5.79755e-06
0.0033665
5.13757e-06
0.00336562
4.54211e-06
0.00336484
4.00643e-06
0.00336415
3.52594e-06
0.00336355
3.0961e-06
0.00336302
2.71266e-06
0.00336256
2.37143e-06
0.00336216
2.06865e-06
0.00336181
1.80052e-06
0.00336151
1.56387e-06
0.00336124
1.35522e-06
0.00336102
1.17216e-06
0.00336082
1.0113e-06
0.00336065
8.71263e-07
0.0033605
7.48311e-07
0.00336038
6.42558e-07
0.00336027
5.49261e-07
0.00336018
4.70658e-07
0.0033601
4.00402e-07
0.00336004
3.42622e-07
0.00335998
2.91598e-07
2.43542e-07
0.00346752
6.87936e-05
0.00345688
6.58491e-05
0.00344673
6.28426e-05
0.00343707
5.97956e-05
0.00342791
5.67289e-05
0.00341925
5.36625e-05
0.00341109
5.06151e-05
0.00340341
4.76041e-05
0.00339621
4.4645e-05
0.00338948
4.17518e-05
0.0033832
3.89366e-05
0.00337737
3.62098e-05
0.00337196
3.358e-05
0.00336696
3.10544e-05
0.00336234
2.86385e-05
0.0033581
2.63368e-05
0.00335422
2.41523e-05
0.00335066
2.2087e-05
0.00334742
2.01418e-05
0.00334447
1.83167e-05
0.0033418
1.66109e-05
0.00333938
1.50227e-05
0.0033372
1.35496e-05
0.00333524
1.21883e-05
0.00333348
1.0935e-05
0.00333191
9.7854e-06
0.00333051
8.73461e-06
0.00332926
7.77742e-06
0.00332814
6.90838e-06
0.00332716
6.12189e-06
0.00332629
5.4123e-06
0.00332552
4.77396e-06
0.00332485
4.20138e-06
0.00332425
3.68917e-06
0.00332373
3.23226e-06
0.00332328
2.82566e-06
0.00332288
2.46487e-06
0.00332254
2.14538e-06
0.00332224
1.86339e-06
0.00332198
1.61478e-06
0.00332176
1.39664e-06
0.00332156
1.205e-06
0.00332139
1.03809e-06
0.00332125
8.91664e-07
0.00332113
7.65544e-07
0.00332102
6.5455e-07
0.00332093
5.60638e-07
0.00332086
4.77311e-07
0.00332079
4.07913e-07
0.00332073
3.47927e-07
2.89853e-07
0.00342667
7.97724e-05
0.00341617
7.63533e-05
0.00340615
7.28626e-05
0.00339662
6.93255e-05
0.00338758
6.5766e-05
0.00337904
6.22073e-05
0.00337098
5.86712e-05
0.00336341
5.51777e-05
0.00335631
5.17449e-05
0.00334967
4.83889e-05
0.00334348
4.51238e-05
0.00333773
4.19615e-05
0.0033324
3.89121e-05
0.00332747
3.59837e-05
0.00332293
3.3183e-05
0.00331875
3.05148e-05
0.00331492
2.79826e-05
0.00331141
2.55889e-05
0.00330822
2.33345e-05
0.00330532
2.12196e-05
0.00330269
1.92429e-05
0.00330031
1.74026e-05
0.00329816
1.56958e-05
0.00329623
1.41186e-05
0.0032945
1.26666e-05
0.00329295
1.13348e-05
0.00329157
1.01175e-05
0.00329034
9.00861e-06
0.00328924
8.00191e-06
0.00328827
7.09085e-06
0.00328742
6.26888e-06
0.00328666
5.52946e-06
0.003286
4.86623e-06
0.00328541
4.27294e-06
0.0032849
3.7437e-06
0.00328445
3.27274e-06
0.00328406
2.85485e-06
0.00328372
2.4848e-06
0.00328343
2.15817e-06
0.00328317
1.87024e-06
0.00328295
1.61756e-06
0.00328276
1.39564e-06
0.0032826
1.20227e-06
0.00328246
1.03276e-06
0.00328234
8.86569e-07
0.00328223
7.5819e-07
0.00328214
6.49164e-07
0.00328207
5.53043e-07
0.003282
4.72117e-07
0.00328195
4.0344e-07
3.35373e-07
0.00338626
9.06128e-05
0.00337589
8.67229e-05
0.003366
8.27524e-05
0.0033566
7.87296e-05
0.00334768
7.4682e-05
0.00333925
7.06361e-05
0.00333131
6.66164e-05
0.00332384
6.26456e-05
0.00331684
5.87444e-05
0.0033103
5.4931e-05
0.0033042
5.12214e-05
0.00329853
4.7629e-05
0.00329328
4.41652e-05
0.00328842
4.08394e-05
0.00328395
3.76589e-05
0.00327983
3.46292e-05
0.00327606
3.17543e-05
0.00327261
2.90367e-05
0.00326947
2.64777e-05
0.00326661
2.4077e-05
0.00326402
2.18336e-05
0.00326168
1.9745e-05
0.00325957
1.78079e-05
0.00325767
1.60181e-05
0.00325596
1.43705e-05
0.00325444
1.28593e-05
0.00325308
1.14781e-05
0.00325187
1.022e-05
0.00325079
9.07777e-06
0.00324984
8.04412e-06
0.00324899
7.11156e-06
0.00324825
6.27269e-06
0.0032476
5.52025e-06
0.00324702
4.84718e-06
0.00324652
4.24679e-06
0.00324608
3.71252e-06
0.0032457
3.23844e-06
0.00324536
2.81866e-06
0.00324507
2.44813e-06
0.00324482
2.12152e-06
0.0032446
1.83486e-06
0.00324442
1.58315e-06
0.00324426
1.36375e-06
0.00324412
1.17153e-06
0.003244
1.00559e-06
0.0032439
8.60142e-07
0.00324381
7.36206e-07
0.00324373
6.27566e-07
0.00324367
5.35214e-07
0.00324362
4.58113e-07
3.80088e-07
0.00334627
0.000101315
0.00333604
9.69581e-05
0.00332628
9.25117e-05
0.003317
8.80076e-05
0.00330821
8.34767e-05
0.00329989
7.89482e-05
0.00329206
7.44499e-05
0.0032847
7.00071e-05
0.0032778
6.56428e-05
0.00327135
6.13773e-05
0.00326535
5.72284e-05
0.00325976
5.32113e-05
0.00325459
4.93386e-05
0.00324981
4.56205e-05
0.0032454
4.20653e-05
0.00324135
3.86791e-05
0.00323764
3.54663e-05
0.00323425
3.24297e-05
0.00323116
2.95704e-05
0.00322834
2.68884e-05
0.0032258
2.43822e-05
0.00322349
2.20491e-05
0.00322141
1.98855e-05
0.00321955
1.78864e-05
0.00321787
1.60463e-05
0.00321637
1.43586e-05
0.00321503
1.28161e-05
0.00321384
1.14111e-05
0.00321278
1.01356e-05
0.00321185
8.98141e-06
0.00321102
7.94009e-06
0.00321029
7.00341e-06
0.00320964
6.16326e-06
0.00320908
5.41173e-06
0.00320859
4.74137e-06
0.00320815
4.14484e-06
0.00320778
3.61554e-06
0.00320745
3.14686e-06
0.00320716
2.73316e-06
0.00320692
2.36852e-06
0.0032067
2.04846e-06
0.00320652
1.76747e-06
0.00320636
1.52247e-06
0.00320622
1.30795e-06
0.00320611
1.12257e-06
0.00320601
9.60371e-07
0.00320592
8.21737e-07
0.00320585
7.00854e-07
0.00320578
5.97187e-07
0.00320573
5.11921e-07
4.23988e-07
0.00330671
0.000111879
0.00329661
0.000107059
0.00328698
0.000102141
0.00327783
9.71594e-05
0.00326916
9.21495e-05
0.00326096
8.71433e-05
0.00325324
8.21712e-05
0.00324599
7.72614e-05
0.00323919
7.24392e-05
0.00323284
6.77269e-05
0.00322693
6.31442e-05
0.00322143
5.87077e-05
0.00321634
5.44313e-05
0.00321163
5.03262e-05
0.00320729
4.64015e-05
0.00320331
4.26639e-05
0.00319966
3.91181e-05
0.00319632
3.57671e-05
0.00319328
3.26121e-05
0.00319051
2.9653e-05
0.00318801
2.68881e-05
0.00318574
2.43145e-05
0.0031837
2.19279e-05
0.00318186
1.9723e-05
0.00318022
1.76935e-05
0.00317874
1.58322e-05
0.00317743
1.41311e-05
0.00317626
1.25817e-05
0.00317522
1.11752e-05
0.0031743
9.90247e-06
0.00317348
8.75425e-06
0.00317276
7.72142e-06
0.00317213
6.79505e-06
0.00317158
5.96643e-06
0.00317109
5.2273e-06
0.00317067
4.5696e-06
0.0031703
3.98602e-06
0.00316997
3.46929e-06
0.00316969
3.01318e-06
0.00316945
2.61118e-06
0.00316924
2.25829e-06
0.00316906
1.94854e-06
0.00316891
1.67838e-06
0.00316877
1.44198e-06
0.00316866
1.23747e-06
0.00316856
1.05885e-06
0.00316847
9.05733e-07
0.0031684
7.72884e-07
0.00316834
6.5802e-07
0.00316829
5.64843e-07
4.67063e-07
0.00326757
0.000122306
0.00325761
0.000117025
0.00324811
0.000111639
0.00323908
0.000106185
0.00323053
0.0001007
0.00322246
9.52208e-05
0.00321485
8.978e-05
0.0032077
8.44082e-05
0.00320101
7.91331e-05
0.00319475
7.39793e-05
0.00318893
6.89681e-05
0.00318352
6.41175e-05
0.00317851
5.94426e-05
0.00317388
5.49559e-05
0.00316961
5.06669e-05
0.0031657
4.65828e-05
0.0031621
4.27089e-05
0.00315882
3.90483e-05
0.00315583
3.56022e-05
0.00315312
3.23704e-05
0.00315065
2.93509e-05
0.00314843
2.65406e-05
0.00314642
2.39347e-05
0.00314462
2.15274e-05
0.003143
1.93118e-05
0.00314155
1.72798e-05
0.00314026
1.54228e-05
0.00313911
1.37316e-05
0.00313809
1.21963e-05
0.00313718
1.08071e-05
0.00313638
9.55383e-06
0.00313568
8.42655e-06
0.00313506
7.4155e-06
0.00313451
6.51114e-06
0.00313404
5.70447e-06
0.00313362
4.98669e-06
0.00313325
4.3498e-06
0.00313294
3.78589e-06
0.00313266
3.28812e-06
0.00313242
2.84944e-06
0.00313222
2.46431e-06
0.00313204
2.12633e-06
0.00313189
1.83146e-06
0.00313176
1.57356e-06
0.00313164
1.35027e-06
0.00313155
1.15554e-06
0.00313146
9.88174e-07
0.00313139
8.43634e-07
0.00313133
7.17702e-07
0.00313128
6.16861e-07
5.09307e-07
0.00322886
0.000132595
0.00321902
0.000126857
0.00320966
0.000121006
0.00320076
0.000115083
0.00319233
0.000109128
0.00318437
0.000103181
0.00317687
9.72756e-05
0.00316984
9.14468e-05
0.00316325
8.57241e-05
0.00315709
8.0134e-05
0.00315136
7.46994e-05
0.00314604
6.944e-05
0.00314111
6.43721e-05
0.00313655
5.95089e-05
0.00313236
5.48608e-05
0.00312851
5.04354e-05
0.00312498
4.62383e-05
0.00312175
4.22728e-05
0.00311882
3.85402e-05
0.00311615
3.504e-05
0.00311373
3.17702e-05
0.00311154
2.87272e-05
0.00310957
2.59057e-05
0.0031078
2.32995e-05
0.00310621
2.09008e-05
0.00310479
1.87011e-05
0.00310352
1.66911e-05
0.00310239
1.48604e-05
0.00310139
1.31987e-05
0.0031005
1.16951e-05
0.00309971
1.03387e-05
0.00309902
9.11867e-06
0.00309841
8.02446e-06
0.00309788
7.04575e-06
0.00309741
6.17278e-06
0.003097
5.39602e-06
0.00309664
4.7068e-06
0.00309633
4.09658e-06
0.00309606
3.55792e-06
0.00309583
3.08324e-06
0.00309563
2.66647e-06
0.00309545
2.30079e-06
0.0030953
1.98166e-06
0.00309517
1.70269e-06
0.00309506
1.46094e-06
0.00309497
1.25044e-06
0.00309489
1.06904e-06
0.00309482
9.13086e-07
0.00309476
7.76222e-07
0.00309471
6.67959e-07
5.50711e-07
0.00319056
0.000142747
0.00318086
0.000136556
0.00317162
0.000130244
0.00316285
0.000123855
0.00315454
0.000117434
0.0031467
0.000111022
0.00313932
0.000104658
0.00313239
9.8377e-05
0.0031259
9.22117e-05
0.00311985
8.61904e-05
0.00311421
8.03378e-05
0.00310897
7.4675e-05
0.00310413
6.92193e-05
0.00309965
6.39849e-05
0.00309553
5.89827e-05
0.00309174
5.42211e-05
0.00308827
4.97058e-05
0.00308511
4.54402e-05
0.00308222
4.14257e-05
0.0030796
3.76616e-05
0.00307722
3.41456e-05
0.00307508
3.08738e-05
0.00307314
2.78405e-05
0.0030714
2.50387e-05
0.00306984
2.24604e-05
0.00306845
2.0096e-05
0.0030672
1.79356e-05
0.0030661
1.59681e-05
0.00306511
1.41822e-05
0.00306424
1.25663e-05
0.00306347
1.11087e-05
0.00306279
9.79765e-06
0.0030622
8.62184e-06
0.00306167
7.57017e-06
0.00306121
6.63215e-06
0.00306081
5.79752e-06
0.00306046
5.05696e-06
0.00306016
4.40131e-06
0.00305989
3.82254e-06
0.00305966
3.31254e-06
0.00305946
2.86474e-06
0.00305929
2.47188e-06
0.00305914
2.12895e-06
0.00305902
1.82933e-06
0.00305891
1.56946e-06
0.00305882
1.34352e-06
0.00305874
1.14833e-06
0.00305867
9.81227e-07
0.00305861
8.33572e-07
0.00305856
7.18125e-07
5.91273e-07
0.00315267
0.000152761
0.00314311
0.00014612
0.003134
0.00013935
0.00312536
0.0001325
0.00311717
0.000125618
0.00310945
0.000118746
0.00310218
0.000111927
0.00309536
0.000105199
0.00308897
9.85956e-05
0.00308302
9.21483e-05
0.00307747
8.58829e-05
0.00307232
7.98219e-05
0.00306756
7.39837e-05
0.00306316
6.83833e-05
0.00305911
6.30324e-05
0.00305539
5.79396e-05
0.00305199
5.31111e-05
0.00304888
4.85502e-05
0.00304605
4.42584e-05
0.00304347
4.02348e-05
0.00304114
3.64769e-05
0.00303903
3.29803e-05
0.00303714
2.97388e-05
0.00303543
2.67451e-05
0.0030339
2.39902e-05
0.00303253
2.14642e-05
0.00303131
1.91562e-05
0.00303022
1.70544e-05
0.00302926
1.51467e-05
0.00302841
1.34207e-05
0.00302765
1.18637e-05
0.00302699
1.04634e-05
0.0030264
9.20755e-06
0.00302589
8.08432e-06
0.00302544
7.0825e-06
0.00302504
6.19112e-06
0.0030247
5.40023e-06
0.0030244
4.70004e-06
0.00302414
4.08194e-06
0.00302392
3.53732e-06
0.00302372
3.05908e-06
0.00302355
2.6396e-06
0.00302341
2.27333e-06
0.00302328
1.95346e-06
0.00302318
1.67582e-06
0.00302309
1.43476e-06
0.00302301
1.22602e-06
0.00302294
1.04804e-06
0.00302289
8.89745e-07
0.00302284
7.67345e-07
6.30987e-07
0.0031152
0.000162639
0.00310577
0.00015555
0.00309679
0.000148326
0.00308827
0.000141019
0.00308021
0.000133678
0.00307261
0.000126351
0.00306545
0.000119082
0.00305874
0.000111911
0.00305246
0.000104876
0.0030466
9.80074e-05
0.00304115
9.13345e-05
0.00303609
8.48806e-05
0.00303141
7.86651e-05
0.00302709
7.2704e-05
0.00302311
6.70095e-05
0.00301946
6.15907e-05
0.00301612
5.64539e-05
0.00301306
5.16026e-05
0.00301029
4.7038e-05
0.00300776
4.27594e-05
0.00300547
3.87638e-05
0.00300341
3.50463e-05
0.00300155
3.16006e-05
0.00299987
2.84184e-05
0.00299837
2.54903e-05
0.00299703
2.28057e-05
0.00299583
2.03528e-05
0.00299477
1.81193e-05
0.00299382
1.60921e-05
0.00299299
1.4258e-05
0.00299225
1.26037e-05
0.00299159
1.11158e-05
0.00299102
9.78153e-06
0.00299052
8.58815e-06
0.00299008
7.52379e-06
0.00298969
6.5768e-06
0.00298935
5.73657e-06
0.00298906
4.99272e-06
0.00298881
4.33608e-06
0.00298859
3.75754e-06
0.0029884
3.24947e-06
0.00298823
2.8039e-06
0.00298809
2.41476e-06
0.00298797
2.07507e-06
0.00298786
1.78e-06
0.00298777
1.52416e-06
0.0029877
1.3021e-06
0.00298763
1.11353e-06
0.00298758
9.44737e-07
0.00298753
8.15612e-07
6.69853e-07
0.00307813
0.000172381
0.00306884
0.000164847
0.00305999
0.000157172
0.0030516
0.000149411
0.00304366
0.000141616
0.00303617
0.000133838
0.00302913
0.000126123
0.00302253
0.000118515
0.00301635
0.000111052
0.00301059
0.000103768
0.00300524
9.66924e-05
0.00300027
8.98507e-05
0.00299567
8.32634e-05
0.00299142
7.69468e-05
0.00298752
7.09139e-05
0.00298394
6.51742e-05
0.00298066
5.9734e-05
0.00297766
5.45971e-05
0.00297494
4.97646e-05
0.00297246
4.52353e-05
0.00297022
4.10062e-05
0.00296819
3.70719e-05
0.00296637
3.34256e-05
0.00296473
3.00584e-05
0.00296326
2.69604e-05
0.00296194
2.41202e-05
0.00296077
2.15253e-05
0.00295973
1.91626e-05
0.0029588
1.70183e-05
0.00295798
1.50783e-05
0.00295725
1.33286e-05
0.00295662
1.17549e-05
0.00295605
1.03437e-05
0.00295556
9.08162e-06
0.00295513
7.95599e-06
0.00295475
6.95451e-06
0.00295442
6.06595e-06
0.00295413
5.27934e-06
0.00295388
4.58494e-06
0.00295367
3.97318e-06
0.00295348
3.4359e-06
0.00295332
2.96479e-06
0.00295318
2.55324e-06
0.00295306
2.19416e-06
0.00295296
1.88199e-06
0.00295287
1.6117e-06
0.0029528
1.37658e-06
0.00295274
1.17767e-06
0.00295268
9.98544e-07
0.00295263
8.62918e-07
7.07869e-07
0.00304147
0.000181986
0.00303231
0.00017401
0.0030236
0.000165887
0.00301533
0.000157676
0.00300752
0.000149431
0.00300015
0.000141206
0.00299322
0.00013305
0.00298672
0.000125009
0.00298065
0.000117123
0.00297499
0.000109429
0.00296973
0.000101956
0.00296485
9.47324e-05
0.00296033
8.77783e-05
0.00295617
8.11116e-05
0.00295233
7.47455e-05
0.00294882
6.86899e-05
0.0029456
6.29514e-05
0.00294267
5.75337e-05
0.00293999
5.24378e-05
0.00293756
4.76624e-05
0.00293537
4.3204e-05
0.00293338
3.9057e-05
0.00293159
3.52138e-05
0.00292999
3.16652e-05
0.00292855
2.84006e-05
0.00292726
2.54078e-05
0.00292611
2.26737e-05
0.00292509
2.01844e-05
0.00292418
1.79253e-05
0.00292338
1.58816e-05
0.00292267
1.40383e-05
0.00292204
1.23806e-05
0.00292149
1.08941e-05
0.00292101
9.5647e-06
0.00292059
8.37907e-06
0.00292022
7.32423e-06
0.00291989
6.38836e-06
0.00291961
5.55988e-06
0.00291937
4.82852e-06
0.00291916
4.18424e-06
0.00291898
3.61836e-06
0.00291882
3.12225e-06
0.00291868
2.68875e-06
0.00291857
2.3107e-06
0.00291847
1.9818e-06
0.00291838
1.69739e-06
0.00291831
1.44944e-06
0.00291825
1.24046e-06
0.00291819
1.05117e-06
0.00291815
9.09257e-07
7.45035e-07
0.00300522
0.000191455
0.00299619
0.00018304
0.0029876
0.000174473
0.00297946
0.000165814
0.00297177
0.000157123
0.00296452
0.000148456
0.00295771
0.000139864
0.00295132
0.000131395
0.00294535
0.000123091
0.00293979
0.000114991
0.00293462
0.000107127
0.00292983
9.95254e-05
0.0029254
9.221e-05
0.00292131
8.51983e-05
0.00291755
7.85042e-05
0.0029141
7.21379e-05
0.00291095
6.6106e-05
0.00290807
6.04123e-05
0.00290545
5.50578e-05
0.00290307
5.00407e-05
0.00290092
4.53573e-05
0.00289898
4.10014e-05
0.00289722
3.69652e-05
0.00289565
3.32388e-05
0.00289424
2.98108e-05
0.00289298
2.66685e-05
0.00289186
2.3798e-05
0.00289085
2.11846e-05
0.00288997
1.88131e-05
0.00288918
1.66678e-05
0.00288849
1.47329e-05
0.00288787
1.29929e-05
0.00288734
1.14327e-05
0.00288686
1.00374e-05
0.00288645
8.79304e-06
0.00288609
7.68597e-06
0.00288577
6.70378e-06
0.0028855
5.83434e-06
0.00288526
5.06681e-06
0.00288505
4.39071e-06
0.00288487
3.79685e-06
0.00288472
3.27628e-06
0.00288459
2.82131e-06
0.00288447
2.4247e-06
0.00288438
2.07941e-06
0.00288429
1.78121e-06
0.00288422
1.52068e-06
0.00288416
1.30191e-06
0.00288411
1.10261e-06
0.00288406
9.54625e-07
7.81353e-07
0.00296936
0.000200789
0.00296046
0.000191937
0.00295201
0.000182928
0.002944
0.000173826
0.00293643
0.000164693
0.0029293
0.000155588
0.0029226
0.000146563
0.00291632
0.000137671
0.00291046
0.000128955
0.00290499
0.000120454
0.00289992
0.000112203
0.00289521
0.00010423
0.00289086
9.65585e-05
0.00288685
8.92071e-05
0.00288317
8.21902e-05
0.00287979
7.55182e-05
0.0028767
6.91979e-05
0.00287388
6.32331e-05
0.00287131
5.76245e-05
0.00286898
5.23702e-05
0.00286687
4.74659e-05
0.00286497
4.29053e-05
0.00286325
3.86798e-05
0.00286171
3.4779e-05
0.00286033
3.1191e-05
0.0028591
2.79022e-05
0.002858
2.48981e-05
0.00285702
2.21633e-05
0.00285615
1.96817e-05
0.00285538
1.74368e-05
0.0028547
1.54124e-05
0.0028541
1.35919e-05
0.00285358
1.19595e-05
0.00285311
1.04997e-05
0.00285271
9.19788e-06
0.00285236
8.03973e-06
0.00285205
7.01223e-06
0.00285178
6.10272e-06
0.00285155
5.29981e-06
0.00285134
4.59259e-06
0.00285117
3.97136e-06
0.00285102
3.42688e-06
0.00285089
2.9509e-06
0.00285078
2.53617e-06
0.00285068
2.17484e-06
0.0028506
1.86317e-06
0.00285053
1.59032e-06
0.00285047
1.36201e-06
0.00285042
1.15286e-06
0.00285038
9.99019e-07
8.16825e-07
0.0029339
0.000209986
0.00292514
0.000200701
0.00291681
0.000191254
0.00290893
0.000181712
0.00290148
0.000172141
0.00289447
0.000162601
0.00288788
0.00015315
0.00288171
0.000143839
0.00287595
0.000134715
0.00287059
0.000125819
0.0028656
0.000117186
0.00286099
0.000108846
0.00285672
0.000100824
0.00285279
9.31379e-05
0.00284918
8.58034e-05
0.00284587
7.88309e-05
0.00284284
7.22272e-05
0.00284007
6.59961e-05
0.00283756
6.0138e-05
0.00283528
5.46509e-05
0.00283322
4.95301e-05
0.00283135
4.47688e-05
0.00282967
4.03577e-05
0.00282817
3.62861e-05
0.00282682
3.25412e-05
0.00282561
2.9109e-05
0.00282453
2.59741e-05
0.00282358
2.31204e-05
0.00282273
2.05311e-05
0.00282198
1.81889e-05
0.00282131
1.60767e-05
0.00282073
1.41774e-05
0.00282021
1.24745e-05
0.00281976
1.09516e-05
0.00281936
9.59362e-06
0.00281902
8.38551e-06
0.00281872
7.31372e-06
0.00281845
6.36503e-06
0.00281823
5.52753e-06
0.00281803
4.78989e-06
0.00281786
4.1419e-06
0.00281771
3.57405e-06
0.00281758
3.07754e-06
0.00281747
2.6451e-06
0.00281738
2.26807e-06
0.0028173
1.94327e-06
0.00281723
1.65835e-06
0.00281717
1.42075e-06
0.00281713
1.20194e-06
0.00281708
1.04244e-06
8.51454e-07
0.00289884
0.000219048
0.00289021
0.000209332
0.00288201
0.00019945
0.00287425
0.000189472
0.00286692
0.000179467
0.00286003
0.000169497
0.00285356
0.000159623
0.0028475
0.000149898
0.00284184
0.000140371
0.00283657
0.000131084
0.00283168
0.000122075
0.00282716
0.000113374
0.00282297
0.000105006
0.00281912
9.69912e-05
0.00281558
8.93442e-05
0.00281234
8.20762e-05
0.00280937
7.51941e-05
0.00280666
6.87014e-05
0.0028042
6.25986e-05
0.00280197
5.68831e-05
0.00279995
5.155e-05
0.00279813
4.65918e-05
0.00279649
4.19991e-05
0.00279501
3.77601e-05
0.00279369
3.38617e-05
0.00279251
3.0289e-05
0.00279146
2.70261e-05
0.00279052
2.40561e-05
0.00278969
2.13613e-05
0.00278896
1.89239e-05
0.00278831
1.6726e-05
0.00278774
1.47497e-05
0.00278723
1.29777e-05
0.00278679
1.13932e-05
0.00278641
9.98029e-06
0.00278607
8.72334e-06
0.00278577
7.60826e-06
0.00278552
6.62128e-06
0.00278529
5.74999e-06
0.0027851
4.98262e-06
0.00278494
4.30848e-06
0.00278479
3.71782e-06
0.00278467
3.20123e-06
0.00278456
2.7515e-06
0.00278447
2.35913e-06
0.00278439
2.02152e-06
0.00278433
1.72477e-06
0.00278427
1.47815e-06
0.00278422
1.24984e-06
0.00278418
1.08489e-06
8.85245e-07
0.00286416
0.000227975
0.00285566
0.00021783
0.0028476
0.000207516
0.00283996
0.000197106
0.00283276
0.000186671
0.00282598
0.000176275
0.00281962
0.000165983
0.00281367
0.000155848
0.00280812
0.000145924
0.00280295
0.000136252
0.00279815
0.000126872
0.00279371
0.000117814
0.00278961
0.000109106
0.00278584
0.000100767
0.00278237
9.28127e-05
0.00277919
8.52543e-05
0.00277629
7.80987e-05
0.00277364
7.13494e-05
0.00277123
6.50063e-05
0.00276905
5.90669e-05
0.00276707
5.35257e-05
0.00276529
4.83747e-05
0.00276368
4.36039e-05
0.00276224
3.92011e-05
0.00276095
3.51524e-05
0.0027598
3.14424e-05
0.00275877
2.80542e-05
0.00275786
2.49704e-05
0.00275704
2.21726e-05
0.00275633
1.96421e-05
0.00275569
1.73603e-05
0.00275513
1.53087e-05
0.00275464
1.34693e-05
0.00275421
1.18245e-05
0.00275383
1.03579e-05
0.0027535
9.05327e-06
0.00275322
7.89589e-06
0.00275296
6.87151e-06
0.00275275
5.9672e-06
0.00275256
5.17081e-06
0.0027524
4.47113e-06
0.00275226
3.85818e-06
0.00275214
3.32199e-06
0.00275203
2.85538e-06
0.00275194
2.44802e-06
0.00275187
2.09791e-06
0.0027518
1.7896e-06
0.00275175
1.53421e-06
0.0027517
1.29658e-06
0.00275166
1.12636e-06
9.18203e-07
0.00282988
0.000236767
0.00282151
0.000226197
0.00281357
0.000215454
0.00280606
0.000204615
0.00279898
0.000193753
0.00279232
0.000182936
0.00278607
0.00017223
0.00278023
0.000161691
0.00277478
0.000151373
0.00276971
0.000141322
0.00276501
0.000131575
0.00276065
0.000122167
0.00275664
0.000113124
0.00275294
0.000104466
0.00274954
9.62093e-05
0.00274643
8.83656e-05
0.00274359
8.09414e-05
0.002741
7.39401e-05
0.00273864
6.73616e-05
0.00273651
6.12026e-05
0.00273457
5.54574e-05
0.00273283
5.01176e-05
0.00273126
4.51725e-05
0.00272985
4.06094e-05
0.00272859
3.64136e-05
0.00272747
3.25692e-05
0.00272646
2.90586e-05
0.00272557
2.58635e-05
0.00272478
2.29648e-05
0.00272407
2.03434e-05
0.00272346
1.79796e-05
0.00272291
1.58545e-05
0.00272243
1.39492e-05
0.00272201
1.22456e-05
0.00272164
1.07266e-05
0.00272132
9.37531e-06
0.00272104
8.17664e-06
0.00272079
7.11574e-06
0.00272058
6.1792e-06
0.0027204
5.35447e-06
0.00272024
4.62986e-06
0.0027201
3.99516e-06
0.00271998
3.43983e-06
0.00271988
2.95675e-06
0.0027198
2.53475e-06
0.00271972
2.17247e-06
0.00271966
1.85284e-06
0.0027196
1.58893e-06
0.00271956
1.34216e-06
0.00271952
1.16687e-06
9.50333e-07
0.00279597
0.000245424
0.00278774
0.000234431
0.00277993
0.000223263
0.00277255
0.000211999
0.00276558
0.000200714
0.00275904
0.000189481
0.00275291
0.000178364
0.00274717
0.000167426
0.00274182
0.00015672
0.00273685
0.000146294
0.00273224
0.000136186
0.00272797
0.000126433
0.00272404
0.000117059
0.00272042
0.000108088
0.00271709
9.95344e-05
0.00271405
9.14103e-05
0.00271127
8.37225e-05
0.00270873
7.64741e-05
0.00270643
6.96645e-05
0.00270434
6.32904e-05
0.00270245
5.73454e-05
0.00270075
5.18207e-05
0.00269922
4.6705e-05
0.00269784
4.1985e-05
0.00269661
3.76455e-05
0.00269551
3.36696e-05
0.00269453
3.00392e-05
0.00269366
2.67354e-05
0.00269288
2.37383e-05
0.0026922
2.10279e-05
0.00269159
1.85842e-05
0.00269106
1.63871e-05
0.00269059
1.44175e-05
0.00269018
1.26564e-05
0.00268982
1.10863e-05
0.00268951
9.68954e-06
0.00268923
8.45056e-06
0.002689
7.35402e-06
0.00268879
6.38602e-06
0.00268861
5.53364e-06
0.00268846
4.78469e-06
0.00268832
4.12877e-06
0.00268821
3.55476e-06
0.00268811
3.05564e-06
0.00268802
2.61933e-06
0.00268795
2.2452e-06
0.00268789
1.91451e-06
0.00268784
1.64232e-06
0.00268779
1.38658e-06
0.00268775
1.20641e-06
9.81642e-07
0.00276245
0.000253947
0.00275435
0.000242534
0.00274667
0.000230944
0.00273941
0.000219258
0.00273257
0.000207555
0.00272614
0.000195908
0.00272012
0.000184387
0.00271449
0.000173055
0.00270925
0.000161965
0.00270437
0.000151169
0.00269985
0.000140706
0.00269567
0.000130611
0.00269182
0.000120913
0.00268827
0.000111633
0.00268502
0.000102788
0.00268204
9.4389e-05
0.00267932
8.64424e-05
0.00267684
7.89515e-05
0.00267459
7.19156e-05
0.00267255
6.53307e-05
0.00267071
5.91901e-05
0.00266904
5.34844e-05
0.00266755
4.82018e-05
0.0026662
4.33283e-05
0.002665
3.88481e-05
0.00266393
3.47437e-05
0.00266297
3.09964e-05
0.00266212
2.75863e-05
0.00266136
2.44931e-05
0.0026607
2.16959e-05
0.00266011
1.9174e-05
0.00265959
1.69068e-05
0.00265913
1.48744e-05
0.00265873
1.30572e-05
0.00265838
1.14371e-05
0.00265807
9.996e-06
0.0026578
8.71769e-06
0.00265757
7.58638e-06
0.00265737
6.58769e-06
0.00265719
5.70834e-06
0.00265704
4.93566e-06
0.00265691
4.25905e-06
0.0026568
3.66682e-06
0.00265671
3.15205e-06
0.00265662
2.70178e-06
0.00265655
2.31612e-06
0.00265649
1.97461e-06
0.00265644
1.69439e-06
0.0026564
1.42986e-06
0.00265636
1.24499e-06
1.01214e-06
0.00272931
0.000262336
0.00272134
0.000250506
0.00271378
0.000238497
0.00270665
0.000226393
0.00269993
0.000214275
0.00269362
0.00020222
0.00268771
0.000190299
0.00268219
0.000178576
0.00267704
0.000167109
0.00267226
0.000155947
0.00266784
0.000145134
0.00266374
0.000134704
0.00265997
0.000124686
0.0026565
0.000115103
0.00265332
0.000105971
0.0026504
9.73019e-05
0.00264774
8.91015e-05
0.00264532
8.13729e-05
0.00264312
7.41151e-05
0.00264113
6.73237e-05
0.00263933
6.09916e-05
0.0026377
5.51088e-05
0.00263624
4.9663e-05