/*--------------------------------*- C++ -*----------------------------------*\
  =========                 |
  \\      /  F ield         | OpenFOAM: The Open Source CFD Toolbox
   \\    /   O peration     | Website:  https://openfoam.org
    \\  /    A nd           | Version:  7
     \\/     M anipulation  |
\*---------------------------------------------------------------------------*/
FoamFile
{
    version     2.0;
    format      ascii;
    class       surfaceScalarField;
    location    "15";
    object      phi;
}
// * * * * * * * * * * * * * * * * * * * * * * * * * * * * * * * * * * * * * //

dimensions      [0 3 -1 0 0 0 0];

internalField   nonuniform List<scalar> 
83430
(
-3.32991e-06
3.33016e-06
-2.52133e-10
-5.77194e-06
2.44264e-06
-6.03905e-10
-4.05621e-06
-1.7148e-06
-9.33519e-10
5.03933e-06
-9.09429e-06
-1.2505e-09
2.34712e-05
-1.84303e-05
-1.59342e-09
5.33185e-05
-2.98453e-05
-1.96868e-09
9.62737e-05
-4.29528e-05
-2.39719e-09
0.000154177
-5.79009e-05
-2.87632e-09
0.000228825
-7.46444e-05
-3.41986e-09
0.000322172
-9.3343e-05
-3.99563e-09
0.000436262
-0.000114085
-4.62274e-09
0.00057332
-0.000137053
-5.17735e-09
0.000735691
-0.000162365
-5.73605e-09
0.000926007
-0.00019031
-5.91061e-09
0.00114682
-0.000220808
-6.01322e-09
0.00140172
-0.00025489
-4.98266e-09
0.00169243
-0.000290713
-3.77774e-09
0.00202705
-0.00033462
-2.57779e-11
0.00239854
-0.000371489
4.26926e-09
-0.000446157
1.29859e-08
0.00284468
-3.29675e-06
6.62691e-06
-5.65631e-06
4.8022e-06
-3.80877e-06
-3.56234e-06
5.46995e-06
-1.8373e-05
2.4143e-05
-3.71034e-05
5.42978e-05
-6.00001e-05
9.7638e-05
-8.62929e-05
0.000156017
-0.00011628
0.000231247
-0.000149874
0.000325299
-0.000187395
0.000440238
-0.000229025
0.000578313
-0.000275127
0.000741891
-0.000325943
0.000933634
-0.000382053
0.00115613
-0.000443302
0.00141298
-0.000511737
0.00170598
-0.000583721
0.00204317
-0.000671811
0.00241775
-0.000746061
-0.000895185
0.00286677
-3.23052e-06
9.85743e-06
-5.4254e-06
6.99708e-06
-3.31461e-06
-5.67313e-06
6.32988e-06
-2.80175e-05
2.54845e-05
-5.6258e-05
5.62532e-05
-9.07688e-05
0.000100362
-0.000130402
0.00015969
-0.000175608
0.00023608
-0.000226263
0.000331539
-0.000282854
0.000448171
-0.000345657
0.000588269
-0.000415225
0.000754253
-0.000491927
0.000948834
-0.000576634
0.00117467
-0.000669136
0.00143539
-0.000772464
0.00173295
-0.000881275
0.00207523
-0.0010141
0.00245593
-0.00112675
-0.00134992
0.00291066
-3.13144e-06
1.29889e-05
-5.07987e-06
8.94552e-06
-2.57518e-06
-8.17782e-06
7.61658e-06
-3.82093e-05
2.74916e-05
-7.6133e-05
5.91783e-05
-0.000122456
0.000104436
-0.000175659
0.000165182
-0.000236355
0.000243304
-0.000304386
0.000340862
-0.000380412
0.000460019
-0.000464814
0.000603133
-0.000558339
0.000772699
-0.000661492
0.000971502
-0.000775437
0.0012023
-0.000899931
0.00146878
-0.00103895
0.00177307
-0.00118556
0.00212289
-0.00136391
0.00251262
-0.00151648
-0.00181309
0.00297579
-2.9998e-06
1.59887e-05
-4.62074e-06
1.05665e-05
-1.59259e-06
-1.1206e-05
9.32625e-06
-4.91281e-05
3.01581e-05
-9.69648e-05
6.30637e-05
-0.000155361
0.000109845
-0.000222441
0.000172472
-0.000298981
0.000252891
-0.000384804
0.000353228
-0.00048075
0.000475726
-0.000587311
0.000622824
-0.000705438
0.000797115
-0.000835783
0.00100148
-0.000979803
0.0012388
-0.00113725
0.00151284
-0.00131298
0.00182595
-0.00149867
0.0021856
-0.00172357
0.00258714
-0.00191802
-0.00228724
0.00306129
-2.83603e-06
1.88247e-05
-4.04934e-06
1.17798e-05
-3.69393e-07
-1.48859e-05
1.14539e-05
-6.09514e-05
3.34758e-05
-0.000118987
6.78967e-05
-0.000189782
0.000116572
-0.000271116
0.000181533
-0.000363942
0.0002648
-0.000468071
0.000368581
-0.000584532
0.000495211
-0.000713941
0.000647233
-0.000857459
0.000827352
-0.0010159
0.00103856
-0.00119102
0.0012839
-0.00138258
0.00156719
-0.00159627
0.00189107
-0.00182256
0.00226271
-0.00209521
0.00267858
-0.00233389
-0.00277471
0.00316605
-2.64061e-06
2.14653e-05
-3.36732e-06
1.25065e-05
1.08999e-06
-1.93432e-05
1.39932e-05
-7.38546e-05
3.74347e-05
-0.000142428
7.3662e-05
-0.000226009
0.000124594
-0.000322048
0.000192332
-0.000431681
0.000278984
-0.000554722
0.000386853
-0.000692401
0.00051838
-0.000845468
0.000676224
-0.0010153
0.000863223
-0.0012029
0.0010825
-0.00141029
0.00133724
-0.00163733
0.00163136
-0.00189039
0.00196781
-0.00215901
0.00235335
-0.00248075
0.00278585
-0.00276639
-0.00327759
0.00328873
-2.41415e-06
2.38795e-05
-2.57664e-06
1.2669e-05
2.78215e-06
-2.4702e-05
1.69368e-05
-8.80093e-05
4.20228e-05
-0.000167514
8.03411e-05
-0.000264328
0.000133881
-0.000375588
0.000204829
-0.000502629
0.000295385
-0.000645278
0.000407961
-0.000804976
0.000545116
-0.000982624
0.000709639
-0.00117983
0.000904506
-0.00139777
0.00113298
-0.00163876
0.00139842
-0.00190277
0.0017048
-0.00219678
0.00205543
-0.00250964
0.00245657
-0.00288189
0.00290766
-0.00321749
-0.00379763
0.00342771
-2.15733e-06
2.60368e-05
-1.67954e-06
1.21912e-05
4.70222e-06
-3.10838e-05
2.02763e-05
-0.000103583
4.72263e-05
-0.000194464
8.79126e-05
-0.000305014
0.000144404
-0.00043208
0.000218976
-0.000577201
0.000313936
-0.000740238
0.000431811
-0.000922851
0.000575289
-0.0011261
0.000747293
-0.00135183
0.00095095
-0.00160143
0.00118965
-0.00187746
0.00146696
-0.00218007
0.00178688
-0.00251671
0.00215308
-0.00287584
0.00257125
-0.00330005
0.00304256
-0.00368879
-0.00433628
0.0035812
-1.87091e-06
2.79077e-05
-6.78539e-07
1.09988e-05
6.84474e-06
-3.86071e-05
2.4002e-05
-0.000120741
5.30296e-05
-0.000223492
9.63526e-05
-0.000348337
0.000156126
-0.000491853
0.000234723
-0.000655798
0.000334563
-0.000840078
0.000458298
-0.00104659
0.000608749
-0.00127655
0.00078898
-0.00153206
0.00100227
-0.00181472
0.00125215
-0.00212734
0.00154234
-0.00247026
0.0018769
-0.00285127
0.00225983
-0.00325877
0.00269616
-0.00373639
0.00318893
-0.00418156
-0.00489459
0.00374724
-1.55571e-06
2.94634e-05
4.23527e-07
9.01956e-06
9.20375e-06
-4.73873e-05
2.81033e-05
-0.00013964
5.94154e-05
-0.000254804
0.000105634
-0.000394556
0.000169007
-0.000555226
0.000252011
-0.000738802
0.000357184
-0.000945251
0.000487304
-0.00117671
0.000645332
-0.00143458
0.000834473
-0.0017212
0.00105815
-0.0020384
0.00132003
-0.00238921
0.00162398
-0.00277421
0.00197408
-0.00320137
0.00237466
-0.00365934
0.00283
-0.00419173
0.00334505
-0.00469661
-0.00547322
0.00392368
-1.21263e-06
3.0676e-05
1.62372e-06
6.18322e-06
1.17728e-05
-5.75363e-05
3.25687e-05
-0.000160436
6.6365e-05
-0.0002886
0.000115729
-0.00044392
0.000183005
-0.000622502
0.000270777
-0.000826574
0.000381706
-0.00105618
0.000518701
-0.0013137
0.00068486
-0.00160074
0.000883525
-0.00191987
0.00111826
-0.00227314
0.00139284
-0.00266379
0.00171128
-0.00309266
0.00207762
-0.00356771
0.0024965
-0.00407822
0.00297136
-0.00466659
0.0035091
-0.00523434
-0.00607241
0.00410829
-8.4257e-07
3.15186e-05
2.91873e-06
2.42192e-06
1.45448e-05
-6.91623e-05
3.73856e-05
-0.000183277
7.38579e-05
-0.000325073
0.000126605
-0.000496668
0.000198072
-0.000693968
0.000290953
-0.000919456
0.000408034
-0.00117326
0.000552351
-0.00145802
0.000727139
-0.00177553
0.000935867
-0.00212859
0.00118223
-0.0025195
0.00147008
-0.00295164
0.00180357
-0.00342614
0.00218665
-0.00395079
0.00262421
-0.00451578
0.00311879
-0.00516117
0.00367919
-0.00579474
-0.00669199
0.00429877
-4.46375e-07
3.1965e-05
4.30514e-06
-2.3296e-06
1.75123e-05
-8.23695e-05
4.25407e-05
-0.000208305
8.18725e-05
-0.000364404
0.00013823
-0.000553025
0.000214159
-0.000769897
0.000312467
-0.00101776
0.000436061
-0.00129685
0.000588107
-0.00161006
0.000771965
-0.00195939
0.000991219
-0.00234785
0.00124967
-0.00277795
0.00155125
-0.00325321
0.00190016
-0.00377505
0.00230024
-0.00435088
0.0027566
-0.00497214
0.00327079
-0.00567537
0.00385339
-0.00637734
-0.00733136
0.00449276
-1.55994e-08
3.19806e-05
5.77938e-06
-8.12458e-06
2.06675e-05
-9.72577e-05
4.80199e-05
-0.000235658
9.03857e-05
-0.00040677
0.000150566
-0.000613205
0.000231211
-0.000850542
0.000335239
-0.00112179
0.000465678
-0.00142729
0.000625813
-0.0017702
0.000819119
-0.00215269
0.00104928
-0.00257801
0.00132019
-0.00304886
0.00163578
-0.00356881
0.00200032
-0.00413959
0.00241748
-0.00476803
0.00289247
-0.00544713
0.00342584
-0.00620874
0.00402976
-0.00698126
-0.00798952
0.00468792
4.19669e-07
3.15609e-05
7.33734e-06
-1.50422e-05
2.40022e-05
-0.000113923
5.38085e-05
-0.000265464
9.93733e-05
-0.000452335
0.000163577
-0.000677409
0.000249174
-0.000936139
0.00035919
-0.00123181
0.000496769
-0.00156487
0.000665304
-0.00193873
0.000868375
-0.00235576
0.00110974
-0.00281938
0.00139335
-0.00333246
0.00172313
-0.00389859
0.00210333
-0.00451979
0.00253739
-0.00520209
0.00303058
-0.00594032
0.0035824
-0.00676056
0.00420638
-0.00760523
-0.0086651
0.00488196
8.86222e-07
3.06747e-05
8.97535e-06
-2.31314e-05
2.75076e-05
-0.000132455
5.98909e-05
-0.000297847
0.00010881
-0.000501254
0.000177225
-0.000745824
0.000267989
-0.0010269
0.000384234
-0.00134805
0.000529211
-0.00170985
0.000706411
-0.00211593
0.000919495
-0.00256885
0.00117228
-0.00307216
0.00146872
-0.00362891
0.00181272
-0.00424259
0.00220843
-0.0049155
0.00265902
-0.00565268
0.00316971
-0.00645101
0.00373898
-0.00732983
0.00438138
-0.00824764
-0.00935638
0.00507266
1.37445e-06
2.93002e-05
1.06893e-05
-3.24462e-05
3.11751e-05
-0.000152941
6.62511e-05
-0.000332923
0.00011867
-0.000553673
0.000191467
-0.000818621
0.000287595
-0.00112303
0.000410282
-0.00147074
0.000562877
-0.00186244
0.000748955
-0.00230201
0.000972236
-0.00279213
0.00123656
-0.00333649
0.00154587
-0.00393822
0.00190395
-0.00460067
0.00231484
-0.0053264
0.00278138
-0.00611922
0.00330864
-0.00697827
0.00389408
-0.00791526
0.00455296
-0.00890652
-0.0100613
0.00525792
1.8829e-06
2.74173e-05
1.2475e-05
-4.30383e-05
3.49953e-05
-0.000175461
7.28726e-05
-0.000370801
0.000128925
-0.000609725
0.000206262
-0.000895958
0.000307928
-0.0012247
0.000437243
-0.00160005
0.000597639
-0.00202284
0.000792754
-0.00249712
0.00102634
-0.00302572
0.00130224
-0.00361238
0.00162432
-0.0042603
0.00199623
-0.00497258
0.00242182
-0.00575198
0.00290352
-0.00660092
0.00344618
-0.00752092
0.00404628
-0.00851536
0.00471943
-0.00957968
-0.0107777
0.0054358
2.41031e-06
2.5007e-05
1.43281e-05
-5.49561e-05
3.89591e-05
-0.000200092
7.97385e-05
-0.00041158
0.000139548
-0.000669534
0.000221566
-0.000977976
0.000328925
-0.00133206
0.000465023
-0.00173615
0.00063336
-0.00219118
0.00083762
-0.00270138
0.00108157
-0.00326967
0.00136898
-0.0038998
0.00170363
-0.00459495
0.00208898
-0.00535793
0.00252859
-0.00619159
0.00302449
-0.00709683
0.00358116
-0.0080776
0.00419422
-0.00912842
0.00487921
-0.0102647
-0.011503
0.00560454
2.95543e-06
2.20516e-05
1.62444e-05
-6.82451e-05
4.30567e-05
-0.000226904
8.68312e-05
-0.000455355
0.00015051
-0.000733213
0.000237335
-0.0010648
0.000350519
-0.00144524
0.000493524
-0.00187916
0.000669905
-0.00236756
0.000883362
-0.00291484
0.00113764
-0.00352394
0.00143642
-0.00419858
0.00178334
-0.00494187
0.00218158
-0.00575617
0.00263441
-0.00664442
0.00314337
-0.00760579
0.0037125
-0.00864672
0.00433662
-0.00975254
0.00503087
-0.0109589
-0.0122347
0.00576258
3.51704e-06
1.85346e-05
1.82195e-05
-8.29475e-05
4.72786e-05
-0.000255963
9.41332e-05
-0.000502209
0.000161782
-0.000800861
0.000253524
-0.00115654
0.000372641
-0.00156436
0.000522647
-0.00202916
0.000707132
-0.00255204
0.000929786
-0.0031375
0.00119429
-0.00378844
0.00150421
-0.00450851
0.00186297
-0.00530062
0.00227346
-0.00616665
0.00273855
-0.00710951
0.00325927
-0.00812651
0.00383914
-0.00922658
0.00447231
-0.0103857
0.00517313
-0.0116597
-0.0129702
0.00590857
4.09389e-06
1.44407e-05
2.02489e-05
-9.91025e-05
5.16149e-05
-0.000287329
0.000101627
-0.000552221
0.000173334
-0.000872568
0.000270086
-0.0012533
0.000395222
-0.00168949
0.000552294
-0.00218624
0.000744899
-0.00274465
0.000976694
-0.00336929
0.00125126
-0.00406302
0.00157201
-0.00482925
0.00194208
-0.0056707
0.00236404
-0.00658861
0.0028403
-0.00758577
0.00337136
-0.00865758
0.00396012
-0.00981534
0.00460021
-0.0110258
0.00530488
-0.0123644
-0.0137067
0.00604141
4.68476e-06
9.75592e-06
2.23283e-05
-0.000116746
5.60557e-05
-0.000321057
0.000109293
-0.000605458
0.000185135
-0.00094841
0.000286974
-0.00135514
0.000418192
-0.00182071
0.00058236
-0.0023504
0.000783063
-0.00294535
0.00102389
-0.00361012
0.00130829
-0.00434742
0.00163945
-0.00516041
0.00202022
-0.00605147
0.00245275
-0.00702114
0.00293898
-0.008072
0.00347884
-0.00919744
0.00407455
-0.010411
0.00471937
-0.0116706
0.00542519
-0.0130702
-0.0144417
0.00616021
5.28846e-06
4.46746e-06
2.44532e-05
-0.000135911
6.05911e-05
-0.000357195
0.000117114
-0.000661981
0.000197157
-0.00102845
0.00030414
-0.00146212
0.000441479
-0.00195805
0.000612744
-0.00252167
0.000821479
-0.00315409
0.00107117
-0.00385981
0.0013651
-0.00464135
0.00170619
-0.0055015
0.00209695
-0.00644223
0.00253907
-0.00746326
0.00303395
-0.00856688
0.00358098
-0.00974448
0.00418164
-0.0110117
0.00482898
-0.012318
0.00553332
-0.0137746
-0.0151727
0.00626433
5.9038e-06
-1.43634e-06
2.66193e-05
-0.000156626
6.52111e-05
-0.000395786
0.000125072
-0.000721842
0.000209367
-0.00111275
0.000321537
-0.00157429
0.000465013
-0.00210153
0.000643341
-0.0027
0.00086
-0.00337075
0.00111834
-0.00411815
0.00142143
-0.00494444
0.0017719
-0.00585197
0.00217184
-0.00684216
0.00262247
-0.00791389
0.00312462
-0.00906903
0.00367712
-0.010297
0.0042807
-0.0116153
0.00492833
-0.0129656
0.00562868
-0.0144749
-0.0158974
0.00635335
6.5296e-06
-7.96594e-06
2.88221e-05
-0.000178919
6.99058e-05
-0.00043687
0.000133147
-0.000785083
0.000221734
-0.00120134
0.000339116
-0.00169167
0.000488719
-0.00225113
0.000674047
-0.00288532
0.000898481
-0.00359518
0.0011652
-0.00438487
0.00147703
-0.00525626
0.00183623
-0.00621117
0.00224447
-0.0072504
0.00270246
-0.00837188
0.00321042
-0.00957699
0.00376665
-0.0108532
0.00437113
-0.0122198
0.0050169
-0.0136114
0.0057109
-0.0151689
-0.0166136
0.00642705
7.16472e-06
-1.51307e-05
3.10574e-05
-0.000202812
7.4665e-05
-0.000480478
0.000141321
-0.000851739
0.000234228
-0.00129424
0.000356827
-0.00181427
0.000512526
-0.00240683
0.000704758
-0.00307756
0.000936776
-0.0038272
0.00121156
-0.00465965
0.00153163
-0.00557633
0.00189887
-0.00657841
0.00231447
-0.007666
0.00277859
-0.008836
0.00329086
-0.0100893
0.00384906
-0.0114114
0.00445243
-0.0128231
0.00509425
-0.0142532
0.00577973
-0.0158544
-0.0173192
0.00648541
7.80803e-06
-2.29387e-05
3.33207e-05
-0.000228324
7.94789e-05
-0.000526636
0.000149576
-0.000921836
0.000246818
-0.00139148
0.000374623
-0.00194207
0.000536361
-0.00256857
0.000735368
-0.00327656
0.000974741
-0.00406657
0.00125721
-0.00494213
0.00158498
-0.00590409
0.0019595
-0.00695293
0.00238144
-0.00808795
0.00285044
-0.009305
0.00336547
-0.0106043
0.0039239
-0.0119698
0.00452423
-0.0134235
0.00516011
-0.0148891
0.00583512
-0.0165294
-0.0180127
0.0065286
8.45845e-06
-3.13971e-05
3.56078e-05
-0.000255474
8.43375e-05
-0.000575366
0.000157892
-0.000995391
0.000259471
-0.00149306
0.000392454
-0.00207506
0.00056015
-0.00273626
0.000765774
-0.00348219
0.00101223
-0.00431303
0.00130198
-0.00523187
0.00163684
-0.00623895
0.00201782
-0.00733391
0.00244506
-0.00851519
0.00291761
-0.00977755
0.00343388
-0.0111206
0.0039908
-0.0125268
0.00458624
-0.0140189
0.00521434
-0.0155172
0.00587715
-0.0171922
-0.0186925
0.00655692
9.11488e-06
-4.0512e-05
3.79144e-05
-0.000284273
8.92309e-05
-0.000626682
0.000166252
-0.00107241
0.000272156
-0.00159897
0.000410271
-0.00221317
0.000583821
-0.00290981
0.000795872
-0.00369424
0.00104911
-0.00456627
0.00134567
-0.00552844
0.00168698
-0.00658026
0.00207355
-0.00772049
0.00250498
-0.00894662
0.00297977
-0.0102523
0.00349574
-0.0116365
0.00404947
-0.0130805
0.00463827
-0.0146077
0.00525692
-0.0161358
0.00590602
-0.0178413
-0.0193573
0.00657082
9.7763e-06
-5.02883e-05
4.02364e-05
-0.000314733
9.41492e-05
-0.000680595
0.000174636
-0.0011529
0.000284843
-0.00170917
0.000428024
-0.00235635
0.000607301
-0.00308909
0.000825559
-0.0039125
0.00108523
-0.00482593
0.0013881
-0.00583131
0.00173517
-0.00692732
0.00212643
-0.00811175
0.00256093
-0.00938112
0.00303662
-0.010728
0.00355077
-0.0121507
0.00409971
-0.0136294
0.00468026
-0.0151883
0.00528791
-0.0167435
0.00592207
-0.0184755
-0.0200061
0.00657085
1.04417e-05
-6.073e-05
4.25696e-05
-0.000346861
9.90827e-05
-0.000737108
0.000183026
-0.00123684
0.000297499
-0.00182365
0.000445666
-0.00250452
0.000630517
-0.00327394
0.000854733
-0.00413671
0.00112046
-0.00509166
0.0014291
-0.00613996
0.00178119
-0.00727941
0.00217621
-0.00850677
0.00261263
-0.00981753
0.00308788
-0.0112033
0.00359875
-0.0126615
0.00414139
-0.0141721
0.0047122
-0.0157591
0.00530753
-0.0173388
0.00592569
-0.0190936
-0.020638
0.00655763
1.111e-05
-7.184e-05
4.49098e-05
-0.000380661
0.000104022
-0.00079622
0.000191404
-0.00132422
0.000310094
-0.00194234
0.000463147
-0.00265757
0.000653399
-0.00346419
0.000883295
-0.00436661
0.00115466
-0.00536302
0.0014685
-0.0064538
0.00182485
-0.00763576
0.00222266
-0.00890458
0.00265984
-0.0102547
0.00313335
-0.0116768
0.00363953
-0.0131677
0.00417443
-0.014707
0.00473418
-0.0163188
0.00531605
-0.0179207
0.0059174
-0.019695
-0.0212525
0.00653187
1.17803e-05
-8.36202e-05
4.72531e-05
-0.000416134
0.000108956
-0.000857923
0.00019975
-0.00141502
0.000322596
-0.00206518
0.000480418
-0.00281539
0.000675875
-0.00365965
0.000911146
-0.00460188
0.00118771
-0.00563959
0.00150614
-0.00677223
0.00186595
-0.00799558
0.00226557
-0.0093042
0.00270236
-0.0106915
0.00317285
-0.0121473
0.00367301
-0.0136679
0.00419887
-0.0152328
0.00474638
-0.0168663
0.00531382
-0.0184881
0.00589772
-0.0202789
-0.0218491
0.00649432
1.24515e-05
-9.60717e-05
4.95953e-05
-0.000453278
0.000113877
-0.000922204
0.000208046
-0.00150919
0.000334974
-0.00219211
0.000497432
-0.00297785
0.000697875
-0.00386009
0.000938189
-0.00484219
0.00121948
-0.00592088
0.00154185
-0.0070946
0.00190432
-0.00835805
0.00230476
-0.00970464
0.00274003
-0.0111268
0.00320626
-0.0126135
0.00369914
-0.0141608
0.00421476
-0.0157484
0.00474902
-0.0174006
0.00530128
-0.0190404
0.00586723
-0.0208448
-0.0224276
0.00644578
1.31229e-05
-0.000109195
5.19325e-05
-0.000492087
0.000118774
-0.000989045
0.000216275
-0.00160669
0.000347198
-0.00232303
0.000514141
-0.0031448
0.00071933
-0.00406528
0.000964331
-0.0050872
0.00124985
-0.00620639
0.00157551
-0.00742026
0.0019398
-0.00872234
0.00234006
-0.0101049
0.0027727
-0.0115594
0.00323349
-0.0130743
0.00371793
-0.0146452
0.00422225
-0.0162528
0.0047424
-0.0179207
0.00527888
-0.0195768
0.00582653
-0.0213925
-0.0229883
0.00638718
1.37933e-05
-0.000122988
5.42607e-05
-0.000532555
0.000123637
-0.00105842
0.000224417
-0.00170747
0.000359236
-0.00245785
0.000530497
-0.00331606
0.000740172
-0.00427495
0.000989481
-0.00533651
0.0012787
-0.00649561
0.00160697
-0.00774853
0.00197224
-0.0090876
0.00237135
-0.010504
0.00280026
-0.0119883
0.0032545
-0.0135285
0.00372943
-0.0151201
0.00422151
-0.0167448
0.00472686
-0.0184261
0.00524715
-0.0200971
0.00577616
-0.0219215
-0.0235316
0.00631943
1.4462e-05
-0.00013745
5.65758e-05
-0.000574668
0.000128458
-0.0011303
0.000232455
-0.00181147
0.000371058
-0.00259646
0.000546454
-0.00349145
0.000760335
-0.00448883
0.00101355
-0.00558972
0.00130593
-0.00678799
0.0016361
-0.0080787
0.00200151
-0.00945301
0.0023985
-0.010901
0.00282265
-0.0124125
0.00326929
-0.0139752
0.00373375
-0.0155846
0.00421279
-0.0172239
0.00470278
-0.0189161
0.00520661
-0.020601
0.00571667
-0.0224315
-0.0240589
0.006244
1.51279e-05
-0.000152578
5.88739e-05
-0.000618414
0.000133226
-0.00120466
0.00024037
-0.00191861
0.000382634
-0.00273872
0.000561966
-0.00367079
0.000779754
-0.00470662
0.00103645
-0.00584642
0.00133143
-0.00708297
0.0016628
-0.00841008
0.0020275
-0.0098177
0.00242142
-0.0112949
0.00283982
-0.0128309
0.00327789
-0.0144132
0.00373103
-0.0160377
0.00419634
-0.0176892
0.00467057
-0.0193903
0.00515776
-0.0210882
0.00564871
-0.0229225
-0.024575
0.00616484
1.57933e-05
-0.000168371
6.11576e-05
-0.000663779
0.000137942
-0.00128144
0.000248156
-0.00202882
0.000393947
-0.00288451
0.000577002
-0.00385384
0.000798382
-0.004928
0.00105813
-0.00610616
0.00135512
-0.00737996
0.00168697
-0.00874193
0.00205011
-0.0101808
0.00244005
-0.0116849
0.00285176
-0.0132426
0.00328037
-0.0148418
0.00372142
-0.0164788
0.00417244
-0.0181402
0.00463062
-0.0198485
0.00510098
-0.0215585
0.00557423
-0.0233957
-0.0251033
0.0061025
1.64513e-05
-0.000184823
6.34103e-05
-0.000710738
0.000142578
-0.00136061
0.000255771
-0.00214202
0.00040494
-0.00303368
0.000591488
-0.00404039
0.000816127
-0.00515264
0.00107846
-0.0063685
0.00137688
-0.00767839
0.0017085
-0.00907355
0.00206927
-0.0105416
0.00245434
-0.0120699
0.00285849
-0.0136467
0.00327685
-0.0152602
0.00370518
-0.0169071
0.00414148
-0.0185765
0.00458345
-0.0202905
0.00503687
-0.0220119
0.00549272
-0.0238516
-0.0256087
0.00599813
1.71038e-05
-0.000201926
6.56341e-05
-0.000759268
0.000147132
-0.00144211
0.000263209
-0.00225809
0.000415598
-0.00318607
0.000605396
-0.00423019
0.000832944
-0.00538019
0.00109739
-0.00663295
0.00139665
-0.00797764
0.00172732
-0.00940421
0.00208492
-0.0108992
0.00246428
-0.0124493
0.00286005
-0.0140425
0.00326745
-0.0156676
0.00368253
-0.0173222
0.00410376
-0.0189977
0.00452947
-0.0207162
0.00496588
-0.0224483
0.00540522
-0.0242909
-0.0260912
0.00588767
1.77498e-05
-0.000219676
6.7825e-05
-0.000809343
0.000151596
-0.00152588
0.000270453
-0.00237695
0.00042589
-0.00334151
0.000618683
-0.00442298
0.000848778
-0.00561028
0.00111486
-0.00689903
0.00141435
-0.00827713
0.00174336
-0.00973322
0.00209701
-0.0112529
0.00246986
-0.0128222
0.00285651
-0.0144292
0.00325233
-0.0160634
0.00365373
-0.0177236
0.00405966
-0.0194037
0.0044691
-0.0211256
0.0048886
-0.0228678
0.00531199
-0.0247143
-0.0265522
0.00577303
1.83885e-05
-0.000238065
6.9979e-05
-0.000860934
0.000155959
-0.00161186
0.000277483
-0.00249847
0.000435789
-0.00349981
0.000631306
-0.0046185
0.000863575
-0.00584255
0.00113081
-0.00716626
0.00142992
-0.00857624
0.00175657
-0.0100599
0.00210551
-0.0116018
0.00247112
-0.0131878
0.00284798
-0.014806
0.00323168
-0.0164471
0.00361904
-0.018111
0.00400954
-0.0197942
0.0044028
-0.0215189
0.00480554
-0.0232706
0.00521335
-0.0251221
-0.0269933
0.00565447
1.90189e-05
-0.000257084
7.20919e-05
-0.000914007
0.000160213
-0.00169998
0.000284283
-0.00262254
0.000445267
-0.0036608
0.000643228
-0.00481646
0.000877282
-0.00607661
0.00114516
-0.00743414
0.00144329
-0.00887438
0.0017669
-0.0103835
0.00211042
-0.0119453
0.00246809
-0.0135454
0.00283455
-0.0151725
0.00320568
-0.0168183
0.00357876
-0.018484
0.00395376
-0.0201692
0.00433098
-0.0218961
0.00471722
-0.0236568
0.00510973
-0.0255146
-0.0274157
0.00553215
1.96399e-05
-0.000276724
7.41598e-05
-0.000968526
0.000164347
-0.00179017
0.000290835
-0.00274903
0.000454295
-0.00382426
0.000654407
-0.00501657
0.000889852
-0.00631205
0.00115787
-0.00770216
0.00145442
-0.00917093
0.00177432
-0.0107034
0.00211174
-0.0122827
0.00246083
-0.0138945
0.00281637
-0.015528
0.00317457
-0.0171765
0.00353318
-0.0188427
0.0038927
-0.0205287
0.00425406
-0.0222575
0.00462408
-0.0240269
0.00500154
-0.0258921
-0.0278204
0.00540624
2.02506e-05
-0.000296974
7.61786e-05
-0.00102445
0.000168353
-0.00188234
0.000297122
-0.0028778
0.000462847
-0.00398998
0.000664809
-0.00521853
0.000901239
-0.00654848
0.00116889
-0.00796982
0.00146328
-0.00946531
0.00177883
-0.0110189
0.0021095
-0.0126134
0.00244943
-0.0142345
0.00279359
-0.0158722
0.00313856
-0.0175214
0.0034826
-0.0191867
0.00382672
-0.0208728
0.00417243
-0.0226032
0.00452655
-0.024381
0.00488917
-0.0262547
-0.0282082
0.00527692
2.085e-05
-0.000317824
7.81439e-05
-0.00108175
0.00017222
-0.00197642
0.000303126
-0.00300871
0.000470896
-0.00415775
0.000674397
-0.00542203
0.000911402
-0.00678549
0.00117819
-0.0082366
0.00146982
-0.00975694
0.0017804
-0.0113295
0.00210373
-0.0129367
0.00243398
-0.0145647
0.00276636
-0.0162046
0.00309789
-0.017853
0.00342733
-0.0195161
0.00375616
-0.0212016
0.00408648
-0.0229335
0.004425
-0.0247195
0.00477297
-0.0266027
-0.0285796
0.00514441
2.1437e-05
-0.000339261
8.00517e-05
-0.00114036
0.000175939
-0.0020723
0.000308831
-0.0031416
0.000478418
-0.00432734
0.000683138
-0.00562675
0.000920303
-0.00702265
0.00118571
-0.00850201
0.00147402
-0.0100452
0.00177905
-0.0116345
0.00209448
-0.0132522
0.00241458
-0.0148848
0.00273487
-0.0165249
0.0030528
-0.0181709
0.00336765
-0.019831
0.00368138
-0.0215154
0.00399655
-0.0232487
0.0043198
-0.0250428
0.00465329
-0.0269362
-0.0289352
0.00500891
2.20105e-05
-0.000361272
8.18978e-05
-0.00120025
0.0001795
-0.00216991
0.000314219
-0.00327632
0.000485387
-0.00449851
0.000691
-0.00583237
0.000927906
-0.00725956
0.00119144
-0.00876555
0.00147588
-0.0103297
0.00177479
-0.0119334
0.00208181
-0.0135592
0.00239136
-0.0151943
0.0026993
-0.0168328
0.00300353
-0.0184751
0.00330388
-0.0201313
0.00360269
-0.0218142
0.00390298
-0.0235489
0.00421127
-0.025351
0.00453043
-0.0272553
-0.0292754
0.00487059
2.25694e-05
-0.000383841
8.36778e-05
-0.00126136
0.000182894
-0.00226912
0.000319276
-0.0034127
0.00049178
-0.00467101
0.000697954
-0.00603854
0.000934181
-0.00749578
0.00119535
-0.00902673
0.00147539
-0.0106097
0.00176766
-0.0122257
0.0020658
-0.0138573
0.00236445
-0.015493
0.00265983
-0.0171282
0.00295034
-0.0187656
0.0032363
-0.0204173
0.00352042
-0.0220983
0.0038061
-0.0238346
0.0040997
-0.0256446
0.00440467
-0.0275603
-0.0296004
0.00472967
2.31126e-05
-0.000406954
8.53876e-05
-0.00132363
0.000186112
-0.00236985
0.000323985
-0.00355057
0.000497574
-0.0048446
0.000703973
-0.00624494
0.000939102
-0.00773091
0.00119743
-0.00928505
0.00147255
-0.0108848
0.00175769
-0.0125109
0.00204654
-0.0141462
0.00233398
-0.0157804
0.00261667
-0.0174109
0.00289347
-0.0190424
0.00316517
-0.020689
0.00343485
-0.022368
0.00370619
-0.024106
0.00398538
-0.0259238
0.00427626
-0.0278512
-0.0299104
0.0045863
2.3639e-05
-0.000430593
8.70228e-05
-0.00138702
0.000189145
-0.00247197
0.00032833
-0.00368976
0.000502748
-0.00501902
0.000709032
-0.00645122
0.000942646
-0.00796453
0.00119765
-0.00954005
0.00146737
-0.0111546
0.00174492
-0.0127884
0.00202411
-0.0144254
0.00230011
-0.0160564
0.00257001
-0.0176808
0.00283315
-0.0193055
0.00309078
-0.0209466
0.00334626
-0.0226234
0.00360352
-0.0243632
0.00386854
-0.0261889
0.00414542
-0.0281281
-0.0302057
0.00444066
2.41473e-05
-0.00045474
8.85791e-05
-0.00145145
0.000191983
-0.00257537
0.000332297
-0.00383007
0.000507283
-0.005194
0.000713108
-0.00665705
0.000944793
-0.00819621
0.00119602
-0.00979128
0.00145987
-0.0114184
0.00172941
-0.013058
0.00199861
-0.0146946
0.00226298
-0.0163208
0.00252005
-0.0179379
0.00276963
-0.0195551
0.00301339
-0.0211904
0.00325492
-0.022865
0.00349835
-0.0246067
0.00374942
-0.0264399
0.00401239
-0.028391
-0.0304862
0.00429291
2.46364e-05
-0.000479376
9.00523e-05
-0.00151687
0.000194617
-0.00267994
0.000335871
-0.00397133
0.000511158
-0.00536929
0.000716181
-0.00686207
0.00094553
-0.00842556
0.00119253
-0.0100383
0.00145008
-0.011676
0.00171124
-0.0133191
0.00197017
-0.0149535
0.00222275
-0.0165734
0.00246699
-0.0181821
0.00270312
-0.0197913
0.00293323
-0.0214205
0.00316108
-0.0230928
0.00339091
-0.0248365
0.00362823
-0.0266773
0.00387733
-0.0286401
-0.0307521
0.00414319
2.5105e-05
-0.000504481
9.14381e-05
-0.0015832
0.000197039
-0.00278554
0.000339039
-0.00411333
0.000514357
-0.00554461
0.000718234
-0.00706595
0.000944846
-0.00865217
0.0011872
-0.0102806
0.00143803
-0.0119268
0.00169046
-0.0135715
0.00193888
-0.0152019
0.00217958
-0.0168141
0.00241102
-0.0184135
0.00263387
-0.0200141
0.00285054
-0.0216372
0.00306496
-0.0233073
0.00328142
-0.0250529
0.00350516
-0.026901
0.00374044
-0.0288754
-0.0310033
0.00399165
2.5552e-05
-0.000530033
9.27322e-05
-0.00165038
0.000199239
-0.00289204
0.000341787
-0.00425588
0.000516863
-0.00571968
0.000719254
-0.00726834
0.000942736
-0.00887566
0.00118003
-0.0105179
0.00142377
-0.0121705
0.00166715
-0.0138149
0.00190488
-0.0154396
0.00213363
-0.0170428
0.00235233
-0.0186322
0.00256207
-0.0202239
0.00276555
-0.0218406
0.00296679
-0.0235085
0.00317008
-0.0252562
0.0033804
-0.0271113
0.00360188
-0.0290969
-0.0312398
0.00383842
2.59761e-05
-0.000556009
9.39304e-05
-0.00171833
0.000201211
-0.00299932
0.000344104
-0.00439877
0.000518663
-0.00589424
0.000719226
-0.0074689
0.000939196
-0.00909563
0.00117104
-0.0107498
0.00140733
-0.0124068
0.00164141
-0.014049
0.00186828
-0.0156665
0.00208506
-0.0172596
0.00229113
-0.0188383
0.00248794
-0.0204207
0.00267845
-0.0220312
0.00286675
-0.0236968
0.00305707
-0.0254465
0.00325409
-0.0273083
0.00346179
-0.0293046
-0.0314616
0.00368363
2.63759e-05
-0.000582385
9.50285e-05
-0.00178699
0.000202944
-0.00310724
0.000345977
-0.0045418
0.000519743
-0.00606801
0.000718144
-0.0076673
0.000934231
-0.00931171
0.00116026
-0.0109758
0.00138877
-0.0126353
0.00161331
-0.0142735
0.00182921
-0.0158824
0.00203402
-0.0174644
0.00222758
-0.0190319
0.00241167
-0.0206048
0.00258946
-0.0222089
0.00276504
-0.0238724
0.00294257
-0.0256241
0.00312642
-0.0274922
0.00332034
-0.0294985
-0.0316687
0.00352742
2.67504e-05
-0.000609136
9.60226e-05
-0.00185626
0.000204433
-0.00321565
0.000347395
-0.00468476
0.000520092
-0.00624071
0.000716
-0.00786321
0.000927845
-0.00952356
0.00114771
-0.0111957
0.00136816
-0.0128558
0.00158294
-0.0144883
0.00178779
-0.0160873
0.00198069
-0.0176573
0.00216187
-0.019213
0.00233345
-0.0207763
0.00249874
-0.0223742
0.00266184
-0.0240355
0.00282673
-0.025789
0.0029975
-0.027663
0.00317764
-0.0296786
-0.031861
0.00336992
2.70981e-05
-0.000636234
9.69085e-05
-0.00192607
0.000205669
-0.00332441
0.00034835
-0.00482744
0.000519701
-0.00641206
0.000712791
-0.0080563
0.000920048
-0.00973082
0.00113342
-0.011409
0.00134554
-0.0130679
0.00155041
-0.0146932
0.00174416
-0.016281
0.0019252
-0.0178384
0.00209416
-0.019382
0.00225345
-0.0209356
0.00240649
-0.0225273
0.00255729
-0.0241863
0.00270971
-0.0259414
0.00286749
-0.0278207
0.00303384
-0.029845
-0.0320384
0.00321123
2.7418e-05
-0.000663652
9.76823e-05
-0.00199633
0.000206646
-0.00343338
0.000348831
-0.00496963
0.000518562
-0.00658179
0.000708516
-0.00824625
0.000910856
-0.00993316
0.00111743
-0.0116156
0.00132099
-0.0132714
0.00151581
-0.014888
0.00169843
-0.0164636
0.00186771
-0.0180076
0.00202463
-0.0195389
0.00217184
-0.0210828