/*--------------------------------*- C++ -*----------------------------------*\
  =========                 |
  \\      /  F ield         | OpenFOAM: The Open Source CFD Toolbox
   \\    /   O peration     | Website:  https://openfoam.org
    \\  /    A nd           | Version:  7
     \\/     M anipulation  |
\*---------------------------------------------------------------------------*/
FoamFile
{
    version     2.0;
    format      ascii;
    class       volVectorField;
    location    "15";
    object      U;
}
// * * * * * * * * * * * * * * * * * * * * * * * * * * * * * * * * * * * * * //

dimensions      [0 1 -1 0 0 0 0];

internalField   nonuniform List<vector> 
42000
(
(-0.0017733 0.000225404 -6.35397e-21)
(-0.00438166 0.000123442 2.1074e-21)
(-0.00475937 -0.000152705 -8.21621e-22)
(-0.000717693 -0.000536252 -4.23551e-21)
(0.00753547 -0.000924625 -9.94312e-22)
(0.0197353 -0.00131051 4.42e-21)
(0.0355049 -0.00166464 5.54982e-21)
(0.0542576 -0.00199067 -4.66537e-21)
(0.0756379 -0.0022819 6.45427e-21)
(0.0991795 -0.00254255 -1.81545e-21)
(0.124555 -0.00277257 -1.0868e-21)
(0.151489 -0.00297493 -2.0691e-22)
(0.179601 -0.00315117 -4.12362e-21)
(0.20892 -0.00330395 -3.68057e-21)
(0.238705 -0.00343255 9.98084e-22)
(0.269836 -0.00354945 3.08283e-21)
(0.30018 -0.00362519 -1.70066e-21)
(0.33318 -0.00376219 -3.82711e-21)
(0.362926 -0.0036949 -3.86696e-22)
(0.397704 -0.00420285 -1.72533e-21)
(-0.00178313 0.000673702 6.54261e-21)
(-0.00433845 0.000366013 -1.20022e-20)
(-0.00461649 -0.000462594 -4.16239e-21)
(-0.000453842 -0.00161261 3.01161e-21)
(0.00793782 -0.00277658 -8.01149e-21)
(0.0202862 -0.00393285 -1.5874e-21)
(0.0362146 -0.00499363 2.13093e-21)
(0.0551344 -0.00596997 -8.98266e-21)
(0.0766909 -0.00684179 -3.89521e-21)
(0.100418 -0.00762174 3.81113e-21)
(0.125988 -0.00830968 -8.12158e-21)
(0.153126 -0.00891443 -3.99079e-21)
(0.181452 -0.00944067 3.56243e-21)
(0.210997 -0.00989623 1.12954e-20)
(0.241015 -0.0102792 5.28948e-21)
(0.272396 -0.0106262 -7.04604e-21)
(0.302979 -0.0108508 3.40921e-21)
(0.33628 -0.0112551 1.09003e-20)
(0.366199 -0.0110542 -2.58359e-22)
(0.401477 -0.0125555 -8.27773e-22)
(-0.00180245 0.0011147 2.32852e-21)
(-0.00425144 0.000596164 6.6531e-21)
(-0.00433012 -0.00078518 -7.69313e-21)
(7.43458e-05 -0.00269961 1.1032e-20)
(0.00874277 -0.00463559 2.09434e-20)
(0.021388 -0.00655788 -1.66397e-20)
(0.0376336 -0.00832033 -2.18304e-21)
(0.0568871 -0.00994162 2.09915e-21)
(0.0787953 -0.0113883 -6.18841e-21)
(0.102891 -0.0126814 -1.91362e-20)
(0.12885 -0.0138207 -1.08324e-20)
(0.156396 -0.0148208 -4.02176e-21)
(0.185148 -0.0156896 1.02066e-20)
(0.215142 -0.0164397 -1.40541e-21)
(0.245622 -0.0170688 5.99136e-21)
(0.277501 -0.0176353 6.36483e-21)
(0.308558 -0.0180012 -7.29816e-21)
(0.342453 -0.018654 -8.85507e-21)
(0.372716 -0.0183233 2.941e-21)
(0.40898 -0.0207525 1.16887e-20)
(-0.00183059 0.00154359 -2.56552e-20)
(-0.00411944 0.000805706 -8.06258e-21)
(-0.00389908 -0.00112882 4.04109e-20)
(0.000867844 -0.00380424 -1.34923e-20)
(0.00995085 -0.00650624 -3.44618e-20)
(0.0230405 -0.00918728 3.76334e-20)
(0.0397608 -0.0116431 -2.57446e-20)
(0.0595135 -0.0139004 -9.75985e-21)
(0.0819475 -0.0159123 6.09329e-21)
(0.106595 -0.0177084 1.5397e-20)
(0.133133 -0.0192882 1.65327e-20)
(0.161287 -0.020672 -1.06792e-20)
(0.190674 -0.021871 1.04532e-20)
(0.221336 -0.0229019 -2.3858e-20)
(0.252502 -0.0237635 -7.39875e-21)
(0.285119 -0.0245319 -5.70718e-21)
(0.316876 -0.0250268 1.20775e-20)
(0.35165 -0.0258973 2.11964e-21)
(0.382417 -0.0254434 -7.43588e-21)
(0.42013 -0.0286936 -9.78846e-21)
(-0.00186651 0.00195564 3.55662e-20)
(-0.00394068 0.000986588 -2.15797e-20)
(-0.00332154 -0.00150171 -5.30987e-20)
(0.00192811 -0.0049333 4.1298e-20)
(0.0115628 -0.00839294 2.58236e-20)
(0.0252437 -0.0118226 -2.97039e-20)
(0.0425948 -0.0149602 2.88595e-20)
(0.0630107 -0.0178411 -1.61927e-20)
(0.0861425 -0.0204048 1.7692e-20)
(0.111522 -0.0226896 5.67519e-21)
(0.138827 -0.0246947 -9.25811e-22)
(0.167784 -0.026446 1.4005e-20)
(0.19801 -0.0279581 -1.81695e-20)
(0.229551 -0.0292509 1.25818e-20)
(0.261619 -0.030326 1.95991e-21)
(0.295202 -0.0312723 -6.07574e-21)
(0.327877 -0.0318792 5.56766e-21)
(0.363792 -0.0329249 -1.49555e-20)
(0.395211 -0.0323576 -5.60829e-21)
(0.434804 -0.0362832 5.01709e-21)
(-0.00190887 0.0023462 2.03576e-20)
(-0.00371282 0.00113095 2.76381e-20)
(-0.00259514 -0.00191186 6.05093e-20)
(0.00325706 -0.00609337 -7.65912e-20)
(0.0135798 -0.0102999 -7.3362e-20)
(0.0279973 -0.0144651 6.70723e-20)
(0.0461339 -0.0182698 -4.64348e-21)
(0.0673746 -0.0217581 5.24479e-20)
(0.0913734 -0.0248565 -3.18943e-20)
(0.117661 -0.0276118 4.65483e-20)
(0.145916 -0.030023 1.64758e-20)
(0.175867 -0.0321211 -1.02297e-20)
(0.207127 -0.0339244 -2.33633e-20)
(0.23975 -0.0354551 -1.39307e-21)
(0.272926 -0.0367198 -3.61393e-20)
(0.30769 -0.0378135 -5.38451e-21)
(0.341481 -0.0385112 8.14199e-21)
(0.378779 -0.0396791 9.81446e-21)
(0.410984 -0.0390118 1.83782e-20)
(0.452838 -0.0434322 -4.39789e-21)
(-0.001956 0.00271077 -5.94692e-20)
(-0.00343295 0.00123116 -1.55688e-20)
(-0.00171692 -0.00236693 -4.51833e-21)
(0.00485711 -0.00729076 4.62512e-20)
(0.016003 -0.0122311 9.04097e-20)
(0.0313009 -0.017116 -4.69374e-20)
(0.0503757 -0.0215695 -3.32007e-20)
(0.0726002 -0.0256459 1.30748e-20)
(0.0976319 -0.0292582 5.92635e-20)
(0.124999 -0.0324618 -5.05784e-20)
(0.154382 -0.0352556 -3.8319e-20)
(0.185509 -0.0376754 -2.60308e-20)
(0.217992 -0.0397438 3.59511e-20)
(0.251887 -0.0414835 3.13141e-20)
(0.286362 -0.042909 4.66845e-20)
(0.322505 -0.0441141 4.04716e-20)
(0.357594 -0.0448774 -3.14972e-20)
(0.396487 -0.0461048 1.70508e-20)
(0.429591 -0.0453546 -1.13519e-20)
(0.474034 -0.0500601 -2.38425e-21)
(-0.00200591 0.00304503 1.08665e-20)
(-0.0030976 0.00127991 3.19096e-20)
(-0.000683371 -0.00287425 -6.83558e-20)
(0.00673107 -0.00853142 -3.11576e-21)
(0.0188339 -0.01419 -2.33687e-20)
(0.0351544 -0.0197758 -7.54862e-20)
(0.0553172 -0.0248569 5.3491e-20)
(0.0786814 -0.0294985 3.10687e-21)
(0.104908 -0.0336001 -7.34582e-20)
(0.133521 -0.0372262 -6.29052e-21)
(0.164203 -0.0403751 1.62455e-20)
(0.196681 -0.0430876 5.26263e-20)
(0.230562 -0.0453904 -2.54682e-20)
(0.265909 -0.0473058 -2.36255e-20)
(0.301859 -0.0488591 -2.10438e-20)
(0.339556 -0.0501343 -1.62954e-20)
(0.376102 -0.0509345 3.24136e-20)
(0.416771 -0.0521507 -7.00623e-21)
(0.450865 -0.0513387 -2.70467e-20)
(0.498157 -0.056096 2.20377e-20)
(-0.00205632 0.00334481 3.47369e-20)
(-0.00270279 0.00127021 -2.94209e-20)
(0.00050956 -0.00344078 -3.44481e-20)
(0.00888222 -0.00982086 -2.56067e-20)
(0.0220743 -0.0161798 -1.57336e-21)
(0.0395573 -0.022445 3.2146e-20)
(0.0609554 -0.0281292 -1.53054e-20)
(0.0856113 -0.0333097 -9.79797e-20)
(0.113189 -0.0378726 7.19047e-20)
(0.143208 -0.0418915 7.23783e-20)
(0.175353 -0.0453643 1.21683e-20)
(0.209347 -0.0483362 -3.20492e-20)
(0.244791 -0.0508389 -1.14822e-20)
(0.281753 -0.0528925 -6.96134e-21)
(0.319334 -0.0545367 -2.4889e-20)
(0.358741 -0.055836 -3.32491e-20)
(0.396878 -0.0566416 -3.75476e-20)
(0.439464 -0.0577692 4.304e-21)
(0.474617 -0.0569204 1.28604e-20)
(0.524942 -0.0614803 -3.18587e-20)
(-0.00210464 0.00360617 2.09675e-20)
(-0.00224402 0.00119546 8.51226e-20)
(0.00186644 -0.00407301 1.27041e-19)
(0.0113142 -0.0111641 8.21525e-20)
(0.0257261 -0.0182031 3.35093e-21)
(0.0445091 -0.0251235 2.44135e-20)
(0.0672862 -0.0313832 3.38844e-20)
(0.0933819 -0.037073 -1.9701e-20)
(0.122462 -0.0420655 -9.21567e-20)
(0.154042 -0.0464441 -9.19827e-20)
(0.187802 -0.0502059 -2.49493e-21)
(0.223467 -0.0534004 7.6345e-20)
(0.260625 -0.0560646 -1.64679e-20)
(0.299347 -0.0582151 8.6986e-21)
(0.338698 -0.0599097 -2.25071e-20)
(0.379941 -0.0611837 5.07515e-20)
(0.419779 -0.0619607 1.48085e-20)
(0.464383 -0.0629175 -3.2586e-21)
(0.500637 -0.0620602 4.29433e-20)
(0.5541 -0.0661653 8.56323e-21)
(-0.00214805 0.00382543 -3.68789e-20)
(-0.00171632 0.00104951 -9.53558e-20)
(0.00339232 -0.00477692 -2.5483e-20)
(0.0140312 -0.0125657 -1.10849e-19)
(0.0297914 -0.0202623 2.76576e-20)
(0.0500091 -0.0278106 -6.21123e-20)
(0.0743056 -0.0346152 -6.73933e-20)
(0.101984 -0.0407813 2.711e-20)
(0.132712 -0.0461687 3.43516e-20)
(0.165998 -0.0508702 -1.78711e-20)
(0.20152 -0.0548826 -8.81694e-20)
(0.238995 -0.0582594 -9.90686e-20)
(0.278003 -0.0610435 4.75907e-20)
(0.318614 -0.0632464 -1.21397e-20)
(0.35985 -0.0649478 -7.92676e-21)
(0.40303 -0.0661441 -7.94385e-20)
(0.444645 -0.066857 -8.1774e-22)
(0.491326 -0.0675578 -1.73508e-20)
(0.528698 -0.066723 4.15187e-21)
(0.585316 -0.0701163 -4.85065e-21)
(-0.00218342 0.00399914 -9.27141e-20)
(-0.00111423 0.000826669 -3.53599e-20)
(0.00509274 -0.00555793 3.84614e-20)
(0.0170375 -0.0140294 8.07253e-20)
(0.0342726 -0.0223588 -7.27894e-20)
(0.0560567 -0.0305052 9.7517e-20)
(0.0820086 -0.0378209 1.25731e-19)
(0.111408 -0.0444275 3.17585e-20)
(0.143923 -0.0501716 -1.70735e-20)
(0.179051 -0.055156 1.27579e-19)
(0.216469 -0.0593772 1.64974e-19)
(0.255884 -0.0628929 1.22278e-19)
(0.296862 -0.0657521 -4.92837e-20)
(0.339468 -0.0679601 -8.6761e-22)
(0.38268 -0.0696227 1.1522e-20)
(0.427868 -0.070687 7.16225e-20)
(0.471309 -0.0712988 1.20394e-20)
(0.520079 -0.071658 1.99892e-20)
(0.558561 -0.0708781 -4.07675e-20)
(0.618259 -0.0733114 2.38237e-20)
(-0.00220742 0.00412417 8.53705e-20)
(-0.00043189 0.000521755 5.71219e-20)
(0.00697366 -0.00642082 -9.32553e-20)
(0.020338 -0.0155587 -4.52541e-20)
(0.039172 -0.0244935 5.58336e-20)
(0.0626509 -0.0332056 -5.7804e-20)
(0.0903901 -0.0409958 -2.49803e-20)
(0.121642 -0.0480038 2.41427e-20)
(0.156075 -0.0540632 3.11799e-20)
(0.193175 -0.0592875 -3.5531e-20)
(0.232611 -0.0636729 -5.36212e-20)
(0.274079 -0.067281 -6.45344e-20)
(0.317129 -0.070168 2.70098e-20)
(0.361817 -0.0723317 -1.51031e-20)
(0.407072 -0.0739079 3.56994e-20)
(0.454307 -0.074785 -9.13801e-21)
(0.49959 -0.0752585 -9.22298e-21)
(0.550415 -0.0751919 -1.96507e-20)
(0.589972 -0.0744993 3.19925e-20)
(0.652587 -0.0757422 -3.81833e-20)
(-0.00221644 0.00419746 -7.82637e-20)
(0.000336919 0.00013034 9.76941e-20)
(0.00904144 -0.00736973 2.77276e-20)
(0.0239377 -0.0171559 3.62189e-20)
(0.0444922 -0.0266668 1.28002e-19)
(0.0697908 -0.0359094 -6.10808e-20)
(0.0994441 -0.0441346 -1.55673e-19)
(0.132675 -0.0515019 2.97809e-21)
(0.16915 -0.0578323 -5.60164e-21)
(0.208339 -0.0632506 -1.18313e-19)
(0.249903 -0.0677526 -6.28035e-20)
(0.293523 -0.0714043 -4.25597e-20)
(0.338728 -0.0742698 -1.75799e-20)
(0.385561 -0.076338 2.73273e-21)
(0.432901 -0.0777792 -6.95308e-20)
(0.48219 -0.0784141 5.41555e-22)
(0.529299 -0.0787123 -4.56716e-21)
(0.582098 -0.0781398 4.69027e-20)
(0.62267 -0.0775652 -8.7731e-21)
(0.68795 -0.0774129 3.90728e-20)
(-0.00220649 0.00421593 4.67234e-20)
(0.00119872 -0.00035107 -7.22103e-20)
(0.0113028 -0.00840808 9.64917e-21)
(0.0278419 -0.018823 -1.59366e-19)
(0.0502358 -0.0288782 -1.19565e-19)
(0.077475 -0.0386136 1.35287e-19)
(0.109164 -0.0472314 -2.22755e-20)
(0.144494 -0.0549131 8.76746e-20)
(0.183125 -0.0614674 1.43054e-20)
(0.224511 -0.0670309 1.06027e-19)
(0.2683 -0.0715997 7.79313e-20)
(0.314155 -0.0752439 -1.82292e-20)
(0.36158 -0.0780367 3.23589e-20)
(0.410597 -0.0799575 1.00706e-19)
(0.460035 -0.0812149 2.12485e-20)
(0.511353 -0.0815538 2.58316e-22)
(0.560239 -0.0816406 3.00267e-20)
(0.614887 -0.0804888 -6.36171e-20)
(0.656388 -0.0800595 4.62016e-20)
(0.723999 -0.0783398 -3.25014e-20)
(-0.00217367 0.00417801 5.5698e-20)
(0.00216074 -0.000926393 2.86367e-20)
(0.0137646 -0.00953858 -2.7441e-20)
(0.0320563 -0.020561 1.91864e-19)
(0.0564055 -0.0311265 -1.05704e-19)
(0.0857023 -0.0413142 -1.02092e-19)
(0.119544 -0.0502797 7.07184e-20)
(0.157084 -0.0582282 -1.03817e-20)
(0.197978 -0.0649567 6.47824e-20)
(0.241658 -0.0706142 -7.01058e-20)
(0.287755 -0.0751976 2.72852e-20)
(0.335909 -0.0787818 3.64336e-20)
(0.385597 -0.0814497 1.24054e-19)
(0.436814 -0.0831709 -8.81195e-20)
(0.488337 -0.0841959 -5.60984e-20)
(0.541627 -0.0841874 -5.0065e-20)
(0.592207 -0.0840284 -2.63577e-20)
(0.648534 -0.0822325 8.34406e-20)
(0.690859 -0.0819709 -6.39909e-20)
(0.76039 -0.0785503 -3.48392e-21)
(-0.00211417 0.00408247 -9.7021e-20)
(0.00323032 -0.00159901 -4.65507e-20)
(0.0164345 -0.0107631 1.02656e-19)
(0.0365866 -0.0223701 -2.54181e-20)
(0.0630038 -0.0334095 1.02993e-19)
(0.0944708 -0.0440069 1.45583e-19)
(0.130575 -0.0532724 -6.18232e-20)
(0.170431 -0.0614375 -6.97032e-20)
(0.213685 -0.0682878 -2.02329e-19)
(0.259741 -0.0739862 1.47277e-19)
(0.308215 -0.0785302 -1.85941e-20)
(0.358717 -0.0820005 -1.0527e-20)
(0.410691 -0.0844906 -7.58394e-20)
(0.464099 -0.0859604 4.52153e-20)
(0.517664 -0.0867057 4.22157e-20)
(0.572837 -0.0863021 2.79092e-20)
(0.624998 -0.0858653 1.0288e-20)
(0.682794 -0.0833719 -5.50755e-20)
(0.725812 -0.0832936 -4.43205e-21)
(0.796791 -0.0780818 3.7825e-20)
(-0.00202365 0.00392732 -4.42208e-20)
(0.00441482 -0.00237054 -3.41121e-20)
(0.0193198 -0.0120828 -1.28727e-19)
(0.0414386 -0.0242497 -1.78237e-20)
(0.0700335 -0.0357245 7.84411e-20)
(0.103779 -0.0466863 -1.19585e-19)
(0.14225 -0.0562015 1.91089e-20)
(0.184518 -0.0645306 7.67336e-20)
(0.230218 -0.0714484 1.51168e-19)
(0.278724 -0.0771322 -1.50185e-19)
(0.329628 -0.0815816 -5.19277e-20)
(0.382506 -0.0848833 7.43588e-20)
(0.436767 -0.0871428 1.69326e-20)
(0.492332 -0.0883108 2.10477e-20)
(0.547871 -0.0887312 3.55505e-20)
(0.604805 -0.0878892 -2.85203e-21)
(0.658405 -0.0871455 -3.94961e-20)
(0.717422 -0.0839143 -1.60723e-20)
(0.760985 -0.0840274 -1.56532e-20)
(0.832885 -0.0769803 -5.83326e-21)
(-0.00189768 0.0037112 2.17387e-19)
(0.0057219 -0.00324218 -6.97956e-20)
(0.0224285 -0.0134977 1.68563e-19)
(0.0466185 -0.0261981 -8.2072e-21)
(0.0774971 -0.0380676 -9.00068e-20)
(0.113623 -0.0493462 2.11209e-21)
(0.154559 -0.0590587 6.28746e-20)
(0.199329 -0.0674968 -1.1038e-20)
(0.24755 -0.0744255 -1.07682e-19)
(0.298565 -0.0800381 1.09462e-20)
(0.351936 -0.0843364 -2.02227e-21)
(0.407201 -0.0874146 -6.97479e-21)
(0.463729 -0.0893914 -1.90331e-19)
(0.521392 -0.090209 -4.48746e-20)
(0.578808 -0.090262 -4.44147e-20)
(0.637352 -0.0889441 2.9332e-20)
(0.692218 -0.0878684 -1.39491e-20)
(0.752176 -0.083874 6.21413e-20)
(0.796118 -0.0841783 3.27005e-20)
(0.868377 -0.0752986 -2.90962e-20)
(-0.00173178 0.00343334 -1.36176e-19)
(0.00715946 -0.00421457 2.11821e-19)
(0.0257684 -0.0150075 -2.04851e-19)
(0.0521321 -0.0282129 1.36698e-22)
(0.0853969 -0.0404343 -2.013e-20)
(0.124002 -0.0519797 -8.46505e-20)
(0.167493 -0.0618345 1.29431e-21)
(0.214844 -0.0703247 9.49956e-20)
(0.265652 -0.0772061 1.94663e-19)
(0.319221 -0.0826893 -1.01662e-19)
(0.375081 -0.0867796 6.52966e-20)
(0.432725 -0.0895797 -2.91014e-20)
(0.491477 -0.091223 1.3102e-19)
(0.551154 -0.0916444 -1.69437e-20)
(0.610324 -0.0912912 -2.14025e-20)
(0.670299 -0.0894665 -6.15407e-20)
(0.726234 -0.0880381 3.73937e-20)
(0.786826 -0.0832711 -2.8927e-20)
(0.830963 -0.0837587 -6.66104e-20)
(0.902999 -0.0730949 4.71708e-20)
(-0.00152141 0.00309332 -5.64943e-20)
(0.00873551 -0.00528762 -2.52077e-19)
(0.0293476 -0.0166104 1.8699e-19)
(0.0579856 -0.0302907 1.46741e-19)
(0.0937351 -0.0428188 1.2122e-19)
(0.134912 -0.0545789 1.15626e-19)
(0.181042 -0.0645192 2.05741e-19)
(0.231045 -0.0730025 -2.74448e-19)
(0.284493 -0.0797769 -1.5733e-19)
(0.340648 -0.0850717 4.28685e-20)
(0.399001 -0.0888968 -2.70062e-20)
(0.458996 -0.0913651 -9.28694e-20)
(0.519907 -0.0926259 -6.88482e-20)
(0.58149 -0.0926091 3.17881e-21)
(0.642267 -0.0918153 5.74327e-20)
(0.703468 -0.0894604 3.85663e-20)
(0.76025 -0.0876636 2.33823e-20)
(0.821149 -0.0821316 -3.27055e-20)
(0.865285 -0.082787 7.2931e-20)
(0.936509 -0.0704315 -4.3616e-20)
(-0.00126199 0.0026911 1.45997e-19)
(0.0104582 -0.00646049 1.88928e-19)
(0.033174 -0.018304 -7.61745e-20)
(0.0641849 -0.0324271 -1.75148e-19)
(0.102514 -0.0452147 -1.27912e-19)
(0.146349 -0.0571353 -7.33859e-20)
(0.195195 -0.067102 -1.72147e-19)
(0.24791 -0.0755179 5.08297e-20)
(0.304041 -0.0821243 6.13153e-20)
(0.362799 -0.0871712 -3.04606e-20)
(0.423633 -0.0906745 2.79841e-20)
(0.485932 -0.0927587 1.505e-21)
(0.548915 -0.0935908 1.46511e-19)
(0.612273 -0.0930977 -6.38177e-20)
(0.674484 -0.0918341 -2.84082e-20)
(0.736685 -0.0889341 2.77051e-21)
(0.794072 -0.086759 -2.73643e-20)
(0.854935 -0.0804866 8.51031e-21)
(0.898863 -0.0812879 2.96895e-20)
(0.968698 -0.0673724 -6.85863e-22)
(-0.000948892 0.00222703 -1.70279e-19)
(0.0123356 -0.0077316 -1.50843e-19)
(0.0372558 -0.0200852 -1.99523e-19)
(0.0707358 -0.0346168 2.44392e-20)
(0.111734 -0.0476145 6.9539e-20)
(0.158309 -0.0596393 3.97863e-20)
(0.209939 -0.0695716 -1.22703e-19)
(0.265418 -0.0778581 1.13474e-19)
(0.324261 -0.0842347 -1.31234e-19)
(0.385625 -0.0889742 6.20258e-20)
(0.448912 -0.0920996 5.6148e-20)
(0.513446 -0.0937496 1.54217e-19)
(0.578396 -0.09411 2.3991e-20)
(0.643375 -0.0931078 6.18128e-20)
(0.706826 -0.0913511 -3.02598e-20)
(0.769779 -0.0878997 9.98375e-20)
(0.827513 -0.0853426 2.59481e-20)
(0.887991 -0.0783713 -4.15967e-20)
(0.931496 -0.0792923 -1.12312e-20)
(0.999391 -0.0639825 -1.18687e-20)
(-0.000577485 0.0017018 7.56573e-20)
(0.0143759 -0.00909858 -1.32852e-20)
(0.0416009 -0.0219495 6.27408e-20)
(0.0776439 -0.0368535 -5.18748e-20)
(0.121398 -0.0500099 3.33355e-20)
(0.170787 -0.0620806 1.65608e-19)
(0.225261 -0.071916 -1.06204e-19)
(0.283546 -0.08001 -2.94184e-20)
(0.345118 -0.0860945 1.955e-19)
(0.409076 -0.0904672 -8.73137e-20)
(0.474768 -0.0931603 2.46244e-20)
(0.541453 -0.0943286 2.80131e-20)
(0.60824 -0.0941782 -1.83886e-19)
(0.674666 -0.0926397 5.78e-20)
(0.739145 -0.0903733 -2.79303e-20)
(0.802585 -0.0863736 -2.0618e-20)
(0.860396 -0.0834377 -3.59952e-20)
(0.92014 -0.0758246 3.50704e-20)
(0.963001 -0.0768365 -3.08688e-20)
(1.02844 -0.0603259 3.27937e-20)
(-0.000143158 0.00111652 1.18433e-19)
(0.0165871 -0.0105584 2.88066e-19)
(0.046217 -0.0238919 1.63523e-19)
(0.0849146 -0.0391298 -2.71802e-21)
(0.131506 -0.0523915 -1.24138e-19)
(0.183778 -0.0644479 -6.92875e-20)
(0.241147 -0.0741227 1.86235e-19)
(0.302269 -0.08196 -7.32645e-21)
(0.366575 -0.0876899 9.20877e-22)
(0.433099 -0.0916375 1.58131e-19)
(0.501133 -0.0938457 -9.03641e-20)
(0.569864 -0.094488 -1.00229e-19)
(0.638341 -0.0937926 1.56904e-19)
(0.70602 -0.0916969 5.75818e-20)
(0.771295 -0.0889111 1.24694e-19)
(0.834947 -0.0843759 -1.46101e-19)
(0.892556 -0.0810712 -8.51036e-21)
(0.951222 -0.0728881 5.03008e-20)
(0.99322 -0.0739614 6.78334e-20)
(1.05575 -0.0564646 -2.08395e-21)
(0.000358663 0.000472629 1.07644e-19)
(0.0189773 -0.0121071 -1.1412e-19)
(0.051112 -0.0259061 -9.92694e-20)
(0.0925529 -0.0414375 9.47844e-20)
(0.142058 -0.0547491 1.65562e-19)
(0.197274 -0.0667295 4.7618e-20)
(0.257583 -0.0761784 7.30699e-20)
(0.321561 -0.0836944 -1.28919e-19)
(0.388592 -0.0890074 8.50631e-20)
(0.457641 -0.0924726 -1.66388e-19)
(0.527936 -0.0941458 -1.91995e-19)
(0.59859 -0.0942218 -4.20815e-21)
(0.66859 -0.0929524 -3.98706e-20)
(0.737312 -0.0902856 -1.33556e-19)
(0.803137 -0.0869785 -5.98521e-20)
(0.866717 -0.0819301 9.58687e-20)
(0.92384 -0.078274 8.16753e-20)
(0.981098 -0.0696053 -4.7606e-20)
(1.02202 -0.0707121 -5.45892e-21)
(1.08124 -0.0524573 -2.87733e-20)
(0.000932491 -0.000228036 -1.1523e-19)
(0.0215542 -0.0137401 -1.47369e-19)
(0.056293 -0.0279853 8.01195e-20)
(0.100563 -0.0437673 9.54217e-20)
(0.153054 -0.0570715 -5.68358e-20)
(0.21127 -0.0689126 -1.6203e-19)
(0.274552 -0.0780695 -1.65807e-20)
(0.341395 -0.0851991 -4.55128e-20)
(0.41113 -0.0900337 -3.13235e-19)
(0.482645 -0.0929611 1.25999e-19)
(0.555104 -0.0940522 2.57934e-19)
(0.62754 -0.0935262 3.74922e-20)
(0.69888 -0.0916597 -6.01498e-20)
(0.76842 -0.088415 2.47594e-20)
(0.834538 -0.0845927 -1.3951e-19)
(0.897757 -0.0790629 -3.38692e-20)
(0.954113 -0.0750801 -9.19622e-21)
(1.00965 -0.0660207 4.36393e-22)
(1.04928 -0.0671363 -3.1679e-20)
(1.10485 -0.0483586 -2.08398e-21)
(0.00158276 -0.000983297 -3.08013e-19)
(0.0243255 -0.0154522 1.87636e-19)
(0.0617673 -0.0301215 -1.34622e-19)
(0.10895 -0.0461091 -2.79608e-19)
(0.164493 -0.0593467 -9.4818e-20)
(0.225756 -0.0709837 4.12946e-20)
(0.292037 -0.0797818 -8.78205e-21)
(0.361742 -0.0864601 1.49768e-19)
(0.434145 -0.0907556 2.07579e-19)
(0.508055 -0.093092 2.02796e-19)
(0.582564 -0.0935578 -7.37019e-20)
(0.656625 -0.0923992 -1.2619e-19)
(0.729106 -0.0899188 2.10775e-20)
(0.799225 -0.0860974 -5.74631e-20)
(0.865371 -0.081774 5.40715e-20)
(0.927941 -0.0758036 3.45298e-20)
(0.983252 -0.071526 -2.29595e-20)
(1.03678 -0.0621792 -2.40456e-21)
(1.07493 -0.0632836 -5.10175e-20)
(1.12658 -0.0442183 4.89532e-20)
(0.00231381 -0.00179062 1.10403e-19)
(0.0272986 -0.0172372 -4.03278e-20)
(0.0675415 -0.0323059 2.51579e-20)
(0.117717 -0.0484519 2.39094e-19)
(0.176373 -0.0615618 7.19276e-20)
(0.240724 -0.0729289 -2.90838e-19)
(0.310018 -0.0813007 1.59842e-19)
(0.382572 -0.0874631 -1.47855e-19)
(0.457596 -0.0911606 -4.50072e-20)
(0.533812 -0.0928557 -8.80855e-20)
(0.610241 -0.092657 6.89457e-20)
(0.685754 -0.0908406 -9.82185e-20)
(0.759163 -0.0877366 -8.73959e-20)
(0.829613 -0.0833477 1.24319e-19)
(0.895517 -0.0785457 1.73881e-19)
(0.957153 -0.0721841 1.06319e-20)
(1.01115 -0.0676506 6.97298e-20)
(1.06242 -0.0581255 6.8353e-20)
(1.09891 -0.0592039 -2.87144e-20)
(1.14644 -0.040081 -1.08795e-19)
(0.00312984 -0.00264714 -3.39391e-21)
(0.0304807 -0.0190885 8.72123e-20)
(0.0736217 -0.0345288 1.68699e-19)
(0.126866 -0.0507835 -8.7594e-20)
(0.188691 -0.0637033 -2.96517e-19)
(0.256163 -0.0747334 1.48416e-19)
(0.328477 -0.0826113 -3.35763e-19)
(0.403854 -0.0881941 2.01113e-19)
(0.481435 -0.0912364 9.11012e-20)
(0.559857 -0.0922434 -1.22392e-20)
(0.638061 -0.0913458 -9.4684e-20)
(0.714839 -0.0888528 2.01953e-20)
(0.788951 -0.0851226 1.40001e-19)
(0.859477 -0.0801833 -1.23768e-19)
(0.924867 -0.0749334 -9.43788e-21)
(0.985293 -0.0682379 -6.10152e-20)
(1.03773 -0.0634936 -1.7036e-19)
(1.0865 -0.0539028 -1.01423e-19)
(1.12118 -0.0549467 3.18324e-20)
(1.16446 -0.0359855 1.07941e-19)
(0.00403494 -0.00354964 2.13886e-19)
(0.0338784 -0.0209985 -2.43296e-20)
(0.0800139 -0.0367799 -1.18467e-19)
(0.136401 -0.0530914 -1.67132e-19)
(0.201445 -0.0657568 1.42791e-19)
(0.272062 -0.0763819 -1.56231e-19)
(0.347392 -0.0836985 1.44592e-19)
(0.425555 -0.0886392 -4.44194e-20)
(0.505618 -0.0909718 -1.89019e-19)
(0.586127 -0.0912474 -9.0586e-21)
(0.665948 -0.0896218 1.01178e-19)
(0.743792 -0.08644 2.07428e-19)
(0.818373 -0.0820888 -9.22709e-20)
(0.888714 -0.0766246 1.55079e-19)
(0.953321 -0.0709652 2.59414e-21)
(1.01227 -0.064 9.91666e-20)
(1.06291 -0.0590958 -1.00436e-19)
(1.10899 -0.0495532 1.13099e-20)
(1.14172 -0.0505593 7.96212e-20)
(1.1807 -0.0319651 -1.37207e-20)
(0.00503301 -0.00449461 -1.81537e-19)
(0.0374981 -0.0229593 -9.84505e-20)
(0.0867231 -0.0390478 -9.13363e-20)
(0.146322 -0.0553618 3.30168e-19)
(0.214628 -0.0677071 1.75734e-19)
(0.288409 -0.077859 2.06808e-19)
(0.36674 -0.0845472 9.50335e-20)
(0.447639 -0.0887847 3.77758e-20)
(0.530097 -0.090356 1.32488e-19)
(0.612563 -0.0898615 -3.5724e-19)
(0.693827 -0.0874847 -1.17952e-20)
(0.772526 -0.0836089 -4.74669e-20)
(0.847333 -0.0786495 1.80595e-19)
(0.91723 -0.0726937 2.55005e-21)
(0.980789 -0.0666711 3.71578e-20)
(1.03802 -0.0595063 -9.74884e-20)
(1.08664 -0.0544978 3.93065e-20)
(1.12988 -0.0451164 1.19473e-19)
(1.16055 -0.0460864 6.00454e-21)
(1.19521 -0.028048 -4.39686e-20)
(0.0061278 -0.00547822 -1.68967e-19)
(0.041346 -0.024962 4.64698e-20)
(0.0937538 -0.0413205 2.2684e-20)
(0.156631 -0.0575804 -1.14593e-19)
(0.228236 -0.0695387 -1.19929e-19)
(0.305188 -0.0791485 -5.86982e-20)
(0.386497 -0.085142 1.31947e-19)
(0.470071 -0.0886174 6.71012e-20)
(0.554821 -0.0893793 -6.0375e-20)
(0.639101 -0.0880809 1.77885e-19)
(0.721625 -0.0849358 1.01749e-19)
(0.800956 -0.0803681 -8.81849e-21)
(0.875744 -0.0748214 -1.10209e-19)
(0.944936 -0.068415 -1.53581e-19)
(1.00719 -0.0620823 -9.34548e-20)
(1.06247 -0.0547927 3.15611e-20)
(1.10889 -0.0497398 -1.01025e-21)
(1.14917 -0.0406296 -6.84495e-20)
(1.17771 -0.0415686 -9.682e-20)
(1.20807 -0.0242575 6.04275e-20)
(0.00732285 -0.00649635 -7.01948e-21)
(0.0454273 -0.0269973 1.77744e-21)
(0.10111 -0.0435853 1.65483e-19)
(0.167326 -0.0597321 -2.15518e-19)
(0.242262 -0.0712354 1.25344e-19)
(0.322386 -0.0802341 1.57247e-19)
(0.406637 -0.0854678 -8.65137e-20)
(0.492814 -0.0881247 4.13307e-20)
(0.579742 -0.0880329 -5.55101e-20)
(0.665679 -0.0859022 -1.07188e-20)
(0.749266 -0.0819785 4.00832e-20)
(0.829003 -0.0767285 7.0477e-20)
(0.90352 -0.0706232 -1.10056e-20)
(0.971753 -0.0638146 1.2488e-19)
(1.03247 -0.0572314 8.44892e-20)
(1.08559 -0.0498953 3.71987e-20)
(1.12963 -0.0448604 -1.04287e-20)
(1.16687 -0.0361272 2.54016e-20)
(1.19322 -0.0370421 -1.39158e-20)
(1.21939 -0.0206131 -1.34045e-19)
(0.00862149 -0.0075446 4.59167e-19)
(0.0497472 -0.0290554 -1.2857e-19)
(0.108795 -0.0458287 -2.65762e-19)
(0.178407 -0.0618014 2.23424e-19)
(0.256698 -0.0727806 -1.06036e-19)
(0.339986 -0.0810994 -3.25346e-20)
(0.427134 -0.0855096 2.88706e-20)
(0.515829 -0.0872945 2.35216e-20)
(0.604807 -0.0863093 3.61406e-20)
(0.692234 -0.0833237 -7.84559e-20)
(0.776679 -0.0786181 -1.10934e-20)
(0.856588 -0.0727031 -2.60811e-19)
(0.930586 -0.0660756 -5.70112e-20)
(0.997612 -0.0589201 -4.86544e-20)
(1.05655 -0.0521513 -1.68644e-20)
(1.10733 -0.0448493 2.62815e-20)
(1.14887 -0.0398968 -6.91099e-21)
(1.18302 -0.0316403 9.23889e-21)
(1.20717 -0.032538 -6.01205e-20)
(1.22924 -0.017133 1.23271e-19)
(0.0100268 -0.00861832 -3.78419e-19)
(0.0543101 -0.0311258 3.54839e-20)
(0.11681 -0.0480368 1.63262e-19)
(0.189872 -0.063772 -1.53696e-19)
(0.271534 -0.0741571 -1.36774e-19)
(0.357969 -0.0817278 -1.96541e-19)
(0.447958 -0.085253 -8.68771e-20)
(0.539075 -0.0861156 -2.1036e-19)
(0.629966 -0.0842023 -1.98017e-20)
(0.718703 -0.0803454 6.99133e-20)
(0.803793 -0.0748618 -2.0259e-19)
(0.883636 -0.0683069 9.12554e-20)
(0.956867 -0.0612011 -3.92292e-20)
(1.02245 -0.05376 -9.35197e-20)
(1.07941 -0.0468753 -1.20433e-19)
(1.12769 -0.0396888 1.14316e-20)
(1.1666 -0.0348838 4.69551e-20)
(1.19766 -0.0271968 -1.28128e-20)
(1.21961 -0.0280819 1.20811e-19)
(1.23772 -0.0138356 -5.663e-20)
(0.0115417 -0.00971258 3.24603e-19)
(0.0591198 -0.0331976 8.14298e-20)
(0.125157 -0.0501949 1.50636e-19)
(0.201716 -0.0656271 1.24263e-19)
(0.286761 -0.0753478 3.62069e-19)
(0.376316 -0.0821029 1.64468e-19)
(0.46908 -0.0846836 -3.14127e-20)
(0.562511 -0.0845778 8.55375e-20)
(0.655165 -0.0817067 -1.01138e-19)
(0.745024 -0.076969 1.79267e-19)
(0.830538 -0.0707189 9.10117e-20)
(0.910077 -0.0635567 2.04195e-20)
(0.9823 -0.0560236 1.55372e-19)
(1.04621 -0.0483636 2.95464e-20)
(1.101 -0.0414362 9.4573e-20)
(1.14665 -0.0344463 -1.46122e-19)
(1.18287 -0.0298539 -1.13859e-19)
(1.21086 -0.022821 1.26027e-21)
(1.23062 -0.0236934 6.6386e-20)
(1.24493 -0.0107378 9.41403e-20)
(0.0131688 -0.0108222 -4.11518e-19)
(0.0641795 -0.0352592 1.17962e-20)
(0.133838 -0.0522879 -1.82204e-19)
(0.213935 -0.0673498 1.63951e-20)
(0.302366 -0.0763352 -4.55851e-19)
(0.395005 -0.0822083 2.2467e-20)
(0.490469 -0.0837879 2.94311e-20)
(0.586095 -0.0826717 -2.07268e-20)
(0.680351 -0.0788193 6.34347e-20)
(0.771136 -0.073198 -1.71263e-20)
(0.85685 -0.0662005 4.70672e-20)
(0.935846 -0.0584711 2.5328e-20)
(1.00683 -0.0505682 -4.03755e-20)
(1.06886 -0.0427605 -1.28004e-20)
(1.1213 -0.0358664 -4.84147e-20)
(1.16422 -0.0291527 1.49783e-19)
(1.19769 -0.0248369 5.86791e-20)
(1.22267 -0.0185336 5.92273e-20)
(1.24029 -0.0193836 -4.39433e-20)
(1.25094 -0.00785086 -7.40843e-20)
(0.0149103 -0.0119419 3.25563e-19)
(0.0694918 -0.037299 -1.97477e-19)
(0.14285 -0.0543004 1.75902e-20)
(0.226524 -0.0689225 -2.03709e-19)
(0.318335 -0.0771018 5.13582e-19)
(0.414016 -0.082028 1.81378e-19)
(0.512091 -0.0825531 -2.86355e-19)
(0.609783 -0.0803893 -6.67842e-20)
(0.705472 -0.0755381 1.12351e-21)
(0.796978 -0.0690377 1.25412e-20)
(0.882664 -0.0613195 -1.20436e-19)
(0.960882 -0.0530702 4.62452e-20)
(1.03039 -0.044861 1.20182e-19)
(1.09036 -0.0369805 1.81145e-19)
(1.14031 -0.0301972 5.19118e-20)
(1.18042 -0.0238363 -4.8357e-20)
(1.21111 -0.0198597 -2.02944e-20)
(1.23317 -0.0143511 -7.77275e-20)
(1.24869 -0.0151534 1.41169e-20)
(1.25585 -0.00522338 -1.40562e-20)
(0.0167684 -0.0130661 8.81386e-20)
(0.0750585 -0.0393046 3.0912e-19)
(0.152193 -0.0562164 -9.80829e-20)
(0.239475 -0.0703275 9.24228e-20)
(0.334654 -0.07763 -1.98615e-19)
(0.433322 -0.0815462 -6.93916e-20)
(0.533912 -0.080967 2.01902e-19)
(0.633531 -0.0777236 1.69088e-20)
(0.730474 -0.0718627 8.92966e-20)
(0.822491 -0.0644952 -4.13743e-20)
(0.907921 -0.0560905 6.84244e-20)
(0.98513 -0.0473755 -3.5733e-20)
(1.05296 -0.0389288 -5.34435e-20)
(1.11069 -0.031053 -1.87076e-19)
(1.15802 -0.0244583 -1.0184e-19)
(1.19527 -0.0185232 -4.25257e-20)
(1.22318 -0.0149466 7.03233e-21)
(1.24244 -0.0102842 5.73834e-20)
(1.25592 -0.0110079 -1.16317e-20)
(1.25984 -0.00309864 1.32662e-20)
(0.018745 -0.0141892 -3.85846e-19)
(0.080881 -0.0412637 -5.85282e-20)
(0.161864 -0.0580198 9.59395e-20)
(0.25278 -0.0715473 -9.74159e-20)
(0.351308 -0.0779027 -1.22087e-19)
(0.4529 -0.0807481 -2.30463e-19)
(0.555897 -0.0790188 -2.135e-19)
(0.657294 -0.0746693 1.91744e-19)
(0.755304 -0.0677947 6.54777e-20)
(0.847618 -0.0595794 -2.10944e-19)
(0.932563 -0.0505299 -5.42638e-20)
(1.00854 -0.0414097 -1.56262e-19)
(1.07449 -0.0327987 -7.46776e-20)
(1.12982 -0.0250068 1.82443e-19)
(1.17444 -0.0186779 9.91254e-20)
(1.20882 -0.0132369 -8.78887e-20)
(1.23397 -0.0101189 -6.98477e-21)
(1.25056 -0.00633714 -5.48502e-20)
(1.26203 -0.00700121 8.16066e-20)
(1.26331 -0.00182927 -9.64301e-21)
(0.0208414 -0.0153052 2.65097e-19)
(0.0869595 -0.0431635 -5.04055e-20)
(0.17186 -0.0596942 2.10677e-19)
(0.266429 -0.072564 2.08997e-19)
(0.368277 -0.0779027 1.75632e-19)
(0.472722 -0.0796191 1.07348e-19)
(0.578009 -0.0766983 2.86462e-19)
(0.681026 -0.0712223 -1.30548e-19)
(0.77991 -0.063337 -1.2862e-20)
(0.872304 -0.0543009 2.59432e-19)
(0.956538 -0.0446554 1.16906e-19)
(1.03107 -0.035196 2.93533e-19)
(1.09496 -0.0264976 1.70375e-20)
(1.14776 -0.0188695 -1.66168e-19)
(1.1896 -0.0128824 -5.60132e-20)
(1.22109 -0.0079984 1.74655e-19)
(1.24353 -0.00539438 2.46434e-20)
(1.2576 -0.00251169 7.09211e-20)
(1.26708 -0.00323083 -9.667e-21)
(1.26689 -0.000446873 1.21786e-20)
(0.0230587 -0.0164081 -1.92902e-19)
(0.0932934 -0.0449907 -8.8766e-21)
(0.182176 -0.0612229 -2.78355e-19)
(0.280411 -0.0733596 -2.22425e-20)
(0.385543 -0.0776133 1.14574e-19)
(0.492759 -0.0781454 -1.02564e-20)