/*--------------------------------*- C++ -*----------------------------------*\
  =========                 |
  \\      /  F ield         | OpenFOAM: The Open Source CFD Toolbox
   \\    /   O peration     | Website:  https://openfoam.org
    \\  /    A nd           | Version:  7
     \\/     M anipulation  |
\*---------------------------------------------------------------------------*/
FoamFile
{
    version     2.0;
    format      ascii;
    class       surfaceScalarField;
    location    "5";
    object      phi;
}
// * * * * * * * * * * * * * * * * * * * * * * * * * * * * * * * * * * * * * //

dimensions      [0 3 -1 0 0 0 0];

internalField   nonuniform List<scalar> 
5144
(
0.00193806
6.14792e-05
0.00193757
5.49115e-05
0.00193715
4.89296e-05
0.00193677
4.34978e-05
0.00193643
3.85803e-05
0.00193614
3.41414e-05
0.00193588
3.01459e-05
0.00193565
2.65594e-05
0.00193545
2.33486e-05
0.00193528
2.04817e-05
0.00193512
1.79298e-05
0.00193499
1.56602e-05
0.00193488
1.36496e-05
0.00193478
1.18725e-05
0.00193469
1.03042e-05
0.00193461
8.92561e-06
0.00193455
7.71328e-06
0.00193449
6.65515e-06
0.00193445
5.72537e-06
0.00193441
4.92379e-06
0.00193437
4.21388e-06
0.00193434
3.61937e-06
0.00193432
3.07375e-06
0.00193429
2.65327e-06
0.00193428
2.21742e-06
0.00193426
1.95991e-06
1.56593e-06
0.00196599
0.00044031
0.00196128
0.000418509
0.00195689
0.000396608
0.0019528
0.000374752
0.001949
0.000353079
0.00194549
0.000331715
0.00194225
0.000310778
0.00193927
0.000290366
0.00193653
0.000270569
0.00193403
0.000251457
0.00193174
0.000233091
0.00192965
0.000215515
0.00192776
0.000198762
0.00192604
0.000182853
0.00192448
0.000167798
0.00192306
0.000153601
0.00192179
0.000140257
0.00192064
0.000127755
0.00191961
0.000116078
0.00191868
0.000105207
0.00191785
9.51175e-05
0.00191711
8.57828e-05
0.00191645
7.71736e-05
0.00191585
6.92588e-05
0.00191533
6.20053e-05
0.00191486
5.53786e-05
0.00191445
4.93434e-05
0.00191408
4.38637e-05
0.00191376
3.89032e-05
0.00191347
3.44258e-05
0.00191322
3.03959e-05
0.001913
2.67787e-05
0.00191281
2.35407e-05
0.00191264
2.06496e-05
0.0019125
1.80763e-05
0.00191237
1.57878e-05
0.00191226
1.37604e-05
0.00191216
1.19686e-05
0.00191208
1.03874e-05
0.00191201
8.99756e-06
0.00191195
7.77529e-06
0.00191189
6.70859e-06
0.00191185
5.7712e-06
0.00191181
4.96322e-06
0.00191177
4.24744e-06
0.00191174
3.64835e-06
0.00191172
3.09805e-06
0.0019117
2.67462e-06
0.00191168
2.23467e-06
0.00191167
1.97601e-06
1.57808e-06
0.00194217
0.000445227
0.00193756
0.000423112
0.00193327
0.000400902
0.00192928
0.000378746
0.00192557
0.000356782
0.00192215
0.00033514
0.00191899
0.000313935
0.00191609
0.00029327
0.00191342
0.000273231
0.00191099
0.000253894
0.00190876
0.000235315
0.00190674
0.000217541
0.0019049
0.000200603
0.00190323
0.000184523
0.00190171
0.000169311
0.00190035
0.000154969
0.00189911
0.000141491
0.001898
0.000128866
0.001897
0.000117077
0.00189611
0.000106104
0.0018953
9.59208e-05
0.00189458
8.65011e-05
0.00189394
7.78148e-05
0.00189337
6.983e-05
0.00189286
6.25132e-05
0.00189241
5.58293e-05
0.00189201
4.97426e-05
0.00189166
4.42165e-05
0.00189135
3.92145e-05
0.00189108
3.46999e-05
0.00189084
3.06367e-05
0.00189062
2.699e-05
0.00189044
2.37256e-05
0.00189028
2.08113e-05
0.00189014
1.82175e-05
0.00189001
1.59105e-05
0.00188991
1.3867e-05
0.00188981
1.20611e-05
0.00188973
1.04674e-05
0.00188967
9.06675e-06
0.00188961
7.83493e-06
0.00188955
6.75998e-06
0.00188951
5.81527e-06
0.00188947
5.00114e-06
0.00188944
4.27971e-06
0.00188941
3.67621e-06
0.00188939
3.1214e-06
0.00188937
2.69515e-06
0.00188935
2.25122e-06
0.00188934
1.99149e-06
1.58975e-06
0.00191863
0.000450037
0.00191413
0.00042761
0.00190994
0.000405097
0.00190604
0.000382645
0.00190243
0.000360396
0.00189909
0.000338479
0.00189601
0.000317011
0.00189318
0.000296096
0.00189059
0.000275822
0.00188822
0.000256263
0.00188606
0.000237476
0.0018841
0.000219508
0.00188231
0.00020239
0.00188069
0.000186143
0.00187922
0.000170777
0.0018779
0.000156293
0.0018767
0.000142685
0.00187563
0.000129941
0.00187466
0.000118043
0.0018738
0.00010697
0.00187302
9.66969e-05
0.00187233
8.71949e-05
0.00187171
7.84338e-05
0.00187116
7.03812e-05
0.00187067
6.30031e-05
0.00187023
5.62639e-05
0.00186985
5.01274e-05
0.00186951
4.45566e-05
0.00186921
3.95144e-05
0.00186894
3.4964e-05
0.00186871
3.08687e-05
0.00186851
2.71934e-05
0.00186833
2.39036e-05
0.00186817
2.09669e-05
0.00186804
1.83532e-05
0.00186792
1.60286e-05
0.00186782
1.39695e-05
0.00186773
1.21501e-05
0.00186765
1.05444e-05
0.00186758
9.13327e-06
0.00186753
7.89225e-06
0.00186748
6.80936e-06
0.00186743
5.85761e-06
0.0018674
5.03757e-06
0.00186737
4.31071e-06
0.00186734
3.70297e-06
0.00186732
3.14382e-06
0.0018673
2.71487e-06
0.00186728
2.26711e-06
0.00186727
2.00639e-06
1.60095e-06
0.00189538
0.000454739
0.00189098
0.000432007
0.00188689
0.000409194
0.00188308
0.000386451
0.00187956
0.00036392
0.0018763
0.000341733
0.00187331
0.000320008
0.00187055
0.000298848
0.00186803
0.000278343
0.00186573
0.000258565
0.00186363
0.000239576
0.00186172
0.000221418
0.00185999
0.000204124
0.00185842
0.000187714
0.001857
0.000172197
0.00185572
0.000157575
0.00185456
0.000143841
0.00185352
0.000130981
0.00185259
0.000118978
0.00185175
0.000107808
0.001851
9.74466e-05
0.00185033
8.78646e-05
0.00184973
7.90311e-05
0.0018492
7.09129e-05
0.00184873
6.34755e-05
0.00184831
5.66829e-05
0.00184794
5.04982e-05
0.00184761
4.48842e-05
0.00184732
3.98032e-05
0.00184707
3.52181e-05
0.00184684
3.10919e-05
0.00184665
2.73891e-05
0.00184648
2.40748e-05
0.00184633
2.11165e-05
0.0018462
1.84838e-05
0.00184608
1.61422e-05
0.00184598
1.40681e-05
0.0018459
1.22355e-05
0.00184582
1.06183e-05
0.00184576
9.19717e-06
0.00184571
7.94731e-06
0.00184566
6.85679e-06
0.00184562
5.89827e-06
0.00184558
5.07254e-06
0.00184555
4.34046e-06
0.00184553
3.72865e-06
0.00184551
3.16533e-06
0.00184549
2.7338e-06
0.00184547
2.28234e-06
0.00184546
2.02071e-06
1.61171e-06
0.00187241
0.000459336
0.00186811
0.000436302
0.00186411
0.000413194
0.0018604
0.000390164
0.00185696
0.000367357
0.00185379
0.000344904
0.00185087
0.000322926
0.0018482
0.000301526
0.00184575
0.000280793
0.00184351
0.000260803
0.00184147
0.000241614
0.00183962
0.000223271
0.00183793
0.000205805
0.00183641
0.000189236
0.00183504
0.000173573
0.0018338
0.000158817
0.00183268
0.000144959
0.00183167
0.000131987
0.00183077
0.00011988
0.00182996
0.000108617
0.00182924
9.81703e-05
0.00182859
8.85109e-05
0.00182801
7.96073e-05
0.0018275
7.14256e-05
0.00182705
6.39309e-05
0.00182664
5.70865e-05
0.00182629
5.08554e-05
0.00182597
4.51995e-05
0.00182569
4.00812e-05
0.00182545
3.54627e-05
0.00182523
3.13067e-05
0.00182504
2.75773e-05
0.00182488
2.42394e-05
0.00182474
2.12604e-05
0.00182461
1.86093e-05
0.0018245
1.62512e-05
0.00182441
1.41627e-05
0.00182432
1.23176e-05
0.00182425
1.06893e-05
0.00182419
9.25851e-06
0.00182414
8.00015e-06
0.00182409
6.90231e-06
0.00182406
5.93728e-06
0.00182402
5.1061e-06
0.00182399
4.36901e-06
0.00182397
3.7533e-06
0.00182395
3.18597e-06
0.00182393
2.75196e-06
0.00182391
2.29692e-06
0.0018239
2.03446e-06
1.62202e-06
0.00184972
0.000463829
0.00184552
0.000440497
0.00184162
0.000417099
0.00183799
0.000393787
0.00183464
0.000370708
0.00183155
0.000347994
0.00182871
0.000325767
0.00182611
0.000304131
0.00182372
0.000283176
0.00182155
0.000262977
0.00181957
0.000243593
0.00181777
0.000225069
0.00181614
0.000207435
0.00181467
0.000190711
0.00181334
0.000174905
0.00181214
0.000160018
0.00181105
0.00014604
0.00181008
0.000132958
0.00180921
0.000120752
0.00180843
0.000109398
0.00180773
9.88686e-05
0.00180711
8.91343e-05
0.00180655
8.01627e-05
0.00180606
7.19196e-05
0.00180562
6.43695e-05
0.00180523
5.74752e-05
0.00180489
5.11991e-05
0.00180458
4.5503e-05
0.00180432
4.03486e-05
0.00180408
3.56978e-05
0.00180388
3.15131e-05
0.00180369
2.77582e-05
0.00180354
2.43976e-05
0.0018034
2.13985e-05
0.00180328
1.87299e-05
0.00180317
1.63559e-05
0.00180308
1.42535e-05
0.001803
1.23964e-05
0.00180294
1.07575e-05
0.00180288
9.31736e-06
0.00180283
8.05084e-06
0.00180278
6.94597e-06
0.00180274
5.97469e-06
0.00180271
5.13828e-06
0.00180269
4.39637e-06
0.00180266
3.77692e-06
0.00180264
3.20574e-06
0.00180262
2.76936e-06
0.00180261
2.31088e-06
0.0018026
2.04767e-06
1.6319e-06
0.0018273
0.00046822
0.0018232
0.000444595
0.00181939
0.00042091
0.00181586
0.000397321
0.00181259
0.000373974
0.00180958
0.000351004
0.00180682
0.000328532
0.00180428
0.000306665
0.00180197
0.000285492
0.00179986
0.000265089
0.00179793
0.000245514
0.00179619
0.000226812
0.00179461
0.000209014
0.00179318
0.000192139
0.00179189
0.000176195
0.00179073
0.00016118
0.00178969
0.000147085
0.00178875
0.000133897
0.00178791
0.000121594
0.00178715
0.000110151
0.00178648
9.95421e-05
0.00178588
8.97352e-05
0.00178534
8.0698e-05
0.00178487
7.23955e-05
0.00178445
6.47917e-05
0.00178407
5.78492e-05
0.00178374
5.15298e-05
0.00178345
4.57948e-05
0.00178319
4.06056e-05
0.00178297
3.59238e-05
0.00178277
3.17114e-05
0.00178259
2.79319e-05
0.00178244
2.45494e-05
0.00178231
2.15312e-05
0.00178219
1.88456e-05
0.00178209
1.64564e-05
0.00178201
1.43406e-05
0.00178193
1.24719e-05
0.00178187
1.08228e-05
0.00178181
9.37377e-06
0.00178176
8.09942e-06
0.00178172
6.9878e-06
0.00178168
6.01054e-06
0.00178165
5.16911e-06
0.00178163
4.42258e-06
0.0017816
3.79954e-06
0.00178158
3.22468e-06
0.00178157
2.78602e-06
0.00178155
2.32423e-06
0.00178154
2.06033e-06
1.64137e-06
0.00180515
0.000472509
0.00180115
0.000448596
0.00179743
0.000424629
0.00179399
0.000400766
0.00179081
0.000377156
0.00178788
0.000353934
0.00178518
0.000331223
0.00178272
0.000309128
0.00178047
0.000287742
0.00177842
0.000267139
0.00177656
0.000247377
0.00177487
0.000228502
0.00177334
0.000210544
0.00177195
0.000193522
0.00177071
0.000177442
0.00176958
0.000162303
0.00176857
0.000148095
0.00176767
0.000134803
0.00176686
0.000122406
0.00176613
0.000110878
0.00176548
0.000100191
0.0017649
9.03143e-05
0.00176438
8.12134e-05
0.00176393
7.28535e-05
0.00176352
6.5198e-05
0.00176316
5.8209e-05
0.00176284
5.18477e-05
0.00176256
4.60752e-05
0.00176232
4.08525e-05
0.0017621
3.61409e-05
0.00176191
3.19018e-05
0.00176174
2.80986e-05
0.0017616
2.4695e-05
0.00176147
2.16584e-05
0.00176136
1.89566e-05
0.00176126
1.65527e-05
0.00176118
1.4424e-05
0.00176111
1.25443e-05
0.00176104
1.08854e-05
0.00176099
9.42781e-06
0.00176094
8.14595e-06
0.0017609
7.02785e-06
0.00176087
6.04487e-06
0.00176084
5.1986e-06
0.00176081
4.44769e-06
0.00176079
3.82117e-06
0.00176077
3.24283e-06
0.00176076
2.80191e-06
0.00176074
2.33707e-06
0.00176073
2.07235e-06
1.65052e-06
0.00533208
0.000462605
0.00534257
0.000438102
0.0053536
0.000413597
0.00536512
0.000389246
0.00537708
0.000365195
0.00538944
0.000341576
0.00540216
0.000318506
0.0054152
0.000296089
0.00542853
0.000274412
0.00544212
0.000253544
0.00545596
0.000233542
0.00547001
0.000214444
0.00548428
0.000196279
0.00549874
0.000179061
0.00551339
0.000162794
0.00552822
0.000147474
0.00554322
0.000133089
0.0055584
0.000119622
0.00557376
0.000107048
0.0055893
9.53426e-05
0.00560501
8.44749e-05
0.00562092
7.4413e-05
0.00563701
6.51227e-05
0.00565329
5.65679e-05
0.00566978
4.87117e-05
0.00568647
4.15159e-05
0.00570338
3.49418e-05
0.0057205
2.89501e-05
0.00573785
2.3502e-05
0.00575544
1.85588e-05
0.00577325
1.40821e-05
0.00579132
1.00353e-05
0.00580963
6.38259e-06
0.0058282
3.09e-06
0.00584702
1.3393e-07
0.00586611
-2.54062e-06
0.00588548
-4.93764e-06
0.00590511
-7.09214e-06
0.00592503
-9.03026e-06
0.00594523
-1.07718e-05
0.00596572
-1.23417e-05
0.0059865
-1.37528e-05
0.00600757
-1.50322e-05
0.00602895
-1.61805e-05
0.00605064
-1.72357e-05
0.00607263
-1.81737e-05
0.00609494
-1.90633e-05
0.00611757
-1.98264e-05
0.00614051
-2.06079e-05
0.00616379
-2.12077e-05
-2.19526e-05
0.00538846
0.000453157
0.00539847
0.000428092
0.00540899
0.000403077
0.00541997
0.000378266
0.00543136
0.000353801
0.00544313
0.000329812
0.00545522
0.000306413
0.00546761
0.000283701
0.00548026
0.000261761
0.00549315
0.000240657
0.00550625
0.000220441
0.00551954
0.00020115
0.00553301
0.000182805
0.00554666
0.000165419
0.00556046
0.000148993
0.00557441
0.00013352
0.00558851
0.000118986
0.00560277
0.000105369
0.00561717
9.26467e-05
0.00563172
8.07899e-05
0.00564643
6.97677e-05
0.00566129
5.95469e-05
0.00567632
5.00927e-05
0.00569152
4.13682e-05
0.0057069
3.33362e-05
0.00572246
2.59586e-05
0.0057382
1.91959e-05
0.00575414
1.30092e-05
0.00577029
7.35962e-06
0.00578664
2.20872e-06
0.0058032
-2.48227e-06
0.00581998
-6.74912e-06
0.00583699
-1.06276e-05
0.00585423
-1.41505e-05
0.00587172
-1.73472e-05
0.00588944
-2.02602e-05
0.0059074
-2.29054e-05
0.00592562
-2.53118e-05
0.0059441
-2.75063e-05
0.00596284
-2.9509e-05
0.00598184
-3.1344e-05
0.00600111
-3.30253e-05
0.00602066
-3.45778e-05
0.00604048
-3.6005e-05
0.00606059
-3.73409e-05
0.00608098
-3.85672e-05
0.00610166
-3.97439e-05
0.00612264
-4.08059e-05
0.00614391
-4.18792e-05
0.00616549
-4.2791e-05
-4.38329e-05
0.00544395
0.000444159
0.00545349
0.000418561
0.0054635
0.000393066
0.00547394
0.000367824
0.00548476
0.000342975
0.00549593
0.000318645
0.0055074
0.000294944
0.00551913
0.000271967
0.0055311
0.000249791
0.00554328
0.000228479
0.00555565
0.000208077
0.00556818
0.000188618
0.00558086
0.000170121
0.00559369
0.000152594
0.00560665
0.000136036
0.00561973
0.000120435
0.00563294
0.000105776
0.00564627
9.20371e-05
0.00565973
7.91906e-05
0.00567331
6.72076e-05
0.00568702
5.60557e-05
0.00570087
4.57007e-05
0.00571485
3.61069e-05
0.00572899
2.72369e-05
0.00574327
1.90531e-05
0.00575771
1.15169e-05
0.00577232
4.58911e-06
0.0057871
-1.76938e-06
0.00580205
-7.59741e-06
0.0058172
-1.29336e-05
0.00583253
-1.78156e-05
0.00584806
-2.228e-05
0.00586379
-2.63618e-05
0.00587974
-3.00937e-05
0.0058959
-3.35067e-05
0.00591227
-3.66374e-05
0.00592888
-3.95075e-05
0.00594571
-4.2144e-05
0.00596277
-4.45724e-05
0.00598008
-4.68141e-05
0.00599763
-4.88917e-05
0.00601542
-5.08205e-05
0.00603347
-5.26237e-05
0.00605177
-5.43071e-05
0.00607033
-5.59009e-05
0.00608916
-5.73921e-05
0.00610824
-5.88331e-05
0.00612761
-6.017e-05
0.00614724
-6.15125e-05
0.00616716
-6.27109e-05
-6.40269e-05
0.00548911
0.000461641
0.00549772
0.000435549
0.00550683
0.000409451
0.00551639
0.000383507
0.00552635
0.000357866
0.00553666
0.000332665
0.00554728
0.000308025
0.00555817
0.000284054
0.0055693
0.00026084
0.00558063
0.000238459
0.00559214
0.000216968
0.00560381
0.000196409
0.00561561
0.000176811
0.00562754
0.00015819
0.00563959
0.00014055
0.00565174
0.000123887
0.00566399
0.000108186
0.00567633
9.34305e-05
0.00568877
7.95946e-05
0.00570131
6.66503e-05
0.00571396
5.45669e-05
0.0057267
4.33106e-05
0.00573955
3.28462e-05
0.00575252
2.31377e-05
0.00576561
1.41461e-05
0.00577883
5.83444e-06
0.00579219
-1.83656e-06
0.00580568
-8.90607e-06
0.00581933
-1.54133e-05
0.00583313
-2.13969e-05
0.00584709
-2.68956e-05
0.00586122
-3.19463e-05
0.00587552
-3.65859e-05
0.00589001
-4.08488e-05
0.00590468
-4.47677e-05
0.00591955
-4.83739e-05
0.00593462
-5.17019e-05
0.00594988
-5.47747e-05
0.00596536
-5.76188e-05
0.00598105
-6.02597e-05
0.00599695
-6.27181e-05
0.00601307
-6.50164e-05
0.00602942
-6.71705e-05
0.006046
-6.92024e-05
0.00606282
-7.11194e-05
0.00607986
-7.2949e-05
0.00609715
-7.46823e-05
0.00611469
-7.63653e-05
0.00613247
-7.79536e-05
0.0061505
-7.95429e-05
0.00616879
-8.10033e-05
-8.25711e-05
0.00554156
0.000453885
0.00554983
0.000427273
0.00555857
0.000400709
0.00556773
0.000374351
0.00557725
0.000348345
0.00558709
0.000322824
0.00559721
0.000297908
0.00560756
0.000273698
0.00561812
0.000250281
0.00562886
0.000227727
0.00563974
0.000206087
0.00565074
0.000185402
0.00566186
0.000165696
0.00567307
0.00014698
0.00568436
0.000129257
0.00569573
0.000112516
0.00570717
9.67444e-05
0.00571869
8.19188e-05
0.00573027
6.80133e-05
0.00574192
5.49979e-05
0.00575365
4.28399e-05
0.00576545
3.15048e-05
0.00577734
2.09562e-05
0.00578932
1.11576e-05
0.0058014
2.06886e-06
0.00581358
-6.34692e-06
0.00582587
-1.41291e-05
0.00583828
-2.13171e-05
0.00585082
-2.79501e-05
0.00586349
-3.40667e-05
0.0058763
-3.97052e-05
0.00588926
-4.49028e-05
0.00590237
-4.96953e-05
0.00591564
-5.41174e-05
0.00592907
-5.82017e-05
0.00594267
-6.19793e-05
0.00595646
-6.54832e-05
0.00597042
-6.87372e-05
0.00598457
-7.17675e-05
0.00599891
-7.4599e-05
0.00601344
-7.72526e-05
0.00602817
-7.97504e-05
0.00604311
-8.2108e-05
0.00605826
-8.43469e-05
0.00607361
-8.64756e-05
0.00608918
-8.85191e-05
0.00610497
-9.04722e-05
0.00612098
-9.23753e-05
0.00613722
-9.41918e-05
0.00615368
-9.60064e-05
0.00617039
-9.77046e-05
-9.95023e-05
0.00559235
0.000446374
0.00560034
0.000419279
0.00560877
0.000392286
0.00561757
0.00036555
0.0056267
0.000339215
0.00563611
0.000313412
0.00564576
0.000288254
0.00565562
0.000263841
0.00566565
0.000240255
0.00567581
0.000217559
0.0056861
0.000195805
0.00569647
0.000175026
0.00570693
0.000155242
0.00571744
0.000136463
0.00572802
0.000118685
0.00573863
0.000101897
0.0057493
8.60818e-05
0.00576
7.12144e-05
0.00577075
5.72666e-05
0.00578154
4.42068e-05
0.00579238
3.20004e-05
0.00580327
2.0612e-05
0.00581422
1.00041e-05
0.00582524
1.40656e-07
0.00583633
-9.02197e-06
0.0058475
-1.75177e-05
0.00585876
-2.53877e-05
0.00587012
-3.26712e-05
0.00588157
-3.94075e-05
0.00589314
-4.56346e-05
0.00590483
-5.13909e-05
0.00591664
-5.67133e-05
0.00592858
-6.16373e-05
0.00594066
-6.61971e-05
0.00595288
-7.04254e-05
0.00596526
-7.43531e-05
0.00597778
-7.80116e-05
0.00599047
-8.14257e-05
0.00600333
-8.46212e-05
0.00601635
-8.76223e-05
0.00602955
-9.04501e-05
0.00604292
-9.31259e-05
0.00605648
-9.5666e-05
0.00607022
-9.80908e-05
0.00608416
-0.00010041
0.00609828
-0.000102646
0.00611261
-0.000104797
0.00612713
-0.000106899
0.00614186
-0.000108921
0.00615679
-0.000110939
0.00617194
-0.000112852
-0.000114858
0.00564147
0.000439051
0.00564923
0.000411513
0.00565739
0.000384131
0.00566588
0.000357057
0.00567466
0.000330433
0.00568369
0.000304385
0.00569292
0.000279024
0.00570232
0.000254444
0.00571185
0.000230724
0.00572148
0.000207924
0.0057312
0.000186088
0.00574098
0.000165248
0.0057508
0.00014542
0.00576066
0.000126607
0.00577053
0.000108806
0.00578043
9.20009e-05
0.00579034
7.61711e-05
0.00580027
6.12903e-05
0.0058102
4.73278e-05
0.00582016
3.42501e-05
0.00583014
2.20218e-05
0.00584015
1.06059e-05
0.00585019
-3.57031e-08
0.00586027
-9.94172e-06
0.0058704
-1.91522e-05
0.00588059
-2.77048e-05
0.00589084
-3.56396e-05
0.00590116
-4.29962e-05
0.00591157
-4.98131e-05
0.00592206
-5.61289e-05
0.00593265
-6.19812e-05
0.00594335
-6.74069e-05
0.00595415
-7.2441e-05
0.00596507
-7.71174e-05
0.00597611
-8.14688e-05
0.00598729
-8.55255e-05
0.00599859
-8.9318e-05
0.00601004
-9.28716e-05
0.00602163
-9.62115e-05
0.00603337
-9.93618e-05
0.00604526
-0.000102343
0.00605731
-0.000105176
0.00606952
-0.000107878
0.0060819
-0.000110468
0.00609445
-0.000112956
0.00610717
-0.000115364
0.00612006
-0.000117692
0.00613313
-0.000119971
0.00614639
-0.000122178
0.00615983
-0.000124378
0.00617346
-0.000126484
-0.000128676
0.00568168
0.000459839
0.00568887
0.000431856
0.00569647
0.00040392
0.00570441
0.000376192
0.00571264
0.000348823
0.00572112
0.000321951
0.00572981
0.0002957
0.00573865
0.000270175
0.00574763
0.000245468
0.0057567
0.000221652
0.00576584
0.000198783
0.00577503
0.000176903
0.00578424
0.000156036
0.00579346
0.000136197
0.00580269
0.000117384
0.0058119
9.95909e-05
0.0058211
8.27988e-05
0.00583029
6.69844e-05
0.00583946
5.21186e-05
0.00584862
3.81693e-05
0.00585777
2.51011e-05
0.00586691
1.28769e-05
0.00587606
1.45936e-06
0.00588522
-9.19189e-06
0.00589439
-1.91147e-05
0.00590359
-2.83499e-05
0.00591282
-3.6936e-05
0.00592209
-4.49129e-05
0.00593141
-5.23198e-05
0.0059408
-5.91954e-05
0.00595025
-6.5578e-05
0.00595977
-7.15051e-05
0.00596938
-7.70127e-05
0.00597907
-8.21361e-05
0.00598886
-8.69086e-05
0.00599876
-9.13623e-05
0.00600876
-9.55276e-05
0.00601887
-9.9434e-05
0.00602911
-0.000103107
0.00603947
-0.000106571
0.00604996
-0.00010985
0.00606058
-0.000112965
0.00607134
-0.000115935
0.00608224
-0.000118779
0.00609328
-0.000121513
0.00610448
-0.00012415
0.00611582
-0.000126709
0.00612732
-0.000129193
0.00613898
-0.000131629
0.0061508
-0.000133999
0.00616279
-0.000136361
0.00617494
-0.000138637
-0.000140995
0.00572743
0.000453118
0.00573455
0.00042473
0.00574203
0.000396442
0.00574981
0.000368416
0.00575783
0.000340798
0.00576606
0.000313724
0.00577445
0.000287313
0.00578295
0.000261667
0.00579155
0.000236874
0.0058002
0.000213002
0.00580888
0.000190104
0.00581757
0.000168215
0.00582624
0.000147359
0.0058349
0.000127542
0.00584352
0.000108764
0.0058521
9.10104e-05
0.00586064
7.42624e-05
0.00586913
5.84932e-05
0.00587757
4.36718e-05
0.00588598
2.97637e-05
0.00589435
1.67322e-05
0.00590269
4.53876e-06
0.005911
-6.85549e-06
0.0059193
-1.74907e-05
0.00592759
-2.74063e-05
0.00593588
-3.66427e-05
0.00594419
-4.52391e-05
0.00595251
-5.32353e-05
0.00596086
-6.06705e-05
0.00596925
-6.7583e-05
0.00597768
-7.40111e-05
0.00598617
-7.99918e-05
0.00599472
-8.55607e-05
0.00600333
-9.07528e-05
0.00601202
-9.5601e-05
0.0060208
-0.000100137
0.00602966
-0.000104391
0.00603862
-0.000108391
0.00604768
-0.000112163
0.00605684
-0.000115732
0.00606611
-0.00011912
0.00607549
-0.000122349
0.00608499
-0.000125437
0.00609462
-0.000128402
0.00610436
-0.000131261
0.00611424
-0.000134027
0.00612425
-0.000136718
0.00613439
-0.000139337
0.00614468
-0.000141911
0.0061551
-0.000144422
0.00616566
-0.000146926
0.00617638
-0.000149351
-0.000151855
0.00577137
0.000446353
0.00577849
0.000417611
0.00578591
0.000389024
0.00579358
0.000360749
0.00580144
0.000332932
0.00580946
0.000305703
0.0058176
0.000279179
0.00582581
0.000253458
0.00583406
0.000228623
0.00584232
0.000204738
0.00585058
0.00018185
0.0058588
0.000159992
0.00586698
0.000139183
0.00587509
0.000119426
0.00588314
0.000100715
0.00589112
8.30349e-05
0.00589902
6.63628e-05
0.00590684
5.06697e-05
0.00591459
3.59218e-05
0.00592227
2.20834e-05
0.00592989
9.1159e-06
0.00593745
-3.02048e-06
0.00594496
-1.43654e-05
0.00595242
-2.496e-05
0.00595986
-3.48442e-05
0.00596728
-4.40582e-05
0.00597468
-5.26423e-05
0.00598208
-6.06355e-05
0.00598949
-6.80768e-05
0.00599691
-7.50051e-05
0.00600436
-8.14575e-05
0.00601184
-8.7471e-05
0.00601936
-9.3081e-05
0.00602692
-9.83216e-05
0.00603455
-0.000103226
0.00604224
-0.000107824
0.00604999
-0.000112147
0.00605782
-0.000116222
0.00606573
-0.000120074
0.00607373
-0.000123728
0.00608182
-0.000127206
0.00609
-0.000130529
0.00609828
-0.000133716
0.00610666
-0.000136783
0.00611514
-0.000139748
0.00612374
-0.000142624
0.00613245
-0.000145427
0.00614127
-0.000148161
0.00615021
-0.000150852
0.00615928
-0.000153486
0.00616846
-0.000156112
0.00617778
-0.000158665
-0.000161294
0.00581351
0.000439476
0.00582068
0.000410438
0.0058281
0.000381607
0.00583571
0.000353138
0.00584346
0.000325174
0.00585132
0.000297843
0.00585925
0.000271255
0.0058672
0.000245507
0.00587515
0.000220675
0.00588306
0.000196821
0.00589093
0.000173986
0.00589872
0.0001522
0.00590643
0.000131476
0.00591404
0.000111815
0.00592154
9.3208e-05
0.00592894
7.56353e-05
0.00593623
5.90715e-05
0.00594342
4.34853e-05
0.0059505
2.88408e-05
0.00595748
1.51006e-05
0.00596437
2.22461e-06
0.00597118
-9.82809e-06
0.00597791
-2.10984e-05
0.00598458
-3.16275e-05
0.00599119
-4.14562e-05
0.00599776
-5.0625e-05
0.00600429
-5.91737e-05
0.0060108
-6.71418e-05
0.00601729
-7.4568e-05
0.00602377
-8.14907e-05
0.00603026
-8.79468e-05
0.00603677
-9.39729e-05
0.00604329
-9.96039e-05
0.00604984
-0.000104873
0.00605643
-0.000109814
0.00606306
-0.000114456
0.00606974
-0.000118828
0.00607648
-0.000122959
0.00608328
-0.000126872
0.00609014
-0.000130593
0.00609708
-0.000134142
0.00610409
-0.00013754
0.00611118
-0.000140807
0.00611835
-0.000143958
0.00612561
-0.00014701
0.00613297
-0.000149976
0.00614041
-0.000152872
0.00614795
-0.000155704
0.00615559
-0.000158493
0.00616334
-0.000161229
0.00617118
-0.000163958
0.00617914
-0.00016662
-0.000169354
0.00584676
0.000461793
0.00585382
0.000432424
0.00586111
0.00040315
0.00586858
0.000374134
0.00587619
0.00034553
0.00588388
0.000317476
0.00589163
0.000290096
0.00589939
0.000263498
0.00590712
0.000237773
0.00591481
0.000212993
0.00592241
0.000189215
0.00592992
0.000166478
0.00593731
0.000144806
0.00594458
0.000124207
0.00595172
0.000104681
0.00595871
8.62133e-05
0.00596556
6.87826e-05
0.00597228
5.23599e-05
0.00597885
3.69119e-05
0.00598529
2.2401e-05
0.0059916
8.78779e-06
0.0059978
-3.96932e-06
0.00600388
-1.59119e-05
0.00600986
-2.70819e-05
0.00601576
-3.75211e-05
0.00602157
-4.72706e-05
0.00602732
-5.63708e-05
0.006033
-6.48621e-05
0.00603865
-7.27832e-05
0.00604425
-8.01732e-05
0.00604983
-8.70695e-05
0.00605539
-9.35092e-05
0.00606095
-9.95278e-05
0.0060665
-0.00010516
0.00607207
-0.000110439
0.00607765
-0.000115397
0.00608326
-0.000120063
0.0060889
-0.000124467
0.00609457
-0.000128634
0.00610029
-0.000132591
0.00610606
-0.00013636
0.00611188
-0.000139962
0.00611776
-0.000143418
0.0061237
-0.000146746
0.0061297
-0.000149962
0.00613577
-0.000153083
0.00614192
-0.000156121
0.00614814
-0.000159092
0.00615444
-0.000162002
0.00616081
-0.000164871
0.00616728
-0.000167691
0.00617382
-0.000170503
0.00618046
-0.000173254
-0.000176076
0.00588501
0.000454719
0.0058923
0.000425128
0.00589977
0.000395684
0.00590736
0.000366549
0.00591501
0.000337871
0.0059227
0.000309787
0.00593038
0.000282417
0.00593802
0.000255864
0.00594557
0.000230215
0.00595303
0.000205538
0.00596036
0.000181885
0.00596755
0.000159292
0.00597457
0.000137776
0.00598144
0.000117345
0.00598813
9.79925e-05
0.00599464
7.97015e-05
0.00600097
6.24477e-05
0.00600713
4.61997e-05
0.00601312
3.09217e-05
0.00601895
1.65747e-05
0.00602462
3.11705e-06
0.00603014
-9.49321e-06
0.00603553
-2.12994e-05
0.00604079
-3.23438e-05
0.00604594
-4.26686e-05
0.00605099
-5.23153e-05
0.00605594
-6.13244e-05
0.00606081
-6.9736e-05
0.00606562
-7.75889e-05
0.00607037
-8.49215e-05
0.00607507
-9.17714e-05
0.00607973
-9.81745e-05
0.00608437
-0.000104166
0.00608899
-0.000109781
0.0060936
-0.000115051
0.00609822
-0.000120007
0.00610283
-0.00012468
0.00610746
-0.000129096
0.00611211
-0.000133283
0.00611678
-0.000137264
0.00612149
-0.000141063
0.00612623
-0.000144701
0.006131
-0.000148196
0.00613583
-0.000151568
0.0061407
-0.000154832
0.00614562
-0.000158004
0.00615059
-0.000161096
0.00615563
-0.000164124
0.00616072
-0.000167094
0.00616587
-0.000170025
0.00617109
-0.000172911
0.00617638
-0.000175789
0.00618173
-0.00017861
-0.0001815
0.00592137
0.000447265
0.00592897
0.000417524
0.00593667
0.000387982
0.00594443
0.000358795
0.00595219
0.00033011
0.00595992
0.00030206
0.00596757
0.00027476
0.00597513
0.000248311
0.00598255
0.000222794
0.00598981
0.000198273
0.0059969
0.000174796
0.0060038
0.000152393
0.0060105
0.00013108
0.00601698
0.000110859
0.00602325
9.17198e-05
0.00602931
7.36434e-05
0.00603516
5.66022e-05
0.00604079
4.05629e-05
0.00604623
2.54871e-05
0.00605147
1.13339e-05
0.00605653
-1.93871e-06
0.00606141
-1.43749e-05
0.00606613
-2.60183e-05
0.00607069
-3.69119e-05
0.00607512
-4.70982e-05
0.00607943
-5.66186e-05
0.00608362
-6.55142e-05
0.00608771
-7.38244e-05
0.0060917
-8.1588e-05
0.00609563
-8.8843e-05
0.00609948
-9.56262e-05
0.00610328
-0.000101973
0.00610703
-0.000107919
0.00611075
-0.000113498
0.00611444
-0.00011874
0.00611811
-0.000123677
0.00612177
-0.000128337
0.00612542
-0.000132749
0.00612907
-0.000136937
0.00613274
-0.000140927
0.00613641
-0.000144739
0.0061401
-0.000148394
0.00614382
-0.000151912
0.00614756
-0.000155311
0.00615134
-0.000158605
0.00615514
-0.000161811
0.00615899
-0.00016494
0.00616287
-0.000168007
0.0061668
-0.00017102
0.00617077
-0.000173996
0.00617478
-0.000176929
0.00617885
-0.000179855
0.00618297
-0.000182729
-0.000185669
0.00595585
0.000439362
0.00596382
0.000409549
0.00597182
0.000379982
0.0059798
0.000350817
0.00598771
0.000322195
0.00599553
0.000294246
0.0060032
0.000267082
0.00601072
0.000240798
0.00601804
0.000215472
0.00602515
0.000191162
0.00603203
0.000167913
0.00603867
0.00014575
0.00604507
0.000124686
0.00605121
0.000104718
0.0060571
8.58335e-05
0.00606273
6.80105e-05
0.00606811
5.12184e-05
0.00607325
3.54217e-05
0.00607816
2.05802e-05
0.00608284
6.65182e-06
0.00608731
-6.40706e-06
0.00609158
-1.86416e-05
0.00609566
-3.0096e-05
0.00609956
-4.08138e-05
0.0061033
-5.08375e-05
0.00610689
-6.02091e-05
0.00611034
-6.89689e-05
0.00611367
-7.71563e-05
0.0061169
-8.48099e-05
0.00612002
-9.19673e-05
0.00612306
-9.86643e-05
0.00612602
-0.000104937
0.00612892
-0.000110818
0.00613176
-0.000116341
0.00613456
-0.000121538
0.00613732
-0.000126438
0.00614006
-0.00013107
0.00614277
-0.000135459
0.00614546
-0.000139632
0.00614815
-0.000143612
0.00615083
-0.000147421
0.00615351
-0.000151077
0.0061562
-0.000154601
0.0061589
-0.00015801
0.00616161
-0.000161318
0.00616434
-0.000164541
0.0061671
-0.00016769
0.00616987
-0.000170781
0.00617267
-0.000173819
0.00617549
-0.000176822
0.00617835
-0.000179786
0.00618124
-0.000182743
0.00618416
-0.000185652
-0.000188625
0.00598004
0.000460876
0.00598846
0.000430944
0.00599687
0.000401141
0.00600522
0.000371629
0.00601348
0.000342562
0.00602159
0.000314078
0.00602954
0.000286302
0.00603728
0.000259341
0.00604479
0.000233287
0.00605205
0.000208211
0.00605904
0.000184171
0.00606575
0.000161203
0.00607217
0.000139332
0.00607829
0.000118563
0.00608412
9.88932e-05
0.00608965
8.03055e-05
0.00609488
6.27747e-05
0.00609983
4.62685e-05
0.0061045
3.0749e-05
0.00610891
1.61745e-05
0.00611306
2.50088e-06
0.00611697
-1.03148e-05
0.00612065
-2.23207e-05
0.00612411
-3.35601e-05
0.00612737
-4.40773e-05
0.00613045
-5.3915e-05
0.00613336
-6.31148e-05
0.00613611
-7.17171e-05
0.00613871
-7.9761e-05
0.00614118
-8.72843e-05
0.00614354
-9.43242e-05
0.00614579
-0.000100916
0.00614795
-0.000107095
0.00615003
-0.000112894
0.00615203
-0.000118345
0.00615397
-0.000123479
0.00615586
-0.000128324
0.0061577
-0.00013291
0.0061595
-0.000137261
0.00616127
-0.000141402
0.00616301
-0.000145356
0.00616474
-0.000149145
0.00616645
-0.000152787
0.00616815
-0.0001563
0.00616984
-0.000159703
0.00617153
-0.000163008
0.00617322
-0.000166232
0.00617492
-0.000169386
0.00617662
-0.000172483
0.00617833
-0.000175531
0.00618005
-0.000178545
0.00618179
-0.000181523
0.00618354