/*--------------------------------*- C++ -*----------------------------------*\
  =========                 |
  \\      /  F ield         | OpenFOAM: The Open Source CFD Toolbox
   \\    /   O peration     | Website:  https://openfoam.org
    \\  /    A nd           | Version:  7
     \\/     M anipulation  |
\*---------------------------------------------------------------------------*/
FoamFile
{
    version     2.0;
    format      ascii;
    class       volVectorField;
    location    "50";
    object      U;
}
// * * * * * * * * * * * * * * * * * * * * * * * * * * * * * * * * * * * * * //

dimensions      [0 1 -1 0 0 0 0];

internalField   nonuniform List<vector> 
42000
(
(-0.000834951 0.000172376 1.04341e-21)
(-0.00273946 0.000174428 -3.41747e-21)
(-0.00403406 2.73616e-05 1.77837e-21)
(-0.0032731 -0.000207665 -1.01478e-22)
(-0.000449659 -0.000476621 -3.27556e-21)
(0.00452344 -0.00075891 3.90551e-21)
(0.0114657 -0.00103866 3.42141e-21)
(0.0202014 -0.0013097 2.29687e-21)
(0.0305322 -0.00156825 -1.78973e-21)
(0.0422748 -0.00181333 2.29748e-21)
(0.0552645 -0.0020448 9.7211e-22)
(0.069356 -0.00226297 8.22887e-23)
(0.0844198 -0.00246778 -1.43255e-21)
(0.100339 -0.00265828 1.56423e-21)
(0.11699 -0.00283161 3.42002e-21)
(0.134255 -0.00298267 1.28167e-21)
(0.151931 -0.00310092 -2.59492e-21)
(0.169906 -0.00317631 -8.41307e-22)
(0.187609 -0.00317337 2.39137e-21)
(0.205213 -0.00312389 7.52429e-22)
(-0.000844346 0.00051524 2.95703e-21)
(-0.00272273 0.000519692 -1.46748e-21)
(-0.00395896 7.8002e-05 3.61414e-21)
(-0.0031245 -0.00062698 -1.6766e-21)
(-0.000215839 -0.00143331 1.23174e-20)
(0.00484872 -0.0022794 -1.50405e-22)
(0.0118872 -0.00311771 6.20497e-21)
(0.0207223 -0.00392974 -4.67089e-21)
(0.0311549 -0.00470422 6.07672e-21)
(0.0430011 -0.00543822 5.79825e-21)
(0.0560959 -0.00613131 -2.02991e-21)
(0.0702935 -0.00678443 4.72447e-21)
(0.0854644 -0.00739743 -9.61134e-21)
(0.101491 -0.00796748 -1.04969e-20)
(0.11825 -0.00848602 2.09425e-21)
(0.135623 -0.00893776 -4.2953e-21)
(0.153406 -0.00929122 3.40908e-21)
(0.171492 -0.00951604 -5.02021e-21)
(0.189285 -0.0095064 2.12395e-21)
(0.207034 -0.00935525 3.49172e-21)
(-0.000862868 0.000852503 -1.97148e-20)
(-0.00268873 0.000854171 -7.12145e-21)
(-0.00380816 0.000116248 -1.28606e-20)
(-0.00282671 -0.00105845 2.56931e-21)
(0.000252325 -0.0024006 -1.62645e-20)
(0.00549969 -0.00380818 -9.35169e-21)
(0.0127306 -0.00520217 -1.63651e-20)
(0.0217642 -0.00655197 -8.30719e-21)
(0.0324001 -0.00783885 1.87791e-21)
(0.0444533 -0.009058 -9.66047e-21)
(0.0577578 -0.0102087 -1.0735e-20)
(0.0721674 -0.0112926 2.26309e-21)
(0.087552 -0.0123095 1.05598e-20)
(0.103794 -0.0132547 1.19449e-20)
(0.120768 -0.014114 3.43991e-21)
(0.138357 -0.0148622 9.06262e-21)
(0.156352 -0.0154469 -1.2734e-20)
(0.174658 -0.015817 -8.77332e-21)
(0.192633 -0.0157982 1.13061e-20)
(0.210671 -0.0155372 2.26061e-21)
(-0.000889984 0.00118051 1.28101e-20)
(-0.00263642 0.00117074 1.1014e-20)
(-0.00358045 0.000133875 1.41348e-20)
(-0.00237852 -0.00151015 2.2079e-20)
(0.000955879 -0.00338552 2.04013e-20)
(0.00647714 -0.00535074 1.23657e-21)
(0.0139963 -0.00729564 2.991e-22)
(0.0233272 -0.00917782 1.94086e-20)
(0.0342675 -0.0109712 -8.2523e-21)
(0.0466303 -0.0126693 1.09684e-20)
(0.0602487 -0.014271 6.75986e-21)
(0.0749755 -0.0157787 -2.05798e-20)
(0.0906795 -0.0171923 -4.78426e-21)
(0.107242 -0.0185052 -2.25716e-20)
(0.124538 -0.0196981 -1.64366e-20)
(0.14245 -0.0207354 8.12391e-21)
(0.160763 -0.0215448 5.48954e-21)
(0.179397 -0.0220536 5.85856e-21)
(0.197641 -0.0220214 -1.67578e-20)
(0.21611 -0.0216371 -8.97121e-21)
(-0.000924906 0.00149567 -3.94716e-21)
(-0.00256425 0.00146239 1.12759e-20)
(-0.00327403 0.000122818 2.14266e-20)
(-0.00177815 -0.00198999 -2.2263e-20)
(0.00189639 -0.00439493 -3.90372e-20)
(0.00778229 -0.00691241 -7.23465e-21)
(0.015685 -0.00940156 -2.89242e-21)
(0.0254113 -0.0118086 1.55284e-20)
(0.0367564 -0.0141003 -5.10178e-21)
(0.0495309 -0.0162684 -3.06027e-20)
(0.0635663 -0.0183119 -2.81809e-20)
(0.0787143 -0.0202338 1.71415e-20)
(0.0948424 -0.022034 1.08095e-20)
(0.111832 -0.0237045 3.21058e-20)
(0.129553 -0.0252206 2.24053e-20)
(0.147893 -0.0265371 -1.57605e-20)
(0.166626 -0.027562 -8.38186e-21)
(0.185694 -0.0282 2.21816e-20)
(0.204295 -0.028149 6.96933e-21)
(0.223333 -0.0276225 -2.63877e-21)
(-0.00096659 0.00179445 -3.05255e-21)
(-0.00247014 0.00172228 -3.74761e-20)
(-0.00288649 7.52136e-05 -4.84667e-20)
(-0.00102321 -0.00250563 -6.36382e-21)
(0.00307594 -0.00543546 2.47386e-20)
(0.00941674 -0.00849829 8.71786e-21)
(0.0177977 -0.0115231 9.96828e-21)
(0.0280168 -0.0144454 -1.46784e-20)
(0.0398662 -0.0172249 2.58278e-20)
(0.0531531 -0.0198519 -9.88145e-21)
(0.0677076 -0.0223252 4.16428e-20)
(0.0833794 -0.0246488 -5.21658e-21)
(0.100035 -0.0268228 -1.0823e-20)
(0.117553 -0.0288378 -2.06756e-21)
(0.135804 -0.0306641 -1.24256e-20)
(0.154674 -0.0322471 -5.10608e-21)
(0.173927 -0.0334757 1.45839e-20)
(0.193533 -0.034231 -1.42573e-20)
(0.212574 -0.034154 1.5939e-20)
(0.232315 -0.0334614 1.51224e-20)
(-0.00101375 0.00207345 1.94642e-20)
(-0.00235155 0.00194377 1.68131e-20)
(-0.00241488 -1.65522e-05 2.44596e-20)
(-0.000110761 -0.00306447 3.08829e-20)
(0.00449711 -0.00651348 4.1014e-20)
(0.0113824 -0.0101132 1.29953e-20)
(0.0203355 -0.0136633 -9.14666e-21)
(0.0311438 -0.017089 5.60421e-21)
(0.0435957 -0.0203434 -1.34682e-20)
(0.0574947 -0.0234156 1.89189e-20)
(0.0726685 -0.0263045 -2.35813e-20)
(0.088965 -0.0290147 9.39499e-21)
(0.106248 -0.031547 1.07277e-20)
(0.124397 -0.0338904 6.88374e-21)
(0.143277 -0.0360111 -1.6393e-20)
(0.162777 -0.037845 1.6818e-20)
(0.182647 -0.0392633 -1.48232e-20)
(0.202891 -0.0401214 1.04778e-20)
(0.222453 -0.04001 -7.35789e-21)
(0.243024 -0.0391225 -1.88642e-20)
(-0.00106484 0.00232935 -2.70208e-20)
(-0.00220543 0.00212046 1.32384e-20)
(-0.00185566 -0.000159788 -1.79641e-21)
(0.000962695 -0.0036736 -1.89717e-20)
(0.00616294 -0.00763501 -5.14361e-20)
(0.0136818 -0.0117617 3.84386e-20)
(0.0232998 -0.0158247 1.30332e-20)
(0.0347926 -0.01974 -2.21981e-21)
(0.0479439 -0.0234543 -3.60462e-21)
(0.0625528 -0.0269557 -1.68764e-20)
(0.0784445 -0.030243 3.7886e-20)
(0.0954643 -0.0333223 5.49583e-21)
(0.113474 -0.0361944 2.1416e-21)
(0.132351 -0.0388478 -4.85064e-21)
(0.151958 -0.0412442 2.15356e-20)
(0.172184 -0.0433109 -1.42858e-23)
(0.192765 -0.0449024 2.77348e-21)
(0.213743 -0.0458463 -3.98152e-21)
(0.2339 -0.0456911 -2.28911e-20)
(0.255424 -0.0445751 1.37168e-20)
(-0.00111812 0.00255899 2.63579e-20)
(-0.00202829 0.00224623 5.29417e-20)
(-0.00120476 -0.000361448 -6.25737e-20)
(0.0022012 -0.00433969 -4.95208e-20)
(0.00807698 -0.00880566 6.08822e-20)
(0.0163174 -0.0134478 -4.53177e-20)
(0.0266922 -0.0180096 9.38097e-21)
(0.0389633 -0.0223986 -7.98772e-21)
(0.0529092 -0.0265555 -4.26817e-20)
(0.068324 -0.0304676 4.34555e-20)
(0.08503 -0.0341341 -5.3909e-20)
(0.10287 -0.0375621 2.81217e-20)
(0.121702 -0.0407532 -2.08886e-21)
(0.141402 -0.0436951 3.86202e-20)
(0.161829 -0.0463461 -3.95403e-21)
(0.182874 -0.0486249 -2.20404e-20)
(0.204254 -0.0503707 -4.38726e-21)
(0.226056 -0.0513814 -9.79966e-21)
(0.246881 -0.0511719 -2.02456e-21)
(0.269469 -0.0497894 -9.96047e-21)
(-0.00117158 0.00275939 2.6975e-20)
(-0.00181617 0.00231531 -8.13837e-20)
(-0.000457586 -0.000628075 9.1898e-21)
(0.00360932 -0.00506899 9.41432e-20)
(0.0102432 -0.0100306 -2.26648e-20)
(0.0192924 -0.0151752 -4.76586e-21)
(0.0305145 -0.0202198 1.09205e-20)
(0.0436561 -0.0250646 -8.51255e-21)
(0.0584901 -0.0296447 4.01775e-20)
(0.0748047 -0.0339468 4.93612e-20)
(0.0924187 -0.0379706 8.93333e-20)
(0.111171 -0.0417246 6.07287e-21)
(0.130919 -0.0452113 -5.38606e-20)
(0.151534 -0.0484177 -1.60964e-20)
(0.17287 -0.0512995 -1.82424e-21)
(0.194821 -0.0537671 6.30662e-21)
(0.217085 -0.0556463 2.3831e-20)
(0.239796 -0.0567026 -1.49049e-20)
(0.261353 -0.0564274 3.51803e-20)
(0.285111 -0.0547365 2.55932e-20)
(-0.00122305 0.00292772 -7.54505e-20)
(-0.0015647 0.00232227 4.50391e-20)
(0.000390947 -0.00096576 2.11289e-20)
(0.00519208 -0.00586723 -4.09906e-20)
(0.0126659 -0.0113145 -6.88627e-22)
(0.02261 -0.016947 -3.78027e-21)
(0.0347685 -0.0224567 -5.55853e-20)
(0.0488712 -0.0277374 -7.1715e-21)
(0.0646846 -0.0327189 -6.82786e-20)
(0.0819904 -0.0373881 -2.85059e-20)
(0.100604 -0.0417451 -2.43274e-20)
(0.12036 -0.0458 -4.54965e-20)
(0.141111 -0.0495563 -1.60617e-20)
(0.162728 -0.0530009 -2.07631e-20)
(0.185059 -0.0560873 -3.5843e-21)
(0.207999 -0.0587182 2.82722e-20)
(0.231225 -0.0607078 8.90402e-21)
(0.254923 -0.0617864 1.94494e-20)
(0.277273 -0.0614337 -2.91061e-20)
(0.302293 -0.059389 -1.52736e-20)
(-0.00127013 0.00306137 6.15667e-20)
(-0.0012691 0.00226208 -4.8158e-20)
(0.0013464 -0.00138009 -2.61444e-20)
(0.00695501 -0.0067396 -1.38012e-21)
(0.0153501 -0.0126614 -7.86163e-20)
(0.0262739 -0.0187659 -4.41033e-20)
(0.0394563 -0.0247211 4.66605e-20)
(0.0546087 -0.0304157 -1.63328e-20)
(0.0714905 -0.0357751 7.33293e-20)
(0.0898763 -0.0407862 -4.01717e-20)
(0.109577 -0.0454501 -7.4705e-20)
(0.130423 -0.0497783 2.29405e-20)
(0.152264 -0.0537759 1.5545e-20)
(0.174965 -0.0574301 -3.09634e-20)
(0.198371 -0.0606924 -2.26841e-20)
(0.222377 -0.0634589 -2.74658e-20)
(0.246636 -0.065534 -5.43958e-20)
(0.271393 -0.0666098 1.3755e-20)
(0.294588 -0.0661674 -4.61394e-20)
(0.320953 -0.0637205 3.68337e-20)
(-0.00131025 0.00315793 3.92472e-20)
(-0.000924246 0.00213013 8.67367e-20)
(0.00241477 -0.00187613 8.91813e-21)
(0.00890404 -0.00769069 -1.56695e-21)
(0.0183007 -0.0140748 1.01331e-19)
(0.030288 -0.0206339 7.06693e-20)
(0.0445801 -0.0270133 4.47039e-20)
(0.0608686 -0.033098 9.32874e-20)
(0.0789052 -0.0388095 -1.80346e-20)
(0.0984569 -0.0441352 6.49197e-20)
(0.119329 -0.0490774 9.11607e-20)
(0.141348 -0.0536494 -6.6746e-20)
(0.164359 -0.0578578 -1.58561e-20)
(0.188222 -0.0616904 -1.96861e-21)
(0.212777 -0.0650981 4.97637e-20)
(0.23792 -0.0679701 2.84717e-20)
(0.263278 -0.0701043 9.96654e-20)
(0.289158 -0.0711507 -5.24051e-20)
(0.313243 -0.0706062 3.46779e-20)
(0.341024 -0.0677065 -5.88705e-20)
(-0.00134065 0.00321514 -8.30711e-20)
(-0.000524642 0.00192237 -7.24422e-20)
(0.00360246 -0.00245834 -6.08383e-22)
(0.0110455 -0.00872445 3.21678e-20)
(0.0215233 -0.0155575 -1.04568e-19)
(0.0346563 -0.0225521 -3.67736e-20)
(0.050142 -0.0293327 2.05703e-21)
(0.0676508 -0.035782 -4.34197e-20)
(0.086926 -0.0418178 6.84879e-20)
(0.107726 -0.047429 -4.88031e-20)
(0.129851 -0.0526188 -7.91591e-20)
(0.153122 -0.0574028 4.40177e-20)
(0.177378 -0.0617894 -5.15669e-21)
(0.202476 -0.0657674 4.75497e-20)
(0.228248 -0.0692876 -6.44158e-20)
(0.254593 -0.0722335 3.24226e-20)
(0.281108 -0.0743984 -6.08669e-20)
(0.308166 -0.0753875 1.62708e-20)
(0.333178 -0.0747285 -2.68957e-20)
(0.36243 -0.0713239 1.87463e-20)
(-0.00135837 0.00323088 4.34068e-21)
(-6.45157e-05 0.00163532 -2.6559e-20)
(0.00491624 -0.00313055 6.25599e-20)
(0.0133861 -0.00984412 -3.05962e-20)
(0.0250237 -0.0171116 8.50874e-20)
(0.0393832 -0.0245214 2.7827e-20)
(0.0561443 -0.0316784 -7.30637e-20)
(0.074955 -0.0384647 1.17002e-21)
(0.0955497 -0.0447953 -1.68861e-20)
(0.117677 -0.0506606 -8.93052e-20)
(0.141132 -0.0560655 7.5174e-20)
(0.165728 -0.0610278 -8.65721e-21)
(0.191301 -0.0655581 -3.91536e-21)
(0.217701 -0.0696464 -3.62095e-20)
(0.244752 -0.0732445 7.24022e-20)
(0.272354 -0.0762307 -5.82542e-20)
(0.300076 -0.0783969 -3.80506e-20)
(0.328359 -0.0792995 1.10442e-20)
(0.354329 -0.0785141 3.41553e-20)
(0.385094 -0.0745515 5.08452e-20)
(-0.00136033 0.00320361 1.74348e-20)
(0.000462319 0.00126572 -1.76795e-20)
(0.00636319 -0.00389597 2.49759e-20)
(0.0159329 -0.0110523 -9.82137e-20)
(0.0288079 -0.0187385 6.96697e-20)
(0.044473 -0.0265415 -2.55664e-20)
(0.0625892 -0.0340486 3.42985e-20)
(0.0827809 -0.0411427 3.26926e-20)
(0.104773 -0.0477366 -3.36415e-20)
(0.128303 -0.053823 7.74103e-20)
(0.15316 -0.0594085 -5.20972e-20)
(0.179152 -0.0645135 -2.31724e-20)
(0.206105 -0.0691511 -3.4026e-20)
(0.233867 -0.0733129 2.60622e-20)
(0.262253 -0.0769527 -5.6143e-21)
(0.291162 -0.0799441 5.76429e-20)
(0.320132 -0.0820809 3.12736e-20)
(0.349676 -0.082867 6.04489e-21)
(0.376625 -0.0819438 -1.91438e-20)
(0.408931 -0.0773703 -7.85634e-21)
(-0.00134348 0.00313209 2.5889e-20)
(0.00106225 0.000810779 1.07997e-19)
(0.00795075 -0.0047571 -8.09056e-20)
(0.0186931 -0.0123506 1.02918e-19)
(0.0328821 -0.0204387 -1.66739e-19)
(0.0499303 -0.0286115 -2.89397e-20)
(0.0694791 -0.0364407 -3.62397e-22)
(0.0911279 -0.0438116 -7.45212e-20)
(0.114591 -0.0506356 9.43409e-21)
(0.139596 -0.0569083 1.53706e-20)
(0.165923 -0.0626383 1.02936e-20)
(0.193374 -0.0678488 -4.23905e-20)
(0.221768 -0.0725556 2.86473e-20)
(0.250946 -0.0767526 -2.71725e-20)
(0.280714 -0.0803963 -1.31387e-19)
(0.310971 -0.0833564 7.36423e-21)
(0.341222 -0.0854321 -4.69804e-21)
(0.372054 -0.0860711 -3.94842e-20)
(0.399993 -0.0849995 2.48856e-20)
(0.433852 -0.0797632 -2.45801e-20)
(-0.00130454 0.00301501 -1.85451e-20)
(0.00174183 0.000268587 -7.58214e-21)
(0.00968659 -0.00571571 8.00375e-21)
(0.0216744 -0.0137402 4.5941e-20)
(0.0372528 -0.022212 8.32878e-20)
(0.0557597 -0.0307299 9.4964e-20)
(0.0768159 -0.0388514 -7.60883e-20)
(0.0999949 -0.0464665 3.73607e-20)
(0.124999 -0.0534858 -4.69085e-20)
(0.151546 -0.0599082 -4.85479e-20)
(0.179407 -0.0657449 -1.03696e-20)
(0.208376 -0.0710221 6.27376e-20)
(0.238264 -0.0757588 -4.59839e-21)
(0.268905 -0.0799513 -2.00845e-20)
(0.300094 -0.0835599 3.63113e-20)
(0.331731 -0.0864511 -7.68688e-20)
(0.363287 -0.0884334 7.17583e-21)
(0.395423 -0.0888944 3.38886e-20)
(0.424355 -0.0876647 -9.34695e-22)
(0.459761 -0.0817155 -2.59913e-20)
(-0.00124012 0.00285139 -3.86637e-20)
(0.00250779 -0.000362248 -5.18142e-20)
(0.0115786 -0.00677287 -8.59456e-21)
(0.0248844 -0.0152211 -3.54343e-20)
(0.0419265 -0.0240572 -5.2578e-20)
(0.0619658 -0.0328939 -1.0056e-19)
(0.0846018 -0.0412766 8.84399e-20)
(0.109381 -0.0491016 -6.50392e-20)
(0.135994 -0.0562797 7.46643e-20)
(0.164145 -0.0628139 5.96498e-20)
(0.193598 -0.068718 2.88652e-21)
(0.224137 -0.0740219 1.00169e-19)
(0.255566 -0.0787477 1.38112e-20)
(0.287709 -0.0828948 1.16772e-19)
(0.320351 -0.0864284 8.61571e-20)
(0.353392 -0.0892124 9.26233e-20)
(0.386267 -0.0910682 -8.0451e-21)
(0.419711 -0.0913203 4.93386e-21)
(0.44963 -0.0899242 -2.78211e-20)
(0.486562 -0.083215 2.51706e-20)
(-0.00114678 0.00264061 2.59825e-20)
(0.00336707 -0.00108257 -3.28732e-21)
(0.0136348 -0.00792884 -2.5668e-20)
(0.028331 -0.0167926 -6.29522e-20)
(0.0469098 -0.0259724 7.49248e-20)
(0.0685531 -0.0351001 3.86547e-20)
(0.0928384 -0.0437113 -1.18877e-19)
(0.119284 -0.0517105 3.86189e-20)
(0.147568 -0.0590094 -2.57339e-20)
(0.177382 -0.0656159 3.65961e-20)
(0.20848 -0.071547 9.81227e-20)
(0.240636 -0.0768362 -1.02245e-19)
(0.273644 -0.0815094 4.98868e-20)
(0.307322 -0.0855695 -1.02847e-19)
(0.341441 -0.0889872 -3.54578e-20)
(0.375899 -0.091625 -1.41188e-19)
(0.410096 -0.0933213 -1.20763e-20)
(0.444843 -0.0933337 4.51229e-20)
(0.475732 -0.0917643 6.96085e-21)
(0.514153 -0.0842519 -7.71027e-21)
(-0.00102102 0.00238228 2.5746e-20)
(0.00432671 -0.00189264 1.20026e-19)
(0.0158634 -0.00918316 1.20824e-19)
(0.0320221 -0.0184532 6.02253e-21)
(0.0522092 -0.0279546 3.80857e-20)
(0.075526 -0.0373442 -7.70132e-20)
(0.101527 -0.0461498 1.36881e-19)
(0.129703 -0.0542859 9.07961e-21)
(0.159716 -0.0616663 -8.48314e-20)
(0.191246 -0.0683043 -4.79599e-20)
(0.224035 -0.0742207 -1.91337e-19)
(0.257849 -0.0794529 1.40663e-20)
(0.29247 -0.084031 -1.54117e-20)
(0.327705 -0.0879617 -6.90014e-20)
(0.363316 -0.0912225 -3.05508e-20)
(0.399196 -0.0936749 1.85534e-20)
(0.434709 -0.0951783 4.49347e-20)
(0.47074 -0.0949211 -3.98801e-20)
(0.502575 -0.0931729 -3.03051e-20)
(0.542428 -0.0848189 -5.78571e-20)
(-0.000859306 0.00207635 -5.94724e-20)
(0.00539383 -0.00279209 7.38507e-21)
(0.0182726 -0.0105345 -6.282e-20)
(0.0359658 -0.0202004 -4.19752e-20)
(0.0578315 -0.0300001 -1.72617e-19)
(0.082889 -0.039621 5.04324e-21)
(0.11067 -0.0485853 -3.13838e-20)
(0.140634 -0.0568197 8.70989e-21)
(0.172431 -0.0642409 6.03196e-20)
(0.205725 -0.0708687 -4.74699e-21)
(0.240247 -0.0767277 2.68011e-20)
(0.275751 -0.0818599 3.44965e-20)
(0.31201 -0.0862999 -4.00072e-21)
(0.348819 -0.0900585 1.20814e-20)
(0.385927 -0.0931209 -5.47488e-20)
(0.423222 -0.0953486 1.5539e-20)
(0.460036 -0.0966264 -2.50598e-20)
(0.49732 -0.0960703 -4.83808e-20)
(0.530066 -0.0941398 1.58617e-20)
(0.571281 -0.0849115 5.50773e-20)
(-0.000658076 0.00172302 -4.2272e-20)
(0.00657561 -0.00377994 -1.83158e-19)
(0.0208708 -0.0119809 -1.0543e-19)
(0.04017 -0.0220308 1.36583e-19)
(0.0637829 -0.032104 5.69438e-20)
(0.090646 -0.0419242 2.77258e-20)
(0.120267 -0.0510102 -5.16786e-20)
(0.152075 -0.059303 -6.92929e-20)
(0.185705 -0.0667232 -8.77194e-20)
(0.220805 -0.0732978 1.15609e-19)
(0.257095 -0.0790561 5.30209e-20)
(0.294317 -0.0840448 3.84699e-20)
(0.332231 -0.0883033 -1.14216e-19)
(0.370621 -0.0918472 -3.97573e-20)
(0.409222 -0.09467 1.06336e-19)
(0.447917 -0.0966341 2.22653e-20)
(0.486004 -0.0976538 4.12933e-22)
(0.5245 -0.0967709 5.68245e-20)
(0.558113 -0.0946562 5.361e-20)
(0.600601 -0.0845275 1.05449e-21)
(-0.000413759 0.00132276 1.05183e-20)
(0.00787921 -0.00485459 9.27053e-20)
(0.0236661 -0.0135193 2.48911e-19)
(0.0446425 -0.0239402 -5.03833e-20)
(0.0700698 -0.0342607 1.58285e-19)
(0.0988008 -0.0442468 -1.96503e-20)
(0.130319 -0.053416 -6.84185e-21)
(0.164022 -0.0617261 1.3748e-19)
(0.199529 -0.0691025 1.03195e-19)
(0.236473 -0.0755803 -8.20811e-20)
(0.27456 -0.0811938 -1.02305e-19)
(0.313518 -0.0859951 -2.66427e-20)
(0.353096 -0.0900288 2.31429e-20)
(0.393066 -0.0933155 -2.29306e-20)
(0.433147 -0.095858 -8.91036e-20)
(0.473217 -0.0975205 7.30183e-21)
(0.51254 -0.0982504 3.91086e-20)
(0.552193 -0.0970142 -1.61106e-20)
(0.586621 -0.0947155 1.49999e-20)
(0.630278 -0.0836676 5.0855e-20)
(-0.000122793 0.000876359 -1.4106e-20)
(0.00931179 -0.00601383 -1.59005e-19)
(0.0266667 -0.0151462 -2.46536e-20)
(0.0493912 -0.0259234 -5.34334e-20)
(0.0766982 -0.0364636 -2.2176e-19)
(0.107357 -0.0465807 -4.73806e-20)
(0.140826 -0.0557936 1.68459e-20)
(0.176471 -0.0640787 -9.33948e-20)
(0.213895 -0.0713675 1.29251e-19)
(0.252713 -0.077704 5.05135e-20)
(0.292618 -0.0831283 1.04906e-19)
(0.333326 -0.0876984 -2.64809e-20)
(0.374569 -0.0914642 1.52966e-19)
(0.416108 -0.0944519 7.44977e-21)
(0.457647 -0.0966744 1.02176e-19)
(0.499055 -0.0979981 3.38637e-20)
(0.539567 -0.0984076 -2.40564e-20)
(0.580312 -0.0967935 5.38331e-21)
(0.615493 -0.0943129 -3.86358e-20)
(0.660202 -0.0823348 -5.25192e-20)
(0.000218358 0.000384852 6.84681e-20)
(0.0108804 -0.00725481 1.85101e-19)
(0.0298808 -0.016857 -2.16508e-19)
(0.0544236 -0.0279742 3.80729e-20)
(0.0836738 -0.038705 1.85345e-19)
(0.116317 -0.0489171 1.86516e-19)
(0.151787 -0.0581327 9.61795e-20)
(0.189416 -0.0663494 -1.82387e-20)
(0.228791 -0.073506 -1.63126e-19)
(0.269509 -0.0796565 -6.30241e-20)
(0.311248 -0.0848471 6.47145e-20)
(0.353708 -0.0891422 -9.02924e-20)
(0.396611 -0.0925978 -1.54745e-19)
(0.4397 -0.0952458 -1.26983e-20)
(0.482664 -0.0971096 -4.17544e-20)
(0.525364 -0.0980588 7.14476e-21)
(0.567008 -0.0981186 4.71916e-20)
(0.608766 -0.096104 -7.62203e-20)
(0.644635 -0.0934455 -6.9326e-20)
(0.690261 -0.0805347 -2.45538e-20)
(0.000613192 -0.000150441 1.59806e-19)
(0.012592 -0.00857409 -5.0368e-20)
(0.0333161 -0.0186463 3.98603e-21)
(0.0597469 -0.0300858 7.29825e-20)
(0.0910021 -0.0409765 4.55202e-20)
(0.125684 -0.0512459 -2.71728e-20)
(0.163201 -0.0604223 -5.60714e-20)
(0.202852 -0.0685264 1.77374e-19)
(0.244207 -0.0755056 4.74397e-21)
(0.286843 -0.0814248 -9.89265e-20)
(0.330424 -0.0863374 -9.18647e-20)
(0.374634 -0.0903143 6.73011e-20)
(0.41918 -0.0934181 -1.70719e-20)
(0.46379 -0.0956869 1.33111e-19)
(0.508139 -0.0971551 -1.57256e-20)
(0.552075 -0.0976961 -8.24104e-20)
(0.594783 -0.0973783 -4.60804e-20)
(0.637467 -0.0949431 1.9348e-20)
(0.673948 -0.0921123 1.40324e-20)
(0.720345 -0.0782748 -1.29631e-20)
(0.00106515 -0.000727933 -1.42468e-19)
(0.0144535 -0.00996761 2.54189e-20)
(0.0369804 -0.0205082 4.91e-20)
(0.065368 -0.0322503 -8.79053e-20)
(0.098688 -0.0432686 -9.54505e-20)
(0.13546 -0.0535564 -1.01071e-19)
(0.175066 -0.0626505 -1.39138e-21)
(0.216772 -0.070597 -4.18211e-20)
(0.26013 -0.0773531 -4.68336e-20)
(0.304696 -0.0829958 9.16749e-20)
(0.35012 -0.0875861 1.18646e-19)
(0.396069 -0.0912025 1.15817e-19)
(0.442234 -0.0939144 1.82997e-19)
(0.488328 -0.0957663 -1.38839e-19)
(0.53401 -0.0968039 7.11185e-20)
(0.579117 -0.0969053 5.77875e-20)
(0.622815 -0.096184 2.55914e-20)
(0.666324 -0.0933104 1.60193e-19)
(0.703338 -0.0903144 -2.28506e-20)
(0.750346 -0.0755649 7.80721e-20)
(0.00157761 -0.00134578 5.66612e-20)
(0.0164715 -0.0114307 7.66031e-21)
(0.0408809 -0.0224358 4.01903e-20)
(0.0712936 -0.0344588 4.49657e-20)
(0.106736 -0.045571 1.58545e-20)
(0.145645 -0.0558372 4.20049e-20)
(0.187379 -0.0648047 -1.21988e-19)
(0.231168 -0.072548 6.15389e-20)
(0.276545 -0.079035 2.76351e-20)
(0.323048 -0.084356 -9.72058e-20)
(0.370308 -0.0885805 -6.42431e-21)
(0.417977 -0.0917951 -6.11166e-20)
(0.465728 -0.0940764 -9.49691e-20)
(0.51326 -0.0954759 5.82921e-20)
(0.560217 -0.0960505 3.84194e-20)
(0.606419 -0.0956836 3.05003e-20)
(0.651021 -0.0945345 9.73013e-21)
(0.695247 -0.0912078 -1.12898e-19)
(0.73271 -0.0880545 1.05199e-19)
(0.780157 -0.0724163 -4.86322e-20)
(0.00215385 -0.00200186 1.26454e-20)
(0.0186523 -0.0129583 -1.24406e-19)
(0.0450248 -0.0244213 -2.72408e-20)
(0.0775297 -0.0367018 -2.50682e-20)
(0.115149 -0.0478726 -1.16927e-19)
(0.156241 -0.0580756 -6.41008e-21)
(0.200136 -0.0668717 1.6589e-19)
(0.246031 -0.0743654 2.02285e-20)
(0.293439 -0.0805372 -1.37626e-20)
(0.341878 -0.0854916 1.22355e-19)
(0.39096 -0.0893076 -7.71537e-20)
(0.440321 -0.0920805 -1.02392e-19)
(0.489617 -0.0938947 8.90451e-21)
(0.538531 -0.0948088 -2.33044e-20)
(0.586694 -0.0948908 -1.65196e-19)
(0.633908 -0.0940301 -4.68708e-20)
(0.679324 -0.0924315 2.48093e-20)
(0.724148 -0.0886399 8.77884e-21)
(0.761976 -0.0853371 -7.01284e-20)
(0.809675 -0.068842 3.92045e-20)
(0.00279706 -0.00269385 5.82271e-20)
(0.0210022 -0.0145444 2.12011e-19)
(0.0494187 -0.0264566 8.19002e-20)
(0.084082 -0.0389689 2.37552e-20)
(0.123932 -0.0501613 -3.28892e-20)
(0.167247 -0.0602586 1.05427e-19)
(0.213332 -0.0688373 -1.22162e-19)
(0.261351 -0.0760348 -6.99923e-20)
(0.310796 -0.0818452 8.47321e-21)
(0.361162 -0.0863888 -4.21272e-21)
(0.412045 -0.0897547 1.57537e-20)
(0.463062 -0.0920478 -1.89817e-20)
(0.513853 -0.0933606 -4.81042e-20)
(0.564086 -0.0937592 9.02135e-20)
(0.613377 -0.0933225 1.69962e-19)
(0.661512 -0.0919464 6.43802e-20)
(0.707643 -0.0898787 -1.25982e-19)
(0.752938 -0.0856138 2.04177e-21)
(0.791046 -0.0821679 1.31204e-19)
(0.838798 -0.0648559 2.58386e-20)
(0.00351034 -0.00341914 -2.05081e-19)
(0.0235271 -0.0161827 -1.33177e-19)
(0.0540687 -0.0285324 -8.23574e-21)
(0.0909553 -0.0412489 -3.16732e-20)
(0.133086 -0.0524244 1.08505e-20)
(0.178662 -0.0623721 -1.42526e-19)
(0.226962 -0.070687 -1.88142e-19)
(0.277117 -0.0775413 -1.32556e-19)
(0.328597 -0.0829446 1.42631e-19)
(0.380875 -0.0870338 -1.37053e-19)
(0.43353 -0.0899094 4.92602e-20)
(0.486159 -0.0916865 1.18261e-19)
(0.538388 -0.0924663 4.69884e-20)
(0.589866 -0.092323 -2.70131e-20)
(0.640201 -0.0913452 -1.32775e-19)
(0.689157 -0.0894363 9.75711e-20)
(0.7359 -0.0868826 2.22914e-19)
(0.781532 -0.0821397 -8.28712e-20)
(0.819841 -0.0785535 -1.38889e-19)
(0.86743 -0.0604728 -3.70209e-20)
(0.00429662 -0.00417492 2.23968e-19)
(0.0262325 -0.0178665 3.75551e-20)
(0.0589806 -0.0306391 -4.33703e-20)
(0.0981541 -0.0435298 5.58209e-20)
(0.142612 -0.0546483 1.17856e-19)
(0.190483 -0.0644015 -6.36315e-21)
(0.241019 -0.0724054 4.04168e-19)
(0.293316 -0.0788696 1.05538e-19)
(0.346823 -0.0838203 -1.7665e-19)
(0.400992 -0.0874127 9.62207e-20)
(0.455382 -0.0897595 -1.67279e-20)
(0.509572 -0.0909869 -3.82422e-20)
(0.563171 -0.0912052 6.90874e-20)
(0.615815 -0.0904971 -3.99611e-20)
(0.6671 -0.0889603 1.83258e-20)
(0.716772 -0.0865061 2.02495e-20)
(0.764019 -0.0834526 -1.42658e-19)
(0.80985 -0.0782311 1.10997e-19)
(0.848285 -0.0745007 5.03707e-20)
(0.895475 -0.0557075 6.16085e-21)
(0.00515872 -0.00495815 -1.53807e-19)
(0.0291235 -0.0195882 -6.48564e-22)
(0.0641596 -0.0327662 3.81396e-21)
(0.105682 -0.045799 -4.62452e-20)
(0.152513 -0.0568187 -7.88228e-20)
(0.202709 -0.0663316 1.14343e-19)
(0.255495 -0.0739769 -2.90781e-19)
(0.309935 -0.080004 -6.14553e-20)
(0.365455 -0.0844575 1.95945e-19)
(0.421486 -0.087512 1.8074e-19)
(0.477565 -0.0892933 -1.98487e-19)
(0.533255 -0.0899398 4.83333e-20)
(0.588151 -0.0895717 -5.29966e-20)
(0.641871 -0.0882803 6.11095e-20)
(0.694007 -0.0861713 1.00963e-21)
(0.744283 -0.0831648 5.63687e-21)
(0.791924 -0.079601 -4.78605e-20)
(0.837813 -0.0739055 -2.22292e-20)
(0.876311 -0.0700151 4.43817e-21)
(0.922841 -0.0505753 -3.1709e-20)
(0.00609931 -0.00576558 1.44495e-19)
(0.032205 -0.0213402 -4.82907e-21)
(0.0696102 -0.0349028 7.00503e-20)
(0.113542 -0.0480431 2.23148e-20)
(0.162787 -0.0589208 -7.92898e-20)
(0.215333 -0.0681466 3.25965e-20)
(0.27038 -0.0753853 -7.53396e-20)
(0.326958 -0.0809288 2.32953e-20)
(0.384471 -0.0848412 -1.74513e-19)
(0.442326 -0.0873181 -2.31639e-19)
(0.500043 -0.0884997 8.06434e-20)
(0.557166 -0.0885373 -7.4172e-21)
(0.613274 -0.0875614 1.55709e-20)
(0.667975 -0.0856725 -3.33113e-20)
(0.720856 -0.0829836 7.63328e-20)
(0.771621 -0.0794241 -1.94269e-19)
(0.819542 -0.0753438 1.39124e-19)
(0.865349 -0.0691849 -1.17913e-20)
(0.903864 -0.0651013 8.23161e-20)
(0.949437 -0.0450942 2.64885e-20)
(0.00712086 -0.00659375 -2.16266e-19)
(0.0354813 -0.023114 -9.80091e-20)
(0.0753363 -0.0370372 -1.451e-19)
(0.121736 -0.0502482 9.14559e-20)
(0.173434 -0.0609392 -2.26909e-20)
(0.228352 -0.0698301 2.06596e-20)
(0.285665 -0.0766142 1.57336e-19)
(0.344369 -0.0816279 3.48961e-20)
(0.403847 -0.0849566 1.19559e-20)
(0.463483 -0.0868181 3.39935e-20)
(0.522777 -0.0873681 9.91002e-20)
(0.581257 -0.0867719 2.91048e-20)
(0.638488 -0.085171 2.54809e-20)
(0.694067 -0.0826757 -2.45891e-20)
(0.747579 -0.0794048 -1.01484e-19)
(0.798714 -0.0752985 1.32291e-19)
(0.846803 -0.0707008 7.41286e-20)
(0.892389 -0.0640973 5.82258e-20)
(0.9309 -0.0597632 -9.88217e-20)
(0.97518 -0.0392911 -3.46809e-20)
(0.00822569 -0.00743901 1.41646e-19)
(0.0389562 -0.024901 1.71492e-19)
(0.0813412 -0.0391572 5.40694e-21)
(0.130265 -0.0523997 1.31419e-20)
(0.184451 -0.0628578 2.19444e-19)
(0.241758 -0.0713655 -1.62327e-19)
(0.301336 -0.077647 1.7985e-19)
(0.362149 -0.0820854 1.14343e-19)
(0.423559 -0.084789 1.86327e-19)
(0.484924 -0.0859995 -4.79876e-20)
(0.545729 -0.085889 -3.86177e-20)
(0.605481 -0.0846376 -3.46704e-21)
(0.663738 -0.0823987 3.09736e-20)
(0.720084 -0.0792931 -9.21217e-20)
(0.774111 -0.0754446 1.08797e-19)
(0.825494 -0.070805 -7.17654e-20)
(0.873636 -0.065696 2.52922e-20)
(0.918875 -0.0586782 -4.60078e-20)
(0.957387 -0.0540004 -9.68334e-20)
(0.999982 -0.0331807 3.43765e-20)
(0.00941604 -0.00829771 -7.12755e-20)
(0.0426333 -0.0266921 -9.78221e-20)
(0.0876275 -0.0412505 1.94459e-19)
(0.139129 -0.0544828 -1.02447e-19)
(0.195835 -0.0646604 -1.01704e-19)
(0.255544 -0.0727359 3.12578e-20)
(0.317382 -0.0784668 -1.01295e-19)
(0.380281 -0.0822853 -2.24695e-19)
(0.44358 -0.0843242 -1.45165e-19)
(0.506617 -0.0848503 1.38624e-21)
(0.568856 -0.0840533 -3.25425e-20)
(0.629792 -0.0821293 -1.32379e-19)
(0.688969 -0.079244 -1.3792e-19)
(0.745968 -0.0755296 1.6574e-19)
(0.800386 -0.0711142 -1.15462e-19)
(0.851891 -0.0659635 3.38309e-20)
(0.899974 -0.0603587 2.68115e-20)
(0.944752 -0.0529726 -1.00908e-19)
(0.983297 -0.0477928 4.49662e-20)
(1.0237 -0.0267013 3.83734e-20)
(0.0106941 -0.00916623 -8.39794e-20)
(0.0465157 -0.0284784 -7.2069e-20)
(0.0941972 -0.0433043 -1.38104e-19)
(0.148329 -0.0564824 3.27904e-20)
(0.207582 -0.0663306 2.27497e-20)
(0.2697 -0.0739244 3.02207e-21)
(0.333786 -0.0790571 1.51389e-19)
(0.398741 -0.0822122 4.08716e-20)
(0.463883 -0.0835486 -6.47432e-20)
(0.528526 -0.0833594 8.15716e-20)
(0.592118 -0.0818533 -3.89212e-20)
(0.654139 -0.0792431 9.81321e-21)
(0.714126 -0.0757077 3.66153e-20)
(0.771655 -0.0713915 -8.58305e-20)
(0.826337 -0.066427 6.97468e-20)
(0.87784 -0.0607957 -1.50527e-20)
(0.925752 -0.0547253 1.08955e-19)
(0.969986 -0.0470377 -2.20925e-20)
(1.00864 -0.0410977 1.48075e-19)
(1.04617 -0.0198271 -2.67476e-20)
(0.0120609 -0.0100397 1.86047e-19)
(0.050605 -0.0302492 -4.92619e-20)
(0.101051 -0.0453045 1.57345e-19)
(0.157861 -0.058382 1.31156e-19)
(0.219686 -0.0678505 3.13312e-20)
(0.284216 -0.074913 1.23928e-20)
(0.350533 -0.0794005 -3.4173e-19)
(0.417508 -0.0818502 -8.0377e-20)
(0.484438 -0.0824484 -1.19309e-21)
(0.550615 -0.0815162 -1.6425e-19)
(0.615471 -0.0792818 1.01729e-19)
(0.678473 -0.0759762 5.36232e-20)
(0.739153 -0.0717919 8.43509e-20)
(0.797087 -0.0668864 2.73866e-21)
(0.851901 -0.0613971 -4.86313e-20)
(0.903272 -0.0553252 1.18191e-19)
(0.9509 -0.0488392 -2.68494e-19)
(0.994553 -0.0409446 -6.75873e-20)
(1.03353 -0.0339718 -1.43626e-19)
(1.06778 -0.0133379 8.15668e-22)
(0.0135129 -0.0109092 -1.80469e-19)
(0.0548977 -0.0319894 3.72411e-20)
(0.108183 -0.0472322 -1.52137e-19)
(0.167718 -0.0601608 -1.27614e-19)
(0.232134 -0.069199 -2.16705e-20)
(0.299076 -0.0756807 -2.05146e-20)
(0.367602 -0.0794775 3.43223e-19)
(0.436556 -0.0811818 7.18423e-20)
(0.505212 -0.0810091 1.83478e-19)
(0.572845 -0.0793096 1.74505e-19)
(0.63887 -0.0763323 -1.18692e-19)
(0.702745 -0.0723265 -4.10271e-20)
(0.763996 -0.0674997 -1.03433e-19)
(0.822204 -0.062023 1.68555e-20)
(0.877014 -0.05604 4.44279e-20)
(0.92812 -0.0495759 -8.73579e-20)
(0.975341 -0.0427456 1.09742e-19)
(1.01838 -0.0347799 5.17734e-20)
(1.05796 -0.0268154 1.34135e-19)
(1.09095 -0.00919262 2.73335e-21)
(0.0150505 -0.0117695 8.14079e-20)
(0.0593935 -0.0336879 -1.00897e-19)
(0.115591 -0.049073 1.46002e-19)
(0.177895 -0.0618022 -5.33022e-20)
(0.244919 -0.0703585 -5.318e-21)
(0.314265 -0.0762103 6.55169e-21)
(0.384972 -0.0792718 -1.71601e-19)
(0.455857 -0.0801928 1.7202e-19)
(0.526173 -0.0792192 -1.23486e-19)
(0.595177 -0.0767315 7.59401e-20)
(0.66227 -0.0730004 3.64517e-20)
(0.726902 -0.0682945 -6.37133e-21)
(0.788598 -0.0628362 -3.54191e-20)
(0.846947 -0.0568115 -1.35882e-20)
(0.901614 -0.050371 -7.71247e-20)
(0.952319 -0.043569 3.09341e-20)
(0.99899 -0.0364793 -1.07888e-19)
(1.04128 -0.0286248 -1.1625e-19)
(1.08103 -0.0203275 1.38667e-19)