/*--------------------------------*- C++ -*----------------------------------*\
  =========                 |
  \\      /  F ield         | OpenFOAM: The Open Source CFD Toolbox
   \\    /   O peration     | Website:  https://openfoam.org
    \\  /    A nd           | Version:  7
     \\/     M anipulation  |
\*---------------------------------------------------------------------------*/
FoamFile
{
    version     2.0;
    format      ascii;
    class       surfaceScalarField;
    location    "80";
    object      phi;
}
// * * * * * * * * * * * * * * * * * * * * * * * * * * * * * * * * * * * * * //

dimensions      [0 3 -1 0 0 0 0];

internalField   nonuniform List<scalar> 
1260
(
0.0197739
4.4399e-05
0.0197283
4.56219e-05
0.0196816
4.66734e-05
0.0196341
4.75798e-05
0.0195857
4.83675e-05
0.0195366
4.90619e-05
0.0194869
4.96869e-05
0.0194367
5.02649e-05
0.0193859
5.0816e-05
0.0193345
5.13576e-05
0.0192826
5.19051e-05
0.0192301
5.24699e-05
0.0191771
5.30621e-05
0.0191234
5.3686e-05
0.019069
5.43469e-05
0.019014
5.50425e-05
0.0189582
5.57698e-05
0.0189017
5.65301e-05
0.0188444
5.72859e-05
0.0187863
5.81049e-05
0.0187275
5.87689e-05
0.0186678
5.97433e-05
0.0186079
5.98994e-05
0.0185463
6.16351e-05
0.0184863
5.9921e-05
6.32524e-05
0.0188407
8.78194e-05
0.0187961
9.02123e-05
0.0187505
9.22677e-05
0.018704
9.40367e-05
0.0186568
9.557e-05
0.018609
9.69168e-05
0.0185605
9.8124e-05
0.0185116
9.92344e-05
0.0184621
0.000100287
0.0184121
0.000101317
0.0183617
0.000102353
0.0183107
0.000103417
0.0182593
0.000104531
0.0182072
0.0001057
0.0181546
0.000106942
0.0181015
0.000108237
0.0180476
0.000109612
0.0179931
0.000111002
0.0179379
0.000112475
0.0178822
0.00011388
0.0178256
0.000115347
0.0177686
0.000116721
0.0177107
0.000117799
0.0176527
0.000119609
0.0175938
0.000118897
0.000122287
0.0179418
0.00013116
0.0178974
0.000134669
0.0178519
0.000137676
0.0178057
0.000140257
0.0177588
0.000142485
0.0177113
0.000144431
0.0176633
0.000146163
0.0176147
0.000147742
0.0175658
0.000149228
0.0175165
0.000150668
0.0174667
0.000152107
0.0174165
0.000153576
0.017366
0.000155109
0.017315
0.00015671
0.0172635
0.000158413
0.0172115
0.000160175
0.0171591
0.000162066
0.0171062
0.000163933
0.0170526
0.000165991
0.0169987
0.000167796
0.0169441
0.000169978
0.0168894
0.000171463
0.0168336
0.000173551
0.0167784
0.000174865
0.0167216
0.00017564
0.000178113
0.017076
0.000175077
0.0170311
0.000179634
0.0169852
0.000183528
0.0169386
0.000186856
0.0168914
0.00018971
0.0168436
0.000192183
0.0167954
0.000194363
0.0167469
0.000196328
0.0166979
0.000198155
0.0166487
0.000199906
0.0165992
0.000201639
0.0165493
0.000203394
0.0164992
0.000205217
0.0164488
0.00020711
0.0163981
0.000209127
0.0163471
0.000211196
0.0162957
0.000213443
0.0162441
0.000215604
0.016192
0.000218089
0.0161397
0.000220073
0.0160868
0.000222855
0.0160341
0.000224134
0.0159804
0.000227288
0.0159278
0.000227494
0.0158732
0.000230212
0.000230752
0.0162417
0.000220011
0.0161958
0.000225527
0.0161491
0.00023022
0.0161018
0.000234205
0.0160539
0.000237596
0.0160055
0.000240502
0.0159569
0.00024303
0.0159079
0.000245277
0.0158588
0.000247332
0.0158094
0.000249273
0.0157599
0.000251171
0.0157102
0.000253073
0.0156604
0.000255039
0.0156104
0.000257067
0.0155603
0.000259232
0.0155101
0.000261433
0.0154596
0.000263857
0.0154091
0.000266116
0.0153584
0.000268849
0.0153077
0.000270784
0.0152565
0.000274025
0.0152058
0.000274781
0.0151541
0.00027901
0.0151041
0.000277537
0.0150517
0.000282563
0.000280204
0.0154371
0.000266213
0.0153901
0.00027257
0.0153423
0.000277946
0.0152941
0.000282473
0.0152454
0.000286283
0.0151964
0.000289504
0.0151472
0.000292258
0.0150978
0.000294659
0.0150483
0.000296811
0.0149988
0.000298804
0.0149492
0.000300721
0.0148997
0.000302618
0.0148501
0.000304566
0.0148007
0.00030656
0.0147512
0.0003087
0.0147018
0.000310847
0.0146524
0.000313263
0.0146031
0.000315419
0.0145537
0.000318215
0.0145046
0.000319875
0.0144552
0.00032342
0.0144066
0.00032336
0.014357
0.000328633
0.0143096
0.000324967
0.0142596
0.000332585
0.000326443
0.0146609
0.000313756
0.0146126
0.000320806
0.0145639
0.000326719
0.0145147
0.000331645
0.0144652
0.000335732
0.0144156
0.000339126
0.0143659
0.000341964
0.0143162
0.000344374
0.0142665
0.000346476
0.014217
0.000348369
0.0141675
0.000350151
0.0141183
0.000351881
0.0140692
0.000353645
0.0140203
0.000355434
0.0139717
0.000357372
0.0139232
0.000359281
0.013875
0.000361506
0.013827
0.000363362
0.0137792
0.000366039
0.0137319
0.000367209
0.0136844
0.000370901
0.013638
0.000369758
0.0135906
0.00037602
0.0135459
0.000369716
0.0134983
0.000380141
0.000369434
0.0139118
0.000362556
0.0138625
0.000370122
0.0138128
0.0003764
0.0137629
0.000381558
0.0137129
0.00038576
0.0136628
0.000389166
0.0136129
0.000391931
0.0135631
0.000394194
0.0135134
0.000396087
0.0134641
0.000397723
0.013415
0.000399208
0.0133663
0.00040061
0.0133179
0.000402025
0.0132699
0.000403439
0.0132223
0.000405003
0.0131751
0.000406499
0.0131282
0.000408357
0.0130819
0.000409731
0.0130358
0.000412114
0.0129904
0.000412601
0.012945
0.000416286
0.0129009
0.000413832
0.0128559
0.000421005
0.012814
0.0004117
0.012769
0.000425077
0.000409149
0.0131892
0.000412396
0.013139
0.000420277
0.0130887
0.000426728
0.0130383
0.000431933
0.012988
0.000436073
0.0129378
0.00043932
0.0128879
0.000441844
0.0128383
0.000443796
0.0127891
0.000445322
0.0127403
0.000446541
0.0126919
0.000447573
0.012644
0.000448487
0.0125967
0.000449395
0.0125498
0.000450274
0.0125035
0.000451305
0.0124578
0.000452224
0.0124126
0.000453554
0.012368
0.00045428
0.0123239
0.000456211
0.0122807
0.000455845
0.0122376
0.000459377
0.012196
0.000455427
0.0121536
0.000463418
0.0121145
0.000450834
0.0120723
0.000467242
0.000445576
0.0124924
0.000462951
0.0124417
0.000470929
0.0123911
0.000477349
0.0123406
0.000482407
0.0122904
0.000486299
0.0122405
0.000489213
0.012191
0.000491328
0.012142
0.000492808
0.0120935
0.000493809
0.0120456
0.000494459
0.0119983
0.000494887
0.0119516
0.000495166
0.0119056
0.000495421
0.0118602
0.00049562
0.0118156
0.000495972
0.0117716
0.00049617
0.0117283
0.000496828
0.0116859
0.000496763
0.011644
0.000498101
0.0116031
0.000496742
0.0115625
0.000499987
0.0115235
0.000494399
0.0114838
0.000503102
0.0114476
0.000487051
0.0114083
0.000506503
0.000478727
0.0118212
0.000513814
0.0117705
0.000521668
0.01172
0.000527848
0.0116698
0.000532564
0.0116201
0.000536027
0.0115708
0.000538434
0.0115222
0.000539978
0.0114742
0.000540833
0.0114268
0.000541163
0.0113802
0.000541102
0.0113343
0.000540789
0.0112891
0.0005403
0.0112448
0.000539771
0.0112012
0.000539162
0.0111585
0.00053871
0.0111166
0.000538063
0.0110755
0.000537926
0.0110353
0.000536951
0.0109959
0.000537575
0.0109575
0.000535112
0.0109195
0.000537951
0.0108833
0.000530628
0.0108465
0.00053993
0.0108132
0.00052031
0.010777
0.000542756
0.000508643
0.0111756
0.000564532
0.0111252
0.000572043
0.0110753
0.00057778
0.0110259
0.000581968
0.0109771
0.000584827
0.0109289
0.000586569
0.0108815
0.000587392
0.0108349
0.000587481
0.010789
0.000587006
0.010744
0.00058611
0.0106999
0.000584937
0.0106566
0.000583564
0.0106142
0.00058214
0.0105728
0.000580615
0.0105322
0.000579253
0.0104926
0.000577661
0.0104539
0.000576627
0.0104162
0.000574647
0.0103794
0.000574459
0.0103437
0.00057081
0.0103085
0.000573141
0.0102751
0.000564028
0.0102412
0.000573809
0.0102109
0.000550598
0.0101777
0.000575929
0.000535392
0.0105556
0.000614635
0.010506
0.000621594
0.0104571
0.0006267
0.0104089
0.000630187
0.0103614
0.000632286
0.0103148
0.000633216
0.010269
0.000633186
0.0102241
0.000632386
0.0101801
0.000630993
0.0101371
0.000629155
0.010095
0.000627021
0.0100539
0.000624671
0.0100138
0.000622262
0.00997463
0.000619735
0.0099365
0.000617379
0.0098994
0.000614762
0.00986328
0.000612753
0.00982823
0.000609699
0.00979407
0.000608619
0.00976114
0.000603733
0.00972882
0.000605466
0.0096983
0.000594548
0.00966742
0.000604687
0.00964008
0.000577934
0.00961002
0.000605993
0.000559071
0.00996134
0.000663657
0.00991305
0.000669878
0.00986557
0.000674183
0.00981894
0.000676817
0.00977321
0.000678018
0.00972841
0.000678013
0.00968458
0.000677018
0.00964174
0.000675226
0.00959991
0.000672823
0.00955911
0.000669956
0.00951935
0.000666783
0.00948064
0.000663381
0.00944298
0.000659917
0.00940639
0.000656324
0.00937086
0.000652913
0.00933641
0.000649214
0.00930299
0.000646172
0.00927069
0.000641998
0.00923934
0.000639969
0.00920926
0.000633818
0.00917984
0.000634882
0.00915221
0.000622177
0.00912435
0.000632552
0.00909991
0.000602368
0.00907295
0.000632956
0.0005798
0.00939292
0.000711166
0.00934631
0.000716485
0.00930065
0.000719844
0.00925597
0.000721496
0.0092123
0.000721685
0.00916967
0.000720645
0.0091281
0.000718594
0.00908759
0.000715731
0.00904817
0.000712245
0.00900984
0.000708286
0.00897261
0.000704014
0.00893648
0.000699508
0.00890146
0.00069494
0.00886754
0.000690237
0.00883473
0.000685729
0.00880303
0.000680913
0.0087724
0.000676802
0.00874292
0.000671482
0.00871442
0.000668466
0.00868719
0.000661045
0.00866069
0.000661384
0.00863593
0.000646939
0.00861105
0.000657431
0.00858944
0.00062398
0.00856553
0.000656861
0.000597718
0.00885037
0.000756773
0.0088058
0.000761055
0.0087623
0.000763351
0.00871987
0.000763918
0.00867855
0.000763006
0.00863834
0.000760852
0.00859926
0.000757679
0.0085613
0.000753687
0.00852448
0.000749067
0.00848879
0.000743972
0.00845425
0.000738563
0.00842083
0.00073292
0.00838855
0.00072722
0.00835741
0.000721382
0.00832738
0.000715754
0.00829849
0.000709806
0.00827069
0.000704605
0.00824403
0.000698134
0.00821839
0.000694109
0.008194
0.000685435
0.00817038
0.000685006
0.00814843
0.000668893
0.00812647
0.000679387
0.00810758
0.000642874
0.00808665
0.000677787
0.000612983
0.00833364
0.00080015
0.00829141
0.000803289
0.00825033
0.000804431
0.00821041
0.000803837
0.00817165
0.000801759
0.00813407
0.000798438
0.00809765
0.000794097
0.0080624
0.000788939
0.00802831
0.000783155
0.00799538
0.000776899
0.00796361
0.000770334
0.00793299
0.000763539
0.00790352
0.000756695
0.00787519
0.000749716
0.00784798
0.000742962
0.0078219
0.000735882
0.00779692
0.000729589
0.00777307
0.000721978
0.00775025
0.000716937
0.00772864
0.000707042
0.00770783
0.000705816
0.0076886
0.000688126
0.00766947
0.000698513
0.00765317
0.000659171
0.00763512
0.000695841
0.000625762
0.00784254
0.000841032
0.00780288
0.000842951
0.00776443
0.000842875
0.0077272
0.000841068
0.00769118
0.000837784
0.00765635
0.000833262
0.00762272
0.000827729
0.00759027
0.000821387
0.007559
0.000814428
0.00752889
0.000807004
0.00749995
0.000799281
0.00747215
0.000791336
0.00744549
0.000783351
0.00741997
0.00077524
0.00739556
0.00076737
0.00737227
0.000759172
0.00735006
0.000751798
0.00732897
0.000743073
0.00730889
0.000737022
0.00728997
0.000725953
0.00727188
0.00072391
0.00725526
0.000704749
0.00723884
0.000714926
0.007225
0.000673014
0.00720969
0.000711152
0.000636231
0.00737676
0.00087922
0.00733984
0.000879869
0.00730418
0.000878537
0.00726976
0.000875488
0.00723656
0.000870978
0.00720458
0.000865244
0.0071738
0.000858513
0.0071442
0.000850986
0.00711577
0.000842856
0.0070885
0.000834273
0.00706238
0.000825404
0.00703739
0.000816324
0.00701353
0.000807217
0.00699077
0.000797994
0.00696911
0.000789029
0.00694854
0.000779743
0.00692903
0.000771309
0.0069106
0.000761506
0.00689316
0.000754462
0.00687683
0.000742278
0.00686133
0.000739409
0.00684719
0.000718891
0.00683335
0.000728766
0.00682181
0.000684552
0.00680909
0.00072387
0.000644568
0.00693585
0.00091458
0.00690179
0.000913934
0.00686899
0.00091133
0.00683745
0.000907032
0.00680713
0.000901294
0.00677802
0.000894353
0.0067501
0.000886434
0.00672335
0.000877738
0.00669775
0.000868454
0.00667329
0.000858734
0.00664995
0.000848743
0.00662772
0.000838555
0.00660658
0.000828356
0.00658652
0.000818054
0.00656753
0.000808026
0.00654958
0.000797687
0.00653267
0.000788227
0.00651678
0.000777391
0.00650186
0.00076938
0.006488
0.000756145
0.00647495
0.00075245
0.00646315
0.000730698
0.00645173
0.000740185
0.00644234
0.000693944
0.00643205
0.000734155
0.000650953
0.00651925
0.00094704
0.00648809
0.000945095
0.0064582
0.000941222
0.00642954
0.000935685
0.0064021
0.000928734
0.00637585
0.000920605
0.00635076
0.000911522
0.00632682
0.000901682
0.006304
0.000891275
0.00628228
0.000880451
0.00626165
0.000869372
0.00624209
0.000858115
0.00622359
0.00084686
0.00620612
0.000835519
0.00618968
0.000824468
0.00617424
0.000813122
0.0061598
0.000802675
0.00614633
0.000790859
0.00613379
0.000781915
0.00612224
0.000767699
0.0061115
0.000763186
0.00610188
0.000740324
0.00609272
0.000749347
0.00608531
0.000701352
0.00607728
0.00074218
0.000655562
0.00612626
0.000976579
0.00609801
0.000973349
0.006071
0.000968228
0.00604521
0.000961475
0.0060206
0.00095334
0.00599715
0.000944055
0.00597483
0.000933842
0.00595362
0.000922897
0.00593349
0.000911405
0.00591442
0.000899518
0.0058964
0.000887394
0.00587941
0.00087511
0.00586342
0.000862846
0.00584843
0.000850514
0.00583441
0.000838485
0.00582135
0.000826182
0.00580923
0.000814794
0.00579803
0.000802055
0.00578773
0.000792215
0.00577834
0.000777093
0.00576975
0.000771776
0.00576215
0.000747927
0.00575507
0.00075642
0.00574948
0.00070694
0.00574354
0.000748121
0.000658567
0.0057561
0.00100322
0.00573071
0.000998739
0.00570654
0.000992402
0.00568354
0.00098447
0.00566169
0.000975189
0.00564096
0.00096479
0.00562131
0.00095349
0.00560272
0.000941483
0.00558518
0.000928954
0.00556864
0.000916051
0.00555311
0.000902931
0.00553855
0.00088967
0.00552495
0.000876446
0.00551229
0.000863174
0.00550055
0.00085022
0.00548972
0.000837015
0.00547978
0.000824735
0.0054707
0.000811133
0.00546248
0.00080044
0.00545508
0.000784486
0.00544848
0.000778383
0.00544273
0.00075367
0.00543758
0.000761575
0.00543365
0.000710869
0.00542962
0.000752153
0.000660132
0.00540792
0.00102704
0.00538531
0.00102134
0.00536388
0.00101383
0.00534359
0.00100477
0.00532439
0.000994388
0.00530625
0.000982922
0.00528916
0.000970585
0.00527308
0.000957568
0.00525798
0.000944052
0.00524384
0.000930184
0.00523065
0.000916121
0.00521839
0.000901937
0.00520703
0.000887806
0.00519655
0.000873651
0.00518695
0.000859824
0.00517819
0.000845774
0.00517027
0.000832653
0.00516315
0.00081825
0.00515684
0.00080675
0.00515129
0.00079004
0.0051465
0.000783173
0.00514245
0.000757714
0.00513905
0.000764984
0.00513662
0.000713295
0.00513432
0.000754452
0.000660415
0.00508078
0.00104813
0.00506085
0.00104127
0.00504205
0.00103264
0.00502433
0.00102249
0.00500766
0.00101106
0.004992
0.000998583
0.00497732
0.0049636
0.00495081
0.00493893
0.00492793
0.00491781
0.00490853
0.00490009
0.00489246
0.00488561
0.00487956
0.00487424
0.00486968
0.00486581
0.00486267
0.00486017
0.00485834
0.00485727
0.00485653
0.00477372
0.00475635
0.00474004
0.00472476
0.00471046
)
;

boundaryField
{
    inlet
    {
        type            calculated;
        value           nonuniform 0();
    }
    outlet
    {
        type            calculated;
        value           nonuniform List<scalar> 
25
(
0.0184231
0.0175347
0.0166658
0.0158206
0.0150023
0.0142133
0.0134553
0.0127293
0.0120359
0.0113752
0.010747
0.010151
0.00958634
0.00905222
0.00854761
0.00807139
0.00762234
0.00719922
0.00680076
0.00642566
0.00607267
0.00574054
0.00542805
0.00513404
0.00485738
)
;
    }
    cylinder
    {
        type            calculated;
        value           nonuniform 0();
    }
    top
    {
        type            symmetryPlane;
        value           nonuniform 0();
    }
    bottom
    {
        type            symmetryPlane;
        value           uniform 0;
    }
    defaultFaces
    {
        type            empty;
        value           nonuniform 0();
    }
    procBoundary3to2
    {
        type            processor;
        value           nonuniform List<scalar> 
25
(
-0.0198183
-0.0188841
-0.0179851
-0.01712
-0.0162866
-0.0154833
-0.0147084
-0.0139606
-0.013239
-0.0125429
-0.0118721
-0.0112263
-0.0106057
-0.0100104
-0.00944043
-0.00889598
-0.00837702
-0.00788342
-0.00741495
-0.00697121
-0.00655171
-0.0061558
-0.00578275
-0.00543173
-0.00510186
)
;
    }
    procBoundary3to6
    {
        type            processor;
        value           uniform -0.0047922;
    }
    procBoundary3to7
    {
        type            processor;
        value           nonuniform List<scalar> 
27
(
0.000985262
0.000971289
0.000956841
0.000942065
0.000927113
0.000912063
0.000897081
0.000882098
0.000867454
0.000852617
0.00083871
0.000823567
0.000811306
0.000793914
0.000786309
0.000760216
0.000766811
0.000714371
0.000755189
0.000659564
0.00106661
0.00105864
0.00104894
0.00103777
0.00102535
0.00469713
0.00101192
)
;
    }
}


// ************************************************************************* //
