-0.3536 	0.3536 	-9.02056e-18 	0.242877
-0.390196 	0.390196 	-1.49133e-17 	0.297207
-0.466318 	0.466318 	-2.43897e-17 	0.23349
-0.548534 	0.548534 	-2.57828e-17 	0.259753
-0.614278 	0.614278 	-5.55112e-18 	0.260954
-0.660386 	0.660386 	-7.63278e-18 	0.228231
