/*--------------------------------*- C++ -*----------------------------------*\
  =========                 |
  \\      /  F ield         | OpenFOAM: The Open Source CFD Toolbox
   \\    /   O peration     | Website:  https://openfoam.org
    \\  /    A nd           | Version:  7
     \\/     M anipulation  |
\*---------------------------------------------------------------------------*/
FoamFile
{
    version     2.0;
    format      ascii;
    class       volScalarField;
    location    "10";
    object      p;
}
// * * * * * * * * * * * * * * * * * * * * * * * * * * * * * * * * * * * * * //

dimensions      [0 2 -2 0 0 0 0];

internalField   nonuniform List<scalar> 
42000
(
-0.412287
-0.411889
-0.401966
-0.387836
-0.371441
-0.352152
-0.332331
-0.311223
-0.290221
-0.268975
-0.248313
-0.227907
-0.208674
-0.189575
-0.172787
-0.154745
-0.141936
-0.123446
-0.117244
-0.0962445
-0.412565
-0.412055
-0.402122
-0.387945
-0.37154
-0.352231
-0.332404
-0.311288
-0.290282
-0.269032
-0.248369
-0.227961
-0.208728
-0.189626
-0.172843
-0.15479
-0.142007
-0.123457
-0.11739
-0.0960875
-0.41312
-0.412387
-0.402432
-0.388163
-0.371738
-0.35239
-0.332549
-0.311417
-0.290403
-0.269146
-0.248479
-0.228068
-0.208834
-0.189728
-0.172954
-0.154879
-0.142149
-0.123481
-0.117678
-0.0957778
-0.413951
-0.412885
-0.402896
-0.38849
-0.372033
-0.352628
-0.332767
-0.311609
-0.290585
-0.269316
-0.248644
-0.228227
-0.208994
-0.189881
-0.173121
-0.155013
-0.14236
-0.123518
-0.118104
-0.0953235
-0.415056
-0.413547
-0.403513
-0.388924
-0.372426
-0.352944
-0.333055
-0.311865
-0.290825
-0.269542
-0.248863
-0.228438
-0.209206
-0.190083
-0.173341
-0.155191
-0.142638
-0.123569
-0.11866
-0.0947366
-0.416432
-0.414371
-0.404282
-0.389465
-0.372915
-0.353336
-0.333414
-0.312182
-0.291123
-0.269822
-0.249134
-0.2287
-0.209467
-0.190333
-0.173613
-0.155412
-0.142979
-0.123637
-0.119334
-0.0940326
-0.418075
-0.415355
-0.405199
-0.39011
-0.373498
-0.353804
-0.333842
-0.312559
-0.291478
-0.270155
-0.249456
-0.229011
-0.209778
-0.19063
-0.173935
-0.155675
-0.14338
-0.123723
-0.120116
-0.0932301
-0.419982
-0.416498
-0.406264
-0.390858
-0.374174
-0.354345
-0.334336
-0.312996
-0.291888
-0.270539
-0.249827
-0.22937
-0.210136
-0.190972
-0.174304
-0.155979
-0.143836
-0.123829
-0.120991
-0.0923502
-0.422149
-0.417795
-0.407473
-0.391707
-0.37494
-0.354959
-0.334896
-0.313489
-0.292351
-0.270972
-0.250246
-0.229774
-0.210538
-0.191358
-0.174718
-0.156322
-0.144342
-0.123958
-0.121943
-0.0914163
-0.424569
-0.419245
-0.408823
-0.392655
-0.375794
-0.355642
-0.335518
-0.314037
-0.292865
-0.271453
-0.25071
-0.230221
-0.210983
-0.191784
-0.175174
-0.156702
-0.144892
-0.124112
-0.122955
-0.0904532
-0.427237
-0.420843
-0.410311
-0.393698
-0.376734
-0.356393
-0.336202
-0.314638
-0.293428
-0.271978
-0.251216
-0.230709
-0.211467
-0.192248
-0.175668
-0.157118
-0.145481
-0.124293
-0.12401
-0.0894863
-0.430147
-0.422587
-0.411934
-0.394834
-0.377758
-0.357209
-0.336944
-0.31529
-0.294037
-0.272546
-0.251762
-0.231234
-0.211987
-0.192747
-0.176195
-0.157566
-0.146101
-0.124505
-0.12509
-0.0885416
-0.433292
-0.424472
-0.413687
-0.39606
-0.378861
-0.358087
-0.337741
-0.315989
-0.294689
-0.273154
-0.252346
-0.231795
-0.21254
-0.193278
-0.176752
-0.158045
-0.146745
-0.124747
-0.126178
-0.0876441
-0.436669
-0.42649
-0.415566
-0.397373
-0.380041
-0.359025
-0.338592
-0.316733
-0.295383
-0.273798
-0.252963
-0.232386
-0.213123
-0.193837
-0.177334
-0.15855
-0.147406
-0.125022
-0.127255
-0.0868181
-0.440272
-0.428634
-0.417567
-0.39877
-0.381295
-0.36002
-0.339493
-0.317519
-0.296114
-0.274476
-0.25361
-0.233006
-0.213731
-0.194421
-0.177937
-0.159079
-0.148077
-0.12533
-0.128307
-0.0860856
-0.444067
-0.430922
-0.419685
-0.400247
-0.38262
-0.361069
-0.340441
-0.318344
-0.29688
-0.275184
-0.254285
-0.233651
-0.21436
-0.195024
-0.178554
-0.159626
-0.148749
-0.125671
-0.129315
-0.0854666
-0.44807
-0.433327
-0.421914
-0.4018
-0.384011
-0.362169
-0.341433
-0.319206
-0.297677
-0.275919
-0.254983
-0.234315
-0.215006
-0.195643
-0.17918
-0.160189
-0.149416
-0.126043
-0.130268
-0.0849779
-0.452272
-0.435847
-0.424251
-0.403426
-0.385467
-0.363316
-0.342466
-0.3201
-0.298503
-0.276678
-0.255701
-0.234996
-0.215663
-0.196272
-0.179809
-0.16076
-0.150069
-0.126444
-0.13115
-0.0846329
-0.456658
-0.438477
-0.42669
-0.405121
-0.386981
-0.364508
-0.343537
-0.321025
-0.299354
-0.277457
-0.256434
-0.235688
-0.216328
-0.196906
-0.180435
-0.161336
-0.1507
-0.126873
-0.13195
-0.0844416
-0.46122
-0.441213
-0.429226
-0.406881
-0.388553
-0.365741
-0.344643
-0.321976
-0.300226
-0.278251
-0.257178
-0.236388
-0.216994
-0.19754
-0.181052
-0.16191
-0.151302
-0.127323
-0.132659
-0.0844097
-0.465947
-0.444049
-0.431853
-0.408702
-0.390176
-0.367012
-0.34578
-0.322951
-0.301116
-0.279058
-0.25793
-0.237089
-0.217656
-0.198168
-0.181653
-0.162477
-0.151868
-0.127792
-0.133268
-0.0845389
-0.47083
-0.446978
-0.434565
-0.41058
-0.391849
-0.368319
-0.346945
-0.323946
-0.30202
-0.279873
-0.258683
-0.237788
-0.218309
-0.198784
-0.182232
-0.163028
-0.15239
-0.128273
-0.133771
-0.0848271
-0.475858
-0.449995
-0.437357
-0.412511
-0.393566
-0.369656
-0.348135
-0.324957
-0.302934
-0.280692
-0.259434
-0.238478
-0.218946
-0.199381
-0.182781
-0.163559
-0.152862
-0.12876
-0.134162
-0.0852682
-0.481021
-0.453093
-0.440223
-0.414491
-0.395324
-0.371022
-0.349346
-0.325982
-0.303855
-0.28151
-0.260177
-0.239155
-0.219562
-0.199952
-0.183293
-0.16406
-0.153276
-0.129246
-0.134438
-0.0858526
-0.486308
-0.456265
-0.443158
-0.416515
-0.39712
-0.372413
-0.350575
-0.327016
-0.304779
-0.282323
-0.260908
-0.239811
-0.220149
-0.200491
-0.183761
-0.164526
-0.153626
-0.129724
-0.134597
-0.0865677
-0.491708
-0.459507
-0.446154
-0.418581
-0.398949
-0.373826
-0.351819
-0.328056
-0.305701
-0.283127
-0.26162
-0.240442
-0.220701
-0.200991
-0.184179
-0.164949
-0.153907
-0.130186
-0.134639
-0.087398
-0.497211
-0.46281
-0.449207
-0.420682
-0.400808
-0.375257
-0.353074
-0.329098
-0.306617
-0.283915
-0.262309
-0.241041
-0.221212
-0.201444
-0.184539
-0.165321
-0.154113
-0.130624
-0.134564
-0.0883261
-0.502805
-0.466168
-0.452311
-0.422816
-0.402693
-0.376703
-0.354337
-0.330139
-0.307523
-0.284685
-0.262969
-0.241602
-0.221675
-0.201843
-0.184834
-0.165635
-0.154239
-0.13103
-0.134374
-0.0893329
-0.508479
-0.469574
-0.455458
-0.424978
-0.4046
-0.378161
-0.355603
-0.331174
-0.308413
-0.285429
-0.263593
-0.242117
-0.222082
-0.202181
-0.185058
-0.165884
-0.154279
-0.131396
-0.134072
-0.0903983
-0.514222
-0.473022
-0.458643
-0.427164
-0.406524
-0.379626
-0.35687
-0.332199
-0.309285
-0.286143
-0.264176
-0.242581
-0.222427
-0.20245
-0.185203
-0.166061
-0.15423
-0.131714
-0.133659
-0.0915019
-0.520022
-0.476505
-0.46186
-0.42937
-0.408462
-0.381096
-0.358132
-0.333211
-0.310131
-0.28682
-0.264711
-0.242986
-0.222703
-0.202643
-0.185264
-0.166158
-0.154088
-0.131977
-0.133139
-0.0926234
-0.525868
-0.480015
-0.465102
-0.43159
-0.41041
-0.382566
-0.359387
-0.334203
-0.310948
-0.287456
-0.265191
-0.243325
-0.222902
-0.202754
-0.185234
-0.16617
-0.153849
-0.132179
-0.132515
-0.093743
-0.531749
-0.483545
-0.468363
-0.43382
-0.412363
-0.384034
-0.360629
-0.335173
-0.311729
-0.288043
-0.26561
-0.243591
-0.223018
-0.202775
-0.185107
-0.16609
-0.153511
-0.132312
-0.13179
-0.0948422
-0.537652
-0.487089
-0.471636
-0.436057
-0.414317
-0.385493
-0.361855
-0.336114
-0.312469
-0.288576
-0.265961
-0.243778
-0.223043
-0.202699
-0.184878
-0.165912
-0.15307
-0.132371
-0.130964
-0.0959048
-0.543566
-0.490638
-0.474915
-0.438295
-0.416267
-0.386942
-0.363059
-0.337021
-0.313162
-0.289048
-0.266238
-0.243877
-0.222971
-0.202519
-0.184542
-0.165631
-0.152525
-0.132349
-0.13004
-0.0969207
-0.549479
-0.494185
-0.478192
-0.440529
-0.418209
-0.388374
-0.364237
-0.33789
-0.313802
-0.289452
-0.266432
-0.243882
-0.222795
-0.202231
-0.184094
-0.165241
-0.151874
-0.132243
-0.129017
-0.0978816
-0.555379
-0.497723
-0.481462
-0.442754
-0.420138
-0.389785
-0.365383
-0.338714
-0.314382
-0.289781
-0.266537
-0.243786
-0.222509
-0.201827
-0.18353
-0.16474
-0.151115
-0.132048
-0.12789
-0.0987613
-0.561253
-0.501244
-0.484716
-0.444966
-0.422048
-0.391171
-0.366492
-0.339487
-0.314895
-0.290028
-0.266546
-0.243582
-0.222106
-0.201303
-0.182846
-0.164121
-0.150248
-0.13176
-0.126645
-0.0995201
-0.56709
-0.50474
-0.487948
-0.447158
-0.423934
-0.392526
-0.367557
-0.340202
-0.315336
-0.290186
-0.266451
-0.243264
-0.221582
-0.200653
-0.182039
-0.163381
-0.149273
-0.131378
-0.125262
-0.10031
-0.572878
-0.508203
-0.49115
-0.449325
-0.425791
-0.393844
-0.368574
-0.340854
-0.315695
-0.290247
-0.266246
-0.242823
-0.22093
-0.199873
-0.181105
-0.162517
-0.148192
-0.13089
-0.123765
-0.101811
-0.578605
-0.511628
-0.494318
-0.451463
-0.427614
-0.39512
-0.369535
-0.341435
-0.315967
-0.290205
-0.265924
-0.242256
-0.220145
-0.198959
-0.180042
-0.161525
-0.147004
-0.13028
-0.122254
-0.104504
-0.584255
-0.514999
-0.497437
-0.453563
-0.429394
-0.396347
-0.370433
-0.341937
-0.316143
-0.290051
-0.265476
-0.241554
-0.219223
-0.197906
-0.178848
-0.160404
-0.145709
-0.129534
-0.120704
-0.105604
-0.589814
-0.518312
-0.500503
-0.455617
-0.431124
-0.397518
-0.37126
-0.342353
-0.316216
-0.289778
-0.264898
-0.240714
-0.218159
-0.196712
-0.177521
-0.15915
-0.144309
-0.128642
-0.119148
-0.105929
-0.595271
-0.521557
-0.503506
-0.457622
-0.432798
-0.398626
-0.372009
-0.342675
-0.316176
-0.289379
-0.264181
-0.239728
-0.216949
-0.195374
-0.17606
-0.157762
-0.142802
-0.127601
-0.117585
-0.105898
-0.600613
-0.524725
-0.506439
-0.459569
-0.43441
-0.399664
-0.372673
-0.342895
-0.316018
-0.288846
-0.26332
-0.238593
-0.21559
-0.19389
-0.174463
-0.15624
-0.141187
-0.126413
-0.115999
-0.105566
-0.605826
-0.527808
-0.509292
-0.46145
-0.43595
-0.400623
-0.373243
-0.343004
-0.315732
-0.288171
-0.262309
-0.237304
-0.214079
-0.192258
-0.172729
-0.154582
-0.139465
-0.125078
-0.114378
-0.104956
-0.610895
-0.530794
-0.512056
-0.463259
-0.437411
-0.401497
-0.373709
-0.342995
-0.31531
-0.287348
-0.261141
-0.235856
-0.212413
-0.190476
-0.170859
-0.152788
-0.137632
-0.1236
-0.11271
-0.104099
-0.615807
-0.533676
-0.514721
-0.464985
-0.438784
-0.402275
-0.374064
-0.342857
-0.314745
-0.28637
-0.259812
-0.234246
-0.21059
-0.188543
-0.16885
-0.15086
-0.135689
-0.12198
-0.110985
-0.103025
-0.620547
-0.536441
-0.517278
-0.466622
-0.440059
-0.402949
-0.374298
-0.342584
-0.314027
-0.28523
-0.258317
-0.23247
-0.208608
-0.186459
-0.166704
-0.148796
-0.133634
-0.120221
-0.109191
-0.101755
-0.6251
-0.53908
-0.519716
-0.46816
-0.441228
-0.40351
-0.374401
-0.342164
-0.313149
-0.283922
-0.25665
-0.230525
-0.206465
-0.184224
-0.164419
-0.146597
-0.131466
-0.118324
-0.10732
-0.100306
-0.629452
-0.541582
-0.522023
-0.469588
-0.442281
-0.403948
-0.374363
-0.341589
-0.312103
-0.282438
-0.254807
-0.22841
-0.204161
-0.181836
-0.161998
-0.144265
-0.129184
-0.116294
-0.105363
-0.0986929
-0.633587
-0.543936
-0.524191
-0.470898
-0.443206
-0.404252
-0.374175
-0.340851
-0.310882
-0.280774
-0.252785
-0.226121
-0.201695
-0.179298
-0.159439
-0.141801
-0.126788
-0.114131
-0.103313
-0.0969241
-0.637489
-0.54613
-0.526206
-0.472079
-0.443993
-0.404412
-0.373827
-0.33994
-0.309478
-0.278924
-0.250579
-0.223658
-0.199066
-0.176608
-0.156744
-0.139204
-0.124275
-0.111837
-0.101163
-0.0950078
-0.641143
-0.548154
-0.528057
-0.47312
-0.444632
-0.404417
-0.373308
-0.338847
-0.307883
-0.276882
-0.248187
-0.221018
-0.196275
-0.173769
-0.153913
-0.136477
-0.121646
-0.109415
-0.0989085
-0.0929497
-0.644533
-0.549994
-0.529732
-0.474011
-0.445111
-0.404257
-0.372607
-0.337563
-0.30609
-0.274645
-0.245607
-0.218201
-0.193322
-0.170781
-0.150948
-0.13362
-0.1189
-0.106865
-0.0965446
-0.090754
-0.647642
-0.55164
-0.531218
-0.47474
-0.445418
-0.403921
-0.371716
-0.33608
-0.304094
-0.272206
-0.242835
-0.215207
-0.190207
-0.167645
-0.147849
-0.130636
-0.116037
-0.10419
-0.0940675
-0.0884237
-0.650455
-0.553077
-0.532504
-0.475294
-0.445541
-0.403397
-0.370622
-0.334389
-0.301887
-0.269564
-0.23987
-0.212035
-0.18693
-0.164362
-0.144617
-0.127524
-0.113057
-0.101391
-0.0914743
-0.085961
-0.652954
-0.554294
-0.533575
-0.475663
-0.445468
-0.402673
-0.369317
-0.332482
-0.299464
-0.266713
-0.23671
-0.208685
-0.183494
-0.160934
-0.141254
-0.124287
-0.10996
-0.0984687
-0.0887626
-0.0833673
-0.655123
-0.555279
-0.534419
-0.475833
-0.445186
-0.401739
-0.367789
-0.330351
-0.29682
-0.263651
-0.233355
-0.205158
-0.1799
-0.157363
-0.137761
-0.120927
-0.106747
-0.0954247
-0.0859306
-0.0806436
-0.656945
-0.556016
-0.535022
-0.475792
-0.444683
-0.400583
-0.36603
-0.327988
-0.293948
-0.260376
-0.229804
-0.201455
-0.176148
-0.153651
-0.13414
-0.117444
-0.103418
-0.0922602
-0.0829771
-0.0777906
-0.658402
-0.556494
-0.53537
-0.475527
-0.443947
-0.399193
-0.36403
-0.325387
-0.290845
-0.256885
-0.226057
-0.197576
-0.172241
-0.149798
-0.130393
-0.113841
-0.0999734
-0.0889764
-0.0799011
-0.0748089
-0.659479
-0.556698
-0.535449
-0.475025
-0.442964
-0.397558
-0.361778
-0.32254
-0.287507
-0.253177
-0.222113
-0.193524
-0.16818
-0.145808
-0.12652
-0.110118
-0.0964146
-0.0855749
-0.0767025
-0.0716989
-0.660157
-0.556616
-0.535245
-0.474274
-0.441721
-0.395668
-0.359266
-0.319442
-0.283929
-0.24925
-0.217974
-0.189298
-0.163967
-0.141683
-0.122525
-0.106279
-0.0927428
-0.0820569
-0.0733815
-0.0684609
-0.66042
-0.556232
-0.534744
-0.473258
-0.440207
-0.393511
-0.356486
-0.316085
-0.280109
-0.245103
-0.213639
-0.184902
-0.159604
-0.137424
-0.118408
-0.102324
-0.0889594
-0.0784241
-0.0699385
-0.0650956
-0.660251
-0.555534
-0.533931
-0.471966
-0.438407
-0.391076
-0.353429
-0.312465
-0.276043
-0.240736
-0.209111
-0.180337
-0.155095
-0.133034
-0.114172
-0.0982562
-0.0850659
-0.0746783
-0.0663746
-0.0616036
-0.659632
-0.554507
-0.532792
-0.470384
-0.43631
-0.388353
-0.350087
-0.308578
-0.271731
-0.236149
-0.20439
-0.175605
-0.15044
-0.128516
-0.10982
-0.0940775
-0.0810643
-0.0708212
-0.0626914
-0.0579858
-0.658547
-0.553138
-0.531312
-0.468499
-0.433904
-0.385332
-0.346453
-0.304417
-0.267169
-0.231342
-0.199478
-0.170709
-0.145642
-0.123871
-0.105353
-0.08979
-0.0769564
-0.0668549
-0.0588908
-0.0542434
-0.656979
-0.551412
-0.529477
-0.466297
-0.431176
-0.382004
-0.34252
-0.299981
-0.262357
-0.226316
-0.194377
-0.16565
-0.140705
-0.119102
-0.100773
-0.0853963
-0.0727448
-0.0627819
-0.0549751
-0.0503778
-0.654913
-0.549315
-0.527274
-0.463766
-0.428115
-0.378358
-0.338281
-0.295265
-0.257294
-0.221072
-0.189088
-0.160432
-0.13563
-0.114213
-0.0960845
-0.0808988
-0.0684317
-0.0586044
-0.0509472
-0.0463907
-0.652331
-0.546835
-0.524687
-0.460892
-0.424709
-0.374388
-0.333731
-0.290267
-0.25198
-0.215612
-0.183616
-0.155058
-0.130421
-0.109205
-0.0912887
-0.0763001
-0.06402
-0.0543255
-0.0468104
-0.0422844
-0.649218
-0.543957
-0.521703
-0.457663
-0.420947
-0.370083
-0.328866
-0.284984
-0.246415
-0.209937
-0.177961
-0.14953
-0.125081
-0.104082
-0.0863885
-0.0716032
-0.0595125
-0.0499479
-0.0425682
-0.0380614
-0.645559
-0.540667
-0.518308
-0.454066
-0.416819
-0.365438
-0.32368
-0.279416
-0.2406
-0.204049
-0.172128
-0.143851
-0.119612
-0.0988463
-0.081387
-0.0668109
-0.0549124
-0.0454749
-0.0382249
-0.0337246
-0.641338
-0.536954
-0.514489
-0.450091
-0.412315
-0.360444
-0.318169
-0.27356
-0.234535
-0.197951
-0.166118
-0.138025
-0.114017
-0.0935013
-0.076287
-0.0619263
-0.0502229
-0.04091
-0.0337849
-0.0292774
-0.636543
-0.532803
-0.510232
-0.445725
-0.407426
-0.355096
-0.312331
-0.267417
-0.228223
-0.191646
-0.159935
-0.132054
-0.1083
-0.0880499
-0.0710917
-0.0569527
-0.0454475
-0.036257
-0.0292531
-0.0247237
-0.631158
-0.528203
-0.505526
-0.440958
-0.402142
-0.349388
-0.306162
-0.260988
-0.221664
-0.185136
-0.153583
-0.125943
-0.102464
-0.0824954
-0.0658043
-0.0518934
-0.04059
-0.0315197
-0.0246346
-0.0200678
-0.625171
-0.523141
-0.500359
-0.435778
-0.396456
-0.343315
-0.299662
-0.254271
-0.214863
-0.178425
-0.147065
-0.119695
-0.0965128
-0.0768411
-0.060428
-0.0467519
-0.0356542
-0.0267023
-0.0199349
-0.0153144
-0.618569
-0.517606
-0.494718
-0.430177
-0.390361
-0.336873
-0.292828
-0.24727
-0.207821
-0.171517
-0.140384
-0.113313
-0.0904491
-0.0710903
-0.0549663
-0.0415318
-0.030644
-0.0218094
-0.0151599
-0.0104688
-0.61134
-0.511586
-0.488593
-0.424145
-0.38385
-0.330058
-0.285661
-0.239984
-0.200542
-0.164414
-0.133545
-0.1068
-0.0842768
-0.0652464
-0.0494227
-0.0362369
-0.0255635
-0.0168453
-0.0103154
-0.00553644
-0.603474
-0.505072
-0.481973
-0.417674
-0.376916
-0.322867
-0.27816
-0.232418
-0.193029
-0.157122
-0.126552
-0.100162
-0.0779995
-0.0593132
-0.0438007
-0.0308709
-0.020417
-0.011815
-0.00540772
-0.000523502
-0.594962
-0.498054
-0.474851
-0.410756
-0.369557
-0.315301
-0.270328
-0.224574
-0.185286
-0.149643
-0.119409
-0.0934017
-0.0716208
-0.053294
-0.0381039
-0.0254376
-0.0152087
-0.00672338
-0.000442922
0.00456363
-0.585799
-0.490527
-0.467221
-0.403388
-0.361769
-0.307357
-0.262165
-0.216455
-0.177317
-0.141984
-0.112119
-0.0865229
-0.0651444
-0.0471925
-0.032336
-0.0199412
-0.00994293
-0.00157536
0.00457253
0.00971829
-0.575966
-0.482473
-0.459065
-0.395556
-0.353544
-0.299033
-0.253672
-0.208064
-0.169127
-0.134148
-0.104688
-0.07953
-0.0585745
-0.0410127
-0.0265011
-0.0143857
-0.00462443
0.00362381
0.0096316
0.0149336
-0.565459
-0.473887
-0.450381
-0.387258
-0.344882
-0.290331
-0.244852
-0.199405
-0.16072
-0.12614
-0.0971199
-0.0724273
-0.0519148
-0.0347585
-0.020603
-0.00877545
0.000742386
0.00886922
0.0147276
0.0202022
-0.554274
-0.464765
-0.441164
-0.378491
-0.335782
-0.281252
-0.235711
-0.190485
-0.152102
-0.117965
-0.0894195
-0.0652191
-0.0451695
-0.0284336
-0.0146455
-0.00311439
0.00615291
0.014155
0.0198562
0.0255152
-0.542407
-0.4551
-0.431407
-0.369251
-0.326243
-0.271798
-0.226251
-0.181308
-0.143279
-0.109629
-0.0815916
-0.0579096
-0.0383425
-0.0220421
-0.00863268
0.00259325
0.0116026
0.0194748
0.0250108
0.0308657
-0.529852
-0.444886
-0.421108
-0.359535
-0.316266
-0.261973
-0.216477
-0.171879
-0.134256
-0.101137
-0.073641
-0.0505035
-0.0314382
-0.015588
-0.00256857
0.00834281
0.0170873
0.0248242
0.0301846
0.0362459
-0.516609
-0.43412
-0.410263
-0.349343
-0.305853
-0.251779
-0.206395
-0.162205
-0.125038
-0.0924948
-0.065573
-0.0430052
-0.0244605
-0.00907524
0.00354276
0.0141302
0.0226022
0.0301979
0.0353716
0.0416475
-0.502674
-0.422799
-0.39887
-0.338674
-0.295006
-0.241223
-0.196012
-0.152291
-0.115633
-0.0837075
-0.0573925
-0.0354194
-0.017414
-0.0025082
0.00969737
0.0199513
0.0281428
0.0355905
0.0405664
0.0470626
-0.488049
-0.41092
-0.386927
-0.327528
-0.283727
-0.230307
-0.185332
-0.142146
-0.106048
-0.0747814
-0.0491049
-0.0277507
-0.0103029
0.00410912
0.0158911
0.0258018
0.0337046
0.0409966
0.0457633
0.0524829
-0.472734
-0.398483
-0.374436
-0.315908
-0.272022
-0.21904
-0.174364
-0.131776
-0.0962872
-0.0657224
-0.0407153
-0.0200041
-0.00313158
0.0107726
0.0221198
0.0316774
0.0392833
0.0464111
0.0509574
0.0579005
-0.456732
-0.385487
-0.361397
-0.303816
-0.259896
-0.207427
-0.163116
-0.121188
-0.0863595
-0.0565369
-0.0322291
-0.0121848
0.00409552
0.0174779
0.0283794
0.037574
0.0448746
0.0518289
0.0561437
0.0633074
-0.440048
-0.371934
-0.347814
-0.291256
-0.247354
-0.195477
-0.151594
-0.110391
-0.0762718
-0.047231
-0.0236529
-0.00429662
0.0113739
0.0242209
0.0346658
0.0434872
0.0504742
0.0572451
0.0613175
0.0686957
-0.422685
-0.357827
-0.33369
-0.278233
-0.234405
-0.183196
-0.139809
-0.099393
-0.0660312
-0.0378115
-0.0149914
0.00365461
0.0186988
0.0309972
0.0409748
0.049413
0.0560782
0.0626548
0.0664747
0.0740578
-0.404652
-0.343168
-0.319029
-0.264753
-0.221056
-0.170595
-0.127769
-0.0882019
-0.0556456
-0.0282848
-0.00625034
0.0116639
0.0260659
0.0378026
0.0473025
0.0553474
0.0616823
0.0680533
0.0716112
0.0793864
-0.385956
-0.327963
-0.303839
-0.250823
-0.207316
-0.157682
-0.115483
-0.0768268
-0.0451229
-0.0186577
0.00256419
0.0197261
0.0334705
0.0446329
0.0536447
0.0612862
0.0672828
0.0734363
0.0767234
0.0846745
-0.366607
-0.312218
-0.288128
-0.236452
-0.193195
-0.144469
-0.102963
-0.0652769
-0.0344708
-0.0089371
0.0114463
0.0278361
0.0409078
0.0514836
0.0599974
0.0672256
0.0728759
0.0787994
0.0818078
0.0899153
-0.346616
-0.295941
-0.271903
-0.221648
-0.178703
-0.130966
-0.0902176
-0.0535618
-0.0236977
0.000870033
0.0203899
0.0359886
0.0483732
0.0583505
0.0663566
0.0731616
0.0784579
0.0841386
0.0868614
0.0951025
-0.325996
-0.279139
-0.255175
-0.206423
-0.163854
-0.117184
-0.077259
-0.0416909
-0.0128118
0.0107566
0.0293889
0.0441783
0.055862
0.0652294
0.0727183
0.0790905
0.0840251
0.08945
0.0918813
0.10023
-0.30476
-0.261823
-0.237955
-0.190787
-0.148658
-0.103135
-0.064098
-0.0296742
-0.00182189
0.0207153
0.0384372
0.0523997
0.0633693
0.0721158
0.0790785
0.0850085
0.0895743
0.0947299
0.0968649
0.105293
-0.282924
-0.244004
-0.220255
-0.174753
-0.13313
-0.0888328
-0.0507463
-0.0175218
0.00926352
0.0307388
0.0475284
0.0606475
0.0708904
0.0790055
0.0854334
0.0909119
0.095102
0.0999748
0.10181
0.110287
-0.260505
-0.225695
-0.202091
-0.158335
-0.117284
-0.0742898
-0.0372162
-0.00524417
0.0204355
0.0408198
0.0566562
0.0689162
0.0784205
0.0858942
0.091779
0.0967973
0.100605
0.105181
0.106715
0.115206
-0.237522
-0.206909
-0.183476
-0.141547
-0.101134
-0.0595202
-0.0235198
0.00714816
0.0316852
0.0509506
0.0658142
0.0772003
0.0859547
0.0927775
0.0981115
0.102661
0.10608
0.110347
0.111577
0.120047
-0.213993
-0.187661
-0.164426
-0.124404
-0.0846949
-0.0445379
-0.00967009
0.0196444
0.0430034
0.0611236
0.0749959
0.0854941
0.0934881
0.0996513
0.104427
0.1085
0.111525
0.115468
0.116395
0.124807
-0.18994
-0.167968
-0.144961
-0.106923
-0.0679846
-0.0293575
0.0043201
0.0322335
0.0543808
0.0713311
0.0841948
0.0937922
0.101016
0.106511
0.110722
0.11431
0.116936
0.120542
0.121168
0.129482
-0.165386
-0.147847
-0.125097
-0.0891198
-0.0510194
-0.0139941
0.0184374
0.0449044
0.0658082
0.0815653
0.0934042
0.102089
0.108533
0.113353
0.116992
0.120089
0.122311
0.125567
0.125894
0.134069
-0.140355
-0.127316
-0.104853
-0.0710153
-0.0338169
0.00153675
0.0326683
0.0576457
0.077276
0.0918183
0.102618
0.110378
0.116035
0.120172
0.123235
0.125833
0.127646
0.130541
0.130572
0.138567
-0.114872
-0.106396
-0.0842507
-0.0526264
-0.0163952
0.0172191
0.0469991
0.0704461
0.0887747
0.102082
0.111828
0.118655
0.123517
0.126965
0.129445
0.131538
0.13294
0.13546
0.135202
0.142974
-0.0889611
-0.0851092
-0.063313
-0.0339731
0.00122678
0.0330368
0.0614156
0.0832937
0.100295
0.112349
0.121029
0.126913
0.130973
0.133727
0.13562
0.137203
0.13819
0.140323
0.139783
0.147288
-0.06265
-0.0634779
-0.0420619
-0.015076
0.0190299
0.0489733
0.0759037
0.096177
0.111826
0.12261
0.130213
0.135146
0.138399
0.140454
0.141756
0.142824
0.143393
0.145129
0.144314
0.151507
-0.035971
-0.041523
-0.020521
0.00404353
0.0369944
0.0650115
0.090449
0.109084
0.123359
0.132858
0.139375
0.14335
0.14579
0.147142
0.147849
0.148398
0.148548
0.149875
0.148795
0.155631
-0.00895643
-0.0192667
0.00128502
0.0233637
0.0551001
0.0811344
0.105037
0.122003
0.134884
0.143085
0.148506
0.151518
0.153141
0.153786
0.153896
0.153922
0.153651
0.154559
0.153227
0.159659
0.0183672
0.00326186
0.0233307
0.042862
0.0733263
0.0973246
0.119653
0.134922
0.14639
0.153281
0.1576
0.159643
0.160447
0.160383
0.159893
0.159393
0.1587
0.15918
0.157609
0.163588
0.0459675
0.0260364
0.0455896
0.0625152
0.091652
0.113564
0.134282
0.147828
0.157868
0.163439
0.16665
0.167722
0.167703
0.166928
0.165837
0.164809
0.163694
0.163737
0.161942
0.16742
0.0738108
0.0490301
0.0680348
0.0822997
0.110056
0.129836
0.148909
0.16071
0.169308
0.173551
0.175649
0.175746
0.174904
0.173416
0.171724
0.170166
0.168629
0.168227
0.166227
0.171151
0.101863
0.072215
0.0906384
0.102191
0.128516
0.146122
0.163519
0.173555
0.180699
0.183609
0.184591
0.183712
0.182046
0.179845
0.177551
0.175462
0.173504
0.172651
0.170466
0.174781
0.130088
0.095562
0.113372
0.122165
0.147011
0.162403
0.178097
0.186351
0.192032
0.193603
0.193467
0.191613
0.189122
0.18621
0.183314
0.180695
0.178317
0.177005
0.174659
0.178305
0.158451
0.119041
0.136206
0.142197
0.165519
0.178661
0.192628
0.199086
0.203297
0.203526
0.202272
0.199442
0.196129
0.192506
0.189009
0.185861
0.183064
0.18129
0.178811
0.181734
0.186917
0.142623
0.159112
0.162261
0.184017
0.194879
0.207097
0.211747
0.214482
0.213369
0.210999
0.207195
0.203062
0.19873
0.194634
0.190958
0.187744
0.185504
0.18294
0.185089
0.215447
0.166277
0.18206
0.182331
0.202482
0.211038
0.221488
0.224323
0.225579
0.223124
0.219639
0.214865
0.209915
0.204878
0.200185
0.195983
0.192353
0.189647
0.18707
0.188307
0.243998
0.189966
0.205016
0.202381
0.220892
0.227118
0.235786
0.2368
0.236577
0.232783
0.228187
0.222447
0.216684
0.210944
0.205658
0.200933
0.196888
0.193724
0.191171
0.191032
0.272515
0.213651
0.227946
0.222383
0.239224
0.243103
0.249977
0.249167
0.247466
0.242338
0.236636
0.229935
0.223363
0.216927
0.21105
0.205806
0.201346
0.197731
0.195122
0.192919
0.301003
0.237321
0.250831
0.242315
0.257456
0.258973
0.264045
0.261411
0.258236
0.251779
0.244978
0.237324
0.229949
0.222821
0.216358
0.210599
0.205724
0.201665
0.199009
0.195436
0.329409
0.260937
0.273635
0.26215
0.275566
0.27471
0.277974
0.27352
0.268877
0.2611
0.253207
0.244607
0.236436
0.228622
0.221578
0.215309
0.210019
0.205523
0.202761
0.198334
0.357686
0.284459
0.296324
0.28186
0.29353
0.290297
0.291751
0.285483
0.279379
0.270291
0.261316
0.251778
0.24282
0.234327
0.226707
0.219933
0.21423
0.209307
0.206371
0.201273
0.385794
0.307856
0.318867
0.301418
0.311325
0.305714
0.30536
0.297287
0.289732
0.279345
0.269299
0.258833
0.249096
0.239931
0.231742
0.22447
0.218355
0.213016
0.209859
0.204189
0.413694
0.331093
0.341232
0.320799
0.32893
0.320943
0.318786
0.308921
0.299927
0.288254
0.277148
0.265766
0.255259
0.245432
0.23668
0.228916
0.22239
0.216648
0.213236
0.20709
0.441346
0.354137
0.363388
0.339975
0.346322
0.335968
0.332015
0.320372
0.309954
0.297009
0.284858
0.272571
0.261305
0.250824
0.241517
0.233268
0.226335
0.220201
0.216508
0.209967
0.46871
0.376953
0.385302
0.358921
0.363479
0.350769
0.345033
0.331629
0.319803
0.305604
0.292421
0.279243
0.267229
0.256105
0.246251
0.237525
0.230187
0.223674
0.21968
0.212809
0.495747
0.399509
0.406943
0.377611
0.380378
0.36533
0.357825
0.34268
0.329465
0.31403
0.299831
0.285776
0.273027
0.26127
0.250878
0.241684
0.233946
0.227064
0.222755
0.215608
0.522416
0.42177
0.42828
0.396018
0.396999
0.379633
0.370376
0.353515
0.338931
0.32228
0.307082
0.292166
0.278694
0.266316
0.255396
0.245742
0.23761
0.230371
0.225736
0.218357
0.548679
0.443702
0.449282
0.414118
0.413319
0.393661
0.382675
0.364122
0.348192
0.330346
0.314168
0.298407
0.284226
0.27124
0.259801
0.249698
0.241176
0.233593
0.228626
0.221051
0.574496
0.465273
0.469918
0.431884
0.429318
0.407398
0.394705
0.37449
0.357238
0.33822
0.321082
0.304493
0.289619
0.276037
0.264091
0.253548
0.244645
0.236727
0.231427
0.223685
0.599829
0.486449
0.490158
0.449293
0.444975
0.420827
0.406455
0.384609
0.366061
0.345896
0.327819
0.310421
0.294869
0.280705
0.268263
0.25729
0.248013
0.239772
0.234139
0.226254
0.62464
0.507197
0.509971
0.46632
0.46027
0.433932
0.417911
0.394468
0.374652
0.353367
0.334372
0.316184
0.299971
0.285239
0.272314
0.260923
0.25128
0.242727
0.236764
0.228756
0.648891
0.527486
0.529329
0.48294
0.475183
0.446697
0.429061
0.404056
0.383003
0.360625
0.340736
0.321779
0.304922
0.289637
0.276241
0.264443
0.254444
0.245591
0.239302
0.231187
0.672545
0.547283
0.548202
0.499131
0.489693
0.459106
0.439892
0.413364
0.391105
0.367663
0.346905
0.3272
0.309717
0.293895
0.280041
0.267849
0.257503
0.24836
0.241753
0.233546
0.695566
0.566558
0.566563
0.514869
0.503784
0.471145
0.450391
0.422381
0.39895
0.374476
0.352874
0.332443
0.314353
0.298011
0.283713
0.271139
0.260456
0.251034
0.244118
0.235828
0.717918
0.585281
0.584383
0.530132
0.517435
0.4828
0.460547
0.431099
0.406532
0.381057
0.358637
0.337504
0.318826
0.30198
0.287253
0.27431
0.263301
0.253612
0.246395
0.238033
0.739568
0.603421
0.601636
0.544898
0.530629
0.494055
0.470349
0.439508
0.413841
0.387399
0.364189
0.342378
0.323133
0.305801
0.290659
0.27736
0.266037
0.256091
0.248584
0.240157
0.760482
0.62095
0.618296
0.559147
0.543349
0.504898
0.479785
0.4476
0.420871
0.393496
0.369526
0.347061
0.327269
0.309469
0.293929
0.280287
0.268662
0.25847
0.250684
0.242199
0.780626
0.63784
0.634337
0.572857
0.555578
0.515314
0.488845
0.455364
0.427615
0.399343
0.374641
0.351548
0.331232
0.312983
0.29706
0.283089
0.271174
0.260748
0.252695
0.244158
0.79997
0.654064
0.649735
0.58601
0.5673
0.525292
0.497519
0.462794
0.434066
0.404934
0.379531
0.355837
0.335018
0.316339
0.30005
0.285765
0.273572
0.262923
0.254615
0.246031
0.818483
0.669595
0.664467
0.598586
0.578499
0.534819
0.505796
0.469882
0.440216
0.410263
0.384191
0.359923
0.338624
0.319535
0.302896
0.288312
0.275855
0.264993
0.256444
0.247817
0.836137
0.684409
0.67851
0.610567
0.589161
0.543884
0.513667
0.476619
0.446061
0.415326
0.388617
0.363802
0.342048
0.322568
0.305596
0.290728
0.27802
0.266958
0.25818
0.249513
0.852903
0.698482
0.691843
0.621936
0.599271
0.552475
0.521123
0.482998
0.451594
0.420117
0.392804
0.367472
0.345285
0.325435
0.30815
0.293012
0.280066
0.268816
0.259822
0.25112
0.868754
0.71179
0.704446
0.632677
0.608816
0.560581
0.528156
0.489014
0.45681
0.424632
0.396749
0.370929
0.348334
0.328136
0.310553
0.295162
0.281993
0.270564
0.261369
0.252634
0.883666
0.724313
0.716298
0.642773
0.617783
0.568193
0.534757
0.494658
0.461702
0.428867
0.400449
0.374169
0.351192
0.330666
0.312805
0.297177
0.283798
0.272203
0.262819
0.254055
0.897616
0.736029
0.727382
0.652211
0.626161
0.575302
0.540919
0.499925
0.466267
0.432817
0.403898
0.377191
0.353856
0.333025
0.314904
0.299054
0.28548
0.273731
0.264173
0.25538
0.91058
0.74692
0.73768
0.660977
0.633938
0.581898
0.546635
0.504809
0.470499
0.436478
0.407096
0.379991
0.356325
0.33521
0.316848
0.300793
0.287037
0.275146
0.265427
0.25661
0.922538
0.756967
0.747177
0.669058
0.641104
0.587974
0.551898
0.509306
0.474394
0.439848
0.410037
0.382566
0.358595
0.33722
0.318636
0.302392
0.28847
0.276448
0.266581
0.257742
0.933471
0.766155
0.755859
0.676442
0.647649
0.593521
0.556703
0.513409
0.477947
0.442921
0.41272
0.384915
0.360665
0.339052
0.320266
0.303849
0.289776
0.277634
0.267635