/*--------------------------------*- C++ -*----------------------------------*\
  =========                 |
  \\      /  F ield         | OpenFOAM: The Open Source CFD Toolbox
   \\    /   O peration     | Website:  https://openfoam.org
    \\  /    A nd           | Version:  7
     \\/     M anipulation  |
\*---------------------------------------------------------------------------*/
FoamFile
{
    version     2.0;
    format      ascii;
    class       volVectorField;
    location    "10";
    object      U;
}
// * * * * * * * * * * * * * * * * * * * * * * * * * * * * * * * * * * * * * //

dimensions      [0 1 -1 0 0 0 0];

internalField   nonuniform List<vector> 
42000
(
(-0.00177851 0.000225964 -6.3935e-21)
(-0.00439562 0.000123567 2.12053e-21)
(-0.00477691 -0.000153519 -8.26801e-22)
(-0.00072672 -0.000538385 -4.26276e-21)
(0.00754788 -0.000928266 -1.00085e-21)
(0.0197835 -0.00131589 4.4498e-21)
(0.0356047 -0.00167196 5.58813e-21)
(0.0544261 -0.0020002 -4.6984e-21)
(0.0758948 -0.00229399 6.50092e-21)
(0.099547 -0.00255762 -1.82883e-21)
(0.12506 -0.00279115 -1.0949e-21)
(0.152161 -0.00299765 -2.0845e-22)
(0.180478 -0.00317887 -4.15389e-21)
(0.210047 -0.00333763 -3.70678e-21)
(0.240139 -0.00347367 1.00467e-21)
(0.271641 -0.0035995 3.10081e-21)
(0.302445 -0.00368711 -1.70795e-21)
(0.336014 -0.00383792 -3.83664e-21)
(0.366461 -0.00379059 -3.86351e-22)
(0.402146 -0.00432009 -1.71677e-21)
(-0.00178836 0.000675661 6.58332e-21)
(-0.00435225 0.000367138 -1.2077e-20)
(-0.00463356 -0.000463833 -4.18865e-21)
(-0.000461997 -0.00161736 3.03098e-21)
(0.00795159 -0.00278541 -8.06414e-21)
(0.0203364 -0.00394641 -1.59812e-21)
(0.036317 -0.00501255 2.14563e-21)
(0.0553064 -0.00599508 -9.04624e-21)
(0.0769523 -0.0068741 -3.92338e-21)
(0.100791 -0.00766252 3.83918e-21)
(0.1265 -0.00836055 -8.18209e-21)
(0.153807 -0.00897739 -4.02064e-21)
(0.182341 -0.00951833 3.58856e-21)
(0.212137 -0.00999174 1.1376e-20)
(0.242465 -0.0103972 5.32413e-21)
(0.274221 -0.0107714 -7.08733e-21)
(0.305268 -0.0110323 3.4239e-21)
(0.339142 -0.0114792 1.09288e-20)
(0.369768 -0.0113399 -2.58211e-22)
(0.405958 -0.0129079 -8.23529e-22)
(-0.00180771 0.00111803 2.34298e-21)
(-0.00426493 0.000598248 6.69456e-21)
(-0.00434624 -0.000786886 -7.74164e-21)
(6.79285e-05 -0.00270702 1.11029e-20)
(0.00875924 -0.00464964 2.10809e-20)
(0.021442 -0.00657965 -1.67518e-20)
(0.0377412 -0.00835087 -2.1981e-21)
(0.0570659 -0.00998232 2.11398e-21)
(0.0790655 -0.0114408 -6.23322e-21)
(0.103276 -0.0127479 -1.92774e-20)
(0.129376 -0.0139038 -1.09134e-20)
(0.157094 -0.014924 -4.05193e-21)
(0.186058 -0.0158172 1.02819e-20)
(0.216308 -0.0165969 -1.4152e-21)
(0.247104 -0.0172634 6.03116e-21)
(0.279364 -0.0178753 6.40227e-21)
(0.310894 -0.0183019 -7.33018e-21)
(0.345371 -0.019026 -8.87882e-21)
(0.376349 -0.0187986 2.94009e-21)
(0.413537 -0.0213384 1.16367e-20)
(-0.00183589 0.00154825 -2.58145e-20)
(-0.00413245 0.000808682 -8.11273e-21)
(-0.00391378 -0.00113106 4.06657e-20)
(0.000864025 -0.00381437 -1.35791e-20)
(0.00997137 -0.00652556 -3.46882e-20)
(0.0231003 -0.00921732 3.78871e-20)
(0.0398762 -0.0116853 -2.59226e-20)
(0.0597026 -0.0139567 -9.82925e-21)
(0.0822309 -0.0159851 6.13737e-21)
(0.106996 -0.0178006 1.55106e-20)
(0.13368 -0.0194036 1.66559e-20)
(0.162011 -0.0208153 -1.07597e-20)
(0.191616 -0.0220485 1.05311e-20)
(0.222541 -0.0231209 -2.40301e-20)
(0.254031 -0.0240347 -7.44713e-21)
(0.287039 -0.0248666 -5.74108e-21)
(0.319281 -0.0254465 1.21324e-20)
(0.354647 -0.0264164 2.12519e-21)
(0.386144 -0.0261074 -7.43532e-21)
(0.424798 -0.0295099 -9.74433e-21)
(-0.00187187 0.00196156 3.57868e-20)
(-0.00395306 0.00099036 -2.17138e-20)
(-0.00333436 -0.00150459 -5.34332e-20)
(0.00192774 -0.00494625 4.15636e-20)
(0.0115887 -0.00841762 2.59933e-20)
(0.0253111 -0.011861 -2.99042e-20)
(0.0427206 -0.0150142 2.90588e-20)
(0.0632133 -0.0179131 -1.63076e-20)
(0.0864433 -0.0204978 1.78203e-20)
(0.111945 -0.0228075 5.71714e-21)
(0.139401 -0.0248424 -9.32765e-22)
(0.168542 -0.0266295 1.41102e-20)
(0.198994 -0.0281854 -1.83043e-20)
(0.230807 -0.0295314 1.26723e-20)
(0.26321 -0.0306735 1.97339e-21)
(0.297196 -0.0317013 -6.11306e-21)
(0.330369 -0.0324171 5.59582e-21)
(0.366891 -0.03359 -1.50036e-20)
(0.399058 -0.0332092 -5.60982e-21)
(0.439608 -0.0373258 5.00083e-21)
(-0.00191429 0.00235331 2.04833e-20)
(-0.0037244 0.0011354 2.781e-20)
(-0.0026056 -0.0019155 6.08902e-20)
(0.00326099 -0.00610925 -7.70834e-20)
(0.0136123 -0.01033 -7.38436e-20)
(0.0280741 -0.0145119 6.75244e-20)
(0.0462725 -0.0183355 -4.67565e-21)
(0.067594 -0.0218458 5.28201e-20)
(0.0916958 -0.0249699 -3.21258e-20)
(0.118111 -0.0277555 4.68936e-20)
(0.146524 -0.030203 1.65996e-20)
(0.176667 -0.0323447 -1.03073e-20)
(0.208162 -0.0342013 -2.35386e-20)
(0.241067 -0.035797 -1.40356e-21)
(0.27459 -0.0371433 -3.63866e-20)
(0.309771 -0.0383364 -5.41856e-21)
(0.344078 -0.0391666 8.18464e-21)
(0.381998 -0.0404888 9.84409e-21)
(0.414969 -0.0400492 1.83874e-20)
(0.457797 -0.0446964 -4.384e-21)
(-0.00196149 0.00271898 -5.98366e-20)
(-0.00344355 0.00123614 -1.56653e-20)
(-0.00172456 -0.00237149 -4.54691e-21)
(0.00486616 -0.00730971 4.65485e-20)
(0.0160435 -0.0122668 9.10035e-20)
(0.0313891 -0.0171713 -4.72537e-20)
(0.0505295 -0.0216471 -3.34302e-20)
(0.0728395 -0.0257494 1.31681e-20)
(0.0979796 -0.0293918 5.96949e-20)
(0.125481 -0.0326312 -5.09539e-20)
(0.155029 -0.0354677 -3.8608e-20)
(0.186358 -0.037939 -2.62297e-20)
(0.219085 -0.0400702 3.62216e-20)
(0.253276 -0.0418865 3.15466e-20)
(0.288112 -0.0434082 4.70074e-20)
(0.324686 -0.0447303 4.07306e-20)
(0.360308 -0.0456493 -3.16564e-20)
(0.39984 -0.0470575 1.71164e-20)
(0.433729 -0.0465757 -1.13604e-20)
(0.479157 -0.0515406 -2.37694e-21)
(-0.00201146 0.00305423 1.09338e-20)
(-0.00310706 0.00128525 3.21074e-20)
(-0.000687719 -0.0028799 -6.87851e-20)
(0.00674606 -0.00855361 -3.13587e-21)
(0.0188836 -0.0142314 -2.35222e-20)
(0.0352556 -0.0198398 -7.59954e-20)
(0.0554886 -0.0249465 5.3861e-20)
(0.0789436 -0.0296178 3.12938e-21)
(0.105284 -0.0337541 -7.39931e-20)
(0.134039 -0.0374214 -6.33768e-21)
(0.164895 -0.0406195 1.63677e-20)
(0.197585 -0.0433911 5.30281e-20)
(0.231722 -0.0457661 -2.5662e-20)
(0.267377 -0.0477696 -2.38015e-20)
(0.303703 -0.0494334 -2.11909e-20)
(0.341847 -0.0508429 -1.63993e-20)
(0.378945 -0.0518216 3.25861e-20)
(0.420265 -0.0532443 -7.0303e-21)
(0.455164 -0.0527407 -2.70881e-20)
(0.503445 -0.057787 2.20036e-20)
(-0.00206192 0.00335488 3.49503e-20)
(-0.00271093 0.00127573 -2.96028e-20)
(0.000508959 -0.00344771 -3.46637e-20)
(0.00890396 -0.00984646 -2.57709e-20)
(0.0221343 -0.0162271 -1.58363e-21)
(0.0396731 -0.0225177 3.23629e-20)
(0.0611464 -0.0282308 -1.54111e-20)
(0.0858991 -0.0334449 -9.86775e-20)
(0.113598 -0.038047 7.243e-20)
(0.143768 -0.0421124 7.29201e-20)
(0.176095 -0.0456407 1.22608e-20)
(0.210311 -0.0486795 -3.22962e-20)
(0.246024 -0.0512638 -1.15719e-20)
(0.283307 -0.0534168 -7.01464e-21)
(0.321279 -0.0551855 -2.50702e-20)
(0.361148 -0.0566363 -3.34759e-20)
(0.399855 -0.0576424 -3.77544e-20)
(0.443103 -0.0590015 4.32937e-21)
(0.479076 -0.0584998 1.28725e-20)
(0.530384 -0.0633759 -3.18277e-20)
(-0.00211028 0.00361698 2.10953e-20)
(-0.00225065 0.00120094 8.56479e-20)
(0.00187004 -0.00408145 1.27837e-19)
(0.0113435 -0.0111933 8.26788e-20)
(0.0257977 -0.0182565 3.37294e-21)
(0.0446411 -0.0252051 2.45785e-20)
(0.067499 -0.031497 3.41195e-20)
(0.0936978 -0.0372241 -1.98426e-20)
(0.122907 -0.0422604 -9.28313e-20)
(0.154645 -0.0466906 -9.26725e-20)
(0.188599 -0.0505143 -2.51395e-21)
(0.224496 -0.0537833 7.6938e-20)
(0.261935 -0.0565383 -1.6598e-20)
(0.300993 -0.0587995 8.76569e-21)
(0.340749 -0.0606323 -2.26684e-20)
(0.382468 -0.0620745 5.1108e-20)
(0.42289 -0.0630735 1.48919e-20)
(0.468163 -0.0642859 -3.26976e-21)
(0.50525 -0.0638128 4.30379e-20)
(0.559676 -0.0682595 8.55471e-21)
(-0.00215369 0.00383682 -3.71046e-20)
(-0.00172124 0.00105474 -9.59438e-20)
(0.00340059 -0.00478711 -2.56431e-20)
(0.0140688 -0.0125987 -1.11559e-19)
(0.0298757 -0.0203219 2.78384e-20)
(0.0501589 -0.0279012 -6.25317e-20)
(0.0745421 -0.0347412 -6.78606e-20)
(0.102331 -0.0409485 2.73028e-20)
(0.133196 -0.046384 3.46034e-20)
(0.166649 -0.0511424 -1.80065e-20)
(0.202374 -0.0552228 -8.88488e-20)
(0.240094 -0.0586817 -9.98423e-20)
(0.279396 -0.0615656 4.79618e-20)
(0.320354 -0.0638902 -1.22349e-20)
(0.36201 -0.0657435 -7.98502e-21)
(0.405677 -0.0671244 -8.00156e-20)
(0.447889 -0.0680796 -8.23313e-22)
(0.49524 -0.0690595 -1.74464e-20)
(0.533452 -0.0686437 4.17468e-21)
(0.590995 -0.072403 -4.86557e-21)
(-0.00218904 0.00401097 -9.32772e-20)
(-0.00111724 0.00083139 -3.55766e-20)
(0.00510613 -0.00557011 3.87007e-20)
(0.0170841 -0.0140665 8.12417e-20)
(0.0343706 -0.0224248 -7.3266e-20)
(0.0562257 -0.030605 9.81748e-20)
(0.0822707 -0.0379593 1.26603e-19)
(0.111787 -0.0446108 3.1985e-20)
(0.144448 -0.0504072 -1.71995e-20)
(0.179753 -0.0554538 1.28544e-19)
(0.217384 -0.0597492 1.66249e-19)
(0.257055 -0.0633543 1.23242e-19)
(0.298338 -0.0663222 -4.96755e-20)
(0.341305 -0.0686628 -8.75784e-22)
(0.384949 -0.0704903 1.16113e-20)
(0.430633 -0.0717552 7.2156e-20)
(0.474679 -0.072629 1.21177e-20)
(0.524113 -0.0732898 2.01125e-20)
(0.563435 -0.0729608 -4.08872e-20)
(0.624005 -0.0757848 2.38866e-20)
(-0.00221297 0.00413628 8.58889e-20)
(-0.000432782 0.000525721 5.74729e-20)
(0.00699261 -0.00643526 -9.38362e-20)
(0.0203944 -0.0156001 -4.5543e-20)
(0.0392848 -0.0245662 5.61993e-20)
(0.0628405 -0.0333148 -5.81941e-20)
(0.0906793 -0.0411467 -2.51532e-20)
(0.122056 -0.0482031 2.43158e-20)
(0.156643 -0.0543192 3.14102e-20)
(0.193929 -0.0596107 -3.57985e-20)
(0.233589 -0.0640764 -5.40361e-20)
(0.275324 -0.0677811 -6.50441e-20)
(0.318691 -0.0707857 2.72234e-20)
(0.36375 -0.0730924 -1.52274e-20)
(0.409447 -0.0748463 3.5984e-20)
(0.457184 -0.0759395 -9.20275e-21)
(0.503076 -0.0766934 -9.28239e-21)
(0.554552 -0.0769505 -1.97799e-20)
(0.594941 -0.0767372 3.21041e-20)
(0.658355 -0.0783962 -3.83234e-20)
(-0.00222186 0.00420967 -7.87349e-20)
(0.000338366 0.000133289 9.82912e-20)
(0.00906639 -0.0073867 2.79001e-20)
(0.0240045 -0.0172019 3.64502e-20)
(0.0446208 -0.0267463 1.28839e-19)
(0.0700022 -0.0360281 -6.14934e-20)
(0.0997621 -0.044298 -1.56755e-19)
(0.133126 -0.0517174 2.99976e-21)
(0.169763 -0.0581087 -5.64276e-21)
(0.209148 -0.0635991 -1.19216e-19)
(0.250946 -0.0681873 -6.32952e-20)
(0.294843 -0.0719428 -4.29011e-20)
(0.340376 -0.0749342 -1.7725e-20)
(0.387589 -0.0771559 2.7515e-21)
(0.435378 -0.078787 -7.00835e-20)
(0.485171 -0.0796531 5.5113e-22)
(0.532887 -0.0802489 -4.59942e-21)
(0.586316 -0.0800216 4.72414e-20)
(0.627704 -0.0799505 -8.80145e-21)
(0.693692 -0.0802414 3.92601e-20)
(-0.00221173 0.00422806 4.70055e-20)
(0.00120273 -0.000349407 -7.26518e-20)
(0.0113342 -0.00842785 9.70904e-21)
(0.0279199 -0.0188738 -1.60381e-19)
(0.050381 -0.0289647 -1.20347e-19)
(0.0777094 -0.0387419 1.362e-19)
(0.109512 -0.0474075 -2.2431e-20)
(0.144983 -0.0551447 8.83067e-20)
(0.183785 -0.0617641 1.44124e-20)
(0.225377 -0.0674046 1.06839e-19)
(0.26941 -0.0720653 7.85451e-20)
(0.315551 -0.0758203 -1.83782e-20)
(0.363312 -0.0787474 3.2622e-20)
(0.412716 -0.0808317 1.01549e-19)
(0.462608 -0.0822906 2.14209e-20)
(0.514427 -0.0828753 2.66193e-22)
(0.563912 -0.0832756 3.0247e-20)
(0.619159 -0.0824897 -6.40982e-20)
(0.661453 -0.0825836 4.64117e-20)
(0.729664 -0.0813364 -3.27007e-20)
(-0.00217865 0.00418989 5.6031e-20)
(0.00216755 -0.000926292 2.88106e-20)
(0.0138029 -0.00956145 -2.76106e-20)
(0.032146 -0.0206168 1.93085e-19)
(0.0565682 -0.0312202 -1.06395e-19)
(0.0859606 -0.0414523 -1.02781e-19)
(0.119923 -0.0504685 7.12105e-20)
(0.157612 -0.058476 -1.0456e-20)
(0.198686 -0.0652735 6.52654e-20)
(0.24258 -0.0710129 -7.06452e-20)
(0.28893 -0.0756939 2.75037e-20)
(0.33738 -0.0793956 3.67291e-20)
(0.387412 -0.0822057 1.25089e-19)
(0.43902 -0.0841001 -8.88625e-20)
(0.490997 -0.0853378 -5.65698e-20)
(0.54478 -0.0855891 -5.04891e-20)
(0.595945 -0.0857581 -2.6552e-20)
(0.652834 -0.0843483 8.41177e-20)
(0.695916 -0.0846243 -6.4282e-20)
(0.765926 -0.0817082 -3.52408e-21)
(-0.00211881 0.00409394 -9.75975e-20)
(0.00324018 -0.00160075 -4.68337e-20)
(0.0164801 -0.0107894 1.03288e-19)
(0.0366886 -0.0224312 -2.55807e-20)
(0.0631849 -0.0335107 1.03665e-19)
(0.0947541 -0.0441549 1.46566e-19)
(0.130987 -0.0534739 -6.22554e-20)
(0.170999 -0.0617014 -7.02071e-20)
(0.214441 -0.0686247 -2.03842e-19)
(0.260721 -0.0744095 1.48418e-19)
(0.309456 -0.0790567 -1.87404e-20)
(0.360261 -0.082651 -1.0615e-20)
(0.412584 -0.0852911 -7.64675e-20)
(0.466385 -0.0869434 4.56052e-20)
(0.520401 -0.087912 4.25706e-20)
(0.576054 -0.0877814 2.81514e-20)
(0.62878 -0.0876855 1.03682e-20)
(0.687091 -0.085598 -5.55338e-20)
(0.730823 -0.0860663 -4.45888e-21)
(0.802146 -0.0813933 3.81602e-20)
(-0.00202786 0.00393818 -4.44795e-20)
(0.00442798 -0.0023744 -3.43182e-20)
(0.0193732 -0.0121127 -1.29519e-19)
(0.0415537 -0.0243163 -1.79375e-20)
(0.0702336 -0.0358333 7.89527e-20)
(0.104088 -0.0468443 -1.20392e-19)
(0.142695 -0.0564159 1.92417e-20)
(0.185128 -0.0648106 7.729e-20)
(0.231024 -0.0718051 1.52301e-19)
(0.279761 -0.07758 -1.51352e-19)
(0.330934 -0.0821378 -5.23442e-20)
(0.38412 -0.0855698 7.4978e-20)
(0.438735 -0.0879868 1.70814e-20)
(0.494691 -0.0893462 2.12357e-20)
(0.550674 -0.0899998 3.58627e-20)
(0.608069 -0.0894434 -2.87619e-21)
(0.662207 -0.089052 -3.98169e-20)
(0.721685 -0.0862457 -1.62217e-20)
(0.76591 -0.086909 -1.57424e-20)
(0.838011 -0.0804369 -5.87166e-21)
(-0.00190136 0.00372129 2.18667e-19)
(0.00573862 -0.00324843 -7.02153e-20)
(0.02249 -0.0135316 1.69595e-19)
(0.046747 -0.0262705 -8.25944e-21)
(0.0777169 -0.0381842 -9.05933e-20)
(0.113959 -0.0495144 2.12663e-21)
(0.155038 -0.0592858 6.33139e-20)
(0.19998 -0.0677927 -1.11164e-20)
(0.248405 -0.0748019 -1.08493e-19)
(0.299658 -0.0805098 1.10305e-20)
(0.353305 -0.0849217 -2.04051e-21)
(0.408883 -0.0881364 -7.02992e-21)
(0.465765 -0.0902777 -1.91969e-19)
(0.523815 -0.0912952 -4.52706e-20)
(0.581664 -0.0915907 -4.48038e-20)
(0.640646 -0.0905702 2.96068e-20)
(0.696017 -0.0898565 -1.40751e-20)
(0.756376 -0.0863053 6.27305e-20)
(0.800917 -0.0871583 3.28741e-20)
(0.87323 -0.0788909 -2.94254e-20)
(-0.00173482 0.00344247 -1.36974e-19)
(0.00718 -0.00422348 2.13094e-19)
(0.0258385 -0.0150455 -2.06104e-19)
(0.0522748 -0.0282913 1.36935e-22)
(0.0856371 -0.0405587 -2.02608e-20)
(0.124365 -0.0521581 -8.52221e-20)
(0.168007 -0.0620745 1.30246e-21)
(0.215537 -0.0706365 9.5688e-20)
(0.266557 -0.0776019 1.96134e-19)
(0.320371 -0.0831846 -1.02462e-19)
(0.376511 -0.0873934 6.5829e-20)
(0.434471 -0.0903359 -2.93442e-20)
(0.493575 -0.0921503 1.32152e-19)
(0.553631 -0.0927798 -1.70996e-20)
(0.613218 -0.0926776 -2.15958e-20)
(0.673605 -0.0911614 -6.21207e-20)
(0.730004 -0.090103 3.77056e-20)
(0.790931 -0.0857965 -2.92089e-20)
(0.835597 -0.0868263 -6.70071e-20)
(0.90754 -0.0768123 4.77347e-20)
(-0.0015237 0.00310133 -5.6821e-20)
(0.00876016 -0.00529945 -2.53586e-19)
(0.0294266 -0.0166529 1.88129e-19)
(0.0581428 -0.0303753 1.47667e-19)
(0.0939962 -0.0429513 1.22008e-19)
(0.135302 -0.0547676 1.16406e-19)
(0.181591 -0.0647719 2.07182e-19)
(0.23178 -0.0733299 -2.76449e-19)
(0.285447 -0.0801918 -1.5852e-19)
(0.341852 -0.0855902 4.32044e-20)
(0.40049 -0.0895385 -2.72263e-20)
(0.460801 -0.0921548 -9.36623e-20)
(0.52206 -0.0935931 -6.94538e-20)
(0.584012 -0.0937918 3.20502e-21)
(0.645186 -0.0932567 5.79584e-20)
(0.706766 -0.0912205 3.89335e-20)
(0.763967 -0.0898003 2.35843e-20)
(0.825131 -0.0847449 -3.30387e-20)
(0.869719 -0.0859315 7.33606e-20)
(0.940706 -0.0742621 -4.41583e-20)
(-0.0012634 0.00269784 1.46841e-19)
(0.0104872 -0.00647549 1.90057e-19)
(0.0332624 -0.0183513 -7.66396e-20)
(0.0643572 -0.0325182 -1.76254e-19)
(0.102796 -0.0453555 -1.28744e-19)
(0.146767 -0.0573342 -7.3882e-20)
(0.195778 -0.0673673 -1.73353e-19)
(0.248687 -0.0758608 5.12002e-20)
(0.305042 -0.0825579 6.17802e-20)
(0.364055 -0.0877123 -3.07058e-20)
(0.425177 -0.0913433 2.82155e-20)
(0.48779 -0.0935807 1.51204e-21)
(0.551115 -0.0945962 1.47811e-19)
(0.614828 -0.0943257 -6.44136e-20)
(0.677413 -0.093328 -2.8669e-20)
(0.739956 -0.0907557 2.80107e-21)
(0.797711 -0.088962 -2.76045e-20)
(0.858768 -0.0831809 8.60358e-21)
(0.903063 -0.084499 2.98772e-20)
(0.972527 -0.0713033 -7.29323e-22)
(-0.00094929 0.00223233 -1.71256e-19)
(0.0123693 -0.00774999 -1.51738e-19)
(0.0373539 -0.0201374 -2.0073e-19)
(0.0709235 -0.0347145 2.4594e-20)
(0.112039 -0.0477636 6.99908e-20)
(0.158756 -0.0598485 4.00552e-20)
(0.210557 -0.0698495 -1.23564e-19)
(0.266237 -0.0782163 1.14304e-19)
(0.325309 -0.0846867 -1.32237e-19)
(0.386932 -0.0895373 6.25171e-20)
(0.450506 -0.0927947 5.66159e-20)
(0.515352 -0.0946029 1.55553e-19)
(0.580634 -0.0951523 2.42146e-20)
(0.645951 -0.0943791 6.2385e-20)
(0.709749 -0.0928946 -3.05449e-20)
(0.773004 -0.0897791 1.00835e-19)
(0.831052 -0.0876068 2.61814e-20)
(0.89165 -0.0811394 -4.205e-20)
(0.935434 -0.0825599 -1.12946e-20)
(1.00283 -0.0679996 -1.2056e-20)
(-0.000576735 0.00170552 7.60921e-20)
(0.0144145 -0.0091206 -1.33617e-20)
(0.0417091 -0.0220069 6.31217e-20)
(0.0778475 -0.0369578 -5.22005e-20)
(0.121725 -0.0501673 3.35524e-20)
(0.171263 -0.0623 1.66728e-19)
(0.225914 -0.0722064 -1.06952e-19)
(0.284405 -0.0803831 -2.9634e-20)
(0.346212 -0.0865644 1.96996e-19)
(0.410431 -0.0910518 -8.80139e-20)
(0.47641 -0.0938809 2.48341e-20)
(0.543401 -0.095212 2.82638e-20)
(0.610508 -0.0952558 -1.85547e-19)
(0.677252 -0.0939523 5.83457e-20)
(0.742047 -0.0919634 -2.81987e-20)
(0.805746 -0.0883067 -2.08139e-20)
(0.863814 -0.0857573 -3.63279e-20)
(0.923603 -0.0786588 3.54532e-20)
(0.966652 -0.0801508 -3.10583e-20)
(1.03149 -0.0644141 3.32692e-20)
(-0.000141118 0.00111852 1.19104e-19)
(0.016631 -0.0105842 2.89765e-19)
(0.0463357 -0.0239546 1.64507e-19)
(0.0851345 -0.039241 -2.73485e-21)
(0.131855 -0.0525574 -1.24943e-19)
(0.184282 -0.0646776 -6.97569e-20)
(0.241835 -0.0744253 1.87544e-19)
(0.303168 -0.0823477 -7.37947e-21)
(0.367712 -0.0881772 9.29931e-22)
(0.434499 -0.0922427 1.59401e-19)
(0.502818 -0.0945906 -9.11201e-20)
(0.571847 -0.0954002 -1.01105e-19)
(0.64063 -0.0949037 1.58331e-19)
(0.708604 -0.0930483 5.81351e-20)
(0.774162 -0.0905448 1.25894e-19)
(0.838028 -0.0863585 -1.47597e-19)
(0.895833 -0.0834408 -8.58983e-21)
(0.954472 -0.0757802 5.08492e-20)
(0.996565 -0.0773131 6.8276e-20)
(1.05839 -0.0606079 -2.10526e-21)
(0.000362142 0.000472797 1.08245e-19)
(0.0190267 -0.0121369 -1.14793e-19)
(0.0512415 -0.0259744 -9.98656e-20)
(0.0927893 -0.0415556 9.53779e-20)
(0.14243 -0.0549233 1.66634e-19)
(0.197808 -0.0669693 4.79411e-20)
(0.258306 -0.076493 7.3584e-20)
(0.322499 -0.0840964 -1.2987e-19)
(0.389771 -0.0895116 8.57206e-20)
(0.459083 -0.0930978 -1.67732e-19)
(0.529658 -0.0949143 -1.9362e-19)
(0.600601 -0.0951616 -4.24408e-21)
(0.670891 -0.0940953 -4.02312e-20)
(0.739883 -0.0916736 -1.34838e-19)
(0.805955 -0.0886527 -6.04288e-20)
(0.869701 -0.0839578 9.68539e-20)
(0.92696 -0.0806878 8.24425e-20)
(0.98412 -0.0725467 -4.81372e-20)
(1.02504 -0.0740923 -5.48503e-21)
(1.08347 -0.0566393 -2.91588e-20)
(0.000937561 -0.000229819 -1.1588e-19)
(0.0216094 -0.0137741 -1.48231e-19)
(0.0564337 -0.0280592 8.05977e-20)
(0.100817 -0.0438925 9.60171e-20)
(0.153449 -0.0572541 -5.72038e-20)
(0.211832 -0.0691623 -1.63127e-19)
(0.275308 -0.0783958 -1.66969e-20)
(0.342371 -0.085615 -4.58508e-20)
(0.412348 -0.0905542 -3.15656e-19)
(0.484125 -0.0936054 1.27019e-19)
(0.556859 -0.0948432 2.60118e-19)
(0.629572 -0.0944921 3.78256e-20)
(0.701184 -0.0928326 -6.07075e-20)
(0.770966 -0.0898372 2.49967e-20)
(0.837294 -0.0863041 -1.4088e-19)
(0.90063 -0.0811312 -3.42198e-20)
(0.95706 -0.0775324 -9.28153e-21)
(1.01243 -0.0690027 4.47198e-22)
(1.05198 -0.0705363 -3.18785e-20)
(1.1067 -0.0525625 -2.06091e-21)
(0.00158958 -0.000987129 -3.09721e-19)
(0.0243869 -0.0154905 1.88731e-19)
(0.0619195 -0.0302011 -1.35423e-19)
(0.109221 -0.0462414 -2.81352e-19)
(0.164911 -0.0595376 -9.54301e-20)
(0.226347 -0.0712432 4.15732e-20)
(0.292826 -0.0801195 -8.84437e-21)
(0.362754 -0.0868893 1.50875e-19)
(0.435401 -0.0912918 2.09184e-19)
(0.50957 -0.0937548 2.04448e-19)
(0.584347 -0.0943701 -7.43283e-20)
(0.658672 -0.0933898 -1.27318e-19)
(0.731403 -0.0911198 2.12734e-20)
(0.801735 -0.0875513 -5.80265e-20)
(0.868052 -0.0835194 5.45985e-20)
(0.93069 -0.077908 3.48878e-20)
(0.986015 -0.0740111 -2.31727e-20)
(1.03932 -0.0651928 -2.4295e-21)
(1.0773 -0.0666951 -5.13585e-20)
(1.12805 -0.048427 4.96812e-20)
(0.00232253 -0.00179659 1.11019e-19)
(0.0273664 -0.0172799 -4.05636e-20)
(0.0677054 -0.0323913 2.53085e-20)
(0.118005 -0.0485912 2.40583e-19)
(0.176814 -0.061761 7.23918e-20)
(0.241343 -0.0731979 -2.92806e-19)
(0.31084 -0.0816495 1.60969e-19)
(0.383619 -0.0879052 -1.48953e-19)
(0.458886 -0.0917117 -4.53562e-20)
(0.535358 -0.0935359 -8.87978e-20)
(0.612046 -0.0934895 6.95377e-20)
(0.687808 -0.0918545 -9.91052e-20)
(0.761446 -0.0889638 -8.82149e-20)
(0.832078 -0.0848307 1.2554e-19)
(0.898112 -0.0803216 1.7561e-19)
(0.959768 -0.0743199 1.07454e-20)
(1.01372 -0.0701626 7.04007e-20)
(1.0647 -0.0611615 6.91085e-20)
(1.10094 -0.0626189 -2.89033e-20)
(1.14755 -0.0442777 -1.10298e-19)
(0.00314062 -0.00265531 -3.40742e-21)
(0.0305551 -0.0191357 8.77146e-20)
(0.0737978 -0.0346202 1.69695e-19)
(0.127172 -0.0509299 -8.81387e-20)
(0.189155 -0.0639106 -2.98425e-19)
(0.25681 -0.0750117 1.49421e-19)
(0.329331 -0.0829708 -3.38135e-19)
(0.404935 -0.0886486 2.02605e-19)
(0.482758 -0.0918019 9.18113e-20)
(0.56143 -0.0929401 -1.23345e-20)
(0.639883 -0.0921973 -9.5496e-20)
(0.716894 -0.0898885 2.03712e-20)
(0.79121 -0.0863742 1.41317e-19)
(0.861886 -0.0816929 -1.24989e-19)
(0.927366 -0.0767366 -9.52755e-21)
(0.987765 -0.0704005 -6.16568e-20)
(1.0401 -0.0660268 -1.72002e-19)
(1.08853 -0.0569522 -1.02549e-19)
(1.12288 -0.0583573 3.20331e-20)
(1.16523 -0.0401536 1.09394e-19)
(0.00404794 -0.00356008 2.1505e-19)
(0.0339598 -0.0210503 -2.44727e-20)
(0.0802023 -0.0368771 -1.19165e-19)
(0.136724 -0.0532447 -1.68167e-19)
(0.201931 -0.065972 1.43711e-19)
(0.272736 -0.0766693 -1.57289e-19)
(0.348276 -0.0840683 1.45614e-19)
(0.426667 -0.0891054 -4.47476e-20)
(0.506971 -0.0915509 -1.90496e-19)
(0.587723 -0.0919598 -9.13211e-21)
(0.667781 -0.0904913 1.02051e-19)
(0.74584 -0.087496 2.09309e-19)
(0.8206 -0.0833628 -9.31441e-20)
(0.891059 -0.0781581 1.56616e-19)
(0.955715 -0.0727922 2.62446e-21)
(1.0146 -0.0661846 1.00218e-19)
(1.06508 -0.0616444 -1.01403e-19)
(1.11078 -0.052607 1.14323e-20)
(1.14311 -0.0539577 8.01601e-20)
(1.18114 -0.0360887 -1.38601e-20)
(0.00504839 -0.00450735 -1.82517e-19)
(0.0375868 -0.0230156 -9.9016e-20)
(0.0869241 -0.0391509 -9.18709e-20)
(0.146664 -0.055522 3.32212e-19)
(0.215138 -0.0679301 1.76865e-19)
(0.28911 -0.0781551 2.08208e-19)
(0.367653 -0.0849268 9.57063e-20)
(0.448781 -0.0892621 3.80594e-20)
(0.531475 -0.0909478 1.33526e-19)
(0.614178 -0.0905885 -3.60189e-19)
(0.695666 -0.0883708 -1.18955e-20)
(0.77456 -0.0846837 -4.78982e-20)
(0.849521 -0.0799439 1.82309e-19)
(0.919502 -0.0742486 2.57967e-21)
(0.983071 -0.0685185 3.75337e-20)
(1.04019 -0.0617082 -9.85171e-20)
(1.0886 -0.0570561 3.96899e-20)
(1.13142 -0.0481658 1.20764e-19)
(1.16164 -0.0494649 6.04193e-21)
(1.19535 -0.032112 -4.44857e-20)
(0.00614572 -0.0054933 -1.69867e-19)
(0.0414422 -0.025023 4.67343e-20)
(0.0939677 -0.0414294 2.28186e-20)
(0.15699 -0.0577473 -1.15302e-19)
(0.228768 -0.0697692 -1.20697e-19)
(0.305916 -0.0794529 -5.9095e-20)
(0.387439 -0.0855309 1.32881e-19)
(0.471241 -0.0891053 6.76047e-20)
(0.556223 -0.0899831 -6.08473e-20)
(0.640731 -0.0888216 1.79351e-19)
(0.723464 -0.0858374 1.02634e-19)
(0.802971 -0.0814601 -8.89681e-21)
(0.877885 -0.0761342 -1.11255e-19)
(0.947129 -0.0699887 -1.55112e-19)
(1.00936 -0.0639468 -9.43941e-20)
(1.06448 -0.0570072 3.1896e-20)
(1.11065 -0.0523019 -1.01851e-21)
(1.15047 -0.0436662 -6.91931e-20)
(1.1785 -0.0449198 -9.74804e-20)
(1.20795 -0.0282478 6.11059e-20)
(0.00734346 -0.00651378 -7.04608e-21)
(0.0455313 -0.0270629 1.78694e-21)
(0.101337 -0.0437 1.66446e-19)
(0.167704 -0.0599056 -2.16846e-19)
(0.242817 -0.0714731 1.26147e-19)
(0.323139 -0.0805464 1.58309e-19)
(0.407606 -0.0858655 -8.71267e-20)
(0.494009 -0.0886225 4.16422e-20)
(0.581164 -0.0886479 -5.59446e-20)
(0.667319 -0.0866556 -1.08068e-20)
(0.751101 -0.0828944 4.04374e-20)
(0.830992 -0.0778362 7.11258e-20)
(0.905609 -0.0719525 -1.11105e-20)
(0.973861 -0.0654046 1.2613e-19)
(1.03451 -0.0591094 8.53438e-20)
(1.08744 -0.0521177 3.75912e-20)
(1.13119 -0.0474206 -1.05325e-20)
(1.16794 -0.039143 2.5666e-20)
(1.19375 -0.0403584 -1.40208e-20)
(1.21901 -0.0245168 -1.35505e-19)
(0.00864494 -0.00756438 4.61594e-19)
(0.0498592 -0.0291255 -1.29296e-19)
(0.109035 -0.045949 -2.67302e-19)
(0.178803 -0.0619812 2.24799e-19)
(0.257275 -0.0730251 -1.06714e-19)
(0.340764 -0.0814192 -3.27542e-20)
(0.428128 -0.0859156 2.90755e-20)
(0.517047 -0.0878015 2.36978e-20)
(0.606247 -0.0869347 3.64236e-20)
(0.693881 -0.0840888 -7.91094e-20)
(0.778504 -0.079547 -1.11871e-20)
(0.858545 -0.0738249 -2.63213e-19)
(0.932615 -0.0674194 -5.75591e-20)
(0.99963 -0.0605236 -4.9141e-20)
(1.05847 -0.0540395 -1.70322e-20)
(1.10902 -0.0470751 2.65587e-20)
(1.15023 -0.0424495 -6.9776e-21)
(1.18387 -0.0346278 9.33257e-21)
(1.20745 -0.0358119 -6.05449e-20)
(1.22864 -0.0209387 1.24596e-19)
(0.0100533 -0.00864042 -3.80404e-19)
(0.0544303 -0.0312004 3.56848e-20)
(0.117064 -0.0481626 1.64207e-19)
(0.190285 -0.0639579 -1.54638e-19)
(0.272133 -0.0744082 -1.37644e-19)
(0.358771 -0.0820547 -1.97867e-19)
(0.448977 -0.0856666 -8.7491e-20)
(0.540314 -0.0866311 -2.11935e-19)
(0.631419 -0.0848371 -1.99582e-20)
(0.720352 -0.0811212 7.04942e-20)
(0.805603 -0.0758026 -2.04363e-19)
(0.885557 -0.0694414 9.20957e-20)
(0.958833 -0.0625575 -3.96081e-20)
(1.02437 -0.0553744 -9.44588e-20)
(1.08119 -0.0487702 -1.21653e-19)
(1.12922 -0.0419134 1.15495e-20)
(1.16778 -0.0374236 4.74101e-20)
(1.19831 -0.0301491 -1.29442e-20)
(1.21966 -0.0313058 1.21652e-19)
(1.23692 -0.0175338 -5.7242e-20)
(0.0115713 -0.00973698 3.26294e-19)
(0.0592485 -0.0332765 8.1887e-20)
(0.125425 -0.050326 1.51502e-19)
(0.202148 -0.0658189 1.25026e-19)
(0.287382 -0.0756051 3.6438e-19)
(0.377141 -0.0824363 1.65581e-19)
(0.470122 -0.0851042 -3.16359e-20)
(0.563769 -0.085101 8.61782e-20)
(0.656629 -0.0823503 -1.01939e-19)
(0.746672 -0.0777545 1.80764e-19)
(0.83233 -0.0716703 9.18124e-20)
(0.911956 -0.0647023 2.06077e-20)
(0.984198 -0.0573906 1.56866e-19)
(1.04804 -0.0499864 2.98431e-20)
(1.10266 -0.0433346 9.55305e-20)
(1.14802 -0.0366655 -1.47658e-19)
(1.18386 -0.0323753 -1.1496e-19)
(1.21131 -0.0257317 1.26829e-21)
(1.23047 -0.0268599 6.68585e-20)
(1.24394 -0.0143206 9.49947e-20)
(0.0132016 -0.0108489 -4.13643e-19)
(0.0643169 -0.0353423 1.18602e-20)
(0.134119 -0.0524241 -1.83249e-19)
(0.214385 -0.067547 1.64961e-20)
(0.303007 -0.0765982 -4.58756e-19)
(0.395853 -0.0825477 2.26183e-20)
(0.491531 -0.084215 2.96387e-20)
(0.587369 -0.083202 -2.08839e-20)
(0.681824 -0.0794707 6.39376e-20)
(0.772778 -0.0739922 -1.72658e-20)
(0.858618 -0.0671613 4.7484e-20)
(0.937679 -0.0596264 2.55637e-20)
(1.00865 -0.0519439 -4.07646e-20)
(1.07059 -0.0443892 -1.29301e-20)
(1.12284 -0.037765 -4.8905e-20)
(1.16544 -0.0313621 1.51355e-19)
(1.19851 -0.0273345 5.92455e-20)
(1.22294 -0.0213971 5.98277e-20)
(1.23996 -0.0224849 -4.42416e-20)
(1.24979 -0.0113123 -7.47726e-20)
(0.0149466 -0.0119708 3.27238e-19)
(0.0696381 -0.0373862 -1.98574e-19)
(0.143145 -0.0544414 1.76902e-20)
(0.226991 -0.0691248 -2.04954e-19)
(0.318997 -0.07737 5.16852e-19)
(0.414885 -0.0823728 1.82605e-19)
(0.513173 -0.0829859 -2.88389e-19)
(0.611072 -0.0809259 -6.7287e-20)
(0.706949 -0.0761965 1.13212e-21)
(0.798611 -0.0698397 1.26482e-20)
(0.884405 -0.0622886 -1.21497e-19)
(0.962666 -0.0542336 4.66753e-20)
(1.03215 -0.0462435 1.21342e-19)
(1.09199 -0.0386125 1.82969e-19)
(1.14172 -0.0320926 5.24401e-20)
(1.1815 -0.0260318 -4.88661e-20)
(1.21177 -0.0223286 -2.04916e-20)
(1.23328 -0.0171624 -7.85159e-20)
(1.24821 -0.0181808 1.42162e-20)
(1.25454 -0.00856223 -1.41576e-20)
(0.0168082 -0.0130971 8.85852e-20)
(0.0752139 -0.0393957 3.10834e-19)
(0.152502 -0.0563619 -9.86407e-20)
(0.23996 -0.0705347 9.29853e-20)
(0.335337 -0.0779031 -1.99878e-19)
(0.434212 -0.081896 -6.98596e-20)
(0.535012 -0.081405 2.03335e-19)
(0.634831 -0.0782658 1.70339e-20)
(0.731953 -0.0725273 9.00026e-20)
(0.824111 -0.0653039 -4.17219e-20)
(0.90963 -0.0570667 6.90322e-20)
(0.986861 -0.0485457 -3.60627e-20)
(1.05464 -0.0403162 -5.39587e-20)
(1.11221 -0.0326859 -1.88962e-19)
(1.15931 -0.0263475 -1.02875e-19)
(1.19622 -0.020701 -4.29716e-20)
(1.2237 -0.0173821 7.09986e-21)
(1.24239 -0.0130387 5.79648e-20)
(1.25529 -0.0139521 -1.17126e-20)
(1.25838 -0.00632286 1.33743e-20)
(0.0187884 -0.0142222 -3.87795e-19)
(0.0810455 -0.0413585 -5.88546e-20)
(0.162187 -0.0581696 9.6485e-20)
(0.253283 -0.0717588 -9.80065e-20)
(0.35201 -0.0781801 -1.22859e-19)
(0.453809 -0.0811022 -2.32018e-19)
(0.557013 -0.0794613 -2.15018e-19)
(0.658604 -0.0752163 1.93191e-19)
(0.756781 -0.0684646 6.60006e-20)
(0.849222 -0.060394 -2.12719e-19)
(0.934238 -0.0515121 -5.47415e-20)
(1.01022 -0.042585 -1.57718e-19)
(1.07609 -0.034189 -7.54009e-20)
(1.13125 -0.026638 1.84287e-19)
(1.17561 -0.0205578 1.00136e-19)
(1.20963 -0.0153932 -8.88111e-20)
(1.23435 -0.0125165 -7.05369e-21)
(1.25038 -0.00903083 -5.54055e-20)
(1.26129 -0.00985413 8.21895e-20)
(1.26172 -0.00495698 -9.73488e-21)
(0.0208885 -0.0153402 2.66431e-19)
(0.0871334 -0.0432617 -5.06854e-20)
(0.172197 -0.059848 2.11866e-19)
(0.266949 -0.0727795 2.10267e-19)
(0.368998 -0.0781839 1.76746e-19)
(0.473649 -0.079977 1.08074e-19)
(0.579139 -0.0771446 2.88499e-19)
(0.682343 -0.0717734 -1.31531e-19)
(0.781383 -0.0640114 -1.29649e-20)
(0.873888 -0.0551204 2.61617e-19)
(0.958175 -0.0456424 1.17942e-19)
(1.03269 -0.0363753 2.96271e-19)
(1.09648 -0.0278892 1.72027e-20)
(1.14908 -0.0204968 -1.67849e-19)
(1.19065 -0.0147499 -5.6583e-20)
(1.22177 -0.0101297 1.76492e-19)
(1.24378 -0.00775011 2.48836e-20)
(1.2573 -0.00514091 7.16387e-20)
(1.26623 -0.00598752 -9.73073e-21)
(1.26521 -0.00346429 1.22865e-20)
(0.0231097 -0.0164449 -1.93861e-19)
(0.0934768 -0.0450921 -8.92495e-21)
(0.182527 -0.0613802 -2.79923e-19)
(0.280948 -0.0735785 -2.2378e-20)
(0.386282 -0.0778978 1.15298e-19)