0.377883 	0.377883 	6.34489e-18 	-0.588412
0.428313 	0.428313 	1.3309e-17 	-0.519988
0.482588 	0.482588 	1.69586e-17 	-0.502408
0.540971 	0.540971 	2.40461e-17 	-0.45879
0.603773 	0.603773 	3.4593e-17 	-0.434545
0.671328 	0.671328 	1.9913e-17 	-0.401449
