/*--------------------------------*- C++ -*----------------------------------*\
  =========                 |
  \\      /  F ield         | OpenFOAM: The Open Source CFD Toolbox
   \\    /   O peration     | Website:  https://openfoam.org
    \\  /    A nd           | Version:  7
     \\/     M anipulation  |
\*---------------------------------------------------------------------------*/
FoamFile
{
    version     2.0;
    format      ascii;
    class       volVectorField;
    location    "20";
    object      U;
}
// * * * * * * * * * * * * * * * * * * * * * * * * * * * * * * * * * * * * * //

dimensions      [0 1 -1 0 0 0 0];

internalField   nonuniform List<vector> 
2625
(
(1.2532 0.00041115 0)
(1.25244 0.000427573 0)
(1.25164 0.000442555 0)
(1.2508 0.000456139 0)
(1.24993 0.000468371 0)
(1.24903 0.000479298 0)
(1.24809 0.000488971 0)
(1.24712 0.000497443 0)
(1.24612 0.000504769 0)
(1.24509 0.000511003 0)
(1.24404 0.000516205 0)
(1.24296 0.000520431 0)
(1.24186 0.000523741 0)
(1.24074 0.000526194 0)
(1.2396 0.000527849 0)
(1.23843 0.000528765 0)
(1.23726 0.000529001 0)
(1.23606 0.000528613 0)
(1.23485 0.000527659 0)
(1.23363 0.000526194 0)
(1.23239 0.000524272 0)
(1.23114 0.000521945 0)
(1.22988 0.000519264 0)
(1.2286 0.000516278 0)
(1.22732 0.000513034 0)
(1.22603 0.000509576 0)
(1.22473 0.000505947 0)
(1.22342 0.000502188 0)
(1.2221 0.000498337 0)
(1.22077 0.00049443 0)
(1.21944 0.000490501 0)
(1.2181 0.000486584 0)
(1.21675 0.000482708 0)
(1.21539 0.000478903 0)
(1.21402 0.000475195 0)
(1.21264 0.000471612 0)
(1.21126 0.00046818 0)
(1.20987 0.000464925 0)
(1.20846 0.000461873 0)
(1.20705 0.000459052 0)
(1.20562 0.000456493 0)
(1.20418 0.00045423 0)
(1.20273 0.000452302 0)
(1.20126 0.000450759 0)
(1.19978 0.000449643 0)
(1.19828 0.000449075 0)
(1.19676 0.000448956 0)
(1.19521 0.000449996 0)
(1.19367 0.000450247 0)
(1.19198 0.000456319 0)
(1.19066 0.000446909 0)
(1.18789 0.000475701 0)
(1.25327 0.00123012 0)
(1.2525 0.00127895 0)
(1.25169 0.0013235 0)
(1.25085 0.00136388 0)
(1.24996 0.00140024 0)
(1.24905 0.00143271 0)
(1.2481 0.00146145 0)
(1.24711 0.00148661 0)
(1.2461 0.00150836 0)
(1.24507 0.00152687 0)
(1.244 0.0015423 0)
(1.24291 0.00155482 0)
(1.2418 0.00156462 0)
(1.24067 0.00157187 0)
(1.23951 0.00157674 0)
(1.23834 0.00157941 0)
(1.23715 0.00158006 0)
(1.23594 0.00157885 0)
(1.23472 0.00157595 0)
(1.23348 0.00157153 0)
(1.23223 0.00156575 0)
(1.23097 0.00155876 0)
(1.2297 0.00155072 0)
(1.22841 0.00154177 0)
(1.22712 0.00153204 0)
(1.22581 0.00152168 0)
(1.2245 0.0015108 0)
(1.22318 0.00149954 0)
(1.22185 0.001488 0)
(1.22051 0.00147629 0)
(1.21916 0.00146452 0)
(1.21781 0.00145277 0)
(1.21645 0.00144115 0)
(1.21508 0.00142973 0)
(1.2137 0.0014186 0)
(1.21231 0.00140784 0)
(1.21092 0.00139752 0)
(1.20951 0.00138773 0)
(1.2081 0.00137853 0)
(1.20667 0.00137003 0)
(1.20523 0.0013623 0)
(1.20378 0.00135544 0)
(1.20232 0.00134958 0)
(1.20085 0.00134485 0)
(1.19935 0.0013414 0)
(1.19784 0.00133955 0)
(1.19631 0.00133911 0)
(1.19476 0.00134185 0)
(1.1932 0.00134327 0)
(1.19151 0.00135869 0)
(1.19019 0.00134252 0)
(1.18741 0.00140958 0)
(1.25341 0.00204771 0)
(1.25262 0.00212804 0)
(1.25179 0.00220131 0)
(1.25092 0.00226771 0)
(1.25001 0.00232747 0)
(1.24908 0.00238084 0)
(1.2481 0.00242804 0)
(1.2471 0.00246935 0)
(1.24607 0.00250504 0)
(1.24501 0.00253537 0)
(1.24392 0.00256063 0)
(1.24281 0.00258111 0)
(1.24167 0.00259709 0)
(1.24052 0.00260886 0)
(1.23934 0.00261672 0)
(1.23815 0.00262095 0)
(1.23693 0.00262183 0)
(1.2357 0.00261965 0)
(1.23446 0.00261469 0)
(1.2332 0.00260721 0)
(1.23192 0.00259749 0)
(1.23064 0.00258577 0)
(1.22934 0.00257231 0)
(1.22804 0.00255734 0)
(1.22672 0.00254109 0)
(1.22539 0.00252379 0)
(1.22405 0.00250563 0)
(1.22271 0.00248683 0)
(1.22136 0.00246756 0)
(1.21999 0.002448 0)
(1.21863 0.00242833 0)
(1.21725 0.0024087 0)
(1.21586 0.00238925 0)
(1.21447 0.00237014 0)
(1.21307 0.0023515 0)
(1.21166 0.00233345 0)
(1.21024 0.00231612 0)
(1.20882 0.00229965 0)
(1.20738 0.00228416 0)
(1.20594 0.00226978 0)
(1.20448 0.00225667 0)
(1.20301 0.00224499 0)
(1.20153 0.00223493 0)
(1.20003 0.00222673 0)
(1.19852 0.00222062 0)
(1.19699 0.00221711 0)
(1.19545 0.002216 0)
(1.19387 0.00221976 0)
(1.19231 0.00222281 0)
(1.19059 0.00224423 0)
(1.18927 0.0022333 0)
(1.18647 0.00231718 0)
(1.25359 0.00287423 0)
(1.25277 0.00298508 0)
(1.2519 0.00308614 0)
(1.251 0.0031777 0)
(1.25007 0.00326007 0)
(1.2491 0.00333357 0)
(1.24809 0.00339856 0)
(1.24706 0.00345538 0)
(1.24599 0.00350441 0)
(1.2449 0.00354604 0)
(1.24378 0.00358064 0)
(1.24264 0.00360863 0)
(1.24147 0.00363038 0)
(1.24028 0.00364631 0)
(1.23907 0.00365682 0)
(1.23784 0.0036623 0)
(1.23659 0.00366314 0)
(1.23533 0.00365975 0)
(1.23405 0.00365249 0)
(1.23276 0.00364175 0)
(1.23145 0.00362789 0)
(1.23014 0.00361126 0)
(1.22881 0.0035922 0)
(1.22746 0.00357105 0)
(1.22611 0.00354812 0)
(1.22475 0.00352371 0)
(1.22338 0.00349811 0)
(1.22201 0.00347159 0)
(1.22062 0.00344442 0)
(1.21923 0.00341684 0)
(1.21782 0.00338908 0)
(1.21641 0.00336136 0)
(1.215 0.00333388 0)
(1.21357 0.00330684 0)
(1.21214 0.00328043 0)
(1.2107 0.00325483 0)
(1.20925 0.0032302 0)
(1.20779 0.00320674 0)
(1.20633 0.00318461 0)
(1.20485 0.003164 0)
(1.20337 0.00314512 0)
(1.20187 0.0031282 0)
(1.20036 0.00311349 0)
(1.19884 0.00310133 0)
(1.1973 0.00309202 0)
(1.19575 0.00308626 0)
(1.19418 0.00308385 0)
(1.19258 0.0030879 0)
(1.19099 0.00309199 0)
(1.18925 0.00311828 0)
(1.18792 0.00311163 0)
(1.18509 0.00320957 0)
(1.25379 0.00371893 0)
(1.25292 0.00385923 0)
(1.25202 0.00398708 0)
(1.25108 0.00410284 0)
(1.2501 0.00420691 0)
(1.24909 0.00429971 0)
(1.24804 0.00438168 0)
(1.24696 0.00445328 0)
(1.24585 0.00451498 0)
(1.24472 0.00456726 0)
(1.24356 0.00461061 0)
(1.24237 0.00464555 0)
(1.24116 0.00467257 0)
(1.23993 0.00469218 0)
(1.23868 0.00470489 0)
(1.23741 0.00471121 0)
(1.23612 0.00471164 0)
(1.23481 0.00470666 0)
(1.23349 0.00469677 0)
(1.23215 0.00468244 0)
(1.23081 0.00466413 0)
(1.22944 0.00464228 0)
(1.22807 0.00461734 0)
(1.22669 0.00458972 0)
(1.22529 0.00455982 0)
(1.22389 0.00452802 0)
(1.22248 0.00449468 0)
(1.22106 0.00446017 0)
(1.21963 0.00442479 0)
(1.2182 0.00438887 0)
(1.21675 0.0043527 0)
(1.2153 0.00431654 0)
(1.21384 0.00428068 0)
(1.21238 0.00424534 0)
(1.21091 0.00421078 0)
(1.20943 0.00417721 0)
(1.20794 0.00414485 0)
(1.20644 0.00411394 0)
(1.20494 0.00408469 0)
(1.20343 0.00405733 0)
(1.2019 0.00403214 0)
(1.20037 0.00400939 0)
(1.19883 0.00398941 0)
(1.19727 0.00397261 0)
(1.1957 0.00395938 0)
(1.19412 0.0039506 0)
(1.19252 0.00394604 0)
(1.19089 0.00394949 0)
(1.18928 0.00395359 0)
(1.18751 0.00398363 0)
(1.18617 0.00397908 0)
(1.1833 0.00409021 0)
(1.25397 0.00459016 0)
(1.25305 0.00475874 0)
(1.2521 0.00491225 0)
(1.25111 0.00505116 0)
(1.25008 0.00517593 0)
(1.24901 0.00528708 0)
(1.24792 0.00538514 0)
(1.24679 0.00547066 0)
(1.24563 0.00554422 0)
(1.24444 0.0056064 0)
(1.24323 0.00565779 0)
(1.24199 0.00569901 0)
(1.24073 0.00573067 0)
(1.23945 0.00575337 0)
(1.23814 0.00576772 0)
(1.23682 0.00577435 0)
(1.23548 0.00577385 0)
(1.23412 0.00576681 0)
(1.23275 0.00575382 0)
(1.23136 0.00573545 0)
(1.22996 0.00571226 0)
(1.22855 0.00568478 0)
(1.22712 0.00565354 0)
(1.22569 0.00561903 0)
(1.22425 0.00558175 0)
(1.22279 0.00554215 0)
(1.22133 0.00550067 0)
(1.21986 0.00545773 0)
(1.21838 0.00541372 0)
(1.2169 0.00536902 0)
(1.2154 0.00532398 0)
(1.2139 0.00527894 0)
(1.2124 0.0052342 0)
(1.21089 0.00519006 0)
(1.20937 0.00514682 0)
(1.20784 0.00510474 0)
(1.20631 0.00506409 0)
(1.20476 0.00502513 0)
(1.20322 0.00498813 0)
(1.20166 0.00495339 0)
(1.20009 0.00492119 0)
(1.19852 0.00489189 0)
(1.19694 0.00486587 0)
(1.19534 0.00484362 0)
(1.19373 0.0048256 0)
(1.19211 0.00481287 0)
(1.19048 0.00480516 0)
(1.18881 0.00480691 0)
(1.18718 0.00480982 0)
(1.18537 0.00484226 0)
(1.18402 0.00483814 0)
(1.1811 0.00496037 0)
(1.2541 0.00549543 0)
(1.25313 0.00569101 0)
(1.25212 0.00586897 0)
(1.25106 0.00602984 0)
(1.24997 0.00617418 0)
(1.24885 0.00630261 0)
(1.24769 0.00641573 0)
(1.2465 0.0065142 0)
(1.24528 0.0065987 0)
(1.24404 0.00666989 0)
(1.24276 0.00672849 0)
(1.24147 0.00677519 0)
(1.24014 0.00681071 0)
(1.2388 0.00683577 0)
(1.23744 0.00685108 0)
(1.23605 0.00685735 0)
(1.23465 0.00685528 0)
(1.23324 0.00684557 0)
(1.2318 0.00682889 0)
(1.23036 0.0068059 0)
(1.2289 0.00677726 0)
(1.22743 0.0067436 0)
(1.22594 0.00670551 0)
(1.22445 0.00666358 0)
(1.22295 0.00661839 0)
(1.22144 0.00657045 0)
(1.21992 0.00652028 0)
(1.21839 0.00646837 0)
(1.21685 0.00641518 0)
(1.21531 0.00636114 0)
(1.21376 0.00630666 0)
(1.21221 0.00625213 0)
(1.21065 0.00619792 0)
(1.20908 0.00614437 0)
(1.20751 0.0060918 0)
(1.20593 0.00604055 0)
(1.20434 0.00599091 0)
(1.20275 0.0059432 0)
(1.20115 0.00589773 0)
(1.19955 0.00585481 0)
(1.19794 0.00581481 0)
(1.19631 0.00577812 0)
(1.19468 0.00574517 0)
(1.19305 0.00571655 0)
(1.1914 0.00569275 0)
(1.18973 0.00567501 0)
(1.18806 0.005663 0)
(1.18636 0.00566184 0)
(1.18469 0.00566218 0)
(1.18284 0.0056955 0)
(1.18148 0.00569022 0)
(1.17852 0.00582089 0)
(1.25416 0.00644152 0)
(1.25311 0.00666269 0)
(1.25203 0.00686373 0)
(1.25091 0.00704526 0)
(1.24975 0.00720792 0)
(1.24856 0.00735241 0)
(1.24733 0.00747943 0)
(1.24607 0.00758973 0)
(1.24479 0.00768409 0)
(1.24347 0.00776327 0)
(1.24213 0.00782808 0)
(1.24076 0.00787932 0)
(1.23937 0.00791781 0)
(1.23796 0.00794436 0)
(1.23653 0.00795978 0)
(1.23508 0.00796489 0)
(1.23361 0.00796047 0)
(1.23213 0.00794732 0)
(1.23063 0.00792621 0)
(1.22911 0.00789789 0)
(1.22759 0.00786311 0)
(1.22605 0.00782257 0)
(1.2245 0.00777695 0)
(1.22294 0.00772694 0)
(1.22138 0.00767316 0)
(1.2198 0.00761622 0)
(1.21822 0.0075567 0)
(1.21663 0.00749515 0)
(1.21503 0.0074321 0)
(1.21343 0.00736804 0)
(1.21182 0.00730343 0)
(1.2102 0.00723872 0)
(1.20858 0.00717432 0)
(1.20695 0.00711061 0)
(1.20532 0.00704798 0)
(1.20369 0.00698679 0)
(1.20205 0.00692738 0)
(1.2004 0.0068701 0)
(1.19875 0.0068153 0)
(1.19709 0.00676335 0)
(1.19542 0.00671465 0)
(1.19375 0.00666962 0)
(1.19208 0.00662877 0)
(1.19039 0.00659274 0)
(1.18869 0.00656207 0)
(1.18699 0.00653818 0)
(1.18528 0.00652062 0)
(1.18354 0.00651522 0)
(1.18183 0.00651153 0)
(1.17994 0.00654408 0)
(1.17856 0.00653599 0)
(1.17556 0.00667221 0)
(1.25409 0.00743448 0)
(1.25297 0.00767969 0)
(1.25181 0.0079023 0)
(1.25061 0.00810303 0)
(1.24937 0.00828259 0)
(1.2481 0.00844177 0)
(1.2468 0.00858137 0)
(1.24546 0.00870223 0)
(1.2441 0.00880522 0)
(1.24271 0.0088912 0)
(1.24129 0.00896108 0)
(1.23985 0.00901576 0)
(1.23838 0.00905615 0)
(1.2369 0.00908316 0)
(1.23539 0.0090977 0)
(1.23386 0.00910068 0)
(1.23232 0.00909298 0)
(1.23076 0.00907549 0)
(1.22919 0.00904907 0)
(1.22761 0.00901456 0)
(1.22601 0.00897279 0)
(1.2244 0.00892454 0)
(1.22278 0.00887059 0)
(1.22115 0.00881169 0)
(1.21951 0.00874853 0)
(1.21787 0.00868179 0)
(1.21622 0.00861213 0)
(1.21456 0.00854017 0)
(1.21289 0.00846647 0)
(1.21122 0.00839159 0)
(1.20955 0.00831605 0)
(1.20787 0.00824035 0)
(1.20618 0.00816493 0)
(1.2045 0.00809025 0)
(1.2028 0.00801671 0)
(1.20111 0.00794472 0)
(1.19941 0.00787465 0)
(1.1977 0.00780691 0)
(1.19599 0.00774186 0)
(1.19428 0.00767993 0)
(1.19256 0.00762154 0)
(1.19084 0.00756717 0)
(1.18911 0.00751735 0)
(1.18737 0.00747281 0)
(1.18563 0.00743412 0)
(1.18388 0.00740285 0)
(1.18213 0.00737843 0)
(1.18034 0.00736739 0)
(1.17861 0.00735812 0)
(1.17668 0.00738815 0)
(1.17528 0.00737563 0)
(1.17224 0.00751427 0)
(1.25386 0.00847962 0)
(1.25265 0.00874715 0)
(1.25141 0.00898967 0)
(1.25012 0.00920796 0)
(1.2488 0.00940284 0)
(1.24744 0.00957517 0)
(1.24606 0.00972586 0)
(1.24464 0.00985583 0)
(1.24319 0.00996605 0)
(1.24171 0.0100575 0)
(1.24021 0.0101311 0)
(1.23869 0.010188 0)
(1.23714 0.010229 0)
(1.23557 0.0102553 0)
(1.23399 0.0102678 0)
(1.23238 0.0102675 0)
(1.23076 0.0102555 0)
(1.22912 0.0102326 0)
(1.22747 0.0101998 0)
(1.22581 0.0101581 0)
(1.22413 0.0101084 0)
(1.22245 0.0100514 0)
(1.22075 0.00998821 0)
(1.21905 0.00991948 0)
(1.21734 0.00984602 0)
(1.21562 0.00976858 0)
(1.21389 0.00968788 0)
(1.21216 0.00960458 0)
(1.21043 0.00951934 0)
(1.20869 0.00943275 0)
(1.20694 0.00934539 0)
(1.2052 0.00925778 0)
(1.20345 0.00917045 0)
(1.20169 0.00908387 0)
(1.19994 0.00899849 0)
(1.19818 0.00891476 0)
(1.19641 0.00883309 0)
(1.19465 0.00875391 0)
(1.19288 0.00867763 0)
(1.19111 0.0086047 0)
(1.18934 0.00853558 0)
(1.18756 0.00847079 0)
(1.18578 0.00841091 0)
(1.184 0.00835671 0)
(1.18221 0.00830878 0)
(1.18041 0.00826886 0)
(1.17862 0.00823622 0)
(1.17679 0.00821809 0)
(1.17502 0.00820169 0)
(1.17305 0.00822738 0)
(1.17164 0.00820883 0)
(1.16855 0.00834659 0)
(1.25343 0.00958151 0)
(1.25213 0.00986947 0)
(1.25079 0.01013 0)
(1.24941 0.0103641 0)
(1.248 0.0105725 0)
(1.24655 0.0107563 0)
(1.24507 0.0109164 0)
(1.24356 0.0110538 0)
(1.24202 0.0111697 0)
(1.24045 0.011265 0)
(1.23886 0.0113409 0)
(1.23725 0.0113985 0)
(1.23561 0.0114388 0)
(1.23396 0.011463 0)
(1.23229 0.0114721 0)
(1.2306 0.0114673 0)
(1.22889 0.0114497 0)
(1.22717 0.0114202 0)
(1.22543 0.0113799 0)
(1.22369 0.0113298 0)
(1.22193 0.011271 0)
(1.22017 0.0112043 0)
(1.21839 0.0111307 0)
(1.21661 0.0110511 0)
(1.21482 0.0109663 0)
(1.21303 0.0108771 0)
(1.21123 0.0107844 0)
(1.20942 0.0106887 0)
(1.20761 0.010591 0)
(1.2058 0.0104917 0)
(1.20399 0.0103915 0)
(1.20217 0.010291 0)
(1.20035 0.0101908 0)
(1.19853 0.0100913 0)
(1.19671 0.00999308 0)
(1.19489 0.0098966 0)
(1.19307 0.00980232 0)
(1.19124 0.00971067 0)
(1.18941 0.00962213 0)
(1.18759 0.00953714 0)
(1.18576 0.00945621 0)
(1.18393 0.0093799 0)
(1.1821 0.00930881 0)
(1.18027 0.00924377 0)
(1.17843 0.00918537 0)
(1.17659 0.00913552 0)
(1.17475 0.00909329 0)
(1.17289 0.0090666 0)
(1.17109 0.0090415 0)
(1.16908 0.00906099 0)
(1.16765 0.0090349 0)
(1.16452 0.00916832 0)
(1.25276 0.0107439 0)
(1.25136 0.0110502 0)
(1.24991 0.0113268 0)
(1.24844 0.0115745 0)
(1.24692 0.0117946 0)
(1.24537 0.0119878 0)
(1.2438 0.0121555 0)
(1.24219 0.0122986 0)
(1.24055 0.0124183 0)
(1.23889 0.0125159 0)
(1.23721 0.0125924 0)
(1.2355 0.012649 0)
(1.23377 0.012687 0)
(1.23203 0.0127076 0)
(1.23026 0.0127119 0)
(1.22848 0.0127011 0)
(1.22669 0.0126765 0)
(1.22488 0.012639 0)
(1.22306 0.0125899 0)
(1.22123 0.0125302 0)
(1.21939 0.012461 0)
(1.21754 0.0123833 0)
(1.21568 0.0122981 0)
(1.21382 0.0122065 0)
(1.21195 0.0121092 0)
(1.21008 0.0120071 0)
(1.2082 0.0119012 0)
(1.20632 0.0117922 0)
(1.20444 0.0116808 0)
(1.20256 0.0115677 0)
(1.20067 0.0114536 0)
(1.19879 0.0113392 0)
(1.1969 0.011225 0)
(1.19501 0.0111116 0)
(1.19313 0.0109995 0)
(1.19124 0.0108893 0)
(1.18936 0.0107813 0)
(1.18747 0.0106762 0)
(1.18559 0.0105743 0)
(1.1837 0.0104761 0)
(1.18182 0.0103823 0)
(1.17994 0.0102934 0)
(1.17806 0.0102099 0)
(1.17618 0.0101328 0)
(1.1743 0.0100627 0)
(1.17242 0.0100016 0)
(1.17054 0.00994847 0)
(1.16864 0.00991176 0)
(1.16681 0.00987643 0)
(1.16476 0.00988782 0)
(1.16332 0.0098528 0)
(1.16016 0.00997831 0)
(1.25181 0.0119698 0)
(1.2503 0.0122921 0)
(1.24874 0.0125824 0)
(1.24716 0.0128417 0)
(1.24554 0.0130711 0)
(1.24389 0.0132718 0)
(1.2422 0.0134449 0)
(1.24049 0.0135917 0)
(1.23876 0.0137134 0)
(1.23699 0.0138112 0)
(1.23521 0.0138864 0)
(1.23341 0.0139404 0)
(1.23158 0.0139743 0)
(1.22974 0.0139896 0)
(1.22788 0.0139874 0)
(1.22601 0.0139691 0)
(1.22412 0.0139358 0)
(1.22222 0.0138889 0)
(1.22032 0.0138294 0)
(1.2184 0.0137587 0)
(1.21647 0.0136778 0)
(1.21454 0.0135878 0)
(1.2126 0.0134898 0)
(1.21066 0.0133847 0)
(1.20871 0.0132737 0)
(1.20676 0.0131576 0)
(1.2048 0.0130373 0)
(1.20285 0.0129137 0)
(1.20089 0.0127875 0)
(1.19894 0.0126596 0)
(1.19698 0.0125305 0)
(1.19503 0.0124011 0)
(1.19308 0.0122718 0)
(1.19112 0.0121434 0)
(1.18917 0.0120164 0)
(1.18723 0.0118912 0)
(1.18528 0.0117685 0)
(1.18334 0.0116488 0)
(1.1814 0.0115325 0)
(1.17946 0.0114201 0)
(1.17753 0.0113123 0)
(1.1756 0.0112095 0)
(1.17367 0.0111126 0)
(1.17174 0.0110223 0)
(1.16982 0.0109393 0)
(1.1679 0.0108657 0)
(1.16599 0.0108002 0)
(1.16405 0.010752 0)
(1.16219 0.010705 0)
(1.16011 0.0107064 0)
(1.15866 0.0106612 0)
(1.15547 0.0107752 0)
(1.25053 0.0132611 0)
(1.2489 0.0135969 0)
(1.24724 0.0138985 0)
(1.24554 0.0141669 0)
(1.24381 0.0144034 0)
(1.24205 0.0146092 0)
(1.24026 0.0147855 0)
(1.23844 0.0149337 0)
(1.2366 0.0150552 0)
(1.23473 0.0151512 0)
(1.23284 0.0152231 0)
(1.23094 0.0152724 0)
(1.22902 0.0153004 0)
(1.22708 0.0153085 0)
(1.22512 0.0152981 0)
(1.22315 0.0152705 0)
(1.22117 0.015227 0)
(1.21919 0.0151689 0)
(1.21719 0.0150976 0)
(1.21518 0.0150143 0)
(1.21317 0.0149202 0)
(1.21115 0.0148164 0)
(1.20913 0.0147041 0)
(1.20711 0.0145844 0)
(1.20508 0.0144583 0)
(1.20305 0.0143269 0)
(1.20102 0.014191 0)
(1.19899 0.0140515 0)
(1.19697 0.0139094 0)
(1.19494 0.0137653 0)
(1.19291 0.0136201 0)
(1.19089 0.0134745 0)
(1.18887 0.0133291 0)
(1.18686 0.0131846 0)
(1.18485 0.0130415 0)
(1.18284 0.0129004 0)
(1.18084 0.0127619 0)
(1.17884 0.0126264 0)
(1.17685 0.0124946 0)
(1.17486 0.012367 0)
(1.17288 0.012244 0)
(1.1709 0.0121264 0)
(1.16893 0.0120149 0)
(1.16696 0.0119102 0)
(1.165 0.0118131 0)
(1.16304 0.0117258 0)
(1.1611 0.0116468 0)
(1.15913 0.0115857 0)
(1.15725 0.0115256 0)
(1.15514 0.0115152 0)
(1.15368 0.0114586 0)
(1.15048 0.0115573 0)
(1.2489 0.0146191 0)
(1.24715 0.0149657 0)
(1.24536 0.0152758 0)
(1.24355 0.0155507 0)
(1.2417 0.0157916 0)
(1.23982 0.016 0)
(1.23792 0.0161771 0)
(1.23599 0.0163244 0)
(1.23404 0.0164433 0)
(1.23207 0.0165352 0)
(1.23008 0.0166017 0)
(1.22807 0.0166443 0)
(1.22605 0.0166643 0)
(1.22401 0.0166632 0)
(1.22196 0.0166426 0)
(1.21989 0.0166038 0)
(1.21782 0.0165483 0)
(1.21574 0.0164774 0)
(1.21365 0.0163926 0)
(1.21156 0.016295 0)
(1.20946 0.0161861 0)
(1.20736 0.0160671 0)
(1.20526 0.0159391 0)
(1.20316 0.0158033 0)
(1.20105 0.0156608 0)
(1.19895 0.0155126 0)
(1.19684 0.0153598 0)
(1.19474 0.0152033 0)
(1.19265 0.0150439 0)
(1.19055 0.0148826 0)
(1.18846 0.0147201 0)
(1.18638 0.0145571 0)
(1.1843 0.0143944 0)
(1.18222 0.0142326 0)
(1.18015 0.0140724 0)
(1.17809 0.0139143 0)
(1.17603 0.0137589 0)
(1.17399 0.0136067 0)
(1.17194 0.0134584 0)
(1.16991 0.0133143 0)
(1.16788 0.0131753 0)
(1.16586 0.0130417 0)
(1.16385 0.0129145 0)
(1.16185 0.0127944 0)
(1.15986 0.012682 0)
(1.15787 0.0125798 0)
(1.1559 0.012486 0)
(1.1539 0.0124107 0)
(1.152 0.0123363 0)
(1.14987 0.0123121 0)
(1.14841 0.0122434 0)
(1.14519 0.0123231 0)
(1.24686 0.0160438 0)
(1.24499 0.0163982 0)
(1.24308 0.016714 0)
(1.24115 0.0169925 0)
(1.23918 0.0172352 0)
(1.23719 0.0174434 0)
(1.23517 0.0176187 0)
(1.23313 0.0177625 0)
(1.23107 0.0178764 0)
(1.22899 0.0179619 0)
(1.22689 0.0180206 0)
(1.22478 0.0180541 0)
(1.22265 0.0180639 0)
(1.22052 0.0180516 0)
(1.21837 0.0180188 0)
(1.21621 0.0179669 0)
(1.21405 0.0178974 0)
(1.21188 0.0178119 0)
(1.2097 0.0177118 0)
(1.20752 0.0175984 0)
(1.20534 0.017473 0)
(1.20316 0.0173371 0)
(1.20098 0.0171919 0)
(1.19879 0.0170385 0)
(1.19661 0.0168782 0)
(1.19444 0.016712 0)
(1.19226 0.0165409 0)
(1.1901 0.016366 0)
(1.18793 0.0161882 0)
(1.18577 0.0160084 0)
(1.18362 0.0158274 0)
(1.18148 0.015646 0)
(1.17934 0.0154649 0)
(1.17721 0.0152848 0)
(1.17509 0.0151063 0)
(1.17297 0.0149302 0)
(1.17087 0.0147568 0)
(1.16877 0.0145869 0)
(1.16669 0.014421 0)
(1.16461 0.0142596 0)
(1.16255 0.0141033 0)
(1.16049 0.0139529 0)
(1.15845 0.0138089 0)
(1.15641 0.0136723 0)
(1.15439 0.0135437 0)
(1.15237 0.0134254 0)
(1.15038 0.0133158 0)
(1.14836 0.013225 0)
(1.14645 0.0131351 0)
(1.1443 0.0130954 0)
(1.14284 0.0130137 0)
(1.13962 0.0130708 0)
(1.2444 0.0175344 0)
(1.24239 0.0178935 0)
(1.24036 0.0182119 0)
(1.2383 0.018491 0)
(1.23622 0.0187325 0)
(1.23411 0.0189377 0)
(1.23197 0.0191083 0)
(1.22982 0.019246 0)
(1.22765 0.0193522 0)
(1.22546 0.0194288 0)
(1.22326 0.0194772 0)
(1.22104 0.0194993 0)
(1.21882 0.0194967 0)
(1.21658 0.019471 0)
(1.21434 0.0194238 0)
(1.21209 0.0193568 0)
(1.20983 0.0192715 0)
(1.20758 0.0191694 0)
(1.20531 0.0190521 0)
(1.20305 0.0189211 0)
(1.20079 0.0187777 0)
(1.19853 0.0186234 0)
(1.19627 0.0184594 0)
(1.19402 0.018287 0)
(1.19177 0.0181074 0)
(1.18952 0.0179217 0)
(1.18728 0.0177311 0)
(1.18505 0.0175366 0)
(1.18282 0.0173391 0)
(1.18061 0.0171396 0)
(1.1784 0.016939 0)
(1.1762 0.016738 0)
(1.17401 0.0165374 0)
(1.17183 0.0163379 0)
(1.16966 0.0161402 0)
(1.1675 0.0159449 0)
(1.16535 0.0157527 0)
(1.16322 0.015564 0)
(1.16109 0.0153796 0)
(1.15898 0.0151999 0)
(1.15688 0.0150255 0)
(1.15479 0.0148572 0)
(1.15272 0.0146955 0)
(1.15066 0.0145415 0)
(1.14862 0.0143956 0)
(1.14658 0.0142603 0)
(1.14457 0.0141338 0)
(1.14254 0.0140262 0)
(1.14062 0.0139199 0)
(1.13846 0.013863 0)
(1.137 0.0137678 0)
(1.13379 0.0137986 0)
(1.24147 0.0190891 0)
(1.23934 0.0194495 0)
(1.23718 0.0197672 0)
(1.235 0.0200439 0)
(1.23279 0.020281 0)
(1.23056 0.0204802 0)
(1.22831 0.0206433 0)
(1.22605 0.0207719 0)
(1.22376 0.0208678 0)
(1.22147 0.0209327 0)
(1.21916 0.0209685 0)
(1.21685 0.0209767 0)
(1.21452 0.0209593 0)
(1.21219 0.0209178 0)
(1.20986 0.0208542 0)
(1.20752 0.0207699 0)
(1.20517 0.0206667 0)
(1.20283 0.0205463 0)
(1.20049 0.0204101 0)
(1.19815 0.0202597 0)
(1.19581 0.0200965 0)
(1.19348 0.0199221 0)
(1.19115 0.0197378 0)
(1.18882 0.0195449 0)
(1.18651 0.0193446 0)
(1.1842 0.0191381 0)
(1.1819 0.0189267 0)
(1.17961 0.0187113 0)
(1.17732 0.0184929 0)
(1.17505 0.0182726 0)
(1.17279 0.0180512 0)
(1.17054 0.0178295 0)
(1.16831 0.0176084 0)
(1.16608 0.0173885 0)
(1.16387 0.0171706 0)
(1.16167 0.0169553 0)
(1.15949 0.0167432 0)
(1.15732 0.016535 0)
(1.15516 0.0163311 0)
(1.15302 0.0161322 0)
(1.1509 0.0159389 0)
(1.14879 0.0157518 0)
(1.14669 0.0155716 0)
(1.14461 0.0153992 0)
(1.14255 0.0152353 0)
(1.1405 0.015082 0)
(1.13848 0.0149377 0)
(1.13644 0.0148123 0)
(1.13452 0.0146886 0)
(1.13236 0.0146128 0)
(1.1309 0.0145037 0)
(1.12771 0.0145047 0)
(1.23805 0.0207052 0)
(1.23579 0.0210634 0)
(1.2335 0.021377 0)
(1.2312 0.0216478 0)
(1.22887 0.0218773 0)
(1.22652 0.0220675 0)
(1.22416 0.02222 0)
(1.22178 0.0223366 0)
(1.2194 0.0224194 0)
(1.217 0.02247 0)
(1.21459 0.0224903 0)
(1.21218 0.0224822 0)
(1.20976 0.0224476 0)
(1.20733 0.0223882 0)
(1.20491 0.0223058 0)
(1.20248 0.0222022 0)
(1.20006 0.0220792 0)
(1.19764 0.0219384 0)
(1.19522 0.0217814 0)
(1.1928 0.0216099 0)
(1.19039 0.0214253 0)
(1.18799 0.0212293 0)
(1.1856 0.0210231 0)
(1.18321 0.0208082 0)
(1.18084 0.0205859 0)
(1.17847 0.0203573 0)
(1.17611 0.0201238 0)
(1.17377 0.0198863 0)
(1.17144 0.0196459 0)
(1.16912 0.0194037 0)
(1.16682 0.0191605 0)
(1.16452 0.0189171 0)
(1.16225 0.0186745 0)
(1.15999 0.0184333 0)
(1.15774 0.0181943 0)
(1.15551 0.017958 0)
(1.1533 0.0177253 0)
(1.1511 0.0174966 0)
(1.14892 0.0172725 0)
(1.14675 0.0170536 0)
(1.14461 0.0168405 0)
(1.14248 0.0166339 0)
(1.14037 0.0164345 0)
(1.13828 0.016243 0)
(1.13621 0.0160601 0)
(1.13415 0.015888 0)
(1.13213 0.0157251 0)
(1.13009 0.0155809 0)
(1.12817 0.0154392 0)
(1.12601 0.0153428 0)
(1.12457 0.0152198 0)
(1.1214 0.0151876 0)
(1.23412 0.0223789 0)
(1.23173 0.0227312 0)
(1.22932 0.0230372 0)
(1.22689 0.0232987 0)
(1.22444 0.0235173 0)
(1.22198 0.0236951 0)
(1.21951 0.023834 0)
(1.21703 0.0239357 0)
(1.21453 0.0240024 0)
(1.21203 0.024036 0)
(1.20953 0.0240383 0)
(1.20702 0.0240114 0)
(1.20451 0.0239571 0)
(1.202 0.0238774 0)
(1.1995 0.0237741 0)
(1.19699 0.0236492 0)
(1.19449 0.0235043 0)
(1.19199 0.0233412 0)
(1.1895 0.0231616 0)
(1.18702 0.0229673 0)
(1.18455 0.0227597 0)
(1.18208 0.0225405 0)
(1.17963 0.022311 0)
(1.17719 0.0220728 0)
(1.17476 0.0218271 0)
(1.17234 0.0215752 0)
(1.16994 0.0213183 0)
(1.16755 0.0210576 0)
(1.16518 0.0207942 0)
(1.16282 0.020529 0)
(1.16048 0.020263 0)
(1.15815 0.019997 0)
(1.15584 0.019732 0)
(1.15355 0.0194686 0)
(1.15128 0.0192076 0)
(1.14902 0.0189497 0)
(1.14678 0.0186955 0)
(1.14457 0.0184456 0)
(1.14237 0.0182006 0)
(1.14019 0.017961 0)
(1.13803 0.0177275 0)
(1.13589 0.0175007 0)
(1.13377 0.0172813 0)
(1.13168 0.01707 0)
(1.1296 0.0168676 0)
(1.12755 0.0166759 0)
(1.12553 0.0164938 0)
(1.12349 0.0163298 0)
(1.12159 0.0161696 0)
(1.11944 0.0160512 0)
(1.11801 0.0159144 0)
(1.11489 0.0158455 0)
(1.22965 0.0241056 0)
(1.22714 0.0244484 0)
(1.22461 0.0247431 0)
(1.22206 0.0249917 0)
(1.2195 0.0251961 0)
(1.21693 0.0253583 0)
(1.21435 0.0254803 0)
(1.21176 0.0255642 0)
(1.20917 0.0256119 0)
(1.20657 0.0256257 0)
(1.20398 0.0256074 0)
(1.20138 0.0255591 0)
(1.19879 0.0254828 0)
(1.1962 0.0253805 0)
(1.19361 0.0252542 0)
(1.19103 0.0251058 0)
(1.18846 0.0249371 0)
(1.1859 0.0247499 0)
(1.18335 0.0245461 0)
(1.1808 0.0243272 0)
(1.17827 0.0240951 0)
(1.17575 0.0238512 0)
(1.17325 0.023597 0)
(1.17076 0.0233341 0)
(1.16828 0.0230638 0)
(1.16582 0.0227874 0)
(1.16338 0.0225061 0)
(1.16096 0.0222212 0)
(1.15855 0.0219336 0)
(1.15616 0.0216445 0)
(1.15379 0.0213548 0)
(1.15143 0.0210654 0)
(1.1491 0.0207772 0)
(1.14679 0.0204909 0)
(1.14449 0.0202073 0)
(1.14222 0.0199269 0)
(1.13997 0.0196506 0)
(1.13774 0.0193789 0)
(1.13553 0.0191123 0)
(1.13335 0.0188515 0)
(1.13118 0.018597 0)
(1.12904 0.0183494 0)
(1.12692 0.0181095 0)
(1.12483 0.0178778 0)
(1.12276 0.0176553 0)
(1.12071 0.0174435 0)
(1.1187 0.0172416 0)
(1.11668 0.017057 0)
(1.1148 0.016878 0)
(1.11266 0.0167362 0)
(1.11126 0.0165858 0)
(1.10818 0.0164771 0)
(1.22464 0.0258799 0)
(1.222 0.0262092 0)
(1.21935 0.026489 0)
(1.21669 0.0267212 0)
(1.21402 0.0269079 0)
(1.21135 0.0270512 0)
(1.20866 0.0271533 0)
(1.20598 0.0272163 0)
(1.2033 0.0272423 0)
(1.20061 0.0272335 0)
(1.19793 0.0271919 0)
(1.19526 0.0271198 0)
(1.19259 0.0270192 0)
(1.18992 0.0268922 0)
(1.18727 0.0267408 0)
(1.18462 0.0265669 0)
(1.18199 0.0263725 0)
(1.17937 0.0261595 0)
(1.17676 0.0259297 0)
(1.17416 0.0256848 0)
(1.17158 0.0254266 0)
(1.16902 0.0251567 0)
(1.16647 0.0248765 0)
(1.16394 0.0245877 0)
(1.16142 0.0242917 0)
(1.15893 0.0239897 0)
(1.15646 0.023683 0)
(1.154 0.0233728 0)
(1.15157 0.0230603 0)
(1.14915 0.0227465 0)
(1.14676 0.0224323 0)
(1.14439 0.0221187 0)
(1.14204 0.0218066 0)
(1.13971 0.0214967 0)
(1.13741 0.0211898 0)
(1.13513 0.0208865 0)
(1.13287 0.0205875 0)
(1.13064 0.0202933 0)
(1.12843 0.0200047 0)
(1.12624 0.0197221 0)
(1.12408 0.0194462 0)
(1.12194 0.0191773 0)
(1.11983 0.0189165 0)
(1.11775 0.018664 0)
(1.11569 0.018421 0)
(1.11366 0.0181884 0)
(1.11167 0.0179665 0)
(1.10967 0.0177606 0)
(1.10781 0.0175625 0)
(1.1057 0.0173959 0)
(1.10432 0.0172325 0)
(1.10131 0.0170811 0)
(1.21907 0.0276956 0)
(1.21632 0.0280077 0)
(1.21356 0.0282687 0)
(1.21079 0.028481 0)
(1.20801 0.0286467 0)
(1.20524 0.0287679 0)
(1.20246 0.028847 0)
(1.19969 0.0288861 0)
(1.19692 0.0288875 0)
(1.19415 0.0288535 0)
(1.1914 0.0287862 0)
(1.18865 0.0286879 0)
(1.18591 0.0285608 0)
(1.18318 0.0284068 0)
(1.18046 0.0282282 0)
(1.17776 0.0280271 0)
(1.17507 0.0278052 0)
(1.1724 0.0275647 0)
(1.16974 0.0273074 0)
(1.1671 0.0270351 0)
(1.16448 0.0267494 0)
(1.16188 0.0264522 0)
(1.1593 0.0261449 0)
(1.15674 0.0258291 0)
(1.15419 0.0255062 0)
(1.15168 0.0251777 0)
(1.14918 0.0248447 0)
(1.1467 0.0245085 0)
(1.14425 0.0241702 0)
(1.14182 0.0238309 0)
(1.13942 0.0234916 0)
(1.13704 0.0231532 0)
(1.13468 0.0228166 0)
(1.13235 0.0224826 0)
(1.13004 0.0221518 0)
(1.12776 0.0218251 0)
(1.1255 0.021503 0)
(1.12327 0.0211861 0)
(1.12107 0.020875 0)
(1.11889 0.0205702 0)
(1.11675 0.0202725 0)
(1.11462 0.0199821 0)
(1.11253 0.0196999 0)
(1.11046 0.0194262 0)
(1.10843 0.0191625 0)
(1.10641 0.0189088 0)
(1.10445 0.0186665 0)
(1.10248 0.0184387 0)
(1.10065 0.0182216 0)
(1.09857 0.018029 0)
(1.09723 0.0178531 0)
(1.09429 0.0176562 0)
(1.21294 0.0295459 0)
(1.21008 0.0298369 0)
(1.20721 0.0300757 0)
(1.20434 0.0302645 0)
(1.20147 0.0304058 0)
(1.1986 0.0305017 0)
(1.19574 0.0305548 0)
(1.19289 0.0305672 0)
(1.19004 0.0305413 0)
(1.1872 0.0304796 0)
(1.18438 0.0303841 0)
(1.18156 0.0302574 0)
(1.17877 0.0301015 0)
(1.17598 0.0299187 0)
(1.17321 0.0297111 0)
(1.17046 0.0294808 0)
(1.16773 0.0292299 0)
(1.16501 0.0289604 0)
(1.16232 0.0286741 0)
(1.15965 0.028373 0)
(1.15699 0.0280587 0)
(1.15436 0.027733 0)
(1.15176 0.0273975 0)
(1.14917 0.0270537 0)
(1.14661 0.0267032 0)
(1.14408 0.0263472 0)
(1.14156 0.0259871 0)
(1.13908 0.0256242 0)
(1.13662 0.0252595 0)
(1.13418 0.0248942 0)
(1.13178 0.0245292 0)
(1.12939 0.0241655 0)
(1.12704 0.0238039 0)
(1.12471 0.0234453 0)
(1.12241 0.0230904 0)
(1.12014 0.0227398 0)
(1.11789 0.0223943 0)
(1.11568 0.0220543 0)
(1.11349 0.0217205 0)
(1.11133 0.0213933 0)
(1.1092 0.0210735 0)
(1.1071 0.0207612 0)
(1.10503 0.0204576 0)
(1.10299 0.0201625 0)
(1.10098 0.0198777 0)
(1.099 0.0196026 0)
(1.09707 0.01934 0)
(1.09512 0.0190897 0)
(1.09333 0.0188537 0)
(1.0913 0.0186341 0)
(1.08999 0.0184466 0)
(1.08713 0.0182015 0)
(1.20625 0.0314236 0)
(1.20328 0.0316897 0)
(1.20032 0.0319025 0)
(1.19736 0.0320645 0)
(1.1944 0.0321782 0)
(1.19145 0.0322458 0)
(1.18851 0.0322699 0)
(1.18559 0.0322529 0)
(1.18267 0.0321972 0)
(1.17977 0.0321053 0)
(1.17689 0.0319794 0)
(1.17402 0.0318221 0)
(1.17117 0.0316355 0)
(1.16834 0.0314219 0)
(1.16553 0.0311836 0)
(1.16274 0.0309227 0)
(1.15997 0.0306412 0)
(1.15722 0.0303413 0)
(1.1545 0.0300248 0)
(1.1518 0.0296937 0)
(1.14913 0.0293497 0)
(1.14648 0.0289945 0)
(1.14386 0.0286299 0)
(1.14126 0.0282573 0)
(1.13869 0.0278783 0)
(1.13615 0.0274942 0)
(1.13364 0.0271064 0)
(1.13115 0.0267162 0)
(1.12869 0.0263246 0)
(1.12626 0.0259327 0)
(1.12386 0.0255416 0)
(1.12148 0.0251522 0)
(1.11914 0.0247654 0)
(1.11682 0.0243819 0)
(1.11454 0.0240025 0)
(1.11228 0.0236278 0)
(1.11006 0.0232586 0)
(1.10786 0.0228953 0)
(1.1057 0.0225386 0)
(1.10356 0.0221889 0)
(1.10146 0.0218469 0)
(1.09939 0.0215127 0)
(1.09735 0.0211875 0)
(1.09534 0.0208708 0)
(1.09337 0.020565 0)
(1.09142 0.0202683 0)
(1.08953 0.0199852 0)
(1.08763 0.0197122 0)
(1.08589 0.0194576 0)
(1.08391 0.0192099 0)
(1.08263 0.0190118 0)
(1.07987 0.0187162 0)
(1.199 0.0333207 0)
(1.19594 0.0335583 0)
(1.19288 0.0337418 0)
(1.18984 0.0338737 0)
(1.18681 0.0339566 0)
(1.18379 0.033993 0)
(1.18079 0.0339854 0)
(1.1778 0.0339364 0)
(1.17482 0.0338485 0)
(1.17187 0.0337241 0)
(1.16894 0.0335658 0)
(1.16603 0.0333759 0)
(1.16314 0.0331568 0)
(1.16027 0.0329108 0)
(1.15743 0.0326402 0)
(1.15461 0.0323472 0)
(1.15182 0.0320338 0)
(1.14905 0.0317023 0)
(1.14631 0.0313545 0)