/*--------------------------------*- C++ -*----------------------------------*\
  =========                 |
  \\      /  F ield         | OpenFOAM: The Open Source CFD Toolbox
   \\    /   O peration     | Website:  https://openfoam.org
    \\  /    A nd           | Version:  7
     \\/     M anipulation  |
\*---------------------------------------------------------------------------*/
FoamFile
{
    version     2.0;
    format      ascii;
    class       volScalarField;
    location    "20";
    object      p;
}
// * * * * * * * * * * * * * * * * * * * * * * * * * * * * * * * * * * * * * //

dimensions      [0 2 -2 0 0 0 0];

internalField   nonuniform List<scalar> 
2625
(
0.0962941
0.0889977
0.0817022
0.074413
0.226538
0.226344
0.22569
0.22472
0.223425
0.221823
0.219922
0.217729
0.21525
0.212494
0.209468
0.206186
0.20266
0.198906
0.194944
0.190793
0.186474
0.182013
0.177431
0.172754
0.168005
0.163209
0.158388
0.153564
0.148757
0.143985
0.139266
0.134614
0.130044
0.125568
0.226571
0.226379
0.225726
0.224759
0.223468
0.221871
0.219976
0.217789
0.215316
0.212566
0.209548
0.206272
0.202753
0.199006
0.195049
0.190903
0.18659
0.182132
0.177553
0.172878
0.16813
0.163334
0.158512
0.153686
0.148876
0.144101
0.139378
0.134721
0.130146
0.125663
0.226635
0.226445
0.225795
0.224835
0.223552
0.221964
0.220079
0.217903
0.215444
0.212707
0.209701
0.206439
0.202933
0.199198
0.195253
0.191117
0.186812
0.182362
0.177789
0.173117
0.168372
0.163576
0.158752
0.153923
0.149108
0.144326
0.139595
0.134929
0.130343
0.125848
0.226728
0.226541
0.225896
0.224945
0.223673
0.222098
0.220228
0.21807
0.215628
0.21291
0.209924
0.206681
0.203193
0.199477
0.195548
0.191427
0.187136
0.182696
0.178131
0.173465
0.168722
0.163927
0.159101
0.154267
0.149444
0.144653
0.13991
0.135232
0.130631
0.126118
0.226848
0.226663
0.226025
0.225085
0.223827
0.22227
0.22042
0.218283
0.215865
0.213171
0.21021
0.206992
0.203529
0.199835
0.195928
0.191827
0.187552
0.183126
0.178572
0.173914
0.169176
0.164381
0.159552
0.154712
0.14988
0.145077
0.14032
0.135624
0.131003
0.126468
0.226991
0.22681
0.22618
0.225254
0.224013
0.222477
0.220651
0.21854
0.21615
0.213486
0.210555
0.207367
0.203934
0.200268
0.196388
0.19231
0.188057
0.183648
0.179107
0.174459
0.169726
0.164932
0.1601
0.155252
0.15041
0.145593
0.140818
0.136102
0.131458
0.126894
0.227157
0.22698
0.22636
0.225449
0.224228
0.222716
0.220917
0.218837
0.216479
0.21385
0.210954
0.207802
0.204403
0.200771
0.196921
0.192872
0.188642
0.184254
0.17973
0.175093
0.170366
0.165574
0.160739
0.155884
0.151029
0.146196
0.1414
0.136661
0.131991
0.127394
0.227343
0.227169
0.22656
0.225668
0.224469
0.222984
0.221216
0.21917
0.21685
0.214259
0.211403
0.208291
0.204931
0.201337
0.197523
0.193506
0.189305
0.18494
0.180435
0.175811
0.171093
0.166303
0.161465
0.156602
0.151734
0.146882
0.142064
0.137299
0.132598
0.127965
0.227546
0.227378
0.226781
0.225908
0.224733
0.223278
0.221545
0.219537
0.217257
0.214709
0.211898
0.20883
0.205514
0.201962
0.198188
0.194207
0.190038
0.185701
0.181217
0.176609
0.1719
0.167114
0.162274
0.157402
0.15252
0.147648
0.142806
0.138012
0.133279
0.128603
0.227766
0.227602
0.227018
0.226167
0.225019
0.223596
0.2219
0.219933
0.217698
0.215197
0.212434
0.209415
0.206148
0.202642
0.198912
0.194971
0.190837
0.18653
0.182071
0.177481
0.172784
0.168003
0.16316
0.15828
0.153383
0.148491
0.143623
0.138799
0.134029
0.129308
0.228
0.227841
0.227272
0.226442
0.225323
0.223935
0.222279
0.220357
0.21817
0.215719
0.213009
0.210043
0.206828
0.203373
0.19969
0.195793
0.191699
0.187426
0.182994
0.178424
0.173741
0.168965
0.164122
0.159233
0.154321
0.149407
0.144512
0.139655
0.134847
0.130076
0.228247
0.228092
0.227539
0.226733
0.225644
0.224293
0.222679
0.220804
0.218669
0.216272
0.213618
0.210708
0.207549
0.204149
0.200518
0.196669
0.192618
0.188381
0.18398
0.179434
0.174766
0.169998
0.165155
0.160258
0.155331
0.150395
0.145471
0.14058
0.135732
0.130907
0.228504
0.228355
0.227818
0.227037
0.22598
0.224668
0.223099
0.221274
0.219192
0.216853
0.214258
0.211408
0.208309
0.204968
0.201392
0.197595
0.19359
0.189394
0.185026
0.180506
0.175856
0.171098
0.166255
0.161352
0.15641
0.151451
0.146497
0.141571
0.136682
0.131798
0.228771
0.228628
0.228107
0.227352
0.226329
0.225057
0.223535
0.221762
0.219737
0.217458
0.214925
0.21214
0.209104
0.205825
0.202308
0.198566
0.194612
0.19046
0.186128
0.181637
0.177007
0.172261
0.167421
0.162512
0.157555
0.152574
0.14759
0.142627
0.137695
0.132749
0.229046
0.228908
0.228406
0.227677
0.226688
0.225459
0.223985
0.222266
0.2203
0.218085
0.215618
0.212899
0.20993
0.206716
0.203263
0.19958
0.195679
0.191575
0.187283
0.182823
0.178216
0.173484
0.168649
0.163735
0.158764
0.153761
0.148747
0.143747
0.13877
0.133757
0.229328
0.229195
0.228711
0.22801
0.227057
0.225871
0.224448
0.222785
0.220881
0.218731
0.216332
0.213683
0.210785
0.20764
0.204253
0.200633
0.196789
0.192735
0.188487
0.184062
0.179481
0.174764
0.169936
0.165018
0.160035
0.15501
0.149965
0.144927
0.139906
0.134823
0.229615
0.229488
0.229023
0.22835
0.227434
0.226293
0.224921
0.223317
0.221476
0.219393
0.217065
0.214489
0.211664
0.208592
0.205275
0.20172
0.197938
0.193938
0.189736
0.185349
0.180797
0.176099
0.17128
0.166361
0.161366
0.15632
0.151244
0.146168
0.141102
0.135944
0.229906
0.229786
0.22934
0.228695
0.227816
0.226721
0.225403
0.223858
0.222082
0.220069
0.217815
0.215314
0.212565
0.209568
0.206325
0.20284
0.199122
0.19518
0.191028
0.186683
0.182162
0.177486
0.172677
0.167759
0.162754
0.157688
0.152582
0.147468
0.142357
0.13712
0.230201
0.230086
0.22966
0.229045
0.228204
0.227156
0.225891
0.224408
0.222699
0.220758
0.218579
0.216156
0.213486
0.210567
0.2074
0.203989
0.200338
0.196457
0.192359
0.188059
0.183573
0.178922
0.174126
0.169211
0.164198
0.159113
0.153978
0.148825
0.143669
0.138349
0.230498
0.230389
0.229983
0.229397
0.228596
0.227595
0.226386
0.224964
0.223324
0.221456
0.219354
0.217012
0.214423
0.211586
0.208499
0.205163
0.201583
0.197768
0.193727
0.189475
0.185027
0.180403
0.175625
0.170714
0.165695
0.160592
0.155429
0.150239
0.145039
0.139631
0.230797
0.230694
0.230308
0.229752
0.22899
0.228037
0.226884
0.225526
0.223955
0.222162
0.220139
0.217879
0.215375
0.212621
0.209617
0.20636
0.202855
0.199108
0.195128
0.190928
0.186522
0.181929
0.17717
0.172266
0.167243
0.162125
0.156935
0.151707
0.146465
0.140965
0.231096
0.230999
0.230634
0.230108
0.229385
0.228481
0.227384
0.226091
0.22459
0.222874
0.220932
0.218756
0.216338
0.213671
0.210752
0.207578
0.204151
0.200476
0.19656
0.192415
0.188054
0.183495
0.178759
0.173866
0.168841
0.163709
0.158493
0.153229
0.147946
0.142348
0.231395
0.231303
0.23096
0.230463
0.229781
0.228926
0.227887
0.226657
0.225229
0.22359
0.221731
0.219641
0.217311
0.214733
0.211901
0.208813
0.205467
0.201868
0.19802
0.193933
0.189622
0.185101
0.18039
0.17551
0.170486
0.165342
0.160103
0.154803
0.149481
0.143781
0.231693
0.231607
0.231285
0.230819
0.230177
0.22937
0.228389
0.227225
0.225869
0.224309
0.222533
0.220531
0.21829
0.215804
0.213063
0.210063
0.206802
0.203281
0.199505
0.195481
0.191222
0.186742
0.18206
0.177197
0.172177
0.167024
0.161763
0.156428
0.151071
0.145263
0.23199
0.23191
0.231608
0.231172
0.230571
0.229814
0.22889
0.227793
0.226509
0.225029
0.223338
0.221424
0.219276
0.216882
0.214235
0.211326
0.208152
0.204714
0.201012
0.197055
0.192852
0.188417
0.183768
0.178925
0.173911
0.168752
0.163471
0.158103
0.152712
0.146791
0.232285
0.23221
0.23193
0.231524
0.230963
0.230255
0.22939
0.228359
0.227149
0.225748
0.224143
0.222319
0.220265
0.217966
0.215414
0.212599
0.209516
0.206163
0.20254
0.198653
0.19451
0.190124
0.185511
0.180691
0.175687
0.170524
0.165226
0.159826
0.154406
0.148364
0.232577
0.232508
0.232249
0.231873
0.231352
0.230694
0.229887
0.228922
0.227786
0.226466
0.224947
0.223215
0.221255
0.219054
0.216599
0.21388
0.210891
0.207626
0.204085
0.200272
0.196193
0.191859
0.187287
0.182494
0.177503
0.172339
0.167027
0.161595
0.156151
0.149983
0.232866
0.232803
0.232564
0.232218
0.231739
0.23113
0.230381
0.229482
0.22842
0.227181
0.225749
0.224109
0.222245
0.220143
0.217787
0.215167
0.212274
0.209101
0.205646
0.20191
0.197898
0.193621
0.189093
0.184331
0.179357
0.174194
0.168871
0.163409
0.157946
0.151644
0.233152
0.233094
0.232877
0.23256
0.232121
0.231561
0.23087
0.230038
0.22905
0.227892
0.226548
0.225001
0.223234
0.221232
0.218977
0.216459
0.213664
0.210586
0.207219
0.203564
0.199624
0.195408
0.190928
0.1862
0.181246
0.176089
0.170758
0.165268
0.15979
0.153347
0.233435
0.233382
0.233185
0.232898
0.232498
0.231987
0.231355
0.230588
0.229675
0.228598
0.227342
0.225889
0.22422
0.222319
0.220168
0.217752
0.215058
0.212078
0.208804
0.205233
0.201369
0.197217
0.192788
0.188099
0.18317
0.178021
0.172686
0.167168
0.161682
0.15509
0.233713
0.233665
0.233489
0.233231
0.232871
0.232409
0.231834
0.231133
0.230294
0.229299
0.228131
0.226772
0.225202
0.223403
0.221356
0.219045
0.216456
0.213575
0.210396
0.206914
0.203129
0.199045
0.194673
0.190026
0.185125
0.179988
0.174652
0.169108
0.163621
0.156871
0.233987
0.233944
0.233789
0.233559
0.233239
0.232825
0.232307
0.231672
0.230906
0.229992
0.228913
0.227648
0.226178
0.224482
0.222541
0.220337
0.217853
0.215076
0.211996
0.208605
0.204903
0.200891
0.19658
0.191979
0.18711
0.181988
0.176657
0.171087
0.165607
0.158689
0.234256
0.234219
0.234084
0.233883
0.233601
0.233234
0.232773
0.232204
0.231511
0.230679
0.229687
0.228517
0.227147
0.225555
0.223722
0.221626
0.21925
0.216579
0.213599
0.210304
0.206688
0.202753
0.198506
0.193955
0.189123
0.18402
0.178697
0.173103
0.167638
0.160543
0.23452
0.234488
0.234373
0.2342
0.233958
0.233638
0.233233
0.232728
0.232109
0.231357
0.230454
0.229378
0.228108
0.226621
0.224896
0.22291
0.220644
0.218081
0.215206
0.212008
0.208483
0.204628
0.200449
0.195953
0.191162
0.186081
0.180772
0.175154
0.169713
0.162429
0.23478
0.234753
0.234658
0.234512
0.234308
0.234035
0.233686
0.233245
0.232698
0.232026
0.231211
0.23023
0.22906
0.227679
0.226063
0.224188
0.222034
0.219581
0.216812
0.213716
0.210285
0.206514
0.202408
0.197971
0.193225
0.18817
0.182879
0.177238
0.171831
0.164347
0.235035
0.235013
0.234937
0.234818
0.234652
0.234424
0.234131
0.233753
0.233278
0.232686
0.231958
0.231072
0.230003
0.228727
0.227221
0.225458
0.223418
0.221077
0.218418
0.215426
0.212093
0.208409
0.204381
0.200006
0.195311
0.190285
0.185018
0.179353
0.173991
0.166295
0.235284
0.235267
0.23521
0.235119
0.234989
0.234807
0.234568
0.234253
0.233849
0.233337
0.232696
0.231903
0.230935
0.229765
0.228369
0.22672
0.224794
0.222567
0.220021
0.217136
0.213903
0.210312
0.206364
0.202056
0.197416
0.192423
0.187186
0.181498
0.176192
0.16827
0.235528
0.235516
0.235478
0.235413
0.235319
0.235182
0.234997
0.234744
0.234411
0.233977
0.233422
0.232723
0.231855
0.230792
0.229506
0.227972
0.226162
0.224051
0.221619
0.218845
0.215716
0.212219
0.208357
0.20412
0.19954
0.194583
0.189382
0.183669
0.178433
0.17027
0.235767
0.235759
0.23574
0.235701
0.235643
0.23555
0.235417
0.235226
0.234962
0.234606
0.234137
0.233531
0.232763
0.231806
0.230632
0.229212
0.22752
0.225527
0.223211
0.22055
0.217528
0.21413
0.210358
0.206196
0.20168
0.196762
0.191603
0.185866
0.180713
0.172293
0.236001
0.235997
0.235997
0.235982
0.23596
0.235911
0.23583
0.235699
0.235504
0.235225
0.234841
0.234327
0.233659
0.232808
0.231745
0.230441
0.228866
0.226993
0.224795
0.222249
0.219338
0.216043
0.212364
0.208281
0.203834
0.19896
0.19385
0.188086
0.18303
0.174337
0.236229
0.236229
0.236247
0.236257
0.23627
0.236263
0.236234
0.236162
0.236035
0.235832
0.235532
0.235111
0.234542
0.233796
0.232844
0.231656
0.230201
0.228448
0.226371
0.223942
0.221144
0.217955
0.214373
0.210373
0.206001
0.201173
0.196119
0.190327
0.185382
0.1764
0.236452
0.236456
0.236492
0.236526
0.236573
0.236608
0.236629
0.236616
0.236556
0.236428
0.236211
0.235881
0.23541
0.23477
0.23393
0.232858
0.231522
0.229891
0.227935
0.225627
0.222945
0.219864
0.216384
0.212471
0.208178
0.2034
0.198409
0.192587
0.18777
0.17848
0.236669
0.236678
0.23673
0.236789
0.236869
0.236945
0.237016
0.23706
0.237066
0.237012
0.236878
0.236638
0.236265
0.235729
0.235
0.234044
0.232829
0.23132
0.229489
0.227302
0.224739
0.22177
0.218395
0.214573
0.210364
0.205639
0.200718
0.194866
0.19019
0.180575
0.236881
0.236894
0.236963
0.237045
0.237158
0.237274
0.237394
0.237495
0.237566
0.237585
0.237532
0.237381
0.237105
0.236674
0.236055
0.235216
0.234121
0.232736
0.231029
0.228966
0.226524
0.223671
0.220404
0.216677
0.212557
0.207889
0.203045
0.19716
0.192642
0.182684
0.237088
0.237104
0.23719
0.237295
0.237441
0.237596
0.237763
0.237919
0.238054
0.238146
0.238173
0.23811
0.23793
0.237602
0.237094
0.236371
0.235397
0.234136
0.232555
0.230618
0.2283
0.225564
0.222409
0.218781
0.214755
0.210147
0.205387
0.199468
0.195124
0.184803
0.122191
0.119908
0.117602
0.11527
0.112911
0.110526
0.108116
0.105682
0.103225
0.100744
0.0982425
0.0957197
0.0931769
0.0906152
0.0880354
0.0854387
0.0828262
0.0801989
0.0775579
0.0749046
0.07224
0.0695654
0.122292
0.120019
0.117722
0.115399
0.113048
0.11067
0.108267
0.105839
0.103386
0.100909
0.0984103
0.0958892
0.0933471
0.0907852
0.0882043
0.0856055
0.0829899
0.0803587
0.077713
0.0750541
0.0723832
0.0697015
0.12248
0.120208
0.117913
0.115592
0.113243
0.110866
0.108463
0.106034
0.10358
0.101101
0.0985992
0.0960747
0.0935285
0.0909616
0.0883751
0.08577
0.0831475
0.0805086
0.0778546
0.0751866
0.072506
0.0698141
0.122749
0.120474
0.118175
0.115851
0.113499
0.111118
0.10871
0.106276
0.103816
0.10133
0.098821
0.0962884
0.0937335
0.0911573
0.0885608
0.085945
0.0833112
0.0806605
0.0779941
0.0753132
0.0726191
0.0699132
0.123098
0.120814
0.118506
0.116175
0.113815
0.111426
0.109009
0.106565
0.104094
0.101598
0.0990773
0.0965326
0.093965
0.0913755
0.0887651
0.086135
0.0834862
0.08082
0.0781375
0.0754401
0.072729
0.0700055
0.123523
0.121224
0.118902
0.116559
0.114188
0.111786
0.109356
0.106898
0.104413
0.101902
0.0993659
0.0968052
0.0942211
0.0916145
0.0889866
0.0863384
0.083671
0.0809858
0.0782838
0.0755665
0.072835
0.0700908
0.124021
0.121702
0.119361
0.117003
0.114616
0.112197
0.10975
0.107274
0.104771
0.102241
0.0996859
0.0971055
0.0945012
0.091874
0.089225
0.0865553
0.083866
0.0811583
0.0784336
0.0756931
0.0729381
0.07017
0.0673903
0.124589
0.122246
0.119882
0.117503
0.115097
0.112658
0.110189
0.107692
0.105167
0.102615
0.100037
0.0974332
0.0948052
0.0921539
0.0894804
0.0867858
0.0840713
0.0813381
0.0785874
0.0758207
0.0730391
0.0702442
0.0674373
0.125226
0.122854
0.120461
0.11806
0.11563
0.113167
0.110673
0.108151
0.105601
0.103023
0.100418
0.0977877
0.0951327
0.0924541
0.0897529
0.0870303
0.0842874
0.0815255
0.0787459
0.0759499
0.0731389
0.0703142
0.0674774
0.12593
0.123525
0.121099
0.118671
0.116214
0.113723
0.111201
0.10865
0.106071
0.103463
0.100829
0.098169
0.0954837
0.0927745
0.0900425
0.0872887
0.0845145
0.081721
0.0789095
0.0760814
0.0732381
0.070381
0.0675116
0.1267
0.124256
0.121794
0.119335
0.116847
0.114325
0.111772
0.109189
0.106577
0.103937
0.10127
0.0985767
0.0958581
0.0931153
0.0903494
0.0875616
0.084753
0.081925
0.0790789
0.0762159
0.0733376
0.0704453
0.0675406
0.127534
0.125048
0.122544
0.120051
0.11753
0.114973
0.112385
0.109766
0.107119
0.104443
0.10174
0.0990108
0.0962558
0.0934764
0.0906738
0.087849
0.0850033
0.082138
0.0792545
0.076354
0.073438
0.070508
0.0675654
0.128432
0.125899
0.12335
0.120819
0.118261
0.115666
0.113039
0.110383
0.107697
0.104982
0.10224
0.0994714
0.096677
0.0938581
0.0910158
0.0881513
0.0852657
0.0823605
0.0794368
0.0764962
0.07354
0.0705698
0.0675869
0.129393
0.126808
0.12421
0.121639
0.11904
0.116404
0.113736
0.111037
0.10831
0.105553
0.102769
0.0999583
0.0971217
0.0942605
0.0913758
0.0884688
0.0855407
0.0825928
0.0796265
0.0766432
0.0736443
0.0706313
0.0676058
0.130416
0.127775
0.125124
0.122509
0.119867
0.117187
0.114473
0.11173
0.108958
0.106157
0.103327
0.100472
0.09759
0.0946837
0.0917539
0.0888017
0.0858285
0.0828354
0.079824
0.0767955
0.0737515
0.0706934
0.0676228
0.1315
0.1288
0.126092
0.123429
0.120741
0.118013
0.115252
0.112461
0.109641
0.106792
0.103915
0.101011
0.0980821
0.095128
0.0921504
0.0891505
0.0861295
0.0830888
0.0800297
0.0769536
0.0738621
0.0707565
0.0676386
0.132646
0.129881
0.127112
0.124399
0.121662
0.118883
0.116071
0.11323
0.110359
0.107459
0.104532
0.101578
0.0985981
0.0955936
0.0925656
0.0895154
0.0864442
0.0833533
0.0802441
0.0771181
0.0739767
0.0708215
0.0676539
0.133853
0.131018
0.128184
0.125419
0.122629
0.119796
0.116931
0.114036
0.111112
0.108159
0.105178
0.102171
0.099138
0.0960806
0.0929997
0.0898967
0.0867728
0.0836293
0.0804677
0.0772894
0.0740959
0.0708887
0.0676694
0.13512
0.132212
0.129309
0.126488
0.123642
0.120753
0.117831
0.11488
0.111899
0.10889
0.105854
0.102791
0.0997022
0.0965892
0.0934529
0.0902946
0.0871156
0.0839172
0.0807009
0.077468
0.0742201
0.0709587
0.0676855
0.136447
0.13346
0.130485
0.127605
0.124702
0.121753
0.118771
0.115761
0.112722
0.109654
0.106559
0.103438
0.100291
0.0971196
0.0939255
0.0907095
0.0874731
0.0842174
0.0809441
0.0776544
0.0743499
0.0710322
0.0677029
0.137833
0.134764
0.131712
0.128772
0.125807
0.122796
0.119752
0.11668
0.113579
0.11045
0.107294
0.104111
0.100904
0.097672
0.0944176
0.0911417
0.0878454
0.0845302
0.0811976
0.0778489
0.0744857
0.0711095
0.0677221
0.139279
0.136122
0.13299
0.129986
0.126958
0.123881
0.120772
0.117636
0.114471
0.111278
0.108058
0.104812
0.101541
0.0982466
0.0949296
0.0915912
0.0882329
0.084856
0.0814618
0.078052
0.0746279
0.0711912
0.0677436
0.140784
0.137534
0.134319
0.131249
0.128154
0.125009
0.121833
0.118629
0.115397
0.112137
0.108851
0.105539
0.102203
0.0988434
0.0954615
0.0920585
0.0886359
0.085195
0.0817372
0.078264
0.074777
0.0712777
0.0677679
0.142347
0.138999
0.135697
0.132559
0.129395
0.126179
0.122932
0.119659
0.116358
0.113029
0.109674
0.106294
0.10289
0.0994627
0.0960135
0.0925437
0.0890546
0.0855475
0.0820239
0.0784853
0.0749333
0.0713695
0.0677955
0.143968
0.140517
0.137125
0.133917
0.13068
0.127391
0.124071
0.120726
0.117353
0.113953
0.110527
0.107076
0.103602
0.100105
0.0965859
0.093047
0.0894892
0.0859138
0.0823223
0.0787163
0.0750973
0.0714668
0.0678267
0.145647
0.142087
0.138602
0.135321
0.13201
0.128645
0.12525
0.121829
0.118382
0.114908
0.111409
0.107885
0.104338
0.100769
0.0971788
0.0935686
0.08994
0.0862942
0.0826328
0.0789573
0.0752692
0.0715702
0.067862
0.147383
0.143708
0.140127
0.136772
0.133383
0.129939
0.126467
0.122969
0.119445
0.115895
0.112321
0.108722
0.1051
0.101456
0.0977922
0.0941087
0.0904071
0.0866889
0.0829555
0.0792085
0.0754494
0.07168
0.0679019
0.149175
0.145379
0.1417
0.138268
0.1348
0.131275
0.127722
0.124145
0.120543
0.116914
0.113261
0.109585
0.105886
0.102166
0.0984263
0.0946673
0.0908907
0.0870981
0.0832907
0.0794703
0.0756383
0.0717965
0.0679466
0.151024
0.1471
0.14332
0.13981
0.13626
0.132651
0.129015
0.125357
0.121673
0.117964
0.114231
0.110476
0.106698
0.102899
0.0990812
0.0952446
0.0913911
0.0875219
0.0836387
0.0797428
0.0758361
0.07192
0.0679965
0.152927
0.14887
0.144987
0.141397
0.137762
0.134067
0.130347
0.126605
0.122837
0.119046
0.115231
0.111393
0.107534
0.103655
0.0997568
0.0958408
0.0919083
0.0879607
0.0839996
0.0800265
0.076043
0.0720509
0.0680519
0.154885
0.150687
0.146699
0.143028
0.139305
0.135522
0.131715
0.127887
0.124035
0.120158
0.116259
0.112337
0.108395
0.104434
0.100453
0.0964558
0.0924424
0.0884145
0.0843736
0.0803214
0.0762594
0.0721894
0.0681132
0.156897
0.152551
0.148455
0.144702
0.14089
0.137016
0.133121
0.129205
0.125264
0.121301
0.117315
0.113308
0.109281
0.105235
0.101171
0.0970897
0.0929935
0.0888834
0.084761
0.0806278
0.0764855
0.0723358
0.0681806
0.158962
0.15446
0.150256
0.146419
0.142515
0.138548
0.134562
0.130556
0.126527
0.122474
0.1184
0.114306
0.110192
0.106059
0.101909
0.0977426
0.0935617
0.0893676
0.0851617
0.0809458
0.0767214
0.0724904
0.0682545
0.161078
0.156413
0.1521
0.148177
0.144179
0.140118
0.136039
0.131942
0.127821
0.123677
0.119513
0.115329
0.111126
0.106905
0.102668
0.0984144
0.0941471
0.0898671
0.0855761
0.0812756
0.0769674
0.0726532
0.0683349
0.163246
0.158409
0.153986
0.149977
0.145882
0.141724
0.137552
0.13336
0.129146
0.12491
0.120654
0.116379
0.112085
0.107774
0.103447
0.0991051
0.0947495
0.090382
0.086004
0.0816173
0.0772236
0.0728246
0.0684223
0.165464
0.160445
0.155913
0.151816
0.147623
0.143366
0.139098
0.134811
0.130502
0.126172
0.121823
0.117455
0.113069
0.108666
0.104247
0.0998146
0.0953691
0.0909123
0.0864457
0.0819711
0.0774901
0.0730047
0.0685166
0.16773
0.162521
0.157879
0.153695
0.1494
0.145044
0.140678
0.136294
0.131889
0.127463
0.123018
0.118556
0.114075
0.109579
0.105068
0.100543
0.0960058
0.091458
0.0869011
0.0823369
0.0777671
0.0731936
0.0686182
0.170044
0.164635
0.159884
0.155611
0.151212
0.146756
0.142291
0.137809
0.133305
0.128782
0.124241
0.119682
0.115106
0.110514
0.105909
0.10129
0.0966595
0.0920191
0.0873703
0.0827149
0.0780546
0.0733914
0.0687272
0.172404
0.166784
0.161927
0.157563
0.15306
0.148501
0.143936
0.139354
0.13475
0.130129
0.125489
0.120832
0.116159
0.111471
0.106769
0.102055
0.09733
0.0925955
0.0878532
0.083105
0.0783527
0.0735982
0.0688435
0.17481
0.168968
0.164006
0.159551
0.15494
0.150278
0.145612
0.140928
0.136224
0.131502
0.126763
0.122007
0.117235
0.112449
0.10765
0.102839
0.0980173
0.093187
0.0883497
0.0835072
0.0786613
0.073814
0.0689674
0.177259
0.171183
0.166119
0.161572
0.156852
0.152086
0.147318
0.142531
0.137725
0.132902
0.128062
0.123205
0.118334
0.113448
0.10855
0.10364
0.0987211
0.0937937
0.0888598
0.0839215
0.0789805
0.0740389
0.0690989
0.17975
0.173429
0.168266
0.163626
0.158795
0.153924
0.149052
0.144162
0.139253
0.134327
0.129385
0.124427
0.119454
0.114468
0.109469
0.10446
0.0994413
0.0944152
0.0893834
0.0843477
0.0793102
0.0742729
0.069238
0.0642077
0.182282
0.175701
0.170445
0.16571
0.160767
0.15579
0.150815
0.14582
0.140807
0.135778
0.130732
0.125671
0.120596
0.115508
0.110407
0.105297
0.100178
0.0950514
0.0899201
0.0847857
0.0796502
0.0745158
0.0693846
0.0642589
0.184852
0.177999
0.172654
0.167823
0.162767
0.157684
0.152604
0.147504
0.142386
0.137252
0.132102
0.126937
0.121759
0.116567
0.111364
0.106151
0.10093
0.095702
0.0904699
0.0852354
0.0800006
0.0747675
0.0695387
0.0643163
0.18746
0.180318
0.174891
0.169963
0.164792
0.159604
0.154418
0.149212
0.143989
0.13875
0.133495
0.128225
0.122941
0.117645
0.112338
0.107021
0.101697
0.0963667
0.0910325
0.0856965
0.080361
0.0750281
0.0697002
0.0643797
0.182657
0.177155
0.172127
0.166842
0.161548
0.156256
0.150944
0.145615
0.14027
0.134909
0.129533
0.124144
0.118742
0.11333
0.107908
0.102479
0.0970451
0.0916075
0.0861689
0.0807313
0.0752972
0.069869
0.0644492
0.179444
0.174315
0.168914
0.163515
0.158117
0.152698
0.147262
0.141811
0.136343
0.130861
0.125365
0.119857
0.114338
0.108811
0.103276
0.0977369
0.0921947
0.086652
0.0811112
0.0755747
0.0700449
0.0645245
0.176523
0.171007
0.165504
0.159999
0.154473
0.148931
0.143372
0.137797
0.132208
0.126605
0.120989
0.115363
0.109728
0.104087
0.0984415
0.0927936
0.0871458
0.0815005
0.0758603
0.0702278
0.0646057
0.173119
0.167511
0.161901
0.156268
0.150619
0.144953
0.13927
0.133573
0.127861
0.122138
0.116403
0.110661
0.104912
0.0991586
0.0934038
0.0876496
0.0818988
0.0761538
0.0704174
0.0646924
0.169537
0.16382
0.158081
0.152325
0.146551
0.140761
0.134955
0.129134
0.123302
0.117458
0.111607
0.105749
0.0998876
0.0940248
0.0881633
0.0823057
0.0764549
0.0706135
0.0647845
0.165756
0.159911
0.154048
0.148166
0.142268
0.136352
0.130423
0.12448
0.118527
0.112566
0.106599
0.100628
0.0946561
0.0886862
0.082721
0.0767632
0.0708159
0.0648819
0.161755
0.155786
0.149797
0.143789
0.137765
0.131726
0.125673
0.11961
0.113538
0.10746
0.101379
0.0952971
0.0892179
0.0831441
0.0770785
0.0710242
0.0649842
0.151442
0.145326
0.139192
0.133042
0.126879
0.120704
0.114521
0.108332
0.10214
0.0959474
0.0897581
0.0835747
0.0774004
0.0712383
0.0650915
0.146875
0.140632
0.134371
0.128097
0.12181
0.115515
0.109214
0.10291
0.0966066
0.0903063
0.0840126
0.0777287
0.0714578
0.0652034
0.148433
0.14208
0.135709
0.129323
0.122925
0.116517
0.110104
0.103688
0.0972723
0.0908605
0.0844559
0.0780618
0.0716817
0.065319
0.143529
0.137049
0.130552
0.124042
0.117523
0.110998
0.104469
0.0979417
0.0914183
0.0849025
0.078398
0.0719083
0.065437
0.138413
0.131805
0.125182
0.11855
0.11191
0.105268
0.0986271
0.0919903
0.0853618
0.0787453
0.0721444
0.0655629
0.133144
0.126401
0.119647
0.112887
0.106124
0.0993633
0.0926075
0.0858609
0.0791273
0.0724106
0.0657148
0.127557
0.12069
0.113815
0.106939
0.100064
0.0931958
0.086337
0.0794921
0.072665
0.0658598
0.12107
0.11415
0.107224
0.100296
0.0933706
0.0864519
0.0795441
0.0726514
0.0657779
)
;

boundaryField
{
    inlet
    {
        type            zeroGradient;
    }
    outlet
    {
        type            fixedValue;
        value           nonuniform 0();
    }
    cylinder
    {
        type            zeroGradient;
    }
    top
    {
        type            symmetryPlane;
    }
    bottom
    {
        type            symmetryPlane;
    }
    defaultFaces
    {
        type            empty;
    }
    procBoundary0to1
    {
        type            processor;
        value           nonuniform List<scalar> 
52
(
0.066882
0.0670104
0.0671121
0.0671966
0.0672711
0.0673353
0.0673353
0.0646003
0.06462
0.06463
0.0646313
0.0646249
0.0646119
0.0645931
0.0645693
0.0645413
0.0645099
0.0644758
0.0644396
0.0644021
0.0643637
0.064325
0.0642867
0.0642492
0.064213
0.0641786
0.0641464
0.0641168
0.0640903
0.0640672
0.0640478
0.0640326
0.0640217
0.0640156
0.0640145
0.0640185
0.064028
0.0640431
0.064064
0.0640908
0.0641237
0.0641626
0.0641626
0.0591843
0.0591412
0.0591028
0.0590692
0.0590404
0.0590162
0.0589966
0.0589815
0.0589708
)
;
    }
    procBoundary0to4
    {
        type            processor;
        value           nonuniform List<scalar> 
68
(
0.12538
0.118135
0.110868
0.103586
0.103586
0.0880474
0.0804659
0.0729011
0.237289
0.237309
0.237412
0.237539
0.237716
0.23791
0.238124
0.238335
0.238532
0.238694
0.238801
0.238825
0.23874
0.238515
0.238117
0.237509
0.236656
0.23552
0.234066
0.232256
0.230064
0.227449
0.22441
0.220884
0.216956
0.212412
0.207743
0.20179
0.197632
0.186933
0.190103
0.190103
0.185013
0.185013
0.181755
0.181755
0.178749
0.178749
0.175247
0.175247
0.171578
0.171578
0.167705
0.167705
0.163613
0.157538
0.157538
0.1531
0.1531
0.154766
0.149991
0.149991
0.145005
0.145005
0.139874
0.139874
0.134415
0.134415
0.12798
0.12798
)
;
    }
    procBoundary0to5
    {
        type            processor;
        value           nonuniform List<scalar> 
13
(
0.0653581
0.0671354
0.0671354
0.0589642
0.0589618
0.0589633
0.0589687
0.0589772
0.0589877
0.0590045
0.0590436
0.0590803
0.0589279
)
;
    }
}


// ************************************************************************* //
