/*--------------------------------*- C++ -*----------------------------------*\
  =========                 |
  \\      /  F ield         | OpenFOAM: The Open Source CFD Toolbox
   \\    /   O peration     | Website:  https://openfoam.org
    \\  /    A nd           | Version:  7
     \\/     M anipulation  |
\*---------------------------------------------------------------------------*/
FoamFile
{
    version     2.0;
    format      ascii;
    class       surfaceScalarField;
    location    "10";
    object      phi;
}
// * * * * * * * * * * * * * * * * * * * * * * * * * * * * * * * * * * * * * //

dimensions      [0 3 -1 0 0 0 0];

internalField   nonuniform List<scalar> 
5132
(
-0.0299062
-0.00188363
-0.0296417
-0.00201559
-0.00187274
-0.0293686
-0.00214579
-0.0290873
-0.00227426
-0.0287979
-0.00240101
-0.0285006
-0.00252605
-0.0281956
-0.00264942
-0.0278831
-0.00277113
-0.0275633
-0.00289121
-0.0272362
-0.00300967
-0.0269019
-0.00312653
-0.00324182
0.00150285
-0.00363845
0.00145522
-0.00353077
0.00140906
-0.00342158
0.0013644
-0.00331089
0.00132125
-0.00319867
0.00127964
-0.00308492
0.00123958
-0.00296961
0.0012011
-0.00285273
0.00116422
-0.00273425
0.00112896
-0.00261416
0.00109534
-0.00249244
0.00106338
-0.00236905
0.00103312
-0.00224399
0.00100456
-0.00211724
0.000977743
-0.00198876
-0.00185857
0.0015133
-0.003589
0.00146532
-0.00348279
0.00141882
-0.00337509
0.00137383
-0.0032659
0.00133037
-0.00315521
0.00128846
-0.00304301
0.00124811
-0.00292926
0.00120936
-0.00281397
0.00117222
-0.00269711
0.0011367
-0.00257865
0.00110285
-0.00245858
0.00107067
-0.00233687
0.00104019
-0.00221351
0.00101143
-0.00208848
0.000984422
-0.00196175
-0.00183333
0.00157365
-0.00364248
0.00152384
-0.00353919
0.0014755
-0.00343445
0.00142867
-0.00332825
0.00138335
-0.00322058
0.00133957
-0.00311143
0.00129735
-0.00300079
0.00125672
-0.00288863
0.00121768
-0.00277494
0.00118027
-0.0026597
0.00114451
-0.00254289
0.00111041
-0.00242448
0.00107801
-0.00230447
0.00104731
-0.00218282
0.00101835
-0.00205952
0.000991149
-0.00193455
-0.00180791
0.00158465
-0.00359082
0.00153447
-0.00348901
0.00148577
-0.00338576
0.00143859
-0.00328107
0.00139294
-0.00317494
0.00134885
-0.00306734
0.00130632
-0.00295826
0.00126539
-0.0028477
0.00122608
-0.00273562
0.0011884
-0.00262202
0.00115238
-0.00250687
0.00111804
-0.00239014
0.0010854
-0.00227183
0.00105449
-0.0021519
0.00102532
-0.00203035
0.000997926
-0.00190716
-0.00178231
0.00159576
-0.00353878
0.0015452
-0.00343845
0.00149615
-0.0033367
0.00144862
-0.00323354
0.00140263
-0.00312895
0.00135821
-0.00302292
0.00131537
-0.00291543
0.00127415
-0.00280647
0.00123455
-0.00269602
0.00119659
-0.00258407
0.00116031
-0.00247059
0.00112573
-0.00235555
0.00109285
-0.00223895
0.00106172
-0.00212077
0.00103235
-0.00200098
0.00100476
-0.00187957
-0.00175653
0.00165942
-0.00358379
0.00160698
-0.00348634
0.00155604
-0.00338751
0.00150662
-0.00328728
0.00145873
-0.00318566
0.0014124
-0.00308262
0.00136766
-0.00297817
0.00132451
-0.00287228
0.00128298
-0.00276494
0.00124309
-0.00265613
0.00120486
-0.00254584
0.00116832
-0.00243404
0.00113348
-0.00232072
0.00110037
-0.00220584
0.00106901
-0.00208941
0.00103943
-0.0019714
0.00101164
-0.00185179
-0.00173057
0.00167114
-0.00352946
0.0016183
-0.00343351
0.00156698
-0.00333618
0.00151718
-0.00323749
0.00146894
-0.00313741
0.00142227
-0.00303595
0.00137718
-0.00293309
0.00133372
-0.00282881
0.00129188
-0.00272311
0.0012517
-0.00261595
0.00121319
-0.00250734
0.00117638
-0.00239723
0.00114129
-0.00228563
0.00110794
-0.0021725
0.00107636
-0.00205783
0.00104656
-0.0019416
0.00101858
-0.0018238
-0.00170442
0.00173771
-0.00356782
0.00168296
-0.00347472
0.00162973
-0.00338027
0.00157801
-0.00328447
0.00152784
-0.00318732
0.00147923
-0.00308881
0.00143221
-0.00298893
0.0013868
-0.00288767
0.00134301
-0.00278502
0.00130086
-0.00268096
0.00126039
-0.00257548
0.0012216
-0.00246855
0.00118452
-0.00236015
0.00114917
-0.00225028
0.00111558
-0.0021389
0.00108377
-0.00202601
0.00105375
-0.00191158
0.00102557
-0.00179561
-0.00167808
0.00175006
-0.00351116
0.0016949
-0.00341956
0.00164125
-0.00332662
0.00158914
-0.00323236
0.00153859
-0.00313677
0.00148962
-0.00303983
0.00144225
-0.00294156
0.00139649
-0.00284192
0.00135238
-0.00274091
0.00130992
-0.00263851
0.00126915
-0.0025347
0.00123007
-0.00242947
0.00119272
-0.0023228
0.00115712
-0.00221467
0.00112328
-0.00210507
0.00109123
-0.00199396
0.001061
-0.00188135
0.00103261
-0.00176722
-0.00165155
0.00181961
-0.00354285
0.00176251
-0.00345407
0.00170693
-0.00336397
0.00165287
-0.00327257
0.00160037
-0.00317986
0.00154944
-0.00308583
0.0015001
-0.00299049
0.00145237
-0.00289383
0.00140627
-0.00279582
0.00136183
-0.00269646
0.00131906
-0.00259573
0.00127798
-0.00249362
0.00123862
-0.00239011
0.00120099
-0.00228518
0.00116512
-0.00217881
0.00113104
-0.00207098
0.00109876
-0.00196168
0.00106831
-0.0018509
0.00103971
-0.00173862
-0.00162483
0.00183261
-0.00348381
0.00177507
-0.00339653
0.00171906
-0.00330796
0.0016646
-0.0032181
0.00161169
-0.00312696
0.00156038
-0.00303452
0.00151066
-0.00294078
0.00146258
-0.00284574
0.00141613
-0.00274938
0.00137136
-0.00265168
0.00132827
-0.00255264
0.00128688
-0.00245224
0.00124723
-0.00235046
0.00120933
-0.00224727
0.0011732
-0.00214268
0.00113886
-0.00203665
0.00110634
-0.00192917
0.00107567
-0.00182023
0.00104686
-0.00170981
-0.00159791
0.00190521
-0.0035088
0.00184571
-0.00342431
0.00178774
-0.00333855
0.0017313
-0.00325152
0.00167642
-0.00316322
0.00162311
-0.00307365
0.00157141
-0.00298281
0.00152132
-0.00289069
0.00147287
-0.00279729
0.00142608
-0.00270259
0.00138097
-0.00260657
0.00133756
-0.00250923
0.00129586
-0.00241055
0.00125592
-0.00231051
0.00121773
-0.00220909
0.00118133
-0.00210628
0.00114675
-0.00200206
0.00111399
-0.00189641
0.00108309
-0.00178933
0.00105407
-0.00168079
-0.0015708
0.00191887
-0.00344734
0.00185892
-0.00336436
0.0018005
-0.00328013
0.00174363
-0.00319465
0.00168833
-0.00310792
0.00163462
-0.00301994
0.00158253
-0.00293072
0.00153206
-0.00284023
0.00148325
-0.00274848
0.0014361
-0.00265544
0.00139066
-0.00256112
0.00134692
-0.0024655
0.00130492
-0.00236855
0.00126467
-0.00227026
0.0012262
-0.00217062
0.00118954
-0.00206961
0.00115469
-0.00196721
0.00112169
-0.00186341
0.00109057
-0.0017582
0.00106133
-0.00165156
-0.00154348
0.00199456
-0.00346559
0.00193263
-0.00338541
0.00187223
-0.00330396
0.00181336
-0.00322127
0.00175606
-0.00313735
0.00170034
-0.0030522
0.00164623
-0.00296583
0.00159374
-0.00287822
0.00154289
-0.00278938
0.00149371
-0.00269929
0.00144621
-0.00260795
0.00140042
-0.00251533
0.00135636
-0.00242143
0.00131404
-0.00232623
0.0012735
-0.00222972
0.00123474
-0.00213187
0.0011978
-0.00203267
0.0011627
-0.00193211
0.00112946
-0.00183017
0.0010981
-0.00172684
0.00106865
-0.00162211
-0.00151597
0.0020089
-0.00340169
0.0019465
-0.00332301
0.00188564
-0.00324309
0.00182632
-0.00316196
0.00176859
-0.00307961
0.00171245
-0.00299606
0.00165793
-0.00291131
0.00160504
-0.00282534
0.00155381
-0.00273815
0.00150426
-0.00264974
0.0014564
-0.00256009
0.00141027
-0.0024692
0.00136588
-0.00237704
0.00132324
-0.0022836
0.0012824
-0.00218887
0.00124335
-0.00209283
0.00120614
-0.00199546
0.00117077
-0.00189675
0.00113729
-0.00179668
0.00110569
-0.00169525
0.00107603
-0.00159244
-0.00148825
0.00208772
-0.00341327
0.00202334
-0.0033373
0.00196047
-0.00326014
0.00189914
-0.00318177
0.00183938
-0.0031022
0.00178121
-0.00302144
0.00172465
-0.0029395
0.00166971
-0.00285637
0.00161643
-0.00277205
0.00156481
-0.00268654
0.00151489
-0.00259982
0.00146668
-0.00251188
0.0014202
-0.00242272
0.00137547
-0.00233231
0.00133252
-0.00224065
0.00129136
-0.00214771
0.00125203
-0.00205349
0.00121454
-0.00195796
0.00117891
-0.00186112
0.00114517
-0.00176294
0.00111335
-0.00166343
0.00108346
-0.00156255
-0.00146032
0.00210275
-0.00334689
0.00203788
-0.00327243
0.00197454
-0.0031968
0.00191275
-0.00311998
0.00185254
-0.00304199
0.00179393
-0.00296283
0.00173694
-0.00288251
0.00168159
-0.00280102
0.00162791
-0.00271837
0.0015759
-0.00263453
0.0015256
-0.00254952
0.00147703
-0.00246331
0.0014302
-0.00237589
0.00138514
-0.00228725
0.00134187
-0.00219738
0.0013004
-0.00210625
0.00126078
-0.00201386
0.001223
-0.00192019
0.00118711
-0.00182523
0.00115312
-0.00172895
0.00112106
-0.00163136
0.00109095
-0.00153245
-0.00143219
0.00218474
-0.00335167
0.00211787
-0.00328002
0.00205252
-0.00320707
0.00198871
-0.00313299
0.00192646
-0.00305773
0.0018658
-0.00298133
0.00180675
-0.00290378
0.00174933
-0.00282509
0.00169357
-0.00274526
0.00163948
-0.00266428
0.00158708
-0.00258214
0.0015364
-0.00249884
0.00148747
-0.00241437
0.00144028
-0.00232871
0.00139488
-0.00224185
0.00135129
-0.00215378
0.00130951
-0.00206448
0.00126959
-0.00197394
0.00123153
-0.00188214
0.00119537
-0.00178907
0.00116113
-0.00169471
0.00112883
-0.00159906
0.0010985
-0.00150211
-0.00140385
0.00226933
-0.00335209
0.00220047
-0.00328281
0.0021331
-0.00321266
0.00206726
-0.00314123
0.00200297
-0.0030687
0.00194026
-0.00299502
0.00187915
-0.00292022
0.00181966
-0.00284429
0.00176181
-0.00276725
0.00170563
-0.00268908
0.00165113
-0.00260978
0.00159835
-0.00252935
0.00154729
-0.00244778
0.00149798
-0.00236506
0.00145045
-0.00228117
0.00140471
-0.00219611
0.00136078
-0.00210986
0.0013187
-0.00202239
0.00127847
-0.00193371
0.00124013
-0.0018438
0.0012037
-0.00175263
0.0011692
-0.00166021
0.00113666
-0.00156652
0.0011061
-0.00147155
-0.0013753
0.00228566
-0.00328123
0.00221629
-0.00321345
0.00214843
-0.00314479
0.0020821
-0.00307491
0.00201734
-0.00300394
0.00195416
-0.00293184
0.0018926
-0.00285865
0.00183266
-0.00278436
0.00177438
-0.00270897
0.00171778
-0.00263247
0.00166288
-0.00255488
0.0016097
-0.00247617
0.00155826
-0.00239634
0.00150858
-0.00231538
0.00146069
-0.00223328
0.00141461
-0.00215003
0.00137035
-0.0020656
0.00132795
-0.00197999
0.00128743
-0.00189319
0.0012488
-0.00180517
0.00121209
-0.00171593
0.00117734
-0.00162545
0.00114455
-0.00153373
0.00111376
-0.00144076
-0.00134653
0.00237348
-0.00327428
-0.00244628
0.0023021
-0.00320985
0.00223223
-0.00314357
0.00216386
-0.00307643
0.00209705
-0.00300809
0.00203181
-0.00293869
0.00196816
-0.0028682
0.00190614
-0.00279663
0.00184576
-0.00272398
0.00178705
-0.00265025
0.00173002
-0.00257545
0.00167471
-0.00249957
0.00162113
-0.00242259
0.00156931
-0.00234452
0.00151926
-0.00226534
0.00147101
-0.00218503
0.00142458
-0.0021036
0.00138
-0.00202102
0.00133728
-0.00193727
0.00129645
-0.00185236
0.00125753
-0.00176625
0.00122055
-0.00167895
0.00118553
-0.00159044
0.0011525
-0.0015007
0.00112148
-0.00140974
-0.00131755
0.00239055
-0.00320095
-0.00246388
0.00231865
-0.00313795
0.00224826
-0.00307319
0.0021794
-0.00300757
0.00211209
-0.00294079
0.00204637
-0.00287297
0.00198226
-0.00280409
0.00191978
-0.00273415
0.00185895
-0.00266315
0.0017998
-0.00259111
0.00174236
-0.00251801
0.00168663
-0.00244384
0.00163265
-0.00236861
0.00158044
-0.00229231
0.00153002
-0.00221491
0.00148141
-0.00213642
0.00143463
-0.00205682
0.00138972
-0.0019761
0.00134668
-0.00189423
0.00130554
-0.00181122
0.00126633
-0.00172704
0.00122907
-0.00164169
0.00119379
-0.00155515
0.00116051
-0.00146742
0.00112926
-0.00137849
-0.00128835
0.00240772
-0.00312708
-0.0024816
0.0023353
-0.00306553
0.0022644
-0.00300229
0.00219503
-0.0029382
0.00212724
-0.00287299
0.00206104
-0.00280677
0.00199645
-0.0027395
0.00193351
-0.00267121
0.00187224
-0.00260188
0.00181265
-0.00253152
0.00175478
-0.00246013
0.00169864
-0.00238771
0.00164426
-0.00231423
0.00159166
-0.00223971
0.00154086
-0.00216412
0.00149189
-0.00208745
0.00144476
-0.0020097
0.00139951
-0.00193084
0.00135615
-0.00185087
0.0013147
-0.00176978
0.0012752
-0.00168754
0.00123766
-0.00160416
0.00120211
-0.00151961
0.00116858
-0.00143389
0.0011371
-0.001347
-0.00125893
0.00242501
-0.00305267
-0.00249942
0.00235206
-0.00299257
0.00228064
-0.00293087
0.00221077
-0.00286833
0.00214248
-0.0028047
0.0020758
-0.00274008
0.00201074
-0.00267444
0.00194734
-0.0026078
0.00188561
-0.00254015
0.00182559
-0.0024715
0.00176729
-0.00240183
0.00171074
-0.00233115
0.00165596
-0.00225945
0.00160296
-0.00218672
0.00155179
-0.00211294
0.00150245
-0.00203811
0.00145497
-0.00196222
0.00140938
-0.00188525
0.00136569
-0.00180719
0.00132393
-0.00172802
0.00128413
-0.00164774
0.00124631
-0.00156634
0.0012105
-0.00148379
0.00117672
-0.00140011
0.00114499
-0.00131528
-0.00122929
0.0024424
-0.00297772
-0.00251735
0.00236892
-0.0029191
0.00229699
-0.00285894
0.00222662
-0.00279796
0.00215783
-0.00273592
0.00209066
-0.00267291
0.00202513
-0.00260891
0.00196126
-0.00254394
0.00189909
-0.00247798
0.00183862
-0.00241103
0.00177989
-0.0023431
0.00172292
-0.00227418
0.00166773
-0.00220426
0.00161435
-0.00213333
0.00156279
-0.00206138
0.00151309
-0.0019884
0.00146525
-0.00191439
0.00141932
-0.00183931
0.0013753
-0.00176317
0.00133323
-0.00168595
0.00129314
-0.00160764
0.00125503
-0.00152823
0.00121895
-0.00144771
0.00118491
-0.00136607
0.00115295
-0.00128331
-0.00119943
0.0024599
-0.00290222
-0.0025354
0.0023859
-0.00284509
0.00231344
-0.00278649
0.00224256
-0.00272707
0.00217328
-0.00266664
0.00210562
-0.00260525
0.00203961
-0.00254291
0.00197528
-0.00247961
0.00191265
-0.00241535
0.00185175
-0.00235013
0.00179259
-0.00228394
0.0017352
-0.00221679
0.0016796
-0.00214866
0.00162582
-0.00207955
0.00157388
-0.00200944
0.0015238
-0.00193833
0.00147561
-0.0018662
0.00142933
-0.00179303
0.00138499
-0.00171883
0.00134261
-0.00164357
0.00130221
-0.00156724
0.00126382
-0.00148984
0.00122746
-0.00141136
0.00119317
-0.00133178
0.00116097
-0.00125111
-0.00116934
0.00247752
-0.00282618
-0.00255355
0.00240298
-0.00277055
0.00233
-0.00271352
0.00225861
-0.00265568
0.00218883
-0.00259685
0.00212068
-0.00253711
0.0020542
-0.00247642
0.0019894
-0.00241481
0.00192631
-0.00235226
0.00186496
-0.00228877
0.00180537
-0.00222435
0.00174756
-0.00215898
0.00169155
-0.00209266
0.00163737
-0.00202537
0.00158505
-0.00195712
0.0015346
-0.00188788
0.00148605
-0.00181765
0.00143943
-0.00174641
0.00139475
-0.00167415
0.00135205
-0.00160087
0.00131135
-0.00152654
0.00127267
-0.00145116
0.00123604
-0.00137473
0.00120149
-0.00129723
0.00116904
-0.00121866
-0.00113902
0.00249524
-0.0027496
-0.00257182
0.00242016
-0.00269547
0.00234667
-0.00264002
0.00227476
-0.00258377
0.00220448
-0.00252657
0.00213584
-0.00246847
0.00206888
-0.00240946
0.00200361
-0.00234954
0.00194007
-0.00228871
0.00187827
-0.00222698
0.00181824
-0.00216432
0.00176
-0.00210075
0.00170359
-0.00203624
0.00164901
-0.0019708
0.0015963
-0.00190441
0.00154547
-0.00183706
0.00149657
-0.00176874
0.00144959
-0.00169944
0.00140458
-0.00162914
0.00136156
-0.00155785
0.00132056
-0.00148553
0.00128159
-0.0014122
0.00124468
-0.00133783
0.00120987
-0.00126242
0.00117718
-0.00118597
-0.00110848
0.00251307
-0.00267246
-0.0025902
0.00243746
-0.00261986
0.00236344
-0.002566
0.00229102
-0.00251135
0.00222023
-0.00245578
0.0021511
-0.00239934
0.00208366
-0.00234201
0.00201792
-0.0022838
0.00195392
-0.00222471
0.00189167
-0.00216473
0.0018312
-0.00210385
0.00177254
-0.00204208
0.00171571
-0.00197941
0.00166073
-0.00191582
0.00160763
-0.00185131
0.00155643
-0.00178586
0.00150716
-0.00171947
0.00145984
-0.00165212
0.00141449
-0.0015838
0.00137115
-0.0015145
0.00132983
-0.00144422
0.00129057
-0.00137293
0.00125339
-0.00130064
0.00121832
-0.00122735
0.00118538
-0.00115303
-0.0010777
0.00253101
-0.00259478
-0.00260869
0.00245486
-0.00254372
0.00238031
-0.00249145
0.00230738
-0.00243842
0.00223609
-0.00238449
0.00216646
-0.00232972
0.00209854
-0.00227408
0.00203232
-0.00221759
0.00196786
-0.00216024
0.00190516
-0.00210203
0.00184425
-0.00204295
0.00178516
-0.001983
0.00172792
-0.00192216
0.00167254
-0.00186044
0.00161904
-0.00179781
0.00156747
-0.00173428
0.00151783
-0.00166983
0.00147015
-0.00160444
0.00142447
-0.00153811
0.0013808
-0.00147083
0.00133918
-0.00140259
0.00129962
-0.00133338
0.00126216
-0.00126318
0.00122682
-0.00119201
0.00119363
-0.00111984
-0.00104669
0.00254906
-0.00251654
-0.0026273
0.00247238
-0.00246703
0.0023973
-0.00241638
0.00232385
-0.00236497
0.00225205
-0.00231269
0.00218193
-0.0022596
0.00211351
-0.00220567
0.00204683
-0.00215091
0.0019819
-0.00209531
0.00191874
-0.00203888
0.0018574
-0.0019816
0.00179788
-0.00192348
0.00174021
-0.0018645
0.00168442
-0.00180465
0.00163054
-0.00174393
0.00157858
-0.00168232
0.00152858
-0.00161982
0.00148055
-0.00155641
0.00143452
-0.00149209
0.00139053
-0.00142684
0.00134859
-0.00136065
0.00130874
-0.00129352
0.001271
-0.00122544
0.00123539
-0.0011564
0.00120195
-0.0010864
-0.00101545
0.00256722
-0.00243776
-0.00264601
0.00249
-0.00238981
0.00241439
-0.00234077
0.00234042
-0.00229099
0.00226811
-0.00224039
0.00219749
-0.00218898
0.00212859
-0.00213677
0.00206143
-0.00208375
0.00199603
-0.00202992
0.00193242
-0.00197527
0.00187063
-0.00191981
0.00181068
-0.00186353
0.00175259
-0.00180641
0.0016964
-0.00174845
0.00164212
-0.00168965
0.00158978
-0.00162998
0.0015394
-0.00156945
0.00149102
-0.00150803
0.00144465
-0.00144573
0.00140033
-0.00138252
0.00135808
-0.0013184
0.00131793
-0.00125337
0.0012799
-0.00118741
0.00124403
-0.00112053
0.00121034
-0.00105271
-0.000983967
0.0025855
-0.00235841
-0.00266484
0.00250773
-0.00231204
0.00243159
-0.00226463
0.0023571
-0.0022165
0.00228428
-0.00216757
0.00221316
-0.00211786
0.00214376
-0.00206737
0.00207612
-0.0020161
0.00201026
-0.00196405
0.00194619
-0.00191121
0.00188396
-0.00185757
0.00182357
-0.00180314
0.00176506
-0.0017479
0.00170846
-0.00169185
0.00165378
-0.00163497
0.00160105
-0.00157726
0.0015503
-0.0015187
0.00150156
-0.00145929
0.00145485
-0.00139901
0.0014102
-0.00133787
0.00136763
-0.00127584
0.00132718
-0.00121292
0.00128887
-0.0011491
0.00125272
-0.00108439
0.00121878
-0.00101877
0.00260389
-0.00227851
-0.00268379
0.00252557
-0.00223372
0.0024489
-0.00218795
0.00237388
-0.00214148
0.00230055
-0.00209423
0.00222892
-0.00204624
0.00215904
-0.00199749
0.00209092
-0.00194798
0.00202458
-0.00189771
0.00196006
-0.00184669
0.00189737
-0.00179489
0.00183655
-0.00174232
0.00177762
-0.00168897
0.0017206
-0.00163483
0.00166552
-0.00157989
0.00161241
-0.00152414
0.00156129
-0.00146758
0.00151218
-0.00141019
0.00146513
-0.00135196
0.00142014
-0.00129288
0.00137726
-0.00123295
0.0013365
-0.00117216
0.0012979
-0.0011105
0.00126148
-0.00104797
-0.000984568
0.00262239
-0.00219805
-0.00270285
0.00254353
-0.00215486
0.00246632
-0.00211074
0.00239077
-0.00206593
0.00231692
-0.00202039
0.00224479
-0.00197411
0.00217441
-0.00192711
0.00210581
-0.00187937
0.002039
-0.00183091
0.00197402
-0.0017817
0.00191088
-0.00173176
0.00184962
-0.00168106
0.00179026
-0.00162961
0.00173283
-0.00157739
0.00167735
-0.00152441
0.00162384
-0.00147064
0.00157235
-0.00141608
0.00152288
-0.00136072
0.00147547
-0.00130455
0.00143016
-0.00124756
0.00138695
-0.00118975
0.00134589
-0.0011311
0.001307
-0.00107161
0.00127031
-0.00101128
-0.000950109
0.002641
-0.00211703
-0.00272202
0.00256159
-0.00207545
0.00248384
-0.00203299
0.00240777
-0.00198986
0.0023334
-0.00194602
0.00226077
-0.00190148
0.00218989
-0.00185623
0.0021208
-0.00181028
0.00205352
-0.00176362
0.00198807
-0.00171625
0.00192448
-0.00166817
0.00186278
-0.00161936
0.00180299
-0.00156982
0.00174514
-0.00151954
0.00168926
-0.00146852
0.00163536
-0.00141674
0.00158349
-0.0013642
0.00153366
-0.00131089
0.0014859
-0.00125679
0.00144024
-0.00120191
0.00139671
-0.00114622
0.00135535
-0.00108973
0.00131617
-0.00103243
0.0012792
-0.000974318
-0.00091539
0.00265973
-0.00203545
-0.00274131
0.00257977
-0.00199549
0.00250148
-0.0019547
0.00242487
-0.00191326
0.00234999
-0.00187113
0.00227684
-0.00182833
0.00220547
-0.00178486
0.00213589
-0.0017407
0.00206813
-0.00169586
0.00200222
-0.00165034
0.00193817
-0.00160413
0.00187603
-0.00155722
0.00181581
-0.0015096
0.00175754
-0.00146127
0.00170125
-0.00141223
0.00164696
-0.00136246
0.0015947
-0.00131195
0.00154451
-0.00126069
0.0014964
-0.00120868
0.0014504
-0.00115591
0.00140655
-0.00110237
0.00136487
-0.00104805
0.0013254
-0.000992956
0.00128816
-0.000937075
-0.000880409
0.00267857
-0.00195331
-0.00276072
0.00259806
-0.00191498
0.00251922
-0.00187586
0.00244209
-0.00183612
0.00236668
-0.00179572
0.00229303
-0.00175468
0.00222115
-0.00171298
0.00215108
-0.00167063
0.00208284
-0.00162762
0.00201646
-0.00158396
0.00195196
-0.00153963
0.00188937
-0.00149463
0.00182872
-0.00144895
0.00177003
-0.00140258
0.00171332
-0.00135553
0.00165864
-0.00130777
0.001606
-0.00125931
0.00155543
-0.00121013
0.00150697
-0.00116022
0.00146063
-0.00110958
0.00141646
-0.00105819
0.00137447
-0.00100606
0.0013347
-0.000953186
0.00129718
-0.000899553
-0.000845166
0.00269753
-0.00187059
-0.00278024
0.00261646
-0.00183391
0.00253708
-0.00179648
0.00245941
-0.00175845
0.00238348
-0.00171979
0.00230931
-0.00168051
0.00223693
-0.0016406
0.00216637
-0.00160007
0.00209765
-0.0015589
0.0020308
-0.00151711
0.00196584
-0.00147467
0.0019028
-0.00143159
0.00184171
-0.00138786
0.0017826
-0.00134347
0.00172548
-0.00129842
0.0016704
-0.00125269
0.00161738
-0.00120628
0.00156644
-0.00115919
0.00151762
-0.00111139
0.00147094
-0.0010629
0.00142643
-0.00101369
0.00138413
-0.000963764
0.00134406
-0.000913118
0.00130626
-0.00086175
-0.000809657
0.0027166
-0.00178732
-0.00279988
0.00263498
-0.00175229
0.00255505
-0.00171656
0.00247685
-0.00168025
0.00240039
-0.00164333
0.0023257
-0.00160583
0.00225282
-0.00156772
0.00218176
-0.00152901
0.00211255
-0.0014897
0.00204523
-0.00144978
0.00197981
-0.00140925
0.00191632
-0.0013681
0.00185479
-0.00132633
0.00179525
-0.00128393
0.00173773
-0.00124089
0.00168224
-0.00119721
0.00162883
-0.00115287
0.00157752
-0.00110788
0.00152834
-0.00106221
0.00148131
-0.00101587
0.00143648
-0.000968853
0.00139386
-0.000921148
0.0013535
-0.000872752
0.00131541
-0.000823663
-0.000773882
0.00273579
-0.00170347
-0.00281963
0.00265361
-0.00167011
0.00257313
-0.00163608
0.00249439
-0.0016015
0.0024174
-0.00156635
0.0023422
-0.00153062
0.00226881
-0.00149433
0.00219725
-0.00145745
0.00212756
-0.00142001
0.00205976
-0.00138198
0.00199387
-0.00134336
0.00192993
-0.00130416
0.00186797
-0.00126436
0.001808
-0.00122396
0.00175005
-0.00118295
0.00169417
-0.00114132
0.00164037
-0.00109907
0.00158868
-0.00105619
0.00153914
-0.00101267
0.00149177
-0.000968502
0.0014466
-0.000923686
0.00140367
-0.000878215
0.001363
-0.000832084
0.00132463
-0.000785292
-0.000737838
0.00275509
-0.00161905
-0.00283951
0.00267235
-0.00158737
0.00259133
-0.00155506
0.00251204
-0.00152222
0.00243452
-0.00148883
0.0023588
-0.0014549
0.0022849
-0.00142042
0.00221284
-0.0013854
0.00214266
-0.00134983
0.00207438
-0.0013137
0.00200803
-0.00127701
0.00194364
-0.00123977
0.00188123
-0.00120195
0.00182083
-0.00116356
0.00176247
-0.00112459
0.00170618
-0.00108503
0.00165198
-0.00104488
0.00159992
-0.00100412
0.00155001
-0.00096276
0.00150229
-0.000920783
0.00145679
-0.000878186
0.00141354
-0.000834964
0.00137257
-0.000791114
0.00133391
-0.000746634
-0.000701524
0.00277451
-0.00153406
-0.0028595
0.00269121
-0.00150407
0.00260963
-0.00147348
0.00252981
-0.00144239
0.00245176
-0.00141078
0.00237551
-0.00137865
0.00230109
-0.00134601
0.00222854
-0.00131284
0.00215786
-0.00127915
0.0020891
-0.00124494
0.00202228
-0.00121019
0.00195743
-0.00117491
0.00189457
-0.00113909
0.00183374
-0.00110273
0.00177496
-0.00106581
0.00171826
-0.00102833
0.00166368
-0.000990291
0.00161123
-0.000951678
0.00156096
-0.000912487
0.00151289
-0.000872712
0.00146705
-0.000832349
0.00142348
-0.000791392
0.00138221
-0.00074984
0.00134326
-0.000707688
-0.000664939
0.00279405
-0.0014485
-0.00287961
0.00271018
-0.0014202
0.00262805
-0.00139135
0.00254768
-0.00136202
0.0024691
-0.00133219
0.00239232
-0.00130188
0.00231739
-0.00127108
0.00224433
-0.00123978
0.00217317
-0.00120799
0.00210392
-0.0011757
0.00203663
-0.0011429
0.00197132
-0.0011096
0.00190801
-0.00107579
0.00184674
-0.00104146
0.00178754
-0.00100661
0.00173043
-0.000971224
0.00167545
-0.000935308
0.00162262
-0.000898851
0.00157198
-0.000861846
0.00152356
-0.000824289
0.00147739
-0.000786174
0.00143349
-0.000747499
0.00139191
-0.000708259
0.00135267
-0.000668452
-0.00062808
0.00281371
-0.00136236
-0.00289984
0.00272927
-0.00133577
0.00264659
-0.00130866
0.00256567
-0.0012811
0.00248654
-0.00125307
0.00240925
-0.00122458
0.0023338
-0.00119563
0.00226023
-0.00116621
0.00218857
-0.00113633
0.00211884
-0.00110597
0.00205107
-0.00107514
0.0019853
-0.00104383
0.00192154
-0.00101203
0.00185983
-0.000979752
0.00180021
-0.000946977
0.00174269
-0.000913704
0.00168731
-0.000879927
0.00163409
-0.000845639
0.00158308
-0.000810835
0.00153431
-0.000775511
0.00148779
-0.00073966
0.00144357
-0.000703281
0.00140168
-0.000666369
0.00136216
-0.000628925
-0.000590946
0.00283348
-0.00127565
-0.00292019
0.00274848
-0.00125077
0.00266523
-0.00122541
0.00258377
-0.00119963
0.0025041
-0.00117341
0.00242627
-0.00114675
0.00235031
-0.00111966
0.00227623
-0.00109213
0.00220407
-0.00106416
0.00213385
-0.00103575
0.00206561
-0.00100689
0.00199937
-0.000977585
0.00193516
-0.000947824
0.00187301
-0.000917605
0.00181296
-0.000886922
0.00175502
-0.00085577
0.00169924
-0.000824145
0.00164564
-0.000792041
0.00159426
-0.000759453
0.00154512
-0.000726375
0.00149827
-0.000692804
0.00145373
-0.000658737
0.00141153
-0.000624171
0.00137171
-0.000589104
-0.000553536
0.00285337
-0.00118836
-0.00294066
0.0027678
-0.0011652
0.002684
-0.00114161
0.00260198
-0.00111761
0.00252177
-0.0010932
0.00244341
-0.00106839
0.00236692
-0.00104317
0.00229233
-0.00101754
0.00221967
-0.0009915
0.00214896
-0.000965044
0.00208024
-0.000938171
0.00201353
-0.000910878
0.00194887
-0.00088316
0.00188628
-0.000855015
0.00182579
-0.000826436
0.00176744
-0.00079742
0.00171126
-0.000767961
0.00165727
-0.000738055
0.00160551
-0.000707696
0.00155602
-0.000676881
0.00150882
-0.000645605
0.00146395
-0.000613866
0.00142144
-0.00058166
0.00138132
-0.000548988
-0.000515848
0.00287338
-0.00110048
-0.00296126
0.00278724
-0.00107906
0.00270287
-0.00105724
0.0026203
-0.00103504
0.00253955
-0.00101246
0.00246066
-0.000989497
0.00238364
-0.000966157
0.00230853
-0.000942436
0.00223537
-0.000918332
0.00216417
-0.000893844
0.00209496
-0.000868967
0.00202778
-0.0008437
0.00196266
-0.000818039
0.00189963
-0.00079198
0.00183871
-0.000765518
0.00177994
-0.000738651
0.00172335
-0.000711372
0.00166897
-0.000683678
0.00161684
-0.000655564
0.00156699
-0.000627026
0.00151944
-0.000598061
0.00147424
-0.000568665
0.00143142
-0.000538837
0.00139101
-0.000508576
-0.000477881
0.00289351
-0.00101203
-0.00298197
0.0028068
-0.000992352
0.00272187
-0.000972303
0.00263874
-0.000951907
0.00255744
-0.00093116
0.00247801
-0.000910063
0.00240046
-0.000888614
0.00232484
-0.000866813
0.00225117
-0.000844658
0.00217947
-0.000822147
0.00210978
-0.000799278
0.00204213
-0.000776049
0.00197655
-0.000752457
0.00191306
-0.000728497
0.00185171
-0.000704166
0.00179252
-0.000679461
0.00173553
-0.000654376
0.00168076
-0.000628909
0.00162825
-0.000603054
0.00157803
-0.000576809
0.00153014
-0.000550169
0.00148461
-0.000523133
0.00144147
-0.000495699
0.00140076
-0.000467866
-0.000439633
0.00291376
-0.000922985
-0.0030028
0.00282647
-0.000905065
0.00274097
-0.000886802
0.00265729
-0.000868219
0.00257544
-0.000849315
0.00249547
-0.000830089
0.00241739
-0.00081054
0.00234125
-0.000790669
0.00226706
-0.000770473
0.00219487
-0.000749952
0.00212469
-0.000729103
0.00205657
-0.000707923
0.00199052
-0.000686412
0.00192659
-0.000664564
0.0018648
-0.000642377
0.00180519
-0.000619848
0.00174778
-0.000596971
0.00169262
-0.000573745
0.00163973
-0.000550164
0.00158915
-0.000526227
0.00154091
-0.000501929
0.00149504
-0.000477269
0.00145159
-0.000452245
0.00141058
-0.000426856
-0.000401103
0.00293413
-0.000833359
-0.00302376
0.00284627
-0.0008172
0.0027602
-0.000800731
0.00267595
-0.00078397
0.00259355
-0.000766918
0.00251303
-0.000749572
0.00243443
-0.000731933
0.00235776
-0.000714002
0.00228306
-0.000695776
0.00221037
-0.000677255
0.0021397
-0.000658437
0.0020711
-0.00063932
0.00200459
-0.000619902
0.0019402
-0.000600179
0.00187797
-0.000580149
0.00181793
-0.000559809
0.00176012
-0.000539155
0.00170456
-0.000518184
0.00165129
-0.000496893
0.00160034
-0.000475279
0.00155175
-0.000453338
0.00150555
-0.00043107
0.00146178
-0.000408473
0.00142047
-0.000385545
-0.000362289
0.00295462
-0.000743146
-0.00304483
0.00286618
-0.000728756
0.00277953
-0.000714089
0.00269472
-0.000699158
0.00261177
-0.000683965
0.00253071
-0.000668509
0.00245156
-0.000652791
0.00237437
-0.000636809
0.00229916
-0.000620564
0.00222596
-0.000604054
0.0021548
-0.000587279
0.00208572
-0.000570236
0.00201874
-0.000552924
0.0019539
-0.000535339
0.00189123
-0.00051748
0.00183076
-0.000499343
0.00177253
-0.000480926
0.00171658
-0.000462225
0.00166292
-0.000443238
0.0016116
-0.000423962
0.00156266
-0.000404395
0.00151613
-0.000384535
0.00147204
-0.000364381
0.00143042
-0.000343933
-0.000323189
0.00297523
-0.000652342
-0.00306603
0.0028862
-0.00063973
0.00279899
-0.000626872
0.00271361
-0.00061378
0.0026301
-0.000600455
0.00254849
-0.000586898
0.00246881
-0.000573109
0.00239108
-0.000559087
0.00231535
-0.000544834
0.00224165
-0.000530347
0.00216999
-0.000515626
0.00210043
-0.00050067
0.00203298
-0.000485476
0.00196768
-0.000470042
0.00190457
-0.000454367
0.00184367
-0.000438448
0.00178503
-0.000422281
0.00172867
-0.000405866
0.00167463
-0.000389198
0.00162294
-0.000372276
0.00157365
-0.000355099
0.00152678
-0.000337663
0.00148236
-0.000319969
0.00144045
-0.000302016
-0.000283804
0.00299596
-0.000560948
-0.00308736
0.00290635
-0.00055012
0.00281856
-0.000539078
0.00273261
-0.000527832
0.00264854
-0.000516384
0.00256638
-0.000504735
0.00248615
-0.000492885
0.0024079
-0.000480834
0.00233165
-0.000468583
0.00225743
-0.000456131
0.00218528
-0.000443476
0.00211523
-0.000430618
0.00204731
-0.000417555
0.00198155
-0.000404286
0.00191799
-0.000390809
0.00185667
-0.000377121
0.00179761
-0.00036322
0.00174084
-0.000349104
0.00168642
-0.000334771
0.00163436
-0.000320219
0.00158471
-0.000305447
0.0015375
-0.000290452
0.00149276
-0.000275235
0.00145054
-0.000259795
-0.000244132
0.00301681
-0.000468959
-0.0031088
0.00292661
-0.000459922
0.00283824
-0.000450704
0.00275172
-0.000441312
0.00266708