/*--------------------------------*- C++ -*----------------------------------*\
  =========                 |
  \\      /  F ield         | OpenFOAM: The Open Source CFD Toolbox
   \\    /   O peration     | Website:  https://openfoam.org
    \\  /    A nd           | Version:  7
     \\/     M anipulation  |
\*---------------------------------------------------------------------------*/
FoamFile
{
    version     2.0;
    format      ascii;
    class       volVectorField;
    location    "10";
    object      U;
}
// * * * * * * * * * * * * * * * * * * * * * * * * * * * * * * * * * * * * * //

dimensions      [0 1 -1 0 0 0 0];

internalField   nonuniform List<vector> 
2625
(
(1.15002 0.301996 1.38259e-20)
(1.1577 0.301044 -2.22811e-21)
(1.16529 0.299863 -3.43325e-21)
(1.17278 0.298457 -3.33452e-21)
(1.13498 0.297345 1.20595e-20)
(1.14266 0.296912 8.99458e-21)
(1.15028 0.296258 -7.35251e-21)
(1.15781 0.295384 -3.29692e-22)
(1.16526 0.294291 -2.41071e-21)
(1.17262 0.292982 -2.5309e-21)
(1.12795 0.291766 1.41278e-20)
(1.13552 0.291579 -8.58465e-21)
(1.14304 0.291181 -1.02089e-20)
(1.15049 0.290574 -2.12802e-21)
(1.15788 0.289758 9.99737e-21)
(1.16519 0.288736 7.84724e-21)
(1.17241 0.287507 3.77382e-21)
(1.11384 0.285744 1.26066e-20)
(1.12129 0.285969 8.8234e-21)
(1.12871 0.285995 -7.24728e-22)
(1.13609 0.285823 3.93877e-21)
(1.14343 0.285452 2.46281e-21)
(1.15071 0.284884 -1.12031e-21)
(1.15793 0.28412 -3.46257e-22)
(1.16509 0.28316 -3.38489e-21)
(1.17216 0.282005 -3.97754e-22)
(1.10052 0.279056 -3.96476e-21)
(1.10778 0.279631 3.35746e-21)
(1.11504 0.280021 -1.62658e-20)
(1.12228 0.280225 -6.95298e-21)
(1.1295 0.280244 -9.89785e-21)
(1.13668 0.280077 1.72977e-21)
(1.14383 0.279726 4.4066e-21)
(1.15094 0.279189 3.58807e-21)
(1.15799 0.278469 -5.54704e-23)
(1.16498 0.277565 2.31468e-21)
(1.1719 0.276477 -3.48585e-21)
(1.09517 0.272811 1.95362e-21)
(1.10221 0.273495 6.65639e-21)
(1.10925 0.27401 -7.55745e-21)
(1.11628 0.274355 -4.0024e-21)
(1.12331 0.274529 2.02825e-21)
(1.13032 0.274532 -3.38294e-21)
(1.13731 0.274363 -1.02949e-20)
(1.14426 0.274022 -3.39211e-21)
(1.15118 0.273508 -3.32752e-21)
(1.15805 0.272823 -5.49893e-21)
(1.16487 0.271966 -1.77916e-21)
(1.17163 0.270938 3.09532e-22)
(1.08358 0.265748 -1.29864e-20)
(1.09034 0.266652 -1.65465e-21)
(1.09713 0.267407 -1.1778e-20)
(1.10394 0.26801 -9.04059e-21)
(1.11075 0.268459 1.56637e-20)
(1.11756 0.268752 1.70257e-20)
(1.12437 0.268889 3.70735e-21)
(1.13117 0.268868 4.77596e-21)
(1.13795 0.268688 2.88723e-21)
(1.14471 0.268349 2.69137e-21)
(1.15143 0.267852 6.19452e-21)
(1.15812 0.267194 2.40626e-21)
(1.16476 0.266377 1.08911e-21)
(1.17136 0.2654 5.74224e-21)
(1.07951 0.259702 -1.33697e-20)
(1.08602 0.260626 -2.03983e-20)
(1.09255 0.261418 1.44931e-20)
(1.09911 0.262075 3.79567e-21)
(1.10568 0.262594 2.0968e-21)
(1.11227 0.262973 -4.52686e-22)
(1.11886 0.263211 -1.3832e-20)
(1.12545 0.263304 3.68339e-21)
(1.13204 0.263254 5.7373e-21)
(1.13861 0.263058 8.10237e-21)
(1.14517 0.262715 -1.96228e-21)
(1.1517 0.262226 -5.57556e-22)
(1.1582 0.261589 -4.83323e-21)
(1.16466 0.260804 -7.51904e-21)
(1.17108 0.259872 2.34745e-22)
(1.06971 0.252812 -9.90862e-21)
(1.07592 0.253843 4.69187e-21)
(1.08217 0.254762 -1.29549e-20)
(1.08845 0.255564 4.95882e-21)
(1.09476 0.256247 -5.86961e-21)
(1.10109 0.256807 1.44598e-20)
(1.10744 0.257243 9.42916e-21)
(1.1138 0.25755 1.09923e-21)
(1.12017 0.257729 -3.28888e-21)
(1.12654 0.257777 -7.93241e-21)
(1.13292 0.257693 2.25478e-21)
(1.13929 0.257475 3.1725e-21)
(1.14564 0.257124 -6.41347e-21)
(1.15197 0.256637 -4.88963e-21)
(1.15828 0.256015 3.81964e-21)
(1.16456 0.255257 5.46834e-21)
(1.17081 0.254361 -1.99403e-21)
(1.0668 0.247176 -1.58096e-20)
(1.07276 0.248174 2.27488e-20)
(1.07876 0.249071 -2.18615e-21)
(1.08479 0.249864 1.36986e-20)
(1.09085 0.250552 7.08468e-21)
(1.09694 0.25113 -9.75369e-21)
(1.10305 0.251596 -1.49172e-20)
(1.10918 0.251949 -1.28951e-20)
(1.11532 0.252186 -1.04495e-20)
(1.12148 0.252305 2.15961e-20)
(1.12764 0.252306 -1.59801e-21)
(1.13381 0.252185 -9.86387e-21)
(1.13997 0.251943 -3.1832e-21)
(1.14612 0.251579 6.85735e-23)
(1.15226 0.25109 8.78949e-21)
(1.15838 0.250478 -4.71707e-21)
(1.16447 0.24974 4.78107e-22)
(1.17054 0.248876 -2.66247e-21)
(1.05855 0.240667 -2.76322e-21)
(1.06425 0.241718 2.55462e-20)
(1.06998 0.242678 -1.03799e-20)
(1.07574 0.243545 -2.84096e-20)
(1.08154 0.244319 1.00879e-20)
(1.08736 0.244997 -1.02396e-20)
(1.09321 0.245577 2.20793e-23)
(1.09908 0.246056 -4.30608e-21)
(1.10498 0.246434 1.06212e-20)
(1.1109 0.246707 1.49491e-20)
(1.11683 0.246875 2.17359e-21)
(1.12278 0.246936 -1.30071e-20)
(1.12873 0.246888 -3.47305e-21)
(1.13469 0.246731 -2.69933e-21)
(1.14065 0.246462 -3.51802e-21)
(1.1466 0.246081 6.70906e-22)
(1.15255 0.245588 -1.03734e-20)
(1.15848 0.24498 6.68934e-21)
(1.16439 0.244258 -1.13125e-21)
(1.17027 0.24342 2.83435e-21)
(1.05659 0.235391 2.43016e-20)
(1.06202 0.236404 -2.13016e-20)
(1.06753 0.237329 -1.2383e-20)
(1.07307 0.238166 5.89779e-21)
(1.07864 0.238916 3.30267e-20)
(1.08424 0.239577 7.25213e-21)
(1.08986 0.240149 9.47763e-21)
(1.09551 0.24063 1.31383e-20)
(1.10118 0.241018 1.81758e-20)
(1.10687 0.241312 5.44691e-21)
(1.11258 0.241511 -7.23234e-21)
(1.11831 0.241613 3.65649e-21)
(1.12406 0.241617 5.17393e-21)
(1.12981 0.241523 9.70853e-21)
(1.13557 0.241328 1.16785e-20)
(1.14133 0.241031 -1.69061e-21)
(1.14708 0.240633 9.32249e-21)
(1.15283 0.240131 6.8537e-21)
(1.15858 0.239526 -1.0634e-21)
(1.1643 0.238816 -1.08115e-21)
(1.17001 0.238 -3.01036e-21)
(1.04911 0.22916 -4.84287e-21)
(1.05478 0.230226 -1.45101e-20)
(1.06012 0.231202 -2.117e-20)
(1.06538 0.232098 2.55019e-20)
(1.0707 0.232909 3.8921e-21)
(1.07606 0.233635 -1.35347e-20)
(1.08145 0.234278 -1.32413e-20)
(1.08685 0.234838 -8.23051e-21)
(1.09228 0.235313 -1.07065e-20)
(1.09774 0.235703 3.4059e-22)
(1.10321 0.236007 -2.78098e-21)
(1.10871 0.236224 -7.15101e-22)
(1.11423 0.236353 -1.21659e-21)
(1.11976 0.236394 -1.20248e-21)
(1.1253 0.236344 -1.37282e-21)
(1.13086 0.236205 3.74253e-21)
(1.13642 0.235973 -5.60446e-21)
(1.14199 0.23565 -2.80809e-21)
(1.14755 0.235233 -1.00964e-20)
(1.15312 0.234722 -1.34716e-21)
(1.15867 0.234116 1.80511e-22)
(1.16422 0.233414 4.88558e-22)
(1.16974 0.232617 -4.48561e-24)
(1.05288 0.225137 -1.99486e-22)
(1.05835 0.226092 -6.3847e-21)
(1.06352 0.226958 -3.2121e-21)
(1.06861 0.227747 -1.6813e-20)
(1.07376 0.228454 1.16403e-20)
(1.07895 0.22908 1.46036e-21)
(1.08415 0.229626 -1.39665e-21)
(1.08937 0.230093 1.45215e-20)
(1.09462 0.230481 1.07207e-20)
(1.09989 0.230788 -1.3829e-20)
(1.10518 0.231016 -5.82409e-21)
(1.11049 0.231162 -4.69901e-21)
(1.11581 0.231228 3.19302e-21)
(1.12115 0.231211 -6.10015e-21)
(1.12651 0.231113 -3.68521e-21)
(1.13187 0.230931 -1.35101e-20)
(1.13725 0.230665 3.6759e-21)
(1.14262 0.230315 -2.40262e-22)
(1.14801 0.229879 4.02783e-21)
(1.15338 0.229358 -1.45353e-21)
(1.15876 0.228751 -1.64102e-22)
(1.16413 0.228056 -2.69222e-21)
(1.16948 0.227273 2.26861e-21)
(1.05652 0.221043 1.00748e-20)
(1.0618 0.221894 7.5773e-21)
(1.0668 0.222659 -1.37638e-21)
(1.07173 0.22335 2.67212e-20)
(1.07671 0.223962 -1.29612e-20)
(1.08172 0.224497 1.35344e-20)
(1.08675 0.224956 -1.3545e-20)
(1.0918 0.22534 -2.53172e-20)
(1.09687 0.225649 1.03119e-20)
(1.10196 0.225882 6.99407e-21)
(1.10707 0.22604 5.33782e-21)
(1.1122 0.226123 -3.89727e-22)
(1.11734 0.22613 -1.46165e-20)
(1.1225 0.226062 4.67999e-21)
(1.12767 0.225918 3.62124e-21)
(1.13285 0.225697 5.451e-21)
(1.13804 0.225399 -3.06686e-21)
(1.14323 0.225024 6.46837e-21)
(1.14843 0.224571 -3.27325e-21)
(1.15364 0.22404 2.07954e-21)
(1.15883 0.22343 3.40925e-21)
(1.16403 0.22274 6.04493e-21)
(1.16921 0.221971 -1.1393e-21)
(1.06002 0.21688 1.43261e-20)
(1.06511 0.217634 -9.05096e-22)
(1.06995 0.218307 -5.53531e-22)
(1.07471 0.218907 -1.57668e-20)
(1.07953 0.219434 1.17773e-20)
(1.08438 0.219886 -7.12994e-21)
(1.08924 0.220266 1.93387e-20)
(1.09412 0.220575 1.22206e-20)
(1.09902 0.220812 -9.79475e-21)
(1.10394 0.220979 7.51561e-21)
(1.10887 0.221075 1.02848e-21)
(1.11383 0.2211 1.68059e-22)
(1.11879 0.221055 1.28762e-20)
(1.12378 0.22094 -4.90873e-21)
(1.12877 0.220755 -6.40667e-21)
(1.13378 0.220499 -1.04823e-21)
(1.13879 0.220172 -5.0725e-21)
(1.14381 0.219775 4.75049e-21)
(1.14884 0.219306 4.35872e-21)
(1.15386 0.218765 -7.30013e-22)
(1.15889 0.218152 -5.95874e-21)
(1.16391 0.217467 -2.61571e-21)
(1.06338 0.21265 -2.44546e-20)
(1.06829 0.213315 1.60187e-20)
(1.07296 0.213902 2.26583e-20)
(1.07757 0.214421 -6.9176e-21)
(1.08223 0.214869 3.15502e-21)
(1.08692 0.215246 1.64061e-20)
(1.09162 0.215555 8.22214e-21)
(1.09633 0.215796 -7.0822e-21)
(1.10107 0.215969 -2.46338e-21)
(1.10582 0.216076 -1.4377e-20)
(1.11059 0.216117 -1.21642e-20)
(1.11538 0.216091 1.30814e-21)
(1.12018 0.216 -8.2487e-21)
(1.12499 0.215843 1.16494e-20)
(1.12981 0.215621 7.24596e-21)
(1.13465 0.215334 -5.42263e-21)
(1.13949 0.214981 1.63801e-21)
(1.14434 0.214564 -4.55604e-21)
(1.1492 0.21408 -5.0821e-22)
(1.15406 0.213532 -3.10953e-21)
(1.15892 0.212917 -1.01628e-21)
(1.16378 0.212236 -3.0728e-21)
(1.06659 0.208358 7.30952e-21)
(1.07133 0.208941 -1.72789e-20)
(1.07585 0.209449 -2.07767e-21)
(1.08031 0.209892 1.47334e-20)
(1.08481 0.210268 1.06431e-21)
(1.08934 0.210578 -5.545e-22)
(1.09388 0.210822 -1.57277e-20)
(1.09844 0.211002 6.32089e-21)
(1.10302 0.211118 -2.85315e-21)
(1.10761 0.211172 1.04644e-21)
(1.11222 0.211163 1.18545e-20)
(1.11684 0.211092 -5.14359e-21)
(1.12148 0.21096 -7.35183e-21)
(1.12613 0.210767 -9.85977e-21)
(1.13079 0.210513 2.30918e-21)
(1.13546 0.210198 1.04183e-20)
(1.14014 0.209823 1.06647e-20)
(1.14483 0.209388 -2.7193e-21)
(1.14953 0.208893 -3.64734e-22)
(1.15422 0.208337 3.04346e-21)
(1.15893 0.207721 5.15289e-21)
(1.16363 0.207045 1.73299e-21)
(1.06967 0.204008 -3.25877e-21)
(1.07423 0.204514 -5.49131e-21)
(1.0786 0.204949 -6.84122e-21)
(1.08291 0.205323 4.09123e-21)
(1.08726 0.205634 -7.99027e-21)
(1.09163 0.205882 -2.00655e-20)
(1.09602 0.206068 4.47078e-21)
(1.10043 0.206193 -7.44637e-21)
(1.10485 0.206259 9.61615e-21)
(1.10929 0.206265 9.00498e-21)
(1.11375 0.206212 -9.29206e-21)
(1.11822 0.206102 -1.66819e-23)
(1.1227 0.205934 1.10171e-20)
(1.12719 0.205709 3.8378e-21)
(1.1317 0.205427 -6.67797e-21)
(1.13621 0.205089 -5.19732e-21)
(1.14074 0.204695 -7.99322e-21)
(1.14527 0.204245 -1.29581e-21)
(1.14981 0.20374 1.51998e-21)
(1.15435 0.20318 1.20751e-21)
(1.1589 0.202564 -5.36004e-21)
(1.16344 0.201892 -8.09166e-22)
(1.0726 0.199602 -1.01616e-20)
(1.077 0.200037 5.54485e-21)
(1.08121 0.200406 -7.34576e-21)
(1.08538 0.200717 -2.2976e-20)
(1.08958 0.200968 -7.98507e-21)
(1.09381 0.20116 8.08945e-21)
(1.09805 0.201294 -9.42369e-22)
(1.10231 0.20137 -8.62329e-22)
(1.10659 0.20139 -2.35305e-21)
(1.11088 0.201355 -4.01648e-21)
(1.11518 0.201264 1.18765e-20)
(1.1195 0.201118 1.15533e-21)
(1.12383 0.200919 -1.04178e-21)
(1.12818 0.200667 2.34149e-21)
(1.13253 0.200361 3.99665e-21)
(1.1369 0.200004 1.50492e-21)
(1.14127 0.199594 -3.10337e-21)
(1.14565 0.199133 4.49612e-21)
(1.15004 0.19862 -5.0415e-21)
(1.15443 0.198056 -2.78995e-21)
(1.15883 0.197442 4.35719e-21)
(1.16323 0.196776 -6.36837e-22)
(1.07538 0.195145 2.38837e-20)
(1.07962 0.195515 3.62863e-21)
(1.08369 0.195823 6.20884e-21)
(1.08772 0.196076 1.05253e-21)
(1.09178 0.196273 9.38692e-21)
(1.09586 0.196414 1.13651e-20)
(1.09996 0.196501 4.49733e-21)
(1.10408 0.196534 -5.0431e-21)
(1.10821 0.196514 -4.35651e-21)
(1.11236 0.196441 3.83666e-21)
(1.11652 0.196316 -5.66843e-21)
(1.12069 0.196141 1.14662e-20)
(1.12488 0.195915 1.46518e-21)
(1.12908 0.195639 2.31233e-21)
(1.13329 0.195314 7.00267e-21)
(1.13751 0.19494 9.32661e-22)
(1.14174 0.194518 7.79852e-21)
(1.14598 0.194047 -2.43961e-21)
(1.15022 0.19353 1.33837e-21)
(1.15447 0.192965 1.11598e-22)
(1.15873 0.192353 6.12464e-22)
(1.16298 0.191695 3.64298e-22)
(1.07802 0.190641 -7.00084e-21)
(1.08211 0.190951 1.86595e-21)
(1.08604 0.191203 -6.50566e-21)
(1.08992 0.191403 1.8768e-20)
(1.09385 0.191551 1.52516e-21)
(1.09779 0.191647 -8.01096e-21)
(1.10175 0.191691 1.69305e-21)
(1.10573 0.191685 1.79658e-20)
(1.10972 0.191629 -1.80734e-21)
(1.11373 0.191524 -8.79068e-21)
(1.11775 0.19137 -2.72945e-22)
(1.12179 0.191169 -1.75462e-20)
(1.12584 0.19092 -3.17571e-21)
(1.1299 0.190624 -4.14292e-21)
(1.13397 0.190283 -1.99372e-21)
(1.13805 0.189896 -5.1252e-21)
(1.14214 0.189464 -7.48638e-21)
(1.14624 0.188988 -2.83077e-21)
(1.15035 0.188467 3.66042e-21)
(1.15446 0.187903 2.51995e-21)
(1.15858 0.187296 -6.01375e-22)
(1.1627 0.186645 -1.84182e-22)
(1.08052 0.186093 1.62878e-21)
(1.08446 0.186349 1.08636e-20)
(1.08825 0.186549 -5.21906e-21)
(1.092 0.186702 -2.39722e-20)
(1.09579 0.186805 2.60116e-21)
(1.0996 0.18686 7.7016e-21)
(1.10343 0.186866 -8.50164e-21)
(1.10727 0.186825 -3.02014e-21)
(1.11113 0.186738 1.01607e-20)
(1.115 0.186604 1.31204e-20)
(1.11889 0.186425 -4.21805e-21)
(1.12279 0.186202 1.45876e-20)
(1.12671 0.185934 3.79128e-21)
(1.13063 0.185622 -2.86169e-21)
(1.13457 0.185268 -4.25129e-21)
(1.13852 0.184871 1.12019e-21)
(1.14248 0.184432 3.73071e-21)
(1.14644 0.183952 2.86218e-21)
(1.15042 0.183431 2.83937e-21)
(1.1544 0.18287 -2.40609e-21)
(1.15839 0.182268 -2.19261e-21)
(1.16238 0.181627 -2.83108e-22)
(1.08288 0.181505 -2.70463e-21)
(1.08666 0.181711 -2.3664e-20)
(1.09032 0.181865 1.41417e-20)
(1.09394 0.181974 1.93696e-21)
(1.0976 0.182038 -1.71237e-20)
(1.10128 0.182055 -7.1725e-21)
(1.10498 0.182028 -7.46686e-21)
(1.1087 0.181956 -9.19979e-21)
(1.11242 0.181841 2.60514e-21)
(1.11617 0.181683 -1.57562e-20)
(1.11993 0.181482 9.84674e-21)
(1.1237 0.18124 -4.13364e-21)
(1.12749 0.180956 1.30418e-21)
(1.13129 0.180632 5.23985e-21)
(1.1351 0.180267 -3.84548e-21)
(1.13892 0.179863 -9.8312e-23)
(1.14275 0.17942 1.59432e-21)
(1.14658 0.178938 -3.52163e-21)
(1.15043 0.178419 -4.18055e-21)
(1.15429 0.177862 3.35194e-21)
(1.15815 0.177268 3.88044e-21)
(1.16201 0.176637 1.33581e-21)
(1.08508 0.176881 2.98955e-21)
(1.08873 0.177041 1.21767e-20)
(1.09226 0.177154 -1.05015e-20)
(1.09576 0.177223 8.68328e-21)
(1.09929 0.177251 -1.08469e-21)
(1.10285 0.177235 -2.3747e-22)
(1.10642 0.177178 8.04186e-21)
(1.11001 0.17708 1.07365e-20)
(1.11361 0.17694 -1.27775e-20)
(1.11723 0.176761 5.26855e-21)
(1.12087 0.176542 -9.64396e-21)
(1.12452 0.176284 3.1275e-21)
(1.12818 0.175987 -2.60421e-22)
(1.13185 0.175653 -5.15102e-21)
(1.13554 0.175281 4.87938e-21)
(1.13924 0.174872 -1.43984e-21)
(1.14294 0.174427 2.17025e-21)
(1.14666 0.173946 7.2028e-21)
(1.15039 0.17343 2.57129e-21)
(1.15412 0.172879 -2.74777e-21)
(1.15786 0.172293 -8.79469e-22)
(1.1616 0.171674 5.01885e-23)
(1.08715 0.172225 -8.68799e-21)
(1.09066 0.172343 -5.96483e-21)
(1.09407 0.172417 3.09544e-21)
(1.09744 0.172452 7.88873e-21)
(1.10086 0.172447 3.26328e-21)
(1.10429 0.172402 -7.78228e-21)
(1.10774 0.172319 4.42358e-21)
(1.11121 0.172197 -4.51304e-21)
(1.11469 0.172036 5.35453e-21)
(1.11819 0.171839 5.34167e-21)
(1.12171 0.171604 7.76806e-21)
(1.12524 0.171334 -4.89777e-21)
(1.12878 0.171027 -4.34575e-21)
(1.13234 0.170685 4.31139e-21)
(1.1359 0.170308 6.73817e-22)
(1.13948 0.169896 2.63249e-21)
(1.14307 0.169451 -4.18499e-21)
(1.14667 0.168973 -2.01387e-21)
(1.15028 0.168462 -1.93714e-21)
(1.1539 0.167918 2.08281e-21)
(1.15752 0.167343 -3.18719e-21)
(1.16115 0.166736 1.57792e-21)
(1.08907 0.167539 1.05408e-20)
(1.09246 0.16762 1.59749e-20)
(1.09574 0.16766 7.20743e-21)
(1.099 0.167663 -3.35115e-21)
(1.1023 0.167629 9.96335e-21)
(1.10561 0.167558 4.4054e-21)
(1.10895 0.167452 -6.01014e-21)
(1.1123 0.167309 -1.37654e-21)
(1.11567 0.167131 2.76499e-21)
(1.11905 0.166918 -3.07489e-21)
(1.12245 0.166671 -6.44264e-21)
(1.12587 0.16639 2.13338e-21)
(1.1293 0.166075 -2.14423e-21)
(1.13274 0.165728 -1.37662e-21)
(1.13619 0.165348 -2.37822e-21)
(1.13966 0.164936 7.90627e-22)
(1.14313 0.164493 1.64009e-21)
(1.14662 0.164019 -4.75432e-21)
(1.15012 0.163514 -1.4086e-21)
(1.15362 0.16298 -3.6717e-21)
(1.15713 0.162415 1.0824e-21)
(1.16065 0.161822 -3.49169e-21)
(1.09085 0.162826 -9.47498e-21)
(1.09411 0.162873 -1.03012e-20)
(1.09728 0.162883 -8.28898e-21)
(1.10043 0.162858 1.45682e-21)
(1.10361 0.162799 2.14443e-21)
(1.10682 0.162705 -3.3754e-21)
(1.11004 0.162578 5.66889e-21)
(1.11328 0.162418 -6.55803e-21)
(1.11654 0.162225 -2.38008e-21)
(1.11981 0.161999 3.43891e-21)
(1.1231 0.161742 -7.17944e-21)
(1.12641 0.161453 4.34033e-21)
(1.12972 0.161133 -4.64444e-21)
(1.13306 0.160782 6.33161e-21)
(1.1364 0.160402 2.0353e-21)
(1.13976 0.159991 -1.12016e-21)
(1.14313 0.159552 -1.87829e-22)
(1.1465 0.159083 4.03624e-21)
(1.14989 0.158586 -6.0669e-22)
(1.15329 0.158062 1.23018e-21)
(1.15669 0.15751 1.88775e-21)
(1.1601 0.15693 1.30273e-21)
(1.0925 0.158089 3.58557e-21)
(1.09564 0.158107 4.88615e-22)
(1.09869 0.158089 -3.57725e-21)
(1.10174 0.158039 -8.83852e-21)
(1.10481 0.157958 -1.66664e-20)
(1.10791 0.157845 1.64782e-20)
(1.11102 0.1577 -1.68432e-21)
(1.11416 0.157525 8.6123e-21)
(1.11731 0.15732 5.20243e-22)
(1.12047 0.157084 4.32446e-21)
(1.12366 0.156818 1.537e-20)
(1.12686 0.156524 -6.7041e-21)
(1.13007 0.1562 1.00948e-20)
(1.1333 0.155848 -3.82003e-21)
(1.13654 0.155468 -9.31401e-21)
(1.13979 0.155061 1.25757e-21)
(1.14305 0.154626 2.42371e-22)
(1.14633 0.154165 -2.33336e-21)
(1.14961 0.153677 3.24922e-21)
(1.1529 0.153163 -1.88071e-22)
(1.1562 0.152624 1.5086e-21)
(1.15951 0.15206 -1.36579e-21)
(1.094 0.153332 5.12961e-21)
(1.09703 0.153323 -9.82241e-22)
(1.09998 0.153281 1.56851e-20)
(1.10292 0.153209 4.25507e-21)
(1.10589 0.153109 1.34718e-20)
(1.10888 0.152979 -8.40845e-21)
(1.11189 0.15282 7.06202e-22)
(1.11492 0.152632 -5.80164e-21)
(1.11797 0.152416 1.48228e-21)
(1.12104 0.152172 -1.18074e-20)
(1.12412 0.151901 -1.26698e-20)
(1.12722 0.151602 -1.12963e-21)
(1.13033 0.151277 3.20008e-21)
(1.13345 0.150925 3.10733e-21)
(1.13659 0.150548 8.30138e-21)
(1.13975 0.150144 2.70658e-21)
(1.14291 0.149716 2.22893e-21)
(1.14609 0.149263 -2.08098e-22)
(1.14927 0.148785 -1.63695e-21)
(1.15247 0.148284 1.05747e-21)
(1.15567 0.147758 -2.06034e-22)
(1.15888 0.14721 1.40021e-22)
(1.09537 0.148556 -8.4461e-21)
(1.09829 0.148523 -2.00781e-21)
(1.10113 0.14846 -1.24604e-20)
(1.10398 0.14837 -5.15435e-21)
(1.10685 0.148253 -5.32396e-21)
(1.10974 0.148108 -4.5417e-21)
(1.11266 0.147937 -6.7271e-21)
(1.11559 0.147739 -5.28894e-21)
(1.11854 0.147515 -3.9024e-21)
(1.12151 0.147265 7.98175e-21)
(1.12449 0.146989 8.9108e-21)
(1.12749 0.146689 4.14444e-21)
(1.13051 0.146363 -7.94838e-21)
(1.13354 0.146014 -6.08742e-21)
(1.13658 0.14564 -1.8188e-21)
(1.13964 0.145242 -4.30191e-21)
(1.14271 0.144821 1.8135e-22)
(1.14579 0.144377 1.77862e-21)
(1.14888 0.143911 -1.33293e-22)
(1.15197 0.143422 1.69685e-21)
(1.15508 0.142911 1.54621e-22)
(1.1582 0.142379 2.05506e-21)
(1.09661 0.143763 -8.00051e-21)
(1.09942 0.14371 -3.27974e-21)
(1.10217 0.143629 9.20118e-21)
(1.10492 0.143523 8.76054e-21)
(1.1077 0.143391 -1.05257e-21)
(1.1105 0.143235 1.02641e-20)
(1.11332 0.143053 -6.22495e-22)
(1.11616 0.142847 1.06456e-20)
(1.11901 0.142617 5.10929e-21)
(1.12189 0.142363 -7.39477e-21)
(1.12478 0.142085 -9.01611e-21)
(1.12769 0.141784 -3.10651e-21)
(1.13061 0.14146 2.11033e-21)
(1.13355 0.141113 1.76964e-21)
(1.1365 0.140744 6.16891e-22)
(1.13946 0.140353 4.45995e-21)
(1.14244 0.139941 -1.20939e-21)
(1.14543 0.139507 -1.99359e-21)
(1.14843 0.139052 1.78603e-21)
(1.15143 0.138577 6.87965e-22)
(1.15445 0.138081 -3.75504e-21)
(1.15748 0.137565 -1.82003e-23)
(1.09771 0.138957 1.23348e-20)
(1.10043 0.138886 1.5113e-20)
(1.10309 0.138789 -2.74135e-21)
(1.10575 0.138669 2.24377e-21)
(1.10843 0.138526 -5.90077e-21)
(1.11114 0.138359 -6.77609e-21)
(1.11387 0.13817 1.59564e-21)
(1.11662 0.137957 6.86555e-22)
(1.11939 0.137723 -3.55643e-21)
(1.12218 0.137466 5.03764e-21)
(1.12498 0.137188 7.48213e-21)
(1.1278 0.136887 -2.67965e-21)
(1.13063 0.136566 2.23277e-21)
(1.13348 0.136224 1.34152e-21)
(1.13634 0.135861 7.92643e-22)
(1.13922 0.135478 -2.81273e-21)
(1.14211 0.135075 6.55072e-22)
(1.14501 0.134652 1.99183e-23)
(1.14792 0.134209 -1.52172e-21)
(1.15085 0.133748 -2.0963e-21)
(1.15378 0.133268 1.99996e-21)
(1.15672 0.132769 -9.52762e-22)
(1.09869 0.134137 5.91426e-21)
(1.10132 0.134051 -8.87963e-21)
(1.10388 0.133941 -9.52013e-21)
(1.10646 0.13381 -5.26498e-21)
(1.10906 0.133657 5.28874e-21)
(1.11169 0.133482 -3.05718e-21)
(1.11433 0.133287 4.38772e-21)
(1.117 0.13307 4.09713e-21)
(1.11968 0.132833 9.75008e-22)
(1.12238 0.132575 -1.46627e-21)
(1.1251 0.132297 -3.47429e-21)
(1.12783 0.132 1.66278e-21)
(1.13058 0.131682 -4.92273e-21)
(1.13335 0.131346 -2.06611e-21)
(1.13612 0.13099 -2.96408e-21)
(1.13892 0.130615 -3.16404e-22)
(1.14172 0.130222 -1.64955e-21)
(1.14454 0.129811 -1.15581e-21)
(1.14737 0.129382 1.55132e-21)
(1.15021 0.128935 2.60445e-22)
(1.15306 0.12847 1.15751e-21)
(1.15592 0.127989 -3.25337e-22)
(1.09955 0.129307 -1.12245e-21)
(1.10208 0.129208 2.80007e-21)
(1.10457 0.129087 1.09573e-20)
(1.10706 0.128946 -7.70846e-21)
(1.10959 0.128786 -6.18135e-21)
(1.11213 0.128605 1.64204e-21)
(1.11469 0.128406 -7.44041e-21)
(1.11728 0.128186 -5.7374e-21)
(1.11988 0.127948 -5.04228e-21)
(1.1225 0.127691 -4.23046e-21)
(1.12514 0.127415 2.76084e-21)
(1.12779 0.127121 3.00111e-21)
(1.13046 0.126808 2.56281e-21)
(1.13314 0.126478 -1.51717e-21)
(1.13584 0.12613 6.08879e-22)
(1.13856 0.125765 1.81903e-22)
(1.14128 0.125383 -2.5123e-22)
(1.14402 0.124984 6.3994e-23)
(1.14677 0.124568 -2.33629e-21)
(1.14953 0.124136 -2.4963e-21)
(1.1523 0.123688 -7.97756e-22)
(1.15508 0.123224 2.41952e-21)
(1.10028 0.124467 -1.63165e-21)
(1.10274 0.124357 -9.94818e-21)
(1.10514 0.124227 -4.89772e-21)
(1.10756 0.124079 1.32107e-20)
(1.11001 0.123913 1.27018e-20)
(1.11248 0.123729 -3.15326e-21)
(1.11496 0.123526 2.66627e-21)
(1.11747 0.123305 3.98869e-22)
(1.12 0.123067 8.96075e-21)
(1.12254 0.122812 3.4385e-21)
(1.1251 0.122539 -1.44357e-21)
(1.12768 0.12225 -1.91004e-21)
(1.13027 0.121943 1.67176e-21)
(1.13288 0.12162 3.71204e-22)
(1.1355 0.121281 -6.78609e-23)
(1.13814 0.120926 -1.88208e-21)
(1.14079 0.120555 4.19965e-21)
(1.14345 0.120169 5.80283e-22)
(1.14612 0.119767 1.51324e-22)
(1.14881 0.11935 2.7274e-22)
(1.1515 0.118919 -4.10716e-22)
(1.15421 0.118473 -7.46654e-22)
(1.1009 0.119618 -5.95993e-21)
(1.10328 0.1195 6.13223e-21)
(1.10561 0.119363 1.32355e-21)
(1.10796 0.119209 -6.90264e-21)
(1.11033 0.119039 -1.18535e-20)
(1.11273 0.118852 3.66347e-21)
(1.11514 0.118648 1.05486e-20)
(1.11758 0.118428 -5.03898e-22)
(1.12003 0.118191 -6.16031e-21)
(1.1225 0.117939 3.35778e-21)
(1.12499 0.11767 -2.13102e-21)
(1.1275 0.117386 1.00743e-21)
(1.13002 0.117087 -2.73867e-21)
(1.13255 0.116772 -2.61427e-21)
(1.1351 0.116443 1.74016e-21)
(1.13767 0.116098 1.78701e-21)
(1.14024 0.115739 -1.42427e-21)
(1.14283 0.115366 3.85603e-22)
(1.14544 0.114979 -1.08776e-21)
(1.14805 0.114578 1.41628e-21)
(1.15067 0.114163 -1.45522e-21)
(1.1533 0.113734 -1.88969e-21)
(1.10141 0.11476 -5.79778e-21)
(1.10372 0.114636 9.01129e-21)
(1.10598 0.114494 -5.5198e-21)
(1.10826 0.114337 -8.68613e-22)
(1.11057 0.114164 1.72694e-21)
(1.11289 0.113976 -7.58664e-22)
(1.11524 0.113772 -5.67843e-21)
(1.11761 0.113553 1.13918e-22)
(1.11999 0.11332 1.89089e-21)
(1.12239 0.113071 -4.46414e-21)
(1.12481 0.112808 3.48376e-21)
(1.12725 0.11253 2.31528e-21)
(1.1297 0.112239 1.90885e-21)
(1.13217 0.111933 1.25862e-21)
(1.13465 0.111614 2.01702e-21)
(1.13715 0.11128 -1.02692e-21)
(1.13966 0.110934 6.74318e-22)
(1.14218 0.110574 -1.62265e-21)
(1.14471 0.110202 9.92945e-22)
(1.14725 0.109816 -8.36018e-22)
(1.14981 0.109418 4.98504e-22)
(1.15237 0.109008 2.70452e-21)
(1.10182 0.109896 1.07797e-20)
(1.10405 0.109766 -9.29769e-21)
(1.10625 0.109621 9.35414e-21)
(1.10847 0.109461 3.40567e-21)
(1.11071 0.109288 1.88536e-22)
(1.11297 0.1091 4.81018e-22)
(1.11526 0.108897 -3.02558e-21)
(1.11756 0.108681 -1.78349e-21)
(1.11988 0.108451 -1.91811e-21)
(1.12222 0.108208 -3.16039e-22)
(1.12457 0.107951 1.15269e-21)
(1.12694 0.107681 -4.1583e-21)
(1.12933 0.107398 1.16356e-21)
(1.13173 0.107102 1.93582e-21)
(1.13415 0.106793 -4.5506e-22)
(1.13658 0.106471 7.82498e-22)
(1.13902 0.106138 -2.14134e-22)
(1.14148 0.105792 1.43298e-21)
(1.14395 0.105434 7.86572e-22)
(1.14642 0.105065 1.89818e-21)
(1.14891 0.104684 6.04207e-22)
(1.15141 0.104291 -1.74675e-22)
(1.10212 0.105024 -6.52884e-21)
(1.10429 0.104891 8.3369e-22)
(1.10643 0.104744 -2.68793e-21)
(1.10859 0.104583 -9.26157e-22)
(1.11077 0.10441 7.80296e-22)
(1.11298 0.104223 1.31805e-21)
(1.1152 0.104024 8.46846e-22)
(1.11744 0.103811 2.56133e-22)
(1.1197 0.103586 3.76192e-21)
(1.12198 0.103349 6.78622e-22)
(1.12427 0.103099 -2.66727e-21)
(1.12658 0.102837 2.9341e-21)
(1.12891 0.102563 -2.36672e-21)
(1.13125 0.102277 -2.11172e-21)
(1.1336 0.101979 -8.36634e-22)
(1.13597 0.10167 -1.79678e-21)
(1.13835 0.10135 -5.03877e-22)
(1.14075 0.101018 -1.18017e-21)
(1.14315 0.100676 -3.84043e-22)
(1.14557 0.100322 2.8764e-23)
(1.148 0.0999584 -1.78736e-21)
(1.15043 0.099584 -3.43084e-22)
(1.10233 0.100144 -2.13261e-21)
(1.10444 0.100009 2.34249e-21)
(1.10653 0.0998616 -1.67606e-21)
(1.10863 0.0997019 5.04146e-22)
(1.11076 0.0995301 3.14681e-21)
(1.11291 0.0993461 -3.17376e-22)
(1.11507 0.0991502 -6.70404e-22)
(1.11726 0.0989426 2.16219e-21)
(1.11946 0.0987233 -1.64848e-21)
(1.12168 0.0984925 1.70149e-21)
(1.12392 0.0982503 2.85904e-21)
(1.12617 0.097997 -6.68528e-22)
(1.12844 0.0977326 -8.61763e-22)
(1.13072 0.0974574 3.96418e-21)
(1.13302 0.0971715 -2.26181e-21)
(1.13533 0.096875 -7.61772e-22)
(1.13765 0.0965682 2.00778e-21)
(1.13999 0.0962511 3.74912e-22)
(1.14233 0.095924 2.12665e-21)
(1.14469 0.095587 -2.27527e-21)
(1.14706 0.0952402 2.65891e-21)
(1.14943 0.0948838 -1.67332e-22)
(1.10245 0.0952563 2.90505e-21)
(1.10451 0.0951213 -2.57412e-21)
(1.10654 0.0949744 3.09633e-21)
(1.1086 0.0948164 1.36555e-22)
(1.11067 0.0946472 1.29889e-21)
(1.11277 0.094467 1.72779e-21)
(1.11488 0.0942757 -3.15173e-22)
(1.11701 0.0940737 -1.31319e-21)
(1.11916 0.0938609 -1.24928e-21)
(1.12133 0.0936377 6.46119e-22)
(1.12351 0.093404 -3.23164e-21)
(1.12571 0.09316 -1.2392e-21)
(1.12793 0.0929059 -6.90823e-22)
(1.13015 0.0926419 -1.17413e-21)
(1.1324 0.0923681 1.22459e-21)
(1.13465 0.0920846 9.09194e-22)
(1.13692 0.0917916 -2.05731e-21)
(1.1392 0.0914892 -3.99377e-23)
(1.14149 0.0911776 -1.2755e-21)
(1.14379 0.090857 2.87558e-21)
(1.1461 0.0905275 -2.15058e-22)
(1.14842 0.0901892 -3.24658e-22)
(1.10249 0.0903601 -2.44906e-21)
(1.1045 0.090226 7.73515e-22)
(1.10649 0.0900809 -1.36465e-21)
(1.10849 0.0899257 8.08568e-22)
(1.11052 0.0897603 -5.53395e-22)
(1.11257 0.0895847 -1.0674e-21)
(1.11463 0.089399 5.72435e-21)
(1.11671 0.0892033 1.59735e-21)
(1.11881 0.0889979 -4.29093e-22)
(1.12093 0.0887828 1.55854e-21)
(1.12306 0.0885582 -8.23484e-22)
(1.12521 0.0883241 9.85515e-22)
(1.12738 0.0880808 -1.30527e-21)
(1.12955 0.0878284 1.2256e-21)
(1.13175 0.0875671 -1.85332e-21)
(1.13395 0.0872968 2.18477e-21)
(1.13617 0.0870179 -7.82236e-22)
(1.13839 0.0867305 1.03231e-21)
(1.14063 0.0864346 -4.01592e-22)
(1.14288 0.0861305 -5.03144e-22)
(1.14514 0.0858183 -5.23295e-22)
(1.1474 0.085498 -6.321e-22)
(1.10246 0.0854543 4.23201e-21)
(1.10442 0.0853221 -6.60972e-25)
(1.10636 0.08518 -1.1447e-21)
(1.10832 0.0850286 -2.96735e-21)
(1.11031 0.0848678 -8.3521e-22)
(1.11231 0.0846976 3.17228e-22)
(1.11433 0.0845182 -4.9653e-21)
(1.11637 0.0843298 -1.24446e-21)
(1.11842 0.0841323 4.20566e-22)
(1.12049 0.083926 -1.54583e-21)
(1.12258 0.083711 2.52091e-21)
(1.12468 0.0834874 6.58542e-22)
(1.1268 0.0832553 5.47813e-22)
(1.12893 0.083015 -9.71392e-22)
(1.13107 0.0827664 6.98899e-22)
(1.13323 0.0825097 -9.52316e-22)
(1.13539 0.0822452 -1.76219e-22)
(1.13757 0.0819728 -2.904e-22)
(1.13976 0.0816928 2.53966e-22)
(1.14196 0.0814053 -8.92711e-22)
(1.14417 0.0811103 -3.07627e-22)
(1.14638 0.0808081 -4.18091e-22)
(1.10236 0.0805372 -3.0487e-21)
(1.10427 0.0804081 -4.54508e-22)
(1.10618 0.0802699 2.61992e-21)
(1.1081 0.0801231 1.79039e-21)
(1.11004 0.0799678 -3.27914e-21)
(1.112 0.0798039 2.75018e-23)
(1.11398 0.0796316 1.91751e-22)
(1.11598 0.0794509 -5.05117e-22)
(1.11799 0.0792621 -1.8581e-21)
(1.12002 0.0790652 -6.27917e-22)
(1.12206 0.0788603 -1.44943e-22)
(1.12412 0.0786476 3.90336e-22)
(1.12619 0.0784272 -1.6827e-22)
(1.12828 0.0781991 -1.74261e-21)
(1.13038 0.0779637 1.92105e-21)
(1.13249 0.0777209 -1.15087e-21)
(1.13461 0.0774708 3.83415e-21)
(1.13674 0.0772137 1.01975e-23)
(1.13888 0.0769497 -5.3784e-22)
(1.14103 0.0766788 1.74447e-21)
(1.1432 0.0764012 -8.57903e-22)
(1.14536 0.0761169 -4.92533e-22)
(1.1022 0.0756072 -8.93731e-22)
(1.10407 0.075482 1.47876e-21)
(1.10594 0.0753485 -7.08123e-22)
(1.10783 0.0752073 -3.76042e-22)
(1.10973 0.0750582 1.89604e-21)
(1.11166 0.0749013 4.63513e-22)
(1.1136 0.0747367 1.19172e-21)
(1.11555 0.0745645 1.17504e-21)
(1.11753 0.0743848 1.34445e-21)
(1.11952 0.0741977 1.70318e-21)
(1.12152 0.0740035 -6.11184e-22)
(1.12354 0.073802 -7.70005e-22)
(1.12557 0.0735936 -1.87e-22)
(1.12761 0.0733783 3.11832e-22)
(1.12967 0.0731562 2.6413e-22)
(1.13174 0.0729275 1.3496e-21)
(1.13382 0.0726922 -1.91392e-22)
(1.13591 0.0724505 -7.62744e-22)
(1.138 0.0722025 -1.82398e-22)
(1.14011 0.0719483 -1.96471e-22)
(1.14223 0.071688 -3.05009e-22)
(1.14435 0.0714218 1.10806e-21)
(1.10198 0.0706619 3.07382e-22)
(1.10382 0.0705415 -1.3224e-21)
(1.10566 0.0704135 -1.76527e-21)
(1.10751 0.0702785 -1.61581e-21)
(1.10939 0.0701363 -1.97409e-21)
(1.11128 0.069987 -3.87812e-21)
(1.11318 0.0698307 1.67062e-21)
(1.1151 0.0696675 -1.5052e-21)
(1.11704 0.0694975 2.01376e-21)
(1.11899 0.0693208 -1.19865e-21)
(1.12096 0.0691375 -2.91762e-21)
(1.12294 0.0689478 5.40886e-22)
(1.12493 0.0687517 9.54743e-22)
(1.12694 0.0685494 4.96484e-22)
(1.12896 0.0683409 -2.51083e-21)
(1.13099 0.0681265 1.19039e-21)
(1.13302 0.0679061 -2.06028e-21)
(1.13507 0.06768 -6.20122e-22)
(1.13713 0.0674481 -9.12561e-22)
(1.1392 0.0672107 -4.97863e-22)
(1.14128 0.0669678 7.25267e-22)
(1.14336 0.0667196 -4.21633e-22)
(1.10173 0.0656985 -4.95985e-22)
(1.10354 0.0655836 1.45043e-21)
(1.10534 0.0654619 -1.1954e-21)
(1.10717 0.0653338 1.34662e-21)
(1.10901 0.0651992 3.14486e-21)
(1.11087 0.065058 3.0883e-21)
(1.11274 0.0649106 7.20397e-22)
(1.11463 0.0647569 -5.3585e-24)