0 	0.517293 	0 	-0.588327
0 	0.55252 	0 	-0.535355
0 	0.589056 	0 	-0.513646
0 	0.62695 	0 	-0.483624
0 	0.666252 	-1.73472e-18 	-0.458294
0 	0.707014 	-3.46945e-18 	-0.432036
0 	0.749291 	-2.08167e-18 	-0.406221
0 	0.793139 	-6.93889e-19 	-0.380195
0 	0.838615 	-6.93889e-19 	-0.354159
0 	0.885781 	2.42861e-18 	-0.328184
0 	0.9347 	6.93889e-18 	-0.30246
