0 	0.551757 	1.38778e-18 	-0.562309
0 	0.659416 	2.77556e-18 	-0.447455
0 	0.775694 	2.77556e-18 	-0.402146
0 	0.90128 	2.77556e-18 	-0.326828
