-0.3536 	0.3536 	-9.02056e-18 	0.240678 	0.219895 	5.19449e-20
-0.390196 	0.390196 	-1.49133e-17 	0.228519 	0.222544 	-1.43589e-19
-0.466318 	0.466318 	-2.43897e-17 	0.486488 	0.416643 	-2.51888e-20
-0.548534 	0.548534 	-2.57828e-17 	0.664888 	0.47729 	1.56891e-22
-0.614278 	0.614278 	-5.55112e-18 	0.773558 	0.466638 	1.85481e-19
-0.660386 	0.660386 	-7.63278e-18 	0.799418 	0.472802 	3.21018e-20
