0.3536 	0.3536 	0 	0.0350322 	-0.020609 	-2.36625e-19
0.390196 	0.390196 	0 	0.0287483 	-0.0177366 	1.81703e-19
0.466318 	0.466318 	8.67362e-18 	0.12643 	-0.0544602 	1.69435e-19
0.548534 	0.548534 	2.25514e-17 	0.2495 	-0.0704865 	5.86178e-21
0.637332 	0.637332 	3.19189e-17 	0.379196 	-0.0813851 	-2.8859e-19
