0 	0.551757 	1.38778e-18 	0.244926 	0.0158758 	6.54462e-21
0 	0.659416 	2.77556e-18 	0.583984 	0.0759409 	-1.11114e-20
0 	0.775694 	2.77556e-18 	0.841177 	0.15291 	4.93328e-20
0 	0.90128 	2.77556e-18 	1.02259 	0.206141 	3.55319e-20
