0 	0.534376 	0 	0.167188 	0.00564484 	9.45807e-21
0 	0.60573 	1.38778e-18 	0.430641 	0.0406344 	5.1663e-21
0 	0.682485 	1.38778e-18 	0.653489 	0.09499 	1.21456e-21
0 	0.765049 	-1.73472e-18 	0.836504 	0.145483 	-7.22829e-21
0 	0.853863 	-3.46945e-18 	0.982774 	0.191131 	1.18247e-21
0 	0.949399 	-2.08167e-18 	1.09332 	0.22321 	-3.93102e-21
