0.377883 	0.377883 	6.34489e-18 	0.019398 	-0.0146805 	-3.94368e-19
0.428313 	0.428313 	1.3309e-17 	0.0833715 	-0.0426886 	-5.98024e-20
0.482588 	0.482588 	1.69586e-17 	0.166772 	-0.060309 	9.80558e-20
0.540971 	0.540971 	2.40461e-17 	0.260447 	-0.0748405 	-9.96194e-20
0.603773 	0.603773 	3.4593e-17 	0.362029 	-0.082312 	-1.24866e-19
0.671328 	0.671328 	1.9913e-17 	0.46679 	-0.0864918 	-2.35725e-19
