0 	0.534376 	0 	-0.603448
0 	0.60573 	1.38778e-18 	-0.506469
0 	0.682485 	1.38778e-18 	-0.482913
0 	0.765049 	-1.73472e-18 	-0.418106
0 	0.853863 	-3.46945e-18 	-0.375913
0 	0.949399 	-2.08167e-18 	-0.320454
