0 	0.525939 	1.249e-17 	0.123123 	0.00261885 	4.89978e-21
0 	0.57878 	1.249e-17 	0.326434 	0.0232096 	-1.10498e-21
0 	0.633585 	1.249e-17 	0.50278 	0.0584687 	-2.34827e-21
0 	0.690426 	1.11022e-17 	0.654964 	0.0954108 	-1.4777e-22
0 	0.749378 	9.71445e-18 	0.785553 	0.13303 	-3.93717e-21
0 	0.810522 	9.71445e-18 	0.896004 	0.166703 	-4.53697e-21
0 	0.873937 	9.71445e-18 	0.987871 	0.195594 	3.20464e-21
0 	0.939708 	1.11022e-17 	1.06265 	0.218368 	2.97826e-21
