/*--------------------------------*- C++ -*----------------------------------*\
  =========                 |
  \\      /  F ield         | OpenFOAM: The Open Source CFD Toolbox
   \\    /   O peration     | Website:  https://openfoam.org
    \\  /    A nd           | Version:  7
     \\/     M anipulation  |
\*---------------------------------------------------------------------------*/
FoamFile
{
    version     2.0;
    format      ascii;
    class       volScalarField;
    location    "10";
    object      p;
}
// * * * * * * * * * * * * * * * * * * * * * * * * * * * * * * * * * * * * * //

dimensions      [0 2 -2 0 0 0 0];

internalField   nonuniform List<scalar> 
2625
(
-0.0342763
-0.0328889
-0.0315027
-0.0301183
-0.0287368
-0.0273594
-0.0259876
-0.0246229
-0.0232674
-0.0219232
-0.0205926
-0.0192783
-0.0179832
-0.0167103
-0.0154628
-0.014244
-0.0130574
-0.0119066
-0.0107951
-0.00972621
-0.00870343
-0.00772987
-0.00680841
-0.00594164
-0.00513171
-0.00438031
-0.00368864
-0.0030573
-0.00248629
-0.00197498
-0.00152213
-0.00112589
-0.000783796
-0.000492901
-0.00024978
-5.06434e-05
0.00010858
0.000232134
0.000324337
0.000389479
0.000431728
0.000455046
0.000463135
0.00045935
0.000446757
0.000427889
0.000405334
0.00038028
0.000356185
0.000329947
0.000313266
0.000282188
0.000295249
0.000221108
0.000359221
4.34187e-05
0.000747616
-0.0343206
-0.0329329
-0.0315462
-0.0301613
-0.0287793
-0.0274014
-0.0260289
-0.0246635
-0.0233073
-0.0219623
-0.0206308
-0.0193157
-0.0180196
-0.0167456
-0.015497
-0.0142771
-0.0130893
-0.0119372
-0.0108244
-0.0097542
-0.00873005
-0.00775509
-0.00683222
-0.00596402
-0.00515266
-0.00439985
-0.00370678
-0.00307406
-0.0025017
-0.0019891
-0.001535
-0.00113756
-0.000794342
-0.000502383
-0.000258269
-5.82096e-05
0.000101863
0.000226196
0.000319106
0.000384887
0.000427709
0.00045154
0.000460083
0.000456699
0.000444457
0.000425896
0.000403605
0.000378779
0.000354874
0.000328802
0.000312239
0.000281294
0.000294356
0.000220432
0.000358162
4.32646e-05
0.000745295
-0.0344087
-0.0330202
-0.0316326
-0.0302468
-0.0288638
-0.0274847
-0.0261109
-0.0247443
-0.0233865
-0.0220399
-0.0207068
-0.0193898
-0.0180918
-0.0168158
-0.015565
-0.0143428
-0.0131527
-0.0119981
-0.0108827
-0.00980982
-0.00878295
-0.00780522
-0.00687954
-0.00600851
-0.00519432
-0.0044387
-0.00374284
-0.00310739
-0.00253237
-0.00201719
-0.00156062
-0.00116081
-0.000815344
-0.000521272
-0.000275183
-7.32907e-05
8.84718e-05
0.000214351
0.000308668
0.00037572
0.000419685
0.000444535
0.000453983
0.000451398
0.000439857
0.000421908
0.000400144
0.000375774
0.00035225
0.000326509
0.000310182
0.000279503
0.000292571
0.000219081
0.000356049
4.29555e-05
0.000740674
-0.0345397
-0.03315
-0.0317611
-0.0303739
-0.0289892
-0.0276084
-0.0262328
-0.0248642
-0.0235043
-0.0221553
-0.0208197
-0.0195
-0.0181991
-0.0169201
-0.0156661
-0.0144405
-0.0132468
-0.0120886
-0.0109693
-0.00989254
-0.00886164
-0.00787979
-0.00694995
-0.00607473
-0.00525634
-0.00449653
-0.00379655
-0.00315704
-0.00257807
-0.00205906
-0.0015988
-0.00119547
-0.000846669
-0.000549454
-0.000300426
-9.5805e-05
6.84738e-05
0.000196657
0.000293071
0.000362019
0.000407687
0.000434059
0.000444859
0.000443467
0.000432972
0.000415937
0.000394963
0.000371274
0.000348319
0.000323075
0.000307103
0.000276822
0.000289899
0.000217059
0.000352891
4.2494e-05
0.000733776
-0.0347122
-0.0333208
-0.0319302
-0.030541
-0.0291543
-0.0277713
-0.0263933
-0.0250219
-0.0236592
-0.0223072
-0.0209683
-0.0196451
-0.0183404
-0.0170574
-0.0157992
-0.0145692
-0.0133708
-0.0122078
-0.0110835
-0.0100016
-0.00896537
-0.00797813
-0.00704282
-0.00616209
-0.00533818
-0.00457289
-0.00386748
-0.00322264
-0.00263846
-0.0021144
-0.00164929
-0.00124133
-0.000888123
-0.000586762
-0.000333855
-0.000125631
4.19718e-05
0.000173201
0.000272388
0.000343844
0.000391767
0.000420154
0.000432744
0.000432933
0.000423827
0.000408004
0.000388078
0.000365295
0.000343095
0.000318512
0.00030301
0.000273261
0.00028635
0.000214376
0.000348698
4.18838e-05
0.000724634
-0.0349242
-0.0335308
-0.032138
-0.0307465
-0.0293573
-0.0279714
-0.0265904
-0.0252159
-0.0238497
-0.0224939
-0.021151
-0.0198234
-0.0185142
-0.0172263
-0.0159629
-0.0147275
-0.0135235
-0.0123545
-0.0112241
-0.0101359
-0.0090932
-0.00809935
-0.00715734
-0.00626986
-0.00543918
-0.00466715
-0.00395507
-0.00330368
-0.0027131
-0.00218284
-0.00171175
-0.00129808
-0.000939449
-0.000632975
-0.000375283
-0.000162609
9.10035e-06
0.000144096
0.000246713
0.000321274
0.000371989
0.000402874
0.000417684
0.000419836
0.000412454
0.000398136
0.000379512
0.000357854
0.000336595
0.000312834
0.000297918
0.000268831
0.000281934
0.000211043
0.000343489
4.113e-05
0.000713291
-0.0351736
-0.0337778
-0.0323824
-0.0309881
-0.0295959
-0.0282068
-0.0268223
-0.025444
-0.0240737
-0.0227135
-0.0213658
-0.0200333
-0.0187187
-0.0174251
-0.0161557
-0.0149139
-0.0137033
-0.0125274
-0.0113899
-0.0102942
-0.00924397
-0.00824239
-0.00729253
-0.00639712
-0.00555851
-0.00477857
-0.00405866
-0.00339956
-0.00280146
-0.0022639
-0.00178578
-0.00136536
-0.00100034
-0.000687828
-0.00042448
-0.000206546
-2.99759e-05
0.000109479
0.000216162
0.000294406
0.000348436
0.000382287
0.000399736
0.000404222
0.00039889
0.000386366
0.000369293
0.000348977
0.000328838
0.00030606
0.000291842
0.000263549
0.000276668
0.000207073
0.00033728
4.02388e-05
0.000699801
-0.0354578
-0.0340592
-0.0326608
-0.0312634
-0.0298677
-0.0284749
-0.0270864
-0.0257038
-0.0243289
-0.0229637
-0.0216107
-0.0202725
-0.0189518
-0.0176518
-0.0163756
-0.0151267
-0.0139085
-0.0127248
-0.0115792
-0.0104752
-0.00941635
-0.008406
-0.00744724
-0.00654285
-0.00569522
-0.00490629
-0.00417747
-0.0035096
-0.00290292
-0.00235703
-0.00187088
-0.00144277
-0.00107043
-0.000751007
-0.00048118
-0.000257213
-7.50645e-05
6.95142e-05
0.000180872
0.000263353
0.000321203
0.000358473
0.000378966
0.000386146
0.000383184
0.000372733
0.000357454
0.000338691
0.00031985
0.000298211
0.0002848
0.000257431
0.000270568
0.000202483
0.000330096
3.92177e-05
0.000684226
-0.035774
-0.0343723
-0.0329706
-0.0315695
-0.03017
-0.0287732
-0.0273802
-0.0259928
-0.0246128
-0.0232421
-0.0218833
-0.0205387
-0.0192114
-0.0179042
-0.0166205
-0.0153637
-0.0141374
-0.012945
-0.0117905
-0.0106772
-0.00960888
-0.00858884
-0.00762022
-0.00670588
-0.00584825
-0.00504935
-0.00431063
-0.00363302
-0.0030168
-0.00246163
-0.00196652
-0.00152983
-0.00114931
-0.000822161
-0.000545081
-0.000314354
-0.000125948
2.43846e-05
0.000140997
0.000228247
0.000290397
0.000331522
0.000355449
0.000365673
0.000365388
0.000357281
0.000344033
0.000327029
0.000309657
0.000289312
0.000276816
0.0002505
0.000263653
0.000197291
0.000321963
3.80751e-05
0.000666638
-0.0361193
-0.0347141
-0.0333087
-0.0319037
-0.0305
-0.0290986
-0.0277009
-0.0263083
-0.0249227
-0.0235461
-0.0221808
-0.0208295
-0.0194949
-0.0181801
-0.0168883
-0.015623
-0.0143877
-0.0131861
-0.0120218
-0.0108986
-0.00981997
-0.00878941
-0.00781011
-0.00688496
-0.00601647
-0.0052067
-0.00445721
-0.00376897
-0.00314234
-0.00257703
-0.00207212
-0.00162602
-0.00123654
-0.000900906
-0.000615853
-0.000377686
-0.000182385
-2.57064e-05
9.67088e-05
0.00018923
0.000256139
0.000301535
0.000329271
0.000342872
0.000345562
0.000340062
0.000329072
0.000314027
0.000298292
0.00027939
0.000267913
0.000242778
0.000255946
0.00019152
0.000312909
3.68211e-05
0.000647116
-0.0364907
-0.0350816
-0.0336722
-0.0322629
-0.0308547
-0.0294484
-0.0280455
-0.0266473
-0.0252558
-0.0238728
-0.0225008
-0.0211423
-0.0198
-0.018477
-0.0171767
-0.0159023
-0.0146575
-0.0134459
-0.0122714
-0.0111375
-0.0100479
-0.00900617
-0.00801546
-0.00707876
-0.00619864
-0.00537726
-0.00461621
-0.00391656
-0.00327873
-0.00270251
-0.00218704
-0.0017308
-0.00133163
-0.000986827
-0.000693139
-0.000446904
-0.000244116
-8.05383e-05
4.81933e-05
0.00014646
0.000218562
0.000268623
0.000300523
0.000317822
0.000323771
0.00032113
0.000312618
0.000299727
0.000285789
0.000268479
0.000258119
0.000234292
0.000247471
0.000185191
0.000302966
3.54666e-05
0.000625747
-0.036885
-0.0354717
-0.0340579
-0.032644
-0.0312309
-0.0298195
-0.028411
-0.027007
-0.0256092
-0.0242196
-0.0228404
-0.0214743
-0.020124
-0.0187925
-0.0174831
-0.0161992
-0.0149445
-0.0137226
-0.0125372
-0.0113921
-0.0102911
-0.00923752
-0.00823479
-0.00728591
-0.00639353
-0.00555986
-0.00478659
-0.00407485
-0.00342514
-0.00283734
-0.00231064
-0.00184359
-0.00143409
-0.00107948
-0.000776561
-0.000521683
-0.000310866
-0.000139876
-4.35069e-06
0.000100104
0.000177806
0.000232904
0.000269306
0.000290606
0.000300085
0.000300546
0.000294723
0.000284172
0.000272186
0.00025661
0.000247464
0.000225071
0.000238254
0.000178333
0.000292169
3.40239e-05
0.000602624
-0.0372991
-0.0358813
-0.0344628
-0.033044
-0.0316258
-0.0302089
-0.0287947
-0.0273845
-0.0259801
-0.0245836
-0.023197
-0.021823
-0.0204643
-0.019124
-0.0178053
-0.0165116
-0.0152465
-0.0140139
-0.0128173
-0.0116606
-0.0105476
-0.00948181
-0.00846658
-0.00750501
-0.00659984
-0.00575334
-0.00496728
-0.00424288
-0.00358072
-0.00298074
-0.00244223
-0.00196379
-0.0015434
-0.00117843
-0.000865726
-0.000601687
-0.000382343
-0.000203474
-6.07137e-05
5.03398e-05
0.000134021
0.000194505
0.000235727
0.000261315
0.000274582
0.000278373
0.000275441
0.00026741
0.000257525
0.000243822
0.000235979
0.000215146
0.000228324
0.000170972
0.000280553
3.25065e-05
0.000577844
-0.0363074
-0.0348839
-0.03346
-0.0320363
-0.0306137
-0.0291934
-0.0277769
-0.0263658
-0.024962
-0.0235678
-0.0221858
-0.0208185
-0.0194691
-0.0181408
-0.0168371
-0.0155615
-0.0143178
-0.0131097
-0.0119412
-0.0108159
-0.00973743
-0.00870932
-0.00773467
-0.00681628
-0.00595651
-0.00515722
-0.00441968
-0.00374458
-0.00313194
-0.00258112
-0.00209079
-0.001659
-0.00128318
-0.000960229
-0.000686565
-0.00045825
-0.000271075
-0.000120678
-2.6483e-06
8.73637e-05
0.000153558
0.000199896
0.000230044
0.000247341
0.000254682
0.000254831
0.000249491
0.000241847
0.000230154
0.000223699
0.000204549
0.00021771
0.000163139
0.000268156
3.09293e-05
0.000551509
-0.0367472
-0.0353184
-0.033889
-0.0324596
-0.0310311
-0.0296046
-0.0281815
-0.0267635
-0.0253524
-0.0239504
-0.0225601
-0.0211841
-0.0198255
-0.0184875
-0.0171735
-0.0158872
-0.0146323
-0.0134125
-0.0122319
-0.0110941
-0.0100028
-0.00896152
-0.00797351
-0.00704159
-0.00616822
-0.00535533
-0.00460429
-0.00391586
-0.00329016
-0.00272661
-0.00222398
-0.00178037
-0.00139328
-0.00105966
-0.000775962
-0.000538278
-0.000342416
-0.000184019
-5.8669e-05
3.79965e-05
0.0001102
0.000161932
0.000196891
0.000218446
0.000229543
0.000232953
0.000230469
0.0002252
0.000215646
0.000210658
0.000193318
0.000206443
0.000154866
0.000255017
2.93083e-05
0.000523724
-0.037198
-0.0357637
-0.0343286
-0.0328933
-0.0314586
-0.0300257
-0.0285959
-0.0271707
-0.0257521
-0.0243423
-0.0229436
-0.0215589
-0.020191
-0.0188431
-0.0175189
-0.0162217
-0.0149555
-0.013724
-0.0125311
-0.0113806
-0.0102763
-0.00922176
-0.00822018
-0.00727453
-0.00638732
-0.00556058
-0.00479576
-0.00409371
-0.00345462
-0.00287802
-0.00236274
-0.00190697
-0.00150826
-0.0011636
-0.000869518
-0.000622119
-0.000417232
-0.000250507
-0.000117527
-1.39138e-05
6.45752e-05
0.000121954
0.000161959
0.000187986
0.000203032
0.000209873
0.0002104
0.00020763
0.000200344
0.000196894
0.000181488
0.000194555
0.000146187
0.000241174
2.76616e-05
0.000494594
-0.0376575
-0.0362173
-0.0347762
-0.0333348
-0.0318938
-0.0304543
-0.0290176
-0.0275852
-0.0261591
-0.0247413
-0.0233342
-0.0219406
-0.0205633
-0.0192057
-0.0178711
-0.0165631
-0.0152856
-0.0140423
-0.0128371
-0.011674
-0.0105566
-0.00948865
-0.00847341
-0.0075139
-0.00661272
-0.00577195
-0.00499316
-0.00427728
-0.00362458
-0.00303467
-0.00250648
-0.00203825
-0.00162763
-0.00127165
-0.000966875
-0.00070946
-0.000495252
-0.000319913
-0.000179023
-6.81979e-05
1.68267e-05
8.00864e-05
0.000125355
0.00015605
0.000175226
0.000185657
0.000189343
0.000189189
0.000184296
0.000182447
0.0001691
0.000182078
0.000137139
0.000226669
2.60085e-05
0.000464227
-0.0381234
-0.0366771
-0.0352298
-0.033782
-0.0323345
-0.0308882
-0.0294445
-0.0280049
-0.0265711
-0.0251453
-0.0237298
-0.0223273
-0.0209408
-0.0195734
-0.0182285
-0.0169097
-0.0156209
-0.0143658
-0.0131484
-0.0119727
-0.0108423
-0.0097609
-0.00873199
-0.00775858
-0.00684336
-0.0059885
-0.00519563
-0.00446577
-0.0037993
-0.00319591
-0.0026546
-0.00217371
-0.00175093
-0.00138339
-0.00106768
-0.000799992
-0.000576209
-0.000392003
-0.000242958
-0.000124684
-3.28975e-05
3.64554e-05
8.7186e-05
0.00012273
0.000146205
0.000160372
0.000167357
0.000169926
0.000167544
0.000167354
0.000156194
0.000169047
0.000127761
0.000211539
2.43707e-05
0.000432729
-0.0385939
-0.0371412
-0.0356874
-0.0342331
-0.0327789
-0.0313257
-0.0298749
-0.0284279
-0.0269864
-0.0255526
-0.0241287
-0.0227174
-0.0213216
-0.0199445
-0.0185894
-0.01726
-0.0159599
-0.0146932
-0.0134637
-0.0122754
-0.011132
-0.0100373
-0.00899479
-0.00800753
-0.00707828
-0.0062093
-0.00540231
-0.00465842
-0.00397809
-0.0033611
-0.00280654
-0.00231283
-0.00187773
-0.00149843
-0.00117158
-0.000893412
-0.000659836
-0.000466547
-0.000309132
-0.0001832
-8.44496e-05
-8.81179e-06
4.75624e-05
8.81223e-05
0.000116053
0.00013409
0.000144505
0.000149896
0.00015014
0.000151658
0.000142816
0.000155493
0.000118092
0.000195824
2.2772e-05
0.000400202
-0.0390675
-0.0376081
-0.0361476
-0.0346865
-0.0332254
-0.0317652
-0.0303072
-0.0288527
-0.0274035
-0.0259617
-0.0245294
-0.0231093
-0.0217043
-0.0203176
-0.0189524
-0.0176124
-0.0163014
-0.0150231
-0.0137816
-0.0125809
-0.0114247
-0.0103168
-0.00926079
-0.00825976
-0.00731656
-0.00643352
-0.00561244
-0.00485452
-0.0041603
-0.00352966
-0.00296177
-0.00245513
-0.00200759
-0.00161639
-0.00127824
-0.000989419
-0.000745874
-0.000543318
-0.000377348
-0.000243574
-0.000137681
-5.55867e-05
6.59499e-06
5.2321e-05
8.48502e-05
0.000106882
0.000120852
0.000129151
0.000132137
0.000135398
0.000129008
0.000141451
0.000108175
0.00017956
2.12389e-05
0.000366746
-0.0380765
-0.036609
-0.0351409
-0.0336728
-0.0322055
-0.0307401
-0.0292781
-0.0278211
-0.0263712
-0.0249306
-0.0235018
-0.0220877
-0.0206914
-0.0193163
-0.0179659
-0.016644
-0.0153544
-0.0141012
-0.0128882
-0.0117193
-0.0105985
-0.00952906
-0.00851442
-0.00755739
-0.00666039
-0.0058253
-0.0050534
-0.00434532
-0.00370102
-0.00311978
-0.00260016
-0.00214009
-0.00173689
-0.00138732
-0.00108772
-0.000834066
-0.000622092
-0.000447411
-0.000305637
-0.000192443
-0.000103741
-3.56046e-05
1.54228e-05
5.26829e-05
7.88193e-05
9.64605e-05
0.000107747
0.000113587
0.000118617
0.000114818
0.000126951
9.80568e-05
0.000162781
1.98011e-05
0.000332456
-0.0385454
-0.0370708
-0.0355955
-0.0341201
-0.0326454
-0.0311726
-0.029703
-0.0282382
-0.0267802
-0.0253313
-0.0238938
-0.0224707
-0.021065
-0.0196801
-0.0183195
-0.0169869
-0.0156862
-0.0144213
-0.0131963
-0.012015
-0.0108813
-0.00979879
-0.00877071
-0.00780002
-0.00688921
-0.00604023
-0.00525444
-0.00453258
-0.00387467
-0.00328009
-0.00274748
-0.00227485
-0.00185959
-0.00149853
-0.00118805
-0.000924165
-0.00070265
-0.000519128
-0.00036922
-0.00024859
-0.000153148
-7.89253e-05
-2.24759e-05
1.96354e-05
4.99755e-05
7.13984e-05
8.57375e-05
9.45437e-05
0.000101355
0.000100296
0.000112025
8.77837e-05
0.000145519
1.84925e-05
0.000297419
-0.0390143
-0.0375321
-0.0360494
-0.0345665
-0.0330843
-0.031604
-0.0301266
-0.028654
-0.0271879
-0.0257307
-0.0242846
-0.0228526
-0.0214376
-0.020043
-0.0186723
-0.0173292
-0.0160175
-0.0147413
-0.0135045
-0.012311
-0.0111647
-0.0100693
-0.00902796
-0.0080438
-0.00711936
-0.00625664
-0.00545711
-0.00472156
-0.00405013
-0.00344225
-0.00289668
-0.0024115
-0.00198415
-0.00161155
-0.00129012
-0.00101593
-0.000784783
-0.000592312
-0.000434161
-0.000305978
-0.000203681
-0.000123256
-6.12791e-05
-1.4207e-05
2.04234e-05
4.57321e-05
6.31783e-05
7.5062e-05
8.36518e-05
8.549e-05
9.67022e-05
7.74072e-05
0.000127802
1.7351e-05
0.000261714
-0.0394826
-0.0379927
-0.0365022
-0.0350117
-0.0335219
-0.0320337
-0.0305486
-0.029068
-0.0275938
-0.0261282
-0.0246736
-0.0232327
-0.0218085
-0.0204044
-0.0190237
-0.0176703
-0.0163479
-0.0150605
-0.0138121
-0.0126067
-0.0114481
-0.0103399
-0.00928558
-0.00828818
-0.00735029
-0.00647403
-0.0056609
-0.00491181
-0.00422696
-0.00360588
-0.0030474
-0.00254969
-0.00211027
-0.00172611
-0.0013937
-0.00110914
-0.000868285
-0.000666784
-0.000500297
-0.000364465
-0.000255216
-0.000168488
-0.000100891
-4.87591e-05
-9.76406e-06
1.9529e-05
4.01239e-05
5.51989e-05
6.55487e-05
7.04545e-05
8.10093e-05
6.69816e-05
0.000109651
1.64207e-05
0.000225409
-0.0399503
-0.0384524
-0.0369539
-0.0354555
-0.0339578
-0.0324617
-0.0309686
-0.02948
-0.0279976
-0.0265236
-0.0250604
-0.0236107
-0.0221774
-0.0207638
-0.0193734
-0.0180098
-0.0166768
-0.0153785
-0.0141188
-0.0129016
-0.0117308
-0.0106102
-0.00954309
-0.00853266
-0.00758155
-0.00669193
-0.00586539
-0.00510291
-0.00440477
-0.0037706
-0.0031993
-0.00268911
-0.00223764
-0.00184193
-0.00149853
-0.00120358
-0.000952963
-0.000742369
-0.000567475
-0.000423913
-0.000307631
-0.000214512
-0.000141218
-8.39358e-05
-4.05147e-05
-7.14289e-06
1.66285e-05
3.50118e-05
4.70839e-05
5.52439e-05
6.49702e-05
5.65655e-05
9.10833e-05
1.57521e-05
0.000188562
-0.0389111
-0.0374045
-0.0358979
-0.034392
-0.0328879
-0.0313867
-0.0298899
-0.0283992
-0.0269168
-0.025445
-0.0239865
-0.0225441
-0.0211211
-0.019721
-0.0183474
-0.017004
-0.0156949
-0.014424
-0.0131953
-0.0120126
-0.0108797
-0.00980009
-0.00877686
-0.00781274
-0.00690997
-0.00607021
-0.0052945
-0.00458323
-0.00393608
-0.00335205
-0.00282947
-0.00236601
-0.00195878
-0.00160439
-0.00129903
-0.00103863
-0.000818899
-0.000635545
-0.000484188
-0.000360808
-0.000261222
-0.000182166
-0.000119653
-7.17571e-05
-3.42154e-05
-7.25477e-06
1.45594e-05
2.82905e-05
3.99155e-05
4.86054e-05
4.6222e-05
7.21092e-05
1.54038e-05
0.000151215
-0.0393694
-0.0378542
-0.0363391
-0.0348249
-0.0333125
-0.031803
-0.0302978
-0.0287987
-0.0273078
-0.0258273
-0.0243599
-0.0229085
-0.0214762
-0.0200665
-0.0186829
-0.0173293
-0.0160095
-0.0147276
-0.0134875
-0.0122932
-0.0111483
-0.0100563
-0.00902048
-0.00804356
-0.00712783
-0.00627503
-0.00548628
-0.00476202
-0.00410204
-0.0035054
-0.00297052
-0.00249513
-0.00207643
-0.00171107
-0.0013953
-0.00112511
-0.000896214
-0.000704363
-0.000545161
-0.000414631
-0.000308514
-0.000223645
-0.000155828
-0.000103421
-6.16199e-05
-3.14737e-05
-6.09784e-06
9.20866e-06
2.45296e-05
3.19307e-05
3.602e-05
5.27294e-05
1.54445e-05
0.000113393
-0.0398274
-0.0383034
-0.0367797
-0.0352569
-0.0337358
-0.0322178
-0.0307041
-0.0291964
-0.0276969
-0.0262076
-0.0247313
-0.0232708
-0.0218291
-0.0204098
-0.0190164
-0.0176525
-0.0163223
-0.0150295
-0.0137783
-0.0125724
-0.0114156
-0.0103115
-0.00926328
-0.00827375
-0.00734527
-0.00647961
-0.00567798
-0.0049409
-0.00426822
-0.0036591
-0.00311201
-0.00262478
-0.00219466
-0.00181837
-0.00149222
-0.00121224
-0.000974164
-0.000773791
-0.000606707
-0.000468989
-0.000356287
-0.000265566
-0.000192377
-0.000135438
-8.9288e-05
-5.59784e-05
-2.68989e-05
-1.01326e-05
9.1497e-06
1.49565e-05
2.60348e-05
3.29353e-05
1.59544e-05
7.51034e-05
-0.040286
-0.0387528
-0.0372201
-0.0356883
-0.0341585
-0.0326316
-0.0311092
-0.0295928
-0.0280844
-0.0265862
-0.0251009
-0.0236311
-0.0221801
-0.0207512
-0.0193479
-0.0179739
-0.0166332
-0.0153297
-0.0140674
-0.0128501
-0.0116816
-0.0105655
-0.0095051
-0.00850315
-0.00756208
-0.00668374
-0.0058694
-0.00511965
-0.00443441
-0.00381293
-0.00325374
-0.00275476
-0.00231328
-0.00192612
-0.00158962
-0.00129986
-0.0010526
-0.000843699
-0.000668706
-0.000523774
-0.000404443
-0.000307844
-0.00022922
-0.000167742
-0.000117151
-8.07205e-05
-4.77809e-05
-2.97059e-05
-6.15728e-06
-2.31355e-06
1.63494e-05
1.27062e-05
1.70282e-05
3.63316e-05
-0.0392031
-0.037661
-0.03612
-0.0345811
-0.0330451
-0.0315137
-0.0299882
-0.0284708
-0.0269636
-0.0254691
-0.02399
-0.0225295
-0.0210909
-0.0196777
-0.0182936
-0.0169425
-0.0156283
-0.0143549
-0.0131263
-0.0119463
-0.0108184
-0.00974586
-0.00873163
-0.00777812
-0.00688726
-0.00606036
-0.00529808
-0.00460043
-0.0039667
-0.00339553
-0.00288488
-0.00243213
-0.00203415
-0.00168734
-0.00138782
-0.0011314
-0.000913964
-0.000731044
-0.000578885
-0.000452885
-0.000350396
-0.000266277
-0.000200267
-0.000145141
-0.000105655
-6.86794e-05
-4.94874e-05
-2.13262e-05
-1.98819e-05
7.05614e-06
-7.9922e-06
1.87775e-05
-2.96285e-06
-0.0396549
-0.0381032
-0.0365527
-0.0350043
-0.033459
-0.0319182
-0.0303835
-0.0288568
-0.0273403
-0.0258364
-0.0243478
-0.0228778
-0.0214294
-0.0200062
-0.0186119
-0.0172503
-0.0159254
-0.0146411
-0.0134012
-0.0122097
-0.01107
-0.00998552
-0.00895912
-0.00799332
-0.00709007
-0.00625074
-0.00547607
-0.00476612
-0.00412027
-0.00353721
-0.00301499
-0.00255105
-0.00214231
-0.00178523
-0.001476
-0.00121042
-0.000984464
-0.00079361
-0.000634219
-0.000501521
-0.000393138
-0.000303468
-0.000232951
-0.000173187
-0.000130737
-8.95265e-05
-6.94564e-05
-3.62682e-05
-3.77573e-05
-1.74073e-06
-2.92101e-05
2.13351e-05
-4.28486e-05
-0.0401092
-0.0385475
-0.0369871
-0.0354289
-0.033874
-0.0323236
-0.0307793
-0.029243
-0.0277169
-0.0262034
-0.0247052
-0.0232253
-0.021767
-0.0203337
-0.0189291
-0.017557
-0.0162213
-0.014926
-0.0136749
-0.0124719
-0.0113205
-0.0102241
-0.00918563
-0.00820762
-0.00729208
-0.00644043
-0.00565348
-0.00493135
-0.00427348
-0.00367864
-0.00314494
-0.00266988
-0.00225046
-0.00188316
-0.00156425
-0.00128954
-0.00105508
-0.000856292
-0.000689679
-0.000550254
-0.000435991
-0.000340713
-0.000265732
-0.000201218
-0.000155927
-0.000110252
-8.95983e-05
-5.09057e-05
-5.59616e-05
-9.9244e-06
-5.10164e-05
2.48578e-05
-8.34266e-05
-0.0405669
-0.0389949
-0.0374243
-0.035856
-0.034291
-0.0327306
-0.0311765
-0.0296303
-0.0280943
-0.0265709
-0.0250627
-0.0235728
-0.0221043
-0.0206607
-0.0192456
-0.0178629
-0.0165164
-0.01521
-0.0139476
-0.0127331
-0.01157
-0.0104617
-0.00941121
-0.00842105
-0.0074933
-0.00662943
-0.00583029
-0.00509607
-0.00442628
-0.00381975
-0.00327465
-0.00278855
-0.00235851
-0.00198105
-0.00165251
-0.00136869
-0.00112575
-0.000919024
-0.000745201
-0.000599024
-0.000478902
-0.000377954
-0.000298569
-0.000229177
-0.000181199
-0.000130792
-0.000109912
-6.51556e-05
-7.4536e-05
-1.73677e-05
-7.35019e-05
2.95287e-05
-0.000124835
-0.0394462
-0.037865
-0.0362863
-0.0347109
-0.0331402
-0.0315757
-0.0300193
-0.0284731
-0.0269394
-0.025421
-0.0239208
-0.0224419
-0.0209877
-0.019562
-0.0181684
-0.0168109
-0.0154933
-0.0142196
-0.0129935
-0.0118187
-0.0106985
-0.00963602
-0.00863376
-0.00769386
-0.00681783
-0.00600658
-0.00526036
-0.00457874
-0.0039606
-0.00340418
-0.00290711
-0.0024665
-0.00207893
-0.00174079
-0.00144789
-0.00119649
-0.00098182
-0.0008008
-0.000647833
-0.000521876
-0.000415179
-0.000331462
-0.000257037
-0.000206557
-0.000151099
-0.00013042
-7.89367e-05
-9.35398e-05
-2.3933e-05
-9.67865e-05
3.55633e-05
-0.000167255
-0.0399014
-0.0383094
-0.0367198
-0.0351336
-0.0335522
-0.0319771
-0.0304101
-0.0288533
-0.0273091
-0.0257801
-0.0242692
-0.0227797
-0.0213148
-0.0198781
-0.0184736
-0.0171049
-0.015776
-0.0144908
-0.0132531
-0.0120665
-0.0109344
-0.00985989
-0.00884555
-0.00789353
-0.0070054
-0.00618211
-0.00542396
-0.00473059
-0.00410091
-0.00353326
-0.00302528
-0.00257419
-0.00217654
-0.00182886
-0.00152691
-0.00126709
-0.00104447
-0.000856288
-0.000696505
-0.000564764
-0.000452243
-0.000364303
-0.000284674
-0.000231937
-0.000171059
-0.000151107
-9.21199e-05
-0.000113033
-2.9436e-05
-0.000121022
4.32451e-05
-0.000210932
-0.0403609
-0.0387577
-0.037157
-0.0355598
-0.0339673
-0.0323813
-0.0308034
-0.0292357
-0.0276806
-0.0261407
-0.0246188
-0.0231182
-0.0216422
-0.0201944
-0.0187785
-0.0173983
-0.0160578
-0.0147609
-0.0135113
-0.0123127
-0.0111685
-0.0100818
-0.00905526
-0.00809102
-0.00719069
-0.00635531
-0.00558521
-0.00488008
-0.00423891
-0.00366008
-0.00314128
-0.00267978
-0.00227219
-0.00191509
-0.00160421
-0.00133612
-0.00110569
-0.000910501
-0.000743998
-0.000606666
-0.000488353
-0.000396443
-0.000311514
-0.000256917
-0.000190261
-0.000171755
-0.000104389
-0.000132985
-3.35676e-05
-0.000146369
5.29759e-05
-0.000256172
-0.0392191
-0.0376069
-0.0359982
-0.0343943
-0.0327968
-0.0312073
-0.0296281
-0.0280614
-0.0265098
-0.0249763
-0.0234639
-0.021976
-0.0205161
-0.019088
-0.0176956
-0.0163427
-0.0150332
-0.013771
-0.0125597
-0.0114028
-0.0103033
-0.00926393
-0.00828696
-0.00737403
-0.0065262
-0.00574387
-0.00502679
-0.00437398
-0.0037839
-0.00325426
-0.00278242
-0.00236496
-0.00199859
-0.00167893
-0.00140276
-0.00116469
-0.000962744
-0.00078968
-0.000647035
-0.000523018
-0.000427488
-0.000337189
-0.000281241
-0.000208429
-0.000192234
-0.000115517
-0.000153388
-3.60885e-05
-0.000172948
6.5047e-05
-0.000303233
-0.0397049
-0.03808
-0.0364587
-0.0348421
-0.033232
-0.0316299
-0.0300381
-0.0284589
-0.0268948
-0.0253488
-0.0238238
-0.0223234
-0.020851
-0.0194104
-0.0180054
-0.0166399
-0.0153177
-0.0140429
-0.0128189
-0.0116493
-0.0105372
-0.00948521
-0.00849571
-0.00757035
-0.00671021
-0.00591574
-0.00518671
-0.00452218
-0.00392066
-0.00337987
-0.00289726
-0.00246938
-0.00209309
-0.00176389
-0.00147884
-0.00123222
-0.00102264
-0.000842043
-0.00069325
-0.000562549
-0.000462733
-0.000366079
-0.000308428
-0.000228379
-0.000214655
-0.000127165
-0.000175287
-3.79206e-05
-0.000200952
7.87648e-05
-0.000352123
-0.0401392
-0.0385017
-0.036868
-0.0352396
-0.0336178
-0.0320047
-0.0304023
-0.0288128
-0.027239
-0.0256836
-0.0241498
-0.0226408
-0.0211603
-0.0197118
-0.0182992
-0.0169263
-0.0155969
-0.0143148
-0.0130837
-0.0119068
-0.0107873
-0.00972776
-0.00873038
-0.00779681
-0.00692807
-0.00612457
-0.00538605
-0.00471157
-0.00409965
-0.00354804
-0.00305427
-0.00261493
-0.00222707
-0.00188617
-0.00158965
-0.00133156
-0.00111124
-0.000919834
-0.000761724
-0.000621077
-0.000514124
-0.000408104
-0.000346538
-0.000256529
-0.000243976
-0.000143074
-0.000201368
-4.09053e-05
-0.000231505
9.35443e-05
-0.000403614
-0.0403708
-0.0387269
-0.0370871
-0.0354526
-0.0338252
-0.0322067
-0.0305992
-0.029005
-0.0274267
-0.0258671
-0.0243294
-0.0228168
-0.0213327
-0.0198809
-0.018465
-0.017089
-0.0157565
-0.0144712
-0.0132368
-0.0120566
-0.0109335
-0.00987017
-0.00886877
-0.00793089
-0.00705754
-0.00624909
-0.00550531
-0.00482524
-0.00420744
-0.00364964
-0.0031495
-0.00270354
-0.00230905
-0.00196131
-0.00165826
-0.00139337
-0.00116705
-0.000969028
-0.000805999
-0.000658799
-0.000548805
-0.000435618
-0.000374246
-0.000274676
-0.000268258
-0.00015139
-0.000227475
-3.60215e-05
-0.000268
0.000120625
-0.000463572
-0.0407733
-0.0391208
-0.0374701
-0.0358227
-0.03418
-0.0325438
-0.0309161
-0.0292992
-0.0276957
-0.0261085
-0.0245407
-0.0229958
-0.0214775
-0.0199896
-0.0185362
-0.0171215
-0.0157496
-0.0144248
-0.0131512
-0.0119325
-0.0107725
-0.00967434
-0.00864081
-0.0076741
-0.00677583
-0.00594683
-0.00518732
-0.00449659
-0.00387342
-0.00331548
-0.00282039
-0.00238417
-0.00200392
-0.00167393
-0.00139205
-0.00115003
-0.000948933
-0.0007755
-0.000639018
-0.000514654
-0.000430716
-0.000335228
-0.000299415
-0.000208661
-0.000230211
-0.000107684
-0.000221883
3.99837e-07
-0.000296183
0.000170779
-0.0005168
-0.0407634
-0.0391122
-0.0374626
-0.035816
-0.0341738
-0.0325378
-0.0309099
-0.0292925
-0.0276882
-0.0260999
-0.0245307
-0.0229841
-0.0214638
-0.0199737
-0.0185178
-0.0171004
-0.0157257
-0.0143979
-0.0131212
-0.0118995
-0.0107365
-0.00963554
-0.00859943
-0.00763045
-0.00673028
-0.00589984
-0.0051394
-0.0044483
-0.00382535
-0.00326822
-0.00277454
-0.00234027
-0.00196253
-0.00163539
-0.00135685
-0.0011182
-0.000920948
-0.000750916
-0.000618511
-0.000496992
-0.000417317
-0.000323403
-0.000292451
-0.000200931
-0.00022919
-0.000101601
-0.000227179
8.41654e-06
-0.000309902
0.000186399
-0.000540023
-0.04074
-0.0390902
-0.0374421
-0.0357971
-0.0341567
-0.0325225
-0.0308967
-0.0292815
-0.0276796
-0.0260938
-0.0245273
-0.0229835
-0.0214661
-0.0199789
-0.0185261
-0.0171117
-0.01574
-0.0144151
-0.0131412
-0.0119221
-0.0107616
-0.00966276
-0.00862853
-0.0076611
-0.00676214
-0.00593253
-0.00517253
-0.00448147
-0.00385821
-0.00330038
-0.00280569
-0.00237008
-0.00199078
-0.00166182
-0.0013814
-0.00114063
-0.000941433
-0.000769134
-0.000635011
-0.00051112
-0.000430311
-0.000333743
-0.000302773
-0.000207736
-0.00023807
-0.000104735
-0.000236442
1.00136e-05
-0.000322323
0.000195274
-0.000560329
-0.0407423
-0.0390932
-0.0374457
-0.0358015
-0.0341619
-0.0325287
-0.030904
-0.02929
-0.0276895
-0.0261051
-0.0245402
-0.0229981
-0.0214825
-0.0199971
-0.0185461
-0.0171336
-0.0157637
-0.0144407
-0.0131684
-0.011951
-0.0107918
-0.00969423
-0.00866099
-0.0076943
-0.00679579
-0.00596634
-0.00520621
-0.00451471
-0.00389071
-0.00333186
-0.00283591
-0.00239878
-0.00201782
-0.00168699
-0.00140468
-0.00116184
-0.000960766
-0.000786299
-0.000650555
-0.000524419
-0.000442572
-0.000343492
-0.000312569
-0.000214173
-0.000246579
-0.000107702
-0.000245411
1.15711e-05
-0.000334432
0.000203851
-0.000580301
-0.0407502
-0.0391016
-0.0374546
-0.0358109
-0.0341719
-0.0325393
-0.0309153
-0.0293021
-0.0277024
-0.026119
-0.024555
-0.0230139
-0.0214993
-0.020015
-0.0185651
-0.0171537
-0.0157848
-0.0144628
-0.0131914
-0.0119748
-0.0108163
-0.00971924
-0.00868637
-0.00771988
-0.00682138
-0.00599175
-0.00523126
-0.0045392
-0.00391447
-0.00335472
-0.00285773
-0.00241942
-0.00203723
-0.00170502
-0.0014214
-0.00117707
-0.000974749
-0.000798739
-0.000662006
-0.000534209
-0.000451905
-0.0003508
-0.000320432
-0.000219025
-0.000253949
-0.000109701
-0.000253853
1.37226e-05
-0.000346511
0.000212921
-0.00060034
-0.0407562
-0.039108
-0.0374616
-0.0358185
-0.0341801
-0.0325482
-0.0309249
-0.0293124
-0.0277135
-0.026131
-0.024568
-0.0230279
-0.0215144
-0.0200311
-0.0185823
-0.0171719
-0.0158041
-0.0144829
-0.0132125
-0.0119966
-0.0108388
-0.00974223
-0.00870972
-0.00774342
-0.00684495
-0.00601517
-0.00525434
-0.00456177
-0.00393638
-0.0033758
-0.00287787
-0.00243848
-0.00205515
-0.0017217
-0.00143687
-0.0011912
-0.000987752
-0.000810324
-0.000672718
-0.000543374
-0.000460712
-0.000357681
-0.000327944
-0.000223606
-0.000261099
-0.000111549
-0.00026216
1.59306e-05
-0.000358503
0.00022197
-0.000620247
-0.0407608
-0.0391132
-0.0374674
-0.0358249
-0.0341871
-0.0325559
-0.0309333
-0.0293217
-0.0277237
-0.0261422