0 	0.525939 	1.249e-17 	-0.579406
0 	0.57878 	1.249e-17 	-0.504775
0 	0.633585 	1.249e-17 	-0.483681
0 	0.690426 	1.11022e-17 	-0.440217
0 	0.749378 	9.71445e-18 	-0.409305
0 	0.810522 	9.71445e-18 	-0.3731
0 	0.873937 	9.71445e-18 	-0.339853
0 	0.939708 	1.11022e-17 	-0.306285
