0 	0.525939 	1.249e-17 	0.123123 	0.00261885 	4.91599e-21
0 	0.57878 	1.249e-17 	0.326436 	0.0232096 	-1.10913e-21
0 	0.633585 	1.249e-17 	0.502783 	0.0584687 	-2.35755e-21
0 	0.690426 	1.11022e-17 	0.654969 	0.0954107 	-1.48461e-22
0 	0.749378 	9.71445e-18 	0.785558 	0.13303 	-3.95554e-21
0 	0.810522 	9.71445e-18 	0.89601 	0.166703 	-4.56021e-21
0 	0.873937 	9.71445e-18 	0.987876 	0.195593 	3.22264e-21
0 	0.939708 	1.11022e-17 	1.06265 	0.218367 	2.99685e-21
