-0.37194 	0.37194 	1.17961e-17 	0.120945 	0.116393 	8.02077e-20
-0.409303 	0.409303 	7.63278e-18 	0.300136 	0.273324 	-2.22441e-20
-0.448053 	0.448053 	1.35308e-17 	0.444209 	0.377825 	7.23086e-20
-0.488244 	0.488244 	2.56739e-17 	0.556881 	0.442957 	5.86629e-20
-0.529927 	0.529927 	3.33067e-17 	0.646501 	0.477303 	1.53891e-20
-0.573159 	0.573159 	3.88578e-17 	0.716652 	0.48899 	9.7335e-21
-0.617998 	0.617998 	3.19189e-17 	0.771901 	0.484093 	-1.97097e-19
-0.664503 	0.664503 	-7.63278e-18 	0.815251 	0.467946 	-5.27929e-20
