/*--------------------------------*- C++ -*----------------------------------*\
  =========                 |
  \\      /  F ield         | OpenFOAM: The Open Source CFD Toolbox
   \\    /   O peration     | Website:  https://openfoam.org
    \\  /    A nd           | Version:  7
     \\/     M anipulation  |
\*---------------------------------------------------------------------------*/
FoamFile
{
    version     2.0;
    format      ascii;
    class       volScalarField;
    location    "15";
    object      p;
}
// * * * * * * * * * * * * * * * * * * * * * * * * * * * * * * * * * * * * * //

dimensions      [0 2 -2 0 0 0 0];

internalField   nonuniform List<scalar> 
2625
(
-0.0231206
-0.0184448
-0.013672
-0.00880751
-0.00385691
0.00117374
0.00627803
0.0114493
0.0166806
0.0219648
0.0272926
0.0326575
0.0380514
0.00786328
0.00276015
-0.00227904
-0.00724441
-0.0121272
-0.0169187
-0.0216108
-0.0261958
-0.030667
-0.0350181
-0.0392435
-0.0433384
-0.0472989
-0.0511217
-0.054804
-0.0583439
0.00794138
0.00284965
-0.00217634
-0.00712684
-0.0119933
-0.0167671
-0.0214403
-0.0260057
-0.0304564
-0.0347864
-0.0389904
-0.0430638
-0.0470025
-0.0508034
-0.0544641
-0.0579824
0.00802148
0.00294763
-0.00205996
-0.00699161
-0.0118389
-0.0165933
-0.0212472
-0.0257932
-0.0302247
-0.0345359
-0.0387215
-0.042777
-0.0466985
-0.0504828
-0.0541276
-0.0576309
-0.0609916
0.00809981
0.00304015
-0.00195329
-0.00687085
-0.0117042
-0.0164448
-0.021085
-0.0256176
-0.0300361
-0.0343345
-0.0385076
-0.0425509
-0.0464606
-0.0502335
-0.0538673
-0.05736
-0.0607105
0.00817704
0.00313017
-0.00185048
-0.00675531
-0.011576
-0.016304
-0.0209318
-0.0254521
-0.0298584
-0.0341448
-0.0383061
-0.0423378
-0.0462361
-0.0499978
-0.0536206
-0.0571025
-0.0604426
-0.0636399
0.00825369
0.00321972
-0.001748
-0.00663987
-0.0114476
-0.0161627
-0.0207777
-0.0252852
-0.0296789
-0.0339529
-0.0381018
-0.0421214
-0.0460077
-0.0497576
-0.0533689
-0.0568395
-0.0601685
-0.063355
0.00832977
0.00330883
-0.0016458
-0.00652456
-0.0113192
-0.0160212
-0.0206232
-0.0251179
-0.0294988
-0.0337602
-0.0378967
-0.041904
-0.0457783
-0.0495165
-0.0531161
-0.0565755
-0.0598934
-0.0630692
-0.0661028
0.00840521
0.00339729
-0.00154427
-0.00640995
-0.0111915
-0.0158806
-0.0204696
-0.0249515
-0.0293198
-0.0335686
-0.0376928
-0.041688
-0.0455504
-0.0492769
-0.0528652
-0.0563134
-0.0596204
-0.0627857
-0.0658091
0.00847997
0.00348504
-0.0014435
-0.00629616
-0.0110647
-0.0157409
-0.0203171
-0.0247862
-0.0291419
-0.0333784
-0.0374904
-0.0414736
-0.0453242
-0.0490391
-0.0526161
-0.0560532
-0.0593495
-0.0625043
-0.0655176
0.00855405
0.00357207
-0.0013435
-0.00618318
-0.0109388
-0.015602
-0.0201655
-0.024622
-0.0289652
-0.0331893
-0.0372892
-0.0412604
-0.0450993
-0.0488028
-0.0523686
-0.0557948
-0.0590804
-0.0622248
-0.065228
-0.0680903
0.00862743
0.00365836
-0.00124427
-0.006071
-0.0108137
-0.0154641
-0.0200149
-0.0244588
-0.0287896
-0.0330014
-0.0370892
-0.0410486
-0.0448759
-0.048568
-0.0521226
-0.055538
-0.058813
-0.0619472
-0.0649404
-0.067793
0.00870008
0.00374389
-0.00114582
-0.00595966
-0.0106895
-0.0153272
-0.0198652
-0.0242966
-0.028615
-0.0328147
-0.0368905
-0.0408382
-0.0446539
-0.0483348
-0.0518784
-0.0552829
-0.0585475
-0.0616714
-0.0646547
-0.0674979
-0.0702018
0.00877199
0.00382866
-0.00104819
-0.00584918
-0.0105662
-0.0151912
-0.0197166
-0.0241356
-0.0284417
-0.0326292
-0.0366932
-0.0406292
-0.0444335
-0.0481031
-0.0516358
-0.0550297
-0.0582838
-0.0613977
-0.0643712
-0.0672049
-0.0698998
0.00884315
0.00391262
-0.000951396
-0.00573958
-0.0104439
-0.0150562
-0.0195691
-0.0239756
-0.0282695
-0.0324451
-0.0364972
-0.0404216
-0.0442146
-0.0478731
-0.051395
-0.0547783
-0.0580222
-0.061126
-0.0640899
-0.0669142
-0.0696001
-0.0721489
0.00891352
0.00399577
-0.000855458
-0.00563088
-0.0103225
-0.0149222
-0.0194226
-0.0238168
-0.0280986
-0.0322622
-0.0363026
-0.0402155
-0.0439973
-0.0476448
-0.0511559
-0.0545288
-0.0577625
-0.0608565
-0.0638108
-0.0666259
-0.0693028
-0.0718431
-0.0742486
0.00898309
0.00407809
-0.0007604
-0.00552311
-0.0102021
-0.0147892
-0.0192773
-0.0236592
-0.0279289
-0.0320807
-0.0361095
-0.040011
-0.0437816
-0.0474183
-0.0509187
-0.0542813
-0.0575049
-0.0605891
-0.0635339
-0.0663399
-0.0690081
-0.0715399
-0.0739374
0.00905184
0.00415954
-0.000666245
-0.0054163
-0.0100827
-0.0146573
-0.019133
-0.0235028
-0.0277605
-0.0319005
-0.0359178
-0.039808
-0.0435676
-0.0471935
-0.0506835
-0.0540358
-0.0572495
-0.060324
-0.0632594
-0.0660564
-0.0687159
-0.0712394
-0.0736289
-0.0758868
0.00911975
0.00424011
-0.000573015
-0.00531046
-0.00996431
-0.0145266
-0.01899
-0.0233477
-0.0275935
-0.0317218
-0.0357276
-0.0396066
-0.0433553
-0.0469705
-0.0504501
-0.0537923
-0.0569962
-0.0600612
-0.0629874
-0.0657754
-0.0684263
-0.0709416
-0.0733233
-0.0755737
0.0091868
0.00431978
-0.000480735
-0.00520562
-0.009847
-0.0143969
-0.0188481
-0.0231938
-0.0274278
-0.0315445
-0.035539
-0.0394069
-0.0431447
-0.0467494
-0.0502188
-0.053551
-0.0567451
-0.0598007
-0.0627178
-0.065497
-0.0681395
-0.0706466
-0.0730206
-0.0752637
-0.0773787
0.00925297
0.00439853
-0.000389428
-0.00510181
-0.00973078
-0.0142684
-0.0187075
-0.0230412
-0.0272635
-0.0313687
-0.0353519
-0.0392089
-0.042936
-0.0465303
-0.0499895
-0.0533118
-0.0564964
-0.0595427
-0.0624508
-0.0652214
-0.0678554
-0.0703546
-0.0727209
-0.0749567
-0.0770648
0.00931823
0.00447632
-0.000299118
-0.00499905
-0.00961567
-0.014141
-0.0185681
-0.02289
-0.0271006
-0.0311944
-0.0351665
-0.0390126
-0.0427291
-0.0463131
-0.0497622
-0.0530749
-0.05625
-0.0592872
-0.0621864
-0.0649484
-0.0675743
-0.0700655
-0.0724242
-0.0746529
-0.0767542
-0.0787316
0.00938257
0.00455315
-0.000209831
-0.00489737
-0.0095017
-0.0140149
-0.01843
-0.0227401
-0.0269392
-0.0310217
-0.0349828
-0.0388181
-0.0425242
-0.0460979
-0.0495372
-0.0528402
-0.0560061
-0.0590342
-0.0619248
-0.0646783
-0.0672961
-0.0697796
-0.0721308
-0.0743523
-0.0764469
-0.0784179
-0.0802689
0.00944595
0.00462897
-0.000121592
-0.00479679
-0.0093889
-0.0138901
-0.0182932
-0.0225916
-0.0267793
-0.0308506
-0.0348007
-0.0386254
-0.0423211
-0.0458848
-0.0493143
-0.0526079
-0.0557646
-0.0587839
-0.0616658
-0.0644112
-0.0670209
-0.0694968
-0.0718407
-0.0740552
-0.0761432
-0.0781079
-0.0799529
0.00950837
0.00470378
-3.44259e-05
-0.00469735
-0.0092773
-0.0137665
-0.0181578
-0.0224446
-0.0266209
-0.0306811
-0.0346205
-0.0384346
-0.0421201
-0.0456739
-0.0490937
-0.052378
-0.0555257
-0.0585362
-0.0614098
-0.064147
-0.0667489
-0.0692173
-0.071554
-0.0737617
-0.075843
-0.0778015
-0.0796406
-0.0813645
0.00956978
0.00477754
5.16407e-05
-0.00459907
-0.00916693
-0.0136441
-0.0180238
-0.0222991
-0.0264641
-0.0305133
-0.034442
-0.0382457
-0.0419211
-0.0454651
-0.0488755
-0.0521506
-0.0552893
-0.0582913
-0.0611566
-0.0638859
-0.0664802
-0.0689411
-0.0712708
-0.0734717
-0.0755466
-0.0774989
-0.0793321
-0.0810505
-0.082658
0.00963018
0.00485024
0.000136581
-0.00450198
-0.00905781
-0.0135232
-0.0178911
-0.022155
-0.0263089
-0.0303473
-0.0342653
-0.0380588
-0.0417242
-0.0452585
-0.0486596
-0.0519256
-0.0550557
-0.0580493
-0.0609065
-0.0636279
-0.0662147
-0.0686685
-0.0709912
-0.0731855
-0.0752541
-0.0772003
-0.0790277
-0.0807405
-0.0823427
0.00968954
0.00492183
0.000220368
-0.0044061
-0.00894999
-0.0134036
-0.01776
-0.0220126
-0.0261554
-0.0301829
-0.0340905
-0.0378738
-0.0415294
-0.0450542
-0.0484461
-0.0517033
-0.0548248
-0.0578101
-0.0606594
-0.0633732
-0.0659526
-0.0683993
-0.0707153
-0.0729031
-0.0749655
-0.0769058
-0.0787275
-0.0804348
-0.0820316
-0.0835234
0.00974782
0.00499231
0.000302974
-0.00431148
-0.00884348
-0.0132854
-0.0176303
-0.0218717
-0.0260035
-0.0300204
-0.0339176
-0.037691
-0.0413368
-0.0448523
-0.0482351
-0.0514836
-0.0545967
-0.057574
-0.0604154
-0.0631218
-0.065694
-0.0681339
-0.0704433
-0.0726247
-0.0746811
-0.0766155
-0.0784317
-0.0801335
-0.0817251
-0.0832116
-0.0845966
0.00980502
0.00506164
0.000384371
-0.00421812
-0.00873833
-0.0131686
-0.0175022
-0.0217324
-0.0258534
-0.0298598
-0.0337468
-0.0375102
-0.0411465
-0.0446527
-0.0480267
-0.0512666
-0.0543715
-0.0573408
-0.0601747
-0.0628738
-0.065439
-0.0678722
-0.0701751
-0.0723504
-0.0744008
-0.0763296
-0.0781403
-0.0798369
-0.0814232
-0.0829046
-0.0842844
-0.08557
0.00986109
0.00512979
0.00046453
-0.00412608
-0.00863456
-0.0130533
-0.0173756
-0.0215948
-0.025705
-0.029701
-0.0335779
-0.0373315
-0.0409584
-0.0444556
-0.0478208
-0.0510524
-0.0541492
-0.0571109
-0.0599373
-0.0626293
-0.0651877
-0.0676143
-0.069911
-0.0720803
-0.074125
-0.0760482
-0.0778535
-0.0795449
-0.0811262
-0.0826025
-0.0839772
-0.0852573
0.00991602
0.00519673
0.000543421
-0.00403538
-0.00853221
-0.0129395
-0.0172506
-0.0214588
-0.0255585
-0.0295441
-0.0334111
-0.0371551
-0.0407727
-0.044261
-0.0476177
-0.050841
-0.05393
-0.0568841
-0.0597033
-0.0623883
-0.0649402
-0.0673604
-0.0696511
-0.0718145
-0.0738536
-0.0757715
-0.0775716
-0.0792579
-0.0808343
-0.0823055
-0.0836753
-0.08495
-0.0861317
0.00996977
0.00526245
0.000621015
-0.00394604
-0.0084313
-0.0128273
-0.0171272
-0.0213247
-0.0254138
-0.0293893
-0.0332464
-0.0369809
-0.0405895
-0.044069
-0.0474173
-0.0506326
-0.0537139
-0.0566606
-0.0594728
-0.0621511
-0.0646965
-0.0671106
-0.0693954
-0.0715532
-0.0735869
-0.0754996
-0.0772946
-0.078976
-0.0805475
-0.0820139
-0.0833788
-0.0846483
-0.0858246
-0.0869167
0.0100223
0.0053269
0.000697282
-0.00385811
-0.00833188
-0.0127166
-0.0170055
-0.0211923
-0.025271
-0.0292364
-0.0330839
-0.0368091
-0.0404086
-0.0438796
-0.0472197
-0.0504271
-0.0535009
-0.0564405
-0.0592459
-0.0619176
-0.0644568
-0.066865
-0.069144
-0.0712964
-0.0733249
-0.0752326
-0.0770228
-0.0786994
-0.0802662
-0.0817279
-0.083088
-0.0843524
-0.0855235
-0.0866094
-0.0876099
0.0100736
0.00539007
0.000772189
-0.00377161
-0.00823398
-0.0126075
-0.0168856
-0.0210617
-0.0251302
-0.0290857
-0.0329235
-0.0366396
-0.0402304
-0.0436929
-0.0470249
-0.0502247
-0.0532912
-0.0562238
-0.0590226
-0.061688
-0.0642212
-0.0666236
-0.0688972
-0.0710444
-0.0730678
-0.0749706
-0.0767562
-0.0784283
-0.0799906
-0.0814476
-0.0828031
-0.0840625
-0.0852286
-0.0863086
-0.0873032
0.0101237
0.00545191
0.000845706
-0.00368658
-0.00813763
-0.0125001
-0.0167673
-0.020933
-0.0249913
-0.028937
-0.0327655
-0.0364725
-0.0400546
-0.0435089
-0.0468331
-0.0500254
-0.0530848
-0.0560107
-0.058803
-0.0614623
-0.0639897
-0.0663866
-0.068655
-0.0707972
-0.0728158
-0.074714
-0.076495
-0.0781627
-0.0797207
-0.0811733
-0.0825243
-0.083779
-0.0849402
-0.0860144
-0.0870033
0.0101725
0.0055124
0.000917799
-0.00360305
-0.00804287
-0.0123944
-0.0166509
-0.0208062
-0.0248545
-0.0287906
-0.0326097
-0.0363079
-0.0398816
-0.0433278
-0.0466443
-0.0498294
-0.0528818
-0.0558011
-0.0585873
-0.0612407
-0.0637626
-0.0661542
-0.0684175
-0.0705549
-0.0725689
-0.0744627
-0.0762395
-0.077903
-0.0794568
-0.0809052
-0.082252
-0.083502
-0.0846585
-0.0857273
-0.0867106
0.01022
0.00557151
0.000988436
-0.00352106
-0.00794974
-0.0122904
-0.0165363
-0.0206814
-0.0247198
-0.0286463
-0.0324564
-0.0361458
-0.0397112
-0.0431495
-0.0464586
-0.0496365
-0.0526823
-0.0555953
-0.0583755
-0.0610233
-0.0635398
-0.0659263
-0.0681849
-0.0703177
-0.0723274
-0.074217
-0.0759897
-0.0776492
-0.0791991
-0.0806435
-0.0819862
-0.0832319
-0.0843838
-0.0854474
-0.0864254
0.0102661
0.00562921
0.00105758
-0.00344064
-0.00785828
-0.0121881
-0.0164236
-0.0205585
-0.0245871
-0.0285043
-0.0323054
-0.0359863
-0.0395436
-0.0429742
-0.046276
-0.0494471
-0.0524864
-0.0553933
-0.0581677
-0.0608101
-0.0633215
-0.0657033
-0.0679573
-0.0700857
-0.0720913
-0.073977
-0.0757459
-0.0774016
-0.0789478
-0.0803884
-0.0817272
-0.0829688
-0.0841164
-0.0851751
-0.086148
0.0103108
0.00568545
0.00112521
-0.00336183
-0.00776852
-0.0120877
-0.0163128
-0.0204377
-0.0244567
-0.0283647
-0.032157
-0.0358295
-0.0393788
-0.042802
-0.0460966
-0.0492611
-0.0522941
-0.0551951
-0.057964
-0.0606013
-0.0631078
-0.065485
-0.0677347
-0.0698592
-0.0718609
-0.0737428
-0.0755082
-0.0771604
-0.0787031
-0.0801401
-0.0814753
-0.082713
-0.0838566
-0.0849106
-0.0858786
0.0103542
0.00574022
0.00119127
-0.00328467
-0.0076805
-0.0119891
-0.016204
-0.020319
-0.0243285
-0.0282274
-0.032011
-0.0356754
-0.0392169
-0.0426328
-0.0459206
-0.0490786
-0.0521056
-0.0550009
-0.0577646
-0.0603969
-0.0628989
-0.0652718
-0.0675174
-0.0696381
-0.0716362
-0.0735147
-0.0752767
-0.0769257
-0.0784651
-0.0798989
-0.0812307
-0.0824647
-0.0836045
-0.0846542
-0.0856176
0.010396
0.00579347
0.00125573
-0.0032092
-0.00759426
-0.0118924
-0.0160971
-0.0202024
-0.0242026
-0.0280925
-0.0318677
-0.035524
-0.039058
-0.0424667
-0.0457479
-0.0488996
-0.0519208
-0.0548108
-0.0575694
-0.0601971
-0.0626947
-0.0650636
-0.0673055
-0.0694227
-0.0714175
-0.0732928
-0.0750518
-0.0766977
-0.0782342
-0.0796649
-0.0809936
-0.0822242
-0.0833604
-0.0844062
-0.0853653
0.0104365
0.00584516
0.00131857
-0.00313544
-0.00750984
-0.0117976
-0.0159924
-0.020088
-0.024079
-0.0279602
-0.031727
-0.0353755
-0.0389021
-0.0423039
-0.0455786
-0.0487244
-0.05174
-0.0546249
-0.0573787
-0.060002
-0.0624956
-0.0648607
-0.0670991
-0.069213
-0.0712048
-0.0730772
-0.0748334
-0.0764767
-0.0780104
-0.0794384
-0.0807642
-0.0819918
-0.0831247
-0.0841669
-0.0851219
0.0104754
0.00589527
0.00137973
-0.00306345
-0.00742729
-0.0117048
-0.0158897
-0.0199758
-0.0239577
-0.0278303
-0.031589
-0.0352298
-0.0387493
-0.0421444
-0.0454129
-0.0485529
-0.0515632
-0.0544432
-0.0571926
-0.0598117
-0.0623015
-0.0646632
-0.0668984
-0.0690093
-0.0709983
-0.0728682
-0.0746219
-0.0762627
-0.0777941
-0.0792196
-0.0805428
-0.0817677
-0.0828976
-0.0839364
-0.0848878
0.0105127
0.00594376
0.00143918
-0.00299326
-0.00734665
-0.0116141
-0.0157892
-0.019866
-0.023839
-0.0277031
-0.0314538
-0.0350872
-0.0385996
-0.0419883
-0.0452508
-0.0483853
-0.0513905
-0.0542658
-0.057011
-0.0596263
-0.0621126
-0.0644711
-0.0667035
-0.0688117
-0.0707983
-0.0726658
-0.0744174
-0.0760561
-0.0775853
-0.0790087
-0.0803297
-0.0815521
-0.0826794
-0.0837152
-0.0846633
0.0105485
0.00599059
0.00149689
-0.00292492
-0.00726796
-0.0115253
-0.0156908
-0.0197584
-0.0237227
-0.0275785
-0.0313215
-0.0349475
-0.0384532
-0.0418356
-0.0450923
-0.0482216
-0.051222
-0.054093
-0.0568342
-0.059446
-0.0619291
-0.0642847
-0.0665144
-0.0686204
-0.0706048
-0.0724704
-0.07422
-0.075857
-0.0773844
-0.0788059
-0.080125
-0.0813452
-0.0824702
-0.0835034
-0.0844485
0.0105826
0.00603571
0.00155281
-0.00285847
-0.00719126
-0.0114388
-0.0155947
-0.0196533
-0.0236089
-0.0274566
-0.031192
-0.034811
-0.0383101
-0.0416865
-0.0449377
-0.0480619
-0.0510578
-0.0539247
-0.0566622
-0.0592708
-0.061751
-0.064104
-0.0663315
-0.0684354
-0.070418
-0.072282
-0.0740301
-0.0756655
-0.0771916
-0.0786116
-0.079929
-0.0811475
-0.0822705
-0.0833014
-0.0842439
0.0106151
0.0060791
0.00160689
-0.00279394
-0.0071166
-0.0113543
-0.015501
-0.0195506
-0.0234978
-0.0273376
-0.0310655
-0.0346776
-0.0381704
-0.0415409
-0.0447869
-0.0479063
-0.050898
-0.053761
-0.0564952
-0.0591008
-0.0615784
-0.0639293
-0.0661548
-0.068257
-0.0702381
-0.0721008
-0.0738477
-0.075482
-0.0770069
-0.0784258
-0.079742
-0.080959
-0.0820804
-0.0831094
-0.0840497
0.0106459
0.00612071
0.00165911
-0.00273138
-0.00704403
-0.0112721
-0.0154095
-0.0194503
-0.0233893
-0.0272213
-0.030942
-0.0345475
-0.0380341
-0.0413991
-0.04464
-0.047755
-0.0507426
-0.0536022
-0.0563333
-0.0589363
-0.0614116
-0.0637605
-0.0659845
-0.0680853
-0.0700653
-0.071927
-0.0736731
-0.0753067
-0.0768308
-0.0782488
-0.0795641
-0.0807801
-0.0819002
-0.0829278
-0.0838663
0.010675
0.0061605
0.00170941
-0.00267085
-0.00697359
-0.0111922
-0.0153205
-0.0193527
-0.0232835
-0.027108
-0.0308217
-0.0344206
-0.0379014
-0.0412611
-0.0444972
-0.0476079
-0.0505919
-0.0534482
-0.0561766
-0.0587772
-0.0612507
-0.063598
-0.0658207
-0.0679206
-0.0698998
-0.0717609
-0.0735065
-0.0751396
-0.0766633
-0.078081
-0.0793957
-0.080611
-0.0817303
-0.0827567
-0.0836938
0.0107023
0.00619842
0.00175776
-0.00261238
-0.00690533
-0.0111145
-0.0152339
-0.0192576
-0.0231805
-0.0269976
-0.0307044
-0.0342972
-0.0377723
-0.0411269
-0.0443585
-0.0474653
-0.0504458
-0.0532993
-0.0560252
-0.0586239
-0.0610957
-0.0634418
-0.0656636
-0.0677628
-0.0697417
-0.0716025
-0.073348
-0.0749811
-0.0765048
-0.0779224
-0.079237
-0.0804521
-0.0815708
-0.0825965
-0.0835326
0.0107277
0.00623444
0.0018041
-0.00255601
-0.0068393
-0.0110392
-0.0151498
-0.0191652
-0.0230803
-0.0268902
-0.0305905
-0.0341772
-0.0376469
-0.0409966
-0.044224
-0.0473271
-0.0503046
-0.0531554
-0.0558793
-0.0584763
-0.0609469
-0.0632921
-0.0655134
-0.0676123
-0.0695911
-0.0714521
-0.0731979
-0.0748314
-0.0763555
-0.0777734
-0.0790883
-0.0803034
-0.0814221
-0.0824475
-0.0833831
0.0107513
0.00626852
0.00184839
-0.00250181
-0.00677555
-0.0109664
-0.0150683
-0.0190756
-0.0229831
-0.026786
-0.0304798
-0.0340607
-0.0375252
-0.0408704
-0.0440939
-0.0471936
-0.0501682
-0.0530168
-0.0557389
-0.0583346
-0.0608043
-0.0631491
-0.0653702
-0.0674693
-0.0694484
-0.07131
-0.0730564
-0.0746907
-0.0762155
-0.0776342
-0.0789497
-0.0801654
-0.0812845
-0.08231
-0.0832454
0.0107731
0.0063006
0.00189059
-0.0024498
-0.00671412
-0.0108959
-0.0149893
-0.0189887
-0.0228888
-0.0266848
-0.0303725
-0.0339478
-0.0374074
-0.0407483
-0.0439681
-0.0470647
-0.0500369
-0.0528835
-0.0556042
-0.0581989
-0.0606682
-0.0630128
-0.0652341
-0.0673337
-0.0693137
-0.0711762
-0.0729237
-0.0745591
-0.0760852
-0.077505
-0.0788217
-0.0800383
-0.0811582
-0.0821843
-0.08312
0.0107928
0.00633064
0.00193066
-0.00240005
-0.00665508
-0.010828
-0.0149131
-0.0189046
-0.0227975
-0.026587
-0.0302686
-0.0338386
-0.0372935
-0.0406304
-0.0438468
-0.0469407
-0.0499107
-0.0527557
-0.0554753
-0.0580695
-0.0605386
-0.0628835
-0.0651054
-0.067206
-0.0691871
-0.071051
-0.0728
-0.074437
-0.0759648
-0.0773862
-0.0787044
-0.0799224
-0.0810435
-0.0820706
-0.083007
0.0108106
0.00635856
0.00196848
-0.00235268
-0.00659856
-0.0107628
-0.0148397
-0.0188237
-0.0227095
-0.0264926
-0.0301685
-0.0337334
-0.0371839
-0.0405171
-0.0437303
-0.0468218
-0.0497899
-0.0526337
-0.0553526
-0.0579466
-0.0604159
-0.0627615
-0.0649845
-0.0670863
-0.069069
-0.0709347
-0.0726857
-0.0743247
-0.0758545
-0.077278
-0.0785981
-0.079818
-0.0809407
-0.0819693
-0.082907
0.0108263
0.0063843
0.00200397
-0.00230779
-0.00654467
-0.0107004
-0.0147693
-0.0187459
-0.0226249
-0.0264018
-0.0300722
-0.0336323
-0.0370787
-0.0404084
-0.0436189
-0.0467082
-0.0496749
-0.0525177
-0.0552363
-0.0578304
-0.0603004
-0.0626471
-0.0648715
-0.0669751
-0.0689598
-0.0708277
-0.0725811
-0.0742225
-0.0757548
-0.0771808
-0.0785033
-0.0797255
-0.0808504
-0.0818809
-0.0828201
0.01084
0.00640805
0.00203751
-0.00226481
-0.00649269
-0.0106399
-0.0147009
-0.01867
-0.0225423
-0.0263132
-0.0299782
-0.0335337
-0.0369762
-0.0403027
-0.0435107
-0.0465982
-0.0495638
-0.0524061
-0.0551248
-0.0577196
-0.0601907
-0.0625389
-0.0647653
-0.0668712
-0.0688585
-0.0707291
-0.0724854
-0.0741299
-0.0756652
-0.0770942
-0.0784197
-0.0796447
-0.0807722
-0.0818052
-0.0827466
0.0108518
0.00643042
0.00207013
-0.00222232
-0.00644077
-0.0105791
-0.0146317
-0.0185932
-0.0224586
-0.0262233
-0.0298829
-0.0334338
-0.0368724
-0.0401959
-0.0434017
-0.0464878
-0.0494526
-0.052295
-0.0550143
-0.0576103
-0.0600832
-0.0624336
-0.0646627
-0.0667716
-0.0687622
-0.0706364
-0.0723964
-0.0740447
-0.0755839
-0.0770167
-0.078346
-0.0795746
-0.0807055
-0.0817416
-0.0826859
0.0108613
0.00645015
0.00209961
-0.00218358
-0.00639332
-0.0105236
-0.0145687
-0.0185233
-0.0223825
-0.0261417
-0.0297966
-0.0333434
-0.0367787
-0.0400995
-0.0433034
-0.0463883
-0.0493525
-0.052195
-0.054915
-0.0575122
-0.059987
-0.0623397
-0.0645715
-0.0666835
-0.0686775
-0.0705553
-0.0723192
-0.0739715
-0.0755147
-0.0769516
-0.0782849
-0.0795174
-0.0806521
-0.0816918
-0.0826394
0.0108657
0.00645854
0.00211139
-0.00216902
-0.0063765
-0.0105049
-0.0145486
-0.018502
-0.0223602
-0.0261184
-0.0297724
-0.0333182
-0.0367526
-0.0400725
-0.0432755
-0.0463594
-0.0493228
-0.0521644
-0.0548837
-0.0574804
-0.0599547
-0.0623071
-0.0645388
-0.0666509
-0.0686452
-0.0705235
-0.072288
-0.0739411
-0.0754853
-0.0769232
-0.0782577
-0.0794915
-0.0806274
-0.0816684
-0.0826172
0.0808844
0.0758184
0.0707029
0.0655429
0.0603441
0.0551128
0.0498558
0.0445805
0.0392949
0.0340075
0.0287269
0.0234629
0.0182244
0.0130216
0.0809624
0.0758922
0.0707722
0.0656076
0.0604043
0.0551689
0.0499086
0.0446309
0.0393442
0.0340571
0.0287786
0.0235182
0.0182854
0.0130902
0.0808584
0.0757991
0.0706898
0.0655361
0.0603438
0.0551198
0.0498711
0.0446058
0.0393319
0.0340584
0.0287941
0.0235488
0.0183317
0.0131531
0.0807447
0.0756991
0.0706033
0.065463
0.0602841
0.0550735
0.0498383
0.0445865
0.0393262
0.0340665
0.028816
0.0235848
0.0183818
0.0132173
0.080649
0.0756156
0.0705321
0.0654038
0.060237
0.0550384
0.0498154
0.0445757
0.0393278
0.0340804
0.0288425
0.0236238
0.0184335
0.0132817
0.0805568
0.0755353
0.0704635
0.0653468
0.0601916
0.0550046
0.0497933
0.0445655
0.0393295
0.0340942
0.0288686
0.0236624
0.0184846
0.0133456
0.080463
0.0754533
0.0703932
0.0652882
0.0601446
0.0549693
0.0497698
0.0445539
0.0393299
0.0341069
0.0288937
0.0237
0.0185349
0.0134087
0.080368
0.0753703
0.0703219
0.0652286
0.0600967
0.0549332
0.0497454
0.0445414
0.0393296
0.0341188
0.028918
0.0237369
0.0185846
0.0134712
0.0802727
0.0752868
0.0702501
0.0651685
0.0600483
0.0548965
0.0497205
0.0445285
0.0393288
0.0341302
0.0289418
0.0237733
0.0186336
0.013533
0.0801771
0.075203
0.070178
0.065108
0.0599994
0.0548593
0.0496952
0.0445151
0.0393274
0.0341411
0.0289651
0.023809
0.018682
0.0135942
0.0800811
0.0751187
0.0701054
0.065047
0.05995
0.0548216
0.0496692
0.044501
0.0393254
0.0341513
0.0289876
0.0238441
0.0187298
0.0136547
0.0799847
0.075034
0.0700323
0.0649854
0.0599001
0.0547833
0.0496427
0.0444864
0.0393228
0.0341609
0.0290096
0.0238786
0.0187769
0.0137146
0.079888
0.0749489
0.0699587
0.0649234
0.0598496
0.0547444
0.0496155
0.0444711
0.0393196
0.0341698
0.0290309
0.0239124
0.0188233
0.0137737
0.0797908
0.0748634
0.0698846
0.0648608
0.0597985
0.054705
0.0495878
0.0444553
0.0393157
0.0341782
0.0290516
0.0239455
0.018869
0.0138321
0.0796934
0.0747774
0.0698101
0.0647977
0.0597469
0.054665
0.0495595
0.0444388
0.0393112
0.0341858
0.0290715
0.0239779
0.0189139
0.0138897
0.0795956
0.074691
0.0697351
0.0647341
0.0596948
0.0546244
0.0495306
0.0444217
0.0393061
0.0341928
0.0290908
0.0240096
0.0189582
0.0139466
0.0794974
0.0746042
0.0696596
0.06467
0.0596421
0.0545832
0.0495011
0.0444039
0.0393003
0.0341991
0.0291094
0.0240405
0.0190017
0.0140026
0.0793989
0.0745169
0.0695837
0.0646053
0.0595888
0.0545414
0.0494709
0.0443855
0.0392938
0.0342047
0.0291272
0.0240708
0.0190443
0.0140579
0.0793
0.0744293
0.0695072
0.0645402
0.059535
0.054499
0.0494401
0.0443664
0.0392866
0.0342096
0.0291443
0.0241002
0.0190863
0.0141123
0.0792008
0.0743412
0.0694303
0.0644744
0.0594805
0.054456
0.0494086
0.0443467
0.0392788
0.0342138
0.0291606
0.0241289
0.0191273
0.0141659
0.0791013
0.0742527
0.0693529
0.0644082
0.0594255
0.0544123
0.0493765
0.0443263
0.0392702
0.0342172
0.0291762
0.0241567
0.0191676
0.0142187
0.0790014
0.0741639
0.069275
0.0643414
0.0593699
0.054368
0.0493437
0.0443051
0.0392608
0.0342198
0.029191
0.0241838
0.019207
0.0142705
0.0789012
0.0740745
0.0691966
0.064274
0.0593137
0.0543231
0.0493102
0.0442832
0.0392508
0.0342217
0.029205
0.02421
0.0192456
0.0143215
0.0788007
0.0739848
0.0691178
0.0642061
0.0592568
0.0542775
0.049276
0.0442607
0.0392399
0.0342228
0.0292181
0.0242353
0.0192832
0.0143715
0.0786998
0.0738946
0.0690384
0.0641376
0.0591994
0.0542313
0.0492411
0.0442373
0.0392283
0.0342231
0.0292304
0.0242598
0.0193199
0.0144205
0.0785987
0.0738041
0.0689585
0.0640686
0.0591413
0.0541844
0.0492055
0.0442132
0.0392159
0.0342225
0.0292419
0.0242834
0.0193557
0.0144686
0.0784971
0.0737131
0.0688781
0.0639989
0.0590826
0.0541367
0.0491692
0.0441884
0.0392027
0.0342211
0.0292525
0.024306
0.0193906
0.0145157
0.0783953
0.0736216
0.0687972
0.0639287
0.0590233
0.0540884
0.0491321
0.0441627
0.0391886
0.0342189
0.0292621
0.0243277
0.0194244
0.0145617
0.0782931
0.0735298
0.0687158
0.0638579
0.0589632
0.0540394
0.0490943
0.0441362
0.0391738
0.0342157
0.0292709
0.0243485
0.0194573
0.0146068
0.0781906
0.0734374
0.0686338
0.0637865
0.0589025
0.0539896
0.0490557
0.044109
0.039158
0.0342117
0.0292787
0.0243683
0.0194892
0.0146507
0.0780878
0.0733447
0.0685513
0.0637144
0.0588412
0.0539391
0.0490162
0.0440808
0.0391414
0.0342067
0.0292855
0.0243871
0.01952
0.0146936
0.0779846
0.0732515
0.0684683
0.0636418
0.0587791
0.0538879
0.048976
0.0440519
0.0391239
0.0342008
0.0292914
0.0244048
0.0195497
0.0147353
0.077881
0.0731578
0.0683847
0.0635685
0.0587163
0.0538358
0.048935
0.044022
0.0391054
0.0341939
0.0292963
0.0244215
0.0195783
0.0147759
0.0824347
0.0777772
0.0730637
0.0683005
0.0634945
0.0586528
0.053783
0.0488931
0.0439913
0.039086
0.0341861
0.0293001
0.0244372
0.0196058
0.0148153
0.082321
0.0776729
0.0729691
0.0682158
0.0634199
0.0585886
0.0537294
0.0488504
0.0439596
0.0390657
0.0341772
0.0293029
0.0244517
0.0196322
0.0148535
0.0822071
0.0775683
0.072874
0.0681305
0.0633446
0.0585236
0.053675
0.0488067
0.0439271
0.0390444
0.0341674
0.0293046
0.0244651
0.0196574
0.0148905
0.082093
0.0774633
0.0727784
0.0680446
0.0632687
0.0584578
0.0536197
0.0487622
0.0438935
0.039022
0.0341564
0.0293052
0.0244774
0.0196814
0.0149263
0.0819786
0.077358
0.0726823
0.0679581
0.063192
0.0583913
0.0535636
0.0487168
0.043859
0.0389987
0.0341444
0.0293047
0.0244885
0.0197042
0.0149607
0.081864
0.0772522
0.0725857
0.0678709
0.0631146
0.058324
0.0535066
0.0486704
0.0438235
0.0389743
0.0341313
0.0293031
0.0244984
0.0197257
0.0149939
0.0817492
0.0771461
0.0724886
0.0677831
0.0630365
0.0582558
0.0534487
0.0486231
0.043787
0.0389488
0.0341171
0.0293002
0.0245071
0.0197459
0.0150256
0.0816341
0.0770396
0.072391
0.0676947
0.0629576
0.0581868
0.0533899
0.0485748
0.0437495
0.0389223
0.0341017
0.0292962
0.0245145
0.0197648
0.0150561
0.0815187
0.0769326
0.0722928
0.0676056
0.0628779
0.058117
0.0533302
0.0485255
0.0437109
0.0388946
0.0340851
0.0292909
0.0245206
0.0197824
0.0150851
0.0814031
0.0768252
0.072194
0.0675158
0.0627975
0.0580462
0.0532695
0.0484751
0.0436711
0.0388657
0.0340674
0.0292844
0.0245254
0.0197986
0.0151126
0.0812872
0.0767174
0.0720946
0.0674253
0.0627163
0.0579746
0.0532078
0.0484237
0.0436303
0.0388357
0.0340484
0.0292765
0.0245288
0.0198133
0.0151387
0.081171
0.0766091
0.0719947
0.0673341
0.0626342
0.0579021
0.0531452
0.0483713
0.0435883
0.0388045
0.0340281
0.0292674
0.0245309
0.0198267
0.0151633
0.0810545
0.0765004
0.0718941
0.0672422
0.0625513
0.0578286
0.0530815
0.0483177
0.0435452
0.0387721
0.0340066
0.0292569
0.0245315
0.0198385
0.0151863
0.0809376
0.0763911
0.0717929
0.0671495
0.0624675
0.0577541
0.0530167
0.048263
0.0435009
0.0387383
0.0339837
0.029245
0.0245307
0.0198488
0.0152078
0.0808205
0.0762814
0.0716911
0.067056
0.0623828
0.0576786
0.0529509
0.0482071
0.0434553
0.0387033
0.0339594
0.0292317
0.0245284
0.0198576
0.0152276
0.080703
0.0761712
0.0715886
0.0669617
0.0622972
0.0576022
0.0528839
0.0481501
0.0434084
0.038667
0.0339338
0.0292169
0.0245246
0.0198648
0.0152458
0.0805852
0.0760604
0.0714854
0.0668666
0.0622107
0.0575246
0.0528158
0.0480918
0.0433603
0.0386293
0.0339067
0.0292006
0.0245193
0.0198704
0.0152623
0.080467
0.0759491
0.0713815
0.0667706
0.0621231
0.057446
0.0527466
0.0480323
0.0433109
0.0385902
0.0338782
0.0291829
0.0245123
0.0198743
0.015277
0.0803484
0.0758372
0.0712769
0.0666738
0.0620346
0.0573663
0.0526761
0.0479715
0.04326
0.0385496
0.0338482
0.0291635
0.0245037
0.0198765
0.01529
0.0802294
0.0757247
0.0711715
0.0665761
0.0619451
0.0572855
0.0526044
0.0479093
0.0432078
0.0385076
0.0338166
0.0291425
0.0244935
0.019877
0.0153011
0.08011
0.0756116
0.0710653
0.0664774
0.0618545
0.0572034
0.0525314
0.0478458
0.0431541
0.0384641
0.0337834
0.0291199
0.0244815
0.0198757
0.0153104
0.0799903
0.075498
0.0709584
0.0663779
0.0617629
0.0571203
0.0524572
0.047781
0.0430991
0.0384191
0.0337487
0.0290957
0.0244678
0.0198725
0.0153178
0.0798706
0.0753842
0.0708512
0.0662778
0.0616706
0.0570363
0.0523821
0.0477151
0.0430428
0.0383727
0.0337125
0.0290698
0.0244524
0.0198676
0.0153232
0.0797501
0.0752693
0.0707427
0.0661763
0.0615767
0.0569507
0.0523051
0.0476473
0.0429845
0.0383244
0.0336743
0.0290419
0.0244349
0.0198606
0.0153266
0.0796229
0.0751479
0.0706277
0.0660685
0.0614767
0.0568591
0.0522225
0.0475742
0.0429213
0.0382714
0.0336319
0.0290103
0.0244142
0.0198508
0.0153277
0.0794897
0.0750204
0.0705068
0.0659549
0.0613712
0.0567624
0.0521353
0.0474969
0.0428545
0.0382153
0.0335868
0.0289763
0.0243913
0.019839
0.0153267
0.0794063
0.0749404
0.0704308
0.0658838
0.0613055
0.0567027
0.0520821
0.0474506
0.0428153
0.0381833
0.0335619
0.0289582
0.0243796
0.0198332
0.0153263
)
;

boundaryField
{
    inlet
    {
        type            zeroGradient;
    }
    outlet
    {
        type            fixedValue;
        value           nonuniform 0();
    }
    cylinder
    {
        type            zeroGradient;
    }
    top
    {
        type            symmetryPlane;
    }
    bottom
    {
        type            symmetryPlane;
    }
    defaultFaces
    {
        type            empty;
    }
    procBoundary13to9
    {
        type            processor;
        value           nonuniform List<scalar> 
83
(
-0.0602008
-0.0565592
-0.0527932
-0.0489044
-0.0448946
-0.0407659
-0.036521
-0.0321628
-0.0276947
-0.0276947
-0.0276564
-0.0230143
-0.018292
-0.0134952
-0.00862998
-0.00370239
0.00128137
0.0063149
0.0113911
0.0165034
0.0216476
0.026817
0.0320048
0.0434663
0.0434663
0.0488941
0.0543266
0.0597558
0.0651737
0.0705726
0.0759448
0.081283
-0.0617401
-0.0613572
-0.0613572
-0.0642089
-0.0639181
-0.0639181
-0.0666943
-0.066399
-0.066399
-0.0689944
-0.0686908
-0.0683895
-0.0683895
-0.0708125
-0.0705061
-0.0705061
-0.0727678
-0.0724571
-0.0724571
-0.0745624
-0.0745624
-0.0765215
-0.0762028
-0.0762028
-0.0780158
-0.0776957
-0.0776957
-0.079369
-0.0790486
-0.0790486
-0.0805886
-0.0805886
-0.0820042
-0.0816825
-0.0816825
-0.0829774
-0.0829774
-0.0841603
-0.0838397
-0.0838397
-0.0849136
-0.0849136
-0.0858877
-0.0858877
-0.0867625
-0.0864444
-0.0864444
-0.0872301
-0.0872301
-0.0879232
-0.0879232
)
;
    }
    procBoundary13to12
    {