/*--------------------------------*- C++ -*----------------------------------*\
  =========                 |
  \\      /  F ield         | OpenFOAM: The Open Source CFD Toolbox
   \\    /   O peration     | Website:  https://openfoam.org
    \\  /    A nd           | Version:  7
     \\/     M anipulation  |
\*---------------------------------------------------------------------------*/
FoamFile
{
    version     2.0;
    format      ascii;
    class       volVectorField;
    location    "10";
    object      U;
}
// * * * * * * * * * * * * * * * * * * * * * * * * * * * * * * * * * * * * * //

dimensions      [0 1 -1 0 0 0 0];

internalField   nonuniform List<vector> 
656
(
(1.12039 0.243474 -1.83054e-20)
(1.12002 0.207492 -1.9209e-19)
(1.10204 0.287798 -9.74632e-20)
(1.10585 0.24387 3.29056e-20)
(1.10703 0.207552 1.14715e-19)
(1.07737 0.336971 1.11617e-19)
(1.08553 0.287976 1.32183e-20)
(1.09114 0.24358 1.24e-19)
(1.09398 0.206996 -1.45849e-19)
(1.05883 0.337122 -8.36952e-20)
(1.06883 0.287286 -9.58948e-20)
(1.07632 0.242601 -1.5596e-19)
(1.08091 0.205807 2.19149e-19)
(1.02069 0.390004 1.31846e-19)
(1.04003 0.336168 -5.48373e-20)
(1.05201 0.285729 -6.6893e-20)
(1.06142 0.240931 2.27209e-19)
(1.06784 0.203969 -2.34675e-19)
(0.999704 0.389032 -1.89856e-19)
(1.02107 0.33411 -6.89713e-20)
(1.03514 0.283306 1.32427e-19)
(1.04648 0.23857 1.72615e-19)
(1.0548 0.201466 2.74374e-19)
(0.941034 0.440123 6.34013e-20)
(0.97845 0.386644 3.00704e-20)
(1.00204 0.33095 1.67815e-19)
(1.01829 0.280024 2.41795e-19)
(1.03152 0.235523 -6.33141e-19)
(1.04179 0.198281 -1.04798e-19)
(0.917622 0.437735 3.59307e-19)
(0.957054 0.382843 -2.41708e-20)
(0.983034 0.326696 -3.19545e-20)
(1.00153 0.27589 -1.35543e-19)
(1.01659 0.231791 4.22385e-19)
(1.02882 0.194396 -2.01013e-19)
(0.893941 0.433558 -5.06396e-19)
(0.935637 0.377638 -5.55433e-20)
(0.964146 0.321356 -4.5015e-19)
(0.98493 0.270919 5.95313e-20)
(1.00172 0.227381 2.8293e-19)
(1.01592 0.18978 2.29243e-19)
(0.79976 0.472852 3.12173e-20)
(0.870145 0.427599 1.70252e-19)
(0.914315 0.371043 3.10738e-19)
(0.945466 0.314943 5.2238e-19)
(0.968564 0.265129 1.88104e-19)
(0.987022 0.222348 -6.29316e-19)
(1.00315 0.184517 1.36907e-19)
(0.77388 0.46669 1.82435e-19)
(0.846385 0.419876 -2.0367e-19)
(0.893203 0.363075 2.11953e-19)
(0.927082 0.307472 -1.78167e-19)
(0.952522 0.25853 -1.94735e-19)
(0.972724 0.216786 8.52066e-19)
(0.990426 0.179309 3.7095e-19)
(0.747934 0.458338 -6.32764e-19)
(0.822809 0.410415 8.48102e-20)
(0.872411 0.35376 -4.47094e-19)
(0.909075 0.298957 1.60699e-19)
(0.936897 0.251099 -1.09732e-19)
(0.959048 0.210558 -2.84353e-19)
(0.978812 0.17437 -8.32641e-19)
(0.722114 0.447825 3.57155e-19)
(0.799559 0.399248 1.5258e-19)
(0.852043 0.343124 5.77916e-19)
(0.891522 0.289417 1.6032e-19)
(0.921729 0.242847 2.10942e-19)
(0.945852 0.203593 -5.70243e-19)
(0.967318 0.168971 8.84401e-20)
(0.696603 0.435192 -7.52826e-20)
(0.776774 0.386417 -1.21354e-21)
(0.832201 0.331202 7.39088e-20)
(0.874496 0.278878 -3.20741e-19)
(0.907063 0.233797 -4.65436e-19)
(0.933133 0.19594 2.93866e-19)
(0.956115 0.162928 2.39592e-19)
(0.559839 0.439303 -5.45134e-19)
(0.671578 0.420488 1.66229e-19)
(0.754587 0.371969 5.08403e-19)
(0.812983 0.318032 -6.52792e-19)
(0.858067 0.267369 -5.72267e-19)
(0.89295 0.223973 2.30034e-19)
(0.92093 0.187651 5.2359e-19)
(0.945319 0.156289 7.72412e-20)
(0.53416 0.42367 2.8227e-19)
(0.647211 0.403776 -3.37299e-19)
(0.733126 0.355961 -8.01268e-19)
(0.794483 0.30366 -6.0889e-20)
(0.842304 0.254924 8.80036e-19)
(0.879442 0.213402 -4.11357e-19)
(0.909282 0.178751 -5.36105e-19)
(0.934994 0.149101 -1.2846e-19)
(0.509164 0.405713 4.11123e-19)
(0.623665 0.38513 3.56723e-19)
(0.712511 0.338455 1.64004e-19)
(0.776788 0.288134 8.55073e-19)
(0.827275 0.241581 -3.57566e-19)
(0.866591 0.20211 2.91724e-19)
(0.898224 0.169262 5.21601e-19)
(0.92519 0.141384 1.25116e-19)
(0.485048 0.385521 -6.1719e-19)
(0.601099 0.364632 1.68273e-19)
(0.69286 0.319522 -7.3992e-19)
(0.759985 0.271509 -9.7482e-19)
(0.813042 0.227381 4.77214e-19)
(0.854446 0.190131 -4.20639e-20)
(0.887794 0.159207 -4.51909e-19)
(0.915948 0.133153 -3.03761e-19)
(0.462 0.363194 3.41264e-19)
(0.579661 0.342376 -7.22276e-19)
(0.674281 0.299237 5.73639e-19)
(0.744153 0.253845 4.48387e-19)
(0.799664 0.21237 -4.05053e-19)
(0.843052 0.177497 -4.65081e-19)
(0.878028 0.148613 3.21888e-19)
(0.907304 0.124432 2.41028e-19)
(0.4402 0.338848 -6.13238e-19)
(0.559492 0.318466 4.34031e-19)
(0.656876 0.277683 -3.53483e-20)
(0.729367 0.235206 3.00656e-20)
(0.787197 0.196596 3.56008e-20)
(0.832453 0.164248 9.994e-19)
(0.868958 0.137509 -1.59456e-19)
(0.89929 0.115248 -3.59349e-20)
(0.419816 0.312613 3.16996e-19)
(0.540723 0.293013 1.66296e-20)
(0.64074 0.25495 1.55703e-19)
(0.715697 0.21566 -3.27741e-19)
(0.775694 0.180112 -3.81399e-20)
(0.822688 0.150424 -5.52164e-19)
(0.860615 0.125929 -2.46785e-19)
(0.89193 0.105633 2.49675e-19)
(0.401004 0.284627 5.46284e-19)
(0.523473 0.266139 6.39507e-19)
(0.625962 0.231131 -6.7108e-20)
(0.703206 0.195279 -2.15495e-19)
(0.765201 0.162975 6.78943e-19)
(0.813794 0.136071 -4.93967e-19)
(0.853026 0.113909 2.22697e-19)
(0.885247 0.0956206 -3.57324e-19)
(0.221928 0.23729 -3.52103e-19)
(0.383907 0.255045 -7.55319e-19)
(0.507855 0.237971 5.50722e-20)
(0.61262 0.206326 3.81522e-19)
(0.691953 0.17414 5.72674e-19)
(0.755763 0.145243 -7.17935e-19)
(0.805804 0.121235 3.73482e-19)
(0.846217 0.101487 -2.81758e-19)
(0.879261 0.0852462 -1.42258e-19)
(0.206933 0.208962 -3.83915e-20)
(0.368655 0.224029 7.45517e-19)
(0.493966 0.208644 -2.39603e-19)
(0.600786 0.18064 2.37922e-19)
(0.68199 0.152324 4.23888e-20)
(0.747418 0.12698 -2.81109e-19)
(0.798748 0.105967 1.35263e-19)
(0.840209 0.0887041 5.3375e-19)
(0.873987 0.0745483 5.07737e-19)
(0.193822 0.179241 -2.14502e-19)
(0.355362 0.19175 -8.19897e-19)
(0.481895 0.178301 -2.35382e-19)
(0.590523 0.154181 -2.54185e-19)
(0.673364 0.129913 -5.31017e-19)
(0.7402 0.108249 1.78893e-19)
(0.79265 0.0903197 4.23191e-19)
(0.835023 0.0756048 4.65948e-21)
(0.86944 0.063567 -3.61856e-19)
(0.182712 0.148322 -1.06343e-20)
(0.34413 0.158389 1.21346e-19)
(0.471718 0.147087 2.83311e-20)
(0.581887 0.127061 -3.3272e-19)
(0.666113 0.106994 4.8773e-19)
(0.73414 0.0891197 4.46419e-19)
(0.787534 0.0743475 -2.35591e-19)
(0.830675 0.0622343 -1.16561e-19)
(0.865633 0.0523435 1.77281e-19)
(0.173702 0.11641 2.12053e-19)
(0.335041 0.124132 2.27342e-19)
(0.463499 0.115154 -3.93694e-19)
(0.574923 0.0993958 2.13647e-20)
(0.660272 0.0836567 -9.91879e-21)
(0.729261 0.0696606 -2.47561e-19)
(0.783419 0.058107 1.51148e-20)
(0.827179 0.0486395 4.49336e-20)
(0.862575 0.0409204 -1.82903e-19)
(0.166873 0.0837154 -1.40585e-19)
(0.328164 0.0891725 -1.19482e-19)
(0.45729 0.0826585 3.21097e-19)
(0.569667 0.0713041 8.74588e-20)
(0.655868 0.0599909 -2.13915e-19)
(0.725585 0.0499433 -1.62945e-20)
(0.780319 0.0416563 -1.7146e-19)
(0.824547 0.034869 -1.1172e-19)
(0.860275 0.029341 1.76359e-20)
(0.162287 0.0504575 3.77919e-20)
(0.323551 0.0537074 6.95791e-20)
(0.453129 0.0497582 -1.05426e-19)
(0.566148 0.0429058 -5.47837e-20)
(0.652921 0.0360894 2.9764e-20)
(0.723126 0.0300406 -6.25004e-20)
(0.778246 0.0250545 6.82451e-20)
(0.822788 0.0209721 2.62599e-20)
(0.858737 0.0176495 1.00944e-20)
(0.451042 0.0166137 6.38022e-20)
(0.564384 0.0143228 2.96879e-20)
(0.651444 0.0120458 -1.90739e-20)
(0.721893 0.0100261 5.79288e-20)
(0.777208 0.00836162 6.76967e-21)
(0.821907 0.00699908 2.46965e-20)
(0.857968 0.00589052 -2.2181e-20)
(1.01543 0.169479 -3.55418e-19)
(1.02725 0.173381 -4.04283e-20)
(1.03837 0.176855 1.96818e-19)
(1.04975 0.17985 -1.34714e-19)
(1.06132 0.182363 8.03654e-20)
(1.073 0.184367 -5.33242e-20)
(1.08478 0.185857 4.41613e-20)
(1.01925 0.165507 2.68589e-19)
(1.03078 0.168937 5.44126e-20)
(1.04137 0.172064 5.56504e-20)
(1.05226 0.174792 3.83382e-20)
(1.06337 0.177106 -9.36755e-20)
(1.07463 0.178971 1.1696e-19)
(1.02321 0.16196 -1.83291e-19)
(1.03435 0.164939 -1.08637e-20)
(1.04446 0.167694 -8.24999e-20)
(1.0549 0.170101 -5.9333e-20)
(1.06558 0.172153 -1.02627e-19)
(1.02743 0.15838 1.66679e-19)
(1.03816 0.160932 -1.01515e-19)
(1.04784 0.163331 -1.98007e-21)
(1.05782 0.165426 -2.80161e-20)
(1.03176 0.154717 1.00368e-19)
(1.04207 0.1569 9.05286e-20)
(1.05137 0.158967 -1.05647e-19)
(1.03611 0.150934 -2.00761e-19)
(1.04601 0.152817 -7.05519e-20)
(1.04046 0.146999 5.12995e-20)
(0.999966 0.00185827 0)
(0.999361 0.00555501 0)
(0.998235 0.00974802 0)
(0.996741 0.0147715 0)
(0.99492 0.0209373 0)
(0.992915 0.0284741 0)
(0.990845 0.0375722 0)
(0.988955 0.0483519 0)
(0.987429 0.0609052 0)
(0.98667 0.0751797 0)
(0.986787 0.0911735 0)
(0.988503 0.10849 0)
(0.991252 0.127173 0)
(0.997088 0.145671 0)
(1.00157 0.164288 0)
(0.99997 0.00188297 0)
(0.999413 0.00562343 0)
(0.998377 0.0098602 0)
(0.997011 0.0149265 0)
(0.995362 0.0211315 0)
(0.993576 0.0286974 0)
(0.991778 0.0378036 0)
(0.990219 0.0485591 0)
(0.989082 0.061034 0)
(0.988779 0.0751658 0)
(0.989395 0.0909118 0)
(0.991687 0.107901 0)
(0.994984 0.126066 0)
(1.00165 0.144077 0)
(1.00655 0.161127 0)
(0.999974 0.00190574 0)
(0.999468 0.00568669 0)
(0.998528 0.0099635 0)
(0.9973 0.0150674 0)
(0.995834 0.0213042 0)
(0.99428 0.0288884 0)
(0.992769 0.0379868 0)
(0.991555 0.0486951 0)
(0.990821 0.0610596 0)
(0.990981 0.0750057 0)
(0.992099 0.0904469 0)
(0.994951 0.107038 0)
(0.998783 0.12459 0)
(1.00609 0.142009 0)
(1.01147 0.157596 0)
(0.999978 0.00192753 0)
(0.999526 0.00574772 0)
(0.99869 0.010063 0)
(0.997608 0.0152029 0)
(0.996337 0.0214692 0)
(0.995029 0.0290688 0)
(0.99382 0.0381556 0)
(0.992966 0.048812 0)
(0.992647 0.06106 0)
(0.993278 0.0748141 0)
(0.994901 0.0899433 0)
(0.998295 0.106131 0)
(1.00265 0.123063 0)
(1.01047 0.139888 0)
(1.01634 0.15432 0)
(0.999982 0.00194777 0)
(0.999588 0.00580468 0)
(0.998861 0.0101552 0)
(0.997936 0.0153268 0)
(0.996871 0.0216166 0)
(0.995824 0.0292236 0)
(0.994932 0.0382878 0)
(0.994452 0.0488782 0)
(0.994561 0.0609918 0)
(0.995668 0.074533 0)
(0.997798 0.0893268 0)
(1.00171 0.105085 0)
(1.00657 0.12138 0)
(1.01481 0.137586 0)
(1.02112 0.151041 0)
(0.999986 0.00196591 0)
(0.999653 0.00585583 0)
(0.999044 0.010237 0)
(0.998284 0.0154341 0)
(0.997438 0.0217393 0)
(0.996665 0.0293422 0)
(0.996103 0.0383687 0)
(0.996012 0.0488734 0)
(0.99656 0.0608284 0)
(0.998147 0.0741276 0)
(1.00078 0.0885541 0)
(1.0052 0.103847 0)
(1.01054 0.119482 0)
(1.01911 0.135028 0)
(1.02585 0.147611 0)
(0.999989 0.00198151 0)
(0.999722 0.00589992 0)
(0.999236 0.0103061 0)
(0.998651 0.0155218 0)
(0.998036 0.0218326 0)
(0.99755 0.0294189 0)
(0.997334 0.0383911 0)
(0.997642 0.0487892 0)
(0.998638 0.0605603 0)
(1.00071 0.073588 0)
(1.00384 0.0876165 0)
(1.00873 0.10241 0)
(1.01455 0.117369 0)
(1.02337 0.13222 0)
(1.03051 0.144009 0)
(0.999993 0.00199415 0)
(0.999794 0.00593563 0)
(0.999439 0.0103603 0)
(0.999039 0.0155865 0)
(0.998666 0.0218923 0)
(0.99848 0.029448 0)
(0.998621 0.038348 0)
(0.999339 0.0486176 0)
(1.00079 0.060179 0)
(1.00334 0.0729058 0)
(1.00697 0.0865081 0)
(1.01231 0.100771 0)
(1.01857 0.115043 0)
(0.999946 5.13434e-05 -5.88863e-23)
(0.998695 0.000156093 2.28947e-21)
(0.996225 0.000274154 -6.05076e-22)
(0.992748 0.000413356 1.48481e-21)
(0.988206 0.000582292 -1.1538e-21)
(0.982595 0.000787707 2.86124e-22)
(0.975864 0.00103517 1.1534e-21)
(0.967992 0.00133467 -1.22787e-21)
(0.958947 0.00169082 9.29677e-22)
(0.948709 0.00210965 -1.22217e-21)
(0.937273 0.00259774 -3.25459e-21)
(0.924656 0.00315861 7.54626e-22)
(0.910891 0.0037928 7.77979e-22)
(0.896085 0.00448145 8.2827e-23)
(0.880342 0.00517102 -3.12101e-22)
(0.999946 0.000153968 4.32115e-21)
(0.998697 0.00046803 3.55502e-22)
(0.996234 0.000822012 -6.76212e-21)
(0.992766 0.0012394 -5.32849e-21)
(0.988236 0.001746 -1.16398e-21)
(0.982641 0.00236193 2.155e-21)
(0.975932 0.00310425 -2.58719e-21)
(0.96809 0.00400215 4.57056e-22)
(0.959082 0.00506996 -4.20086e-21)
(0.948891 0.00632549 3.29395e-21)
(0.937515 0.00778847 9.38121e-21)
(0.924974 0.00946916 -6.99818e-21)
(0.911299 0.0113692 1.74899e-21)
(0.896604 0.0134314 1.0198e-20)
(0.880977 0.0154961 6.62875e-22)
(0.999945 0.000256405 1.99369e-21)
(0.998702 0.000779206 1.21781e-21)
(0.99625 0.00136849 8.1582e-22)
(0.9928 0.0020634 1.02724e-20)
(0.988296 0.00290698 6.40452e-22)
(0.982734 0.00393243 -3.4874e-21)
(0.97607 0.00516926 1.189e-20)
(0.968286 0.0066637 -2.13362e-21)
(0.959352 0.00844114 -9.80342e-22)
(0.949257 0.0105304 2.6636e-21)
(0.938 0.0129642 -2.53277e-20)
(0.925609 0.0157588 2.21505e-20)
(0.912116 0.0189166 -2.34818e-20)
(0.897641 0.0223412 2.34405e-20)
(0.882246 0.0257687 -4.60508e-20)
(0.999945 0.000358528 -1.85566e-20)
(0.99871 0.00108911 1.04902e-20)
(0.996275 0.00191266 3.35777e-21)
(0.992852 0.00288396 -3.08099e-21)
(0.988386 0.00406338 1.43307e-20)
(0.982873 0.00549665 -6.52873e-21)
(0.976276 0.00722724 4.37711e-21)
(0.96858 0.00931532 2.08612e-21)
(0.959758 0.011799 2.7925e-20)
(0.949804 0.0147171 -2.86787e-20)
(0.938728 0.018115 -2.09985e-21)
(0.926561 0.0220137 1.72151e-20)
(0.913341 0.0264159 -1.41123e-20)
(0.899194 0.0311839 4.61697e-20)
(0.884147 0.0359538 -4.43969e-20)
(0.999944 0.000460204 1.55758e-21)
(0.99872 0.00139723 -9.33061e-21)
(0.996309 0.00245359 -4.9529e-21)
(0.992922 0.00369974 5.97387e-21)
(0.988505 0.0052134 -1.8669e-20)
(0.983059 0.00705218 5.61663e-21)
(0.976552 0.00927507 -8.2981e-21)
(0.968973 0.011953 4.68282e-21)
(0.960298 0.0151383 -1.10171e-20)
(0.950535 0.0188784 1.50109e-20)
(0.939697 0.0232308 -1.00729e-20)
(0.92783 0.0282198 -3.79762e-20)
(0.914973 0.0338479 3.65399e-20)
(0.901263 0.0399331 -2.43135e-20)
(0.886677 0.046017 -2.40343e-20)
(0.999944 0.000561299 1.55004e-20)
(0.998733 0.00170305 -1.826e-20)
(0.996351 0.00299036 2.90492e-20)
(0.993009 0.00450937 1.99878e-21)
(0.988655 0.00635513 -4.67649e-21)
(0.983293 0.00859656 1.21657e-20)
(0.976897 0.0113096 -2.47347e-21)
(0.969463 0.0145729 -2.55758e-20)
(0.960974 0.0184537 6.33602e-21)
(0.951448 0.023007 1.0632e-20)
(0.94091 0.0283019 -4.39755e-21)
(0.929416 0.0343635 -4.8564e-20)
(0.91701 0.0411937 6.07033e-20)
(0.903844 0.0485626 4.13162e-20)
(0.889832 0.055924 1.47112e-20)
(0.999943 0.00066167 -1.9276e-20)
(0.998748 0.00200604 2.51262e-20)
(0.996402 0.00352203 -1.14457e-20)
(0.993115 0.00531152 -1.68624e-20)
(0.988836 0.00748649 9.09223e-21)
(0.983574 0.0101245 -1.48627e-20)
(0.977312 0.0133277 1.33533e-20)
(0.970053 0.017171 -3.0255e-20)
(0.961786 0.0217402 -3.31687e-21)
(0.952545 0.0270959 6.40447e-21)
(0.942364 0.0333185 3.03726e-20)
(0.931318 0.040431 6.06582e-20)
(0.919453 0.0484345 -5.79185e-20)
(0.906935 0.0570464 -3.64987e-20)
(0.893607 0.0656414 -2.82743e-20)
(0.999942 0.000761166 6.18413e-21)
(0.998766 0.00230568 -3.27208e-21)
(0.996463 0.00404766 3.13258e-21)
(0.993238 0.00610495 1.04716e-20)
(0.989047 0.00860557 1.94052e-20)
(0.983905 0.0116261 2.77753e-21)
(0.977799 0.0153257 3.72283e-20)
(0.970742 0.0197435 -2.29187e-20)
(0.962735 0.0249926 9.8903e-21)
(0.953825 0.031138 1.4731e-20)
(0.944062 0.038271 -6.35108e-20)
(0.933536 0.0464089 5.1706e-20)
(0.922299 0.0555518 8.73444e-21)
(0.910533 0.065359 3.73057e-20)
(0.897995 0.0751361 -2.16223e-21)
(0.999942 0.000859629 1.21485e-21)
(0.998787 0.00260143 5.68151e-21)
(0.996532 0.00456632 -5.57384e-20)
(0.993381 0.00688838 -5.13439e-21)
(0.989287 0.00971137 1.10748e-20)
(0.984284 0.0131174 -3.39453e-21)
(0.97836 0.0173013 -1.29802e-20)
(0.971532 0.0222868 9.30456e-21)
(0.96382 0.0282059 -1.43435e-20)
(0.95529 0.0351266 1.97975e-20)
(0.946002 0.04315 -4.96393e-20)
(0.93607 0.0522837 5.15532e-20)
(0.925547 0.0625274 -3.43009e-20)
(0.914633 0.0734754 -2.57887e-20)
(0.90299 0.0843766 -1.01496e-20)
(0.999941 0.000956887 2.76437e-20)
(0.998812 0.00289273 7.94607e-21)
(0.996611 0.00507706 6.24967e-20)
(0.993542 0.00766037 -1.45764e-20)
(0.98956 0.0108018 -1.58923e-20)
(0.984713 0.0146084 2.12496e-21)
(0.978992 0.019253 -9.06082e-21)
(0.972422 0.0247973 2.11481e-20)
(0.965043 0.0313753 -3.25403e-21)
(0.95694 0.0390548 3.53921e-20)
(0.948185 0.0479461 8.42824e-21)
(0.93892 0.0580422 -5.2788e-20)
(0.929195 0.0693436 9.52433e-20)
(0.91923 0.0813716 -1.31991e-19)
(0.908582 0.0933325 1.73267e-19)
(0.999941 0.00105276 5.87316e-21)
(0.998839 0.00317901 -4.45812e-20)
(0.9967 0.00557894 -4.07442e-20)
(0.993723 0.00841947 2.78312e-20)
(0.989868 0.0118727 6.94196e-22)
(0.985193 0.0160768 1.07315e-20)
(0.979695 0.0211766 1.16007e-20)
(0.973414 0.0272712 -2.17894e-20)
(0.966405 0.0344959 -6.58329e-21)
(0.958775 0.0429162 -4.36519e-20)
(0.950612 0.0526502 -9.97616e-21)
(0.942085 0.0636714 7.22243e-21)
(0.93324 0.0759833 -2.34673e-20)
(0.92432 0.0890242 3.1624e-20)
(0.914761 0.101975 -3.17029e-20)
(0.999941 0.00114704 -1.4801e-20)
(0.99887 0.00345969 3.68408e-20)
(0.9968 0.00607108 2.80095e-20)
(0.993924 0.00916501 -3.8702e-20)
(0.99021 0.0129185 2.76773e-20)
(0.985725 0.0175137 -3.37583e-20)
(0.980472 0.0230686 -2.75233e-20)
(0.97451 0.029705 -8.59012e-21)
(0.967908 0.0375632 -1.46243e-20)
(0.960798 0.0467043 -3.13975e-20)
(0.953283 0.0572535 8.93768e-20)
(0.945564 0.0691587 5.84297e-20)
(0.937681 0.0824298 -4.03507e-20)
(0.929897 0.0964109 -1.05509e-19)
(0.921515 0.110279 7.59665e-20)
(0.999941 0.00123952 -7.44034e-21)
(0.998905 0.00373416 -7.66128e-21)
(0.996911 0.00655239 9.32845e-21)
(0.994145 0.00989635 5.96265e-20)
(0.990588 0.0139484 -3.21317e-20)
(0.986311 0.018922 3.94468e-20)
(0.981324 0.024927 1.19872e-20)
(0.975711 0.0320954 -9.26561e-21)
(0.969552 0.0405728 9.52433e-20)
(0.963009 0.0504132 -4.3673e-20)
(0.956198 0.0617474 -4.66295e-20)
(0.949357 0.0744916 4.52649e-20)
(0.942513 0.0886672 -6.32319e-20)
(0.935952 0.103511 -1.66589e-20)
(0.928829 0.118221 1.03134e-20)
(0.999941 0.00132997 -1.3034e-21)
(0.998944 0.00400181 -4.35199e-21)
(0.997033 0.0070216 -3.58036e-20)
(0.994388 0.0106044 -1.49926e-20)
(0.991002 0.0149681 1.71645e-21)
(0.986951 0.0203024 4.54412e-21)
(0.982254 0.0267497 -6.52369e-21)
(0.977019 0.0344398 -3.03452e-20)
(0.97134 0.0435212 -2.94772e-20)
(0.96541 0.0540382 -1.72953e-21)
(0.959357 0.066125 3.60504e-20)
(0.953461 0.07966 3.03134e-20)
(0.94773 0.0946821 -6.43795e-20)
(0.942478 0.110305 8.11937e-20)
(0.936685 0.125782 -1.40633e-19)
(0.999942 0.00141811 -5.28607e-22)
(0.998988 0.00426206 1.85462e-20)
(0.997166 0.00747778 2.13885e-20)
(0.994656 0.0112705 -1.61327e-21)
(0.991454 0.0159627 -9.78587e-21)
(0.987647 0.0216526 5.61485e-21)
(0.983265 0.0285344 3.22478e-20)
(0.978437 0.0367356 5.68599e-21)
(0.973275 0.0464051 -8.57009e-20)
(0.968002 0.0575755 3.61685e-20)
(0.96276 0.0703812 3.25495e-21)
(0.957873 0.0846564 2.07187e-20)
(0.953324 0.100466 -1.16977e-19)
(0.949462 0.116782 8.90663e-20)
(0.945061 0.132954 -2.4063e-20)
(0.999944 0.00150362 1.05643e-20)
(0.999036 0.00451408 2.29053e-21)
(0.997309 0.0079199 -1.07428e-20)
(0.994948 0.0119449 -1.83773e-21)
(0.991949 0.0169258 -8.86992e-22)
(0.9884 0.0229684 -2.6316e-20)
(0.984357 0.0302759 -5.55884e-21)
(0.979968 0.0389761 -3.55214e-20)
(0.975359 0.049216 -2.2688e-20)
(0.970787 0.0610141 -1.26424e-20)
(0.966404 0.074502 1.88818e-20)
(0.962588 0.0894643 6.6834e-20)
(0.959283 0.105999 6.23901e-20)
(0.956889 0.122923 -8.92973e-20)
(0.953931 0.13973 5.17418e-20)
(0.999946 0.00158615 -2.83062e-20)
(0.999089 0.00475694 -2.16917e-20)
(0.99747 0.00834441 3.00832e-22)
(0.995265 0.0126246 2.99113e-20)
(0.992482 0.0178598 1.35758e-20)
(0.989215 0.024246 3.11688e-21)
(0.985536 0.031968 3.73427e-20)
(0.981615 0.041152 -5.16006e-20)
(0.977595 0.0519397 8.40849e-20)
(0.973766 0.0643335 -4.00511e-20)
(0.970288 0.0784571 2.29121e-20)
(0.967597 0.0940425 -7.46931e-20)
(0.965588 0.11123 5.92988e-21)
(0.964742 0.128666 4.62266e-20)
(0.963269 0.146063 -1.14776e-19)
(0.999949 0.00166566 8.64209e-21)
(0.999149 0.00499104 6.36237e-21)
(0.997646 0.00875724 2.00059e-20)
(0.995611 0.0132623 -3.84976e-20)
(0.993056 0.0187699 2.62385e-20)
(0.990092 0.0254966 -2.01477e-20)
(0.986804 0.0336279 -4.50591e-20)
(0.983381 0.0432874 5.13281e-20)
(0.979983 0.0546077 -1.53627e-20)
(0.976936 0.0675721 -5.23448e-20)
(0.974401 0.0822883 1.08594e-20)
(0.972879 0.0984309 1.38218e-19)
(0.972203 0.11619 -1.50109e-19)
(0.972994 0.134026 -2.02019e-20)
(0.97306 0.151963 2.1463e-19)
(0.999954 0.00174272 6.66569e-21)
(0.999216 0.00521946 -1.4876e-20)
(0.997839 0.00916434 -2.44737e-20)
(0.995985 0.0138869 2.84206e-20)
(0.993677 0.0196776 -9.59582e-21)
(0.991038 0.026756 -2.48823e-20)
(0.988166 0.035313 3.22772e-20)
(0.985272 0.0454712 -6.04563e-20)
(0.98253 0.057352 -5.3562e-21)
(0.980297 0.070918 1.40042e-20)
(0.978732 0.0862512 4.21177e-20)
(0.978409 0.10296 2.65225e-20)
(0.979071 0.121275 3.03826e-20)
(0.9816 0.139469 -1.19927e-19)
(0.983277 0.158006 4.30204e-20)
(0.99996 0.00181555 1.61691e-21)
(0.999293 0.00543528 7.36145e-21)
(0.998052 0.00954666 -4.84528e-21)
(0.996394 0.0144782 -1.1904e-21)
(0.994353 0.0205392 2.46305e-20)
(0.992063 0.0279588 -5.54336e-20)
(0.989638 0.0369336 6.88448e-20)
(0.98731 0.0475887 -7.02718e-20)
(0.98526 0.0600342 -2.62122e-20)
(0.983877 0.0742204 5.52903e-20)
(0.983301 0.0901909 1.88152e-20)
(0.98419 0.107511 -8.29305e-22)
(0.986148 0.126367 -7.17845e-20)
(0.990566 0.144949 7.92845e-21)
(0.993848 0.164345 7.52439e-21)
)
;

boundaryField
{
    inlet
    {
        type            uniformFixedValue;
        uniformValue    constant (1 0 0);
        value           uniform (1 0 0);
    }
    outlet
    {
        type            pressureInletOutletVelocity;
        value           nonuniform 0();
    }
    cylinder
    {
        type            fixedValue;
        value           nonuniform 0();
    }
    top
    {
        type            symmetryPlane;
    }
    bottom
    {
        type            symmetryPlane;
    }
    defaultFaces
    {
        type            empty;
    }
    procBoundary8to4
    {
        type            processor;
        value           nonuniform List<vector> 
25
(
(0.159983 0.0168581 1.46832e-20)
(0.321236 0.0179369 -8.43966e-20)
(0.321236 0.0179369 -8.43966e-20)
(0.451042 -0.0166137 6.82051e-20)
(0.564384 -0.0143228 1.85849e-20)
(0.651444 -0.0120458 -1.06312e-20)
(0.721893 -0.0100261 5.61181e-20)
(0.777208 -0.00836163 8.34399e-21)
(0.821907 -0.00699909 1.73861e-20)
(0.857968 -0.00589053 -1.37332e-20)
(0.999946 -5.13428e-05 -1.91914e-22)
(0.998695 -0.000156092 2.77763e-21)
(0.996225 -0.000274152 -1.09782e-21)
(0.992748 -0.000413353 1.14185e-21)
(0.988206 -0.00058229 7.37337e-22)
(0.982595 -0.000787704 -1.91321e-21)
(0.975864 -0.00103516 2.06412e-21)
(0.967992 -0.00133467 -6.91929e-22)
(0.958947 -0.00169082 -8.47758e-22)
(0.948709 -0.00210964 -2.4091e-21)
(0.937273 -0.00259774 3.29817e-21)
(0.924656 -0.00315861 -3.31386e-21)
(0.910891 -0.0037928 -4.32581e-21)
(0.896085 -0.00448145 -6.60302e-22)
(0.880342 -0.00517103 7.59942e-22)
)
;
    }
    procBoundary8to9
    {
        type            processor;
        value           nonuniform List<vector> 
37
(
(1.13474 0.242401 1.05356e-19)
(1.1183 0.286756 -1.46667e-19)
(1.1183 0.286756 -1.46667e-19)
(1.09556 0.335718 -4.42475e-20)
(1.09556 0.335718 -4.42475e-20)
(1.06137 0.387708 1.58451e-19)
(1.04129 0.389561 -1.72711e-19)
(1.04129 0.389561 -1.72711e-19)
(0.986421 0.439532 -1.7707e-19)
(0.96402 0.440719 1.00686e-19)
(0.96402 0.440719 1.00686e-19)
(0.875099 0.478122 3.40507e-19)
(0.850562 0.478561 -1.40823e-19)
(0.825384 0.476808 -2.39919e-20)
(0.825384 0.476808 -2.39919e-20)
(0.69111 0.480665 2.94166e-19)
(0.665203 0.477412 8.55154e-22)
(0.638895 0.471627 -4.80362e-19)
(0.612419 0.463329 2.7723e-19)
(0.585995 0.452541 -2.99634e-19)
(0.585995 0.452541 -2.99634e-19)
(0.390574 0.394731 -1.30086e-19)
(0.366515 0.382934 1.28443e-21)
(0.342895 0.368697 5.68036e-19)
(0.31993 0.352091 1.86965e-19)
(0.29783 0.333206 -9.74146e-19)
(0.276795 0.31215 5.63305e-19)
(0.257017 0.289048 5.76735e-21)
(0.238673 0.264043 -7.16835e-19)
(0.238673 0.264043 -7.16835e-19)
(0.0753357 0.136453 3.75182e-19)
(0.0661893 0.120524 2.18868e-19)
(0.05816 0.103648 -1.04723e-18)
(0.0513333 0.0859526 5.44762e-19)
(0.045782 0.0675756 -1.34144e-19)
(0.0415655 0.0486602 1.40178e-19)
(0.0387289 0.0293551 1.24234e-20)
)
;
    }
    procBoundary8to12
    {
        type            processor;
        value           nonuniform List<vector> 
34
(
(1.13292 0.206831 7.11279e-22)
(1.12041 0.187281 4.39769e-20)
(1.10852 0.187307 6.55617e-20)
(1.09663 0.186835 2.09647e-20)
(1.09663 0.186835 2.09647e-20)
(1.08601 0.180373 -4.67541e-20)
(1.08601 0.180373 -4.67541e-20)
(1.07642 0.173815 2.01014e-20)
(1.07642 0.173815 2.01014e-20)
(1.06807 0.167209 -1.06191e-19)
(1.06807 0.167209 -1.06191e-19)
(1.06093 0.160768 -2.13293e-20)
(1.06093 0.160768 -2.13293e-20)
(1.05498 0.154586 -2.3186e-19)
(1.05498 0.154586 -2.3186e-19)
(1.04994 0.148631 -8.93591e-20)
(1.04994 0.148631 -8.93591e-20)
(1.04478 0.142895 9.27525e-20)
(1.02759 0.129172 0)
(1.0351 0.140227 0)
(0.999997 0.00200333 0)
(0.999869 0.00596149 0)
(0.999651 0.010397 0)
(0.999445 0.0156243 0)
(0.999326 0.0219129 0)
(0.999451 0.0294225 0)
(0.999962 0.0382311 0)
(1.0011 0.0483488 0)
(1.00301 0.0596742 0)
(1.00604 0.0720703 0)
(1.01016 0.0852194 0)
(1.01592 0.0989219 0)
(1.02759 0.129172 0)
(1.02259 0.112502 0)
)
;
    }
}


// ************************************************************************* //
