/*--------------------------------*- C++ -*----------------------------------*\
  =========                 |
  \\      /  F ield         | OpenFOAM: The Open Source CFD Toolbox
   \\    /   O peration     | Website:  https://openfoam.org
    \\  /    A nd           | Version:  7
     \\/     M anipulation  |
\*---------------------------------------------------------------------------*/
FoamFile
{
    version     2.0;
    format      ascii;
    class       volScalarField;
    location    "10";
    object      p;
}
// * * * * * * * * * * * * * * * * * * * * * * * * * * * * * * * * * * * * * //

dimensions      [0 2 -2 0 0 0 0];

internalField   nonuniform List<scalar> 
2625
(
-0.0837296
-0.0844317
-0.085048
-0.0855823
-0.0860344
-0.0837554
-0.0844564
-0.0850717
-0.0856055
-0.0860562
-0.083808
-0.0845064
-0.0851195
-0.0856519
-0.0860998
-0.0838788
-0.0845752
-0.0851867
-0.0857186
-0.0861634
-0.0839666
-0.0846619
-0.0852725
-0.0858046
-0.0862462
-0.0840714
-0.0847661
-0.0853764
-0.0859096
-0.0863476
-0.0841925
-0.0848873
-0.0854977
-0.0860327
-0.0864667
-0.0843294
-0.0850248
-0.0856359
-0.0861734
-0.0866029
-0.0844813
-0.085178
-0.0857901
-0.086331
-0.0867557
-0.0846477
-0.0853461
-0.0859598
-0.0865049
-0.0869242
-0.0848279
-0.0855287
-0.0861444
-0.0866945
-0.0871081
-0.0850214
-0.0857251
-0.0863432
-0.0868991
-0.0873067
-0.0852276
-0.0859347
-0.0865557
-0.0871182
-0.0875196
-0.0854459
-0.0861571
-0.0867812
-0.0873513
-0.0877463
-0.0856759
-0.0863915
-0.0870193
-0.0875978
-0.0879863
-0.0859169
-0.0866376
-0.0872695
-0.0878572
-0.0882393
-0.0861685
-0.0868948
-0.0875311
-0.0881288
-0.0885049
-0.0864301
-0.0871625
-0.0878037
-0.0884123
-0.0887826
-0.0867013
-0.0874402
-0.0880869
-0.0887071
-0.0890723
-0.0869816
-0.0877275
-0.08838
-0.0890126
-0.0893735
-0.0872706
-0.0880238
-0.0886828
-0.0893283
-0.0896861
-0.0875677
-0.0883287
-0.0889948
-0.0896536
-0.0900097
-0.0878724
-0.0886415
-0.0893155
-0.0899881
-0.0903442
-0.0881845
-0.0889619
-0.0896445
-0.0903311
-0.0906893
-0.0885034
-0.0892893
-0.0899814
-0.0906821
-0.0910449
-0.0888287
-0.0896232
-0.0903259
-0.0910404
-0.0914108
-0.0891599
-0.089963
-0.0906776
-0.0914055
-0.0917869
-0.0894968
-0.0903083
-0.0910362
-0.0917767
-0.0921731
-0.0898387
-0.0906586
-0.0914012
-0.0921534
-0.0925692
-0.0901855
-0.0910133
-0.0917725
-0.0925348
-0.0929753
-0.0905365
-0.0913719
-0.0921496
-0.0929203
-0.0933913
-0.0908914
-0.0917339
-0.0925322
-0.0933092
-0.0938172
-0.0912497
-0.0920988
-0.09292
-0.0937006
-0.094253
-0.0916111
-0.0924661
-0.0933127
-0.094094
-0.0946987
-0.091975
-0.0928354
-0.0937097
-0.0944885
-0.0951544
-0.0923409
-0.0932061
-0.0941107
-0.0948834
-0.0956201
-0.0927084
-0.0935779
-0.0945152
-0.095278
-0.0960959
-0.0920686
-0.0930769
-0.0939504
-0.0949226
-0.0956718
-0.0965817
-0.0924243
-0.0934459
-0.0943234
-0.0953322
-0.0960641
-0.0970775
-0.0927804
-0.0938149
-0.0946963
-0.0957433
-0.0964544
-0.0975831
-0.0931364
-0.0941832
-0.0950691
-0.0961548
-0.0968427
-0.0980983
-0.0934921
-0.0945502
-0.0954413
-0.0965659
-0.0972286
-0.0986226
-0.0938469
-0.0949155
-0.0958129
-0.0969753
-0.0976123
-0.0991554
-0.0942005
-0.0952785
-0.0961834
-0.0973817
-0.0979943
-0.0996955
-0.0945525
-0.0956386
-0.0965527
-0.0977839
-0.098375
-0.100241
-0.0949025
-0.0959953
-0.0969203
-0.0981803
-0.0987553
-0.100791
-0.09525
-0.0963481
-0.0972858
-0.0985695
-0.0991363
-0.101342
-0.0955946
-0.0966965
-0.0976487
-0.0989502
-0.0995193
-0.10189
-0.0959357
-0.0970401
-0.0980082
-0.0993208
-0.0999055
-0.10243
-0.0962729
-0.0973784
-0.0983635
-0.0996804
-0.100296
-0.0966058
-0.0977111
-0.0987135
-0.100028
-0.100691
-0.0969337
-0.0980378
-0.0990572
-0.100363
-0.0972562
-0.098358
-0.0993932
-0.100684
-0.0975727
-0.0986709
-0.0997199
-0.097883
-0.098976
-0.100035
-0.0981883
-0.0992742
-0.100339
-0.0984851
-0.0995657
-0.0987612
-0.0998399
-0.0990298
-0.0993873
-0.0864009
-0.0866898
-0.0869169
-0.0870826
-0.087186
-0.087227
-0.0872055
-0.0871214
-0.0869749
-0.0867661
-0.0864952
-0.0861628
-0.0857693
-0.0853154
-0.0848017
-0.0842293
-0.0835991
-0.0829121
-0.0821698
-0.0813733
-0.0805241
-0.0796238
-0.0786739
-0.0776762
-0.0766322
-0.0755439
-0.0744129
-0.0732413
-0.0720307
-0.0707831
-0.0695004
-0.0681844
-0.0668369
-0.0654598
-0.0640549
-0.0626239
-0.0611685
-0.0596905
-0.0581915
-0.0566731
-0.0551371
-0.0535849
-0.0520181
-0.0504384
-0.0488472
-0.0472463
-0.0456371
-0.0440214
-0.0424009
-0.0864258
-0.0867132
-0.0869393
-0.0871043
-0.0872069
-0.087247
-0.0872247
-0.0871398
-0.0869925
-0.0867829
-0.0865113
-0.0861781
-0.0857838
-0.0853291
-0.0848146
-0.0842415
-0.0836105
-0.0829228
-0.0821798
-0.0813826
-0.0805327
-0.0796318
-0.0786813
-0.0776829
-0.0766383
-0.0755494
-0.074418
-0.0732458
-0.0720348
-0.0707868
-0.0695037
-0.0681873
-0.0668395
-0.0654621
-0.0640568
-0.0626256
-0.06117
-0.0596917
-0.0581926
-0.0566741
-0.0551378
-0.0535855
-0.0520186
-0.0504388
-0.0488476
-0.0472465
-0.0456373
-0.0440216
-0.042401
-0.0864749
-0.0867596
-0.0869836
-0.0871471
-0.087248
-0.0872866
-0.0872626
-0.0871762
-0.0870273
-0.0868161
-0.0865429
-0.0862082
-0.0858123
-0.0853561
-0.0848402
-0.0842655
-0.083633
-0.082944
-0.0821995
-0.0814009
-0.0805498
-0.0796475
-0.0786957
-0.0776962
-0.0766505
-0.0755605
-0.074428
-0.0732549
-0.072043
-0.0707941
-0.0695102
-0.0681931
-0.0668446
-0.0654665
-0.0640607
-0.0626289
-0.0611729
-0.0596942
-0.0581947
-0.0566759
-0.0551394
-0.0535868
-0.0520197
-0.0504397
-0.0488483
-0.0472471
-0.0456377
-0.0440219
-0.0424012
-0.0865469
-0.0868277
-0.0870488
-0.0872101
-0.0873086
-0.0873448
-0.0873185
-0.0872297
-0.0870785
-0.086865
-0.0865896
-0.0862525
-0.0858544
-0.0853959
-0.0848778
-0.0843009
-0.0836663
-0.0829751
-0.0822285
-0.0814279
-0.0805748
-0.0796706
-0.078717
-0.0777157
-0.0766684
-0.0755768
-0.0744428
-0.0732682
-0.072055
-0.0708048
-0.0695198
-0.0682016
-0.0668521
-0.0654731
-0.0640665
-0.0626339
-0.0611772
-0.0596979
-0.0581978
-0.0566785
-0.0551416
-0.0535886
-0.0520212
-0.0504409
-0.0488493
-0.0472479
-0.0456383
-0.0440223
-0.0424015
-0.0866413
-0.086917
-0.0871342
-0.0872925
-0.087388
-0.0874211
-0.0873917
-0.0872999
-0.0871456
-0.0869291
-0.0866506
-0.0863106
-0.0859095
-0.0854481
-0.084927
-0.0843472
-0.0837098
-0.0830158
-0.0822665
-0.0814633
-0.0806076
-0.0797009
-0.0787449
-0.0777413
-0.0766918
-0.0755981
-0.0744621
-0.0732857
-0.0720706
-0.0708189
-0.0695323
-0.0682126
-0.0668619
-0.0654817
-0.064074
-0.0626404
-0.0611828
-0.0597027
-0.0582019
-0.056682
-0.0551445
-0.053591
-0.0520232
-0.0504425
-0.0488506
-0.0472489
-0.0456391
-0.0440229
-0.042402
-0.0867573
-0.0870265
-0.0872391
-0.0873938
-0.0874855
-0.0875147
-0.0874816
-0.087386
-0.087228
-0.0870078
-0.0867256
-0.0863819
-0.0859772
-0.0855121
-0.0849874
-0.0844041
-0.0837632
-0.0830658
-0.0823132
-0.0815067
-0.0806478
-0.0797381
-0.0787792
-0.0777727
-0.0767205
-0.0756242
-0.0744858
-0.0733071
-0.0720899
-0.0708361
-0.0695476
-0.0682262
-0.0668738
-0.0654922
-0.0640832
-0.0626484
-0.0611897
-0.0597086
-0.0582069
-0.0566862
-0.0551481
-0.053594
-0.0520256
-0.0504445
-0.0488522
-0.0472502
-0.0456401
-0.0440237
-0.0424025
-0.0868942
-0.0871555
-0.0873626
-0.0875133
-0.0876004
-0.0876251
-0.0875876
-0.0874876
-0.0873252
-0.0871005
-0.086814
-0.0864659
-0.0860569
-0.0855875
-0.0850587
-0.0844712
-0.0838261
-0.0831247
-0.0823681
-0.0815578
-0.0806952
-0.0797819
-0.0788195
-0.0778097
-0.0767542
-0.075655
-0.0745137
-0.0733322
-0.0721125
-0.0708564
-0.0695657
-0.0682422
-0.066888
-0.0655046
-0.064094
-0.0626578
-0.0611978
-0.0597156
-0.0582129
-0.0566912
-0.0551522
-0.0535975
-0.0520285
-0.0504469
-0.048854
-0.0472517
-0.0456413
-0.0440245
-0.0424031
-0.0870513
-0.0873032
-0.0875043
-0.0876501
-0.087732
-0.0877516
-0.087709
-0.0876039
-0.0874365
-0.0872068
-0.0869153
-0.0865622
-0.0861483
-0.085674
-0.0851403
-0.084548
-0.0838982
-0.0831922
-0.0824311
-0.0816164
-0.0807495
-0.079832
-0.0788656
-0.077852
-0.0767929
-0.0756902
-0.0745456
-0.073361
-0.0721384
-0.0708795
-0.0695863
-0.0682605
-0.0669041
-0.0655188
-0.0641063
-0.0626685
-0.061207
-0.0597235
-0.0582196
-0.0566969
-0.055157
-0.0536015
-0.0520318
-0.0504495
-0.0488562
-0.0472534
-0.0456426
-0.0440255
-0.0424038
-0.0872279
-0.087469
-0.0876632
-0.0878037
-0.0878798
-0.0878936
-0.0878453
-0.0877345
-0.0875614
-0.0873261
-0.087029
-0.0866703
-0.0862508
-0.085771
-0.0852319
-0.0846342
-0.0839791
-0.0832679
-0.0825017
-0.081682
-0.0808103
-0.0798882
-0.0789173
-0.0778994
-0.0768362
-0.0757296
-0.0745813
-0.0733933
-0.0721674
-0.0709055
-0.0696094
-0.068281
-0.0669221
-0.0655346
-0.0641201
-0.0626805
-0.0612173
-0.0597324
-0.0582271
-0.0567033
-0.0551624
-0.0536059
-0.0520355
-0.0504525
-0.0488586
-0.0472553
-0.045644
-0.0440266
-0.0424045
-0.0874232
-0.087652
-0.0878389
-0.0879734
-0.0880431
-0.0880505
-0.0879959
-0.0878788
-0.0876995
-0.087458
-0.0871546
-0.0867898
-0.0863641
-0.0858782
-0.085333
-0.0847294
-0.0840685
-0.0833515
-0.0825797
-0.0817545
-0.0808775
-0.0799502
-0.0789744
-0.0779518
-0.076884
-0.0757731
-0.0746207
-0.0734288
-0.0721993
-0.070934
-0.0696348
-0.0683036
-0.066942
-0.065552
-0.0641354
-0.0626937
-0.0612287
-0.0597421
-0.0582354
-0.0567103
-0.0551683
-0.0536108
-0.0520395
-0.0504558
-0.0488612
-0.0472573
-0.0456457
-0.0440278
-0.0424054
-0.0876366
-0.0878517
-0.0880305
-0.0881586
-0.0882212
-0.0882218
-0.0881602
-0.0880363
-0.0878502
-0.0876018
-0.0872917
-0.0869201
-0.0864877
-0.0859952
-0.0854434
-0.0848332
-0.0841659
-0.0834426
-0.0826646
-0.0818335
-0.0809507
-0.0800178
-0.0790366
-0.0780087
-0.0769361
-0.0758204
-0.0746636
-0.0734675
-0.0722341
-0.0709651
-0.0696625
-0.0683281
-0.0669636
-0.065571
-0.0641519
-0.062708
-0.0612411
-0.0597527
-0.0582445
-0.0567179
-0.0551747
-0.0536161
-0.0520439
-0.0504594
-0.0488641
-0.0472596
-0.0456474
-0.0440291
-0.0424063
-0.0878674
-0.0880672
-0.0882376
-0.0883586
-0.0884136
-0.0884067
-0.0883378
-0.0882065
-0.0880129
-0.0877573
-0.0874398
-0.0870609
-0.0866213
-0.0861215
-0.0855625
-0.0849454
-0.0842711
-0.083541
-0.0827564
-0.0819187
-0.0810296
-0.0800907
-0.0791036
-0.0780702
-0.0769922
-0.0758714
-0.0747098
-0.0735092
-0.0722715
-0.0709986
-0.0696923
-0.0683545
-0.0669869
-0.0655914
-0.0641697
-0.0627234
-0.0612544
-0.0597641
-0.0582541
-0.0567261
-0.0551815
-0.0536218
-0.0520486
-0.0504632
-0.0488672
-0.047262
-0.0456493
-0.0440305
-0.0424073
-0.0881149
-0.0882978
-0.0884594
-0.088573
-0.0886198
-0.0886049
-0.088528
-0.0883888
-0.0881873
-0.0879238
-0.0875984
-0.0872117
-0.0867643
-0.0862568
-0.0856902
-0.0850654
-0.0843837
-0.0836463
-0.0828545
-0.08201
-0.0811141
-0.0801687
-0.0791753
-0.0781359
-0.0770521
-0.075926
-0.0747592
-0.0735538
-0.0723115
-0.0710343
-0.0697241
-0.0683826
-0.0670117
-0.0656131
-0.0641886
-0.0627399
-0.0612685
-0.0597762
-0.0582644
-0.0567348
-0.0551888
-0.0536279
-0.0520536
-0.0504673
-0.0488704
-0.0472646
-0.0456513
-0.044032
-0.0424083
-0.0883785
-0.088543
-0.0886954
-0.0888009
-0.0888391
-0.0888157
-0.0887304
-0.0885828
-0.0883729
-0.088101
-0.0877673
-0.0873722
-0.0869164
-0.0864007
-0.0858259
-0.0851931
-0.0845034
-0.0837582
-0.0829589
-0.0821069
-0.0812038
-0.0802515
-0.0792515
-0.0782056
-0.0771158
-0.0759838
-0.0748116
-0.073601
-0.0723539
-0.0710722
-0.0697578
-0.0684124
-0.067038
-0.0656361
-0.0642087
-0.0627572
-0.0612835
-0.059789
-0.0582753
-0.056744
-0.0551965
-0.0536343
-0.0520588
-0.0504715
-0.0488739
-0.0472673
-0.0456534
-0.0440335
-0.0424094
-0.0886574
-0.0888021
-0.0889449
-0.089042
-0.089071
-0.0890386
-0.0889444
-0.0887879
-0.0885692
-0.0882884
-0.0879458
-0.0875419
-0.0870773
-0.0865528
-0.0859694
-0.085328
-0.0846299
-0.0838765
-0.083069
-0.0822092
-0.0812986
-0.0803388
-0.0793318
-0.0782792
-0.0771829
-0.0760448
-0.0748668
-0.0736507
-0.0723985
-0.0711121
-0.0697932
-0.0684438
-0.0670656
-0.0656603
-0.0642298
-0.0627755
-0.0612992
-0.0598025
-0.0582868
-0.0567537
-0.0552046
-0.053641
-0.0520644
-0.050476
-0.0488775
-0.0472702
-0.0456556
-0.0440352
-0.0424106
-0.0889509
-0.0890744
-0.0892074
-0.0892956
-0.0893149
-0.0892732
-0.0891696
-0.0890038
-0.0887757
-0.0884855
-0.0881336
-0.0877204
-0.0872465
-0.0867128
-0.0861202
-0.0854698
-0.0847629
-0.0840007
-0.0831848
-0.0823167
-0.0813981
-0.0804306
-0.0794161
-0.0783564
-0.0772533
-0.0761087
-0.0749246
-0.0737028
-0.0724453
-0.0711539
-0.0698304
-0.0684767
-0.0670945
-0.0656857
-0.0642518
-0.0627946
-0.0613157
-0.0598165
-0.0582987
-0.0567637
-0.055213
-0.053648
-0.0520701
-0.0504807
-0.0488813
-0.0472732
-0.0456579
-0.0440369
-0.0424118
-0.0892585
-0.0893593
-0.0894824
-0.0895612
-0.0895704
-0.0895189
-0.0894055
-0.0892299
-0.088992
-0.0886921
-0.0883304
-0.0879074
-0.0874238
-0.0868804
-0.0862782
-0.0856183
-0.084902
-0.0841307
-0.0833059
-0.0824291
-0.081502
-0.0805265
-0.0795042
-0.078437
-0.0773268
-0.0761755
-0.074985
-0.0737572
-0.0724941
-0.0711974
-0.0698691
-0.0685109
-0.0671246
-0.065712
-0.0642747
-0.0628145
-0.0613327
-0.0598311
-0.0583111
-0.0567742
-0.0552218
-0.0536553
-0.0520761
-0.0504856
-0.0488852
-0.0472762
-0.0456602
-0.0440386
-0.042413
-0.0895794
-0.0896562
-0.0897692
-0.0898382
-0.089837
-0.0897752
-0.0896517
-0.0894659
-0.0892178
-0.0889076
-0.0885357
-0.0881025
-0.0876087
-0.0870551
-0.0864429
-0.0857731
-0.0850471
-0.0842662
-0.083432
-0.0825462
-0.0816103
-0.0806263
-0.0795958
-0.0785208
-0.0774032
-0.0762449
-0.0750477
-0.0738137
-0.0725447
-0.0712426
-0.0699092
-0.0685464
-0.0671558
-0.0657393
-0.0642985
-0.062835
-0.0613504
-0.0598462
-0.058324
-0.056785
-0.0552308
-0.0536628
-0.0520823
-0.0504906
-0.0488892
-0.0472794
-0.0456626
-0.0440404
-0.0424142
-0.0899129
-0.0899644
-0.0900673
-0.0901261
-0.090114
-0.0900417
-0.0899076
-0.0897112
-0.0894525
-0.0891317
-0.0887491
-0.0883053
-0.0878008
-0.0872367
-0.086614
-0.0859339
-0.0851977
-0.0844069
-0.083563
-0.0826676
-0.0817226
-0.0807297
-0.0796908
-0.0786077
-0.0774824
-0.0763167
-0.0751127
-0.0738722
-0.0725971
-0.0712893
-0.0699507
-0.068583
-0.0671881
-0.0657675
-0.064323
-0.0628562
-0.0613687
-0.0598618
-0.0583372
-0.0567962
-0.0552402
-0.0536705
-0.0520886
-0.0504957
-0.0488933
-0.0472826
-0.0456651
-0.0440422
-0.0424155
-0.0902584
-0.0902835
-0.0903763
-0.0904244
-0.0904012
-0.090318
-0.090173
-0.0899656
-0.0896959
-0.0893641
-0.0889704
-0.0885155
-0.088
-0.0874249
-0.0867913
-0.0861004
-0.0853536
-0.0845524
-0.0836984
-0.0827933
-0.0818388
-0.0808367
-0.079789
-0.0786975
-0.0775641
-0.0763909
-0.0751797
-0.0739325
-0.0726511
-0.0713375
-0.0699935
-0.0686208
-0.0672213
-0.0657965
-0.0643483
-0.062878
-0.0613874
-0.0598778
-0.0583507
-0.0568076
-0.0552497
-0.0536784
-0.0520951
-0.050501
-0.0488975
-0.0472859
-0.0456676
-0.0440441
-0.0424168
-0.0906152
-0.0906128
-0.0906955
-0.0907326
-0.0906979
-0.0906035
-0.0904472
-0.0902286
-0.0899475
-0.0896043
-0.0891991
-0.0887327
-0.0882058
-0.0876193
-0.0869744
-0.0862724
-0.0855146
-0.0847027
-0.0838382
-0.0829229
-0.0819585
-0.080947
-0.0798901
-0.0787899
-0.0776483
-0.0764672
-0.0752487
-0.0739945
-0.0727066
-0.071387
-0.0700374
-0.0686596
-0.0672553
-0.0658263
-0.0643741
-0.0629004
-0.0614066
-0.0598942
-0.0583646
-0.0568193
-0.0552594
-0.0536865
-0.0521017
-0.0505064
-0.0489018
-0.0472893
-0.0456702
-0.044046
-0.042418
-0.0909826
-0.0909518
-0.0910245
-0.0910503
-0.0910038
-0.0908979
-0.0907301
-0.0904998
-0.090207
-0.089852
-0.089435
-0.0889567
-0.0884179
-0.0878196
-0.087163
-0.0864495
-0.0856804
-0.0848573
-0.083982
-0.0830562
-0.0820816
-0.0810603
-0.0799941
-0.0788849
-0.0777347
-0.0765456
-0.0753194
-0.0740581
-0.0727636
-0.0714377
-0.0700823
-0.0686993
-0.0672902
-0.0658567
-0.0644005
-0.0629232
-0.0614262
-0.0599109
-0.0583788
-0.0568312
-0.0552694
-0.0536947
-0.0521084
-0.0505118
-0.0489061
-0.0472927
-0.0456728
-0.0440479
-0.0424193
-0.0913599
-0.0913
-0.0913628
-0.0913769
-0.0913184
-0.0912008
-0.0910211
-0.0907788
-0.090474
-0.0901068
-0.0896776
-0.0891871
-0.088636
-0.0880256
-0.0873569
-0.0866315
-0.0858507
-0.0850162
-0.0841297
-0.083193
-0.082208
-0.0811765
-0.0801006
-0.0789822
-0.0778233
-0.0766258
-0.0753918
-0.0741231
-0.0728217
-0.0714895
-0.0701283
-0.0687398
-0.0673257
-0.0658877
-0.0644275
-0.0629464
-0.0614461
-0.0599279
-0.0583931
-0.0568432
-0.0552794
-0.053703
-0.0521152
-0.0505173
-0.0489105
-0.0472961
-0.0456754
-0.0440497
-0.0424206
-0.0917465
-0.0916569
-0.0917099
-0.091712
-0.0916413
-0.0915117
-0.0913199
-0.0910654
-0.0907482
-0.0903685
-0.0899267
-0.0894235
-0.0888599
-0.0882369
-0.0875558
-0.0868181
-0.0860252
-0.0851789
-0.0842809
-0.0833331
-0.0823372
-0.0812954
-0.0802096
-0.0790817
-0.0779137
-0.0767077
-0.0754657
-0.0741895
-0.0728811
-0.0715423
-0.0701751
-0.068781
-0.0673619
-0.0659193
-0.0644549
-0.0629701
-0.0614663
-0.0599451
-0.0584077
-0.0568555
-0.0552896
-0.0537114
-0.0521221
-0.0505228
-0.0489149
-0.0472995
-0.045678
-0.0440516
-0.0424218
-0.0921416
-0.092022
-0.0920654
-0.0920552
-0.0919721
-0.0918304
-0.0916262
-0.0913591
-0.0910293
-0.0906367
-0.090182
-0.0896658
-0.0890892
-0.0884533
-0.0877594
-0.087009
-0.0862038
-0.0853453
-0.0844355
-0.0834762
-0.0824693
-0.0814168
-0.0803208
-0.0791831
-0.078006
-0.0767912
-0.075541
-0.0742571
-0.0729415
-0.0715961
-0.0702227
-0.0688229
-0.0673986
-0.0659513
-0.0644826
-0.062994
-0.0614868
-0.0599626
-0.0584225
-0.0568678
-0.0552999
-0.0537199
-0.052129
-0.0505284
-0.0489193
-0.0473029
-0.0456805
-0.0440534
-0.042423
-0.0925445
-0.0923947
-0.0924288
-0.0924061
-0.0923105
-0.0921564
-0.0919396
-0.0916597
-0.0913168
-0.0909111
-0.0904431
-0.0899136
-0.0893237
-0.0886745
-0.0879675
-0.0872041
-0.0863861
-0.0855152
-0.0845933
-0.0836222
-0.082604
-0.0815406
-0.0804341
-0.0792865
-0.0780998
-0.0768762
-0.0756175
-0.0743258
-0.0730028
-0.0716506
-0.0702709
-0.0688654
-0.0674359
-0.0659838
-0.0645107
-0.0630182
-0.0615076
-0.0599802
-0.0584373
-0.0568803
-0.0553103
-0.0537284
-0.052136
-0.050534
-0.0489237
-0.0473064
-0.0456831
-0.0440553
-0.0424242
-0.0929545
-0.0927747
-0.0927997
-0.0927642
-0.092656
-0.0924894
-0.0922597
-0.0919668
-0.0916106
-0.0911915
-0.0907098
-0.0901667
-0.089563
-0.0889002
-0.0881797
-0.087403
-0.086572
-0.0856883
-0.084754
-0.0837708
-0.082741
-0.0816664
-0.0805492
-0.0793915
-0.0781952
-0.0769624
-0.0756952
-0.0743954
-0.073065
-0.0717059
-0.0703198
-0.0689085
-0.0674735
-0.0660166
-0.0645391
-0.0630426
-0.0615284
-0.0599979
-0.0584523
-0.0568928
-0.0553207
-0.053737
-0.0521429
-0.0505396
-0.0489281
-0.0473097
-0.0456856
-0.044057
-0.0424253
-0.0933708
-0.0931615
-0.0931776
-0.0931292
-0.0930084
-0.092829
-0.0925864
-0.0922802
-0.0919104
-0.0914774
-0.0909819
-0.0904247
-0.089807
-0.0891302
-0.0883959
-0.0876056
-0.0867612
-0.0858645
-0.0849174
-0.083922
-0.0828802
-0.0817943
-0.0806662
-0.079498
-0.0782919
-0.0770499
-0.0757739
-0.074466
-0.073128
-0.0717618
-0.0703692
-0.0689519
-0.0675115
-0.0660496
-0.0645677
-0.0630672
-0.0615495
-0.0600158
-0.0584673
-0.0569054
-0.0553311
-0.0537455
-0.0521498
-0.0505451
-0.0489325
-0.0473131
-0.0456881
-0.0440588
-0.0424264
-0.0937928
-0.0935548
-0.0935622
-0.0935007
-0.0933672
-0.0931751
-0.0929192
-0.0925994
-0.0922158
-0.0917687
-0.0912589
-0.0906874
-0.0900553
-0.0893643
-0.0886158
-0.0878116
-0.0869535
-0.0860434
-0.0850833
-0.0840753
-0.0830215
-0.0819239
-0.0807847
-0.079606
-0.0783899
-0.0771383
-0.0758535
-0.0745373
-0.0731916
-0.0718183
-0.0704191
-0.0689957
-0.0675498
-0.066083
-0.0645965
-0.063092
-0.0615706
-0.0600337
-0.0584824
-0.056918
-0.0553415
-0.0537541
-0.0521567
-0.0505506
-0.0489368
-0.0473164
-0.0456905
-0.0440604
-0.0424274
-0.0942196
-0.093954
-0.093953
-0.0938784
-0.0937323
-0.0935272
-0.093258
-0.0929244
-0.0925267
-0.0920652
-0.0915407
-0.0909545
-0.0903078
-0.0896021
-0.0888391
-0.0880207
-0.0871486
-0.0862249
-0.0852516
-0.0842308
-0.0831646
-0.0820552
-0.0809047
-0.0797152
-0.0784889
-0.0772278
-0.0759339
-0.0746092
-0.0732557
-0.0718752
-0.0704693
-0.0690398
-0.0675884
-0.0661164
-0.0646254
-0.0631168
-0.0615917
-0.0600516
-0.0584975
-0.0569305
-0.0553519
-0.0537625
-0.0521636
-0.0505561
-0.0489411
-0.0473196
-0.0456929
-0.044062
-0.0424283
-0.0946505
-0.094359
-0.0943496
-0.0942619
-0.0941032
-0.0938852
-0.0936023
-0.0932548
-0.0928426
-0.0923664
-0.0918271
-0.0912258
-0.0905641
-0.0898435
-0.0890658
-0.0882328
-0.0873464
-0.0864088
-0.0854221
-0.0843882
-0.0833094
-0.082188
-0.0810259
-0.0798255
-0.0785888
-0.077318
-0.076015
-0.0746818
-0.0733203
-0.0719324
-0.0705198
-0.0690842
-0.0676271
-0.06615
-0.0646544
-0.0631416
-0.0616129
-0.0600695
-0.0585125
-0.056943
-0.0553622
-0.053771
-0.0521704
-0.0505615
-0.0489452
-0.0473228
-0.0456951
-0.0440635
-0.0424291
-0.0950847
-0.0947692
-0.0947517
-0.094651
-0.0944798
-0.0942487
-0.0939522
-0.0935904
-0.0931635
-0.0926722
-0.0921177
-0.0915011
-0.090824
-0.0900882
-0.0892954
-0.0884476
-0.0875467
-0.086595
-0.0855944
-0.0845473
-0.0834558
-0.082322
-0.0811483
-0.0799368
-0.0786896
-0.0774089
-0.0760966
-0.0747548
-0.0733853
-0.07199
-0.0705706
-0.0691287
-0.0676659
-0.0661837
-0.0646834
-0.0631665
-0.0616341
-0.0600874
-0.0585275
-0.0569555
-0.0553724
-0.0537793
-0.0521771
-0.0505667
-0.0489493
-0.0473258
-0.0456973
-0.0440649
-0.0424298
-0.0955214
-0.0951845
-0.095159
-0.0950453
-0.0948618
-0.0946176
-0.0943071
-0.0939309
-0.093489
-0.0929824
-0.0924123
-0.09178
-0.0910873
-0.0903359
-0.0895278
-0.0886649
-0.0877493
-0.0867831
-0.0857686
-0.084708
-0.0836034
-0.0824573
-0.0812717
-0.0800489
-0.0787911
-0.0775004
-0.0761787
-0.0748282
-0.0734506
-0.0720478
-0.0706214
-0.0691733
-0.0677047
-0.0662173
-0.0647124
-0.0631913
-0.0616551
-0.0601051
-0.0585424
-0.0569678
-0.0553826
-0.0537875
-0.0521837
-0.0505719
-0.0489533
-0.0473288
-0.0456994
-0.0440662
-0.0424305
-0.0959596
-0.0956046
-0.0955711
-0.0954447
-0.095249
-0.0949915
-0.0946671
-0.0942761
-0.093819
-0.0932967
-0.0927107
-0.0920625
-0.0913538
-0.0905866
-0.0897628
-0.0888845
-0.0879538
-0.0869731
-0.0859443
-0.08487
-0.0837523
-0.0825935
-0.081396
-0.0801618
-0.0788932
-0.0775923
-0.0762612
-0.0749018
-0.073516
-0.0721057
-0.0706724
-0.0692179
-0.0677436
-0.066251
-0.0647413
-0.063216
-0.0616761
-0.0601228
-0.0585571
-0.0569801
-0.0553926
-0.0537956
-0.0521901
-0.050577
-0.0489572
-0.0473316
-0.0457013
-0.0440674
-0.042431
-0.0963986
-0.0960292
-0.0959877
-0.0958489
-0.0956411
-0.0953705
-0.0950318
-0.0946258
-0.0941531
-0.0936149
-0.0930127
-0.0923482
-0.0916232
-0.0908399
-0.0900002
-0.0891062
-0.0881603
-0.0871646
-0.0861215
-0.0850333
-0.0839022
-0.0827307
-0.081521
-0.0802753
-0.0789958
-0.0776847
-0.076344
-0.0749757
-0.0735816
-0.0721636
-0.0707234
-0.0692625
-0.0677824
-0.0662845
-0.0647702
-0.0632406
-0.061697
-0.0601403
-0.0585717
-0.0569921
-0.0554024
-0.0538036
-0.0521964
-0.0505819
-0.0489609
-0.0473343
-0.0457031
-0.0440684
-0.0424314
-0.0968375
-0.096458
-0.0964085
-0.0962578
-0.0960381
-0.0957541
-0.095401
-0.0949798
-0.0944912
-0.0939367
-0.093318
-0.0926369
-0.0918954
-0.0910956
-0.0902397
-0.0893299
-0.0883684
-0.0873577
-0.0863
-0.0851976
-0.0840531
-0.0828686
-0.0816465
-0.0803892
-0.0790987
-0.0777773
-0.0764269
-0.0750496
-0.0736473
-0.0722216
-0.0707743
-0.069307
-0.067821
-0.0663179
-0.0647988
-0.0632651
-0.0617177
-0.0601577
-0.0585862
-0.057004
-0.0554122
-0.0538114
-0.0522026
-0.0505867
-0.0489645
-0.0473368
-0.0457048
-0.0440694
-0.0424316
-0.0972754
-0.096891
-0.0968332
-0.0966712
-0.0964397
-0.0961424
-0.0957747
-0.0953379
-0.0948332
-0.094262
-0.0936264
-0.0929284
-0.09217
-0.0913536
-0.0904812
-0.0895553
-0.0885781
-0.087552
-0.0864795
-0.0853629
-0.0842046
-0.0830071
-0.0817726
-0.0805035
-0.0792019
-0.07787
-0.07651
-0.0751236
-0.0737129
-0.0722795
-0.0708251
-0.0693513
-0.0678596
-0.0663511
-0.0648273
-0.0632893
-0.0617381
-0.0601749
-0.0586005
-0.0570158
-0.0554217
-0.053819
-0.0522086
-0.0505913
-0.0489679
-0.0473392
-0.0457063
-0.0440701
-0.0424317
-0.0977113
-0.097328
-0.0972618
-0.097089
-0.0968459
-0.0965352
-0.0961526
-0.0957
-0.0951787
-0.0945905
-0.0939378
-0.0932225
-0.092447
-0.0916136
-0.0907245
-0.0897822
-0.088789
-0.0877475
-0.0866599
-0.0855289
-0.0843568
-0.083146
-0.081899
-0.080618
-0.0793052
-0.0779629
-0.076593
-0.0751975
-0.0737784
-0.0723373
-0.0708758
-0.0693955
-0.0678979
-0.0663841
-0.0648556
-0.0633133
-0.0617584
-0.0601918
-0.0586145
-0.0570273
-0.055431
-0.0538264
-0.0522144
-0.0505957
-0.0489711
-0.0473415
-0.0457077
-0.0440707
-0.0424317
-0.0981444
-0.0977689
-0.0976939
-0.0975112
-0.0972566
-0.0969323
-0.0965347
-0.0960658
-0.0955276
-0.0949221
-0.0942518
-0.093519
-0.092726
-0.0918754
-0.0909694
-0.0900105
-0.0890011
-0.0879439
-0.0868412
-0.0856956
-0.0845095
-0.0832854
-0.0820257
-0.0807326
-0.0794086
-0.0780557
-0.0766759
-0.0752713
-0.0738437
-0.0723948
-0.0709262
-0.0694394
-0.0679359
-0.0664169
-0.0648836
-0.0633371
-0.0617784
-0.0602085
-0.0586283
-0.0570385
-0.0554401
-0.0538337
-0.05222
-0.0505999
-0.0489742
-0.0473435
-0.0457089
-0.0440712
-0.0424314
-0.0985736
-0.0982136
-0.0981294
-0.0979378
-0.0976718
-0.0973338
-0.0969206
-0.0964352
-0.0958796
-0.0952565
-0.0945683
-0.0938176
-0.093007
-0.0921388
-0.0912156
-0.0902399
-0.0892142
-0.0881411
-0.0870231
-0.0858627
-0.0846625
-0.0834249
-0.0821524
-0.0808473
-0.0795119
-0.0781484
-0.0767587
-0.0753449
-0.0739088
-0.0724521
-0.0709763
-0.0694831
-0.0679737
-0.0664493
-0.0649113
-0.0633605
-0.0617981
-0.0602249
-0.0586418
-0.0570496
-0.0554489
-0.0538406
-0.0522254
-0.050604
-0.048977
-0.0473454
-0.0457099
-0.0440715
-0.0424311
-0.0989981
-0.0986622
-0.0985684
-0.0983688
-0.0980914
-0.0977394
-0.0973105
-0.096808
-0.0962347
-0.0955935
-0.0948871
-0.0941183
-0.0932896
-0.0924037
-0.0914631
-0.0904704
-0.0894281
-0.0883389
-0.0872054
-0.0860302
-0.0848157
-0.0835646
-0.0822792
-0.080962
-0.0796151
-0.0782409
-0.0768413
-0.0754182
-0.0739736
-0.072509
-0.0710261
-0.0695264
-0.0680111
-0.0664814
-0.0649386
-0.0633837
-0.0618175
-0.0602411
-0.0586551
-0.0570603
-0.0554575
-0.0538474
-0.0522306
-0.0506078
-0.0489797
-0.0473471
-0.0457107
-0.0440715
-0.0424305
-0.099417
-0.0991147
-0.0990108
-0.0988043
-0.0985155
-0.0981492
-0.097704
-0.0971841
-0.0965926
-0.0959329
-0.095208
-0.0944207
-0.0935738
-0.0926699
-0.0917116
-0.0907017
-0.0896427
-0.0885373
-0.0873881
-0.0861978
-0.084969
-0.0837042
-0.0824059
-0.0810764
-0.0797181
-0.0783331
-0.0769235
-0.0754912
-0.074038
-0.0725656
-0.0710756
-0.0695693
-0.0680481
-0.0665132
-0.0649656
-0.0634065
-0.0618366
-0.0602569
-0.058668
-0.0570708
-0.0554658
-0.0538538
-0.0522355
-0.0506113
-0.0489821
-0.0473485
-0.0457113
-0.0440714
-0.0424297
-0.0998293
-0.0995713
-0.0994567
-0.0992445
-0.0989441
-0.0985631
-0.0981011
-0.0975632
-0.0969531
-0.0962745
-0.0955307
-0.0947247
-0.0938592
-0.0929371
-0.091961
-0.0909337
-0.0898578
-0.088736
-0.087571
-0.0863656
-0.0851223
-0.0838437
-0.0825324
-0.0811906
-0.0798208
-0.078425
-0.0770053
-0.0755638
-0.074102
-0.0726218
-0.0711246
-0.0696118
-0.0680847
-0.0665445
-0.0649923
-0.0634289
-0.0618553
-0.0602723
-0.0586806
-0.0570809
-0.0554739
-0.0538601
-0.0522401
-0.0506146
-0.0489843
-0.0473498
-0.0457117
-0.0440711
-0.0424287
-0.100234
-0.100032
-0.0999064
-0.0996897
-0.0993772
-0.0989811
-0.0985017
-0.0979452
-0.097316
-0.0966181
-0.0958551
-0.09503
-0.0941458
-0.0932052
-0.0922111
-0.0911662
-0.0900732
-0.0889349
-0.087754
-0.0865333
-0.0852755
-0.0839831
-0.0826586
-0.0813045
-0.079923
-0.0785164
-0.0770867
-0.0756358
-0.0741655
-0.0726774
-0.0711731
-0.0696538
-0.0681209
-0.0665754
-0.0650184
-0.0634509
-0.0618737
-0.0602874
-0.0586929
-0.0570908
-0.0554816
-0.053866
-0.0522445
-0.0506177
-0.0489863
-0.0473508
-0.0457119
-0.0440706
-0.0424276
-0.100632
-0.100498
-0.10036
-0.10014
-0.0998152
-0.0994032
-0.0989056
-0.0983299
-0.0976811
-0.0969636
-0.096181
-0.0953366
-0.0944333
-0.0934741
-0.0924617
-0.091399
-0.0902888
-0.0891339
-0.087937
-0.0867009
-0.0854284
-0.084122
-0.0827844
-0.0814179
-0.0800248
-0.0786074
-0.0771676
-0.0757074
-0.0742285
-0.0727326
-0.0712211
-0.0696953
-0.0681565
-0.0666058
-0.0650442
-0.0634725
-0.0618916
-0.0603021
-0.0587048
-0.0571003
-0.055489
-0.0538716
-0.0522486
-0.0506205
-0.048988
-0.0473515
-0.0457119
-0.0440698
-0.0424262
-0.10102
-0.100969
-0.100819
-0.100596
-0.100258
-0.0998293
-0.0993127
-0.0987172
-0.0980482
-0.0973106
-0.0965081
-0.0956441
-0.0947216
-0.0937435
-0.0927127
-0.0916321
-0.0905045
-0.0893328
-0.0881197
-0.0868682
-0.085581
-0.0842606
-0.0829097
-0.0815308
-0.080126
-0.0786977
-0.0772479
-0.0757784
-0.0742909
-0.0727871
-0.0712685
-0.0697363
-0.0681916
-0.0666357
-0.0650694
-0.0634936
-0.0619091
-0.0603164
-0.0587164
-0.0571094
-0.0554961
-0.0538769
-0.0522524
-0.050623
-0.0489894
-0.047352
-0.0457116
-0.0440689
-0.0424246
-0.101401
-0.101446
-0.101283
-0.101059
-0.100706
-0.100259
-0.0997228
-0.0991068
-0.0984171
-0.097659
-0.0968363
-0.0959524
-0.0950104
-0.0940133
-0.0929639
-0.0918652
-0.0907201
-0.0895315
-0.0883022
-0.0870351
-0.0857331
-0.0843986
-0.0830345
-0.081643
-0.0802266
-0.0787874
-0.0773275
-0.0758487
-0.0743527
-0.0728411
-0.0713153
-0.0697766
-0.0682262
-0.0666651
-0.0650942
-0.0635143
-0.0619261
-0.0603303
-0.0587275
-0.0571181
-0.0555028
-0.0538819
-0.0522559
-0.0506253
-0.0489905
-0.0473523
-0.0457111
-0.0440676
-0.0424227
-0.101773
-0.101929
-0.101754
-0.101528
-0.101159
-0.100693
-0.100136
-0.0994985
-0.0987876
-0.0980085
-0.0971653
-0.0962613
-0.0952997
-0.0942833
-0.0932152
-0.0920983
-0.0909355
-0.0897299
-0.0884842
-0.0872015
-0.0858846
-0.0845361
-0.0831586
-0.0817546
-0.0803265
-0.0788764
-0.0774064
-0.0759183
-0.0744137
-0.0728943
-0.0713615
-0.0698164
)
;

boundaryField
{
    inlet
    {
        type            zeroGradient;
    }
    outlet
    {
        type            fixedValue;
        value           nonuniform 0();
    }
    cylinder
    {
        type            zeroGradient;
    }
    top
    {
        type            symmetryPlane;
    }
    bottom
    {
        type            symmetryPlane;
    }
    defaultFaces
    {
        type            empty;
    }
    procBoundary2to1
    {
        type            processor;
        value           nonuniform List<scalar> 
27
(
-0.0829392
-0.0829662
-0.0830218
-0.0830951
-0.0831844
-0.0832901
-0.0834116
-0.0835483
-0.0836995
-0.0838646
-0.084043
-0.0842342
-0.0844376
-0.0846527
-0.084879
-0.0851159
-0.0853629
-0.0856195
-0.0858853
-0.0861597