/*--------------------------------*- C++ -*----------------------------------*\
  =========                 |
  \\      /  F ield         | OpenFOAM: The Open Source CFD Toolbox
   \\    /   O peration     | Website:  https://openfoam.org
    \\  /    A nd           | Version:  7
     \\/     M anipulation  |
\*---------------------------------------------------------------------------*/
FoamFile
{
    version     2.0;
    format      ascii;
    class       surfaceScalarField;
    location    "10";
    object      phi;
}
// * * * * * * * * * * * * * * * * * * * * * * * * * * * * * * * * * * * * * //

dimensions      [0 3 -1 0 0 0 0];

internalField   nonuniform List<scalar> 
5135
(
0.00389711
-0.000129979
0.00402994
-0.00013283
0.00416556
-0.000135619
0.0043039
-0.000138341
-0.000140998
0.0044449
0.00385168
-0.000258435
0.00398295
-0.000264105
0.00411698
-0.00026965
0.00425371
-0.000275065
-0.000280349
0.00439306
0.00380682
-0.000385388
0.00393656
-0.000393846
0.00406902
-0.000402117
0.00420415
-0.000410194
-0.000418076
0.00434188
0.00376253
-0.00051086
0.00389076
-0.000522074
0.00402168
-0.00053304
0.00415524
-0.000543751
-0.000554203
0.00429136
0.00371881
-0.000634871
0.00384554
-0.00064881
0.00397495
-0.000662442
0.00410695
-0.000675757
-0.000688752
0.0042415
0.00367564
-0.00075744
0.0038009
-0.000774074
0.00392881
-0.000790343
0.00405928
-0.000806234
-0.000821743
0.00419227
0.00363302
-0.000878588
0.00375683
-0.000897887
0.00388325
-0.000916764
0.00401222
-0.000935201
-0.000953199
0.00414368
0.00359094
-0.000998333
0.00371332
-0.00102027
0.00383828
-0.00104172
0.00396576
-0.00106268
-0.00108314
0.0040957
0.00354939
-0.00111669
0.00367036
-0.00114124
0.00379388
-0.00116524
0.00391989
-0.00118869
-0.00121158
0.00404833
0.00350836
-0.00123369
0.00362794
-0.00126081
0.00375003
-0.00128734
0.00387459
-0.00131325
-0.00133855
0.00400156
0.00346785
-0.00134934
0.00358604
-0.00137901
0.00370674
-0.00140803
0.00382986
-0.00143638
-0.00146406
0.00395537
0.00342784
-0.00146366
0.00354468
-0.00149584
0.00366398
-0.00152733
0.00378569
-0.00155809
-0.00158813
0.00390976
0.00338832
-0.00157666
0.00350382
-0.00161134
0.00362175
-0.00164527
0.00374207
-0.00167841
-0.00171078
0.00386472
0.0033493
-0.00168837
0.00346347
-0.00172551
0.00358005
-0.00176185
0.00369899
-0.00179734
-0.00183202
0.00382023
0.00331075
-0.00179879
0.00342361
-0.00183838
0.00353886
-0.0018771
0.00365643
-0.00191492
-0.00195187
0.00377629
0.00327267
-0.00190795
0.00338424
-0.00194995
0.00349817
-0.00199103
0.0036144
-0.00203114
-0.00207035
0.00373288
0.00323506
-0.00201586
0.00334535
-0.00206024
0.00345798
-0.00210365
0.00357287
-0.00214604
-0.00218747
0.00368999
0.0031979
-0.00212254
0.00330693
-0.00216927
0.00341827
-0.00221498
0.00353184
-0.00225962
-0.00230325
0.00364762
0.00316119
-0.00222799
0.00326897
-0.00227705
0.00337903
-0.00232504
0.00349131
-0.00237189
-0.0024177
0.00360576
0.00312492
-0.00233224
0.00323147
-0.0023836
0.00334026
-0.00243383
0.00345125
-0.00248288
-0.00253083
0.00356438
0.00308908
-0.0024353
0.00319441
-0.00248893
0.00330196
-0.00254138
0.00341167
-0.00259259
-0.00264266
0.0035235
0.00305367
-0.00253717
0.00315779
-0.00259305
0.0032641
-0.00264769
0.00337255
-0.00270105
-0.0027532
0.00348309
0.00301867
-0.00263788
0.00312159
-0.00269597
0.00322668
-0.00275278
0.00333389
-0.00280825
-0.00286246
0.00344315
0.00298408
-0.00273743
0.00308582
-0.00279772
0.0031897
-0.00285667
0.00329567
-0.00291421
-0.00297046
0.00340366
0.0029499
-0.00283585
0.00305047
-0.00289829
0.00315315
-0.00295935
0.00325789
-0.00301895
-0.0030772
0.00336463
0.00291611
-0.00293312
0.00301552
-0.0029977
0.00311702
-0.00306084
0.00322054
-0.00312247
-0.00318269
0.00332604
0.00288271
-0.00302928
0.00298098
-0.00309597
0.0030813
-0.00316116
0.00318362
-0.00322479
-0.00328695
0.00328788
0.0028497
-0.00312434
0.00294683
-0.0031931
0.00304598
-0.00326032
0.00314711
-0.00332592
-0.00338999
0.00325015
0.00281706
-0.00321829
0.00291307
-0.00328911
0.00301107
-0.00335831
0.00311101
-0.00342586
-0.0034918
0.00321283
0.0027848
-0.00331116
0.00287969
-0.003384
0.00297654
-0.00345517
0.00307531
-0.00352463
-0.00359242
0.00317592
0.0027529
-0.00340294
0.00284669
-0.00347779
0.0029424
-0.00355088
0.00304001
-0.00362223
-0.00369183
0.00313942
0.00272137
-0.00349367
0.00281405
-0.00357047
0.00290864
-0.00364547
0.00300509
-0.00371868
-0.00379005
0.00310331
0.00269018
-0.00358333
0.00278179
-0.00366208
0.00287526
-0.00373894
0.00297056
-0.00381399
-0.00388708
0.0030676
0.00265935
-0.00367194
0.00274987
-0.0037526
0.00284224
-0.00383131
0.0029364
-0.00390815
-0.00398294
0.00303226
0.00262886
-0.00375952
0.00271832
-0.00384205
0.00280958
-0.00392257
0.00290261
-0.00400119
-0.00407763
0.0029973
0.00259871
-0.00384606
0.0026871
-0.00393044
0.00277727
-0.00401273
0.00286918
-0.0040931
-0.00417115
0.0029627
0.00256889
-0.00393158
0.00265623
-0.00401778
0.00274532
-0.00410182
0.00283611
-0.00418389
-0.00426351
0.00292847
0.0024549
-0.00392613
0.00253941
-0.00401608
0.0026257
-0.00410408
0.0027137
-0.00418982
0.00280339
-0.00427358
-0.00435472
0.0028946
0.00242674
-0.00400782
0.00251024
-0.00409958
0.0025955
-0.00418933
0.00268243
-0.00427675
0.00277101
-0.00436216
-0.00444479
0.00286108
0.0023989
-0.00408855
0.0024814
-0.00418208
0.00256562
-0.00427355
0.00265149
-0.00436262
0.00273898
-0.00444964
-0.00453371
0.0028279
0.00237136
-0.00416831
0.00245287
-0.00426359
0.00253607
-0.00435675
0.00262088
-0.00444744
0.00270727
-0.00453603
-0.00462149
0.00279506
0.00234413
-0.00424712
0.00242465
-0.00434411
0.00250683
-0.00443893
0.00259059
-0.0045312
0.0026759
-0.00462134
-0.00470814
0.00276255
0.00231719
-0.00432499
0.00239674
-0.00442366
0.00247791
-0.0045201
0.00256063
-0.00461392
0.00264485
-0.00470555
-0.00479367
0.00273037
0.00229055
-0.00440191
0.00236913
-0.00450224
0.00244929
-0.00460026
0.00253097
-0.0046956
0.00261411
-0.00478869
-0.00487807
0.00269852
0.0022642
-0.00447791
0.00234182
-0.00457985
0.00242098
-0.00467942
0.00250163
-0.00477625
0.00258369
-0.00487076
-0.00496135
0.00266698
0.00223814
-0.00455298
0.0023148
-0.00465651
0.00239296
-0.00475759
0.00247259
-0.00485588
0.00255358
-0.00495175
-0.00504353
0.00263576
0.00221236
-0.00462714
0.00228807
-0.00473221
0.00236525
-0.00483476
0.00244385
-0.00493448
0.00252377
-0.00503167
-0.00512461
0.00260484
0.00218687
-0.00470038
0.00226162
-0.00480697
0.00233782
-0.00491096
0.0024154
-0.00501206
0.00249425
-0.00511052
-0.00520459
0.00257423
0.00216165
-0.00477273
0.00223546
-0.00488078
0.00231068
-0.00498617
0.00238725
-0.00508863
0.00246503
-0.00518831
0.0021367
-0.00484417
0.00220958
-0.00495367
0.00228382
-0.00506041
0.00235938
-0.00516419
-0.00526503
0.00211202
-0.00491473
0.00218397
-0.00502562
0.00225724
-0.00513369
0.00233179
-0.00523873
0.0020876
-0.00498439
0.00215863
-0.00509665
0.00223094
-0.00520599
-0.00531227
0.00206345
-0.00505318
0.00213356
-0.00516676
0.00220491
-0.00527734
0.00203956
-0.0051211
0.00210876
-0.00523595
-0.00534773
0.00201593
-0.00518815
0.00208422
-0.00530424
-0.00541716
0.00199255
-0.00525434
0.00205993
-0.00537162
0.00196942
-0.00531967
-0.0054381
0.00194654
-0.00538415
-0.00544778
0.00444543
-5.31382e-07
0.00444578
-3.43103e-07
0.00444593
-1.52161e-07
0.00444589
4.20248e-08
0.00444565
2.38877e-07
0.00444521
4.38188e-07
0.00444457
6.39811e-07
0.00444373
8.43588e-07
0.00444268
1.04937e-06
0.00444142
1.25701e-06
0.00443995
1.46637e-06
0.00443828
1.67731e-06
0.00443639
1.88968e-06
0.00443428
2.10336e-06
0.00443197
2.31822e-06
0.00442943
2.53416e-06
0.00442668
2.75108e-06
0.00442371
2.9689e-06
0.00442052
3.1876e-06
0.00441712
3.40713e-06
0.00441349
3.62752e-06
0.00440964
3.8488e-06
0.00440557
4.07107e-06
0.00440127
4.29442e-06
0.00439676
4.51903e-06
0.00439201
4.7451e-06
0.00438704
4.97287e-06
0.00438183
5.20264e-06
0.0043764
5.43472e-06
0.00437073
5.66951e-06
0.00436482
5.90743e-06
0.00435867
6.14892e-06
0.00435228
6.39451e-06
0.00434564
6.64473e-06
0.00433874
6.90014e-06
0.00433157
7.16135e-06
0.00432414
7.42899e-06
0.00431644
7.70369e-06
0.00430845
7.98612e-06
0.00430018
8.27692e-06
0.0042916
8.57674e-06
0.00428272
8.88622e-06
0.00427351
9.20594e-06
0.00426397
9.53646e-06
0.00425409
9.87827e-06
0.00424386
1.02318e-05
0.00423327
1.05973e-05
0.00422229
1.0975e-05
1.13649e-05
0.00439358
-1.05603e-06
0.00439392
-6.80862e-07
0.00439407
-3.00734e-07
0.00439402
8.56483e-08
0.00439378
4.77268e-07
0.00439335
8.73735e-07
0.00439271
1.27477e-06
0.00439188
1.68008e-06
0.00439084
2.08937e-06
0.00438959
2.50236e-06
0.00438814
2.91876e-06
0.00438648
3.33829e-06
0.00438461
3.76068e-06
0.00438253
4.18566e-06
0.00438023
4.61299e-06
0.00437772
5.04246e-06
0.004375
5.47388e-06
0.00437206
5.90711e-06
0.00436891
6.34205e-06
0.00436554
6.77866e-06
0.00436195
7.21695e-06
0.00435814
7.65703e-06
0.00435411
8.09903e-06
0.00434986
8.54321e-06
0.00434539
8.98987e-06
0.0043407
9.43942e-06
0.00433578
9.89234e-06
0.00433063
1.03492e-05
0.00432525
1.08107e-05
0.00431965
1.12775e-05
0.0043138
1.17506e-05
0.00430772
1.22308e-05
0.0043014
1.27191e-05
0.00429482
1.32165e-05
0.004288
1.37244e-05
0.00428092
1.42437e-05
0.00427357
1.47758e-05
0.00426595
1.53219e-05
0.00425806
1.58834e-05
0.00424987
1.64616e-05
0.00424139
1.70576e-05
0.0042326
1.76729e-05
0.0042235
1.83085e-05
0.00421407
1.89656e-05
0.00420431
1.96451e-05
0.00419419
2.03479e-05
0.00418371
2.10746e-05
0.00417286
2.18254e-05
2.26006e-05
0.0043424
-1.5725e-06
0.00434273
-1.0117e-06
0.00434287
-4.43906e-07
0.00434282
1.32927e-07
0.00434258
7.17418e-07
0.00434215
1.30905e-06
0.00434152
1.90746e-06
0.00434068
2.5122e-06
0.00433965
3.12287e-06
0.00433841
3.73904e-06
0.00433697
4.3603e-06
0.00433532
4.98623e-06
0.00433347
5.61642e-06
0.0043314
6.25047e-06
0.00432913
6.88804e-06
0.00432664
7.52878e-06
0.00432394
8.17242e-06
0.00432103
8.81875e-06
0.00431791
9.46762e-06
0.00431457
1.0119e-05
0.00431101
1.07728e-05
0.00430724
1.14293e-05
0.00430325
1.20886e-05
0.00429904
1.27512e-05
0.00429461
1.34174e-05
0.00428996
1.40879e-05
0.00428509
1.47635e-05
0.00428
1.54448e-05
0.00427467
1.61331e-05
0.00426912
1.68293e-05
0.00426334
1.75347e-05
0.00425732
1.82508e-05
0.00425106
1.89789e-05
0.00424455
1.97207e-05
0.0042378
2.04779e-05
0.00423079
2.12523e-05
0.00422352
2.20457e-05
0.00421598
2.286e-05
0.00420817
2.36972e-05
0.00420007
2.45592e-05
0.00419168
2.54479e-05
0.00418299
2.63652e-05
0.00417399
2.73129e-05
0.00416466
2.82925e-05
0.004155
2.93056e-05
0.00414499
3.03534e-05
0.00413463
3.14367e-05
0.0041239
3.25561e-05
3.37117e-05
0.00429187
-2.07897e-06
0.00429219
-1.33378e-06
0.00429233
-5.79749e-07
0.00429228
1.85926e-07
0.00429203
9.61528e-07
0.00429159
1.74648e-06
0.00429096
2.54033e-06
0.00429013
3.34255e-06
0.0042891
4.15259e-06
0.00428787
4.96992e-06
0.00428644
5.79399e-06
0.0042848
6.62425e-06
0.00428296
7.46016e-06
0.0042809
8.3012e-06
0.00427865
9.14688e-06
0.00427618
9.99677e-06
0.0042735
1.08505e-05
0.00427061
1.17078e-05
0.00426751
1.25684e-05
0.0042642
1.34322e-05
0.00426067
1.42994e-05
0.00425693
1.517e-05
0.00425297
1.60443e-05
0.0042488
1.69229e-05
0.00424441
1.78063e-05
0.00423981
1.86953e-05
0.00423498
1.9591e-05
0.00422993
2.04943e-05
0.00422466
2.14067e-05
0.00421916
2.23297e-05
0.00421343
2.32648e-05
0.00420746
2.42139e-05
0.00420126
2.5179e-05
0.00419482
2.61623e-05
0.00418813
2.71658e-05
0.00418119
2.81921e-05
0.00417399
2.92436e-05
0.00416653
3.03228e-05
0.0041588
3.14323e-05
0.00415078
3.25746e-05
0.00414248
3.37524e-05
0.00413387
3.4968e-05
0.00412496
3.62238e-05
0.00411573
3.75219e-05
0.00410617
3.88644e-05
0.00409628
4.02528e-05
0.00408602
4.16882e-05
0.00407541
4.31715e-05
4.47027e-05
0.00424199
-2.57337e-06
0.00424231
-1.64511e-06
0.00424243
-7.06227e-07
0.00424237
2.46746e-07
0.00424212
1.21179e-06
0.00424168
2.18831e-06
0.00424104
3.17579e-06
0.00424021
4.17362e-06
0.00423918
5.18115e-06
0.00423796
6.19774e-06
0.00423653
7.2227e-06
0.0042349
8.25536e-06
0.00423306
9.29503e-06
0.00423102
1.03411e-05
0.00422878
1.13929e-05
0.00422632
1.24499e-05
0.00422366
1.35117e-05
0.00422079
1.45778e-05
0.00421771
1.56481e-05
0.00421442
1.67224e-05
0.00421092
1.78007e-05
0.00420721
1.88832e-05
0.00420328
1.99703e-05
0.00419914
2.10626e-05
0.00419479
2.21609e-05
0.00419022
2.3266e-05
0.00418543
2.43793e-05
0.00418042
2.55022e-05
0.00417519
2.66362e-05
0.00416974
2.77832e-05
0.00416406
2.89453e-05
0.00415814
3.01248e-05
0.004152
3.13241e-05
0.00414562
3.25458e-05
0.00413899
3.37927e-05
0.00413211
3.50679e-05
0.00412498
3.63743e-05
0.00411759
3.7715e-05
0.00410993
3.90934e-05
0.00410199
4.05125e-05
0.00409377
4.19756e-05
0.00408525
4.34857e-05
0.00407643
4.50457e-05
0.00406729
4.66584e-05
0.00405783
4.8326e-05
0.00404803
5.00505e-05
0.00403789
5.18336e-05
0.00402738
5.3676e-05
5.55779e-05
0.00419275
-3.05345e-06
0.00419305
-1.94354e-06
0.00419317
-8.21228e-07
0.0041931
3.17518e-07
0.00419284
1.47038e-06
0.00419239
2.63678e-06
0.00419175
3.81618e-06
0.00419092
5.00786e-06
0.00418989
6.2111e-06
0.00418866
7.42514e-06
0.00418723
8.64918e-06
0.0041856
9.88241e-06
0.00418378
1.1124e-05
0.00418174
1.23732e-05
0.00417951
1.36293e-05
0.00417707
1.48916e-05
0.00417442
1.61595e-05
0.00417156
1.74326e-05
0.0041685
1.87105e-05
0.00416523
1.99932e-05
0.00416175
2.12806e-05
0.00415806
2.25729e-05
0.00415416
2.38707e-05
0.00415005
2.51745e-05
0.00414572
2.64853e-05
0.00414118
2.78043e-05
0.00413643
2.91329e-05
0.00413146
3.04727e-05
0.00412627
3.18258e-05
0.00412086
3.31943e-05
0.00411522
3.45807e-05
0.00410936
3.59878e-05
0.00410327
3.74184e-05
0.00409694
3.88756e-05
0.00409037
4.0363e-05
0.00408355
4.18838e-05
0.00407648
4.34419e-05
0.00406916
4.5041e-05
0.00406157
4.66848e-05
0.0040537
4.83772e-05
0.00404556
5.01219e-05
0.00403712
5.19227e-05
0.00402838
5.3783e-05
0.00401933
5.57059e-05
0.00400997
5.76944e-05
0.00400026
5.97507e-05
0.00399022
6.18767e-05
0.00397982
6.40735e-05
6.63411e-05
0.00414414
-3.51693e-06
0.00414442
-2.22688e-06
0.00414453
-9.22596e-07
0.00414444
4.00395e-07
0.00414417
1.73948e-06
0.00414372
3.09413e-06
0.00414307
4.46378e-06
0.00414223
5.84763e-06
0.0041412
7.24489e-06
0.00413997
8.65469e-06
0.00413854
1.00761e-05
0.00413691
1.15082e-05
0.00413509
1.295e-05
0.00413306
1.44007e-05
0.00413083
1.58593e-05
0.0041284
1.73251e-05
0.00412576
1.87973e-05
0.00412292
2.02755e-05
0.00411987
2.17592e-05
0.00411661
2.32483e-05
0.00411315
2.47428e-05
0.00410948
2.62429e-05
0.0041056
2.77492e-05
0.00410151
2.92624e-05
0.00409721
3.07835e-05
0.00409271
3.23141e-05
0.00408798
3.38555e-05
0.00408305
3.541e-05
0.00407789
3.69796e-05
0.00407252
3.85671e-05
0.00406692
4.01751e-05
0.00406111
4.1807e-05
0.00405506
4.3466e-05
0.00404878
4.5156e-05
0.00404226
4.68806e-05
0.0040355
4.86441e-05
0.00402849
5.04507e-05
0.00402123
5.23046e-05
0.0040137
5.42104e-05
0.00400591
5.61725e-05
0.00399783
5.81952e-05
0.00398947
6.02828e-05
0.00398082
6.24393e-05
0.00397185
6.46685e-05
0.00396257
6.69735e-05
0.00395297
6.93571e-05
0.00394302
7.18214e-05
0.00393273
7.43676e-05
7.69959e-05
0.00409614
-3.9615e-06
0.00409641
-2.49291e-06
0.0040965
-1.00816e-06
0.0040964
4.97528e-07
0.00409612
2.02125e-06
0.00409565
3.56256e-06
0.00409499
5.12084e-06
0.00409414
6.69527e-06
0.0040931
8.28494e-06
0.00409187
9.8889e-06
0.00409044
1.15061e-05
0.00408881
1.31355e-05
0.00408699
1.47759e-05
0.00408496
1.64264e-05
0.00408273
1.80858e-05
0.00408031
1.97534e-05
0.00407768
2.14283e-05
0.00407484
2.31098e-05
0.0040718
2.47976e-05
0.00406856
2.64913e-05
0.00406511
2.81909e-05
0.00406146
2.98969e-05
0.0040576
3.16096e-05
0.00405353
3.33301e-05
0.00404925
3.50594e-05
0.00404477
3.67991e-05
0.00404007
3.85512e-05
0.00403517
4.03178e-05
0.00403004
4.21015e-05
0.0040247
4.39053e-05
0.00401915
4.57323e-05
0.00401337
4.75863e-05
0.00400736
4.94709e-05
0.00400113
5.13906e-05
0.00399466
5.33495e-05
0.00398795
5.53525e-05
0.003981
5.74043e-05
0.00397379
5.95098e-05
0.00396633
6.16741e-05
0.0039586
6.39023e-05
0.0039506
6.61992e-05
0.00394231
6.85698e-05
0.00393373
7.10185e-05
0.00392485
7.35496e-05
0.00391565
7.61668e-05
0.00390614
7.88732e-05
0.00389629
8.16711e-05
0.00388609
8.45619e-05
8.75457e-05
0.00404875
-4.38486e-06
0.004049
-2.73941e-06
0.00404907
-1.07575e-06
0.00404895
6.11053e-07
0.00404866
2.31783e-06
0.00404818
4.04422e-06
0.00404751
5.78959e-06
0.00404665
7.55304e-06
0.0040456
9.33361e-06
0.00404436
1.11302e-05
0.00404292
1.29417e-05
0.00404129
1.47668e-05
0.00403946
1.66043e-05
0.00403744
1.84531e-05
0.00403521
2.03119e-05
0.00403278
2.21797e-05
0.00403016
2.40556e-05
0.00402733
2.59388e-05
0.0040243
2.78288e-05
0.00402106
2.97254e-05
0.00401763
3.16284e-05
0.00401398
3.35382e-05
0.00401014
3.54554e-05
0.00400609
3.73811e-05
0.00400183
3.93164e-05
0.00399737
4.12632e-05
0.00399269
4.32235e-05
0.00398781
4.51998e-05
0.00398272
4.71951e-05
0.00397741
4.92126e-05
0.00397189
5.1256e-05
0.00396614
5.33292e-05
0.00396018
5.54367e-05
0.00395399
5.7583e-05
0.00394756
5.97732e-05
0.0039409
6.20125e-05
0.003934
6.43063e-05
0.00392685
6.666e-05
0.00391945
6.90793e-05
0.00391178
7.15699e-05
0.00390384
7.41373e-05
0.00389562
7.67869e-05
0.00388712
7.95238e-05
0.00387831
8.23526e-05
0.0038692
8.52776e-05
0.00385977
8.83022e-05
0.00385002
9.14289e-05
0.00383992
9.46593e-05
9.79936e-05
0.00400196
-4.78478e-06
0.00400218
-2.96423e-06
0.00400223
-1.12325e-06
0.0040021
7.43066e-07
0.00400178
2.63132e-06
0.00400129
4.54124e-06
0.00400061
6.47218e-06
0.00399973
8.42319e-06
0.00399868
1.03932e-05
0.00399742
1.2381e-05
0.00399598
1.43854e-05
0.00399434
1.64049e-05
0.00399251
1.84381e-05
0.00399048
2.04837e-05
0.00398825
2.25404e-05
0.00398582
2.4607e-05
0.0039832
2.66824e-05
0.00398037
2.87657e-05
0.00397734
3.08563e-05
0.00397411
3.29539e-05
0.00397068
3.50585e-05
0.00396705
3.71703e-05
0.00396322
3.92901e-05
0.00395918
4.14188e-05
0.00395494
4.3558e-05
0.00395049
4.57095e-05
0.00394584
4.78758e-05
0.00394098
5.00595e-05
0.00393591
5.22638e-05
0.00393063
5.44924e-05
0.00392514
5.67494e-05
0.00391943
5.90392e-05
0.0039135
6.13665e-05
0.00390734
6.37367e-05
0.00390096
6.61551e-05
0.00389435
6.86275e-05
0.00388749
7.11599e-05
0.00388039
7.37584e-05
0.00387304
7.64292e-05
0.00386544
7.91786e-05
0.00385756
8.20126e-05
0.00384941
8.49373e-05
0.00384098
8.79582e-05
0.00383225
9.10806e-05
0.00382322
9.4309e-05
0.00381387
9.76471e-05
0.0038042
0.000101098
0.0037942
0.000104663
0.000108342
0.00395575
-5.15907e-06
0.00395595
-3.16525e-06
0.00395597
-1.14859e-06
0.00395582
8.95612e-07
0.00395549
2.96376e-06
0.00395497
5.0557e-06
0.00395427
7.17076e-06
0.00395339
9.3079e-06
0.00395232
1.1466e-05
0.00395105
1.36437e-05
0.0039496
1.58396e-05
0.00394795
1.80522e-05
0.00394611
2.02798e-05
0.00394407
2.2521e-05
0.00394184
2.47743e-05
0.00393941
2.70382e-05
0.00393678
2.93116e-05
0.00393395
3.15934e-05
0.00393093
3.38831e-05
0.0039277
3.61801e-05
0.00392427
3.84845e-05
0.00392065
4.07964e-05
0.00391682
4.31167e-05
0.00391279
4.54465e-05
0.00390856
4.77874e-05
0.00390413
5.01415e-05
0.0038995
5.25114e-05
0.00389466
5.49e-05
0.00388961
5.73108e-05
0.00388435
5.9748e-05
0.00387889
6.22159e-05
0.00387321
6.47193e-05
0.00386731
6.72637e-05
0.00386119
6.98546e-05
0.00385485
7.24981e-05
0.00384827
7.52004e-05
0.00384147
7.79681e-05
0.00383442
8.08079e-05
0.00382712
8.37267e-05
0.00381957
8.67312e-05
0.00381175
8.9828e-05
0.00380367
9.30238e-05
0.0037953
9.63247e-05
0.00378664
9.97363e-05
0.00377769
0.000103264
0.00376842
0.000106911
0.00375884
0.000110681
0.00374893
0.000114575
0.000118595
0.00391011
-5.50568e-06
0.00391028
-3.34047e-06
0.00391029
-1.14978e-06
0.00391011
1.07067e-06
0.00390976
3.31715e-06
0.00390922
5.58963e-06
0.00390851
7.88739e-06
0.00390761
1.02093e-05
0.00390652
1.25542e-05
0.00390524
1.49206e-05
0.00390377
1.73069e-05
0.00390211
1.97113e-05
0.00390026
2.21322e-05
0.00389821
2.45677e-05
0.00389597
2.70162e-05
0.00389353
2.94761e-05
0.0038909
3.19461e-05
0.00388807
3.44251e-05
0.00388504
3.69123e-05
0.00388181
3.94071e-05
0.00387839
4.19094e-05
0.00387476
4.44197e-05
0.00387094
4.69386e-05
0.00386692
4.94674e-05
0.0038627
5.20079e-05
0.00385828
5.45622e-05
0.00385366
5.71333e-05
0.00384883
5.97244e-05
0.00384381
6.23392e-05
0.00383857
6.49823e-05
0.00383313
6.76583e-05
0.00382748
7.03726e-05
0.00382161
7.3131e-05
0.00381552
7.59397e-05
0.00380922
7.8805e-05
0.00380268
8.1734e-05
0.00379592
8.47337e-05
0.00378891
8.78114e-05
0.00378167
9.09745e-05
0.00377417
9.42303e-05
0.00376641
9.75861e-05
0.00375838
0.000101049
0.00375008
0.000104626
0.0037415
0.000108322
0.00373262
0.000112144
0.00372343
0.000116095
0.00371393
0.000120179
0.00370411
0.000124399
0.000128753
0.00386504
-5.82264e-06
0.00386518
-3.48795e-06
0.00386516
-1.12492e-06
0.00386496
1.27015e-06
0.00386458
3.69341e-06
0.00386403
6.145e-06
0.00386329
8.62412e-06
0.00386237
1.11296e-05
0.00386126
1.36601e-05
0.00385997
1.6214e-05
0.00385849
1.87895e-05
0.00385682
2.13848e-05
0.00385495
2.39977e-05
0.00385289
2.66264e-05
0.00385064
2.9269e-05
0.00384819
3.19237e-05
0.00384555
3.4589e-05
0.00384271
3.72637e-05
0.00383967
3.99467e-05
0.00383644
4.26377e-05
0.00383302
4.53363e-05
0.00382939
4.8043e-05
0.00382557
5.07586e-05
0.00382156
5.34844e-05
0.00381734
5.62222e-05
0.00381293
5.89746e-05
0.00380832
6.17445e-05
0.00380351
6.45355e-05
0.00379849
6.73518e-05
0.00379328
7.01981e-05
0.00378786
7.30795e-05
0.00378223
7.60018e-05
0.00377639
7.89712e-05
0.00377033
8.19945e-05
0.00376406
8.50786e-05
0.00375756
8.8231e-05
0.00375084
9.14592e-05
0.00374388
9.47713e-05
0.00373668
9.8175e-05
0.00372923
0.000101678
0.00372153
0.000105289
0.00371356
0.000109015
0.00370532
0.000112863
0.0036968
0.00011684
0.003688
0.000120952
0.00367889
0.000125203
0.00366947
0.000129597
0.00365973
0.000134135
0.000138819
0.00382052
-6.1081e-06
0.00382063
-3.60588e-06
0.00382058
-1.0722e-06
0.00382036
1.49586e-06
0.00381995
4.09441e-06
0.00381938
6.72372e-06
0.00381862
9.38294e-06
0.00381768
1.20708e-05
0.00381655
1.47859e-05
0.00381524
1.75263e-05
0.00381374
2.029e-05
0.00381205
2.3075e-05
0.00381017
2.5879e-05
0.00380809
2.86999e-05
0.00380583
3.15354e-05
0.00380337
3.43837e-05
0.00380071
3.7243e-05
0.00379786
4.01119e-05
0.00379482
4.29895e-05
0.00379158
4.58749e-05
0.00378815
4.87681e-05
0.00378453
5.16694e-05
0.0037807
5.45796e-05
0.00377669
5.75003e-05
0.00377248
6.04333e-05
0.00376807
6.33814e-05
0.00376347
6.63477e-05
0.00375867
6.93362e-05
0.00375367
7.23513e-05
0.00374847
7.53979e-05
0.00374306
7.84819e-05
0.00373746
8.16093e-05
0.00373164
8.47867e-05
0.00372561
8.80215e-05
0.00371937
9.13211e-05
0.00371291
9.46935e-05
0.00370622
9.81469e-05
0.0036993
0.00010169
0.00369215
0.00010533
0.00368475
0.000109078
0.0036771
0.00011294
0.00366919
0.000116925
0.00366101
0.00012104
0.00365256
0.000125293
0.00364382
0.00012969
0.00363479
0.000134236
0.00362545
0.000138934
0.0036158
0.000143787
0.000148795
0.00377654
-6.36035e-06
0.00377663
-3.69254e-06
0.00377654
-9.89887e-07
0.00377629
1.74955e-06
0.00377586
4.52193e-06
0.00377526
7.32766e-06
0.00377448
1.01658e-05
0.00377351
1.3035e-05
0.00377236
1.59336e-05
0.00377103
1.88596e-05
0.00376951
2.18107e-05
0.0037678
2.47846e-05
0.0037659
2.77787e-05
0.00376381
3.07907e-05
0.00376153
3.38181e-05
0.00375905
3.68588e-05
0.00375638
3.99109e-05
0.00375352
4.29728e-05
0.00375047
4.60432e-05
0.00374722
4.91216e-05
0.00374378
5.22076e-05
0.00374015
5.53016e-05
0.00373633
5.84045e-05
0.00373231
6.15178e-05
0.0037281
6.46438e-05
0.00372369
6.77852e-05
0.0037191
7.09455e-05
0.0037143
7.41288e-05
0.00370931
7.734e-05
0.00370413
8.05843e-05
0.00369874
8.38679e-05
0.00369315
8.71974e-05
0.00368736
9.05798e-05
0.00368136
9.40229e-05
0.00367515
9.75348e-05
0.00366872
0.000101124
0.00366206
0.000104799
0.00365518
0.000108569
0.00364807
0.000112443
0.00364072
0.00011643
0.00363312
0.000120539
0.00362527
0.000124779
0.00361715
0.000129158
0.00360876
0.000133682
0.00360009
0.00013836
0.00359113
0.000143196
0.00358187
0.000148194
0.0035723
0.000153356
0.000158682
0.00373309
-6.57779e-06
0.00373315
-3.74635e-06
0.00373303
-8.76381e-07
0.00373275
2.03288e-06
0.0037323
4.9777e-06
0.00373166
7.95862e-06
0.00373086
1.09746e-05
0.00372987
1.40242e-05
0.00372869
1.71055e-05
0.00372734
2.02162e-05
0.0037258
2.33539e-05
0.00372406
2.65159e-05
0.00372214
2.96994e-05
0.00372003
3.29016e-05
0.00371773
3.61199e-05
0.00371524
3.9352e-05
0.00371255
4.25955e-05
0.00370968
4.58489e-05
0.00370661
4.91108e-05
0.00370335
5.23804e-05
0.0036999
5.56574e-05
0.00369626
5.89422e-05
0.00369243
6.22357e-05
0.00368841
6.55396e-05
0.00368419
6.88562e-05
0.00367979
7.21885e-05
0.0036752
7.55403e-05
0.00367041
7.89158e-05
0.00366543
8.23203e-05
0.00366025
8.57595e-05
0.00365488
8.92398e-05
0.00364931
9.27683e-05
0.00364354
9.63525e-05
0.00363756
0.000100001
0.00363137
0.000103721
0.00362497
0.000107524
0.00361836
0.000111417
0.00361151
0.00011541
0.00360444
0.000119514
0.00359714
0.000123737
0.00358959
0.00012809
0.00358178
0.00013258
0.00357372
0.000137217
0.0035654
0.00014201
0.00355679
0.000146963
0.00354791
0.000152084
0.00353872
0.000157377
0.00352924
0.000162843
0.000168482
0.00369017
-6.75896e-06
0.00369019
-3.76582e-06
0.00369005
-7.30163e-07
0.00368973
2.3474e-06
0.00368925
5.46335e-06
0.00368859
8.61836e-06
0.00368775
1.18112e-05
0.00368673
1.50404e-05
0.00368554
1.83036e-05
0.00368415
2.15985e-05
0.00368259
2.49221e-05
0.00368083
2.82715e-05
0.00367889
3.16436e-05
0.00367675
3.50352e-05
0.00367443
3.84435e-05
0.00367191
4.18657e-05
0.00366921
4.52995e-05
0.00366632
4.87431e-05
0.00366323
5.21949e-05
0.00365996
5.5654e-05
0.0036565
5.91202e-05
0.00365284
6.25938e-05
0.003649
6.60758e-05
0.00364498
6.95681e-05
0.00364076
7.30729e-05
0.00363635
7.65936e-05
0.00363176
8.01342e-05
0.00362698
8.36992e-05
0.003622
8.72942e-05
0.00361684
9.09253e-05
0.00361148
9.45994e-05
0.00360592
9.83238e-05
0.00360017
0.000102107
0.00359421
0.000105957
0.00358805
0.000109883
0.00358168
0.000113895
0.00357509
0.000118003
0.00356829
0.000122216
0.00356126
0.000126545
0.00355399
0.000131001
0.00354649
0.000135592
0.00353874
0.000140329
0.00353074
0.000145221
0.00352247
0.000150276
0.00351393
0.000155501
0.00350511
0.000160902
0.00349601
0.000166484
0.0034866
0.000172249
0.000178197
0.00364776
-6.9025e-06
0.00364775
-3.74957e-06
0.00364757
-5.49816e-07
0.00364722
2.69461e-06
0.0036467
5.9805e-06
0.00364601
9.30859e-06
0.00364515
1.26776e-05
0.0036441
1.60855e-05
0.00364288
1.95302e-05
0.00364147
2.30086e-05
0.00363987
2.65177e-05
0.00363809
3.00539e-05
0.00363612
3.36138e-05
0.00363396
3.7194e-05
0.00363161
4.07913e-05
0.00362907
4.44027e-05
0.00362635
4.80256e-05
0.00362343
5.16578e-05
0.00362033
5.5298e-05
0.00361704
5.89449e-05
0.00361356
6.25984e-05
0.0036099
6.62588e-05
0.00360604
6.99272e-05
0.00360201
7.36054e-05
0.00359778
7.72961e-05
0.00359337
8.10027e-05
0.00358878
8.47293e-05
0.003584
8.84811e-05
0.00357903
9.22638e-05
0.00357387
9.60838e-05
0.00356852
9.99485e-05
0.00356298
0.000103866
0.00355724
0.000107844
0.00355131
0.000111892
0.00354517
0.000116021
0.00353882
0.000120239
0.00353227
0.000124558
0.0035255
0.000128987
0.0035185
0.000133538
0.00351128
0.000138222
0.00350383
0.000143048
0.00349613
0.000148028
0.00348818
0.00015317
0.00347997
0.000158483
0.0034715
0.000163975
0.00346275
0.000169651
0.00345372
0.000175518
0.00344439
0.000181576
0.000187826
0.00360586
-7.00719e-06
0.00360581
-3.69633e-06
0.00360559
-3.34012e-07
0.00360521
3.07593e-06
0.00360466
6.53067e-06
0.00360394
1.0031e-05
0.00360304
1.35754e-05
0.00360196
1.71618e-05
0.00360071
2.07874e-05
0.00359927
2.4449e-05
0.00359764
2.8143e-05
0.00359583
3.18655e-05
0.00359383
3.56127e-05
0.00359164
3.93808e-05
0.00358927
4.31661e-05
0.00358671
4.69655e-05
0.00358395
5.07762e-05
0.00358102
5.45958e-05
0.00357789
5.84226e-05
0.00357458
6.22556e-05
0.00357109
6.60944e-05
0.0035674
6.99395e-05
0.00356354
7.37919e-05
0.00355949
7.76537e-05
0.00355526
8.15277e-05
0.00355085
8.54175e-05
0.00354625
8.93276e-05
0.00354146
9.32633e-05
0.0035365
9.72306e-05
0.00353135
0.000101237
0.00352601
0.000105289
0.00352048
0.000109395
0.00351475
0.000113566
0.00350884
0.000117809
0.00350272
0.000122136
0.0034964
0.000126557
0.00348988
0.000131083
0.00348314
0.000135725
0.00347618
0.000140494
0.003469
0.000145402
0.00346159
0.000150459
0.00345394
0.000155677
0.00344605
0.000161064
0.0034379
0.000166631
0.00342949
0.000172385
0.00342081
0.000178332
0.00341185
0.000184478
0.0034026
0.000190825
0.000197372
0.00356445
-7.07192e-06
0.00356436
-3.60494e-06
0.0035641
-8.151e-08
0.00356369
3.4927e-06
0.0035631
7.11537e-06
0.00356235
1.07873e-05
0.00356142
1.45066e-05
0.00356031
1.8271e-05
0.00355902
2.20773e-05
0.00355754
2.59218e-05
0.00355589
2.98004e-05
0.00355404
3.37088e-05
0.00355201
3.76427e-05
0.0035498
4.15979e-05
0.00354739
4.55704e-05
0.0035448
4.95568e-05
0.00354202
5.35539e-05
0.00353906
5.75593e-05
0.00353591
6.15712e-05
0.00353258
6.55883e-05
0.00352906
6.96105e-05
0.00352536
7.3638e-05
0.00352148
7.76721e-05
0.00351742
8.17151e-05
0.00351318
8.57697e-05
0.00350876
8.984e-05
0.00350415
9.39307e-05
0.00349937
9.80473e-05
0.0034944
0.000102196
0.00348926
0.000106385
0.00348392
0.000110621
0.0034784
0.000114914
0.0034727
0.000119273
0.0034668
0.000123709
0.0034607
0.000128231
0.00345441
0.000132851
0.00344791
0.00013758
0.00344121
0.00014243
0.00343429
0.000147414
0.00342715
0.000152541
0.00341978
0.000157826
0.00341218
0.000163277
0.00340434
0.000168906
0.00339625
0.000174721
0.0033879
0.000180733
0.00337929
0.000186946
0.0033704
0.000193366
0.00336123
0.000199995
0.000206834
0.00352352
-7.09569e-06
0.00352339
-3.47432e-06
0.0035231
2.08854e-07
0.00352265
3.94624e-06
0.00352203
7.73606e-06
0.00352124
1.1579e-05
0.00352027
1.5473e-05
0.00351912
1.94153e-05
0.0035178
2.34022e-05
0.00351629
2.74295e-05
0.0035146
3.14925e-05
0.00351272
3.55864e-05
0.00351066
3.97065e-05
0.00350841
4.38481e-05
0.00350597
4.80068e-05
0.00350335
5.2179e-05
0.00350054
5.63612e-05
0.00349755
6.05508e-05
0.00349438
6.47459e-05
0.00349102
6.89452e-05
0.00348748
7.31485e-05
0.00348376
7.73562e-05
0.00347987
8.15697e-05
0.00347579
8.57911e-05
0.00347154
9.00238e-05
0.0034671
9.42718e-05
0.00346249
9.854e-05
0.00345771
0.000102835
0.00345274
0.000107162
0.0034476
0.00011153
0.00344227
0.000115948