/*--------------------------------*- C++ -*----------------------------------*\
  =========                 |
  \\      /  F ield         | OpenFOAM: The Open Source CFD Toolbox
   \\    /   O peration     | Website:  https://openfoam.org
    \\  /    A nd           | Version:  7
     \\/     M anipulation  |
\*---------------------------------------------------------------------------*/
FoamFile
{
    version     2.0;
    format      ascii;
    class       volVectorField;
    location    "10";
    object      U;
}
// * * * * * * * * * * * * * * * * * * * * * * * * * * * * * * * * * * * * * //

dimensions      [0 1 -1 0 0 0 0];

internalField   nonuniform List<vector> 
2625
(
(1.2607 -0.000128597 -5.99092e-23)
(1.26118 -0.000113172 1.12826e-21)
(1.26158 -9.72138e-05 1.77261e-22)
(1.26191 -8.06718e-05 7.39528e-22)
(1.26217 -6.36223e-05 4.04865e-22)
(1.26072 -0.000381911 -1.39846e-21)
(1.2612 -0.000336548 3.99597e-22)
(1.2616 -0.000289539 -1.5591e-21)
(1.26193 -0.000240711 -1.0573e-21)
(1.26219 -0.000190221 1.9915e-22)
(1.26075 -0.00063125 -1.31901e-21)
(1.26123 -0.000556586 -7.01294e-22)
(1.26164 -0.000479137 1.97899e-21)
(1.26197 -0.0003986 2.1018e-21)
(1.26223 -0.000315189 -1.5057e-21)
(1.2608 -0.000877473 -5.63456e-22)
(1.26128 -0.000773835 1.66208e-21)
(1.26169 -0.000666277 1.91798e-22)
(1.26202 -0.000554358 -5.76671e-21)
(1.26229 -0.000438364 -1.41173e-21)
(1.26087 -0.00112016 4.93436e-21)
(1.26135 -0.000987882 -2.38817e-22)
(1.26176 -0.000850552 3.11157e-21)
(1.2621 -0.000707574 7.44754e-21)
(1.26236 -0.000559344 1.16426e-21)
(1.26095 -0.0013589 1.59817e-21)
(1.26144 -0.00119832 2.86982e-22)
(1.26185 -0.00103156 -1.48891e-21)
(1.26218 -0.000857838 -3.17938e-21)
(1.26246 -0.000677708 -1.58173e-21)
(1.26105 -0.0015934 -4.93865e-21)
(1.26154 -0.00140483 -1.92481e-21)
(1.26195 -0.00120894 1.92818e-21)
(1.26229 -0.00100477 -1.85884e-21)
(1.26257 -0.000793039 6.45624e-21)
(1.26116 -0.00182338 -2.44834e-21)
(1.26165 -0.00160711 8.09036e-22)
(1.26207 -0.00138236 -1.14407e-20)
(1.26242 -0.00114798 1.35921e-21)
(1.2627 -0.000904918 -4.83538e-21)
(1.26129 -0.00204857 -4.65382e-21)
(1.26179 -0.00180484 8.87775e-22)
(1.26221 -0.00155147 1.43159e-20)
(1.26255 -0.0012871 -2.25301e-21)
(1.26284 -0.00101292 -2.79452e-21)
(1.26144 -0.00226869 2.04283e-21)
(1.26193 -0.00199772 -1.68752e-21)
(1.26236 -0.00171594 1.95009e-21)
(1.26271 -0.00142174 3.77951e-21)
(1.263 -0.00111664 9.85758e-22)
(1.26159 -0.0024835 1.26629e-21)
(1.2621 -0.00218548 3.13664e-21)
(1.26253 -0.00187545 -1.20986e-20)
(1.26288 -0.00155156 -5.36624e-21)
(1.26318 -0.00121567 6.67227e-22)
(1.26177 -0.00269276 5.17264e-21)
(1.26227 -0.00236784 6.88329e-21)
(1.26271 -0.00202969 2.78874e-21)
(1.26306 -0.0016762 -4.30405e-21)
(1.26337 -0.00130963 1.14475e-20)
(1.26195 -0.00289624 5.22598e-21)
(1.26246 -0.00254454 -3.25673e-21)
(1.2629 -0.00217837 6.99129e-21)
(1.26326 -0.00179534 5.53965e-21)
(1.26357 -0.00139816 -6.69297e-21)
(1.26215 -0.00309374 -9.88464e-21)
(1.26266 -0.00271537 -1.24032e-20)
(1.26311 -0.00232122 -4.08029e-21)
(1.26347 -0.00190869 9.746e-21)
(1.26378 -0.00148091 -1.07302e-20)
(1.26236 -0.00328508 2.58428e-21)
(1.26288 -0.00288009 -4.71811e-21)
(1.26332 -0.002458 -1.41323e-22)
(1.26369 -0.00201596 3.21507e-21)
(1.26401 -0.00155756 7.87168e-21)
(1.26258 -0.00347008 -8.38181e-21)
(1.2631 -0.00303851 1.47956e-20)
(1.26355 -0.00258847 9.49406e-21)
(1.26392 -0.00211689 -7.51156e-21)
(1.26424 -0.00162781 5.13961e-21)
(1.26281 -0.00364859 1.21062e-20)
(1.26334 -0.00319045 -2.81811e-21)
(1.26379 -0.00271243 -1.85161e-20)
(1.26416 -0.00221124 -1.85292e-21)
(1.26449 -0.00169139 -1.87586e-21)
(1.26305 -0.00382047 2.61089e-22)
(1.26358 -0.00333575 1.94482e-23)
(1.26404 -0.00282967 -6.76147e-22)
(1.26441 -0.0022988 -8.98695e-21)
(1.26474 -0.00174804 -1.38013e-20)
(1.26329 -0.00398559 -9.9847e-22)
(1.26383 -0.00347425 5.04832e-21)
(1.26429 -0.00294003 -1.30813e-21)
(1.26466 -0.00237938 5.25609e-22)
(1.265 -0.00179754 3.08461e-20)
(1.26355 -0.00414383 -1.52939e-21)
(1.26409 -0.00360583 4.19201e-21)
(1.26455 -0.00304334 1.52457e-20)
(1.26493 -0.00245279 -1.20146e-20)
(1.26527 -0.00183968 -3.88689e-20)
(1.26381 -0.00429508 -1.54797e-20)
(1.26436 -0.00373037 -1.1473e-20)
(1.26482 -0.00313946 1.20409e-20)
(1.26519 -0.00251889 1.40241e-20)
(1.26554 -0.00187425 7.36287e-21)
(1.26408 -0.00443926 1.30121e-20)
(1.26463 -0.00384775 -2.21788e-20)
(1.26509 -0.00322825 -5.30503e-21)
(1.26547 -0.00257752 -1.77262e-21)
(1.26581 -0.0019011 1.66089e-20)
(1.26436 -0.00457627 -8.22867e-21)
(1.2649 -0.00395788 3.30053e-20)
(1.26537 -0.0033096 -3.06549e-20)
(1.26574 -0.00262858 1.50969e-20)
(1.26608 -0.00192005 5.2686e-21)
(1.26463 -0.00470604 1.65992e-20)
(1.26518 -0.00406067 -1.27703e-20)
(1.26565 -0.0033834 2.06414e-22)
(1.26602 -0.00267195 -1.80447e-20)
(1.26636 -0.00193099 -2.1815e-20)
(1.26492 -0.00482849 -1.79427e-20)
(1.26546 -0.00415604 1.7434e-20)
(1.26593 -0.00344954 2.25117e-20)
(1.2663 -0.00270754 1.16459e-20)
(1.26663 -0.00193376 3.97356e-21)
(1.2652 -0.00494356 -8.1199e-21)
(1.26575 -0.00424391 3.2912e-21)
(1.26622 -0.00350796 7.59576e-21)
(1.26658 -0.00273528 1.97417e-20)
(1.26691 -0.00192828 5.74537e-21)
(1.26549 -0.00505118 2.02022e-20)
(1.26604 -0.00432423 1.59387e-21)
(1.2665 -0.00355856 9.92834e-21)
(1.26685 -0.00275508 -2.31535e-20)
(1.26718 -0.00191443 1.89187e-21)
(1.26578 -0.00515128 1.35968e-20)
(1.26632 -0.00439693 -3.24467e-20)
(1.26678 -0.00360127 -3.45117e-20)
(1.26713 -0.00276691 1.36107e-20)
(1.26744 -0.00189214 2.31635e-21)
(1.26607 -0.00524382 -2.8973e-20)
(1.26661 -0.00446195 8.45847e-22)
(1.26706 -0.00363605 -2.64375e-21)
(1.2674 -0.00277071 -1.52765e-20)
(1.2677 -0.00186131 8.88e-21)
(1.26636 -0.00532874 3.13373e-21)
(1.2669 -0.00451923 2.32521e-20)
(1.26734 -0.00366283 -1.64531e-21)
(1.26767 -0.00276646 -3.01104e-21)
(1.26796 -0.00182189 -5.05569e-23)
(1.26665 -0.00540599 -5.71137e-21)
(1.26718 -0.00456873 -8.52863e-21)
(1.26762 -0.00368157 1.73921e-20)
(1.26794 -0.00275412 1.19524e-20)
(1.26821 -0.00177382 -9.90052e-21)
(1.26694 -0.00547553 2.68186e-20)
(1.26746 -0.00461038 -3.14941e-20)
(1.26789 -0.00369225 -5.98083e-21)
(1.2682 -0.00273367 -1.27466e-20)
(1.26844 -0.00171706 9.35233e-21)
(1.26722 -0.0055373 -2.94361e-20)
(1.26774 -0.00464415 2.74643e-20)
(1.26815 -0.00369484 1.29741e-20)
(1.26845 -0.00270511 1.37594e-21)
(1.26867 -0.00165155 -2.50846e-20)
(1.2675 -0.00559126 3.26676e-20)
(1.26801 -0.00466997 8.57389e-21)
(1.26841 -0.00368932 3.07254e-21)
(1.26869 -0.00266842 1.40751e-20)
(1.26889 -0.0015773 1.60934e-20)
(1.26778 -0.00563738 -7.34723e-21)
(1.26828 -0.0046878 -3.56236e-20)
(1.26866 -0.00367571 3.98121e-21)
(1.26893 -0.00262359 1.84899e-20)
(1.26909 -0.00149427 -3.72959e-23)
(1.26806 -0.00567559 1.17605e-20)
(1.26854 -0.00469757 1.37904e-20)
(1.2689 -0.00365401 -3.09493e-20)
(1.26915 -0.00257062 -2.5542e-20)
(1.26928 -0.00140247 -2.89938e-20)
(1.26833 -0.00570584 -4.03269e-20)
(1.2688 -0.00469922 -3.00159e-21)
(1.26914 -0.00362424 2.80693e-20)
(1.26937 -0.00250949 6.51049e-21)
(1.26946 -0.00130193 9.79649e-21)
(1.26804 -0.0067157 4.72352e-20)
(1.2686 -0.0057281 4.07739e-20)
(1.26905 -0.00469271 3.75709e-21)
(1.26936 -0.00358645 -1.62534e-20)
(1.26957 -0.00244019 -1.61777e-20)
(1.26962 -0.00119269 3.41403e-20)
(1.26831 -0.00675746 -2.28351e-20)
(1.26886 -0.0057423 -1.07111e-20)
(1.26929 -0.00467797 2.87157e-20)
(1.26957 -0.00354067 -2.74164e-21)
(1.26976 -0.00236271 -4.5309e-21)
(1.26976 -0.00107484 -3.40018e-21)
(1.26858 -0.00679121 1.71963e-20)
(1.26911 -0.00574837 -8.54956e-21)
(1.26952 -0.00465494 -1.76526e-20)
(1.26978 -0.00348696 -3.40261e-21)
(1.26994 -0.00227702 1.60625e-20)
(1.26989 -0.000948489 1.60275e-20)
(1.26885 -0.00681688 -2.36632e-20)
(1.26936 -0.00574626 -9.25778e-21)
(1.26975 -0.00462357 3.67082e-21)
(1.26997 -0.00342537 -1.63088e-20)
(1.2701 -0.00218311 1.26803e-20)
(1.26999 -0.000813796 -3.02841e-20)
(1.26911 -0.00683441 2.47207e-21)
(1.2696 -0.00573589 6.8074e-21)
(1.26996 -0.0045838 -1.99216e-20)
(1.27014 -0.00335598 -1.98698e-21)
(1.27024 -0.00208095 6.88927e-22)
(1.27007 -0.000670982 1.04151e-20)
(1.26937 -0.00684372 1.41667e-20)
(1.26983 -0.00571717 -1.81919e-20)
(1.27016 -0.00453559 2.80627e-20)
(1.27031 -0.00327882 3.49676e-20)
(1.27037 -0.00197056 1.28524e-20)
(1.27014 -0.00052033 3.19919e-20)
(1.26962 -0.00684476 -3.3118e-20)
(1.27005 -0.00569001 3.19199e-20)
(1.27035 -0.00447889 -2.41056e-20)
(1.27046 -0.00319393 -5.62282e-20)
(1.27048 -0.00185194 -5.56444e-20)
(1.27017 -0.000362196 1.02232e-20)
(1.26986 -0.00683743 3.87334e-20)
(1.27026 -0.00565432 -1.80794e-20)
(1.27053 -0.00441364 6.50498e-20)
(1.27059 -0.00310134 1.46468e-20)
(1.27058 -0.00172515 3.73557e-20)
(1.27019 -0.00019702 -1.57398e-20)
(1.27009 -0.00682166 -4.7835e-20)
(1.27047 -0.00560997 -1.26846e-20)
(1.2707 -0.00433981 -5.5115e-20)
(1.27071 -0.00300105 5.4486e-20)
(1.27065 -0.00159032 2.4863e-20)
(1.27018 -2.53263e-05 1.68968e-20)
(1.27032 -0.00679738 8.24279e-20)
(1.27066 -0.00555686 5.84448e-20)
(1.27085 -0.00425734 -1.26083e-20)
(1.27081 -0.00289301 -2.31126e-20)
(1.2707 -0.00144763 1.1561e-20)
(1.27014 0.000152281 -2.70162e-20)
(1.27054 -0.00676448 -2.17499e-20)
(1.27084 -0.00549486 -5.00338e-20)
(1.27099 -0.00416617 -2.1332e-20)
(1.27089 -0.00277715 1.27045e-20)
(1.27072 -0.00129737 -1.17586e-20)
(1.27008 0.00033511 -8.93556e-21)
(1.27075 -0.00672287 -3.53499e-20)
(1.27102 -0.00542384 5.88778e-20)
(1.27111 -0.00406622 7.6923e-20)
(1.27096 -0.00265335 2.9147e-20)
(1.27072 -0.00113993 -5.14602e-20)
(1.26999 0.000522426 -9.60026e-21)
(1.27095 -0.00667245 -2.84413e-20)
(1.27118 -0.00534365 -1.75364e-20)
(1.27122 -0.0039574 -5.22384e-20)
(1.27101 -0.00252143 -8.0104e-21)
(1.2707 -0.000975844 3.99571e-20)
(1.27114 -0.00661312 6.35225e-20)
(1.27132 -0.00525414 -7.22379e-21)
(1.27131 -0.00383958 4.37713e-20)
(1.27103 -0.00238117 -6.90494e-20)
(1.27064 -0.00080575 -7.17924e-20)
(1.27132 -0.00654476 -3.79095e-20)
(1.27146 -0.00515518 -1.14167e-20)
(1.27138 -0.00371258 -8.44795e-20)
(1.27104 -0.00223231 7.88749e-20)
(1.2715 -0.00646725 2.06009e-22)
(1.27158 -0.0050466 -2.65906e-20)
(1.27144 -0.0035762 3.5756e-20)
(1.27102 -0.00207453 -9.6871e-20)
(1.27166 -0.00638045 -3.52815e-20)
(1.27169 -0.00492822 5.48047e-21)
(1.27148 -0.00343014 3.40055e-20)
(1.27181 -0.00628423 -2.05127e-21)
(1.27178 -0.00479983 3.42831e-20)
(1.2715 -0.00327401 -1.71002e-20)
(1.27195 -0.00617858 6.64283e-20)
(1.27186 -0.00466131 1.59512e-20)
(1.2715 -0.00310739 -2.63311e-20)
(1.27208 -0.00606338 1.52306e-20)
(1.27193 -0.00451267 -2.82983e-20)
(1.2722 -0.00593768 8.23015e-21)
(1.27198 -0.00435332 -2.40306e-20)
(1.27231 -0.00580077 -1.98522e-20)
(1.2724 -0.00565812 -2.14034e-20)
(1.26236 -4.59973e-05 0)
(1.26248 -2.93121e-05 0)
(1.26255 -1.28499e-05 0)
(1.26257 3.43287e-06 0)
(1.26253 1.94854e-05 0)
(1.26243 3.529e-05 0)
(1.26228 5.08357e-05 0)
(1.26207 6.61116e-05 0)
(1.2618 8.1108e-05 0)
(1.26147 9.58167e-05 0)
(1.26109 0.00011023 0)
(1.26064 0.00012434 0)
(1.26013 0.000138142 0)
(1.25957 0.000151631 0)
(1.25894 0.000164801 0)
(1.25825 0.000177652 0)
(1.2575 0.000190181 0)
(1.25669 0.000202389 0)
(1.25581 0.00021428 0)
(1.25487 0.000225856 0)
(1.25388 0.000237125 0)
(1.25281 0.000248095 0)
(1.25169 0.000258777 0)
(1.2505 0.000269182 0)
(1.24925 0.000279325 0)
(1.24793 0.000289223 0)
(1.24655 0.000298895 0)
(1.24511 0.000308359 0)
(1.2436 0.000317639 0)
(1.24202 0.000326757 0)
(1.24038 0.000335738 0)
(1.23867 0.000344606 0)
(1.23689 0.00035339 0)
(1.23503 0.000362114 0)
(1.23311 0.000370808 0)
(1.23111 0.000379497 0)
(1.22904 0.000388208 0)
(1.22689 0.000396968 0)
(1.22467 0.000405802 0)
(1.22236 0.000414734 0)
(1.21997 0.000423784 0)
(1.21749 0.000432973 0)
(1.21492 0.000442317 0)
(1.21226 0.000451829 0)
(1.2095 0.000461519 0)
(1.20665 0.000471391 0)
(1.20369 0.000481445 0)
(1.20063 0.000491674 0)
(1.19745 0.000502066 0)
(1.26238 -0.000137418 0)
(1.2625 -8.7469e-05 0)
(1.26257 -3.82308e-05 0)
(1.26259 1.04502e-05 0)
(1.26255 5.84358e-05 0)
(1.26245 0.000105676 0)
(1.2623 0.000152141 0)
(1.26208 0.000197797 0)
(1.26181 0.000242618 0)
(1.26149 0.000286578 0)
(1.2611 0.000329655 0)
(1.26065 0.000371827 0)
(1.26014 0.000413077 0)
(1.25958 0.000453389 0)
(1.25895 0.000492752 0)
(1.25826 0.000531158 0)
(1.2575 0.000568603 0)
(1.25669 0.000605089 0)
(1.25582 0.000640624 0)
(1.25488 0.000675221 0)
(1.25388 0.000708899 0)
(1.25281 0.000741682 0)
(1.25169 0.000773601 0)
(1.2505 0.000804695 0)
(1.24925 0.000835006 0)
(1.24793 0.000864584 0)
(1.24655 0.000893483 0)
(1.2451 0.000921764 0)
(1.24359 0.000949492 0)
(1.24201 0.000976736 0)
(1.24037 0.00100357 0)
(1.23865 0.00103007 0)
(1.23687 0.00105631 0)
(1.23502 0.00108238 0)
(1.23309 0.00110835 0)
(1.2311 0.00113431 0)
(1.22902 0.00116034 0)
(1.22687 0.00118651 0)
(1.22465 0.0012129 0)
(1.22234 0.00123958 0)
(1.21994 0.00126662 0)
(1.21746 0.00129407 0)
(1.21489 0.00132199 0)
(1.21223 0.00135041 0)
(1.20947 0.00137936 0)
(1.20662 0.00140885 0)
(1.20366 0.00143888 0)
(1.20059 0.00146944 0)
(1.19742 0.00150049 0)
(1.26242 -0.000227557 0)
(1.26254 -0.000144579 0)
(1.26261 -6.28485e-05 0)
(1.26262 1.79142e-05 0)
(1.26258 9.75027e-05 0)
(1.26248 0.000175845 0)
(1.26233 0.000252893 0)
(1.26211 0.000328598 0)
(1.26184 0.000402915 0)
(1.26151 0.000475803 0)
(1.26112 0.000547226 0)
(1.26067 0.00061715 0)
(1.26016 0.000685543 0)
(1.25959 0.000752382 0)
(1.25896 0.000817645 0)
(1.25827 0.000881321 0)
(1.25752 0.000943404 0)
(1.2567 0.0010039 0)
(1.25582 0.00106281 0)
(1.25488 0.00112017 0)
(1.25388 0.001176 0)
(1.25282 0.00123034 0)
(1.25169 0.00128326 0)
(1.2505 0.0013348 0)
(1.24924 0.00138504 0)
(1.24792 0.00143407 0)
(1.24654 0.00148196 0)
(1.24509 0.00152884 0)
(1.24357 0.00157479 0)
(1.24199 0.00161994 0)
(1.24034 0.0016644 0)
(1.23863 0.00170831 0)
(1.23684 0.0017518 0)
(1.23499 0.00179499 0)
(1.23306 0.00183802 0)
(1.23106 0.00188103 0)
(1.22899 0.00192416 0)
(1.22683 0.00196752 0)
(1.2246 0.00201125 0)
(1.22229 0.00205545 0)
(1.21989 0.00210025 0)
(1.21741 0.00214573 0)
(1.21484 0.00219198 0)
(1.21217 0.00223906 0)
(1.20941 0.00228702 0)
(1.20656 0.00233588 0)
(1.2036 0.00238564 0)
(1.20053 0.00243627 0)
(1.19736 0.0024877 0)
(1.26247 -0.000316155 0)
(1.2626 -0.000200373 0)
(1.26266 -8.64091e-05 0)
(1.26267 2.61457e-05 0)
(1.26263 0.00013703 0)
(1.26253 0.000246159 0)
(1.26237 0.000353474 0)
(1.26216 0.000458912 0)
(1.26188 0.000562413 0)
(1.26155 0.000663922 0)
(1.26116 0.00076339 0)
(1.26071 0.000860768 0)
(1.2602 0.000956016 0)
(1.25962 0.0010491 0)
(1.25899 0.00113998 0)
(1.25829 0.00122866 0)
(1.25754 0.00131511 0)
(1.25672 0.00139935 0)
(1.25584 0.00148139 0)
(1.25489 0.00156125 0)
(1.25389 0.00163899 0)
(1.25282 0.00171465 0)
(1.25169 0.00178832 0)
(1.25049 0.00186007 0)
(1.24923 0.00193001 0)
(1.24791 0.00199825 0)
(1.24652 0.00206492 0)
(1.24507 0.00213015 0)
(1.24355 0.00219411 0)
(1.24196 0.00225693 0)
(1.24031 0.00231881 0)
(1.23859 0.00237991 0)
(1.2368 0.00244041 0)
(1.23494 0.0025005 0)
(1.23301 0.00256037 0)
(1.23101 0.00262021 0)
(1.22893 0.0026802 0)
(1.22677 0.00274053 0)
(1.22454 0.00280135 0)
(1.22222 0.00286285 0)
(1.21982 0.00292517 0)
(1.21733 0.00298843 0)
(1.21476 0.00305277 0)
(1.21209 0.00311826 0)
(1.20933 0.00318497 0)
(1.20647 0.00325294 0)
(1.2035 0.00332215 0)
(1.20044 0.00339258 0)
(1.19726 0.00346412 0)
(1.26255 -0.000402856 0)
(1.26267 -0.000254511 0)
(1.26273 -0.000108572 0)
(1.26274 3.54961e-05 0)
(1.2627 0.000177382 0)
(1.26259 0.000316997 0)
(1.26243 0.000454276 0)
(1.26222 0.000589144 0)
(1.26194 0.00072153 0)
(1.2616 0.000851367 0)
(1.26121 0.00097859 0)
(1.26075 0.00110314 0)
(1.26024 0.00122496 0)
(1.25966 0.00134402 0)
(1.25902 0.00146026 0)
(1.25832 0.00157367 0)
(1.25756 0.00168424 0)
(1.25674 0.00179197 0)
(1.25585 0.00189688 0)
(1.2549 0.00199901 0)
(1.25389 0.00209841 0)
(1.25282 0.00219516 0)
(1.25168 0.00228934 0)
(1.25048 0.00238107 0)
(1.24922 0.00247048 0)
(1.24789 0.0025577 0)
(1.2465 0.00264291 0)
(1.24504 0.00272628 0)
(1.24351 0.002808 0)
(1.24192 0.00288828 0)
(1.24027 0.00296733 0)
(1.23854 0.00304539 0)
(1.23675 0.00312268 0)
(1.23488 0.00319945 0)
(1.23295 0.00327592 0)
(1.23094 0.00335236 0)
(1.22885 0.00342898 0)
(1.22669 0.00350602 0)
(1.22445 0.00358371 0)
(1.22213 0.00366225 0)
(1.21973 0.00374184 0)
(1.21724 0.00382264 0)
(1.21466 0.0039048 0)
(1.21198 0.00398843 0)
(1.20922 0.00407363 0)
(1.20635 0.00416043 0)
(1.20338 0.00424882 0)
(1.20031 0.00433875 0)
(1.19713 0.00443011 0)
(1.26264 -0.000487278 0)
(1.26276 -0.000306635 0)
(1.26282 -0.000128985 0)
(1.26283 4.63194e-05 0)
(1.26278 0.000218918 0)
(1.26267 0.000388726 0)
(1.26251 0.000555677 0)
(1.26229 0.000719684 0)
(1.262 0.000880667 0)
(1.26166 0.00103855 0)
(1.26127 0.00119325 0)
(1.26081 0.0013447 0)
(1.26028 0.00149284 0)
(1.2597 0.0016376 0)
(1.25906 0.00177894 0)
(1.25836 0.00191684 0)
(1.25759 0.00205128 0)
(1.25676 0.00218226 0)
(1.25587 0.00230981 0)
(1.25492 0.00243397 0)
(1.2539 0.0025548 0)
(1.25282 0.00267239 0)
(1.25168 0.00278685 0)
(1.25047 0.00289833 0)
(1.2492 0.00300696 0)
(1.24786 0.00311294 0)
(1.24646 0.00321646 0)
(1.245 0.00331773 0)
(1.24347 0.00341698 0)
(1.24187 0.00351448 0)
(1.24021 0.00361049 0)
(1.23848 0.00370527 0)
(1.23668 0.00379911 0)
(1.23481 0.00389231 0)
(1.23287 0.00398516 0)
(1.23085 0.00407794 0)
(1.22876 0.00417095 0)
(1.22659 0.00426447 0)
(1.22435 0.00435877 0)
(1.22202 0.0044541 0)
(1.21961 0.0045507 0)
(1.21711 0.00464876 0)
(1.21453 0.00474849 0)
(1.21185 0.00485 0)
(1.20908 0.0049534 0)
(1.20621 0.00505874 0)
(1.20323 0.00516602 0)
(1.20016 0.00527517 0)
(1.19697 0.00538604 0)
(1.26276 -0.000569028 0)
(1.26287 -0.000356375 0)
(1.26292 -0.000147287 0)
(1.26293 5.89713e-05 0)
(1.26287 0.000261995 0)
(1.26276 0.000461708 0)
(1.26259 0.000658043 0)
(1.26237 0.000850907 0)
(1.26208 0.00104021 0)
(1.26174 0.00122586 0)
(1.26133 0.00140778 0)
(1.26087 0.00158587 0)
(1.26034 0.00176006 0)
(1.25975 0.00193029 0)
(1.25911 0.00209649 0)
(1.25839 0.00225864 0)
(1.25762 0.00241671 0)
(1.25679 0.0025707 0)
(1.25589 0.00272065 0)
(1.25493 0.0028666 0)
(1.2539 0.00300863 0)
(1.25282 0.00314683 0)
(1.25167 0.00328135 0)
(1.25045 0.00341234 0)
(1.24918 0.00353997 0)
(1.24783 0.00366447 0)
(1.24643 0.00378606 0)
(1.24495 0.00390499 0)
(1.24342 0.00402155 0)
(1.24181 0.00413603 0)
(1.24014 0.00424874 0)
(1.2384 0.00436001 0)
(1.2366 0.00447017 0)
(1.23472 0.00457956 0)
(1.23277 0.00468852 0)
(1.23074 0.00479741 0)
(1.22865 0.00490656 0)
(1.22647 0.0050163 0)
(1.22422 0.00512695 0)
(1.22189 0.00523881 0)
(1.21947 0.00535215 0)
(1.21696 0.00546722 0)
(1.21437 0.00558422 0)
(1.21169 0.00570333 0)
(1.20891 0.00582465 0)
(1.20603 0.00594825 0)
(1.20305 0.00607411 0)
(1.19997 0.00620217 0)
(1.19678 0.00633224 0)
(1.26288 -0.000647706 0)
(1.26299 -0.000403351 0)
(1.26304 -0.000163113 0)
(1.26304 7.38096e-05 0)
(1.26298 0.000306968 0)
(1.26287 0.0005363 0)
(1.26269 0.000761738 0)
(1.26246 0.000983182 0)
(1.26217 0.00120054 0)
(1.26182 0.0014137 0)
(1.26141 0.00162257 0)
(1.26094 0.00182705 0)
(1.2604 0.00202706 0)
(1.25981 0.00222251 0)
(1.25916 0.00241334 0)
(1.25844 0.0025995 0)
(1.25766 0.00278097 0)
(1.25681 0.00295775 0)
(1.25591 0.00312987 0)
(1.25494 0.00329739 0)
(1.25391 0.00346038 0)
(1.25281 0.00361897 0)
(1.25166 0.00377331 0)
(1.25043 0.00392358 0)
(1.24915 0.00406998 0)
(1.2478 0.00421276 0)
(1.24638 0.00435219 0)
(1.2449 0.00448855 0)
(1.24335 0.00462217 0)
(1.24174 0.00475339 0)
(1.24006 0.00488256 0)
(1.23831 0.00501007 0)
(1.2365 0.00513629 0)
(1.23461 0.00526162 0)
(1.23265 0.00538645 0)
(1.23062 0.00551118 0)
(1.22851 0.00563621 0)
(1.22633 0.00576191 0)
(1.22407 0.00588865 0)
(1.22173 0.00601677 0)
(1.2193 0.00614658 0)
(1.21679 0.00627837 0)
(1.21419 0.00641237 0)
(1.2115 0.00654878 0)
(1.20872 0.00668773 0)
(1.20583 0.00682928 0)
(1.20285 0.00697342 0)
(1.19976 0.00712006 0)
(1.19656 0.00726902 0)
(1.26303 -0.000722912 0)
(1.26313 -0.000447184 0)
(1.26318 -0.000176098 0)
(1.26317 9.11907e-05 0)
(1.2631 0.000354189 0)
(1.26298 0.000612853 0)
(1.2628 0.000867115 0)
(1.26257 0.00111687 0)
(1.26227 0.00136201 0)
(1.26191 0.00160243 0)
(1.26149 0.00183802 0)
(1.26101 0.00206865 0)
(1.26047 0.00229424 0)
(1.25987 0.00251468 0)
(1.25921 0.0027299 0)
(1.25848 0.00293986 0)
(1.2577 0.00314451 0)
(1.25684 0.00334385 0)
(1.25593 0.00353792 0)
(1.25495 0.00372678 0)
(1.25391 0.00391052 0)
(1.25281 0.00408927 0)
(1.25164 0.0042632 0)
(1.25041 0.00443251 0)
(1.24911 0.00459745 0)
(1.24775 0.00475827 0)
(1.24633 0.00491529 0)
(1.24483 0.00506883 0)
(1.24328 0.00521927 0)
(1.24166 0.00536698 0)
(1.23997 0.00551237 0)
(1.23821 0.00565586 0)
(1.23638 0.00579788 0)
(1.23449 0.00593889 0)
(1.23252 0.00607933 0)
(1.23048 0.00621965 0)
(1.22836 0.00636029 0)
(1.22617 0.00650168 0)
(1.2239 0.00664423 0)
(1.22155 0.00678833 0)
(1.21912 0.00693433 0)
(1.2166 0.00708256 0)
(1.21399 0.00723327 0)
(1.21129 0.00738668 0)
(1.2085 0.00754295 0)
(1.2056 0.00770214 0)
(1.20261 0.00786424 0)
(1.19952 0.00802916 0)
(1.19631 0.00819667 0)
(1.26319 -0.000794253 0)
(1.26328 -0.0004875 0)
(1.26332 -0.000185879 0)
(1.26331 0.000111466 0)
(1.26324 0.000404005 0)
(1.26311 0.000691715 0)
(1.26292 0.000974524 0)
(1.26268 0.00125232 0)
(1.26237 0.001525 0)
(1.26201 0.00179243 0)
(1.26158 0.00205449 0)
(1.2611 0.00231105 0)
(1.26055 0.00256199 0)
(1.25994 0.00280721 0)
(1.25927 0.00304662 0)
(1.25853 0.00328014 0)
(1.25773 0.00350776 0)
(1.25687 0.00372945 0)
(1.25595 0.00394525 0)
(1.25496 0.00415523 0)
(1.25391 0.00435948 0)
(1.2528 0.00455816 0)
(1.25162 0.00475145 0)
(1.25037 0.00493957 0)
(1.24907 0.00512279 0)
(1.2477 0.00530142 0)
(1.24626 0.00547579 0)
(1.24476 0.00564627 0)
(1.24319 0.00581326 0)
(1.24156 0.00597721 0)
(1.23986 0.00613855 0)
(1.23809 0.00629776 0)
(1.23625 0.00645534 0)
(1.23435 0.00661176 0)
(1.23237 0.00676754 0)
(1.23032 0.00692317 0)
(1.22819 0.00707915 0)
(1.22599 0.00723595 0)
(1.22371 0.00739403 0)
(1.22135 0.00755383 0)
(1.21891 0.00771573 0)
(1.21638 0.00788009 0)
(1.21376 0.00804721 0)
(1.21105 0.00821733 0)
(1.20825 0.0083906 0)
(1.20535 0.00856712 0)
(1.20235 0.00874686 0)
(1.19924 0.00892971 0)
(1.19603 0.00911544 0)
(1.26336 -0.000861345 0)
(1.26344 -0.000523933 0)
(1.26348 -0.000192104 0)
(1.26346 0.000134981 0)
(1.26338 0.000456757 0)
(1.26325 0.000773223 0)
(1.26305 0.00108431 0)
(1.2628 0.00138989 0)
(1.26249 0.00168986 0)
(1.26212 0.00198406 0)
(1.26168 0.00227237 0)
(1.26119 0.00255464 0)
(1.26063 0.00283072 0)
(1.26001 0.0031005 0)
(1.25933 0.00336388 0)
(1.25858 0.00362077 0)
(1.25777 0.00387114 0)
(1.2569 0.00411496 0)
(1.25597 0.00435228 0)
(1.25497 0.00458315 0)
(1.25391 0.00480769 0)
(1.25278 0.00502607 0)
(1.25159 0.00523848 0)
(1.25033 0.00544517 0)
(1.24902 0.00564644 0)
(1.24763 0.00584262 0)
(1.24618 0.00603408 0)
(1.24467 0.00622124 0)
(1.24309 0.00640454 0)
(1.24145 0.00658446 0)
(1.23973 0.00676149 0)
(1.23795 0.00693616 0)
(1.23611 0.007109 0)
(1.23419 0.00728057 0)
(1.2322 0.00745141 0)
(1.23013 0.00762208 0)
(1.228 0.00779311 0)
(1.22579 0.00796504 0)
(1.22349 0.00813837 0)
(1.22112 0.00831357 0)
(1.21867 0.00849107 0)
(1.21613 0.00867127 0)
(1.2135 0.00885449 0)
(1.21079 0.009041 0)
(1.20797 0.00923096 0)
(1.20506 0.00942447 0)
(1.20206 0.00962152 0)
(1.19894 0.00982198 0)
(1.19572 0.0100256 0)
(1.26355 -0.000923822 0)
(1.26362 -0.000556132 0)
(1.26365 -0.000194431 0)
(1.26362 0.000162069 0)
(1.26354 0.000512775 0)
(1.26339 0.00085771 0)
(1.26319 0.0011968 0)
(1.26293 0.00152992 0)
(1.26261 0.00185693 0)
(1.26223 0.00217769 0)
(1.26178 0.00249202 0)
(1.26128 0.00279978 0)
(1.26071 0.0031008 0)
(1.26008 0.00339495 0)
(1.25939 0.00368209 0)
(1.25863 0.00396215 0)
(1.25781 0.00423506 0)
(1.25693 0.0045008 0)
(1.25598 0.00475941 0)
(1.25497 0.00501096 0)
(1.2539 0.00525557 0)
(1.25276 0.00549341 0)
(1.25155 0.0057247 0)
(1.25029 0.00594972 0)
(1.24895 0.00616879 0)
(1.24756 0.00638226 0)
(1.2461 0.00659056 0)
(1.24457 0.00679413 0)
(1.24298 0.00699347 0)
(1.24132 0.00718908 0)
(1.23959 0.00738153 0)
(1.2378 0.00757138 0)
(1.23594 0.00775922 0)
(1.23401 0.00794565 0)
(1.23201 0.00813127 0)
(1.22993 0.00831668 0)
(1.22778 0.00850248 0)
(1.22556 0.00868925 0)
(1.22326 0.00887752 0)
(1.22087 0.00906782 0)
(1.21841 0.00926063 0)
(1.21586 0.00945636 0)
(1.21322 0.00965537 0)
(1.21049 0.00985794 0)
(1.20767 0.0100643 0)
(1.20475 0.0102744 0)
(1.20173 0.0104885 0)
(1.19861 0.0107062 0)
(1.19538 0.0109273 0)
(1.26375 -0.000981334 0)
(1.26381 -0.000583758 0)
(1.26383 -0.000192531 0)
(1.2638 0.000193052 0)
(1.2637 0.00057238 0)
(1.26355 0.000945498 0)
(1.26334 0.00131232 0)
(1.26307 0.00167273 0)
(1.26274 0.00202656 0)
(1.26234 0.00237365 0)
(1.26189 0.00271381 0)
(1.26137 0.00304687 0)
(1.2608 0.00337263 0)
(1.26015 0.00369094 0)
(1.25945 0.00400165 0)
(1.25868 0.00430467 0)
(1.25785 0.00459992 0)
(1.25695 0.00488738 0)
(1.25599 0.00516707 0)
(1.25497 0.00543907 0)
(1.25388 0.00570351 0)
(1.25273 0.00596058 0)
(1.25151 0.00621051 0)
(1.25023 0.0064536 0)
(1.24888 0.0066902 0)
(1.24747 0.00692071 0)
(1.24599 0.00714558 0)
(1.24445 0.00736529 0)
(1.24285 0.00758038 0)
(1.24118 0.00779142 0)
(1.23944 0.007999 0)
(1.23763 0.00820375 0)
(1.23576 0.0084063 0)
(1.23381 0.00860729 0)
(1.23179 0.0088074 0)
(1.22971 0.00900727 0)
(1.22755 0.00920754 0)
(1.22531 0.00940883 0)
(1.22299 0.00961175 0)
(1.2206 0.00981685 0)
(1.21812 0.0100246 0)
(1.21556 0.0102356 0)
(1.21291 0.0104501 0)
(1.21017 0.0106684 0)
(1.20734 0.0108907 0)
(1.20441 0.0111173 0)
(1.20138 0.0113479 0)
(1.19825 0.0115825 0)
(1.19502 0.0118208 0)
(1.26396 -0.00103355 0)
(1.26401 -0.000606493 0)
(1.26402 -0.000186091 0)
(1.26398 0.000228241 0)
(1.26388 0.000635882 0)
(1.26371 0.0010369 0)
(1.26349 0.00143121 0)
(1.26321 0.00181866 0)
(1.26287 0.00219909 0)
(1.26247 0.00257231 0)
(1.262 0.0029381 0)
(1.26147 0.00329626 0)
(1.26088 0.00364658 0)
(1.26023 0.00398886 0)
(1.25951 0.00432296 0)
(1.25873 0.00464874 0)
(1.25788 0.00496613 0)
(1.25697 0.00527509 0)
(1.256 0.00557564 0)
(1.25496 0.00586787 0)
(1.25385 0.0061519 0)
(1.25269 0.00642795 0)
(1.25145 0.00669626 0)
(1.25016 0.00695717 0)
(1.2488 0.00721104 0)
(1.24737 0.00745831 0)
(1.24588 0.00769947 0)
(1.24432 0.00793505 0)
(1.2427 0.00816561 0)
(1.24101 0.00839179 0)
(1.23926 0.00861421 0)
(1.23744 0.00883355 0)
(1.23555 0.00905051 0)
(1.23359 0.00926578 0)
(1.23156 0.00948007 0)
(1.22946 0.00969409 0)
(1.22729 0.00990852 0)
(1.22503 0.010124 0)
(1.22271 0.0103413 0)
(1.2203 0.0105609 0)
(1.21781 0.0107833 0)
(1.21524 0.0110092 0)
(1.21258 0.0112388 0)
(1.20983 0.0114725 0)
(1.20698 0.0117106 0)
(1.20404 0.0119531 0)
(1.201 0.0122 0)
(1.19786 0.0124512 0)
(1.19462 0.0127062 0)
(1.26418 -0.00108017 0)
(1.26422 -0.000624036 0)
(1.26423 -0.000174815 0)
(1.26417 0.000267931 0)
(1.26406 0.000703579 0)
(1.26388 0.00113222 0)
(1.26365 0.00155376 0)
(1.26336 0.00196804 0)
(1.263 0.00237486 0)
(1.26259 0.00277401 0)
(1.26211 0.00316525 0)
(1.26157 0.00354833 0)
(1.26097 0.00392302 0)
(1.2603 0.00428911 0)
(1.25957 0.0046464 0)
(1.25877 0.00499475 0)
(1.25791 0.00533407 0)
(1.25698 0.00566432 0)
(1.25599 0.00598551 0)
(1.25494 0.00629773 0)
(1.25382 0.00660112 0)
(1.25264 0.00689589 0)
(1.25139 0.00718233 0)
(1.25007 0.00746078 0)
(1.2487 0.00773165 0)
(1.24725 0.0079954 0)
(1.24575 0.00825256 0)
(1.24418 0.00850371 0)
(1.24254 0.00874945 0)
(1.24084 0.00899046 0)
(1.23907 0.00922742 0)
(1.23723 0.00946106 0)
(1.23532 0.00969212 0)
(1.23335 0.00992136 0)
(1.23131 0.0101495 0)
(1.22919 0.0103774 0)
(1.227 0.0106057 0)
(1.22474 0.0108351 0)
(1.22239 0.0110664 0)
(1.21997 0.0113001 0)
(1.21747 0.0115369 0)
(1.21488 0.0117773 0)
(1.21221 0.0120217 0)
(1.20945 0.0122705 0)
(1.20659 0.012524 0)
(1.20364 0.0127821 0)
(1.2006 0.0130449 0)
(1.19744 0.0133123 0)
(1.19419 0.0135838 0)
(1.26442 -0.00112089 0)
(1.26444 -0.000636103 0)
(1.26443 -0.000158421 0)
(1.26437 0.000312403 0)
(1.26424 0.000775759 0)
(1.26406 0.00123176 0)
(1.26381 0.00168029 0)
(1.26351 0.00212118 0)
(1.26314 0.0025542 0)
(1.26272 0.0029791 0)
(1.26222 0.00339561 0)
(1.26167 0.00380345 0)
(1.26105 0.00420234 0)
(1.26037 0.00459205 0)
(1.25962 0.00497235 0)
(1.25881 0.00534309 0)
(1.25793 0.00570414 0)
(1.25699 0.00605545 0)
(1.25598 0.00639706 0)
(1.25491 0.00672902 0)
(1.25377 0.00705151 0)
(1.25257 0.00736475 0)
(1.25131 0.00766905 0)
(1.24998 0.00796476 0)
(1.24858 0.00825234 0)
(1.24712 0.00853228 0)
(1.2456 0.00880515 0)
(1.24401 0.00907156 0)
(1.24236 0.00933217 0)
(1.24064 0.00958771 0)
(1.23885 0.0098389 0)
(1.237 0.0100865 0)
(1.23508 0.0103314 0)
(1.23309 0.0105743 0)
(1.23103 0.010816 0)
(1.22889 0.0110574 0)
(1.22669 0.0112992 0)
(1.22441 0.0115422 0)
(1.22206 0.0117872 0)
(1.21962 0.0120347 0)
(1.2171 0.0122856 0)
(1.21451 0.0125402 0)
(1.21182 0.0127991 0)
(1.20904 0.0130626 0)
(1.20618 0.013331 0)
(1.20322 0.0136044 0)
(1.20016 0.0138828 0)
(1.19699 0.014166 0)
(1.19373 0.0144536 0)
(1.26466 -0.00115546 0)
(1.26467 -0.000642433 0)
(1.26465 -0.000136648 0)
(1.26457 0.000361924 0)
(1.26443 0.000852697 0)
(1.26424 0.0013358 0)
(1.26398 0.0018111 0)
(1.26366 0.0022784 0)
(1.26328 0.00273744 0)
(1.26284 0.00318792 0)
(1.26234 0.00362955 0)
(1.26177 0.00406198 0)
(1.26113 0.00448492 0)
(1.26043 0.00489807 0)
(1.25967 0.0053012 0)
(1.25884 0.00569412 0)
(1.25795 0.00607669 0)
(1.25699 0.00644886 0)
(1.25596 0.00681064 0)
(1.25487 0.00716211 0)
(1.25372 0.00750344 0)
(1.2525 0.00783487 0)
(1.25121 0.00815674 0)
(1.24987 0.00846943 0)
(1.24845 0.00877342 0)
(1.24698 0.00906924 0)
(1.24543 0.00935751 0)
(1.24383 0.00963887 0)
(1.24215 0.00991404 0)
(1.24042 0.0101838 0)
(1.23861 0.0104489 0)
(1.23674 0.0107102 0)
(1.2348 0.0109685 0)
(1.2328 0.0112247 0)
(1.23072 0.0114797 0)
(1.22857 0.0117342 0)
(1.22635 0.0119892 0)
(1.22406 0.0122455 0)
(1.22169 0.0125038 0)
(1.21924 0.0127649 0)
(1.21671 0.0130294 0)
(1.2141 0.0132979 0)
(1.2114 0.013571 0)
(1.20861 0.0138489 0)
(1.20573 0.0141319 0)
(1.20276 0.0144203 0)
(1.19969 0.0147139 0)
(1.19651 0.0150125 0)
(1.19324 0.0153157 0)
(1.26491 -0.00118363 0)
(1.2649 -0.000642782 0)
(1.26487 -0.000109247 0)
(1.26478 0.000416748 0)
(1.26463 0.000934658 0)
(1.26442 0.00144463 0)
(1.26415 0.00194649 0)
(1.26382 0.00244001 0)
(1.26343 0.0029249 0)