/*--------------------------------*- C++ -*----------------------------------*\
  =========                 |
  \\      /  F ield         | OpenFOAM: The Open Source CFD Toolbox
   \\    /   O peration     | Website:  https://openfoam.org
    \\  /    A nd           | Version:  7
     \\/     M anipulation  |
\*---------------------------------------------------------------------------*/
FoamFile
{
    version     2.0;
    format      ascii;
    class       volVectorField;
    location    "30";
    object      U;
}
// * * * * * * * * * * * * * * * * * * * * * * * * * * * * * * * * * * * * * //

dimensions      [0 1 -1 0 0 0 0];

internalField   nonuniform List<vector> 
656
(
(0.0940411 -0.00517678 -3.26296e-20)
(0.128763 -0.0058978 -4.6291e-21)
(0.164341 -0.00635834 -9.63106e-21)
(0.204121 -0.00682443 7.19829e-21)
(0.0984954 -0.0154775 3.54524e-20)
(0.134135 -0.0176138 -4.1614e-20)
(0.170484 -0.0189791 -8.0929e-22)
(0.211506 -0.0203226 -1.33775e-20)
(0.107374 -0.0256198 1.66798e-20)
(0.144829 -0.0290914 1.04056e-19)
(0.182703 -0.0313128 4.52418e-20)
(0.226171 -0.0333706 1.10367e-20)
(0.120616 -0.0354977 1.44782e-19)
(0.160748 -0.0401728 1.18685e-20)
(0.20086 -0.0431723 -2.0109e-20)
(0.247904 -0.0456757 1.00418e-19)
(0.138131 -0.0450044 -2.41044e-19)
(0.181744 -0.0507018 9.82272e-20)
(0.224752 -0.0543757 7.16486e-20)
(0.276388 -0.0569574 -6.78102e-20)
(0.1598 -0.0540318 -1.22179e-19)
(0.207624 -0.0605248 -2.56878e-19)
(0.254112 -0.0647489 3.00627e-20)
(0.311201 -0.0669529 1.38963e-19)
(0.185473 -0.0624708 1.11336e-19)
(0.238142 -0.0694917 9.0352e-21)
(0.288606 -0.0741263 -3.48545e-19)
(0.351812 -0.0754239 -2.20757e-19)
(0.214969 -0.0702108 4.94997e-19)
(0.273006 -0.0774571 -2.40389e-19)
(0.32784 -0.0823517 1.70608e-19)
(0.397594 -0.0821632 1.83053e-20)
(0.311879 -0.0842821 2.98548e-19)
(0.371364 -0.0892796 -1.15344e-19)
(0.447823 -0.0870016 1.83611e-19)
(0.354376 -0.0898368 3.88275e-19)
(0.418673 -0.0947749 1.12435e-19)
(0.501691 -0.0898138 -1.93933e-19)
(0.400072 -0.0940025 -5.86215e-19)
(0.469216 -0.0987145 3.05942e-20)
(0.558321 -0.0905239 4.36243e-20)
(0.448499 -0.0966755 3.14526e-19)
(0.5224 -0.100988 -1.80013e-19)
(0.616785 -0.0891087 -1.67619e-19)
(0.499159 -0.0977711 3.3392e-20)
(0.577597 -0.101499 3.47863e-19)
(0.676126 -0.0855991 2.03749e-19)
(0.551522 -0.0972275 -2.98389e-19)
(0.634158 -0.100169 -2.54822e-19)
(0.735382 -0.0800818 -3.81785e-20)
(0.605041 -0.0950099 2.76384e-19)
(0.691421 -0.0969378 4.8259e-19)
(0.793612 -0.0727057 7.73741e-20)
(0.748724 -0.0917712 -3.02661e-19)
(0.849933 -0.0636901 -1.37605e-19)
(0.805413 -0.0846547 -2.50705e-19)
(0.903513 -0.0532814 -8.63011e-20)
(0.86085 -0.075567 5.14141e-19)
(0.953527 -0.0416526 -1.1849e-19)
(0.914469 -0.064475 3.07682e-19)
(0.999268 -0.0291888 5.72136e-19)
(1.04115 -0.017848 -1.83725e-19)
(1.08271 -0.0111313 -4.38341e-20)
(0.0940411 0.00517678 3.26296e-20)
(0.128763 0.0058978 4.6291e-21)
(0.229487 -0.00573052 2.93885e-21)
(0.244813 -0.00525054 -1.56573e-21)
(0.259497 -0.00493252 1.7103e-21)
(0.273898 -0.00468188 -1.4255e-21)
(0.288034 -0.00448379 -2.51945e-21)
(0.302031 -0.00432395 1.92588e-21)
(0.315977 -0.00418898 1.33293e-21)
(0.32992 -0.00407023 -1.56268e-21)
(0.343894 -0.00396162 1.50413e-21)
(0.357913 -0.00385858 -7.13301e-22)
(0.371983 -0.00375788 -1.66114e-21)
(0.386097 -0.00365732 8.71768e-22)
(0.400242 -0.0035555 -8.35759e-22)
(0.414401 -0.00345163 1.54326e-21)
(0.428553 -0.00334542 -6.96163e-23)
(0.442673 -0.00323692 -1.2478e-22)
(0.456739 -0.00312641 -2.1692e-22)
(0.470725 -0.00301432 1.0553e-22)
(0.484608 -0.00290119 -3.57385e-23)
(0.498366 -0.00278759 -4.18729e-22)
(0.511977 -0.00267408 4.61833e-22)
(0.525423 -0.00256123 8.57457e-23)
(0.538686 -0.00244954 -4.60478e-23)
(0.236717 -0.017068 -4.12816e-21)
(0.251608 -0.0156536 1.97897e-21)
(0.265965 -0.0147139 5.35697e-21)
(0.280108 -0.0139712 -5.7858e-22)
(0.294007 -0.0133842 -8.723e-21)
(0.307785 -0.0129106 1.10302e-20)
(0.321527 -0.0125105 -4.51049e-21)
(0.33528 -0.0121583 -5.07343e-21)
(0.349071 -0.0118359 6.7016e-21)
(0.362916 -0.0115296 1.01953e-21)
(0.376815 -0.01123 -4.81868e-21)
(0.390763 -0.0109305 9.06264e-22)
(0.404746 -0.010627 4.31615e-21)
(0.418745 -0.0103172 -2.51698e-21)
(0.432738 -0.0100003 3.1088e-22)
(0.446703 -0.00967643 1.17922e-21)
(0.460615 -0.00934648 -6.61665e-22)
(0.474451 -0.0090118 -3.23986e-21)
(0.488186 -0.00867395 2.47745e-21)
(0.501798 -0.00833466 -1.42244e-21)
(0.515268 -0.00799562 -8.98611e-22)
(0.528575 -0.0076585 1.41502e-21)
(0.541702 -0.00732484 1.65793e-21)
(0.251066 -0.0280359 -1.47473e-20)
(0.265097 -0.0257627 5.4172e-21)
(0.278809 -0.0242444 1.51817e-21)
(0.29244 -0.0230371 -1.63337e-21)
(0.305867 -0.0220833 -1.74522e-20)
(0.31921 -0.0213137 1.70234e-20)
(0.332551 -0.020663 -4.64595e-21)
(0.345925 -0.0200895 -2.3851e-21)
(0.359355 -0.0195634 6.17631e-21)
(0.372852 -0.0190626 -1.20144e-20)
(0.386414 -0.0185715 -4.31748e-22)
(0.400033 -0.0180796 1.16692e-20)
(0.413692 -0.0175802 -9.77582e-21)
(0.427373 -0.01707 7.24031e-21)
(0.441053 -0.0165475 3.03997e-21)
(0.454708 -0.0160132 -6.98928e-21)
(0.468316 -0.0154686 3.77189e-21)
(0.481852 -0.014916 4.1849e-22)
(0.495293 -0.0143581 1.12556e-21)
(0.508617 -0.0137976 -6.90451e-22)
(0.521805 -0.0132375 -5.23241e-22)
(0.534837 -0.0126805 -2.94534e-22)
(0.547696 -0.0121291 -1.4816e-21)
(0.27231 -0.0383944 -3.43026e-20)
(0.285083 -0.0353857 8.38455e-21)
(0.297841 -0.03336 -8.18713e-21)
(0.310715 -0.0317341 6.91236e-21)
(0.323444 -0.0304502 9.83697e-21)
(0.336145 -0.0294143 -1.32438e-20)
(0.348892 -0.0285371 2.07439e-20)
(0.361706 -0.0277622 -7.71281e-21)
(0.374603 -0.0270492 -4.18467e-21)
(0.387586 -0.026368 2.56499e-22)
(0.400649 -0.0256976 1.83406e-21)
(0.413779 -0.0250239 -1.21086e-21)
(0.426959 -0.0243385 -8.29694e-21)
(0.440168 -0.0236366 4.71151e-21)
(0.453383 -0.022917 -3.97055e-21)
(0.466581 -0.0221804 4.24611e-21)
(0.479737 -0.0214292 -1.66501e-21)
(0.49283 -0.0206665 -1.84566e-21)
(0.505835 -0.0198961 5.30736e-21)
(0.518733 -0.019122 -2.90006e-21)
(0.531503 -0.0183482 4.82346e-21)
(0.544127 -0.0175784 -8.16226e-22)
(0.55659 -0.0168162 -1.72712e-21)
(0.300116 -0.0479141 -3.61075e-20)
(0.311271 -0.0443364 2.98809e-20)
(0.322787 -0.0419018 1.53665e-20)
(0.334669 -0.0399221 -2.02294e-20)
(0.346487 -0.0383598 -2.8018e-20)
(0.358351 -0.0370989 1.64131e-20)
(0.370322 -0.0360285 3.3703e-20)
(0.382406 -0.0350798 -1.94416e-20)
(0.394605 -0.0342027 3.96676e-21)
(0.406916 -0.0333604 -9.72758e-21)
(0.419326 -0.0325273 1.09833e-20)
(0.431817 -0.0316866 -1.40651e-20)
(0.444369 -0.0308281 3.08902e-22)
(0.456959 -0.029947 1.95498e-21)
(0.469564 -0.029042 -4.45883e-21)
(0.482161 -0.0281144 5.71577e-21)
(0.494726 -0.0271674 -2.30879e-21)
(0.507237 -0.0262054 2.89592e-21)
(0.519671 -0.0252331 3.00474e-21)
(0.53201 -0.0242557 -3.65302e-21)
(0.544234 -0.0232783 -6.65523e-22)
(0.556325 -0.0223057 -2.28147e-21)
(0.568268 -0.0213424 9.65825e-22)
(0.334045 -0.0563805 2.49329e-20)
(0.34327 -0.0524384 7.72293e-21)
(0.35328 -0.0497193 4.13786e-20)
(0.363957 -0.0474691 -1.66779e-20)
(0.374668 -0.0456948 6.36453e-21)
(0.385515 -0.0442617 -4.60498e-20)
(0.396545 -0.0430404 3.31339e-20)
(0.407741 -0.0419522 7.52361e-21)
(0.419092 -0.0409395 -3.72747e-20)
(0.430583 -0.03996 9.44958e-21)
(0.442195 -0.0389847 1.45203e-20)
(0.453904 -0.037995 -2.28404e-21)
(0.465687 -0.0369802 -1.29919e-20)
(0.477521 -0.0359352 3.07072e-21)
(0.48938 -0.0348595 -6.1342e-21)
(0.501241 -0.0337551 1.41917e-20)
(0.513083 -0.0326263 -7.98639e-21)
(0.524882 -0.0314785 1.85245e-21)
(0.53662 -0.0303177 7.95783e-21)
(0.548276 -0.0291502 2.59025e-21)
(0.559832 -0.0279819 -3.72026e-21)
(0.571273 -0.0268189 3.0018e-21)
(0.582582 -0.0256666 -2.87221e-21)
(0.373554 -0.0635993 -1.98673e-20)
(0.380597 -0.0595284 -5.25914e-20)
(0.388876 -0.056673 3.42638e-20)
(0.398156 -0.0542537 8.54852e-21)
(0.407589 -0.0523481 -1.42256e-20)
(0.41726 -0.0508064 -1.74373e-21)
(0.427201 -0.0494845 -1.72693e-20)
(0.437368 -0.0482974 1.36181e-20)
(0.447733 -0.0471823 1.31848e-20)
(0.45827 -0.0460934 -1.68762e-20)
(0.468951 -0.0449999 9.76493e-21)
(0.479747 -0.0438826 1.54641e-20)
(0.490632 -0.042731 -1.65294e-20)
(0.50158 -0.0415405 1.19841e-20)
(0.512567 -0.0403116 1.33297e-21)
(0.523569 -0.0390475 -4.97758e-21)
(0.534566 -0.0377535 -1.6018e-20)
(0.545536 -0.0364363 2.12981e-20)
(0.55646 -0.0351029 -8.80175e-21)
(0.567319 -0.0337607 4.73909e-21)
(0.578098 -0.0324168 -5.25865e-21)
(0.58878 -0.0310782 -2.10436e-21)
(0.599351 -0.0297511 2.89819e-21)
(0.418002 -0.069403 4.15067e-20)
(0.422683 -0.0654616 -9.34062e-22)
(0.429051 -0.0626385 2.71252e-21)
(0.436778 -0.0601688 -9.70716e-21)
(0.444787 -0.0582259 -3.52448e-20)
(0.453151 -0.0566488 4.18098e-20)
(0.461876 -0.0552833 -8.87555e-21)
(0.470892 -0.0540429 2.32704e-20)
(0.48015 -0.0528626 -8.41755e-22)
(0.489613 -0.0516953 -2.36615e-20)
(0.499243 -0.0505104 1.01007e-20)
(0.509007 -0.0492896 -2.4155e-20)
(0.518876 -0.0480232 2.91101e-20)
(0.528822 -0.0467083 -7.24672e-21)
(0.538823 -0.0453465 -1.10226e-20)
(0.548854 -0.0439422 -3.35475e-21)
(0.558896 -0.0425022 1.66616e-20)
(0.568929 -0.0410343 -9.1003e-21)
(0.578935 -0.0395466 1.20943e-20)
(0.588897 -0.0380477 -1.47765e-20)
(0.5988 -0.0365456 3.03942e-22)
(0.608627 -0.0350482 3.32976e-21)
(0.618367 -0.0335628 8.17702e-21)
(0.466666 -0.0736576 -5.55977e-20)
(0.468883 -0.0701172 6.4544e-20)
(0.473217 -0.0675109 -1.52538e-20)
(0.479273 -0.0651245 -1.35319e-20)
(0.485752 -0.0632498 -1.94086e-20)
(0.492705 -0.0617182 4.94602e-20)
(0.500112 -0.0603716 -1.89676e-20)
(0.507874 -0.0591269 -2.80297e-21)
(0.515922 -0.057921 -9.85866e-21)
(0.524205 -0.0567087 7.37377e-21)
(0.532679 -0.0554616 2.08897e-21)
(0.541306 -0.0541635 7.98748e-21)
(0.550054 -0.052807 4.85413e-21)
(0.558896 -0.0513911 -1.28858e-20)
(0.567809 -0.0499188 -5.46485e-21)
(0.57677 -0.0483965 6.67171e-21)
(0.585762 -0.0468319 2.38574e-21)
(0.594765 -0.0452342 -1.11133e-20)
(0.603762 -0.0436128 2.21174e-21)
(0.612738 -0.041977 -5.21073e-21)
(0.621679 -0.0403361 -5.25904e-21)
(0.63057 -0.0386987 7.10658e-21)
(0.639397 -0.0370728 5.76691e-21)
(0.518748 -0.0762675 5.62302e-20)
(0.518489 -0.0734033 7.6341e-20)
(0.520733 -0.0712095 -5.11615e-20)
(0.52505 -0.0690522 -5.88161e-20)
(0.529931 -0.0673594 4.11447e-20)
(0.535402 -0.0659593 -1.02217e-20)
(0.541416 -0.0646967 -8.20351e-21)
(0.547841 -0.0634986 9.96703e-21)
(0.554592 -0.0623084 1.23127e-21)
(0.561606 -0.0610858 1.47589e-20)
(0.568833 -0.0598072 -1.7334e-20)
(0.576231 -0.0584601 -5.67478e-21)
(0.583769 -0.0570402 2.91445e-20)
(0.591418 -0.0555487 -2.8748e-20)
(0.599157 -0.0539909 4.79843e-21)
(0.606966 -0.0523746 1.6877e-20)
(0.614826 -0.0507091 -1.62564e-21)
(0.62272 -0.0490046 -8.6242e-21)
(0.630633 -0.0472717 2.66538e-21)
(0.63855 -0.0455207 7.04857e-21)
(0.646457 -0.0437618 -3.07167e-21)
(0.654342 -0.0420046 -6.82219e-21)
(0.662191 -0.0402578 7.31055e-21)
(0.5734 -0.0771819 3.63685e-20)
(0.570746 -0.0752636 -1.06312e-19)
(0.570923 -0.0736819 4.67603e-20)
(0.573488 -0.0719071 -3.51429e-20)
(0.576748 -0.070514 7.5712e-20)
(0.580699 -0.0693323 -3.28185e-20)
(0.585268 -0.068219 1.01587e-21)
(0.590295 -0.0671185 -3.861e-20)
(0.59568 -0.0659852 5.27104e-20)
(0.601351 -0.064788 -2.06935e-20)
(0.607255 -0.06351 4.39844e-20)
(0.613349 -0.0621438 -3.59145e-20)
(0.619601 -0.060689 1.45885e-20)
(0.625985 -0.0591496 -1.86663e-20)
(0.63248 -0.057533 -7.41033e-22)
(0.639068 -0.0558487 1.21756e-21)
(0.645731 -0.0541076 2.0256e-20)
(0.652453 -0.0523209 -1.56986e-20)
(0.659222 -0.0505003 -4.15108e-21)
(0.666022 -0.0486571 7.70354e-21)
(0.67284 -0.0468025 -5.77954e-21)
(0.679665 -0.0449468 1.1448e-20)
(0.686483 -0.0430996 -1.06983e-20)
(0.629745 -0.0763991 5.26359e-20)
(0.624876 -0.0756822 -7.79738e-20)
(0.623096 -0.0749086 -2.72003e-20)
(0.623959 -0.0736707 4.67197e-20)
(0.625618 -0.072693 -1.1466e-20)
(0.628045 -0.0718133 1.88489e-20)
(0.63114 -0.0709117 1.61363e-20)
(0.634723 -0.0699575 -2.32355e-20)
(0.638687 -0.068922 4.48596e-20)
(0.642956 -0.067786 -6.6291e-20)
(0.647475 -0.0665417 4.88092e-20)
(0.652204 -0.0651879 -1.62202e-20)
(0.657112 -0.0637284 -3.23491e-21)
(0.662175 -0.0621704 -1.26952e-20)
(0.667373 -0.0605236 1.19359e-20)
(0.672689 -0.0587991 -5.35811e-21)
(0.678107 -0.0570091 1.58513e-20)
(0.683613 -0.0551661 -3.20584e-21)
(0.689193 -0.0532828 -8.01342e-21)
(0.694834 -0.0513715 6.03991e-21)
(0.700523 -0.0494442 -8.72771e-21)
(0.706249 -0.0475122 -7.052e-22)
(0.711999 -0.0455858 4.5421e-21)
(0.686908 -0.0739712 -1.58515e-19)
(0.680113 -0.074689 1.02422e-19)
(0.676576 -0.0749064 6.43063e-20)
(0.675847 -0.0743516 -9.79432e-20)
(0.675967 -0.073895 -2.65176e-20)
(0.676888 -0.0733921 2.08448e-20)
(0.678497 -0.0727586 5.56195e-20)
(0.680605 -0.0719964 -7.27872e-20)
(0.683105 -0.0710981 8.53166e-20)
(0.685926 -0.0700596 -1.54233e-20)
(0.689015 -0.0688833 -5.52903e-20)
(0.692335 -0.0675749 3.04047e-20)
(0.695857 -0.0661428 1.97029e-20)
(0.69956 -0.0645973 -4.54329e-20)
(0.703425 -0.0629502 2.31407e-20)
(0.707436 -0.0612144 5.61136e-21)
(0.711579 -0.0594035 -1.034e-20)
(0.715839 -0.057531 2.09837e-20)
(0.720204 -0.0556107 -1.33808e-20)
(0.724661 -0.0536559 -2.70141e-22)
(0.729197 -0.0516795 -4.26173e-21)
(0.733801 -0.0496936 -4.5192e-21)
(0.738461 -0.0477095 9.58562e-21)
(0.744052 -0.070009 -1.13912e-19)
(0.735732 -0.0723656 -5.08732e-21)
(0.730733 -0.0737303 3.48876e-20)
(0.728574 -0.0739846 3.28216e-20)
(0.727244 -0.0741355 -4.83947e-20)
(0.726692 -0.0740699 -2.38086e-20)
(0.726808 -0.0737527 4.21408e-20)
(0.727418 -0.0732243 1.45614e-20)
(0.728424 -0.0725018 4.87391e-22)
(0.729765 -0.0715977 9.62558e-21)
(0.731393 -0.0705252 -4.49209e-20)
(0.733276 -0.0692969 -7.2214e-21)
(0.735389 -0.0679258 -1.20299e-20)
(0.737711 -0.0664252 1.96966e-20)
(0.740226 -0.0648091 6.55125e-21)
(0.742918 -0.063092 1.0655e-20)
(0.745772 -0.0612887 -9.78959e-22)
(0.748776 -0.0594141 -1.27427e-20)
(0.751916 -0.0574829 1.29621e-20)
(0.75518 -0.0555094 2.087e-20)
(0.758555 -0.0535075 -2.44816e-20)
(0.76203 -0.0514902 8.60008e-21)
(0.765592 -0.0494697 1.52637e-21)
(0.769232 -0.0474573 -3.57512e-22)
(0.800425 -0.0646955 6.58714e-20)
(0.791111 -0.0688519 -1.26341e-19)
(0.785019 -0.0714718 9.01664e-20)
(0.78162 -0.0726225 -1.4315e-19)
(0.778931 -0.0734372 9.07151e-20)
(0.776934 -0.0738515 -4.42363e-20)
(0.775553 -0.0738903 1.13559e-20)
(0.774645 -0.0736349 3.10123e-20)
(0.774136 -0.0731273 -2.24254e-20)
(0.773977 -0.0723963 4.12537e-20)
(0.77413 -0.0714656 -7.34824e-20)
(0.774567 -0.0703543 1.68315e-20)
(0.775265 -0.0690796 3.29184e-20)
(0.776206 -0.0676577 2.70539e-20)
(0.777372 -0.0661048 -3.29272e-20)
(0.778749 -0.0644369 -1.80226e-20)
(0.780321 -0.0626702 2.19308e-20)
(0.782075 -0.0608208 -2.38622e-20)
(0.783998 -0.0589046 3.36245e-20)
(0.786076 -0.056937 -1.43368e-20)
(0.788298 -0.0549329 9.64921e-21)
(0.79065 -0.0529063 -2.74349e-20)
(0.793121 -0.0508704 1.38735e-20)
(0.795701 -0.0488373 -8.3176e-21)
(0.855437 -0.0582822 9.0283e-20)
(0.84579 -0.064328 -1.16175e-19)
(0.839009 -0.0682333 7.92844e-20)
(0.834538 -0.0703141 -1.18576e-19)
(0.830548 -0.0718145 5.06042e-20)
(0.827111 -0.0727347 7.50167e-20)
(0.824218 -0.0731646 5.0569e-21)
(0.821775 -0.0732224 -2.75378e-20)
(0.81974 -0.0729718 1.38485e-20)
(0.818078 -0.0724563 -2.06982e-20)
(0.81676 -0.0717086 -2.61146e-20)
(0.815762 -0.0707537 -1.43371e-20)
(0.815061 -0.0696126 3.22618e-20)
(0.814639 -0.0683044 -2.84787e-20)
(0.814477 -0.0668475 7.28195e-21)
(0.814561 -0.0652596 2.24993e-20)
(0.814874 -0.0635585 -2.67171e-20)
(0.815401 -0.0617616 -6.19466e-21)
(0.81613 -0.059886 1.12158e-20)
(0.817046 -0.0579484 -1.87469e-21)
(0.818136 -0.0559647 2.38636e-20)
(0.819387 -0.0539503 -2.38487e-20)
(0.820788 -0.0519191 1.21798e-20)
(0.822326 -0.0498845 1.05064e-20)
(0.908773 -0.0510313 -9.01369e-20)
(0.899557 -0.0589806 -8.70568e-20)
(0.89242 -0.0641185 6.48821e-20)
(0.886939 -0.0671092 -3.39351e-20)
(0.881633 -0.0692871 1.50045e-19)
(0.876723 -0.0707295 -5.54989e-20)
(0.87229 -0.0715854 9.53326e-21)
(0.868304 -0.0719995 8.39604e-21)
(0.864747 -0.072052 -2.20975e-20)
(0.8616 -0.0717976 3.25978e-20)
(0.858837 -0.0712762 5.96628e-22)
(0.856435 -0.0705181 -8.7659e-20)
(0.854371 -0.0695482 6.39931e-20)
(0.852624 -0.0683886 -2.80525e-20)
(0.851175 -0.06706 4.18518e-20)
(0.850006 -0.0655822 -5.35406e-20)
(0.8491 -0.0639746 3.57664e-20)
(0.848441 -0.0622561 -9.01117e-21)
(0.848014 -0.0604455 -1.41751e-20)
(0.847804 -0.0585607 1.20014e-20)
(0.847798 -0.056619 -1.61301e-20)
(0.847983 -0.0546368 9.62813e-21)
(0.848346 -0.0526295 2.43698e-21)
(0.848875 -0.0506114 -2.77734e-21)
(0.960587 -0.0433865 -3.81787e-20)
(0.952501 -0.0531693 8.16074e-21)
(0.945074 -0.0593244 -2.06557e-20)
(0.938448 -0.0631181 -9.6821e-21)
(0.93171 -0.0659312 8.57188e-20)
(0.925258 -0.0679048 -6.11985e-20)
(0.919262 -0.0692228 3.46582e-20)
(0.913738 -0.0700388 2.66985e-20)
(0.908689 -0.0704414 -7.35368e-20)
(0.904099 -0.070493 4.21375e-21)
(0.899941 -0.0702394 -2.03727e-20)
(0.896191 -0.0697161 2.86634e-21)
(0.892821 -0.0689519 -4.56831e-21)
(0.889808 -0.0679724 1.90659e-20)
(0.887129 -0.0668009 1.02493e-20)
(0.884765 -0.0654594 -6.64981e-21)
(0.882695 -0.0639696 1.25643e-20)
(0.880903 -0.0623522 -7.4491e-21)
(0.879373 -0.0606275 9.9993e-21)
(0.878088 -0.058815 1.25679e-20)
(0.877035 -0.0569335 -2.60742e-20)
(0.876199 -0.0550008 2.32113e-20)
(0.875568 -0.0530335 -5.78253e-21)
(0.875129 -0.051047 1.17524e-20)
(1.01187 -0.036842 5.74802e-20)
(1.00506 -0.0474143 -9.18566e-20)
(0.996827 -0.0538446 6.36812e-20)
(0.988631 -0.0582117 -5.88127e-20)
(0.980253 -0.0616222 9.64212e-20)
(0.972186 -0.064175 -2.36217e-20)
(0.964627 -0.0660292 -5.57213e-20)
(0.957608 -0.0673225 2.49286e-21)
(0.951129 -0.0681442 1.73646e-20)
(0.945167 -0.0685622 2.96137e-21)
(0.939693 -0.068629 -6.17876e-20)
(0.934673 -0.0683858 3.03615e-20)
(0.930075 -0.067867 -6.59766e-21)
(0.925873 -0.0671021 -1.41584e-20)
(0.922039 -0.0661182 3.5156e-20)
(0.918551 -0.0649404 -3.00931e-22)
(0.915387 -0.0635927 9.65614e-21)
(0.91253 -0.0620982 1.16621e-20)
(0.90996 -0.060479 -2.34187e-20)
(0.907662 -0.0587568 -8.99535e-21)
(0.905619 -0.0569518 6.41845e-21)
(0.903819 -0.0550834 1.26091e-20)
(0.902247 -0.0531698 1.05257e-21)
(0.90089 -0.0512278 1.20456e-21)
(1.06559 -0.032113 -1.82185e-19)
(1.0582 -0.0401569 1.54845e-20)
(1.0474 -0.0462516 1.03843e-20)
(1.03687 -0.0512911 4.08134e-20)
(1.02663 -0.0554839 7.58685e-20)
(1.01693 -0.0588216 -1.71471e-20)
(1.00787 -0.0614005 -3.60964e-20)
(0.999453 -0.0633344 6.41055e-20)
(0.991653 -0.0647143 -1.91383e-20)
(0.984431 -0.0656172 1.71721e-20)
(0.977747 -0.066105 -3.07924e-20)
(0.97156 -0.0662285 2.73579e-20)
(0.965834 -0.0660296 -7.88729e-20)
(0.960537 -0.0655444 4.62953e-21)
(0.955638 -0.0648053 3.49232e-20)
(0.951113 -0.0638415 1.35155e-21)
(0.946938 -0.0626806 -1.28128e-20)
(0.943092 -0.0613489 2.08839e-20)
(0.939558 -0.0598713 -2.41604e-20)
(0.936317 -0.0582715 -1.11871e-20)
(0.933353 -0.0565721 1.5281e-20)
(0.930652 -0.0547944 -8.95373e-21)
(0.928201 -0.0529585 7.65602e-21)
(0.925985 -0.0510826 7.27143e-21)
(1.11042 -0.0231747 0)
(1.09611 -0.0323719 0)
(1.08149 -0.0394475 0)
(1.06905 -0.0453223 0)
(1.05758 -0.0501386 0)
(1.04689 -0.0540411 0)
(1.03697 -0.0571357 0)
(1.02776 -0.0595317 0)
(1.0192 -0.0613241 0)
(1.01125 -0.0625938 0)
(1.00386 -0.0634078 0)
(0.996989 -0.0638216 0)
(0.990598 -0.0638819 0)
(0.984651 -0.0636287 0)
(0.979117 -0.0630976 0)
(0.973969 -0.0623207 0)
(0.969183 -0.0613279 0)
(0.964739 -0.0601475 0)
(0.960616 -0.0588059 0)
(0.956796 -0.0573286 0)
(0.953265 -0.0557394 0)
(0.950005 -0.0540608 0)
(0.947005 -0.0523139 0)
(0.94425 -0.0505181 0)
(1.13552 -0.0151282 0)
(1.12122 -0.0266559 0)
(1.10507 -0.0348362 0)
(1.0916 -0.041322 0)
(1.07941 -0.0465601 0)
(1.06813 -0.0508125 0)
(1.05768 -0.0542181 0)
(1.04797 -0.0568931 0)
(1.03894 -0.0589367 0)
(1.03053 -0.0604323 0)
(1.02269 -0.0614495 0)
(1.01539 -0.0620463 0)
(1.00856 -0.0622719 0)
(1.00219 -0.0621683 0)
(0.996241 -0.0617729 0)
(0.990682 -0.0611197 0)
(0.98549 -0.0602398 0)
(0.980644 -0.0591624 0)
(0.976124 -0.0579152 0)
(0.971913 -0.0565243 0)
(0.967994 -0.0550143 0)
(0.964352 -0.0534083 0)
(0.960974 -0.051728 0)
(0.957845 -0.0499934 0)
(1.15683 -0.00781998 0)
(1.14411 -0.0206482 0)
(1.12773 -0.0298007 0)
(1.11372 -0.0369532 0)
(1.10104 -0.0426797 0)
(1.0893 -0.047322 0)
(1.07842 -0.051064 0)
(1.06829 -0.0540365 0)
(1.05884 -0.056346 0)
(1.05002 -0.0580802 0)
(1.04178 -0.0593118 0)
(1.03406 -0.0601017 0)
(1.02683 -0.0605016 0)
(1.02006 -0.0605559 0)
(1.01371 -0.0603041 0)
(1.00776 -0.0597817 0)
(1.00217 -0.0590212 0)
(0.996936 -0.0580533 0)
(0.992029 -0.0569064 0)
(0.987435 -0.0556075 0)
(0.983135 -0.0541822 0)
(0.979116 -0.052654 0)
(0.975364 -0.0510454 0)
(0.971865 -0.0493767 0)
(1.17564 -0.00180667 0)
(1.16475 -0.0146987 0)
(1.14909 -0.0244289 0)
(1.13507 -0.0321848 0)
(1.12219 -0.0384224 0)
(1.11018 -0.0434871 0)
(1.09899 -0.0475945 0)
(1.08854 -0.0508897 0)
(1.07876 -0.0534872 0)
(1.06959 -0.0554795 0)
(1.06099 -0.0569432 0)
(1.05291 -0.0579423 0)
(1.04532 -0.0585313 0)
(1.03817 -0.0587571 0)
(1.03145 -0.0586612 0)
(1.02512 -0.0582808 0)
(1.01917 -0.0576503 0)
(1.01356 -0.0568013 0)
(1.00828 -0.0557635 0)
(1.00331 -0.0545649 0)
(0.998646 -0.0532316 0)
(0.994259 -0.0517883 0)
(0.990141 -0.0502578 0)
(0.986279 -0.0486611 0)
(1.19254 0.00329781 0)
(1.18331 -0.00905992 0)
(1.16891 -0.0190065 0)
(1.15533 -0.0272043 0)
(1.14258 -0.033903 0)
(1.13053 -0.0393815 0)
(1.1192 -0.0438588 0)
(1.10855 -0.0474858 0)
(1.09853 -0.0503819 0)
(1.08909 -0.0526437 0)
(1.0802 -0.0543511 0)
(1.07182 -0.0555708 0)
(1.0639 -0.0563599 0)
(1.05643 -0.0567678 0)
(1.04938 -0.0568378 0)
(1.04271 -0.0566092 0)
(1.0364 -0.0561176 0)
(1.03045 -0.0553962 0)
(1.02482 -0.0544757 0)
(1.0195 -0.053385 0)
(1.01448 -0.0521513 0)
(1.17468 0.00557796 9.27598e-21)
(1.14403 -0.00179707 -3.43627e-19)
(1.19052 0.00962668 5.15238e-20)
(1.16206 0.0014417 2.55574e-19)
(1.20463 0.0130337 -1.02869e-20)
(1.1782 0.00413143 -1.77925e-19)
(1.19333 0.00711052 1.6231e-19)
)
;

boundaryField
{
    inlet
    {
        type            uniformFixedValue;
        uniformValue    constant (1 0 0);
        value           nonuniform 0();
    }
    outlet
    {
        type            pressureInletOutletVelocity;
        value           nonuniform 0();
    }
    cylinder
    {
        type            fixedValue;
        value           nonuniform 0();
    }
    top
    {
        type            symmetryPlane;
    }
    bottom
    {
        type            symmetryPlane;
    }
    defaultFaces
    {
        type            empty;
    }
    procBoundary10to5
    {
        type            processor;
        value           uniform (0.0632234 0.00436963 1.07181e-20);
    }
    procBoundary10to6
    {
        type            processor;
        value           nonuniform List<vector> 
28
(
(0.164341 0.00635834 -1.28239e-20)
(0.204121 0.00682442 1.17347e-20)
(0.0984954 0.0154775 3.31218e-20)
(0.134135 0.0176138 -3.8089e-20)
(0.164341 0.00635834 -1.28239e-20)
(0.229487 0.00573052 -3.22367e-21)
(0.244813 0.00525054 1.06839e-21)
(0.259497 0.00493251 -2.05858e-21)
(0.273898 0.00468188 1.13395e-21)
(0.288034 0.00448379 2.38775e-21)
(0.302031 0.00432395 -1.82591e-21)
(0.315977 0.00418897 -1.44646e-21)
(0.32992 0.00407023 1.7794e-21)
(0.343894 0.00396162 -1.46423e-21)
(0.357913 0.00385858 6.55781e-22)
(0.371983 0.00375788 1.71778e-21)
(0.386097 0.00365732 -8.76354e-22)
(0.400242 0.0035555 6.67053e-22)
(0.414401 0.00345163 -1.41324e-21)
(0.428553 0.00334542 -2.55714e-22)
(0.442673 0.00323692 1.30091e-23)
(0.456739 0.00312641 3.01425e-23)
(0.470725 0.00301432 1.69286e-22)
(0.484608 0.0029012 2.50255e-24)
(0.498366 0.00278759 3.97692e-22)
(0.511977 0.00267409 -3.15121e-22)
(0.525423 0.00256123 -2.02905e-22)
(0.538686 0.00244954 1.63821e-22)
)
;
    }
    procBoundary10to9
    {
        type            processor;
        value           nonuniform List<vector> 
29
(
(0.0632234 -0.00436963 6.00367e-21)
(0.0668145 -0.0130781 -9.94225e-21)
(0.0739803 -0.0216946 1.27306e-19)
(0.0846874 -0.0301563 -7.28444e-21)
(0.0988863 -0.0383977 -3.30791e-19)
(0.11651 -0.0463499 3.15726e-19)
(0.137475 -0.0539398 2.64217e-20)
(0.161681 -0.0610894 -4.25697e-19)
(0.24808 -0.07714 4.02797e-19)
(0.24808 -0.07714 4.02797e-19)
(0.284565 -0.0831461 4.27101e-20)
(0.324154 -0.088117 1.38181e-20)
(0.366549 -0.0919428 3.06659e-19)
(0.411419 -0.0945177 -3.83552e-19)
(0.458405 -0.0957427 2.09186e-19)
(0.507121 -0.0955297 -5.78276e-19)
(0.659156 -0.0911148 -3.38313e-20)
(0.659156 -0.0911148 -3.38313e-20)
(0.71331 -0.0855723 3.41954e-19)
(0.766962 -0.0784487 -1.9338e-19)
(0.819614 -0.0698464 5.83729e-20)
(0.965849 -0.0515123 2.63862e-19)
(0.965849 -0.0515123 2.63862e-19)
(1.01443 -0.0373512 7.979e-19)
(1.12212 -0.00720534 -3.14631e-19)
(1.12212 -0.00720534 -3.14631e-19)
(1.19868 0.0135703 1.95473e-19)
(1.21127 0.0179489 5.4748e-20)
(1.22269 0.0217325 -8.22836e-20)
)
;
    }
    procBoundary10to11
    {
        type            processor;
        value           nonuniform List<vector> 
25
(
(0.55175 -0.00233948 3.14376e-22)
(0.554635 -0.00699604 2.2303e-21)
(0.560368 -0.0115856 -2.16178e-21)
(0.568876 -0.0160649 -1.6875e-21)
(0.580049 -0.0203926 2.06508e-22)
(0.593747 -0.0245298 2.49656e-21)
(0.609799 -0.0284413 -3.02615e-21)
(0.628006 -0.0320957 3.9169e-21)
(0.648151 -0.0354659 7.10991e-21)
(0.669994 -0.0385297 2.13188e-21)
(0.693285 -0.0412699 -3.93716e-21)
(0.717764 -0.0436747 -4.46971e-21)
(0.743167 -0.0457376 -3.69988e-21)
(0.743167 -0.0457376 -3.69988e-21)
(0.772937 -0.0454631 5.17843e-21)
(0.798377 -0.0468181 -7.1074e-21)
(0.823992 -0.0478584 8.99017e-21)
(0.849558 -0.0485954 -5.70336e-21)
(0.87487 -0.0490556 1.05716e-21)
(0.899738 -0.0492726 1.32633e-20)
(0.923993 -0.0491839 1.19164e-20)
(0.941728 -0.0486913 0)
(0.954955 -0.0482226 0)
(0.968608 -0.0476668 0)
(0.982661 -0.0470176 0)
)
;
    }
    procBoundary10to14
    {
        type            processor;
        value           nonuniform List<vector> 
29
(
(1.00973 -0.0507997 0)
(1.00526 -0.0493538 0)
(1.00105 -0.0478354 0)
(1.20785 0.00778249 0)
(1.20754 0.0104659 2.89503e-19)
(1.19995 -0.00382621 0)
(1.18707 -0.013726 0)
(1.17429 -0.0221731 0)
(1.16196 -0.0292342 0)
(1.15011 -0.0350825 0)
(1.13883 -0.0399106 0)
(1.12812 -0.0438625 0)
(1.11798 -0.047057 0)
(1.10837 -0.0495918 0)
(1.09927 -0.0515482 0)
(1.09065 -0.0529953 0)
(1.08248 -0.053992 0)
(1.07473 -0.0545897 0)
(1.06738 -0.0548336 0)
(1.06041 -0.0547646 0)
(1.0538 -0.0544198 0)
(1.04752 -0.0538334 0)
(1.04156 -0.0530375 0)
(1.03592 -0.0520619 0)
(1.00973 -0.0507997 0)
(1.03056 -0.0509344 0)
(1.21742 0.0163379 -4.11658e-20)
(1.21742 0.0163379 -4.11658e-20)
(1.20754 0.0104659 2.89503e-19)
)
;
    }
}


// ************************************************************************* //
