/*--------------------------------*- C++ -*----------------------------------*\
  =========                 |
  \\      /  F ield         | OpenFOAM: The Open Source CFD Toolbox
   \\    /   O peration     | Website:  https://openfoam.org
    \\  /    A nd           | Version:  7
     \\/     M anipulation  |
\*---------------------------------------------------------------------------*/
FoamFile
{
    version     2.0;
    format      ascii;
    class       volScalarField;
    location    "5";
    object      p;
}
// * * * * * * * * * * * * * * * * * * * * * * * * * * * * * * * * * * * * * //

dimensions      [0 2 -2 0 0 0 0];

internalField   nonuniform List<scalar> 
2625
(
0.093036
0.0956161
0.0982263
0.100504
0.0983309
0.103386
0.105359
0.0997318
0.103761
0.108512
0.110178
0.105535
0.109167
0.113601
0.11496
0.107006
0.111316
0.114545
0.11865
0.119701
0.113255
0.117071
0.119893
0.123655
0.124401
0.119483
0.122798
0.125209
0.128615
0.129059
0.122382
0.125684
0.128493
0.130488
0.133527
0.133672
0.129146
0.131856
0.134152
0.135728
0.138387
0.13824
0.146067
0.132883
0.135881
0.137995
0.139773
0.140928
0.143196
0.142763
0.150321
0.140294
0.142582
0.144096
0.145352
0.146083
0.147949
0.147238
0.154485
0.147671
0.149246
0.150157
0.150886
0.151192
0.152645
0.151668
0.158556
0.153153
0.15501
0.155868
0.156174
0.156373
0.156252
0.157283
0.156049
0.162534
0.161279
0.162305
0.162444
0.162142
0.161809
0.161261
0.16186
0.160384
0.166418
0.169357
0.16955
0.16897
0.168059
0.167191
0.166216
0.166376
0.164673
0.170207
0.177074
0.177383
0.176742
0.175441
0.173921
0.172517
0.171116
0.170827
0.168916
0.173898
0.186029
0.185351
0.183875
0.181853
0.179724
0.177784
0.175957
0.175213
0.173115
0.17749
0.19492
0.193253
0.190945
0.188202
0.185464
0.182989
0.180737
0.179533
0.17727
0.180979
0.203739
0.201086
0.197945
0.194484
0.191139
0.188129
0.185454
0.183785
0.181386
0.184375
0.21467
0.212479
0.208842
0.204872
0.200695
0.196744
0.193201
0.190105
0.187967
0.185481
0.187699
0.224451
0.221133
0.216516
0.21172
0.20683
0.202277
0.198203
0.194687
0.192082
0.189578
0.190888
0.234136
0.229696
0.224103
0.218485
0.212886
0.207733
0.203132
0.199196
0.19613
0.193648
0.193587
0.243716
0.238158
0.231595
0.225161
0.218858
0.213109
0.207984
0.20363
0.200112
0.197569
0.195454
0.253183
0.246515
0.238988
0.231744
0.224743
0.218403
0.212758
0.207986
0.204021
0.20143
0.197946
0.270192
0.262528
0.254758
0.246276
0.238229
0.230535
0.223609
0.217451
0.212261
0.207856
0.205156
0.200818
0.280731
0.271744
0.262882
0.253454
0.244611
0.236233
0.228726
0.222058
0.216452
0.211618
0.208743
0.203731
0.29112
0.280822
0.270878
0.260515
0.250886
0.24183
0.233749
0.226579
0.220557
0.215306
0.212209
0.206624
0.30135
0.289755
0.278742
0.267453
0.257048
0.247324
0.238676
0.23101
0.224575
0.218918
0.215566
0.209502
0.311411
0.298533
0.286465
0.274265
0.263094
0.252711
0.243503
0.235349
0.228504
0.222453
0.218819
0.212358
0.321294
0.307151
0.294042
0.280943
0.269018
0.257987
0.248227
0.239593
0.232341
0.225908
0.221973
0.215181
0.344151
0.330989
0.315599
0.301466
0.287483
0.274817
0.263148
0.252846
0.24374
0.236085
0.229282
0.225031
0.21796
0.35503
0.340486
0.32387
0.308731
0.293879
0.280485
0.26819
0.257356
0.247788
0.239735
0.232574
0.227997
0.220692
0.365679
0.349778
0.331957
0.31583
0.300127
0.286018
0.27311
0.261754
0.251733
0.243289
0.235781
0.230872
0.223368
0.376088
0.358854
0.339852
0.322757
0.30622
0.291413
0.277904
0.266037
0.255573
0.246746
0.238902
0.233659
0.225986
0.386246
0.367705
0.347549
0.329507
0.312154
0.296664
0.282569
0.270203
0.259307
0.250103
0.241934
0.236358
0.22854
0.396143
0.376324
0.355039
0.336073
0.317925
0.301768
0.287102
0.274248
0.262931
0.25336
0.244877
0.238971
0.231028
0.405768
0.384702
0.362316
0.342449
0.323526
0.306721
0.291498
0.27817
0.266444
0.256514
0.247729
0.241497
0.233446
0.415111
0.392831
0.369373
0.34863
0.328954
0.311519
0.295755
0.281966
0.269843
0.259564
0.250488
0.243938
0.235791
0.424163
0.400701
0.376203
0.35461
0.334204
0.316157
0.299869
0.285633
0.273126
0.262509
0.253152
0.246292
0.238062
0.462454
0.432914
0.408307
0.382801
0.360385
0.339271
0.320632
0.303837
0.28917
0.27629
0.265346
0.255721
0.248559
0.240255
0.472297
0.441354
0.415639
0.389159
0.365948
0.344151
0.324941
0.307657
0.292573
0.279335
0.268075
0.258191
0.250739
0.242369
0.481772
0.449475
0.422691
0.395272
0.371295
0.34884
0.32908
0.311324
0.295839
0.282257
0.270693
0.260562
0.252831
0.244401
0.49087
0.457268
0.429456
0.401134
0.37642
0.353333
0.333046
0.314838
0.298967
0.285054
0.273199
0.262832
0.254833
0.246351
0.499579
0.464726
0.435927
0.40674
0.38132
0.357628
0.336834
0.318193
0.301954
0.287725
0.275591
0.265
0.256746
0.248215
0.507889
0.471839
0.442097
0.412083
0.385989
0.361719
0.340443
0.321389
0.304798
0.290268
0.277868
0.267064
0.258568
0.249993
0.515792
0.4786
0.44796
0.417159
0.390424
0.365604
0.343869
0.324422
0.307497
0.292681
0.280028
0.269023
0.260297
0.251682
0.523278
0.485002
0.45351
0.421962
0.39462
0.369279
0.347109
0.32729
0.310048
0.294961
0.28207
0.270874
0.261933
0.253281
0.530339
0.491039
0.458741
0.426489
0.398573
0.372741
0.35016
0.32999
0.31245
0.297108
0.283992
0.272618
0.263474
0.254788
0.536966
0.496703
0.463649
0.430735
0.402279
0.375986
0.35302
0.332521
0.3147
0.29912
0.285793
0.274252
0.264919
0.256203
0.543153
0.501989
0.468227
0.434695
0.405736
0.379012
0.355686
0.33488
0.316798
0.300995
0.287471
0.275775
0.266268
0.257523
0.548891
0.50689
0.472472
0.438366
0.40894
0.381816
0.358157
0.337066
0.318741
0.302731
0.289026
0.277186
0.267517
0.258748
0.554175
0.511403
0.476379
0.441743
0.411888
0.384395
0.360429
0.339075
0.320528
0.304328
0.290455
0.278484
0.268668
0.259875
0.558998
0.51552
0.479944
0.444825
0.414576
0.386747
0.362501
0.340908
0.322157
0.305783
0.291759
0.279668
0.269717
0.260904
0.563354
0.519239
0.483162
0.447607
0.417003
0.388871
0.364371
0.342562
0.323627
0.307097
0.292935
0.280736
0.270665
0.261834
0.56724
0.522555
0.486032
0.450087
0.419167
0.390763
0.366037
0.344035
0.324937
0.308267
0.293983
0.281688
0.271511
0.262663
0.570649
0.525465
0.48855
0.452263
0.421064
0.392423
0.367499
0.345328
0.326085
0.309294
0.294902
0.282523
0.272252
0.263391
0.612842
0.573579
0.527965
0.490712
0.454131
0.422694
0.393848
0.368754
0.346438
0.327072
0.310175
0.295691
0.28324
0.27289
0.264016
0.615671
0.576026
0.530052
0.492518
0.455692
0.424055
0.395038
0.369802
0.347364
0.327895
0.31091
0.29635
0.283839
0.273422
0.264538
0.617939
0.577987
0.531725
0.493965
0.456942
0.425145
0.395992
0.370641
0.348106
0.328554
0.3115
0.296877
0.284318
0.273848
0.264957
0.619642
0.57946
0.532981
0.495052
0.45788
0.425963
0.396707
0.371271
0.348663
0.329049
0.311942
0.297273
0.284678
0.274169
0.265271
0.620779
0.580442
0.533819
0.495777
0.458507
0.42651
0.397185
0.371692
0.349035
0.32938
0.312237
0.297538
0.284919
0.274383
0.265481
0.534239
0.49614
0.45882
0.426783
0.397424
0.371902
0.34922
0.329545
0.312385
0.29767
0.285039
0.27449
0.265586
0.187279
0.185042
0.182587
0.179386
0.176081
0.172616
0.169061
0.16542
0.161704
0.157916
0.187774
0.185015
0.182492
0.179253
0.175961
0.172507
0.168968
0.165344
0.161646
0.157875
0.187985
0.184606
0.181992
0.178703
0.175426
0.171991
0.168481
0.164886
0.161217
0.187889
0.184067
0.181438
0.178124
0.174867
0.171452
0.167969
0.164401
0.16076
0.187639
0.183518
0.180917
0.177592
0.174357
0.170963
0.167505
0.163963
0.160347
0.187299
0.182962
0.180402
0.17707
0.173859
0.170485
0.167054
0.163536
0.186888
0.1824
0.179883
0.176547
0.17336
0.170008
0.166602
0.163109
0.186422
0.181837
0.179361
0.176026
0.172865
0.169533
0.166153
0.185914
0.181278
0.17884
0.175511
0.172374
0.169064
0.165709
0.185377
0.180726
0.17832
0.175
0.171888
0.1686
0.184819
0.180182
0.177801
0.174495
0.171408
0.168142
0.184246
0.179646
0.177283
0.173996
0.170932
0.183665
0.179119
0.176768
0.173503
0.170461
0.183079
0.1786
0.176256
0.173016
0.182491
0.17809
0.175748
0.172536
0.181905
0.177588
0.175244
0.181322
0.177093
0.174745
0.180744
0.176607
0.180173
0.179608
0.218851
0.218856
0.218754
0.218606
0.21839
0.218121
0.217793
0.217411
0.216974
0.216483
0.215938
0.215337
0.214681
0.213969
0.213201
0.212374
0.211488
0.210541
0.209532
0.208459
0.20732
0.206113
0.204836
0.203484
0.202059
0.200548
0.198976
0.197245
0.195602
0.192014
0.218554
0.218556
0.218442
0.218281
0.21805
0.217764
0.217416
0.217012
0.21655
0.216031
0.215456
0.214824
0.214134
0.213386
0.212579
0.211712
0.210784
0.209792
0.208737
0.207615
0.206426
0.205166
0.203835
0.202426
0.200942
0.199365
0.197722
0.19586
0.194092
0.190284
0.218263
0.218271
0.218156
0.217995
0.21776
0.217469
0.217115
0.216703
0.216233
0.215705
0.21512
0.214477
0.213776
0.213016
0.212197
0.211317
0.210376
0.209372
0.208304
0.20717
0.205968
0.204696
0.203351
0.20193
0.200431
0.198834
0.197166
0.195243
0.193446
0.189837
0.217973
0.217985
0.21787
0.217708
0.217469
0.217172
0.216811
0.216391
0.215911
0.215373
0.214776
0.21412
0.213406
0.212632
0.211798
0.210903
0.209945
0.208925
0.20784
0.206688
0.205469
0.204178
0.202815
0.201374
0.199854
0.198231
0.196536
0.194571
0.192768
0.189305
0.217683
0.217699
0.217581
0.217416
0.217172
0.216869
0.216499
0.216069
0.215578
0.215028
0.214417
0.213747
0.213016
0.212225
0.211374
0.21046
0.209483
0.208443
0.207337
0.206164
0.204923
0.20361
0.202223
0.200758
0.199212
0.197562
0.195839
0.193844
0.192043
0.188684
0.217395
0.217413
0.217293
0.217126
0.216876
0.216565
0.216187
0.215747
0.215245
0.214682
0.214057
0.213372
0.212626
0.211818
0.210949
0.210016
0.209021
0.20796
0.206834
0.20564
0.204377
0.203042
0.201633
0.200144
0.198575
0.196899
0.195154
0.193141
0.191348
0.188084
0.217107
0.217128
0.217006
0.216836
0.216581
0.216263
0.215877
0.215428
0.214914
0.214338
0.213701
0.213001
0.212239
0.211415
0.210528
0.209578
0.208564
0.207484
0.206338
0.205124
0.20384
0.202484
0.201054
0.199543
0.197953
0.196256
0.194492
0.19247
0.190688
0.187512
0.216821
0.216845
0.21672
0.216547
0.216287
0.215963
0.215568
0.215109
0.214585
0.213997
0.213346
0.212632
0.211855
0.211015
0.210111
0.209144
0.208111
0.207013
0.205847
0.204613
0.20331
0.201933
0.200483
0.198952
0.197342
0.195626
0.193847
0.191821
0.19005
0.186954
0.216536
0.216562
0.216435
0.21626
0.215994
0.215664
0.215261
0.214792
0.214257
0.213657
0.212993
0.212265
0.211473
0.210617
0.209697
0.208712
0.207661
0.206545
0.20536
0.204107
0.202784
0.201388
0.199918
0.198368
0.196739
0.195007
0.193216
0.19119
0.189426
0.186403
0.216253
0.216281
0.216152
0.215973
0.215703
0.215366
0.214955
0.214477
0.213931
0.213319
0.212642
0.2119
0.211093
0.210222
0.209285
0.208283
0.207215
0.20608
0.204877
0.203606
0.202263
0.200849
0.19936
0.197792
0.196146
0.194399
0.192597
0.190573
0.188814
0.185857
0.215971
0.216001
0.21587
0.215689
0.215413
0.215069
0.21465
0.214163
0.213607
0.212983
0.212293
0.211538
0.210716
0.209829
0.208877
0.207858
0.206772
0.20562
0.204399
0.203109
0.201748
0.200315
0.198809
0.197223
0.195562
0.193802
0.19199
0.18997
0.188213
0.185316
0.215691
0.215723
0.215589
0.215405
0.215124
0.214775
0.214348
0.213851
0.213284
0.212649
0.211947
0.211178
0.210342
0.20944
0.208471
0.207436
0.206334
0.205164
0.203925
0.202617
0.201239
0.199789
0.198265
0.196663
0.194987
0.193216
0.191395
0.18938
0.18762
0.184779
0.215413
0.215446
0.215311
0.215124
0.214838
0.214482
0.214047
0.213541
0.212964
0.212318
0.211603
0.21082
0.20997
0.209053
0.208069
0.207018
0.205899
0.204712
0.203456
0.202131
0.200736
0.199268
0.197728
0.196111
0.194421
0.19264
0.190811
0.1888
0.187036
0.184246
0.215137
0.215171
0.215034
0.214844
0.214553
0.21419
0.213748
0.213234
0.212646
0.211989
0.211262
0.210466
0.209602
0.20867
0.207671
0.206604
0.205469
0.204265
0.202993
0.201651
0.200239
0.198755
0.197199
0.195568
0.193865
0.192074
0.190238
0.188231
0.18646
0.183718
0.214863
0.214898
0.214759
0.214566
0.21427
0.213901
0.213452
0.212928
0.212331
0.211662
0.210923
0.210114
0.209237
0.208291
0.207276
0.206194
0.205042
0.203823
0.202534
0.201176
0.199748
0.198248
0.196677
0.195032
0.193317
0.191518
0.189675
0.187671
0.185892
0.183194
0.214591
0.214627
0.214486
0.21429
0.213989
0.213615
0.213157
0.212625
0.212018
0.211338
0.210587
0.209766
0.208875
0.207915
0.206886
0.205788
0.204621
0.203386
0.202081
0.200707
0.199263
0.197749
0.196163
0.194505
0.192779
0.190971
0.189121
0.187121
0.185331
0.182675
0.214321
0.214359
0.214215
0.214016
0.213711
0.21333
0.212865
0.212325
0.211708
0.211017
0.210255
0.209421
0.208517
0.207542
0.206499
0.205386
0.204204
0.202954
0.201634
0.200244
0.198785
0.197256
0.195657
0.193987
0.192249
0.190434
0.188577
0.18658
0.184779
0.182161
0.214054
0.214092
0.213947
0.213745
0.213435
0.213048
0.212576
0.212027
0.2114
0.2107
0.209925
0.209079
0.208162
0.207174
0.206117
0.204989
0.203793
0.202527
0.201192
0.199788
0.198314
0.196771
0.195159
0.193477
0.191729
0.189906
0.188043
0.186048
0.184234
0.181653
0.21379
0.213828
0.213681
0.213476
0.213162
0.212769
0.21229
0.211732
0.211096
0.210385
0.2096
0.208741
0.207811
0.20681
0.205739
0.204597
0.203386
0.202106
0.200756
0.199337
0.19785
0.196293
0.194669
0.192976
0.191218
0.189388
0.187518
0.185525
0.183698
0.181152
0.213528
0.213567
0.213418
0.21321
0.212891
0.212492
0.212006
0.21144
0.210795
0.210074
0.209277
0.208407
0.207465
0.206451
0.205366
0.20421
0.202985
0.20169
0.200327
0.198894
0.197393
0.195823
0.194187
0.192483
0.190716
0.188879
0.187002
0.18501
0.18317
0.180656
0.213269
0.213309
0.213157
0.212947
0.246845
0.246796
0.246821
0.246913
0.247058
0.247253
0.247496
0.247784
0.248115
0.248485
0.248893
0.249337
0.249815
0.250326
0.250866
0.251436
0.252034
0.252657
0.253305
0.253977
0.254671
0.255387
0.256122
0.256876
0.257648
0.258437
0.259242
0.260061
0.260894
0.26174
0.246793
0.246745
0.246769
0.24686
0.247005
0.247199
0.247441
0.247729
0.248058
0.248427
0.248834
0.249277
0.249754
0.250263
0.250803
0.251371
0.251967
0.252589
0.253235
0.253905
0.254598
0.255311
0.256044
0.256797
0.257566
0.258353
0.259155
0.259972
0.260803
0.261646
0.246691
0.246641
0.246665
0.246755
0.246898
0.247091
0.247332
0.247617
0.247945
0.248312
0.248717
0.249158
0.249632
0.250139
0.250676
0.251241
0.251834
0.252452
0.253096
0.253762
0.254451
0.25516
0.25589
0.256638
0.257403
0.258186
0.258983
0.259796
0.26062
0.261458
0.246537
0.246486
0.246509
0.246597
0.246739
0.24693
0.247168
0.247451
0.247776
0.248141
0.248542
0.24898
0.24945
0.249953
0.250485
0.251046
0.251635
0.252249
0.252887
0.253548
0.254231
0.254935
0.255658
0.2564
0.257159
0.257935
0.258726
0.259531
0.260348
0.261176
0.246332
0.246281
0.246302
0.246388
0.246527
0.246716
0.246951
0.247231
0.247552
0.247912
0.24831
0.248742
0.249208
0.249706
0.250233
0.250788
0.25137
0.251978
0.252609
0.253263
0.253939
0.254635
0.255351
0.256084
0.256835
0.257601
0.258383
0.259179
0.259985
0.260801
0.246078
0.246025
0.246044
0.246128
0.246264
0.246449
0.246681
0.246956
0.247273
0.247628
0.24802
0.248447
0.248907
0.249398
0.249918
0.250466
0.251041
0.25164
0.252263
0.252909
0.253575
0.254262
0.254967
0.255691
0.25643
0.257186
0.257956
0.25874
0.259533
0.260334
0.245774
0.24572
0.245736
0.245817
0.24595
0.246131
0.246358
0.246629
0.24694
0.24729
0.247675
0.248095
0.248548
0.249031
0.249543
0.250082
0.250648
0.251237
0.25185
0.252485
0.253141
0.253816
0.25451
0.25522
0.255947
0.256689
0.257446
0.258216
0.258992
0.259775
0.245422
0.245367
0.24538
0.245458
0.245586
0.245763
0.245985
0.24625
0.246554
0.246897
0.247276
0.247688
0.248132
0.248606
0.249108
0.249637
0.250192
0.25077
0.251372
0.251994
0.252637
0.253299
0.253978
0.254675
0.255386
0.256113
0.256854
0.257606
0.258364
0.259126
0.245023
0.244966
0.244976
0.24505
0.245174
0.245346
0.245562
0.24582
0.246118
0.246452
0.246822
0.247225
0.24766
0.248123
0.248615
0.249132
0.249675
0.25024
0.250828
0.251437
0.252065
0.252711
0.253375
0.254054
0.254749
0.255458
0.25618
0.256914
0.25765
0.258388
0.244578
0.244519
0.244526
0.244596
0.244715
0.24488
0.24509
0.245341
0.245631
0.245957
0.246317
0.24671
0.247133
0.247585
0.248064
0.248569
0.249097
0.249649
0.250221
0.250814
0.251425
0.252054
0.2527
0.253361
0.254036
0.254725
0.255426
0.256139
0.256851
0.257562
0.244089
0.244027
0.244032
0.244096
0.24421
0.244369
0.244572
0.244814
0.245095
0.245412
0.245762
0.246143
0.246554
0.246993
0.247458
0.247948
0.248462
0.248997
0.249552
0.250127
0.25072
0.25133
0.251956
0.252596
0.25325
0.253916
0.254594
0.255283
0.255969
0.25665
0.243556
0.243493
0.243493
0.243553
0.243661
0.243813
0.244008
0.244242
0.244513
0.244819
0.245157
0.245526
0.245924
0.246349
0.246799
0.247273
0.247769
0.248287
0.248824
0.249379
0.249952
0.25054
0.251144
0.251761
0.252391
0.253033
0.253686
0.254349
0.255006
0.255653
0.242982
0.242917
0.242913
0.242968
0.24307
0.243215
0.243401
0.243625
0.243886
0.24418
0.244506
0.244861
0.245244
0.245654
0.246087
0.246544
0.247022
0.24752
0.248036
0.248571
0.249121
0.249686
0.250266
0.250858
0.251462
0.252076
0.252702
0.253336
0.253962
0.254572
0.242368
0.242301
0.242294
0.242343
0.242438
0.242575
0.242752
0.242966
0.243216
0.243497
0.243809
0.24415
0.244517
0.24491
0.245326
0.245763
0.246221
0.246698
0.247193
0.247704
0.24823
0.24877
0.249323
0.249888
0.250464
0.251049
0.251645
0.252248
0.252839
0.25341
0.241716
0.241647
0.241636
0.24168
0.241768
0.241897
0.242064
0.242267
0.242504
0.242773
0.24307
0.243395
0.243745
0.244119
0.244516
0.244933
0.245369
0.245824
0.246294
0.24678
0.247281
0.247794
0.248319
0.248854
0.249399
0.249953
0.250516
0.251086
0.251641
0.252168
0.241028
0.240958
0.240943
0.240981
0.241061
0.241181
0.241338
0.24153
0.241754
0.242008
0.24229
0.242598
0.24293
0.243285
0.24366
0.244055
0.244469
0.244898
0.245343
0.245803
0.246275
0.246759
0.247253
0.247757
0.248269
0.248789
0.249317
0.249851
0.250367
0.250849
0.240306
0.240234
0.240215
0.240247
0.24032
0.240431
0.240577
0.240757
0.240967
0.241206
0.241471
0.241761
0.242074
0.242407
0.242761
0.243132
0.243521
0.243924
0.244342
0.244772
0.245215
0.245667
0.246129
0.246599
0.247076
0.247559
0.24805
0.248546
0.24902
0.249452
0.239552
0.239479
0.239456
0.239482
0.239547
0.239649
0.239784
0.23995
0.240146
0.240368
0.240616
0.240886
0.241178
0.24149
0.24182
0.242166
0.242528
0.242904
0.243292
0.243692
0.244102
0.244521
0.244948
0.245382
0.245822
0.246266
0.246717
0.247172
0.247602
0.247982
0.238769
0.238694
0.238668
0.238688
0.238745
0.238836
0.238959
0.239112
0.239292
0.239498
0.239726
0.239977
0.240247
0.240535
0.240839
0.241159
0.241493
0.241839
0.242196
0.242563
0.242939
0.243323
0.243713
0.244109
0.244508
0.244911
0.245319
0.245732
0.246115
0.246438
0.237957
0.237882
0.237852
0.237866
0.237915
0.237995
0.238106
0.238245
0.238409
0.238596
0.238805
0.239034
0.239281
0.239544
0.239822
0.240114
0.240417
0.240732
0.241056
0.241389
0.241728
0.242074
0.242425
0.24278
0.243137
0.243496
0.243859
0.244226
0.24456
0.244824
0.237121
0.237045
0.237012
0.237019
0.23706
0.23713
0.237228
0.237351
0.237498
0.237667
0.237855
0.238061
0.238283
0.23852
0.23877
0.239032
0.239304
0.239585
0.239874
0.24017
0.240471
0.240777
0.241086
0.241398
0.241711
0.242023
0.242338
0.242656
0.242939
0.24314
0.236261
0.236186
0.236149
0.23615
0.236182
0.236241
0.236325
0.236433
0.236563
0.236711
0.236877
0.237059
0.237256
0.237465
0.237685
0.237915
0.238154
0.2384
0.238652
0.238909
0.23917
0.239434
0.239699
0.239965
0.24023
0.240494
0.240758
0.241025
0.241253
0.241389
0.23538
0.235306
0.235266
0.235261
0.235284
0.235331
0.235402
0.235494
0.235604
0.235732
0.235875
0.236032
0.236201
0.236381
0.23657
0.236767
0.23697
0.237179
0.237392
0.237609
0.237827
0.238046
0.238265
0.238482
0.238698
0.23891
0.239121
0.239334
0.239505
0.239571
0.234482
0.234408
0.234366
0.234355
0.234368
0.234404
0.23446
0.234535
0.234626
0.234732
0.234851
0.234981
0.235122
0.235271
0.235427
0.235589
0.235755
0.235925
0.236097
0.23627
0.236443
0.236615
0.236785
0.236952
0.237115
0.237273
0.237427
0.237583
0.237695
0.237688
0.233567
0.233495
0.23345
0.233433
0.233437
0.233461
0.233502
0.233559
0.23363
0.233713
0.233807
0.233909
0.23402
0.234137
0.234258
0.234383
0.234511
0.234639
0.234768
0.234896
0.235021
0.235144
0.235262
0.235376
0.235484
0.235584
0.235679
0.235775
0.235824
0.235742
0.232639
0.232568
0.232521
0.232498
0.232493
0.232504
0.23253
0.232568
0.232618
0.232677
0.232745
0.232819
0.232898
0.23298
0.233066
0.233152
0.233239
0.233324
0.233407
0.233487
0.233563
0.233634
0.233698
0.233756
0.233805
0.233845
0.233878
0.233911
0.233895
0.233732
0.231699
0.231631
0.231583
0.231553
0.231538
0.231537
0.231546
0.231566
0.231593
0.231628
0.231668
0.231711
0.231757
0.231805
0.231852
0.231898
0.231942
0.231982
0.232017
0.232047
0.23207
0.232086
0.232094
0.232092
0.232081
0.232057
0.232025
0.231992
0.231907
0.231662
0.230751
0.230686
0.230636
0.2306
0.230576
0.230561
0.230554
0.230553
0.230558
0.230567
0.230578
0.23059
0.230601
0.230611
0.230619
0.230622
0.230621
0.230613
0.230599
0.230576
0.230544
0.230503
0.230451
0.230387
0.230312
0.230222
0.230121
0.230018
0.229862
0.22953
0.229796
0.229735
0.229683
0.229641
0.229607
0.229578
0.229554
0.229533
0.229514
0.229496
0.229477
0.229456
0.229431
0.229403
0.229368
0.229327
0.229279
0.229221
0.229154
0.229076
0.228987
0.228885
0.228771
0.228642
0.228499
0.228339
0.228166
0.227991
0.227761
0.227338
0.228837
0.22878
0.228727
0.228679
0.228635
0.228592
0.22855
0.228508
0.228464
0.228418
0.228367
0.228312
0.22825
0.22818
0.228102
0.228015
0.227917
0.227807
0.227685
0.227549
0.2274
0.227235
0.227054
0.226857
0.226643
0.226409
0.226159
0.225901
0.225601
0.225087
0.227875
0.227824
0.22777
0.227716
0.227661
0.227604
0.227544
0.22748
0.22741
0.227334
0.227251
0.22716
0.227058
0.226947
0.226823
0.226687
0.226537
0.226373
0.226193
0.225997
0.225784
0.225552
0.225303
0.225034
0.224745
0.224434
0.224112
0.223788
0.223388
0.222774
0.226915
0.226868
0.226814
0.226754
0.226689
0.226617
0.226538
0.22645
0.226354
0.226248
0.226131
0.226001
0.225859
0.225703
0.225532
0.225345
0.225141
0.22492
0.22468
0.22442
0.22414
0.223839
0.223517
0.223174
0.22281
0.222422
0.222009
0.221592
0.221112
0.2204
0.225956
0.225915
0.225861
0.225795
0.225719
0.225632
0.225533
0.225422
0.225298
0.22516
0.225007
0.224839
0.224654
0.224452
0.224231
0.223991
0.223731
0.223449
0.223146
0.22282
0.22247
0.222097
0.221701
0.221278
0.22083
0.220355
0.219856
0.21935
0.21878
0.217967
0.225002
0.224968
0.224913
0.224841
0.224754
0.224652
0.224533
0.224397
0.224244
0.224073
0.223884
0.223675
0.223445
0.223195
0.222922
0.222626
0.222307
0.221963
0.221593
0.221198
0.220776
0.220326
0.219848
0.219342
0.218808
0.218244
0.217654
0.217054
0.21639
0.215472
0.224054
0.224027
0.223972
0.223895
0.223797
0.223678
0.223539
0.223377
0.223195
0.22299
0.222762
0.222511
0.222235
0.221934
0.221608
0.221254
0.220873
0.220464
0.220025
0.219556
0.219057
0.218527
0.217965
0.217371
0.216746
0.216088
0.215401
0.214703
0.213939
0.212918
0.223114
0.223095
0.22304
0.222957
0.222848
0.222713
0.222551
0.222364
0.22215
0.221909
0.221642
0.221346
0.221023
0.22067
0.220288
0.219874
0.21943
0.218953
0.218442
0.217898
0.217319
0.216705
0.216056
0.215371
0.21465
0.213893
0.213102
0.212298
0.21143
0.210309
0.222184
0.222173
0.222118
0.222028
0.221907
0.221754
0.221569
0.221353
0.221106
0.220829
0.220518
0.220175
0.2198
0.219391
0.218949
0.218472
0.217959
0.217409
0.216823
0.216198
0.215535
0.214833
0.21409
0.213309
0.212487
0.211625
0.210725
0.209805
0.208828
0.207615
0.221265
0.221265
0.221211
0.221115
0.220983
0.220813
0.220605
0.22036
0.220079
0.21976
0.219406
0.219015
0.218586
0.218118
0.217612
0.217065
0.216478
0.215849
0.215177
0.214462
0.213702
0.212897
0.212047
0.211152
0.210212
0.209228
0.208203
0.207159
0.206091
0.204847
0.220362
0.220381
0.220334
0.220238
0.220105
0.219926
0.219703
0.219439
0.219133
0.218786
0.218399
0.217971
0.217501
0.216989
0.216433
0.215833
0.215188
0.214497
0.213757
0.212968
0.212129
0.211236
0.21029
0.20929
0.208235
0.207129
0.205978
0.204811
0.203715
0.202631
0.219468
0.219507
0.219469
0.219387
0.219238
0.219045
0.218804
0.218517
0.218186
0.21781
0.21739
0.216926
0.216418
0.215866
0.215268
0.214626
0.213937
0.213201
0.212417
0.211583
0.210698
0.209759
0.208765
0.20771
0.206593
0.205407
0.204154
0.202825
0.201572
0.200547
)
;

boundaryField
{
    inlet
    {
        type            zeroGradient;
    }
    outlet
    {
        type            fixedValue;
        value           nonuniform 0();
    }
    cylinder
    {
        type            zeroGradient;
    }
    top
    {
        type            symmetryPlane;
    }
    bottom
    {
        type            symmetryPlane;
    }
    defaultFaces
    {
        type            empty;
    }
    procBoundary8to4
    {
        type            processor;
        value           nonuniform List<scalar> 
46
(
0.621348
0.580934
0.580934
0.534239
0.49614
0.45882
0.426783
0.397424
0.371902
0.349221
0.329545
0.312385
0.29767
0.285039
0.27449
0.265586
0.246845
0.246796
0.246821
0.246913
0.247058
0.247253
0.247496
0.247784
0.248115
0.248485
0.248893
0.249337
0.249815
0.250326
0.250866
0.251436
0.252034
0.252657
0.253305
0.253977
0.254671
0.255387
0.256122
0.256876
0.257648
0.258437
0.259242
0.260061
0.260894
0.26174
)
;
    }
    procBoundary8to9
    {
        type            processor;
        value           nonuniform List<scalar> 
75
(
0.0878187
0.087412
0.0928802
0.0928802
0.0939103
0.0939103
0.0944557
0.100738
0.100738
0.101957
0.108783
0.115593
0.115593
0.117978
0.125442
0.125442
0.128553
0.136785
0.144986
0.144986
0.149892
0.158999
0.168062
0.168062
0.174744
0.184829
0.19485
0.2048
0.2048
0.2156
0.226738
0.237776
0.248705
0.259513
0.259513
0.2747
0.286714
0.298569
0.310252
0.321751
0.333054
0.333054
0.359274
0.371884
0.384239
0.396324
0.408127
0.419634
0.430832
0.44171
0.452254
0.452254
0.484762
0.496071
0.506965
0.51743
0.527454
0.537025
0.546131
0.55476
0.562903
0.570549
0.577689
0.584314
0.590416
0.595987
0.601022
0.605512
0.609454
0.609454
0.670303
0.673646
0.676326
0.678339
0.679683
)
;
    }
    procBoundary8to12
    {
        type            processor;
        value           nonuniform List<scalar> 
76
(
0.0906969
0.104065
0.109025
0.113921
0.118748
0.123503
0.128181
0.132779
0.137294
0.141724
0.141724
0.142073
0.146137
0.150132
0.154059
0.154059
0.154035
0.157475
0.157475
0.157045
0.156657
0.159946
0.159946
0.159544
0.162685
0.162685
0.162265
0.165269
0.165269
0.164835
0.167688
0.167688
0.167241
0.169996
0.169996
0.169537
0.172063
0.172063
0.171596
0.174252
0.174252
0.176127
0.176127
0.175655
0.179052
0.212623
0.212219
0.211726
0.211152
0.210497
0.209766
0.208959
0.208077
0.207122
0.206096
0.204997
0.203828
0.202589
0.201281
0.199903
0.198457
0.196943
0.195361
0.193713
0.191999
0.190223
0.188379
0.186496
0.184504
0.182651
0.180168
0.213012
0.213053
0.2129
0.212623
0.212686
)
;
    }
}


// ************************************************************************* //
