/*--------------------------------*- C++ -*----------------------------------*\
  =========                 |
  \\      /  F ield         | OpenFOAM: The Open Source CFD Toolbox
   \\    /   O peration     | Website:  https://openfoam.org
    \\  /    A nd           | Version:  7
     \\/     M anipulation  |
\*---------------------------------------------------------------------------*/
FoamFile
{
    version     2.0;
    format      ascii;
    class       volVectorField;
    location    "5";
    object      U;
}
// * * * * * * * * * * * * * * * * * * * * * * * * * * * * * * * * * * * * * //

dimensions      [0 1 -1 0 0 0 0];

internalField   nonuniform List<vector> 
2625
(
(1.11721 0.089929 4.06702e-20)
(1.11245 0.0697379 1.31843e-20)
(1.11269 0.090563 4.38056e-20)
(1.10816 0.0703985 -2.41308e-20)
(1.1128 0.111434 3.25967e-20)
(1.10818 0.0911387 -2.66356e-20)
(1.10389 0.071021 5.91409e-21)
(1.11204 0.134147 -1.45669e-20)
(1.10806 0.111914 -5.66757e-20)
(1.1037 0.0916544 -2.84281e-20)
(1.09966 0.0716033 3.01622e-21)
(1.10695 0.134523 2.21524e-21)
(1.10333 0.11232 1.29781e-19)
(1.09924 0.0921082 1.58381e-20)
(1.09546 0.0721431 2.63749e-20)
(1.10488 0.158798 -4.76638e-20)
(1.10187 0.134806 -4.25651e-20)
(1.09863 0.11265 -5.95824e-20)
(1.09482 0.0924983 -4.46878e-20)
(1.0913 0.0726379 -4.86738e-21)
(1.09937 0.158955 -2.63293e-20)
(1.09682 0.134996 -1.11068e-20)
(1.09395 0.112902 -2.56808e-20)
(1.09043 0.0928231 3.74583e-20)
(1.08718 0.0730857 3.42048e-20)
(1.09387 0.159001 2.44418e-20)
(1.09178 0.13509 8.05007e-20)
(1.0893 0.113074 -8.33579e-21)
(1.08608 0.0930808 -2.93623e-20)
(1.0831 0.0734842 -6.92626e-20)
(1.0894 0.185262 2.90494e-20)
(1.0884 0.158934 1.81697e-20)
(1.08678 0.135088 -1.3547e-19)
(1.08469 0.113167 7.54239e-20)
(1.08178 0.0932699 2.54932e-20)
(1.07907 0.0738313 -5.51776e-21)
(1.08339 0.185017 1.09794e-20)
(1.08294 0.158752 2.10512e-20)
(1.0818 0.134989 1.94638e-19)
(1.08011 0.113177 -4.33579e-21)
(1.07752 0.0933888 5.02767e-21)
(1.07509 0.074125 3.56341e-20)
(1.07037 0.0586156 2.02289e-19)
(1.07656 0.213711 6.47534e-20)
(1.0774 0.184637 3.49561e-20)
(1.07752 0.158456 4.74285e-20)
(1.07686 0.134792 -9.30799e-20)
(1.07558 0.113105 -2.30375e-20)
(1.0733 0.0934361 -3.00753e-21)
(1.07116 0.0743635 -5.50441e-20)
(1.06658 0.0589617 -1.88612e-19)
(1.06995 0.213118 3.14167e-20)
(1.07144 0.184123 -6.14569e-20)
(1.07213 0.158045 -1.38044e-19)
(1.07196 0.134495 -1.07219e-19)
(1.07108 0.112949 -3.45721e-20)
(1.06914 0.0934105 -1.92931e-20)
(1.06728 0.0745449 -3.30142e-20)
(1.06285 0.0592413 -3.60507e-20)
(1.06335 0.212367 -4.4303e-22)
(1.06551 0.183474 -8.24125e-21)
(1.06677 0.157517 1.34155e-19)
(1.0671 0.134099 1.97674e-19)
(1.06664 0.112708 3.88751e-20)
(1.06504 0.0933108 6.80523e-20)
(1.06346 0.0746679 3.92132e-20)
(1.0592 0.0594519 4.1687e-20)
(1.05283 0.243657 6.88222e-20)
(1.05678 0.211459 -6.53161e-20)
(1.05961 0.182689 1.26037e-19)
(1.06146 0.156872 -3.7913e-21)
(1.06228 0.133601 -1.56348e-19)
(1.06224 0.112381 5.96862e-20)
(1.06099 0.0931359 7.51481e-21)
(1.05969 0.0747309 1.12736e-20)
(1.05562 0.0595911 1.29711e-19)
(1.04553 0.242469 -1.46804e-19)
(1.05025 0.210392 1.33413e-19)
(1.05375 0.181767 -8.46001e-20)
(1.05618 0.15611 -1.14255e-19)
(1.05751 0.133003 3.85686e-20)
(1.0579 0.111966 -7.82179e-20)
(1.05701 0.0928849 -5.21223e-20)
(1.05599 0.0747329 2.12429e-21)
(1.05211 0.0596565 -7.21455e-20)
(1.03827 0.241094 1.13577e-19)
(1.04376 0.209166 -8.26001e-20)
(1.04793 0.18071 5.46483e-20)
(1.05095 0.15523 6.27302e-20)
(1.05279 0.132303 -9.79725e-20)
(1.05361 0.111464 -9.79979e-22)
(1.05309 0.0925567 1.1261e-20)
(1.05235 0.0746727 -3.52433e-20)
(1.04867 0.0596458 -5.69739e-20)
(1.02315 0.275143 7.28338e-20)
(1.03104 0.239534 -6.76801e-20)
(1.03731 0.207781 -2.27739e-20)
(1.04216 0.179516 2.8112e-20)
(1.04577 0.154232 7.76972e-20)
(1.04812 0.131501 1.79094e-19)
(1.04938 0.110874 1.10344e-19)
(1.04923 0.0921509 4.01374e-20)
(1.04877 0.0745495 1.60782e-19)
(1.04531 0.0595568 -8.23107e-20)
(1.01509 0.273224 -1.56512e-19)
(1.02386 0.237789 7.18306e-20)
(1.03091 0.206238 -5.62913e-20)
(1.03644 0.178185 -1.42751e-19)
(1.04064 0.153116 -1.847e-19)
(1.04351 0.130597 -1.16037e-19)
(1.04521 0.110194 -1.38636e-19)
(1.04545 0.0916668 1.77697e-20)
(1.04526 0.0743625 -2.64778e-19)
(1.04202 0.059387 6.42197e-20)
(1.00708 0.271087 1.74624e-19)
(1.01673 0.235858 7.51251e-20)
(1.02457 0.204536 8.41378e-20)
(1.03078 0.176717 5.32383e-21)
(1.03557 0.151882 6.67073e-20)
(1.03896 0.129591 1.91162e-21)
(1.0411 0.109425 5.68328e-20)
(1.04174 0.091104 -1.20713e-19)
(1.04182 0.0741114 1.69814e-19)
(1.0388 0.0591334 2.00294e-19)
(0.99912 0.268732 -8.73814e-20)
(1.00966 0.233742 -1.25476e-19)
(1.01828 0.202676 9.43902e-21)
(1.02518 0.175114 3.37463e-20)
(1.03056 0.15053 1.11484e-19)
(1.03447 0.128482 -2.66981e-20)
(1.03705 0.108566 -1.42333e-19)
(1.0381 0.0904625 1.47726e-19)
(1.03845 0.0737953 -9.11972e-20)
(1.03567 0.0587903 -1.73382e-21)
(0.977079 0.305112 -2.93161e-20)
(0.991223 0.26616 4.04385e-20)
(1.00265 0.231443 1.73426e-19)
(1.01206 0.200659 -3.70437e-20)
(1.01963 0.173374 -1.44187e-20)
(1.02561 0.149061 -5.04274e-20)
(1.03004 0.127271 1.79002e-19)
(1.03307 0.107617 8.09823e-20)
(1.03454 0.0897424 -3.59318e-20)
(1.03515 0.0734116 1.22656e-19)
(1.03262 0.0583373 -1.50506e-19)
(0.968245 0.302057 -2.04305e-19)
(0.983394 0.263373 -1.10889e-19)
(0.995717 0.22896 -2.57335e-19)
(1.0059 0.198484 -8.17017e-21)
(1.01416 0.1715 1.82542e-19)
(1.02073 0.147473 6.08311e-20)
(1.02568 0.125958 -2.30319e-19)
(1.02916 0.106578 -2.71859e-20)
(1.03105 0.0889447 -1.07592e-19)
(1.03191 0.0729558 3.7668e-20)
(1.02968 0.0577593 -3.70556e-20)
(0.959484 0.298746 1.76131e-19)
(0.975641 0.260371 5.99465e-20)
(0.988854 0.226295 1.25522e-19)
(0.999819 0.196154 8.39987e-20)
(1.00876 0.16949 -2.00418e-19)
(1.01592 0.14577 -1.16561e-19)
(1.02139 0.124544 1.10959e-19)
(1.02532 0.105449 8.00584e-21)
(1.02764 0.0880717 8.60257e-20)
(1.02874 0.072428 -1.7993e-20)
(1.02698 0.057045 2.5325e-20)
(0.950805 0.295182 4.44221e-20)
(0.967971 0.257156 -4.86711e-20)
(0.982073 0.22345 1.58199e-20)
(0.993816 0.193668 6.62472e-20)
(1.00343 0.167347 1.96419e-19)
(1.01118 0.143949 1.26454e-19)
(1.01717 0.123028 5.57081e-20)
(1.02155 0.104231 -1.13452e-20)
(1.02431 0.0871259 -8.60358e-20)
(1.02564 0.0718425 2.37147e-20)
(1.0248 0.0562922 -2.20825e-20)
(0.942217 0.291367 -8.83857e-21)
(0.960391 0.25373 1.22751e-19)
(0.975379 0.220424 -5.87649e-20)
(0.987896 0.191028 -1.24471e-19)
(0.99818 0.16507 -1.89378e-19)
(1.00652 0.142014 -6.64647e-20)
(1.01302 0.121413 6.25394e-20)
(1.01785 0.102924 3.40858e-20)
(1.02104 0.0861058 1.12217e-19)
(1.02266 0.071183 -2.68414e-20)
(1.02265 0.0559425 1.4444e-20)
(0.910557 0.328632 -5.54927e-20)
(0.933728 0.287302 3.93956e-21)
(0.952908 0.250095 -3.30224e-20)
(0.968777 0.217221 -3.22163e-20)
(0.982062 0.188236 3.55014e-20)
(0.993014 0.162662 2.79793e-20)
(1.00193 0.139964 5.25539e-20)
(1.00895 0.119698 -1.99701e-19)
(1.01423 0.101529 -1.0089e-19)
(1.01785 0.0850118 -6.68271e-20)
(1.01977 0.0704269 9.74728e-20)
(1.02048 0.0556394 1.5169e-19)
(0.901065 0.323886 8.82629e-20)
(0.925346 0.282992 -1.70009e-19)
(0.945529 0.246253 -7.92694e-20)
(0.962273 0.213841 -4.21106e-20)
(0.976321 0.185292 -1.67968e-19)
(0.987935 0.160123 -3.38601e-20)
(0.997431 0.1378 -1.34254e-19)
(1.00496 0.117884 2.00288e-19)
(1.01069 0.100047 1.73981e-19)
(1.01474 0.083844 9.83899e-20)
(1.01697 0.0695808 -1.28102e-19)
(1.01831 0.0552323 -1.55967e-19)
(0.891691 0.318847 1.34018e-20)
(0.917081 0.278438 -6.27087e-20)
(0.938261 0.242206 2.13621e-19)
(0.955872 0.210287 -1.08306e-19)
(0.970677 0.182198 3.7008e-20)
(0.982946 0.157454 1.16528e-19)
(0.993015 0.135524 1.37538e-19)
(1.00105 0.115972 -4.94003e-22)
(1.00722 0.098478 -6.63953e-20)
(1.0117 0.082602 1.0075e-20)
(1.01426 0.0686528 -2.15657e-19)
(1.01616 0.0547274 1.66787e-19)
(0.882445 0.31352 -3.04362e-20)
(0.90894 0.273644 7.29604e-20)
(0.931109 0.237957 5.01609e-21)
(0.949581 0.206561 2.88747e-19)
(0.965133 0.178956 7.1202e-20)
(0.978051 0.154658 6.72491e-20)
(0.988687 0.133137 3.68114e-20)
(0.997225 0.113963 -4.94586e-20)
(1.00383 0.0968228 1.27567e-20)
(1.00874 0.0812849 -1.45914e-20)
(1.01163 0.0676463 9.34761e-20)
(1.01404 0.0541381 -2.6865e-19)
(0.873338 0.307907 7.11133e-20)
(0.900932 0.268613 -1.85371e-22)
(0.924081 0.233508 -3.93215e-20)
(0.943403 0.202665 -8.216e-20)
(0.959695 0.175568 1.92071e-20)
(0.973253 0.151735 -1.68713e-19)
(0.98445 0.130639 -9.90091e-20)
(0.993484 0.111859 -5.63663e-20)
(1.00053 0.0950822 -4.15359e-21)
(1.00585 0.0798926 -2.76837e-20)
(1.0091 0.0665633 1.16662e-20)
(1.01196 0.0534677 2.74057e-19)
(0.86438 0.302015 5.04645e-20)
(0.893064 0.263348 -1.99953e-19)
(0.917183 0.228863 -9.63656e-20)
(0.937345 0.198601 2.64674e-20)
(0.954366 0.172037 1.30155e-19)
(0.968557 0.148688 1.79533e-19)
(0.980307 0.128033 1.47509e-19)
(0.989832 0.109659 -5.98916e-20)
(0.997316 0.0932572 1.13904e-20)
(1.00304 0.0784252 1.19587e-19)
(1.00664 0.0654063 1.70007e-19)
(1.00993 0.0527184 -1.25384e-19)
(0.819159 0.337504 4.18009e-20)
(0.855581 0.295847 -1.62019e-19)
(0.885345 0.257854 3.87277e-19)
(0.910422 0.224024 3.1009e-20)
(0.931412 0.194372 2.55244e-20)
(0.949152 0.168363 -1.88138e-19)
(0.963966 0.145517 -1.02668e-20)
(0.976262 0.125321 -6.39135e-20)
(0.98627 0.107365 1.40379e-19)
(0.994185 0.0913489 -4.31334e-20)
(1.00031 0.0768831 -1.92525e-19)
(1.00427 0.0641773 -1.882e-20)
(1.00794 0.0518926 8.11308e-20)
(0.809337 0.330378 5.92021e-20)
(0.846951 0.289409 1.83895e-19)
(0.877782 0.252135 1.53669e-20)
(0.903803 0.218995 -1.00888e-19)
(0.925608 0.189981 -2.79796e-19)
(0.944055 0.16455 1.41704e-19)
(0.959483 0.142227 -2.12557e-19)
(0.972316 0.122503 1.04696e-20)
(0.982801 0.10498 -1.83159e-19)
(0.991141 0.0893583 -6.76309e-20)
(0.997662 0.075267 -1.15971e-20)
(1.00199 0.0628783 -1.38477e-19)
(1.00601 0.0509924 8.73467e-22)
(0.799704 0.322929 -2.26507e-19)
(0.838498 0.282705 -1.03624e-19)
(0.870382 0.246194 3.73316e-20)
(0.897333 0.21378 1.01068e-19)
(0.919939 0.18543 -3.86465e-20)
(0.939081 0.1606 -1.6666e-19)
(0.955111 0.138817 1.61945e-19)
(0.968473 0.119582 1.38528e-20)
(0.979427 0.102503 8.2388e-20)
(0.988187 0.087287 2.90803e-19)
(0.995096 0.0735777 1.78391e-19)
(0.999781 0.061511 -7.35492e-20)
(1.00414 0.0500201 -2.55413e-19)
(0.790272 0.315165 1.50649e-19)
(0.830233 0.275741 8.32686e-20)
(0.863154 0.240036 9.64354e-20)
(0.891018 0.208382 -6.95935e-20)
(0.914409 0.180724 1.20559e-19)
(0.934233 0.156516 1.1376e-19)
(0.950853 0.135292 -1.68979e-19)
(0.964735 0.116559 -2.552e-19)
(0.976149 0.0999379 -2.64103e-20)
(0.985324 0.0851362 -1.17719e-19)
(0.992613 0.0718163 -1.15053e-19)
(0.997659 0.0600772 5.65288e-20)
(1.00234 0.0489776 2.62355e-19)
(0.781054 0.307091 -1.88624e-19)
(0.822165 0.268523 -2.59935e-19)
(0.856104 0.233667 -2.39837e-19)
(0.884863 0.202805 1.13641e-19)
(0.909024 0.175865 1.56819e-19)
(0.929515 0.152301 -2.55098e-20)
(0.946714 0.131652 7.06552e-20)
(0.961104 0.113437 -8.14679e-20)
(0.97297 0.097285 -3.27108e-20)
(0.982552 0.0829076 4.68735e-20)
(0.990215 0.0699841 -3.40221e-21)
(0.995618 0.0585786 9.53828e-20)
(1.0006 0.0478669 -1.45164e-19)
(0.772059 0.298717 4.55099e-20)
(0.814301 0.261058 3.80121e-19)
(0.84924 0.227091 -1.4711e-19)
(0.878874 0.197053 -3.47717e-19)
(0.903788 0.170857 -6.16674e-20)
(0.92493 0.147957 9.21741e-20)
(0.942695 0.127902 -1.88402e-20)
(0.957583 0.110218 2.1241e-19)
(0.969891 0.0945466 3.95171e-20)
(0.979873 0.0806028 9.62401e-21)
(0.987901 0.0680825 -8.7881e-21)
(0.993659 0.0570169 6.82357e-20)
(0.998922 0.04669 -1.9317e-20)
(0.763299 0.290048 1.66132e-19)
(0.806652 0.25335 -1.18243e-19)
(0.842567 0.220313 2.06672e-19)
(0.873058 0.191131 2.55415e-19)
(0.898705 0.165704 2.48325e-20)
(0.920484 0.143488 5.69864e-20)
(0.9388 0.124043 1.88748e-19)
(0.954173 0.106905 9.76849e-20)
(0.966915 0.0917247 -1.61796e-19)
(0.977289 0.0782236 -1.52861e-19)
(0.985674 0.066113 1.07488e-19)
(0.991782 0.0553939 1.78939e-20)
(0.997318 0.0454492 5.47391e-20)
(0.754785 0.281094 1.03589e-20)
(0.799225 0.245408 6.26972e-21)
(0.836094 0.213339 -2.32635e-19)
(0.867418 0.185044 1.50525e-19)
(0.89378 0.160409 1.12979e-19)
(0.916178 0.138898 -2.2259e-19)
(0.935031 0.120078 -9.07103e-20)
(0.950878 0.103499 -1.9044e-19)
(0.964041 0.0888215 2.69829e-19)
(0.974799 0.0757719 1.55841e-20)
(0.983532 0.0640775 -8.97658e-20)
(0.989985 0.0537114 -1.19791e-19)
(0.995785 0.0441468 -4.15902e-21)
(0.746526 0.271863 4.30562e-20)
(0.792028 0.237237 -2.45849e-19)
(0.829826 0.206175 8.39379e-20)
(0.861961 0.178796 -8.52014e-21)
(0.889017 0.154977 -5.55135e-20)
(0.912016 0.134189 2.7393e-19)
(0.931392 0.116011 -9.80793e-20)
(0.9477 0.100003 6.29605e-20)
(0.961273 0.0858392 1.63065e-20)
(0.972404 0.0732498 6.09289e-20)
(0.981477 0.0619778 -8.40718e-20)
(0.988268 0.0519715 6.65758e-20)
(0.994322 0.0427854 -9.16079e-20)
(0.683589 0.297673 -1.12558e-19)
(0.738534 0.262363 -1.64757e-19)
(0.785069 0.228846 1.91216e-19)
(0.82377 0.198826 -1.13252e-19)
(0.856691 0.172392 -5.29643e-20)
(0.88442 0.149412 -2.28085e-19)
(0.908002 0.129366 -1.79636e-20)
(0.927884 0.111844 -1.00221e-19)
(0.944639 0.096421 2.93588e-20)
(0.958611 0.0827801 -1.10184e-19)
(0.970106 0.0706594 -5.54173e-20)
(0.97951 0.0598158 9.37464e-20)
(0.986631 0.050176 2.50194e-20)
(0.99293 0.0413673 3.54973e-20)
(0.674792 0.28677 2.48876e-19)
(0.730817 0.252604 -7.54808e-20)
(0.778357 0.220241 -1.0547e-19)
(0.817931 0.191298 4.89373e-20)
(0.851613 0.165837 -4.04953e-20)
(0.879993 0.143718 -8.56209e-21)
(0.904139 0.124431 -2.16191e-19)
(0.924511 0.107581 1.18663e-19)
(0.941698 0.0927544 2.30137e-20)
(0.956057 0.0796468 -1.31964e-20)
(0.967905 0.0680029 6.31909e-20)
(0.977629 0.0575936 -3.82526e-20)
(0.985073 0.048327 -4.87241e-20)
(0.991609 0.0398952 1.86667e-20)
(0.666311 0.27556 -2.83102e-19)
(0.723386 0.242595 3.76627e-19)
(0.771897 0.211429 2.55094e-19)
(0.812316 0.183599 -9.70909e-20)
(0.846733 0.159136 5.24854e-20)
(0.87574 0.1379 1.42124e-19)
(0.90043 0.11939 1.04252e-19)
(0.921275 0.103225 -1.75497e-20)
(0.93888 0.0890066 -9.28907e-20)
(0.953612 0.0764419 -5.50019e-20)
(0.965802 0.0652827 -5.94631e-20)
(0.975836 0.0553135 6.96586e-20)
(0.983593 0.0464268 -1.43233e-19)
(0.990358 0.0383715 1.23811e-19)
(0.658156 0.264057 -2.11497e-20)
(0.716248 0.232345 -1.00194e-19)
(0.765697 0.20242 -2.84501e-19)
(0.806931 0.175734 1.39986e-19)
(0.842054 0.152296 -9.03876e-20)
(0.871665 0.131962 4.68827e-20)
(0.896878 0.114246 -2.23078e-19)
(0.918177 0.0987798 4.1294e-20)
(0.936185 0.0851807 3.71447e-20)
(0.951276 0.0731679 1.17332e-19)
(0.963796 0.0625012 -6.99747e-20)
(0.974131 0.0529777 7.26973e-20)
(0.982191 0.0444773 1.11648e-19)
(0.989177 0.0367989 -1.2685e-19)
(0.65034 0.252271 -8.8594e-20)
(0.709412 0.221864 2.4503e-20)
(0.759765 0.193221 1.45605e-19)
(0.80178 0.16771 -2.65686e-20)
(0.837581 0.145322 3.63879e-21)
(0.867771 0.125909 1.71707e-20)
(0.893486 0.109002 3.01631e-19)
(0.915221 0.0942487 7.81386e-20)
(0.933615 0.0812797 6.38862e-20)
(0.949052 0.0698278 -5.32985e-20)
(0.96189 0.0596608 1.58105e-20)
(0.972513 0.0505886 -1.20456e-19)
(0.980866 0.0424809 -6.83625e-20)
(0.988065 0.0351801 9.22182e-20)
(0.642873 0.240215 -3.08256e-20)
(0.702887 0.211162 -1.10256e-19)
(0.754105 0.18384 -2.23641e-19)
(0.796869 0.159534 2.02969e-19)
(0.833318 0.138219 1.06743e-19)
(0.864062 0.119747 -1.24264e-19)
(0.890256 0.103665 -3.28677e-20)
(0.912408 0.0896356 -1.04502e-20)
(0.931171 0.077307 -7.59516e-20)
(0.94694 0.0664243 3.73091e-21)
(0.960082 0.0567642 7.54226e-20)
(0.970982 0.0481486 3.39484e-20)
(0.979617 0.0404398 3.06135e-20)
(0.987021 0.0335175 1.91204e-20)
(0.635764 0.227901 7.29301e-20)
(0.69668 0.200251 1.19838e-19)
(0.748725 0.174286 3.16386e-19)
(0.792202 0.151214 -2.3605e-19)
(0.82927 0.130994 2.16807e-20)
(0.860541 0.11348 3.57143e-20)
(0.887191 0.098237 1.23966e-19)
(0.909741 0.0849442 -6.88789e-20)
(0.928856 0.0732659 -9.88998e-20)
(0.94494 0.0629604 -5.16085e-20)
(0.958373 0.0538141 -1.83157e-20)
(0.969538 0.0456602 1.12291e-19)
(0.978443 0.0383564 6.91363e-21)
(0.986044 0.031814 -1.05661e-19)
(0.629023 0.215344 -1.12637e-19)
(0.690799 0.189139 2.87351e-21)
(0.743631 0.164568 -8.47301e-20)
(0.787786 0.142756 1.13533e-19)
(0.825439 0.123653 -5.19919e-20)
(0.85721 0.107113 -4.63762e-20)
(0.884294 0.0927236 -2.01552e-19)
(0.90722 0.0801784 1.61069e-19)
(0.92667 0.0691598 8.04465e-20)
(0.943054 0.0594392 7.97181e-20)
(0.956765 0.0508131 5.39943e-20)
(0.968181 0.043126 -1.63394e-19)
(0.977344 0.0362329 1.31077e-19)
(0.985132 0.0300721 1.06064e-21)
(0.622659 0.202555 4.02099e-20)
(0.685251 0.177839 -1.28928e-19)
(0.738827 0.154694 -3.0723e-20)
(0.783623 0.134168 -1.69002e-19)
(0.821831 0.116201 -1.06592e-19)
(0.854074 0.100653 9.7887e-21)
(0.881566 0.0871292 -5.48818e-20)
(0.904849 0.0753424 -1.67149e-19)
(0.924615 0.0649922 -4.15695e-20)
(0.941283 0.0558638 -5.65081e-21)
(0.955256 0.047764 -5.20072e-20)
(0.966911 0.0405485 1.38057e-19)
(0.976318 0.0340718 -7.98599e-20)
(0.984285 0.0282943 8.64806e-20)
(0.61668 0.189549 2.5184e-19)
(0.680042 0.166361 -4.39199e-22)
(0.73432 0.144674 5.51389e-21)
(0.779718 0.125457 1.8282e-19)
(0.818447 0.108646 1.06102e-19)
(0.851134 0.0941037 5.15966e-20)
(0.879011 0.0814586 4.51939e-20)
(0.902628 0.0704401 -4.45105e-22)
(0.922692 0.0607667 1.17156e-19)
(0.939627 0.0522373 -6.96373e-21)
(0.953847 0.0446697 3.31905e-21)
(0.965727 0.0379304 -9.1705e-20)
(0.975365 0.0318754 3.146e-20)
(0.983502 0.0264832 -1.2437e-19)
(0.611095 0.17634 4.70932e-20)
(0.675179 0.154717 -3.6881e-20)
(0.730114 0.134517 -4.41976e-20)
(0.776076 0.116632 4.8198e-20)
(0.815291 0.100995 8.11208e-20)
(0.848393 0.0874718 1.10265e-19)
(0.876629 0.0757165 -4.65815e-20)
(0.900559 0.0654758 3.03433e-20)
(0.920901 0.056487 -6.64213e-20)
(0.938087 0.048563 1.07791e-20)
(0.952538 0.0415332 3.00416e-20)
(0.964629 0.0352743 4.05982e-20)
(0.974484 0.0296461 -6.86844e-20)
(0.98278 0.0246415 1.05875e-19)
(0.605911 0.162941 -2.13999e-19)
(0.670668 0.142918 -4.34461e-20)
(0.726213 0.124232 2.57612e-20)
(0.772699 0.107701 -1.98734e-19)
(0.812366 0.0932525 -2.66667e-19)
(0.845853 0.0807628 -2.0429e-19)
(0.874423 0.0699079 7.31173e-20)
(0.898644 0.0604537 9.09932e-21)
(0.919245 0.0521568 -2.08698e-20)
(0.936663 0.0448442 -1.42926e-19)
(0.951329 0.0383572 -2.91399e-20)
(0.963618 0.0325831 -4.16724e-20)
(0.973675 0.0273865 8.80712e-20)
(0.98212 0.0227715 -7.21724e-20)
(0.601134 0.149366 1.13352e-19)
(0.666513 0.130976 -4.94641e-20)
(0.722623 0.113829 -4.33445e-20)
(0.769592 0.0986704 1.71454e-20)
(0.809676 0.085427 1.45066e-19)
(0.843517 0.0739823 1.66608e-19)
(0.872395 0.0640378 -6.95238e-20)
(0.896884 0.0553782 1.19696e-20)
(0.917723 0.0477799 1.23632e-20)
(0.935356 0.0410843 1.53227e-19)
(0.950221 0.0351449 2.40384e-21)
(0.962692 0.0298593 3.74761e-20)
(0.972935 0.0250988 -8.34236e-21)
(0.981519 0.0208757 1.98307e-20)
(0.596772 0.135631 -5.93859e-20)
(0.66272 0.118903 2.5951e-20)
(0.719346 0.103318 1.58536e-19)
(0.766756 0.0895495 1.51784e-19)
(0.807221 0.0775249 7.24625e-21)
(0.841388 0.0671364 -1.26313e-19)
(0.870546 0.0581113 1.24582e-20)
(0.89528 0.0502537 -9.39099e-21)
(0.916337 0.0433602 -7.92999e-20)
(0.934166 0.0372866 -1.01467e-19)
(0.949214 0.0318993 -2.89439e-20)
(0.961851 0.0271057 5.49131e-21)
(0.972266 0.0227856 -9.26783e-20)
(0.980977 0.0189566 -2.11389e-20)
(0.592829 0.12175 2.72185e-20)
(0.659294 0.10671 1.62762e-19)
(0.716386 0.0927093 -1.18869e-19)
(0.764196 0.0803463 -1.21758e-19)
(0.805006 0.0695531 -1.73285e-20)
(0.839465 0.0602309 5.72337e-20)
(0.868878 0.0521335 2.15939e-20)
(0.893834 0.0450847 1.25094e-20)
(0.915088 0.0389016 4.84419e-20)
(0.933094 0.0334547 6.14704e-20)
(0.948307 0.0286234 7.73522e-20)
(0.961095 0.0243253 -1.41938e-20)
(0.971665 0.0204492 -2.08028e-20)
(0.980493 0.0170166 8.8546e-20)
(0.589311 0.107738 -8.93204e-20)
(0.656238 0.0944102 -2.38115e-21)
(0.713747 0.0820119 1.16561e-19)
(0.761914 0.0710693 1.11924e-20)
(0.803031 0.0615189 -3.50518e-20)
(0.837752 0.053272 -7.817e-20)
(0.867392 0.0461096 4.43262e-20)
(0.892545 0.0398757 4.92022e-20)
(0.913976 0.034408 4.33707e-20)
(0.932141 0.0295919 2.83793e-20)
(0.947501 0.0253204 -6.85742e-20)
(0.960424 0.0215206 1.30934e-20)
(0.971133 0.0180921 6.85347e-20)
(0.980065 0.0150579 -6.45015e-20)
(0.586222 0.0936094 6.16966e-20)
(0.653556 0.0820156 -1.92584e-20)
(0.711432 0.0712364 -1.06995e-19)
(0.759913 0.0617269 8.81109e-20)
(0.801299 0.0534294 6.68697e-20)
(0.83625 0.0462657 3.73646e-20)
(0.866089 0.040045 -5.49245e-20)
(0.891416 0.0346313 -6.16165e-20)
(0.913001 0.0298835 -9.10064e-20)
(0.931306 0.025702 -7.153e-20)
(0.946796 0.0219934 5.63211e-20)
(0.959838 0.0186947 -3.4735e-20)
(0.970669 0.0157169 2.1605e-20)
(0.979693 0.0130829 8.49067e-21)
(0.502775 0.0892895 1.035e-19)
(0.583567 0.0793801 1.18781e-20)
(0.651251 0.0695385 -8.61753e-20)
(0.709443 0.0603929 4.44888e-20)
(0.758193 0.0523276 -7.33941e-20)
(0.799812 0.0452917 -3.18455e-20)
(0.83496 0.0392183 1.39293e-20)
(0.86497 0.0339449 4.52729e-20)
(0.890446 0.0293561 3.85142e-21)
(0.912165 0.025332 6.46566e-20)
(0.930589 0.0217883 8.60573e-21)
(0.946191 0.0186455 -8.19367e-21)
(0.959335 0.0158502 -2.48534e-20)
(0.970272 0.0133258 -4.27894e-20)
(0.979375 0.0110939 1.61043e-20)
(0.500239 0.0732002 4.7559e-20)
(0.581349 0.0650652 -4.34437e-20)
(0.649326 0.0569914 2.36122e-20)
(0.707782 0.0494919 -3.28234e-20)
(0.756757 0.0428801 -1.48012e-21)
(0.79857 0.0371133 2.49295e-21)
(0.833883 0.032136 -2.72769e-20)
(0.864036 0.0278147 3.70238e-20)
(0.889637 0.0240548 -3.0181e-20)
(0.911467 0.0207578 -2.98513e-21)
(0.929992 0.0178546 8.58693e-21)
(0.945687 0.0152798 -9.81778e-21)
(0.958917 0.01299 3.27495e-20)
(0.969942 0.0109213 1.19874e-20)
(0.979112 0.00909299 -1.29968e-20)
(0.498206 0.0570244 -6.60031e-20)
(0.579572 0.0506801 4.01573e-20)
(0.647783 0.0443871 1.74112e-20)
(0.706451 0.0385436 -5.73963e-21)
(0.755607 0.033393 -2.84722e-20)
(0.797575 0.0289013 -2.74915e-20)
(0.833021 0.025025 2.00322e-20)
(0.863289 0.0216598 -2.06387e-20)
(0.88899 0.018732 4.62883e-20)
(0.910908 0.0161649 1.20589e-20)
(0.929514 0.0139044 1.31813e-20)
(0.945284 0.0118997 -2.50484e-20)
(0.958583 0.010117 -3.83364e-21)
(0.969678 0.00850593 1.45793e-20)
(0.978902 0.00708247 2.84543e-20)
(0.496679 0.0407811 3.03035e-20)
(0.578236 0.0362404 3.7358e-21)
(0.646624 0.0317381 -4.73472e-21)
(0.705451 0.0275585 1.02602e-20)
(0.754743 0.0238751 3.3626e-20)
(0.796828 0.0206633 2.05131e-20)
(0.832373 0.0178918 4.24153e-21)
(0.862727 0.0154858 -1.86869e-20)
(0.888503 0.0133926 3.98549e-21)
(0.910489 0.0115574 -9.61253e-21)
(0.929155 0.00994144 -1.52742e-20)
(0.944981 0.00850835 1.42026e-20)
(0.958332 0.00723393 2.34873e-20)
(0.969481 0.00608205 -8.49064e-21)
(0.978745 0.00506448 -3.26587e-20)
(0.49566 0.0244897 2.33334e-21)
(0.577345 0.0217615 -3.33204e-21)
(0.645851 0.0190572 1.61106e-20)
(0.704784 0.016547 4.59506e-21)
(0.754167 0.0143352 -4.77222e-21)
(0.79633 0.0124067 1.36645e-20)
(0.831941 0.0107426 8.47846e-21)
(0.862353 0.009298 -7.68305e-21)
(0.888179 0.00804128 -2.16325e-20)
(0.91021 0.00693942 -9.17413e-21)
(0.928916 0.00596927 1.38944e-20)
(0.94478 0.00510888 -7.18809e-21)
(0.958165 0.00434376 -2.5903e-20)
(0.969349 0.0036521 8.37436e-22)
(0.978641 0.00304117 8.99089e-22)
(0.645464 0.00635707 7.60914e-21)
(0.704451 0.00551982 -1.09666e-20)
(0.753878 0.00478208 2.6986e-21)
(0.79608 0.00413884 2.82524e-21)
(0.831725 0.00358379 -1.13593e-22)
(0.862165 0.00310196 7.45184e-21)
(0.888017 0.00268277 7.30817e-21)
(0.91007 0.00231523 -2.19362e-21)
(0.928796 0.0019916 -6.20025e-21)
(0.944679 0.00170457 3.59604e-21)
(0.958082 0.00144931 8.36804e-21)
(0.969283 0.00121851 1.5182e-21)
(0.978589 0.00101468 4.26451e-21)
(1.02856 0.0508275 -7.71039e-21)
(1.03128 0.050959 5.35554e-20)
(1.03403 0.0511402 6.40544e-20)
(1.03689 0.0512927 -1.09479e-19)
(1.03981 0.0513689 4.9778e-20)
(1.0428 0.0513737 -4.5915e-20)
(1.04587 0.0513055 2.17886e-19)
(1.04902 0.0511674 7.40223e-20)
(1.05224 0.0509615 2.41997e-20)
(1.05553 0.0506908 8.45083e-20)
(1.02887 0.0499498 5.35061e-20)
(1.03155 0.0500828 4.59744e-20)
(1.03424 0.0502469 -2.42456e-20)
(1.03706 0.0503876 -1.62928e-20)
(1.03994 0.0504559 5.73202e-20)
(1.04291 0.0504566 9.61317e-20)
(1.04595 0.050387 -7.12261e-20)
(1.04906 0.0502501 4.25227e-20)
(1.05226 0.0500481 4.12207e-20)
(1.05554 0.0497833 9.14801e-21)
(1.02917 0.0491549 -3.16981e-20)
(1.03183 0.0492846 -5.14672e-20)
(1.03446 0.049423 -8.89954e-20)
(1.03724 0.0495444 -1.25456e-20)
(1.04009 0.0495996 -9.70825e-20)
(1.04302 0.0495917 -1.15374e-19)
(1.04603 0.049517 8.28836e-20)
(1.04912 0.0493782 -1.07171e-19)
(1.0523 0.0491767 1.28464e-20)
(1.02949 0.048409 1.78008e-20)
(1.03213 0.0485205 2.48354e-20)
(1.03471 0.0486271 -1.36928e-20)
(1.03745 0.0487245 -4.32785e-20)
(1.04026 0.0487637 9.98145e-20)
(1.04316 0.0487449 1.10459e-19)
(1.04614 0.0486634 -7.59937e-20)
(1.04921 0.0485209 1.54118e-20)
(1.05236 0.0483186 3.83299e-20)
(1.02981 0.0476863 -1.70751e-19)
(1.03244 0.0477753 6.62845e-20)
(1.03498 0.0478517 7.71312e-20)
(1.03768 0.0479242 -2.04774e-20)
(1.04046 0.0479457 -8.90384e-20)
(1.04333 0.0479146 -1.3344e-19)
(1.04628 0.0478247 -3.91097e-20)
(1.04932 0.0476772 5.10159e-20)
(1.05244 0.0474728 -6.30906e-20)
(1.03014 0.0469758 1.75744e-19)
(1.03277 0.0470438 -5.5092e-20)
(1.03526 0.0470942 -8.23096e-21)
(1.03793 0.0471427 -1.38783e-20)
(1.04067 0.0471461 2.39276e-20)
(1.04351 0.0471015 1.85813e-19)
(1.04643 0.0470022 -2.41564e-20)
(1.04944 0.0468485 5.40234e-21)
(1.03048 0.0462722 -1.10689e-20)
(1.0331 0.0463212 -2.80772e-20)
(1.03555 0.04635 -9.29673e-21)
(1.0382 0.046376 1.00702e-19)
(1.0409 0.0463617 5.09724e-20)
(1.04371 0.0463032 -4.01635e-20)
(1.04661 0.0461938 -5.50306e-21)
(1.04959 0.0460332 -2.82904e-20)
(1.03082 0.0455715 -4.33769e-21)
(1.03343 0.0456034 6.60533e-20)
(1.03585 0.0456146 3.16225e-20)
(1.03847 0.0456202 -5.72334e-20)
(1.04114 0.0455888 -2.67079e-20)
(1.04392 0.0455166 -5.00424e-20)
(1.04679 0.0453968 6.87335e-20)
(1.03117 0.0448711 -9.52648e-20)
(1.03377 0.0448877 -1.22648e-20)
(1.03616 0.0448848 -1.25214e-19)
(1.03875 0.0448719 1.68475e-19)
(1.0414 0.0448249 -3.98967e-20)
(1.04415 0.0447393 -8.67845e-20)
(1.04699 0.0446093 2.38249e-20)
(1.03152 0.0441688 1.23234e-19)
(1.0341 0.0441722 9.08842e-20)
(1.03646 0.0441581 8.87706e-20)
(1.03903 0.0441288 -8.42619e-20)
(1.04165 0.0440674 -5.46924e-20)
(1.04438 0.0439693 1.12868e-20)
(1.03186 0.0434633 -1.25307e-19)
(1.03443 0.0434553 -9.09934e-20)
(1.03677 0.0434323 2.14138e-20)
(1.03932 0.0433888 -7.23165e-20)
(1.04192 0.0433145 1.31636e-19)
(1.04462 0.0432047 4.64557e-21)
(1.03221 0.0427537 -2.91756e-20)
(1.03476 0.042736 -2.01669e-20)
(1.03708 0.0427058 -1.95513e-20)
(1.03961 0.0426499 3.88697e-20)
(1.04218 0.0425642 1.76388e-20)
(1.03255 0.0420393 3.05447e-20)
(1.03508 0.0420135 9.51283e-21)
(1.03739 0.0419774 1.20967e-20)
(1.0399 0.0419108 5.95677e-20)
(1.04245 0.0418151 -1.48893e-19)
(1.03289 0.0413195 -6.1841e-20)
(1.0354 0.0412869 -5.20625e-20)
(1.03769 0.0412459 7.69591e-20)
(1.04018 0.0411702 -8.36913e-20)
(1.03323 0.0405939 4.38473e-20)
(1.03572 0.0405557 2.46261e-20)
(1.038 0.0405106 -6.95445e-20)
(1.04047 0.0404271 2.39744e-20)
(1.03356 0.0398622 3.96463e-20)
(1.03603 0.0398194 4.46297e-20)
(1.0383 0.0397708 1.6908e-20)
(1.03389 0.0391242 3.62112e-20)
(1.03634 0.0390777 1.47205e-20)
(1.0386 0.0390259 -2.39811e-20)
(1.03421 0.0383796 -3.96164e-20)
(1.03664 0.0383301 -4.59388e-20)
(1.03453 0.0376283 -4.24062e-20)
(1.03484 0.0368702 3.2411e-20)
(1 0.000814139 0)
(1.00006 0.00239798 0)
(1.00019 0.00395144 0)
(1.00037 0.00547837 0)
(1.00062 0.00699303 0)
(1.00092 0.00850326 0)
(1.00127 0.0100173 0)
(1.00167 0.0115411 0)
(1.00213 0.0130806 0)
(1.00264 0.0146403 0)
(1.0032 0.0162243 0)
(1.00381 0.017836 0)
(1.00447 0.019478 0)
(1.00519 0.0211527 0)
(1.00596 0.0228616 0)
(1.00678 0.0246062 0)
(1.00766 0.0263873 0)
(1.0086 0.0282054 0)
(1.00959 0.0300607 0)
(1.01064 0.031953 0)
(1.01176 0.0338816 0)
(1.01293 0.0358452 0)
(1.01417 0.0378415 0)
(1.01547 0.0398667 0)
(1.01684 0.0419142 0)
(1.01828 0.0439743 0)
(1.01979 0.0460248 0)
(1.02139 0.0480405 0)
(1.02319 0.0498978 0)
(1.02517 0.0514027 0)
(1 0.000808387 0)
(1.00007 0.00238083 0)
(1.0002 0.00392239 0)
(1.00039 0.00543765 0)
(1.00065 0.00694052 0)
(1.00096 0.00843879 0)
(1.00132 0.00994056 0)
(1.00174 0.0114518 0)
(1.00221 0.0129782 0)
(1.00273 0.0145243 0)
(1.00331 0.0160941 0)
(1.00394 0.0176908 0)
(1.00462 0.0193172 0)
(1.00536 0.0209752 0)
(1.00615 0.0226666 0)
(1.00699 0.0243926 0)
(1.0079 0.026154 0)
(1.00885 0.0279513 0)
(1.00987 0.0297845 0)
(1.01095 0.0316534 0)
(1.01208 0.0335571 0)
(1.01328 0.0354942 0)
(1.01455 0.0374622 0)
(1.01588 0.0394574 0)
(1.01728 0.0414725 0)
(1.01875 0.0434969 0)
(1.02031 0.0455055 0)
(1.02196 0.0474615 0)
(1.02387 0.0492151 0)
(1.02592 0.0504616 0)
(1 0.000801672 0)
(1.00007 0.00236159 0)
(1.00021 0.00389003 0)
(1.00041 0.00539235 0)
(1.00067 0.00688223 0)
(1.00099 0.00836729 0)
(1.00137 0.00985545 0)
(1.0018 0.0113527 0)
(1.00229 0.0128645 0)
(1.00283 0.0143955 0)
(1.00342 0.0159494 0)
(1.00407 0.0175295 0)
(1.00477 0.0191383 0)
(1.00552 0.0207779 0)
(1.00634 0.0224499 0)
(1.0072 0.0241553 0)
(1.00812 0.0258951 0)
(1.00911 0.0276694 0)
(1.01014 0.0294783 0)
(1.01124 0.0313214 0)
(1.01241 0.0331978 0)
(1.01363 0.035106 0)
(1.01492 0.0370433 0)
(1.01628 0.0390055 0)
(1.0177 0.0409851 0)
(1.01921 0.0429696 0)
(1.02081 0.0449305 0)
(1.02251 0.0468179 0)
(1.02447 0.0484657 0)
(1.02652 0.0495263 0)
(1.00001 0.000794637 0)
(1.00007 0.00234172 0)
(1.00022 0.00385695 0)
(1.00043 0.00534627 0)
(1.0007 0.00682306 0)
(1.00103 0.00829484 0)
(1.00142 0.00976941 0)
(1.00186 0.0112527 0)
(1.00236 0.0127501 0)
(1.00292 0.014266 0)
(1.00353 0.0158042 0)
(1.00419 0.0173679 0)
(1.00491 0.0189596 0)
(1.00569 0.0205811 0)
(1.00652 0.0222341 0)
(1.00741 0.0239196 0)
(1.00835 0.0256383 0)
(1.00935 0.0273904 0)
(1.01042 0.0291759 0)
(1.01154 0.0309942 0)
(1.01272 0.0328443 0)
(1.01397 0.0347245 0)
(1.01529 0.036632 0)
(1.01667 0.0385623 0)
(1.01812 0.040507 0)
(1.01966 0.0424517 0)
(1.02129 0.044364 0)
(1.02303 0.0461827 0)
(1.02502 0.0477364 0)
(1.02704 0.0486824 0)
(1.00001 0.000787253 0)
(1.00008 0.00232101 0)
(1.00023 0.00382275 0)