/*--------------------------------*- C++ -*----------------------------------*\
  =========                 |
  \\      /  F ield         | OpenFOAM: The Open Source CFD Toolbox
   \\    /   O peration     | Website:  https://openfoam.org
    \\  /    A nd           | Version:  7
     \\/     M anipulation  |
\*---------------------------------------------------------------------------*/
FoamFile
{
    version     2.0;
    format      ascii;
    class       volScalarField;
    location    "15";
    object      p;
}
// * * * * * * * * * * * * * * * * * * * * * * * * * * * * * * * * * * * * * //

dimensions      [0 2 -2 0 0 0 0];

internalField   nonuniform List<scalar> 
2625
(
-0.0936777
-0.0927015
-0.0916829
-0.090625
-0.0895311
-0.0884042
-0.0872474
-0.0860637
-0.084856
-0.0836272
-0.0823798
-0.0811164
-0.0798396
-0.0785514
-0.0772541
-0.0759497
-0.07464
-0.0733268
-0.0720115
-0.0706957
-0.0693808
-0.0680679
-0.0667582
-0.0654528
-0.0641525
-0.0628583
-0.0615708
-0.0602908
-0.0590189
-0.0577557
-0.0565015
-0.0552568
-0.054022
-0.0527973
-0.0515829
-0.100391
-0.100423
-0.10033
-0.100175
-0.09992
-0.0995791
-0.0991566
-0.0986588
-0.098091
-0.0974576
-0.0967624
-0.0960087
-0.0951999
-0.0943388
-0.0934287
-0.0924725
-0.0914733
-0.0904343
-0.0893586
-0.0882491
-0.087109
-0.0859412
-0.0847485
-0.0835339
-0.0822998
-0.081049
-0.0797838
-0.0785064
-0.0772191
-0.0759238
-0.0746225
-0.0733169
-0.0720085
-0.0706989
-0.0693896
-0.0680816
-0.0667763
-0.0654747
-0.0641777
-0.0628863
-0.0616012
-0.0603231
-0.0590528
-0.0577907
-0.0565375
-0.0552934
-0.0540588
-0.0528342
-0.0516197
-0.099986
-0.0999445
-0.0998602
-0.0997101
-0.0994682
-0.0991444
-0.0987415
-0.0982644
-0.0977179
-0.0971059
-0.0964321
-0.0956997
-0.0949118
-0.0940713
-0.0931814
-0.0922449
-0.091265
-0.0902445
-0.0891867
-0.0880945
-0.0869709
-0.0858187
-0.084641
-0.0834404
-0.0822196
-0.0809812
-0.0797275
-0.0784609
-0.0771835
-0.0758973
-0.0746044
-0.0733063
-0.0720048
-0.0707015
-0.0693977
-0.0680947
-0.0667937
-0.0654959
-0.0642023
-0.0629136
-0.0616309
-0.0603549
-0.0590861
-0.0578253
-0.0565729
-0.0553294
-0.0540952
-0.0528707
-0.051656
-0.099574
-0.0994725
-0.0993981
-0.0992538
-0.0990241
-0.0987167
-0.0983323
-0.0978752
-0.0973493
-0.0967582
-0.0961053
-0.0953936
-0.0946263
-0.0938061
-0.092936
-0.0920189
-0.0910579
-0.0900558
-0.0890156
-0.0879404
-0.0868331
-0.0856965
-0.0845335
-0.0833469
-0.0821392
-0.080913
-0.0796708
-0.0784149
-0.0771473
-0.0758703
-0.0745856
-0.0732951
-0.0720006
-0.0707034
-0.0694051
-0.0681071
-0.0668105
-0.0655165
-0.0642262
-0.0629404
-0.0616601
-0.060386
-0.0591189
-0.0578593
-0.0566078
-0.055365
-0.0541312
-0.0529067
-0.0516919
-0.0991562
-0.0990068
-0.0989428
-0.0988051
-0.0985875
-0.0982956
-0.0979291
-0.0974912
-0.0969853
-0.0964145
-0.095782
-0.0950907
-0.0943435
-0.0935432
-0.0926926
-0.0917946
-0.0908522
-0.0898681
-0.0888454
-0.087787
-0.0866958
-0.0855745
-0.0844261
-0.0832533
-0.0820586
-0.0808447
-0.0796138
-0.0783685
-0.0771107
-0.0758427
-0.0745663
-0.0732834
-0.0719956
-0.0707047
-0.069412
-0.0681189
-0.0668266
-0.0655365
-0.0642495
-0.0629666
-0.0616887
-0.0604166
-0.059151
-0.0578927
-0.0566422
-0.0554
-0.0541666
-0.0529422
-0.0517273
-0.0987335
-0.0985471
-0.0984937
-0.0983638
-0.098158
-0.0978813
-0.097532
-0.0971127
-0.0966261
-0.0960751
-0.0954625
-0.0947911
-0.0940636
-0.0932828
-0.0924514
-0.0915722
-0.090648
-0.0896818
-0.0886763
-0.0876344
-0.086559
-0.085453
-0.084319
-0.0831598
-0.081978
-0.0807761
-0.0795566
-0.0783217
-0.0770737
-0.0758146
-0.0745465
-0.0732711
-0.0719901
-0.0707053
-0.0694182
-0.06813
-0.0668422
-0.0655558
-0.0642721
-0.0629921
-0.0617166
-0.0604465
-0.0591827
-0.0579256
-0.0566761
-0.0554345
-0.0542015
-0.0529773
-0.0517623
-0.098307
-0.0980932
-0.0980506
-0.0979294
-0.0977355
-0.0974735
-0.0971409
-0.0967395
-0.0962718
-0.09574
-0.0951468
-0.0944949
-0.0937867
-0.093025
-0.0922125
-0.0913517
-0.0904456
-0.0894968
-0.0885083
-0.0874827
-0.086423
-0.0853319
-0.0842121
-0.0830664
-0.0818973
-0.0807074
-0.0794991
-0.0782746
-0.0770362
-0.0757861
-0.0745261
-0.0732582
-0.0719841
-0.0707054
-0.0694237
-0.0681405
-0.066857
-0.0655745
-0.0642942
-0.063017
-0.061744
-0.0604759
-0.0592137
-0.0579579
-0.0567094
-0.0554685
-0.0542358
-0.0530118
-0.0517967
-0.0978777
-0.097645
-0.0976134
-0.0975017
-0.0973198
-0.0970723
-0.0967558
-0.096372
-0.0959225
-0.0954094
-0.0948352
-0.0942023
-0.0935131
-0.0927701
-0.091976
-0.0911334
-0.090245
-0.0893134
-0.0883415
-0.087332
-0.0862877
-0.0852114
-0.0841057
-0.0829733
-0.0818168
-0.0806387
-0.0794414
-0.0782273
-0.0769985
-0.0757572
-0.0745053
-0.0732448
-0.0719775
-0.0707049
-0.0694287
-0.0681504
-0.0668713
-0.0655926
-0.0643156
-0.0630413
-0.0617707
-0.0605047
-0.0592441
-0.0579897
-0.0567421
-0.0555019
-0.0542697
-0.0530458
-0.0518307
-0.0974465
-0.0972025
-0.0971819
-0.0970806
-0.0969108
-0.0966775
-0.0963769
-0.09601
-0.0955783
-0.0950835
-0.0945278
-0.0939135
-0.0932428
-0.0925182
-0.0917422
-0.0909174
-0.0900463
-0.0891316
-0.0881761
-0.0871825
-0.0861534
-0.0850916
-0.0839997
-0.0828805
-0.0817364
-0.08057
-0.0793837
-0.0781798
-0.0769604
-0.0757279
-0.0744841
-0.073231
-0.0719703
-0.0707039
-0.0694332
-0.0681597
-0.066885
-0.0656101
-0.0643364
-0.063065
-0.0617968
-0.0605328
-0.0592739
-0.0580208
-0.0567742
-0.0555348
-0.0543029
-0.0530793
-0.0518641
-0.0970147
-0.0967658
-0.0967561
-0.0966659
-0.0965084
-0.0962893
-0.0960041
-0.0956538
-0.0952393
-0.0947624
-0.0942247
-0.0936285
-0.092976
-0.0922694
-0.0915111
-0.0907037
-0.0898497
-0.0889517
-0.0880123
-0.0870342
-0.08602
-0.0849726
-0.0838944
-0.0827881
-0.0816563
-0.0805014
-0.0793259
-0.0781321
-0.0769222
-0.0756983
-0.0744625
-0.0732167
-0.0719627
-0.0707023
-0.069437
-0.0681685
-0.066898
-0.065627
-0.0643566
-0.063088
-0.0618223
-0.0605604
-0.0593031
-0.0580513
-0.0568058
-0.055567
-0.0543357
-0.0531122
-0.051897
-0.0965829
-0.0963349
-0.0963363
-0.0962577
-0.0961126
-0.0959075
-0.0956375
-0.0953033
-0.0949058
-0.0944461
-0.0939261
-0.0933477
-0.0927128
-0.0920238
-0.091283
-0.0904926
-0.0896553
-0.0887736
-0.08785
-0.0868872
-0.0858878
-0.0848544
-0.0837897
-0.0826962
-0.0815765
-0.0804331
-0.0792682
-0.0780844
-0.0768837
-0.0756685
-0.0744406
-0.073202
-0.0719546
-0.0707002
-0.0694404
-0.0681766
-0.0669105
-0.0656432
-0.0643762
-0.0631105
-0.0618472
-0.0605873
-0.0593317
-0.0580813
-0.0568367
-0.0555987
-0.0543678
-0.0531446
-0.0519294
-0.0961522
-0.09591
-0.0959224
-0.095856
-0.0957235
-0.0955322
-0.0952771
-0.0949588
-0.0945777
-0.0941349
-0.0936321
-0.093071
-0.0924535
-0.0917817
-0.0910578
-0.0902843
-0.0894634
-0.0885976
-0.0876896
-0.0867418
-0.0857568
-0.0847373
-0.0836858
-0.0826049
-0.0814971
-0.0803649
-0.0792106
-0.0780367
-0.0768452
-0.0756384
-0.0744183
-0.073187
-0.0719461
-0.0706977
-0.0694432
-0.0681843
-0.0669224
-0.0656589
-0.0643952
-0.0631323
-0.0618714
-0.0606136
-0.0593597
-0.0581106
-0.0568671
-0.0556298
-0.0543994
-0.0531763
-0.0519612
-0.0957235
-0.0954912
-0.0955146
-0.0954607
-0.095341
-0.0951634
-0.0949231
-0.0946202
-0.0942552
-0.0938289
-0.0933429
-0.0927987
-0.0921981
-0.0915431
-0.0908359
-0.0900787
-0.0892739
-0.0884238
-0.087531
-0.0865979
-0.0856272
-0.0846213
-0.0835828
-0.0825143
-0.0814183
-0.0802971
-0.0791532
-0.077989
-0.0768066
-0.0756082
-0.0743958
-0.0731716
-0.0719372
-0.0706947
-0.0694455
-0.0681913
-0.0669337
-0.065674
-0.0644135
-0.0631535
-0.061895
-0.0606392
-0.059387
-0.0581393
-0.0568968
-0.0556602
-0.0544303
-0.0532075
-0.0519924
-0.0952975
-0.0950788
-0.0951132
-0.0950721
-0.0949652
-0.0948013
-0.0945754
-0.0942877
-0.0939384
-0.0935283
-0.0930586
-0.0925308
-0.0919467
-0.0913082
-0.0906173
-0.0898761
-0.089087
-0.0882523
-0.0873744
-0.0864558
-0.085499
-0.0845065
-0.0834808
-0.0824245
-0.08134
-0.0802297
-0.0790961
-0.0779414
-0.0767679
-0.0755778
-0.0743731
-0.0731559
-0.071928
-0.0706912
-0.0694473
-0.0681979
-0.0669445
-0.0656885
-0.0644313
-0.0631741
-0.061918
-0.0606643
-0.0594137
-0.0581673
-0.0569259
-0.0556901
-0.0544606
-0.0532381
-0.052023
-0.094875
-0.0946729
-0.0947182
-0.0946902
-0.0945962
-0.0944459
-0.0942343
-0.0939614
-0.0936274
-0.093233
-0.0927793
-0.0922676
-0.0916997
-0.0910772
-0.0904022
-0.0896767
-0.0889029
-0.0880833
-0.08722
-0.0863155
-0.0853724
-0.084393
-0.0833799
-0.0823355
-0.0812623
-0.0801628
-0.0790393
-0.077894
-0.0767293
-0.0755474
-0.0743503
-0.0731399
-0.0719184
-0.0706874
-0.0694487
-0.0682039
-0.0669547
-0.0657024
-0.0644484
-0.063194
-0.0619404
-0.0606886
-0.0594398
-0.0581947
-0.0569543
-0.0557193
-0.0544904
-0.0532681
-0.0520531
-0.0944568
-0.0942739
-0.0943301
-0.0943152
-0.0942342
-0.0940973
-0.0938997
-0.0936414
-0.0933224
-0.0929434
-0.0925052
-0.0920093
-0.091457
-0.0908502
-0.0901907
-0.0894805
-0.0887218
-0.0879168
-0.0870678
-0.0861772
-0.0852474
-0.0842809
-0.0832801
-0.0822475
-0.0811855
-0.0800965
-0.0789828
-0.0778469
-0.0766909
-0.075517
-0.0743273
-0.0731238
-0.0719085
-0.0706832
-0.0694496
-0.0682095
-0.0669644
-0.0657157
-0.064465
-0.0632134
-0.0619621
-0.0607124
-0.0594652
-0.0582215
-0.0569821
-0.0557478
-0.0545194
-0.0532975
-0.0520825
-0.0940435
-0.0938818
-0.0939489
-0.0939472
-0.0938792
-0.0937557
-0.0935719
-0.0933278
-0.0930235
-0.0926594
-0.0922365
-0.0917558
-0.0912189
-0.0906273
-0.089983
-0.0892877
-0.0885437
-0.087753
-0.086918
-0.086041
-0.0851243
-0.0841704
-0.0831817
-0.0821606
-0.0811095
-0.0800308
-0.0789269
-0.0778001
-0.0766526
-0.0754866
-0.0743042
-0.0731074
-0.0718983
-0.0706786
-0.0694501
-0.0682146
-0.0669736
-0.0657285
-0.0644809
-0.0632321
-0.0619832
-0.0607355
-0.0594899
-0.0582475
-0.0570092
-0.0557757
-0.0545478
-0.0533262
-0.0521113
-0.093636
-0.093497
-0.0935751
-0.0935865
-0.0935315
-0.0934212
-0.093251
-0.0930209
-0.0927309
-0.0923814
-0.0919732
-0.0915075
-0.0909855
-0.0904088
-0.0897792
-0.0890985
-0.0883688
-0.0875922
-0.0867708
-0.085907
-0.0850031
-0.0840615
-0.0830846
-0.0820748
-0.0810344
-0.0799658
-0.0788715
-0.0777536
-0.0766145
-0.0754563
-0.0742811
-0.073091
-0.0718879
-0.0706737
-0.0694503
-0.0682192
-0.0669822
-0.0657408
-0.0644963
-0.0632502
-0.0620037
-0.0607579
-0.059514
-0.058273
-0.0570357
-0.055803
-0.0545756
-0.0533542
-0.0521394
-0.0932347
-0.0931198
-0.0932087
-0.0932332
-0.0931911
-0.0930939
-0.0929371
-0.0927207
-0.0924447
-0.0921094
-0.0917156
-0.0912644
-0.0907569
-0.0901947
-0.0895795
-0.088913
-0.0881972
-0.0874343
-0.0866262
-0.0857754
-0.084884
-0.0839544
-0.082989
-0.0819902
-0.0809603
-0.0799017
-0.0788167
-0.0777076
-0.0765767
-0.0754261
-0.074258
-0.0730744
-0.0718773
-0.0706686
-0.06945
-0.0682234
-0.0669904
-0.0657525
-0.0645111
-0.0632677
-0.0620235
-0.0607797
-0.0595374
-0.0582977
-0.0570614
-0.0558295
-0.0546027
-0.0533816
-0.0521668
-0.0928402
-0.0927504
-0.0928501
-0.0928876
-0.0928584
-0.092774
-0.0926304
-0.0924273
-0.092165
-0.0918436
-0.0914638
-0.0910267
-0.0905334
-0.0899853
-0.089384
-0.0887313
-0.0880292
-0.0872795
-0.0864844
-0.0856462
-0.084767
-0.0838492
-0.0828951
-0.081907
-0.0808873
-0.0798384
-0.0787626
-0.0776621
-0.0765392
-0.0753961
-0.074235
-0.0730577
-0.0718665
-0.0706631
-0.0694495
-0.0682272
-0.0669981
-0.0657636
-0.0645253
-0.0632846
-0.0620427
-0.0608008
-0.0595602
-0.0583217
-0.0570865
-0.0558554
-0.054629
-0.0534083
-0.0521936
-0.0924533
-0.0923891
-0.0924997
-0.0925499
-0.0925334
-0.0924617
-0.092331
-0.092141
-0.091892
-0.0915841
-0.091218
-0.0907946
-0.090315
-0.0897806
-0.0891929
-0.0885537
-0.0878647
-0.087128
-0.0863456
-0.0855196
-0.0846523
-0.0837459
-0.0828028
-0.0818253
-0.0808156
-0.0797762
-0.0787093
-0.0776172
-0.0765022
-0.0753664
-0.074212
-0.0730411
-0.0718556
-0.0706575
-0.0694486
-0.0682306
-0.0670053
-0.0657743
-0.064539
-0.0633009
-0.0620612
-0.0608213
-0.0595822
-0.0583451
-0.0571109
-0.0558805
-0.0546547
-0.0534343
-0.0522197
-0.0920744
-0.0920363
-0.0921576
-0.0922204
-0.0922164
-0.0921572
-0.0920391
-0.091862
-0.0916259
-0.0913311
-0.0909783
-0.0905682
-0.0901019
-0.0895808
-0.0890064
-0.0883802
-0.087704
-0.0869799
-0.0862098
-0.0853957
-0.08454
-0.0836448
-0.0827124
-0.0817451
-0.0807451
-0.079715
-0.0786568
-0.0775729
-0.0764656
-0.075337
-0.0741893
-0.0730245
-0.0718446
-0.0706516
-0.0694474
-0.0682336
-0.0670121
-0.0657844
-0.0645521
-0.0633165
-0.0620791
-0.0608411
-0.0596036
-0.0583678
-0.0571346
-0.0559049
-0.0546797
-0.0534595
-0.0522451
-0.0917041
-0.0916921
-0.0918241
-0.0918993
-0.0919077
-0.0918606
-0.0917549
-0.0915903
-0.0913668
-0.0910849
-0.0907449
-0.0903477
-0.0898944
-0.0893862
-0.0888245
-0.088211
-0.0875473
-0.0868354
-0.0860772
-0.0852747
-0.0844302
-0.0835458
-0.0826238
-0.0816665
-0.0806761
-0.0796549
-0.0786053
-0.0775294
-0.0764296
-0.075308
-0.0741667
-0.0730079
-0.0718335
-0.0706456
-0.0694459
-0.0682363
-0.0670185
-0.0657941
-0.0645646
-0.0633316
-0.0620964
-0.0608602
-0.0596243
-0.0583897
-0.0571575
-0.0559286
-0.0547039
-0.0534841
-0.0522698
-0.0913429
-0.091357
-0.0914996
-0.0915868
-0.0916073
-0.0915723
-0.0914786
-0.0913262
-0.091115
-0.0908454
-0.0905179
-0.0901333
-0.0896925
-0.0891968
-0.0886475
-0.0880462
-0.0873946
-0.0866945
-0.0859479
-0.0851567
-0.0843231
-0.0834492
-0.0825373
-0.0815897
-0.0806085
-0.0795961
-0.0785547
-0.0774867
-0.0763941
-0.0752793
-0.0741444
-0.0729914
-0.0718225
-0.0706394
-0.0694442
-0.0682386
-0.0670244
-0.0658032
-0.0645766
-0.0633461
-0.062113
-0.0608786
-0.0596443
-0.0584109
-0.0571797
-0.0559516
-0.0547274
-0.0535079
-0.0522938
-0.0909913
-0.0910312
-0.0911843
-0.0912833
-0.0913157
-0.0912924
-0.0912104
-0.0910698
-0.0908706
-0.090613
-0.0902976
-0.0899251
-0.0894964
-0.0890128
-0.0884755
-0.087886
-0.0872461
-0.0865575
-0.085822
-0.0850418
-0.0842187
-0.0833551
-0.082453
-0.0815147
-0.0805425
-0.0795386
-0.0785053
-0.0774448
-0.0763594
-0.0752512
-0.0741224
-0.0729751
-0.0718114
-0.0706331
-0.0694423
-0.0682406
-0.06703
-0.0658119
-0.0645881
-0.06336
-0.062129
-0.0608964
-0.0596635
-0.0584314
-0.0572012
-0.0559738
-0.0547501
-0.053531
-0.052317
-0.0906498
-0.0907151
-0.0908786
-0.0909889
-0.091033
-0.091021
-0.0909506
-0.0908214
-0.0906338
-0.0903878
-0.0900841
-0.0897233
-0.0893063
-0.0888343
-0.0883086
-0.0877307
-0.087102
-0.0864244
-0.0856998
-0.0849301
-0.0841172
-0.0832634
-0.0823709
-0.0814417
-0.0804781
-0.0794825
-0.078457
-0.0774038
-0.0763253
-0.0752236
-0.0741008
-0.072959
-0.0718004
-0.0706268
-0.0694401
-0.0682423
-0.0670351
-0.0658201
-0.064599
-0.0633733
-0.0621443
-0.0609135
-0.0596821
-0.0584512
-0.0572219
-0.0559953
-0.0547721
-0.0535532
-0.0523394
-0.0903188
-0.090409
-0.0905827
-0.0907041
-0.0907595
-0.0907586
-0.0906992
-0.0905812
-0.0904047
-0.09017
-0.0898776
-0.0895281
-0.0891224
-0.0886617
-0.0881471
-0.0875802
-0.0869624
-0.0862955
-0.0855813
-0.0848217
-0.0840188
-0.0831745
-0.0822911
-0.0813707
-0.0804155
-0.0794279
-0.0784099
-0.0773639
-0.076292
-0.0751966
-0.0740796
-0.0729432
-0.0717895
-0.0706204
-0.0694379
-0.0682438
-0.0670399
-0.0658279
-0.0646094
-0.063386
-0.062159
-0.0609299
-0.0596999
-0.0584702
-0.0572419
-0.056016
-0.0547933
-0.0535748
-0.0523611
-0.0899989
-0.0901132
-0.0902969
-0.090429
-0.0904954
-0.0905052
-0.0904566
-0.0903494
-0.0901837
-0.0899598
-0.0896782
-0.0893396
-0.0889448
-0.0884949
-0.0879911
-0.0874348
-0.0868275
-0.0861708
-0.0854667
-0.0847169
-0.0839234
-0.0830884
-0.0822138
-0.0813019
-0.0803548
-0.0793748
-0.0783642
-0.077325
-0.0762596
-0.0751702
-0.0740588
-0.0729276
-0.0717787
-0.070614
-0.0694354
-0.068245
-0.0670443
-0.0658352
-0.0646193
-0.0633981
-0.0621731
-0.0609457
-0.0597171
-0.0584885
-0.0572611
-0.0560358
-0.0548137
-0.0535955
-0.0523819
-0.0896903
-0.089828
-0.0900216
-0.0901639
-0.0902409
-0.0902612
-0.090223
-0.0901261
-0.0899708
-0.0897574
-0.0894863
-0.0891581
-0.0887738
-0.0883342
-0.0878407
-0.0872946
-0.0866973
-0.0860506
-0.0853561
-0.0846157
-0.0838314
-0.0830051
-0.0821391
-0.0812353
-0.080296
-0.0793235
-0.0783198
-0.0772873
-0.0762282
-0.0751445
-0.0740385
-0.0729124
-0.071768
-0.0706076
-0.0694329
-0.0682459
-0.0670484
-0.0658421
-0.0646287
-0.0634097
-0.0621866
-0.0609607
-0.0597335
-0.058506
-0.0572795
-0.0560549
-0.0548333
-0.0536154
-0.052402
-0.0893937
-0.0895538
-0.089757
-0.0899092
-0.0899965
-0.0900267
-0.0899985
-0.0899117
-0.0897664
-0.089563
-0.0893019
-0.0889837
-0.0886094
-0.0881798
-0.0876962
-0.0871598
-0.0865722
-0.0859349
-0.0852496
-0.0845183
-0.0837427
-0.0829249
-0.082067
-0.0811711
-0.0802393
-0.0792739
-0.078277
-0.0772508
-0.0761976
-0.0751196
-0.0740188
-0.0728975
-0.0717576
-0.0706012
-0.0694303
-0.0682467
-0.0670522
-0.0658486
-0.0646376
-0.0634206
-0.0621993
-0.0609751
-0.0597491
-0.0585228
-0.0572971
-0.0560732
-0.054852
-0.0536344
-0.0524212
-0.0891093
-0.0892908
-0.0895034
-0.0896651
-0.0897623
-0.0898021
-0.0897835
-0.0897062
-0.0895706
-0.0893767
-0.0891252
-0.0888167
-0.0884519
-0.0880318
-0.0875576
-0.0870306
-0.0864522
-0.0858239
-0.0851475
-0.0844247
-0.0836575
-0.0828479
-0.0819978
-0.0811093
-0.0801847
-0.0792261
-0.0782357
-0.0772156
-0.0761682
-0.0750955
-0.0739998
-0.072883
-0.0717474
-0.070595
-0.0694276
-0.0682472
-0.0670556
-0.0658547
-0.0646459
-0.063431
-0.0622115
-0.0609887
-0.0597641
-0.0585387
-0.0573139
-0.0560907
-0.0548699
-0.0536526
-0.0524396
-0.0888377
-0.0890395
-0.0892613
-0.089432
-0.0895385
-0.0895876
-0.0895782
-0.0895101
-0.0893836
-0.0891989
-0.0889565
-0.0886571
-0.0883014
-0.0878904
-0.0874252
-0.0869071
-0.0863374
-0.0857178
-0.0850498
-0.0843352
-0.083576
-0.0827741
-0.0819314
-0.0810501
-0.0801324
-0.0791803
-0.078196
-0.0771818
-0.0761399
-0.0750723
-0.0739813
-0.072869
-0.0717375
-0.0705888
-0.0694248
-0.0682476
-0.0670588
-0.0658603
-0.0646538
-0.0634409
-0.062223
-0.0610017
-0.0597782
-0.0585539
-0.0573299
-0.0561073
-0.054887
-0.05367
-0.0524571
-0.0885791
-0.0888002
-0.0890307
-0.08921
-0.0893256
-0.0893835
-0.0893828
-0.0893234
-0.0892056
-0.0890297
-0.088796
-0.0885053
-0.0881582
-0.0877558
-0.0872992
-0.0867895
-0.0862281
-0.0856166
-0.0849566
-0.0842499
-0.0834983
-0.0827037
-0.0818681
-0.0809936
-0.0800824
-0.0791364
-0.0781581
-0.0771494
-0.0761127
-0.07505
-0.0739636
-0.0728556
-0.0717279
-0.0705828
-0.0694221
-0.0682478
-0.0670617
-0.0658656
-0.0646612
-0.0634501
-0.0622339
-0.061014
-0.0597917
-0.0585683
-0.0573451
-0.0561231
-0.0549032
-0.0536865
-0.0524737
-0.0883341
-0.0885732
-0.0888122
-0.0889996
-0.0891237
-0.08919
-0.0891976
-0.0891465
-0.089037
-0.0888692
-0.0886438
-0.0883613
-0.0880225
-0.0876282
-0.0871796
-0.0866779
-0.0861244
-0.0855206
-0.0848682
-0.0841689
-0.0834244
-0.0826368
-0.0818079
-0.0809399
-0.0800348
-0.0790947
-0.0781219
-0.0771186
-0.0760868
-0.0750288
-0.0739467
-0.0728426
-0.0717187
-0.070577
-0.0694194
-0.0682479
-0.0670643
-0.0658705
-0.0646681
-0.0634588
-0.0622441
-0.0610255
-0.0598043
-0.0585819
-0.0573594
-0.056138
-0.0549185
-0.0537021
-0.0524894
-0.0881029
-0.0883589
-0.088606
-0.088801
-0.0889332
-0.0890074
-0.0890228
-0.0889796
-0.0888778
-0.0887179
-0.0885002
-0.0882255
-0.0878943
-0.0875077
-0.0870667
-0.0865725
-0.0860264
-0.08543
-0.0847847
-0.0840923
-0.0833546
-0.0825735
-0.081751
-0.080889
-0.0799897
-0.0790552
-0.0780877
-0.0770893
-0.0760622
-0.0750085
-0.0739305
-0.0728303
-0.0717099
-0.0705713
-0.0694167
-0.0682479
-0.0670667
-0.065875
-0.0646746
-0.0634669
-0.0622537
-0.0610363
-0.0598162
-0.0585947
-0.0573729
-0.056152
-0.054933
-0.0537168
-0.0525043
-0.0878859
-0.0881576
-0.0884124
-0.0886145
-0.0887543
-0.0888359
-0.0888587
-0.0888228
-0.0887284
-0.0885758
-0.0883654
-0.0880979
-0.087774
-0.0873946
-0.0869607
-0.0864735
-0.0859344
-0.0853448
-0.0847062
-0.0840203
-0.083289
-0.082514
-0.0816974
-0.0808411
-0.0799473
-0.079018
-0.0780554
-0.0770616
-0.0760389
-0.0749894
-0.0739153
-0.0728186
-0.0717015
-0.070566
-0.0694141
-0.0682478
-0.0670689
-0.0658792
-0.0646805
-0.0634745
-0.0622626
-0.0610465
-0.0598274
-0.0586066
-0.0573855
-0.0561651
-0.0549465
-0.0537306
-0.0525182
-0.0513101
-0.0876836
-0.0879697
-0.0882317
-0.0884405
-0.0885874
-0.0886759
-0.0887056
-0.0886766
-0.088589
-0.0884432
-0.0882396
-0.0879789
-0.0876617
-0.087289
-0.0868617
-0.0863811
-0.0858485
-0.0852652
-0.0846328
-0.083953
-0.0832276
-0.0824583
-0.0816472
-0.0807963
-0.0799075
-0.0789831
-0.0780251
-0.0770357
-0.0760171
-0.0749715
-0.0739009
-0.0728075
-0.0716935
-0.0705608
-0.0694115
-0.0682476
-0.0670708
-0.065883
-0.0646861
-0.0634815
-0.0622709
-0.0610559
-0.0598377
-0.0586177
-0.0573973
-0.0561773
-0.0549591
-0.0537434
-0.0525311
-0.0513231
-0.0874962
-0.0877954
-0.0880642
-0.0882792
-0.0884327
-0.0885276
-0.0885637
-0.088541
-0.0884598
-0.0883203
-0.088123
-0.0878685
-0.0875576
-0.0871911
-0.08677
-0.0862955
-0.0857688
-0.0851914
-0.0845647
-0.0838906
-0.0831706
-0.0824067
-0.0816007
-0.0807547
-0.0798706
-0.0789507
-0.077997
-0.0770116
-0.0759968
-0.0749547
-0.0738875
-0.0727972
-0.071686
-0.070556
-0.0694091
-0.0682473
-0.0670725
-0.0658865
-0.0646911
-0.0634879
-0.0622786
-0.0610645
-0.0598472
-0.058628
-0.0574081
-0.0561887
-0.0549707
-0.0537553
-0.0525431
-0.0513351
-0.0873241
-0.0876352
-0.0879103
-0.088131
-0.0882905
-0.0883913
-0.0884333
-0.0884165
-0.088341
-0.0882074
-0.0880159
-0.0877671
-0.0874619
-0.0871011
-0.0866856
-0.0862167
-0.0856955
-0.0851235
-0.0845021
-0.0838331
-0.0831182
-0.0823591
-0.0815578
-0.0807163
-0.0798366
-0.0789208
-0.077971
-0.0769894
-0.0759781
-0.0749393
-0.0738751
-0.0727877
-0.0716791
-0.0705515
-0.0694068
-0.068247
-0.067074
-0.0658897
-0.0646957
-0.0634938
-0.0622855
-0.0610724
-0.059856
-0.0586374
-0.057418
-0.056199
-0.0549814
-0.0537661
-0.0525541
-0.0513462
-0.0871678
-0.0874894
-0.0877703
-0.0879961
-0.0881611
-0.0882674
-0.0883147
-0.0883032
-0.088233
-0.0881046
-0.0879184
-0.0876749
-0.0873749
-0.0870192
-0.0866089
-0.086145
-0.0856288
-0.0850617
-0.0844451
-0.0837808
-0.0830704
-0.0823158
-0.0815188
-0.0806814
-0.0798056
-0.0788935
-0.0779473
-0.0769691
-0.075961
-0.0749251
-0.0738637
-0.0727789
-0.0716728
-0.0705473
-0.0694047
-0.0682467
-0.0670754
-0.0658925
-0.0646998
-0.0634991
-0.0622918
-0.0610796
-0.0598639
-0.0586459
-0.0574271
-0.0562084
-0.0549911
-0.053776
-0.0525641
-0.0513562
-0.0870274
-0.0873584
-0.0876446
-0.087875
-0.0880449
-0.088156
-0.0882081
-0.0882014
-0.088136
-0.0880123
-0.0878308
-0.087592
-0.0872967
-0.0869456
-0.0865399
-0.0860805
-0.0855688
-0.0850061
-0.0843939
-0.0837338
-0.0830275
-0.0822768
-0.0814836
-0.0806499
-0.0797777
-0.078869
-0.077926
-0.0769508
-0.0759455
-0.0749124
-0.0738535
-0.072771
-0.071667
-0.0705436
-0.0694027
-0.0682464
-0.0670766
-0.065895
-0.0647035
-0.0635038
-0.0622975
-0.0610861
-0.059871
-0.0586536
-0.0574352
-0.0562169
-0.0549998
-0.0537849
-0.0525731
-0.0513652
-0.0869034
-0.0872425
-0.0875333
-0.0877678
-0.0879421
-0.0880574
-0.0881138
-0.0881113
-0.0880501
-0.0879307
-0.0877533
-0.0875187
-0.0872275
-0.0868805
-0.0864789
-0.0860235
-0.0855157
-0.0849569
-0.0843485
-0.0836921
-0.0829894
-0.0822423
-0.0814525
-0.080622
-0.0797529
-0.0788472
-0.0779071
-0.0769345
-0.0759318
-0.0749011
-0.0738444
-0.072764
-0.0716619
-0.0705402
-0.0694009
-0.0682461
-0.0670776
-0.0658972
-0.0647068
-0.063508
-0.0623025
-0.0610917
-0.0598772
-0.0586603
-0.0574423
-0.0562243
-0.0550075
-0.0537927
-0.052581
-0.0513731
-0.086796
-0.0871421
-0.087437
-0.0876749
-0.087853
-0.0879721
-0.0880322
-0.0880333
-0.0879758
-0.0878599
-0.0876862
-0.0874552
-0.0871675
-0.0868242
-0.086426
-0.0859741
-0.0854697
-0.0849143
-0.0843092
-0.083656
-0.0829565
-0.0822123
-0.0814255
-0.0805978
-0.0797314
-0.0788283
-0.0778906
-0.0769204
-0.0759199
-0.0748912
-0.0738365
-0.0727578
-0.0716574
-0.0705372
-0.0693994
-0.0682458
-0.0670784
-0.0658991
-0.0647096
-0.0635116
-0.0623068
-0.0610966
-0.0598826
-0.0586662
-0.0574485
-0.0562308
-0.0550141
-0.0537995
-0.0525879
-0.05138
-0.0867057
-0.0870574
-0.0873558
-0.0875968
-0.087778
-0.0879002
-0.0879634
-0.0879676
-0.0879132
-0.0878004
-0.0876297
-0.0874017
-0.0871171
-0.0867766
-0.0863814
-0.0859325
-0.085431
-0.0848784
-0.084276
-0.0836256
-0.0829287
-0.0821871
-0.0814027
-0.0805775
-0.0797133
-0.0788124
-0.0778768
-0.0769085
-0.0759099
-0.0748829
-0.0738298
-0.0727526
-0.0716536
-0.0705347
-0.069398
-0.0682455
-0.0670791
-0.0659006
-0.0647119
-0.0635146
-0.0623104
-0.0611007
-0.0598872
-0.0586711
-0.0574537
-0.0562362
-0.0550197
-0.0538052
-0.0525937
-0.0513858
-0.0866327
-0.086989
-0.0872902
-0.0875335
-0.0877173
-0.0878421
-0.0879078
-0.0879145
-0.0878625
-0.0877522
-0.087584
-0.0873584
-0.0870762
-0.0867382
-0.0863454
-0.0858988
-0.0853997
-0.0848493
-0.0842492
-0.083601
-0.0829062
-0.0821667
-0.0813843
-0.080561
-0.0796987
-0.0787995
-0.0778656
-0.0768989
-0.0759017
-0.0748762
-0.0738244
-0.0727484
-0.0716505
-0.0705327
-0.069397
-0.0682453
-0.0670797
-0.0659019
-0.0647138
-0.063517
-0.0623133
-0.0611041
-0.0598909
-0.058675
-0.0574579
-0.0562406
-0.0550243
-0.0538099
-0.0525983
-0.0513905
-0.0865773
-0.0869371
-0.0872404
-0.0874856
-0.0876714
-0.087798
-0.0878656
-0.0878742
-0.0878242
-0.0877157
-0.0875493
-0.0873256
-0.0870453
-0.0867091
-0.0863181
-0.0858733
-0.0853759
-0.0848273
-0.0842289
-0.0835823
-0.0828891
-0.0821512
-0.0813703
-0.0805484
-0.0796876
-0.0787897
-0.077857
-0.0768916
-0.0758955
-0.074871
-0.0738202
-0.0727452
-0.0716482
-0.0705311
-0.0693961
-0.0682451
-0.0670801
-0.0659028
-0.0647152
-0.0635189
-0.0623155
-0.0611066
-0.0598936
-0.058678
-0.0574611
-0.0562439
-0.0550277
-0.0538134
-0.0526019
-0.051394
-0.0865398
-0.0869021
-0.0872069
-0.0874533
-0.0876404
-0.0877683
-0.0878372
-0.0878471
-0.0877983
-0.0876911
-0.087526
-0.0873035
-0.0870244
-0.0866895
-0.0862997
-0.0858561
-0.0853599
-0.0848124
-0.0842152
-0.0835697
-0.0828776
-0.0821407
-0.0813609
-0.08054
-0.0796801
-0.0787831
-0.0778513
-0.0768867
-0.0758914
-0.0748676
-0.0738175
-0.0727431
-0.0716466
-0.0705301
-0.0693956
-0.068245
-0.0670804
-0.0659035
-0.0647161
-0.0635201
-0.062317
-0.0611083
-0.0598955
-0.0586801
-0.0574632
-0.0562462
-0.05503
-0.0538157
-0.0526043
-0.0513964
-0.0865208
-0.0868845
-0.0871901
-0.0874371
-0.0876248
-0.0877534
-0.0878229
-0.0878335
-0.0877853
-0.0876787
-0.0875143
-0.0872924
-0.087014
-0.0866796
-0.0862904
-0.0858474
-0.0853519
-0.084805
-0.0842083
-0.0835634
-0.0828719
-0.0821355
-0.0813562
-0.0805358
-0.0796763
-0.0787798
-0.0778484
-0.0768842
-0.0758893
-0.0748659
-0.0738161
-0.072742
-0.0716458
-0.0705296
-0.0693953
-0.0682449
-0.0670805
-0.0659038
-0.0647166
-0.0635207
-0.0623177
-0.0611091
-0.0598965
-0.0586811
-0.0574643
-0.0562473
-0.0550312
-0.0538169
-0.0526055
-0.0513976
-0.09851
-0.0981989
-0.0978828
-0.0989957
-0.0975468
-0.0986671
-0.0972026
-0.0983316
-0.0968537
-0.097989
-0.0990314
-0.0964996
-0.0976387
-0.0986684
-0.0961406
-0.0972817
-0.0982977
-0.0996572
-0.0957777
-0.0969192
-0.0979214
-0.0992766
-0.0954116
-0.0965518
-0.0975408
-0.0988848
-0.099473
-0.0950431
-0.0961803
-0.0971572
-0.0984832
-0.0990685
-0.0946727
-0.0958054
-0.0967714
-0.0980736
-0.0986671
-0.100861
-0.094301
-0.0954277
-0.0963843
-0.0976579
-0.0982676
-0.100283
-0.0950479
-0.0959967
-0.0972376
-0.0978692
-0.0997117
-0.0946667
-0.095609
-0.0968145
-0.0974711
-0.0991486
-0.0942848
-0.0952216
-0.0963902
-0.0970728
-0.0985956
-0.0939029
-0.0948351
-0.0959659
-0.096674
-0.0980538
-0.0935215
-0.0944496
-0.095543
-0.0962747
-0.0975238
-0.0931413
-0.0940657
-0.0951225
-0.0958753
-0.0970061
-0.0927628
-0.0936836
-0.0947053
-0.0954761
-0.0965007
-0.0923867
-0.0933038
-0.0942922
-0.0950775
-0.0960078
-0.0920135
-0.0929265
-0.0938838
-0.0946802
-0.0955272
-0.0916436
-0.0925522
-0.0934807
-0.0942848
-0.0950589
-0.0912775
-0.0921813
-0.0930833
-0.0938919
-0.0946027
-0.0909157
-0.0918142
-0.092692
-0.0935021
-0.0941584
-0.0905586
-0.0914513
-0.0923072
-0.0931162
-0.0937259
-0.0902066
-0.091093
-0.0919292
-0.0927348
-0.0933051
-0.0898599
-0.0907398
-0.0915582
-0.0923585
-0.0928959
-0.0895191
-0.0903921
-0.0911945
-0.0919879
-0.092498
-0.0891843
-0.0900503
-0.0908384
-0.0916235
-0.0921116
-0.088856
-0.0897147
-0.09049
-0.0912658
-0.0917364
-0.0885344
-0.0893858
-0.0901497
-0.0909154
-0.0913725
-0.0882198
-0.089064
-0.0898176
-0.0905727
-0.0910198
-0.0879126
-0.0887495
-0.089494
-0.0902382
-0.0906783
-0.087613
-0.0884429
-0.0891791
-0.0899123
-0.0903479
-0.0873214
-0.0881444
-0.0888732
-0.0895954
-0.0900288
-0.0870379
-0.0878543
-0.0885765
-0.0892878
-0.089721
-0.0867629
-0.087573
-0.0882892
-0.08899
-0.0894244
-0.0864968
-0.0873009
-0.0880117
-0.0887022
-0.0891393
-0.0862396
-0.0870382
-0.0877442
-0.0884249
-0.0888656
-0.0859919
-0.0867852
-0.0874869
-0.0881582
-0.0886034
-0.0857538
-0.0865422
-0.0872401
-0.0879027
-0.088353
-0.0855256
-0.0863096
-0.087004
-0.0876585
-0.0881143
-0.0853077
-0.0860877
-0.0867791
-0.0874259
-0.0878876
-0.0851002
-0.0858767
-0.0865655
-0.0872054
-0.087673
-0.0849036
-0.085677
-0.0863635
-0.0869971
-0.0874707
-0.0847181
-0.0854888
-0.0861734
-0.0868014
-0.0872809
-0.084544
-0.0853125
-0.0859955
-0.0866186
-0.0871038
-0.0843817
-0.0851484
-0.0858302
-0.0864489
-0.0869397
-0.0842313
-0.0849967
-0.0856777
-0.0862928
-0.0867888
-0.0840933
-0.0848578
-0.0855383
-0.0861504
-0.0866514
-0.0839679
-0.0847321
-0.0854125
-0.0860222
-0.0865277
-0.0838555
-0.0846197
-0.0853004
-0.0859084
-0.0864182
-0.0837564
-0.0845212
-0.0852024
-0.0858093
-0.086323
-0.0836709
-0.0844367
-0.085119
-0.0857254
-0.0862426
-0.0835993
-0.0843666
-0.0850503
-0.0856569
-0.0861774
-0.0835412
-0.0843108
-0.0849965
-0.085604
-0.0861276
-0.0834977
-0.0842699
-0.084958
-0.0855671
-0.0860936
-0.0834768
-0.08425
-0.0849392
-0.0855489
-0.086077
)
;

boundaryField
{
    inlet
    {
        type            zeroGradient;
    }
    outlet
    {
        type            fixedValue;
        value           nonuniform 0();
    }
    cylinder
    {
        type            zeroGradient;
    }
    top
    {
        type            symmetryPlane;
    }
    bottom
    {
        type            symmetryPlane;
    }
    defaultFaces
    {
        type            empty;
    }
    procBoundary14to9
    {
        type            processor;
        value           nonuniform List<scalar> 
32
(
-0.0974197
-0.0970856
-0.096766
-0.0964258
-0.0960768
-0.0957249
-0.0953699
-0.0950115
-0.0946504
-0.094287
-0.093922
-0.0935558
-0.0931888
-0.0939287
-0.0939287
-0.0935562
-0.0931842
-0.0928129
-0.092443
-0.0920747