/*--------------------------------*- C++ -*----------------------------------*\
  =========                 |
  \\      /  F ield         | OpenFOAM: The Open Source CFD Toolbox
   \\    /   O peration     | Website:  https://openfoam.org
    \\  /    A nd           | Version:  7
     \\/     M anipulation  |
\*---------------------------------------------------------------------------*/
FoamFile
{
    version     2.0;
    format      ascii;
    class       surfaceScalarField;
    location    "5";
    object      phi;
}
// * * * * * * * * * * * * * * * * * * * * * * * * * * * * * * * * * * * * * //

dimensions      [0 3 -1 0 0 0 0];

internalField   nonuniform List<scalar> 
5136
(
0.00131036
-1.66172e-07
-1.84936e-07
0.0261589
0.00544328
0.0257309
0.00554723
0.0252849
0.00564791
0.0248217
0.00574383
0.00535366
0.0229289
0.0243894
0.00578598
0.00542314
0.022491
0.0239512
0.00586134
0.00548573
0.0220366
0.0235008
0.00593615
0.00554104
0.0215664
0.0230361
0.00600571
0.00510298
0.0193498
0.00558887
0.0210805
0.0225564
0.0060686
0.00512741
0.0188527
0.00562892
0.020579
0.0220611
0.00612417
0.00514372
0.0183411
0.0056608
0.020062
0.0215501
0.00617178
0.00515149
0.0178153
0.00568409
0.0195293
0.0210233
0.00621089
0.00515036
0.0172758
0.00569838
0.0189813
0.0204807
0.00624098
0.00514001
0.016723
0.00570323
0.0184181
0.0199224
0.00626157
0.00455482
0.0145805
0.00512015
0.0161576
0.00569825
0.01784
0.0193485
0.00627217
0.00451356
0.0140194
0.00509056
0.0155806
0.00568306
0.0172475
0.0187592
0.00627231
0.00446344
0.0134507
0.0050511
0.014993
0.00565737
0.0166412
0.018155
0.00626159
0.00440453
0.0128757
0.00500169
0.0143958
0.00562092
0.016022
0.0175363
0.00623964
0.004337
0.0122959
0.00494236
0.0137905
0.00557357
0.0153908
0.0169037
0.00620615
0.00426111
0.0117129
0.00487322
0.0131784
0.00551524
0.0147488
0.016258
0.00616092
0.00417718
0.0111283
0.00479451
0.012561
0.00544598
0.0140973
0.0156002
0.00610384
0.0035012
0.00921812
0.00408566
0.0105439
0.00470656
0.0119401
0.00536598
0.0134379
0.0149312
0.00603493
0.00340442
0.00868489
0.00398708
0.00996122
0.00460984
0.0113174
0.00527554
0.0127722
0.0142524
0.00595437
0.00330292
0.00815805
0.00388207
0.00938207
0.00450493
0.0106945
0.00517511
0.012102
0.013565
0.00586248
0.00319739
0.00763901
0.00377135
0.00880811
0.00439255
0.0100733
0.00506532
0.0114292
0.0128706
0.00575975
0.00308859
0.00712907
0.00365576
0.00824094
0.00427353
0.00945555
0.00494694
0.0107558
0.0121706
0.00564689
0.00297735
0.00662945
0.0035362
0.00768208
0.00414884
0.00884291
0.00482092
0.0100837
0.0114668
0.00552477
0.00286454
0.00614119
0.00341368
0.00713295
0.00401958
0.00823701
0.00468836
0.00941496
0.0107607
0.00539448
0.0027511
0.00566523
0.00328927
0.00659478
0.00388692
0.00763936
0.00455053
0.00875135
0.0100539
0.00525731
0.00263799
0.00520228
0.00316412
0.00606866
0.00375218
0.00705129
0.00440886
0.00809467
0.00934801
0.00511474
0.00252621
0.00475289
0.00303943
0.00555544
0.00361675
0.00647396
0.0042649
0.00744653
0.00864447
0.00496843
0.00241679
0.00431741
0.00291645
0.00505578
0.0034821
0.00590831
0.00412033
0.00680829
0.0079446
0.00482021
0.00231074
0.00389594
0.00279645
0.00457008
0.00334973
0.00535503
0.00397695
0.00618108
0.00724952
0.00467203
0.0022091
0.00348838
0.00268072
0.00409846
0.00322121
0.00481453
0.00383659
0.0055657
0.00656015
0.00452596
0.00211287
0.00309441
0.00257053
0.00364079
0.00309811
0.00428695
0.00370116
0.00496265
0.00587716
0.00438415
0.00164208
0.00228846
0.00202304
0.00271345
0.00246715
0.00319668
0.00298197
0.00377214
0.00357255
0.00437206
0.00520098
0.00424874
0.00157181
0.00197536
0.00194053
0.00234473
0.00237177
0.00276543
0.00287429
0.00326962
0.00345263
0.00379372
0.00453174
0.00412187
0.00150875
0.00167263
0.00186623
0.00198725
0.00228554
0.00234612
0.00277652
0.00277864
0.00334319
0.00322706
0.00386932
0.00400561
0.00145349
0.00137911
0.00180093
0.00163981
0.0022095
0.00193756
0.00268998
0.00229816
0.0032459
0.00267114
0.00321332
0.00390189
0.00140659
0.0010935
0.00174536
0.00130104
0.00214459
0.00153832
0.00261588
0.00182687
0.0031623
0.00212472
0.00256311
0.00381251
0.00136849
0.000814356
0.00170012
0.000969406
0.00209164
0.00114681
0.00255527
0.00136323
0.00309371
0.00158628
0.00191782
0.003739
0.00133957
0.000540168
0.00166574
0.000643239
0.00205131
0.000761238
0.00250902
0.000905519
0.00304126
0.00105405
0.00127639
0.00368268
0.00132013
0.000269324
0.00164259
0.000320777
0.00202413
0.000379701
0.00247781
0.000451845
0.0030058
0.000526059
0.00063763
0.00364456
0.00131036
0.00163095
0.00201045
0.00246208
0.00298791
0.00362532
-0.00504643
0.00244586
-0.00512062
0.00241749
0.00231612
-0.00510475
-0.00519389
0.00238939
0.00228921
-0.0051759
-0.00526624
0.00236155
0.00219231
-0.00515219
0.00226255
-0.00524614
-0.00533765
0.00233396
0.00216681
-0.00522032
0.00223614
-0.00531547
-0.00540811
0.0023066
0.00214156
-0.00528754
0.00220998
-0.00538389
-0.00547758
0.00227945
0.00205025
-0.00525284
0.00211655
-0.00535385
0.00218405
-0.00545138
-0.005546
0.00225246
0.00202639
-0.00531719
0.00209178
-0.00541923
0.00215832
-0.00551793
-0.00561326
0.00222559
0.00193929
-0.00527477
0.00200278
-0.00538068
0.00206723
-0.00548368
0.00213279
-0.00558349
-0.00567922
0.00219875
0.00191684
0.00197944
0.00204299
0.0021074
0.00217202
0.0022261
0.000616015
0.00221622
0.000615122
0.00220646
0.00061273
0.00219686
0.000608815
0.00218744
0.000603365
0.00217821
0.000596381
0.00216921
0.00058788
0.00216045
0.000577894
0.00215195
0.00056647
0.00214374
0.000553673
0.00213582
0.000539581
0.00212821
0.000524288
0.00212092
0.000507902
0.00211396
0.000490543
0.00210734
0.000472339
0.00210106
0.000453428
0.000433951
0.00247018
0.000211021
0.00246512
0.00022907
0.00245949
0.000247384
0.00245346
0.000265485
0.00244712
0.000283275
0.00244054
0.000300786
0.00243375
0.000318089
0.00242675
0.000335241
0.00241955
0.000352271
0.00241214
0.00036919
0.00240452
0.000385989
0.00239669
0.000402646
0.00238865
0.000419129
0.00238041
0.000435402
0.00237197
0.000451419
0.00236333
0.000467131
0.00235451
0.000482487
0.0023455
0.000497429
0.00233633
0.000511899
0.00232701
0.000525831
0.00231753
0.000539162
0.00230793
0.000551821
0.00229821
0.000563739
0.00228839
0.000574841
0.00227848
0.000585054
0.00226851
0.000594302
0.00225848
0.000602508
0.00224843
0.000609599
0.00223838
0.0006155
0.00222834
0.000620142
0.00221833
0.000623458
0.00220839
0.000625386
0.00219853
0.000625873
0.00218878
0.000624872
0.00217916
0.000622349
0.0021697
0.000618279
0.00216041
0.000612651
0.00215133
0.000605466
0.00214247
0.000596742
0.00213385
0.000586513
0.00212549
0.000574828
0.00211741
0.000561751
0.00210963
0.000547364
0.00210215
0.000531764
0.002095
0.000515058
0.00208817
0.000497371
0.00208167
0.000478833
0.00207552
0.000459584
0.000439767
0.00244144
0.00021544
0.00243624
0.000234278
0.00243046
0.000253158
0.00242431
0.000271633
0.00241791
0.000289682
0.00241129
0.000307401
0.00240449
0.000324895
0.00239749
0.000342236
0.0023903
0.000359461
0.00238291
0.000376579
0.00237532
0.00039358
0.00236753
0.00041044
0.00235953
0.000427125
0.00235134
0.000443597
0.00234295
0.000459809
0.00233437
0.000475711
0.00232561
0.000491248
0.00231667
0.000506364
0.00230758
0.000520996
0.00229833
0.000535081
0.00228894
0.000548551
0.00227942
0.000561338
0.00226979
0.000573367
0.00226007
0.000584566
0.00225026
0.000594859
0.0022404
0.000604169
0.00223049
0.000612419
0.00222055
0.000619533
0.00221061
0.000625437
0.0022007
0.00063006
0.00219082
0.000633335
0.00218101
0.0006352
0.00217128
0.0006356
0.00216166
0.000634489
0.00215218
0.000631833
0.00214285
0.000627606
0.0021337
0.000621798
0.00212476
0.000614412
0.00211603
0.000605465
0.00210755
0.000594994
0.00209934
0.000583047
0.00209139
0.000569692
0.00208375
0.000555012
0.00207641
0.000539105
0.00206938
0.000522083
0.00206268
0.00050407
0.00205631
0.000485201
0.00205028
0.000465618
0.000445465
0.00241296
0.000219974
0.00240757
0.000239665
0.00240164
0.000259089
0.00239538
0.000277889
0.00238891
0.00029615
0.00238227
0.000314042
0.00237546
0.000331705
0.00236848
0.000349221
0.00236131
0.00036663
0.00235395
0.000383939
0.00234639
0.000401136
0.00233864
0.000418193
0.00233069
0.000435076
0.00232254
0.000451742
0.00231421
0.000468144
0.00230569
0.00048423
0.00229699
0.000499944
0.00228813
0.000515228
0.00227911
0.000530018
0.00226994
0.00054425
0.00226063
0.000557856
0.00225121
0.000570764
0.00224167
0.000582901
0.00223205
0.000594192
0.00222235
0.00060456
0.00221259
0.000613927
0.00220279
0.000622216
0.00219297
0.00062935
0.00218316
0.000635254
0.00217336
0.000639855
0.00216361
0.000643086
0.00215393
0.000644884
0.00214433
0.000645195
0.00213485
0.000643972
0.0021255
0.00064118
0.00211631
0.000636796
0.0021073
0.000630807
0.0020985
0.000623219
0.00208991
0.00061405
0.00208157
0.000603335
0.00207349
0.000591128
0.00206569
0.000577496
0.00205817
0.000562525
0.00205097
0.000546313
0.00204407
0.000528977
0.0020375
0.000510642
0.00203126
0.000491445
0.00202534
0.00047153
0.000451046
0.0023847
0.000224662
0.0023791
0.000245263
0.00237301
0.000265185
0.00236665
0.000284244
0.00236014
0.000302666
0.00235348
0.000320698
0.00234668
0.000338508
0.00233971
0.000356187
0.00233257
0.000373771
0.00232525
0.000391266
0.00231773
0.000408653
0.00231002
0.000425903
0.00230212
0.000442978
0.00229403
0.000459834
0.00228575
0.000476421
0.00227729
0.000492686
0.00226866
0.000508572
0.00225987
0.000524019
0.00225093
0.000538963
0.00224184
0.000553337
0.00223262
0.000567073
0.00222329
0.000580098
0.00221385
0.000592337
0.00220433
0.000603716
0.00219473
0.000614155
0.00218508
0.000623576
0.0021754
0.0006319
0.0021657
0.00063905
0.00215601
0.000644949
0.00214634
0.000649525
0.00213671
0.000652709
0.00212716
0.000654438
0.0021177
0.000654657
0.00210835
0.00065332
0.00209914
0.000650392
0.00209009
0.000645848
0.00208121
0.000639678
0.00207255
0.000631887
0.0020641
0.000622495
0.0020559
0.000611539
0.00204795
0.000599072
0.00204028
0.000585164
0.00203291
0.000569903
0.00202583
0.00055339
0.00201907
0.000535742
0.00201262
0.000517087
0.0020065
0.000497565
0.00200071
0.000477322
0.00045651
0.00235666
0.000229554
0.00235082
0.000251103
0.00234456
0.000271447
0.00233812
0.000290685
0.00233157
0.000309212
0.00232492
0.000327352
0.00231813
0.000345292
0.0023112
0.000363123
0.00230409
0.000380877
0.0022968
0.000398552
0.00228933
0.000416125
0.00228167
0.000433564
0.00227382
0.000450828
0.00226578
0.000467869
0.00225757
0.000484637
0.00224918
0.000501077
0.00224062
0.00051713
0.0022319
0.000532735
0.00222304
0.000547828
0.00221403
0.00056234
0.00220491
0.000576201
0.00219567
0.000589338
0.00218633
0.000601676
0.00217691
0.000613137
0.00216742
0.000623643
0.00215788
0.000633113
0.00214831
0.000641469
0.00213873
0.000648631
0.00212916
0.000654522
0.00211961
0.000659069
0.00211012
0.000662203
0.0021007
0.000663861
0.00209137
0.000663986
0.00208215
0.000662534
0.00207308
0.000659467
0.00206416
0.000654763
0.00205543
0.000648411
0.0020469
0.000640417
0.00203859
0.000630803
0.00203053
0.000619605
0.00202272
0.000606879
0.00201519
0.000592698
0.00200794
0.000577148
0.00200099
0.000560335
0.00199436
0.000542378
0.00198804
0.000523406
0.00198204
0.000503562
0.00197637
0.000482996
0.00046186
0.0023288
0.000234711
0.00232269
0.000257214
0.00231627
0.000277866
0.00230977
0.000297188
0.00230322
0.000315766
0.00229658
0.000333987
0.00228983
0.000352045
0.00228293
0.000370023
0.00227586
0.000387942
0.00226862
0.000405793
0.0022612
0.00042355
0.00225359
0.000441174
0.00224579
0.000458622
0.00223782
0.000475845
0.00222967
0.00049279
0.00222134
0.0005094
0.00221286
0.000525616
0.00220422
0.000541375
0.00219543
0.000556611
0.00218652
0.000571256
0.00217748
0.000585238
0.00216834
0.000598483
0.0021591
0.000610915
0.00214978
0.000622454
0.0021404
0.000633022
0.00213097
0.000642538
0.00212152
0.000650921
0.00211206
0.000658092
0.00210261
0.000663972
0.00209319
0.000668488
0.00208383
0.000671569
0.00207453
0.000673153
0.00206534
0.000673182
0.00205626
0.000671612
0.00204732
0.000668406
0.00203854
0.00066354
0.00202995
0.000657006
0.00202156
0.00064881
0.00201339
0.000638973
0.00200546
0.000627534
0.00199779
0.000614551
0.00199039
0.000600097
0.00198327
0.000584261
0.00197646
0.000567151
0.00196995
0.000548886
0.00196375
0.000529601
0.00195788
0.000509439
0.00195232
0.000488552
0.000467096
0.0023011
0.000240211
0.0022947
0.000263618
0.00228815
0.000284417
0.00228161
0.000303723
0.00227507
0.000322305
0.00226847
0.000340588
0.00226176
0.000358755
0.00225491
0.000376876
0.00224789
0.000394958
0.0022407
0.000412984
0.00223333
0.000430922
0.00222578
0.000448729
0.00221804
0.000466358
0.00221013
0.000483759
0.00220204
0.000500876
0.00219379
0.000517652
0.00218538
0.000534027
0.00217682
0.000549935
0.00216812
0.000565311
0.00215929
0.000580084
0.00215034
0.000594183
0.0021413
0.000607531
0.00213216
0.000620052
0.00212295
0.000631666
0.00211368
0.000642292
0.00210437
0.00065185
0.00209503
0.000660256
0.00208569
0.000667432
0.00207636
0.000673298
0.00206707
0.00067778
0.00205784
0.000680806
0.00204868
0.000682313
0.00203961
0.000682245
0.00203067
0.000680556
0.00202187
0.000677208
0.00201323
0.000672181
0.00200477
0.000665464
0.00199651
0.000657065
0.00198848
0.000647006
0.00198069
0.000635328
0.00197315
0.000622088
0.00196588
0.000607363
0.0019589
0.000591243
0.00195222
0.000573838
0.00194583
0.000555269
0.00193976
0.000535673
0.001934
0.000515196
0.00192856
0.000493992
0.00047222
0.00227352
0.000246143
0.00226682
0.000270317
0.00226017
0.000291063
0.00225365
0.000310251
0.00224715
0.0003288
0.0022406
0.000347135
0.00223395
0.000365411
0.00222715
0.000383675
0.00222018
0.000401921
0.00221305
0.000420122
0.00220573
0.000438238
0.00219823
0.000456225
0.00219056
0.000474033
0.00218271
0.000491608
0.00217469
0.000508894
0.00216651
0.000525832
0.00215818
0.000542361
0.0021497
0.000558414
0.00214109
0.000573925
0.00213235
0.000588822
0.0021235
0.000603033
0.00211455
0.00061648
0.00210551
0.000629086
0.00209641
0.00064077
0.00208725
0.000651451
0.00207805
0.000661046
0.00206884
0.000669474
0.00205962
0.000676651
0.00205042
0.0006825
0.00204125
0.000686944
0.00203214
0.000689913
0.00202312
0.000691342
0.00201419
0.000691174
0.00200538
0.000689364
0.00199671
0.000685875
0.00198821
0.000680685
0.00197989
0.000673785
0.00197177
0.000665183
0.00196387
0.000654903
0.00195621
0.000642986
0.00194881
0.000629491
0.00194168
0.000614496
0.00193483
0.000598095
0.00192827
0.000580397
0.00192201
0.000561527
0.00191606
0.000541624
0.00191042
0.000520835
0.00190509
0.000499317
0.000477232
0.002246
0.000252609
0.00223903
0.000277285
0.00223235
0.000297741
0.00222588
0.000316726
0.00221945
0.000335226
0.00221297
0.000353614
0.00220638
0.000372004
0.00219964
0.000390415
0.00219274
0.000408826
0.00218566
0.000427201
0.0021784
0.000445496
0.00217096
0.000463661
0.00216335
0.000481644
0.00215557
0.00049939
0.00214762
0.000516841
0.00213952
0.000533938
0.00213126
0.000550616
0.00212287
0.000566811
0.00211434
0.000582452
0.00210569
0.000597469
0.00209694
0.000611787
0.00208809
0.000625329
0.00207916
0.000638016
0.00207016
0.000649767
0.00206112
0.000660498
0.00205203
0.000670128
0.00204294
0.000678572
0.00203384
0.000685748
0.00202476
0.000691576
0.00201573
0.000695981
0.00200675
0.00069889
0.00199785
0.000700238
0.00198906
0.00069997
0.00198038
0.000698038
0.00197185
0.000694406
0.00196349
0.000689052
0.0019553
0.000681969
0.00194732
0.000673165
0.00193956
0.000662664
0.00193203
0.000650509
0.00192476
0.000636761
0.00191776
0.000621499
0.00191104
0.000604817
0.00190461
0.000586829
0.00189847
0.000567661
0.00189264
0.000547453
0.00188712
0.000526357
0.00188191
0.000504529
0.000482135
0.00221848
0.000259722
0.00221132
0.000284444
0.00220469
0.000304368
0.00219832
0.000323098
0.00219199
0.000341557
0.00218559
0.000360012
0.00217907
0.000378525
0.00217239
0.00039709
0.00216555
0.00041567
0.00215853
0.00043422
0.00215133
0.000452692
0.00214396
0.000471033
0.00213642
0.000489189
0.0021287
0.000507103
0.00212083
0.000524716
0.0021128
0.000541967
0.00210463
0.000558791
0.00209631
0.000575122
0.00208788
0.00059089
0.00207932
0.000606022
0.00207067
0.000620444
0.00206192
0.000634076
0.00205309
0.00064684
0.00204421
0.000658653
0.00203527
0.000669432
0.00202631
0.000679092
0.00201733
0.00068755
0.00200836
0.000694722
0.00199941
0.000700527
0.0019905
0.000704889
0.00198165
0.000707737
0.00197289
0.000709003
0.00196422
0.000708632
0.00195568
0.000706576
0.00194729
0.000702801
0.00193906
0.000697284
0.00193101
0.000690018
0.00192316
0.000681011
0.00191554
0.00067029
0.00190815
0.000657899
0.00190101
0.000643899
0.00189414
0.000628371
0.00188754
0.000611412
0.00188123
0.000593136
0.00187522
0.000573673
0.00186951
0.000553164
0.0018641
0.000531763
0.001859
0.000509629
0.00048693
0.00219086
0.000267608
0.00218368
0.000291631
0.0021772
0.000310841
0.00217098
0.000329321
0.00216476
0.000347773
0.00215846
0.000366318
0.00215201
0.00038497
0.00214541
0.000403696
0.00213863
0.000422449
0.00213167
0.000441176
0.00212454
0.000459825
0.00211723
0.00047834
0.00210975
0.000496666
0.00210211
0.000514745
0.00209431
0.000532516
0.00208636
0.000549917
0.00207827
0.000566884
0.00207004
0.000583347
0.0020617
0.000599238
0.00205324
0.000614481
0.00204468
0.000629002
0.00203603
0.000642721
0.00202732
0.000655558
0.00201854
0.00066743
0.00200972
0.000678252
0.00200087
0.000687939
0.00199202
0.000696407
0.00198316
0.000703572
0.00197434
0.000709352
0.00196556
0.00071367
0.00195684
0.000716453
0.00194821
0.000717635
0.00193968
0.00071716
0.00193128
0.000714981
0.00192302
0.000711061
0.00191492
0.00070538
0.00190701
0.000697931
0.0018993
0.000688723
0.0018918
0.000677783
0.00188455
0.000665156
0.00187754
0.000650906
0.0018708
0.000635115
0.00186433
0.00061788
0.00185814
0.00059932
0.00185225
0.000579564
0.00184666
0.000558757
0.00184137
0.000537055
0.00183638
0.000514619
0.000491619
0.00216298
0.00027664
0.00215613
0.000298482
0.00214993
0.000317044
0.00214389
0.000335361
0.0021378
0.000353863
0.00213159
0.00037253
0.00212522
0.000391336
0.00211868
0.000410233
0.00211197
0.000429162
0.00210508
0.000448067
0.00209801
0.000466892
0.00209077
0.00048558
0.00208336
0.000504074
0.00207579
0.000522314
0.00206807
0.00054024
0.0020602
0.000557788
0.00205219
0.000574893
0.00204405
0.000591485
0.0020358
0.000607493
0.00202744
0.000622844
0.00201898
0.00063746
0.00201044
0.000651262
0.00200183
0.000664168
0.00199316
0.000676095
0.00198446
0.000686957
0.00197573
0.000696669
0.00196699
0.000705144
0.00195826
0.000712299
0.00194957
0.00071805
0.00194091
0.000722321
0.00193233
0.000725039
0.00192383
0.000726136
0.00191543
0.000725555
0.00190716
0.000723251
0.00189904
0.000719187
0.00189107
0.000713342
0.0018833
0.00070571
0.00187572
0.000696301
0.00186836
0.000685143
0.00186123
0.000672282
0.00185436
0.000657784
0.00184774
0.00064173
0.0018414
0.000624223
0.00183534
0.000605381
0.00182956
0.000585336
0.00182409
0.000564234
0.00181891
0.000542234
0.00181403
0.0005195
0.000496202
0.00576709
0.000295526
0.00575035
0.000315226
0.00573269
0.000334702
0.00571476
0.000353296
0.00569663
0.000371987
0.00567831
0.000390859
0.00565984
0.0004098
0.00564131
0.000428769
0.00562275
0.000447722
0.00560421
0.000466607
0.00558573
0.000485368
0.00556736
0.000503951
0.00554913
0.0005223
0.00553109
0.000540355
0.00551328
0.000558054
0.00549573
0.000575334
0.0054785
0.000592128
0.00546162
0.000608366
0.00544513
0.000623978
0.00542909
0.000638887
0.00541353
0.000653016
0.00539851
0.000666285
0.00538407
0.000678611
0.00537025
0.000689911
0.00535711
0.000700098
0.00534469
0.000709087
0.00533304
0.000716794
0.00532221
0.000723134
0.00531223
0.000728028
0.00530315
0.000731399
0.00529501
0.000733177
0.00528785
0.0007333
0.00528169
0.000731715
0.00527656
0.000728379
0.00527248
0.000723263
0.00526947
0.000716351
0.00526754
0.000707644
0.00526668
0.000697158
0.0052669
0.000684929
0.00526817
0.000671009
0.00527048
0.000655471
0.00527381
0.000638404
0.00527812
0.000619915
0.00528337
0.000600128
0.00528953
0.000579182
0.00529653
0.000557226
0.00530435
0.000534422
0.00531291
0.000510936
0.000486941
0.00584227
0.000314594
0.00582471
0.000332785
0.0058068
0.000352613
0.0057884
0.000371698
0.00576972
0.000390663
0.00575083
0.00040975
0.00573178
0.000428848
0.00571265
0.000447903
0.00569348
0.000466884
0.00567434
0.000485746
0.00565528
0.000504437
0.00563632
0.000522906
0.00561753
0.000541094
0.00559894
0.000558946
0.00558059
0.0005764
0.00556253
0.000593391
0.00554481
0.000609852
0.00552746
0.000625715
0.00551053
0.000640906
0.00549407
0.000655351
0.00547811
0.00066897
0.00546272
0.000681682
0.00544792
0.000693406
0.00543378
0.000704056
0.00542033
0.000713547
0.00540762
0.000721795
0.0053957
0.000728714
0.00538461
0.000734223
0.00537439
0.000738244
0.00536509
0.000740702
0.00535674
0.000741531
0.00534937
0.000740671
0.00534301
0.000738075
0.00533768
0.000733705
0.00533341
0.000727536
0.0053302
0.00071956
0.00532806
0.000709783
0.00532699
0.000698228
0.00532698
0.000684937
0.00532802
0.000669971
0.00533008
0.000653408
0.00533314
0.000635344
0.00533716
0.000615893
0.00534211
0.000595183
0.00534793
0.000573358
0.00535459
0.000550572
0.00536202
0.000526988
0.00537018
0.000502776
0.000478109
0.00591648
0.000334264
0.00589716
0.00035211
0.00587792
0.000371846
0.00585851
0.000391111
0.00583895
0.000410224
0.00581928
0.000429421
0.00579953
0.000448599
0.00577974
0.000467689
0.00575997
0.00048666
0.00574025
0.000505465
0.00572063
0.000524055
0.00570116
0.000542378
0.00568187
0.000560379
0.00566282
0.000577999
0.00564404
0.000595178
0.00562558
0.000611851
0.00560748
0.000627953
0.00558978
0.000643413
0.00557253
0.000658157
0.00555577
0.00067211
0.00553955
0.000685194
0.0055239
0.000697326
0.00550888
0.000708424
0.00549454
0.000718403
0.00548091
0.000727179
0.00546803
0.000734667
0.00545597
0.000740782
0.00544474
0.000745446
0.0054344
0.000748581
0.00542499
0.000750117
0.00541653
0.00074999
0.00540906
0.000748144
0.0054026
0.000744536
0.00539717
0.000739133
0.00539279
0.000731917
0.00538947
0.000722884
0.0053872
0.000712047
0.00538599
0.000699437
0.00538583
0.000685102
0.00538669
0.000669108
0.00538856
0.000651542
0.0053914
0.000632505
0.00539517
0.000612116
0.00539985
0.00059051
0.00540537
0.000567834
0.0054117
0.000544246
0.00541877
0.000519913
0.00542654
0.000495005
0.00598507
0.000354904
0.00596458
0.000372599
0.00594422
0.000392204
0.00592383
0.000411501
0.0059034
0.000430658
0.00588294
0.000449876
0.00586249
0.000469056
0.00584206
0.000488119
0.00582169
0.000507024
0.00580143
0.000525726
0.00578131
0.000544173
0.00576138
0.000562311
0.00574167
0.000580086
0.00572223
0.000597439
0.0057031
0.00061431
0.00568432
0.000630635
0.00566593
0.000646346
0.00564797
0.000661373
0.00563048
0.000675642
0.00561351
0.000689078
0.00559711
0.000701601
0.0055813
0.000713129
0.00556615
0.000723579
0.00555168
0.000732867
0.00553796
0.000740908
0.00552501
0.000747618
0.00551287
0.000752915
0.0055016
0.00075672
0.00549122
0.00075896
0.00548177
0.000759565
0.00547329
0.000758475
0.00546579
0.000755641
0.0054593
0.00075102
0.00545385
0.000744588
0.00544944
0.00073633
0.00544607
0.000726249
0.00544375
0.000714365
0.00544248
0.000700714
0.00544223
0.000685352
0.00544298
0.000668351
0.00544472
0.000649803
0.00544741
0.000629817
0.00545101
0.000608517
0.00545548
0.000586042
0.00546077
0.000562544
0.00546683
0.000538184
0.00547361
0.000513132
0.000487559
0.0060471
0.000376409
0.0060257
0.000393994
0.0060044
0.000413504
0.00598313
0.000432774
0.00596189
0.000451898
0.00594071
0.000471058
0.0059196
0.000490164
0.00589859
0.000509129
0.00587771
0.000527906
0.00585699
0.000546446
0.00583646
0.000564696
0.00581617
0.000582602
0.00579615
0.000600107
0.00577644
0.000617152
0.00575707
0.000633678
0.00573809
0.000649618
0.00571953
0.000664905
0.00570143
0.000679469
0.00568384
0.000693235
0.00566679
0.000706126
0.00565033
0.000718063
0.0056345
0.000728963
0.00561933
0.000738744
0.00560488
0.000747321
0.00559117
0.00075461
0.00557826
0.000760528
0.00556619
0.000764993
0.00555498
0.00076793
0.00554467
0.000769266
0.0055353
0.000768935
0.00552689
0.000766881
0.00551948
0.000763057
0.00551307
0.000757429
0.00550768
0.000749972
0.00550333
0.000740682
0.00550002
0.000729565
0.00549773
0.000716648
0.00549647
0.000701974
0.00549622
0.000685604
0.00549695
0.000667618
0.00549864
0.000648114
0.00550125
0.000627205
0.00550475
0.000605022
0.00550908
0.000581709
0.00551421
0.00055742
0.00552007
0.000532321
0.00552662
0.000506582
0.000480379
0.00610195
0.000398623
0.00607984
0.000416105
0.0060578
0.000435552
0.0060358
0.000454767
0.0060139
0.000473804
0.00599211
0.000492847
0.00597046
0.000511811
0.00594898
0.000530611
0.00592769
0.000549196
0.00590662
0.000567514
0.00588581
0.000585511
0.00586528
0.000603132
0.00584506
0.000620319
0.0058252
0.000637013
0.00580573
0.000653151
0.00578668
0.000668668
0.00576809
0.000683497
0.00574999
0.000697564
0.00573243
0.000710796
0.00571544
0.000723115
0.00569906
0.000734441
0.00568334
0.000744691
0.0056683
0.000753782
0.00565399
0.00076163
0.00564045
0.000768151
0.00562771
0.000773263
0.00561582
0.000776887
0.0056048
0.000778947
0.0055947
0.000779373
0.00558553
0.000778104
0.00557732
0.000775087
0.0055701
0.000770278
0.00556388
0.000763647
0.00555868
0.000755177
0.00555449
0.000744866
0.00555133
0.000732729
0.00554918
0.000718798
0.00554803
0.000703122
0.00554787
0.000685769
0.00554866
0.000666825
0.00555038
0.000646392
0.005553
0.000624592
0.00555646
0.000601558
0.00556073
0.000577439
0.00556576
0.000552395
0.00557149
0.000526592
0.00557787
0.000500204
0.000473406
0.006149
0.000421398
0.00612635
0.000438759
0.00610376
0.000458147
0.00608124
0.000477285
0.00605885
0.000496194
0.00603663
0.000515069
0.0060146
0.000533838
0.0059928
0.000552414
0.00597125
0.000570747
0.00594997
0.000588786
0.00592901
0.000606476
0.00590838
0.000623759
0.00588812
0.000640579
0.00586826
0.000656875
0.00584883
0.000672584
0.00582985
0.000687639
0.00581138
0.000701972
0.00579343
0.00071551
0.00577605
0.000728178
0.00575927
0.000739898
0.00574312
0.000750587
0.00572765
0.000760165
0.00571288
0.000768547
0.00569886
0.000775649
0.00568563
0.000781388
0.00567321
0.000785683
0.00566164
0.000788456
0.00565095
0.000789634
0.00564117
0.000789149
0.00563233
0.000786943
0.00562446
0.000782965
0.00561756
0.000777178
0.00561165
0.000769555
0.00560674
0.000760085
0.00560283
0.000748771
0.00559993
0.000735634
0.00559802
0.000720711
0.00559708
0.000704059
0.0055971
0.00068575
0.00559805
0.000665878
0.00559989
0.00064455
0.00560259
0.000621892
0.0056061
0.000598044
0.00561038
0.000573158
0.00561538
0.000547396
0.00562104
0.000520929
0.00562732
0.000493932
0.0061877
0.000444586
0.00616467
0.000461789
0.00614172
0.000481097
0.00611888
0.000500127
0.0060962
0.000518869
0.00607374
0.000537532
0.00605152
0.000556055
0.00602958
0.000574357
0.00600794
0.000592385
0.00598664
0.000610091
0.00596569
0.000627421
0.00594514
0.000644317
0.00592499
0.000660722
0.00590529
0.000676575
0.00588607
0.000691812
0.00586734
0.000706367
0.00584914
0.000720169
0.00583151
0.000733146
0.00581446
0.00074522
0.00579805
0.000756312
0.00578229
0.000766342
0.00576723
0.000775227
0.0057529
0.000782882
0.00573932
0.000789223
0.00572654
0.000794169
0.00571459
0.000797638
0.00570349
0.000799555
0.00569328
0.000799848
0.00568397
0.000798452
0.0056756
0.000795313
0.00566819
0.000790383
0.00566173
0.000783629
0.00565626
0.000775028
0.00565177
0.000764575
0.00564826
0.000752279
0.00564573
0.000738165
0.00564417
0.000722278
0.00564355
0.000704679
0.00564385
0.000685447
0.00564505
0.000664682
0.0056471
0.000642495
0.00564997
0.000619019
0.00565362
0.000594397
0.00565799
0.000568786
0.00566304
0.000542349
0.00566871
0.000515262
0.0004877
0.00621754
0.000468025
0.00619431
0.000485022
0.0061712
0.000504211
0.00614823
0.000523092
0.00612548
0.000541623
0.00610298
0.000560029
0.00608078
0.00057826
0.0060589
0.000596236
0.00603737
0.00061391
0.00601623
0.000631233
0.0059955
0.000648154
0.0059752
0.000664615
0.00595536
0.00068056
0.00593601
0.000695928
0.00591717
0.000710654
0.00589886
0.000724671
0.00588112
0.000737909
0.00586398
0.000750292
0.00584745
0.000761744
0.00583158
0.000772185
0.00581639
0.000781534
0.00580191
0.000789706
0.00578817
0.000796618
0.00577521
0.000802186
0.00576305
0.000806329
0.00575172
0.000808967
0.00574125
0.000810025
0.00573166
0.000809434
0.00572298
0.000807133
0.00571523
0.000803068
0.00570841
0.000797197
0.00570255
0.00078949
0.00569765
0.000779931
0.00569371
0.000768517
0.00569072
0.000755264
0.00568868
0.000740202
0.00568758
0.000723383
0.00568739
0.000704872
0.00568808
0.000684755
0.00568962
0.000663136
0.00569199
0.000640134
0.00569512
0.000615883
0.00569899
0.000590532
0.00570353
0.000564241
0.0057087
0.000537179
0.00571445
0.000509519
0.00048144
0.00623806
0.000491539
0.0062148
0.000508277
0.00619172
0.000527291
0.00616884
0.000545971
0.00614622
0.000564242
0.00612391
0.000582341
0.00610194
0.00060023
0.00608034
0.000617833
0.00605915
0.000635104
0.00603838
0.000651998
0.00601807
0.000668464
0.00599824
0.000684447
0.00597891
0.000699889
0.00596011
0.000714732
0.00594185
0.00072891
0.00592417
0.000742355
0.00590708
0.000754995
0.00589062
0.000766757
0.0058748
0.000777562
0.00585966
0.000787329
0.00584522
0.000795976
0.0058315
0.00080342
0.00581854
0.000809577
0.00580637
0.000814362
0.005795
0.000817696
0.00578447
0.000819499
0.00577479
0.000819699
0.005766
0.00081823
0.0057581
0.00081503
0.00575112
0.000810052
0.00574506
0.000803257
0.00573993
0.000794617
0.00573574
0.000784122
0.00573248
0.000771775
0.00573015
0.000757595
0.00572873
0.00074162
0.00572821
0.000723905
0.00572856
0.000704522
0.00572975
0.000683563
0.00573175
0.000661136
0.00573452
0.000637365
0.00573801
0.000612389
0.00574218
0.00058636
0.00574698
0.000559442
0.00575236
0.000531805
0.00575825
0.000503626
0.000475082
0.00624877
0.000514933
0.0062257
0.000531352
0.00620286
0.000550127
0.00618029
0.000568545
0.00615803
0.000586498
0.00613614
0.000604237
0.00611463
0.000621734
0.00609355
0.000638915
0.00607292
0.000655736
0.00605276
0.000672154
0.0060331
0.000688122
0.00601397
0.000703584
0.00599537
0.000718486