/*--------------------------------*- C++ -*----------------------------------*\
  =========                 |
  \\      /  F ield         | OpenFOAM: The Open Source CFD Toolbox
   \\    /   O peration     | Website:  https://openfoam.org
    \\  /    A nd           | Version:  7
     \\/     M anipulation  |
\*---------------------------------------------------------------------------*/
FoamFile
{
    version     2.0;
    format      ascii;
    class       volScalarField;
    location    "5";
    object      p;
}
// * * * * * * * * * * * * * * * * * * * * * * * * * * * * * * * * * * * * * //

dimensions      [0 2 -2 0 0 0 0];

internalField   nonuniform List<scalar> 
12100
(
-0.344588
-0.356991
-0.365403
-0.38023
-0.398074
-0.418452
-0.439289
-0.458284
-0.472496
-0.478655
-0.473302
-0.453345
-0.416967
-0.364852
-0.29981
-0.227473
-0.155278
-0.0883349
-0.0343285
0.00904398
-0.345746
-0.357866
-0.366296
-0.381149
-0.399093
-0.419652
-0.440778
-0.460199
-0.474996
-0.481928
-0.477543
-0.45872
-0.423603
-0.372382
-0.307872
-0.235594
-0.163158
-0.0953406
-0.0410791
0.00299046
-0.347982
-0.359546
-0.367997
-0.382881
-0.40099
-0.421858
-0.44349
-0.463658
-0.479484
-0.487771
-0.485091
-0.468262
-0.435203
-0.38567
-0.32217
-0.250067
-0.177282
-0.10837
-0.0532535
-0.00842015
-0.351153
-0.361903
-0.370347
-0.385226
-0.403503
-0.42472
-0.446944
-0.468001
-0.485063
-0.494979
-0.494345
-0.479893
-0.449387
-0.40202
-0.339824
-0.267899
-0.194853
-0.125512
-0.0692824
-0.0238575
-0.355061
-0.36476
-0.373135
-0.387916
-0.406284
-0.427779
-0.450529
-0.472417
-0.490658
-0.502151
-0.503533
-0.491563
-0.46356
-0.41839
-0.357449
-0.286312
-0.213397
-0.144152
-0.0872119
-0.0415613
-0.35948
-0.36792
-0.376117
-0.390649
-0.408952
-0.430545
-0.453612
-0.476087
-0.495223
-0.507977
-0.511016
-0.50111
-0.475273
-0.432055
-0.372721
-0.302685
-0.230459
-0.162062
-0.10517
-0.0597754
-0.364175
-0.371184
-0.37905
-0.393128
-0.411134
-0.432559
-0.455626
-0.478324
-0.497926
-0.511477
-0.515679
-0.507207
-0.483036
-0.441446
-0.383692
-0.315168
-0.244368
-0.177626
-0.121679
-0.0770931
-0.368926
-0.374373
-0.381717
-0.395089
-0.412516
-0.433458
-0.45615
-0.478671
-0.498286
-0.512087
-0.516834
-0.509231
-0.486126
-0.44573
-0.389513
-0.322897
-0.254301
-0.189999
-0.135847
-0.0926116
-0.37354
-0.377342
-0.383947
-0.396335
-0.412873
-0.433015
-0.454992
-0.476898
-0.496104
-0.509684
-0.51449
-0.507138
-0.484483
-0.44484
-0.390121
-0.325809
-0.260158
-0.198998
-0.147345
-0.105904
-0.377868
-0.379991
-0.385639
-0.396753
-0.412134
-0.43112
-0.452082
-0.473085
-0.491545
-0.504577
-0.50897
-0.501276
-0.478468
-0.439186
-0.385983
-0.324396
-0.262342
-0.204877
-0.156234
-0.116897
-0.381811
-0.382272
-0.386752
-0.396323
-0.410274
-0.427881
-0.447606
-0.467519
-0.48502
-0.497216
-0.500759
-0.492144
-0.468624
-0.429447
-0.377903
-0.319492
-0.261544
-0.208131
-0.1628
-0.125727
-0.385316
-0.384187
-0.387303
-0.395122
-0.407435
-0.423518
-0.441893
-0.46058
-0.477035
-0.488109
-0.490326
-0.480223
-0.455556
-0.416459
-0.366877
-0.312077
-0.258555
-0.209323
-0.167412
-0.132634
-0.38838
-0.385772
-0.387381
-0.393303
-0.40386
-0.418364
-0.435362
-0.452846
-0.468062
-0.477665
-0.478024
-0.465939
-0.439935
-0.401169
-0.353956
-0.3031
-0.254096
-0.208975
-0.170438
-0.137885
-0.391046
-0.387094
-0.38712
-0.391077
-0.39985
-0.41281
-0.428474
-0.444699
-0.45845
-0.46613
-0.464105
-0.449745
-0.422535
-0.384558
-0.340103
-0.293346
-0.248735
-0.207507
-0.172202
-0.141742
-0.393394
-0.388246
-0.386679
-0.388692
-0.395734
-0.407201
-0.421605
-0.436445
-0.44838
-0.453627
-0.448822
-0.432187
-0.404188
-0.367519
-0.326076
-0.283376
-0.242859
-0.20523
-0.172961
-0.144433
-0.395537
-0.389333
-0.386231
-0.386399
-0.391831
-0.401933
-0.415015
-0.428229
-0.437895
-0.44025
-0.432518
-0.413907
-0.385681
-0.350744
-0.312389
-0.273533
-0.236701
-0.202361
-0.172894
-0.146121
-0.397616
-0.390474
-0.385951
-0.384435
-0.388402
-0.397194
-0.408827
-0.420057
-0.426983
-0.426155
-0.415635
-0.395544
-0.367635
-0.334682
-0.299333
-0.263994
-0.230395
-0.19905
-0.172075
-0.14686
-0.39979
-0.391793
-0.386005
-0.382998
-0.385636
-0.393093
-0.403042
-0.411858
-0.415657
-0.411597
-0.398653
-0.377633
-0.350457
-0.319569
-0.287038
-0.254829
-0.224036
-0.195407
-0.170476
-0.14665
-0.402224
-0.393411
-0.386539
-0.382226
-0.383617
-0.389634
-0.397568
-0.403546
-0.404
-0.396891
-0.382002
-0.360541
-0.334357
-0.305482
-0.275526
-0.246055
-0.217724
-0.191518
-0.168051
-0.145618
-0.405082
-0.395441
-0.38766
-0.382182
-0.38233
-0.386723
-0.392261
-0.395062
-0.392158
-0.382344
-0.365998
-0.344466
-0.31939
-0.292401
-0.264749
-0.237659
-0.211546
-0.187449
-0.164982
-0.144283
-0.408508
-0.397977
-0.389423
-0.382839
-0.381689
-0.38421
-0.386975
-0.386403
-0.380307
-0.368204
-0.350823
-0.329466
-0.305513
-0.280241
-0.254626
-0.229609
-0.205518
-0.183254
-0.161972
-0.142982
-0.412589
-0.401099
-0.391858
-0.384155
-0.381615
-0.38195
-0.381608
-0.377628
-0.368622
-0.354637
-0.336548
-0.315507
-0.292627
-0.268892
-0.245063
-0.221869
-0.199584
-0.178903
-0.159252
-0.141975
-0.417417
-0.404846
-0.394911
-0.386029
-0.381956
-0.379741
-0.376071
-0.368793
-0.357217
-0.341717
-0.323161
-0.302506
-0.280616
-0.258242
-0.235977
-0.214389
-0.193698
-0.174513
-0.156337
-0.140305
-0.42305
-0.409227
-0.398493
-0.388387
-0.382534
-0.377413
-0.370328
-0.359968
-0.346169
-0.329459
-0.310604
-0.290352
-0.269357
-0.248182
-0.227289
-0.207114
-0.187851
-0.169985
-0.153117
-0.138268
-0.42952
-0.414218
-0.402526
-0.391161
-0.383152
-0.374835
-0.364373
-0.351202
-0.335505
-0.317827
-0.298783
-0.278926
-0.25873
-0.238611
-0.218923
-0.199999
-0.182
-0.165324
-0.149622
-0.135754
-0.436838
-0.419764
-0.406977
-0.394247
-0.38362
-0.371921
-0.358214
-0.342524
-0.325215
-0.306758
-0.287598
-0.268112
-0.248626
-0.229438
-0.210813
-0.192996
-0.176127
-0.160506
-0.145831
-0.132877
-0.445001
-0.425783
-0.411872
-0.397476
-0.383779
-0.368618
-0.351861
-0.333939
-0.315262
-0.296172
-0.276942
-0.257797
-0.238943
-0.22058
-0.202896
-0.186067
-0.170205
-0.155529
-0.141784
-0.129643
-0.453986
-0.432185
-0.417254
-0.400643
-0.383505
-0.364896
-0.345319
-0.325431
-0.305592
-0.285981
-0.266712
-0.247881
-0.229591
-0.211963
-0.195119
-0.179175
-0.164217
-0.150391
-0.137487
-0.126093
-0.463731
-0.438895
-0.423109
-0.403551
-0.382701
-0.360736
-0.338581
-0.316971
-0.29614
-0.276098
-0.256813
-0.238271
-0.220491
-0.203523
-0.187433
-0.172288
-0.158144
-0.145088
-0.132955
-0.122241
-0.474123
-0.445878
-0.429297
-0.40604
-0.381293
-0.356119
-0.331632
-0.308517
-0.286838
-0.266439
-0.247158
-0.228887
-0.211572
-0.195204
-0.179797
-0.165377
-0.151972
-0.139619
-0.128195
-0.118103
-0.48497
-0.453132
-0.435545
-0.407973
-0.379225
-0.351023
-0.324446
-0.300018
-0.277615
-0.256923
-0.237666
-0.219654
-0.202772
-0.186954
-0.172173
-0.158417
-0.145687
-0.13398
-0.123212
-0.11369
-0.496026
-0.460669
-0.441491
-0.409222
-0.37645
-0.345424
-0.316986
-0.29142
-0.268403
-0.247477
-0.228266
-0.21051
-0.194034
-0.17873
-0.164528
-0.151385
-0.139277
-0.12817
-0.118009
-0.109012
-0.507009
-0.468472
-0.446763
-0.409654
-0.372929
-0.339292
-0.309212
-0.282666
-0.259136
-0.238033
-0.218895
-0.201396
-0.185312
-0.170492
-0.156833
-0.144262
-0.132731
-0.122184
-0.112589
-0.104076
-0.517629
-0.476454
-0.451041
-0.409134
-0.368621
-0.332596
-0.301078
-0.273701
-0.249753
-0.228531
-0.209495
-0.192262
-0.176563
-0.162208
-0.149062
-0.137031
-0.12604
-0.116022
-0.106956
-0.0988893
-0.527616
-0.484429
-0.454091
-0.407534
-0.363481
-0.3253
-0.292538
-0.26447
-0.240197
-0.218916
-0.200017
-0.183065
-0.16775
-0.153847
-0.141196
-0.129677
-0.119199
-0.109682
-0.101113
-0.0934598
-0.53673
-0.492102
-0.455755
-0.404743
-0.35746
-0.317367
-0.283545
-0.254921
-0.230416
-0.209139
-0.190417
-0.173767
-0.158841
-0.145386
-0.133215
-0.12219
-0.112201
-0.103165
-0.0950627
-0.0877954
-0.544764
-0.499088
-0.455934
-0.400674
-0.350508
-0.308756
-0.274055
-0.245006
-0.220365
-0.199158
-0.180657
-0.164335
-0.14981
-0.136803
-0.125106
-0.114561
-0.105044
-0.0964704
-0.0888104
-0.0819053
-0.551546
-0.504959
-0.454558
-0.395265
-0.342577
-0.299427
-0.264025
-0.234683
-0.210003
-0.188937
-0.170704
-0.154741
-0.140635
-0.128082
-0.116856
-0.106783
-0.0977272
-0.0896017
-0.0823621
-0.0758019
-0.55692
-0.509296
-0.451554
-0.388478
-0.333629
-0.289345
-0.253422
-0.223917
-0.199298
-0.178446
-0.160535
-0.144966
-0.131299
-0.119211
-0.108459
-0.0988537
-0.0902506
-0.082563
-0.0757263
-0.0694994
-0.56071
-0.511724
-0.446825
-0.380286
-0.323633
-0.278479
-0.242214
-0.21268
-0.188222
-0.167661
-0.150127
-0.13499
-0.121788
-0.11018
-0.0999085
-0.0907708
-0.082617
-0.0753615
-0.0689154
-0.0630106
-0.562714
-0.511923
-0.440271
-0.370655
-0.312553
-0.266792
-0.230368
-0.200942
-0.176751
-0.156559
-0.13946
-0.124798
-0.11209
-0.10098
-0.0912001
-0.0825353
-0.0748311
-0.0680069
-0.0619486
-0.0563396
-0.562958
-0.509766
-0.431839
-0.359553
-0.300352
-0.254248
-0.217853
-0.188676
-0.164859
-0.145121
-0.128517
-0.114376
-0.102197
-0.0916088
-0.0823337
-0.0741512
-0.0669007
-0.0605113
-0.0548426
-0.0494916
-0.561211
-0.505047
-0.421447
-0.346956
-0.287012
-0.240827
-0.204651
-0.175865
-0.152531
-0.133331
-0.117294
-0.103721
-0.092112
-0.0820699
-0.0733143
-0.0656263
-0.0588395
-0.0528906
-0.0475711
-0.0425197
-0.557275
-0.497662
-0.40906
-0.332851
-0.272523
-0.226516
-0.190746
-0.162495
-0.139757
-0.121173
-0.105805
-0.0928389
-0.0818388
-0.0723705
-0.0641528
-0.0569644
-0.0506568
-0.0451458
-0.040162
-0.0354313
-0.550963
-0.487541
-0.394651
-0.317231
-0.256875
-0.2113
-0.176125
-0.14856
-0.126547
-0.108644
-0.0940711
-0.0817467
-0.0713718
-0.0625061
-0.0548489
-0.0481787
-0.0423617
-0.0372876
-0.0326432
-0.0282391
-0.54208
-0.474643
-0.378212
-0.300094
-0.240057
-0.195172
-0.16079
-0.134082
-0.112932
-0.0958573
-0.0819911
-0.0704215
-0.06072
-0.0524864
-0.0454129
-0.0392811
-0.033966
-0.0293321
-0.0250344
-0.0209623
-0.530441
-0.458948
-0.359745
-0.281442
-0.222061
-0.178155
-0.144779
-0.119112
-0.0988857
-0.0827207
-0.0696514
-0.058875
-0.0498947
-0.042324
-0.0358581
-0.0302847
-0.0254839
-0.0212966
-0.0173527
-0.0136227
-0.515876
-0.440457
-0.339263
-0.261283
-0.20291
-0.160307
-0.128146
-0.103595
-0.0844236
-0.0692487
-0.0570651
-0.0471253
-0.0389089
-0.0320332
-0.0261995
-0.0212042
-0.0169313
-0.0131983
-0.00961623
-0.00624167
-0.498243
-0.419187
-0.316782
-0.239647
-0.182703
-0.141653
-0.110852
-0.0875649
-0.0695669
-0.0554649
-0.0442466
-0.0351916
-0.0277794
-0.0216304
-0.0164536
-0.0120562
-0.00832524
-0.00505528
-0.00184368
0.00115943
-0.477442
-0.395181
-0.29231
-0.216625
-0.161526
-0.122156
-0.0929292
-0.0710559
-0.0543421
-0.0413966
-0.0312144
-0.0230944
-0.0165252
-0.0111339
-0.00663876
-0.00285879
0.000316213
0.00311366
0.0059447
0.00855934
-0.453415
-0.368541
-0.265865
-0.192371
-0.139311
-0.101879
-0.074417
-0.054104
-0.0387805
-0.027073
-0.0179922
-0.0108565
-0.00516781
-0.000564073
0.00322525
0.00636867
0.0089739
0.0112884
0.0137268
0.0159361
-0.426157
-0.339434
-0.237555
-0.166808
-0.116144
-0.0808851
-0.0553647
-0.0367498
-0.0229181
-0.0125264
-0.00460794
0.00149685
0.00626903
0.0100569
0.0131174
0.0156059
0.0176278
0.0194475
0.0214784
0.0232665
-0.395715
-0.307972
-0.207531
-0.139955
-0.0920969
-0.0592419
-0.0358275
-0.0190394
-0.00679548
0.00220722
0.00890697
0.0139374
0.0177597
0.0207053
0.0230154
0.0248321
0.0262579
0.0275699
0.0291754
0.0305266
-0.3622
-0.273996
-0.176091
-0.11196
-0.0672492
-0.0370221
-0.0158673
-0.00102443
0.00954259
0.0170888
0.0225181
0.0264346
0.0292767
0.0313559
0.0328958
0.0340255
0.0348454
0.0356382
0.0367983
0.0376946
-0.325798
-0.237402
-0.143479
-0.0829913
-0.0416925
-0.0143037
0.00444822
0.017238
0.0260471
0.0320756
0.0361882
0.0389555
0.0407905
0.0419814
0.0427332
0.0431638
0.0433728
0.0436399
0.0443349
0.0447548
-0.286656
-0.198597
-0.109642
-0.0531984
-0.0155333
0.00882849
0.0250462
0.0356861
0.0426651
0.047122
0.0498774
0.0514654
0.0522699
0.0525535
0.052501
0.0522238
0.0518227
0.0515612
0.0517671
0.0516869
-0.244698
-0.158267
-0.0746755
-0.0227173
0.0111124
0.0322823
0.0458486
0.0542538
0.0593401
0.0621794
0.0635438
0.0639275
0.0636824
0.0630425
0.0621734
0.0611847
0.060178
0.0593749
0.0590359
0.058416
-0.20015
-0.116873
-0.0387685
0.00831597
0.0381216
0.0559586
0.0667725
0.0728708
0.0760126
0.0771967
0.0771433
0.0763034
0.0749941
0.0734189
0.0717271
0.0700316
0.0684237
0.067035
0.0660165
0.0647365
-0.153503
-0.0745076
-0.00214375
0.0397507
0.0653643
0.0797513
0.0877302
0.091464
0.0926206
0.0921211
0.0906305
0.0885537
0.0861704
0.083654
0.0811418
0.0787522
0.0765433
0.0744881
0.0725792
0.0704359
-0.105029
-0.0313327
0.0349639
0.0714211
0.0927044
0.10355
0.108631
0.109958
0.1091
0.106898
0.103959
0.100638
0.0971762
0.093719
0.0903959
0.0873256
0.0845029
0.0816892
0.0787446
0.0759224
-0.0549531
0.0124366
0.0723296
0.103162
0.120008
0.127244
0.129383
0.128274
0.125386
0.121473
0.11708
0.112514
0.107976
0.103585
0.099463
0.0957135
0.0922426
0.0886253
0.0847447
0.0825519
-0.0040907
0.0564968
0.109739
0.134816
0.147144
0.150725
0.149894
0.146336
0.141412
0.135787
0.129945
0.12414
0.118533
0.113221
0.108313
0.103873
0.0997159
0.0953656
0.0909848
0.0891461
0.0472165
0.100581
0.146954
0.166195
0.173962
0.173869
0.170064
0.16406
0.157108
0.149783
0.142503
0.135471
0.128812
0.122596
0.116911
0.111776
0.106939
0.101973
0.0972872
0.0954166
0.0985649
0.144378
0.183737
0.197115
0.200316
0.196558
0.189795
0.181364
0.172405
0.163401
0.154705
0.146467
0.138775
0.131674
0.125225
0.119398
0.113915
0.10843
0.103481
0.101336
0.149533
0.187579
0.219853
0.227392
0.226058
0.218672
0.208988
0.198167
0.187234
0.176583
0.1665
0.157084
0.148385
0.140423
0.133224
0.126722
0.120635
0.11469
0.109457
0.106924
0.199701
0.229877
0.255066
0.256842
0.251041
0.240092
0.227545
0.214386
0.201528
0.189272
0.17784
0.167279
0.157606
0.148808
0.140881
0.13373
0.127079
0.120709
0.11517
0.112198
0.248655
0.270967
0.289147
0.285284
0.27512
0.2607
0.24537
0.229943
0.215219
0.201411
0.188676
0.177012
0.1664
0.156798
0.14817
0.140398
0.133221
0.126448
0.120591
0.117161
0.295992
0.310553
0.321869
0.312542
0.298155
0.280383
0.262369
0.244759
0.228242
0.212944
0.198961
0.186242
0.174733
0.164361
0.155064
0.146706
0.139034
0.13188
0.125704
0.12181
0.341322
0.348349
0.353016
0.338443
0.320008
0.299028
0.278451
0.258759
0.240534
0.223819
0.20865
0.19493
0.18257
0.171469
0.161539
0.152628
0.144494
0.136981
0.130493
0.12614
0.384276
0.38408
0.382379
0.362822
0.340548
0.316531
0.293529
0.27187
0.252035
0.233984
0.217699
0.203037
0.189879
0.178094
0.16757
0.158143
0.14958
0.141732
0.134944
0.130141
0.424515
0.417473
0.409759
0.385523
0.359649
0.332789
0.307521
0.284024
0.262687
0.243391
0.226067
0.21053
0.196629
0.184208
0.173133
0.163229
0.15427
0.146115
0.139042
0.133807
0.461726
0.44827
0.434969
0.4064
0.377196
0.347708
0.320348
0.295158
0.272436
0.251995
0.233715
0.217374
0.202792
0.189787
0.178206
0.167866
0.158547
0.150112
0.142773
0.137129
0.495612
0.476238
0.457834
0.425315
0.39308
0.361201
0.33194
0.305212
0.281233
0.259754
0.240608
0.223539
0.20834
0.194808
0.18277
0.172035
0.162393
0.153707
0.146126
0.140099
0.525896
0.501172
0.478198
0.442147
0.407202
0.373189
0.342231
0.314131
0.289033
0.26663
0.246713
0.228997
0.21325
0.199249
0.186805
0.175721
0.165794
0.156886
0.149087
0.142712
0.552333
0.52289
0.495921
0.456784
0.419474
0.3836
0.351162
0.321868
0.295796
0.272588
0.252002
0.233723
0.2175
0.203092
0.190295
0.178908
0.168735
0.159637
0.151646
0.14496
0.574705
0.541234
0.51088
0.469131
0.42982
0.392371
0.358684
0.328381
0.301486
0.277599
0.256448
0.237695
0.221071
0.206319
0.193226
0.181583
0.171204
0.161948
0.153794
0.146839
0.592828
0.556069
0.522972
0.479106
0.438175
0.399452
0.364754
0.333634
0.306074
0.281639
0.260031
0.240895
0.223947
0.208918
0.195585
0.183737
0.173192
0.163808
0.155523
0.148346
0.606555
0.56729
0.532113
0.486643
0.444485
0.404798
0.369335
0.337598
0.309536
0.284685
0.262733
0.243307
0.226115
0.210877
0.197363
0.185359
0.17469
0.16521
0.156825
0.149478
0.615772
0.574814
0.538239
0.491693
0.448713
0.408378
0.372403
0.340252
0.311852
0.286725
0.264541
0.244922
0.227565
0.212188
0.198552
0.186445
0.175692
0.166148
0.157696
0.150234
0.620402
0.57859
0.541313
0.494225
0.450832
0.410174
0.37394
0.341582
0.313014
0.287747
0.265448
0.245731
0.228292
0.212845
0.199148
0.186989
0.176194
0.166618
0.158132
0.150613
0.620402
0.57859
0.541313
0.494225
0.450832
0.410174
0.37394
0.341582
0.313014
0.287747
0.265448
0.245731
0.228292
0.212845
0.199148
0.186989
0.176194
0.166618
0.158132
0.150613
0.615772
0.574814
0.538239
0.491693
0.448713
0.408378
0.372403
0.340252
0.311852
0.286725
0.264541
0.244922
0.227565
0.212188
0.198552
0.186445
0.175692
0.166148
0.157696
0.150234
0.606555
0.56729
0.532113
0.486643
0.444485
0.404798
0.369335
0.337598
0.309536
0.284685
0.262733
0.243307
0.226115
0.210877
0.197363
0.185359
0.17469
0.16521
0.156825
0.149478
0.592829
0.556069
0.522972
0.479106
0.438175
0.399452
0.364754
0.333634
0.306074
0.281639
0.260031
0.240895
0.223947
0.208918
0.195585
0.183737
0.173192
0.163808
0.155523
0.148346
0.574705
0.541234
0.51088
0.469131
0.42982
0.392371
0.358684
0.328381
0.301486
0.277599
0.256448
0.237695
0.221071
0.206319
0.193226
0.181583
0.171204
0.161948
0.153794
0.146839
0.552333
0.52289
0.495921
0.456784
0.419474
0.3836
0.351162
0.321868
0.295796
0.272588
0.252002
0.233723
0.2175
0.203092
0.190295
0.178908
0.168735
0.159637
0.151646
0.14496
0.525896
0.501172
0.478198
0.442147
0.407202
0.373189
0.342231
0.314131
0.289033
0.26663
0.246713
0.228997
0.21325
0.199249
0.186805
0.175721
0.165794
0.156886
0.149087
0.142712
0.495612
0.476238
0.457834
0.425315
0.39308
0.361201
0.33194
0.305212
0.281233
0.259754
0.240608
0.223539
0.20834
0.194808
0.18277
0.172035
0.162393
0.153707
0.146126
0.140099
0.461726
0.44827
0.434969
0.4064
0.377196
0.347708
0.320348
0.295158
0.272436
0.251995
0.233715
0.217374
0.202792
0.189787
0.178206
0.167866
0.158547
0.150112
0.142773
0.137129
0.424515
0.417473
0.409759
0.385523
0.359649
0.332789
0.307521
0.284024
0.262687
0.243391
0.226067
0.21053
0.196629
0.184208
0.173133
0.163229
0.15427
0.146115
0.139042
0.133807
0.384276
0.38408
0.382379
0.362822
0.340548
0.316531
0.293529
0.27187
0.252035
0.233984
0.217699
0.203037
0.189879
0.178094
0.16757
0.158143
0.14958
0.141732
0.134944
0.130141
0.341322
0.348349
0.353016
0.338443
0.320008
0.299028
0.278451
0.258759
0.240534
0.223819
0.20865
0.19493
0.18257
0.171469
0.161539
0.152628
0.144494
0.136981
0.130493
0.12614
0.295992
0.310553
0.321869
0.312542
0.298155
0.280383
0.262369
0.244759
0.228242
0.212944
0.198961
0.186242
0.174733
0.164361
0.155064
0.146706
0.139034
0.13188
0.125704
0.12181
0.248655
0.270967
0.289147
0.285284
0.27512
0.2607
0.24537
0.229943
0.215219
0.201411
0.188676
0.177012
0.1664
0.156798
0.14817
0.140398
0.133221
0.126448
0.120591
0.117161
0.199701
0.229877
0.255066
0.256842
0.251041
0.240092
0.227545
0.214386
0.201528
0.189272
0.17784
0.167279
0.157606
0.148808
0.140881
0.13373
0.127079
0.120709
0.11517
0.112198
0.149533
0.187579
0.219853
0.227392
0.226058
0.218672
0.208988
0.198167
0.187234
0.176583
0.1665
0.157084
0.148385
0.140423
0.133224
0.126722
0.120635
0.11469
0.109457
0.106924
0.0985649
0.144378
0.183737
0.197115
0.200316
0.196558
0.189795
0.181364
0.172405
0.163401
0.154705
0.146467
0.138775
0.131674
0.125225
0.119398
0.113915
0.10843
0.103481
0.101336
0.0472165
0.100581
0.146954
0.166195
0.173962
0.173869
0.170064
0.16406
0.157108
0.149783
0.142503
0.135471
0.128812
0.122596
0.116911
0.111776
0.106939
0.101973
0.0972872
0.0954166
-0.00409069
0.0564968
0.109739
0.134816
0.147144
0.150725
0.149894
0.146336
0.141412
0.135787
0.129945
0.12414
0.118533
0.113221
0.108313
0.103873
0.0997159
0.0953656
0.0909848
0.0891461
-0.0549531
0.0124366
0.0723296
0.103162
0.120008
0.127244
0.129383
0.128274
0.125386
0.121473
0.11708
0.112514
0.107976
0.103585
0.099463
0.0957135
0.0922426
0.0886253
0.0847447
0.0825519
-0.105029
-0.0313327
0.0349639
0.0714211
0.0927045
0.10355
0.108631
0.109958
0.1091
0.106898
0.103959
0.100638
0.0971762
0.093719
0.0903959
0.0873256
0.0845029
0.0816892
0.0787446
0.0759224
-0.153503
-0.0745075
-0.00214374
0.0397508
0.0653643
0.0797513
0.0877302
0.091464
0.0926206
0.0921211
0.0906305
0.0885537
0.0861704
0.083654
0.0811418
0.0787522
0.0765433
0.0744881
0.0725792
0.0704359
-0.20015
-0.116873
-0.0387685
0.00831597
0.0381216
0.0559586
0.0667725
0.0728708
0.0760126
0.0771967
0.0771433
0.0763034
0.0749941
0.0734189
0.0717271
0.0700316
0.0684237
0.067035
0.0660165
0.0647365
-0.244698
-0.158267
-0.0746755
-0.0227172
0.0111124
0.0322823
0.0458486
0.0542538
0.0593401
0.0621794
0.0635438
0.0639275
0.0636824
0.0630425
0.0621734
0.0611847
0.060178
0.0593749
0.0590359
0.058416
-0.286656
-0.198597
-0.109642
-0.0531984
-0.0155333
0.00882849
0.0250462
0.0356861
0.0426651
0.047122
0.0498774
0.0514654
0.0522699
0.0525535
0.052501
0.0522238
0.0518227
0.0515612
0.0517671
0.0516869
-0.325798
-0.237402
-0.143479
-0.0829913
-0.0416925
-0.0143037
0.00444822
0.017238
0.0260471
0.0320756
0.0361882
0.0389556
0.0407905
0.0419814
0.0427332
0.0431638
0.0433728
0.0436399
0.0443349
0.0447548
-0.3622
-0.273996
-0.176091
-0.11196
-0.0672492
-0.037022
-0.0158673
-0.00102443
0.00954259
0.0170888
0.0225181
0.0264346
0.0292767
0.0313559
0.0328958
0.0340256
0.0348454
0.0356382
0.0367983
0.0376946
-0.395715
-0.307972
-0.207531
-0.139955
-0.0920969
-0.0592419
-0.0358275
-0.0190394
-0.00679547
0.00220722
0.00890697
0.0139374
0.0177597
0.0207053
0.0230154
0.0248321
0.0262579
0.0275699
0.0291754
0.0305266
-0.426157
-0.339434
-0.237555
-0.166808
-0.116144
-0.0808851
-0.0553647
-0.0367498
-0.0229181
-0.0125264
-0.00460794
0.00149685
0.00626904
0.0100569
0.0131174
0.0156059
0.0176278
0.0194475
0.0214784
0.0232665
-0.453415
-0.368541
-0.265865
-0.192371
-0.139311
-0.101879
-0.074417
-0.054104
-0.0387805
-0.027073
-0.0179922
-0.0108565
-0.00516781
-0.00056407
0.00322525
0.00636867
0.0089739
0.0112884
0.0137268
0.0159361
-0.477442
-0.395181
-0.29231
-0.216625
-0.161526
-0.122156
-0.0929292
-0.0710559
-0.0543421
-0.0413966
-0.0312144
-0.0230944
-0.0165252
-0.0111339
-0.00663876
-0.00285879
0.000316217
0.00311367
0.0059447
0.00855935
-0.498243
-0.419187
-0.316782
-0.239647
-0.182703
-0.141653
-0.110852
-0.0875649
-0.0695669
-0.0554649
-0.0442466
-0.0351916
-0.0277794
-0.0216304
-0.0164536
-0.0120562
-0.00832524
-0.00505528
-0.00184368
0.00115943
-0.515876
-0.440457
-0.339263
-0.261283
-0.20291
-0.160307
-0.128146
-0.103595
-0.0844236
-0.0692487
-0.0570651
-0.0471253
-0.0389089
-0.0320332
-0.0261995
-0.0212042
-0.0169313
-0.0131983
-0.00961623
-0.00624167
-0.530441
-0.458948
-0.359745
-0.281442
-0.222061
-0.178155
-0.144779
-0.119112
-0.0988857
-0.0827207
-0.0696514
-0.058875
-0.0498947
-0.042324
-0.0358581
-0.0302847
-0.0254839
-0.0212966
-0.0173527
-0.0136227
-0.54208
-0.474643
-0.378212
-0.300094
-0.240057
-0.195172
-0.16079
-0.134082
-0.112932
-0.0958573
-0.0819911
-0.0704215
-0.06072
-0.0524864
-0.0454129
-0.0392811
-0.033966
-0.0293321
-0.0250344
-0.0209623
-0.550963
-0.487541
-0.394651
-0.317231
-0.256875
-0.2113
-0.176125
-0.14856
-0.126547
-0.108644
-0.0940711
-0.0817466
-0.0713718
-0.0625061
-0.0548489
-0.0481787
-0.0423617
-0.0372876
-0.0326432
-0.0282391
-0.557275
-0.497662
-0.40906
-0.332851
-0.272523
-0.226516
-0.190746
-0.162495
-0.139757
-0.121173
-0.105805
-0.0928389
-0.0818388
-0.0723705
-0.0641528
-0.0569644
-0.0506568
-0.0451458
-0.040162
-0.0354313
-0.561211
-0.505047
-0.421447
-0.346955
-0.287012
-0.240827
-0.204651
-0.175865
-0.152531
-0.133331
-0.117294
-0.103721
-0.092112
-0.0820699
-0.0733143
-0.0656263
-0.0588395
-0.0528906
-0.0475711
-0.0425197
-0.562958
-0.509766
-0.431839
-0.359553
-0.300352
-0.254248
-0.217853
-0.188676
-0.164859
-0.145121
-0.128517
-0.114376
-0.102197
-0.0916088
-0.0823337
-0.0741512
-0.0669007
-0.0605113
-0.0548426
-0.0494916
-0.562714
-0.511923
-0.440271
-0.370655
-0.312553
-0.266792
-0.230368
-0.200942
-0.176751
-0.156559
-0.13946
-0.124798
-0.11209
-0.10098
-0.0912001
-0.0825353
-0.0748311
-0.0680069
-0.0619486
-0.0563396
-0.56071
-0.511724
-0.446825
-0.380286
-0.323633
-0.278479
-0.242214
-0.21268
-0.188222
-0.167661
-0.150127
-0.13499
-0.121788
-0.11018
-0.0999085
-0.0907708
-0.082617
-0.0753615
-0.0689154
-0.0630106
-0.55692
-0.509296
-0.451554
-0.388478
-0.333628
-0.289345
-0.253422
-0.223917
-0.199298
-0.178446
-0.160535
-0.144966
-0.131299
-0.119211
-0.108459
-0.0988537
-0.0902505
-0.082563
-0.0757263
-0.0694994
-0.551546
-0.504959
-0.454558
-0.395265
-0.342577
-0.299427
-0.264025
-0.234683
-0.210003
-0.188937
-0.170704
-0.154741
-0.140635
-0.128082
-0.116856
-0.106783
-0.0977272
-0.0896017
-0.0823621
-0.0758019
-0.544764
-0.499088
-0.455934
-0.400674
-0.350508
-0.308756
-0.274055
-0.245006
-0.220365
-0.199158
-0.180657
-0.164335
-0.14981
-0.136803
-0.125106
-0.114561
-0.105044
-0.0964704
-0.0888104
-0.0819053
-0.53673
-0.492102
-0.455755
-0.404743
-0.35746
-0.317367
-0.283545
-0.254921
-0.230416
-0.209139
-0.190417
-0.173767
-0.158841
-0.145386
-0.133215
-0.12219
-0.112201
-0.103165
-0.0950627
-0.0877954
-0.527616
-0.484429
-0.454091
-0.407534
-0.363481
-0.3253
-0.292538
-0.26447
-0.240197
-0.218916
-0.200017
-0.183065
-0.16775
-0.153847
-0.141196
-0.129677
-0.119199
-0.109682
-0.101113
-0.0934598
-0.517629
-0.476454
-0.451041
-0.409134
-0.368621
-0.332596
-0.301078
-0.273701
-0.249753
-0.228531
-0.209495
-0.192262
-0.176563
-0.162208
-0.149062
-0.137031
-0.12604
-0.116022
-0.106956
-0.0988893
-0.507009
-0.468471
-0.446763
-0.409654
-0.372929
-0.339292
-0.309212
-0.282666
-0.259136
-0.238033
-0.218895
-0.201396
-0.185312
-0.170492
-0.156833
-0.144262
-0.132731
-0.122184
-0.112589
-0.104076
-0.496026
-0.460669
-0.441491
-0.409222
-0.37645
-0.345424
-0.316986
-0.29142
-0.268403
-0.247477
-0.228266
-0.21051
-0.194034
-0.17873
-0.164528
-0.151385
-0.139277
-0.12817
-0.118009
-0.109012
-0.48497
-0.453132
-0.435545
-0.407973
-0.379225
-0.351023
-0.324446
-0.300018
-0.277615
-0.256923
-0.237666
-0.219654
-0.202772
-0.186954
-0.172173
-0.158417
-0.145687
-0.13398
-0.123212
-0.11369
-0.474123
-0.445878
-0.429297
-0.40604
-0.381293
-0.356119
-0.331632
-0.308517
-0.286838
-0.266439
-0.247158
-0.228887
-0.211572
-0.195204
-0.179797
-0.165377
-0.151972
-0.139619
-0.128195
-0.118103
-0.463731
-0.438895
-0.423109
-0.403551
-0.382701
-0.360736
-0.338581
-0.316971
-0.29614
-0.276098
-0.256813
-0.238271
-0.220491
-0.203523
-0.187433
-0.172288
-0.158144
-0.145088
-0.132955
-0.122241
-0.453986
-0.432185
-0.417254
-0.400643
-0.383505
-0.364896
-0.345319
-0.325431
-0.305592
-0.285981
-0.266712
-0.247881
-0.229591
-0.211963
-0.195119
-0.179175
-0.164217
-0.150391
-0.137487
-0.126093
-0.445001
-0.425783
-0.411872
-0.397476
-0.383779
-0.368618
-0.351861
-0.333939
-0.315262
-0.296172
-0.276942
-0.257797
-0.238943
-0.22058
-0.202896
-0.186067
-0.170205
-0.155529
-0.141784
-0.129643
-0.436838
-0.419764
-0.406977
-0.394247
-0.38362
-0.371921
-0.358214
-0.342524
-0.325215
-0.306758
-0.287598
-0.268112
-0.248626
-0.229438
-0.210813
-0.192996
-0.176127
-0.160506
-0.145831
-0.132877
-0.42952
-0.414218
-0.402526
-0.391161
-0.383152
-0.374835
-0.364373
-0.351202
-0.335505
-0.317827
-0.298783
-0.278926
-0.25873
-0.238611
-0.218923
-0.199999
-0.182
-0.165324
-0.149622
-0.135754
-0.42305
-0.409227
-0.398493
-0.388387
-0.382534
-0.377413
-0.370328
-0.359968
-0.346169
-0.329459
-0.310604
-0.290352
-0.269357
-0.248182
-0.227289
-0.207114
-0.187851
-0.169985
-0.153117
-0.138268
-0.417417
-0.404846
-0.394911
-0.386029
-0.381956
-0.379741
-0.376071
-0.368793
-0.357217
-0.341717
-0.323161
-0.302506
-0.280616
-0.258242
-0.235977
-0.214389
-0.193698
-0.174513
-0.156337
-0.140305
-0.412589
-0.401099
-0.391858
-0.384155
-0.381615
-0.38195
-0.381608
-0.377628
-0.368622
-0.354637
-0.336548
-0.315507
-0.292627
-0.268892
-0.245063
-0.221869
-0.199584
-0.178903
-0.159252
-0.141975
-0.408508
-0.397977
-0.389423
-0.382839
-0.381689
-0.38421
-0.386975
-0.386403
-0.380307
-0.368204
-0.350823
-0.329466
-0.305513
-0.280241
-0.254626
-0.229609
-0.205518
-0.183254
-0.161972
-0.142982
-0.405082
-0.395441
-0.38766
-0.382182
-0.38233
-0.386723
-0.392261
-0.395062
-0.392158
-0.382344
-0.365998
-0.344466
-0.31939
-0.292401
-0.264749
-0.237659
-0.211546
-0.187449
-0.164982
-0.144283
-0.402224
-0.393411
-0.386539
-0.382226
-0.383617
-0.389634
-0.397568
-0.403546
-0.404
-0.396891
-0.382002
-0.360541
-0.334357
-0.305482
-0.275526
-0.246055
-0.217724
-0.191518
-0.168051
-0.145618
-0.39979
-0.391793
-0.386005
-0.382998
-0.385636
-0.393093
-0.403042
-0.411858
-0.415657
-0.411597
-0.398653
-0.377633
-0.350457
-0.319569
-0.287038
-0.254829
-0.224036
-0.195407
-0.170476
-0.14665
-0.397616
-0.390474
-0.385951
-0.384435
-0.388402
-0.397194
-0.408827
-0.420057
-0.426983
-0.426155
-0.415635
-0.395544
-0.367635
-0.334682
-0.299333
-0.263994
-0.230395
-0.19905
-0.172075
-0.14686
-0.395537
-0.389333
-0.386231
-0.386399
-0.391831
-0.401933
-0.415015
-0.428229
-0.437895
-0.44025
-0.432518
-0.413907
-0.385681
-0.350744
-0.312389
-0.273533
-0.236701
-0.202361
-0.172894
-0.146121
-0.393394
-0.388246
-0.386679
-0.388692
-0.395734
-0.407201
-0.421605
-0.436445
-0.44838
-0.453627
-0.448822
-0.432187
-0.404188
-0.367519
-0.326076
-0.283376
-0.242859
-0.20523
-0.172961
-0.144433
-0.391046
-0.387094
-0.38712
-0.391077
-0.39985
-0.41281
-0.428474
-0.444699
-0.45845
-0.46613
-0.464105
-0.449745
-0.422535
-0.384558
-0.340103
-0.293346
-0.248735
-0.207507
-0.172202
-0.141742
-0.38838
-0.385772
-0.387381
-0.393303
-0.40386
-0.418364
-0.435362
-0.452846
-0.468062
-0.477665
-0.478024
-0.465939
-0.439935
-0.401169
-0.353956
-0.3031
-0.254096
-0.208975
-0.170438
-0.137885
-0.385316
-0.384187
-0.387303
-0.395122
-0.407435
-0.423518
-0.441893
-0.46058
-0.477035
-0.488109
-0.490326
-0.480223
-0.455556
-0.416459
-0.366877
-0.312077
-0.258555
-0.209323
-0.167412
-0.132634
-0.381811
-0.382272
-0.386752
-0.396323
-0.410274
-0.427881
-0.447606
-0.467519
-0.48502
-0.497216
-0.500759
-0.492144
-0.468624
-0.429447
-0.377903
-0.319492
-0.261544
-0.208131
-0.1628
-0.125727
-0.377868
-0.379991
-0.385639