/*--------------------------------*- C++ -*----------------------------------*\
  =========                 |
  \\      /  F ield         | OpenFOAM: The Open Source CFD Toolbox
   \\    /   O peration     | Website:  https://openfoam.org
    \\  /    A nd           | Version:  7
     \\/     M anipulation  |
\*---------------------------------------------------------------------------*/
FoamFile
{
    version     2.0;
    format      ascii;
    class       volVectorField;
    location    "20";
    object      U;
}
// * * * * * * * * * * * * * * * * * * * * * * * * * * * * * * * * * * * * * //

dimensions      [0 1 -1 0 0 0 0];

internalField   nonuniform List<vector> 
2625
(
(1.00006 -8.70599e-05 0)
(1.00068 -0.000259731 0)
(1.00195 -0.000423413 0)
(1.00374 -0.000581775 0)
(1.00597 -0.000735266 0)
(1.00858 -0.000884059 0)
(1.01151 -0.00102842 0)
(1.01473 -0.00116839 0)
(1.01818 -0.00130389 0)
(1.02182 -0.00143473 0)
(1.02562 -0.00156069 0)
(1.02953 -0.00168154 0)
(1.03354 -0.00179704 0)
(1.03761 -0.00190699 0)
(1.04171 -0.00201124 0)
(1.04583 -0.00210966 0)
(1.04993 -0.00220221 0)
(1.05401 -0.00228888 0)
(1.05804 -0.00236971 0)
(1.06201 -0.00244478 0)
(1.06591 -0.0025142 0)
(1.06973 -0.00257808 0)
(1.07345 -0.00263652 0)
(1.07708 -0.00268956 0)
(1.0806 -0.00273711 0)
(1.08402 -0.00277886 0)
(1.08732 -0.00281415 0)
(1.0905 -0.00284179 0)
(1.09356 -0.00285965 0)
(1.0965 -0.00286399 0)
(1.00006 -0.00025976 0)
(1.00068 -0.000772136 0)
(1.00195 -0.00125976 0)
(1.00374 -0.00173112 0)
(1.00596 -0.00218783 0)
(1.00856 -0.00263066 0)
(1.0115 -0.00306037 0)
(1.01471 -0.00347711 0)
(1.01815 -0.00388057 0)
(1.02179 -0.00427025 0)
(1.02559 -0.00464546 0)
(1.02951 -0.0050055 0)
(1.03352 -0.00534966 0)
(1.03759 -0.00567736 0)
(1.04169 -0.0059881 0)
(1.04581 -0.00628155 0)
(1.04992 -0.00655752 0)
(1.054 -0.006816 0)
(1.05803 -0.0070571 0)
(1.06201 -0.00728105 0)
(1.06591 -0.00748816 0)
(1.06973 -0.00767879 0)
(1.07347 -0.00785321 0)
(1.0771 -0.00801152 0)
(1.08063 -0.00815345 0)
(1.08406 -0.0082781 0)
(1.08736 -0.00838358 0)
(1.09055 -0.0084665 0)
(1.09362 -0.00852116 0)
(1.09656 -0.00853848 0)
(1.00006 -0.000428814 0)
(1.00067 -0.00127079 0)
(1.00194 -0.00207482 0)
(1.00372 -0.00285152 0)
(1.00594 -0.00360394 0)
(1.00854 -0.00433376 0)
(1.01147 -0.00504217 0)
(1.01467 -0.00572938 0)
(1.01811 -0.00639494 0)
(1.02175 -0.00703797 0)
(1.02554 -0.00765735 0)
(1.02946 -0.00825188 0)
(1.03347 -0.0088204 0)
(1.03754 -0.0093619 0)
(1.04165 -0.00987556 0)
(1.04577 -0.0103608 0)
(1.04988 -0.0108173 0)
(1.05397 -0.0112449 0)
(1.05801 -0.011644 0)
(1.062 -0.0120147 0)
(1.06591 -0.0123577 0)
(1.06975 -0.0126735 0)
(1.07349 -0.0129625 0)
(1.07714 -0.0132248 0)
(1.08069 -0.0134601 0)
(1.08412 -0.0136668 0)
(1.08745 -0.0138419 0)
(1.09065 -0.0139799 0)
(1.09373 -0.0140718 0)
(1.09669 -0.0141031 0)
(1.00006 -0.00059331 0)
(1.00067 -0.00175596 0)
(1.00194 -0.002868 0)
(1.00371 -0.0039421 0)
(1.00592 -0.00498273 0)
(1.0085 -0.0059925 0)
(1.01142 -0.00697307 0)
(1.01462 -0.00792472 0)
(1.01805 -0.00884683 0)
(1.02168 -0.00973815 0)
(1.02547 -0.0105971 0)
(1.02938 -0.011422 0)
(1.03339 -0.0122113 0)
(1.03747 -0.0129634 0)
(1.04158 -0.0136772 0)
(1.04571 -0.0143517 0)
(1.04983 -0.0149867 0)
(1.05393 -0.0155818 0)
(1.05798 -0.0161373 0)
(1.06198 -0.0166536 0)
(1.06591 -0.0171315 0)
(1.06977 -0.0175716 0)
(1.07353 -0.0179745 0)
(1.0772 -0.0183404 0)
(1.08076 -0.0186688 0)
(1.08422 -0.0189574 0)
(1.08756 -0.0192022 0)
(1.09079 -0.0193956 0)
(1.09389 -0.0195251 0)
(1.09687 -0.0195714 0)
(1.00006 -0.000753092 0)
(1.00067 -0.00222743 0)
(1.00192 -0.00363884 0)
(1.00369 -0.00500226 0)
(1.00588 -0.00632353 0)
(1.00846 -0.00760626 0)
(1.01136 -0.00885256 0)
(1.01455 -0.0100628 0)
(1.01797 -0.0112362 0)
(1.02159 -0.0123711 0)
(1.02537 -0.0134655 0)
(1.02929 -0.0145172 0)
(1.03329 -0.0155241 0)
(1.03737 -0.0164843 0)
(1.04149 -0.017396 0)
(1.04562 -0.0182583 0)
(1.04976 -0.0190703 0)
(1.05387 -0.0198318 0)
(1.05794 -0.0205431 0)
(1.06196 -0.0212045 0)
(1.06591 -0.021817 0)
(1.06978 -0.0223814 0)
(1.07357 -0.0228983 0)
(1.07726 -0.0233681 0)
(1.08085 -0.0237897 0)
(1.08433 -0.0241607 0)
(1.0877 -0.0244757 0)
(1.09096 -0.0247249 0)
(1.09409 -0.0248928 0)
(1.09709 -0.0249545 0)
(1.00006 -0.000908124 0)
(1.00066 -0.00268491 0)
(1.00191 -0.0043869 0)
(1.00366 -0.00603144 0)
(1.00584 -0.00762576 0)
(1.0084 -0.00917447 0)
(1.01129 -0.0106801 0)
(1.01446 -0.0121433 0)
(1.01787 -0.0135629 0)
(1.02148 -0.014937 0)
(1.02525 -0.0162631 0)
(1.02916 -0.0175385 0)
(1.03317 -0.0187605 0)
(1.03724 -0.0199266 0)
(1.04137 -0.0210348 0)
(1.04551 -0.0220836 0)
(1.04966 -0.0230721 0)
(1.05379 -0.0239997 0)
(1.05788 -0.0248667 0)
(1.06192 -0.0256735 0)
(1.06589 -0.026421 0)
(1.06979 -0.0271102 0)
(1.07361 -0.0277419 0)
(1.07733 -0.0283162 0)
(1.08095 -0.0288321 0)
(1.08446 -0.0292864 0)
(1.08786 -0.0296724 0)
(1.09115 -0.0299784 0)
(1.09431 -0.0301854 0)
(1.09734 -0.0302633 0)
(1.00005 -0.00105834 0)
(1.00065 -0.00312812 0)
(1.00189 -0.00511181 0)
(1.00363 -0.00702919 0)
(1.00579 -0.00888889 0)
(1.00833 -0.0106966 0)
(1.0112 -0.0124553 0)
(1.01436 -0.0141658 0)
(1.01775 -0.0158267 0)
(1.02134 -0.0174359 0)
(1.02511 -0.0189903 0)
(1.02901 -0.0204866 0)
(1.03301 -0.0219216 0)
(1.03709 -0.0232921 0)
(1.04122 -0.0245958 0)
(1.04537 -0.0258306 0)
(1.04953 -0.0269954 0)
(1.05368 -0.0280894 0)
(1.05779 -0.0291126 0)
(1.06185 -0.0300655 0)
(1.06586 -0.0309491 0)
(1.06979 -0.0317644 0)
(1.07363 -0.0325121 0)
(1.07739 -0.0331924 0)
(1.08105 -0.0338039 0)
(1.0846 -0.0343427 0)
(1.08803 -0.0348011 0)
(1.09135 -0.0351652 0)
(1.09456 -0.0354124 0)
(1.09763 -0.0355073 0)
(1.00005 -0.00120368 0)
(1.00065 -0.00355687 0)
(1.00187 -0.00581324 0)
(1.00359 -0.00799506 0)
(1.00573 -0.0101124 0)
(1.00825 -0.0121721 0)
(1.0111 -0.0141777 0)
(1.01423 -0.0161299 0)
(1.01761 -0.0180276 0)
(1.02118 -0.0198679 0)
(1.02494 -0.0216474 0)
(1.02882 -0.0233621 0)
(1.03282 -0.0250082 0)
(1.0369 -0.0265821 0)
(1.04104 -0.0280806 0)
(1.0452 -0.0295015 0)
(1.04938 -0.0308429 0)
(1.05354 -0.032104 0)
(1.05768 -0.0332846 0)
(1.06177 -0.0343851 0)
(1.0658 -0.0354063 0)
(1.06977 -0.0363492 0)
(1.07365 -0.0372148 0)
(1.07744 -0.0380029 0)
(1.08114 -0.0387118 0)
(1.08473 -0.0393371 0)
(1.08821 -0.0398696 0)
(1.09157 -0.0402933 0)
(1.09481 -0.040582 0)
(1.09793 -0.0406949 0)
(1.00005 -0.00134408 0)
(1.00064 -0.00397096 0)
(1.00185 -0.00649088 0)
(1.00355 -0.00892867 0)
(1.00567 -0.0112959 0)
(1.00816 -0.0136005 0)
(1.01099 -0.0158467 0)
(1.01409 -0.0180354 0)
(1.01744 -0.0201651 0)
(1.021 -0.0222328 0)
(1.02473 -0.0242343 0)
(1.02861 -0.0261653 0)
(1.0326 -0.0280211 0)
(1.03668 -0.0297975 0)
(1.04082 -0.0314907 0)
(1.04499 -0.0330979 0)
(1.04918 -0.0346168 0)
(1.05337 -0.0360463 0)
(1.05753 -0.0373858 0)
(1.06165 -0.0386357 0)
(1.06572 -0.0397965 0)
(1.06972 -0.0408694 0)
(1.07364 -0.0418551 0)
(1.07747 -0.0427533 0)
(1.08121 -0.043562 0)
(1.08485 -0.044276 0)
(1.08837 -0.0448847 0)
(1.09178 -0.0453698 0)
(1.09507 -0.0457017 0)
(1.09824 -0.0458339 0)
(1.00005 -0.00147948 0)
(1.00063 -0.00437022 0)
(1.00183 -0.00714448 0)
(1.0035 -0.00982967 0)
(1.00559 -0.012439 0)
(1.00806 -0.0149815 0)
(1.01085 -0.017462 0)
(1.01393 -0.0198817 0)
(1.01725 -0.0222389 0)
(1.02079 -0.0245302 0)
(1.0245 -0.0267511 0)
(1.02836 -0.0288963 0)
(1.03235 -0.0309605 0)
(1.03642 -0.0329389 0)
(1.04056 -0.0348269 0)
(1.04475 -0.0366211 0)
(1.04895 -0.0383188 0)
(1.05316 -0.0399183 0)
(1.05734 -0.0414188 0)
(1.0615 -0.0428202 0)
(1.0656 -0.0441233 0)
(1.06964 -0.0453287 0)
(1.0736 -0.0464372 0)
(1.07748 -0.0474483 0)
(1.08127 -0.0483595 0)
(1.08495 -0.0491648 0)
(1.08853 -0.0498521 0)
(1.09199 -0.050401 0)
(1.09533 -0.0507779 0)
(1.09854 -0.0509307 0)
(1.00005 -0.00160985 0)
(1.00062 -0.00475451 0)
(1.0018 -0.00777381 0)
(1.00345 -0.0106977 0)
(1.00551 -0.0135412 0)
(1.00795 -0.0163145 0)
(1.0107 -0.0190231 0)
(1.01375 -0.0216684 0)
(1.01704 -0.0242486 0)
(1.02055 -0.02676 0)
(1.02424 -0.0291974 0)
(1.02808 -0.031555 0)
(1.03205 -0.0338266 0)
(1.03612 -0.0360066 0)
(1.04027 -0.0380898 0)
(1.04446 -0.0400721 0)
(1.04868 -0.0419501 0)
(1.0529 -0.0437216 0)
(1.05711 -0.0453853 0)
(1.0613 -0.0469411 0)
(1.06544 -0.0483892 0)
(1.06952 -0.0497303 0)
(1.07352 -0.0509647 0)
(1.07745 -0.0520918 0)
(1.08129 -0.0531086 0)
(1.08503 -0.0540082 0)
(1.08866 -0.0547771 0)
(1.09217 -0.0553922 0)
(1.09557 -0.0558162 0)
(1.09884 -0.0559912 0)
(1.00005 -0.00173513 0)
(1.00061 -0.0051237 0)
(1.00177 -0.00837864 0)
(1.00339 -0.0115326 0)
(1.00542 -0.0146022 0)
(1.00782 -0.0175991 0)
(1.01054 -0.0205295 0)
(1.01354 -0.023395 0)
(1.0168 -0.0261937 0)
(1.02028 -0.0289217 0)
(1.02394 -0.0315729 0)
(1.02777 -0.034141 0)
(1.03172 -0.0366191 0)
(1.03578 -0.0390006 0)
(1.03992 -0.0412797 0)
(1.04412 -0.0434512 0)
(1.04835 -0.0455113 0)
(1.0526 -0.0474571 0)
(1.05684 -0.0492869 0)
(1.06105 -0.051 0)
(1.06523 -0.0525965 0)
(1.06935 -0.0540766 0)
(1.07341 -0.0554405 0)
(1.07738 -0.0566871 0)
(1.08127 -0.0578131 0)
(1.08507 -0.0588103 0)
(1.08875 -0.0596638 0)
(1.09233 -0.0603479 0)
(1.09578 -0.0608215 0)
(1.09911 -0.0610205 0)
(1.00005 -0.00185529 0)
(1.0006 -0.00547769 0)
(1.00173 -0.00895882 0)
(1.00332 -0.012334 0)
(1.00532 -0.0156217 0)
(1.00768 -0.018835 0)
(1.01036 -0.0219808 0)
(1.01332 -0.025061 0)
(1.01654 -0.0280738 0)
(1.01998 -0.0310146 0)
(1.02361 -0.0338771 0)
(1.02741 -0.0366541 0)
(1.03135 -0.0393377 0)
(1.0354 -0.0419208 0)
(1.03953 -0.0443963 0)
(1.04373 -0.0467586 0)
(1.04798 -0.0490029 0)
(1.05224 -0.0511256 0)
(1.05651 -0.0531244 0)
(1.06075 -0.0549982 0)
(1.06497 -0.0567466 0)
(1.06913 -0.0583695 0)
(1.07324 -0.0598668 0)
(1.07727 -0.0612369 0)
(1.08121 -0.0624757 0)
(1.08507 -0.0635743 0)
(1.08881 -0.0645159 0)
(1.09245 -0.0652722 0)
(1.09596 -0.0657979 0)
(1.09936 -0.0660229 0)
(1.00005 -0.0019703 0)
(1.00058 -0.00581638 0)
(1.0017 -0.0095142 0)
(1.00325 -0.0131018 0)
(1.00521 -0.0165995 0)
(1.00752 -0.0200219 0)
(1.01016 -0.0233767 0)
(1.01307 -0.0266661 0)
(1.01625 -0.0298883 0)
(1.01965 -0.0330383 0)
(1.02324 -0.0361094 0)
(1.02701 -0.0390935 0)
(1.03093 -0.041982 0)
(1.03496 -0.0447666 0)
(1.03909 -0.0474395 0)
(1.04329 -0.0499941 0)
(1.04754 -0.0524248 0)
(1.05183 -0.0547271 0)
(1.05611 -0.0568983 0)
(1.06039 -0.0589364 0)
(1.06465 -0.0608406 0)
(1.06886 -0.0626104 0)
(1.07301 -0.0642452 0)
(1.0771 -0.0657431 0)
(1.0811 -0.067099 0)
(1.08501 -0.0683029 0)
(1.08882 -0.0693364 0)
(1.09252 -0.0701683 0)
(1.09611 -0.070749 0)
(1.09956 -0.0710022 0)
(1.00004 -0.00208014 0)
(1.00057 -0.00613973 0)
(1.00166 -0.0100447 0)
(1.00318 -0.0138358 0)
(1.00509 -0.0175353 0)
(1.00736 -0.0211594 0)
(1.00994 -0.0247166 0)
(1.01281 -0.0282096 0)
(1.01593 -0.0316366 0)
(1.01928 -0.0349923 0)
(1.02284 -0.0382692 0)
(1.02658 -0.0414586 0)
(1.03046 -0.0445511 0)
(1.03448 -0.0475373 0)
(1.0386 -0.0504086 0)
(1.04279 -0.0531573 0)
(1.04705 -0.0557766 0)
(1.05135 -0.0582617 0)
(1.05566 -0.0606086 0)
(1.05997 -0.0628149 0)
(1.06426 -0.0648791 0)
(1.06852 -0.0668002 0)
(1.07272 -0.0685771 0)
(1.07686 -0.0702072 0)
(1.08093 -0.0716847 0)
(1.0849 -0.0729983 0)
(1.08878 -0.0741278 0)
(1.09254 -0.075039 0)
(1.0962 -0.0756779 0)
(1.09972 -0.0759616 0)
(1.00004 -0.00218481 0)
(1.00055 -0.00644768 0)
(1.00162 -0.0105502 0)
(1.0031 -0.0145358 0)
(1.00496 -0.0184289 0)
(1.00718 -0.0222473 0)
(1.0097 -0.0260004 0)
(1.01252 -0.0296913 0)
(1.01559 -0.0333182 0)
(1.01889 -0.0368757 0)
(1.0224 -0.0403557 0)
(1.02609 -0.0437487 0)
(1.02995 -0.0470443 0)
(1.03394 -0.0502323 0)
(1.03804 -0.0533029 0)
(1.04224 -0.0562473 0)
(1.0465 -0.0590579 0)
(1.05081 -0.0617287 0)
(1.05514 -0.064255 0)
(1.05948 -0.0666335 0)
(1.06381 -0.0688622 0)
(1.06811 -0.0709393 0)
(1.07236 -0.0728631 0)
(1.07656 -0.0746302 0)
(1.08068 -0.0762341 0)
(1.08473 -0.0776621 0)
(1.08867 -0.0788919 0)
(1.09251 -0.0798864 0)
(1.09623 -0.0805868 0)
(1.09983 -0.0809038 0)
(1.00004 -0.00228429 0)
(1.00054 -0.00674023 0)
(1.00157 -0.0110307 0)
(1.00301 -0.0152018 0)
(1.00483 -0.0192803 0)
(1.00698 -0.0232855 0)
(1.00945 -0.0272277 0)
(1.0122 -0.0311107 0)
(1.01522 -0.0349328 0)
(1.01846 -0.0386881 0)
(1.02192 -0.0423683 0)
(1.02557 -0.0459629 0)
(1.02939 -0.0494608 0)
(1.03335 -0.0528505 0)
(1.03743 -0.0561213 0)
(1.04162 -0.0592632 0)
(1.04588 -0.0622676 0)
(1.05019 -0.0651274 0)
(1.05455 -0.0678369 0)
(1.05891 -0.070392 0)
(1.06328 -0.0727897 0)
(1.06762 -0.0750277 0)
(1.07193 -0.0771034 0)
(1.07618 -0.0790128 0)
(1.08037 -0.0807482 0)
(1.08448 -0.0822955 0)
(1.08849 -0.0836303 0)
(1.0924 -0.0847123 0)
(1.0962 -0.0854779 0)
(1.09987 -0.0858308 0)
(1.00004 -0.00237859 0)
(1.00052 -0.00701739 0)
(1.00152 -0.0114862 0)
(1.00292 -0.0158339 0)
(1.00468 -0.0200894 0)
(1.00678 -0.0242737 0)
(1.00918 -0.0283984 0)
(1.01187 -0.0324675 0)
(1.01482 -0.0364797 0)
(1.018 -0.0404289 0)
(1.0214 -0.0443062 0)
(1.025 -0.0481004 0)
(1.02878 -0.0517995 0)
(1.0327 -0.055391 0)
(1.03676 -0.0588629 0)
(1.04093 -0.0622041 0)
(1.04519 -0.0654048 0)
(1.04951 -0.0684568 0)
(1.05388 -0.0713534 0)
(1.05827 -0.0740894 0)
(1.06267 -0.076661 0)
(1.06705 -0.079065 0)
(1.07141 -0.081298 0)
(1.07572 -0.083355 0)
(1.07997 -0.0852273 0)
(1.08415 -0.0868991 0)
(1.08824 -0.0883439 0)
(1.09222 -0.0895179 0)
(1.09609 -0.0903525 0)
(1.09984 -0.0907445 0)
(1.00004 -0.00246772 0)
(1.0005 -0.00727921 0)
(1.00147 -0.0119168 0)
(1.00282 -0.016432 0)
(1.00452 -0.0208562 0)
(1.00656 -0.025212 0)
(1.0089 -0.0295122 0)
(1.01151 -0.0337615 0)
(1.01439 -0.0379586 0)
(1.01751 -0.0420975 0)
(1.02085 -0.0461687 0)
(1.02439 -0.0501604 0)
(1.02811 -0.0540594 0)
(1.032 -0.0578525 0)
(1.03603 -0.0615263 0)
(1.04018 -0.0650685 0)
(1.04442 -0.0684681 0)
(1.04875 -0.0717157 0)
(1.05313 -0.0748033 0)
(1.05754 -0.0777248 0)
(1.06197 -0.0804752 0)
(1.0664 -0.0830506 0)
(1.07081 -0.0854464 0)
(1.07518 -0.0876567 0)
(1.07949 -0.0896715 0)
(1.08374 -0.0914734 0)
(1.0879 -0.0930334 0)
(1.09196 -0.0943042 0)
(1.09591 -0.0952119 0)
(1.09973 -0.0956461 0)
(1.00004 -0.00255171 0)
(1.00048 -0.00752575 0)
(1.00141 -0.0123227 0)
(1.00271 -0.0169963 0)
(1.00436 -0.0215808 0)
(1.00633 -0.0261004 0)
(1.00859 -0.0305691 0)
(1.01113 -0.0349925 0)
(1.01393 -0.0393693 0)
(1.01698 -0.0436935 0)
(1.02025 -0.0479552 0)
(1.02373 -0.0521419 0)
(1.0274 -0.0562397 0)
(1.03124 -0.060234 0)
(1.03523 -0.0641103 0)
(1.03935 -0.0678552 0)
(1.04359 -0.0714562 0)
(1.04791 -0.0749026 0)
(1.0523 -0.0781853 0)
(1.05673 -0.0812968 0)
(1.06119 -0.0842312 0)
(1.06566 -0.0869834 0)
(1.07012 -0.0895478 0)
(1.07454 -0.0919173 0)
(1.07892 -0.0940804 0)
(1.08323 -0.0960182 0)
(1.08747 -0.0976989 0)
(1.0916 -0.0990715 0)
(1.09564 -0.100057 0)
(1.09954 -0.100537 0)
(1.00003 -0.00263059 0)
(1.00046 -0.00775713 0)
(1.00136 -0.0127038 0)
(1.0026 -0.017527 0)
(1.00419 -0.0222633 0)
(1.00608 -0.0269391 0)
(1.00827 -0.0315693 0)
(1.01073 -0.0361603 0)
(1.01345 -0.0407114 0)
(1.01642 -0.0452164 0)
(1.01961 -0.0496651 0)
(1.02302 -0.0540443 0)
(1.02663 -0.0583392 0)
(1.03042 -0.0625342 0)
(1.03437 -0.0666137 0)
(1.03846 -0.0705627 0)
(1.04268 -0.0743675 0)
(1.04699 -0.078016 0)
(1.05138 -0.0814977 0)
(1.05583 -0.084804 0)
(1.06032 -0.0879276 0)
(1.06483 -0.0908622 0)
(1.06933 -0.0936011 0)
(1.07381 -0.0961358 0)
(1.07825 -0.0984535 0)
(1.08263 -0.100533 0)
(1.08694 -0.10234 0)
(1.09116 -0.10382 0)
(1.09527 -0.104888 0)
(1.09925 -0.105417 0)
(1.00003 -0.00270439 0)
(1.00044 -0.00797346 0)
(1.0013 -0.0130605 0)
(1.00249 -0.0180243 0)
(1.00401 -0.0229041 0)
(1.00583 -0.0277281 0)
(1.00793 -0.0325127 0)
(1.01031 -0.0372651 0)
(1.01294 -0.0419849 0)
(1.01582 -0.046666 0)
(1.01894 -0.0512978 0)
(1.02227 -0.0558668 0)
(1.02581 -0.0603571 0)
(1.02954 -0.0647522 0)
(1.03345 -0.0690351 0)
(1.0375 -0.0731895 0)
(1.04169 -0.0772004 0)
(1.04599 -0.0810541 0)
(1.05038 -0.0847389 0)
(1.05484 -0.0882446 0)
(1.05935 -0.0915627 0)
(1.06389 -0.0946854 0)
(1.06844 -0.0976049 0)
(1.07297 -0.100311 0)
(1.07748 -0.10279 0)
(1.08193 -0.105018 0)
(1.08631 -0.106957 0)
(1.09061 -0.10855 0)
(1.09481 -0.109704 0)
(1.09887 -0.110286 0)
(1.00003 -0.00277318 0)
(1.00042 -0.00817491 0)
(1.00123 -0.013393 0)
(1.00237 -0.0184884 0)
(1.00382 -0.0235034 0)
(1.00556 -0.0284679 0)
(1.00758 -0.0333997 0)
(1.00986 -0.0383069 0)
(1.01241 -0.0431896 0)
(1.0152 -0.0480419 0)
(1.01823 -0.052853 0)
(1.02148 -0.0576087 0)
(1.02495 -0.0622925 0)
(1.02861 -0.0668866 0)
(1.03246 -0.071373 0)
(1.03647 -0.0757341 0)
(1.04063 -0.0799532 0)
(1.04491 -0.0840153 0)
(1.04929 -0.087907 0)
(1.05376 -0.0916168 0)
(1.05829 -0.0951346 0)
(1.06286 -0.0984513 0)
(1.06745 -0.101558 0)
(1.07203 -0.104442 0)
(1.0766 -0.107088 0)
(1.08112 -0.10947 0)
(1.08558 -0.111549 0)
(1.08996 -0.11326 0)
(1.09424 -0.114506 0)
(1.09838 -0.115146 0)
(1.00003 -0.00283702 0)
(1.0004 -0.00836167 0)
(1.00117 -0.0137015 0)
(1.00225 -0.0189198 0)
(1.00362 -0.0240616 0)
(1.00528 -0.0291588 0)
(1.00721 -0.0342306 0)
(1.0094 -0.0392859 0)
(1.01185 -0.0443257 0)
(1.01454 -0.0493442 0)
(1.01748 -0.0543303 0)
(1.02064 -0.0592695 0)
(1.02403 -0.0641445 0)
(1.02762 -0.0689366 0)
(1.0314 -0.0736264 0)
(1.03536 -0.078195 0)
(1.03948 -0.0826243 0)
(1.04374 -0.0868977 0)
(1.04811 -0.0910002 0)
(1.05258 -0.0949186 0)
(1.05713 -0.0986415 0)
(1.06172 -0.102158 0)
(1.06635 -0.105457 0)
(1.07099 -0.108526 0)
(1.07561 -0.111347 0)
(1.0802 -0.11389 0)
(1.08474 -0.116114 0)
(1.0892 -0.11795 0)
(1.09356 -0.119293 0)
(1.09779 -0.119995 0)
(1.00003 -0.00289597 0)
(1.00038 -0.00853396 0)
(1.0011 -0.0139865 0)
(1.00212 -0.0193189 0)
(1.00342 -0.0245793 0)
(1.00499 -0.0298013 0)
(1.00683 -0.0350057 0)
(1.00892 -0.0402026 0)
(1.01126 -0.0453935 0)
(1.01386 -0.0505728 0)
(1.01669 -0.0557296 0)
(1.01976 -0.0608488 0)
(1.02306 -0.0659125 0)
(1.02657 -0.070901 0)
(1.03029 -0.0757939 0)
(1.03419 -0.0805707 0)
(1.03826 -0.0852119 0)
(1.04249 -0.0896993 0)
(1.04684 -0.0940162 0)
(1.05131 -0.0981479 0)
(1.05587 -0.102081 0)
(1.06048 -0.105803 0)
(1.06515 -0.109302 0)
(1.06983 -0.112563 0)
(1.07451 -0.115564 0)
(1.07917 -0.118276 0)
(1.08378 -0.120651 0)
(1.08832 -0.122618 0)
(1.09277 -0.124065 0)
(1.09708 -0.124832 0)
(1.00002 -0.00295012 0)
(1.00035 -0.00869202 0)
(1.00103 -0.0142483 0)
(1.00199 -0.0196862 0)
(1.00321 -0.0250569 0)
(1.00469 -0.030396 0)
(1.00643 -0.0357257 0)
(1.00842 -0.0410573 0)
(1.01066 -0.0463931 0)
(1.01314 -0.0517278 0)
(1.01587 -0.0570506 0)
(1.01884 -0.0623461 0)
(1.02204 -0.0675958 0)
(1.02547 -0.072779 0)
(1.02911 -0.0778743 0)
(1.03294 -0.0828598 0)
(1.03697 -0.0877144 0)
(1.04115 -0.0924183 0)
(1.04549 -0.0969533 0)
(1.04994 -0.101303 0)
(1.0545 -0.105451 0)
(1.05914 -0.109385 0)
(1.06383 -0.11309 0)
(1.06856 -0.116548 0)
(1.0733 -0.119738 0)
(1.07802 -0.122625 0)
(1.08271 -0.12516 0)
(1.08733 -0.127263 0)
(1.09186 -0.128819 0)
(1.09625 -0.129657 0)
(1.00002 -0.00299956 0)
(1.00033 -0.00883613 0)
(1.00096 -0.0144873 0)
(1.00185 -0.0200223 0)
(1.00299 -0.0254951 0)
(1.00438 -0.0309435 0)
(1.00602 -0.0363912 0)
(1.0079 -0.0418507 0)
(1.01003 -0.0473251 0)
(1.0124 -0.0528097 0)
(1.01501 -0.0582936 0)
(1.01787 -0.0637614 0)
(1.02097 -0.069194 0)
(1.02431 -0.0745699 0)
(1.02786 -0.0798666 0)
(1.03163 -0.0850608 0)
(1.03559 -0.0901301 0)
(1.03973 -0.0950529 0)
(1.04404 -0.0998091 0)
(1.04848 -0.10438 0)
(1.05303 -0.10875 0)
(1.05769 -0.112901 0)
(1.06241 -0.116818 0)
(1.06717 -0.120482 0)
(1.07196 -0.123867 0)
(1.07675 -0.126936 0)
(1.08151 -0.129637 0)
(1.08621 -0.131884 0)
(1.09083 -0.133555 0)
(1.09529 -0.134469 0)
(1.00002 -0.00304438 0)
(1.0003 -0.00896657 0)
(1.00089 -0.0147041 0)
(1.00171 -0.0203276 0)
(1.00277 -0.0258947 0)
(1.00407 -0.0314446 0)
(1.0056 -0.0370029 0)
(1.00737 -0.0425834 0)
(1.00937 -0.04819 0)
(1.01163 -0.0538186 0)
(1.01413 -0.0594587 0)
(1.01687 -0.0650946 0)
(1.01986 -0.0707067 0)
(1.0231 -0.076273 0)
(1.02656 -0.0817698 0)
(1.03025 -0.0871727 0)
(1.03414 -0.0924575 0)
(1.03823 -0.0976012 0)
(1.0425 -0.102582 0)
(1.04691 -0.107379 0)
(1.05146 -0.111974 0)
(1.05612 -0.116349 0)
(1.06087 -0.120485 0)
(1.06567 -0.12436 0)
(1.07051 -0.127947 0)
(1.07536 -0.131207 0)
(1.08019 -0.13408 0)
(1.08497 -0.136479 0)
(1.08967 -0.13827 0)
(1.09422 -0.139266 0)
(1.00002 -0.00308469 0)
(1.00028 -0.00908368 0)
(1.00081 -0.014899 0)
(1.00157 -0.020603 0)
(1.00254 -0.0262563 0)
(1.00374 -0.0319001 0)
(1.00516 -0.0375618 0)
(1.00682 -0.0432563 0)
(1.0087 -0.0489886 0)
(1.01083 -0.0547554 0)
(1.01321 -0.0605463 0)
(1.01583 -0.0663457 0)
(1.01871 -0.0721338 0)
(1.02183 -0.0778879 0)
(1.0252 -0.0835832 0)
(1.0288 -0.0891941 0)
(1.03262 -0.0946952 0)
(1.03665 -0.100061 0)
(1.04087 -0.105269 0)
(1.04526 -0.110296 0)
(1.04979 -0.115122 0)
(1.05445 -0.119726 0)
(1.05922 -0.124086 0)
(1.06405 -0.128181 0)
(1.06894 -0.131978 0)
(1.07384 -0.135435 0)
(1.07874 -0.138489 0)
(1.0836 -0.141045 0)
(1.08839 -0.142964 0)
(1.09301 -0.144046 0)
(1.00002 -0.0031206 0)
(1.00025 -0.00918778 0)
(1.00074 -0.0150727 0)
(1.00142 -0.0208491 0)
(1.00231 -0.0265808 0)
(1.00341 -0.032311 0)
(1.00472 -0.0380687 0)
(1.00625 -0.0438702 0)
(1.00801 -0.0497217 0)
(1.01002 -0.0556206 0)
(1.01226 -0.0615569 0)
(1.01476 -0.0675151 0)
(1.01751 -0.0734753 0)
(1.02052 -0.0794141 0)
(1.02378 -0.0853059 0)
(1.02729 -0.0911241 0)
(1.03103 -0.0968416 0)
(1.03499 -0.102432 0)
(1.03915 -0.107869 0)
(1.0435 -0.11313 0)
(1.04802 -0.118191 0)
(1.05268 -0.123029 0)
(1.05745 -0.127621 0)
(1.06232 -0.131941 0)
(1.06724 -0.135955 0)
(1.0722 -0.139617 0)
(1.07716 -0.142859 0)
(1.0821 -0.145581 0)
(1.08697 -0.147634 0)
(1.09166 -0.148808 0)
(1.00002 -0.00315224 0)
(1.00022 -0.00927926 0)
(1.00066 -0.0152257 0)
(1.00127 -0.0210666 0)
(1.00208 -0.0268692 0)
(1.00307 -0.0326782 0)
(1.00427 -0.0385246 0)
(1.00568 -0.0444263 0)
(1.00731 -0.0503903 0)
(1.00918 -0.056415 0)
(1.01129 -0.0624911 0)
(1.01366 -0.0686032 0)
(1.01628 -0.0747313 0)
(1.01917 -0.0808515 0)
(1.02231 -0.0869376 0)
(1.02571 -0.0929618 0)
(1.02936 -0.0988957 0)
(1.03325 -0.104711 0)
(1.03735 -0.110381 0)
(1.04166 -0.115878 0)
(1.04615 -0.121178 0)
(1.05079 -0.126256 0)
(1.05557 -0.131086 0)
(1.06046 -0.135639 0)
(1.06542 -0.139877 0)
(1.07043 -0.143751 0)
(1.07546 -0.147189 0)
(1.08047 -0.150083 0)
(1.08542 -0.152277 0)
(1.09019 -0.153549 0)
(1.00001 -0.00317973 0)
(1.0002 -0.00935847 0)
(1.00058 -0.0153587 0)
(1.00112 -0.0212564 0)
(1.00184 -0.0271223 0)
(1.00273 -0.0330028 0)
(1.00381 -0.0389308 0)
(1.00509 -0.0449256 0)
(1.00659 -0.0509955 0)
(1.00832 -0.0571398 0)
(1.01029 -0.0633498 0)
(1.01252 -0.0696106 0)
(1.01501 -0.0759021 0)
(1.01777 -0.0822002 0)
(1.02079 -0.0884779 0)
(1.02408 -0.0947065 0)
(1.02763 -0.100856 0)
(1.03143 -0.106897 0)
(1.03547 -0.112801 0)
(1.03972 -0.118538 0)
(1.04418 -0.124082 0)
(1.04881 -0.129404 0)
(1.05358 -0.134478 0)
(1.05849 -0.13927 0)
(1.06348 -0.14374 0)
(1.06854 -0.147834 0)
(1.07362 -0.151475 0)
(1.07871 -0.154549 0)
(1.08374 -0.15689 0)
(1.08857 -0.158266 0)
(1.00001 -0.0032032 0)
(1.00017 -0.00942582 0)
(1.0005 -0.0154722 0)
(1.00097 -0.0214193 0)
(1.00159 -0.0273412 0)
(1.00238 -0.0332859 0)
(1.00334 -0.0392885 0)
(1.00449 -0.0453694 0)
(1.00586 -0.0515385 0)
(1.00744 -0.0577959 0)
(1.00927 -0.0641339 0)
(1.01136 -0.070538 0)
(1.01371 -0.0769882 0)
(1.01633 -0.0834603 0)
(1.01922 -0.0899266 0)
(1.0224 -0.0963576 0)
(1.02584 -0.102722 0)
(1.02955 -0.10899 0)
(1.03351 -0.115128 0)
(1.0377 -0.121108 0)
(1.04211 -0.126899 0)
(1.04671 -0.132471 0)
(1.05148 -0.137794 0)
(1.0564 -0.142832 0)
(1.06142 -0.147541 0)
(1.06652 -0.151862 0)
(1.07166 -0.155714 0)
(1.07681 -0.158976 0)
(1.08192 -0.161472 0)
(1.08681 -0.162958 0)
(1.00001 -0.00322279 0)
(1.00014 -0.00948171 0)
(1.00042 -0.0155669 0)
(1.00082 -0.0215561 0)
(1.00135 -0.0275269 0)
(1.00202 -0.0335288 0)
(1.00287 -0.0395988 0)
(1.00389 -0.045759 0)
(1.00511 -0.0520205 0)
(1.00655 -0.0583847 0)
(1.00823 -0.0648447 0)
(1.01017 -0.0713864 0)
(1.01237 -0.0779904 0)
(1.01485 -0.0846321 0)
(1.01761 -0.0912837 0)
(1.02066 -0.0979148 0)
(1.02399 -0.104493 0)
(1.02759 -0.110986 0)
(1.03147 -0.117362 0)
(1.03559 -0.123586 0)
(1.03995 -0.129628 0)
(1.04452 -0.135455 0)
(1.04928 -0.141032 0)
(1.05419 -0.146322 0)
(1.05923 -0.151277 0)
(1.06437 -0.155833 0)
(1.06956 -0.159903 0)
(1.07478 -0.163361 0)
(1.07996 -0.166019 0)
(1.08492 -0.167622 0)
(1.00001 -0.00323864 0)
(1.00012 -0.00952657 0)
(1.00034 -0.0156434 0)
(1.00066 -0.0216678 0)
(1.0011 -0.0276806 0)
(1.00167 -0.0337327 0)
(1.00239 -0.0398633 0)
(1.00327 -0.0460959 0)
(1.00436 -0.0524432 0)
(1.00565 -0.0589076 0)
(1.00718 -0.0654832 0)
(1.00896 -0.0721569 0)
(1.01101 -0.0789093 0)
(1.01334 -0.0857162 0)
(1.01595 -0.0925494 0)
(1.01887 -0.0993778 0)
(1.02207 -0.106168 0)
(1.02557 -0.112887 0)
(1.02935 -0.119499 0)
(1.0334 -0.12597 0)
(1.0377 -0.132266 0)
(1.04223 -0.138351 0)
(1.04696 -0.144189 0)
(1.05187 -0.149737 0)
(1.05693 -0.154945 0)
(1.06209 -0.159743 0)
(1.06733 -0.16404 0)
(1.07261 -0.1677 0)
(1.07786 -0.170527 0)
(1.08287 -0.172253 0)
(1.00001 -0.00325089 0)
(1.00009 -0.00956081 0)
(1.00026 -0.0157026 0)
(1.0005 -0.0217553 0)
(1.00085 -0.0278033 0)
(1.00131 -0.0338989 0)
(1.0019 -0.0400833 0)
(1.00266 -0.0463816 0)
(1.00359 -0.0528079 0)
(1.00473 -0.059366 0)
(1.00611 -0.066051 0)
(1.00773 -0.0728507 0)
(1.00962 -0.0797461 0)
(1.01179 -0.0867134 0)
(1.01426 -0.0937241 0)
(1.01703 -0.100747 0)
(1.02011 -0.107747 0)
(1.02349 -0.11469 0)
(1.02717 -0.12154 0)
(1.03113 -0.128259 0)
(1.03536 -0.134811 0)
(1.03984 -0.141159 0)
(1.04454 -0.147262 0)
(1.04944 -0.153074 0)
(1.0545 -0.158541 0)
(1.05969 -0.163589 0)
(1.06497 -0.168119 0)
(1.07031 -0.171989 0)
(1.07563 -0.174994 0)
(1.08069 -0.176849 0)
(1.00001 -0.00325969 0)
(1.00006 -0.00958489 0)
(1.00017 -0.0157449 0)
(1.00035 -0.0218195 0)
(1.0006 -0.0278962 0)
(1.00095 -0.0340287 0)
(1.00142 -0.0402604 0)
(1.00203 -0.0466176 0)
(1.00282 -0.0531164 0)
(1.00381 -0.0597616 0)
(1.00502 -0.0665497 0)
(1.00648 -0.0734691 0)
(1.00821 -0.080502 0)
(1.01022 -0.0876245 0)
(1.01253 -0.0948084 0)
(1.01516 -0.102022 0)
(1.0181 -0.10923 0)
(1.02135 -0.116396 0)
(1.02492 -0.123482 0)
(1.02878 -0.13045 0)
(1.03294 -0.137262 0)
(1.03736 -0.143875 0)
(1.04202 -0.150247 0)
(1.0469 -0.156329 0)
(1.05196 -0.162062 0)
(1.05717 -0.167367 0)
(1.06248 -0.172138 0)
(1.06787 -0.176226 0)
(1.07326 -0.179415 0)
(1.07836 -0.181407 0)
(1 -0.00326519 0)
(1.00003 -0.00959922 0)
(1.00009 -0.0157712 0)
(1.00019 -0.0218614 0)
(1.00035 -0.0279604 0)
(1.00059 -0.0341236 0)
(1.00093 -0.040396 0)
(1.00141 -0.0468057 0)
(1.00205 -0.0533703 0)
(1.00288 -0.0600961 0)
(1.00393 -0.0669807 0)
(1.00522 -0.0740139 0)
(1.00678 -0.0811783 0)
(1.00863 -0.0884507 0)
(1.01078 -0.095803 0)
(1.01325 -0.103203 0)
(1.01604 -0.110616 0)
(1.01916 -0.118003 0)
(1.02261 -0.125325 0)
(1.02637 -0.132543 0)
(1.03044 -0.139615 0)
(1.03479 -0.146497 0)
(1.0394 -0.153143 0)
(1.04425 -0.1595 0)
(1.04931 -0.165505 0)
(1.05453 -0.171073 0)
(1.05987 -0.176092 0)
(1.0653 -0.180406 0)
(1.07074 -0.183787 0)
(1.07588 -0.185923 0)
(1 -0.00326754 0)
(1 -0.00960426 0)
(1.00001 -0.0157822 0)
(1.00003 -0.0218819 0)
(1.0001 -0.0279973 0)
(1.00022 -0.0341848 0)
(1.00044 -0.0404917 0)
(1.00078 -0.0469475 0)
(1.00127 -0.0535714 0)
(1.00194 -0.0603713 0)
(1.00282 -0.067346 0)
(1.00395 -0.0744865 0)
(1.00533 -0.0817764 0)
(1.00701 -0.0891932 0)
(1.00899 -0.096709 0)
(1.0113 -0.104292 0)
(1.01394 -0.111905 0)
(1.01692 -0.119511 0)
(1.02024 -0.127069 0)
(1.02389 -0.134536 0)
(1.02786 -0.14187 0)
(1.03213 -0.149023 0)
(1.03669 -0.155947 0)
(1.0415 -0.162584 0)
(1.04654 -0.168865 0)
(1.05176 -0.174704 0)
(1.05712 -0.179979 0)
(1.06259 -0.184526 0)
(1.06809 -0.188106 0)
(1.07326 -0.190392 0)
(1 -0.00326689 0)
(0.999977 -0.00960045 0)
(0.999928 -0.0157786 0)
(0.999878 -0.0218821 0)
(0.999845 -0.028008 0)
(0.999861 -0.0342139 0)
(0.999951 -0.0405492 0)
(1.00015 -0.0470449 0)
(1.00049 -0.0537217 0)
(1.001 -0.0605891 0)
(1.00172 -0.0676475 0)
(1.00266 -0.0748889 0)
(1.00388 -0.0822982 0)
(1.00538 -0.0898534 0)
(1.00719 -0.0975274 0)
(1.00933 -0.105288 0)
(1.01181 -0.113099 0)
(1.01464 -0.120921 0)
(1.01782 -0.128712 0)
(1.02134 -0.136428 0)
(1.02521 -0.144024 0)
(1.0294 -0.151451 0)
(1.03389 -0.158655 0)
(1.03866 -0.165576 0)
(1.04367 -0.172141 0)
(1.04888 -0.178255 0)
(1.05425 -0.183793 0)
(1.05976 -0.18858 0)
(1.06531 -0.192368 0)
(1.07049 -0.194811 0)
(1 -0.00326339 0)
(0.999949 -0.00958823 0)
(0.999847 -0.015761 0)
(0.999723 -0.0218628 0)
(0.999596 -0.0279937 0)
(0.9995 -0.0342124 0)
(0.999463 -0.0405701 0)
(0.999522 -0.0470995 0)
(0.999709 -0.053823 0)
(1.00006 -0.0607516 0)
(1.0006 -0.0678871 0)
(1.00138 -0.075223 0)
(1.00241 -0.0827453 0)
(1.00373 -0.090433 0)
(1.00536 -0.0982596 0)
(1.00733 -0.106193 0)
(1.00964 -0.114197 0)
(1.01231 -0.122232 0)
(1.01535 -0.130254 0)
(1.01874 -0.138218 0)
(1.02249 -0.146077 0)
(1.02659 -0.153778 0)
(1.031 -0.161266 0)
(1.03571 -0.168475 0)
(1.04069 -0.175328 0)
(1.04589 -0.181725 0)
(1.05126 -0.187531 0)
(1.05679 -0.192566 0)
(1.06238 -0.196568 0)
(1.06758 -0.199176 0)
(0.999999 -0.00325718 0)
(0.999922 -0.00956804 0)
(0.999766 -0.0157303 0)
(0.999568 -0.0218251 0)
(0.999347 -0.0279556 0)
(0.99914 -0.0341816 0)
(0.998978 -0.0405561 0)
(0.998897 -0.0471133 0)
(0.998931 -0.0538773 0)
(0.999118 -0.0608607 0)
(0.999493 -0.0680669 0)
(1.00009 -0.0754908 0)
(1.00094 -0.0831197 0)
(1.00208 -0.0909338 0)
(1.00353 -0.098907 0)
(1.00531 -0.107008 0)
(1.00745 -0.1152 0)
(1.00995 -0.123444 0)
(1.01283 -0.131695 0)
(1.01609 -0.139906 0)
(1.01972 -0.148027 0)
(1.0237 -0.156003 0)
(1.02803 -0.163777 0)
(1.03267 -0.171278 0)
(1.0376 -0.178423 0)
(1.04278 -0.185107 0)
(1.04815 -0.191189 0)
(1.0537 -0.196479 0)
(1.05932 -0.200703 0)
(1.06453 -0.203483 0)
(0.999998 -0.00324842 0)
(0.999895 -0.00954031 0)
(0.999686 -0.015687 0)
(0.999415 -0.02177 0)
(0.9991 -0.0278951 0)
(0.998784 -0.034123 0)
(0.998495 -0.0405089 0)
(0.998274 -0.0470882 0)
(0.998157 -0.0538867 0)
(0.998181 -0.0609186 0)
(0.998383 -0.0681891 0)
(0.9988 -0.0756945 0)
(0.999467 -0.0834235 0)
(1.00042 -0.0913575 0)
(1.00168 -0.0994714 0)
(1.00328 -0.107734 0)
(1.00523 -0.11611 0)
(1.00757 -0.124559 0)
(1.01028 -0.133034 0)
(1.01339 -0.14149 0)
(1.01688 -0.149872 0)
(1.02075 -0.158125 0)
(1.02498 -0.166185 0)
(1.02955 -0.17398 0)
(1.03442 -0.181422 0)
(1.03957 -0.188399 0)
(1.04492 -0.194763 0)
(1.05047 -0.200314 0)
(1.05613 -0.204768 0)