/*--------------------------------*- C++ -*----------------------------------*\
  =========                 |
  \\      /  F ield         | OpenFOAM: The Open Source CFD Toolbox
   \\    /   O peration     | Website:  https://openfoam.org
    \\  /    A nd           | Version:  7
     \\/     M anipulation  |
\*---------------------------------------------------------------------------*/
FoamFile
{
    version     2.0;
    format      ascii;
    class       surfaceScalarField;
    location    "10";
    object      phi;
}
// * * * * * * * * * * * * * * * * * * * * * * * * * * * * * * * * * * * * * //

dimensions      [0 3 -1 0 0 0 0];

internalField   nonuniform List<scalar> 
5144
(
0.00203438
0.00069293
0.00202671
0.000680437
0.00201928
0.000665018
0.00201212
0.000646722
0.00200525
0.000625654
0.00199869
0.000601985
0.00199247
0.000575941
0.0019866
0.000547808
0.00198109
0.00051792
0.00197596
0.000486657
0.00197121
0.000454413
0.00196684
0.000421626
0.00196285
0.000388691
0.00195922
0.000356057
0.00195594
0.000324045
0.00195301
0.000293096
0.0019504
0.000263357
0.00194808
0.00023531
0.00194605
0.000208767
0.00194427
0.000184447
0.00194273
0.000161506
0.00194139
0.0001414
0.00194026
0.000121894
0.00193926
0.000106356
0.00193845
8.94643e-05
0.00193771
7.90751e-05
6.29103e-05
0.00219712
0.000485077
0.00219032
0.000499273
0.00218338
0.000513797
0.00217632
0.000528608
0.00216912
0.000543656
0.0021618
0.000558875
0.00215434
0.00057419
0.00214676
0.000589511
0.00213906
0.000604733
0.00213124
0.000619738
0.00212331
0.000634392
0.00211528
0.000648546
0.00210716
0.000662037
0.00209896
0.000674688
0.00209069
0.000686308
0.00208238
0.000696698
0.00207404
0.000705647
0.0020657
0.000712941
0.00205736
0.000718363
0.00204907
0.0007217
0.00204084
0.000722748
0.0020327
0.000721316
0.00202468
0.000717238
0.00201681
0.000710374
0.00200912
0.000700622
0.00200164
0.000687922
0.00199439
0.000672269
0.0019874
0.000653711
0.00198069
0.000632358
0.0019743
0.000608379
0.00196823
0.000582006
0.00196251
0.000553529
0.00195715
0.000523282
0.00195216
0.000491652
0.00194753
0.000459038
0.00194328
0.00042588
0.00193939
0.000392578
0.00193586
0.000359586
0.00193268
0.000327227
0.00192983
0.000295948
0.00192729
0.000265893
0.00192505
0.000237555
0.00192307
0.000210737
0.00192135
0.000186173
0.00191986
0.000162997
0.00191856
0.000142701
0.00191746
0.000122992
0.00191649
0.000107322
0.00191571
9.02429e-05
0.00191499
7.97963e-05
6.34435e-05
0.00216846
0.000491656
0.00216176
0.000505973
0.00215494
0.000520621
0.00214799
0.000535558
0.00214091
0.000550731
0.00213371
0.000566076
0.00212639
0.000581515
0.00211894
0.000596957
0.00211138
0.000612297
0.0021037
0.000627414
0.00209592
0.000642173
0.00208805
0.000656423
0.00208008
0.00067
0.00207205
0.000682725
0.00206395
0.000694405
0.00205581
0.000704838
0.00204765
0.000713812
0.00203948
0.00072111
0.00203132
0.000726516
0.00202321
0.000729812
0.00201516
0.000730795
0.00200721
0.000729271
0.00199937
0.000725073
0.00199169
0.000718061
0.00198418
0.000708133
0.00197687
0.00069523
0.00196979
0.000679345
0.00196297
0.00066053
0.00195644
0.000638895
0.0019502
0.000614613
0.00194429
0.000587917
0.00193872
0.000559101
0.0019335
0.000528504
0.00192863
0.000496516
0.00192413
0.000463539
0.00191999
0.000430018
0.00191621
0.000396358
0.00191278
0.000363016
0.00190969
0.000330318
0.00190692
0.000298717
0.00190446
0.000268356
0.00190228
0.000239734
0.00190037
0.000212648
0.0018987
0.000187847
0.00189725
0.000164442
0.00189599
0.00014396
0.00189493
0.000124054
0.001894
0.000108257
0.00189324
9.0995e-05
0.00189255
8.04942e-05
6.39582e-05
0.00214013
0.000498132
0.00213354
0.000512567
0.00212683
0.000527334
0.00211999
0.000542392
0.00211304
0.000557686
0.00210596
0.000573152
0.00209877
0.00058871
0.00209145
0.000604269
0.00208403
0.000619721
0.0020765
0.000634945
0.00206887
0.000649805
0.00206114
0.000664147
0.00205334
0.000677806
0.00204546
0.0006906
0.00203753
0.000702336
0.00202956
0.000712808
0.00202157
0.000721804
0.00201357
0.000729105
0.0020056
0.000734491
0.00199766
0.000737745
0.0019898
0.000738661
0.00198203
0.000737044
0.00197437
0.000732727
0.00196686
0.000725568
0.00195953
0.000715466
0.0019524
0.000702361
0.0019455
0.000686249
0.00193885
0.000667181
0.00193247
0.000645269
0.0019264
0.000620689
0.00192064
0.000593676
0.00191521
0.000564529
0.00191013
0.000533589
0.00190539
0.00050125
0.00190101
0.000467918
0.00189699
0.000434043
0.00189331
0.000400033
0.00188998
0.000366349
0.00188698
0.000333321
0.00188429
0.000301406
0.0018819
0.000270745
0.00187979
0.000241848
0.00187793
0.0002145
0.00187631
0.000189469
0.00187491
0.000165841
0.00187369
0.000145178
0.00187267
0.000125082
0.00187176
0.00010916
0.00187104
9.17209e-05
0.00187036
8.11693e-05
6.44548e-05
0.00211213
0.000504507
0.00210564
0.000519055
0.00209904
0.000533937
0.00209232
0.000549111
0.00208549
0.000564522
0.00207853
0.000580103
0.00207147
0.000595776
0.00206429
0.000611447
0.00205701
0.000627007
0.00204962
0.000642334
0.00204213
0.000657289
0.00203456
0.000671719
0.00202691
0.000685455
0.0020192
0.000698315
0.00201143
0.000710102
0.00200363
0.000720611
0.00199581
0.000729625
0.00198799
0.000736926
0.00198019
0.00074229
0.00197243
0.000745501
0.00196474
0.000746348
0.00195715
0.000744639
0.00194967
0.000740202
0.00194235
0.000732897
0.00193519
0.000722622
0.00192823
0.000709319
0.0019215
0.000692982
0.00191501
0.000673665
0.0019088
0.000651481
0.00190288
0.000626609
0.00189727
0.000599286
0.00189199
0.000569814
0.00188704
0.000538538
0.00188243
0.000505856
0.00187817
0.000472177
0.00187426
0.000437956
0.00187069
0.000403604
0.00186745
0.000369588
0.00186453
0.000336237
0.00186192
0.000304015
0.00185961
0.000273063
0.00185756
0.000243897
0.00185576
0.000216295
0.00185419
0.000191039
0.00185284
0.000167195
0.00185166
0.000146357
0.00185066
0.000126075
0.00184979
0.000110033
0.00184909
9.24214e-05
0.00184844
8.18222e-05
6.49338e-05
0.00208446
0.00051078
0.00207807
0.000525436
0.00207158
0.000540429
0.00206498
0.000555715
0.00205826
0.000571238
0.00205143
0.000586931
0.0020445
0.000602713
0.00203745
0.000618491
0.0020303
0.000634155
0.00202306
0.00064958
0.00201572
0.000664626
0.0020083
0.000679139
0.00200081
0.000692949
0.00199325
0.00070587
0.00198565
0.000717705
0.00197801
0.000728247
0.00197036
0.000737277
0.00196271
0.000744575
0.00195509
0.000749916
0.00194751
0.000753081
0.00194
0.000753859
0.00193258
0.000752056
0.00192528
0.0007475
0.00191813
0.000740051
0.00191114
0.000729605
0.00190436
0.000716106
0.00189779
0.000699548
0.00189147
0.000679985
0.00188542
0.000657535
0.00187965
0.000632376
0.00187419
0.000604749
0.00186904
0.000574959
0.00186423
0.000543354
0.00185975
0.000510336
0.00185561
0.000476318
0.0018518
0.000441759
0.00184833
0.000407073
0.00184519
0.000372732
0.00184236
0.000339067
0.00183983
0.000306547
0.00183758
0.000275311
0.00183559
0.000245883
0.00183385
0.000218034
0.00183233
0.00019256
0.00183102
0.000168506
0.00182988
0.000147497
0.00182892
0.000127035
0.00182808
0.000110877
0.0018274
9.30969e-05
0.00182677
8.24531e-05
6.53956e-05
0.0020571
0.00051695
0.00205083
0.000531712
0.00204445
0.000546811
0.00203796
0.000562204
0.00203136
0.000577834
0.00202466
0.000593634
0.00201785
0.000609522
0.00201094
0.000625403
0.00200393
0.000641165
0.00199682
0.000656684
0.00198963
0.000671818
0.00198236
0.00068641
0.00197502
0.000700288
0.00196762
0.000713267
0.00196018
0.000725147
0.00195271
0.000735718
0.00194523
0.000744761
0.00193775
0.000752053
0.0019303
0.000757369
0.00192289
0.000760487
0.00191555
0.000761195
0.00190831
0.000759298
0.00190119
0.000754624
0.00189421
0.000747032
0.00188739
0.000736417
0.00188078
0.000722724
0.00187438
0.000705948
0.00186822
0.000686145
0.00186232
0.000663432
0.0018567
0.000637992
0.00185139
0.000610067
0.00184638
0.000579966
0.00184169
0.00054804
0.00183734
0.000514693
0.00183331
0.000480344
0.00182961
0.000445455
0.00182624
0.000410443
0.00182319
0.000375785
0.00182045
0.000341814
0.00181799
0.000309003
0.00181581
0.00027749
0.00181389
0.000247808
0.0018122
0.000219718
0.00181073
0.000194032
0.00180946
0.000169773
0.00180836
0.000148599
0.00180743
0.000127962
0.00180662
0.000111691
0.00180597
9.3748e-05
0.00180536
8.30627e-05
6.58405e-05
0.00203007
0.00052302
0.0020239
0.000537881
0.00201763
0.000553083
0.00201126
0.000568578
0.00200478
0.000584312
0.0019982
0.000600214
0.00199152
0.000616203
0.00198474
0.000632182
0.00197787
0.000648039
0.0019709
0.000663647
0.00196386
0.000678864
0.00195673
0.000693531
0.00194955
0.000707474
0.00194231
0.000720507
0.00193503
0.000732428
0.00192772
0.000743026
0.0019204
0.000752079
0.00191309
0.000759363
0.00190581
0.000764651
0.00189857
0.000767721
0.00189141
0.000768359
0.00188434
0.000766368
0.00187739
0.000761576
0.00187058
0.000753841
0.00186394
0.00074306
0.00185748
0.000729175
0.00185125
0.000712185
0.00184525
0.000692145
0.0018395
0.000669175
0.00183404
0.000643459
0.00182886
0.000615243
0.00182399
0.000584837
0.00181943
0.000552596
0.0018152
0.000518929
0.00181128
0.000484256
0.00180769
0.000449045
0.00180442
0.000413716
0.00180146
0.000378748
0.00179879
0.000344478
0.00179641
0.000311384
0.0017943
0.000279602
0.00179244
0.000249671
0.00179081
0.000221348
0.00178939
0.000195455
0.00178816
0.000170999
0.0017871
0.000149664
0.0017862
0.000128858
0.00178541
0.000112477
0.00178479
9.43751e-05
0.0017842
8.36515e-05
6.62691e-05
0.00200336
0.000528987
0.0019973
0.000543945
0.00199114
0.000559244
0.00198488
0.000574839
0.00197852
0.000590671
0.00197206
0.000606672
0.00196551
0.000622757
0.00195886
0.00063883
0.00195212
0.000654777
0.0019453
0.00067047
0.0019384
0.000685766
0.00193142
0.000700503
0.00192439
0.000714509
0.0019173
0.000727592
0.00191018
0.000739551
0.00190303
0.000750171
0.00189588
0.000759232
0.00188874
0.000766506
0.00188162
0.000771765
0.00187456
0.000774785
0.00186757
0.000775352
0.00186067
0.000773268
0.00185388
0.000768359
0.00184724
0.000760482
0.00184077
0.000749536
0.00183448
0.000735464
0.0018284
0.000718262
0.00182256
0.00069799
0.00181697
0.000674767
0.00181164
0.000648781
0.00180661
0.000620279
0.00180187
0.000589575
0.00179744
0.000557026
0.00179332
0.000523045
0.00178952
0.000488057
0.00178604
0.000452531
0.00178286
0.000416892
0.00177999
0.000381623
0.0017774
0.000347061
0.0017751
0.000313691
0.00177305
0.000281647
0.00177125
0.000251475
0.00176967
0.000222925
0.00176829
0.000196831
0.00176711
0.000172183
0.00176608
0.000150691
0.00176521
0.000129723
0.00176446
0.000113233
0.00176385
9.49824e-05
0.00176329
8.42146e-05
6.66854e-05
0.00589394
0.00053348
0.00588936
0.000548527
0.0058847
0.000563906
0.00587997
0.000579566
0.00587519
0.000595448
0.00587039
0.000611478
0.00586558
0.000627569
0.00586079
0.000643619
0.00585605
0.000659511
0.00585141
0.000675114
0.0058469
0.00069028
0.00584256
0.000704844
0.00583844
0.000718628
0.00583459
0.000731441
0.00583106
0.000743075
0.00582792
0.000753316
0.00582521
0.00076194
0.005823
0.000768719
0.00582134
0.000773424
0.00582029
0.000775832
0.00581991
0.00077573
0.00582026
0.000772925
0.00582137
0.000767245
0.0058233
0.000758552
0.00582609
0.000746751
0.00582976
0.00073179
0.00583435
0.000713674
0.00583987
0.000692469
0.00584633
0.000668301
0.00585375
0.000641366
0.00586211
0.000611918
0.00587141
0.000580276
0.00588163
0.000546804
0.00589276
0.000511918
0.00590477
0.000476049
0.00591763
0.000439666
0.00593133
0.0004032
0.00594582
0.00036713
0.00596108
0.000331803
0.00597708
0.000297687
0.00599379
0.000264942
0.00601119
0.000234073
0.00602922
0.00020489
0.00604792
0.000178134
0.00606717
0.000152931
0.00608708
0.000130782
0.00610744
0.000109363
0.00612851
9.21675e-05
0.00614987
7.3622e-05
0.00617207
6.20139e-05
4.43033e-05
0.00592685
0.000538661
0.0059216
0.000553776
0.0059163
0.00056921
0.00591095
0.000584912
0.00590558
0.000600818
0.00590021
0.000616851
0.00589486
0.000632921
0.00588956
0.000648922
0.00588433
0.000664733
0.00587923
0.000680219
0.00587428
0.000695228
0.00586953
0.000709594
0.00586503
0.000723133
0.00586082
0.000735651
0.00585695
0.00074694
0.00585349
0.000756781
0.00585048
0.000764951
0.00584798
0.000771219
0.00584604
0.000775359
0.00584472
0.000777147
0.00584408
0.000776374
0.00584416
0.000772848
0.005845
0.000766402
0.00584665
0.000756903
0.00584914
0.000744261
0.0058525
0.000728432
0.00585675
0.000709427
0.0058619
0.000687318
0.00586796
0.000662241
0.00587493
0.000634395
0.0058828
0.000604044
0.00589156
0.000571511
0.0059012
0.000537167
0.00591169
0.00050143
0.005923
0.000464736
0.00593511
0.000427554
0.00594799
0.000390321
0.00596161
0.000353509
0.00597594
0.000317478
0.00599095
0.000282676
0.0060066
0.000249291
0.00602289
0.000217784
0.00603975
0.000188029
0.00605722
0.000160664
0.00607518
0.000134969
0.00609376
0.000112207
0.00611272
9.04054e-05
0.00613235
7.25309e-05
0.0061522
5.37757e-05
0.0061729
4.13164e-05
2.35392e-05
0.00595546
0.000544425
0.00594965
0.00055958
0.00594382
0.000575043
0.00593797
0.00059076
0.00593213
0.000606662
0.00592631
0.000622671
0.00592054
0.000638691
0.00591484
0.000654615
0.00590926
0.000670317
0.00590382
0.000685658
0.00589857
0.000700484
0.00589353
0.000714624
0.00588877
0.000727893
0.00588433
0.000740094
0.00588026
0.000751016
0.0058766
0.000760439
0.00587341
0.000768138
0.00587075
0.000773884
0.00586866
0.000777449
0.00586719
0.000778613
0.0058664
0.000777167
0.00586632
0.000772924
0.005867
0.000765721
0.00586848
0.00075543
0.00587077
0.000741967
0.00587391
0.000725294
0.00587791
0.00070543
0.00588277
0.000682452
0.00588851
0.000656505
0.00589511
0.000627793
0.00590257
0.000596588
0.00591086
0.000563216
0.00591997
0.000528053
0.00592988
0.000491522
0.00594056
0.000454063
0.00595197
0.000416143
0.00596408
0.000378204
0.00597688
0.000340713
0.00599032
0.00030404
0.00600438
0.000268616
0.00601902
0.000234652
0.00603423
0.00020257
0.00604996
0.0001723
0.00606623
0.000144389
0.00608295
0.00011825
0.00610022
9.49427e-05
0.00611783
7.27926e-05
0.00613605
5.43163e-05
0.00615446
3.53599e-05
0.00617362
2.2159e-05
4.30417e-06
0.00598579
0.000535822
0.00597956
0.000550649
0.00597333
0.000565818
0.00596709
0.000581283
0.00596086
0.000596986
0.00595467
0.000612857
0.00594852
0.000628812
0.00594246
0.000644754
0.00593651
0.000660571
0.00593069
0.000676135
0.00592504
0.000691304
0.00591961
0.00070592
0.00591442
0.000719808
0.00590953
0.000732783
0.00590498
0.000744644
0.00590082
0.000755178
0.00589709
0.000764165
0.00589385
0.00077138
0.00589114
0.000776592
0.00588902
0.000779575
0.00588752
0.000780112
0.00588669
0.000777995
0.00588657
0.000773042
0.0058872
0.000765094
0.0058886
0.000754028
0.0058908
0.000739767
0.00589382
0.000722278
0.00589766
0.000701587
0.00590233
0.00067778
0.00590783
0.000651005
0.00591415
0.000621475
0.00592127
0.000589466
0.00592918
0.00055531
0.00593784
0.000519389
0.00594724
0.000482125
0.00595734
0.000443962
0.00596811
0.000405369
0.00597953
0.00036679
0.00599155
0.000328687
0.00600416
0.000291436
0.00601732
0.000255456
0.006031
0.000220976
0.00604518
0.000188384
0.00605983
0.000157655
0.00607495
0.000129265
0.00609047
0.000102732
0.00610646
7.89462e-05
0.00612277
5.6485e-05
0.0061396
3.74829e-05
0.00615663
1.83384e-05
0.00617429
4.49737e-06
-1.34393e-05
0.00600547
0.00054238
0.00599892
0.000557203
0.00599238
0.000572358
0.00598587
0.000587796
0.0059794
0.000603456
0.00597299
0.000619265
0.00596666
0.000635137
0.00596045
0.000650971
0.00595436
0.000666652
0.00594845
0.00068205
0.00594273
0.000697018
0.00593726
0.000711397
0.00593206
0.000725009
0.00592717
0.000737666
0.00592265
0.000749165
0.00591854
0.000759293
0.00591488
0.000767829
0.00591171
0.000774545
0.00590909
0.000779215
0.00590705
0.000781612
0.00590564
0.000781521
0.0059049
0.000778739
0.00590485
0.000773085
0.00590554
0.000764406
0.00590698
0.000752587
0.0059092
0.000737553
0.0059122
0.000719279
0.00591598
0.000697799
0.00592056
0.000673204
0.00592591
0.000645649
0.00593204
0.000615353
0.00593891
0.000582596
0.0059465
0.000547716
0.00595479
0.000511098
0.00596375
0.000473166
0.00597335
0.000434367
0.00598355
0.000395168
0.00599432
0.000356018
0.00600564
0.000317371
0.00601746
0.000279611
0.00602977
0.000243144
0.00604254
0.000208212
0.00605574
0.000175177
0.00606935
0.000144052
0.00608336
0.000115248
0.00609772
8.83732e-05
0.00611249
6.41754e-05
0.00612754
4.14428e-05
0.00614303
2.19892e-05
0.00615869
2.67416e-06
0.0061749
-1.17127e-05
-2.97291e-05
0.00602012
0.000549159
0.00601338
0.000563949
0.00600667
0.00057906
0.00600003
0.000594441
0.00599346
0.000610028
0.00598698
0.000625745
0.00598061
0.000641504
0.00597438
0.0006572
0.00596832
0.000672715
0.00596245
0.000687917
0.00595681
0.000702657
0.00595144
0.000716772
0.00594636
0.000730082
0.00594163
0.000742398
0.00593728
0.000753516
0.00593335
0.00076322
0.00592989
0.00077129
0.00592694
0.000777499
0.00592453
0.000781619
0.00592272
0.000783429
0.00592153
0.000782712
0.00592099
0.000779272
0.00592115
0.00077293
0.00592201
0.000763541
0.00592361
0.000750992
0.00592595
0.000735215
0.00592903
0.000716193
0.00593287
0.000693965
0.00593744
0.000668628
0.00594275
0.000640344
0.00594876
0.000609338
0.00595546
0.000575894
0.00596283
0.000540353
0.00597082
0.000503104
0.00597941
0.000464573
0.00598857
0.000425208
0.00599826
0.000385476
0.00600846
0.000345826
0.00601912
0.000306709
0.00603022
0.000268511
0.00604174
0.000231627
0.00605364
0.000196312
0.00606591
0.000162904
0.00607852
0.000131444
0.00609147
0.000102292
0.00610472
7.51307e-05
0.0061183
5.05875e-05
0.00613212
2.7626e-05
0.00614632
7.79206e-06
0.00616066
-1.16696e-05
0.00617547
-2.65165e-05
-4.46028e-05
0.00602962
0.000556016
0.00602283
0.000570743
0.00601611
0.00058578
0.00600948
0.000601072
0.00600295
0.000616555
0.00599655
0.000632149
0.00599029
0.000647763
0.0059842
0.000663291
0.0059783
0.000678611
0.00597263
0.000693588
0.00596721
0.000708072
0.00596209
0.000721896
0.00595729
0.000734882
0.00595285
0.000746835
0.00594882
0.000757552
0.00594522
0.000766817
0.0059421
0.000774408
0.0059395
0.000780101
0.00593745
0.000783668
0.00593599
0.00078489
0.00593515
0.000783554
0.00593495
0.000779467
0.00593543
0.000772455
0.00593659
0.000762377
0.00593846
0.000749126
0.00594103
0.000732641
0.00594431
0.000712911
0.0059483
0.00068998
0.00595297
0.000663953
0.00595832
0.000634997
0.00596432
0.000603341
0.00597094
0.000569274
0.00597815
0.000533141
0.00598592
0.000495331
0.00599422
0.000456274
0.00600301
0.000416418
0.00601226
0.000376228
0.00602193
0.000336154
0.006032
0.000296642
0.00604243
0.000258079
0.0060532
0.000220853
0.00606429
0.000185225
0.00607568
0.000151514
0.00608734
0.000119785
0.00609928
9.03527e-05
0.00611145
6.29617e-05
0.00612389
3.81389e-05
0.00613653
1.49942e-05
0.00614947
-5.1514e-06
0.00616253
-2.47311e-05
0.00617597
-3.99587e-05
-5.8099e-05
0.00604066
0.000548513
0.00603387
0.000562803
0.00602718
0.000577435
0.0060206
0.000592366
0.00601413
0.000607539
0.0060078
0.000622886
0.00600162
0.000638325
0.00599562
0.000653763
0.00598982
0.000669091
0.00598425
0.000684186
0.00597893
0.00069891
0.00597389
0.00071311
0.00596916
0.00072662
0.00596479
0.000739256
0.0059608
0.000750827
0.00595722
0.000761125
0.00595411
0.000769936
0.00595147
0.00077704
0.00594937
0.00078221
0.00594781
0.000785223
0.00594684
0.000785861
0.00594648
0.000783915
0.00594675
0.000779195
0.00594767
0.000771533
0.00594926
0.000760793
0.00595151
0.000746873
0.00595443
0.000729719
0.00595802
0.000709325
0.00596226
0.000685742
0.00596713
0.00065908
0.00597262
0.000629511
0.00597869
0.00059727
0.00598531
0.000562649
0.00599246
0.000525996
0.00600009
0.000487702
0.00600816
0.000448196
0.00601666
0.000407927
0.00602553
0.000367359
0.00603474
0.000326939
0.00604427
0.000287111
0.00605409
0.000248262
0.00606417
0.00021077
0.00607449
0.000174902
0.00608505
0.000140961
0.0060958
0.000109028
0.00610677
7.93848e-05
0.00611791
5.18227e-05
0.00612926
2.67862e-05
0.00614075
3.50605e-06
0.00615249
-1.68844e-05
0.0061643
-3.65492e-05
0.00617643
-5.20838e-05
-7.02568e-05
0.00603935
0.000555189
0.00603279
0.000569362
0.00602636
0.000583869
0.00602006
0.000598662
0.00601392
0.000613683
0.00600794
0.000628862
0.00600215
0.000644115
0.00599657
0.000659346
0.00599121
0.000674444
0.00598612
0.000689284
0.0059813
0.000703726
0.00597679
0.000717617
0.00597263
0.000730786
0.00596883
0.000743052
0.00596544
0.00075422
0.00596248
0.000764085
0.00595998
0.000772431
0.00595799
0.000779037
0.00595651
0.000783682
0.0059556
0.000786142
0.00595525
0.000786203
0.00595551
0.000783659
0.00595638
0.000778325
0.00595787
0.000770038
0.00596
0.000758666
0.00596276
0.000744114
0.00596615
0.000726333
0.00597015
0.000705324
0.00597475
0.000681143
0.00597992
0.000653907
0.00598564
0.000623791
0.00599187
0.000591035
0.00599859
0.000555934
0.00600575
0.000518837
0.00601331
0.000480138
0.00602124
0.000440265
0.0060295
0.000399666
0.00603806
0.000358802
0.00604688
0.00031812
0.00605593
0.000278057
0.00606519
0.000239002
0.00607464
0.000201323
0.00608425
0.000165291
0.00609402
0.000131194
0.00610392
9.91282e-05
0.00611396
6.93422e-05
0.00612411
4.16701e-05
0.00613441
1.64854e-05
0.0061448
-6.87997e-06
0.00615536
-2.745e-05
0.00616598
-4.71638e-05
0.00617683
-6.29361e-05
-8.1116e-05
0.00603249
0.000561508
0.00602632
0.000575534
0.0060203
0.000589884
0.00601446
0.000604507
0.0060088
0.000619344
0.00600334
0.000634323
0.00599809
0.000649357
0.00599309
0.00066435
0.00598834
0.000679187
0.00598388
0.000693744
0.00597973
0.000707877
0.00597592
0.000721432
0.00597247
0.000734239
0.0059694
0.000746114
0.00596676
0.000756862
0.00596457
0.000766279
0.00596285
0.000774149
0.00596163
0.000780254
0.00596094
0.000784372
0.0059608
0.000786284
0.00596123
0.000785777
0.00596223
0.000782652
0.00596383
0.000776726
0.00596603
0.000767842
0.00596882
0.000755872
0.00597221
0.000740729
0.00597617
0.000722369
0.0059807
0.000700799
0.00598576
0.00067608
0.00599133
0.000648334
0.00599738
0.000617742
0.00600387
0.000584545
0.00601077
0.000549042
0.00601802
0.000511583
0.0060256
0.000472563
0.00603345
0.000432408
0.00604155
0.000391565
0.00604986
0.000350492
0.00605835
0.000309634
0.00606698
0.000269423
0.00607574
0.000230244
0.0060846
0.00019246
0.00609355
0.000156342
0.00610258
0.000122165
0.00611167
9.0037e-05
0.00612084
6.01795e-05
0.00613005
3.24596e-05
0.00613934
7.1925e-06
0.00614867
-1.6206e-05
0.00615811
-3.68918e-05
0.00616756
-5.66152e-05
0.00617718
-7.25599e-05
-9.07169e-05
0.00602005
0.000567307
0.00601443
0.000581155
0.006009
0.000595315
0.00600377
0.000609737
0.00599876
0.000624358
0.00599398
0.000639104
0.00598945
0.000653888
0.00598518
0.000668612
0.00598121
0.00068316
0.00597755
0.000697404
0.00597423
0.000711202
0.00597126
0.000724397
0.00596868
0.000736819
0.00596651
0.000748284
0.00596478
0.000758597
0.0059635
0.000767554
0.00596271
0.000774941
0.00596242
0.000780541
0.00596266
0.000784135
0.00596344
0.000785506
0.00596477
0.000784446
0.00596666
0.000780759
0.00596912
0.000774266
0.00597215
0.000764817
0.00597573
0.000752289
0.00597986
0.000736601
0.00598452
0.000717714
0.00598967
0.00069564
0.00599531
0.000670447
0.00600138
0.000642261
0.00600786
0.000611267
0.00601469
0.000577708
0.00602185
0.000541886
0.00602928
0.000504152
0.00603694
0.000464898
0.0060448
0.000424551
0.00605281
0.000383556
0.00606094
0.000342365
0.00606915
0.00030142
0.00607743
0.000261149
0.00608574
0.000221933
0.00609407
0.000184128
0.00610241
0.000148005
0.00611075
0.000113826
0.00611907
8.17082e-05
0.0061274
5.18507e-05
0.00613572
2.41472e-05
0.00614404
-1.13638e-06
0.00615235
-2.45142e-05
0.00616071
-4.5253e-05
0.00616904
-6.49446e-05
0.00617748
-8.09992e-05
-9.91003e-05
0.00600716
0.000559126
0.00600205
0.000572419
0.00599715
0.000586057
0.00599247
0.000599995
0.00598802
0.000614183
0.00598382
0.000628556
0.00597989
0.000643039
0.00597623
0.000657543
0.00597288
0.000671967
0.00596984
0.000686196
0.00596714
0.000700101
0.00596481
0.000713538
0.00596285
0.00072635
0.0059613
0.000738367
0.00596018
0.000749405
0.00595951
0.00075927
0.00595931
0.000767757
0.00595959
0.000774656
0.00596038
0.000779751
0.00596169
0.000782826
0.00596353
0.000783667
0.00596591
0.000782071
0.00596882
0.000777844
0.00597227
0.000770815
0.00597625
0.000760837
0.00598075
0.000747795
0.00598574
0.000731611
0.0059912
0.000712253
0.0059971
0.000689739
0.0060034
0.000664141
0.00601007
0.00063559
0.00601707
0.000604272
0.00602434
0.000570436
0.00603184
0.000534382
0.00603953
0.000496462
0.00604736
0.000457068
0.00605529
0.000416624
0.00606328
0.000375569
0.00607129
0.000334355
0.00607929
0.000293417
0.00608726
0.000253178
0.00609518
0.000214014
0.00610303
0.000176274
0.00611081
0.000140228
0.00611851
0.000106128
0.00612612
7.40951e-05
0.00613366
4.43104e-05
0.00614112
1.66887e-05
0.00614853
-8.54499e-06
0.00615586
-3.18473e-05
0.00616319
-5.25772e-05
0.00617044
-7.2193e-05
0.00617773
-8.82979e-05
-0.000106307
0.00598278
0.000563612
0.00597852
0.000576674
0.00597451
0.00059007
0.00597075
0.000603756
0.00596725
0.000617679
0.00596404
0.000631773
0.00596111
0.000645961
0.0059585
0.000660154
0.00595622
0.00067425
0.00595428
0.000688133
0.00595271
0.000701672
0.00595152
0.000714725
0.00595074
0.000727133
0.00595038
0.000738726
0.00595047
0.000749321
0.00595101
0.000758726
0.00595203
0.000766737
0.00595354
0.000773145
0.00595556
0.000777738
0.00595808
0.000780302
0.00596112
0.000780628
0.00596468
0.000778515
0.00596874
0.000773777
0.00597331
0.000766245
0.00597837
0.000755779
0.0059839
0.000742269
0.00598986
0.000725644
0.00599624
0.000705877
0.00600299
0.00068299
0.00601007
0.000657061
0.00601744
0.000628222
0.00602504
0.000596666
0.00603284
0.000562641
0.00604077
0.000526447
0.0060488
0.000488437
0.00605687
0.000448999
0.00606493
0.000408555
0.00607296
0.00036754
0.00608092
0.0003264
0.00608877
0.000285566
0.0060965
0.000245452
0.00610408
0.000206433
0.0061115
0.000168847
0.00611877
0.000132963
0.00612587
9.90231e-05
0.00613282
6.71516e-05
0.00613962
3.75133e-05
0.00614626
1.00402e-05
0.0061528
-1.50773e-05
0.0061592
-3.82475e-05
0.00616553
-5.89076e-05
0.00617174
-7.84022e-05
0.00617794
-9.45e-05
-0.00011238
0.00595279
0.000567102
0.00594957
0.000579902
0.00594661
0.000593026
0.00594394
0.000606429
0.00594156
0.000620056
0.00593949
0.00063384
0.00593775
0.000647704
0.00593635
0.000661557
0.0059353
0.000675297
0.00593462
0.000688807
0.00593434
0.000701956
0.00593446
0.000714602
0.00593501
0.000726586
0.005936
0.000737738
0.00593744
0.000747879
0.00593935
0.000756814
0.00594174
0.000764344
0.00594463
0.000770262
0.00594801
0.000774358
0.00595189
0.000776423
0.00595626
0.000776251
0.00596113
0.000773646
0.00596648
0.000768427
0.0059723
0.00076043
0.00597855
0.000749522
0.00598523
0.000735596
0.00599228
0.000718589
0.00599968
0.000698477
0.00600738
0.00067529
0.00601534
0.000649107
0.00602349
0.000620066
0.0060318
0.00058836
0.0060402
0.000554237
0.00604865
0.000518001
0.00605709
0.000479999
0.00606547
0.000440619
0.00607375
0.000400276
0.00608188
0.000359403
0.00608984
0.000318438
0.0060976
0.000277807
0.00610514
0.000237917
0.00611243
0.000199136
0.00611949
0.000161796
0.00612629
0.000126161
0.00613285
9.24643e-05
0.00613917
6.0832e-05
0.00614526
3.14148e-05
0.00615115
4.15814e-06
0.00615685
-2.07766e-05
0.00616236
-4.37574e-05
0.00616774
-6.42874e-05
0.00617295
-8.36139e-05
0.0061781
-9.96491e-05
-0.000117359
0.00591735
0.000569425
0.00591531
0.000581935
0.00591358
0.000594758
0.00591216
0.000607847
0.00591107
0.000621148
0.00591032
0.000634594
0.00590992
0.000648104
0.00590988
0.00066159
0.00591023
0.000674948
0.00591098
0.000688059
0.00591214
0.000700796
0.00591373
0.000713013
0.00591576
0.000724555
0.00591825
0.000735253
0.0059212
0.000744927
0.00592462
0.000753387
0.00592854
0.000760434
0.00593293
0.000765865
0.00593782
0.000769473
0.00594319
0.000771053
0.00594903
0.000770404
0.00595534
0.000767335
0.0059621
0.00076167
0.00596928
0.00075325
0.00597686
0.000741947
0.00598479
0.000727663
0.00599304
0.000710336
0.00600157
0.000689951
0.00601032
0.000666539
0.00601924
0.000640186
0.00602828
0.00061103
0.00603737
0.000579266
0.00604646
0.000545144
0.0060555
0.000508966
0.00606442
0.000471075
0.00607319
0.000431857
0.00608174
0.000391722
0.00609005
0.000351096
0.00609807
0.00031041
0.0061058
0.000270085
0.0061132
0.000230519
0.00612026
0.000192073
0.00612698
0.000155072
0.00613337
0.000119774
0.00613943
8.64053e-05
0.00614517
5.50915e-05
0.00615061
2.59706e-05
0.00615577
-1.00076e-06
0.00616068
-2.56859e-05
0.00616534
-4.84191e-05
0.00616981
-6.87593e-05
0.00617407
-8.787e-05
0.00617821
-0.000103789
-0.000121288
0.00587761
0.000558565
0.00587662
0.000570416
0.00587595
0.000582607
0.00587561
0.000595099
0.00587561
0.000607848
0.00587596
0.000620794
0.00587668
0.000633873
0.00587778
0.000647003
0.00587928
0.000660095
0.00588118
0.000673044
0.00588351
0.000685735
0.00588627
0.000698037
0.00588947
0.000709808
0.00589314
0.000720892
0.00589727
0.000731123
0.00590187
0.000740322
0.00590696
0.000748302
0.00591252
0.000754867
0.00591857
0.000759817
0.00592509
0.000762949
0.00593208
0.000764063
0.00593953
0.000762962
0.0059474
0.00075946
0.00595569
0.000753386
0.00596435
0.000744589
0.00597335
0.000732945
0.00598265
0.000718361
0.0059922
0.000700783
0.00600196
0.000680198
0.00601185
0.000656643
0.00602183
0.000630206
0.00603184
0.000601027
0.0060418
0.000569304
0.00605166
0.000535284
0.00606136
0.000499267
0.00607084
0.000461595
0.00608005
0.000422648
0.00608894
0.000382828
0.00609748
0.000342558
0.00610563
0.00030226
0.00611337
0.000262345
0.00612068
0.000223205
0.00612756
0.000185194
0.00613401
0.000148626
0.00614002
0.000113756
0.00614563
8.08012e-05
0.00615083
4.9886e-05
0.00615567
2.11376e-05
0.00616014
-5.47914e-06
0.00616431
-2.98478e-05
0.00616816
-5.22748e-05
0.00617177
-7.23659e-05
0.00617511
-9.12126e-05
0.00617828
-0.000106962
-0.000124209
0.00583036
0.000558397
0.00583086
0.000569913
0.00583171
0.000581757
0.00583292
0.000593893
0.00583449
0.000606272
0.00583645
0.000618837
0.0058388
0.000631522
0.00584156
0.000644246
0.00584473
0.000656919
0.00584834
0.000669437
0.00585239
0.000681685
0.0058569
0.000693533
0.00586186
0.000704841
0.0058673
0.000715454
0.00587322
0.000725208
0.00587961
0.000733926
0.00588649
0.000741424