/*--------------------------------*- C++ -*----------------------------------*\
  =========                 |
  \\      /  F ield         | OpenFOAM: The Open Source CFD Toolbox
   \\    /   O peration     | Website:  https://openfoam.org
    \\  /    A nd           | Version:  7
     \\/     M anipulation  |
\*---------------------------------------------------------------------------*/
FoamFile
{
    version     2.0;
    format      ascii;
    class       volVectorField;
    location    "10";
    object      U;
}
// * * * * * * * * * * * * * * * * * * * * * * * * * * * * * * * * * * * * * //

dimensions      [0 1 -1 0 0 0 0];

internalField   nonuniform List<vector> 
2625
(
(1.0538 0.0428994 0)
(1.04978 0.0415422 0)
(1.04587 0.0400383 0)
(1.0421 0.0383971 0)
(1.03847 0.0366315 0)
(1.03499 0.0347572 0)
(1.03169 0.0327925 0)
(1.02856 0.0307584 0)
(1.02562 0.0286772 0)
(1.02287 0.0265726 0)
(1.02032 0.0244681 0)
(1.01796 0.0223879 0)
(1.0158 0.020353 0)
(1.01383 0.0183858 0)
(1.01204 0.0165009 0)
(1.01044 0.014718 0)
(1.00901 0.0130414 0)
(1.00775 0.011491 0)
(1.00662 0.0100536 0)
(1.00565 0.00875919 0)
(1.00477 0.00756358 0)
(1.00406 0.00653007 0)
(1.00338 0.0055515 0)
(1.0029 0.0047763 0)
(1.00234 0.0039626 0)
(1.00208 0.003453 0)
(1.00154 0.00270981 0)
(1.15112 0.0419751 0)
(1.14759 0.0426057 0)
(1.144 0.0432384 0)
(1.14034 0.0438693 0)
(1.13661 0.0444937 0)
(1.13281 0.0451062 0)
(1.12894 0.0457007 0)
(1.12501 0.0462706 0)
(1.12101 0.0468083 0)
(1.11695 0.0473056 0)
(1.11283 0.0477537 0)
(1.10865 0.0481431 0)
(1.10442 0.0484641 0)
(1.10015 0.0487062 0)
(1.09584 0.048859 0)
(1.09151 0.0489117 0)
(1.08715 0.0488539 0)
(1.08278 0.0486752 0)
(1.07842 0.0483661 0)
(1.07406 0.0479177 0)
(1.06974 0.0473225 0)
(1.06545 0.0465746 0)
(1.06123 0.0456696 0)
(1.05707 0.0446059 0)
(1.05299 0.043384 0)
(1.04902 0.0420073 0)
(1.04516 0.0404826 0)
(1.04143 0.0388196 0)
(1.03785 0.0370311 0)
(1.03442 0.0351331 0)
(1.03116 0.0331442 0)
(1.02808 0.0310855 0)
(1.02518 0.0289796 0)
(1.02247 0.0268505 0)
(1.01995 0.0247218 0)
(1.01763 0.0226181 0)
(1.0155 0.0205605 0)
(1.01357 0.0185715 0)
(1.01181 0.016666 0)
(1.01024 0.014864 0)
(1.00883 0.0131695 0)
(1.00759 0.0116028 0)
(1.00648 0.0101504 0)
(1.00553 0.00884288 0)
(1.00467 0.00763487 0)
(1.00397 0.00659137 0)
(1.00331 0.00560256 0)
(1.00283 0.0048206 0)
(1.00228 0.00399784 0)
(1.00204 0.00348516 0)
(1.0015 0.00273329 0)
(1.14952 0.0425527 0)
(1.14601 0.043186 0)
(1.14243 0.0438213 0)
(1.13879 0.0444547 0)
(1.13507 0.0450815 0)
(1.1313 0.0456962 0)
(1.12745 0.0462927 0)
(1.12354 0.0468642 0)
(1.11957 0.0474029 0)
(1.11553 0.0479007 0)
(1.11144 0.0483487 0)
(1.1073 0.0487373 0)
(1.1031 0.0490564 0)
(1.09887 0.0492959 0)
(1.0946 0.0494448 0)
(1.0903 0.0494926 0)
(1.08598 0.0494286 0)
(1.08165 0.0492423 0)
(1.07733 0.0489243 0)
(1.07302 0.0484655 0)
(1.06874 0.0478584 0)
(1.0645 0.047097 0)
(1.06032 0.0461772 0)
(1.05621 0.045097 0)
(1.05218 0.0438573 0)
(1.04826 0.0424615 0)
(1.04445 0.0409163 0)
(1.04077 0.0392318 0)
(1.03723 0.0374208 0)
(1.03385 0.0354996 0)
(1.03063 0.033487 0)
(1.02759 0.0314043 0)
(1.02474 0.0292742 0)
(1.02207 0.0271211 0)
(1.01959 0.0249688 0)
(1.0173 0.0228421 0)
(1.01521 0.0207622 0)
(1.0133 0.0187521 0)
(1.01158 0.0168266 0)
(1.01003 0.0150059 0)
(1.00865 0.0132939 0)
(1.00743 0.0117114 0)
(1.00634 0.0102443 0)
(1.00541 0.008924 0)
(1.00457 0.00770394 0)
(1.00388 0.00665074 0)
(1.00323 0.00565196 0)
(1.00277 0.00486347 0)
(1.00223 0.00403188 0)
(1.00199 0.00351629 0)
(1.00147 0.00275595 0)
(1.14791 0.0431214 0)
(1.14441 0.0437571 0)
(1.14085 0.0443948 0)
(1.13722 0.0450305 0)
(1.13353 0.0456595 0)
(1.12977 0.0462761 0)
(1.12595 0.0468743 0)
(1.12206 0.0474471 0)
(1.11811 0.0479867 0)
(1.11411 0.0484848 0)
(1.11005 0.0489324 0)
(1.10593 0.0493199 0)
(1.10177 0.0496372 0)
(1.09757 0.0498737 0)
(1.09334 0.0500188 0)
(1.08908 0.0500615 0)
(1.0848 0.0499912 0)
(1.08052 0.0497974 0)
(1.07624 0.0494704 0)
(1.07197 0.0490012 0)
(1.06774 0.0483823 0)
(1.06355 0.0476077 0)
(1.05941 0.046673 0)
(1.05535 0.0455767 0)
(1.05137 0.0443194 0)
(1.0475 0.0429047 0)
(1.04374 0.0413395 0)
(1.0401 0.0396338 0)
(1.03661 0.0378009 0)
(1.03328 0.0358569 0)
(1.03011 0.033821 0)
(1.02711 0.0317148 0)
(1.02429 0.029561 0)
(1.02166 0.0273844 0)
(1.01922 0.0252091 0)
(1.01698 0.0230599 0)
(1.01491 0.0209584 0)
(1.01304 0.0189276 0)
(1.01135 0.0169825 0)
(1.00983 0.0151436 0)
(1.00847 0.0134146 0)
(1.00727 0.0118167 0)
(1.0062 0.0103353 0)
(1.00529 0.00900262 0)
(1.00446 0.00777085 0)
(1.00379 0.00670822 0)
(1.00315 0.00569977 0)
(1.0027 0.00490493 0)
(1.00218 0.00406476 0)
(1.00194 0.00354641 0)
(1.00143 0.00277783 0)
(1.14627 0.0436814 0)
(1.14279 0.0443191 0)
(1.13924 0.044959 0)
(1.13563 0.0455967 0)
(1.13196 0.0462276 0)
(1.12822 0.046846 0)
(1.12442 0.0474456 0)
(1.12056 0.0480194 0)
(1.11664 0.0485596 0)
(1.11267 0.0490578 0)
(1.10864 0.0495049 0)
(1.10456 0.0498911 0)
(1.10043 0.0502063 0)
(1.09627 0.0504398 0)
(1.09207 0.0505809 0)
(1.08785 0.0506184 0)
(1.08361 0.0505418 0)
(1.07937 0.0503404 0)
(1.07514 0.0500044 0)
(1.07092 0.049525 0)
(1.06673 0.0488944 0)
(1.06259 0.0481065 0)
(1.0585 0.0471573 0)
(1.05449 0.046045 0)
(1.05056 0.0447703 0)
(1.04673 0.0433371 0)
(1.04302 0.0417522 0)
(1.03944 0.0400258 0)
(1.03599 0.0381712 0)
(1.0327 0.036205 0)
(1.02958 0.0341464 0)
(1.02663 0.032017 0)
(1.02385 0.0298402 0)
(1.02126 0.0276407 0)
(1.01886 0.0254428 0)
(1.01665 0.0232716 0)
(1.01462 0.021149 0)
(1.01278 0.0190981 0)
(1.01111 0.0171339 0)
(1.00962 0.0152772 0)
(1.00829 0.0135317 0)
(1.00711 0.0119188 0)
(1.00606 0.0104235 0)
(1.00517 0.00907876 0)
(1.00436 0.00783561 0)
(1.0037 0.00676383 0)
(1.00308 0.00574599 0)
(1.00263 0.004945 0)
(1.00212 0.00409649 0)
(1.00189 0.00357553 0)
(1.00139 0.00279893 0)
(1.14462 0.0442328 0)
(1.14115 0.0448724 0)
(1.13762 0.0455141 0)
(1.13403 0.0461536 0)
(1.13038 0.0467861 0)
(1.12666 0.047406 0)
(1.12289 0.0480068 0)
(1.11905 0.0485814 0)
(1.11516 0.0491221 0)
(1.11122 0.0496202 0)
(1.10722 0.0500665 0)
(1.10317 0.0504513 0)
(1.09908 0.0507642 0)
(1.09495 0.0509945 0)
(1.09079 0.0511314 0)
(1.08661 0.0511637 0)
(1.08242 0.0510807 0)
(1.07822 0.0508716 0)
(1.07403 0.0505267 0)
(1.06986 0.050037 0)
(1.06572 0.0493948 0)
(1.06163 0.0485939 0)
(1.05759 0.0476303 0)
(1.05362 0.0465022 0)
(1.04974 0.0452104 0)
(1.04597 0.0437589 0)
(1.0423 0.0421547 0)
(1.03877 0.0404079 0)
(1.03537 0.0385322 0)
(1.03213 0.0365441 0)
(1.02905 0.0344632 0)
(1.02614 0.0323113 0)
(1.02341 0.0301119 0)
(1.02086 0.0278899 0)
(1.0185 0.02567 0)
(1.01632 0.0234775 0)
(1.01433 0.0213342 0)
(1.01252 0.0192636 0)
(1.01088 0.0172809 0)
(1.00941 0.0154069 0)
(1.0081 0.0136452 0)
(1.00695 0.0120178 0)
(1.00593 0.010509 0)
(1.00505 0.00915249 0)
(1.00426 0.00789828 0)
(1.00361 0.00681761 0)
(1.003 0.00579066 0)
(1.00257 0.00498372 0)
(1.00207 0.0041271 0)
(1.00184 0.00360368 0)
(1.00136 0.00281928 0)
(1.14294 0.0447752 0)
(1.13949 0.0454165 0)
(1.13598 0.0460598 0)
(1.13241 0.0467009 0)
(1.12878 0.0473348 0)
(1.12509 0.0479559 0)
(1.12134 0.0485577 0)
(1.11753 0.049133 0)
(1.11367 0.0496739 0)
(1.10975 0.0501717 0)
(1.10579 0.0506171 0)
(1.10177 0.0510003 0)
(1.09772 0.0513109 0)
(1.09363 0.051538 0)
(1.08951 0.0516706 0)
(1.08537 0.0516977 0)
(1.08122 0.0516083 0)
(1.07707 0.0513917 0)
(1.07292 0.0510379 0)
(1.0688 0.050538 0)
(1.06471 0.0498843 0)
(1.06066 0.0490706 0)
(1.05667 0.0480928 0)
(1.05276 0.0469491 0)
(1.04893 0.0456407 0)
(1.0452 0.0441713 0)
(1.04158 0.042548 0)
(1.0381 0.0407812 0)
(1.03475 0.0388847 0)
(1.03156 0.0368753 0)
(1.02852 0.0347725 0)
(1.02566 0.0325985 0)
(1.02297 0.0303769 0)
(1.02046 0.0281331 0)
(1.01813 0.0258916 0)
(1.01599 0.0236781 0)
(1.01403 0.0215146 0)
(1.01226 0.0194249 0)
(1.01065 0.0174239 0)
(1.00921 0.015533 0)
(1.00792 0.0137556 0)
(1.00679 0.0121139 0)
(1.00579 0.010592 0)
(1.00493 0.00922402 0)
(1.00416 0.00795902 0)
(1.00352 0.00686971 0)
(1.00293 0.00583387 0)
(1.0025 0.00502118 0)
(1.00202 0.00415659 0)
(1.00179 0.00363095 0)
(1.00132 0.00283886 0)
(1.14124 0.0453058 0)
(1.13781 0.0459485 0)
(1.13432 0.0465933 0)
(1.13077 0.0472358 0)
(1.12716 0.0478711 0)
(1.1235 0.0484933 0)
(1.11977 0.049096 0)
(1.11599 0.0496719 0)
(1.11216 0.0502129 0)
(1.10828 0.0507104 0)
(1.10434 0.051155 0)
(1.10037 0.0515367 0)
(1.09635 0.051845 0)
(1.0923 0.0520689 0)
(1.08822 0.0521975 0)
(1.08412 0.0522195 0)
(1.08002 0.0521239 0)
(1.07591 0.0518999 0)
(1.07181 0.0515376 0)
(1.06773 0.0510278 0)
(1.06369 0.0503629 0)
(1.05969 0.0495367 0)
(1.05575 0.0485451 0)
(1.05189 0.0473863 0)
(1.04811 0.0460615 0)
(1.04443 0.0445746 0)
(1.04087 0.0429327 0)
(1.03743 0.0411465 0)
(1.03413 0.0392297 0)
(1.03098 0.0371993 0)
(1.02799 0.0350751 0)
(1.02517 0.0328795 0)
(1.02253 0.0306362 0)
(1.02006 0.0283708 0)
(1.01777 0.0261082 0)
(1.01567 0.0238742 0)
(1.01374 0.0216909 0)
(1.01199 0.0195823 0)
(1.01042 0.0175635 0)
(1.00901 0.015656 0)
(1.00774 0.0138632 0)
(1.00664 0.0122076 0)
(1.00565 0.0106727 0)
(1.00481 0.00929353 0)
(1.00405 0.00801798 0)
(1.00344 0.00692025 0)
(1.00285 0.0058757 0)
(1.00244 0.00505746 0)
(1.00196 0.004185 0)
(1.00175 0.00365742 0)
(1.00128 0.00285768 0)
(1.13953 0.0458222 0)
(1.13611 0.0464663 0)
(1.13264 0.0471125 0)
(1.12912 0.0477564 0)
(1.12553 0.0483929 0)
(1.12189 0.0490161 0)
(1.1182 0.0496196 0)
(1.11445 0.0501959 0)
(1.11064 0.0507369 0)
(1.10679 0.051234 0)
(1.10289 0.0516775 0)
(1.09895 0.0520574 0)
(1.09497 0.0523632 0)
(1.09096 0.0525838 0)
(1.08692 0.0527081 0)
(1.08287 0.0527249 0)
(1.07881 0.0526229 0)
(1.07474 0.0523914 0)
(1.07069 0.0520203 0)
(1.06666 0.0515007 0)
(1.06267 0.0508245 0)
(1.05872 0.0499858 0)
(1.05483 0.0489805 0)
(1.05102 0.0478068 0)
(1.04729 0.0464659 0)
(1.04366 0.0449618 0)
(1.04015 0.0433018 0)
(1.03676 0.0414965 0)
(1.03351 0.0395599 0)
(1.03041 0.0375092 0)
(1.02746 0.0353644 0)
(1.02469 0.0331479 0)
(1.02208 0.0308838 0)
(1.01966 0.0285977 0)
(1.01741 0.0263148 0)
(1.01534 0.0240611 0)
(1.01345 0.0218589 0)
(1.01173 0.0197323 0)
(1.01019 0.0176965 0)
(1.0088 0.0157733 0)
(1.00757 0.0139658 0)
(1.00648 0.0122968 0)
(1.00552 0.0107497 0)
(1.00469 0.00935986 0)
(1.00395 0.00807436 0)
(1.00335 0.00696849 0)
(1.00278 0.00591584 0)
(1.00237 0.00509205 0)
(1.00191 0.00421247 0)
(1.0017 0.00368252 0)
(1.00125 0.00287602 0)
(1.13568 0.0469859 -5.37525e-22)
(1.13231 0.0476306 1.22476e-21)
(1.12889 0.0482772 -2.02345e-21)
(1.12541 0.0489211 -1.6024e-21)
(1.12189 0.049557 3.64235e-21)
(1.11831 0.050179 -8.57684e-22)
(1.11468 0.0507804 5.17043e-23)
(1.111 0.0513536 -6.03353e-22)
(1.10727 0.0518904 7.43525e-22)
(1.10349 0.0523818 -6.11249e-22)
(1.09967 0.0528181 9.8073e-22)
(1.09581 0.0531892 -8.45674e-23)
(1.09192 0.0534844 2.03808e-22)
(1.088 0.0536924 -1.18771e-21)
(1.08406 0.053802 7.56651e-23)
(1.0801 0.0538018 8.99015e-22)
(1.07614 0.0536806 -8.33415e-22)
(1.07218 0.0534275 3.15396e-22)
(1.06823 0.0530324 -1.86011e-22)
(1.06431 0.0524863 -2.76019e-22)
(1.06042 0.0517813 7.36248e-23)
(1.05658 0.0509114 3.18931e-22)
(1.05281 0.0498727 -1.34325e-22)
(1.0491 0.0486636 2.3914e-22)
(1.04549 0.0472853 -2.47925e-22)
(1.04197 0.0457422 -1.83974e-22)
(1.03857 0.0440418 2.94264e-22)
(1.03529 0.042195 -1.11764e-23)
(1.03214 0.0402161 -4.82768e-23)
(1.02915 0.0381226 2.40799e-23)
(1.0263 0.0359348 6.69065e-23)
(1.02363 0.0336757 -2.41341e-23)
(1.02111 0.0313694 -1.01479e-23)
(1.01878 0.0290422 4.87829e-24)
(1.01661 0.0267192 4.98366e-25)
(1.01462 0.024427 6.01429e-24)
(1.01281 0.0221881 -1.82949e-23)
(1.01116 0.0200267 1.63652e-23)
(1.00968 0.0179583 -1.63348e-23)
(1.00835 0.0160047 -2.51088e-24)
(1.00717 0.0141692 3.71725e-24)
(1.00613 0.0124746 2.16418e-24)
(1.00521 0.0109044 4.48106e-24)
(1.00443 0.00949351 -2.09777e-24)
(1.00373 0.00818959 -1.56615e-24)
(1.00315 0.00706688 2.73576e-24)
(1.00261 0.00600003 -1.34349e-24)
(1.00223 0.00516306 7.94271e-25)
(1.00179 0.00427264 -3.75204e-25)
(1.00159 0.00373324 -1.87217e-26)
(1.00117 0.00291763 -1.42129e-25)
(1.12907 0.0487911 7.00329e-22)
(1.12579 0.0494344 -1.31797e-21)
(1.12247 0.0500781 2.79794e-21)
(1.1191 0.0507175 -3.13162e-21)
(1.11569 0.0513472 3.87822e-21)
(1.11222 0.0519608 -1.47889e-21)
(1.10871 0.0525513 1.99359e-21)
(1.10516 0.0531111 -2.05497e-21)
(1.10157 0.0536315 6.9372e-22)
(1.09793 0.0541035 8.43252e-22)
(1.09425 0.0545171 -7.19143e-22)
(1.09055 0.054862 -3.19333e-22)
(1.08681 0.0551273 9.63294e-22)
(1.08305 0.0553019 -1.47663e-21)
(1.07928 0.0553742 -9.28438e-23)
(1.07549 0.055333 1.17281e-21)
(1.0717 0.0551671 -1.05184e-21)
(1.06792 0.0548657 9.30076e-23)
(1.06416 0.0544191 8.07926e-22)
(1.06042 0.0538182 -3.41587e-22)
(1.05672 0.0530557 -1.38163e-22)
(1.05307 0.0521259 -5.24634e-22)
(1.04949 0.0510252 6.81521e-22)
(1.04597 0.0497527 -2.94697e-22)
(1.04255 0.0483101 -4.07921e-22)
(1.03922 0.0467023 4.99802e-22)
(1.036 0.0449374 -1.48135e-22)
(1.0329 0.0430268 6.11723e-23)
(1.02993 0.0409853 -6.86595e-23)
(1.02711 0.038831 -1.55105e-23)
(1.02443 0.0365846 6.27492e-23)
(1.02191 0.0342693 -1.42797e-24)
(1.01955 0.0319098 -1.73969e-23)
(1.01736 0.0295322 2.47212e-24)
(1.01533 0.0271622 -1.68151e-23)
(1.01347 0.0248261 2.4394e-23)
(1.01178 0.0225466 -3.00221e-23)
(1.01024 0.0203475 2.7406e-23)
(1.00886 0.018245 -1.14803e-23)
(1.00763 0.0162596 -3.01547e-24)
(1.00654 0.0143961 -2.30782e-24)
(1.00558 0.0126746 3.07446e-24)
(1.00473 0.0110824 1.11514e-24)
(1.00401 0.00964824 -2.4721e-25)
(1.00337 0.00832841 5.46393e-25)
(1.00284 0.00718407 8.76635e-25)
(1.00235 0.00610866 -7.61211e-25)
(1.002 0.00524831 -5.77448e-25)
(1.00161 0.00435952 1.53656e-25)
(1.00142 0.00378965 -6.54388e-26)
(1.00104 0.00298295 2.25598e-25)
(1.12199 0.0504748 7.22704e-24)
(1.11882 0.0511162 -3.9813e-21)
(1.1156 0.0517569 7.42697e-22)
(1.11235 0.0523919 2.74762e-22)
(1.10906 0.0530156 -9.96338e-22)
(1.10573 0.0536213 3.78049e-22)
(1.10236 0.0542019 2.53357e-21)
(1.09894 0.0547493 -3.0148e-21)
(1.0955 0.0552549 1.09802e-21)
(1.09201 0.0557092 9.92032e-22)
(1.0885 0.0561021 -2.42143e-21)
(1.08496 0.0564232 8.07365e-22)
(1.08139 0.0566614 1.4434e-21)
(1.07781 0.0568054 4.09542e-22)
(1.07422 0.0568438 -1.25052e-21)
(1.07062 0.0567651 -6.186e-22)
(1.06702 0.0565583 1.47309e-21)
(1.06343 0.0562127 -1.31011e-21)
(1.05986 0.0557187 3.38117e-22)
(1.05633 0.0550675 4.32474e-22)
(1.05283 0.054252 -2.62497e-22)
(1.04938 0.0532669 2.77337e-22)
(1.046 0.052109 -3.9161e-22)
(1.04269 0.0507777 -2.31923e-22)
(1.03946 0.0492754 4.90676e-22)
(1.03633 0.0476074 -1.16969e-22)
(1.03331 0.0457822 -4.0982e-23)
(1.0304 0.0438119 -2.41231e-23)
(1.02763 0.0417118 1.61009e-22)
(1.02498 0.0395004 -5.06502e-23)
(1.02248 0.0371987 -4.5555e-23)
(1.02013 0.0348303 8.9993e-23)
(1.01794 0.0324202 -4.72209e-23)
(1.0159 0.0299948 -8.02564e-24)
(1.01401 0.02758 6.05364e-25)
(1.01229 0.0252018 -1.68778e-23)
(1.01072 0.0228835 1.34527e-23)
(1.0093 0.0206484 -6.68538e-24)
(1.00803 0.0185132 -1.69974e-24)
(1.0069 0.0164973 6.31531e-24)
(1.00589 0.014607 1.93855e-24)
(1.00501 0.0128599 -2.26381e-24)
(1.00424 0.0112465 3.61062e-24)
(1.00358 0.00979049 -3.3538e-24)
(1.003 0.00845539 1.70407e-24)
(1.00252 0.00729097 -6.66376e-25)
(1.00208 0.00620719 1.2882e-25)
(1.00176 0.00532545 3.58858e-25)
(1.00142 0.00443761 5.90217e-25)
(1.00125 0.00384036 -6.21808e-26)
(1.00091 0.00304177 -9.93059e-25)
(1.11742 0.0514763 6.76868e-24)
(1.11441 0.0521101 -1.4065e-21)
(1.11135 0.0527468 9.39421e-22)
(1.10827 0.0533818 -2.40471e-22)
(1.10515 0.0540099 1.16825e-21)
(1.102 0.0546252 -6.46551e-22)
(1.09881 0.055221 2.05392e-21)
(1.09559 0.0557896 3.12275e-23)
(1.09233 0.056323 -7.24945e-23)
(1.08905 0.0568122 -1.33323e-21)
(1.08574 0.0572476 1.36769e-21)
(1.0824 0.0576189 8.05005e-23)
(1.07904 0.0579154 -1.53259e-21)
(1.07566 0.0581261 9.23347e-22)
(1.07227 0.0582395 -7.374e-24)
(1.06887 0.0582441 -2.20214e-23)
(1.06547 0.0581285 -1.40976e-22)
(1.06208 0.0578817 -1.58886e-22)
(1.0587 0.0574931 9.88018e-22)
(1.05535 0.056953 -5.2842e-22)
(1.05202 0.0562532 -3.51685e-22)
(1.04874 0.0553866 8.00651e-22)
(1.04551 0.0543483 -5.3805e-22)
(1.04235 0.0531356 4.0932e-22)
(1.03925 0.0517481 -7.65687e-23)
(1.03624 0.0501887 9.72229e-23)
(1.03332 0.0484631 -1.90683e-22)
(1.03051 0.0465805 -3.07402e-22)
(1.02781 0.0445532 3.02024e-22)
(1.02522 0.0423972 -2.56792e-23)
(1.02277 0.0401311 -7.12324e-23)
(1.02046 0.0377767 -6.06019e-23)
(1.01829 0.0353576 2.09587e-23)
(1.01626 0.0328993 -1.81308e-23)
(1.01438 0.0304282 4.21639e-23)
(1.01265 0.0279705 -9.92016e-24)
(1.01106 0.0255522 -2.06279e-23)
(1.00962 0.0231968 6.60587e-24)
(1.00833 0.0209273 1.63914e-23)
(1.00717 0.0187609 -4.75391e-24)
(1.00614 0.0167161 -1.31632e-24)
(1.00523 0.0148002 -2.93616e-25)
(1.00443 0.0130291 3.22574e-24)
(1.00374 0.0113955 1.75002e-24)
(1.00314 0.00991929 -1.67268e-24)
(1.00262 0.0085695 1.30582e-24)
(1.00219 0.00738708 3.81504e-25)
(1.00181 0.00629468 -3.41935e-25)
(1.00152 0.00539459 7.95343e-26)
(1.00122 0.00450575 -5.27406e-25)
(1.00107 0.0038864 3.47373e-26)
(1.00077 0.00309285 9.56554e-25)
(1.1092 0.0530751 5.26674e-21)
(1.10631 0.0537022 -5.51716e-21)
(1.1034 0.0543314 2.5266e-21)
(1.10045 0.054958 7.34993e-22)
(1.09748 0.0555766 -2.30476e-21)
(1.09448 0.0561808 1.18824e-21)
(1.09145 0.0567639 -2.30074e-22)
(1.0884 0.0573181 1.41453e-21)
(1.08532 0.0578349 -1.36371e-22)
(1.08221 0.0583053 -8.81615e-22)
(1.07909 0.0587195 8.39725e-22)
(1.07594 0.059067 -1.09606e-21)
(1.07278 0.059337 1.25424e-22)
(1.0696 0.0595184 5.58836e-23)
(1.06642 0.0595995 8.43181e-22)
(1.06323 0.059569 -1.08727e-21)
(1.06005 0.0594153 3.41451e-22)
(1.05688 0.0591275 2.25581e-22)
(1.05373 0.0586952 -1.3527e-22)
(1.0506 0.0581089 -7.11802e-22)
(1.04751 0.0573604 2.94542e-22)
(1.04446 0.0564432 3.82853e-22)
(1.04146 0.0553524 -1.78067e-22)
(1.03852 0.0540858 1.42414e-22)
(1.03566 0.0526434 -3.82229e-22)
(1.03287 0.0510286 1.60306e-22)
(1.03018 0.0492474 -1.21756e-22)
(1.02758 0.0473096 2.7932e-22)
(1.0251 0.045228 -1.26621e-22)
(1.02273 0.0430188 9.39621e-23)
(1.02048 0.0407011 -6.28576e-23)
(1.01836 0.038297 -2.4814e-23)
(1.01637 0.0358306 5.70768e-23)
(1.01452 0.0333273 -1.81629e-23)
(1.01281 0.0308139 -2.46019e-23)
(1.01123 0.0283167 1.68157e-23)
(1.0098 0.0258617 2.90731e-23)
(1.0085 0.0234725 -1.62369e-24)
(1.00733 0.0211719 -2.74074e-23)
(1.00628 0.0189773 8.88549e-24)
(1.00536 0.0169066 2.9352e-25)
(1.00454 0.0149679 -3.17421e-25)
(1.00384 0.0131755 1.63572e-24)
(1.00322 0.0115242 4.26975e-25)
(1.00269 0.0100303 5.73878e-25)
(1.00224 0.00866752 1.15791e-24)
(1.00186 0.0074696 -6.9471e-25)
(1.00152 0.00636952 -8.8315e-25)
(1.00128 0.00545387 1.69572e-25)
(1.00102 0.00456375 -4.07008e-25)
(1.00089 0.00392613 1.20678e-25)
(1.00064 0.00313642 1.98854e-25)
(1.10044 0.0546151 9.61112e-22)
(1.09769 0.055233 -1.53886e-21)
(1.09493 0.0558523 -1.45881e-22)
(1.09214 0.0564681 1.76154e-21)
(1.08933 0.0570746 1.88342e-21)
(1.0865 0.0576656 -3.52907e-22)
(1.08365 0.0582337 -7.0963e-22)
(1.08078 0.0587712 -1.73104e-22)
(1.07789 0.0592693 -6.04465e-22)
(1.07498 0.0597189 1.2399e-21)
(1.07206 0.0601099 -3.64398e-22)
(1.06912 0.0604318 -1.66037e-21)
(1.06617 0.0606737 7.12345e-22)
(1.06321 0.0608243 -8.09556e-22)
(1.06026 0.0608719 1.32855e-21)
(1.0573 0.0608052 -7.72887e-22)
(1.05435 0.0606126 5.10877e-22)
(1.05142 0.0602834 -9.73024e-22)
(1.04851 0.0598071 9.17902e-22)
(1.04562 0.0591746 -5.69706e-24)
(1.04278 0.0583779 5.35722e-23)
(1.03997 0.0574106 -7.87899e-25)
(1.03722 0.0562685 -4.705e-22)
(1.03453 0.0549493 -9.43262e-23)
(1.03191 0.0534539 5.28983e-22)
(1.02936 0.0517857 -2.0948e-22)
(1.02691 0.0499514 2.88066e-22)
(1.02454 0.0479611 -1.18458e-22)
(1.02228 0.0458281 -9.17644e-23)
(1.02013 0.0435689 5.89825e-23)
(1.01809 0.0412031 -4.39184e-23)
(1.01618 0.038753 2.07674e-24)
(1.01439 0.0362428 1.49469e-25)
(1.01272 0.0336985 -3.3706e-23)
(1.01118 0.0311467 4.97924e-23)
(1.00977 0.0286139 -4.20524e-23)
(1.00849 0.0261261 -1.73329e-23)
(1.00733 0.0237069 2.88065e-23)
(1.00629 0.0213788 -1.22032e-23)
(1.00537 0.0191595 8.04796e-24)
(1.00456 0.0170664 -1.21668e-23)
(1.00384 0.015108 1.08641e-23)
(1.00322 0.0132974 -1.10667e-24)
(1.00269 0.0116309 -1.17656e-24)
(1.00223 0.0101221 -6.64081e-25)
(1.00184 0.00874852 3.3704e-25)
(1.00152 0.00753764 -8.81173e-25)
(1.00124 0.00643126 2.89459e-26)
(1.00103 0.00550263 -1.19119e-25)
(1.00081 0.00461157 8.02998e-25)
(1.00071 0.00395877 4.09899e-26)
(1.0005 0.00317256 -9.13136e-25)
(1.09112 0.0560829 -3.51631e-21)
(1.08854 0.0566893 2.67417e-21)
(1.08594 0.0572963 -2.21266e-21)
(1.08332 0.0578989 8.58533e-22)
(1.08069 0.0584911 1.99213e-22)
(1.07805 0.0590664 7.44997e-22)
(1.07539 0.0596175 -2.03773e-21)
(1.07272 0.0601362 1.84036e-21)
(1.07004 0.0606137 9.31232e-22)
(1.06735 0.0610406 -7.21453e-22)
(1.06464 0.0614069 -9.37881e-22)
(1.06193 0.0617017 1.82756e-22)
(1.05921 0.0619142 -2.55439e-22)
(1.05649 0.0620329 1.15583e-21)
(1.05378 0.0620462 -1.41283e-21)
(1.05107 0.0619426 1.31232e-21)
(1.04837 0.0617109 -8.7944e-22)
(1.04569 0.0613401 1.21333e-21)
(1.04304 0.0608202 -3.81355e-22)
(1.04041 0.0601421 -2.64611e-22)
(1.03782 0.059298 2.4418e-22)
(1.03528 0.058282 2.34403e-22)
(1.03279 0.05709 -4.83107e-22)
(1.03036 0.0557203 2.13826e-22)
(1.02799 0.054174 -3.12427e-22)
(1.02571 0.052455 3.79249e-22)
(1.0235 0.0505705 -2.91802e-22)
(1.02138 0.0485309 4.24865e-23)
(1.01936 0.0463498 -7.2775e-24)
(1.01744 0.0440443 -2.38499e-23)
(1.01562 0.0416343 1.61389e-23)
(1.01392 0.0391421 8.54743e-23)
(1.01233 0.0365923 -7.04206e-23)
(1.01086 0.0340111 -5.85998e-25)
(1.00951 0.031425 4.86061e-23)
(1.00827 0.0288607 -3.39357e-23)
(1.00715 0.0263441 2.95483e-23)
(1.00614 0.0238988 -1.21861e-23)
(1.00524 0.0215471 4.8117e-24)
(1.00444 0.0193069 -1.63736e-24)
(1.00374 0.0171948 -3.31602e-24)
(1.00312 0.01522 2.02394e-24)
(1.0026 0.0133943 -4.3279e-24)
(1.00215 0.0117154 1.60634e-24)
(1.00177 0.0101945 2.21418e-25)
(1.00144 0.0088122 1.41823e-25)
(1.00118 0.00759088 -3.07514e-25)
(1.00094 0.00647967 8.20679e-25)
(1.00077 0.00554055 4.81681e-27)
(1.0006 0.00464914 -5.13433e-25)
(1.00052 0.00398397 -8.18484e-26)
(1.00036 0.00320119 1.83368e-24)
(1.08364 0.0568797 3.05582e-21)
(1.08124 0.0574675 2.28649e-21)
(1.07883 0.0580598 -1.93065e-21)
(1.07642 0.0586522 -9.79218e-23)
(1.07399 0.0592392 2.5022e-22)
(1.07156 0.0598149 -1.38174e-21)
(1.06913 0.0603725 1.09254e-21)
(1.06668 0.0609044 -5.16213e-22)
(1.06423 0.0614024 2.08273e-22)
(1.06177 0.0618575 -9.52376e-22)
(1.0593 0.0622601 1.48584e-21)
(1.05684 0.0626 -1.1666e-21)
(1.05437 0.0628665 1.29076e-22)
(1.0519 0.0630484 6.34459e-22)
(1.04943 0.0631344 -7.05083e-22)
(1.04698 0.0631127 5.52405e-22)
(1.04453 0.062972 9.63061e-23)
(1.0421 0.0627011 -2.23627e-22)
(1.0397 0.062289 -1.49022e-22)
(1.03731 0.0617261 5.82655e-22)
(1.03497 0.0610033 -1.3294e-22)
(1.03265 0.0601132 -4.98546e-22)
(1.03039 0.05905 3.56225e-22)
(1.02817 0.0578102 -4.17442e-22)
(1.02602 0.0563923 4.80543e-22)
(1.02392 0.0547978 -1.23258e-22)
(1.0219 0.053031 -2.84544e-22)
(1.01996 0.0510995 1.83244e-23)
(1.0181 0.0490142 1.18812e-22)
(1.01633 0.0467889 -2.96101e-23)
(1.01465 0.0444411 -6.91471e-23)
(1.01307 0.0419909 6.2007e-23)
(1.01159 0.039461 -1.8551e-23)
(1.01022 0.0368761 -2.91123e-23)
(1.00895 0.0342623 -2.2626e-24)
(1.00778 0.0316464 1.1347e-23)
(1.00672 0.029055 -2.57519e-23)
(1.00576 0.0265138 1.47245e-24)
(1.00491 0.0240467 1.65341e-23)
(1.00415 0.0216755 -4.56385e-24)
(1.00348 0.019418 4.45344e-24)
(1.0029 0.0172907 -7.00397e-24)
(1.00239 0.0153028 5.54161e-24)
(1.00196 0.0134654 -2.03172e-24)
(1.00159 0.0117769 1.31936e-24)
(1.00129 0.0102467 1.05147e-24)
(1.00103 0.0088581 -1.39281e-24)
(1.00082 0.0076289 6.27522e-25)
(1.00064 0.00651447 -3.03629e-25)
(1.00052 0.00556732 -1.70697e-25)
(1.00039 0.0046763 2.27344e-26)
(1.00033 0.00400141 4.19544e-26)
(1.00022 0.00322222 -1.24651e-24)
(1.07301 0.0581847 1.79806e-21)
(1.07079 0.0587566 -9.29443e-22)
(1.06858 0.0593326 -1.9339e-21)
(1.06636 0.0599081 7.43567e-22)
(1.06415 0.0604774 8.72194e-22)
(1.06194 0.0610345 -4.72052e-22)
(1.05972 0.0615722 -1.51342e-21)
(1.0575 0.062083 1.16837e-21)
(1.05529 0.0625585 1.69729e-22)
(1.05307 0.0629895 1.28961e-21)
(1.05086 0.0633663 -6.13075e-22)
(1.04864 0.0636786 1.19892e-21)
(1.04643 0.0639157 9.04661e-23)
(1.04423 0.0640662 -1.7547e-21)
(1.04204 0.0641187 2.35452e-22)
(1.03986 0.0640618 1.11908e-21)
(1.0377 0.0638839 -7.05428e-22)
(1.03555 0.0635739 9.22034e-23)
(1.03344 0.0631212 -4.60926e-22)
(1.03134 0.062516 5.76116e-23)
(1.02929 0.0617498 2.15228e-22)
(1.02727 0.0608153 2.15574e-23)
(1.0253 0.059707 -2.40527e-22)
(1.02337 0.0584216 -2.20816e-22)
(1.02151 0.0569582 1.55425e-22)
(1.0197 0.0553185 3.0051e-22)
(1.01796 0.0535074 -7.19335e-23)
(1.01629 0.0515326 1.09832e-22)
(1.0147 0.0494055 -1.05379e-22)
(1.01319 0.0471403 1.25565e-23)
(1.01177 0.0447546 5.70465e-23)
(1.01043 0.0422688 -1.26057e-24)
(1.00918 0.0397058 9.30893e-24)
(1.00803 0.0370905 -1.19903e-23)
(1.00697 0.0344489 -2.52403e-24)
(1.006 0.031808 3.54608e-23)
(1.00513 0.0291942 -6.32712e-25)
(1.00434 0.0266332 1.53694e-24)
(1.00365 0.0241486 -1.46506e-23)
(1.00303 0.0217621 1.20967e-23)
(1.0025 0.0194916 -3.22182e-24)
(1.00204 0.0173528 -4.03152e-24)
(1.00164 0.0153555 -2.29071e-24)
(1.00131 0.0135097 -3.06199e-24)
(1.00103 0.0118148 -1.97415e-24)
(1.0008 0.0102783 -1.43084e-24)
(1.00061 0.0088857 2.07887e-24)
(1.00046 0.00765123 -5.21609e-25)
(1.00034 0.00653532 -9.81621e-25)
(1.00026 0.00558256 1.83126e-25)
(1.00017 0.00469291 -1.29704e-25)
(1.00014 0.00401077 1.50905e-25)
(1.00007 0.00323556 3.82524e-25)
(1.06178 0.0593837 2.48822e-21)
(1.05977 0.0599375 4.75986e-22)
(1.05777 0.0604951 -4.59006e-21)
(1.05578 0.0610515 2.3842e-21)
(1.0538 0.0616011 -1.54963e-21)
(1.05181 0.0621375 2.41648e-21)
(1.04984 0.0626536 1.17902e-22)
(1.04787 0.0631415 -1.86867e-21)
(1.04591 0.0635928 1.66323e-21)
(1.04395 0.0639983 -2.16436e-21)
(1.042 0.064348 1.37166e-21)
(1.04006 0.0646316 -4.31913e-23)
(1.03814 0.0648382 1.10929e-21)
(1.03622 0.0649567 -5.61616e-22)
(1.03432 0.0649755 -7.11439e-22)
(1.03243 0.0648831 1.13043e-22)
(1.03057 0.0646682 4.29363e-22)
(1.02873 0.0643197 -3.91693e-22)
(1.02691 0.0638272 -5.17041e-22)
(1.02513 0.0631812 8.02954e-22)
(1.02338 0.0623731 5.10671e-23)
(1.02167 0.0613961 -3.40545e-22)
(1.02001 0.060245 -3.8968e-23)
(1.01839 0.0589169 1.58739e-22)
(1.01683 0.057411 -1.99701e-22)
(1.01532 0.0557297 2.07339e-22)
(1.01388 0.0538779 -2.04209e-22)
(1.0125 0.051864 5.01918e-23)
(1.01119 0.0496994 -2.01471e-23)
(1.00995 0.0473988 2.32458e-23)
(1.00879 0.04498 5.98452e-23)
(1.00771 0.0424636 -7.39805e-23)
(1.00671 0.0398726 1.60832e-23)
(1.00578 0.037232 1.89398e-23)
(1.00494 0.0345678 9.81619e-24)
(1.00418 0.031907 1.47602e-24)
(1.0035 0.0292758 1.2964e-24)
(1.00289 0.0266998 -1.76688e-24)
(1.00236 0.0242025 -1.44253e-23)
(1.00189 0.0218053 2.37086e-24)
(1.0015 0.019526 -6.31797e-25)
(1.00116 0.01738 3.72536e-24)
(1.00088 0.0153769 1.94877e-24)
(1.00064 0.0135264 -1.00313e-24)
(1.00045 0.0118281 2.1408e-24)
(1.00031 0.0102885 9.57328e-25)
(1.00019 0.0088945 1.93586e-25)
(1.0001 0.00765741 8.26683e-26)
(1.00003 0.00654193 2.1099e-25)
(0.99999 0.00558596 -2.72227e-26)
(0.999954 0.0046988 4.68085e-25)
(0.999943 0.00401176 2.3322e-26)
(0.999925 0.00324113 -3.4475e-25)
(1.04998 0.0604634 2.6747e-22)
(1.04819 0.0609971 -5.37275e-22)
(1.04643 0.0615342 -1.24412e-21)
(1.04467 0.0620696 2.4892e-21)
(1.04293 0.0625976 -1.53597e-21)
(1.0412 0.0631115 9.75906e-22)
(1.03949 0.0636042 -9.00898e-23)
(1.03778 0.0640677 -6.81071e-22)
(1.03609 0.0644934 -5.91706e-22)
(1.03442 0.064872 1.69787e-21)
(1.03276 0.0651935 9.09134e-22)
(1.03111 0.0654476 -4.20548e-22)
(1.02948 0.0656232 -8.06955e-22)
(1.02786 0.0657092 -3.83277e-22)
(1.02627 0.0656941 -5.65692e-22)
(1.0247 0.0655665 1.22853e-21)
(1.02315 0.0653152 4.99705e-22)
(1.02163 0.0649291 -3.68716e-22)
(1.02013 0.064398 -2.60838e-22)
(1.01868 0.0637126 -1.19177e-22)
(1.01725 0.0628647 2.64541e-22)
(1.01587 0.0618476 1.82744e-23)
(1.01453 0.0606565 -2.89525e-22)
(1.01323 0.0592886 5.00413e-22)
(1.01199 0.0577439 -5.2631e-22)
(1.01079 0.0560247 2.55719e-22)
(1.00966 0.0541364 -1.0087e-22)
(1.00858 0.0520878 6.62249e-23)
(1.00757 0.0498905 5.47245e-23)
(1.00661 0.0475595 -1.16837e-22)
(1.00573 0.0451128 -1.79929e-23)
(1.00491 0.0425712 2.27707e-23)
(1.00416 0.0399576 -7.11062e-24)
(1.00347 0.0372972 -3.1835e-23)
(1.00286 0.034616 1.54755e-24)
(1.00231 0.0319406 4.93006e-23)
(1.00182 0.0292973 -7.23096e-24)
(1.0014 0.0267115 -1.38764e-23)
(1.00104 0.0242065 1.50252e-23)
(1.00073 0.0218035 -2.24595e-24)
(1.00047 0.0195199 -4.52412e-24)
(1.00026 0.0173709 2.38448e-24)
(1.0001 0.0153662 -8.41257e-25)
(0.999968 0.0135145 -7.47125e-26)
(0.999871 0.0118164 8.87979e-25)
(0.999803 0.0102767 -8.31006e-25)
(0.999757 0.00888403 1.53878e-25)
(0.999732 0.00764703 -8.63052e-26)
(0.999719 0.00653398 -2.93315e-26)
(0.999722 0.0055772 3.60553e-27)
(0.999731 0.00469383 -3.15445e-26)
(0.999746 0.00400411 -7.09993e-26)
(0.999776 0.00323887 2.31561e-25)
(1.03916 0.0609063 -2.78908e-21)
(1.0376 0.0614104 -1.53871e-22)
(1.03606 0.0619221 3.9841e-21)
(1.03454 0.0624369 -2.90139e-21)
(1.03305 0.0629495 3.07176e-21)
(1.03157 0.0634541 -8.80788e-22)
(1.03011 0.063944 -6.75385e-22)
(1.02868 0.0644118 1.48015e-21)
(1.02726 0.0648495 -7.92805e-22)
(1.02586 0.0652484 3.51411e-22)
(1.02448 0.0655991 6.45458e-23)
(1.02312 0.0658915 -5.7455e-22)
(1.02178 0.0661154 8.75487e-22)
(1.02047 0.0662596 -2.14865e-21)
(1.01917 0.066313 7.28966e-22)
(1.01791 0.0662643 1.46651e-21)
(1.01666 0.066102 -1.69485e-21)
(1.01545 0.0658149 1.12289e-21)
(1.01426 0.0653924 -1.01408e-21)
(1.01311 0.0648243 9.7947e-23)
(1.01199 0.0641015 -1.74301e-22)
(1.01091 0.0632161 6.43295e-22)
(1.00987 0.0621616 4.76231e-22)
(1.00886 0.0609336 -2.07519e-22)
(1.0079 0.0595296 -2.3585e-22)
(1.00699 0.0579498 3.20746e-23)
(1.00613 0.056197 -6.52289e-23)
(1.00531 0.0542769 8.91362e-23)
(1.00455 0.0521985 -6.91797e-23)
(1.00384 0.0499737 -7.08201e-23)
(1.00318 0.0476178 8.97995e-23)
(1.00258 0.0451487 9.14078e-24)
(1.00204 0.0425875 -5.06907e-23)
(1.00155 0.0399573 1.22196e-23)
(1.00111 0.0372828 -5.2402e-23)
(1.00073 0.0345903 3.92074e-23)
(1.0004 0.0319061 -5.87492e-24)
(1.00012 0.0292565 -6.69842e-24)