/*--------------------------------*- C++ -*----------------------------------*\
  =========                 |
  \\      /  F ield         | OpenFOAM: The Open Source CFD Toolbox
   \\    /   O peration     | Website:  https://openfoam.org
    \\  /    A nd           | Version:  7
     \\/     M anipulation  |
\*---------------------------------------------------------------------------*/
FoamFile
{
    version     2.0;
    format      ascii;
    class       volScalarField;
    location    "95";
    object      p;
}
// * * * * * * * * * * * * * * * * * * * * * * * * * * * * * * * * * * * * * //

dimensions      [0 2 -2 0 0 0 0];

internalField   nonuniform List<scalar> 
42000
(
-0.390476
-0.392931
-0.387277
-0.380223
-0.370517
-0.359541
-0.347493
-0.334774
-0.32163
-0.308261
-0.294835
-0.281485
-0.268337
-0.255488
-0.243067
-0.231106
-0.219884
-0.209029
-0.199783
-0.189633
-0.390753
-0.393122
-0.38745
-0.38036
-0.370637
-0.359643
-0.347584
-0.334855
-0.321703
-0.308327
-0.294896
-0.281541
-0.268387
-0.255532
-0.243105
-0.231133
-0.219904
-0.209024
-0.199809
-0.189499
-0.391307
-0.393503
-0.387796
-0.380633
-0.370876
-0.359847
-0.347765
-0.335016
-0.321849
-0.30846
-0.295018
-0.281652
-0.268488
-0.25562
-0.243179
-0.231187
-0.219945
-0.209014
-0.199862
-0.18923
-0.392135
-0.394073
-0.388314
-0.381041
-0.371235
-0.360152
-0.348035
-0.335256
-0.322067
-0.308659
-0.2952
-0.281818
-0.268638
-0.255752
-0.24329
-0.231268
-0.220006
-0.208999
-0.199941
-0.18883
-0.393236
-0.394832
-0.389002
-0.381583
-0.371711
-0.360557
-0.348394
-0.335576
-0.322356
-0.308923
-0.295441
-0.282039
-0.268838
-0.255926
-0.243438
-0.231376
-0.220088
-0.20898
-0.200047
-0.188301
-0.394608
-0.395777
-0.38986
-0.382258
-0.372305
-0.361061
-0.348841
-0.335973
-0.322716
-0.30925
-0.295742
-0.282313
-0.269085
-0.256143
-0.243621
-0.231511
-0.22019
-0.208956
-0.200181
-0.187646
-0.396246
-0.396906
-0.390884
-0.383065
-0.373013
-0.361662
-0.349374
-0.336446
-0.323144
-0.309641
-0.296099
-0.282639
-0.26938
-0.256402
-0.24384
-0.231671
-0.220313
-0.208929
-0.200342
-0.18687
-0.398147
-0.398216
-0.392072
-0.384
-0.373834
-0.362358
-0.349991
-0.336994
-0.32364
-0.310092
-0.296512
-0.283017
-0.26972
-0.2567
-0.244093
-0.231857
-0.220456
-0.208899
-0.200531
-0.185977
-0.400306
-0.399704
-0.393422
-0.385063
-0.374766
-0.363149
-0.350691
-0.337615
-0.324201
-0.310603
-0.29698
-0.283443
-0.270105
-0.257038
-0.244379
-0.232067
-0.220619
-0.208867
-0.200749
-0.184974
-0.402719
-0.401368
-0.39493
-0.386249
-0.375806
-0.364031
-0.351472
-0.338306
-0.324826
-0.311171
-0.297499
-0.283917
-0.270533
-0.257413
-0.244698
-0.232302
-0.220802
-0.208832
-0.200994
-0.183867
-0.405379
-0.403202
-0.396593
-0.387557
-0.376952
-0.365002
-0.35233
-0.339067
-0.325513
-0.311794
-0.298069
-0.284436
-0.271002
-0.257824
-0.245047
-0.23256
-0.221005
-0.208796
-0.201268
-0.182664
-0.408281
-0.405204
-0.398406
-0.388982
-0.378201
-0.366059
-0.353264
-0.339893
-0.326258
-0.312471
-0.298687
-0.284999
-0.27151
-0.25827
-0.245426
-0.232841
-0.221228
-0.20876
-0.201568
-0.181373
-0.411417
-0.407367
-0.400367
-0.390523
-0.379549
-0.367199
-0.354272
-0.340784
-0.327061
-0.313199
-0.299351
-0.285603
-0.272054
-0.258748
-0.245833
-0.233143
-0.221469
-0.208724
-0.201895
-0.180002
-0.414782
-0.409688
-0.402469
-0.392174
-0.380994
-0.36842
-0.355349
-0.341735
-0.327917
-0.313975
-0.300058
-0.286246
-0.272634
-0.259256
-0.246267
-0.233465
-0.221728
-0.208689
-0.202248
-0.178561
-0.41837
-0.412158
-0.404709
-0.393932
-0.382531
-0.369719
-0.356493
-0.342745
-0.328825
-0.314796
-0.300806
-0.286925
-0.273246
-0.259793
-0.246725
-0.233807
-0.222005
-0.208655
-0.202623
-0.177059
-0.422163
-0.41478
-0.40708
-0.395794
-0.384158
-0.371091
-0.357701
-0.34381
-0.329782
-0.315661
-0.301592
-0.287639
-0.273888
-0.260356
-0.247206
-0.234166
-0.222298
-0.208623
-0.20302
-0.175505
-0.426161
-0.417543
-0.409579
-0.397754
-0.385869
-0.372534
-0.358971
-0.344927
-0.330784
-0.316565
-0.302414
-0.288384
-0.274558
-0.260943
-0.247708
-0.234541
-0.222605
-0.208594
-0.203435
-0.173911
-0.430356
-0.42044
-0.4122
-0.399808
-0.387662
-0.374044
-0.360297
-0.346094
-0.331829
-0.317507
-0.303268
-0.289157
-0.275252
-0.261551
-0.248228
-0.234931
-0.222927
-0.208568
-0.203866
-0.172287
-0.434736
-0.423465
-0.414936
-0.401952
-0.389532
-0.375617
-0.361678
-0.347306
-0.332914
-0.318484
-0.304152
-0.289956
-0.275969
-0.262179
-0.248764
-0.235334
-0.22326
-0.208545
-0.204308
-0.170641
-0.439292
-0.426613
-0.417782
-0.404181
-0.391475
-0.37725
-0.36311
-0.348562
-0.334035
-0.319491
-0.305063
-0.290778
-0.276705
-0.262822
-0.249315
-0.235749
-0.223603
-0.208526
-0.204756
-0.168985
-0.444015
-0.429877
-0.420732
-0.406491
-0.393486
-0.378939
-0.36459
-0.349857
-0.33519
-0.320527
-0.305998
-0.29162
-0.277458
-0.26348
-0.249876
-0.236172
-0.223954
-0.208511
-0.205207
-0.167328
-0.448895
-0.43325
-0.42378
-0.408875
-0.395562
-0.38068
-0.366113
-0.351189
-0.336376
-0.321589
-0.306954
-0.292479
-0.278225
-0.264149
-0.250447
-0.236602
-0.22431
-0.208499
-0.205653
-0.165679
-0.453922
-0.436725
-0.426919
-0.411331
-0.397697
-0.38247
-0.367677
-0.352554
-0.33759
-0.322673
-0.307927
-0.293352
-0.279002
-0.264826
-0.251023
-0.237038
-0.224668
-0.208491
-0.20609
-0.164048
-0.459085
-0.440295
-0.430144
-0.413851
-0.399888
-0.384305
-0.369278
-0.35395
-0.338827
-0.323776
-0.308916
-0.294236
-0.279787
-0.265508
-0.251602
-0.237476
-0.225025
-0.208486
-0.206509
-0.162444
-0.464374
-0.443952
-0.433447
-0.416432
-0.40213
-0.38618
-0.370912
-0.355372
-0.340086
-0.324895
-0.309917
-0.295128
-0.280577
-0.266192
-0.252181
-0.237914
-0.225378
-0.208485
-0.206903
-0.160873
-0.469778
-0.447689
-0.436822
-0.419067
-0.404419
-0.388092
-0.372577
-0.356818
-0.341364
-0.326028
-0.310926
-0.296025
-0.281368
-0.266875
-0.252757
-0.23835
-0.225724
-0.208487
-0.207264
-0.159345
-0.475287
-0.451499
-0.440261
-0.421753
-0.406749
-0.390037
-0.374268
-0.358284
-0.342656
-0.327171
-0.31194
-0.296923
-0.282157
-0.267554
-0.253326
-0.238781
-0.226059
-0.208493
-0.207582
-0.157867
-0.480889
-0.455373
-0.443759
-0.424483
-0.409117
-0.392011
-0.375982
-0.359767
-0.343959
-0.32832
-0.312957
-0.297819
-0.28294
-0.268226
-0.253885
-0.239206
-0.226379
-0.208505
-0.207848
-0.156446
-0.486574
-0.459305
-0.447309
-0.427251
-0.411517
-0.394011
-0.377715
-0.361264
-0.345271
-0.329472
-0.313972
-0.29871
-0.283714
-0.268886
-0.254431
-0.23962
-0.226681
-0.208523
-0.20805
-0.155092
-0.492329
-0.463285
-0.450902
-0.430054
-0.413945
-0.396031
-0.379464
-0.362771
-0.346588
-0.330624
-0.314982
-0.299591
-0.284475
-0.269531
-0.254959
-0.240023
-0.22696
-0.208551
-0.208177
-0.153813
-0.498145
-0.467307
-0.454533
-0.432884
-0.416396
-0.398069
-0.381225
-0.364284
-0.347907
-0.331773
-0.315983
-0.300459
-0.285219
-0.270158
-0.255467
-0.240411
-0.227213
-0.208593
-0.208216
-0.152623
-0.504008
-0.471362
-0.458193
-0.435737
-0.418865
-0.400119
-0.382994
-0.3658
-0.349223
-0.332914
-0.316971
-0.301309
-0.285941
-0.270761
-0.255949
-0.240782
-0.227436
-0.208656
-0.208151
-0.15154
-0.509908
-0.475441
-0.461877
-0.438607
-0.421348
-0.402178
-0.384767
-0.367316
-0.350533
-0.334043
-0.317943
-0.302138
-0.286638
-0.271336
-0.256402
-0.241134
-0.227628
-0.208749
-0.207966
-0.150588
-0.515832
-0.479536
-0.465575
-0.441488
-0.423838
-0.404242
-0.38654
-0.368827
-0.351833
-0.335156
-0.318892
-0.302939
-0.287303
-0.271878
-0.256822
-0.241464
-0.227784
-0.208885
-0.207643
-0.149807
-0.521769
-0.483639
-0.469281
-0.444374
-0.426333
-0.406305
-0.38831
-0.370329
-0.353118
-0.33625
-0.319816
-0.303709
-0.287932
-0.272383
-0.257203
-0.24177
-0.227906
-0.209082
-0.207164
-0.149281
-0.527705
-0.487741
-0.472987
-0.447258
-0.428824
-0.408363
-0.39007
-0.371817
-0.354385
-0.337318
-0.320708
-0.304442
-0.288518
-0.272843
-0.257539
-0.242046
-0.22799
-0.20936
-0.206519
-0.149146
-0.533629
-0.491833
-0.476686
-0.450136
-0.431309
-0.410412
-0.391818
-0.373288
-0.355628
-0.338356
-0.321563
-0.305131
-0.289056
-0.273253
-0.257826
-0.242289
-0.228039
-0.209745
-0.205667
-0.149444
-0.539532
-0.495911
-0.480372
-0.453004
-0.433782
-0.412448
-0.39355
-0.374738
-0.356844
-0.339359
-0.322376
-0.305771
-0.289539
-0.273605
-0.258056
-0.242492
-0.228057
-0.210277
-0.204493
-0.149971
-0.545402
-0.499966
-0.48404
-0.455856
-0.436241
-0.414468
-0.39526
-0.376161
-0.358026
-0.340322
-0.323141
-0.306356
-0.28996
-0.273891
-0.25822
-0.242646
-0.228056
-0.211008
-0.203022
-0.151633
-0.551193
-0.503959
-0.487652
-0.458662
-0.438657
-0.416448
-0.396932
-0.377543
-0.359163
-0.341234
-0.323848
-0.306875
-0.29031
-0.274101
-0.25831
-0.242737
-0.228032
-0.211941
-0.201986
-0.160753
-0.556817
-0.507805
-0.491134
-0.461357
-0.440979
-0.418346
-0.398529
-0.378855
-0.360231
-0.342075
-0.324481
-0.307317
-0.290578
-0.274227
-0.258312
-0.242744
-0.22795
-0.212887
-0.202031
-0.187011
-0.562467
-0.511695
-0.494655
-0.464089
-0.443327
-0.420258
-0.400127
-0.380154
-0.361271
-0.342872
-0.325056
-0.307687
-0.290762
-0.274258
-0.258213
-0.242639
-0.227746
-0.213601
-0.201134
-0.19781
-0.568065
-0.51555
-0.498145
-0.466794
-0.445647
-0.422141
-0.40169
-0.381409
-0.362257
-0.343606
-0.325557
-0.307972
-0.290851
-0.274184
-0.258
-0.242401
-0.227386
-0.21394
-0.199631
-0.201686
-0.573562
-0.519325
-0.501564
-0.469441
-0.447913
-0.423971
-0.403197
-0.382604
-0.363176
-0.344264
-0.325972
-0.308161
-0.290835
-0.273995
-0.257661
-0.242013
-0.226855
-0.213899
-0.19813
-0.203437
-0.578947
-0.523012
-0.504904
-0.472021
-0.450117
-0.425741
-0.404642
-0.383731
-0.364019
-0.344837
-0.326292
-0.308246
-0.290704
-0.27368
-0.257186
-0.241464
-0.226149
-0.213502
-0.19664
-0.203863
-0.584207
-0.526604
-0.508158
-0.474529
-0.452253
-0.427446
-0.406019
-0.384784
-0.36478
-0.345318
-0.32651
-0.308217
-0.290449
-0.273231
-0.256565
-0.240743
-0.225262
-0.21277
-0.195084
-0.203157
-0.58933
-0.53009
-0.511317
-0.476958
-0.454315
-0.429079
-0.407319
-0.385755
-0.365451
-0.345699
-0.326616
-0.308066
-0.290062
-0.272637
-0.255788
-0.239843
-0.224189
-0.211727
-0.193435
-0.20159
-0.594302
-0.533459
-0.514372
-0.479297
-0.456293
-0.430629
-0.408535
-0.386636
-0.366022
-0.345969
-0.326602
-0.307784
-0.289533
-0.27189
-0.254848
-0.238758
-0.222928
-0.210396
-0.191683
-0.199394
-0.599107
-0.536701
-0.51731
-0.481539
-0.458178
-0.43209
-0.409658
-0.387416
-0.366484
-0.346121
-0.326458
-0.307362
-0.288854
-0.270983
-0.253738
-0.237483
-0.221476
-0.208801
-0.189817
-0.196732
-0.60373
-0.539804
-0.520122
-0.483673
-0.45996
-0.433451
-0.410678
-0.388088
-0.366828
-0.346144
-0.326175
-0.30679
-0.288016
-0.269907
-0.252451
-0.236017
-0.219832
-0.20696
-0.187827
-0.193719
-0.608157
-0.542756
-0.522796
-0.485689
-0.461632
-0.434704
-0.411585
-0.38864
-0.367043
-0.346029
-0.325743
-0.30606
-0.287011
-0.268656
-0.250981
-0.234355
-0.217997
-0.204892
-0.185705
-0.190439
-0.612373
-0.545545
-0.525321
-0.487577
-0.463181
-0.435838
-0.41237
-0.389064
-0.367121
-0.345765
-0.325153
-0.305163
-0.285831
-0.267222
-0.249325
-0.232498
-0.215969
-0.20261
-0.183445
-0.186954
-0.616362
-0.548159
-0.527686
-0.489327
-0.464598
-0.436843
-0.413022
-0.389348
-0.367049
-0.345343
-0.324396
-0.304089
-0.284468
-0.265601
-0.247476
-0.230444
-0.213751
-0.200127
-0.18104
-0.183306
-0.620108
-0.550586
-0.529877
-0.490928
-0.465871
-0.437709
-0.413531
-0.389482
-0.366819
-0.344753
-0.323462
-0.302832
-0.282916
-0.263785
-0.245432
-0.228192
-0.211342
-0.197452
-0.178487
-0.179527
-0.623595
-0.552812
-0.531884
-0.492367
-0.46699
-0.438423
-0.413885
-0.389454
-0.366419
-0.343985
-0.322341
-0.301382
-0.281167
-0.26177
-0.243189
-0.225743
-0.208743
-0.194594
-0.175783
-0.175637
-0.626807
-0.554825
-0.533693
-0.493634
-0.467943
-0.438975
-0.414072
-0.389255
-0.365839
-0.343028
-0.321025
-0.299731
-0.279215
-0.259551
-0.240745
-0.223095
-0.205956
-0.191559
-0.172926
-0.171651
-0.629727
-0.556612
-0.535292
-0.494717
-0.468718
-0.439353
-0.414082
-0.388871
-0.365067
-0.341872
-0.319505
-0.297873
-0.277053
-0.257125
-0.238096
-0.220249
-0.202981
-0.188352
-0.169913
-0.167576
-0.632339
-0.558158
-0.536666
-0.495602
-0.469303
-0.439544
-0.413902
-0.388292
-0.364092
-0.340508
-0.317771
-0.2958
-0.274677
-0.254487
-0.235242
-0.217206
-0.19982
-0.184976
-0.166743
-0.163417
-0.634627
-0.559451
-0.537804
-0.496278
-0.469684
-0.439537
-0.413519
-0.387506
-0.362905
-0.338926
-0.315817
-0.293504
-0.272082
-0.251634
-0.23218
-0.213964
-0.196474
-0.181436
-0.163416
-0.159177
-0.636572
-0.560476
-0.53869
-0.496732
-0.46985
-0.439318
-0.412923
-0.386501
-0.361493
-0.337116
-0.313632
-0.29098
-0.269261
-0.248563
-0.228909
-0.210526
-0.192944
-0.177734
-0.159932
-0.154854
-0.638159
-0.561219
-0.539311
-0.49695
-0.469786
-0.438876
-0.4121
-0.385267
-0.359847
-0.335069
-0.311211
-0.288222
-0.266213
-0.245272
-0.225429
-0.206892
-0.189232
-0.17387
-0.15629
-0.150448
-0.639369
-0.561667
-0.539653
-0.49692
-0.46948
-0.438197
-0.411037
-0.38379
-0.357956
-0.332775
-0.308545
-0.285223
-0.262931
-0.241759
-0.221739
-0.203062
-0.185338
-0.169849
-0.152491
-0.145956
-0.640186
-0.561804
-0.539702
-0.496626
-0.468919
-0.437267
-0.409723
-0.382059
-0.35581
-0.330227
-0.305627
-0.28198
-0.259414
-0.238022
-0.217839
-0.199037
-0.181265
-0.165669
-0.148536
-0.141375
-0.640592
-0.561616
-0.539443
-0.496057
-0.468088
-0.436075
-0.408145
-0.380065
-0.353399
-0.327416
-0.302452
-0.278487
-0.255659
-0.234059
-0.213728
-0.194819
-0.177013
-0.161335
-0.144426
-0.136703
-0.64057
-0.561089
-0.538861
-0.495198
-0.466974
-0.434606
-0.406291
-0.377794
-0.350713
-0.324334
-0.299013
-0.274741
-0.251663
-0.229871
-0.209408
-0.190409
-0.172585
-0.156845
-0.140162
-0.131937
-0.640103
-0.560208
-0.537943
-0.494034
-0.465563
-0.432848
-0.404149
-0.375236
-0.347743
-0.320975
-0.295304
-0.270737
-0.247424
-0.225457
-0.204878
-0.185808
-0.167983
-0.152203
-0.135748
-0.127074
-0.639174
-0.558959
-0.536673
-0.492553
-0.463842
-0.430788
-0.401706
-0.372382
-0.34448
-0.31733
-0.291322
-0.266473
-0.242941
-0.220817
-0.200141
-0.181018
-0.163208
-0.147409
-0.131183
-0.122112
-0.637765
-0.557327
-0.535036
-0.49074
-0.461797
-0.428414
-0.398951
-0.369221
-0.340917
-0.313394
-0.287061
-0.261947
-0.238213
-0.21595
-0.195197
-0.176041
-0.158262
-0.142465
-0.126471
-0.117049
-0.635859
-0.555298
-0.533019
-0.488581
-0.459414
-0.425712
-0.395873
-0.365742
-0.337045
-0.30916
-0.282518
-0.257156
-0.23324
-0.210859
-0.190048
-0.170879
-0.153148
-0.137373
-0.121613
-0.111884
-0.633441
-0.552857
-0.530606
-0.486063
-0.456681
-0.42267
-0.392461
-0.361938
-0.332857
-0.304625
-0.277689
-0.252098
-0.228021
-0.205543
-0.184696
-0.165533
-0.147868
-0.132134
-0.116613
-0.106614
-0.630492
-0.549991
-0.527785
-0.483173
-0.453584
-0.419277
-0.388705
-0.357799
-0.328346
-0.299783
-0.272572
-0.246773
-0.222558
-0.200005
-0.179142
-0.160007
-0.142425
-0.126752
-0.111473
-0.101241
-0.626998
-0.546685
-0.524539
-0.479896
-0.450111
-0.41552
-0.384593
-0.353317
-0.323507
-0.29463
-0.267165
-0.241181
-0.21685
-0.194245
-0.17339
-0.154303
-0.136821
-0.121227
-0.106196
-0.0957624
-0.622941
-0.542926
-0.520857
-0.47622
-0.446248
-0.41139
-0.380118
-0.348485
-0.318334
-0.289163
-0.261466
-0.235321
-0.210899
-0.188267
-0.167442
-0.148424
-0.131059
-0.115562
-0.100785
-0.0901798
-0.618307
-0.5387
-0.516724
-0.472132
-0.441986
-0.406874
-0.37527
-0.343296
-0.312822
-0.283379
-0.255475
-0.229194
-0.204707
-0.182073
-0.161299
-0.142372
-0.125142
-0.10976
-0.0952436
-0.0844933
-0.613079
-0.533996
-0.512128
-0.46762
-0.437311
-0.401964
-0.370041
-0.337744
-0.306967
-0.277276
-0.249191
-0.222801
-0.198275
-0.175664
-0.154967
-0.136151
-0.119073
-0.103824
-0.0895742
-0.0787041
-0.607241
-0.528798
-0.507054
-0.462672
-0.432212
-0.396649
-0.364422
-0.331823
-0.300767
-0.270853
-0.242614
-0.216144
-0.191607
-0.169045
-0.148447
-0.129764
-0.112856
-0.0977561
-0.0837805
-0.0728134
-0.60078
-0.523098
-0.501493
-0.457277
-0.42668
-0.390922
-0.358409
-0.325528
-0.294217
-0.264109
-0.235745
-0.209224
-0.184705
-0.162219
-0.141744
-0.123215
-0.106494
-0.0915598
-0.077866
-0.0668231
-0.593698
-0.516895
-0.495441
-0.45143
-0.420709
-0.384776
-0.351995
-0.318858
-0.287318
-0.257044
-0.228586
-0.202045
-0.177572
-0.155189
-0.134861
-0.116507
-0.0999895
-0.0852382
-0.0718344
-0.0607352
-0.585983
-0.510183
-0.488891
-0.445122
-0.414292
-0.378205
-0.345177
-0.311808
-0.280067
-0.249659
-0.221138
-0.194608
-0.170212
-0.147958
-0.127801
-0.109643
-0.0933474
-0.0787948
-0.0656892
-0.0545521
-0.577487
-0.502855
-0.481762
-0.438298
-0.407386
-0.371181
-0.337935
-0.304367
-0.27246
-0.241952
-0.213404
-0.186918
-0.162628
-0.140531
-0.12057
-0.102629
-0.0865708
-0.0722324
-0.0594336
-0.0482758
-0.567899
-0.494691
-0.4739
-0.430845
-0.399916
-0.363652
-0.330237
-0.296517
-0.264487
-0.233921
-0.205383
-0.178976
-0.154825
-0.132913
-0.11317
-0.0954665
-0.0796633
-0.0655544
-0.0530708
-0.0419083
-0.558069
-0.486269
-0.465709
-0.423046
-0.392074
-0.355748
-0.322167
-0.288311
-0.25618
-0.225585
-0.197088
-0.170791
-0.146808
-0.125108
-0.105607
-0.0881614
-0.0726297
-0.0587657
-0.0466067
-0.0354553
-0.5477
-0.47737
-0.457031
-0.414786
-0.38378
-0.347412
-0.313689
-0.279728
-0.247529
-0.216939
-0.188518
-0.162366
-0.138581
-0.11712
-0.0978856
-0.0807179
-0.0654742
-0.0518699
-0.0400445
-0.028919
-0.536647
-0.46789
-0.447792
-0.406012
-0.374996
-0.338622
-0.304789
-0.270758
-0.238531
-0.207985
-0.179678
-0.153704
-0.130149
-0.108954
-0.09001
-0.0731405
-0.058201
-0.0448711
-0.0333885
-0.0223029
-0.524905
-0.457829
-0.437991
-0.396721
-0.365721
-0.329375
-0.295466
-0.261406
-0.229189
-0.198727
-0.170573
-0.144812
-0.121518
-0.100617
-0.0819856
-0.0654339
-0.0508145
-0.0377734
-0.0266427
-0.0156109
-0.512484
-0.447192
-0.427629
-0.386915
-0.355955
-0.319673
-0.285724
-0.251674
-0.219509
-0.189171
-0.161207
-0.135695
-0.112693
-0.0921131
-0.0738174
-0.0576029
-0.0433194
-0.0305809
-0.0198113
-0.00884677
-0.499382
-0.435977
-0.416704
-0.376592
-0.345697
-0.309517
-0.275565
-0.241566
-0.209494
-0.179323
-0.151587
-0.126359
-0.10368
-0.0834482
-0.0655107
-0.0496524
-0.0357202
-0.023298
-0.0128992
-0.00201308
-0.485595
-0.424181
-0.405213
-0.365747
-0.334946
-0.298907
-0.264991
-0.231086
-0.19915
-0.169187
-0.141719
-0.116811
-0.0944863
-0.074628
-0.0570711
-0.0415876
-0.0280215
-0.0159295
-0.00591371
0.00488925
-0.471122
-0.411802
-0.393154
-0.354381
-0.323703
-0.287845
-0.254005
-0.220239
-0.188483
-0.158771
-0.131611
-0.107057
-0.085117
-0.0656587
-0.048504
-0.0334136
-0.0202283
-0.00847966
0.00114092
0.0118501
-0.455963
-0.398839
-0.380526
-0.342494
-0.311969
-0.276334
-0.242612
-0.209031
-0.1775
-0.148082
-0.121268
-0.0971039
-0.0755792
-0.0565464
-0.0398152
-0.0251356
-0.0123455
-0.000953858
0.00827915
0.0188524
-0.440119
-0.385293
-0.367332
-0.330086
-0.299746
-0.264379
-0.230819
-0.197469
-0.166208
-0.137127
-0.1107
-0.0869598
-0.0658797
-0.0472975
-0.0310106
-0.0167591
-0.00437809
0.00664254
0.0154798
0.0259079
-0.423596
-0.371166
-0.353572
-0.317161
-0.287038
-0.251984
-0.21863
-0.185559
-0.154616
-0.125915
-0.0999137
-0.0766319
-0.0560258
-0.0379187
-0.0220962
-0.00828992
0.00366892
0.0143061
0.0227379
0.0330109
-0.406397
-0.35646
-0.339249
-0.303721
-0.273851
-0.239155
-0.206054
-0.173311
-0.142731
-0.114455
-0.0889177
-0.0661283
-0.0460246
-0.0284165
-0.0130784
0.000266579
0.01179
0.0220321
0.0300505
0.0401553
-0.38853
-0.341181
-0.324368
-0.289771
-0.260189
-0.225899
-0.193098
-0.160732
-0.130563
-0.102755
-0.0777206
-0.0554569
-0.0358839
-0.0187981
-0.00396332
0.00890451
0.0199797
0.0298152
0.0374132
0.0473363
-0.370001
-0.325333
-0.308935
-0.275318
-0.24606
-0.212225
-0.179772
-0.147833
-0.118121
-0.0908247
-0.0663316
-0.0446263
-0.0256113
-0.00907041
0.00524254
0.0176179
0.0282327
0.0376503
0.0448215
0.0545489
-0.350821
-0.308922
-0.292956
-0.260367
-0.231472
-0.198142
-0.166085
-0.134623
-0.105416
-0.0786743
-0.05476
-0.0336451
-0.0152148
0.000759307
0.0145326
0.0264008
0.0365434
0.0455324
0.0522705
0.0617882
-0.331
-0.291958
-0.27644
-0.244928
-0.216435
-0.183659
-0.152048
-0.121114
-0.0924589
-0.0663142
-0.0430155
-0.0225223
-0.00470242
0.0106836
0.0239
0.035247
0.0449062
0.0534561
0.0597557
0.0690492
-0.310552
-0.27445
-0.259396
-0.229011
-0.200958
-0.168788
-0.137674
-0.107318
-0.0792607
-0.0537549
-0.0311081
-0.0112669
0.00591738
0.020695
0.033338
0.0441503
0.0533154
0.0614161
0.0672722
0.0763269
-0.289489
-0.256407
-0.241835
-0.212624
-0.185053
-0.153541
-0.122973
-0.0932454
-0.0658332
-0.0410077
-0.019048
0.000111555
0.0166362
0.0307858
0.0428396
0.0531043
0.0617651
0.069407
0.0748152
0.083616
-0.267827
-0.237841
-0.223769
-0.195781
-0.168733
-0.13793
-0.107959
-0.0789105
-0.0521887
-0.0280839
-0.00684568
0.0116036
0.0274452
0.0409481
0.0523977
0.0621025
0.0702494
0.0774233
0.08238
0.0909115
-0.245584
-0.218767
-0.205211
-0.178494
-0.152011
-0.121969
-0.0926466
-0.0643261
-0.0383398
-0.0149953
0.00548799
0.0231996
0.0383358
0.0511739
0.062005
0.0711384
0.0787623
0.0854594
0.0899615
0.098208
-0.222777
-0.199198
-0.186176
-0.160778
-0.134902
-0.105673
-0.077049
-0.0495067
-0.0242997
-0.00175408
0.0179421
0.0348894
0.0492989
0.0614552
0.0716542
0.0802052
0.0872977
0.0935097
0.0975549
0.1055
-0.199425
-0.17915
-0.166679
-0.142648
-0.117421
-0.0890576
-0.0611819
-0.0344662
-0.0100818
0.0116275
0.0305053
0.0466629
0.0603254
0.0717837
0.0813378
0.0892962
0.0958494
0.101568
0.105155
0.112782
-0.175551
-0.15864
-0.146738
-0.12412
-0.0995853
-0.0721388
-0.0450613
-0.0192196
0.00429995
0.0251368
0.0431663
0.05851
0.0714061
0.0821512
0.0910484
0.0984045
0.104411
0.10963
0.112757
0.120049
-0.151175
-0.137687
-0.126371
-0.105211
-0.0814119
-0.0549339
-0.0287034
-0.00378244
0.0188314
0.0387609
0.0559134
0.0704201
0.0825315
0.092549
0.100778
0.107523
0.112977
0.117687
0.120356
0.127294
-0.126322
-0.116309
-0.105597
-0.0859413
-0.0629197
-0.0374606
-0.0121253
0.0118295
0.0334981
0.0524867
0.0687349
0.0823827
0.0936923
0.102969
0.110519
0.116645
0.12154
0.125736
0.127947
0.134511
-0.101017
-0.0945277
-0.0844368
-0.0663293
-0.0441279
-0.0197373
0.00465554
0.0276001
0.0482851
0.0663008
0.0816188
0.0943872
0.104879
0.113402
0.120264
0.125763
0.130093
0.133768
0.135525
0.141694
-0.0752845
-0.0723647
-0.0629121
-0.0463957
-0.0250566
-0.00178329
0.021621
0.0435125
0.0631774
0.0801897
0.0945531
0.106423
0.116081
0.12384
0.130005
0.13487
0.138631
0.141779
0.143086
0.148834
-0.0491499
-0.049845
-0.0410459
-0.0261621
-0.00572687
0.0163816
0.0387525
0.0595499
0.0781597
0.0941397
0.107525
0.118478
0.127291
0.134273
0.139733
0.143958
0.147146
0.149761
0.150623
0.155925
-0.0226416
-0.0269924
-0.018862
-0.00565095
0.0138395
0.0347368
0.0560311
0.075695
0.0932164
0.108137
0.120523
0.130543
0.138496
0.144693
0.149442
0.153021
0.155632
0.157708
0.158133
0.162957
0.00420325
-0.003825
0.0036148
0.0151143
0.0336201
0.0532615
0.0734374
0.0919302
0.108332
0.122167
0.133535
0.142606
0.149688
0.155092
0.159122
0.162051
0.164082
0.165614
0.165612
0.169919
0.031362
0.019625
0.0263587
0.0361096
0.0535917
0.0719342
0.0909516
0.108238
0.12349
0.136217
0.146547
0.154657
0.160858
0.16546
0.168766
0.171041
0.17249
0.173471
0.173056
0.176799
0.0588045
0.0433301
0.049343
0.0573097
0.0737305
0.0907327
0.108554
0.124599
0.138675
0.150271
0.159548
0.166683
0.171994
0.175789
0.178365
0.179982
0.180847
0.181272
0.180461
0.183581
0.0864984
0.0672629
0.07254
0.078689
0.0940121
0.109635
0.126223
0.140997
0.15387
0.164316
0.172524
0.178674
0.183087
0.186069
0.187912
0.188869
0.189149
0.189011
0.187825
0.190246
0.114413
0.0913948
0.0959216
0.100221
0.114412
0.128617
0.143939
0.157412
0.169059
0.178337
0.185464
0.190619
0.194128
0.196291
0.197399
0.197693
0.197386
0.196682
0.195146
0.196767
0.142518
0.115697
0.119459
0.12188
0.134904
0.147658
0.161681
0.173826
0.184226
0.19232
0.198354
0.202506
0.205106
0.206448
0.206817
0.206449
0.205553
0.204276
0.202421
0.203111
0.170777
0.140137
0.143122
0.143636
0.155462
0.166732
0.179427
0.19022
0.199354
0.206251
0.211182
0.214325
0.216011
0.21653
0.21616
0.215127
0.213643
0.21179
0.209659
0.209246
0.19913
0.164663
0.166867
0.165455
0.176057
0.185815
0.197156
0.206575
0.214427
0.220114
0.223935
0.226064
0.226834
0.226529
0.225419
0.223723
0.221648
0.219221
0.216889
0.215146
0.22754
0.189239
0.19066
0.187307
0.196661
0.204881
0.214846
0.222873
0.229428
0.233896
0.236601
0.237713
0.237566
0.236436
0.234586
0.232228
0.22956
0.226569
0.224106
0.220669
0.256227
0.21399
0.214565
0.209218
0.217277
0.223923
0.232482
0.239096
0.244342
0.247582
0.249166
0.24926
0.248195
0.246242
0.243655
0.240637
0.237373
0.233827
0.231111
0.225219
0.285683
0.239209
0.238741
0.23127
0.237941
0.242949
0.250059
0.255233
0.259152
0.261158
0.261617
0.260693
0.258713
0.255939
0.252618
0.248943
0.245088
0.240993
0.237735
0.227919
0.314302
0.26393
0.262595
0.253106
0.258441
0.261837
0.267509
0.271245
0.273839
0.274609
0.273945
0.272004
0.269111
0.265519
0.261467
0.257141
0.252702
0.24808
0.244561
0.233659
0.342587
0.288462
0.286302
0.274819
0.278819
0.280601
0.284827
0.287122
0.288388
0.287922
0.286136
0.283181
0.279378
0.274973
0.270196
0.265223
0.26021
0.255075
0.251295
0.240267
0.370754
0.312919
0.309918
0.296432
0.299079
0.299232
0.302001
0.302848
0.302783
0.301082
0.298178
0.294213
0.289506
0.284294
0.278796
0.273182
0.267602
0.261965
0.257814
0.246744
0.398757
0.337259
0.333403
0.317911
0.31919
0.317704
0.319008
0.318404
0.317008
0.314075
0.310058
0.305089
0.299485
0.293471
0.28726
0.281012
0.274872
0.268741
0.264162
0.252995
0.426537
0.361428
0.356714
0.339219
0.33912
0.335991
0.335827
0.333772
0.331048
0.326888
0.321764
0.3158
0.309306
0.302499
0.295581
0.288706
0.28201
0.275394
0.270361
0.259097
0.454052
0.38539
0.379816
0.360326
0.358844
0.354069
0.352435
0.348932
0.344886
0.339507
0.333284
0.326334
0.318959
0.311367
0.303752
0.296256
0.289009
0.281915
0.276413
0.265065
0.481267
0.409111
0.402677
0.381201
0.378333
0.371914
0.368813
0.363868
0.358507
0.351919
0.344608
0.336681
0.328436
0.320069
0.311765
0.303657
0.295865
0.288296
0.282315
0.270887
0.508146
0.432555
0.425262
0.401814
0.39756
0.389503
0.38494
0.378561
0.371895
0.364109
0.355723
0.346831
0.337728
0.328597
0.319613
0.310901
0.302571
0.294533
0.288067
0.276556
0.534652
0.455689
0.447539
0.422137
0.416499
0.406812
0.400795
0.392994
0.385036
0.376066
0.366617
0.356775
0.346826
0.336942
0.327289
0.317982
0.309122
0.30062
0.293669
0.282071
0.560747
0.478476
0.469475
0.442139
0.435123
0.423818
0.416358
0.407149
0.397915
0.387776
0.377281
0.366503
0.355721
0.345098
0.334787
0.324895
0.315513
0.306553
0.29912
0.28743
0.586392
0.500884
0.491036
0.46179
0.453405
0.440499
0.43161
0.421009
0.410516
0.399226
0.387702
0.376004
0.364406
0.353056
0.342101
0.331634
0.321738
0.312327
0.304419
0.292632
0.611552
0.522877
0.512192
0.481063
0.471321
0.456831
0.446531
0.434559
0.422826
0.410405
0.39787
0.385271
0.372871
0.360811
0.349223
0.338194
0.327793
0.31794
0.309563
0.297676
0.636189
0.544422
0.532909
0.499928
0.488845
0.472793
0.461102
0.447781
0.43483
0.4213
0.407775
0.394293
0.38111
0.368354
0.356148
0.344569
0.333674
0.323387
0.314551
0.30256
0.660267
0.565487
0.553157
0.518357
0.505951
0.488363
0.475305
0.460659
0.446515
0.431899
0.417406
0.403062
0.389114
0.375679
0.362871
0.350753
0.339377
0.328665
0.319382
0.307283
0.683749
0.586039
0.572906
0.536324
0.522617
0.503521
0.489121
0.473179
0.457867
0.442191
0.426754
0.411569
0.396876
0.38278
0.369384
0.356743
0.344897
0.33377
0.324051
0.311843
0.706601
0.606045
0.592124
0.553802
0.538817
0.518245
0.502532
0.485324
0.468874
0.452165
0.435808
0.419805
0.404388
0.38965
0.375683
0.362533
0.350231
0.3387
0.328559
0.316239
0.728787
0.625476
0.610783
0.570764
0.554529
0.532516
0.515522
0.497081
0.479523
0.461809
0.44456
0.427763
0.411643
0.396282
0.381762
0.368119
0.355373
0.34345
0.332901
0.320469
0.750273
0.644299
0.628853
0.587184
0.56973
0.546314
0.528074
0.508434
0.489801
0.471114
0.453
0.435435
0.418636
0.402672
0.387616
0.373496
0.360322
0.348019
0.337076
0.324531
0.771028
0.662487
0.646308
0.60304
0.584399
0.559621
0.540172
0.51937
0.499697
0.480068
0.461119
0.442813
0.425357
0.408812
0.39324
0.37866
0.365072
0.352403
0.341081
0.328424
0.791019
0.680009
0.66312
0.618305
0.598514
0.572419
0.551799
0.529877
0.509199
0.488663
0.46891
0.44989
0.431803
0.414698
0.398629
0.383606
0.369621
0.356599
0.344914
0.332145
0.810214
0.696839
0.679263
0.632958
0.612055
0.584689
0.562942
0.53994
0.518296
0.496889
0.476363
0.456658
0.437965
0.420324
0.403779
0.388331
0.373965
0.360604
0.348573
0.335693
0.828585
0.712949
0.694711
0.646976
0.625003
0.596416
0.573586
0.549547
0.526978
0.504736
0.483471
0.46311
0.443839
0.425685
0.408685
0.392831
0.378101
0.364416
0.352054
0.339067
0.846103
0.728314
0.709441
0.660337
0.637339
0.607582
0.583717
0.558688
0.535235
0.512196
0.490226
0.469242
0.449419
0.430776
0.413343
0.397103
0.382026
0.368033
0.355357
0.342264
0.86274
0.742909
0.72343
0.673023
0.649045
0.618174
0.593321
0.567351
0.543058
0.519262
0.496622
0.475045
0.454699
0.435593
0.417749
0.401141
0.385736
0.37145
0.358478
0.345283
0.87847
0.75671
0.736655
0.685012
0.660104
0.628176
0.602387
0.575525
0.550436
0.525924
0.502652
0.480515
0.459674
0.440131
0.421898
0.404945
0.389229
0.374667
0.361415
0.348122
0.893268
0.769696
0.749096
0.696287
0.6705
0.637575
0.610903
0.5832
0.557362
0.532177
0.508309
0.485645
0.46434
0.444385
0.425788
0.408509
0.392502
0.37768
0.364167
0.35078
0.907112
0.781845
0.760733
0.706831
0.680219
0.646358
0.618858
0.590366
0.563828
0.538012
0.513588
0.490431
0.468691
0.448353
0.429414
0.411832
0.395552
0.380487
0.366731
0.353255
0.919978
0.793138
0.771547
0.716628
0.689245
0.654512
0.626241
0.597016
0.569825
0.543423
0.518482
0.494868
0.472725
0.45203
0.432775
0.41491
0.398378
0.383087
0.369105
0.355546
0.931848
0.803555
0.781523
0.725661
0.697565
0.662027
0.633043
0.603141
0.575348
0.548405
0.522987
0.498952
0.476436
0.455412
0.435866
0.417741
0.400976
0.385478
0.371289
0.357651
0.942701
0.813081
0.790642
0.733919
0.705169
0.668891
0.639254
0.608733
0.580389
0.552952
0.527098
0.502677
0.479822
0.458498
0.438685
0.420323
0.403345
0.387657
0.373279
0.359569
0.952521
0.8217
0.798892
0.741387
0.712044
0.675097