# Forces      
# CofR        : (0.000000e+00 0.000000e+00 0.000000e+00)
# Time        forces(pressure viscous porous)	moments(pressure viscous porous)
0.0025        	((3.039383e+01 2.115453e-07 5.106557e-19) (1.167841e-01 1.608310e-10 -1.113742e-20) (0.000000e+00 0.000000e+00 0.000000e+00)) ((1.113329e-18 4.004738e-18 1.016850e-12) (-1.180534e-20 3.122139e-21 -1.343852e-12) (0.000000e+00 0.000000e+00 0.000000e+00))
0.005         	((8.685625e-01 -2.435097e-07 -2.632068e-21) (1.099437e-01 -1.033975e-10 1.448199e-22) (0.000000e+00 0.000000e+00 0.000000e+00)) ((3.173395e-20 1.145628e-19 -2.633831e-12) (-2.648341e-22 1.368609e-20 -1.208340e-11) (0.000000e+00 0.000000e+00 0.000000e+00))
0.0075        	((2.481987e-01 4.986017e-08 3.838862e-22) (1.072215e-01 -4.708835e-11 8.215504e-23) (0.000000e+00 0.000000e+00 0.000000e+00)) ((9.046991e-21 3.265682e-20 1.198880e-12) (-4.142250e-23 1.353499e-20 -2.063730e-11) (0.000000e+00 0.000000e+00 0.000000e+00))
0.01          	((1.554273e-01 -4.055969e-08 6.019893e-22) (1.051325e-01 -8.421532e-11 7.903716e-23) (0.000000e+00 0.000000e+00 0.000000e+00)) ((5.655493e-21 2.044506e-20 3.484474e-13) (-7.186088e-24 1.332250e-20 -2.079193e-11) (0.000000e+00 0.000000e+00 0.000000e+00))
0.0125        	((1.202503e-01 8.239360e-09 7.133885e-22) (1.033312e-01 -6.571531e-11 7.902120e-23) (0.000000e+00 0.000000e+00 0.000000e+00)) ((4.371971e-21 1.581124e-20 2.221325e-14) (4.640499e-24 1.312201e-20 -2.026330e-11) (0.000000e+00 0.000000e+00 0.000000e+00))
0.015         	((1.043149e-01 5.622071e-09 7.605596e-22) (1.017052e-01 -4.790662e-11 8.063758e-23) (0.000000e+00 0.000000e+00 0.000000e+00)) ((3.797791e-21 1.371007e-20 -2.324252e-14) (8.581614e-24 1.293366e-20 -1.944807e-11) (0.000000e+00 0.000000e+00 0.000000e+00))
0.0175        	((9.637679e-02 3.114960e-08 7.710560e-22) (1.002024e-01 -7.554795e-14 8.320195e-23) (0.000000e+00 0.000000e+00 0.000000e+00)) ((3.521684e-21 1.266182e-20 1.385581e-13) (9.130659e-24 1.275576e-20 -1.835254e-11) (0.000000e+00 0.000000e+00 0.000000e+00))
0.02          	((9.212194e-02 -7.441070e-09 7.585768e-22) (9.879335e-02 -7.665894e-12 8.637518e-23) (0.000000e+00 0.000000e+00 0.000000e+00)) ((3.386605e-21 1.209897e-20 -1.176528e-13) (8.188973e-24 1.258671e-20 -1.690490e-11) (0.000000e+00 0.000000e+00 0.000000e+00))
0.0225        	((8.965898e-02 -7.356612e-09 7.335075e-22) (9.745979e-02 -1.538620e-11 8.999569e-23) (0.000000e+00 0.000000e+00 0.000000e+00)) ((3.320784e-21 1.177261e-20 1.448397e-15) (6.616807e-24 1.242524e-20 -1.534592e-11) (0.000000e+00 0.000000e+00 0.000000e+00))
0.025         	((8.809611e-02 -4.976581e-09 7.003748e-22) (9.618910e-02 -1.786783e-11 9.400190e-23) (0.000000e+00 0.000000e+00 0.000000e+00)) ((3.284447e-21 1.156589e-20 -2.780363e-14) (4.849041e-24 1.227035e-20 -1.377230e-11) (0.000000e+00 0.000000e+00 0.000000e+00))
0.0275        	((8.698913e-02 -3.315343e-09 6.633145e-22) (9.497214e-02 -1.794344e-11 9.831979e-23) (0.000000e+00 0.000000e+00 0.000000e+00)) ((3.257628e-21 1.142070e-20 -3.824101e-14) (3.090083e-24 1.212120e-20 -1.207107e-11) (0.000000e+00 0.000000e+00 0.000000e+00))
0.03          	((8.610611e-02 -4.557572e-09 6.235872e-22) (9.380200e-02 -1.964972e-11 1.028866e-22) (0.000000e+00 0.000000e+00 0.000000e+00)) ((3.230475e-21 1.130654e-20 4.907404e-14) (1.440578e-24 1.197714e-20 -1.039237e-11) (0.000000e+00 0.000000e+00 0.000000e+00))
0.0325        	((8.532867e-02 -3.175551e-09 5.830685e-22) (9.267330e-02 -1.974107e-11 1.076239e-22) (0.000000e+00 0.000000e+00 0.000000e+00)) ((3.198642e-21 1.120751e-20 2.433258e-14) (-7.316804e-26 1.183767e-20 -8.656845e-12) (0.000000e+00 0.000000e+00 0.000000e+00))
0.035         	((8.459493e-02 -1.476534e-09 5.422786e-22) (9.158174e-02 -1.881217e-11 1.124731e-22) (0.000000e+00 0.000000e+00 0.000000e+00)) ((3.161638e-21 1.111472e-20 -8.621242e-15) (-1.455613e-24 1.170239e-20 -6.985520e-12) (0.000000e+00 0.000000e+00 0.000000e+00))
0.0375        	((8.387430e-02 -2.347730e-09 5.021197e-22) (9.052382e-02 -1.702839e-11 1.173883e-22) (0.000000e+00 0.000000e+00 0.000000e+00)) ((3.120962e-21 1.102337e-20 -1.228615e-14) (-2.703295e-24 1.157094e-20 -5.336153e-12) (0.000000e+00 0.000000e+00 0.000000e+00))
0.04          	((8.315481e-02 -1.545423e-09 4.624431e-22) (8.949661e-02 -1.552651e-11 1.223461e-22) (0.000000e+00 0.000000e+00 0.000000e+00)) ((3.077706e-21 1.093148e-20 3.101447e-14) (-3.781962e-24 1.144304e-20 -3.725671e-12) (0.000000e+00 0.000000e+00 0.000000e+00))
0.0425        	((8.243039e-02 -2.113204e-09 4.241039e-22) (8.849768e-02 -1.301518e-11 1.273209e-22) (0.000000e+00 0.000000e+00 0.000000e+00)) ((3.032782e-21 1.083775e-20 -1.048391e-14) (-4.689633e-24 1.131841e-20 -2.126613e-12) (0.000000e+00 0.000000e+00 0.000000e+00))
0.045         	((8.169635e-02 -8.133598e-10 3.859213e-22) (8.752499e-02 -1.204817e-11 1.323288e-22) (0.000000e+00 0.000000e+00 0.000000e+00)) ((2.986689e-21 1.074138e-20 6.793252e-15) (-5.448885e-24 1.119688e-20 -5.785680e-13) (0.000000e+00 0.000000e+00 0.000000e+00))
0.0475        	((8.095935e-02 -2.006466e-09 3.495475e-22) (8.657676e-02 -9.548296e-12 1.373490e-22) (0.000000e+00 0.000000e+00 0.000000e+00)) ((2.939407e-21 1.064349e-20 -1.385410e-14) (-6.090220e-24 1.107822e-20 8.944325e-13) (0.000000e+00 0.000000e+00 0.000000e+00))
0.05          	((8.022052e-02 -7.236842e-10 3.134610e-22) (8.565147e-02 -7.957034e-12 1.423981e-22) (0.000000e+00 0.000000e+00 0.000000e+00)) ((2.891285e-21 1.054440e-20 5.183072e-16) (-6.643977e-24 1.096229e-20 2.319581e-12) (0.000000e+00 0.000000e+00 0.000000e+00))
0.0525        	((7.948487e-02 -1.664732e-09 2.793669e-22) (8.474779e-02 -4.603598e-12 1.474519e-22) (0.000000e+00 0.000000e+00 0.000000e+00)) ((2.842813e-21 1.044502e-20 -2.273438e-14) (-7.152018e-24 1.084890e-20 3.686963e-12) (0.000000e+00 0.000000e+00 0.000000e+00))
0.055         	((7.875344e-02 -8.736997e-10 2.457154e-22) (8.386453e-02 -3.530978e-12 1.525218e-22) (0.000000e+00 0.000000e+00 0.000000e+00)) ((2.794586e-21 1.034563e-20 -2.871287e-14) (-7.644859e-24 1.073795e-20 5.029660e-12) (0.000000e+00 0.000000e+00 0.000000e+00))
0.0575        	((7.803070e-02 -1.050512e-09 2.134014e-22) (8.300065e-02 -1.004850e-12 1.575908e-22) (0.000000e+00 0.000000e+00 0.000000e+00)) ((2.747138e-21 1.024700e-20 -1.685765e-14) (-8.150924e-24 1.062929e-20 6.304591e-12) (0.000000e+00 0.000000e+00 0.000000e+00))
0.06          	((7.731997e-02 -9.159709e-10 1.821660e-22) (8.215522e-02 3.571731e-13 1.626507e-22) (0.000000e+00 0.000000e+00 0.000000e+00)) ((2.700786e-21 1.014978e-20 -1.071051e-14) (-8.682190e-24 1.052281e-20 7.518092e-12) (0.000000e+00 0.000000e+00 0.000000e+00))
0.0625        	((7.662051e-02 -6.893189e-10 1.526025e-22) (8.132741e-02 1.345275e-12 1.676920e-22) (0.000000e+00 0.000000e+00 0.000000e+00)) ((2.656568e-21 1.005384e-20 -3.534756e-15) (-9.263937e-24 1.041841e-20 8.661435e-12) (0.000000e+00 0.000000e+00 0.000000e+00))
0.065         	((7.593588e-02 -1.065561e-09 1.235320e-22) (8.051647e-02 3.885886e-12 1.727285e-22) (0.000000e+00 0.000000e+00 0.000000e+00)) ((2.614158e-21 9.959905e-21 -1.373355e-14) (-9.888950e-24 1.031601e-20 9.718040e-12) (0.000000e+00 0.000000e+00 0.000000e+00))
0.0675        	((7.526445e-02 -8.328871e-10 9.540780e-23) (7.972171e-02 6.381330e-12 1.777581e-22) (0.000000e+00 0.000000e+00 0.000000e+00)) ((2.574215e-21 9.867660e-21 2.801253e-14) (-1.056592e-23 1.021555e-20 1.075797e-11) (0.000000e+00 0.000000e+00 0.000000e+00))
0.07          	((7.461025e-02 -1.015643e-09 6.768342e-23) (7.894251e-02 8.621216e-12 1.827870e-22) (0.000000e+00 0.000000e+00 0.000000e+00)) ((2.536247e-21 9.777853e-21 -6.754674e-15) (-1.127410e-23 1.011692e-20 1.180115e-11) (0.000000e+00 0.000000e+00 0.000000e+00))
0.0725        	((7.396990e-02 -7.225490e-10 4.077314e-23) (7.817830e-02 1.006621e-11 1.878145e-22) (0.000000e+00 0.000000e+00 0.000000e+00)) ((2.500724e-21 9.689822e-21 7.447242e-16) (-1.201917e-23 1.002010e-20 1.279531e-11) (0.000000e+00 0.000000e+00 0.000000e+00))
0.075         	((7.335362e-02 -1.042780e-09 1.515769e-23) (7.742851e-02 1.199086e-11 1.928279e-22) (0.000000e+00 0.000000e+00 0.000000e+00)) ((2.465869e-21 9.605271e-21 -5.499439e-15) (-1.277232e-23 9.924991e-21 1.374302e-11) (0.000000e+00 0.000000e+00 0.000000e+00))
0.0775        	((7.275002e-02 -7.128342e-10 -1.012689e-23) (7.669268e-02 1.354920e-11 1.978405e-22) (0.000000e+00 0.000000e+00 0.000000e+00)) ((2.433611e-21 9.522280e-21 -1.747298e-15) (-1.354676e-23 9.831564e-21 1.465074e-11) (0.000000e+00 0.000000e+00 0.000000e+00))
0.08          	((7.216225e-02 -8.602057e-10 -3.474292e-23) (7.597034e-02 1.536316e-11 2.028531e-22) (0.000000e+00 0.000000e+00 0.000000e+00)) ((2.403248e-21 9.441396e-21 -8.529975e-15) (-1.432491e-23 9.739751e-21 1.551934e-11) (0.000000e+00 0.000000e+00 0.000000e+00))
0.0825        	((7.158904e-02 -4.252059e-10 -5.950472e-23) (7.526109e-02 1.673713e-11 2.078819e-22) (0.000000e+00 0.000000e+00 0.000000e+00)) ((2.374539e-21 9.362394e-21 -2.203548e-16) (-1.509966e-23 9.649532e-21 1.635415e-11) (0.000000e+00 0.000000e+00 0.000000e+00))
0.085         	((7.103341e-02 -8.830540e-10 -8.273424e-23) (7.456452e-02 1.806928e-11 2.129082e-22) (0.000000e+00 0.000000e+00 0.000000e+00)) ((2.347109e-21 9.285788e-21 -4.943447e-15) (-1.586613e-23 9.560838e-21 1.713681e-11) (0.000000e+00 0.000000e+00 0.000000e+00))
0.0875        	((7.049240e-02 -6.858188e-10 -1.056049e-22) (7.388027e-02 1.926496e-11 2.179456e-22) (0.000000e+00 0.000000e+00 0.000000e+00)) ((2.320922e-21 9.211072e-21 -4.507709e-15) (-1.662259e-23 9.473635e-21 1.787994e-11) (0.000000e+00 0.000000e+00 0.000000e+00))
0.09          	((6.997030e-02 -7.116536e-10 -1.276578e-22) (7.320798e-02 2.021701e-11 2.229849e-22) (0.000000e+00 0.000000e+00 0.000000e+00)) ((2.295501e-21 9.139019e-21 -6.126787e-15) (-1.734846e-23 9.387868e-21 1.858875e-11) (0.000000e+00 0.000000e+00 0.000000e+00))
0.0925        	((6.945920e-02 -6.425239e-10 -1.495614e-22) (7.254733e-02 2.143117e-11 2.280382e-22) (0.000000e+00 0.000000e+00 0.000000e+00)) ((2.271353e-21 9.068242e-21 -6.742449e-15) (-1.806501e-23 9.303515e-21 1.925775e-11) (0.000000e+00 0.000000e+00 0.000000e+00))
0.095         	((6.896455e-02 -6.684024e-10 -1.708282e-22) (7.189799e-02 2.252716e-11 2.331012e-22) (0.000000e+00 0.000000e+00 0.000000e+00)) ((2.247889e-21 8.999760e-21 -4.478146e-14) (-1.875723e-23 9.220537e-21 1.989147e-11) (0.000000e+00 0.000000e+00 0.000000e+00))
0.0975        	((6.848118e-02 -6.813543e-10 -1.918808e-22) (7.125971e-02 2.392902e-11 2.381813e-22) (0.000000e+00 0.000000e+00 0.000000e+00)) ((2.225400e-21 8.932645e-21 -8.148182e-15) (-1.943890e-23 9.138907e-21 2.049651e-11) (0.000000e+00 0.000000e+00 0.000000e+00))
0.1           	((6.801384e-02 -7.688392e-10 -2.122834e-22) (7.063217e-02 2.479807e-11 2.432716e-22) (0.000000e+00 0.000000e+00 0.000000e+00)) ((2.203395e-21 8.867803e-21 -1.480121e-14) (-2.009410e-23 9.058586e-21 2.106906e-11) (0.000000e+00 0.000000e+00 0.000000e+00))
0.1025        	((6.755707e-02 -6.818350e-10 -2.324669e-22) (7.001513e-02 2.592363e-11 2.483786e-22) (0.000000e+00 0.000000e+00 0.000000e+00)) ((2.182221e-21 8.804275e-21 -4.851923e-15) (-2.073620e-23 8.979550e-21 2.161202e-11) (0.000000e+00 0.000000e+00 0.000000e+00))
0.105         	((6.711483e-02 -7.540494e-10 -2.520633e-22) (6.940831e-02 2.663166e-11 2.534964e-22) (0.000000e+00 0.000000e+00 0.000000e+00)) ((2.161504e-21 8.742814e-21 -1.390063e-14) (-2.135267e-23 8.901764e-21 2.212601e-11) (0.000000e+00 0.000000e+00 0.000000e+00))
0.1075        	((6.668396e-02 -6.863374e-10 -2.713630e-22) (6.881149e-02 2.738443e-11 2.586264e-22) (0.000000e+00 0.000000e+00 0.000000e+00)) ((2.141258e-21 8.682807e-21 -5.722696e-15) (-2.195542e-23 8.825205e-21 2.261264e-11) (0.000000e+00 0.000000e+00 0.000000e+00))
0.11          	((6.627307e-02 -7.964849e-10 -2.901952e-22) (6.822438e-02 2.791684e-11 2.637521e-22) (0.000000e+00 0.000000e+00 0.000000e+00)) ((2.119628e-21 8.625503e-21 -1.317659e-14) (-2.256608e-23 8.749853e-21 2.307288e-11) (0.000000e+00 0.000000e+00 0.000000e+00))
0.1125        	((6.586831e-02 -6.186207e-10 -3.088791e-22) (6.764678e-02 2.860603e-11 2.688796e-22) (0.000000e+00 0.000000e+00 0.000000e+00)) ((2.099961e-21 8.569028e-21 -1.046874e-14) (-2.318149e-23 8.675669e-21 2.350992e-11) (0.000000e+00 0.000000e+00 0.000000e+00))
0.115         	((6.547366e-02 -6.549931e-10 -3.274228e-22) (6.707848e-02 2.922155e-11 2.740149e-22) (0.000000e+00 0.000000e+00 0.000000e+00)) ((2.080893e-21 8.513952e-21 -9.253115e-15) (-2.378568e-23 8.602629e-21 2.392460e-11) (0.000000e+00 0.000000e+00 0.000000e+00))
0.1175        	((6.509330e-02 -6.888203e-10 -3.453868e-22) (6.651925e-02 2.963868e-11 2.791456e-22) (0.000000e+00 0.000000e+00 0.000000e+00)) ((2.061200e-21 8.460959e-21 -8.644249e-15) (-2.436823e-23 8.530720e-21 2.431480e-11) (0.000000e+00 0.000000e+00 0.000000e+00))
0.12          	((6.471740e-02 -6.027656e-10 -3.632514e-22) (6.596893e-02 3.042140e-11 2.842803e-22) (0.000000e+00 0.000000e+00 0.000000e+00)) ((2.043308e-21 8.408437e-21 -6.750287e-15) (-2.494636e-23 8.459910e-21 2.468287e-11) (0.000000e+00 0.000000e+00 0.000000e+00))
0.1225        	((6.435581e-02 -7.654326e-10 -3.804330e-22) (6.542729e-02 3.082232e-11 2.894120e-22) (0.000000e+00 0.000000e+00 0.000000e+00)) ((2.024822e-21 8.358004e-21 -1.312420e-14) (-2.550655e-23 8.390180e-21 2.503023e-11) (0.000000e+00 0.000000e+00 0.000000e+00))
0.125         	((6.399885e-02 -6.127645e-10 -3.976220e-22) (6.489420e-02 3.137225e-11 2.945491e-22) (0.000000e+00 0.000000e+00 0.000000e+00)) ((2.007807e-21 8.308115e-21 -4.232909e-15) (-2.606074e-23 8.321502e-21 2.536130e-11) (0.000000e+00 0.000000e+00 0.000000e+00))
0.1275        	((6.365358e-02 -6.203823e-10 -4.147336e-22) (6.436943e-02 3.191977e-11 2.996896e-22) (0.000000e+00 0.000000e+00 0.000000e+00)) ((1.990036e-21 8.259972e-21 -1.126209e-14) (-2.658871e-23 8.253876e-21 2.567231e-11) (0.000000e+00 0.000000e+00 0.000000e+00))
0.13          	((6.331562e-02 -7.076398e-10 -4.313041e-22) (6.385284e-02 3.238481e-11 3.048274e-22) (0.000000e+00 0.000000e+00 0.000000e+00)) ((1.973443e-21 8.212787e-21 -8.889146e-15) (-2.711147e-23 8.187261e-21 2.596676e-11) (0.000000e+00 0.000000e+00 0.000000e+00))
0.1325        	((6.298927e-02 -7.350934e-10 -4.472882e-22) (6.334425e-02 3.289635e-11 3.099589e-22) (0.000000e+00 0.000000e+00 0.000000e+00)) ((1.956609e-21 8.167299e-21 -1.557966e-14) (-2.761896e-23 8.121638e-21 2.624873e-11) (0.000000e+00 0.000000e+00 0.000000e+00))
0.135         	((6.266924e-02 -6.151482e-10 -4.631268e-22) (6.284350e-02 3.327741e-11 3.150881e-22) (0.000000e+00 0.000000e+00 0.000000e+00)) ((1.940564e-21 8.122674e-21 -7.451740e-15) (-2.811630e-23 8.056985e-21 2.651683e-11) (0.000000e+00 0.000000e+00 0.000000e+00))
0.1375        	((6.235801e-02 -6.944599e-10 -4.785925e-22) (6.235044e-02 3.375846e-11 3.202126e-22) (0.000000e+00 0.000000e+00 0.000000e+00)) ((1.924583e-21 8.079339e-21 -1.304759e-14) (-2.859733e-23 7.993286e-21 2.676923e-11) (0.000000e+00 0.000000e+00 0.000000e+00))
0.14          	((6.205412e-02 -5.745228e-10 -4.940617e-22) (6.186493e-02 3.395762e-11 3.253387e-22) (0.000000e+00 0.000000e+00 0.000000e+00)) ((1.909069e-21 8.037050e-21 -5.898664e-15) (-2.906322e-23 7.930523e-21 2.700730e-11) (0.000000e+00 0.000000e+00 0.000000e+00))
0.1425        	((6.176816e-02 -7.582546e-10 -5.091042e-22) (6.138674e-02 3.412922e-11 3.304254e-22) (0.000000e+00 0.000000e+00 0.000000e+00)) ((1.892960e-21 7.996874e-21 -1.645198e-14) (-2.954813e-23 7.868689e-21 2.723326e-11) (0.000000e+00 0.000000e+00 0.000000e+00))
0.145         	((6.149153e-02 -6.309722e-10 -5.234588e-22) (6.091571e-02 3.396422e-11 3.354694e-22) (0.000000e+00 0.000000e+00 0.000000e+00)) ((1.875985e-21 7.958178e-21 -1.113440e-14) (-3.007119e-23 7.807761e-21 2.744327e-11) (0.000000e+00 0.000000e+00 0.000000e+00))
0.1475        	((6.120786e-02 -6.017048e-10 -5.383360e-22) (6.045180e-02 3.394274e-11 3.405152e-22) (0.000000e+00 0.000000e+00 0.000000e+00)) ((1.862925e-21 7.918679e-21 -3.806699e-15) (-3.058175e-23 7.747702e-21 2.763975e-11) (0.000000e+00 0.000000e+00 0.000000e+00))
0.15          	((6.094111e-02 -6.618225e-10 -5.526185e-22) (5.999481e-02 3.465287e-11 3.455363e-22) (0.000000e+00 0.000000e+00 0.000000e+00)) ((1.846929e-21 7.881466e-21 -1.746147e-14) (-3.109459e-23 7.688523e-21 2.780924e-11) (0.000000e+00 0.000000e+00 0.000000e+00))
0.1525        	((6.067304e-02 -7.458601e-10 -5.661954e-22) (5.954468e-02 3.459726e-11 3.505436e-22) (0.000000e+00 0.000000e+00 0.000000e+00)) ((1.834491e-21 7.844207e-21 2.305580e-15) (-3.159517e-23 7.630182e-21 2.798442e-11) (0.000000e+00 0.000000e+00 0.000000e+00))
0.155         	((6.041853e-02 -5.410979e-10 -5.798687e-22) (5.910121e-02 3.482538e-11 3.555361e-22) (0.000000e+00 0.000000e+00 0.000000e+00)) ((1.819485e-21 7.808786e-21 -2.511477e-14) (-3.209024e-23 7.572687e-21 2.814618e-11) (0.000000e+00 0.000000e+00 0.000000e+00))
0.1575        	((6.016358e-02 -7.324516e-10 -5.937447e-22) (5.866434e-02 3.447387e-11 3.605230e-22) (0.000000e+00 0.000000e+00 0.000000e+00)) ((1.806649e-21 7.773405e-21 -4.243297e-15) (-3.257409e-23 7.516007e-21 2.830008e-11) (0.000000e+00 0.000000e+00 0.000000e+00))
0.16          	((5.992010e-02 -7.210517e-10 -6.070718e-22) (5.823390e-02 3.464010e-11 3.654879e-22) (0.000000e+00 0.000000e+00 0.000000e+00)) ((1.792720e-21 7.739598e-21 -1.839789e-14) (-3.305183e-23 7.460138e-21 2.843092e-11) (0.000000e+00 0.000000e+00 0.000000e+00))
0.1625        	((5.967869e-02 -7.052954e-10 -6.205314e-22) (5.780980e-02 3.484939e-11 3.704414e-22) (0.000000e+00 0.000000e+00 0.000000e+00)) ((1.779762e-21 7.706139e-21 -1.772951e-14) (-3.351808e-23 7.405062e-21 2.854840e-11) (0.000000e+00 0.000000e+00 0.000000e+00))
0.165         	((5.944379e-02 -6.783748e-10 -6.338488e-22) (5.739191e-02 3.515350e-11 3.753788e-22) (0.000000e+00 0.000000e+00 0.000000e+00)) ((1.766457e-21 7.673610e-21 -1.064099e-14) (-3.397203e-23 7.350769e-21 2.866789e-11) (0.000000e+00 0.000000e+00 0.000000e+00))
0.1675        	((5.921333e-02 -6.398618e-10 -6.470907e-22) (5.698012e-02 3.545181e-11 3.803012e-22) (0.000000e+00 0.000000e+00 0.000000e+00)) ((1.753443e-21 7.641741e-21 -1.015677e-14) (-3.441471e-23 7.297245e-21 2.878121e-11) (0.000000e+00 0.000000e+00 0.000000e+00))
0.17          	((5.899057e-02 -7.311117e-10 -6.597804e-22) (5.657432e-02 3.561033e-11 3.852023e-22) (0.000000e+00 0.000000e+00 0.000000e+00)) ((1.740536e-21 7.610970e-21 -1.493496e-14) (-3.485449e-23 7.244474e-21 2.888977e-11) (0.000000e+00 0.000000e+00 0.000000e+00))
0.1725        	((5.877889e-02 -7.321240e-10 -6.719557e-22) (5.617436e-02 3.554555e-11 3.900608e-22) (0.000000e+00 0.000000e+00 0.000000e+00)) ((1.727363e-21 7.581549e-21 -2.280307e-14) (-3.531025e-23 7.192444e-21 2.898889e-11) (0.000000e+00 0.000000e+00 0.000000e+00))
0.175         	((5.857102e-02 -6.231830e-10 -6.840152e-22) (5.578016e-02 3.564699e-11 3.948925e-22) (0.000000e+00 0.000000e+00 0.000000e+00)) ((1.716791e-21 7.552674e-21 -1.026111e-14) (-3.575813e-23 7.141142e-21 2.908193e-11) (0.000000e+00 0.000000e+00 0.000000e+00))
0.1775        	((5.837457e-02 -6.431061e-10 -6.961986e-22) (5.539157e-02 3.561397e-11 3.996849e-22) (0.000000e+00 0.000000e+00 0.000000e+00)) ((1.706464e-21 7.525113e-21 -1.684042e-14) (-3.620057e-23 7.090558e-21 2.916851e-11) (0.000000e+00 0.000000e+00 0.000000e+00))
0.18          	((5.817439e-02 -8.369496e-10 -7.082177e-22) (5.500854e-02 3.585356e-11 4.044541e-22) (0.000000e+00 0.000000e+00 0.000000e+00)) ((1.695726e-21 7.497457e-21 6.411875e-16) (-3.662986e-23 7.040665e-21 2.924964e-11) (0.000000e+00 0.000000e+00 0.000000e+00))
0.1825        	((5.798169e-02 -7.124713e-10 -7.199016e-22) (5.463096e-02 3.579772e-11 4.091903e-22) (0.000000e+00 0.000000e+00 0.000000e+00)) ((1.684667e-21 7.470758e-21 -5.624225e-15) (-3.705556e-23 6.991463e-21 2.933388e-11) (0.000000e+00 0.000000e+00 0.000000e+00))
0.185         	((5.779082e-02 -6.714842e-10 -7.315468e-22) (5.425876e-02 3.603530e-11 4.139071e-22) (0.000000e+00 0.000000e+00 0.000000e+00)) ((1.674030e-21 7.444458e-21 -1.700053e-14) (-3.747248e-23 6.942935e-21 2.941250e-11) (0.000000e+00 0.000000e+00 0.000000e+00))
0.1875        	((5.760633e-02 -7.065606e-10 -7.429640e-22) (5.389184e-02 3.607921e-11 4.185954e-22) (0.000000e+00 0.000000e+00 0.000000e+00)) ((1.663336e-21 7.418997e-21 -9.392303e-15) (-3.788317e-23 6.895075e-21 2.948649e-11) (0.000000e+00 0.000000e+00 0.000000e+00))
0.19          	((5.742540e-02 -6.890241e-10 -7.542697e-22) (5.353011e-02 3.623330e-11 4.232596e-22) (0.000000e+00 0.000000e+00 0.000000e+00)) ((1.652927e-21 7.394092e-21 -1.474737e-14) (-3.828654e-23 6.847868e-21 2.955651e-11) (0.000000e+00 0.000000e+00 0.000000e+00))
0.1925        	((5.724945e-02 -8.328116e-10 -7.654028e-22) (5.317347e-02 3.585698e-11 4.278965e-22) (0.000000e+00 0.000000e+00 0.000000e+00)) ((1.642609e-21 7.369877e-21 -1.197302e-14) (-3.868297e-23 6.801307e-21 2.962214e-11) (0.000000e+00 0.000000e+00 0.000000e+00))
0.195         	((5.707768e-02 -6.999248e-10 -7.763966e-22) (5.282184e-02 3.600652e-11 4.325068e-22) (0.000000e+00 0.000000e+00 0.000000e+00)) ((1.632478e-21 7.346268e-21 -1.211471e-14) (-3.907249e-23 6.755380e-21 2.967428e-11) (0.000000e+00 0.000000e+00 0.000000e+00))
0.1975        	((5.691023e-02 -7.015127e-10 -7.872377e-22) (5.247514e-02 3.614059e-11 4.370892e-22) (0.000000e+00 0.000000e+00 0.000000e+00)) ((1.622479e-21 7.323274e-21 -1.226942e-14) (-3.945512e-23 6.710075e-21 2.972361e-11) (0.000000e+00 0.000000e+00 0.000000e+00))
0.2           	((5.674687e-02 -7.125322e-10 -7.979412e-22) (5.213328e-02 3.627783e-11 4.416437e-22) (0.000000e+00 0.000000e+00 0.000000e+00)) ((1.612619e-21 7.300869e-21 -1.198067e-14) (-3.983101e-23 6.665385e-21 2.976974e-11) (0.000000e+00 0.000000e+00 0.000000e+00))
0.2025        	((5.659086e-02 -7.060124e-10 -8.083512e-22) (5.179616e-02 3.613066e-11 4.461611e-22) (0.000000e+00 0.000000e+00 0.000000e+00)) ((1.603714e-21 7.279357e-21 -1.529690e-14) (-4.019926e-23 6.621301e-21 2.981288e-11) (0.000000e+00 0.000000e+00 0.000000e+00))
0.205         	((5.644186e-02 -7.768977e-10 -8.184441e-22) (5.146370e-02 3.636575e-11 4.506359e-22) (0.000000e+00 0.000000e+00 0.000000e+00)) ((1.595574e-21 7.258722e-21 -1.289841e-14) (-4.056049e-23 6.577816e-21 2.985181e-11) (0.000000e+00 0.000000e+00 0.000000e+00))
0.2075        	((5.628199e-02 -5.694122e-10 -8.293898e-22) (5.113586e-02 3.651246e-11 4.551000e-22) (0.000000e+00 0.000000e+00 0.000000e+00)) ((1.584510e-21 7.237130e-21 -8.679592e-15) (-4.090075e-23 6.534895e-21 2.988736e-11) (0.000000e+00 0.000000e+00 0.000000e+00))
0.21          	((5.613718e-02 -9.804789e-10 -8.394576e-22) (5.081253e-02 3.671007e-11 4.595219e-22) (0.000000e+00 0.000000e+00 0.000000e+00)) ((1.575976e-21 7.217250e-21 -1.536678e-14) (-4.123920e-23 6.492559e-21 2.991969e-11) (0.000000e+00 0.000000e+00 0.000000e+00))
0.2125        	((5.600098e-02 -7.435218e-10 -8.492268e-22) (5.049360e-02 3.665149e-11 4.639138e-22) (0.000000e+00 0.000000e+00 0.000000e+00)) ((1.569403e-21 7.198065e-21 -1.553363e-14) (-4.159575e-23 6.450797e-21 2.995035e-11) (0.000000e+00 0.000000e+00 0.000000e+00))
0.215         	((5.586902e-02 -7.399389e-10 -8.588480e-22) (5.017900e-02 3.687959e-11 4.682638e-22) (0.000000e+00 0.000000e+00 0.000000e+00)) ((1.562834e-21 7.179638e-21 -1.422189e-14) (-4.194057e-23 6.409591e-21 2.997909e-11) (0.000000e+00 0.000000e+00 0.000000e+00))
0.2175        	((5.573426e-02 -7.178729e-10 -8.685329e-22) (4.986869e-02 3.738682e-11 4.725871e-22) (0.000000e+00 0.000000e+00 0.000000e+00)) ((1.554438e-21 7.161201e-21 -8.546870e-15) (-4.227822e-23 6.368923e-21 2.999692e-11) (0.000000e+00 0.000000e+00 0.000000e+00))
0.22          	((5.560528e-02 -1.065425e-09 -8.785357e-22) (4.956260e-02 3.790211e-11 4.768858e-22) (0.000000e+00 0.000000e+00 0.000000e+00)) ((1.547002e-21 7.143474e-21 -1.680379e-14) (-4.261055e-23 6.328795e-21 3.001126e-11) (0.000000e+00 0.000000e+00 0.000000e+00))
0.2225        	((5.547853e-02 -8.760360e-10 -8.883347e-22) (4.926067e-02 3.819834e-11 4.811510e-22) (0.000000e+00 0.000000e+00 0.000000e+00)) ((1.539268e-21 7.126144e-21 -1.653990e-14) (-4.293619e-23 6.289195e-21 3.003573e-11) (0.000000e+00 0.000000e+00 0.000000e+00))
0.225         	((5.535610e-02 -9.214475e-10 -8.977992e-22) (4.896283e-02 3.845496e-11 4.853790e-22) (0.000000e+00 0.000000e+00 0.000000e+00)) ((1.531930e-21 7.109398e-21 -1.288691e-14) (-4.325568e-23 6.250117e-21 3.005900e-11) (0.000000e+00 0.000000e+00 0.000000e+00))
0.2275        	((5.523677e-02 -9.484010e-10 -9.072706e-22) (4.866901e-02 3.848620e-11 4.895764e-22) (0.000000e+00 0.000000e+00 0.000000e+00)) ((1.524660e-21 7.093105e-21 -3.609430e-15) (-4.356808e-23 6.211552e-21 3.008147e-11) (0.000000e+00 0.000000e+00 0.000000e+00))
0.23          	((5.511984e-02 -7.560987e-10 -9.171437e-22) (4.837916e-02 3.909142e-11 4.937495e-22) (0.000000e+00 0.000000e+00 0.000000e+00)) ((1.517444e-21 7.077151e-21 -1.414500e-14) (-4.387225e-23 6.173493e-21 3.009898e-11) (0.000000e+00 0.000000e+00 0.000000e+00))
0.2325        	((5.500683e-02 -8.733789e-10 -9.268325e-22) (4.809320e-02 3.942070e-11 4.978885e-22) (0.000000e+00 0.000000e+00 0.000000e+00)) ((1.510409e-21 7.061743e-21 -1.415831e-14) (-4.416930e-23 6.135932e-21 3.011563e-11) (0.000000e+00 0.000000e+00 0.000000e+00))
0.235         	((5.489759e-02 -9.494688e-10 -9.360392e-22) (4.781108e-02 3.955700e-11 5.019875e-22) (0.000000e+00 0.000000e+00 0.000000e+00)) ((1.503589e-21 7.046869e-21 -1.215027e-14) (-4.445868e-23 6.098862e-21 3.013074e-11) (0.000000e+00 0.000000e+00 0.000000e+00))
0.2375        	((5.479219e-02 -8.458369e-10 -9.451713e-22) (4.753274e-02 3.969510e-11 5.060531e-22) (0.000000e+00 0.000000e+00 0.000000e+00)) ((1.497229e-21 7.032463e-21 -1.546229e-14) (-4.474184e-23 6.062277e-21 3.014600e-11) (0.000000e+00 0.000000e+00 0.000000e+00))
0.24          	((5.469760e-02 -9.902095e-10 -9.539728e-22) (4.725805e-02 3.987714e-11 5.100777e-22) (0.000000e+00 0.000000e+00 0.000000e+00)) ((1.493650e-21 7.018988e-21 -2.000800e-14) (-4.503322e-23 6.026181e-21 3.016029e-11) (0.000000e+00 0.000000e+00 0.000000e+00))
0.2425        	((5.458958e-02 -5.616420e-10 -9.632419e-22) (4.698707e-02 4.018777e-11 5.140773e-22) (0.000000e+00 0.000000e+00 0.000000e+00)) ((1.484458e-21 7.004910e-21 -1.058168e-14) (-4.528575e-23 5.990529e-21 3.017404e-11) (0.000000e+00 0.000000e+00 0.000000e+00))
0.245         	((5.449891e-02 -1.083871e-09 -9.719651e-22) (4.671964e-02 4.026442e-11 5.180341e-22) (0.000000e+00 0.000000e+00 0.000000e+00)) ((1.480662e-21 6.992089e-21 -1.856894e-14) (-4.555600e-23 5.955361e-21 3.018956e-11) (0.000000e+00 0.000000e+00 0.000000e+00))
0.2475        	((5.439693e-02 -5.828295e-10 -9.810966e-22) (4.645581e-02 4.049255e-11 5.219636e-22) (0.000000e+00 0.000000e+00 0.000000e+00)) ((1.472041e-21 6.978778e-21 -1.090760e-14) (-4.578802e-23 5.920627e-21 3.020227e-11) (0.000000e+00 0.000000e+00 0.000000e+00))
0.25          	((5.430615e-02 -1.026387e-09 -9.899519e-22) (4.619544e-02 4.038955e-11 5.258528e-22) (0.000000e+00 0.000000e+00 0.000000e+00)) ((1.466940e-21 6.966262e-21 -9.517148e-15) (-4.602058e-23 5.886352e-21 3.021617e-11) (0.000000e+00 0.000000e+00 0.000000e+00))
0.2525        	((5.421134e-02 -7.186536e-10 -9.989051e-22) (4.593853e-02 4.035847e-11 5.297105e-22) (0.000000e+00 0.000000e+00 0.000000e+00)) ((1.459327e-21 6.953748e-21 -1.447758e-14) (-4.622605e-23 5.852505e-21 3.022386e-11) (0.000000e+00 0.000000e+00 0.000000e+00))
0.255         	((5.414048e-02 -1.134803e-09 -1.006673e-21) (4.568493e-02 4.008870e-11 5.335354e-22) (0.000000e+00 0.000000e+00 0.000000e+00)) ((1.457391e-21 6.943127e-21 -2.359848e-14) (-4.650217e-23 5.819117e-21 3.022869e-11) (0.000000e+00 0.000000e+00 0.000000e+00))
0.2575        	((5.405832e-02 -5.647991e-10 -1.015143e-21) (4.543464e-02 4.018635e-11 5.373295e-22) (0.000000e+00 0.000000e+00 0.000000e+00)) ((1.452453e-21 6.931820e-21 -6.835971e-15) (-4.675372e-23 5.786146e-21 3.024114e-11) (0.000000e+00 0.000000e+00 0.000000e+00))
0.26          	((5.397776e-02 -7.968463e-10 -1.023523e-21) (4.518762e-02 4.017689e-11 5.410896e-22) (0.000000e+00 0.000000e+00 0.000000e+00)) ((1.447197e-21 6.920823e-21 -1.593442e-14) (-4.699585e-23 5.753594e-21 3.024679e-11) (0.000000e+00 0.000000e+00 0.000000e+00))
0.2625        	((5.389948e-02 -8.181121e-10 -1.031753e-21) (4.494382e-02 4.008988e-11 5.448137e-22) (0.000000e+00 0.000000e+00 0.000000e+00)) ((1.441843e-21 6.910166e-21 -1.487597e-14) (-4.722959e-23 5.721457e-21 3.025156e-11) (0.000000e+00 0.000000e+00 0.000000e+00))
0.265         	((5.382306e-02 -7.608902e-10 -1.039895e-21) (4.470319e-02 4.006407e-11 5.485027e-22) (0.000000e+00 0.000000e+00 0.000000e+00)) ((1.436504e-21 6.899770e-21 -1.433069e-14) (-4.745537e-23 5.689730e-21 3.025623e-11) (0.000000e+00 0.000000e+00 0.000000e+00))
0.2675        	((5.374862e-02 -9.075462e-10 -1.048388e-21) (4.446569e-02 4.008847e-11 5.521659e-22) (0.000000e+00 0.000000e+00 0.000000e+00)) ((1.431177e-21 6.889643e-21 -1.464325e-14) (-4.767336e-23 5.658405e-21 3.026065e-11) (0.000000e+00 0.000000e+00 0.000000e+00))
0.27          	((5.367636e-02 -8.051954e-10 -1.056471e-21) (4.423126e-02 4.005982e-11 5.557868e-22) (0.000000e+00 0.000000e+00 0.000000e+00)) ((1.425898e-21 6.879813e-21 -1.467286e-14) (-4.788387e-23 5.627477e-21 3.027250e-11) (0.000000e+00 0.000000e+00 0.000000e+00))
0.2725        	((5.360616e-02 -7.901087e-10 -1.064454e-21) (4.399985e-02 3.999524e-11 5.593721e-22) (0.000000e+00 0.000000e+00 0.000000e+00)) ((1.420663e-21 6.870261e-21 -1.486727e-14) (-4.808699e-23 5.596940e-21 3.028414e-11) (0.000000e+00 0.000000e+00 0.000000e+00))
0.275         	((5.353797e-02 -8.709839e-10 -1.072350e-21) (4.377143e-02 3.974595e-11 5.629220e-22) (0.000000e+00 0.000000e+00 0.000000e+00)) ((1.415474e-21 6.860978e-21 -7.630507e-15) (-4.828288e-23 5.566788e-21 3.029513e-11) (0.000000e+00 0.000000e+00 0.000000e+00))
0.2775        	((5.347178e-02 -8.396913e-10 -1.080162e-21) (4.354594e-02 3.934543e-11 5.664364e-22) (0.000000e+00 0.000000e+00 0.000000e+00)) ((1.410331e-21 6.851962e-21 -1.671291e-14) (-4.847168e-23 5.537016e-21 3.030429e-11) (0.000000e+00 0.000000e+00 0.000000e+00))