/*--------------------------------*- C++ -*----------------------------------*\
  =========                 |
  \\      /  F ield         | OpenFOAM: The Open Source CFD Toolbox
   \\    /   O peration     | Website:  https://openfoam.org
    \\  /    A nd           | Version:  7
     \\/     M anipulation  |
\*---------------------------------------------------------------------------*/
FoamFile
{
    version     2.0;
    format      ascii;
    class       volScalarField;
    location    "20";
    object      p;
}
// * * * * * * * * * * * * * * * * * * * * * * * * * * * * * * * * * * * * * //

dimensions      [0 2 -2 0 0 0 0];

internalField   nonuniform List<scalar> 
2625
(
-0.16261
-0.144814
-0.0959736
-0.0960231
-0.0957197
-0.0946551
-0.113837
-0.0919709
-0.115325
-0.0904356
-0.116703
-0.0896018
-0.117947
-0.0887951
-0.121804
-0.119073
-0.0878658
-0.121893
-0.120097
-0.0868546
-0.121898
-0.121022
-0.0857887
-0.121824
-0.121848
-0.0846775
-0.121677
-0.122575
-0.0835328
-0.121465
-0.123201
-0.0823719
-0.143673
-0.121194
-0.123723
-0.0812152
-0.143727
-0.120872
-0.124139
-0.0800837
-0.143696
-0.120507
-0.124447
-0.0789993
-0.143582
-0.120107
-0.124644
-0.0779836
-0.143392
-0.119681
-0.124728
-0.0770579
-0.14313
-0.119237
-0.124697
-0.076242
-0.142803
-0.118784
-0.124553
-0.0755541
-0.152857
-0.142416
-0.118329
-0.124296
-0.0750099
-0.152359
-0.141975
-0.117879
-0.123927
-0.074622
-0.151844
-0.141488
-0.117441
-0.123452
-0.0743996
-0.151317
-0.14096
-0.117022
-0.122874
-0.0743479
-0.150784
-0.140399
-0.116626
-0.122201
-0.0744682
-0.150252
-0.139811
-0.116257
-0.121442
-0.0747571
-0.149726
-0.139204
-0.115919
-0.120605
-0.0752073
-0.14921
-0.138586
-0.115614
-0.119702
-0.0758071
-0.14871
-0.137963
-0.115343
-0.118747
-0.0765412
-0.148229
-0.137342
-0.115105
-0.117753
-0.0773905
-0.14777
-0.136731
-0.114901
-0.116734
-0.0783334
-0.147338
-0.136137
-0.114729
-0.115708
-0.0793455
-0.146933
-0.135565
-0.114586
-0.114689
-0.080401
-0.14656
-0.135023
-0.114469
-0.113695
-0.081473
-0.164409
-0.146219
-0.134517
-0.114377
-0.112743
-0.0825343
-0.164023
-0.145912
-0.134052
-0.114305
-0.111848
-0.083558
-0.163679
-0.145641
-0.133633
-0.114251
-0.111027
-0.0845183
-0.163379
-0.145407
-0.133265
-0.114211
-0.110293
-0.085391
-0.163126
-0.145211
-0.132953
-0.114183
-0.10966
-0.0861542
-0.162921
-0.145053
-0.132698
-0.114163
-0.10914
-0.0867889
-0.162766
-0.144934
-0.132505
-0.11415
-0.10874
-0.0872793
-0.162662
-0.144854
-0.132375
-0.114143
-0.10847
-0.0876132
-0.16261
-0.144814
-0.132309
-0.114139
-0.108334
-0.0877822
-0.0938266
-0.0943195
-0.0917026
-0.0947784
-0.0920889
-0.0951894
-0.0916728
-0.0924754
-0.0955338
-0.0919505
-0.0928544
-0.0957873
-0.0922134
-0.0932182
-0.0959235
-0.0912107
-0.0924719
-0.0935675
-0.0959151
-0.0914845
-0.0927245
-0.0938739
-0.0956834
-0.0906471
-0.0917073
-0.0928916
-0.0939716
-0.0950257
-0.0908995
-0.0918585
-0.092883
-0.0937112
-0.0939865
-0.0633243
-0.0620185
-0.0607156
-0.0594168
-0.0581233
-0.056836
-0.0555561
-0.0542843
-0.0530215
-0.0517685
-0.0505258
-0.0492943
-0.0480743
-0.0468665
-0.0456713
-0.0444891
-0.0433202
-0.0926453
-0.0931384
-0.0929768
-0.092833
-0.092525
-0.092124
-0.0916321
-0.0910632
-0.0904241
-0.0897202
-0.0889557
-0.0881342
-0.087259
-0.0863334
-0.0853605
-0.0843438
-0.0832863
-0.0821916
-0.0810629
-0.0799034
-0.0787163
-0.0775048
-0.0762719
-0.0750204
-0.073753
-0.0724724
-0.0711809
-0.0698809
-0.0685745
-0.0672637
-0.0659503
-0.064636
-0.0633223
-0.0620108
-0.0607028
-0.0593993
-0.0581017
-0.0568109
-0.0555278
-0.0542534
-0.0529883
-0.0517334
-0.0504892
-0.0492564
-0.0480355
-0.046827
-0.0456314
-0.0444489
-0.04328
-0.0929728
-0.0936188
-0.0934403
-0.0932955
-0.0929679
-0.0925453
-0.0920303
-0.0914386
-0.0907771
-0.0900514
-0.0892655
-0.0884231
-0.0875273
-0.0865816
-0.0855891
-0.0845533
-0.0834773
-0.0823647
-0.0812188
-0.0800428
-0.07884
-0.0776136
-0.0763665
-0.0751017
-0.0738218
-0.0725296
-0.0712273
-0.0699173
-0.0686016
-0.0672823
-0.0659612
-0.0646398
-0.0633198
-0.0620026
-0.0606894
-0.0593814
-0.0580797
-0.0567854
-0.0554993
-0.0542222
-0.0529549
-0.0516981
-0.0504524
-0.0492184
-0.0479966
-0.0467874
-0.0455913
-0.0444086
-0.0432397
-0.0932959
-0.0941107
-0.0939145
-0.0937663
-0.0934163
-0.09297
-0.0924307
-0.0918154
-0.091131
-0.0903831
-0.0895756
-0.088712
-0.0877956
-0.0868296
-0.0858174
-0.0847623
-0.0836678
-0.0825372
-0.081374
-0.0801814
-0.0789629
-0.0777215
-0.0764603
-0.0751821
-0.0738898
-0.0725859
-0.0712728
-0.0699528
-0.068628
-0.0673003
-0.0659714
-0.0646431
-0.0633167
-0.0619938
-0.0606755
-0.059363
-0.0580574
-0.0567595
-0.0554704
-0.0541907
-0.0529212
-0.0516626
-0.0504154
-0.0491802
-0.0479574
-0.0467476
-0.0455511
-0.0443683
-0.0431993
-0.093619
-0.0946174
-0.0944017
-0.0942463
-0.0938704
-0.0933981
-0.092833
-0.0921933
-0.0914855
-0.0907151
-0.0898857
-0.0890008
-0.0880635
-0.0870772
-0.0860452
-0.0849708
-0.0838575
-0.0827089
-0.0815283
-0.0803192
-0.0790848
-0.0778285
-0.0765531
-0.0752616
-0.0739569
-0.0726414
-0.0713175
-0.0699876
-0.0686536
-0.0673174
-0.0659809
-0.0646456
-0.063313
-0.0619844
-0.0606611
-0.0593441
-0.0580345
-0.0567333
-0.0554411
-0.0541589
-0.0528872
-0.0516268
-0.0503781
-0.0491418
-0.0479182
-0.0467078
-0.0455109
-0.0443278
-0.0431589
-0.0939491
-0.0951431
-0.0949048
-0.0947362
-0.0943302
-0.0938292
-0.093237
-0.0925721
-0.0918405
-0.0910473
-0.0901959
-0.0892895
-0.0883312
-0.0873244
-0.0862724
-0.0851786
-0.0840465
-0.0828798
-0.0816818
-0.080456
-0.0792059
-0.0779345
-0.0766449
-0.0753402
-0.074023
-0.0726959
-0.0713613
-0.0700214
-0.0686783
-0.0673338
-0.0659897
-0.0646475
-0.0633087
-0.0619745
-0.0606462
-0.0593248
-0.0580113
-0.0567066
-0.0554115
-0.0541268
-0.052853
-0.0515908
-0.0503407
-0.0491032
-0.0478788
-0.0466678
-0.0454705
-0.0442873
-0.0431184
-0.094297
-0.0956937
-0.0954274
-0.0952368
-0.0947958
-0.0942633
-0.0936425
-0.0929517
-0.0921959
-0.0913797
-0.090506
-0.089578
-0.0885986
-0.0875712
-0.0864991
-0.0853858
-0.0842349
-0.0830499
-0.0818345
-0.080592
-0.079326
-0.0780396
-0.0767359
-0.0754179
-0.0740883
-0.0727496
-0.0714043
-0.0700546
-0.0687024
-0.0673496
-0.0659979
-0.0646488
-0.0633038
-0.0619641
-0.0606309
-0.0593051
-0.0579878
-0.0566797
-0.0553817
-0.0540945
-0.0528186
-0.0515547
-0.0503032
-0.0490646
-0.0478393
-0.0466277
-0.0454301
-0.0442468
-0.043078
-0.0946791
-0.0962767
-0.0959723
-0.095748
-0.0952664
-0.0946993
-0.0940487
-0.0933314
-0.0925512
-0.0917118
-0.0908158
-0.089866
-0.0888655
-0.0878173
-0.0867251
-0.0855922
-0.0844224
-0.0832192
-0.0819863
-0.0807272
-0.0794453
-0.0781439
-0.0768261
-0.0754948
-0.0741528
-0.0728026
-0.0714467
-0.0700871
-0.0687259
-0.0673649
-0.0660057
-0.0646498
-0.0632987
-0.0619535
-0.0606153
-0.0592852
-0.0579641
-0.0566527
-0.0553519
-0.0540622
-0.0527843
-0.0515186
-0.0502658
-0.0490261
-0.0478
-0.0465879
-0.04539
-0.0442065
-0.0430377
-0.0951167
-0.0968981
-0.0965392
-0.0962659
-0.0957378
-0.0951332
-0.0944518
-0.0937077
-0.092903
-0.0920405
-0.0911223
-0.0901508
-0.0891292
-0.0880605
-0.0869481
-0.0857958
-0.0846071
-0.0833858
-0.0821356
-0.0808599
-0.0795622
-0.0782459
-0.0769141
-0.0755697
-0.0742155
-0.0728539
-0.0714874
-0.0701182
-0.0687481
-0.0673789
-0.0660123
-0.0646498
-0.0632927
-0.0619421
-0.0605991
-0.0592648
-0.0579399
-0.0566253
-0.0553216
-0.0540296
-0.0527496
-0.0514823
-0.0502282
-0.0489875
-0.0477606
-0.046548
-0.0453497
-0.0441662
-0.0429975
-0.0956299
-0.0975682
-0.0971316
-0.0967893
-0.0962082
-0.0955633
-0.0948503
-0.0940791
-0.0932499
-0.0923642
-0.0914237
-0.0904305
-0.0893877
-0.0882983
-0.0871659
-0.085994
-0.0847865
-0.0835471
-0.0822794
-0.0809872
-0.0796738
-0.0783427
-0.076997
-0.0756395
-0.0742731
-0.0729003
-0.0715234
-0.0701446
-0.0687657
-0.0673885
-0.0660147
-0.0646457
-0.0632826
-0.0619268
-0.0605792
-0.0592407
-0.0579123
-0.0565946
-0.0552882
-0.0539939
-0.0527121
-0.0514433
-0.0501879
-0.0489463
-0.0477188
-0.0465057
-0.0453073
-0.0441237
-0.0429552
-0.0962528
-0.0983387
-0.0977931
-0.0973534
-0.0967103
-0.0960211
-0.0952743
-0.0944743
-0.0936189
-0.0927083
-0.0917437
-0.0907271
-0.0896614
-0.0885496
-0.0873954
-0.0862025
-0.0849746
-0.0837156
-0.0824293
-0.0811193
-0.0797891
-0.0784421
-0.0770815
-0.0757102
-0.0743308
-0.0729461
-0.0715582
-0.0701692
-0.0687811
-0.0673956
-0.0660142
-0.0646383
-0.0632691
-0.0619078
-0.0605554
-0.0592128
-0.0578806
-0.0565597
-0.0552507
-0.0539541
-0.0526705
-0.0514002
-0.0501436
-0.0489012
-0.0476731
-0.0464597
-0.0452612
-0.0440778
-0.0429096
-0.0971706
-0.0993144
-0.0985971
-0.0980205
-0.0973042
-0.0965661
-0.095783
-0.0949517
-0.0940675
-0.0931293
-0.0921378
-0.091095
-0.0900034
-0.0888664
-0.0876877
-0.0864709
-0.08522
-0.0839388
-0.0826313
-0.0813011
-0.0799518
-0.0785868
-0.0772092
-0.075822
-0.0744279
-0.0730294
-0.0716287
-0.0702281
-0.0688292
-0.0674339
-0.0660435
-0.0646595
-0.0632831
-0.0619152
-0.0605569
-0.0592089
-0.0578721
-0.0565471
-0.0552345
-0.0539348
-0.0526484
-0.0513758
-0.0501173
-0.0488733
-0.0476439
-0.0464295
-0.0452302
-0.0440462
-0.0428777
-0.0988688
-0.100288
-0.0992571
-0.0985314
-0.0977537
-0.0969773
-0.0961715
-0.0953223
-0.0944224
-0.0934696
-0.0924641
-0.0914073
-0.0903021
-0.0891516
-0.0879594
-0.0867293
-0.0854654
-0.0841715
-0.0828515
-0.0815092
-0.0801481
-0.0787717
-0.0773832
-0.0759856
-0.0745815
-0.0731735
-0.0717638
-0.0703545
-0.0689475
-0.0675445
-0.0661469
-0.064756
-0.063373
-0.061999
-0.0606349
-0.0592816
-0.0579397
-0.0566099
-0.0552927
-0.0539888
-0.0526984
-0.051422
-0.05016
-0.0489126
-0.0476801
-0.0464627
-0.0452607
-0.0440741
-0.042903
-0.102716
-0.100295
-0.0984513
-0.0975843
-0.0968109
-0.0960374
-0.0952652
-0.0944606
-0.093609
-0.092707
-0.0917532
-0.0907482
-0.0896939
-0.0885931
-0.0874488
-0.0862648
-0.0850447
-0.0837923
-0.0825113
-0.0812055
-0.0798785
-0.0785336
-0.0771741
-0.0758031
-0.0744233
-0.0730374
-0.0716478
-0.0702565
-0.0688657
-0.067477
-0.0660921
-0.0647125
-0.0633394
-0.0619739
-0.0606172
-0.0592702
-0.0579336
-0.0566082
-0.0552946
-0.0539935
-0.0527054
-0.0514306
-0.0501697
-0.048923
-0.0476907
-0.0464732
-0.0452707
-0.0440834
-0.0429115
-0.102456
-0.101435
-0.0998894
-0.0990808
-0.098341
-0.0975076
-0.0966334
-0.0957163
-0.094746
-0.0937229
-0.0926492
-0.0915272
-0.0903601
-0.0891514
-0.0879049
-0.0866247
-0.0853146
-0.0839786
-0.0826206
-0.0812443
-0.079853
-0.0784501
-0.0770386
-0.0756212
-0.0742004
-0.0727786
-0.0713579
-0.0699399
-0.0685265
-0.067119
-0.0657188
-0.0643269
-0.0629445
-0.0615724
-0.0602114
-0.0588621
-0.0575252
-0.0562012
-0.0548906
-0.0535937
-0.052311
-0.0510426
-0.049789
-0.0485503
-0.0473268
-0.0461185
-0.0449257
-0.0437485
-0.0425868
-0.102402
-0.10199
-0.10059
-0.0997678
-0.098999
-0.098105
-0.0971498
-0.0961472
-0.0950899
-0.0939796
-0.0928202
-0.0916152
-0.0903686
-0.0890843
-0.0877668
-0.0864203
-0.0850489
-0.0836568
-0.0822477
-0.0808253
-0.0793929
-0.0779536
-0.0765103
-0.0750655
-0.0736215
-0.0721804
-0.0707439
-0.0693136
-0.0678909
-0.0664771
-0.0650732
-0.0636802
-0.0622987
-0.0609295
-0.0595733
-0.0582304
-0.0569013
-0.0555864
-0.0542861
-0.0530005
-0.0517299
-0.0504745
-0.0492345
-0.04801
-0.046801
-0.0456078
-0.0444303
-0.0432685
-0.0421225
-0.102997
-0.10278
-0.101322
-0.100391
-0.0995345
-0.0985521
-0.0975045
-0.0964118
-0.0952676
-0.0940735
-0.092834
-0.0915532
-0.0902353
-0.0888847
-0.087506
-0.0861035
-0.0846813
-0.0832434
-0.0817936
-0.0803353
-0.0788715
-0.0774053
-0.0759391
-0.0744752
-0.0730157
-0.0715623
-0.0701165
-0.0686797
-0.0672532
-0.0658377
-0.0644343
-0.0630435
-0.0616661
-0.0603024
-0.0589531
-0.0576183
-0.0562984
-0.0549937
-0.0537044
-0.0524305
-0.0511723
-0.0499298
-0.0487032
-0.0474924
-0.0462976
-0.0451187
-0.0439557
-0.0428086
-0.103677
-0.103596
-0.102044
-0.101014
-0.100075
-0.0990067
-0.0978677
-0.0966839
-0.0954513
-0.0941717
-0.0928506
-0.0914928
-0.0901031
-0.088686
-0.0872463
-0.0857883
-0.0843161
-0.0828336
-0.0813444
-0.0798515
-0.078358
-0.0768663
-0.0753787
-0.0738973
-0.0724237
-0.0709595
-0.0695059
-0.0680639
-0.0666346
-0.0652185
-0.0638165
-0.0624289
-0.0610562
-0.0596987
-0.0583567
-0.0570305
-0.0557201
-0.0544257
-0.0531475
-0.0518854
-0.0506395
-0.0494098
-0.0481963
-0.046999
-0.0458179
-0.0446529
-0.043504
-0.042371
-0.104379
-0.104396
-0.102716
-0.10158
-0.100555
-0.0993969
-0.0981648
-0.0968897
-0.0955691
-0.0942055
-0.092805
-0.091373
-0.0899146
-0.0884345
-0.0869374
-0.0854277
-0.0839094
-0.082386
-0.080861
-0.0793373
-0.0778173
-0.0763034
-0.0747976
-0.0733016
-0.0718166
-0.070344
-0.0688848
-0.0674397
-0.0660094
-0.0645945
-0.0631954
-0.0618123
-0.0604456
-0.0590953
-0.0577618
-0.0564449
-0.0551448
-0.0538614
-0.0525948
-0.051345
-0.0501118
-0.0488952
-0.0476952
-0.0465117
-0.0453445
-0.0441935
-0.0430588
-0.0419401
-0.105091
-0.105184
-0.103347
-0.10209
-0.100972
-0.0997191
-0.0983906
-0.0970229
-0.0956146
-0.0941683
-0.0926907
-0.0911874
-0.0896637
-0.0881245
-0.0865742
-0.0850171
-0.0834569
-0.081897
-0.0803405
-0.0787898
-0.0772474
-0.075715
-0.0741944
-0.0726868
-0.0711935
-0.0697153
-0.0682529
-0.0668069
-0.0653778
-0.0639658
-0.0625712
-0.0611941
-0.0598346
-0.0584927
-0.0571685
-0.0558618
-0.0545726
-0.0533009
-0.0520465
-0.0508093
-0.0495892
-0.048386
-0.0471997
-0.04603
-0.0448768
-0.0437401
-0.0426195
-0.041515
-0.105783
-0.105939
-0.103927
-0.10254
-0.101324
-0.0999727
-0.0985464
-0.097086
-0.0955911
-0.0940642
-0.0925123
-0.0909412
-0.089356
-0.0877617
-0.0861624
-0.0845622
-0.0829645
-0.0813723
-0.0797883
-0.0782148
-0.0766535
-0.0751061
-0.0735739
-0.072058
-0.070559
-0.0690777
-0.0676144
-0.0661697
-0.0647435
-0.0633361
-0.0619475
-0.0605776
-0.0592265
-0.057894
-0.0565799
-0.0552842
-0.0540066
-0.052747
-0.0515052
-0.050281
-0.0490742
-0.0478846
-0.046712
-0.0455563
-0.0444172
-0.0432945
-0.0421881
-0.106433
-0.106641
-0.104444
-0.102921
-0.101603
-0.100152
-0.0986278
-0.0970757
-0.0954963
-0.0938919
-0.0922692
-0.0906343
-0.0889921
-0.0873471
-0.0857035
-0.0840648
-0.0824341
-0.0808141
-0.0792068
-0.0776143
-0.076038
-0.0744791
-0.0729386
-0.0714171
-0.0699152
-0.0684332
-0.0669713
-0.0655297
-0.0641082
-0.062707
-0.0613257
-0.0599644
-0.0586227
-0.0573004
-0.0559973
-0.0547131
-0.0534477
-0.0522006
-0.0509718
-0.0497608
-0.0485675
-0.0473916
-0.0462329
-0.0450912
-0.0439661
-0.0428575
-0.0417651
-0.107027
-0.107278
-0.104889
-0.103225
-0.101803
-0.100252
-0.098631
-0.0969893
-0.0953284
-0.0936501
-0.091961
-0.0902669
-0.0885725
-0.086882
-0.0851991
-0.0835268
-0.0818678
-0.0802243
-0.0785981
-0.0769906
-0.075403
-0.073836
-0.0722902
-0.0707661
-0.0692638
-0.0677835
-0.0663251
-0.0648884
-0.0634734
-0.0620797
-0.0607072
-0.0593554
-0.058024
-0.0567128
-0.0554213
-0.0541493
-0.0528964
-0.0516624
-0.0504467
-0.0492493
-0.0480697
-0.0469076
-0.0457628
-0.044635
-0.0435239
-0.0424293
-0.0413508
-0.10755
-0.107834
-0.105253
-0.103445
-0.101919
-0.100269
-0.0985527
-0.0968247
-0.0950864
-0.0933389
-0.0915883
-0.0898403
-0.0880991
-0.0863684
-0.0846513
-0.0829504
-0.081268
-0.0796056
-0.0779648
-0.0763463
-0.0747509
-0.0731792
-0.0716313
-0.0701073
-0.0686071
-0.0671307
-0.0656777
-0.0642478
-0.0628407
-0.0614559
-0.0600932
-0.0587519
-0.0574318
-0.0561323
-0.0548531
-0.0535938
-0.0523539
-0.0511331
-0.0499309
-0.0487471
-0.0475813
-0.0464331
-0.0453022
-0.0441883
-0.0430912
-0.0420103
-0.0409456
-0.107992
-0.108298
-0.105525
-0.103574
-0.101944
-0.100197
-0.0983904
-0.0965806
-0.0947699
-0.0929586
-0.0911523
-0.0893562
-0.087574
-0.0858087
-0.0840629
-0.0823387
-0.0806377
-0.0789612
-0.0773098
-0.0756843
-0.0740848
-0.0725115
-0.0709643
-0.0694431
-0.0679474
-0.0664769
-0.0650311
-0.0636096
-0.0622118
-0.0608372
-0.0594852
-0.0581554
-0.0568473
-0.0555602
-0.0542938
-0.0530475
-0.051821
-0.0506137
-0.0494252
-0.0482551
-0.0471031
-0.0459688
-0.0448518
-0.0437517
-0.0426683
-0.0416012
-0.10834
-0.108657
-0.105698
-0.103606
-0.101873
-0.100035
-0.0981421
-0.0962562
-0.0943792
-0.0925104
-0.0906549
-0.0888171
-0.087
-0.085206
-0.0834372
-0.081695
-0.0799804
-0.0782941
-0.0766365
-0.0750076
-0.0734074
-0.0718357
-0.070292
-0.068776
-0.0672869
-0.0658242
-0.0643874
-0.0629756
-0.0615884
-0.0602251
-0.0588849
-0.0575674
-0.0562718
-0.0549977
-0.0537445
-0.0525116
-0.0512986
-0.050105
-0.0489302
-0.047774
-0.0466358
-0.0455153
-0.0444121
-0.0433257
-0.0422559
-0.0412023
-0.108583
-0.108898
-0.105762
-0.103535
-0.101704
-0.0997785
-0.0978069
-0.0958518
-0.0939155
-0.0919965
-0.0900987
-0.0882259
-0.0863804
-0.084564
-0.0827779
-0.0810229
-0.0792996
-0.077608
-0.0759481
-0.0743196
-0.072722
-0.0711548
-0.0696172
-0.0681086
-0.0666281
-0.0651751
-0.0637486
-0.062348
-0.0609725
-0.0596213
-0.0582937
-0.0569891
-0.0557067
-0.0544459
-0.0532062
-0.051987
-0.0507878
-0.0496079
-0.048447
-0.0473045
-0.0461801
-0.0450733
-0.0439837
-0.0429109
-0.0418545
-0.0408142
-0.10871
-0.109011
-0.105712
-0.103357
-0.101433
-0.0994278
-0.0973851
-0.0953688
-0.0933812
-0.0914196
-0.0894871
-0.0875864
-0.0857193
-0.0838866
-0.082089
-0.0803266
-0.0785993
-0.0769068
-0.0752485
-0.0736238
-0.0720319
-0.0704718
-0.0689427
-0.0674436
-0.0659735
-0.0645317
-0.063117
-0.0617286
-0.0603658
-0.0590276
-0.0577132
-0.056422
-0.0551532
-0.0539062
-0.0526802
-0.0514748
-0.0502894
-0.0491234
-0.0479762
-0.0468475
-0.0457367
-0.0446435
-0.0435673
-0.0425078
-0.0414646
-0.0404373
-0.108714
-0.108988
-0.10554
-0.103068
-0.101059
-0.0989828
-0.0968782
-0.0948097
-0.0927795
-0.0907837
-0.0888243
-0.0869032
-0.0850212
-0.0831786
-0.081375
-0.0796103
-0.0778837
-0.0761944
-0.0745415
-0.0729238
-0.0713403
-0.0697899
-0.0682714
-0.0667837
-0.0653257
-0.0638963
-0.0624946
-0.0611195
-0.0597701
-0.0584455
-0.0571449
-0.0558676
-0.0546127
-0.0533796
-0.0521676
-0.0509761
-0.0498045
-0.0486522
-0.0475187
-0.0464036
-0.0453063
-0.0442264
-0.0431635
-0.042117
-0.0410867
-0.108587
-0.108821
-0.105243
-0.102668
-0.100583
-0.0984453
-0.0962889
-0.0941782
-0.0921147
-0.0900935
-0.0881153
-0.0861813
-0.0842913
-0.0824448
-0.080641
-0.0788789
-0.0771574
-0.0754752
-0.0738309
-0.0722232
-0.0706508
-0.0691123
-0.0676063
-0.0661316
-0.0646871
-0.0632714
-0.0618835
-0.0605225
-0.0591872
-0.0578768
-0.0565904
-0.0553272
-0.0540864
-0.0528674
-0.0516693
-0.0504917
-0.0493339
-0.0481953
-0.0470754
-0.0459737
-0.0448896
-0.0438228
-0.0427728
-0.0417391
-0.0407214
-0.108322
-0.108504
-0.10482
-0.102156
-0.100007
-0.0978187
-0.0956218
-0.0934794
-0.0913924
-0.0893547
-0.0873661
-0.0854266
-0.0835353
-0.0816909
-0.0798921
-0.0781373
-0.076425
-0.0747534
-0.0731209
-0.0715259
-0.0699668
-0.0684421
-0.0669503
-0.0654901
-0.0640601
-0.0626591
-0.061286
-0.0599396
-0.0586189
-0.0573231
-0.0560511
-0.0548023
-0.0535757
-0.0523707
-0.0511866
-0.0500228
-0.0488786
-0.0477535
-0.0466469
-0.0455583
-0.0444872
-0.0434332
-0.0423958
-0.0413746
-0.0403691
-0.107917
-0.108036
-0.104272
-0.101537
-0.0993342
-0.0971082
-0.0948827
-0.0927194
-0.0906189
-0.0885739
-0.0865829
-0.0846452
-0.0827591
-0.0809226
-0.0791337
-0.0773906
-0.0756911
-0.0740334
-0.0724155
-0.0708355
-0.0692918
-0.0677826
-0.0663064
-0.0648618
-0.0634473
-0.0620618
-0.0607039
-0.0593726
-0.0580669
-0.0567859
-0.0555285
-0.054294
-0.0530816
-0.0518907
-0.0507204
-0.0495702
-0.0484394
-0.0473275
-0.046234
-0.0451582
-0.0440998
-0.0430583
-0.0420331
-0.041024
-0.0400303
-0.107372
-0.107417
-0.1036
-0.100814
-0.0985719
-0.0963204
-0.0940786
-0.0919059
-0.0898019
-0.0877584
-0.085773
-0.083844
-0.0819691
-0.0801457
-0.0783715
-0.0766439
-0.0749607
-0.0733197
-0.0717187
-0.0701558
-0.0686291
-0.0671368
-0.0656774
-0.0642492
-0.062851
-0.0614814
-0.0601393
-0.0588234
-0.0575329
-0.0562666
-0.0550239
-0.0538037
-0.0526054
-0.0514283
-0.0502716
-0.0491348
-0.0480172
-0.0469182
-0.0458374
-0.0447741
-0.043728
-0.0426985
-0.0416852
-0.0406877
-0.0397055
-0.106687
-0.106652
-0.102812
-0.0999951
-0.0977276
-0.0954639
-0.0932183
-0.0910471
-0.0889494
-0.0869161
-0.0849438
-0.0830301
-0.0811721
-0.0793666
-0.077611
-0.0759024
-0.0742384
-0.0726166
-0.0710346
-0.0694904
-0.067982
-0.0665077
-0.0650659
-0.0636549
-0.0622734
-0.0609202
-0.0595939
-0.0582936
-0.0570182
-0.0557668
-0.0545385
-0.0533326
-0.0521482
-0.0509846
-0.0498412
-0.0487174
-0.0476126
-0.0465262
-0.0454577
-0.0444065
-0.0433723
-0.0423544
-0.0413525
-0.0403662
-0.10587
-0.105749
-0.101916
-0.0990894
-0.0968112
-0.0945486
-0.0923114
-0.0901526
-0.0880705
-0.0860555
-0.0841033
-0.0822108
-0.0803746
-0.0785913
-0.0768579
-0.0751713
-0.073529
-0.0719282
-0.0703668
-0.0688426
-0.0673537
-0.0658982
-0.0644745
-0.0630811
-0.0617166
-0.0603798
-0.0590696
-0.0577848
-0.0565245
-0.0552877
-0.0540737
-0.0528816
-0.0517108
-0.0505604
-0.04943
-0.0483189
-0.0472264
-0.0461522
-0.0450955
-0.044056
-0.0430331
-0.0420265
-0.0410355
-0.0400599
-0.104929
-0.104717
-0.100923
-0.0981082
-0.095834
-0.0935855
-0.0913685
-0.0892323
-0.0871746
-0.0851852
-0.0832593
-0.0813933
-0.0795833
-0.0778259
-0.0761177
-0.0744555
-0.0728367
-0.0712587
-0.0697191
-0.0682159
-0.066747
-0.0653108
-0.0639055
-0.0625299
-0.0611825
-0.0598622
-0.0585678
-0.0572983
-0.0560528
-0.0548304
-0.0536304
-0.0524518
-0.0512941
-0.0501566
-0.0490387
-0.0479398
-0.0468593
-0.0457966
-0.0447514
-0.043723
-0.0427111
-0.041715
-0.0407345
-0.0397691
-0.103875
-0.103572
-0.0998466
-0.0970648
-0.094809
-0.0925868
-0.090401
-0.0882969
-0.0862713
-0.0843142
-0.08242
-0.0805849
-0.0788049
-0.0770763
-0.0753956
-0.0737597
-0.072166
-0.0706118
-0.0690948
-0.0676131
-0.0661647
-0.0647479
-0.0633613
-0.0620034
-0.0606729
-0.0593688
-0.05809
-0.0568356
-0.0556045
-0.0543961
-0.0532095
-0.052044
-0.0508991
-0.0497739
-0.048668
-0.0475808
-0.0465116
-0.0454601
-0.0444257
-0.043408
-0.0424064
-0.0414205
-0.0404499
-0.0394942
-0.102725
-0.102331
-0.0987028
-0.0959738
-0.0937498
-0.0915655
-0.0894208
-0.087357
-0.0853705
-0.0834511
-0.0815932
-0.0797927
-0.0780455
-0.0763479
-0.0746965
-0.0730883
-0.0715206
-0.0699908
-0.068497
-0.067037
-0.0656091
-0.0642117
-0.0628435
-0.0615031
-0.0601893
-0.0589011
-0.0576375
-0.0563975
-0.0551805
-0.0539855
-0.0528119
-0.051659
-0.0505262
-0.0494128
-0.0483184
-0.0472423
-0.046184
-0.045143
-0.044119
-0.0431112
-0.0421195
-0.0411432
-0.0401819
-0.0392354
-0.101495
-0.101014
-0.097509
-0.094851
-0.0926711
-0.0905348
-0.0884399
-0.0864234
-0.0844816
-0.0826045
-0.0807864
-0.0790233
-0.0773111
-0.0756461
-0.0740251
-0.0724453
-0.0709041
-0.0693991
-0.0679283
-0.06649
-0.0650824
-0.0637042
-0.062354
-0.0610306
-0.059733
-0.0584602
-0.0572112
-0.0559852
-0.0547816
-0.0535995
-0.0524383
-0.0512973
-0.0501761
-0.0490739
-0.0479903
-0.0469247
-0.0458767
-0.0448457
-0.0438313
-0.0428331
-0.0418505
-0.0408832
-0.0399308
-0.0389928
-0.100206
-0.0996417
-0.0962839
-0.0937128
-0.0915878
-0.0895082
-0.0874702
-0.0855067
-0.083614
-0.0817825
-0.0800068
-0.0782829
-0.076607
-0.0749755
-0.0733856
-0.0718344
-0.0703196
-0.0688392
-0.0673913
-0.0659742
-0.0645866
-0.0632269
-0.0618942
-0.0605873
-0.0593052
-0.058047
-0.056812
-0.0555994
-0.0544085
-0.0532386
-0.0520891
-0.0509595
-0.0498491
-0.0487575
-0.0476841
-0.0466284
-0.04559
-0.0445684
-0.0435631
-0.0425737
-0.0415998
-0.0406409
-0.0396966
-0.0387666
-0.09888
-0.0982389
-0.0950471
-0.092576
-0.0905149
-0.0884989
-0.0865231
-0.0846169
-0.0827764
-0.0809928
-0.079261
-0.0775773
-0.0759382
-0.0743405
-0.0727814
-0.0712586
-0.06977
-0.0683137
-0.066888
-0.0654915
-0.064123
-0.0627813
-0.0614652
-0.060174
-0.0589067
-0.0576625
-0.0564407
-0.0552407
-0.0540618
-0.0529034
-0.0517649
-0.0506459
-0.0495457
-0.0484639
-0.0474
-0.0463536
-0.0453241
-0.0443112
-0.0433144
-0.0423332
-0.0413673
-0.0404162
-0.0394796
-0.0975397
-0.0968293
-0.0938183
-0.0914572
-0.089467
-0.0875196
-0.0856098
-0.0837633
-0.0819768
-0.0802422
-0.0785549
-0.0769115
-0.075309
-0.0737446
-0.0722159
-0.0707208
-0.0692575
-0.0678244
-0.0664201
-0.0650434
-0.0636931
-0.0623683
-0.0610681
-0.0597917
-0.0585382
-0.0573072
-0.0560978
-0.0549096
-0.0537418
-0.0525941
-0.0514659
-0.0503567
-0.049266
-0.0481933
-0.0471383
-0.0461004
-0.0450792
-0.0440743
-0.0430853
-0.0421117
-0.0411532
-0.0402093
-0.0392797
-0.0962091
-0.0954375
-0.092617
-0.0903728
-0.0884579
-0.0865821
-0.0847402
-0.0829547
-0.0812226
-0.0795369
-0.0778936
-0.0762899
-0.0747232
-0.0731911
-0.0716917
-0.0702232
-0.068784
-0.067373
-0.065989
-0.0646308
-0.0632978
-0.0619889
-0.0607035
-0.0594408
-0.0582004
-0.0569815
-0.0557836
-0.0546063
-0.0534489
-0.0523111
-0.0511923
-0.0500921
-0.0490101
-0.0479459
-0.0468989
-0.0458689
-0.0448553
-0.0438577
-0.0428758
-0.0419092
-0.0409574
-0.0400201
-0.0390969
-0.094912
-0.0940875
-0.091462
-0.0893379
-0.0875007
-0.0856976
-0.0839237
-0.0821987
-0.0805202
-0.0788823
-0.0772818
-0.0757163
-0.0741839
-0.0726827
-0.071211
-0.0697675
-0.0683512
-0.0669608
-0.0655957
-0.0642549
-0.0629377
-0.0616436
-0.0603718
-0.059122
-0.0578934
-0.0566857
-0.0554984
-0.054331
-0.0531831
-0.0520543
-0.0509441
-0.0498522
-0.0487782
-0.0477215
-0.046682
-0.045659
-0.0446523
-0.0436614
-0.042686
-0.0417257
-0.04078
-0.0398487
-0.0389313
-0.0936714
-0.0928023
-0.090371
-0.0883668
-0.0866073
-0.0848759
-0.0831685
-0.0815021
-0.0798752
-0.078283
-0.0767231
-0.0751939
-0.0736937
-0.0722213
-0.0707755
-0.0693553
-0.06796
-0.0665888
-0.065241
-0.0639161
-0.0626136
-0.0613329
-0.0600736
-0.0588353
-0.0576175
-0.0564199
-0.0552422
-0.0540838
-0.0529445
-0.0518238
-0.0507214
-0.049637
-0.04857
-0.0475203
-0.0464873
-0.0454707
-0.0444702
-0.0434853
-0.0425158
-0.0415611
-0.0406209
-0.0396949
-0.0387827
-0.0925094
-0.0916035
-0.0893603
-0.0874723
-0.0857882
-0.0841256
-0.0824815
-0.0808707
-0.0792923
-0.0777428
-0.0762208
-0.074725
-0.0732546
-0.0718086
-0.0703865
-0.0689877
-0.0676115
-0.0662576
-0.0649255
-0.0636149
-0.0623255
-0.0610569
-0.0598088
-0.0585808
-0.0573728
-0.0561843
-0.055015
-0.0538647
-0.052733
-0.0516196
-0.0505241
-0.0494462
-0.0483856
-0.047342
-0.0463149
-0.045304
-0.0443089
-0.0433294
-0.0423649
-0.0414152
-0.0404799
-0.0395586
-0.038651
-0.0914462
-0.0905108
-0.0884445
-0.0866659
-0.0850528
-0.0834545
-0.081869
-0.0803093
-0.0787754
-0.0772649
-0.0757772
-0.0743117
-0.0728681
-0.071446
-0.0700451
-0.0686652
-0.0673061
-0.0659675
-0.0646494
-0.0633516
-0.0620737
-0.0608158
-0.0595775
-0.0583587
-0.0571591
-0.0559786
-0.0548168
-0.0536735
-0.0525485
-0.0514414
-0.050352
-0.0492799
-0.0482249
-0.0471865
-0.0461645
-0.0451586
-0.0441683
-0.0431934
-0.0422334
-0.0412881
-0.040357
-0.0394398
-0.0385362
-0.0905001
-0.0895415
-0.0876363
-0.0859573
-0.0844088
-0.0828686
-0.0813358
-0.0798219
-0.0783275
-0.0768517
-0.0753944
-0.0739556
-0.0725355
-0.0711342
-0.0697518
-0.0683885
-0.0670442
-0.065719
-0.0644129
-0.063126
-0.0618582
-0.0606095
-0.0593797
-0.0581687
-0.0569765
-0.0558028
-0.0546474
-0.0535102
-0.0523909
-0.0512892
-0.0502049
-0.0491378
-0.0480875
-0.0470537
-0.0460361
-0.0450344
-0.0440482
-0.0430772
-0.0421211
-0.0411795
-0.040252
-0.0393383
-0.0384381
-0.0896872
-0.0887108
-0.0869467
-0.0853548
-0.0838628
-0.0823732
-0.080886
-0.0794115
-0.0779513
-0.0765051
-0.0750736
-0.0736576
-0.0722575
-0.0708739
-0.0695072
-0.0681577
-0.0668259
-0.065512
-0.0642161
-0.0629384
-0.061679
-0.0604379
-0.0592152
-0.0580108
-0.0568247
-0.0556566
-0.0545066
-0.0533744
-0.0522599
-0.0511627
-0.0500828
-0.0490198
-0.0479734
-0.0469434
-0.0459294
-0.0449312
-0.0439484
-0.0429807
-0.0420277
-0.0410892
-0.0401647
-0.039254
-0.0383565
-0.0890206
-0.0880312
-0.0863844
-0.084865
-0.0834201
-0.0819723
-0.0805228
-0.0790807
-0.0776483
-0.0762264
-0.0748161
-0.0734185
-0.0720346
-0.0706653
-0.0693113
-0.0679732
-0.0666514
-0.0653465
-0.0640588
-0.0627885
-0.0615358
-0.0603009
-0.0590839
-0.0578848
-0.0567035
-0.05554
-0.0543943
-0.0532661
-0.0521554
-0.0510618
-0.0499853
-0.0489256
-0.0478824
-0.0468554
-0.0458443
-0.0448489
-0.0438688
-0.0429037
-0.0419533
-0.0410172
-0.0400951
-0.0391866
-0.0382915
-0.0885114
-0.0875129
-0.0859567
-0.0844933
-0.0830847
-0.0816691
-0.0802484
-0.0788312
-0.0774201
-0.0760167
-0.0746224
-0.0732388
-0.0718673
-0.0705088
-0.0691644
-0.0678347
-0.0665206
-0.0652225
-0.0639409
-0.0626762
-0.0614286
-0.0601984
-0.0589856
-0.0577904
-0.0566128
-0.0554528
-0.0543102
-0.0531851
-0.0520772
-0.0509864
-0.0499124
-0.0488551
-0.0478142
-0.0467895
-0.0457806
-0.0447873
-0.0438092
-0.0428461
-0.0418976
-0.0409633
-0.040043
-0.0391363
-0.0382428
-0.0881673
-0.0871632
-0.0856688
-0.0842434
-0.0828595
-0.0814658
-0.0800647
-0.0786642
-0.0772675
-0.0758765
-0.0744931
-0.0731189
-0.0717557
-0.0704045
-0.0690664
-0.0677425
-0.0664335
-0.0651399
-0.0638624
-0.0626014
-0.0613572
-0.0601301
-0.0589202
-0.0577276
-0.0565524
-0.0553947
-0.0542543
-0.0531311
-0.0520251
-0.0509361
-0.0498639
-0.0488082
-0.0477689
-0.0467457
-0.0457382
-0.0447463
-0.0437696
-0.0428077
-0.0418605
-0.0409274
-0.0400083
-0.0391028
-0.0382104
-0.087994
-0.0869871
-0.0855239
-0.0841179
-0.0827465
-0.0813638
-0.0799725
-0.0785805
-0.0771911
-0.0758063
-0.0744283
-0.073059
-0.0716998
-0.0703523
-0.0690175
-0.0676964
-0.0663899
-0.0650987
-0.0638232
-0.0625641
-0.0613216
-0.060096
-0.0588875
-0.0576962
-0.0565223
-0.0553657
-0.0542263
-0.0531042
-0.0519991
-0.050911
-0.0498397
-0.0487848
-0.0477463
-0.0467238
-0.0457171
-0.0447258
-0.0437498
-0.0427886
-0.041842
-0.0409095
-0.039991
-0.039086
-0.0381942
)
;

boundaryField
{
    inlet
    {
        type            zeroGradient;
    }
    outlet
    {
        type            fixedValue;
        value           nonuniform 0();
    }
    cylinder
    {
        type            zeroGradient;
    }
    top
    {
        type            symmetryPlane;
    }
    bottom
    {
        type            symmetryPlane;
    }
    defaultFaces
    {
        type            empty;
    }
    procBoundary6to2
    {
        type            processor;
        value           nonuniform List<scalar> 
67
(
-0.0933105
-0.0933105
-0.0909433
-0.0913204
-0.0913204
-0.0910705
-0.091379
-0.091379
-0.0903276
-0.0906325
-0.0909254
-0.0909254
-0.0901404
-0.0904066
-0.0904066
-0.0895656
-0.0898997
-0.0633256
-0.0620257
-0.060728
-0.0594338
-0.0581444
-0.0568607
-0.0555839
-0.0543148
-0.0530544
-0.0518032
-0.0505622
-0.0493319
-0.0481129
-0.0469058
-0.0457111
-0.0445291
-0.0433603
-0.0923107
-0.0926673
-0.092522
-0.0923783
-0.0920876