/*--------------------------------*- C++ -*----------------------------------*\
  =========                 |
  \\      /  F ield         | OpenFOAM: The Open Source CFD Toolbox
   \\    /   O peration     | Website:  https://openfoam.org
    \\  /    A nd           | Version:  7
     \\/     M anipulation  |
\*---------------------------------------------------------------------------*/
FoamFile
{
    version     2.0;
    format      ascii;
    class       surfaceScalarField;
    location    "20";
    object      phi;
}
// * * * * * * * * * * * * * * * * * * * * * * * * * * * * * * * * * * * * * //

dimensions      [0 3 -1 0 0 0 0];

internalField   nonuniform List<scalar> 
5136
(
0.0011463
-9.58376e-11
-8.00533e-10
0.0260898
0.00577472
0.025607
0.00588939
0.0251012
0.00599983
0.0245722
0.00610457
0.00564998
0.0224282
0.0240556
0.00616655
0.00571792
0.0219178
0.0235278
0.00624569
0.00577738
0.0213884
0.0229841
0.00632112
0.00582769
0.0208404
0.022423
0.00638883
0.00530198
0.0184832
0.00586834
0.020274
0.0218439
0.00644738
0.00531444
0.0179155
0.00589875
0.0196897
0.0212468
0.00649585
0.00531657
0.0173333
0.00591833
0.0190879
0.0206318
0.00653331
0.00530795
0.0167377
0.00592652
0.0184694
0.0199994
0.00655897
0.00528822
0.0161298
0.00592277
0.0178348
0.0193501
0.00657205
0.0052571
0.0155109
0.00590659
0.0171853
0.0186848
0.00657188
0.00458608
0.0134179
0.0052144
0.0148826
0.00587756
0.0165222
0.0180046
0.00655781
0.00452397
0.0128175
0.00516004
0.0142465
0.00583537
0.0158469
0.0173106
0.00652929
0.00445207
0.012214
0.00509403
0.0136046
0.0057798
0.0151611
0.0166046
0.00648589
0.00437066
0.0116095
0.00501654
0.0129587
0.00571079
0.0144668
0.015888
0.0064273
0.00428012
0.0110059
0.00492783
0.012311
0.00562838
0.0137663
0.0151631
0.00635336
0.00418096
0.0104053
0.00482833
0.0116636
0.00553283
0.0130618
0.0144318
0.00626409
0.00407377
0.00980963
0.00471858
0.0110188
0.0054245
0.0123559
0.0136966
0.00615971
0.00337057
0.00812201
0.00395925
0.00922096
0.00459928
0.0103788
0.005304
0.0116512
0.01296
0.00604064
0.00325843
0.00760141
0.00383818
0.00864121
0.00447125
0.00974569
0.00517205
0.0109504
0.0122245
0.00590754
0.00314248
0.0070926
0.00371146
0.00807223
0.00433545
0.0091217
0.00502961
0.0102562
0.0114928
0.00576129
0.00302356
0.00659686
0.00358006
0.00751574
0.00419293
0.00850883
0.00487778
0.00957134
0.0107676
0.005603
0.00290256
0.00611534
0.00344501
0.00697329
0.0040449
0.00790895
0.00471785
0.00889839
0.0100514
0.00543403
0.0027804
0.005649
0.00330743
0.00644626
0.00389261
0.00732377
0.00455124
0.00823977
0.0093467
0.00525593
0.00265802
0.00519862
0.00316847
0.00593581
0.00373744
0.00675479
0.00437954
0.00759767
0.00865576
0.00507048
0.00253639
0.00476478
0.00302931
0.00544289
0.00358082
0.00620328
0.00420444
0.00697406
0.00798057
0.00487962
0.00241647
0.00434786
0.00289118
0.00496818
0.00342422
0.00567024
0.00402774
0.00637054
0.00732286
0.00468545
0.00229925
0.003948
0.00275531
0.00451211
0.00326915
0.00515641
0.00385131
0.00578838
0.00668399
0.00449018
0.00218566
0.00356516
0.00262293
0.00407485
0.00311714
0.00466219
0.00367707
0.00522845
0.00606496
0.00429611
0.00207666
0.00319905
0.00249524
0.00365627
0.00296972
0.00418771
0.00350697
0.0046912
0.00546634
0.00410558
0.00197314
0.00284919
0.00237342
0.003256
0.00282837
0.00373275
0.00334292
0.00417666
0.00488831
0.00392094
0.00187598
0.00251486
0.00225861
0.00287337
0.00269456
0.0032968
0.00318681
0.0036844
0.00433063
0.0037445
0.0014663
0.00190155
0.001786
0.00219516
0.0021519
0.00250747
0.00256968
0.00287902
0.00304048
0.00321361
0.00379261
0.00357849
0.00139778
0.00163628
0.00170395
0.00188899
0.00205428
0.00215713
0.00245504
0.00247826
0.00290563
0.00276302
0.0032732
0.00342503
0.00133663
0.0013817
0.00163054
0.00159509
0.0019667
0.00182096
0.00235187
0.00209309
0.00278386
0.00233103
0.00277097
0.0032861
0.00128331
0.00113652
0.00156639
0.00131201
0.00189
0.00149736
0.00226126
0.00172183
0.00267664
0.00191565
0.00228413
0.00316348
0.00123824
0.000899354
0.00151207
0.00103818
0.0018249
0.00118452
0.0021842
0.00136253
0.00258525
0.00151461
0.00181061
0.00305876
0.00120175
0.000668709
0.00146803
0.000771892
0.00177205
0.000880504
0.00212152
0.00101307
0.00251077
0.00112535
0.00134807
0.00297331
0.00117413
0.000443021
0.00143467
0.00051136
0.00173196
0.000583212
0.0020739
0.000671129
0.00245411
0.000745134
0.000893952
0.00290823
0.0011556
0.000220672
0.00141226
0.000254705
0.00170501
0.000290463
0.00204185
0.000334283
0.00241596
0.000371029
0.00044554
0.00286437
0.0011463
0.00140101
0.00169147
0.00202574
0.00239677
0.0028423
-0.00538722
0.00251875
-0.00546404
0.00248889
0.00238358
-0.00544078
-0.00553977
0.00245932
0.00235537
-0.00551441
-0.00561443
0.00243003
0.00225486
-0.00548117
0.00232743
-0.00558698
-0.005688
0.002401
0.00222825
-0.00555176
0.00229976
-0.00565849
-0.00576047
0.00237224
0.00220191
-0.00562134
0.00227235
-0.00572894
-0.00583183
0.00234371
0.00210726
-0.00557758
0.00217582
-0.00568989
0.0022452
-0.00579832
-0.00590201
0.00231538
0.00208245
-0.00564425
0.00214998
-0.00575743
0.00221828
-0.00586662
-0.00597095
0.00228721
0.00199217
-0.00559224
0.00205789
-0.00570996
0.00212439
-0.00582393
0.00219158
-0.00593381
-0.0060385
0.00225914
0.00196883
0.00203358
0.00209904
0.00216506
0.00223113
0.00247363
0.000177365
0.00246952
0.000180134
0.0024654
0.000182743
0.00246126
0.000185199
0.00245711
0.000187511
0.00245295
0.000189686
0.00244878
0.000191731
0.0024446
0.000193655
0.00244042
0.000195465
0.00243623
0.000197169
0.00243204
0.000198774
0.00242784
0.000200289
0.00242364
0.00020172
0.00241945
0.000203075
0.00241525
0.000204362
0.00241105
0.000205586
0.000206755
0.00254771
-7.44663e-06
0.00254609
8.16347e-07
0.00254414
9.18978e-06
0.00254193
1.75314e-05
0.00253955
2.56544e-05
0.00253705
3.3561e-05
0.00253445
4.12765e-05
0.00253174
4.88311e-05
0.00252895
5.62443e-05
0.00252606
6.35252e-05
0.00252309
7.06746e-05
0.00252002
7.76876e-05
0.00251687
8.45563e-05
0.00251364
9.12708e-05
0.00251032
9.78209e-05
0.00250693
0.000104196
0.00250346
0.000110388
0.00249993
0.000116386
0.00249633
0.000122185
0.00249267
0.000127779
0.00248896
0.000133162
0.0024852
0.000138332
0.00248139
0.000143287
0.00247753
0.000148027
0.00247364
0.000152552
0.00246972
0.000156865
0.00246576
0.000160969
0.00246177
0.000164867
0.00245775
0.000168565
0.00245372
0.000172066
0.00244966
0.000175379
0.00244558
0.000178508
0.00244148
0.000181461
0.00243737
0.000184245
0.00243325
0.000186867
0.00242911
0.000189335
0.00242497
0.000191657
0.00242081
0.00019384
0.00241665
0.000195893
0.00241248
0.000197822
0.00240831
0.000199637
0.00240413
0.000201345
0.00239995
0.000202953
0.00239577
0.00020447
0.00239159
0.000205902
0.00238741
0.000207256
0.00238323
0.000208542
0.00237905
0.000209764
0.000210931
0.00251745
-6.146e-06
0.00251567
2.59232e-06
0.00251354
1.13157e-05
0.00251119
1.9884e-05
0.00250869
2.81521e-05
0.00250609
3.61633e-05
0.0025034
4.39675e-05
0.00250063
5.16065e-05
0.00249777
5.91042e-05
0.00249482
6.64705e-05
0.00249179
7.37057e-05
0.00248867
8.08039e-05
0.00248547
8.77562e-05
0.00248219
9.45517e-05
0.00247883
0.00010118
0.0024754
0.000107629
0.0024719
0.00011389
0.00246833
0.000119955
0.0024647
0.000125815
0.00246101
0.000131465
0.00245728
0.0001369
0.00245349
0.000142119
0.00244966
0.000147118
0.00244579
0.000151898
0.00244188
0.00015646
0.00243794
0.000160806
0.00243397
0.00016494
0.00242997
0.000168865
0.00242595
0.000172587
0.0024219
0.00017611
0.00241784
0.000179442
0.00241376
0.000182588
0.00240966
0.000185556
0.00240556
0.000188353
0.00240143
0.000190987
0.0023973
0.000193465
0.00239317
0.000195796
0.00238902
0.000197986
0.00238487
0.000200045
0.00238071
0.00020198
0.00237655
0.000203798
0.00237238
0.000205508
0.00236822
0.000207118
0.00236405
0.000208635
0.00235989
0.000210066
0.00235573
0.00021142
0.00235156
0.000212703
0.00234741
0.000213922
0.000215085
0.00248745
-4.71205e-06
0.0024855
4.55121e-06
0.00248319
1.36199e-05
0.00248069
2.23837e-05
0.00247808
3.07659e-05
0.00247538
3.88582e-05
0.00247262
4.67351e-05
0.00246977
5.44482e-05
0.00246685
6.20235e-05
0.00246385
6.94705e-05
0.00246077
7.67878e-05
0.00245761
8.39681e-05
0.00245436
9.10011e-05
0.00245104
9.7875e-05
0.00244764
0.000104578
0.00244417
0.000111099
0.00244063
0.000117428
0.00243703
0.000123555
0.00243338
0.000129474
0.00242966
0.000135178
0.0024259
0.000140663
0.00242209
0.000145927
0.00241824
0.000150968
0.00241435
0.000155786
0.00241043
0.000160382
0.00240648
0.000164759
0.0024025
0.00016892
0.00239849
0.00017287
0.00239447
0.000176614
0.00239042
0.000180157
0.00238635
0.000183506
0.00238227
0.000186668
0.00237818
0.00018965
0.00237407
0.000192459
0.00236996
0.000195103
0.00236583
0.00019759
0.0023617
0.000199927
0.00235757
0.000202124
0.00235342
0.000204187
0.00234928
0.000206125
0.00234513
0.000207946
0.00234098
0.000209657
0.00233683
0.000211267
0.00233268
0.000212784
0.00232854
0.000214213
0.00232439
0.000215565
0.00232025
0.000216844
0.00231612
0.000218059
0.000219217
0.00245772
-3.11501e-06
0.00245555
6.71748e-06
0.00245306
1.61103e-05
0.00245042
2.50263e-05
0.0024477
3.34868e-05
0.00244492
4.16358e-05
0.00244209
4.95708e-05
0.00243919
5.73489e-05
0.00243621
6.49963e-05
0.00243316
7.252e-05
0.00243004
7.99165e-05
0.00242683
8.71764e-05
0.00242354
9.42877e-05
0.00242018
0.000101238
0.00241674
0.000108013
0.00241324
0.000114603
0.00240967
0.000120997
0.00240604
0.000127184
0.00240235
0.000133159
0.00239862
0.000138915
0.00239483
0.000144448
0.002391
0.000149755
0.00238714
0.000154835
0.00238324
0.000159688
0.0023793
0.000164316
0.00237534
0.000168722
0.00237135
0.000172909
0.00236734
0.000176881
0.00236331
0.000180645
0.00235926
0.000184206
0.00235519
0.000187571
0.00235112
0.000190747
0.00234703
0.00019374
0.00234293
0.000196559
0.00233882
0.000199212
0.0023347
0.000201705
0.00233058
0.000204049
0.00232645
0.00020625
0.00232232
0.000208316
0.00231819
0.000210257
0.00231406
0.000212079
0.00230993
0.00021379
0.00230579
0.0002154
0.00230166
0.000216914
0.00229754
0.000218341
0.00229341
0.000219689
0.00228929
0.000220964
0.00228518
0.000222174
0.000223326
0.00242823
-1.31604e-06
0.00242583
9.11644e-06
0.00242315
1.87903e-05
0.00242037
2.78024e-05
0.00241756
3.6302e-05
0.00241471
4.44847e-05
0.00241181
5.24648e-05
0.00240886
6.03011e-05
0.00240584
6.80164e-05
0.00240275
7.56142e-05
0.00239958
8.30876e-05
0.00239633
9.04249e-05
0.002393
9.76125e-05
0.0023896
0.000104636
0.00238614
0.000111483
0.0023826
0.000118139
0.002379
0.000124595
0.00237534
0.000130841
0.00237163
0.000136869
0.00236788
0.000142674
0.00236407
0.000148252
0.00236023
0.000153599
0.00235635
0.000158716
0.00235243
0.000163603
0.00234849
0.00016826
0.00234452
0.000172692
0.00234052
0.000176903
0.00233651
0.000180896
0.00233247
0.000184678
0.00232842
0.000188255
0.00232436
0.000191634
0.00232029
0.000194821
0.0023162
0.000197825
0.00231211
0.000200653
0.00230801
0.000203312
0.0023039
0.000205812
0.00229979
0.00020816
0.00229568
0.000210364
0.00229156
0.000212432
0.00228744
0.000214374
0.00228333
0.000216196
0.00227921
0.000217906
0.0022751
0.000219514
0.00227099
0.000221025
0.00226688
0.000222449
0.00226278
0.000223792
0.00225868
0.000225061
0.00225459
0.000226265
0.00022741
0.00239895
7.34644e-07
0.0023963
1.17717e-05
0.00239343
2.16556e-05
0.00239054
3.06964e-05
0.00238765
3.91954e-05
0.00238474
4.73914e-05
0.0023818
5.54072e-05
0.0023788
6.3297e-05
0.00237574
7.10779e-05
0.00237261
7.8748e-05
0.0023694
8.62969e-05
0.00236611
9.37102e-05
0.00236275
0.000100972
0.00235932
0.000108068
0.00235582
0.000114983
0.00235225
0.000121704
0.00234863
0.00012822
0.00234495
0.000134522
0.00234122
0.000140601
0.00233744
0.000146453
0.00233362
0.000152073
0.00232976
0.000157459
0.00232586
0.00016261
0.00232194
0.000167527
0.00231799
0.000172213
0.00231401
0.000176669
0.00231001
0.000180901
0.00230599
0.000184913
0.00230196
0.000188712
0.00229791
0.000192303
0.00229385
0.000195693
0.00228978
0.000198891
0.00228571
0.000201903
0.00228162
0.000204738
0.00227753
0.000207403
0.00227344
0.000209907
0.00226934
0.000212258
0.00226524
0.000214464
0.00226114
0.000216533
0.00225704
0.000218474
0.00225294
0.000220295
0.00224884
0.000222004
0.00224474
0.000223608
0.00224065
0.000225116
0.00223657
0.000226534
0.00223249
0.000227872
0.00222841
0.000229135
0.00222435
0.000230332
0.000231469
0.00236987
3.09981e-06
0.00236694
1.47009e-05
0.00236391
2.46917e-05
0.00236092
3.36856e-05
0.00235797
4.21478e-05
0.00235502
5.03418e-05
0.00235204
5.83876e-05
0.002349
6.63292e-05
0.00234591
7.41749e-05
0.00234274
8.19169e-05
0.00233949
8.95405e-05
0.00233618
9.70287e-05
0.00233278
0.000104364
0.00232932
0.00011153
0.00232579
0.000118512
0.0023222
0.000125295
0.00231855
0.000131869
0.00231485
0.000138224
0.0023111
0.000144353
0.0023073
0.000150249
0.00230347
0.000155909
0.00229959
0.000161331
0.00229569
0.000166515
0.00229176
0.000171461
0.0022878
0.000176171
0.00228382
0.00018065
0.00227982
0.000184901
0.0022758
0.00018893
0.00227177
0.000192743
0.00226773
0.000196346
0.00226367
0.000199748
0.00225961
0.000202954
0.00225554
0.000205973
0.00225146
0.000208813
0.00224738
0.000211483
0.0022433
0.00021399
0.00223922
0.000216342
0.00223513
0.000218549
0.00223105
0.000220618
0.00222696
0.000222558
0.00222288
0.000224376
0.00221881
0.000226081
0.00221473
0.000227681
0.00221066
0.000229184
0.0022066
0.000230597
0.00220254
0.000231928
0.0021985
0.000233184
0.00219446
0.000234372
0.0002355
0.00234095
5.85682e-06
0.00233774
1.79089e-05
0.00233456
2.787e-05
0.00233151
3.67404e-05
0.00232852
4.51373e-05
0.00232554
5.33213e-05
0.00232253
6.13962e-05
0.00231947
6.93906e-05
0.00231634
7.73022e-05
0.00231314
8.51165e-05
0.00230987
9.28147e-05
0.00230652
0.000100377
0.0023031
0.000107785
0.00229961
0.000115019
0.00229606
0.000122066
0.00229244
0.00012891
0.00228877
0.00013554
0.00228505
0.000141947
0.00228128
0.000148122
0.00227747
0.00015406
0.00227362
0.000159758
0.00226974
0.000165214
0.00226582
0.000170428
0.00226189
0.0001754
0.00225792
0.000180134
0.00225394
0.000184632
0.00224994
0.000188901
0.00224592
0.000192945
0.0022419
0.000196771
0.00223786
0.000200385
0.00223381
0.000203795
0.00222976
0.000207008
0.0022257
0.000210033
0.00222163
0.000212877
0.00221757
0.00021555
0.0022135
0.000218058
0.00220943
0.000220411
0.00220536
0.000222617
0.00220129
0.000224685
0.00219723
0.000226622
0.00219317
0.000228437
0.00218911
0.000230138
0.00218506
0.000231733
0.00218101
0.000233229
0.00217698
0.000234635
0.00217295
0.000235959
0.00216892
0.000237206
0.00216491
0.000238385
0.000239504
0.00231214
9.09673e-06
0.00230867
2.13775e-05
0.0023054
3.11448e-05
0.00230231
3.98245e-05
0.00229931
4.81412e-05
0.00229632
5.63158e-05
0.00229329
6.4424e-05
0.0022902
7.24748e-05
0.00228705
8.04549e-05
0.00228382
8.83429e-05
0.00228052
9.61161e-05
0.00227715
0.000103752
0.0022737
0.000111231
0.00227019
0.000118534
0.00226661
0.000125643
0.00226297
0.000132546
0.00225928
0.00013923
0.00225554
0.000145686
0.00225176
0.000151905
0.00224794
0.000157884
0.00224408
0.000163618
0.00224019
0.000169105
0.00223627
0.000174347
0.00223232
0.000179343
0.00222836
0.000184098
0.00222438
0.000188615
0.00222038
0.0001929
0.00221637
0.000196957
0.00221234
0.000200794
0.00220831
0.000204417
0.00220427
0.000207834
0.00220023
0.000211053
0.00219618
0.000214082
0.00219213
0.000216929
0.00218807
0.000219602
0.00218402
0.000222111
0.00217997
0.000224463
0.00217592
0.000226668
0.00217187
0.000228732
0.00216783
0.000230666
0.00216379
0.000232476
0.00215975
0.000234172
0.00215573
0.000235761
0.0021517
0.00023725
0.00214769
0.000238648
0.00214369
0.000239963
0.00213969
0.000241201
0.00213571
0.000242371
0.000243478
0.00228339
1.29196e-05
0.00227972
2.50507e-05
0.00227641
3.44507e-05
0.00227334
4.28974e-05
0.00227034
5.11373e-05
0.00226734
5.93131e-05
0.00226431
6.74633e-05
0.0022612
7.55767e-05
0.00225803
8.36289e-05
0.00225478
9.15926e-05
0.00225145
9.94416e-05
0.00224806
0.000107152
0.00224459
0.000114701
0.00224105
0.00012207
0.00223745
0.000129241
0.0022338
0.000136201
0.00223009
0.000142937
0.00222634
0.00014944
0.00222254
0.000155702
0.0022187
0.000161718
0.00221484
0.000167486
0.00221094
0.000173003
0.00220702
0.00017827
0.00220307
0.000183289
0.0021991
0.000188063
0.00219512
0.000192597
0.00219113
0.000196895
0.00218712
0.000200963
0.00218311
0.000204809
0.00217908
0.00020844
0.00217505
0.000211863
0.00217102
0.000215086
0.00216698
0.000218117
0.00216295
0.000220966
0.00215891
0.00022364
0.00215487
0.000226147
0.00215084
0.000228498
0.00214681
0.000230699
0.00214278
0.00023276
0.00213876
0.000234689
0.00213474
0.000236493
0.00213073
0.000238183
0.00212673
0.000239764
0.00212273
0.000241246
0.00211875
0.000242635
0.00211477
0.00024394
0.0021108
0.000245168
0.00210685
0.000246326
0.000247422
0.00225462
1.74418e-05
0.00225086
2.88042e-05
0.00224761
3.77016e-05
0.00224459
4.59177e-05
0.00224162
5.41066e-05
0.00223863
6.23035e-05
0.00223559
7.05081e-05
0.00223247
7.86918e-05
0.00222928
8.68208e-05
0.00222601
9.48626e-05
0.00222266
0.000102788
0.00221924
0.000110572
0.00221575
0.000118191
0.0022122
0.000125625
0.00220858
0.000132857
0.00220491
0.000139872
0.00220119
0.000146659
0.00219742
0.000153207
0.00219361
0.000159509
0.00218977
0.000165561
0.0021859
0.00017136
0.002182
0.000176905
0.00217807
0.000182196
0.00217412
0.000187235
0.00217016
0.000192027
0.00216618
0.000196575
0.00216219
0.000200885
0.00215819
0.000204963
0.00215418
0.000208817
0.00215017
0.000212453
0.00214615
0.00021588
0.00214213
0.000219106
0.00213811
0.000222139
0.00213409
0.000224987
0.00213007
0.00022766
0.00212605
0.000230166
0.00212204
0.000232513
0.00211803
0.00023471
0.00211402
0.000236766
0.00211002
0.000238689
0.00210603
0.000240487
0.00210204
0.000242168
0.00209806
0.000243742
0.0020941
0.000245214
0.00209014
0.000246594
0.00208619
0.000247889
0.00208225
0.000249106
0.00207832
0.000250252
0.000251335
0.0022257
2.28666e-05
0.00222211
3.23921e-05
0.00221903
4.07885e-05
0.00221609
4.88528e-05
0.00221316
5.70362e-05
0.00221019
6.52807e-05
0.00220714
7.35547e-05
0.00220401
8.18174e-05
0.00220081
9.00279e-05
0.00219752
9.81504e-05
0.00219415
0.000106154
0.00219071
0.000114012
0.0021872
0.0001217
0.00218363
0.000129198
0.00218
0.000136489
0.00217631
0.000143558
0.00217258
0.000150393
0.0021688
0.000156984
0.00216499
0.000163325
0.00216114
0.000169411
0.00215726
0.000175239
0.00215335
0.000180809
0.00214943
0.000186122
0.00214548
0.00019118
0.00214152
0.000195987
0.00213755
0.000200548
0.00213357
0.000204868
0.00212958
0.000208955
0.00212558
0.000212814
0.00212158
0.000216455
0.00211757
0.000219885
0.00211357
0.000223111
0.00210956
0.000226144
0.00210556
0.000228991
0.00210156
0.000231662
0.00209756
0.000234164
0.00209356
0.000236507
0.00208957
0.000238699
0.00208559
0.000240749
0.00208161
0.000242665
0.00207765
0.000244455
0.00207368
0.000246129
0.00206973
0.000247693
0.00206579
0.000249155
0.00206186
0.000250525
0.00205794
0.000251808
0.00205404
0.000253013
0.00205014
0.000254146
0.000255216
0.00616103
2.83829e-05
0.00615615
3.72813e-05
0.00615081
4.61251e-05
0.00614518
5.44833e-05
0.00613945
6.27695e-05
0.00613364
7.10854e-05
0.00612783
7.93653e-05
0.00612207
8.75779e-05
0.0061164
9.56971e-05
0.00611086
0.000103694
0.00610547
0.000111542
0.00610026
0.00011922
0.00609525
0.000126705
0.00609047
0.000133982
0.00608592
0.000141036
0.00608163
0.000147854
0.00607759
0.000154428
0.00607383
0.000160749
0.00607034
0.000166815
0.00606713
0.000172621
0.0060642
0.000178168
0.00606155
0.000183456
0.00605919
0.000188488
0.0060571
0.000193268
0.00605528
0.0001978
0.00605374
0.00020209
0.00605247
0.000206145
0.00605145
0.000209971
0.00605069
0.000213576
0.00605018
0.000216967
0.00604991
0.000220154
0.00604987
0.000223144
0.00605007
0.000225945
0.0060505
0.000228567
0.00605114
0.000231017
0.006052
0.000233303
0.00605308
0.000235435
0.00605435
0.00023742
0.00605584
0.000239267
0.00605752
0.000240983
0.0060594
0.000242576
0.00606147
0.000244055
0.00606374
0.000245427
0.00606619
0.000246699
0.00606884
0.000247879
0.00607167
0.000248974
0.00607469
0.000249991
0.0060779
0.000250936
0.000251818
0.006239
3.50657e-05
0.00623324
4.30401e-05
0.00622707
5.23017e-05
0.00622054
6.10109e-05
0.00621383
6.94809e-05
0.00620701
7.78989e-05
0.00620016
8.62171e-05
0.00619334
9.44054e-05
0.00618658
0.000102451
0.00617994
0.000110334
0.00617345
0.000118035
0.00616713
0.000125537
0.00616101
0.000132822
0.00615512
0.000139878
0.00614946
0.000146694
0.00614406
0.00015326
0.00613891
0.000159571
0.00613404
0.000165622
0.00612944
0.00017141
0.00612513
0.000176936
0.00612109
0.000182202
0.00611734
0.000187208
0.00611387
0.00019196
0.00611068
0.000196462
0.00610776
0.000200721
0.0061051
0.000204742
0.00610272
0.000208532
0.00610059
0.0002121
0.00609871
0.000215452
0.00609708
0.000218598
0.00609569
0.000221544
0.00609454
0.000224299
0.00609361
0.000226871
0.00609291
0.000229269
0.00609242
0.0002315
0.00609216
0.000233573
0.00609209
0.000235496
0.00609224
0.000237276
0.00609258
0.000238921
0.00609313
0.000240439
0.00609387
0.000241838
0.0060948
0.000243124
0.00609592
0.000244305
0.00609723
0.000245388
0.00609873
0.00024638
0.00610042
0.000247288
0.00610229
0.000248118
0.00610435
0.000248878
0.000249573
0.00631294
4.3242e-05
0.00630512
5.08632e-05
0.0062973
6.01193e-05
0.00628936
6.89517e-05
0.00628135
7.74911e-05
0.00627331
8.59376e-05
0.00626528
9.42488e-05
0.0062573
0.000102387
0.00624941
0.000110342
0.00624164
0.000118098
0.00623403
0.000125642
0.00622661
0.000132957
0.0062194
0.000140033
0.00621242
0.00014686
0.00620568
0.000153431
0.00619921
0.000159738
0.006193
0.000165781
0.00618706
0.000171556
0.00618141
0.000177064
0.00617604
0.000182308
0.00617095
0.000187289
0.00616614
0.000192013
0.00616162
0.000196485
0.00615737
0.00020071
0.00615339
0.000204696
0.00614969
0.000208449
0.00614624
0.000211978
0.00614305
0.000215289
0.00614011
0.000218391
0.00613742
0.000221291
0.00613497
0.000223999
0.00613274
0.000226521
0.00613075
0.000228867
0.00612897
0.000231043
0.00612742
0.000233058
0.00612607
0.000234919
0.00612493
0.000236634
0.006124
0.000238211
0.00612326
0.000239656
0.00612272
0.000240978
0.00612238
0.000242182
0.00612223
0.000243277
0.00612226
0.000244268
0.00612249
0.000245164
0.0061229
0.000245969
0.00612349
0.000246691
0.00612428
0.000247336
0.00612524
0.00024791
0.00637897
5.31006e-05
0.00636943
6.04008e-05
0.00635999
6.95545e-05
0.00635057
7.83751e-05
0.00634117
8.68885e-05
0.00633182
9.52891e-05
0.00632254
0.000103535
0.00631334
0.000111579
0.00630428
0.000119408
0.00629537
0.000127009
0.00628664
0.00013437
0.00627812
0.000141479
0.00626982
0.000148328
0.00626177
0.000154911
0.00625398
0.000161222
0.00624646
0.00016726
0.00623921
0.000173025
0.00623225
0.000178516
0.00622558
0.000183738
0.00621919
0.000188693
0.0062131
0.000193387
0.00620729
0.000197825
0.00620176
0.000202015
0.0061965
0.000205962
0.00619153
0.000209674
0.00618682
0.000213159
0.00618237
0.000216425
0.00617818
0.00021948
0.00617424
0.000222332
0.00617054
0.000224989
0.00616708
0.000227459
0.00616385
0.000229749
0.00616085
0.000231868
0.00615807
0.000233824
0.0061555
0.000235623
0.00615315
0.000237273
0.006151
0.000238781
0.00614906
0.000240155
0.00614731
0.000241401
0.00614577
0.000242526
0.00614441
0.000243537
0.00614325
0.000244441
0.00614227
0.000245243
0.00614149
0.00024595
0.00614089
0.000246569
0.00614047
0.000247105
0.00614024
0.000247565
0.000247954
0.006436
6.44806e-05
0.00642491
7.14917e-05
0.00641393
8.05375e-05
0.00640302
8.92826e-05
0.00639221
9.76975e-05
0.00638152
0.000105983
0.00637095
0.0001141
0.00636054
0.000121994
0.00635029
0.00012965
0.00634025
0.000137056
0.00633042
0.000144199
0.00632083
0.000151072
0.00631149
0.000157669
0.00630241
0.000163984
0.00629362
0.000170019
0.0062851
0.000175771
0.00627688
0.000181245
0.00626896
0.000186442
0.00626133
0.000191368
0.00625399
0.000196028
0.00624695
0.000200428
0.0062402
0.000204576
0.00623374
0.00020848
0.00622755
0.000212145
0.00622165
0.000215582
0.00621601
0.000218798
0.00621063
0.000221801
0.00620551
0.000224599
0.00620064
0.000227201
0.00619602
0.000229614
0.00619163
0.000231846
0.00618747
0.000233905
0.00618354
0.000235798
0.00617984
0.000237532
0.00617634
0.000239115
0.00617306
0.000240554
0.00616999
0.000241856
0.00616712
0.000243026
0.00616444
0.000244073
0.00616197
0.000245001
0.00615969
0.000245818
0.0061576
0.00024653
0.0061557
0.000247142
0.00615399
0.000247661
0.00615246
0.000248093
0.00615113
0.000248443
0.00614997
0.000248717
0.000248921
0.00648306
7.72704e-05
0.00647054
8.40119e-05
0.00645812
9.29571e-05
0.00644581
0.000101595
0.00643364
0.000109862
0.00642165
0.000117978
0.00640984
0.000125908
0.00639824
0.000133598
0.00638685
0.00014103
0.00637571
0.000148196
0.00636483
0.000155082
0.00635422
0.000161684
0.00634389
0.000167998
0.00633385
0.000174021
0.00632412
0.000179756
0.00631468
0.000185204
0.00630556
0.00019037
0.00629674
0.00019526
0.00628823
0.000199879
0.00628002
0.000204234
0.00627212
0.000208334
0.00626451
0.000212186
0.00625719
0.000215799
0.00625015
0.00021918
0.0062434
0.000222339
0.00623691
0.000225283
0.00623069
0.000228021
0.00622473
0.000230561
0.00621902
0.000232912
0.00621355
0.00023508
0.00620833
0.000237073
0.00620333
0.000238899
0.00619856
0.000240566
0.00619402
0.000242079
0.00618969
0.000243445
0.00618557
0.000244672
0.00618166
0.000245766
0.00617795
0.000246732
0.00617445
0.000247578
0.00617114
0.000248309
0.00616803
0.000248931
0.00616511
0.00024945
0.00616238
0.000249872
0.00615984
0.000250202
0.00615748
0.000250445
0.00615532
0.000250608
0.00615334
0.000250696
0.000250713
0.00651921
9.13744e-05
0.00650538
9.78446e-05
0.00649165
0.000106685
0.00647805
0.000115192
0.00646464
0.000123274
0.00645144
0.000131175
0.00643848
0.000138872
0.00642577
0.000146309
0.00641333
0.000153472
0.00640117
0.000160353
0.00638931
0.000166943
0.00637775
0.000173238
0.00636652
0.000179236
0.0063556
0.000184939
0.006345
0.00019035
0.00633473
0.000195473
0.00632479
0.000200315
0.00631517
0.000204882
0.00630586
0.000209182
0.00629688
0.000213223
0.0062882
0.000217013
0.00627982
0.000220562
0.00627174
0.000223879
0.00626395
0.000226971
0.00625644
0.000229848
0.00624921
0.000232517
0.00624224
0.000234988
0.00623553
0.000237269
0.00622908
0.000239366
0.00622287
0.000241288
0.0062169
0.000243042
0.00621117
0.000244634
0.00620566
0.000246072
0.00620038
0.000247362
0.00619531
0.000248511
0.00619046
0.000249525
0.00618581
0.00025041
0.00618138
0.000251171
0.00617714
0.000251815
0.0061731
0.000252347
0.00616926
0.000252773
0.00616561
0.000253098
0.00616216
0.000253327
0.00615889
0.000253467
0.00615582
0.000253521
0.00615293
0.000253496
0.00615023
0.000253396
0.00654365
0.000106693
0.00652862
0.000112875
0.00651371
0.000121591
0.00649896
0.00012994
0.00648444
0.000137803
0.00647016
0.000145451
0.00645616
0.000152871
0.00644246
0.000160013
0.00642907
0.000166863
0.006416
0.000173418
0.00640327
0.000179674
0.00639088
0.000185627
0.00637884
0.00019128
0.00636714
0.000196635
0.00635579
0.000201698
0.00634479
0.000206475
0.00633413
0.000210974
0.00632381
0.000215203
0.00631382
0.000219171
0.00630416
0.000222887
0.00629481
0.000226359
0.00628578
0.000229598
0.00627704
0.000232612
0.0062686
0.00023541
0.00626045
0.000238001
0.00625257
0.000240392
0.00624497
0.000242593
0.00623763
0.000244611
0.00623054
0.000246453
0.0062237
0.000248127
0.0062171
0.000249639
0.00621074
0.000250997
0.00620461
0.000252205
0.0061987
0.000253272
0.00619301
0.000254201
0.00618753
0.000255001
0.00618227
0.000255675
0.00617721
0.000256229
0.00617235
0.00025667
0.0061677
0.000257002
0.00616324
0.00025723
0.00615898
0.000257359
0.00615491
0.000257395
0.00615104
0.000257343
0.00614735
0.000257206
0.00614386
0.000256992
0.000256703
0.00655563
0.000123114
0.00653953
0.00012898
0.00652358
0.000137538
0.00650783
0.000145694
0.00649233
0.0001533
0.00647712
0.000160656
0.00646224
0.00016776
0.00644768
0.000174566
0.00643348
0.000181065
0.00641964
0.000187258
0.00640617
0.000193143
0.00639308
0.000198722
0.00638036
0.000204
0.00636801
0.000208981
0.00635604
0.000213673
0.00634443
0.000218085
0.00633318
0.000222224
0.00632228
0.000226101
0.00631173
0.000229724
0.00630151
0.000233104
0.00629162
0.00023625
0.00628205
0.000239171
0.00627278
0.000241876
0.00626382
0.000244375
0.00625514
0.000246676
0.00624675
0.000248786
0.00623863
0.000250714
0.00623077
0.000252467
0.00622317
0.000254052
0.00621582
0.000255476
0.00620872
0.000256745
0.00620185
0.000257865
0.00619521
0.000258842
0.0061888
0.000259683
0.00618261
0.000260392
0.00617664
0.000260975
0.00617087
0.000261437
0.00616532
0.000261784
0.00615997
0.00026202
0.00615482
0.000262149
0.00614987
0.000262178
0.00614512
0.000262111
0.00614056
0.000261952
0.0061362
0.000261707
0.00613203
0.000261379
0.00612805
0.000260974
0.000260495
0.00655448
0.000140508
0.00653744
0.000146023
0.0065206
0.000154375
0.006504
0.000162293
0.0064877
0.000169602
0.00647174
0.000176623
0.00645612
0.000183372
0.00644089
0.000189803
0.00642604
0.000195914
0.00641159
0.000201709
0.00639754
0.000207193
0.00638389
0.000212369
0.00637064
0.000217245
0.0063578
0.000221829
0.00634534
0.00022613
0.00633327
0.000230158
0.00632157
0.000233922
0.00631024
0.000237433
0.00629926
0.000240701
0.00628863
0.000243735
0.00627833
0.000246547
0.00626836
0.000249144
0.0062587
0.000251535
0.00624934
0.00025373
0.00624028
0.000255737
0.00623151
0.000257563
0.006223
0.000259215
0.00621477
0.000260701
0.0062068
0.000262026
0.00619907
0.000263198
0.0061916
0.000264222
0.00618436
0.000265104
0.00617735
0.000265849
0.00617057
0.000266462
0.00616401
0.00026695
0.00615767
0.000267315
0.00615154
0.000267564
0.00614563
0.000267701
0.00613992
0.000267731
0.00613441
0.000267658
0.0061291
0.000267487
0.00612399
0.000267222
0.00611907
0.000266868
0.00611435
0.000266428
0.00610982
0.000265908
0.00610548
0.000265312
0.000264643
0.00653959
0.000158723
0.00652177
0.000163844
0.00650421
0.000171934
0.00648694
0.00017956
0.00647002
0.000186524
0.00645348
0.000193168
0.00643733
0.000199519
0.00642159
0.000205539
0.00640628
0.000211226
0.0063914
0.000216592
0.00637695
0.000221645
0.00636292
0.000226392
0.00634932
0.000230844