/*--------------------------------*- C++ -*----------------------------------*\
  =========                 |
  \\      /  F ield         | OpenFOAM: The Open Source CFD Toolbox
   \\    /   O peration     | Website:  https://openfoam.org
    \\  /    A nd           | Version:  7
     \\/     M anipulation  |
\*---------------------------------------------------------------------------*/
FoamFile
{
    version     2.0;
    format      ascii;
    class       volVectorField;
    location    "20";
    object      U;
}
// * * * * * * * * * * * * * * * * * * * * * * * * * * * * * * * * * * * * * //

dimensions      [0 1 -1 0 0 0 0];

internalField   nonuniform List<vector> 
2625
(
(0.238603 -0.00343013 9.45876e-22)
(0.269707 -0.00354628 2.90206e-21)
(1.27237 -0.00324937 -1.25943e-19)
(1.27002 -0.00142243 6.64853e-20)
(1.267 0.000234784 8.86205e-21)
(1.2634 0.00161869 -1.505e-20)
(1.25597 0.0107896 -7.7838e-20)
(1.25992 0.00286461 9.78059e-21)
(1.24873 0.0149312 1.65665e-20)
(1.25592 0.00497872 -6.89991e-21)
(1.24031 0.0191576 -6.07658e-20)
(1.251 0.00759757 -6.71495e-20)
(1.23063 0.0234635 6.43532e-20)
(1.24498 0.0104756 6.73574e-20)
(1.19761 0.0269833 -5.2565e-20)
(1.2196 0.0278486 1.19819e-19)
(1.23777 0.0135648 -7.2268e-20)
(1.18295 0.0314242 6.94001e-21)
(1.20715 0.0323017 -5.27849e-20)
(1.22927 0.0168544 1.111e-19)
(1.16679 0.0359091 2.47399e-20)
(1.19318 0.0368031 -6.67588e-21)
(1.2194 0.0203276 -1.10481e-19)
(1.14907 0.04041 -6.62722e-20)
(1.17765 0.0413274 -9.29751e-20)
(1.20807 0.023966 4.94784e-20)
(1.12976 0.044896 1.00233e-19)
(1.16047 0.0458434 1.08021e-20)
(1.19519 0.0277515 -3.00382e-20)
(1.10886 0.0493326 4.25704e-21)
(1.14162 0.0503151 7.51424e-20)
(1.18066 0.0316647 1.84018e-21)
(1.03755 0.0633114 -1.70443e-20)
(1.08634 0.0536827 -9.13979e-20)
(1.12105 0.0547018 3.86779e-20)
(1.1644 0.0356822 9.21596e-20)
(1.01096 0.0674701 7.11468e-20)
(1.06225 0.0579065 5.82801e-20)
(1.09876 0.0589589 -2.99795e-20)
(1.14636 0.0397761 -9.30802e-20)
(0.983049 0.0713477 -3.6077e-20)
(1.03659 0.0619621 1.59909e-21)
(1.07476 0.0630389 -4.97344e-20)
(1.12647 0.0439131 5.17652e-20)
(0.953896 0.0749042 -2.54737e-21)
(1.00944 0.065806 4.02968e-21)
(1.04908 0.0668926 -3.52022e-20)
(1.10471 0.0480543 7.34969e-21)
(0.923612 0.0781011 8.48011e-20)
(0.980874 0.0693938 -5.2112e-20)
(1.02179 0.07047 -8.35774e-21)
(1.08107 0.0521551 -1.71625e-20)
(0.892316 0.0809016 -1.59567e-20)
(0.950981 0.0726804 4.27849e-20)
(0.992972 0.0737216 6.19213e-20)
(1.05555 0.0561659 1.88165e-21)
(0.860146 0.0832718 -2.66623e-20)
(0.919885 0.0756214 3.90833e-20)
(0.962731 0.0765995 -3.35872e-20)
(1.02822 0.0600319 2.89604e-20)
(0.769543 0.0877653 -8.82288e-20)
(0.827255 0.0851809 2.95918e-20)
(0.887722 0.0781731 -4.39648e-20)
(0.931206 0.079059 -1.19582e-20)
(0.999135 0.0636943 -1.15616e-20)
(0.736447 0.0888039 1.20118e-20)
(0.793807 0.0866017 -3.33115e-20)
(0.854654 0.0802939 1.75039e-20)
(0.898554 0.0810588 2.42138e-20)
(0.968414 0.067091 -6.7335e-21)
(0.703228 0.0893348 3.14822e-20)
(0.759979 0.0875113 3.10819e-20)
(0.820857 0.081945 -3.15448e-20)
(0.86496 0.0825629 6.90193e-20)
(0.936198 0.070158 -3.78761e-20)
(0.670058 0.0893456 -6.49338e-20)
(0.725959 0.087891 3.5887e-20)
(0.786526 0.083091 -3.21229e-20)
(0.830624 0.0835404 -5.44316e-20)
(0.902664 0.0728302 3.78857e-20)
(0.637112 0.0888282 3.14547e-20)
(0.691942 0.087727 -8.69305e-21)
(0.75187 0.0837009 5.29585e-20)
(0.795767 0.0839666 3.21771e-20)
(0.86802 0.0750435 -2.80043e-20)
(0.604567 0.0877785 -1.89082e-21)
(0.658128 0.08701 -3.81023e-20)
(0.717111 0.0837486 -1.48651e-20)
(0.760626 0.083823 -1.46757e-20)
(0.832509 0.0767355 -5.77612e-21)
(0.572603 0.0861969 3.29612e-20)
(0.624724 0.0857361 9.12995e-21)
(0.682482 0.0832139 -4.80874e-20)
(0.725448 0.0830972 -3.62612e-21)
(0.796399 0.077848 3.13829e-20)
(0.541398 0.0840878 -3.91449e-20)
(0.591936 0.0839058 -2.65994e-20)
(0.648222 0.0820826 6.96356e-20)
(0.690491 0.0817834 -5.93776e-20)
(0.759986 0.0783279 6.53376e-23)
(0.511131 0.08146 4.36722e-21)
(0.559973 0.0815248 2.53451e-20)
(0.614577 0.0803472 -5.83528e-20)
(0.656021 0.0798814 3.6887e-20)
(0.723587 0.0781294 -2.57092e-20)
(0.481974 0.0783262 3.75944e-21)
(0.529039 0.0786036 -1.81691e-21)
(0.581793 0.0780069 3.84141e-20)
(0.622305 0.0773972 -1.33233e-20)
(0.687533 0.0772149 3.79689e-20)
(0.454099 0.0747032 -4.76277e-21)
(0.499338 0.0751571 -1.4199e-20)
(0.550116 0.0750678 -1.68383e-20)
(0.589613 0.0743419 3.01469e-20)
(0.652169 0.0755569 -3.20448e-20)
(0.427668 0.0706114 6.77269e-20)
(0.471066 0.0712049 1.36149e-20)
(0.519788 0.071543 1.7153e-20)
(0.558209 0.0707319 -3.81018e-20)
(0.617844 0.0731391 2.22289e-20)
(0.402839 0.0660748 -7.32232e-20)
(0.444411 0.0667708 -1.16102e-21)
(0.491044 0.0674522 -1.54197e-20)
(0.528356 0.0665885 3.81387e-21)
(0.584907 0.0699574 -6.24146e-21)
(0.379759 0.0611208 5.13627e-20)
(0.419555 0.0618824 1.33088e-20)
(0.464111 0.0628214 -2.20039e-21)
(0.500305 0.0619377 3.90829e-20)
(0.553699 0.0660201 6.606e-21)
(0.319194 0.0544909 3.32508e-20)
(0.358567 0.0557796 -2.92943e-20)
(0.396665 0.0565712 -3.55293e-20)
(0.439203 0.0576828 5.81165e-21)
(0.474297 0.0568102 8.49853e-21)
(0.524552 0.0613491 -2.79314e-20)
(0.301726 0.0488187 -2.59468e-20)
(0.339392 0.0500844 -1.33167e-20)
(0.375898 0.0508722 3.1221e-20)
(0.41652 0.0520741 -5.34481e-21)
(0.450557 0.0512411 -2.83029e-20)
(0.497778 0.0559792 2.05453e-20)
(0.286237 0.042874 4.58484e-20)
(0.322348 0.0440709 3.37139e-20)
(0.357399 0.0448233 -2.55068e-20)
(0.396247 0.0460382 1.40212e-20)
(0.429295 0.0452697 -8.83969e-21)
(0.473668 0.049958 -2.81225e-21)
(0.272806 0.0366901 -3.19439e-20)
(0.307541 0.0377769 -4.12586e-21)
(0.341295 0.0384653 3.78128e-21)
(0.378549 0.0396225 1.00382e-20)
(0.4107 0.0389397 1.72954e-20)
(0.452486 0.0433451 -5.2651e-21)
(0.261505 0.0303018 2.23075e-21)
(0.29506 0.0312423 -4.03565e-21)
(0.327698 0.0318417 4.4176e-21)
(0.36357 0.0328785 -1.31981e-20)
(0.394938 0.0322986 -4.90986e-21)
(0.434463 0.0362114 4.18893e-21)
(0.252393 0.0237447 -6.84595e-21)
(0.284981 0.0245087 -6.15375e-21)
(0.316705 0.0249976 1.11968e-20)
(0.351436 0.0258612 1.53823e-21)
(0.382152 0.0253974 -5.84508e-21)
(0.4198 0.0286374 -9.38443e-21)
(0.245516 0.0170555 4.69865e-21)
(0.277368 0.0176187 7.10492e-21)
(0.308391 0.0179804 -6.35656e-21)
(0.342246 0.0186282 -9.43123e-21)
(0.372459 0.0182905 3.36515e-21)
(0.408658 0.0207122 1.0746e-20)
(0.240912 0.0102714 4.85647e-21)
(0.272266 0.0106164 -6.43693e-21)
(0.302816 0.0108384 3.2041e-21)
(0.336076 0.0112397 1.03805e-20)
(0.365947 0.0110345 -3.33699e-22)
(0.401161 0.0125311 -2.89495e-22)
(0.238603 0.00343014 9.01935e-22)
(0.269707 0.00354636 2.87176e-21)
(0.300018 0.00362126 -1.60118e-21)
(0.332978 0.00375715 -3.35323e-21)
(0.362676 0.00368843 -5.99265e-22)
(0.397391 0.00419465 -1.40904e-21)
(1.2723 -0.00238316 -2.03383e-20)
(1.27211 -0.00221997 2.52226e-20)
(1.27295 -0.00362183 -3.2781e-20)
(1.2719 -0.0020532 -1.99905e-20)
(1.2728 -0.0034668 -6.08165e-20)
(1.27165 -0.0018833 -1.9942e-20)
(1.2733 -0.00479245 -4.99506e-20)
(1.27261 -0.00330647 2.95929e-20)
(1.27138 -0.00171036 -2.83618e-21)
(1.27321 -0.00463881 1.32586e-20)
(1.27239 -0.00314113 2.41652e-20)
(1.27107 -0.00153379 2.53839e-20)
(1.27309 -0.00447354 -1.46737e-20)
(1.27214 -0.00297057 -5.87681e-20)
(1.27073 -0.00135236 3.09255e-20)
(1.27373 -0.00573364 -3.53709e-20)
(1.27294 -0.00429669 -9.31948e-21)
(1.27186 -0.00279481 1.00892e-19)
(1.27035 -0.00116453 -2.26048e-20)
(1.27367 -0.00556678 -7.79134e-21)
(1.27277 -0.00410868 -2.50426e-20)
(1.27153 -0.00261285 -3.11341e-20)
(1.26992 -0.000965873 6.5105e-21)
(1.27421 -0.00688653 -2.81228e-20)
(1.27358 -0.00538608 2.53556e-20)
(1.27258 -0.0039051 5.80124e-20)
(1.27118 -0.00241306 1.20693e-20)
(1.26942 -0.000739667 -5.05233e-21)
(1.27421 -0.00672394 3.2802e-20)
(1.27348 -0.00518621 5.29239e-20)
(1.27234 -0.00367272 -3.21125e-20)
(1.27077 -0.00216799 -8.82722e-20)
(1.26883 -0.000466213 4.31023e-20)
(1.2212 0.0193801 0)
(1.21917 0.0194115 0)
(1.21714 0.0194213 0)
(1.2151 0.019411 0)
(1.21306 0.0193821 0)
(1.21101 0.0193363 0)
(1.20895 0.0192749 0)
(1.2069 0.0191993 0)
(1.20483 0.019111 0)
(1.20277 0.0190111 0)
(1.2007 0.0189009 0)
(1.19863 0.0187815 0)
(1.19656 0.018654 0)
(1.19449 0.0185195 0)
(1.19242 0.0183789 0)
(1.19035 0.0182331 0)
(1.18828 0.018083 0)
(1.27189 -0.0013965 0)
(1.27124 -5.67992e-06 0)
(1.27032 0.00137386 0)
(1.26927 0.00271887 0)
(1.26812 0.00399704 0)
(1.2669 0.00520772 0)
(1.26562 0.00635512 0)
(1.2643 0.0074449 0)
(1.26293 0.0084814 0)
(1.26151 0.00946745 0)
(1.26004 0.0104047 0)
(1.25854 0.0112938 0)
(1.25699 0.0121353 0)
(1.25539 0.0129291 0)
(1.25376 0.0136754 0)
(1.25208 0.0143741 0)
(1.25037 0.0150256 0)
(1.24862 0.0156303 0)
(1.24684 0.0161886 0)
(1.24503 0.0167014 0)
(1.24319 0.0171696 0)
(1.24132 0.0175944 0)
(1.23943 0.017977 0)
(1.23752 0.0183188 0)
(1.23559 0.0186213 0)
(1.23364 0.0188862 0)
(1.23167 0.0191151 0)
(1.22968 0.0193098 0)
(1.22769 0.0194721 0)
(1.22568 0.0196038 0)
(1.22365 0.0197066 0)
(1.22162 0.0197823 0)
(1.21958 0.0198328 0)
(1.21753 0.0198597 0)
(1.21548 0.0198648 0)
(1.21342 0.0198496 0)
(1.21135 0.0198158 0)
(1.20928 0.0197649 0)
(1.2072 0.0196983 0)
(1.20513 0.0196175 0)
(1.20304 0.0195239 0)
(1.20096 0.0194187 0)
(1.19887 0.0193032 0)
(1.19679 0.0191784 0)
(1.1947 0.0190455 0)
(1.19261 0.0189056 0)
(1.19053 0.0187595 0)
(1.18844 0.0186083 0)
(1.18636 0.0184528 0)
(1.27167 -0.00118188 0)
(1.27095 0.000282711 0)
(1.26992 0.00171693 0)
(1.26878 0.00309688 0)
(1.26755 0.00439585 0)
(1.26626 0.00561973 0)
(1.26492 0.00677679 0)
(1.26354 0.00787481 0)
(1.26212 0.00891898 0)
(1.26065 0.00991239 0)
(1.25914 0.0108566 0)
(1.25759 0.0117524 0)
(1.256 0.0125999 0)
(1.25436 0.0133992 0)
(1.25268 0.0141502 0)
(1.25097 0.0148529 0)
(1.24921 0.0155076 0)
(1.24743 0.0161147 0)
(1.24561 0.0166747 0)
(1.24376 0.0171884 0)
(1.24189 0.0176569 0)
(1.23999 0.0180813 0)
(1.23806 0.0184629 0)
(1.23612 0.0188031 0)
(1.23415 0.0191036 0)
(1.23217 0.0193659 0)
(1.23017 0.0195919 0)
(1.22816 0.0197833 0)
(1.22613 0.019942 0)
(1.2241 0.0200697 0)
(1.22205 0.0201684 0)
(1.21999 0.0202397 0)
(1.21793 0.0202856 0)
(1.21586 0.0203078 0)
(1.21378 0.0203079 0)
(1.21169 0.0202877 0)
(1.2096 0.0202488 0)
(1.20751 0.0201927 0)
(1.20542 0.0201209 0)
(1.20332 0.0200348 0)
(1.20122 0.0199358 0)
(1.19912 0.0198252 0)
(1.19701 0.0197041 0)
(1.19491 0.0195739 0)
(1.19281 0.0194355 0)
(1.1907 0.0192901 0)
(1.1886 0.0191386 0)
(1.1865 0.0189819 0)
(1.1844 0.0188208 0)
(1.27141 -0.000946406 0)
(1.2706 0.000600296 0)
(1.26946 0.00208916 0)
(1.26823 0.00349945 0)
(1.26691 0.00481427 0)
(1.26555 0.00604737 0)
(1.26416 0.00721132 0)
(1.26272 0.00831568 0)
(1.26125 0.00936622 0)
(1.25974 0.010366 0)
(1.25819 0.0113166 0)
(1.25659 0.0122184 0)
(1.25495 0.0130714 0)
(1.25327 0.0138756 0)
(1.25156 0.0146308 0)
(1.2498 0.0153371 0)
(1.24801 0.0159945 0)
(1.24619 0.0166036 0)
(1.24433 0.0171649 0)
(1.24245 0.0176792 0)
(1.24054 0.0181475 0)
(1.2386 0.0185711 0)
(1.23664 0.0189513 0)
(1.23467 0.0192896 0)
(1.23267 0.0195877 0)
(1.23066 0.0198472 0)
(1.22863 0.02007 0)
(1.22659 0.0202578 0)
(1.22454 0.0204126 0)
(1.22247 0.0205362 0)
(1.2204 0.0206304 0)
(1.21832 0.0206972 0)
(1.21623 0.0207383 0)
(1.21414 0.0207556 0)
(1.21204 0.0207507 0)
(1.20993 0.0207253 0)
(1.20782 0.0206811 0)
(1.20571 0.0206197 0)
(1.20359 0.0205424 0)
(1.20148 0.0204509 0)
(1.19936 0.0203464 0)
(1.19724 0.0202303 0)
(1.19512 0.0201037 0)
(1.193 0.0199679 0)
(1.19088 0.0198239 0)
(1.18876 0.0196729 0)
(1.18664 0.0195158 0)
(1.18453 0.0193535 0)
(1.18241 0.019187 0)
(1.2711 -0.000685632 0)
(1.27019 0.000951105 0)
(1.26893 0.00249221 0)
(1.26759 0.00392629 0)
(1.2662 0.0052511 0)
(1.26478 0.00648925 0)
(1.26333 0.0076574 0)
(1.26185 0.00876641 0)
(1.26033 0.00982221 0)
(1.25877 0.0108277 0)
(1.25718 0.0117839 0)
(1.25554 0.0126912 0)
(1.25386 0.0135493 0)
(1.25214 0.0143579 0)
(1.25038 0.0151169 0)
(1.24859 0.0158263 0)
(1.24676 0.0164861 0)
(1.2449 0.0170967 0)
(1.243 0.0176588 0)
(1.24108 0.0181733 0)
(1.23914 0.0186411 0)
(1.23717 0.0190635 0)
(1.23518 0.019442 0)
(1.23317 0.0197781 0)
(1.23115 0.0200735 0)
(1.2291 0.0203299 0)
(1.22705 0.0205491 0)
(1.22498 0.0207331 0)
(1.2229 0.0208838 0)
(1.22081 0.021003 0)
(1.21871 0.0210926 0)
(1.21661 0.0211546 0)
(1.2145 0.0211907 0)
(1.21238 0.0212029 0)
(1.21026 0.0211927 0)
(1.20813 0.0211621 0)
(1.206 0.0211125 0)
(1.20387 0.0210456 0)
(1.20173 0.0209628 0)
(1.1996 0.0208657 0)
(1.19746 0.0207556 0)
(1.19532 0.0206339 0)
(1.19319 0.0205017 0)
(1.19105 0.0203602 0)
(1.18892 0.0202106 0)
(1.18678 0.020054 0)
(1.18465 0.0198912 0)
(1.18252 0.0197233 0)
(1.1804 0.0195511 0)
(1.27075 -0.000393689 0)
(1.26971 0.00133946 0)
(1.26831 0.00292713 0)
(1.26688 0.00437629 0)
(1.26542 0.00570455 0)
(1.26394 0.00694363 0)
(1.26244 0.00811357 0)
(1.26091 0.00922583 0)
(1.25935 0.010286 0)
(1.25775 0.0112965 0)
(1.25611 0.0122579 0)
(1.25443 0.0131702 0)
(1.25271 0.0140329 0)
(1.25095 0.0148457 0)
(1.24915 0.0156081 0)
(1.24732 0.0163201 0)
(1.24545 0.0169818 0)
(1.24356 0.0175937 0)
(1.24163 0.0181562 0)
(1.23967 0.0186704 0)
(1.2377 0.0191374 0)
(1.23569 0.0195583 0)
(1.23367 0.0199348 0)
(1.23163 0.0202683 0)
(1.22958 0.0205606 0)
(1.22751 0.0208136 0)
(1.22542 0.0210291 0)
(1.22333 0.021209 0)
(1.22122 0.0213553 0)
(1.21911 0.0214698 0)
(1.21699 0.0215547 0)
(1.21486 0.0216116 0)
(1.21272 0.0216427 0)
(1.21058 0.0216495 0)
(1.20844 0.021634 0)
(1.20629 0.0215979 0)
(1.20414 0.0215428 0)
(1.20199 0.0214703 0)
(1.19984 0.0213819 0)
(1.19769 0.0212792 0)
(1.19553 0.0211634 0)
(1.19338 0.0210359 0)
(1.19123 0.020898 0)
(1.18907 0.0207508 0)
(1.18692 0.0205955 0)
(1.18478 0.0204331 0)
(1.18263 0.0202646 0)
(1.18049 0.020091 0)
(1.17835 0.0199131 0)
(1.27034 -6.29979e-05 0)
(1.26915 0.00176964 0)
(1.26761 0.00339391 0)
(1.26609 0.00484738 0)
(1.26456 0.00617223 0)
(1.26302 0.00740844 0)
(1.26148 0.00857822 0)
(1.25991 0.00969268 0)
(1.25831 0.0107566 0)
(1.25667 0.0117717 0)
(1.25499 0.0127379 0)
(1.25327 0.0136549 0)
(1.25151 0.0145219 0)
(1.24971 0.0153384 0)
(1.24788 0.0161038 0)
(1.24601 0.0168181 0)
(1.2441 0.0174814 0)
(1.24217 0.0180941 0)
(1.24021 0.0186567 0)
(1.23822 0.0191704 0)
(1.23621 0.019636 0)
(1.23417 0.0200552 0)
(1.23212 0.0204292 0)
(1.23005 0.0207599 0)
(1.22797 0.0210489 0)
(1.22587 0.0212982 0)
(1.22376 0.0215096 0)
(1.22163 0.0216852 0)
(1.2195 0.0218269 0)
(1.21736 0.0219366 0)
(1.21522 0.0220164 0)
(1.21307 0.0220682 0)
(1.21091 0.0220939 0)
(1.20875 0.0220954 0)
(1.20659 0.0220744 0)
(1.20442 0.0220326 0)
(1.20225 0.0219719 0)
(1.20008 0.0218937 0)
(1.19791 0.0217996 0)
(1.19574 0.021691 0)
(1.19357 0.0215694 0)
(1.1914 0.0214362 0)
(1.18923 0.0212924 0)
(1.18707 0.0211394 0)
(1.1849 0.0209783 0)
(1.18274 0.0208101 0)
(1.18058 0.0206359 0)
(1.17843 0.0204565 0)
(1.17628 0.0202729 0)
(1.26986 0.000315984 0)
(1.26849 0.00224535 0)
(1.26681 0.0038911 0)
(1.26521 0.0053364 0)
(1.26362 0.0066512 0)
(1.26204 0.00788143 0)
(1.26046 0.00904968 0)
(1.25885 0.0101657 0)
(1.25721 0.0112331 0)
(1.25553 0.0122525 0)
(1.25381 0.0132234 0)
(1.25206 0.0141448 0)
(1.25026 0.0150158 0)
(1.24842 0.0158356 0)
(1.24655 0.0166038 0)
(1.24464 0.01732 0)
(1.2427 0.0179845 0)
(1.24073 0.0185976 0)
(1.23874 0.01916 0)
(1.23672 0.0196727 0)
(1.23467 0.0201368 0)
(1.23261 0.0205537 0)
(1.23052 0.0209251 0)
(1.22842 0.0212526 0)
(1.22631 0.021538 0)
(1.22418 0.0217833 0)
(1.22205 0.0219905 0)
(1.2199 0.0221615 0)
(1.21774 0.0222983 0)
(1.21558 0.022403 0)
(1.21341 0.0224777 0)
(1.21124 0.0225241 0)
(1.20906 0.0225443 0)
(1.20688 0.0225402 0)
(1.2047 0.0225135 0)
(1.20251 0.0224661 0)
(1.20032 0.0223995 0)
(1.19814 0.0223155 0)
(1.19595 0.0222156 0)
(1.19376 0.0221012 0)
(1.19157 0.0219737 0)
(1.18939 0.0218345 0)
(1.18721 0.0216849 0)
(1.18503 0.021526 0)
(1.18285 0.0213591 0)
(1.18067 0.021185 0)
(1.1785 0.0210049 0)
(1.17634 0.0208197 0)
(1.17418 0.0206303 0)
(1.26929 0.000755184 0)
(1.26771 0.00276923 0)
(1.2659 0.00441565 0)
(1.26423 0.00583941 0)
(1.2626 0.00713843 0)
(1.26099 0.00836058 0)
(1.25937 0.00952667 0)
(1.25773 0.0106442 0)
(1.25605 0.0117149 0)
(1.25434 0.0127386 0)
(1.25259 0.0137139 0)
(1.25079 0.0146395 0)
(1.24896 0.0155142 0)
(1.24708 0.0163371 0)
(1.24517 0.0171077 0)
(1.24323 0.0178255 0)
(1.24126 0.0184908 0)
(1.23925 0.019104 0)
(1.23722 0.0196658 0)
(1.23517 0.0201772 0)
(1.23309 0.0206394 0)
(1.231 0.0210538 0)
(1.22888 0.0214222 0)
(1.22676 0.0217462 0)
(1.22461 0.0220278 0)
(1.22246 0.0222689 0)
(1.2203 0.0224715 0)
(1.21813 0.0226376 0)
(1.21595 0.0227694 0)
(1.21376 0.0228689 0)
(1.21157 0.0229382 0)
(1.20937 0.0229791 0)
(1.20718 0.0229937 0)
(1.20497 0.0229838 0)
(1.20277 0.0229514 0)
(1.20057 0.0228981 0)
(1.19836 0.0228256 0)
(1.19616 0.0227357 0)
(1.19395 0.0226298 0)
(1.19175 0.0225094 0)
(1.18955 0.022376 0)
(1.18735 0.0222309 0)
(1.18515 0.0220753 0)
(1.18296 0.0219105 0)
(1.18077 0.0217375 0)
(1.17858 0.0215576 0)
(1.1764 0.0213716 0)
(1.17422 0.0211805 0)
(1.17205 0.0209853 0)
(1.2686 0.00127033 0)
(1.2668 0.00334164 0)
(1.26488 0.0049623 0)
(1.26317 0.00635164 0)
(1.26151 0.00763093 0)
(1.25987 0.00884427 0)
(1.25823 0.0100084 0)
(1.25655 0.0111276 0)
(1.25484 0.012202 0)
(1.25309 0.0132299 0)
(1.25131 0.0142096 0)
(1.24947 0.0151392 0)
(1.2476 0.0160174 0)
(1.24569 0.0168432 0)
(1.24375 0.0176157 0)
(1.24177 0.0183349 0)
(1.23976 0.0190007 0)
(1.23772 0.0196136 0)
(1.23566 0.0201744 0)
(1.23358 0.0206841 0)
(1.23147 0.021144 0)
(1.22934 0.0215556 0)
(1.2272 0.0219207 0)
(1.22505 0.0222409 0)
(1.22288 0.0225184 0)
(1.2207 0.0227549 0)
(1.21851 0.0229528 0)
(1.21631 0.0231139 0)
(1.21411 0.0232404 0)
(1.2119 0.0233345 0)
(1.20969 0.0233981 0)
(1.20747 0.0234334 0)
(1.20525 0.0234422 0)
(1.20303 0.0234264 0)
(1.20081 0.023388 0)
(1.19859 0.0233288 0)
(1.19637 0.0232503 0)
(1.19414 0.0231543 0)
(1.19192 0.0230424 0)
(1.18971 0.022916 0)
(1.18749 0.0227765 0)
(1.18528 0.0226253 0)
(1.18307 0.0224637 0)
(1.18086 0.0222928 0)
(1.17866 0.0221139 0)
(1.17646 0.021928 0)
(1.17427 0.021736 0)
(1.17208 0.021539 0)
(1.1699 0.0213378 0)
(1.26774 0.00188224 0)
(1.26572 0.003955 0)
(1.26375 0.00551894 0)
(1.26202 0.00686408 0)
(1.26035 0.00812261 0)
(1.25869 0.00932812 0)
(1.25702 0.0104914 0)
(1.25532 0.0116132 0)
(1.25358 0.0126917 0)
(1.2518 0.0137243 0)
(1.24997 0.0147085 0)
(1.24811 0.0156423 0)
(1.2462 0.0165239 0)
(1.24426 0.0173523 0)
(1.24228 0.0181268 0)
(1.24026 0.018847 0)
(1.23822 0.0195131 0)
(1.23615 0.0201255 0)
(1.23406 0.0206851 0)
(1.23194 0.0211929 0)
(1.2298 0.0216504 0)
(1.22765 0.0220589 0)
(1.22548 0.0224204 0)
(1.22329 0.0227367 0)
(1.2211 0.0230098 0)
(1.21889 0.0232417 0)
(1.21668 0.0234345 0)
(1.21446 0.0235904 0)
(1.21224 0.0237116 0)
(1.21001 0.0238 0)
(1.20777 0.0238579 0)
(1.20553 0.0238873 0)
(1.2033 0.0238902 0)
(1.20106 0.0238684 0)
(1.19882 0.023824 0)
(1.19658 0.0237586 0)
(1.19434 0.023674 0)
(1.1921 0.0235719 0)
(1.18987 0.0234538 0)
(1.18763 0.0233212 0)
(1.1854 0.0231756 0)
(1.18318 0.0230183 0)
(1.18095 0.0228505 0)
(1.17873 0.0226736 0)
(1.17652 0.0224886 0)
(1.17431 0.0222966 0)
(1.17211 0.0220986 0)
(1.16991 0.0218956 0)
(1.16772 0.0216885 0)
(1.26664 0.0026052 0)
(1.26447 0.00458229 0)
(1.2625 0.00606005 0)
(1.26078 0.00735814 0)
(1.25912 0.00859912 0)
(1.25745 0.00979984 0)
(1.25576 0.0109645 0)
(1.25403 0.0120906 0)
(1.25226 0.0131744 0)
(1.25045 0.0142125 0)
(1.24859 0.0152018 0)
(1.24669 0.0161401 0)
(1.24475 0.0170256 0)
(1.24277 0.017857 0)
(1.24076 0.0186336 0)
(1.23871 0.0193551 0)
(1.23664 0.0200216 0)
(1.23453 0.0206337 0)
(1.23241 0.0211922 0)
(1.23026 0.0216983 0)
(1.22809 0.0221533 0)
(1.22591 0.0225589 0)
(1.22371 0.0229169 0)
(1.2215 0.0232293 0)
(1.21928 0.0234981 0)
(1.21705 0.0237253 0)
(1.21481 0.0239132 0)
(1.21257 0.0240639 0)
(1.21032 0.0241797 0)
(1.20807 0.0242626 0)
(1.20582 0.0243148 0)
(1.20356 0.0243383 0)
(1.20131 0.0243353 0)
(1.19905 0.0243075 0)
(1.19679 0.024257 0)
(1.19453 0.0241856 0)
(1.19228 0.0240949 0)
(1.19003 0.0239866 0)
(1.18778 0.0238623 0)
(1.18553 0.0237236 0)
(1.18329 0.0235718 0)
(1.18105 0.0234084 0)
(1.17881 0.0232345 0)
(1.17658 0.0230514 0)
(1.17436 0.0228603 0)
(1.17214 0.0226622 0)
(1.16992 0.0224582 0)
(1.16772 0.0222492 0)
(1.16552 0.0220361 0)
(1.2652 0.00340889 0)
(1.26304 0.00519598 0)
(1.26115 0.00657668 0)
(1.25948 0.00783312 0)
(1.25782 0.00906265 0)
(1.25615 0.0102623 0)
(1.25444 0.0114302 0)
(1.25269 0.0125614 0)
(1.25089 0.0136508 0)
(1.24905 0.0146943 0)
(1.24716 0.0156886 0)
(1.24522 0.0166311 0)
(1.24325 0.01752 0)
(1.24124 0.0183539 0)
(1.23919 0.0191321 0)
(1.23711 0.0198544 0)
(1.235 0.0205209 0)
(1.23287 0.0211321 0)
(1.23071 0.0216891 0)
(1.22854 0.022193 0)
(1.22634 0.0226452 0)
(1.22413 0.0230476 0)
(1.22191 0.0234019 0)
(1.21967 0.0237101 0)
(1.21742 0.0239743 0)
(1.21517 0.0241967 0)
(1.21291 0.0243796 0)
(1.21065 0.024525 0)
(1.20838 0.0246353 0)
(1.20611 0.0247126 0)
(1.20383 0.0247591 0)
(1.20156 0.0247769 0)
(1.19928 0.024768 0)
(1.19701 0.0247344 0)
(1.19473 0.0246779 0)
(1.19246 0.0246005 0)
(1.19019 0.0245038 0)
(1.18792 0.0243895 0)
(1.18566 0.0242593 0)
(1.1834 0.0241146 0)
(1.18114 0.0239569 0)
(1.17889 0.0237874 0)
(1.17664 0.0236076 0)
(1.1744 0.0234187 0)
(1.17217 0.0232217 0)
(1.16994 0.0230178 0)
(1.16772 0.0228079 0)
(1.1655 0.0225931 0)
(1.16329 0.0223743 0)
(1.26065 0.00542986 6.75178e-21)
(1.2593 0.00675676 -3.01204e-21)
(1.25781 0.00795761 3.15628e-20)
(1.25629 0.0091272 -8.1705e-21)
(1.25468 0.0103343 -8.23214e-21)
(1.253 0.0115305 -2.4378e-20)
(1.25125 0.0126988 3.30309e-20)
(1.24945 0.013832 1.17218e-20)
(1.24759 0.0149232 -8.046e-21)
(1.24568 0.0159669 -1.35537e-20)
(1.24372 0.0169597 1.11702e-20)
(1.24171 0.0178988 -1.30218e-20)
(1.23966 0.0187824 1.85076e-20)
(1.23758 0.0196092 -1.48159e-20)
(1.23546 0.0203785 3.41573e-21)
(1.23331 0.0210904 -1.18974e-20)
(1.23114 0.021745 5.40823e-21)
(1.22894 0.0223431 1.06982e-20)
(1.22672 0.0228858 -5.67297e-21)
(1.22448 0.0233746 -5.60806e-21)
(1.22222 0.0238109 4.72759e-21)
(1.21995 0.0241968 -1.96039e-21)
(1.21767 0.0245341 6.96979e-21)
(1.21539 0.024825 -1.19057e-20)
(1.21309 0.0250718 -1.68348e-21)
(1.21079 0.0252766 -5.40277e-21)
(1.20848 0.0254418 1.76199e-20)
(1.20617 0.0255697 -2.11485e-20)
(1.20386 0.0256625 2.02586e-20)
(1.20155 0.0257225 -1.59853e-20)
(1.19924 0.0257519 9.19486e-22)
(1.19693 0.0257527 1.198e-20)
(1.19462 0.0257271 4.10905e-21)
(1.19231 0.025677 -1.13313e-20)
(1.19001 0.0256044 1.12059e-20)
(1.18771 0.025511 -5.42241e-22)
(1.18541 0.0253987 -7.46312e-21)
(1.18312 0.0252691 -8.01281e-22)
(1.18083 0.0251237 4.54914e-21)
(1.17854 0.0249641 -5.27397e-21)
(1.17627 0.0247918 -5.69733e-22)
(1.17399 0.0246079 2.45216e-21)
(1.17173 0.024414 8.68083e-22)
(1.16947 0.024211 5.72127e-23)
(1.16722 0.0240003 -2.49053e-21)
(1.16497 0.0237828 2.07636e-21)
(1.16274 0.0235596 1.81422e-21)
(1.16051 0.0233316 -3.36134e-21)
(1.15829 0.0230998 -3.51821e-22)
(1.25474 0.00729 -1.86096e-20)
(1.25337 0.00890948 -1.66054e-20)
(1.25189 0.0103651 1.61235e-20)
(1.25038 0.0116443 1.58487e-20)
(1.24873 0.0128924 6.46057e-21)
(1.24698 0.014103 -2.04139e-20)
(1.24515 0.0152622 -2.42967e-21)
(1.24325 0.0163708 -1.4419e-20)
(1.24129 0.0174274 -1.09602e-21)
(1.23926 0.0184296 1.5522e-20)
(1.23719 0.0193756 -1.3036e-21)
(1.23507 0.020264 -2.51165e-20)
(1.23291 0.021094 3.81384e-20)
(1.23072 0.0218651 -1.12098e-20)
(1.22849 0.0225775 4.18304e-21)
(1.22624 0.0232317 1.32577e-20)
(1.22396 0.0238284 -1.46893e-20)
(1.22166 0.0243689 -6.71975e-21)
(1.21935 0.0248548 1.17827e-20)
(1.21702 0.0252876 3.65954e-21)
(1.21468 0.0256694 4.13457e-23)
(1.21233 0.0260022 -2.57293e-20)
(1.20997 0.0262882 2.94797e-20)
(1.20761 0.0265296 -2.38957e-20)
(1.20525 0.0267288 1.03922e-21)
(1.20288 0.026888 5.93656e-21)
(1.20051 0.0270097 -8.10121e-21)
(1.19815 0.027096 1.34444e-20)
(1.19578 0.0271492 5.43652e-21)
(1.19342 0.0271714 -1.63207e-20)
(1.19106 0.0271649 -5.40644e-21)
(1.1887 0.0271317 1.42666e-20)
(1.18635 0.0270737 -1.2055e-20)
(1.184 0.0269929 2.28335e-21)
(1.18166 0.026891 -3.16979e-21)
(1.17933 0.0267697 1.35581e-20)
(1.177 0.0266309 -8.61688e-21)
(1.17468 0.0264759 4.41811e-21)
(1.17237 0.0263064 4.52779e-22)
(1.17006 0.0261237 -1.41072e-21)
(1.16776 0.0259292 1.4638e-21)
(1.16547 0.0257241 -3.70273e-21)
(1.16319 0.0255097 4.6797e-21)
(1.16092 0.0252871 -3.79292e-22)
(1.15865 0.0250573 -2.76904e-22)
(1.1564 0.0248215 -5.99662e-21)
(1.15416 0.0245805 6.17058e-21)
(1.15193 0.0243352 -1.79966e-22)
(1.1497 0.0240865 -4.45898e-22)
(1.24883 0.00963162 4.95648e-20)
(1.24722 0.0111808 -3.54329e-20)
(1.24553 0.0126759 9.76631e-21)
(1.24385 0.0139911 1.01526e-20)
(1.24208 0.0152512 -2.75943e-20)
(1.2402 0.0164639 2.35016e-20)
(1.23825 0.0176154 -2.42873e-20)
(1.23623 0.0187063 1.08163e-20)
(1.23414 0.0197378 4.58373e-21)
(1.232 0.0207088 3.27871e-20)
(1.22981 0.0216187 -4.66837e-20)
(1.22758 0.022467 1.35116e-20)
(1.22531 0.0232538 9.70042e-21)
(1.223 0.0239794 -7.91049e-21)
(1.22067 0.0246446 -3.50546e-21)
(1.21832 0.0252503 -4.5859e-21)
(1.21595 0.0257981 2.84591e-20)
(1.21356 0.0262895 -2.13894e-20)
(1.21115 0.0267264 2.30474e-20)
(1.20874 0.0271108 -4.81155e-21)
(1.20632 0.0274451 -2.19544e-20)
(1.2039 0.0277314 6.98925e-21)
(1.20147 0.0279721 1.80917e-21)
(1.19905 0.0281696 4.0915e-21)
(1.19662 0.0283263 -6.22074e-21)
(1.19419 0.0284446 -2.76998e-21)
(1.19177 0.0285269 6.54115e-21)
(1.18935 0.0285753 -1.79965e-21)
(1.18694 0.0285922 1.13069e-21)
(1.18453 0.0285797 6.93462e-21)
(1.18213 0.0285399 -7.16557e-22)
(1.17974 0.0284749 -6.62013e-21)
(1.17735 0.0283864 -3.86195e-21)
(1.17498 0.0282764 1.47205e-20)
(1.17261 0.0281465 -5.216e-21)
(1.17025 0.0279986 -5.8605e-21)
(1.1679 0.0278341 6.34944e-21)
(1.16555 0.0276546 -1.75012e-22)
(1.16322 0.0274614 -1.60309e-21)
(1.1609 0.027256 2.14013e-21)
(1.15859 0.0270396 -1.49726e-21)
(1.15629 0.0268135 1.79508e-21)
(1.154 0.0265787 -3.07352e-21)
(1.15172 0.0263364 8.21791e-22)
(1.14945 0.0260875 1.73311e-21)
(1.1472 0.0258332 -5.72597e-21)
(1.14496 0.0255741 5.08106e-21)
(1.14273 0.0253113 -1.8055e-22)
(1.14051 0.0250455 -4.27559e-21)
(1.24227 0.0122944 2.24126e-20)
(1.24041 0.0137692 1.56279e-20)
(1.23846 0.0152333 -1.25265e-20)
(1.23657 0.0165303 -1.76547e-20)
(1.23462 0.0177695 -6.29112e-22)
(1.23258 0.0189608 3.04482e-20)
(1.23048 0.0200882 1.16439e-20)
(1.22832 0.0211501 1.27226e-21)
(1.2261 0.0221477 -4.21976e-22)
(1.22383 0.0230805 6.99084e-22)
(1.22152 0.0239482 -3.96809e-21)
(1.21917 0.0247512 8.10094e-22)
(1.21679 0.0254902 -2.86345e-20)
(1.21438 0.0261662 -3.47248e-21)
(1.21195 0.0267805 -8.29724e-21)
(1.2095 0.0273346 3.26347e-20)
(1.20703 0.0278305 -5.85598e-21)
(1.20456 0.0282702 1.56225e-20)
(1.20208 0.0286559 -2.01499e-20)
(1.19959 0.0289899 -5.44124e-21)
(1.1971 0.0292748 -8.35546e-21)
(1.19461 0.0295129 -5.28894e-21)
(1.19212 0.0297067 2.26002e-20)
(1.18964 0.0298588 -9.35401e-21)
(1.18716 0.0299716 -8.5037e-21)
(1.18468 0.0300476 1.28098e-20)
(1.18222 0.0300891 2.25111e-21)
(1.17976 0.0300983 -3.96256e-21)
(1.1773 0.0300776 8.80445e-21)
(1.17486 0.0300289 1.04689e-21)
(1.17243 0.0299545 -1.12189e-20)
(1.17001 0.0298561 3.06547e-21)
(1.1676 0.0297357 1.57558e-21)
(1.16519 0.029595 -3.4984e-21)
(1.16281 0.0294357 6.14151e-21)
(1.16043 0.0292594 -4.26277e-21)
(1.15806 0.0290677 -1.20269e-21)
(1.15571 0.0288619 -1.41925e-21)
(1.15337 0.0286435 5.47006e-21)
(1.15104 0.0284137 -3.97846e-21)
(1.14872 0.0281737 4.05314e-21)
(1.14642 0.0279247 -2.0524e-21)
(1.14413 0.0276678 1.31828e-22)
(1.14185 0.027404 -9.63765e-23)
(1.13959 0.0271344 -1.79793e-21)
(1.13735 0.0268597 4.52777e-22)
(1.13511 0.026581 1.77331e-21)
(1.13289 0.0262989 7.896e-22)
(1.23476 0.015124 9.54154e-21)
(1.23268 0.01655 2.21563e-20)
(1.23049 0.0179822 -1.38934e-22)
(1.22838 0.0192478 1.66041e-20)
(1.22623 0.0204531 -3.51863e-21)
(1.22402 0.0216096 -3.20939e-20)
(1.22175 0.0227001 3.0957e-20)
(1.21943 0.0237215 -6.69672e-21)
(1.21707 0.0246749 -1.94549e-22)
(1.21467 0.0255601 -1.65666e-20)
(1.21224 0.0263774 2.23165e-20)
(1.20978 0.0271276 -3.19884e-22)
(1.20729 0.0278119 -1.58332e-20)
(1.20478 0.028432 -4.03421e-21)
(1.20225 0.0289895 7.39699e-21)
(1.19971 0.0294867 -5.59504e-22)
(1.19717 0.0299259 -5.92067e-21)
(1.19461 0.0303093 4.23824e-21)
(1.19206 0.0306396 -6.34655e-21)
(1.18951 0.0309194 -1.28792e-20)
(1.18696 0.0311513 1.95235e-21)
(1.18441 0.0313379 1.24512e-20)
(1.18187 0.0314819 -5.9912e-21)
(1.17934 0.0315858 -6.5005e-21)
(1.17682 0.0316521 1.56965e-20)
(1.1743 0.0316832 -3.17958e-21)
(1.1718 0.0316816 7.23372e-21)
(1.16931 0.0316495 -1.07266e-22)
(1.16683 0.031589 -6.72318e-22)
(1.16436 0.0315022 -1.59839e-20)
(1.16191 0.0313911 2.62244e-20)
(1.15947 0.0312576 -8.50689e-21)
(1.15704 0.0311035 -3.01305e-21)
(1.15462 0.0309304 -5.6846e-22)
(1.15223 0.03074 1.20547e-21)
(1.14984 0.0305338 2.41524e-21)
(1.14747 0.0303133 -6.18865e-21)
(1.14511 0.0300797 -2.00306e-21)
(1.14277 0.0298345 3.4366e-21)
(1.14045 0.0295788 -3.64706e-21)
(1.13814 0.0293138 3.23382e-21)
(1.13584 0.0290406 3.87707e-21)
(1.13356 0.0287602 -9.62577e-22)
(1.1313 0.0284737 -1.69042e-21)
(1.12905 0.0281819 4.09684e-22)
(1.12682 0.0278857 1.61644e-21)
(1.12461 0.0275859 3.49283e-22)
(1.12241 0.0272834 -4.1799e-22)
(1.22611 0.0181209 -8.83772e-21)
(1.22384 0.0195033 -1.4889e-20)
(1.22143 0.0209001 8.79388e-21)
(1.21912 0.0221223 9.70373e-21)
(1.21678 0.02328 -2.29085e-20)
(1.21439 0.0243877 3.56243e-20)
(1.21196 0.0254277 -2.72282e-20)
(1.20949 0.0263963 1.5946e-20)
(1.20699 0.0272945 7.63358e-21)
(1.20446 0.0281225 -1.7855e-20)
(1.2019 0.0288807 -2.70556e-21)
(1.19933 0.0295704 1.23223e-20)
(1.19673 0.0301933 7.87211e-21)
(1.19413 0.0307514 -3.28155e-20)
(1.19152 0.0312469 4.08748e-20)
(1.1889 0.0316825 -3.74666e-20)
(1.18628 0.0320606 2.56701e-20)
(1.18366 0.032384 -4.95986e-21)
(1.18105 0.0326556 -7.20714e-21)
(1.17844 0.032878 -4.47784e-22)
(1.17584 0.0330541 5.90022e-21)
(1.17325 0.0331867 6.252e-21)
(1.17067 0.0332784 -1.72729e-20)
(1.1681 0.0333319 6.50067e-21)
(1.16555 0.0333496 9.37631e-21)
(1.16301 0.0333341 -6.15723e-21)
(1.16048 0.0332875 3.68828e-21)
(1.15797 0.0332123 -1.16426e-20)
(1.15547 0.0331104 1.89003e-20)
(1.15299 0.0329839 -1.95076e-20)
(1.15053 0.0328347 8.19061e-21)