/*--------------------------------*- C++ -*----------------------------------*\
  =========                 |
  \\      /  F ield         | OpenFOAM: The Open Source CFD Toolbox
   \\    /   O peration     | Website:  https://openfoam.org
    \\  /    A nd           | Version:  7
     \\/     M anipulation  |
\*---------------------------------------------------------------------------*/
FoamFile
{
    version     2.0;
    format      ascii;
    class       volScalarField;
    location    "15";
    object      p;
}
// * * * * * * * * * * * * * * * * * * * * * * * * * * * * * * * * * * * * * //

dimensions      [0 2 -2 0 0 0 0];

internalField   nonuniform List<scalar> 
21000
(
-0.171665
-0.153853
-0.141327
-0.123136
-0.117304
-0.0967221
-0.171718
-0.153893
-0.141393
-0.12314
-0.117441
-0.0965539
-0.171822
-0.153973
-0.141524
-0.123148
-0.117712
-0.0962216
-0.171978
-0.154093
-0.141719
-0.123163
-0.118113
-0.0957335
-0.172183
-0.154252
-0.141975
-0.123184
-0.118636
-0.0951019
-0.172438
-0.15445
-0.142289
-0.123215
-0.119272
-0.0943424
-0.172739
-0.154686
-0.142659
-0.123258
-0.120009
-0.0934743
-0.173085
-0.154959
-0.143081
-0.123316
-0.120834
-0.0925192
-0.173473
-0.155269
-0.143548
-0.123392
-0.121732
-0.0915014
-0.155612
-0.144058
-0.123488
-0.122689
-0.0904465
-0.155989
-0.144603
-0.123609
-0.123687
-0.0893815
-0.156396
-0.145177
-0.123756
-0.124709
-0.0883333
-0.156832
-0.145775
-0.123933
-0.12574
-0.0873288
-0.157293
-0.14639
-0.124142
-0.126762
-0.0863938
-0.157778
-0.147014
-0.124384
-0.127761
-0.0855524
-0.158281
-0.14764
-0.12466
-0.12872
-0.0848261
-0.1588
-0.148262
-0.12497
-0.129625
-0.0842339
-0.159329
-0.148872
-0.125312
-0.130465
-0.083791
-0.159864
-0.149462
-0.125685
-0.131228
-0.0835088
-0.160399
-0.150026
-0.126085
-0.131903
-0.0833947
-0.160929
-0.150557
-0.126508
-0.132483
-0.0834518
-0.161447
-0.151047
-0.126948
-0.132961
-0.0836788
-0.15149
-0.127401
-0.133331
-0.0840705
-0.151879
-0.127858
-0.13359
-0.0846176
-0.152208
-0.128313
-0.133735
-0.0853074
-0.152471
-0.128758
-0.133767
-0.0861243
-0.152662
-0.129185
-0.133684
-0.0870503
-0.152777
-0.129585
-0.133488
-0.0880653
-0.15281
-0.12995
-0.133181
-0.0891484
-0.152756
-0.130271
-0.132765
-0.0902778
-0.130542
-0.132244
-0.091432
-0.130754
-0.131618
-0.0925898
-0.130899
-0.130892
-0.0937312
-0.130972
-0.130066
-0.0948389
-0.130966
-0.129142
-0.095901
-0.130875
-0.12812
-0.0969083
-0.126994
-0.0978339
-0.125752
-0.0986382
-0.124376
-0.0994701
-0.122889
-0.100995
-0.103659
-0.104733
-0.105037
-0.104986
-0.105014
-0.105062
-0.104757
-0.103691
-0.122874
-0.101005
-0.124363
-0.0994712
-0.125742
-0.0986405
-0.126985
-0.0978372
-0.130878
-0.128112
-0.0969113
-0.130968
-0.129136
-0.0959036
-0.130974
-0.130061
-0.0948412
-0.130901
-0.130887
-0.0937332
-0.130755
-0.131614
-0.0925916
-0.130543
-0.13224
-0.0914335
-0.152754
-0.130272
-0.132762
-0.0902791
-0.152808
-0.12995
-0.133178
-0.0891494
-0.152775
-0.129585
-0.133485
-0.0880661
-0.152661
-0.129185
-0.133681
-0.0870508
-0.152469
-0.128758
-0.133765
-0.0861247
-0.152206
-0.128313
-0.133734
-0.0853076
-0.151877
-0.127858
-0.133588
-0.0846177
-0.161947
-0.151488
-0.127401
-0.133329
-0.0840705
-0.161447
-0.151046
-0.126948
-0.132959
-0.0836787
-0.160929
-0.150556
-0.126507
-0.132482
-0.0834515
-0.160399
-0.150025
-0.126085
-0.131902
-0.0833944
-0.159864
-0.149461
-0.125685
-0.131227
-0.0835084
-0.159329
-0.148871
-0.125312
-0.130464
-0.0837905
-0.1588
-0.148261
-0.12497
-0.129624
-0.0842334
-0.158281
-0.147639
-0.12466
-0.128719
-0.0848257
-0.157778
-0.147013
-0.124384
-0.12776
-0.0855519
-0.157293
-0.146389
-0.124142
-0.126761
-0.0863933
-0.156832
-0.145775
-0.123933
-0.125739
-0.0873283
-0.156396
-0.145177
-0.123756
-0.124708
-0.0883328
-0.155988
-0.144602
-0.123608
-0.123686
-0.089381
-0.155612
-0.144057
-0.123488
-0.122688
-0.0904461
-0.173472
-0.155268
-0.143548
-0.123391
-0.121732
-0.091501
-0.173085
-0.154959
-0.14308
-0.123316
-0.120833
-0.0925188
-0.172739
-0.154686
-0.142659
-0.123258
-0.120009
-0.0934739
-0.172438
-0.15445
-0.142289
-0.123215
-0.119272
-0.0943421
-0.172183
-0.154252
-0.141974
-0.123184
-0.118636
-0.0951016
-0.171977
-0.154093
-0.141718
-0.123163
-0.118113
-0.0957333
-0.171822
-0.153973
-0.141524
-0.123148
-0.117712
-0.0962215
-0.171718
-0.153893
-0.141393
-0.12314
-0.117441
-0.0965538
-0.171665
-0.153853
-0.141327
-0.123136
-0.117304
-0.0967221
-0.0969162
-0.095903
-0.0944331
-0.09302
-0.0916413
-0.0902511
-0.0888519
-0.0874516
-0.0860536
-0.08466
-0.0832727
-0.0818937
-0.0805245
-0.0791664
-0.0778207
-0.0764882
-0.0751697
-0.073866
-0.0725776
-0.0713048
-0.0700481
-0.0688076
-0.0675835
-0.0663759
-0.0651849
-0.0640104
-0.0628522
-0.0617104
-0.0605846
-0.0594747
-0.0583805
-0.0573016
-0.0562378
-0.0551887
-0.054154
-0.0531333
-0.0521261
-0.0511321
-0.0501509
-0.0491819
-0.0482248
-0.047279
-0.0463441
-0.0454195
-0.0445048
-0.0435995
-0.0427029
-0.0418146
-0.040934
-0.0400606
-0.0391937
-0.0383328
-0.0374773
-0.0366266
-0.03578
-0.0349371
-0.034097
-0.0332592
-0.032423
-0.0315877
-0.0307528
-0.0299175
-0.0290811
-0.0282431
-0.0274026
-0.0265592
-0.0257121
-0.0248608
-0.0240047
-0.0231433
-0.0222761
-0.0214029
-0.0205232
-0.019637
-0.0187441
-0.0178447
-0.0169391
-0.0160277
-0.0151111
-0.0141903
-0.0132665
-0.0123409
-0.0114152
-0.0104913
-0.00957147
-0.00865789
-0.0077533
-0.00685983
-0.00598151
-0.00511745
-0.00427876
-0.00344589
-0.00267247
-0.00183472
-0.00122328
-0.00016478
-0.000179462
0.00214995
-0.000691336
0.00768018
-0.0970905
-0.0960801
-0.0945788
-0.0931465
-0.0917553
-0.090354
-0.088945
-0.0875363
-0.0861311
-0.0847312
-0.0833385
-0.0819547
-0.0805814
-0.0792197
-0.0778707
-0.0765354
-0.0752144
-0.0739085
-0.072618
-0.0713434
-0.070085
-0.068843
-0.0676175
-0.0664087
-0.0652164
-0.0640408
-0.0628816
-0.0617388
-0.0606121
-0.0595014
-0.0584063
-0.0573267
-0.0562621
-0.0552123
-0.0541769
-0.0531556
-0.0521478
-0.0511532
-0.0501714
-0.0492019
-0.0482442
-0.0472979
-0.0463625
-0.0454375
-0.0445224
-0.0436166
-0.0427196
-0.0418309
-0.04095
-0.0400762
-0.0392089
-0.0383477
-0.0374919
-0.0366409
-0.0357941
-0.0349508
-0.0341105
-0.0332725
-0.0324361
-0.0316006
-0.0307655
-0.02993
-0.0290935
-0.0282553
-0.0274148
-0.0265712
-0.025724
-0.0248726
-0.0240164
-0.0231549
-0.0222877
-0.0214144
-0.0205346
-0.0196483
-0.0187554
-0.0178559
-0.0169502
-0.0160387
-0.015122
-0.0142011
-0.0132771
-0.0123513
-0.0114255
-0.0105014
-0.00958133
-0.00866751
-0.00776266
-0.00686893
-0.00599033
-0.005126
-0.00428702
-0.00345392
-0.0026802
-0.00184241
-0.00123047
-0.000172824
-0.000185501
0.00213881
-0.000691851
0.00765385
-0.0974364
-0.0964317
-0.0948687
-0.0933982
-0.0919823
-0.0905592
-0.0891306
-0.0877052
-0.0862856
-0.0848733
-0.0834698
-0.0820767
-0.0806951
-0.0793262
-0.0779708
-0.0766298
-0.0753038
-0.0739934
-0.0726988
-0.0714206
-0.0701588
-0.0689138
-0.0676855
-0.0664741
-0.0652795
-0.0641016
-0.0629404
-0.0617956
-0.0606671
-0.0595547
-0.058458
-0.0573768
-0.0563108
-0.0552596
-0.0542229
-0.0532002
-0.0521912
-0.0511954
-0.0502125
-0.0492419
-0.0482832
-0.0473359
-0.0463995
-0.0454736
-0.0445575
-0.0436509
-0.0427531
-0.0418636
-0.0409819
-0.0401073
-0.0392394
-0.0383776
-0.0375211
-0.0366695
-0.0358222
-0.0349784
-0.0341376
-0.0332991
-0.0324623
-0.0316265
-0.030791
-0.0299552
-0.0291183
-0.0282799
-0.027439
-0.0265952
-0.0257478
-0.0248962
-0.0240399
-0.0231782
-0.0223108
-0.0214374
-0.0205575
-0.019671
-0.0187779
-0.0178783
-0.0169723
-0.0160606
-0.0151437
-0.0142225
-0.0132982
-0.0123721
-0.0114459
-0.0105214
-0.00960092
-0.00868662
-0.00778127
-0.00688701
-0.00600785
-0.00514297
-0.00430343
-0.00346987
-0.00269556
-0.00185771
-0.00124477
-0.000188826
-0.000197504
0.00211661
-0.000692855
0.00760134
-0.0979485
-0.0969528
-0.0952991
-0.0937727
-0.0923205
-0.0908652
-0.0894078
-0.0879576
-0.0865167
-0.085086
-0.0836664
-0.0822593
-0.0808655
-0.0794858
-0.0781209
-0.0767715
-0.075438
-0.0741207
-0.0728201
-0.0715364
-0.0702696
-0.06902
-0.0677876
-0.0665723
-0.0653741
-0.064193
-0.0630286
-0.061881
-0.0607497
-0.0596347
-0.0585356
-0.0574521
-0.0563838
-0.0553305
-0.0542918
-0.0532672
-0.0522563
-0.0512588
-0.0502741
-0.0493019
-0.0483416
-0.0473928
-0.0464549
-0.0455276
-0.0446102
-0.0437023
-0.0428032
-0.0419126
-0.0410297
-0.0401541
-0.0392851
-0.0384223
-0.0375649
-0.0367125
-0.0358643
-0.0350197
-0.0341782
-0.033339
-0.0325015
-0.0316651
-0.0308291
-0.0299927
-0.0291554
-0.0283165
-0.0274753
-0.0266312
-0.0257834
-0.0249315
-0.0240749
-0.023213
-0.0223453
-0.0214716
-0.0205915
-0.0197048
-0.0188114
-0.0179115
-0.0170053
-0.0160932
-0.015176
-0.0142544
-0.0133296
-0.0124031
-0.0114763
-0.0105512
-0.00963006
-0.00871506
-0.00780895
-0.0069139
-0.00603392
-0.00516823
-0.00432785
-0.0034936
-0.00271841
-0.00188048
-0.00126606
-0.000212683
-0.000215381
0.00208347
-0.000694316
0.00752293
-0.0986185
-0.0976359
-0.0958649
-0.094266
-0.0927668
-0.0912696
-0.0897747
-0.0882921
-0.0868233
-0.0853684
-0.0839278
-0.0825023
-0.0810923
-0.0796984
-0.0783209
-0.0769603
-0.0756168
-0.0742906
-0.0729819
-0.0716909
-0.0704175
-0.0691618
-0.0679238
-0.0667034
-0.0655005
-0.0643149
-0.0631464
-0.0619949
-0.06086
-0.0597415
-0.0586391
-0.0575525
-0.0564813
-0.0554252
-0.0543837
-0.0533565
-0.0523432
-0.0513433
-0.0503563
-0.0493819
-0.0484195
-0.0474686
-0.0465288
-0.0455996
-0.0446804
-0.0437707
-0.04287
-0.0419778
-0.0410934
-0.0402163
-0.039346
-0.0384818
-0.0376232
-0.0367695
-0.0359202
-0.0350746
-0.034232
-0.0333919
-0.0325536
-0.0317163
-0.0308796
-0.0300425
-0.0292046
-0.0283651
-0.0275234
-0.0266787
-0.0258305
-0.0249782
-0.0241212
-0.0232589
-0.0223909
-0.0215169
-0.0206364
-0.0197494
-0.0188557
-0.0179554
-0.0170488
-0.0161363
-0.0152186
-0.0142965
-0.0133711
-0.0124439
-0.0115164
-0.0105905
-0.00966847
-0.00875254
-0.00784544
-0.00694935
-0.00606829
-0.00520155
-0.00436006
-0.00352493
-0.00274858
-0.00191057
-0.00129418
-0.000244241
-0.000238991
0.00203958
-0.000696192
0.00741905
-0.0994358
-0.0984709
-0.0965588
-0.0948727
-0.093317
-0.0917694
-0.0902288
-0.0887068
-0.0872041
-0.0857196
-0.0842532
-0.082805
-0.0813751
-0.0799636
-0.0785706
-0.0771961
-0.0758402
-0.074503
-0.0731843
-0.0718841
-0.0706025
-0.0693393
-0.0680943
-0.0668675
-0.0656586
-0.0644675
-0.0632938
-0.0621374
-0.060998
-0.0598752
-0.0587687
-0.0576782
-0.0566033
-0.0555436
-0.0544988
-0.0534683
-0.0524519
-0.0514489
-0.0504591
-0.0494819
-0.0485168
-0.0475634
-0.0466212
-0.0456895
-0.0447681
-0.0438562
-0.0429534
-0.0420591
-0.0411728
-0.0402939
-0.0394218
-0.0385559
-0.0376957
-0.0368405
-0.0359898
-0.0351428
-0.034299
-0.0334577
-0.0326182
-0.03178
-0.0309422
-0.0301043
-0.0292656
-0.0284253
-0.0275829
-0.0267376
-0.0258888
-0.0250359
-0.0241784
-0.0233156
-0.0224472
-0.0215727
-0.0206918
-0.0198044
-0.0189102
-0.0180095
-0.0171024
-0.0161894
-0.015271
-0.0143483
-0.0134222
-0.0124941
-0.0115657
-0.0106389
-0.00971579
-0.00879871
-0.00789039
-0.00699304
-0.00611066
-0.00524262
-0.00439978
-0.00356358
-0.00278582
-0.00194773
-0.00132891
-0.000283297
-0.000268153
0.00198514
-0.000698426
0.00729027
-0.100387
-0.099445
-0.0973719
-0.0955862
-0.0939659
-0.0923602
-0.0907671
-0.0891994
-0.0876572
-0.0861381
-0.0846415
-0.0831667
-0.0817133
-0.0802811
-0.0788697
-0.0774788
-0.0761082
-0.0747577
-0.0734271
-0.0721161
-0.0708246
-0.0695524
-0.0682991
-0.0670646
-0.0658486
-0.0646508
-0.063471
-0.0623087
-0.0611638
-0.0600358
-0.0589243
-0.0578291
-0.0567498
-0.0556858
-0.0546369
-0.0536025
-0.0525823
-0.0515757
-0.0505824
-0.0496019
-0.0486336
-0.0476771
-0.0467318
-0.0457973
-0.0448731
-0.0439586
-0.0430532
-0.0421565
-0.0412678
-0.0403866
-0.0395124
-0.0386445
-0.0377823
-0.0369253
-0.0360728
-0.0352242
-0.0343788
-0.033536
-0.0326952
-0.0318557
-0.0310167
-0.0301777
-0.0293379
-0.0284967
-0.0276534
-0.0268073
-0.0259578
-0.0251043
-0.0242461
-0.0233828
-0.0225138
-0.0216387
-0.0207573
-0.0198693
-0.0189746
-0.0180733
-0.0171656
-0.0162519
-0.0153329
-0.0144093
-0.0134824
-0.0125534
-0.0116239
-0.0106959
-0.00977157
-0.00885315
-0.0079434
-0.00704456
-0.00616064
-0.00529109
-0.00444667
-0.00360924
-0.00282982
-0.00199171
-0.00136998
-0.000329604
-0.000302644
0.00192047
-0.000700944
0.00713727
-0.101455
-0.100543
-0.0982931
-0.0963981
-0.0947069
-0.0930369
-0.0913852
-0.0897665
-0.0881799
-0.0866219
-0.085091
-0.083586
-0.082106
-0.0806501
-0.0792176
-0.0778079
-0.0764204
-0.0750546
-0.0737102
-0.0723868
-0.0710838
-0.0698011
-0.0685382
-0.0672947
-0.0660704
-0.0648649
-0.0636778
-0.0625088
-0.0613574
-0.0602233
-0.0591061
-0.0580054
-0.0569208
-0.0558518
-0.0547981
-0.0537591
-0.0527345
-0.0517237
-0.0507263
-0.0497418
-0.0487697
-0.0478095
-0.0468607
-0.0459229
-0.0449953
-0.0440777
-0.0431693
-0.0422697
-0.0413782
-0.0404944
-0.0396176
-0.0387473
-0.0378828
-0.0370236
-0.036169
-0.0353184
-0.0344712
-0.0336266
-0.0327842
-0.0319431
-0.0311027
-0.0302624
-0.0294214
-0.028579
-0.0277347
-0.0268876
-0.0260372
-0.0251828
-0.0243238
-0.0234598
-0.0225901
-0.0217144
-0.0208323
-0.0199437
-0.0190483
-0.0181464
-0.0172379
-0.0163235
-0.0154036
-0.0144791
-0.0135511
-0.012621
-0.0116904
-0.0107611
-0.0098353
-0.00891535
-0.00800398
-0.00710347
-0.00621779
-0.00534655
-0.00450034
-0.00366153
-0.00288023
-0.00204216
-0.00141709
-0.000382873
-0.000342201
0.00184587
-0.000703663
0.00696086
-0.102623
-0.101748
-0.0993095
-0.0972983
-0.0955318
-0.0937931
-0.0920782
-0.0904041
-0.088769
-0.0871685
-0.0855999
-0.0840615
-0.0825519
-0.0810697
-0.0796136
-0.0781828
-0.0767763
-0.0753934
-0.0740335
-0.0726958
-0.07138
-0.0700853
-0.0688114
-0.0675579
-0.0663241
-0.0651098
-0.0639144
-0.0627376
-0.0615788
-0.0604378
-0.059314
-0.058207
-0.0571164
-0.0560416
-0.0549824
-0.0539381
-0.0529084
-0.0518927
-0.0508906
-0.0499015
-0.048925
-0.0479606
-0.0470078
-0.046066
-0.0451347
-0.0442134
-0.0433015
-0.0423985
-0.0415038
-0.0406169
-0.0397372
-0.038864
-0.0379968
-0.0371351
-0.036278
-0.0354251
-0.0345757
-0.0337291
-0.0328848
-0.0320419
-0.0311998
-0.0303579
-0.0295154
-0.0286717
-0.0278261
-0.0269778
-0.0261263
-0.0252709
-0.0244111
-0.0235461
-0.0226756
-0.0217991
-0.0209163
-0.0200269
-0.0191307
-0.018228
-0.0173187
-0.0164033
-0.0154825
-0.014557
-0.0136279
-0.0126965
-0.0117645
-0.0108338
-0.00990639
-0.00898476
-0.0080716
-0.00716923
-0.00628162
-0.00540852
-0.00456035
-0.00372005
-0.00293666
-0.00209873
-0.00146988
-0.000442775
-0.000386525
0.00176175
-0.000706485
0.00676198
-0.103869
-0.103039
-0.100406
-0.0982755
-0.0964314
-0.0946211
-0.0928399
-0.0911072
-0.0894207
-0.0877745
-0.0861654
-0.0845911
-0.0830493
-0.0815384
-0.0800566
-0.0786026
-0.0771753
-0.0757735
-0.0743963
-0.073043
-0.0717127
-0.0704049
-0.0691188
-0.0678538
-0.0666095
-0.0653853
-0.0641806
-0.062995
-0.0618281
-0.0606792
-0.0595479
-0.0584338
-0.0573364
-0.0562552
-0.0551897
-0.0541394
-0.0531039
-0.0520827
-0.0510752
-0.050081
-0.0490996
-0.0481304
-0.0471729
-0.0462266
-0.045291
-0.0443656
-0.0434497
-0.0425428
-0.0416445
-0.040754
-0.0398709
-0.0389945
-0.0381242
-0.0372595
-0.0363996
-0.0355441
-0.0346921
-0.0338432
-0.0329965
-0.0321515
-0.0313075
-0.0304637
-0.0296195
-0.0287742
-0.0279271
-0.0270775
-0.0262247
-0.0253681
-0.0245071
-0.0236412
-0.0227697
-0.0218922
-0.0210085
-0.0201182
-0.0192211
-0.0183174
-0.0174072
-0.0164909
-0.0155689
-0.0146423
-0.0137119
-0.0127792
-0.0118457
-0.0109133
-0.00998424
-0.00906077
-0.00814566
-0.00724129
-0.00635159
-0.00547649
-0.00462619
-0.00378434
-0.00299867
-0.00216102
-0.00152797
-0.000508952
-0.000435285
0.0016685
-0.000709299
0.00654163
-0.105172
-0.104395
-0.101567
-0.0993166
-0.0973949
-0.0955121
-0.093663
-0.0918699
-0.0901299
-0.0884361
-0.0867844
-0.0851719
-0.0835961
-0.0820545
-0.0805451
-0.0790662
-0.0776163
-0.076194
-0.0747981
-0.0734277
-0.0720817
-0.0707593
-0.0694598
-0.0681824
-0.0669264
-0.0656913
-0.0644763
-0.0632811
-0.0621049
-0.0609474
-0.0598078
-0.0586858
-0.0575808
-0.0564924
-0.0554199
-0.054363
-0.053321
-0.0522936
-0.0512801
-0.0502801
-0.0492931
-0.0483185
-0.0473558
-0.0464045
-0.0454641
-0.044534
-0.0436136
-0.0427024
-0.0417999
-0.0409054
-0.0400184
-0.0391383
-0.0382645
-0.0373964
-0.0365334
-0.0356748
-0.03482
-0.0339683
-0.0331191
-0.0322717
-0.0314253
-0.0305794
-0.0297333
-0.0288861
-0.0280372
-0.027186
-0.0263317
-0.0254738
-0.0246115
-0.0237443
-0.0228716
-0.0219931
-0.0211083
-0.0202169
-0.0193188
-0.0184141
-0.0175028
-0.0165853
-0.0156622
-0.0147342
-0.0138025
-0.0128683
-0.0119332
-0.0109991
-0.0100681
-0.00914272
-0.00822553
-0.00731903
-0.00642711
-0.00554992
-0.00469735
-0.0038539
-0.00306579
-0.00222859
-0.00159093
-0.000581013
-0.00048812
0.0015666
-0.000711985
0.00630095
-0.106508
-0.105792
-0.102775
-0.100407
-0.0984104
-0.0964561
-0.0945392
-0.0926853
-0.0908911
-0.0891485
-0.0874529
-0.0858009
-0.0841895
-0.0826157
-0.0810772
-0.0795719
-0.078098
-0.0766538
-0.075238
-0.0738491
-0.0724862
-0.0711482
-0.0698341
-0.0685431
-0.0672745
-0.0660274
-0.0648013
-0.0635955
-0.0624093
-0.0612421
-0.0600935
-0.0589628
-0.0578495
-0.0567531
-0.0556729
-0.0546086
-0.0535595
-0.0525252
-0.0515051
-0.0504987
-0.0495055
-0.0485249
-0.0475564
-0.0465995
-0.0456537
-0.0447184
-0.0437929
-0.0428769
-0.0419697
-0.0410708
-0.0401795
-0.0392952
-0.0384175
-0.0375456
-0.036679
-0.0358169
-0.0349589
-0.0341041
-0.0332519
-0.0324018
-0.0315528
-0.0307045
-0.029856
-0.0290067
-0.0281559
-0.0273028
-0.0264468
-0.0255872
-0.0247234
-0.0238548
-0.0229808
-0.0221009
-0.0212149
-0.0203223
-0.0194231
-0.0185172
-0.0176046
-0.0166859
-0.0157615
-0.0148321
-0.0138989
-0.0129631
-0.0120263
-0.0110903
-0.0101574
-0.00922993
-0.00831055
-0.00740183
-0.00650758
-0.00562821
-0.00477327
-0.00392821
-0.00313752
-0.00230099
-0.00165831
-0.000658547
-0.000544641
0.00145651
-0.000714407
0.00604111
-0.107854
-0.107207
-0.10401
-0.101532
-0.0994646
-0.0974419
-0.0954591
-0.0935456
-0.0916976
-0.0899062
-0.0881663
-0.0864741
-0.0848262
-0.0832193
-0.0816507
-0.0801179
-0.0786188
-0.0771516
-0.0757146
-0.0743063
-0.0729253
-0.0715706
-0.0702409
-0.0689354
-0.0676531
-0.0663933
-0.0651551
-0.0639378
-0.0627407
-0.0615632
-0.0604047
-0.0592646
-0.0581422
-0.057037
-0.0559485
-0.0548761
-0.0538192
-0.0527773
-0.0517499
-0.0507365
-0.0497365
-0.0487493
-0.0477745
-0.0468114
-0.0458596
-0.0449185
-0.0439875
-0.0430661
-0.0421537
-0.0412498
-0.0403537
-0.0394649
-0.0385827
-0.0377066
-0.0368359
-0.0359701
-0.0351083
-0.0342501
-0.0333946
-0.0325413
-0.0316895
-0.0308384
-0.0299873
-0.0291356
-0.0282824
-0.0274272
-0.0265692
-0.0257078
-0.0248422
-0.023972
-0.0230964
-0.0222151
-0.0213277
-0.0204338
-0.0195332
-0.0186259
-0.017712
-0.0167919
-0.015866
-0.0149352
-0.0140003
-0.0130628
-0.0121242
-0.0111863
-0.0102514
-0.0093217
-0.00840005
-0.00748903
-0.00659236
-0.00571077
-0.00485338
-0.00400675
-0.00321334
-0.00237775
-0.00172965
-0.000741125
-0.000604439
0.00133875
-0.000716421
0.00576337
-0.109185
-0.108615
-0.105252
-0.102675
-0.100543
-0.0984574
-0.0964125
-0.094442
-0.0925419
-0.0907028
-0.0889192
-0.087187
-0.0855024
-0.083862
-0.0822626
-0.0807016
-0.0791767
-0.0776856
-0.0762266
-0.0747979
-0.073398
-0.0720256
-0.0706795
-0.0693586
-0.0680618
-0.0667883
-0.0655371
-0.0643076
-0.0630988
-0.0619102
-0.0607411
-0.0595907
-0.0584585
-0.0573439
-0.0562463
-0.0551651
-0.0540998
-0.0530497
-0.0520144
-0.0509933
-0.0499858
-0.0489914
-0.0480096
-0.0470398
-0.0460815
-0.045134
-0.044197
-0.0432697
-0.0423516
-0.0414422
-0.0405408
-0.0396469
-0.0387598
-0.0378791
-0.0370039
-0.0361337
-0.0352679
-0.0344058
-0.0335467
-0.0326899
-0.0318347
-0.0309805
-0.0301265
-0.029272
-0.0284163
-0.0275587
-0.0266984
-0.0258348
-0.0249673
-0.0240952
-0.0232179
-0.0223349
-0.0214458
-0.0205504
-0.0196483
-0.0187395
-0.0178241
-0.0169025
-0.0159751
-0.0150426
-0.014106
-0.0131667
-0.0122262
-0.0112863
-0.0103492
-0.00941732
-0.00849333
-0.00757997
-0.00668082
-0.005797
-0.00493709
-0.00408896
-0.00329272
-0.00245838
-0.00180446
-0.000828304
-0.000667084
0.00121384
-0.00071787
0.00546904
-0.110479
-0.109992
-0.106482
-0.103818
-0.101632
-0.0994898
-0.0973883
-0.0953649
-0.0934159
-0.0915313
-0.0897055
-0.0879343
-0.0862136
-0.0845399
-0.0829097
-0.0813203
-0.0797691
-0.0782536
-0.076772
-0.0753222
-0.0739027
-0.072512
-0.0711487
-0.0698116
-0.0684996
-0.0672116
-0.0659468
-0.0647042
-0.0634831
-0.0622826
-0.0611021
-0.0599408
-0.0587981
-0.0576734
-0.056566
-0.0554754
-0.0544009
-0.053342
-0.0522981
-0.0512687
-0.0502532
-0.049251
-0.0482616
-0.0472845
-0.0463191
-0.0453647
-0.044421
-0.0434872
-0.0425629
-0.0416475
-0.0407403
-0.0398409
-0.0389485
-0.0380625
-0.0371824
-0.0363075
-0.0354372
-0.0345708
-0.0337076
-0.0328469
-0.0319881
-0.0311304
-0.0302731
-0.0294155
-0.0285569
-0.0276966
-0.0268337
-0.0259678
-0.025098
-0.0242237
-0.0233444
-0.0224596
-0.0215687
-0.0206715
-0.0197677
-0.0188573
-0.0179402
-0.0170169
-0.0160878
-0.0151536
-0.0142152
-0.013274
-0.0123315
-0.0113895
-0.0104502
-0.00951609
-0.0085897
-0.00767397
-0.00677232
-0.00588628
-0.00502381
-0.00417429
-0.00337512
-0.0025424
-0.00188223
-0.000919639
-0.000732131
0.00108232
-0.000718584
0.00515946
-0.111713
-0.111314
-0.107681
-0.104946
-0.102716
-0.100526
-0.0983748
-0.0963043
-0.0943108
-0.0923841
-0.0905186
-0.0887102
-0.0869548
-0.0852487
-0.0835883
-0.0819707
-0.0803931
-0.0788532
-0.0773486
-0.0758774
-0.0744378
-0.0730282
-0.0716472
-0.0702933
-0.0689654
-0.0676624
-0.0663832
-0.0651269
-0.0638927
-0.0626797
-0.0614872
-0.0603143
-0.0591605
-0.058025
-0.0569072
-0.0558065
-0.0547222
-0.0536539
-0.0526008
-0.0515625
-0.0505383
-0.0495277
-0.0485302
-0.0475451
-0.046572
-0.0456102
-0.0446592
-0.0437185
-0.0427875
-0.0418655
-0.040952
-0.0400464
-0.0391482
-0.0382566
-0.0373711
-0.0364911
-0.0356158
-0.0347446
-0.0338769
-0.0330119
-0.032149
-0.0312875
-0.0304266
-0.0295655
-0.0287037
-0.0278403
-0.0269746
-0.0261059
-0.0252336
-0.0243569
-0.0234754
-0.0225884
-0.0216955
-0.0207963
-0.0198907
-0.0189784
-0.0180596
-0.0171345
-0.0162035
-0.0152674
-0.0143272
-0.013384
-0.0124394
-0.0114953
-0.0105537
-0.00961729
-0.00868849
-0.00777038
-0.00686621
-0.005978
-0.00511295
-0.0042622
-0.00345999
-0.0026293
-0.00196246
-0.00101468
-0.000799121
0.000944716
-0.000718382
0.00483597
-0.112868
-0.112559
-0.108829
-0.106042
-0.10378
-0.101552
-0.0993601
-0.0972495
-0.0952172
-0.0932529
-0.0913513
-0.0895085
-0.0877205
-0.0859834
-0.084294
-0.082649
-0.0810456
-0.0794814
-0.077954
-0.0764612
-0.0750014
-0.0735726
-0.0721733
-0.0708022
-0.069458
-0.0681394
-0.0668453
-0.0655748
-0.064327
-0.0631009
-0.0618957
-0.0607106
-0.059545
-0.0583981
-0.0572693
-0.0561579
-0.0550633
-0.0539849
-0.052922
-0.0518741
-0.0508407
-0.0498211
-0.0488148
-0.0478213
-0.0468399
-0.0458701
-0.0449114
-0.0439631
-0.0430247
-0.0420957
-0.0411754
-0.0402632
-0.0393586
-0.0384609
-0.0375695
-0.0366838
-0.0358031
-0.0349268
-0.0340541
-0.0331845
-0.0323171
-0.0314513
-0.0305863
-0.0297215
-0.028856
-0.0279892
-0.0271203
-0.0262487
-0.0253735
-0.0244942
-0.0236101
-0.0227207
-0.0218256
-0.0209243
-0.0200165
-0.0191023
-0.0181815
-0.0172544
-0.0163215
-0.0153834
-0.0144412
-0.0134959
-0.0125492
-0.0116029
-0.010659
-0.00972026
-0.00878902
-0.00786857
-0.00696187
-0.00607158
-0.00520394
-0.00435214
-0.0035468
-0.00271862
-0.00204465
-0.00111299
-0.000867584
0.000801565
-0.000717067
0.00449995
-0.113924
-0.113707
-0.109909
-0.107089
-0.104809
-0.102555
-0.100332
-0.0981897
-0.0961254
-0.0941291
-0.092196
-0.0903224
-0.0885046
-0.086739
-0.0850221
-0.083351
-0.0817228
-0.080135
-0.0785852
-0.0770712
-0.075591
-0.074143
-0.0727255
-0.0713369
-0.069976
-0.0686414
-0.067332
-0.0660468
-0.0647848
-0.0635451
-0.0623267
-0.061129
-0.059951
-0.0587922
-0.0576518
-0.0565291
-0.0554235
-0.0543344
-0.0532612
-0.0522033
-0.05116
-0.0501308
-0.0491152
-0.0481126
-0.0471224
-0.0461441
-0.045177
-0.0442206
-0.0432744
-0.0423378
-0.0414101
-0.0404908
-0.0395794
-0.0386751
-0.0377773
-0.0368855
-0.0359989
-0.0351169
-0.0342389
-0.0333641
-0.0324918
-0.0316213
-0.0307519
-0.0298829
-0.0290135
-0.0281429
-0.0272705
-0.0263955
-0.0255172
-0.0246349
-0.023748
-0.022856
-0.0219583
-0.0210546
-0.0201446
-0.0192281
-0.0183052
-0.017376
-0.016441
-0.0155009
-0.0145565
-0.0136091
-0.0126602
-0.0117116
-0.0107655
-0.00982435
-0.00889067
-0.00796791
-0.0070587
-0.00616643
-0.00529621
-0.0044436
-0.00363501
-0.00280989
-0.00212827
-0.00121415
-0.000937042
0.000653385
-0.000714427
0.00415274
-0.114868
-0.114741
-0.110905
-0.108073
-0.10579
-0.103522
-0.101279
-0.099114
-0.0970256
-0.0950038
-0.0930446
-0.0911447
-0.0893009
-0.0875096
-0.0857678
-0.0840724
-0.0824209
-0.0808105
-0.0792391
-0.0777044
-0.0762044
-0.0747373
-0.0733015
-0.0718954
-0.0705177
-0.0691669
-0.067842
-0.0665417
-0.0652652
-0.0640114
-0.0627794
-0.0615685
-0.0603777
-0.0592065
-0.0580539
-0.0569195
-0.0558024
-0.0547021
-0.0536179
-0.0525493
-0.0514957
-0.0504564
-0.0494309
-0.0484187
-0.0474191
-0.0464316
-0.0454557
-0.0444907
-0.0435361
-0.0425914
-0.0416558
-0.0407289
-0.0398101
-0.0388986
-0.037994
-0.0370956
-0.0362026
-0.0353146
-0.0344307
-0.0335503
-0.0326727
-0.0317971
-0.0309229
-0.0300493
-0.0291755
-0.0283008
-0.0274245
-0.0265458
-0.025664
-0.0247785
-0.0238885
-0.0229936
-0.0220932
-0.0211868
-0.0202743
-0.0193554
-0.0184301
-0.0174987
-0.0165614
-0.0156191
-0.0146725
-0.0137229
-0.0127717
-0.0118209
-0.0108724
-0.00992894
-0.00899284
-0.00806783
-0.00715613
-0.00626202
-0.00538921
-0.00453607
-0.00372412
-0.00290266
-0.00221283
-0.00131773
-0.00100701
0.000500675
-0.000710229
0.00379566
-0.115688
-0.115647
-0.111804
-0.108982
-0.106709
-0.10444
-0.102189
-0.100012
-0.097908
-0.0958682
-0.0938891
-0.0919683
-0.0901027
-0.0882894
-0.0865256
-0.0848084
-0.0831354
-0.0815041
-0.0799123
-0.0783577
-0.0768386
-0.075353
-0.0738992
-0.0724758
-0.0710813
-0.0697143
-0.0683736
-0.0670582
-0.0657668
-0.0644987
-0.0632528
-0.0620282
-0.0608243
-0.0596401
-0.058475
-0.0573283
-0.0561992
-0.0550872
-0.0539916
-0.0529118
-0.0518473
-0.0507974
-0.0497615
-0.0487391
-0.0477296
-0.0467325
-0.0457471
-0.044773
-0.0438095
-0.042856
-0.0419121
-0.0409771
-0.0400503
-0.0391313
-0.0382193
-0.0373137
-0.036414
-0.0355193
-0.0346292
-0.0337427
-0.0328593
-0.0319783
-0.0310988
-0.0302202
-0.0293417
-0.0284625
-0.0275819
-0.0266992
-0.0258136
-0.0249245
-0.0240311
-0.023133
-0.0222295
-0.0213203
-0.020405
-0.0194835
-0.0185557
-0.0176218
-0.0166822
-0.0157375
-0.0147886
-0.0138367
-0.0128832
-0.0119301
-0.0109792
-0.0100335
-0.00909496
-0.00816777
-0.00725363
-0.00635784
-0.00548244
-0.00462909
-0.00381361
-0.00299651
-0.00229783
-0.00142337
-0.001077
0.000343903
-0.00070422
0.00342998
-0.116374
-0.116414
-0.112593
-0.109803
-0.107556
-0.105299
-0.103052
-0.100873
-0.0987634
-0.0967136
-0.0947216
-0.0927856
-0.0909033
-0.0890723
-0.08729
-0.085554
-0.083862
-0.0822117
-0.0806011
-0.0790281
-0.0774907
-0.0759873
-0.0745162
-0.0730759
-0.0716648
-0.0702817
-0.0689254
-0.0675946
-0.0662884
-0.0650057
-0.0637456
-0.0625072
-0.0612897
-0.0600923
-0.0589142
-0.0577548
-0.0566133
-0.0554891
-0.0543816
-0.0532902
-0.0522143
-0.0511532
-0.0501064
-0.0490733
-0.0480534
-0.0470461
-0.0460508
-0.045067
-0.0440941
-0.0431315
-0.0421786
-0.0412349
-0.0402998
-0.0393726
-0.0384528
-0.0375397
-0.0366326
-0.0357309
-0.034834
-0.033941
-0.0330514
-0.0321644
-0.0312793
-0.0303952
-0.0295116
-0.0286275
-0.0277423
-0.0268552
-0.0259655
-0.0250724
-0.0241754
-0.0232737
-0.0223669
-0.0214546
-0.0205363
-0.019612
-0.0186815
-0.017745
-0.0168028
-0.0158557
-0.0149043
-0.01395
-0.0129941
-0.0120387
-0.0110854
-0.0101374
-0.00919651
-0.00826726
-0.00735068
-0.00645341
-0.0055754
-0.00472222
-0.00390301
-0.00309105
-0.00238277
-0.0015307
-0.0011465
0.000183502
-0.000696117
0.00305691
-0.116921
-0.117033
-0.113266
-0.110527
-0.10832
-0.106089
-0.103858
-0.101689
-0.0995827
-0.0975315
-0.095534
-0.0935895
-0.0916962
-0.0898521
-0.0880554
-0.0863041
-0.084596
-0.0829292
-0.0813017
-0.0797118
-0.0781577
-0.0766376
-0.0751499
-0.0736933
-0.0722662
-0.0708673
-0.0694955
-0.0681496
-0.0668285
-0.0655312
-0.0642568
-0.0630043
-0.061773
-0.060562
-0.0593707
-0.0581982
-0.0570439
-0.0559072
-0.0547874
-0.0536839
-0.052596
-0.0515233
-0.0504651
-0.0494209
-0.0483901
-0.0473721
-0.0463664
-0.0453724
-0.0443895
-0.0434173
-0.042455
-0.0415022
-0.0405582
-0.0396224
-0.0386942
-0.037773
-0.0368581
-0.0359489
-0.0350448
-0.0341449
-0.0332486
-0.0323552
-0.031464
-0.0305741
-0.0296849
-0.0287956
-0.0279053
-0.0270135
-0.0261192
-0.0252219
-0.0243208
-0.0234154
-0.022505
-0.0215893
-0.0206678
-0.0197404
-0.0188069
-0.0178676
-0.0169228
-0.015973
-0.0150191
-0.0140624
-0.0131041
-0.0121462
-0.0111906
-0.0102403
-0.00929705
-0.00836582
-0.00744685
-0.0065483
-0.00566765
-0.00481507
-0.00399187
-0.00318593
-0.00246717
-0.00163942
-0.00121502
1.98551e-05
-0.000685606
0.00267757
-0.117327
-0.117502
-0.113816
-0.111148
-0.108993
-0.1068
-0.104598
-0.10245
-0.100358
-0.098314
-0.096319
-0.0943728
-0.0924745
-0.0906228
-0.0888163
-0.0870534
-0.0853326
-0.0836521
-0.0820103
-0.0804055
-0.0788362
-0.0773007
-0.0757976
-0.0743256
-0.0728831
-0.0714691
-0.0700822
-0.0687214
-0.0673855
-0.0660737
-0.0647849
-0.0635183
-0.062273
-0.0610483
-0.0598435
-0.0586577
-0.0574903
-0.0563407
-0.0552082
-0.0540922
-0.0529921
-0.0519073
-0.0508373
-0.0497815
-0.0487392
-0.0477101
-0.0466935
-0.0456888
-0.0446955
-0.0437131
-0.0427409
-0.0417785
-0.0408251
-0.0398802
-0.0389432
-0.0380134
-0.0370903
-0.0361731
-0.0352613
-0.034354
-0.0334506
-0.0325504
-0.0316526
-0.0307565
-0.0298613
-0.0289663
-0.0280707
-0.0271737
-0.0262746
-0.0253727
-0.0244673
-0.0235577
-0.0226434
-0.021724
-0.020799
-0.0198683
-0.0189317
-0.0179894
-0.0170417
-0.0160892
-0.0151327
-0.0141734
-0.0132126
-0.0122523
-0.0112943
-0.0103418
-0.00939615
-0.00846307
-0.00754171
-0.00664214
-0.00575879
-0.00490729
-0.00407976
-0.00328083
-0.00255058
-0.00174925
-0.00128203
-0.000146712
-0.000672331
0.00229299
-0.117592
-0.117819
-0.114239
-0.11166
-0.10957
-0.107428
-0.105266
-0.10315
-0.101081
-0.0990539
-0.0970696
-0.095129
-0.0932321
-0.0913784
-0.089567
-0.0877969
-0.0860671
-0.0843761
-0.0827226
-0.0811053
-0.0795228
-0.0779737
-0.0764566
-0.0749702
-0.0735134
-0.0720848