/*--------------------------------*- C++ -*----------------------------------*\
  =========                 |
  \\      /  F ield         | OpenFOAM: The Open Source CFD Toolbox
   \\    /   O peration     | Website:  https://openfoam.org
    \\  /    A nd           | Version:  7
     \\/     M anipulation  |
\*---------------------------------------------------------------------------*/
FoamFile
{
    version     2.0;
    format      ascii;
    class       surfaceScalarField;
    location    "15";
    object      phi;
}
// * * * * * * * * * * * * * * * * * * * * * * * * * * * * * * * * * * * * * //

dimensions      [0 3 -1 0 0 0 0];

internalField   nonuniform List<scalar> 
41682
(
0.00114682
-0.000220808
-6.01322e-09
0.00140172
-0.00025489
-4.98266e-09
0.00169243
-0.000290713
-3.77774e-09
0.00202705
-0.00033462
-2.57779e-11
0.00239854
-0.000371489
4.26926e-09
-0.000446157
1.29859e-08
0.00284468
0.00115613
-0.000443302
0.00141298
-0.000511737
0.00170598
-0.000583721
0.00204317
-0.000671811
0.00241775
-0.000746061
-0.000895185
0.00286677
0.00117467
-0.000669136
0.00143539
-0.000772464
0.00173295
-0.000881275
0.00207523
-0.0010141
0.00245593
-0.00112675
-0.00134992
0.00291066
0.0012023
-0.000899931
0.00146878
-0.00103895
0.00177307
-0.00118556
0.00212289
-0.00136391
0.00251262
-0.00151648
-0.00181309
0.00297579
0.0012388
-0.00113725
0.00151284
-0.00131298
0.00182595
-0.00149867
0.0021856
-0.00172357
0.00258714
-0.00191802
-0.00228724
0.00306129
0.0012839
-0.00138258
0.00156719
-0.00159627
0.00189107
-0.00182256
0.00226271
-0.00209521
0.00267858
-0.00233389
-0.00277471
0.00316605
0.00133724
-0.00163733
0.00163136
-0.00189039
0.00196781
-0.00215901
0.00235335
-0.00248075
0.00278585
-0.00276639
-0.00327759
0.00328873
0.00139842
-0.00190277
0.0017048
-0.00219678
0.00205543
-0.00250964
0.00245657
-0.00288189
0.00290766
-0.00321749
-0.00379763
0.00342771
0.00146696
0.00178688
-0.00251671
0.00215308
-0.00287584
0.00257125
-0.00330005
0.00304256
-0.00368879
-0.00433628
0.0035812
0.0018769
-0.00285127
0.00225983
-0.00325877
0.00269616
-0.00373639
0.00318893
-0.00418156
-0.00489459
0.00374724
0.00197408
-0.00320137
0.00237466
-0.00365934
0.00283
-0.00419173
0.00334505
-0.00469661
-0.00547322
0.00392368
0.00207762
-0.00356771
0.0024965
-0.00407822
0.00297136
-0.00466659
0.0035091
-0.00523434
-0.00607241
0.00410829
0.00218665
-0.00395079
0.00262421
-0.00451578
0.00311879
-0.00516117
0.00367919
-0.00579474
-0.00669199
0.00429877
0.00230024
-0.00435088
0.0027566
-0.00497214
0.00327079
-0.00567537
0.00385339
-0.00637734
-0.00733136
0.00449276
0.00241748
-0.00476803
0.00289247
-0.00544713
0.00342584
-0.00620874
0.00402976
-0.00698126
-0.00798952
0.00468792
0.00253739
-0.00520209
0.00303058
-0.00594032
0.0035824
-0.00676056
0.00420638
-0.00760523
-0.0086651
0.00488196
0.00265902
-0.00565268
0.00316971
-0.00645101
0.00373898
-0.00732983
0.00438138
-0.00824764
-0.00935638
0.00507266
0.00278138
-0.00611922
0.00330864
-0.00697827
0.00389408
-0.00791526
0.00455296
-0.00890652
-0.0100613
0.00525792
0.00290352
-0.00660092
0.00344618
-0.00752092
0.00404628
-0.00851536
0.00471943
-0.00957968
-0.0107777
0.0054358
0.00302449
-0.00709683
0.00358116
-0.0080776
0.00419422
-0.00912842
0.00487921
-0.0102647
-0.011503
0.00560454
0.00314337
-0.00760579
0.0037125
-0.00864672
0.00433662
-0.00975254
0.00503087
-0.0109589
-0.0122347
0.00576258
0.00325927
0.00383914
-0.00922658
0.00447231
-0.0103857
0.00517313
-0.0116597
-0.0129702
0.00590857
0.00396012
-0.00981534
0.00460021
-0.0110258
0.00530488
-0.0123644
-0.0137067
0.00604141
0.00407455
-0.010411
0.00471937
-0.0116706
0.00542519
-0.0130702
-0.0144417
0.00616021
0.00418164
-0.0110117
0.00482898
-0.012318
0.00553332
-0.0137746
-0.0151727
0.00626433
0.0042807
-0.0116153
0.00492833
-0.0129656
0.00562868
-0.0144749
-0.0158974
0.00635335
0.00437113
-0.0122198
0.0050169
-0.0136114
0.0057109
-0.0151689
-0.0166136
0.00642705
0.00445243
-0.0128231
0.00509425
-0.0142532
0.00577973
-0.0158544
-0.0173192
0.00648541
0.00452423
-0.0134235
0.00516011
-0.0148891
0.00583512
-0.0165294
-0.0180127
0.0065286
0.00458624
0.00521434
-0.0155172
0.00587715
-0.0171922
-0.0186925
0.00655692
0.00525692
-0.0161358
0.00590602
-0.0178413
-0.0193573
0.00657082
0.00528791
-0.0167435
0.00592207
-0.0184755
-0.0200061
0.00657085
0.00530753
-0.0173388
0.00592569
-0.0190936
-0.020638
0.00655763
0.00531605
-0.0179207
0.0059174
-0.019695
-0.0212525
0.00653187
0.00531382
-0.0184881
0.00589772
-0.0202789
-0.0218491
0.00649432
0.00530128
0.00586723
-0.0208448
-0.0224276
0.00644578
0.00582653
-0.0213925
-0.0229883
0.00638718
0.00577616
-0.0219215
-0.0235316
0.00631943
0.00571667
-0.0224315
-0.0240589
0.006244
0.00564871
-0.024575
0.00616484
-0.0251033
0.0061025
-0.0256087
0.00599813
-0.0260912
0.00588767
0.00577303
0.026091
0.00577305
0.0256085
0.00588769
0.0251031
0.00599809
0.0245746
0.0061028
0.00564866
0.0224316
0.0240585
0.00616473
0.00571664
0.0219215
0.0235312
0.00624389
0.00577614
0.0213925
0.022988
0.00631935
0.00582651
0.0208449
0.0224274
0.00638711
0.00530126
0.018488
0.00586722
0.0202789
0.0218489
0.00644573
0.00531381
0.0179206
0.00589771
0.019695
0.0212524
0.00649427
0.00531603
0.0173387
0.00591739
0.0190937
0.0206379
0.00653183
0.00530752
0.0167434
0.00592568
0.0184755
0.020006
0.0065576
0.0052879
0.0161358
0.00592206
0.0178413
0.0193572
0.00657082
0.0052569
0.0155171
0.00590601
0.0171922
0.0186924
0.0065708
0.00458623
0.0134234
0.00521433
0.014889
0.00587714
0.0165294
0.0180127
0.0065569
0.00452422
0.0128231
0.0051601
0.0142531
0.00583511
0.0158544
0.0173192
0.00652858
0.00445242
0.0122197
0.00509423
0.0136113
0.00577972
0.0151689
0.0166135
0.0064854
0.00437112
0.0116153
0.00501688
0.0129656
0.00571088
0.0144749
0.0158974
0.00642703
0.00428069
0.0110117
0.00492832
0.0123179
0.00562867
0.0137746
0.0151727
0.00635334
0.00418163
0.010411
0.00482896
0.0116706
0.00553331
0.0130702
0.0144417
0.00626432
0.00407454
0.00981533
0.00471936
0.0110258
0.00542518
0.0123644
0.0137067
0.0061602
0.00337135
0.0081265
0.0039601
0.00922657
0.00460019
0.0103857
0.00530487
0.0116597
0.0129702
0.0060414
0.00325926
0.00760577
0.00383913
0.00864671
0.00447229
0.00975251
0.00517311
0.0109589
0.0122347
0.00590856
0.00314336
0.00709681
0.00371248
0.00807758
0.00433661
0.00912839
0.00503085
0.0102647
0.011503
0.00576256
0.00302448
0.00660091
0.00358115
0.00752091
0.0041942
0.00851534
0.0048792
0.00957966
0.0107777
0.00560453
0.00290351
0.00611921
0.00344616
0.00697826
0.00404626
0.00791524
0.00471942
0.00890651
0.0100613
0.00543579
0.00278137
0.00565267
0.00330863
0.006451
0.00389406
0.00732981
0.00455295
0.00824762
0.00935635
0.0052579
0.00265901
0.00520208
0.0031697
0.00594031
0.00373896
0.00676054
0.00438137
0.00760522
0.00866507
0.00507264
0.00253738
0.00476803
0.00303057
0.00544712
0.00358239
0.00620872
0.00420637
0.00698124
0.00798949
0.00488195
0.00241747
0.00435087
0.00289246
0.00497214
0.00342583
0.00567535
0.00402975
0.00637732
0.00733133
0.00468791
0.00230023
0.00395079
0.00275659
0.00451578
0.00327078
0.00516116
0.00385338
0.00579472
0.00669196
0.00449275
0.00218664
0.00356771
0.0026242
0.00407822
0.00311878
0.00466658
0.00367918
0.00523433
0.00607238
0.00429876
0.00207762
0.00320137
0.00249649
0.00365934
0.00297135
0.00419172
0.00350909
0.00469659
0.00547319
0.00410828
0.00197408
0.00285127
0.00237465
0.00325877
0.00282999
0.00373638
0.00334504
0.00418154
0.00489456
0.00392367
0.00187689
0.00251671
0.00225982
0.00287584
0.00269615
0.00330005
0.00318892
0.00368878
0.00433625
0.00374722
0.00146695
0.00190278
0.00178687
0.00219678
0.00215307
0.00250964
0.00257124
0.00288188
0.00304255
0.00321747
0.0037976
0.00358119
0.00139841
0.00163734
0.0017048
0.0018904
0.00205542
0.00215901
0.00245656
0.00248074
0.00290766
0.00276638
0.00327756
0.0034277
0.00133724
0.00138259
0.00163136
0.00159628
0.00196781
0.00182256
0.00235335
0.0020952
0.00278585
0.00233388
0.00277469
0.00328872
0.00128389
0.00113726
0.00156718
0.00131299
0.00189107
0.00149868
0.0022627
0.00172357
0.00267858
0.00191801
0.00228721
0.00316605
0.0012388
0.000899942
0.00151283
0.00103895
0.00182594
0.00118557
0.0021856
0.00136391
0.00258713
0.00151647
0.00181307
0.00306128
0.00120229
0.000669148
0.00146878
0.000772473
0.00177306
0.000881281
0.00212288
0.0010141
0.00251261
0.00112674
0.0013499
0.00297578
0.00117467
0.000443314
0.00143539
0.000511747
0.00173295
0.000583728
0.00207523
0.00067181
0.00245592
0.000746052
0.000895159
0.00291066
0.00115613
0.00022082
0.00141297
0.000254899
0.00170598
0.000290721
0.00204317
0.00033462
0.00241774
0.00037148
0.000446131
0.00286677
0.00114682
0.00140172
0.00169243
0.00202705
0.00239854
0.00284468
0.00288313
-3.84564e-05
3.46903e-09
0.00292073
-3.75977e-05
3.85165e-09
0.00295761
-3.68829e-05
4.26165e-09
0.00299386
-3.62578e-05
4.69894e-09
0.00302955
-3.56993e-05
5.16389e-09
0.00306475
-3.52001e-05
5.65709e-09
0.00309949
-3.47521e-05
6.17907e-09
0.00313384
-3.43472e-05
6.7303e-09
0.00316781
-3.39787e-05
7.31118e-09
0.00320144
-3.36408e-05
7.92203e-09
0.00323476
-3.33285e-05
8.56309e-09
0.00326779
-3.30379e-05
9.23445e-09
0.00330054
-3.27651e-05
9.93605e-09
0.00333304
-3.25073e-05
1.06677e-08
0.00336529
-3.22617e-05
1.1429e-08
0.0033973
-3.2026e-05
1.22192e-08
0.00342909
-3.17984e-05
1.30376e-08
0.00346065
-3.15772e-05
1.38828e-08
0.003492
-3.1361e-05
1.47536e-08
0.00352313
-3.11485e-05
1.5648e-08
0.00355405
-3.09388e-05
1.65639e-08
0.00358477
-3.07309e-05
1.74986e-08
0.00361527
-3.05242e-05
1.84491e-08
0.00364557
-3.03179e-05
1.94119e-08
0.00367566
-3.01117e-05
2.03827e-08
0.00370555
-2.99051e-05
2.1357e-08
0.00373522
-2.96978e-05
2.23294e-08
0.00376469
-2.94894e-05
2.32941e-08
0.00379394
-2.928e-05
2.42443e-08
0.00382299
-2.90692e-05
2.51726e-08
0.00385182
-2.88571e-05
2.60708e-08
0.00388044
-2.86437e-05
2.693e-08
0.00390884
-2.84289e-05
2.77402e-08
0.00393702
-2.82129e-05
2.84906e-08
0.00396499
-2.79958e-05
2.91695e-08
0.00399274
-2.77777e-05
2.97642e-08
0.00402026
-2.75589e-05
3.02611e-08
0.00404757
-2.73396e-05
3.06456e-08
0.00407466
-2.712e-05
3.09019e-08
0.00410153
-2.69005e-05
3.10136e-08
0.00412818
-2.66815e-05
3.0963e-08
0.00415462
-2.64633e-05
3.07316e-08
0.00418083
-2.62463e-05
3.03002e-08
0.00420683
-2.60312e-05
2.96484e-08
0.00423262
-2.58183e-05
2.87555e-08
0.0042582
-2.56083e-05
2.75998e-08
0.00428358
-2.54017e-05
2.61593e-08
0.00430875
-2.51994e-05
2.44116e-08
0.00433373
-2.50019e-05
2.23342e-08
0.00435852
-2.48102e-05
1.99046e-08
0.00438313
-2.4625e-05
1.71005e-08
0.00440756
-2.44473e-05
1.39003e-08
0.00443183
-2.42781e-05
1.02832e-08
0.00445594
-2.41186e-05
6.22972e-09
0.00447991
-2.39697e-05
1.72179e-09
0.00450375
-2.38329e-05
-3.25644e-09
0.00452747
-2.37094e-05
-8.71842e-09
0.00455108
-2.36006e-05
-1.46745e-08
0.00457461
-2.3508e-05
-2.11315e-08
0.00459807
-2.34333e-05
-2.80922e-08
0.00462149
-2.33781e-05
-3.55543e-08
0.00464487
-2.33442e-05
-4.35104e-08
0.00466826
-2.33333e-05
-5.19469e-08
0.00469167
-2.33474e-05
-6.08432e-08
0.00471513
-2.33882e-05
-7.01714e-08
0.00473866
-2.34579e-05
-7.98953e-08
0.00476231
-2.35583e-05
-8.99696e-08
0.0047861
-2.36912e-05
-1.0034e-07
0.00481007
-2.38585e-05
-1.1094e-07
0.00483426
-2.40618e-05
-1.21695e-07
0.00485869
-2.43026e-05
-1.32518e-07
0.00488342
-2.45822e-05
-1.43311e-07
0.00490847
-2.49015e-05
-1.53961e-07
0.0049339
-2.5261e-05
-1.64348e-07
0.00495973
-2.56607e-05
-1.74339e-07
0.00498602
-2.61001e-05
-1.83789e-07
0.00501279
-2.65779e-05
-1.92543e-07
0.00504008
-2.7092e-05
-2.00441e-07
0.00506793
-2.76394e-05
-2.07311e-07
0.00509636
-2.82161e-05
-2.12982e-07
0.00512539
-2.88169e-05
-2.17278e-07
0.00515505
-2.94351e-05
-2.20025e-07
0.00518533
-3.0063e-05
-2.21055e-07
0.00521624
-3.0691e-05
-2.20212e-07
0.00524777
-3.13082e-05
-2.17351e-07
0.00527988
-3.19021e-05
-2.12352e-07
0.00531254
-3.24584e-05
-2.05117e-07
0.0053457
-3.29612e-05
-1.95585e-07
0.00537928
-3.33935e-05
-1.83722e-07
0.00541318
-3.37359e-05
-1.69557e-07
0.00544731
-3.39697e-05
-1.53138e-07
0.00548151
-3.40712e-05
-1.34606e-07
0.00551565
-3.40249e-05
-1.14092e-07
0.00554954
-3.37935e-05
-9.18788e-08
0.005583
-3.33911e-05
-6.81623e-08
0.00561575
-3.27081e-05
-4.33746e-08
0.0056477
-3.19304e-05
-1.77365e-08
0.00567823
-3.05442e-05
8.1802e-09
0.00570788
-2.96786e-05
3.41712e-08
-2.66433e-05
5.95987e-08
0.00290475
-7.64378e-05
0.0029419
-7.47436e-05
0.00297835
-7.33372e-05
0.0030142
-7.21061e-05
0.00304951
-7.10048e-05
0.00308433
-7.00193e-05
0.00311871
-6.91344e-05
0.0031527
-6.83342e-05
0.00318632
-6.76054e-05
0.00321962
-6.69366e-05
0.00325261
-6.63184e-05
0.00328531
-6.57426e-05
0.00331775
-6.52022e-05
0.00334993
-6.4691e-05
0.00338188
-6.42039e-05
0.00341359
-6.37365e-05
0.00344507
-6.32849e-05
0.00347634
-6.28459e-05
0.0035074
-6.24166e-05
0.00353824
-6.19948e-05
0.00356888
-6.15782e-05
0.00359932
-6.11653e-05
0.00362955
-6.07546e-05
0.00365958
-6.03449e-05
0.0036894
-5.99351e-05
0.00371902
-5.95245e-05
0.00374843
-5.91125e-05
0.00377764
-5.86985e-05
0.00380664
-5.82822e-05
0.00383544
-5.78633e-05
0.00386402
-5.74418e-05
0.0038924
-5.70176e-05
0.00392056
-5.65907e-05
0.00394851
-5.61615e-05
0.00397624
-5.57301e-05
0.00400376
-5.52969e-05
0.00403106
-5.48622e-05
0.00405815
-5.44266e-05
0.00408502
-5.39907e-05
0.00411168
-5.3555e-05
0.00413812
-5.31204e-05
0.00416434
-5.26876e-05
0.00419035
-5.22576e-05
0.00421615
-5.18313e-05
0.00424174
-5.14097e-05
0.00426713
-5.09941e-05
0.00429231
-5.05858e-05
0.0043173
-5.0186e-05
0.00434209
-4.97964e-05
0.0043667
-4.94185e-05
0.00439113
-4.9054e-05
0.00441539
-4.87049e-05
0.00443948
-4.83732e-05
0.00446343
-4.8061e-05
0.00448723
-4.77707e-05
0.0045109
-4.75048e-05
0.00453446
-4.7266e-05
0.00455791
-4.7057e-05
0.00458128
-4.6881e-05
0.00460459
-4.6741e-05
0.00462785
-4.66405e-05
0.00465109
-4.65828e-05
0.00467433
-4.65716e-05
0.00469759
-4.66106e-05
0.00472091
-4.67037e-05
0.00474431
-4.68545e-05
0.00476782
-4.7067e-05
0.00479147
-4.73447e-05
0.0048153
-4.76913e-05
0.00483935
-4.81099e-05
0.00486365
-4.86035e-05
0.00488824
-4.91744e-05
0.00491317
-4.98244e-05
0.00493846
-5.05544e-05
0.00496416
-5.13644e-05
0.00499032
-5.2253e-05
0.00501696
-5.32176e-05
0.00504412
-5.42539e-05
0.00507183
-5.53558e-05
0.00510013
-5.65149e-05
0.00512904
-5.77207e-05
0.00515856
-5.89599e-05
0.00518871
-6.02167e-05
0.0052195
-6.1472e-05
0.00525089
-6.27038e-05
0.00528288
-6.38869e-05
0.00531541
-6.49928e-05
0.00534844
-6.59899e-05
0.00538189
-6.68437e-05
0.00541567
-6.75159e-05
0.00544967
-6.79689e-05
0.00548375
-6.81557e-05
0.00551777
-6.80454e-05
0.00555154
-6.75639e-05
0.00558489
-6.67393e-05
0.00561754
-6.53532e-05
0.00564938
-6.37776e-05
0.00567983
-6.0986e-05
0.00570938
-5.92341e-05
-5.31514e-05
0.00294771
-0.000113484
0.00298397
-0.000111001
0.00301958
-0.000108949
0.00305462
-0.000107151
0.00308916
-0.000105538
0.00312323
-0.000104093
0.00315689
-0.000102795
0.00319018
-0.000101619
0.00322312
-0.000100547
0.00325575
-9.95631e-05
0.00328808
-9.86528e-05
0.00332014
-9.78042e-05
0.00335195
-9.70074e-05
0.00338351
-9.62534e-05
0.00341484
-9.55346e-05
0.00344595
-9.48446e-05
0.00347684
-9.41778e-05
0.00350752
-9.35294e-05
0.003538
-9.28953e-05
0.00356828
-9.22719e-05
0.00359836
-9.16563e-05
0.00362824
-9.10459e-05
0.00365792
-9.04387e-05
0.00368741
-8.98328e-05
0.0037167
-8.92268e-05
0.0037458
-8.86195e-05
0.00377469
-8.80098e-05
0.00380339
-8.73973e-05
0.00383189
-8.67812e-05
0.00386019
-8.61612e-05
0.00388829
-8.55373e-05
0.00391618
-8.49093e-05
0.00394386
-8.42775e-05
0.00397134
-8.3642e-05
0.00399862
-8.30032e-05
0.00402568
-8.23618e-05
0.00405254
-8.17182e-05
0.00407919
-8.10732e-05
0.00410562
-8.04278e-05
0.00413185
-7.97828e-05
0.00415787
-7.91394e-05
0.00418368
-7.84988e-05
0.00420929
-7.78623e-05
0.00423469
-7.72315e-05
0.00425988
-7.66079e-05
0.00428488
-7.59933e-05
0.00430969
-7.53896e-05
0.0043343
-7.47989e-05
0.00435873
-7.42234e-05
0.00438297
-7.36655e-05
0.00440705
-7.31279e-05
0.00443096
-7.26135e-05
0.00445471
-7.21251e-05
0.00447831
-7.16662e-05
0.00450178
-7.12401e-05
0.00452513
-7.08507e-05
0.00454836
-7.0502e-05
0.00457151
-7.01981e-05
0.00459457
-6.99436e-05
0.00461757
-6.97433e-05
0.00464053
-6.9602e-05
0.00466347
-6.95251e-05
0.00468642
-6.95179e-05
0.0047094
-6.9586e-05
0.00473243
-6.9735e-05
0.00475554
-6.99705e-05
0.00477877
-7.02983e-05
0.00480215
-7.07239e-05
0.00482571
-7.12524e-05
0.00484949
-7.18887e-05
0.00487353
-7.26372e-05
0.00489785
-7.35013e-05
0.00492251
-7.44836e-05
0.00494754
-7.55854e-05
0.00497299
-7.68066e-05
0.00499888
-7.81452e-05
0.00502526
-7.95972e-05
0.00505216
-8.1156e-05
0.00507962
-8.28125e-05
0.00510766
-8.45541e-05
0.0051363
-8.63649e-05
0.00516557
-8.82252e-05
0.00519546
-9.0111e-05
0.00522598
-9.19938e-05
0.00525712
-9.38406e-05
0.00528885
-9.56137e-05
0.00532112
-9.72704e-05
0.0053539
-9.87633e-05
0.00538709
-0.000100041
0.00542062
-0.000101046
0.00545438
-0.000101722
0.00548822
-0.000101999
0.005522
-0.00010183
0.00555555
-0.000101105
0.00558867
-9.98666e-05
0.00562111
-9.77867e-05
0.00565275
-9.54236e-05
0.00568301
-9.124e-05
0.00571239
-8.86125e-05
-7.95089e-05
0.00301145
-0.000149146
0.00304639
-0.000145942
0.00308075
-0.000143313
0.00311461
-0.000141004
0.003148
-0.000138927
0.00318096
-0.000137063
0.00321355
-0.000135384
0.0032458
-0.000133863
0.00327773
-0.000132474
0.00330936
-0.000131197
0.00334072
-0.000130015
0.00337183
-0.000128912
0.0034027
-0.000127876
0.00343334
-0.000126895
0.00346376
-0.000125959
0.00349398
-0.00012506
0.00352399
-0.000124191
0.00355381
-0.000123346
0.00358343
-0.000122519
0.00361287
-0.000121706
0.00364211
-0.000120903
0.00367118
-0.000120106
0.00370005
-0.000119313
0.00372874
-0.000118522
0.00375724
-0.000117731
0.00378556
-0.000116937
0.00381369
-0.000116141
0.00384164
-0.00011534
0.00386939
-0.000114535
0.00389695
-0.000113724
0.00392432
-0.000112908
0.0039515
-0.000112087
0.00397848
-0.00011126
0.00400527
-0.000110429
0.00403186
-0.000109593
0.00405825
-0.000108754
0.00408445
-0.000107911
0.00411044
-0.000107067
0.00413623
-0.000106222
0.00416183
-0.000105378
0.00418723
-0.000104536
0.00421243
-0.000103698
0.00423743
-0.000102865
0.00426224
-0.000102039
0.00428685
-0.000101223
0.00431128
-0.000100419
0.00433552
-9.96298e-05
0.00435958
-9.88576e-05
0.00438346
-9.81055e-05
0.00440717
-9.7377e-05
0.00443072
-9.66754e-05
0.00445411
-9.60044e-05
0.00447735
-9.53682e-05
0.00450046
-9.47711e-05
0.00452343
-9.42177e-05
0.0045463
-9.3713e-05
0.00456906
-9.32623e-05
0.00459173
-9.28713e-05
0.00461433
-9.25459e-05
0.00463688
-9.22924e-05
0.0046594
-9.21174e-05
0.0046819
-9.20279e-05
0.00470441
-9.2031e-05
0.00472696
-9.2134e-05
0.00474957
-9.23445e-05
0.00477227
-9.267e-05
0.00479509
-9.3118e-05
0.00481806
-9.36957e-05
0.00484122
-9.44102e-05
0.0048646
-9.52678e-05
0.00488823
-9.62743e-05
0.00491217
-9.74343e-05
0.00493643
-9.87511e-05
0.00496108
-0.000100227
0.00498613
-0.00010186
0.00501163
-0.00010365
0.00503763
-0.00010559
0.00506414
-0.000107672
0.00509121
-0.000109883
0.00511887
-0.000112207
0.00514713
-0.000114623
0.00517601
-0.000117105
0.00520551
-0.000119619
0.00523565
-0.00012213
0.0052664
-0.000124592
0.00529774
-0.000126957
0.00532964
-0.000129166
0.00536203
-0.000131157
0.00539485
-0.000132862
0.00542801
-0.000134204
0.0054614
-0.000135108
0.00549488
-0.000135482
0.00552832
-0.000135264
0.00556152
-0.000134305
0.00559431
-0.000132665
0.00562643
-0.000129905
0.00565778
-0.00012677
0.00568775
-0.000121214
0.00571687
-0.000117727
-0.000105642
0.00309514
-0.000183001
0.00312836
-0.000179161
0.00316109
-0.000176043
0.00319338
-0.000173296
0.00322527
-0.000170816
0.00325679
-0.000168583
0.00328798
-0.00016657
0.00331885
-0.000164741
0.00334945
-0.000163069
0.00337978
-0.00016153
0.00340987
-0.000160103
0.00343973
-0.000158771
0.00346937
-0.000157517
0.0034988
-0.000156329
0.00352804
-0.000155196
0.00355709
-0.000154106
0.00358595
-0.000153052
0.00361463
-0.000152027
0.00364313
-0.000151023
0.00367146
-0.000150035
0.00369962
-0.00014906
0.0037276
-0.000148092
0.00375542
-0.000147128
0.00378306
-0.000146166
0.00381053
-0.000145203
0.00383783
-0.000144237
0.00386496
-0.000143268
0.00389191
-0.000142293
0.00391869
-0.000141312
0.00394529
-0.000140325
0.00397171
-0.00013933
0.00399795
-0.000138329
0.00402401
-0.000137321
0.00404989
-0.000136307
0.00407559
-0.000135288
0.0041011
-0.000134264
0.00412642
-0.000133236
0.00415156
-0.000132206
0.00417651
-0.000131175
0.00420128
-0.000130145
0.00422586
-0.000129117
0.00425026
-0.000128094
0.00427447
-0.000127077
0.0042985
-0.00012607
0.00432235
-0.000125074
0.00434603
-0.000124094
0.00436953
-0.000123131
0.00439286
-0.00012219
0.00441603
-0.000121273
0.00443904
-0.000120386
0.00446189
-0.000119532
0.00448461
-0.000118716
0.00450718
-0.000117944
0.00452963
-0.00011722
0.00455196
-0.00011655
0.00457419
-0.000115941
0.00459633
-0.000115399
0.00461839
-0.00011493
0.00464038
-0.000114544
0.00466234
-0.000114247
0.00468427
-0.000114047
0.00470619
-0.000113953
0.00472814
-0.000113975
0.00475012
-0.000114121
0.00477218
-0.0001144
0.00479433
-0.000114822
0.00481661
-0.000115397
0.00483905
-0.000116132
0.00486167
-0.000117038
0.00488453
-0.000118121
0.00490764
-0.00011939
0.00493106
-0.000120849
0.00495481
-0.000122504
0.00497894
-0.000124355
0.00500348
-0.000126403
0.00502848
-0.000128645
0.00505396
-0.000131074
0.00507997
-0.00013368
0.00510653
-0.000136446
0.00513368
-0.000139353
0.00516143
-0.000142374
0.0051898
-0.000145476
0.0052188
-0.000148619
0.00524843
-0.000151758
0.00527867
-0.000154837
0.00530951
-0.000157793
0.0053409
-0.000160557
0.00537279
-0.00016305
0.00540512
-0.000165186
0.00543778
-0.000166871
0.00547069
-0.000168012
0.0055037
-0.000168491
0.00553667
-0.000168234
0.00556942
-0.000167056
0.00560178
-0.000165029
0.00563348
-0.000161607
0.00566444
-0.000157722
0.00569404
-0.00015082
0.00572281
-0.000146494
-0.00013148
0.00319771
-0.000214652
0.00322882
-0.000210281
0.00325956
-0.000206777
0.00328994
-0.00020368
0.00332
-0.000200869
0.00334974
-0.000198331
0.00337921
-0.000196037
0.00340842
-0.000193948
0.00343738
-0.000192035
0.00346612
-0.00019027
0.00349465
-0.000188632
0.00352298
-0.000187099
0.00355112
-0.000185656
0.00357908
-0.000184287
0.00360686
-0.00018298
0.00363448
-0.000181722
0.00366193
-0.000180505
0.00368922
-0.000179319
0.00371636
-0.000178158
0.00374334
-0.000177015
0.00377016
-0.000175885
0.00379684
-0.000174764
0.00382335
-0.000173647
0.00384972
-0.000172531
0.00387593
-0.000171414
0.00390199
-0.000170294
0.00392789
-0.000169168
0.00395363
-0.000168036
0.00397921
-0.000166896
0.00400464
-0.000165748
0.0040299
-0.000164592
0.004055
-0.000163428
0.00407993
-0.000162255
0.0041047
-0.000161075
0.0041293
-0.000159889
0.00415373
-0.000158696
0.004178
-0.0001575
0.00420209
-0.0001563
0.00422601
-0.000155099
0.00424977
-0.000153898
0.00427335
-0.000152701
0.00429677
-0.000151508
0.00432001
-0.000150324
0.00434309
-0.00014915
0.00436601
-0.000147991
0.00438876
-0.000146849
0.00441136
-0.000145728
0.0044338
-0.000144632
0.0044561
-0.000143566
0.00447825
-0.000142535
0.00450026
-0.000141544
0.00452214
-0.000140597
0.0045439
-0.000139702
0.00456554
-0.000138865
0.00458708
-0.000138092
0.00460854
-0.000137391
0.00462991
-0.00013677
0.00465121
-0.000136237
0.00467247
-0.000135801
0.0046937
-0.000135472
0.00471491
-0.000135259
0.00473613
-0.000135172
0.00475737
-0.000135222
0.00477867
-0.000135419
0.00480005
-0.000135776
0.00482153
-0.000136303
0.00484314
-0.000137012
0.00486492
-0.000137912
0.0048869
-0.000139015
0.00490911
-0.00014033
0.00493159
-0.000141866
0.00495436
-0.000143628
0.00497748
-0.000145623
0.00500098
-0.000147854
0.0050249
-0.000150319
0.00504927
-0.000153015
0.00507413
-0.000155934
0.00509951
-0.000159063
0.00512545
-0.000162384
0.00515197
-0.000165873
0.00517909
-0.000169499
0.00520684
-0.000173221
0.00523521
-0.000176994
0.00526422
-0.000180761
0.00529384
-0.000184457
0.00532405
-0.000188007
0.00535482
-0.000191328
0.0053861
-0.000194326
0.00541781
-0.000196899
0.00544987
-0.000198933
0.00548218
-0.000200319
0.0055146
-0.000200915
0.005547
-0.000200634
0.0055792
-0.000199251
0.00561103
-0.000196858
0.00564222
-0.000192797
0.00567268
-0.000188186
0.00570183
-0.000179971
0.00573017
-0.000174832
-0.000156953
0.00331782
-0.000243745
0.00334649
-0.000238957
0.0033749
-0.000235184
0.00340306
-0.000231838
0.00343097
-0.000228779
0.00345865
-0.000226008
0.00348611
-0.000223496
0.00351336
-0.000221203
0.00354042
-0.000219096
0.0035673
-0.00021715
0.00359401
-0.000215338
0.00362055
-0.000213642
0.00364693
-0.000212042
0.00367317
-0.000210522
0.00369926
-0.000209068
0.0037252
-0.000207668
0.00375101
-0.000206312
0.00377668
-0.00020499
0.00380222
-0.000203695
0.00382762
-0.000202419
0.0038529
-0.000201157
0.00387803
-0.000199903
0.00390304
-0.000198654
0.00392792
-0.000197405
0.00395266
-0.000196154
0.00397726
-0.000194899
0.00400173
-0.000193637
0.00402606
-0.000192367
0.00405025
-0.000191088
0.0040743
-0.000189799
0.00409821
-0.000188501
0.00412198
-0.000187192
0.0041456
-0.000185874
0.00416907
-0.000184547
0.00419239
-0.000183212
0.00421557
-0.000181871
0.00423859
-0.000180524
0.00426146
-0.000179173
0.00428418
-0.00017782
0.00430675
-0.000176468
0.00432917
-0.00017512
0.00435144
-0.000173777
0.00437356
-0.000172443
0.00439553
-0.000171121
0.00441736
-0.000169815
0.00443904
-0.000168529
0.00446058
-0.000167268
0.00448198
-0.000166036
0.00450325
-0.000164838
0.00452439
-0.000163679
0.00454542
-0.000162567
0.00456633
-0.000161506
0.00458713
-0.000160505
0.00460783
-0.00015957
0.00462845
-0.00015871
0.00464899
-0.000157932
0.00466947
-0.000157247
0.0046899
-0.000156664
0.00471029
-0.000156192
0.00473066
-0.000155844
0.00475103
-0.000155629
0.00477142
-0.000155561
0.00479185
-0.000155651
0.00481234
-0.000155912
0.00483292
-0.000156357
0.00485361
-0.000156998
0.00487445
-0.000157849
0.00489546
-0.000158922
0.00491668
-0.00016023
0.00493813
-0.000161782
0.00495985
-0.00016359
0.00498189
-0.000165661
0.00500426
-0.000168001
0.00502702
-0.000170613
0.0050502
-0.000173497
0.00507383
-0.000176648
0.00509796
-0.000180058
0.00512261
-0.000183712
0.00514781
-0.000187588
0.0051736
-0.000191659
0.00519999
-0.000195889
0.005227
-0.000200231
0.00525464
-0.000204632
0.0052829
-0.000209028
0.00531179
-0.000213341
0.00534127
-0.000217487
0.00537131
-0.000221368
0.00540186
-0.000224875
0.00543285
-0.00022789
0.0054642
-0.000230283
0.0054958
-0.000231924
0.00552754
-0.00023265
0.00555926
-0.00023236
0.0055908
-0.000230792
0.005622
-0.000228055
0.00565258
-0.000223381
0.00568247
-0.000218075
0.00571109
-0.000208585
0.00573892
-0.000202665
-0.000181996
0.00345393
-0.000269965
0.00347986
-0.000264886
0.00350565
-0.000260972
0.00353129
-0.000257484
0.00355678
-0.000254271
0.00358212
-0.000251346
0.00360731
-0.000248686
0.00363236
-0.00024625
0.00365727
-0.000244006
0.00368205
-0.000241926
0.00370669
-0.000239987
0.00373122
-0.000238166
0.00375562
-0.000236445
0.00377991
-0.000234809
0.00380408
-0.000233241
0.00382814
-0.000231729
0.00385209
-0.000230263
0.00387594
-0.000228833
0.00389967
-0.000227429
0.0039233
-0.000226046
0.00394682
-0.000224675
0.00397023
-0.000223314
0.00399353
-0.000221955
0.00401672
-0.000220597
0.0040398
-0.000219235
0.00406277
-0.000217867
0.00408562
-0.000216491
0.00410836
-0.000215105
0.00413098
-0.000213709
0.00415348
-0.000212301
0.00417586
-0.000210882
0.00419812
-0.000209451
0.00422026
-0.000208009
0.00424227
-0.000206557
0.00426415
-0.000205095
0.0042859
-0.000203625
0.00430753
-0.000202148
0.00432902
-0.000200668
0.00435039
-0.000199185
0.00437162
-0.000197702
0.00439272
-0.000196223
0.0044137
-0.00019475
0.00443454
-0.000193286
0.00445526
-0.000191837
0.00447585
-0.000190405
0.00449631
-0.000188996
0.00451666
-0.000187613
0.00453689
-0.000186264
0.004557
-0.000184953
0.00457701
-0.000183686
0.00459691
-0.000182471
0.00461672
-0.000181315
0.00463644
-0.000180226
0.00465608
-0.000179211
0.00467565
-0.00017828
0.00469517
-0.000177443
0.00471463
-0.00017671
0.00473406
-0.000176092
0.00475347
-0.000175601
0.00477287
-0.000175248
0.00479229
-0.000175047
0.00481174
-0.000175011
0.00483124
-0.000175154
0.00485082
-0.00017549
0.0048705
-0.000176034
0.0048903
-0.0001768
0.00491025
-0.000177803
0.00493039
-0.000179058
0.00495074
-0.000180578
0.00497133
-0.000182375
0.0049922
-0.000184461
0.00501339
-0.000186846
0.00503492
-0.000189534
0.00505684
-0.000192531
0.00507918
-0.000195836
0.00510198
-0.000199445
0.00512526
-0.000203347
0.00514908
-0.000207525
0.00517344
-0.000211956
0.00519839
-0.000216608
0.00522395
-0.000221441
0.00525012
-0.000226402
0.00527692
-0.000231432
0.00530434
-0.000236455
0.00533239
-0.000241387
0.00536103
-0.00024613
0.00539024
-0.000250573
0.00541996
-0.000254594
0.00545012
-0.000258059
0.00548066
-0.000260817
0.00551146
-0.000262726
0.00554241
-0.000263596
0.00557336
-0.000263316
0.00560416
-0.000261584
0.00563463
-0.00025853
0.00566452
-0.000253273
0.00569375
-0.000247307
0.00572176
-0.000236586
0.00574901
-0.000229918
-0.000206547
0.00360429
-0.000293051
0.00362721
-0.00028781
0.00365013
-0.000283888
0.00367302
-0.000280374
0.00369585
-0.000277104
0.00371862
-0.000274112
0.00374131
-0.00027138
0.00376393
-0.000268869
0.00378647
-0.000266547
0.00380894
-0.000264388
0.00383132
-0.000262369
0.00385362
-0.000260469
0.00387584
-0.000258669
0.00389799
-0.000256953
0.00392006
-0.000255307
0.00394204
-0.000253717
0.00396395
-0.000252173
0.00398578
-0.000250663
0.00400754
-0.000249181
0.00402921
-0.000247718
0.0040508
-0.000246267
0.00407231
-0.000244823
0.00409374
-0.000243382
0.00411508
-0.000241939
0.00413633
-0.000240491
0.0041575
-0.000239035
0.00417858
-0.00023757
0.00419957
-0.000236093
0.00422046
-0.000234603
0.00424126
-0.000233101
0.00426197
-0.000231584
0.00428257
-0.000230054
0.00430307
-0.000228512
0.00432347
-0.000226957
0.00434377
-0.000225391
0.00436396
-0.000223816
0.00438405
-0.000222234
0.00440402
-0.000220646
0.0044239
-0.000219056
0.00444366
-0.000217465
0.00446331
-0.000215878
0.00448286
-0.000214297
0.0045023
-0.000212727
0.00452164
-0.000211171
0.00454087
-0.000209635
0.00456
-0.000208124
0.00457902
-0.000206643
0.00459796
-0.000205197
0.0046168
-0.000203794
0.00463555
-0.00020244
0.00465422
-0.000201143
0.00467282