/*--------------------------------*- C++ -*----------------------------------*\
  =========                 |
  \\      /  F ield         | OpenFOAM: The Open Source CFD Toolbox
   \\    /   O peration     | Website:  https://openfoam.org
    \\  /    A nd           | Version:  7
     \\/     M anipulation  |
\*---------------------------------------------------------------------------*/
FoamFile
{
    version     2.0;
    format      ascii;
    class       volVectorField;
    location    "15";
    object      U;
}
// * * * * * * * * * * * * * * * * * * * * * * * * * * * * * * * * * * * * * //

dimensions      [0 1 -1 0 0 0 0];

internalField   nonuniform List<vector> 
21000
(
(0.238705 -0.00343255 9.98084e-22)
(0.269836 -0.00354945 3.08283e-21)
(0.30018 -0.00362519 -1.70066e-21)
(0.33318 -0.00376219 -3.82711e-21)
(0.362926 -0.0036949 -3.86696e-22)
(0.397704 -0.00420285 -1.72533e-21)
(0.241015 -0.0102792 5.28948e-21)
(0.272396 -0.0106262 -7.04604e-21)
(0.302979 -0.0108508 3.40921e-21)
(0.33628 -0.0112551 1.09003e-20)
(0.366199 -0.0110542 -2.58359e-22)
(0.401477 -0.0125555 -8.27773e-22)
(0.245622 -0.0170688 5.99136e-21)
(0.277501 -0.0176353 6.36483e-21)
(0.308558 -0.0180012 -7.29816e-21)
(0.342453 -0.018654 -8.85507e-21)
(0.372716 -0.0183233 2.941e-21)
(0.40898 -0.0207525 1.16887e-20)
(0.252502 -0.0237635 -7.39875e-21)
(0.285119 -0.0245319 -5.70718e-21)
(0.316876 -0.0250268 1.20775e-20)
(0.35165 -0.0258973 2.11964e-21)
(0.382417 -0.0254434 -7.43588e-21)
(0.42013 -0.0286936 -9.78846e-21)
(0.261619 -0.030326 1.95991e-21)
(0.295202 -0.0312723 -6.07574e-21)
(0.327877 -0.0318792 5.56766e-21)
(0.363792 -0.0329249 -1.49555e-20)
(0.395211 -0.0323576 -5.60829e-21)
(0.434804 -0.0362832 5.01709e-21)
(0.272926 -0.0367198 -3.61393e-20)
(0.30769 -0.0378135 -5.38451e-21)
(0.341481 -0.0385112 8.14199e-21)
(0.378779 -0.0396791 9.81446e-21)
(0.410984 -0.0390118 1.83782e-20)
(0.452838 -0.0434322 -4.39789e-21)
(0.286362 -0.042909 4.66845e-20)
(0.322505 -0.0441141 4.04716e-20)
(0.357594 -0.0448774 -3.14972e-20)
(0.396487 -0.0461048 1.70508e-20)
(0.429591 -0.0453546 -1.13519e-20)
(0.474034 -0.0500601 -2.38425e-21)
(0.301859 -0.0488591 -2.10438e-20)
(0.339556 -0.0501343 -1.62954e-20)
(0.376102 -0.0509345 3.24136e-20)
(0.416771 -0.0521507 -7.00623e-21)
(0.450865 -0.0513387 -2.70467e-20)
(0.498157 -0.056096 2.20377e-20)
(0.319334 -0.0545367 -2.4889e-20)
(0.358741 -0.055836 -3.32491e-20)
(0.396878 -0.0566416 -3.75476e-20)
(0.439464 -0.0577692 4.304e-21)
(0.474617 -0.0569204 1.28604e-20)
(0.524942 -0.0614803 -3.18587e-20)
(0.379941 -0.0611837 5.07515e-20)
(0.419779 -0.0619607 1.48085e-20)
(0.464383 -0.0629175 -3.2586e-21)
(0.500637 -0.0620602 4.29433e-20)
(0.5541 -0.0661653 8.56323e-21)
(0.40303 -0.0661441 -7.94385e-20)
(0.444645 -0.066857 -8.1774e-22)
(0.491326 -0.0675578 -1.73508e-20)
(0.528698 -0.066723 4.15187e-21)
(0.585316 -0.0701163 -4.85065e-21)
(0.427868 -0.070687 7.16225e-20)
(0.471309 -0.0712988 1.20394e-20)
(0.520079 -0.071658 1.99892e-20)
(0.558561 -0.0708781 -4.07675e-20)
(0.618259 -0.0733114 2.38237e-20)
(0.454307 -0.074785 -9.13801e-21)
(0.49959 -0.0752585 -9.22298e-21)
(0.550415 -0.0751919 -1.96507e-20)
(0.589972 -0.0744993 3.19925e-20)
(0.652587 -0.0757422 -3.81833e-20)
(0.48219 -0.0784141 5.41555e-22)
(0.529299 -0.0787123 -4.56716e-21)
(0.582098 -0.0781398 4.69027e-20)
(0.62267 -0.0775652 -8.7731e-21)
(0.68795 -0.0774129 3.90728e-20)
(0.511353 -0.0815538 2.58316e-22)
(0.560239 -0.0816406 3.00267e-20)
(0.614887 -0.0804888 -6.36171e-20)
(0.656388 -0.0800595 4.62016e-20)
(0.723999 -0.0783398 -3.25014e-20)
(0.541627 -0.0841874 -5.0065e-20)
(0.592207 -0.0840284 -2.63577e-20)
(0.648534 -0.0822325 8.34406e-20)
(0.690859 -0.0819709 -6.39909e-20)
(0.76039 -0.0785503 -3.48392e-21)
(0.572837 -0.0863021 2.79092e-20)
(0.624998 -0.0858653 1.0288e-20)
(0.682794 -0.0833719 -5.50755e-20)
(0.725812 -0.0832936 -4.43205e-21)
(0.796791 -0.0780818 3.7825e-20)
(0.604805 -0.0878892 -2.85203e-21)
(0.658405 -0.0871455 -3.94961e-20)
(0.717422 -0.0839143 -1.60723e-20)
(0.760985 -0.0840274 -1.56532e-20)
(0.832885 -0.0769803 -5.83326e-21)
(0.637352 -0.0889441 2.9332e-20)
(0.692218 -0.0878684 -1.39491e-20)
(0.752176 -0.083874 6.21413e-20)
(0.796118 -0.0841783 3.27005e-20)
(0.868377 -0.0752986 -2.90962e-20)
(0.670299 -0.0894665 -6.15407e-20)
(0.726234 -0.0880381 3.73937e-20)
(0.786826 -0.0832711 -2.8927e-20)
(0.830963 -0.0837587 -6.66104e-20)
(0.902999 -0.0730949 4.71708e-20)
(0.703468 -0.0894604 3.85663e-20)
(0.76025 -0.0876636 2.33823e-20)
(0.821149 -0.0821316 -3.27055e-20)
(0.865285 -0.082787 7.2931e-20)
(0.936509 -0.0704315 -4.3616e-20)
(0.736685 -0.0889341 2.77051e-21)
(0.794072 -0.086759 -2.73643e-20)
(0.854935 -0.0804866 8.51031e-21)
(0.898863 -0.0812879 2.96895e-20)
(0.968698 -0.0673724 -6.85863e-22)
(0.827513 -0.0853426 2.59481e-20)
(0.887991 -0.0783713 -4.15967e-20)
(0.931496 -0.0792923 -1.12312e-20)
(0.999391 -0.0639825 -1.18687e-20)
(0.860396 -0.0834377 -3.59952e-20)
(0.92014 -0.0758246 3.50704e-20)
(0.963001 -0.0768365 -3.08688e-20)
(1.02844 -0.0603259 3.27937e-20)
(0.892556 -0.0810712 -8.51036e-21)
(0.951222 -0.0728881 5.03008e-20)
(0.99322 -0.0739614 6.78334e-20)
(1.05575 -0.0564646 -2.08395e-21)
(0.92384 -0.078274 8.16753e-20)
(0.981098 -0.0696053 -4.7606e-20)
(1.02202 -0.0707121 -5.45892e-21)
(1.08124 -0.0524573 -2.87733e-20)
(0.954113 -0.0750801 -9.19622e-21)
(1.00965 -0.0660207 4.36393e-22)
(1.04928 -0.0671363 -3.1679e-20)
(1.10485 -0.0483586 -2.08398e-21)
(0.983252 -0.071526 -2.29595e-20)
(1.03678 -0.0621792 -2.40456e-21)
(1.07493 -0.0632836 -5.10175e-20)
(1.12658 -0.0442183 4.89532e-20)
(1.01115 -0.0676506 6.97298e-20)
(1.06242 -0.0581255 6.8353e-20)
(1.09891 -0.0592039 -2.87144e-20)
(1.14644 -0.040081 -1.08795e-19)
(1.03773 -0.0634936 -1.7036e-19)
(1.0865 -0.0539028 -1.01423e-19)
(1.12118 -0.0549467 3.18324e-20)
(1.16446 -0.0359855 1.07941e-19)
(1.10899 -0.0495532 1.13099e-20)
(1.14172 -0.0505593 7.96212e-20)
(1.1807 -0.0319651 -1.37207e-20)
(1.12988 -0.0451164 1.19473e-19)
(1.16055 -0.0460864 6.00454e-21)
(1.19521 -0.028048 -4.39686e-20)
(1.14917 -0.0406296 -6.84495e-20)
(1.17771 -0.0415686 -9.682e-20)
(1.20807 -0.0242575 6.04275e-20)
(1.16687 -0.0361272 2.54016e-20)
(1.19322 -0.0370421 -1.39158e-20)
(1.21939 -0.0206131 -1.34045e-19)
(1.18302 -0.0316403 9.23889e-21)
(1.20717 -0.032538 -6.01205e-20)
(1.22924 -0.017133 1.23271e-19)
(1.19766 -0.0271968 -1.28128e-20)
(1.21961 -0.0280819 1.20811e-19)
(1.23772 -0.0138356 -5.663e-20)
(1.23062 -0.0236934 6.6386e-20)
(1.24493 -0.0107378 9.41403e-20)
(1.24029 -0.0193836 -4.39433e-20)
(1.25094 -0.00785086 -7.40843e-20)
(1.24869 -0.0151534 1.41169e-20)
(1.25585 -0.00522338 -1.40562e-20)
(1.25592 -0.0110079 -1.16317e-20)
(1.25984 -0.00309864 1.32662e-20)
(1.26331 -0.00182927 -9.64301e-21)
(1.26689 -0.000446873 1.21786e-20)
(1.26991 0.00122147 8.51757e-20)
(1.27226 0.00305982 1.14194e-20)
(1.27224 -0.00304508 -1.37823e-19)
(1.26989 -0.00120979 7.27842e-20)
(1.26688 0.000455363 9.75479e-21)
(1.26328 0.00184746 -1.64482e-20)
(1.25592 0.0110036 -8.40197e-20)
(1.25982 0.0031004 1.07869e-20)
(1.2487 0.0151512 1.79106e-20)
(1.25583 0.00522269 -7.5915e-21)
(1.24029 0.0193828 -6.54852e-20)
(1.25092 0.00785043 -7.39576e-20)
(1.23062 0.0236934 6.93812e-20)
(1.24491 0.0107372 7.4329e-20)
(1.19766 0.0271972 -5.6479e-20)
(1.21961 0.0280825 1.28962e-19)
(1.23771 0.0138348 -7.95581e-20)
(1.18302 0.0316405 7.46231e-21)
(1.20717 0.0325391 -5.67846e-20)
(1.22923 0.0171321 1.22706e-19)
(1.16687 0.0361272 2.65518e-20)
(1.19323 0.0370435 -7.20357e-21)
(1.21938 0.0206122 -1.22216e-19)
(1.14916 0.0406296 -7.12055e-20)
(1.17771 0.0415701 -9.9887e-20)
(1.20807 0.0242567 5.47937e-20)
(1.12988 0.0451163 1.07718e-19)
(1.16055 0.0460879 1.16063e-20)
(1.1952 0.0280473 -3.34124e-20)
(1.10899 0.0495531 4.58729e-21)
(1.14172 0.0505609 8.0638e-20)
(1.18069 0.0319645 1.83322e-21)
(1.03773 0.0634937 -1.81538e-20)
(1.08649 0.0539026 -9.82737e-20)
(1.12117 0.0549482 4.15187e-20)
(1.16446 0.0359849 1.0253e-19)
(1.01115 0.0676507 7.56493e-20)
(1.06241 0.0581252 6.26665e-20)
(1.09891 0.0592053 -3.22095e-20)
(1.14644 0.0400805 -1.03652e-19)
(0.98325 0.0715263 -3.83578e-20)
(1.03678 0.062179 1.70961e-21)
(1.07493 0.0632849 -5.3392e-20)
(1.12658 0.0442179 5.75422e-20)
(0.954111 0.0750803 -2.7044e-21)
(1.00965 0.0660204 4.34479e-21)
(1.04928 0.0671375 -3.7755e-20)
(1.10485 0.0483581 8.08749e-21)
(0.923838 0.0782743 9.01923e-20)
(0.981095 0.069605 -5.60395e-20)
(1.02202 0.0707131 -8.99193e-21)
(1.08123 0.0524569 -1.93049e-20)
(0.892554 0.0810715 -1.696e-20)
(0.951218 0.0728879 4.6041e-20)
(0.993218 0.0739623 6.63684e-20)
(1.05575 0.0564642 2.04391e-21)
(0.860394 0.083438 -2.83627e-20)
(0.920137 0.0758244 4.20733e-20)
(0.962999 0.0768373 -3.60199e-20)
(1.02844 0.0603256 3.24458e-20)
(0.769776 0.0878998 -9.34812e-20)
(0.827511 0.0853429 3.14909e-20)
(0.887988 0.0783711 -4.73099e-20)
(0.931494 0.079293 -1.28505e-20)
(0.999389 0.0639822 -1.29258e-20)
(0.736683 0.0889342 1.27221e-20)
(0.79407 0.0867593 -3.54462e-20)
(0.854932 0.0804864 1.88365e-20)
(0.898861 0.0812885 2.59865e-20)
(0.968696 0.067372 -7.44307e-21)
(0.703466 0.0894606 3.33575e-20)
(0.760248 0.087664 3.30748e-20)
(0.821146 0.0821315 -3.39697e-20)
(0.865283 0.0827874 7.41235e-20)
(0.936507 0.0704311 -4.24584e-20)
(0.670297 0.0894667 -6.88308e-20)
(0.726232 0.0880384 3.8189e-20)
(0.786823 0.0832709 -3.46179e-20)
(0.830961 0.083759 -5.84062e-20)
(0.902997 0.0730945 4.25628e-20)
(0.63735 0.0889443 3.33394e-20)
(0.692216 0.0878687 -9.23109e-21)
(0.752174 0.0838738 5.70854e-20)
(0.796116 0.0841786 3.45713e-20)
(0.868375 0.0752981 -3.13688e-20)
(0.604803 0.0878894 -2.00519e-21)
(0.658403 0.0871459 -4.0568e-20)
(0.717419 0.0839142 -1.60218e-20)
(0.760983 0.0840275 -1.57571e-20)
(0.832883 0.0769798 -6.45289e-21)
(0.572835 0.0863024 3.49475e-20)
(0.624996 0.0858656 9.72193e-21)
(0.682792 0.0833718 -5.18498e-20)
(0.72581 0.0832937 -3.87017e-21)
(0.796789 0.0780813 3.51859e-20)
(0.541625 0.0841877 -4.15195e-20)
(0.592205 0.0840287 -2.8321e-20)
(0.648532 0.0822325 7.50977e-20)
(0.690856 0.081971 -6.38854e-20)
(0.760388 0.0785497 1.50914e-23)
(0.511352 0.0815541 4.63041e-21)
(0.560237 0.0816409 2.70072e-20)
(0.614885 0.0804887 -6.29287e-20)
(0.656386 0.0800595 3.96263e-20)
(0.723997 0.0783392 -2.8777e-20)
(0.482188 0.0784144 3.98946e-21)
(0.529297 0.0787126 -1.91822e-21)
(0.582096 0.0781398 4.14445e-20)
(0.622667 0.0775652 -1.43921e-20)
(0.687948 0.0774123 4.23429e-20)
(0.454305 0.0747853 -5.05483e-21)
(0.499588 0.0752588 -1.5142e-20)
(0.550413 0.0751918 -1.81694e-20)
(0.58997 0.0744991 3.24694e-20)
(0.652585 0.0757416 -3.57528e-20)
(0.427866 0.0706874 7.18977e-20)
(0.471308 0.0712991 1.45313e-20)
(0.520077 0.0716579 1.85142e-20)
(0.558559 0.0708779 -4.10598e-20)
(0.618257 0.0733107 2.47444e-20)
(0.403029 0.0661445 -7.7735e-20)
(0.444644 0.0668573 -1.23606e-21)
(0.491324 0.0675578 -1.66331e-20)
(0.528697 0.0667228 4.10248e-21)
(0.585314 0.0701155 -6.93167e-21)
(0.37994 0.0611841 5.45302e-20)
(0.419777 0.0619611 1.42027e-20)
(0.464381 0.0629175 -2.37362e-21)
(0.500635 0.06206 4.21735e-20)
(0.554098 0.0661646 7.33062e-21)
(0.319333 0.0545372 3.50839e-20)
(0.35874 0.0558364 -3.11071e-20)
(0.396877 0.0566419 -3.7912e-20)
(0.439463 0.0577692 6.27164e-21)
(0.474615 0.0569202 9.18289e-21)
(0.524941 0.0614795 -3.09697e-20)
(0.301858 0.0488597 -2.73781e-20)
(0.339555 0.0501347 -1.41466e-20)
(0.376101 0.0509348 3.33297e-20)
(0.41677 0.0521507 -5.75815e-21)
(0.450863 0.0513385 -3.0574e-20)
(0.498155 0.0560952 2.27522e-20)
(0.286362 0.0429096 4.83883e-20)
(0.322504 0.0441146 3.58054e-20)
(0.357592 0.0448777 -2.7231e-20)
(0.396486 0.0461048 1.51296e-20)
(0.429589 0.0453544 -9.55136e-21)
(0.474032 0.0500593 -3.10197e-21)
(0.272925 0.0367204 -3.37118e-20)
(0.307689 0.037814 -4.37542e-21)
(0.34148 0.0385115 4.03445e-21)
(0.378778 0.039679 1.08249e-20)
(0.410983 0.0390115 1.87026e-20)
(0.452837 0.0434313 -5.81259e-21)
(0.261619 0.0303266 2.3527e-21)
(0.295202 0.0312728 -4.2854e-21)
(0.327876 0.0318795 4.71895e-21)
(0.363791 0.0329249 -1.42369e-20)
(0.39521 0.0323573 -5.30305e-21)
(0.434803 0.0362823 4.63086e-21)
(0.252502 0.0237641 -7.22412e-21)
(0.285118 0.0245324 -6.53542e-21)
(0.316876 0.0250271 1.19579e-20)
(0.351649 0.0258973 1.65912e-21)
(0.382416 0.0254431 -6.32274e-21)
(0.42013 0.0286927 -1.03458e-20)
(0.245622 0.0170694 4.95849e-21)
(0.277501 0.0176358 7.54704e-21)
(0.308557 0.0180015 -6.78676e-21)
(0.342453 0.018654 -1.01731e-20)
(0.372716 0.018323 3.64277e-21)
(0.408979 0.0207516 1.18498e-20)
(0.241015 0.0102799 5.12557e-21)
(0.272396 0.0106267 -6.83958e-21)
(0.302979 0.0108511 3.42167e-21)
(0.336279 0.0112551 1.11984e-20)
(0.366199 0.0110539 -3.61015e-22)
(0.401477 0.0125545 -3.19686e-22)
(0.238705 0.00343318 9.52607e-22)
(0.269836 0.00354994 3.05131e-21)
(0.300179 0.00362553 -1.71002e-21)
(0.33318 0.00376219 -3.61713e-21)
(0.362926 0.00369457 -6.48728e-22)
(0.397704 0.00420191 -1.55284e-21)
(0.416968 -0.00376029 6.64862e-22)
(0.42271 -0.00363217 -3.51173e-22)
(0.428288 -0.00351942 -4.58017e-24)
(0.433812 -0.00341696 5.31611e-23)
(0.439268 -0.0033228 -4.52135e-23)
(0.444652 -0.00323594 -1.92254e-22)
(0.449975 -0.00315538 1.39752e-22)
(0.455245 -0.00308021 3.29906e-22)
(0.460467 -0.00300966 -2.41936e-22)
(0.465647 -0.00294309 4.0092e-23)
(0.470788 -0.00287997 -6.35879e-23)
(0.475893 -0.00281985 1.78121e-22)
(0.480967 -0.00276235 -1.32615e-22)
(0.486011 -0.00270713 2.69292e-22)
(0.491027 -0.00265394 -3.28756e-22)
(0.496018 -0.00260253 7.54438e-23)
(0.500985 -0.00255271 1.81817e-22)
(0.505928 -0.00250431 -1.59002e-22)
(0.510849 -0.00245719 1.98855e-22)
(0.515749 -0.00241124 -2.69349e-22)
(0.520627 -0.00236635 1.4303e-23)
(0.525486 -0.00232244 2.06635e-22)
(0.530324 -0.00227944 -2.98598e-22)
(0.535143 -0.00223728 2.29844e-22)
(0.539942 -0.00219592 -2.0589e-22)
(0.544722 -0.00215532 1.32384e-22)
(0.549483 -0.00211544 9.22687e-23)
(0.554224 -0.00207625 -2.24297e-23)
(0.558946 -0.00203774 -2.15892e-22)
(0.563649 -0.00199987 1.87532e-22)
(0.568332 -0.00196265 2.19759e-23)
(0.572997 -0.00192606 -5.9651e-23)
(0.577641 -0.00189008 9.5118e-23)
(0.582267 -0.00185473 4.35724e-23)
(0.586873 -0.00181998 -1.91782e-22)
(0.59146 -0.00178586 8.6798e-24)
(0.596028 -0.00175234 9.44556e-23)
(0.600576 -0.00171945 4.90466e-23)
(0.605106 -0.00168717 -8.35604e-23)
(0.609617 -0.00165553 8.86272e-24)
(0.61411 -0.00162452 -9.3601e-23)
(0.618584 -0.00159416 1.92972e-22)
(0.623041 -0.00156445 -1.85048e-22)
(0.62748 -0.00153541 2.02672e-22)
(0.631903 -0.00150704 -1.1009e-22)
(0.63631 -0.00147936 -4.98875e-23)
(0.640702 -0.00145239 -5.34617e-24)
(0.645079 -0.00142615 5.61368e-25)
(0.649442 -0.00140064 6.8388e-23)
(0.653793 -0.00137589 -2.77087e-23)
(0.658133 -0.00135191 6.75489e-23)
(0.662464 -0.00132874 -3.84128e-23)
(0.666786 -0.00130639 -3.55912e-23)
(0.671101 -0.00128489 4.74035e-23)
(0.675412 -0.00126427 -4.3129e-23)
(0.679721 -0.00124454 1.75328e-23)
(0.684029 -0.00122575 -2.30982e-23)
(0.68834 -0.00120792 3.09008e-23)
(0.692655 -0.00119109 -5.99138e-23)
(0.696979 -0.00117528 1.88939e-24)
(0.701314 -0.00116054 5.49161e-23)
(0.705664 -0.00114689 -4.03283e-23)
(0.710033 -0.00113438 -6.41347e-24)
(0.714425 -0.00112303 1.19852e-23)
(0.718844 -0.00111288 1.4262e-23)
(0.723295 -0.00110396 -1.53951e-23)
(0.727784 -0.0010963 2.00406e-24)
(0.732316 -0.00108992 -1.70367e-23)
(0.736896 -0.00108484 -4.51581e-24)
(0.741531 -0.00108108 3.10636e-23)
(0.746227 -0.00107864 6.0889e-24)
(0.75099 -0.00107751 5.43133e-25)
(0.755828 -0.00107767 -1.94528e-23)
(0.760746 -0.00107911 2.7617e-24)
(0.765753 -0.00108177 -2.90309e-24)
(0.770856 -0.00108558 8.66633e-24)
(0.77606 -0.00109047 -4.05055e-24)
(0.781373 -0.00109632 7.0497e-24)
(0.786801 -0.00110301 -1.80543e-24)
(0.792351 -0.00111038 1.07801e-23)
(0.798026 -0.00111824 1.10215e-23)
(0.803831 -0.00112637 -6.26435e-24)
(0.80977 -0.00113453 5.6181e-24)
(0.815844 -0.00114244 -3.99297e-24)
(0.822054 -0.0011498 6.48648e-24)
(0.828397 -0.00115625 -7.7814e-24)
(0.83487 -0.00116144 -2.01702e-24)
(0.841467 -0.00116498 -4.0579e-25)
(0.848179 -0.00116645 9.70421e-25)
(0.854996 -0.00116541 -1.64882e-25)
(0.861898 -0.00116146 2.21009e-24)
(0.868879 -0.0011541 1.4313e-25)
(0.875888 -0.00114304 -6.99694e-25)
(0.88297 -0.00112748 1.10544e-26)
(0.889932 -0.00110794 -6.21243e-25)
(0.897119 -0.0010819 -1.81072e-27)
(0.903637 -0.00105404 -4.74679e-26)
(0.911366 -0.00101235 1.01821e-24)
(0.916028 -0.000983432 2.82063e-25)
(0.926766 -0.000905664 1.94983e-24)
(0.420608 -0.011236 3.57377e-22)
(0.426274 -0.0108548 -1.44882e-22)
(0.431777 -0.0105192 -3.93797e-23)
(0.437235 -0.0102139 8.00549e-22)
(0.442628 -0.0099332 5.34503e-22)
(0.447952 -0.00967411 -1.61294e-21)
(0.453216 -0.00943372 1.6931e-22)
(0.458429 -0.00920931 2.31671e-21)
(0.463597 -0.00899862 -1.37397e-21)
(0.468722 -0.00879976 4.76302e-22)
(0.473811 -0.00861116 -4.52632e-22)
(0.478866 -0.00843147 1.2927e-22)
(0.483889 -0.00825955 3.20201e-22)
(0.488884 -0.00809446 -7.2238e-22)
(0.493853 -0.00793538 5.75368e-22)
(0.498796 -0.00778161 1.4832e-22)
(0.503716 -0.00763257 -1.81719e-22)
(0.508613 -0.00748778 -9.20114e-22)
(0.513489 -0.00734681 1.23394e-21)
(0.518343 -0.00720931 -7.56443e-22)
(0.523178 -0.00707498 6.2181e-22)
(0.527993 -0.00694357 -5.01486e-22)
(0.532788 -0.00681487 2.17994e-22)
(0.537565 -0.0066887 -2.81385e-22)
(0.542322 -0.00656491 1.66907e-22)
(0.547061 -0.00644339 -7.11513e-23)
(0.55178 -0.00632402 1.86512e-23)
(0.556481 -0.00620673 -1.2609e-22)
(0.561163 -0.00609146 2.62097e-22)
(0.565827 -0.00597815 6.52203e-23)
(0.570471 -0.00586675 -1.62793e-22)
(0.575097 -0.00575725 2.21008e-22)
(0.579704 -0.00564962 -1.04177e-22)
(0.584292 -0.00554385 -9.2069e-23)
(0.588862 -0.00543994 -2.09086e-23)
(0.593412 -0.00533788 5.73836e-23)
(0.597944 -0.00523768 -1.16541e-22)
(0.602458 -0.00513935 -1.57208e-22)
(0.606952 -0.00504291 -7.74585e-23)
(0.611429 -0.00494838 -1.04135e-22)
(0.615888 -0.00485579 1.39298e-22)
(0.620329 -0.00476515 8.4971e-23)
(0.624753 -0.00467652 -2.48915e-22)
(0.62916 -0.00458991 2.28234e-22)
(0.633551 -0.00450536 6.39394e-23)
(0.637926 -0.00442293 -1.44542e-22)
(0.642286 -0.00434266 6.01355e-23)
(0.646633 -0.0042646 2.33865e-22)
(0.650966 -0.0041888 -7.09605e-23)
(0.655288 -0.00411532 4.34031e-23)
(0.659598 -0.00404422 -1.58343e-22)
(0.6639 -0.00397558 1.61607e-22)
(0.668193 -0.00390945 -7.65357e-23)
(0.672481 -0.00384592 -7.04378e-23)
(0.676764 -0.00378507 3.18122e-24)
(0.681045 -0.00372697 7.28202e-25)
(0.685327 -0.00367172 -3.81364e-23)
(0.689611 -0.00361941 1.28602e-22)
(0.6939 -0.00357014 -3.2126e-23)
(0.698198 -0.00352399 -1.07329e-22)
(0.702507 -0.00348107 1.64415e-23)
(0.706832 -0.00344149 1.5375e-22)
(0.711176 -0.00340533 5.98793e-24)
(0.715543 -0.00337269 -4.80956e-23)
(0.719938 -0.00334368 -7.2737e-23)
(0.724365 -0.00331836 1.66347e-23)
(0.72883 -0.00329683 -4.42864e-23)
(0.733338 -0.00327914 2.89763e-23)
(0.737894 -0.00326534 2.2874e-23)
(0.742505 -0.00325546 -4.36319e-23)
(0.747178 -0.0032495 2.48356e-23)
(0.751917 -0.00324743 -4.74065e-24)
(0.756732 -0.00324919 -2.20204e-23)
(0.761627 -0.00325467 2.31757e-24)
(0.766611 -0.00326372 2.74629e-23)
(0.771689 -0.00327613 1.1921e-23)
(0.77687 -0.00329164 2.65141e-23)
(0.78216 -0.0033099 -2.49003e-23)
(0.787564 -0.00333051 -3.16101e-24)
(0.793089 -0.00335298 -8.52597e-24)
(0.79874 -0.00337674 1.55508e-23)
(0.804521 -0.00340113 -2.8931e-23)
(0.810435 -0.00342539 6.93528e-24)
(0.816485 -0.00344868 1.84467e-23)
(0.822669 -0.00347007 -2.24175e-23)
(0.828987 -0.00348855 2.18593e-24)
(0.835435 -0.003503 9.29082e-24)
(0.842006 -0.00351226 3.85905e-24)
(0.848692 -0.00351511 5.41295e-25)
(0.855483 -0.00351025 -1.05859e-24)
(0.862359 -0.00349647 8.60071e-25)
(0.869314 -0.00347226 3.9605e-25)
(0.876297 -0.00343684 1.02397e-24)
(0.883354 -0.00338784 -9.50887e-25)
(0.89029 -0.00332681 1.70349e-25)
(0.897453 -0.00324625 1.07306e-25)
(0.903947 -0.00316023 -2.26293e-27)
(0.91165 -0.00303282 -8.17483e-25)
(0.916295 -0.00294374 -2.29209e-25)
(0.926997 -0.00270841 -7.03405e-24)
(0.427847 -0.0185817 5.70363e-22)
(0.433364 -0.0179571 1.68711e-21)
(0.43872 -0.0174069 -1.88189e-21)
(0.444045 -0.0169056 1.23695e-21)
(0.449312 -0.0164439 -1.28277e-21)
(0.454516 -0.0160175 -2.36644e-22)
(0.459664 -0.0156216 2.37435e-23)
(0.464764 -0.0152517 1.1356e-21)
(0.469823 -0.0149042 -2.91829e-22)
(0.474842 -0.0145761 3.09251e-22)
(0.479827 -0.0142648 -5.80388e-22)
(0.484781 -0.0139681 3.29824e-22)
(0.489705 -0.0136841 -6.10208e-22)
(0.494602 -0.0134113 -4.71142e-22)
(0.499475 -0.0131484 1.20344e-21)
(0.504324 -0.0128943 2.38331e-22)
(0.50915 -0.0126479 -1.2025e-21)
(0.513956 -0.0124085 1.50131e-21)
(0.518742 -0.0121754 -1.83046e-21)
(0.523508 -0.011948 7.8487e-22)
(0.528254 -0.0117258 8.25268e-22)
(0.532983 -0.0115084 -7.93684e-22)
(0.537693 -0.0112955 2.23695e-22)
(0.542385 -0.0110868 2.22694e-22)
(0.547059 -0.010882 -4.20397e-22)
(0.551715 -0.010681 2.06621e-22)
(0.556353 -0.0104835 4.34179e-23)
(0.560974 -0.0102894 -4.93855e-23)
(0.565577 -0.0100987 5.17144e-23)
(0.570162 -0.00991117 4.32742e-22)
(0.57473 -0.00972684 -3.74928e-22)
(0.57928 -0.00954563 -2.46164e-22)
(0.583811 -0.00936752 -3.14582e-22)
(0.588325 -0.00919249 8.51302e-22)
(0.592822 -0.00902052 -1.33323e-22)
(0.5973 -0.00885162 -6.65053e-23)
(0.601761 -0.0086858 -1.72386e-22)
(0.606204 -0.00852308 -1.06928e-22)
(0.61063 -0.00836349 5.20999e-22)
(0.615038 -0.00820707 -3.01293e-22)
(0.619429 -0.00805386 1.52516e-22)
(0.623804 -0.0079039 1.55708e-22)
(0.628162 -0.00775724 -1.11976e-22)
(0.632505 -0.00761396 -2.44127e-22)
(0.636832 -0.00747412 9.63783e-23)
(0.641145 -0.00733778 1.73049e-22)
(0.645443 -0.00720502 1.1372e-22)
(0.649729 -0.00707594 -4.02764e-22)
(0.654002 -0.00695062 2.18941e-22)
(0.658264 -0.00682917 -2.77633e-22)
(0.662517 -0.00671167 4.1776e-22)
(0.666761 -0.00659825 -1.96728e-22)
(0.670998 -0.00648903 -5.68019e-23)
(0.67523 -0.00638413 1.50976e-22)
(0.679458 -0.00628367 5.2821e-23)
(0.683685 -0.00618781 -1.63171e-22)
(0.687913 -0.00609669 -2.97714e-22)
(0.692144 -0.00601046 2.40173e-23)
(0.696381 -0.00592928 2.53891e-22)
(0.700627 -0.0058533 -2.12414e-22)
(0.704886 -0.00578269 -4.9529e-23)
(0.709161 -0.00571763 6.17952e-23)
(0.713455 -0.00565826 6.82017e-23)
(0.717773 -0.00560475 1.75369e-23)
(0.722119 -0.00555725 8.44402e-23)
(0.726498 -0.00551591 8.5098e-24)
(0.730915 -0.00548084 -9.75407e-23)
(0.735375 -0.00545215 -1.41535e-23)
(0.739884 -0.00542991 -2.96264e-23)
(0.744448 -0.00541418 -4.44435e-23)
(0.749074 -0.00540494 5.76813e-23)
(0.753767 -0.00540215 3.59748e-23)
(0.758535 -0.00540569 -6.5032e-23)
(0.763383 -0.00541539 8.59591e-23)
(0.76832 -0.00543099 -6.26616e-23)
(0.773352 -0.00545214 4.31182e-23)
(0.778486 -0.00547838 -2.78383e-23)
(0.783728 -0.00550916 3.10401e-23)
(0.789085 -0.00554379 3.60632e-23)
(0.794562 -0.00558145 -2.925e-23)
(0.800165 -0.00562119 -6.62045e-24)
(0.805897 -0.0056619 -9.64627e-25)
(0.811762 -0.00570233 2.58385e-23)
(0.817762 -0.00574108 -2.17788e-23)
(0.823896 -0.0057766 3.2544e-23)
(0.830163 -0.00580719 -1.16685e-23)
(0.83656 -0.00583101 1.19362e-23)
(0.843081 -0.00584613 -1.3206e-23)
(0.849715 -0.00585051 -9.09826e-25)
(0.856454 -0.005842 -1.15405e-24)
(0.863278 -0.00581859 -1.37567e-23)
(0.870182 -0.00577778 1.16802e-24)
(0.877113 -0.00571829 -6.55713e-24)
(0.884119 -0.00563614 -6.06559e-25)
(0.891005 -0.00553399 9.69551e-25)
(0.898117 -0.00539931 -5.98365e-25)
(0.904565 -0.00525559 1.44576e-25)
(0.912215 -0.00504298 -3.03306e-24)
(0.916827 -0.00489419 1.73803e-25)
(0.927459 -0.00450229 5.91886e-24)
(0.438606 -0.0257132 -1.92065e-21)
(0.443903 -0.0248609 2.70988e-21)
(0.44904 -0.0241097 -7.18508e-22)
(0.454169 -0.0234232 1.42705e-21)
(0.459251 -0.02279 -3.75882e-21)
(0.464275 -0.0222043 1.85647e-21)
(0.469251 -0.0216599 1.63634e-21)
(0.474185 -0.0211508 1.11178e-21)
(0.479081 -0.0206721 -2.27132e-21)
(0.483943 -0.0202197 -1.51804e-21)
(0.488775 -0.0197903 1.7138e-21)
(0.493577 -0.0193807 1.06107e-21)
(0.498354 -0.0189886 -2.17614e-21)
(0.503107 -0.0186118 1.01473e-21)
(0.507837 -0.0182485 -5.037e-22)
(0.512546 -0.0178971 7.05101e-23)
(0.517235 -0.0175565 9.16893e-23)
(0.521905 -0.0172255 1.42868e-21)
(0.526557 -0.016903 -1.17188e-21)
(0.531191 -0.0165885 1.69502e-21)
(0.535807 -0.0162811 -1.46798e-21)
(0.540407 -0.0159804 2.79891e-22)
(0.54499 -0.0156858 -2.40046e-23)
(0.549557 -0.0153969 -3.1247e-23)
(0.554107 -0.0151135 -1.69995e-22)
(0.558641 -0.0148352 -1.90818e-22)
(0.563159 -0.0145618 4.72437e-22)
(0.567661 -0.0142931 -1.80031e-21)
(0.572147 -0.014029 1.01597e-21)
(0.576616 -0.0137694 -7.35285e-22)
(0.581069 -0.0135142 9.40799e-22)
(0.585506 -0.0132633 3.83049e-22)
(0.589926 -0.0130166 -1.29732e-21)
(0.59433 -0.0127742 6.11919e-22)
(0.598718 -0.012536 2.07403e-22)
(0.603089 -0.0123021 -2.74015e-22)
(0.607444 -0.0120724 8.79735e-22)
(0.611783 -0.011847 -6.27572e-22)
(0.616106 -0.011626 -2.24588e-22)
(0.620413 -0.0114093 3.43156e-22)
(0.624704 -0.0111971 -3.15952e-22)
(0.62898 -0.0109893 7.24327e-22)
(0.633241 -0.0107862 2.8268e-23)
(0.637488 -0.0105877 -3.15536e-22)
(0.641721 -0.010394 -1.82776e-24)
(0.64594 -0.0102051 -5.01078e-22)
(0.650147 -0.0100212 2.84265e-22)
(0.654342 -0.00984246 -1.64641e-22)
(0.658526 -0.0096689 -1.53606e-23)
(0.662701 -0.0095007 2.73493e-22)
(0.666867 -0.009338 -2.53865e-22)
(0.671025 -0.00918097 1.65625e-22)
(0.675178 -0.00902977 9.77741e-23)
(0.679327 -0.00888457 -2.66985e-22)
(0.683473 -0.00874556 2.32061e-22)
(0.68762 -0.00861294 8.86596e-23)
(0.691768 -0.0084869 -1.9125e-22)
(0.695921 -0.00836767 8.15854e-24)
(0.70008 -0.00825546 2.31289e-22)
(0.70425 -0.00815049 -3.32237e-22)
(0.708433 -0.008053 1.98909e-23)
(0.712633 -0.00796321 2.68342e-22)
(0.716853 -0.00788135 2.0153e-23)
(0.721098 -0.00780764 2.36466e-24)
(0.725372 -0.0077423 -7.27989e-23)
(0.729679 -0.00768551 -6.10283e-24)
(0.734025 -0.00763746 7.64988e-24)
(0.738414 -0.00759829 5.29616e-23)
(0.742853 -0.00756809 1.56037e-23)
(0.747347 -0.00754694 1.10481e-22)
(0.751903 -0.00753482 -1.18548e-22)
(0.756527 -0.00753166 -1.97058e-23)
(0.761225 -0.00753731 -3.98101e-23)
(0.766004 -0.00755152 1.02082e-22)
(0.770871 -0.00757392 -4.62414e-23)
(0.775833 -0.00760403 -7.96797e-23)
(0.780897 -0.00764121 3.90539e-23)
(0.786068 -0.00768467 -8.25121e-23)
(0.791354 -0.00773347 5.36674e-23)
(0.79676 -0.00778646 9.84699e-24)
(0.802291 -0.0078423 -4.49436e-23)
(0.80795 -0.00789947 1.81133e-23)
(0.813742 -0.0079562 -3.02743e-23)
(0.819668 -0.00801053 1.21217e-23)
(0.825728 -0.00806031 -4.26979e-23)
(0.83192 -0.00810317 6.0297e-24)
(0.838241 -0.00813655 -1.23094e-23)
(0.844685 -0.00815772 2.37091e-23)
(0.851242 -0.00816389 -1.42993e-23)
(0.857904 -0.00815202 1.24767e-24)
(0.864651 -0.00811932 2.89743e-24)
(0.871477 -0.0080623 9.39807e-25)
(0.878332 -0.00797919 4.40815e-25)
(0.885261 -0.00786443 -2.75208e-24)
(0.892073 -0.00772175 -9.52193e-25)
(0.899109 -0.00753362 4.78286e-25)
(0.905488 -0.00733293 -1.77652e-25)
(0.91306 -0.00703604 5.55659e-24)
(0.917622 -0.00682827 -8.28684e-25)
(0.928147 -0.00628143 1.23476e-23)
(0.452765 -0.0325496 4.03833e-22)
(0.457776 -0.031491 9.69724e-22)
(0.462628 -0.0305572 2.8523e-21)
(0.467499 -0.0297005 -3.6857e-21)
(0.472338 -0.0289084 1.71321e-21)
(0.477129 -0.0281747 -4.02887e-22)
(0.481878 -0.0274915 2.59456e-22)
(0.486593 -0.0268518 -9.03998e-22)
(0.491277 -0.0262495 7.04692e-22)
(0.495933 -0.0256799 1.51114e-21)
(0.500562 -0.0251386 -6.66455e-22)
(0.505167 -0.024622 -9.61357e-23)
(0.50975 -0.0241271 -3.1811e-21)
(0.514313 -0.0236513 7.52071e-22)
(0.518856 -0.0231923 1.37784e-21)
(0.523381 -0.0227484 4.2203e-22)
(0.52789 -0.0223178 -9.19044e-22)
(0.532381 -0.0218991 -1.17424e-21)
(0.536857 -0.0214914 1.40566e-21)
(0.541318 -0.0210934 9.47334e-22)
(0.545763 -0.0207045 -2.14959e-21)
(0.550194 -0.0203239 2.08004e-21)
(0.554611 -0.0199511 7.44707e-22)
(0.559013 -0.0195854 -1.84916e-21)
(0.563401 -0.0192266 1.24457e-21)
(0.567775 -0.0188742 4.60557e-22)
(0.572135 -0.018528 -3.55633e-22)
(0.57648 -0.0181877 -2.0965e-21)
(0.580812 -0.0178533 1.62889e-22)
(0.585129 -0.0175244 1.02049e-21)
(0.589432 -0.0172011 2.12083e-24)
(0.59372 -0.0168831 1.18295e-21)
(0.597994 -0.0165706 -1.94784e-21)
(0.602253 -0.0162634 5.74103e-22)
(0.606498 -0.0159616 8.82614e-22)
(0.610729 -0.0156651 2.7423e-22)
(0.614945 -0.015374 -2.10907e-21)
(0.619147 -0.0150883 1.17062e-21)
(0.623334 -0.0148081 4.89051e-22)
(0.627508 -0.0145334 -1.60718e-21)
(0.631668 -0.0142644 6.86013e-22)
(0.635815 -0.014001 -1.45618e-23)
(0.639948 -0.0137434 3.09133e-22)
(0.644069 -0.0134918 4.77789e-22)
(0.648177 -0.0132462 -9.32066e-22)
(0.652274 -0.0130067 2.49955e-22)
(0.65636 -0.0127736 -3.34106e-22)
(0.660436 -0.0125469 3.35054e-22)
(0.664503 -0.0123269 -7.72243e-23)
(0.668562 -0.0121136 3.35491e-22)
(0.672614 -0.0119074 -2.69107e-22)
(0.67666 -0.0117084 -1.48147e-23)
(0.680703 -0.0115167 -2.43513e-23)
(0.684742 -0.0113327 4.51396e-22)
(0.688781 -0.0111566 -1.10099e-22)
(0.692821 -0.0109886 -2.68135e-22)
(0.696864 -0.010829 2.79724e-22)
(0.700914 -0.010678 -2.28052e-22)
(0.704971 -0.010536 1.39246e-22)
(0.70904 -0.0104032 1.08402e-22)
(0.713124 -0.0102799 -1.38742e-22)
(0.717225 -0.0101664 -4.94167e-23)
(0.721348 -0.0100631 3.66888e-22)
(0.725496 -0.00997008 -3.52037e-22)
(0.729674 -0.00988777 3.13703e-22)
(0.733887 -0.00981637 -1.00377e-22)
(0.738139 -0.0097561 -1.18496e-22)
(0.742435 -0.00970715 -1.34755e-22)
(0.746781 -0.00966964 1.24582e-22)
(0.751183 -0.00964366 1.13815e-22)
(0.755647 -0.0096292 -1.7568e-22)
(0.760178 -0.00962617 4.74238e-23)
(0.764785 -0.00963437 -2.81944e-24)
(0.769472 -0.00965348 9.99742e-24)
(0.774247 -0.00968303 5.58421e-23)
(0.779117 -0.00972241 -8.56276e-23)
(0.784088 -0.00977079 1.21284e-22)
(0.789167 -0.00982719 -1.75399e-22)
(0.794359 -0.00989037 8.8927e-23)
(0.79967 -0.00995887 -3.9544e-23)
(0.805106 -0.010031 -2.23984e-24)
(0.810669 -0.0101048 -9.50172e-25)
(0.816364 -0.010178 3.18615e-24)
(0.822192 -0.0102481 2.8145e-23)
(0.828153 -0.0103123 -2.18141e-23)
(0.834246 -0.0103676 -4.22277e-24)
(0.840466 -0.0104108 2.25878e-23)
(0.846809 -0.0104383 -3.00957e-23)
(0.853265 -0.0104466 6.24109e-24)
(0.859825 -0.0104318 -1.16248e-24)
(0.866469 -0.0103903 7.65552e-24)
(0.873193 -0.0103176 5.97235e-24)