/*--------------------------------*- C++ -*----------------------------------*\
  =========                 |
  \\      /  F ield         | OpenFOAM: The Open Source CFD Toolbox
   \\    /   O peration     | Website:  https://openfoam.org
    \\  /    A nd           | Version:  7
     \\/     M anipulation  |
\*---------------------------------------------------------------------------*/
FoamFile
{
    version     2.0;
    format      ascii;
    class       volScalarField;
    location    "10";
    object      p;
}
// * * * * * * * * * * * * * * * * * * * * * * * * * * * * * * * * * * * * * //

dimensions      [0 2 -2 0 0 0 0];

internalField   nonuniform List<scalar> 
42000
(
-0.406674
-0.409143
-0.40347
-0.396393
-0.386652
-0.375635
-0.363538
-0.350765
-0.337561
-0.324126
-0.310629
-0.297203
-0.283974
-0.271039
-0.258528
-0.24647
-0.235149
-0.224189
-0.214839
-0.204571
-0.406952
-0.409334
-0.403644
-0.39653
-0.386772
-0.375738
-0.36363
-0.350846
-0.337635
-0.324194
-0.310691
-0.29726
-0.284026
-0.271085
-0.258567
-0.246499
-0.235171
-0.224185
-0.214867
-0.204438
-0.407508
-0.409717
-0.403991
-0.396804
-0.387013
-0.375943
-0.363812
-0.351009
-0.337782
-0.324328
-0.310815
-0.297374
-0.284129
-0.271175
-0.258644
-0.246557
-0.235216
-0.224179
-0.214924
-0.204173
-0.408339
-0.410289
-0.404511
-0.397214
-0.387374
-0.376249
-0.364084
-0.351251
-0.338002
-0.324529
-0.311
-0.297543
-0.284283
-0.271311
-0.25876
-0.246643
-0.235282
-0.22417
-0.21501
-0.203777
-0.409445
-0.41105
-0.405202
-0.397759
-0.387852
-0.376656
-0.364446
-0.351573
-0.338295
-0.324796
-0.311245
-0.297768
-0.284487
-0.271491
-0.258913
-0.246757
-0.235371
-0.224158
-0.215126
-0.203254
-0.410821
-0.411999
-0.406063
-0.398437
-0.388448
-0.377163
-0.364896
-0.351973
-0.338658
-0.325128
-0.31155
-0.298048
-0.28474
-0.271715
-0.259104
-0.2469
-0.235482
-0.224144
-0.21527
-0.202607
-0.412465
-0.413132
-0.407091
-0.399247
-0.38916
-0.377767
-0.365432
-0.352451
-0.33909
-0.325523
-0.311913
-0.29838
-0.285042
-0.271981
-0.259332
-0.24707
-0.235616
-0.224128
-0.215445
-0.20184
-0.414373
-0.414446
-0.408283
-0.400186
-0.389985
-0.378468
-0.366054
-0.353003
-0.339591
-0.32598
-0.312333
-0.298764
-0.285391
-0.272289
-0.259595
-0.247267
-0.235771
-0.224111
-0.215649
-0.200958
-0.41654
-0.41594
-0.409638
-0.401253
-0.390921
-0.379263
-0.366758
-0.353629
-0.340158
-0.326497
-0.312807
-0.299199
-0.285785
-0.272636
-0.259892
-0.24749
-0.235948
-0.224093
-0.215884
-0.199968
-0.418962
-0.417609
-0.411152
-0.402444
-0.391966
-0.38015
-0.367544
-0.354327
-0.340789
-0.327073
-0.313335
-0.299682
-0.286223
-0.273023
-0.260224
-0.247739
-0.236147
-0.224074
-0.216148
-0.198876
-0.421631
-0.41945
-0.412821
-0.403757
-0.393118
-0.381126
-0.368408
-0.355093
-0.341483
-0.327704
-0.313913
-0.300211
-0.286703
-0.273447
-0.260587
-0.248012
-0.236367
-0.224057
-0.216442
-0.19769
-0.424543
-0.421459
-0.414641
-0.405189
-0.394372
-0.382189
-0.369349
-0.355927
-0.342236
-0.328389
-0.314541
-0.300784
-0.287222
-0.273906
-0.260981
-0.248309
-0.236607
-0.22404
-0.216764
-0.196418
-0.42769
-0.42363
-0.416609
-0.406735
-0.395727
-0.383336
-0.370363
-0.356825
-0.343047
-0.329126
-0.315215
-0.3014
-0.28778
-0.274398
-0.261404
-0.248629
-0.236868
-0.224024
-0.217115
-0.195069
-0.431067
-0.425958
-0.418719
-0.408393
-0.397178
-0.384564
-0.371447
-0.357784
-0.343912
-0.329911
-0.315933
-0.302055
-0.288373
-0.274921
-0.261855
-0.24897
-0.237148
-0.224011
-0.217492
-0.193651
-0.434667
-0.428437
-0.420966
-0.410159
-0.398723
-0.385869
-0.372599
-0.358802
-0.344829
-0.330743
-0.316692
-0.302747
-0.289
-0.275474
-0.262331
-0.249331
-0.237446
-0.224
-0.217893
-0.192175
-0.438473
-0.431068
-0.423347
-0.412027
-0.400357
-0.387249
-0.373815
-0.359875
-0.345795
-0.331618
-0.31749
-0.303474
-0.289657
-0.276054
-0.26283
-0.249711
-0.237761
-0.223993
-0.218316
-0.19065
-0.442485
-0.43384
-0.425854
-0.413995
-0.402076
-0.3887
-0.375093
-0.361002
-0.346807
-0.332534
-0.318324
-0.304232
-0.290342
-0.276658
-0.263351
-0.250107
-0.238093
-0.223989
-0.218758
-0.189085
-0.446692
-0.436747
-0.428484
-0.416058
-0.403877
-0.390218
-0.376428
-0.362177
-0.347862
-0.333487
-0.319191
-0.30502
-0.291052
-0.277284
-0.263891
-0.250519
-0.238438
-0.223989
-0.219216
-0.187493
-0.451086
-0.439782
-0.43123
-0.41821
-0.405755
-0.3918
-0.377818
-0.3634
-0.348958
-0.334475
-0.320089
-0.305834
-0.291786
-0.27793
-0.264448
-0.250945
-0.238796
-0.223994
-0.219685
-0.185881
-0.455657
-0.44294
-0.434086
-0.420448
-0.407707
-0.393442
-0.37926
-0.364666
-0.35009
-0.335495
-0.321013
-0.306671
-0.292539
-0.278593
-0.265019
-0.251382
-0.239163
-0.224002
-0.220162
-0.18426
-0.460395
-0.446215
-0.437046
-0.422766
-0.409727
-0.39514
-0.380748
-0.365971
-0.351257
-0.336544
-0.321962
-0.307528
-0.293309
-0.279269
-0.265601
-0.251828
-0.239539
-0.224014
-0.220639
-0.18264
-0.465289
-0.449598
-0.440104
-0.42516
-0.411812
-0.39689
-0.382282
-0.367314
-0.352455
-0.337618
-0.322932
-0.308403
-0.294092
-0.279957
-0.266192
-0.252281
-0.239919
-0.22403
-0.221113
-0.181029
-0.470331
-0.453084
-0.443254
-0.427625
-0.413957
-0.39869
-0.383856
-0.36869
-0.35368
-0.338715
-0.32392
-0.309292
-0.294887
-0.280653
-0.266789
-0.25274
-0.240302
-0.224049
-0.221576
-0.179437
-0.475509
-0.456665
-0.446489
-0.430155
-0.416158
-0.400534
-0.385467
-0.370096
-0.35493
-0.339832
-0.324923
-0.310192
-0.29569
-0.281354
-0.267389
-0.2532
-0.240684
-0.224072
-0.22202
-0.177872
-0.480813
-0.460333
-0.449803
-0.432745
-0.418409
-0.402419
-0.387112
-0.37153
-0.356201
-0.340964
-0.325938
-0.3111
-0.296497
-0.282057
-0.267989
-0.253661
-0.241061
-0.224097
-0.222439
-0.176341
-0.486233
-0.464081
-0.453188
-0.435391
-0.420708
-0.404341
-0.388787
-0.372987
-0.35749
-0.34211
-0.326962
-0.312013
-0.297305
-0.282759
-0.268585
-0.254119
-0.24143
-0.224126
-0.222823
-0.174852
-0.491757
-0.467902
-0.456639
-0.438086
-0.423048
-0.406296
-0.390489
-0.374464
-0.358795
-0.343266
-0.327991
-0.312927
-0.298111
-0.283457
-0.269174
-0.254572
-0.241787
-0.224158
-0.223163
-0.173413
-0.497374
-0.471788
-0.460148
-0.440826
-0.425426
-0.408281
-0.392213
-0.375959
-0.360111
-0.344429
-0.329022
-0.313839
-0.298911
-0.284146
-0.269752
-0.255016
-0.242129
-0.224194
-0.223449
-0.172031
-0.503073
-0.475731
-0.463708
-0.443605
-0.427836
-0.410291
-0.393958
-0.377467
-0.361435
-0.345595
-0.330051
-0.314744
-0.299702
-0.284824
-0.270316
-0.255451
-0.24245
-0.224235
-0.22367
-0.170713
-0.508843
-0.479723
-0.467313
-0.446418
-0.430274
-0.412322
-0.395717
-0.378986
-0.362765
-0.34676
-0.331075
-0.315641
-0.300479
-0.285486
-0.270862
-0.255872
-0.242748
-0.224285
-0.223815
-0.16947
-0.514673
-0.483756
-0.470954
-0.449258
-0.432735
-0.41437
-0.397489
-0.380511
-0.364095
-0.347922
-0.33209
-0.316523
-0.301238
-0.286128
-0.271387
-0.256277
-0.243019
-0.224347
-0.223869
-0.168313
-0.52055
-0.487821
-0.474626
-0.452121
-0.435215
-0.416431
-0.399269
-0.382039
-0.365424
-0.349075
-0.333092
-0.317388
-0.301975
-0.286747
-0.271885
-0.256665
-0.243259
-0.224428
-0.223819
-0.167262
-0.526463
-0.491912
-0.47832
-0.455001
-0.437708
-0.4185
-0.401054
-0.383566
-0.366746
-0.350217
-0.334077
-0.31823
-0.302685
-0.287336
-0.272352
-0.257032
-0.243465
-0.224538
-0.223647
-0.166338
-0.532401
-0.496018
-0.482029
-0.457892
-0.440209
-0.420574
-0.402838
-0.385088
-0.368058
-0.351343
-0.33504
-0.319045
-0.303364
-0.287892
-0.272785
-0.257375
-0.243635
-0.224688
-0.223334
-0.165583
-0.538351
-0.500132
-0.485746
-0.460788
-0.442714
-0.422648
-0.404618
-0.386601
-0.369355
-0.352449
-0.335976
-0.319827
-0.304005
-0.288409
-0.273178
-0.257692
-0.243767
-0.224896
-0.222865
-0.165079
-0.5443
-0.504244
-0.489463
-0.463683
-0.445216
-0.424717
-0.40639
-0.388101
-0.370633
-0.353529
-0.33688
-0.320572
-0.304603
-0.288881
-0.273526
-0.257979
-0.243861
-0.225184
-0.222229
-0.164962
-0.550236
-0.508347
-0.493171
-0.466571
-0.44771
-0.426776
-0.408148
-0.389583
-0.371888
-0.354578
-0.337746
-0.321272
-0.305152
-0.289301
-0.273822
-0.25823
-0.243917
-0.225575
-0.221384
-0.165274
-0.556151
-0.512434
-0.496868
-0.469449
-0.450194
-0.428822
-0.40989
-0.391043
-0.373114
-0.355592
-0.33857
-0.321923
-0.305645
-0.289662
-0.27406
-0.25844
-0.243941
-0.22611
-0.220217
-0.165813
-0.562032
-0.5165
-0.500545
-0.47231
-0.452662
-0.430852
-0.411611
-0.392477
-0.374307
-0.356566
-0.339345
-0.322517
-0.306075
-0.289955
-0.27423
-0.258599
-0.243943
-0.226842
-0.218752
-0.167477
-0.567834
-0.520502
-0.504168
-0.475126
-0.455089
-0.432842
-0.413293
-0.393869
-0.375454
-0.357487
-0.340061
-0.323045
-0.306432
-0.290172
-0.274325
-0.258693
-0.243921
-0.227772
-0.217719
-0.176558
-0.573467
-0.524357
-0.507658
-0.47783
-0.45742
-0.43475
-0.4149
-0.395191
-0.376532
-0.358337
-0.340703
-0.323494
-0.306707
-0.290303
-0.274331
-0.258702
-0.243838
-0.228711
-0.217757
-0.202687
-0.579127
-0.528256
-0.511189
-0.480571
-0.459777
-0.436672
-0.416508
-0.396499
-0.37758
-0.359143
-0.341286
-0.323871
-0.306897
-0.290338
-0.274234
-0.258596
-0.243632
-0.229417
-0.216857
-0.213432
-0.584734
-0.53212
-0.514688
-0.483286
-0.462107
-0.438564
-0.41808
-0.397764
-0.378575
-0.359885
-0.341794
-0.324162
-0.30699
-0.290267
-0.274022
-0.258357
-0.243268
-0.229747
-0.215348
-0.217285
-0.59024
-0.535904
-0.518116
-0.485941
-0.464381
-0.440403
-0.419596
-0.398967
-0.379502
-0.36055
-0.342215
-0.324356
-0.306977
-0.29008
-0.273683
-0.257966
-0.242733
-0.229696
-0.213839
-0.219016
-0.595632
-0.539599
-0.521464
-0.48853
-0.466594
-0.442182
-0.421049
-0.400102
-0.380353
-0.36113
-0.34254
-0.324445
-0.306849
-0.289766
-0.273206
-0.257413
-0.24202
-0.229289
-0.212339
-0.219425
-0.6009
-0.543198
-0.524726
-0.491047
-0.468739
-0.443895
-0.422434
-0.401163
-0.381121
-0.361617
-0.342763
-0.324419
-0.306595
-0.289315
-0.272582
-0.256687
-0.241126
-0.228547
-0.210772
-0.218707
-0.60603
-0.546691
-0.527893
-0.493483
-0.470809
-0.445535
-0.423742
-0.402142
-0.381798
-0.362003
-0.342873
-0.324271
-0.306208
-0.28872
-0.271802
-0.255781
-0.240046
-0.227493
-0.209111
-0.21713
-0.611008
-0.550068
-0.530955
-0.495831
-0.472794
-0.447094
-0.424966
-0.403029
-0.382375
-0.362278
-0.342861
-0.32399
-0.305679
-0.287971
-0.270857
-0.254689
-0.238776
-0.226152
-0.207347
-0.214925
-0.615818
-0.553316
-0.5339
-0.498079
-0.474687
-0.448562
-0.426095
-0.403815
-0.382842
-0.362433
-0.34272
-0.323567
-0.304998
-0.28706
-0.269741
-0.253407
-0.237315
-0.224547
-0.205469
-0.212257
-0.620447
-0.556425
-0.536718
-0.50022
-0.476477
-0.44993
-0.427121
-0.404492
-0.38319
-0.362459
-0.342438
-0.322995
-0.304157
-0.285979
-0.268448
-0.251932
-0.235662
-0.222696
-0.203467
-0.209239
-0.624878
-0.559383
-0.539399
-0.502243
-0.478154
-0.451189
-0.428034
-0.405049
-0.383409
-0.362345
-0.342006
-0.322263
-0.303149
-0.284722
-0.266971
-0.250263
-0.233816
-0.220617
-0.201333
-0.205955
-0.629098
-0.562177
-0.54193
-0.504137
-0.47971
-0.452329
-0.428825
-0.405477
-0.383489
-0.362083
-0.341416
-0.321363
-0.301964
-0.283283
-0.265307
-0.248396
-0.231779
-0.218325
-0.199061
-0.202466
-0.63309
-0.564796
-0.544299
-0.505893
-0.481132
-0.45334
-0.429481
-0.405764
-0.38342
-0.361662
-0.340657
-0.320286
-0.300596
-0.281654
-0.26345
-0.246333
-0.22955
-0.215832
-0.196646
-0.198815
-0.636838
-0.567226
-0.546496
-0.507499
-0.482411
-0.45421
-0.429994
-0.405901
-0.383191
-0.361071
-0.33972
-0.319025
-0.299038
-0.279831
-0.261397
-0.244072
-0.227131
-0.213148
-0.194083
-0.195033
-0.640327
-0.569456
-0.548507
-0.508943
-0.483535
-0.454928
-0.430351
-0.405876
-0.382791
-0.360301
-0.338596
-0.31757
-0.297282
-0.277808
-0.259145
-0.241612
-0.224522
-0.210281
-0.19137
-0.191141
-0.643539
-0.571473
-0.550319
-0.510214
-0.484492
-0.455484
-0.430541
-0.405677
-0.38221
-0.359342
-0.337276
-0.315914
-0.295323
-0.275581
-0.256691
-0.238955
-0.221725
-0.207237
-0.188503
-0.187152
-0.64646
-0.573262
-0.551921
-0.511301
-0.48527
-0.455864
-0.430552
-0.405294
-0.381437
-0.358184
-0.335751
-0.314049
-0.293154
-0.273146
-0.254033
-0.236099
-0.218741
-0.204021
-0.185482
-0.183075
-0.649072
-0.57481
-0.553298
-0.512189
-0.485858
-0.456058
-0.430373
-0.404715
-0.380461
-0.356816
-0.334012
-0.311969
-0.29077
-0.270499
-0.251169
-0.233046
-0.215571
-0.200638
-0.182305
-0.178914
-0.651359
-0.576104
-0.554437
-0.512868
-0.486241
-0.456053
-0.429992
-0.403928
-0.37927
-0.355229
-0.332052
-0.309666
-0.288165
-0.267636
-0.248097
-0.229795
-0.212216
-0.19709
-0.178971
-0.174671
-0.653302
-0.57713
-0.555325
-0.513324
-0.486409
-0.455835
-0.429395
-0.402921
-0.377856
-0.353414
-0.32986
-0.307134
-0.285336
-0.264556
-0.244817
-0.226348
-0.208677
-0.193381
-0.175481
-0.170347
-0.654886
-0.577874
-0.555947
-0.513543
-0.486346
-0.455393
-0.428571
-0.401684
-0.376205
-0.351361
-0.327432
-0.304367
-0.282278
-0.261255
-0.241327
-0.222704
-0.204956
-0.189511
-0.171834
-0.165939
-0.656093
-0.578321
-0.556289
-0.513513
-0.486041
-0.454713
-0.427506
-0.400204
-0.374309
-0.349061
-0.324758
-0.30136
-0.278987
-0.257732
-0.237627
-0.218865
-0.201055
-0.185483
-0.168031
-0.161446
-0.656906
-0.578457
-0.556337
-0.51322
-0.485479
-0.453783
-0.42619
-0.39847
-0.372157
-0.346506
-0.321832
-0.298107
-0.27546
-0.253984
-0.233717
-0.214832
-0.196974
-0.181298
-0.164072
-0.156864
-0.657308
-0.578268
-0.556077
-0.51265
-0.484647
-0.452588
-0.424609
-0.39647
-0.36974
-0.343687
-0.318647
-0.294604
-0.271695
-0.250012
-0.229597
-0.210606
-0.192716
-0.176958
-0.159959
-0.152191
-0.657281
-0.577739
-0.555494
-0.51179
-0.483531
-0.451117
-0.422751
-0.394194
-0.367047
-0.340597
-0.315199
-0.290848
-0.267688
-0.245814
-0.225268
-0.206187
-0.188281
-0.172464
-0.155693
-0.147424
-0.656808
-0.576855
-0.554572
-0.510624
-0.482118
-0.449356
-0.420603
-0.39163
-0.364069
-0.337228
-0.311481
-0.286834
-0.263439
-0.24139
-0.22073
-0.201579
-0.183673
-0.167817
-0.151277
-0.142561
-0.655871
-0.575602
-0.553299
-0.50914
-0.480393
-0.447292
-0.418155
-0.388769
-0.360799
-0.333574
-0.307488
-0.28256
-0.258946
-0.23674
-0.215984
-0.196781
-0.178892
-0.16302
-0.146711
-0.137599
-0.654455
-0.573966
-0.551659
-0.507324
-0.478344
-0.444912
-0.415394
-0.3856
-0.357227
-0.329628
-0.303217
-0.278023
-0.254208
-0.231864
-0.211031
-0.191797
-0.173942
-0.158073
-0.141998
-0.132536
-0.652541
-0.571932
-0.549637
-0.505161
-0.475957
-0.442205
-0.41231
-0.382114
-0.353345
-0.325385
-0.298663
-0.273221
-0.249225
-0.226763
-0.205874
-0.186628
-0.168823
-0.152978
-0.137141
-0.127371
-0.650114
-0.569485
-0.547219
-0.502639
-0.473218
-0.439156
-0.40889
-0.378301
-0.349147
-0.320839
-0.293824
-0.268153
-0.243996
-0.221438
-0.200514
-0.181277
-0.163539
-0.147737
-0.132141
-0.122103
-0.647156
-0.566613
-0.544391
-0.499743
-0.470115
-0.435756
-0.405125
-0.374152
-0.344626
-0.315986
-0.288696
-0.262817
-0.238522
-0.215891
-0.194953
-0.175745
-0.158091
-0.142352
-0.127003
-0.11673
-0.643651
-0.5633
-0.541139
-0.496459
-0.466635
-0.431992
-0.401005
-0.369661
-0.339777
-0.310822
-0.283278
-0.257214
-0.232804
-0.210123
-0.189193
-0.170035
-0.152484
-0.136826
-0.121727
-0.111253
-0.639583
-0.559533
-0.53745
-0.492777
-0.462765
-0.427853
-0.39652
-0.364818
-0.334592
-0.305343
-0.277567
-0.251343
-0.226843
-0.204136
-0.183238
-0.164151
-0.146719
-0.13116
-0.116318
-0.105672
-0.634937
-0.5553
-0.533309
-0.488681
-0.458494
-0.423329
-0.391662
-0.359618
-0.329069
-0.299548
-0.271565
-0.245206
-0.220642
-0.197933
-0.177089
-0.158094
-0.140799
-0.125357
-0.110778
-0.0999873
-0.629697
-0.550586
-0.528703
-0.484161
-0.45381
-0.418409
-0.386422
-0.354055
-0.323203
-0.293433
-0.265269
-0.238802
-0.214201
-0.191517
-0.17075
-0.151869
-0.134728
-0.11942
-0.105111
-0.0942001
-0.623846
-0.545379
-0.523621
-0.479204
-0.448702
-0.413084
-0.380793
-0.348122
-0.31699
-0.286998
-0.25868
-0.232134
-0.207523
-0.18489
-0.164225
-0.145478
-0.128509
-0.113352
-0.0993196
-0.0883116
-0.617372
-0.539669
-0.51805
-0.473799
-0.44316
-0.407345
-0.374767
-0.341815
-0.310428
-0.280242
-0.2518
-0.225204
-0.200612
-0.178056
-0.157516
-0.138924
-0.122144
-0.107156
-0.0934079
-0.0823237
-0.610275
-0.533455
-0.511987
-0.467942
-0.437178
-0.401188
-0.368341
-0.335132
-0.303516
-0.273164
-0.24463
-0.218014
-0.19347
-0.171019
-0.150627
-0.132213
-0.115639
-0.100835
-0.0873793
-0.0762385
-0.602546
-0.526732
-0.505425
-0.461623
-0.430749
-0.394605
-0.36151
-0.328069
-0.296252
-0.265767
-0.237171
-0.210567
-0.186101
-0.163781
-0.143562
-0.125346
-0.108995
-0.0943916
-0.0812372
-0.0700582
-0.594034
-0.519392
-0.498284
-0.454787
-0.423831
-0.387568
-0.354255
-0.320615
-0.288632
-0.258048
-0.229425
-0.202867
-0.178509
-0.156348
-0.136326
-0.118328
-0.102218
-0.08783
-0.0749848
-0.0637848
-0.58443
-0.511214
-0.490408
-0.447321
-0.416348
-0.380026
-0.346544
-0.312752
-0.280646
-0.250004
-0.221393
-0.194915
-0.170697
-0.148723
-0.128922
-0.111163
-0.0953093
-0.0811528
-0.0686253
-0.0574204
-0.574583
-0.502779
-0.482204
-0.43951
-0.408493
-0.372108
-0.33846
-0.304532
-0.272326
-0.241655
-0.213086
-0.186721
-0.162672
-0.140911
-0.121354
-0.103856
-0.0882751
-0.0743652
-0.0621645
-0.0509705
-0.564197
-0.493866
-0.473513
-0.431236
-0.400184
-0.363758
-0.329968
-0.295934
-0.263661
-0.232997
-0.204506
-0.178285
-0.154437
-0.132917
-0.113628
-0.0964097
-0.0811191
-0.0674706
-0.0556058
-0.0444375
-0.553126
-0.484372
-0.46426
-0.422448
-0.391386
-0.354953
-0.321053
-0.28695
-0.25465
-0.224031
-0.195655
-0.169614
-0.145998
-0.124746
-0.105749
-0.0888302
-0.0738455
-0.060473
-0.0489531
-0.0378247
-0.541367
-0.474295
-0.454443
-0.413143
-0.382096
-0.345691
-0.311716
-0.277584
-0.245294
-0.214761
-0.186538
-0.160713
-0.137359
-0.116403
-0.0977204
-0.0811215
-0.0664589
-0.0533766
-0.0422107
-0.0311362
-0.528927
-0.463643
-0.444065
-0.403323
-0.372315
-0.335974
-0.301959
-0.267837
-0.2356
-0.205193
-0.177161
-0.151587
-0.128527
-0.107894
-0.0895486
-0.0732887
-0.0589636
-0.0461856
-0.0353826
-0.024376
-0.515806
-0.452412
-0.433124
-0.392983
-0.362041
-0.325803
-0.291784
-0.257715
-0.225572
-0.195332
-0.167531
-0.142242
-0.119507
-0.0992233
-0.0812385
-0.0653366
-0.0513643
-0.0389042
-0.0284739
-0.0175462
-0.502
-0.4406
-0.421617
-0.382123
-0.351274
-0.315177
-0.281194
-0.24722
-0.215214
-0.185184
-0.157653
-0.132685
-0.110306
-0.0903981
-0.0727956
-0.0572701
-0.0436658
-0.0315372
-0.0214919
-0.0106461
-0.487507
-0.428203
-0.409541
-0.37074
-0.340015
-0.304099
-0.270193
-0.236359
-0.204534
-0.174756
-0.147534
-0.122922
-0.10093
-0.0814239
-0.0642253
-0.0490946
-0.0358727
-0.0240889
-0.0144396
-0.00369038
-0.472328
-0.415223
-0.396896
-0.358836
-0.328264
-0.292572
-0.258785
-0.225136
-0.193538
-0.164055
-0.137181
-0.112961
-0.0913859
-0.0723069
-0.0555335
-0.0408153
-0.0279901
-0.0165648
-0.00730523
0.00330922
-0.456465
-0.40166
-0.383684
-0.346411
-0.316024
-0.2806
-0.246975
-0.213559
-0.182233
-0.153089
-0.126603
-0.102809
-0.0816801
-0.0630534
-0.0467261
-0.0324373
-0.020023
-0.00896997
-0.000108091
0.0103618
-0.439921
-0.387514
-0.369905
-0.333468
-0.303299
-0.268188
-0.23477
-0.201634
-0.170627
-0.141865
-0.115807
-0.0924733
-0.07182
-0.0536701
-0.0378089
-0.023967
-0.0119762
-0.00130792
0.00714684
0.0174616
-0.422701
-0.37279
-0.355564
-0.320011
-0.290094
-0.255342
-0.222178
-0.189371
-0.158728
-0.130393
-0.104801
-0.0819618
-0.0618128
-0.0441637
-0.0287884
-0.0154094
-0.0038554
0.00641647
0.0144564
0.0246028
-0.404813
-0.357492
-0.340665
-0.306043
-0.276414
-0.24207
-0.209206
-0.176777
-0.146547
-0.118682
-0.0935946
-0.0712828
-0.0516662
-0.0345411
-0.0196707
-0.00677041
0.00433407
0.0141981
0.0218162
0.0317807
-0.386263
-0.341625
-0.325213
-0.291571
-0.262267
-0.228378
-0.195864
-0.163864
-0.134092
-0.106741
-0.0821963
-0.0604447
-0.0413879
-0.0248094
-0.0104624
0.00194407
0.0125868
0.0220318
0.0292216
0.0389902
-0.367061
-0.325195
-0.309215
-0.276602
-0.247661
-0.214278
-0.182161
-0.15064
-0.121375
-0.0945792
-0.0706156
-0.0494562
-0.0309858
-0.0149757
-0.00116992
0.010728
0.0208973
0.0299124
0.0366679
0.0462265
-0.347219
-0.308212
-0.292679
-0.261145
-0.232605
-0.199778
-0.168109
-0.137116
-0.108405
-0.0822082
-0.0588621
-0.0383262
-0.020468
-0.00504751
0.0081999
0.0195752
0.0292599
0.0378347
0.0441505
0.0534846
-0.326749
-0.290683
-0.275615
-0.245208
-0.21711
-0.18489
-0.153718
-0.123305
-0.0951942
-0.0696383
-0.0469459
-0.0270638
-0.00984286
0.00496765
0.0176402
0.0284795
0.0376688
0.0457934
0.0516646
0.0607594
-0.305664
-0.27262
-0.258035
-0.228802
-0.201187
-0.169625
-0.139001
-0.109219
-0.0817543
-0.0568806
-0.0348771
-0.0156785
0.000881114
0.0150621
0.0271441
0.0374345
0.0461183
0.0537831
0.0592054
0.0680458
-0.283981
-0.254035
-0.239948
-0.21194
-0.184848
-0.153997
-0.123972
-0.09487
-0.0680976
-0.0439465
-0.0226664
-0.00417965
0.0116953
0.025228
0.0367044
0.0464337
0.0546025
0.0617982
0.066768
0.0753386
-0.261715
-0.23494
-0.22137
-0.194634
-0.168108
-0.138019
-0.108644
-0.0802715
-0.0542367
-0.0308477
-0.0103244
0.00742285
0.0225908
0.0354573
0.0463139
0.0554706
0.0631153
0.0698333
0.0743475
0.0826325
-0.238886
-0.215351
-0.202315
-0.176899
-0.15098
-0.121706
-0.0930305
-0.0654385
-0.0401847
-0.0175965
0.00213784
0.0191191
0.0335588
0.0457421
0.0559653
0.0645384
0.0716507
0.0778826
0.081939
0.0899222
-0.215513
-0.195283
-0.182798
-0.158749
-0.133481
-0.105073
-0.077148
-0.0503845
-0.0259552
-0.0042051
0.0147091
0.030899
0.0445901
0.056074
0.0656511
0.0736304
0.0802024
0.0859403
0.0895375
0.097202
-0.191616
-0.174753
-0.162836
-0.140202
-0.115627
-0.0881374
-0.0610122
-0.0351245
-0.0115619
0.00931381
0.0273779
0.0427522
0.0556754
0.0664448
0.0753637
0.0827397
0.0887643
0.0940007
0.0971381
0.104466
-0.167219
-0.153779
-0.142449
-0.121274
-0.0974357
-0.0709158
-0.0446392
-0.0196742
0.00298084
0.0229473
0.0401327
0.0546684
0.0668055
0.0768459
0.0850956
0.0918594
0.0973299
0.102058
0.104736
0.111709
-0.142345
-0.13238
-0.121655
-0.101985
-0.0789253
-0.0534258
-0.0280462
-0.00404919
0.0176586
0.0366824
0.0529617
0.066637
0.0779708
0.0872689
0.0948389
0.100982
0.105893
0.110106
0.112325
0.118924
-0.117018
-0.110578
-0.100475
-0.0823534
-0.0601154
-0.0356861
-0.0112506
0.0117341
0.0324565
0.0505055
0.065853
0.0786473
0.0891618
0.0977052
0.104586
0.110101
0.114447
0.118138
0.119902
0.126105
-0.0912638
-0.0883951
-0.0789298
-0.0624008
-0.0410263
-0.0177158
0.0057293
0.0276592
0.0473596
0.0644033
0.0787944
0.0906885
0.100369
0.108146
0.114329
0.119209
0.122985
0.126148
0.127461
0.133244
-0.0651079
-0.0658551
-0.0570437
-0.0421482
-0.0216788
0.000465146
0.0228751
0.043709
0.0623523
0.078362
0.0917738
0.10275
0.111582
0.118583
0.124059
0.128299
0.1315
0.13413
0.134998
0.140333
-0.0385786
-0.0429822
-0.0348399
-0.0216182
-0.00209485
0.0188363
0.0401678
0.0598662
0.0774193
0.0923677
0.104779
0.11482
0.122792
0.129006
0.13377
0.137363
0.139987
0.142076
0.142507
0.147363
-0.0117128
-0.0197947
-0.0123434
-0.00083431
0.0177031
0.0373767
0.0575879
0.0761133
0.0925448
0.106407
0.117797
0.126889
0.133988
0.139408
0.143452
0.146394
0.148437
0.149982
0.149985
0.154324
0.0154668
0.00367518
0.0104201
0.0201794
0.0376918
0.0560647
0.0751157
0.0924325
0.107713
0.120464
0.130816
0.138944
0.145162
0.149779
0.153097
0.155385
0.156845
0.157838
0.157428
0.161202
0.0429296
0.0274001
0.0334237
0.0413978
0.0578475
0.0748784
0.0927311
0.108806
0.122907
0.134527
0.143823
0.150975
0.156302
0.16011
0.162699
0.164328
0.165204
0.16564
0.164833
0.167983
0.0706438
0.0513524
0.0566398
0.0627951
0.0781457
0.0937954
0.110414
0.125214
0.138112
0.148579
0.156806
0.162971
0.167399
0.170393
0.172248
0.173216
0.173505
0.173379
0.172196
0.174647
0.0985782
0.0755037
0.0800404
0.0843451
0.0985616
0.112793
0.128142
0.14164
0.15331
0.162608
0.169752
0.174921
0.178443
0.180619
0.181737
0.182042
0.181744
0.181049
0.179517
0.181168
0.126703
0.0998252
0.103597
0.106021
0.11907
0.131848
0.145897
0.158065
0.168486
0.176599
0.182648
0.186814
0.189425
0.190778
0.191158
0.190798
0.189911
0.188644
0.186792
0.18751
0.154981
0.124283
0.127277
0.127794
0.139644
0.150936
0.163656
0.17447
0.183623
0.190537
0.195482
0.198637
0.200334
0.200863
0.200502
0.199478
0.198002
0.196158
0.19403
0.193644
0.183354
0.148829
0.151041
0.14963
0.160254
0.170032
0.181397
0.190835
0.198705
0.204407
0.208241
0.210381
0.211161
0.210865
0.209763
0.208075
0.206008
0.203589
0.201261
0.199544
0.211782
0.173423
0.174852
0.171499
0.180873
0.189112
0.199098
0.207143
0.213714
0.218196
0.220912
0.222035
0.221896
0.220774
0.218932
0.216582
0.21392
0.210937
0.208478
0.205067
0.240487
0.198192
0.198774
0.193426
0.201505
0.208168
0.216746
0.223376
0.228636
0.231889
0.233483
0.233586
0.232529
0.230583
0.228003
0.224992
0.221735
0.218195
0.215484
0.209614
0.269962
0.223429
0.222968
0.215495
0.222183
0.227206
0.234334
0.239522
0.243455
0.245471
0.24594
0.245023
0.24305
0.240283
0.236968
0.233299
0.229451
0.225362
0.222109
0.212308
0.298599
0.248168
0.246839
0.237346
0.242697
0.246107
0.251794
0.255544
0.258149
0.258928
0.258273
0.256338
0.253451
0.249865
0.245819
0.241498
0.237065
0.232449
0.228935
0.218044
0.326901
0.272716
0.270562
0.259075
0.26309
0.264883
0.269124
0.27143
0.272705
0.272247
0.270469
0.267519
0.263722
0.259322
0.254549
0.249581
0.244573
0.239444
0.235669
0.224649
0.355084
0.29719
0.294194
0.280703
0.283363
0.283526
0.286308
0.287165
0.287108
0.285413
0.282515
0.278555
0.273853
0.268645
0.263151
0.257542
0.251967
0.246335
0.242189
0.231124
0.383105
0.321546
0.317695
0.302197
0.303487
0.30201
0.303325
0.302729
0.30134
0.298413
0.2944
0.289436
0.283835
0.277825
0.271618
0.265374
0.259237
0.253112
0.248537
0.237374
0.4109
0.345732
0.341021
0.323519
0.323431
0.320308
0.320153
0.318105
0.315387
0.311232
0.306111
0.30015
0.293659
0.286855
0.279941
0.273069
0.266376
0.259765
0.254737
0.243475
0.43843
0.369709
0.364139
0.34464
0.343167
0.338397
0.336771
0.333273
0.329232
0.323856
0.317636
0.310687
0.303315
0.295726
0.288113
0.28062
0.273377
0.266286
0.260788
0.249443
0.465661
0.393445
0.387014
0.365528
0.362668
0.356253
0.353159
0.348217
0.342859
0.336273
0.328964
0.321038
0.312795
0.30443
0.296128
0.288022
0.280234
0.272668
0.266691
0.255264
0.492555
0.416904
0.409613
0.386155
0.381907
0.373853
0.369294
0.362917
0.356254
0.348469
0.340083
0.331192
0.32209
0.31296
0.303977
0.295267
0.28694
0.278905
0.272443
0.260933
0.519075
0.440052
0.431904
0.40649
0.400857
0.391172
0.385158
0.377358
0.369401
0.360431
0.350982
0.34114
0.33119
0.321308
0.311656
0.30235
0.293492
0.284992
0.278045
0.266447
0.545183
0.462853
0.453853
0.426504
0.419492
0.408188
0.400729
0.39152
0.382285
0.372145
0.36165
0.350871
0.340088
0.329465
0.319155
0.309265
0.299883
0.290926
0.283496
0.271806
0.570842
0.485274
0.475427
0.446168
0.437785
0.424877
0.415989
0.405387
0.394892
0.383601
0.372075
0.360375
0.348776
0.337426
0.326471
0.316005
0.30611
0.296701
0.288795
0.277008
0.596015
0.507281
0.496595
0.465452
0.455712
0.441218
0.430918
0.418943
0.407208
0.394784
0.382247
0.369645
0.357244
0.345182
0.333594
0.322566
0.312166
0.302314
0.29394
0.282052
0.620665
0.528839
0.517325
0.484328
0.473245
0.457189
0.445496
0.432172
0.419217
0.405683
0.392155
0.37867
0.365485
0.352728
0.340521
0.328941
0.318048
0.307762
0.298928
0.286937
0.644754
0.549916
0.537585
0.502769
0.490362
0.472768
0.459706
0.445056
0.430907
0.416287
0.40179
0.387442
0.373491
0.360055
0.347245
0.335127
0.323752
0.31304
0.303759
0.29166
0.668248
0.570479
0.557344
0.520746
0.507036
0.487933
0.473529
0.457582
0.442264
0.426583
0.411141
0.395951
0.381255
0.367157
0.35376
0.341118
0.329272
0.318146
0.308429
0.296221
0.691111
0.590497
0.576573
0.538233
0.523245
0.502665
0.486947
0.469732
0.453276
0.43656
0.420199
0.404191
0.38877
0.374029
0.36006
0.346909
0.334607
0.323076
0.312937
0.300617
0.713307
0.609938
0.595242
0.555205
0.538965
0.516944
0.499943
0.481494
0.463929
0.446208
0.428953
0.412152
0.396027
0.380663
0.36614
0.352496
0.33975
0.327827
0.317279
0.304847
0.734804
0.628772
0.613323
0.571635
0.554175
0.530749
0.512501
0.492853
0.474211
0.455517
0.437396
0.419826
0.403021
0.387054
0.371996
0.357874
0.344699
0.332397
0.321454
0.308909
0.755568
0.64697
0.630787
0.587498
0.568851
0.544063
0.524605
0.503794
0.484111
0.464475
0.445518
0.427206
0.409745
0.393196
0.377621
0.363039
0.349451
0.336781
0.32546
0.312802
0.775568
0.664501
0.647607
0.602772
0.582974
0.556866
0.536238
0.514305
0.493617
0.473073
0.453311
0.434285
0.416192
0.399083
0.383012
0.367986
0.354
0.340978
0.329293
0.316524
0.794773
0.68134
0.663759
0.617433
0.596522
0.569143
0.547386
0.524372
0.502718
0.481301
0.460767
0.441055
0.422357
0.404711
0.388163
0.372712
0.358345
0.344984
0.332952
0.320072
0.813152
0.697459
0.679215
0.631458
0.609477
0.580875
0.558034
0.533984
0.511404
0.489152
0.467878
0.44751
0.428232
0.410073
0.39307
0.377213
0.362482
0.348796
0.336434
0.323446
0.830677
0.712832
0.693953
0.644827
0.621819
0.592048
0.56817
0.543129
0.519664
0.496615
0.474636
0.453643
0.433813
0.415166
0.397729
0.381485
0.366407
0.352413
0.339737
0.326644
0.847321
0.727434
0.707948
0.657519
0.633531
0.602644
0.577779
0.551795
0.52749
0.503683
0.481034
0.459448
0.439095
0.419984
0.402135
0.385525
0.370118
0.355831
0.342858
0.329663
0.863058
0.741242
0.72118
0.669514
0.644595
0.612651
0.586849
0.559972
0.534871
0.510348
0.487066
0.464919
0.444071
0.424523
0.406286
0.389329
0.373611
0.359048
0.345796
0.332503
0.877863
0.754235
0.733627
0.680795
0.654996
0.622055
0.595368
0.56765
0.5418
0.516602
0.492725
0.470051
0.448739
0.428778
0.410176
0.392894
0.376885
0.362061
0.348548
0.335161
0.891713
0.76639
0.74527
0.691344
0.664719
0.630841
0.603327
0.57482
0.548268
0.52244
0.498005
0.474839
0.453092
0.432747
0.413804
0.396218
0.379936
0.364869
0.351112
0.337636
0.904585
0.777688
0.75609
0.701146
0.67375
0.638999
0.610713
0.581473
0.554268
0.527853
0.502901
0.479277
0.457126
0.436425
0.417165
0.399297
0.382761
0.36747
0.353487
0.339927
0.916459
0.788111
0.76607
0.710184
0.682074
0.646517
0.617518
0.5876
0.559792
0.532837
0.507407
0.483362
0.460839
0.439808
0.420257
0.402128
0.38536
0.369861
0.35567
0.342032
0.927317
0.797642
0.775195
0.718446
0.689681
0.653385
0.623732
0.593194
0.564835
0.537385
0.511519
0.487088
0.464225
0.442894
0.423076
0.40471
0.387729
0.37204
0.357661
0.34395
0.937141
0.806264
0.783449
0.725917
0.69656
0.659593
0.629348