/*--------------------------------*- C++ -*----------------------------------*\
  =========                 |
  \\      /  F ield         | OpenFOAM: The Open Source CFD Toolbox
   \\    /   O peration     | Website:  https://openfoam.org
    \\  /    A nd           | Version:  7
     \\/     M anipulation  |
\*---------------------------------------------------------------------------*/
FoamFile
{
    version     2.0;
    format      ascii;
    class       surfaceScalarField;
    location    "10";
    object      phi;
}
// * * * * * * * * * * * * * * * * * * * * * * * * * * * * * * * * * * * * * //

dimensions      [0 3 -1 0 0 0 0];

internalField   nonuniform List<scalar> 
83430
(
-1.87654e-06
1.87654e-06
-4.97817e-12
-4.04281e-06
2.16629e-06
-1.39317e-11
-4.78275e-06
7.3996e-07
-2.26618e-11
-2.73194e-06
-2.05077e-06
-3.12078e-11
2.97059e-06
-5.7025e-06
-3.97157e-11
1.30243e-05
-1.00537e-05
-4.82969e-11
2.79635e-05
-1.49391e-05
-5.70432e-11
4.82585e-05
-2.02949e-05
-6.601e-11
7.43331e-05
-2.60745e-05
-7.52125e-11
0.000106597
-3.22639e-05
-8.46076e-11
0.000145457
-3.88599e-05
-9.40344e-11
0.000191324
-4.58667e-05
-1.03157e-10
0.000244608
-5.32839e-05
-1.10458e-10
0.000305704
-6.10959e-05
-1.16764e-10
0.000374952
-6.92484e-05
-1.22886e-10
0.000452591
-7.76382e-05
-1.27905e-10
0.000538619
-8.60279e-05
-1.3141e-10
0.000632788
-9.41696e-05
-1.32981e-10
0.000733966
-0.000101178
-1.32372e-10
-0.000107588
-1.29081e-10
0.000841555
-1.85779e-06
3.73433e-06
-3.97758e-06
4.28608e-06
-4.64586e-06
1.40824e-06
-2.49967e-06
-4.19697e-06
3.32196e-06
-1.15241e-05
1.3519e-05
-2.02507e-05
2.86268e-05
-3.00469e-05
4.91169e-05
-4.07851e-05
7.54147e-05
-5.23723e-05
0.000107932
-6.47807e-05
0.000147076
-7.8004e-05
0.00019326
-9.20507e-05
0.000246896
-0.00010692
0.00030838
-0.000122581
0.000378058
-0.000138926
0.000456168
-0.000155749
0.000542716
-0.000172576
0.000637459
-0.000188913
0.000739267
-0.000202986
-0.000215863
0.000847542
-1.82059e-06
5.55492e-06
-3.84747e-06
6.31297e-06
-4.37243e-06
1.9332e-06
-2.03545e-06
-6.53394e-06
4.02428e-06
-1.75839e-05
1.45077e-05
-3.07342e-05
2.99523e-05
-4.54915e-05
5.08322e-05
-6.1665e-05
7.75756e-05
-7.91157e-05
0.000110597
-9.78022e-05
0.000150308
-0.000117715
0.000197125
-0.000138867
0.000251462
-0.000161258
0.000313723
-0.000184841
0.000384254
-0.000209457
0.000463305
-0.000234799
0.000550889
-0.000260159
0.000646773
-0.000284797
0.000749837
-0.00030605
-0.000325504
0.000859478
-1.76504e-06
7.31996e-06
-3.65286e-06
8.20078e-06
-3.96321e-06
2.24355e-06
-1.34058e-06
-9.15656e-06
5.07558e-06
-2.4e-05
1.59877e-05
-4.16463e-05
3.19363e-05
-6.144e-05
5.33992e-05
-8.31279e-05
8.08091e-05
-0.000106526
0.000114585
-0.000131578
0.000155144
-0.000158273
0.000202905
-0.000186629
0.000258292
-0.000216644
0.00032171
-0.000248259
0.000393517
-0.000281264
0.000473972
-0.000315254
0.0005631
-0.000349288
0.000660686
-0.000382383
0.000765622
-0.000410986
-0.000437181
0.000877299
-1.69132e-06
9.01128e-06
-3.3943e-06
9.90376e-06
-3.41935e-06
2.2686e-06
-4.16959e-07
-1.2159e-05
6.47292e-06
-3.08899e-05
1.79548e-05
-5.31282e-05
3.45729e-05
-7.80581e-05
5.68103e-05
-0.000105365
8.51052e-05
-0.000134821
0.000119883
-0.000166356
0.000161566
-0.000199957
0.000210582
-0.000235645
0.000267359
-0.000273421
0.000332312
-0.000313213
0.000405809
-0.000354761
0.000488122
-0.000397566
0.000579294
-0.00044046
0.000679131
-0.00048222
0.000786541
-0.000518396
-0.000551547
0.000900907
-1.59965e-06
1.06109e-05
-3.07253e-06
1.13766e-05
-2.74239e-06
1.93845e-06
7.327e-07
-1.5634e-05
8.21238e-06
-3.83696e-05
2.04033e-05
-6.5319e-05
3.78545e-05
-9.55094e-05
6.10552e-05
-0.000128566
9.04507e-05
-0.000164216
0.000126474
-0.000202379
0.000169554
-0.000243037
0.000220128
-0.000286218
0.00027863
-0.000331924
0.000345488
-0.000380071
0.00042108
-0.000430353
0.000505694
-0.000482181
0.000599397
-0.000534163
0.000702018
-0.000584841
0.000812488
-0.000628866
-0.000669234
0.000930175
-1.4903e-06
1.21012e-05
-2.68846e-06
1.25748e-05
-1.93418e-06
1.18417e-06
2.10535e-06
-1.96736e-05
1.02891e-05
-4.65534e-05
2.33263e-05
-7.83562e-05
4.17716e-05
-0.000113955
6.61215e-05
-0.000152916
9.68292e-05
-0.000194924
0.000134336
-0.000239886
0.000179081
-0.000287782
0.000231509
-0.000338646
0.000292066
-0.00039248
0.000361188
-0.000449192
0.000439268
-0.000508433
0.000526615
-0.000569528
0.000623318
-0.000630866
0.000729237
-0.00069076
0.000843328
-0.000742957
-0.000790848
0.000964942
-1.36359e-06
1.34648e-05
-2.24316e-06
1.34544e-05
-9.96946e-07
-6.20447e-08
3.69724e-06
-2.43678e-05
1.26975e-05
-5.55536e-05
2.67157e-05
-9.23744e-05
4.63131e-05
-0.000133552
7.1994e-05
-0.000178597
0.000104221
-0.000227151
0.000143446
-0.00027911
0.000190116
-0.000334453
0.000244687
-0.000393217
0.000307616
-0.000455409
0.00037935
-0.000520927
0.000460299
-0.000589382
0.000550792
-0.00066002
0.000650946
-0.000731021
0.000760654
-0.000800467
0.000878903
-0.000861206
-0.000916964
0.00100502
-1.21989e-06
1.46847e-05
-1.73787e-06
1.39724e-05
6.67528e-08
-1.86667e-06
5.504e-06
-2.9805e-05
1.54307e-05
-6.54804e-05
3.05619e-05
-0.000107506
5.14658e-05
-0.000154456
7.86555e-05
-0.000205786
0.000112604
-0.0002611
0.000153773
-0.000320279
0.000202622
-0.000383302
0.000259616
-0.000450211
0.000325224
-0.000521016
0.000399906
-0.000595609
0.000484089
-0.000673565
0.000578123
-0.000754054
0.000682156
-0.000835054
0.000796116
-0.000914428
0.000919028
-0.000984118
-0.00104812
0.00105018
-1.05962e-06
1.57443e-05
-1.17397e-06
1.40867e-05
1.25403e-06
-4.29467e-06
7.52077e-06
-3.60717e-05
1.84815e-05
-7.64411e-05
3.48543e-05
-0.000123878
5.7215e-05
-0.000176817
8.60863e-05
-0.000234658
0.000121952
-0.000296965
0.000165285
-0.000363613
0.000216557
-0.000434574
0.000276244
-0.000509898
0.000344826
-0.000589598
0.000422777
-0.00067356
0.00051054
-0.000761328
0.000608488
-0.000852002
0.000716803
-0.000943369
0.00083545
-0.00103307
0.000963495
-0.00111216
-0.00118482
0.00110019
-8.83245e-07
1.66276e-05
-5.52986e-07
1.37565e-05
2.56173e-06
-7.40939e-06
9.74214e-06
-4.32521e-05
2.18415e-05
-8.85405e-05
3.95811e-05
-0.000141618
6.35446e-05
-0.00020078
9.42648e-05
-0.000265378
0.000132237
-0.000334938
0.000177947
-0.000409322
0.000231876
-0.000488504
0.000294514
-0.000572536
0.000366351
-0.000661435
0.000447874
-0.000755084
0.000539544
-0.000852997
0.000641757
-0.000954216
0.000754728
-0.00105634
0.000878463
-0.00115681
0.00101207
-0.00124577
-0.00132751
0.00115476
-6.91258e-07
1.73188e-05
1.23426e-07
1.29418e-05
3.98639e-06
-1.12724e-05
1.21622e-05
-5.1428e-05
2.55017e-05
-0.00010188
4.47292e-05
-0.000160845
7.04365e-05
-0.000226487
0.000103167
-0.000298109
0.000143428
-0.000375199
0.000191717
-0.000457611
0.000248528
-0.000545315
0.000314361
-0.000638369
0.000389719
-0.000736793
0.000475102
-0.000840466
0.000570984
-0.000948879
0.000677786
-0.00106102
0.000795756
-0.00117431
0.000924941
-0.00128599
0.0010645
-0.00138534
-0.0014766
0.00121359
-4.84202e-07
1.7803e-05
8.53378e-07
1.16042e-05
5.52428e-06
-1.59433e-05
1.47746e-05
-6.06783e-05
2.94523e-05
-0.000116558
5.02846e-05
-0.000181678
7.78716e-05
-0.000254074
0.000112767
-0.000333004
0.000155491
-0.000417923
0.000206553
-0.000508672
0.000266458
-0.000605221
0.000335719
-0.000707629
0.000414847
-0.000815921
0.000504354
-0.000929974
0.00060473
-0.00104926
0.000716417
-0.0011727
0.000839697
-0.00129759
0.000974656
-0.00142095
0.00112051
-0.00153119
-0.00163244
0.00127635
-2.6253e-07
1.80656e-05
1.63515e-06
9.70651e-06
7.17143e-06
-2.14795e-05
1.75727e-05
-7.10796e-05
3.3683e-05
-0.000132668
5.62324e-05
-0.000204227
8.5829e-05
-0.000283671
0.000123038
-0.000370213
0.00016839
-0.000463275
0.000222407
-0.00056269
0.000285607
-0.000668421
0.000358511
-0.000780533
0.000441641
-0.000899051
0.000535519
-0.00102385
0.000640646
-0.00115438
0.000757483
-0.00128954
0.000886346
-0.00142645
0.00102736
-0.00156197
0.00117981
-0.00168364
-0.00179532
0.0013427
-2.44467e-08
1.809e-05
2.46668e-06
7.21538e-06
8.92366e-06
-2.79365e-05
2.05491e-05
-8.2705e-05
3.81827e-05
-0.000150302
6.25565e-05
-0.000228601
9.42869e-05
-0.000315401
0.000133949
-0.000409875
0.000182086
-0.000511412
0.000239231
-0.000619835
0.000305913
-0.000735103
0.000382661
-0.000857281
0.000470005
-0.000986395
0.000568475
-0.00112232
0.000678582
-0.00126449
0.000800804
-0.00141176
0.000935485
-0.00156113
0.00108279
-0.00170927
0.00124207
-0.00184292
-0.0019655
0.00141224
2.22638e-07
1.78674e-05
3.34579e-06
4.09224e-06
1.07766e-05
-3.53673e-05
2.36964e-05
-9.56248e-05
4.29398e-05
-0.000169545
6.92403e-05
-0.000254901
0.000103222
-0.000349383
0.00014547
-0.000452123
0.000196538
-0.00056248
0.000256971
-0.000680268
0.000327307
-0.000805439
0.000408083
-0.000938057
0.000499835
-0.00107815
0.000603096
-0.00122558
0.000718384
-0.00137978
0.00084619
-0.00153957
0.000986886
-0.00170183
0.00114067
-0.00186306
0.00130697
-0.00200922
-0.00214314
0.0014846
4.84149e-07
1.73832e-05
4.27039e-06
3.05992e-07
1.27256e-05
-4.38225e-05
2.70066e-05
-0.000109906
4.79421e-05
-0.000190481
7.62661e-05
-0.000283225
0.00011261
-0.000385727
0.000157567
-0.000497081
0.000211704
-0.000616617
0.000275573
-0.000744137
0.000349722
-0.000879587
0.000434691
-0.00102303
0.000531022
-0.00117448
0.000639247
-0.00133381
0.000759888
-0.00150042
0.000893443
-0.00167312
0.00104031
-0.00184869
0.00120071
-0.00202346
0.00137415
-0.00218266
-0.00232835
0.00155937
7.57874e-07
1.66253e-05
5.23827e-06
-4.1744e-06
1.4766e-05
-5.33502e-05
3.04718e-05
-0.000125612
5.3177e-05
-0.000213186
8.36156e-05
-0.000313664
0.000122425
-0.000424536
0.000170208
-0.000544863
0.000227539
-0.000673948
0.000294979
-0.000811578
0.000373082
-0.00095769
0.000462393
-0.00111234
0.000563451
-0.00127554
0.000676787
-0.00144714
0.000802922
-0.00162655
0.000942353
-0.00181256
0.0010955
-0.00200184
0.00126261
-0.00219057
0.00144326
-0.00236331
-0.00252119
0.0016361
1.04305e-06
1.55823e-05
6.24711e-06
-9.37847e-06
1.6893e-05
-6.39961e-05
3.40834e-05
-0.000142802
5.86314e-05
-0.000237734
9.12699e-05
-0.000346303
0.000132641
-0.000465907
0.000183356
-0.000595578
0.000243995
-0.000734587
0.000315128
-0.000882711
0.000397312
-0.00103987
0.000491091
-0.00120612
0.000597003
-0.00138145
0.000715571
-0.00156571
0.000847308
-0.00175829
0.000992707
-0.00195795
0.0011522
-0.00216133
0.00132605
-0.00236442
0.00151393
-0.0025512
-0.00272163
0.00171437
1.33899e-06
1.42433e-05
7.29459e-06
-1.53341e-05
1.91015e-05
-7.58029e-05
3.78328e-05
-0.000161533
6.42919e-05
-0.000264193
9.92094e-05
-0.00038122
0.000143232
-0.00050993
0.000196974
-0.000649321
0.000261026
-0.000798639
0.000335959
-0.000957644
0.000422332
-0.00112625
0.000520688
-0.00130447
0.000631556
-0.00149231
0.000755448
-0.0016896
0.000892863
-0.00189571
0.00104428
-0.00210937
0.00121014
-0.00232718
0.00139071
-0.002545
0.00158578
-0.00274626
-0.00292959
0.00179374
1.64502e-06
1.25983e-05
8.37835e-06
-2.20674e-05
2.13865e-05
-8.88111e-05
4.17112e-05
-0.000181858
7.01448e-05
-0.000292626
0.000107414
-0.000418489
0.000154168
-0.000556683
0.000211026
-0.000706178
0.00027858
-0.000866193
0.000357406
-0.00103647
0.00044806
-0.0012169
0.00055108
-0.00140749
0.000666982
-0.00160822
0.000796261
-0.00181888
0.000939397
-0.00203884
0.00109685
-0.00226682
0.00126905
-0.00249938
0.00145628
-0.00273223
0.00165841
-0.00294838
-0.00314491
0.00187373
1.96047e-06
1.06378e-05
9.49599e-06
-2.96029e-05
2.37429e-05
-0.000103058
4.57096e-05
-0.000203825
7.6176e-05
-0.000323093
0.000115863
-0.000458177
0.000165421
-0.000606241
0.000225471
-0.000766228
0.000296607
-0.000937329
0.000379404
-0.00111927
0.000474414
-0.00131191
0.000582163
-0.00151524
0.000703151
-0.00172921
0.000837852
-0.00195358
0.000986715
-0.00218771
0.00115017
-0.00243028
0.00132865
-0.00267786
0.00152241
-0.002926
0.00173143
-0.0031574
-0.00336739
0.0019539
2.28468e-06
8.35313e-06
1.06451e-05
-3.79634e-05
2.61654e-05
-0.000118578
4.98189e-05
-0.000227478
8.23711e-05
-0.000355645
0.000124536
-0.000500342
0.000176962
-0.000658667
0.000240271
-0.000829537
0.000315055
-0.00101211
0.000401885
-0.0012061
0.000501305
-0.00141133
0.000613827
-0.00162776
0.000739929
-0.00185531
0.000880055
-0.00209371
0.00103462
-0.00234227
0.00120402
-0.00259968
0.00138865
-0.00286249
0.00158877
-0.00312612
0.00180446
-0.00337309
-0.00359672
0.00203379
2.61698e-06
5.73615e-06
1.18233e-05
-4.71697e-05
2.86489e-05
-0.000135404
5.40299e-05
-0.00025286
8.87158e-05
-0.000390331
0.000133411
-0.000545038
0.000188761
-0.000714017
0.000255384
-0.00089616
0.00033387
-0.0010906
0.00042478
-0.00129701
0.000528646
-0.0015152
0.000645962
-0.00174508
0.00077718
-0.00198653
0.000922705
-0.00223923
0.00108291
-0.00250248
0.00125815
-0.00277491
0.00144878
-0.00305313
0.00165504
-0.00333237
0.0018771
-0.00359515
-0.00383257
0.00211295
2.95673e-06
2.77942e-06
1.30283e-05
-5.72412e-05
3.1188e-05
-0.000153563
5.83332e-05
-0.000280005
9.51952e-05
-0.000427193
0.000142467
-0.00059231
0.000200788
-0.000772337
0.000270771
-0.000966142
0.000352997
-0.00117282
0.000448018
-0.00139203
0.000556348
-0.00162353
0.000678457
-0.00186719
0.000814764
-0.00212283
0.000965634
-0.0023901
0.00113139
-0.00266824
0.00131232
-0.00295584
0.00150876
-0.00324956
0.00172086
-0.00354448
0.00194897
-0.00382326
-0.00407453
0.00219092
3.30329e-06
-5.23869e-07
1.42575e-05
-6.81954e-05
3.37775e-05
-0.000173083
6.27196e-05
-0.000308947
0.000101795
-0.000466268
0.000151682
-0.000642198
0.000213012
-0.000833667
0.000286388
-0.00103952
0.000372381
-0.00125882
0.000471528
-0.00149118
0.000584319
-0.00173632
0.000711197
-0.00199407
0.000852542
-0.00226418
0.00100867
-0.00254623
0.00117985
-0.00283942
0.00136629
-0.00314229
0.00156829
-0.00345155
0.00178593
-0.00376212
0.00201968
-0.00405701
-0.00432212
0.00226727
3.65603e-06
-4.1799e-06
1.55086e-05
-8.00479e-05
3.64121e-05
-0.000193987
6.71795e-05
-0.000339714
0.000108499
-0.000507587
0.000161034
-0.000694733
0.000225402
-0.000898035
0.000302195
-0.00111631
0.000391967
-0.00134859
0.000495237
-0.00159444
0.000612468
-0.00185355
0.000744067
-0.00212567
0.000890372
-0.00241048
0.00105164
-0.0027075
0.00122808
-0.00301586
0.00141983
-0.00333403
0.00162709
-0.00365882
0.00184991
-0.00398493
0.00208886
-0.00429596
-0.00457484
0.00234158
4.01434e-06
-8.19424e-06
1.67792e-05
-9.28128e-05
3.90865e-05
-0.000216294
7.17036e-05
-0.000372331
0.000115294
-0.000551177
0.0001705
-0.000749939
0.000237927
-0.000965461
0.000318147
-0.00119653
0.000411698
-0.00144214
0.000519071
-0.00170182
0.000640701
-0.00197518
0.000776951
-0.00226192
0.000928111
-0.00256164
0.00109438
-0.00287377
0.00127589
-0.00319737
0.00147268
-0.00353082
0.00168491
-0.00387104
0.00191248
-0.00421251
0.00215617
-0.00453966
-0.00483211
0.00241344
4.37762e-06
-1.25719e-05
1.80671e-05
-0.000106502
4.17956e-05
-0.000240023
7.62824e-05
-0.000406818
0.000122163
-0.000597058
0.000180059
-0.000807835
0.000250554
-0.00103596
0.000334202
-0.00128018
0.000431517
-0.00153946
0.000542958
-0.00181326
0.000668924
-0.00210114
0.000809732
-0.00240273
0.000965616
-0.00271753
0.00113671
-0.00304486
0.00132306
-0.00338372
0.00152462
-0.00373238
0.00174146
-0.00408788
0.00197336
-0.00444441
0.00222127
-0.00478756
-0.0050933
0.00248246
4.7453e-06
-1.73172e-05
1.937e-05
-0.000121127
4.4534e-05
-0.000265187
8.09065e-05
-0.000443191
0.000129092
-0.000645244
0.000189688
-0.000868431
0.000263253
-0.00110952
0.000350318
-0.00136724
0.000451366
-0.0016405
0.000566823
-0.00192872
0.000697043
-0.00223136
0.000842293
-0.00254798
0.00100274
-0.00287798
0.00117846
-0.00322058
0.0013694
-0.00357466
0.00157542
-0.0039384
0.00179648
-0.00430894
0.00203225
-0.00468018
0.00228383
-0.00503915
-0.00535776
0.00254828
5.11681e-06
-2.2434e-05
2.06854e-05
-0.000136696
4.72966e-05
-0.000291798
8.55665e-05
-0.000481461
0.000136067
-0.000695744
0.000199363
-0.000931727
0.000275991
-0.00118615
0.000366449
-0.0014577
0.000471187
-0.00174524
0.000590591
-0.00204812
0.000724964
-0.00236574
0.000874516
-0.00269753
0.00103935
-0.00304281
0.00121945
-0.00340068
0.0014147
-0.00376991
0.00162484
-0.00414854
0.00184973
-0.00453383
0.00208887
-0.00491932
0.00234356
-0.00529384
-0.00562476
0.00261057
5.4916e-06
-2.79256e-05
2.20112e-05
-0.000153215
5.00782e-05
-0.000319865
9.02529e-05
-0.000521635
0.00014307
-0.000748562
0.000209064
-0.00099772
0.000288736
-0.00126582
0.000382553
-0.00155152
0.000490924
-0.00185361
0.000614187
-0.00217138
0.000752592
-0.00250414
0.000906285
-0.00285122
0.0010753
-0.00321182
0.00125953
-0.00358491
0.00145878
-0.00396915
0.00167267
-0.00436243
0.00190096
-0.00476212
0.00214297
-0.00516132
0.0024002
-0.00555108
-0.00589356
0.002669
5.86913e-06
-3.37947e-05
2.33452e-05
-0.000170691
5.28736e-05
-0.000349393
9.49565e-05
-0.000563718
0.000150088
-0.000803694
0.000218766
-0.0010664
0.000301456
-0.00134851
0.000398586
-0.00164865
0.000510518
-0.00196555
0.000637538
-0.0022984
0.000779834
-0.00264644
0.000937484
-0.00300887
0.00111044
-0.00338478
0.00129853
-0.003773
0.00150144
-0.00417206
0.0017187
-0.00457969
0.00194994
-0.00499337
0.00219431
-0.00540569
0.0024535
-0.00581026
-0.00616337
0.00272331
6.24888e-06
-4.00436e-05
2.4685e-05
-0.000189127
5.56777e-05
-0.000380386
9.96677e-05
-0.000607708
0.000157106
-0.000861132
0.000228448
-0.00113774
0.00031412
-0.00143418
0.000414504
-0.00174903
0.000529911
-0.00208095
0.000660569
-0.00242906
0.000806597
-0.00279247
0.000967998
-0.00317027
0.00114465
-0.00356143
0.00133627
-0.00396463
0.00154248
-0.00437827
0.00176271
-0.00479992
0.00199647
-0.00522712
0.0022427
-0.00565193
0.00250327
-0.00607083
-0.00643334
0.00277325
6.63034e-06
-4.66739e-05
2.60286e-05
-0.000208526
5.84855e-05
-0.000412843
0.000104377
-0.0006536
0.000164108
-0.000920862
0.000238087
-0.00121172
0.000326695
-0.00152279
0.000430264
-0.0018526
0.000549047
-0.00219974
0.000683206
-0.00256322
0.000832787
-0.00294205
0.000997714
-0.0033352
0.00117777
-0.00374149
0.00137261
-0.00415946
0.00158174
-0.0045874
0.00180451
-0.00502268
0.00204031
-0.00546293
0.00228795
-0.00589957
0.00254935
-0.00633224
-0.00670261
0.00281862
7.01299e-06
-5.36869e-05
2.73738e-05
-0.000228886
6.12918e-05
-0.000446761
0.000109076
-0.000701384
0.000171079
-0.000982865
0.00024766
-0.0012883
0.000339149
-0.00161428
0.000445821
-0.00195927
0.000567868
-0.00232178
0.000705376
-0.00270073
0.000858315
-0.00309499
0.00102652
-0.00350341
0.00120969
-0.00392466
0.00140738
-0.00435715
0.00161903
-0.00479905
0.0018439
-0.00524755
0.0020813
-0.00570033
0.0023299
-0.00614817
0.00259162
-0.00659396
-0.0069703
0.00285931
7.39632e-06
-6.10832e-05
2.87183e-05
-0.000250208
6.40915e-05
-0.000482134
0.000113754
-0.000751046
0.000178004
-0.00104711
0.000257144
-0.00136744
0.000351451
-0.00170859
0.000461134
-0.00206896
0.000586316
-0.00244697
0.000727007
-0.00284142
0.00088309
-0.00325107
0.00105431
-0.00367463
0.00124027
-0.00411062
0.00144044
-0.00455733
0.00165418
-0.00501278
0.00188069
-0.00547407
0.00211922
-0.00593886
0.00236842
-0.00639737
0.00263001
-0.00685555
-0.00723559
0.00289531
7.77981e-06
-6.8863e-05
3.006e-05
-0.000272489
6.68796e-05
-0.000518954
0.000118403
-0.00080257
0.000184867
-0.00111358
0.000266518
-0.00144909
0.000363568
-0.00180564
0.000476159
-0.00218155
0.000604338
-0.00257514
0.000748029
-0.00298511
0.000907025
-0.00341007
0.00108097
-0.00384858
0.00126939
-0.00429904
0.00147164
-0.00475958
0.00168702
-0.00522816
0.00191471
-0.00570175
0.0021539
-0.00617806
0.00240343
-0.00664689
0.00266446
-0.00711659
-0.00749782
0.0029267
8.16289e-06
-7.70259e-05
3.13966e-05
-0.000295722
6.9651e-05
-0.000557208
0.000123012
-0.000855931
0.000191655
-0.00118222
0.000275759
-0.00153319
0.000375469
-0.00190535
0.000490853
-0.00229693
0.000621876
-0.00270617
0.000768371
-0.0031316
0.000930034
-0.00357173
0.00110641
-0.00402496
0.00129692
-0.00448954
0.00150085
-0.00496351
0.0017174
-0.00544471
0.00194576
-0.00593011
0.00218517
-0.00641747
0.00243488
-0.0068966
0.00269503
-0.00737674
-0.00775731
0.00295451
8.54496e-06
-8.55709e-05
3.27259e-05
-0.000319903
7.24006e-05
-0.000596883
0.000127574
-0.000911105
0.000198352
-0.001253
0.000284844
-0.00161969
0.000387122
-0.00200763
0.000505175
-0.00241499
0.000638877
-0.00283987
0.000787966
-0.00328069
0.000952036
-0.0037358
0.00113053
-0.00420345
0.00132276
-0.00468177
0.00152792
-0.00516867
0.00174516
-0.00566195
0.00197366
-0.00615862
0.00221279
-0.0066566
0.00246259
-0.00714639
0.00272296
-0.00763711
-0.00801528
0.00298093
8.85183e-06
-9.44227e-05
3.38943e-05
-0.000344946
7.48994e-05
-0.000637888
0.000131792
-0.000967997
0.000204608
-0.00132582
0.000293384
-0.00170846
0.000398115
-0.00211236
0.000518702
-0.00253557
0.000654927
-0.00297609
0.000806426
-0.00343219
0.000972686
-0.00390206
0.00115304
-0.0043838
0.0013467
-0.00487543
0.00155276
-0.00537474
0.00177031
-0.0058795
0.00199854
-0.00638684
0.0022369
-0.00689497
0.00248624
-0.00739573
0.00275017
-0.00790104
-0.00833393
0.00306881
9.22438e-06
-0.000103647
3.51917e-05
-0.000370913
7.75757e-05
-0.000680272
0.000136212
-0.00102663
0.000211058
-0.00140066
0.00030207
-0.00179948
0.000409159
-0.00221945
0.000532135
-0.00265855
0.000670676
-0.00311463
0.000824314
-0.00358583
0.000992422
-0.00407017
0.00117422
-0.00456561
0.00136882
-0.00507002
0.00157522
-0.00558114
0.00179244
-0.00609671
0.00201963
-0.00661403
0.00225629
-0.00713162
0.0025036
-0.00764304
0.00276415
-0.00816159
-0.00863408
0.0030643
9.59419e-06
-0.000113241
3.64748e-05
-0.000397794
8.02141e-05
-0.000724011
0.000140554
-0.00108697
0.00021737
-0.00147748
0.000310533
-0.00189264
0.000419863
-0.00232878
0.00054507
-0.00278376
0.000685729
-0.00325529
0.000841259
-0.00374136
0.00101092
-0.00423983
0.00119382
-0.00474851
0.00138895
-0.00526515
0.00159523
-0.00578742
0.00181158
-0.00631307
0.00203711
-0.00683956
0.00227123
-0.00736574
0.00251497
-0.00788678
0.00276863
-0.00841525
-0.00891595
0.0030505
9.9606e-06
-0.000123202
3.77414e-05
-0.000425574
8.28098e-05
-0.00076908
0.00014481
-0.00114897
0.000223531
-0.0015562
0.000318751
-0.00198786
0.000430195
-0.00244022
0.000557469
-0.00291103
0.000700038
-0.00339786
0.000857205
-0.00389853
0.00102811
-0.00441073
0.00121175
-0.00493214
0.001407
-0.0054604
0.00161269
-0.00599311
0.00182765
-0.00652803
0.00205092
-0.00706283
0.00228173
-0.00759655
0.00252075
-0.0081258
0.00276677
-0.00866127
-0.00918111
0.00303194
1.0323e-05
-0.000133525
3.89892e-05
-0.000454241
8.53575e-05
-0.000815448
0.00014897
-0.00121259
0.000229524
-0.00163675
0.000326702
-0.00208504
0.000440125
-0.00255364
0.000569294
-0.0030402
0.000713556
-0.00354213
0.000872094
-0.00405707
0.00104393
-0.00458257
0.00122794
-0.00511616
0.0014229
-0.00565536
0.00162754
-0.00619775
0.00184061
-0.00674109
0.00206103
-0.00728325
0.00228788
-0.00782341
0.00252137
-0.00835929
0.00275941
-0.00889931
-0.00943143
0.00300973
1.06808e-05
-0.000144206
4.0216e-05
-0.000483776
8.78522e-05
-0.000863084
0.000153026
-0.00127776
0.000235336
-0.00171906
0.000334364
-0.00218406
0.000449627
-0.00266891
0.000580507
-0.00317108
0.000726236
-0.00368785
0.000885873
-0.0042167
0.00105832
-0.00475501
0.00124234
-0.00530018
0.0014366
-0.00584963
0.00163973
-0.00640088
0.0018504
-0.00695176
0.00206744
-0.00750029
0.00228976
-0.00804572
0.00251715
-0.00858669
0.00274706
-0.00912922
-0.00966854
0.00298417
1.10335e-05
-0.000155239
4.14194e-05
-0.000514162
9.02886e-05
-0.000911953
0.000156967
-0.00134444
0.000240952
-0.00180305
0.000341718
-0.00228483
0.00045867
-0.00278586
0.000591073
-0.00330348
0.000738036
-0.00383482
0.000898494
-0.00437716
0.00107123
-0.00492775
0.00125489
-0.00548384
0.00144804
-0.00604278
0.00164922
-0.00660207
0.00185703
-0.00715957
0.00207019
-0.00771345
0.00228749
-0.00826302
0.00250837
-0.00880757
0.00273012
-0.00935097
-0.00989376
0.00295533
1.13804e-05
-0.00016662
4.25973e-05
-0.000545379
9.26618e-05
-0.000962018
0.000160785
-0.00141256
0.000246358
-0.00188862
0.000348742
-0.00238721
0.000467228
-0.00290434
0.000600958
-0.00343721
0.000748914
-0.00398277
0.000909908
-0.00453816
0.0010826
-0.00510044
0.00126553
-0.00566677
0.00145717
-0.00623442
0.00165598
-0.00680088
0.00186047
-0.00736406
0.00206931
-0.00792228
0.00228117
-0.00847488
0.00249523
-0.00902163
0.00270885
-0.00956459
-0.0101081
0.00292318
1.1721e-05
-0.000178341
4.37473e-05
-0.000577405
9.49664e-05
-0.00101324
0.00016447
-0.00148206
0.000251538
-0.00197569
0.000355417
-0.00249109
0.000475274
-0.0030242
0.000610127
-0.00357207
0.000758832
-0.00413148
0.000920075
-0.0046994
0.0010924
-0.00527276
0.00127424
-0.00584861
0.00146397
-0.00642415
0.00166
-0.0069969
0.00186076
-0.00756482
0.00206486
-0.00812639
0.00227092
-0.00868094
0.00247795
-0.00922867
0.00268347
-0.00977011
-0.0103123
0.00288769
1.20548e-05
-0.000190395
4.48671e-05
-0.000610217
9.71974e-05
-0.00106557
0.000168013
-0.00155288
0.00025648
-0.00206416
0.000361722
-0.00259633
0.000482782
-0.00314526
0.00061855
-0.00370783
0.000767753
-0.00428068
0.000928954
-0.0048606
0.00110058
-0.00544439
0.00128097
-0.006029
0.00146842
-0.0066116
0.00166126
-0.00718974
0.0018579
-0.00776146
0.00205691
-0.00832539
0.00225687
-0.0088809
0.0024567
-0.00942849
0.00265416
-0.00996757
-0.010507
0.00284885
1.2381e-05
-0.000202776
4.59544e-05
-0.000643791
9.93495e-05
-0.00111896
0.000171406
-0.00162494
0.000261169
-0.00215392
0.000367638
-0.0027028
0.000489727
-0.00326735
0.000626197
-0.0038443
0.000775644
-0.00443013
0.000936511
-0.00502147
0.00110712
-0.00561499
0.0012857
-0.00620758
0.0014705
-0.0067964
0.00165979
-0.00737903
0.00185195
-0.00795362
0.00204552
-0.00851897
0.00223913
-0.00907451
0.00243162
-0.00962099
0.00262107
-0.010157
-0.0106926
0.0028067
1.26992e-05
-0.000215476
4.70068e-05
-0.000678098
0.000101417
-0.00117337
0.000174639
-0.00169816
0.000265592
-0.00224487
0.000373146
-0.00281036
0.000496086
-0.00339029
0.000633039
-0.00398126
0.000782474
-0.00457956
0.000942715
-0.00518171
0.00111197
-0.00578425
0.00128841
-0.00638402
0.0014702
-0.00697819
0.00165559
-0.00756441
0.00184293
-0.00814097
0.0020308
-0.00870683
0.00221782
-0.00926154
0.00240289
-0.00980606
0.00258436
-0.0103385
-0.0108695
0.00276127
1.30086e-05
-0.000228484
4.8022e-05
-0.000713112
0.000103396
-0.00122875
0.000177703
-0.00177246
0.000269735
-0.00233691
0.000378228
-0.00291885
0.000501835
-0.0035139
0.00063905
-0.00411847
0.000788215
-0.00472873
0.000947538
-0.00534103
0.00111514
-0.00595185
0.0012891
-0.00655798
0.00146754
-0.00715663
0.00164869
-0.00774556
0.00183092
-0.0083232
0.00201281
-0.00888872
0.00219308
-0.0094418
0.00237065
-0.00998363
0.00254419
-0.010512
-0.011038
0.00271265
1.33088e-05
-0.000241793
4.89976e-05
-0.0007488
0.000105281
-0.00128503
0.00018059
-0.00184777
0.000273585
-0.0024299
0.000382867
-0.00302813
0.000506954
-0.00363798
0.000644205
-0.00425572
0.000792841
-0.00487736
0.000950959
-0.00549915
0.00111659
-0.00611748
0.00128774
-0.00672914
0.00146252
-0.0073314
0.00163913
-0.00792217
0.00181597
-0.00850004
0.00199167
-0.00906442
0.00216502
-0.00961516
0.00233505
-0.0101537
0.0025007
-0.0106777
-0.0111982
0.00266094
1.35989e-05
-0.000255392
4.99312e-05
-0.000785133
0.000107065
-0.00134216
0.00018329
-0.001924
0.000277129
-0.00252374
0.000387046
-0.00313805
0.000511421
-0.00376236
0.000648484
-0.00439279
0.000796331
-0.00502521
0.000952958
-0.00565577
0.00111631
-0.00628083
0.00128436
-0.00689718
0.00145516
-0.00750221
0.00162695
-0.00809396
0.00179815
-0.00867125
0.00196747
-0.00923374
0.00213379
-0.00978148
0.00229625
-0.0103161
0.00245405
-0.0108355
-0.0113504
0.00260625
1.38784e-05
-0.00026927
5.08203e-05
-0.000822075
0.000108746
-0.00140009
0.000185795
-0.00200105
0.000280356
-0.0026183
0.000390749
-0.00324844
0.000515219
-0.00388683
0.000651864
-0.00452943
0.000798666
-0.00517202
0.000953522
-0.00581063
0.00111431
-0.00644161
0.00127894
-0.00706182
0.00144549
-0.00766875
0.0016122
-0.00826066
0.00177755
-0.0088366
0.00194032
-0.0093965
0.00209951
-0.00994068
0.00225439
-0.010471
0.00240439
-0.0109855
-0.0114948
0.00254872
1.41466e-05
-0.000283417
5.16626e-05
-0.000859591
0.000110316
-0.00145874
0.000188097
-0.00207883
0.000283252
-0.00271346
0.00039396
-0.00335915
0.000518329
-0.00401119
0.000654329
-0.00466543
0.000799831
-0.00531752
0.00095264
-0.00596344
0.00111057
-0.00659955
0.00127152
-0.00722278
0.00143355
-0.00783078
0.00159494
-0.00842205
0.00175425
-0.00899591
0.00191033
-0.00955258
0.00206233
-0.0100927
0.00220963
-0.0106183
0.0023519
-0.0111277
-0.0116314
0.00248849
1.44029e-05
-0.00029782
5.24557e-05
-0.000897643
0.000111772
-0.00151806
0.000190188
-0.00215725
0.000285807
-0.00280908
0.000396666
-0.00347001
0.000520735
-0.00413526
0.000655863
-0.00480056
0.000799812
-0.00546147
0.000950308
-0.00611394
0.00110511
-0.00675435
0.00126211
-0.00737977
0.00141937
-0.00798804
0.00157524
-0.00857792
0.00172833
-0.00914901
0.00187762
-0.00970187
0.00202238
-0.0102374
0.00216212
-0.010758
0.00229673
-0.0112623
-0.0117603
0.00242571
1.46465e-05
-0.000312466
5.31972e-05
-0.000936194
0.000113108
-0.00157797
0.00019206
-0.0022362
0.00028801
-0.00290503
0.000398853
-0.00358085
0.000522425
-0.00425884
0.000656453
-0.00493459
0.000798601
-0.00560361
0.000946523
-0.00626186
0.00109794
-0.00690577
0.00125074
-0.00753257
0.00140301
-0.00814032
0.00155315
-0.00872806
0.0016999
-0.00929575
0.00184231
-0.00984429
0.0019798
-0.0103749
0.00211202
-0.0108903
0.00223904
-0.0113894
-0.0118818
0.00236053
1.48768e-05
-0.000327343
5.38846e-05
-0.000975202
0.000114319
-0.0016384
0.000193705
-0.00231558
0.000289851
-0.00300117
0.000400509
-0.00369151
0.000523384
-0.00438171
0.000656087
-0.00506729
0.000796192
-0.00574372
0.000941289
-0.00640695
0.00108907
-0.00705356
0.00123743
-0.00768092
0.00138451
-0.00828739
0.00152877
-0.00887232
0.00166905
-0.00943603
0.00180452
-0.00997976
0.00193472
-0.0105051
0.00205947
-0.011015
0.00217899
-0.0115089
-0.0119959
0.00229311
1.50932e-05
-0.000342436
5.45157e-05
-0.00101462
0.000115401
-0.00169929
0.000195115
-0.0023953
0.000291319
-0.00309738
0.000401622
-0.00380181
0.000523602
-0.00450369
0.000654759
-0.00519845
0.000792582
-0.00588154
0.000934612
-0.00654898
0.00107853
-0.00719747
0.00122223
-0.00782463
0.00136393
-0.00842909
0.00150217
-0.00901056
0.00163587
-0.00956974
0.00176436
-0.0101082
0.0018873
-0.0106281
0.00200463
-0.0111323
0.00211673