/*--------------------------------*- C++ -*----------------------------------*\
  =========                 |
  \\      /  F ield         | OpenFOAM: The Open Source CFD Toolbox
   \\    /   O peration     | Website:  https://openfoam.org
    \\  /    A nd           | Version:  7
     \\/     M anipulation  |
\*---------------------------------------------------------------------------*/
FoamFile
{
    version     2.0;
    format      ascii;
    class       volVectorField;
    location    "10";
    object      U;
}
// * * * * * * * * * * * * * * * * * * * * * * * * * * * * * * * * * * * * * //

dimensions      [0 1 -1 0 0 0 0];

internalField   nonuniform List<vector> 
42000
(
(-0.000838174 0.000173094 1.08667e-21)
(-0.00275108 0.000175314 -3.55844e-21)
(-0.00405355 2.78893e-05 1.85273e-21)
(-0.00329428 -0.000207831 -1.05791e-22)
(-0.000466057 -0.000477654 -3.41821e-21)
(0.00451929 -0.000760937 4.08017e-21)
(0.0114813 -0.00104178 3.57934e-21)
(0.0202445 -0.001314 2.40672e-21)
(0.0306106 -0.00157383 -1.87829e-21)
(0.0423966 -0.00182031 2.41555e-21)
(0.0554382 -0.0020533 1.02408e-21)
(0.0695906 -0.00227316 8.69729e-23)
(0.0847251 -0.00247985 -1.51608e-21)
(0.100726 -0.00267246 1.65945e-21)
(0.117469 -0.00284815 3.63742e-21)
(0.13484 -0.00300182 1.36647e-21)
(0.152635 -0.00312291 -2.77518e-21)
(0.170744 -0.00320128 -9.02414e-22)
(0.188594 -0.00320119 2.57152e-21)
(0.20636 -0.00315446 8.11953e-22)
(-0.000847601 0.000517383 3.07952e-21)
(-0.00273427 0.000522329 -1.52798e-21)
(-0.00397816 7.95591e-05 3.76509e-21)
(-0.0031451 -0.000627506 -1.74783e-21)
(-0.000231312 -0.00143644 1.28532e-20)
(0.00484588 -0.00228552 -1.57357e-22)
(0.0119046 -0.00312709 6.49147e-21)
(0.0207676 -0.00394267 -4.8935e-21)
(0.031236 -0.00472099 6.37831e-21)
(0.0431263 -0.00545917 6.09734e-21)
(0.0562736 -0.00615684 -2.1379e-21)
(0.0705329 -0.00681503 4.9889e-21)
(0.0857752 -0.00743368 -1.01716e-20)
(0.101884 -0.00801005 -1.11362e-20)
(0.118737 -0.00853565 2.22615e-21)
(0.136217 -0.00899522 -4.58205e-21)
(0.15412 -0.00935718 3.64512e-21)
(0.17234 -0.00959095 -5.38393e-21)
(0.190282 -0.00958986 2.28586e-21)
(0.208195 -0.00944692 3.76844e-21)
(-0.000866186 0.000856046 -2.05306e-20)
(-0.00270013 0.000858512 -7.41445e-21)
(-0.00382676 0.000118781 -1.33979e-20)
(-0.00284614 -0.00105939 2.67826e-21)
(0.000238697 -0.00240588 -1.69722e-20)
(0.00549946 -0.00381842 -9.76983e-21)
(0.0127514 -0.00521786 -1.71197e-20)
(0.0218139 -0.00657356 -8.70247e-21)
(0.0324868 -0.00786683 1.97214e-21)
(0.044585 -0.00909295 -1.01561e-20)
(0.0579434 -0.0102513 -1.13084e-20)
(0.0724161 -0.0113436 2.39037e-21)
(0.0878737 -0.0123699 1.11726e-20)
(0.104199 -0.0133256 1.26687e-20)
(0.121269 -0.0141967 3.65634e-21)
(0.138967 -0.0149579 9.66534e-21)
(0.157084 -0.0155567 -1.36168e-20)
(0.175527 -0.0159418 -9.41039e-21)
(0.193653 -0.0159372 1.21574e-20)
(0.211858 -0.0156899 2.43867e-21)
(-0.000893393 0.00118541 1.33402e-20)
(-0.00264759 0.00117671 1.14672e-20)
(-0.00359815 0.000137296 1.47245e-20)
(-0.0023962 -0.0015116 2.30158e-20)
(0.000945015 -0.00339303 2.12884e-20)
(0.00648082 -0.0053652 1.29353e-21)
(0.0140223 -0.00731771 3.13932e-22)
(0.0233835 -0.00920814 2.0334e-20)
(0.0343623 -0.0110105 -8.66194e-21)
(0.046772 -0.0127182 1.15312e-20)
(0.0604462 -0.0143306 7.12023e-21)
(0.0752382 -0.0158502 -2.17307e-20)
(0.0910175 -0.0172768 -5.06237e-21)
(0.107667 -0.0186045 -2.39442e-20)
(0.125061 -0.0198137 -1.74809e-20)
(0.143084 -0.0208693 8.66473e-21)
(0.161522 -0.0216984 5.87036e-21)
(0.180297 -0.022228 6.28173e-21)
(0.198696 -0.0222158 -1.80194e-20)
(0.217336 -0.0218504 -9.67867e-21)
(-0.000928432 0.00150186 -4.10915e-21)
(-0.00257512 0.00146988 1.17383e-20)
(-0.00329052 0.000127005 2.23172e-20)
(-0.00179349 -0.00199206 -2.32068e-20)
(0.0018892 -0.00440479 -4.07309e-20)
(0.00779116 -0.00693119 -7.55733e-21)
(0.0157179 -0.0094301 -3.02679e-21)
(0.0254764 -0.0118477 1.62689e-20)
(0.0368621 -0.0141509 -5.35209e-21)
(0.0496857 -0.0163315 -3.2174e-20)
(0.0637795 -0.0183887 -2.96888e-20)
(0.0789954 -0.0203257 1.80961e-20)
(0.0952018 -0.0221427 1.14359e-20)
(0.112281 -0.023832 3.40565e-20)
(0.130104 -0.0253692 2.38311e-20)
(0.148559 -0.026709 -1.68045e-20)
(0.167421 -0.0277592 -8.96191e-21)
(0.186635 -0.0284238 2.37922e-20)
(0.205395 -0.0283985 7.49215e-21)
(0.22461 -0.0278961 -2.85149e-21)
(-0.000970255 0.00180187 -3.17649e-21)
(-0.00248062 0.00173115 -3.90112e-20)
(-0.00290147 8.00098e-05 -5.04814e-20)
(-0.00103565 -0.00250848 -6.63311e-21)
(0.00307333 -0.00544782 2.58114e-20)
(0.00943205 -0.00852153 9.10763e-21)
(0.0178391 -0.0115583 1.04275e-20)
(0.0280927 -0.0144934 -1.53796e-20)
(0.0399852 -0.0172869 2.71035e-20)
(0.0533242 -0.0199291 -1.0385e-20)
(0.0679401 -0.0224192 4.38709e-20)
(0.0836832 -0.0247612 -5.50658e-21)
(0.10042 -0.0269557 -1.14546e-20)
(0.118032 -0.0289936 -2.19333e-21)
(0.13639 -0.0308454 -1.32143e-20)
(0.15538 -0.0324568 -5.4461e-21)
(0.174767 -0.0337162 1.55969e-20)
(0.194524 -0.034504 -1.52895e-20)
(0.213729 -0.0344583 1.71381e-20)
(0.233654 -0.0337949 1.63213e-20)
(-0.00101757 0.00208199 2.02612e-20)
(-0.00236154 0.00195386 1.75022e-20)
(-0.00242804 -1.1333e-05 2.54744e-20)
(-0.00011971 -0.0030683 3.21867e-20)
(0.00449996 -0.00652852 4.27868e-20)
(0.0114055 -0.0101411 1.35721e-20)
(0.0203871 -0.0137052 -9.56961e-21)
(0.0312327 -0.0171461 5.87004e-21)
(0.0437307 -0.020417 -1.41334e-20)
(0.057685 -0.0235072 1.98897e-20)
(0.0729239 -0.0264156 -2.48386e-20)
(0.0892958 -0.0291476 9.92235e-21)
(0.106666 -0.031704 1.1349e-20)
(0.124912 -0.0340744 7.30399e-21)
(0.143904 -0.0362251 -1.74326e-20)
(0.163529 -0.0380924 1.7931e-20)
(0.18354 -0.0395469 -1.58558e-20)
(0.203941 -0.0404431 1.12389e-20)
(0.223672 -0.0403688 -7.915e-21)
(0.244436 -0.0395154 -2.03775e-20)
(-0.00106882 0.00233892 -2.81208e-20)
(-0.00221483 0.00213158 1.3778e-20)
(-0.00186668 -0.000154362 -1.87124e-21)
(0.000957811 -0.00367862 -1.97722e-20)
(0.00617215 -0.00765294 -5.3658e-20)
(0.0137137 -0.0117944 4.01469e-20)
(0.0233632 -0.0158735 1.36298e-20)
(0.0348964 -0.0198063 -2.32761e-21)
(0.0480973 -0.0235396 -3.78206e-21)
(0.0627653 -0.0270616 -1.774e-20)
(0.0787263 -0.0303715 3.99045e-20)
(0.095826 -0.0334757 5.79748e-21)
(0.113927 -0.0363755 2.26665e-21)
(0.132908 -0.0390598 -5.14839e-21)
(0.152632 -0.0414907 2.29063e-20)
(0.172989 -0.0435956 -1.37224e-23)
(0.193717 -0.0452287 2.96814e-21)
(0.214858 -0.0462165 -4.26771e-21)
(0.235192 -0.046104 -2.46199e-20)
(0.256917 -0.0450267 1.48188e-20)
(-0.00112226 0.00256947 2.74276e-20)
(-0.00203698 0.00225818 5.50869e-20)
(-0.00121332 -0.000356059 -6.51493e-20)
(0.00220095 -0.00434615 -5.15992e-20)
(0.0080934 -0.00882671 6.35061e-20)
(0.0163594 -0.0134855 -4.73302e-20)
(0.0267689 -0.0180655 9.81049e-21)
(0.0390839 -0.0224743 -8.3657e-21)
(0.0530833 -0.0266526 -4.47815e-20)
(0.0685616 -0.030588 4.5679e-20)
(0.0853414 -0.03428 -5.67849e-20)
(0.103266 -0.037736 2.96847e-20)
(0.122195 -0.0409584 -2.21645e-21)
(0.142005 -0.043935 4.09608e-20)
(0.162555 -0.0466249 -4.21007e-21)
(0.183738 -0.0489466 -2.35105e-20)
(0.205272 -0.0507393 -4.69586e-21)
(0.227245 -0.0517994 -1.05202e-20)
(0.248253 -0.0516383 -2.17914e-21)
(0.271053 -0.050299 -1.07732e-20)
(-0.00117589 0.00277065 2.80578e-20)
(-0.00182403 0.00232784 -8.46799e-20)
(-0.000463363 -0.000622992 9.57405e-21)
(0.00361427 -0.00507716 9.80894e-20)
(0.0102677 -0.010055 -2.3645e-20)
(0.0193457 -0.0152182 -4.97622e-21)
(0.030606 -0.0202831 1.14193e-20)
(0.0437954 -0.0251498 -8.91435e-21)
(0.0586872 -0.0297537 4.21556e-20)
(0.0750699 -0.0340817 5.18789e-20)
(0.0927628 -0.0381339 9.40874e-20)
(0.111606 -0.0419191 6.40766e-21)
(0.131456 -0.0454404 -5.69811e-20)
(0.152187 -0.0486855 -1.70711e-20)
(0.173653 -0.0516103 -1.93723e-21)
(0.195749 -0.0541257 6.72121e-21)
(0.218174 -0.0560569 2.54856e-20)
(0.241064 -0.057168 -1.59923e-20)
(0.262812 -0.056947 3.78324e-20)
(0.28679 -0.0553036 2.76718e-20)
(-0.00122751 0.00293962 -7.84746e-20)
(-0.0015716 0.00233513 4.68529e-20)
(0.000388286 -0.000961275 2.19999e-20)
(0.00520281 -0.0058774 -4.27052e-20)
(0.0126993 -0.0113426 -7.19033e-22)
(0.0226757 -0.0169955 -3.94268e-21)
(0.0348762 -0.0225275 -5.81186e-20)
(0.049031 -0.0278323 -7.50883e-21)
(0.0649067 -0.0328401 -7.16226e-20)
(0.0822857 -0.0375377 -2.99632e-20)
(0.100983 -0.0419259 -2.56246e-20)
(0.120836 -0.0460151 -4.8021e-20)
(0.141696 -0.0498094 -1.69919e-20)
(0.163435 -0.0532964 -2.20244e-20)
(0.185903 -0.0564299 -3.81767e-21)
(0.208996 -0.0591131 3.01389e-20)
(0.23239 -0.0611598 9.51901e-21)
(0.256275 -0.0622986 2.08772e-20)
(0.278823 -0.0620057 -3.12992e-20)
(0.304074 -0.0600127 -1.65247e-20)
(-0.00127471 0.00307376 6.40202e-20)
(-0.0012749 0.002275 -5.00898e-20)
(0.00134719 -0.00137652 -2.72034e-20)
(0.00697207 -0.00675209 -1.43978e-21)
(0.0153932 -0.0126934 -8.19766e-20)
(0.0263531 -0.0188202 -4.60425e-20)
(0.0395817 -0.0247997 4.87857e-20)
(0.0547906 -0.0305207 -1.70998e-20)
(0.0717397 -0.0359086 7.69219e-20)
(0.0902039 -0.0409506 -4.22222e-20)
(0.109994 -0.0456484 -7.86674e-20)
(0.130943 -0.050014 2.42081e-20)
(0.152899 -0.0540529 1.64344e-20)
(0.17573 -0.057753 -3.28349e-20)
(0.19928 -0.0610666 -2.41261e-20)
(0.223446 -0.0638898 -2.92916e-20)
(0.247881 -0.066027 -5.8177e-20)
(0.272833 -0.0671682 1.4764e-20)
(0.296233 -0.0667913 -4.96317e-20)
(0.322838 -0.0644002 3.98718e-20)
(-0.00131493 0.00317064 4.07862e-20)
(-0.000928775 0.00214284 9.01944e-20)
(0.00241936 -0.00187379 9.28805e-21)
(0.00892799 -0.00770583 -1.62985e-21)
(0.0183543 -0.0141111 1.05652e-19)
(0.0303816 -0.0206942 7.37764e-20)
(0.0447243 -0.0270999 4.67317e-20)
(0.0610742 -0.0332131 9.76791e-20)
(0.0791834 -0.0389554 -1.89131e-20)
(0.098819 -0.0443146 6.82206e-20)
(0.119787 -0.0492934 9.6e-20)
(0.141915 -0.0539057 -7.04334e-20)
(0.165048 -0.0581586 -1.67734e-20)
(0.189048 -0.0620408 -2.09023e-21)
(0.213754 -0.0655036 5.29126e-20)
(0.239065 -0.0684367 3.03605e-20)
(0.264607 -0.0706376 1.06594e-19)
(0.290689 -0.0717546 -5.62497e-20)
(0.314987 -0.0712813 3.72893e-20)
(0.343015 -0.0684413 -6.379e-20)
(-0.00134538 0.00322802 -8.63395e-20)
(-0.000527731 0.00193455 -7.53263e-20)
(0.00361121 -0.00245757 -6.24529e-22)
(0.0110769 -0.00874257 3.34969e-20)
(0.0215882 -0.0155983 -1.09012e-19)
(0.0347655 -0.0226188 -3.83853e-20)
(0.0503064 -0.0294276 2.14547e-21)
(0.0678816 -0.0359074 -4.54593e-20)
(0.0872348 -0.0419763 7.18315e-20)
(0.108125 -0.0476234 -5.12788e-20)
(0.130352 -0.0528525 -8.33428e-20)
(0.153738 -0.0576796 4.64483e-20)
(0.178123 -0.062114 -5.46198e-21)
(0.203365 -0.0661449 5.04293e-20)
(0.229296 -0.069724 -6.84917e-20)
(0.255815 -0.0727351 3.45714e-20)
(0.282521 -0.0749715 -6.51152e-20)
(0.309789 -0.0760362 1.74457e-20)
(0.335021 -0.0754541 -2.89264e-20)
(0.364529 -0.072113 2.03139e-20)
(-0.0013631 0.00324376 4.51567e-21)
(-6.59791e-05 0.00164667 -2.76041e-20)
(0.0049295 -0.00313171 6.50742e-20)
(0.0134255 -0.00986559 -3.18574e-20)
(0.0251006 -0.0171574 8.86921e-20)
(0.0395088 -0.0245947 2.9047e-20)
(0.05633 -0.0317818 -7.63664e-20)
(0.0752124 -0.0386007 1.22335e-21)
(0.0958906 -0.0449666 -1.77075e-20)
(0.118114 -0.0508702 -9.38255e-20)
(0.141677 -0.0563169 7.91518e-20)
(0.166396 -0.0613252 -9.12201e-21)
(0.192104 -0.0659062 -4.13932e-21)
(0.218655 -0.0700508 -3.83958e-20)
(0.245872 -0.0737115 7.69747e-20)
(0.273656 -0.076767 -6.21372e-20)
(0.301576 -0.0790092 -4.06958e-20)
(0.330075 -0.0799922 1.187e-20)
(0.356271 -0.0792894 3.67161e-20)
(0.387298 -0.0753943 5.51801e-20)
(-0.001365 0.00321631 1.81124e-20)
(0.000462682 0.00127594 -1.83627e-20)
(0.00638132 -0.00389941 2.59698e-20)
(0.0159808 -0.0110774 -1.02231e-19)
(0.0288975 -0.0187895 7.25964e-20)
(0.044616 -0.0266218 -2.6674e-20)
(0.0627974 -0.0341608 3.58422e-20)
(0.0830661 -0.0412895 3.42151e-20)
(0.105147 -0.0479208 -3.52789e-20)
(0.12878 -0.0540478 8.13302e-20)
(0.153751 -0.0596777 -5.4839e-20)
(0.179872 -0.0648314 -2.4453e-20)
(0.206968 -0.0695227 -3.59859e-20)
(0.234888 -0.073744 2.76329e-20)
(0.263446 -0.0774499 -5.98281e-21)
(0.292544 -0.0805144 6.14542e-20)
(0.321719 -0.0827316 3.34614e-20)
(0.351486 -0.0836029 6.50672e-21)
(0.378665 -0.0827679 -2.06106e-20)
(0.411238 -0.0782659 -8.5082e-21)
(-0.00134802 0.00314444 2.68757e-20)
(0.00106466 0.000819555 1.12209e-19)
(0.00797412 -0.00476318 -8.41206e-20)
(0.0187501 -0.0123798 1.07131e-19)
(0.0329852 -0.0204953 -1.73742e-19)
(0.0500915 -0.0286991 -3.01878e-20)
(0.0697106 -0.0365619 -3.83044e-22)
(0.091442 -0.0439693 -7.79911e-20)
(0.115 -0.0508329 9.89118e-21)
(0.140113 -0.0571484 1.61465e-20)
(0.166562 -0.0629252 1.08336e-20)
(0.194148 -0.0681871 -4.47176e-20)
(0.222692 -0.0729505 3.03089e-20)
(0.252034 -0.0772101 -2.8814e-20)
(0.281981 -0.0809234 -1.39691e-19)
(0.312433 -0.0839603 7.8464e-21)
(0.342894 -0.0861206 -5.02408e-21)
(0.373954 -0.0868495 -4.24075e-20)
(0.402128 -0.0858716 2.67402e-20)
(0.436256 -0.0807109 -2.66901e-20)
(-0.00130886 0.00302685 -1.92572e-20)
(0.0017465 0.000275598 -7.89245e-21)
(0.00971558 -0.0057248 8.32722e-21)
(0.0217409 -0.0137738 4.78086e-20)
(0.03737 -0.0222745 8.67753e-20)
(0.05594 -0.0308249 9.9063e-20)
(0.0770718 -0.0389819 -7.94972e-20)
(0.100339 -0.0466354 3.90975e-20)
(0.125445 -0.0536962 -4.91736e-20)
(0.152106 -0.0601637 -5.09943e-20)
(0.180094 -0.0660495 -1.09174e-20)
(0.209205 -0.0713807 6.61822e-20)
(0.239249 -0.0761767 -4.86426e-21)
(0.27006 -0.0804349 -2.12916e-20)
(0.301435 -0.0841163 3.86134e-20)
(0.333273 -0.087088 -8.19605e-20)
(0.365044 -0.0891589 7.67397e-21)
(0.397412 -0.0897142 3.63955e-20)
(0.426582 -0.0885838 -9.75519e-22)
(0.462259 -0.0827147 -2.81801e-20)
(-0.00124414 0.00286255 -4.01154e-20)
(0.00251497 -0.000357312 -5.38168e-20)
(0.0116136 -0.00678531 -8.92134e-21)
(0.024961 -0.0152595 -3.68717e-20)
(0.0420585 -0.0241259 -5.47682e-20)
(0.0621659 -0.0329967 -1.04894e-19)
(0.0848829 -0.0414166 9.23854e-20)
(0.109756 -0.0492818 -6.80475e-20)
(0.136476 -0.0565034 7.82594e-20)
(0.164748 -0.0630848 6.26503e-20)
(0.194334 -0.0690404 3.05096e-21)
(0.225021 -0.0744006 1.05645e-19)
(0.256612 -0.0791885 1.46e-20)
(0.288932 -0.0834042 1.23787e-19)
(0.321765 -0.0870136 9.15826e-20)
(0.355012 -0.0898816 9.87658e-20)
(0.388105 -0.09183 -8.60256e-21)
(0.421785 -0.0921807 5.2934e-21)
(0.451944 -0.0908893 -2.99006e-20)
(0.489145 -0.0842648 2.74373e-20)
(-0.0011504 0.0026509 2.69555e-20)
(0.00337701 -0.00108002 -3.41149e-21)
(0.0136762 -0.007945 -2.66549e-20)
(0.0284182 -0.0168361 -6.54825e-20)
(0.0470572 -0.0260476 7.8028e-20)
(0.0687737 -0.035211 4.03153e-20)
(0.0931455 -0.043861 -1.24166e-19)
(0.119691 -0.0519022 4.0404e-20)
(0.148088 -0.0592465 -2.69734e-20)
(0.178028 -0.0659022 3.84359e-20)
(0.209266 -0.071887 1.03253e-19)
(0.241576 -0.077235 -1.07846e-19)
(0.274752 -0.0819728 5.27403e-20)
(0.308612 -0.0861042 -1.09017e-19)
(0.342927 -0.0896009 -3.76703e-20)
(0.377594 -0.0923259 -1.50547e-19)
(0.412014 -0.0941184 -1.29301e-20)
(0.446997 -0.0942338 4.84711e-20)
(0.478128 -0.0927743 7.47627e-21)
(0.516813 -0.0853516 -8.4208e-21)
(-0.00102413 0.00239156 2.66912e-20)
(0.00433967 -0.00189276 1.24572e-19)
(0.0159116 -0.00920335 1.2551e-19)
(0.0321205 -0.0185021 6.27486e-21)
(0.0523726 -0.0280367 3.9653e-20)
(0.0757679 -0.0374634 -8.02983e-20)
(0.101861 -0.0463094 1.42948e-19)
(0.130142 -0.0544892 9.50708e-21)
(0.160274 -0.0619167 -8.88952e-20)
(0.191936 -0.068606 -5.03567e-20)
(0.224871 -0.0745782 -2.01317e-19)
(0.258844 -0.0798716 1.4825e-20)
(0.293639 -0.0845168 -1.62926e-20)
(0.329061 -0.0885215 -7.31447e-20)
(0.364871 -0.091864 -3.24596e-20)
(0.400964 -0.0944067 1.97791e-20)
(0.436701 -0.09601 4.80548e-20)
(0.472968 -0.0958598 -4.28434e-20)
(0.505044 -0.0942267 -3.26131e-20)
(0.545157 -0.0859679 -6.30833e-20)
(-0.00086179 0.00208445 -6.16423e-20)
(0.00541008 -0.00279518 7.631e-21)
(0.018328 -0.0105591 -6.5248e-20)
(0.0360758 -0.0202551 -4.36373e-20)
(0.0580114 -0.0300893 -1.79711e-19)
(0.0831526 -0.0397487 5.26626e-21)
(0.111031 -0.0487549 -3.27752e-20)
(0.141106 -0.0570346 9.11142e-21)
(0.173028 -0.0645048 6.32172e-20)
(0.206459 -0.0711857 -4.97247e-21)
(0.241133 -0.0771026 2.82069e-20)
(0.276802 -0.0822981 3.63728e-20)
(0.313239 -0.0868076 -4.23454e-21)
(0.350239 -0.0906428 1.2814e-20)
(0.387549 -0.0937897 -5.8205e-20)
(0.425059 -0.0961107 1.65583e-20)
(0.462098 -0.0974917 -2.68189e-20)
(0.499617 -0.0970465 -5.19954e-20)
(0.532601 -0.095236 1.70566e-20)
(0.574068 -0.0861088 6.02193e-20)
(-0.000659811 0.00172979 -4.37743e-20)
(0.00659544 -0.00378626 -1.90023e-19)
(0.0209337 -0.0120101 -1.09444e-19)
(0.0402921 -0.0220915 1.42005e-19)
(0.0639799 -0.0322006 5.92923e-20)
(0.090932 -0.0420607 2.89174e-20)
(0.120656 -0.0511899 -5.39454e-20)
(0.15258 -0.0595296 -7.2445e-20)
(0.18634 -0.0670005 -9.188e-20)
(0.221584 -0.0736301 1.21363e-19)
(0.258031 -0.0794482 5.57804e-20)
(0.295422 -0.0845023 4.05427e-20)
(0.333518 -0.0888326 -1.20722e-19)
(0.372103 -0.0924555 -4.21492e-20)
(0.410908 -0.0953654 1.1304e-19)
(0.44982 -0.0974258 2.37399e-20)
(0.48813 -0.0985518 4.33764e-22)
(0.526858 -0.0977836 6.10627e-20)
(0.560706 -0.0957937 5.76124e-20)
(0.603436 -0.0857724 1.10677e-21)
(-0.000414615 0.00132807 1.09219e-20)
(0.00790291 -0.0048644 9.61515e-20)
(0.0237369 -0.0135535 2.58361e-19)
(0.0447772 -0.0240072 -5.23785e-20)
(0.0702844 -0.0343649 1.64715e-19)
(0.0991096 -0.0443922 -2.04675e-20)
(0.130736 -0.0536061 -7.13278e-21)
(0.164561 -0.0619645 1.43763e-19)
(0.200204 -0.0693932 1.08113e-19)
(0.237296 -0.0759276 -8.61536e-20)
(0.275544 -0.0816028 -1.076e-19)
(0.314677 -0.0864716 -2.81046e-20)
(0.35444 -0.0905793 2.44755e-20)
(0.394607 -0.0939473 -2.42777e-20)
(0.434894 -0.0965795 -9.46881e-20)
(0.47518 -0.0983408 7.78834e-21)
(0.514725 -0.0991801 4.18226e-20)
(0.554605 -0.0980623 -1.73169e-20)
(0.589263 -0.0958928 1.60878e-20)
(0.63315 -0.0849593 5.55542e-20)
(-0.000122633 0.000880065 -1.45712e-20)
(0.00933965 -0.00602736 -1.64855e-19)
(0.026746 -0.0151856 -2.562e-20)
(0.0495389 -0.025997 -5.55213e-20)
(0.0769308 -0.0365755 -2.30734e-19)
(0.107689 -0.0467352 -4.93606e-20)
(0.141272 -0.055994 1.75821e-20)
(0.177044 -0.0643288 -9.76455e-20)
(0.214609 -0.0716713 1.35351e-19)
(0.25358 -0.0780662 5.30056e-20)
(0.293651 -0.0835541 1.10341e-19)
(0.334536 -0.0881935 -2.7912e-20)
(0.375968 -0.0920354 1.61664e-19)
(0.417706 -0.0951067 7.92644e-21)
(0.459451 -0.0974213 1.08556e-19)
(0.501073 -0.0988463 3.60807e-20)
(0.541804 -0.099368 -2.57393e-20)
(0.58277 -0.0978757 5.79202e-21)
(0.618175 -0.0955285 -4.1521e-20)
(0.663098 -0.0836723 -5.74604e-20)
(0.000219675 0.000386837 7.08897e-20)
(0.0109127 -0.00727228 1.91892e-19)
(0.0299688 -0.0169018 -2.24623e-19)
(0.0545847 -0.0280546 3.95658e-20)
(0.083925 -0.0388249 1.92819e-19)
(0.116673 -0.0490806 1.94328e-19)
(0.152262 -0.0583435 1.00362e-19)
(0.190023 -0.0666112 -1.90647e-20)
(0.229544 -0.073823 -1.70847e-19)
(0.270419 -0.0800334 -6.61294e-20)
(0.312328 -0.0852893 6.80457e-20)
(0.354969 -0.0896556 -9.51566e-20)
(0.398062 -0.0931892 -1.63493e-19)
(0.44135 -0.0959229 -1.34431e-20)
(0.48452 -0.097881 -4.43897e-20)
(0.527432 -0.0989341 7.58701e-21)
(0.569289 -0.0991087 5.04595e-20)
(0.611262 -0.0972193 -8.19467e-20)
(0.647345 -0.0946979 -7.44484e-20)
(0.69317 -0.0819169 -2.70422e-20)
(0.000615812 -0.000150287 1.65321e-19)
(0.0126292 -0.00859569 -5.22058e-20)
(0.0334133 -0.0186969 4.15546e-21)
(0.0599219 -0.0301732 7.58056e-20)
(0.0912722 -0.0411044 4.73324e-20)
(0.126064 -0.0514186 -2.8317e-20)
(0.163705 -0.0606434 -5.85179e-20)
(0.203493 -0.0687998 1.85369e-19)
(0.244998 -0.0758355 4.96593e-21)
(0.287796 -0.0818161 -1.03795e-19)
(0.33155 -0.0867955 -9.66049e-20)
(0.375944 -0.0908454 7.0938e-20)
(0.420681 -0.0940292 -1.80001e-20)
(0.46549 -0.0963857 1.41032e-19)
(0.510043 -0.0979504 -1.67321e-20)
(0.554187 -0.0985976 -8.78376e-20)
(0.597103 -0.0983971 -4.9277e-20)
(0.639992 -0.0960902 2.07951e-20)
(0.676678 -0.0934 1.50171e-20)
(0.723255 -0.0797006 -1.41919e-20)
(0.00106922 -0.000729708 -1.47378e-19)
(0.0144957 -0.00999353 2.63268e-20)
(0.0370871 -0.0205646 5.09305e-20)
(0.0655573 -0.0323447 -9.1283e-20)
(0.0989773 -0.0434047 -9.92658e-20)
(0.135864 -0.0537384 -1.05266e-19)
(0.175599 -0.0628819 -1.46133e-21)
(0.217447 -0.0708819 -4.37204e-20)
(0.260959 -0.0776958 -4.90219e-20)
(0.305691 -0.0834012 9.61737e-20)
(0.351291 -0.0880598 1.24724e-19)
(0.397425 -0.0917509 1.22025e-19)
(0.443782 -0.0945445 1.93298e-19)
(0.490074 -0.0964861 -1.47104e-19)
(0.535957 -0.0976223 7.55578e-20)
(0.581266 -0.0978321 6.16024e-20)
(0.625165 -0.0972303 2.73668e-20)
(0.668869 -0.094488 1.72244e-19)
(0.706076 -0.0916356 -2.45777e-20)
(0.753244 -0.077033 8.56231e-20)
(0.00158328 -0.00134956 5.85725e-20)
(0.0165191 -0.0114611 7.92118e-21)
(0.0409976 -0.0224981 4.16672e-20)
(0.0714976 -0.0345604 4.66922e-20)
(0.107045 -0.0457154 1.64735e-20)
(0.146074 -0.0560284 4.37409e-20)
(0.187941 -0.0650464 -1.27229e-19)
(0.231877 -0.0728441 6.42786e-20)
(0.277412 -0.0793901 2.89254e-20)
(0.324084 -0.0847751 -1.0197e-19)
(0.371522 -0.0890693 -6.76203e-21)
(0.419377 -0.0923602 -6.44042e-20)
(0.46732 -0.094725 -1.00329e-19)
(0.515047 -0.096216 6.17552e-20)
(0.562201 -0.0968911 4.08286e-20)
(0.608599 -0.0966347 3.25141e-20)
(0.653394 -0.0956074 1.04552e-20)
(0.697803 -0.0924148 -1.21363e-19)
(0.735448 -0.0894076 1.13107e-19)
(0.783033 -0.0739254 -5.36682e-20)
(0.00216129 -0.00200774 1.30467e-20)
(0.0187057 -0.0129932 -1.28813e-19)
(0.0451518 -0.0244898 -2.82198e-20)
(0.0777488 -0.0368107 -2.60085e-20)
(0.115478 -0.0480252 -1.21537e-19)
(0.156694 -0.058276 -6.67685e-21)
(0.200727 -0.0671234 1.73001e-19)
(0.246773 -0.0746725 2.11184e-20)
(0.294343 -0.0809043 -1.43987e-20)
(0.342953 -0.085924 1.28341e-19)
(0.392215 -0.0898111 -8.11072e-20)
(0.441762 -0.0926617 -1.07888e-19)
(0.491249 -0.0945609 9.42185e-21)
(0.540356 -0.0955683 -2.46643e-20)
(0.58871 -0.0957527 -1.75478e-19)
(0.636113 -0.0950046 -4.99743e-20)
(0.681711 -0.0935297 2.65353e-20)
(0.726705 -0.0898749 9.43745e-21)
(0.764701 -0.0867202 -7.54066e-20)
(0.812517 -0.0703905 4.30288e-20)
(0.00280642 -0.00270187 6.01225e-20)
(0.0210616 -0.0145839 2.19468e-19)
(0.0495563 -0.0265312 8.48591e-20)
(0.0843164 -0.0390852 2.46629e-20)
(0.124281 -0.0503221 -3.41584e-20)
(0.167725 -0.060468 1.09731e-19)
(0.213953 -0.0690989 -1.27389e-19)
(0.262126 -0.0763527 -7.31393e-20)
(0.311735 -0.0822241 8.86564e-21)
(0.362275 -0.086834 -4.41105e-21)
(0.413339 -0.0902722 1.65458e-20)
(0.464542 -0.0926444 -1.99933e-20)
(0.515522 -0.0940438 -5.08006e-20)
(0.565943 -0.0945374 9.55373e-20)
(0.61542 -0.0942049 1.80571e-19)
(0.663735 -0.0929433 6.86139e-20)
(0.710038 -0.0910012 -1.3473e-19)
(0.755488 -0.0868756 2.21631e-21)
(0.79375 -0.0835794 1.40978e-19)
(0.841597 -0.0664422 2.80832e-20)
(0.00352176 -0.00342935 -2.11819e-19)
(0.0235928 -0.016227 -1.37845e-19)
(0.0542173 -0.0286133 -8.54425e-21)
(0.0912055 -0.0413725 -3.28513e-20)
(0.133455 -0.0525933 1.12994e-20)
(0.179165 -0.0625904 -1.48332e-19)
(0.227612 -0.0709581 -1.96115e-19)
(0.277924 -0.0778696 -1.38451e-19)
(0.329572 -0.0833348 1.49248e-19)
(0.382026 -0.0874913 -1.43688e-19)
(0.434862 -0.0904404 5.17645e-20)
(0.487676 -0.0922979 1.24588e-19)
(0.54009 -0.0931657 4.96396e-20)
(0.591752 -0.093119 -2.86137e-20)
(0.642266 -0.0922471 -1.4107e-19)
(0.691392 -0.0904545 1.03986e-19)
(0.738294 -0.0880282 2.38428e-19)
(0.784067 -0.0834269 -8.91308e-20)
(0.822513 -0.0799915 -1.49316e-19)
(0.870174 -0.0620949 -4.06979e-20)
(0.00431026 -0.00418735 2.31229e-19)
(0.0263048 -0.0179155 3.88583e-20)
(0.0591406 -0.0307262 -4.49162e-20)
(0.0984203 -0.0436607 5.79082e-20)
(0.143003 -0.0548252 1.22432e-19)
(0.191011 -0.0646285 -6.62228e-21)
(0.241697 -0.0726859 4.21277e-19)
(0.294155 -0.079208 1.1022e-19)
(0.347832 -0.0842214 -1.84813e-19)
(0.402178 -0.087882 1.00888e-19)
(0.456748 -0.0903033 -1.76115e-20)
(0.511121 -0.0916122 -4.02908e-20)
(0.564902 -0.09192 7.29468e-20)
(0.617724 -0.09131 -4.23378e-20)
(0.66918 -0.0898807 1.94437e-20)
(0.719011 -0.0875446 2.1556e-20)
(0.766405 -0.0846201 -1.52573e-19)
(0.812361 -0.0795425 1.19392e-19)
(0.850915 -0.0759634 5.41881e-20)
(0.898155 -0.0573636 7.08243e-21)
(0.00517474 -0.00497281 -1.58773e-19)
(0.0292028 -0.019642 -6.83386e-22)
(0.0643313 -0.0328596 3.93997e-21)
(0.105964 -0.045937 -4.79693e-20)
(0.152924 -0.0570035 -8.18665e-20)
(0.203261 -0.0665671 1.18968e-19)
(0.256202 -0.0742664 -3.03056e-19)
(0.310805 -0.0803521 -6.41839e-20)
(0.366497 -0.0848689 2.04962e-19)
(0.422705 -0.0879924 1.89442e-19)
(0.478964 -0.0898492 -2.08553e-19)
(0.534835 -0.0905784 5.08877e-20)
(0.589907 -0.090301 -5.59559e-20)
(0.643799 -0.089109 6.47356e-20)
(0.696097 -0.0871092 1.08869e-21)
(0.746521 -0.0842226 5.99477e-21)
(0.794294 -0.0807894 -5.11619e-20)
(0.840292 -0.0752397 -2.38966e-20)
(0.878891 -0.0715009 4.85619e-21)
(0.925448 -0.0522632 -3.48614e-20)
(0.00611785 -0.00578248 1.49068e-19)
(0.0322916 -0.0213987 -4.99892e-21)
(0.0697938 -0.0350023 7.24884e-20)
(0.113841 -0.0481881 2.31428e-20)
(0.163219 -0.0591133 -8.232e-20)
(0.215911 -0.0683902 3.38931e-20)
(0.271115 -0.0756835 -7.84767e-20)
(0.327859 -0.081286 2.43138e-20)
(0.385545 -0.0852624 -1.82555e-19)
(0.443577 -0.0878091 -2.42814e-19)
(0.501472 -0.089067 8.47224e-20)
(0.558772 -0.0891883 -7.81344e-21)
(0.615052 -0.0883042 1.64339e-20)
(0.669917 -0.0865163 -3.52823e-20)
(0.72295 -0.083938 8.10658e-20)
(0.773851 -0.0804999 -2.07049e-19)
(0.82189 -0.0765518 1.48787e-19)
(0.867788 -0.0705406 -1.26902e-20)
(0.906386 -0.0666086 8.85075e-20)
(0.951963 -0.0468118 2.94856e-20)
(0.00714208 -0.00661287 -2.23078e-19)
(0.0355753 -0.0231772 -1.01319e-19)
(0.0755322 -0.0371427 -1.50156e-19)
(0.122051 -0.0504001 9.48128e-20)
(0.173887 -0.0611391 -2.35372e-20)
(0.228954 -0.0700815 2.14558e-20)
(0.286427 -0.0769207 1.63933e-19)
(0.345299 -0.0819938 3.64265e-20)
(0.404951 -0.085387 1.2515e-20)
(0.464764 -0.087319 3.56376e-20)
(0.524234 -0.0879461 1.041e-19)
(0.582887 -0.0874345 3.0635e-20)
(0.640284 -0.0859265 2.68997e-20)
(0.696018 -0.0835334 -2.60186e-20)
(0.749672 -0.0803745 -1.07795e-19)
(0.80093 -0.0763912 1.4097e-19)
(0.84912 -0.0719271 7.93001e-20)
(0.894782 -0.0654731 6.25864e-20)
(0.933355 -0.0612903 -1.064e-19)
(0.977619 -0.0410358 -3.84354e-20)
(0.00824972 -0.00746034 1.46055e-19)
(0.039058 -0.0249688 1.77249e-19)
(0.0815497 -0.0392686 5.60437e-21)
(0.130597 -0.0525582 1.35957e-20)
(0.184925 -0.0630648 2.27789e-19)
(0.242385 -0.0716244 -1.68797e-19)
(0.302126 -0.0779612 1.87353e-19)
(0.363109 -0.0824594 1.19317e-19)
(0.424692 -0.085228 1.94835e-19)
(0.486233 -0.0865095 -5.0286e-20)
(0.547211 -0.0864768 -4.05885e-20)
(0.607132 -0.0853109 -3.67152e-21)
(0.665547 -0.083166 3.26843e-20)
(0.72204 -0.0801637 -9.75582e-20)
(0.776197 -0.0764285 1.15542e-19)
(0.827689 -0.0719134 -7.64779e-20)
(0.875917 -0.0669394 2.7082e-20)
(0.921213 -0.0600727 -4.95209e-20)
(0.959767 -0.0555462 -1.04365e-19)
(1.00233 -0.0349499 3.79574e-20)
(0.00944301 -0.0083212 -7.34751e-20)
(0.0427432 -0.0267644 -1.0109e-19)
(0.0878487 -0.0413676 2.01122e-19)
(0.139479 -0.0546477 -1.06176e-19)
(0.19633 -0.0648742 -1.05556e-19)
(0.256194 -0.0730019 3.25199e-20)
(0.318197 -0.0787883 -1.05496e-19)
(0.381267 -0.0826669 -2.34461e-19)
(0.444741 -0.0847711 -1.51776e-19)
(0.507952 -0.0853687 1.46934e-21)
(0.570361 -0.0846501 -3.41554e-20)
(0.631459 -0.0828124 -1.39355e-19)
(0.690788 -0.080022 -1.45592e-19)
(0.747923 -0.0764121 1.75466e-19)
(0.802459 -0.0721112 -1.22609e-19)
(0.85406 -0.0670862 3.60638e-20)
(0.902214 -0.0616179 2.86329e-20)
(0.947031 -0.0543843 -1.08467e-19)
(0.985596 -0.0493561 4.83333e-20)
(1.02595 -0.028493 4.24773e-20)
(0.0107242 -0.00919184 -8.65192e-20)
(0.0466339 -0.028555 -7.44428e-20)
(0.0944315 -0.0434269 -1.42832e-19)
(0.148696 -0.0566535 3.39707e-20)
(0.208098 -0.0665507 2.36021e-20)
(0.270375 -0.0741969 3.14977e-21)
(0.334628 -0.0793853 1.57635e-19)
(0.399755 -0.0826007 4.26449e-20)
(0.465069 -0.0840027 -6.76765e-20)
(0.529884 -0.0838855 8.54661e-20)
(0.593642 -0.0824583 -4.08943e-20)
(0.65582 -0.0799351 1.0311e-20)
(0.71595 -0.0764955 3.8634e-20)
(0.773606 -0.0722847 -9.08933e-20)
(0.828393 -0.0674358 7.40492e-20)
(0.879977 -0.0619314 -1.60463e-20)
(0.927943 -0.0559987 1.1656e-19)
(0.972199 -0.0484647 -2.3759e-20)
(1.01085 -0.042678 1.59625e-19)
(1.04832 -0.0216402 -2.96115e-20)
(0.0120941 -0.0100674 1.9167e-19)
(0.0507316 -0.03033 -5.08581e-20)
(0.101298 -0.0454323 1.62645e-19)
(0.158245 -0.0585588 1.35843e-19)
(0.220222 -0.0680767 3.2515e-20)
(0.284914 -0.0751916 1.28922e-20)
(0.3514 -0.0797349 -3.55821e-19)
(0.418547 -0.082245 -8.38522e-20)
(0.485649 -0.082909 -1.24763e-21)
(0.551995 -0.0820491 -1.72072e-19)
(0.617012 -0.0798943 1.06823e-19)
(0.680165 -0.0766762 5.64507e-20)
(0.74098 -0.0725885 8.90188e-20)
(0.799029 -0.0677893 2.8739e-21)
(0.853935 -0.0624166 -5.16696e-20)
(0.905373 -0.0564725 1.25972e-19)
(0.953039 -0.0501252 -2.87174e-19)
(0.996695 -0.042385 -7.26504e-20)
(1.03564 -0.0355687 -1.54762e-19)
(1.06983 -0.0151662 6.81723e-22)
(0.0135495 -0.0109388 -1.85866e-19)
(0.055033 -0.0320742 3.84673e-20)
(0.108444 -0.047365 -1.57275e-19)
(0.16812 -0.060343 -1.32188e-19)
(0.232692 -0.0694307 -2.2483e-20)
(0.299797 -0.0759649 -2.13156e-20)
(0.368493 -0.0798174 3.57316e-19)
(0.437619 -0.0815822 7.49406e-20)
(0.506446 -0.0814756 1.9177e-19)
(0.574245 -0.0798486 1.82802e-19)
(0.640426 -0.0769512 -1.24646e-19)
(0.704443 -0.0730337 -4.32086e-20)
(0.76582 -0.0683041 -1.09192e-19)
(0.824133 -0.0629344 1.78378e-20)
(0.879022 -0.0570687 4.71991e-20)
(0.93018 -0.0507333 -9.30694e-20)
(0.977422 -0.0440424 1.17418e-19)
(1.02044 -0.0362312 5.56069e-20)
(1.05998 -0.0284266 1.44612e-19)
(1.09287 -0.0110172 2.77476e-21)
(0.0150905 -0.011801 8.38323e-20)
(0.0595376 -0.0337765 -1.04137e-19)
(0.115866 -0.0492104 1.50871e-19)
(0.178314 -0.0619894 -5.51987e-20)
(0.245497 -0.0705953 -5.51233e-21)
(0.315009 -0.0764995 6.82382e-21)
(0.385887 -0.0796166 -1.78641e-19)
(0.456943 -0.0805981 1.79404e-19)
(0.527428 -0.0796907 -1.29072e-19)
(0.596594 -0.0772757 7.9525e-20)
(0.663837 -0.073625 3.82715e-20)
(0.728604 -0.0690078 -6.7051e-21)
(0.790417 -0.0636474 -3.73827e-20)
(0.848858 -0.0577303 -1.43712e-20)
(0.903593 -0.0514078 -8.19141e-20)
(0.954334 -0.0447349 3.29631e-20)
(1.00101 -0.037785 -1.15408e-19)
(1.04327 -0.0300841 -1.24853e-19)
(1.08294 -0.0219468 1.49504e-19)
(1.11472 -0.0099041 3.39918e-20)