/*--------------------------------*- C++ -*----------------------------------*\
  =========                 |
  \\      /  F ield         | OpenFOAM: The Open Source CFD Toolbox
   \\    /   O peration     | Website:  https://openfoam.org
    \\  /    A nd           | Version:  7
     \\/     M anipulation  |
\*---------------------------------------------------------------------------*/
FoamFile
{
    version     2.0;
    format      ascii;
    class       volScalarField;
    location    "5";
    object      p;
}
// * * * * * * * * * * * * * * * * * * * * * * * * * * * * * * * * * * * * * //

dimensions      [0 2 -2 0 0 0 0];

internalField   nonuniform List<scalar> 
2625
(
-0.0605835
-0.0606321
-0.0605886
-0.0604583
-0.0602455
-0.0605998
-0.0606486
-0.0606058
-0.0604768
-0.0602653
-0.0606349
-0.0606838
-0.0606418
-0.0605146
-0.0603031
-0.060688
-0.0607374
-0.0606965
-0.0605715
-0.0603585
-0.0607582
-0.0608086
-0.0607692
-0.0606469
-0.0604313
-0.0608446
-0.0608966
-0.0608591
-0.06074
-0.0605209
-0.0609467
-0.0610008
-0.0609656
-0.0608504
-0.0606267
-0.061064
-0.0611206
-0.061088
-0.0609775
-0.0607483
-0.0611957
-0.0612554
-0.0612258
-0.0611206
-0.0608852
-0.0613413
-0.0614046
-0.0613784
-0.0612794
-0.0610368
-0.0615004
-0.0615677
-0.0615452
-0.0614534
-0.0612029
-0.0616723
-0.0617443
-0.0617258
-0.061642
-0.061383
-0.0618565
-0.0619337
-0.0619197
-0.0618449
-0.0615768
-0.0620526
-0.0621356
-0.0621263
-0.0620617
-0.0617838
-0.06226
-0.0623494
-0.0623452
-0.0622918
-0.0620039
-0.0624784
-0.0625748
-0.0625761
-0.062535
-0.0622366
-0.0627072
-0.0628112
-0.0628183
-0.0627908
-0.0624818
-0.0629461
-0.0630583
-0.0630716
-0.0630588
-0.0627391
-0.0631946
-0.0633156
-0.0633355
-0.0633387
-0.0630085
-0.0634522
-0.0635827
-0.0636096
-0.06363
-0.0632896
-0.0637186
-0.0638593
-0.0638936
-0.0639323
-0.0635823
-0.0639933
-0.0641449
-0.0641871
-0.0642454
-0.0638864
-0.064276
-0.064439
-0.0644896
-0.0645687
-0.0642018
-0.0645663
-0.0647413
-0.064801
-0.0649018
-0.0645284
-0.0648638
-0.0650515
-0.0651208
-0.0652444
-0.064866
-0.065168
-0.065369
-0.0654488
-0.0655959
-0.0652147
-0.0654787
-0.0656935
-0.0657846
-0.065956
-0.0655743
-0.0657955
-0.0660247
-0.0661279
-0.0663241
-0.0659448
-0.066118
-0.0663621
-0.0664785
-0.0666999
-0.0663262
-0.0664458
-0.0667054
-0.066836
-0.0670828
-0.0667185
-0.0667786
-0.0670541
-0.0672002
-0.0674722
-0.0671217
-0.067116
-0.0674079
-0.0675707
-0.0678678
-0.067536
-0.0674575
-0.0677663
-0.0679471
-0.0682688
-0.0679612
-0.0678027
-0.068129
-0.0683292
-0.068675
-0.0683975
-0.0681513
-0.0684957
-0.0687165
-0.0690857
-0.068845
-0.0685028
-0.0688661
-0.0691086
-0.0695005
-0.0693037
-0.0688569
-0.0692398
-0.0695049
-0.069919
-0.0697736
-0.0688142
-0.0692131
-0.0696167
-0.0699049
-0.0703409
-0.0702547
-0.0691602
-0.069571
-0.0699964
-0.070308
-0.070766
-0.0707469
-0.0695077
-0.0699301
-0.0703787
-0.0707133
-0.0711941
-0.0712499
-0.0698563
-0.0702898
-0.0707633
-0.0711201
-0.0716254
-0.0717635
-0.0702057
-0.0706499
-0.0711499
-0.0715274
-0.07206
-0.072287
-0.0705554
-0.0710098
-0.071538
-0.0719343
-0.0724984
-0.0728194
-0.0709051
-0.0713693
-0.0719275
-0.0723397
-0.0729413
-0.0733594
-0.0712542
-0.0717281
-0.0723176
-0.0727426
-0.0733894
-0.0739052
-0.0716023
-0.0720858
-0.072708
-0.0731421
-0.0738439
-0.0744545
-0.0719491
-0.0724422
-0.0730978
-0.0735373
-0.0743057
-0.0750036
-0.0722941
-0.0727971
-0.0734864
-0.0739274
-0.0747758
-0.0755482
-0.0726368
-0.0731501
-0.0738725
-0.074312
-0.0752545
-0.076083
-0.0729768
-0.073501
-0.0742552
-0.0746908
-0.0757421
-0.0733139
-0.0738496
-0.0746331
-0.0750634
-0.0762381
-0.0736476
-0.0741955
-0.0750048
-0.0754304
-0.0739776
-0.0745382
-0.0753687
-0.0757922
-0.0743027
-0.0748764
-0.075722
-0.0746239
-0.0752103
-0.0760639
-0.0749466
-0.0755442
-0.0763994
-0.0752669
-0.075877
-0.0755368
-0.0761625
-0.075744
-0.0762264
-0.0599572
-0.0596181
-0.059211
-0.0587361
-0.0581936
-0.0575843
-0.0569087
-0.056168
-0.0553633
-0.0544961
-0.0535682
-0.0525815
-0.0515383
-0.0504412
-0.049293
-0.0480968
-0.0468558
-0.0455736
-0.0442541
-0.0429011
-0.0415188
-0.0401116
-0.0386839
-0.0372402
-0.0357852
-0.0343235
-0.0328598
-0.0313988
-0.0299451
-0.0285033
-0.0270776
-0.0256724
-0.0242917
-0.0229392
-0.0216186
-0.0203332
-0.0190857
-0.017879
-0.0167152
-0.0155963
-0.0145238
-0.0134989
-0.0125223
-0.0115945
-0.0107157
-0.00988546
-0.00910336
-0.00836856
-0.00767999
-0.0599821
-0.0596422
-0.059234
-0.0587584
-0.0582151
-0.0576049
-0.0569285
-0.0561868
-0.0553812
-0.0545131
-0.0535843
-0.0525966
-0.0515525
-0.0504545
-0.0493053
-0.0481081
-0.0468662
-0.0455831
-0.0442626
-0.0429087
-0.0415256
-0.0401176
-0.038689
-0.0372445
-0.0357888
-0.0343264
-0.032862
-0.0314004
-0.0299461
-0.0285037
-0.0270775
-0.0256719
-0.0242907
-0.0229379
-0.0216169
-0.0203312
-0.0190835
-0.0178765
-0.0167126
-0.0155935
-0.0145209
-0.0134959
-0.0125193
-0.0115915
-0.0107126
-0.0098824
-0.00910035
-0.00836562
-0.00767713
-0.0600326
-0.05969
-0.0592795
-0.0588024
-0.0582575
-0.0576456
-0.0569675
-0.0562241
-0.0554167
-0.0545468
-0.0536161
-0.0526266
-0.0515806
-0.0504807
-0.0493296
-0.0481305
-0.0468868
-0.0456019
-0.0442796
-0.0429239
-0.0415391
-0.0401294
-0.0386992
-0.0372532
-0.0357959
-0.0343321
-0.0328664
-0.0314036
-0.0299481
-0.0285046
-0.0270774
-0.0256708
-0.0242888
-0.0229352
-0.0216136
-0.0203272
-0.019079
-0.0178716
-0.0167073
-0.0155879
-0.0145151
-0.0134899
-0.0125132
-0.0115854
-0.0107065
-0.00987636
-0.00909441
-0.00835981
-0.00767149
-0.0601076
-0.0597605
-0.0593466
-0.0588674
-0.0583201
-0.0577056
-0.0570249
-0.056279
-0.0554689
-0.0545963
-0.0536629
-0.0526707
-0.0516219
-0.0505193
-0.0493654
-0.0481636
-0.0469171
-0.0456295
-0.0443046
-0.0429463
-0.0415589
-0.0401468
-0.0387142
-0.0372659
-0.0358065
-0.0343406
-0.0328729
-0.0314082
-0.029951
-0.0285059
-0.0270772
-0.0256692
-0.0242859
-0.0229312
-0.0216086
-0.0203213
-0.0190724
-0.0178644
-0.0166995
-0.0155797
-0.0145065
-0.0134811
-0.0125043
-0.0115764
-0.0106975
-0.00986747
-0.00908565
-0.00835125
-0.00766317
-0.0602062
-0.0598529
-0.0594345
-0.0589526
-0.058402
-0.0577842
-0.0571002
-0.0563509
-0.0555374
-0.0546613
-0.0537243
-0.0527285
-0.0516761
-0.0505698
-0.0494124
-0.0482069
-0.0469568
-0.0456657
-0.0443373
-0.0429756
-0.0415849
-0.0401695
-0.0387339
-0.0372826
-0.0358203
-0.0343517
-0.0328814
-0.0314143
-0.0299548
-0.0285075
-0.0270769
-0.0256671
-0.0242822
-0.022926
-0.0216021
-0.0203137
-0.0190637
-0.0178548
-0.0166893
-0.0155689
-0.0144953
-0.0134696
-0.0124926
-0.0115646
-0.0106858
-0.00985581
-0.00907418
-0.00834004
-0.00765227
-0.0603275
-0.0599663
-0.0595426
-0.0590572
-0.0585027
-0.0578809
-0.0571928
-0.0564393
-0.0556216
-0.0547411
-0.0537998
-0.0527996
-0.0517427
-0.050632
-0.04947
-0.0482602
-0.0470056
-0.0457101
-0.0443775
-0.0430116
-0.0416168
-0.0401975
-0.038758
-0.037303
-0.0358372
-0.0343653
-0.0328919
-0.0314217
-0.0299594
-0.0285096
-0.0270765
-0.0256645
-0.0242776
-0.0229196
-0.0215941
-0.0203043
-0.0190531
-0.0178432
-0.0166767
-0.0155557
-0.0144816
-0.0134555
-0.0124782
-0.0115501
-0.0106713
-0.00984149
-0.00906009
-0.00832626
-0.00763888
-0.0604708
-0.0601
-0.0596701
-0.0591807
-0.0586215
-0.0579949
-0.057302
-0.0565436
-0.0557208
-0.0548353
-0.0538888
-0.0528834
-0.0518213
-0.0507052
-0.0495381
-0.0483229
-0.0470632
-0.0457626
-0.0444248
-0.0430541
-0.0416545
-0.0402304
-0.0387865
-0.0373271
-0.0358572
-0.0343813
-0.0329041
-0.0314304
-0.0299649
-0.0285119
-0.027076
-0.0256614
-0.0242722
-0.0229121
-0.0215846
-0.0202931
-0.0190405
-0.0178294
-0.0166619
-0.0155401
-0.0144653
-0.0134388
-0.0124612
-0.011533
-0.0106543
-0.0098246
-0.00904347
-0.00831001
-0.0076231
-0.0606353
-0.0602531
-0.0598163
-0.0593224
-0.0587578
-0.0581257
-0.0574273
-0.0566632
-0.0558348
-0.0549434
-0.053991
-0.0529795
-0.0519114
-0.0507893
-0.0496161
-0.0483949
-0.0471292
-0.0458227
-0.0444791
-0.0431027
-0.0416976
-0.0402682
-0.038819
-0.0373547
-0.03588
-0.0343996
-0.0329181
-0.0314404
-0.029971
-0.0285146
-0.0270755
-0.0256579
-0.0242659
-0.0229033
-0.0215737
-0.0202803
-0.0190261
-0.0178135
-0.0166449
-0.0155221
-0.0144467
-0.0134196
-0.0124418
-0.0115135
-0.0106347
-0.00980522
-0.00902441
-0.00829138
-0.007605
-0.0608204
-0.060425
-0.0599806
-0.0594816
-0.058911
-0.0582728
-0.0575682
-0.0567977
-0.0559628
-0.0550649
-0.0541058
-0.0530876
-0.0520127
-0.0508837
-0.0497037
-0.0484757
-0.0472033
-0.0458901
-0.0445401
-0.0431573
-0.0417459
-0.0403105
-0.0388556
-0.0373857
-0.0359056
-0.0344201
-0.0329338
-0.0314516
-0.0299779
-0.0285175
-0.0270748
-0.0256538
-0.0242588
-0.0228935
-0.0215615
-0.0202659
-0.0190098
-0.0177957
-0.0166258
-0.015502
-0.0144257
-0.0133981
-0.0124199
-0.0114914
-0.0106127
-0.00978345
-0.009003
-0.00827045
-0.00758466
-0.0610254
-0.060615
-0.0601624
-0.0596577
-0.0590804
-0.0584355
-0.057724
-0.0569466
-0.0561045
-0.0551993
-0.0542328
-0.0532071
-0.0521247
-0.0509882
-0.0498006
-0.0485651
-0.0472853
-0.0459647
-0.0446075
-0.0432176
-0.0417994
-0.0403573
-0.0388959
-0.0374198
-0.0359338
-0.0344427
-0.0329511
-0.0314638
-0.0299855
-0.0285207
-0.0270739
-0.0256493
-0.0242509
-0.0228826
-0.0215478
-0.0202499
-0.0189918
-0.0177759
-0.0166046
-0.0154796
-0.0144025
-0.0133743
-0.0123957
-0.0114671
-0.0105884
-0.00975937
-0.00897931
-0.00824731
-0.00756218
-0.0612496
-0.0608223
-0.0603611
-0.0598502
-0.0592656
-0.0586133
-0.0578943
-0.0571092
-0.0562593
-0.0553462
-0.0543716
-0.0533378
-0.0522471
-0.0511023
-0.0499065
-0.0486628
-0.0473748
-0.0460462
-0.044681
-0.0432834
-0.0418577
-0.0404083
-0.0389399
-0.0374571
-0.0359646
-0.0344673
-0.0329699
-0.0314771
-0.0299937
-0.0285242
-0.0270729
-0.0256443
-0.0242422
-0.0228706
-0.0215329
-0.0202324
-0.018972
-0.0177543
-0.0165814
-0.0154552
-0.0143771
-0.0133482
-0.0123692
-0.0114404
-0.0105618
-0.00973306
-0.00895344
-0.00822203
-0.00753763
-0.0614923
-0.0610462
-0.060576
-0.0600585
-0.059466
-0.0588058
-0.0580787
-0.0572853
-0.0564269
-0.0555052
-0.0545218
-0.0534791
-0.0523795
-0.0512258
-0.0500209
-0.0487683
-0.0474715
-0.0461342
-0.0447605
-0.0433545
-0.0419207
-0.0404634
-0.0389873
-0.0374972
-0.0359978
-0.0344938
-0.0329901
-0.0314914
-0.0300025
-0.0285278
-0.0270718
-0.0256387
-0.0242327
-0.0228575
-0.0215167
-0.0202134
-0.0189506
-0.0177308
-0.0165563
-0.0154287
-0.0143496
-0.01332
-0.0123406
-0.0114116
-0.0105331
-0.0097046
-0.00892545
-0.00819469
-0.00751108
-0.0617531
-0.0612862
-0.0608066
-0.060282
-0.0596811
-0.0590123
-0.0582766
-0.0574743
-0.0566068
-0.0556758
-0.054683
-0.0536308
-0.0525216
-0.0513582
-0.0501437
-0.0488815
-0.0475752
-0.0462286
-0.0448456
-0.0434307
-0.0419881
-0.0405224
-0.0390381
-0.0375402
-0.0360332
-0.0345221
-0.0330117
-0.0315067
-0.0300117
-0.0285315
-0.0270704
-0.0256327
-0.0242225
-0.0228435
-0.0214992
-0.020193
-0.0189276
-0.0177056
-0.0165293
-0.0154003
-0.0143201
-0.0132897
-0.0123098
-0.0113807
-0.0105023
-0.00967406
-0.00889543
-0.00816537
-0.00748261
-0.0620312
-0.0615416
-0.0610524
-0.0605203
-0.0599103
-0.0592325
-0.0584875
-0.0576758
-0.0567986
-0.0558577
-0.0548549
-0.0537925
-0.052673
-0.0514993
-0.0502745
-0.0490021
-0.0476856
-0.046329
-0.0449363
-0.0435117
-0.0420598
-0.0405851
-0.0390921
-0.0375858
-0.0360709
-0.0345522
-0.0330345
-0.0315227
-0.0300215
-0.0285354
-0.0270689
-0.0256262
-0.0242114
-0.0228284
-0.0214805
-0.0201711
-0.018903
-0.0176787
-0.0165004
-0.0153699
-0.0142886
-0.0132574
-0.0122771
-0.0113477
-0.0104694
-0.00964153
-0.00886346
-0.00813414
-0.0074523
-0.0623261
-0.0618118
-0.0613128
-0.0607727
-0.0601532
-0.0594659
-0.0587111
-0.0578893
-0.0570019
-0.0560504
-0.0550369
-0.0539637
-0.0528333
-0.0516487
-0.050413
-0.0491297
-0.0478025
-0.0464352
-0.0450321
-0.0435974
-0.0421356
-0.0406513
-0.0391492
-0.037634
-0.0361106
-0.0345838
-0.0330586
-0.0315396
-0.0300317
-0.0285393
-0.0270671
-0.0256192
-0.0241996
-0.0228123
-0.0214606
-0.0201478
-0.0188768
-0.0176501
-0.0164698
-0.0153377
-0.0142552
-0.0132232
-0.0122423
-0.0113128
-0.0104346
-0.00960707
-0.00882959
-0.00810107
-0.0074202
-0.0626371
-0.0620961
-0.0615874
-0.0610388
-0.0604093
-0.059712
-0.0589469
-0.0581145
-0.0572162
-0.0562537
-0.0552289
-0.0541442
-0.0530023
-0.0518061
-0.0505589
-0.0492641
-0.0479255
-0.0465471
-0.045133
-0.0436876
-0.0422154
-0.0407209
-0.0392091
-0.0376845
-0.0361522
-0.034617
-0.0330837
-0.0315572
-0.0300423
-0.0285434
-0.0270651
-0.0256116
-0.024187
-0.0227952
-0.0214395
-0.0201232
-0.0188492
-0.0176199
-0.0164375
-0.0153038
-0.0142199
-0.0131871
-0.0122057
-0.011276
-0.0103978
-0.00957075
-0.00879391
-0.00806624
-0.0073864
-0.0629637
-0.0623942
-0.0618756
-0.0613182
-0.0606782
-0.0599704
-0.0591945
-0.058351
-0.0574413
-0.0564671
-0.0554304
-0.0543337
-0.0531797
-0.0519713
-0.0507119
-0.049405
-0.0480545
-0.0466643
-0.0452387
-0.043782
-0.0422988
-0.0407938
-0.0392717
-0.0377374
-0.0361957
-0.0346516
-0.03311
-0.0315756
-0.0300532
-0.0285474
-0.0270628
-0.0256035
-0.0241737
-0.0227771
-0.0214172
-0.0200973
-0.0188201
-0.0175882
-0.0164036
-0.015268
-0.0141829
-0.0131491
-0.0121672
-0.0112373
-0.0103593
-0.00953264
-0.00875647
-0.0080297
-0.00735095
-0.0633053
-0.0627053
-0.0621771
-0.0616103
-0.0609594
-0.0602407
-0.0594535
-0.0585983
-0.0576767
-0.0566903
-0.0556411
-0.0545318
-0.053365
-0.0521439
-0.0508717
-0.0495522
-0.0481892
-0.0467866
-0.045349
-0.0438805
-0.0423859
-0.0408698
-0.039337
-0.0377924
-0.036241
-0.0346876
-0.0331371
-0.0315945
-0.0300644
-0.0285515
-0.0270602
-0.0255949
-0.0241596
-0.0227581
-0.0213938
-0.0200701
-0.0187896
-0.0175548
-0.016368
-0.0152306
-0.0141441
-0.0131094
-0.0121269
-0.0111969
-0.010319
-0.0094928
-0.00871735
-0.00799153
-0.00731393
-0.0636613
-0.063029
-0.0624912
-0.0619147
-0.0612525
-0.0605225
-0.0597236
-0.0588563
-0.0579221
-0.0569229
-0.0558608
-0.0547382
-0.0535581
-0.0523236
-0.0510382
-0.0497054
-0.0483293
-0.0469139
-0.0454636
-0.0439829
-0.0424763
-0.0409486
-0.0394048
-0.0378495
-0.0362879
-0.0347248
-0.0331652
-0.031614
-0.0300758
-0.0285555
-0.0270573
-0.0255857
-0.0241447
-0.0227381
-0.0213693
-0.0200416
-0.0187577
-0.0175201
-0.0163308
-0.0151916
-0.0141037
-0.013068
-0.012085
-0.0111547
-0.0102771
-0.00945131
-0.00867661
-0.00795178
-0.00727538
-0.0640311
-0.0633648
-0.0628177
-0.0622311
-0.0615571
-0.0608154
-0.0600043
-0.0591243
-0.0581772
-0.0571647
-0.0560889
-0.0549526
-0.0537587
-0.0525102
-0.0512109
-0.0498644
-0.0484746
-0.0470459
-0.0455825
-0.0440889
-0.04257
-0.0410303
-0.0394748
-0.0379085
-0.0363363
-0.0347632
-0.0331941
-0.0316339
-0.0300875
-0.0285594
-0.0270541
-0.025576
-0.0241291
-0.0227172
-0.0213437
-0.0200118
-0.0187244
-0.0174838
-0.0162921
-0.015151
-0.0140616
-0.0130249
-0.0120414
-0.011111
-0.0102335
-0.00940821
-0.00863431
-0.00791052
-0.00723538
-0.0644143
-0.0637121
-0.0631561
-0.0625589
-0.0618729
-0.0611191
-0.0602953
-0.0594023
-0.0584416
-0.0574152
-0.0563254
-0.0551748
-0.0539663
-0.0527035
-0.0513897
-0.0500288
-0.048625
-0.0471823
-0.0457053
-0.0441985
-0.0426667
-0.0411146
-0.0395471
-0.0379693
-0.0363862
-0.0348027
-0.0332238
-0.0316544
-0.0300993
-0.0285632
-0.0270506
-0.0255657
-0.0241127
-0.0226953
-0.021317
-0.0199809
-0.0186898
-0.0174461
-0.0162519
-0.0151088
-0.014018
-0.0129803
-0.0119961
-0.0110656
-0.0101883
-0.00936358
-0.00859051
-0.00786781
-0.00719398
-0.0648101
-0.0640706
-0.0635059
-0.0628978
-0.0621995
-0.0614332
-0.0605964
-0.0596898
-0.0587151
-0.0576743
-0.0565698
-0.0554043
-0.0541809
-0.052903
-0.0515743
-0.0501986
-0.0487801
-0.0473231
-0.045832
-0.0443115
-0.0427663
-0.0412013
-0.0396215
-0.0380319
-0.0364374
-0.0348431
-0.0332541
-0.0316752
-0.0301112
-0.0285669
-0.0270467
-0.0255549
-0.0240956
-0.0226725
-0.0212892
-0.0199487
-0.0186539
-0.0174071
-0.0162103
-0.0150652
-0.0139728
-0.0129341
-0.0119494
-0.0110187
-0.0101416
-0.00931746
-0.00854526
-0.00782371
-0.00715124
-0.0652181
-0.0644397
-0.0638669
-0.0632475
-0.0625364
-0.0617573
-0.0609071
-0.0599865
-0.0589973
-0.0579416
-0.0568219
-0.055641
-0.0544021
-0.0531086
-0.0517644
-0.0503734
-0.0489398
-0.0474679
-0.0459622
-0.0444276
-0.0428687
-0.0412904
-0.0396979
-0.038096
-0.0364898
-0.0348845
-0.0332851
-0.0316963
-0.0301232
-0.0285704
-0.0270424
-0.0255434
-0.0240777
-0.0226488
-0.0212604
-0.0199154
-0.0186167
-0.0173667
-0.0161673
-0.01502
-0.0139262
-0.0128864
-0.0119011
-0.0109703
-0.0100934
-0.00926992
-0.00849864
-0.00777827
-0.00710722
-0.0656377
-0.0648191
-0.0642386
-0.0636075
-0.0628835
-0.0620913
-0.0612272
-0.0602921
-0.059288
-0.0582169
-0.0570814
-0.0558846
-0.0546296
-0.0533201
-0.0519599
-0.050553
-0.0491038
-0.0476165
-0.0460959
-0.0445467
-0.0429736
-0.0413817
-0.039776
-0.0381616
-0.0365434
-0.0349268
-0.0333165
-0.0317178
-0.0301352
-0.0285737
-0.0270377
-0.0255314
-0.024059
-0.0226242
-0.0212305
-0.019881
-0.0185784
-0.017325
-0.0161229
-0.0149735
-0.0138781
-0.0128373
-0.0118514
-0.0109204
-0.0100439
-0.009221
-0.00845068
-0.00773154
-0.00706196
-0.0660683
-0.0652083
-0.0646207
-0.0639776
-0.0632404
-0.0624348
-0.0615564
-0.0606064
-0.0595868
-0.0584998
-0.0573481
-0.0561347
-0.0548632
-0.0535371
-0.0521604
-0.0507373
-0.0492719
-0.0477689
-0.0462329
-0.0446686
-0.043081
-0.0414751
-0.0398559
-0.0382285
-0.0365981
-0.0349698
-0.0333485
-0.0317394
-0.0301472
-0.0285768
-0.0270325
-0.0255188
-0.0240396
-0.0225987
-0.0211996
-0.0198454
-0.0185387
-0.017282
-0.0160772
-0.0149257
-0.0138286
-0.0127868
-0.0118003
-0.0108692
-0.00999299
-0.00917077
-0.00840144
-0.00768358
-0.00701552
-0.0665094
-0.0656069
-0.0650128
-0.0643573
-0.0636068
-0.0627874
-0.0618944
-0.060929
-0.0598935
-0.05879
-0.0576216
-0.0563913
-0.0551026
-0.0537595
-0.0523658
-0.0509259
-0.049444
-0.0479248
-0.0463729
-0.0447932
-0.0431907
-0.0415704
-0.0399374
-0.0382967
-0.0366537
-0.0350134
-0.0333809
-0.0317612
-0.0301592
-0.0285796
-0.0270269
-0.0255055
-0.0240194
-0.0225723
-0.0211677
-0.0198087
-0.018498
-0.0172378
-0.0160301
-0.0148765
-0.0137778
-0.0127349
-0.0117479
-0.0108167
-0.00994079
-0.00911927
-0.00835098
-0.00763445
-0.00696796
-0.0669603
-0.0660147
-0.0654147
-0.0647465
-0.0639825
-0.063149
-0.0622409
-0.0612598
-0.0602078
-0.0590874
-0.0579017
-0.0566539
-0.0553477
-0.053987
-0.0525759
-0.0511186
-0.0496198
-0.0480839
-0.0465158
-0.0449204
-0.0433026
-0.0416675
-0.0400203
-0.0383661
-0.0367102
-0.0350577
-0.0334136
-0.0317831
-0.030171
-0.0285821
-0.0270208
-0.0254916
-0.0239984
-0.022545
-0.0211348
-0.0197709
-0.018456
-0.0171924
-0.0159819
-0.014826
-0.0137257
-0.0126817
-0.0116942
-0.0107629
-0.00988734
-0.00906656
-0.00829934
-0.00758418
-0.00691932
-0.0674206
-0.0664313
-0.0658261
-0.0651448
-0.0643671
-0.0635193
-0.0625958
-0.0615984
-0.0605295
-0.0593917
-0.0581881
-0.0569223
-0.0555981
-0.0542193
-0.0527903
-0.0513154
-0.0497991
-0.0482462
-0.0466615
-0.0450499
-0.0434164
-0.0417663
-0.0401046
-0.0384366
-0.0367675
-0.0351025
-0.0334467
-0.0318051
-0.0301827
-0.0285843
-0.0270143
-0.025477
-0.0239766
-0.0225168
-0.0211009
-0.019732
-0.0184129
-0.0171457
-0.0159324
-0.0147742
-0.0136724
-0.0126273
-0.0116392
-0.0107079
-0.00983269
-0.00901268
-0.00824658
-0.00753283
-0.00686964
-0.0678897
-0.0668563
-0.0662466
-0.065552
-0.0647605
-0.063898
-0.0629587
-0.0619446
-0.0608583
-0.0597026
-0.0584807
-0.0571964
-0.0558535
-0.0544563
-0.0530089
-0.0515158
-0.0499818
-0.0484114
-0.0468097
-0.0451816
-0.0435322
-0.0418666
-0.0401901
-0.038508
-0.0368255
-0.0351477
-0.0334799
-0.0318271
-0.0301943
-0.0285861
-0.0270072
-0.0254618
-0.0239541
-0.0224877
-0.021066
-0.0196921
-0.0183687
-0.0170979
-0.0158817
-0.0147213
-0.0136178
-0.0125716
-0.011583
-0.0106517
-0.00977688
-0.00895768
-0.00819273
-0.00748046
-0.00681898
-0.0683669
-0.0672895
-0.0666761
-0.0659678
-0.0651624
-0.064285
-0.0633295
-0.0622983
-0.061194
-0.0600198
-0.0587791
-0.0574758
-0.0561139
-0.0546976
-0.0532314
-0.0517198
-0.0501675
-0.0485794
-0.0469603
-0.0453153
-0.0436496
-0.0419684
-0.0402768
-0.0385803
-0.0368841
-0.0351933
-0.0335133
-0.0318491
-0.0302055
-0.0285875
-0.0269995
-0.0254459
-0.0239307
-0.0224577
-0.0210302
-0.0196512
-0.0183234
-0.017049
-0.0158298
-0.0146671
-0.013562
-0.0125148
-0.0115257
-0.0105943
-0.00971996
-0.0089016
-0.00813786
-0.00742709
-0.00676739
-0.0688517
-0.0677306
-0.0671143
-0.0663921
-0.0655727
-0.0646801
-0.0637079
-0.0626591
-0.0615364
-0.0603432
-0.0590832
-0.0577603
-0.0563789
-0.0549432
-0.0534577
-0.0519272
-0.0503563
-0.0487499
-0.0471132
-0.045451
-0.0437687
-0.0420714
-0.0403645
-0.0386534
-0.0369432
-0.0352393
-0.0335468
-0.0318709
-0.0302166
-0.0285885
-0.0269914
-0.0254294
-0.0239066
-0.0224268
-0.0209933
-0.0196092
-0.018277
-0.0169989
-0.0157768
-0.0146119
-0.0135051
-0.0124568
-0.0114672
-0.0105358
-0.00966197
-0.00884449
-0.00808199
-0.00737278
-0.00671489
-0.0693435
-0.0681795
-0.0675609
-0.0668246
-0.0659912
-0.065083
-0.0640938
-0.0630268
-0.0618852
-0.0606724
-0.0593926
-0.0580497
-0.0566482
-0.0551927
-0.0536876
-0.0521377
-0.0505478
-0.0489229
-0.0472681
-0.0455884
-0.0438892
-0.0421757
-0.0404532
-0.0387271
-0.0370027
-0.0352854
-0.0335804
-0.0318927
-0.0302273
-0.0285891
-0.0269826
-0.0254121
-0.0238817
-0.0223951
-0.0209556
-0.0195662
-0.0182296
-0.0169478
-0.0157227
-0.0145555
-0.013447
-0.0123978
-0.0114077
-0.0104763
-0.00960296
-0.00878639
-0.00802518
-0.00731756
-0.00666155
-0.0698418
-0.068636
-0.0680159
-0.0672653
-0.0664178
-0.0654937
-0.0644869
-0.0634013
-0.0622402
-0.0610074
-0.0597071
-0.0583437
-0.0569218
-0.0554459
-0.0539207
-0.0523511
-0.0507419
-0.0490981
-0.0474249
-0.0457275
-0.044011
-0.042281
-0.0405426
-0.0388014
-0.0370627
-0.0353317
-0.0336139
-0.0319142
-0.0302377
-0.0285892
-0.0269732
-0.0253942
-0.023856
-0.0223625
-0.0209169
-0.0195222
-0.0181811
-0.0168956
-0.0156675
-0.014498
-0.0133879
-0.0123376
-0.0113471
-0.0104158
-0.00954296
-0.00872735
-0.00796747
-0.00726149
-0.00660739
-0.0703459
-0.0690999
-0.0684789
-0.067714
-0.0668523
-0.0659119
-0.0648871
-0.0637823
-0.0626011
-0.0613477
-0.0600265
-0.0586422
-0.0571993
-0.0557026
-0.054157
-0.0525672
-0.0509384
-0.0492754
-0.0475835
-0.045868
-0.0441341
-0.0423872
-0.0406328
-0.0388762
-0.0371229
-0.0353782
-0.0336473
-0.0319355
-0.0302477
-0.0285888
-0.0269633
-0.0253755
-0.0238295
-0.022329
-0.0208772
-0.0194773
-0.0181316
-0.0168424
-0.0156113
-0.0144395
-0.0133278
-0.0122765
-0.0112855
-0.0103543
-0.00948202
-0.00866741
-0.00790889
-0.00720461
-0.00655247
-0.0708552
-0.0695711
-0.0689501
-0.0681705
-0.0672946
-0.0663375
-0.0652943
-0.0641697
-0.0629679
-0.0616933
-0.0603506
-0.0589448
-0.0574805
-0.0559627
-0.0543962
-0.052786
-0.0511371
-0.0494546
-0.0477437
-0.0460098
-0.0442582
-0.0424943
-0.0407235
-0.0389514
-0.0371833
-0.0354246
-0.0336806
-0.0319565
-0.0302573
-0.0285878
-0.0269526
-0.0253561
-0.0238022
-0.0222946
-0.0208367
-0.0194314
-0.0180812
-0.0167882
-0.0155541
-0.0143799
-0.0132666
-0.0122143
-0.0112229
-0.0102918
-0.00942018
-0.0086066
-0.00784949
-0.00714694
-0.00649681
-0.0713692
-0.0700495
-0.0694291
-0.068635
-0.0677448
-0.0667705
-0.0657082
-0.0645632
-0.0633401
-0.0620438
-0.0606792
-0.0592514
-0.0577653
-0.0562258
-0.0546381
-0.0530071
-0.0513378
-0.0496355
-0.0479054
-0.0461529
-0.0443833
-0.0426021
-0.0408148
-0.0390269
-0.0372439
-0.035471
-0.0337138
-0.0319772
-0.0302665
-0.0285863
-0.0269414
-0.0253359
-0.023774
-0.0222594
-0.0207952
-0.0193845
-0.0180297
-0.016733
-0.0154958
-0.0143194
-0.0132044
-0.0121512
-0.0111594
-0.0102285
-0.00935747
-0.00854497
-0.00778931
-0.00708853
-0.00644046
-0.0718873
-0.0705352
-0.0699161
-0.0691073
-0.0682026
-0.0672107
-0.0661287
-0.0649627
-0.0637177
-0.062399
-0.0610119
-0.0595616
-0.0580532
-0.0564919
-0.0548825
-0.0532303
-0.0515404
-0.049818
-0.0480684
-0.046297
-0.0445092
-0.0427105
-0.0409065
-0.0391027
-0.0373045
-0.0355173
-0.0337466
-0.0319976
-0.0302752
-0.0285842
-0.0269294
-0.025315
-0.0237451
-0.0222233
-0.0207528
-0.0193367
-0.0179773
-0.0166768
-0.0154366
-0.0142579
-0.0131414
-0.0120871
-0.011095
-0.0101643
-0.00929393
-0.00848254
-0.00772839
-0.00702943
-0.00638345
-0.0724089
-0.0710283
-0.0704111
-0.0695876
-0.0686683
-0.067658
-0.0665557
-0.065368
-0.0641004
-0.0627587
-0.0613486
-0.0598753
-0.0583443
-0.0567605
-0.0551292
-0.0534556
-0.0517447
-0.0500019
-0.0482325
-0.046442
-0.0446358
-0.0428195
-0.0409985
-0.0391785
-0.0373651
-0.0355635
-0.0337792
-0.0320175
-0.0302833
-0.0285815
-0.0269168
-0.0252934
-0.0237153
-0.0221863
-0.0207095
-0.019288
-0.017924
-0.0166197
-0.0153765
-0.0141955
-0.0130774
-0.0120222
-0.0110297
-0.0100992
-0.0092296
-0.00841937
-0.00766675
-0.00696965
-0.00632582
-0.0729334
-0.0715287
-0.070914
-0.0700759
-0.0691416
-0.0681124
-0.066989
-0.0657788
-0.0644879
-0.0631227
-0.0616889
-0.0601923
-0.0586381
-0.0570316
-0.0553781
-0.0536826
-0.0519505
-0.0501871
-0.0483977
-0.0465879
-0.044763
-0.0429288
-0.0410908
-0.0392545
-0.0374256
-0.0356094
-0.0338115
-0.0320369
-0.0302909
-0.0285782
-0.0269034
-0.0252709
-0.0236847
-0.0221485
-0.0206654
-0.0192383
-0.0178697
-0.0165616
-0.0153154
-0.0141322
-0.0130125
-0.0119564
-0.0109636
-0.0100334
-0.00916451
-0.00835547
-0.00760444
-0.00690925
-0.00626761
-0.0734605
-0.0720367
-0.0714251
-0.0705724
-0.0696228
-0.0685739
-0.0674285
-0.066195
-0.0648801
-0.0634907
-0.0620328
-0.0605123
-0.0589345
-0.057305
-0.0556288
-0.0539113
-0.0521577
-0.0503734
-0.0485638
-0.0467344
-0.0448907
-0.0430384
-0.0411831
-0.0393304
-0.0374859
-0.0356551
-0.0338433
-0.0320559
-0.0302979
-0.0285742
-0.0268894
-0.0252477
-0.0236533
-0.0221098
-0.0206203
-0.0191878
-0.0178146
-0.0165026
-0.0152534
-0.0140679
-0.0129467
-0.0118898
-0.0108967
-0.00996679
-0.0090987
-0.0082909
-0.00754149
-0.00684825
-0.00620884
-0.0739895
-0.0725526
-0.0719446
-0.0710773
-0.0701118
-0.0690422
-0.067874
-0.0666163
-0.0652767
-0.0638624
-0.0623798
-0.060835
-0.0592334
-0.0575804
-0.0558813
-0.0541414
-0.0523661
-0.0505607
-0.0487306
-0.0468814
-0.0450188
-0.0431482
-0.0412755
-0.0394062
-0.037546
-0.0357004
-0.0338747
-0.0320743
-0.0303043
-0.0285695
-0.0268745
-0.0252237
-0.0236211
-0.0220702
-0.0205744
-0.0191363
-0.0177585
-0.0164428
-0.0151906
-0.0140029
-0.0128801
-0.0118223
-0.0108291
-0.00989946
-0.0090322
-0.00822567
-0.00747793
-0.00678669
-0.00614956
-0.0745202
-0.0730767
-0.0724729
-0.0715908
-0.0706088
-0.0695175
-0.0683253
-0.0670425
-0.0656774
-0.0642376
-0.0627298
-0.0611602
-0.0595343
-0.0578576
-0.0561353
-0.0543728
-0.0525755
-0.0507487
-0.048898
-0.0470289
-0.0451471
-0.0432582
-0.0413679
-0.0394819
-0.0376058
-0.0357452
-0.0339056
-0.0320921
-0.03031
-0.0285641
-0.0268589
-0.0251989
-0.023588
-0.0220298
-0.0205276
-0.019084
-0.0177016
-0.0163821
-0.0151269
-0.013937
-0.0128127
-0.0117541
-0.0107607
-0.00983142
-0.00896504
-0.00815983
-0.0074138
-0.00672459
-0.00608979
-0.0750524
-0.0736096
-0.0730103
-0.0721133
-0.0711138
-0.0699995
-0.0687823
-0.0674734
-0.0660819
-0.064616
-0.0630825
-0.0614877
-0.0598372
-0.0581364
-0.0563906
-0.0546053
-0.0527858
-0.0509375
-0.0490659
-0.0471767
-0.0452755
-0.0433681
-0.0414601
-0.0395573
-0.0376653
-0.0357897
-0.0339359
-0.0321094
-0.0303151
-0.0285579
-0.0268426
-0.0251732
-0.0235541
-0.0219886
-0.0204799
-0.0190309
-0.0176438
-0.0163205
-0.0150624
-0.0138703
-0.0127446
-0.0116852
-0.0106916
-0.00976272
-0.00889724
-0.0080934
-0.00734912
-0.00666199
-0.00602955
-0.0755861
-0.0741519
-0.0735576
-0.0726453
-0.071627
-0.0704884
-0.0692448
-0.0679087
-0.06649
-0.0649974
-0.0634377
-0.0618172
-0.0601417
-0.0584166
-0.0566471
-0.0548387
-0.0529968
-0.0511267
-0.0492341
-0.0473247
-0.045404
-0.0434779
-0.0415521
-0.0396323
-0.0377243
-0.0358336
-0.0339657
-0.0321259
-0.0303194
-0.028551
-0.0268254
-0.0251468
-0.0235193
-0.0219464
-0.0204313
-0.0189768
-0.0175851
-0.0162581
-0.014997
-0.0138028
-0.0126756
-0.0116155
-0.0106218
-0.00969334
-0.00882882
-0.00802638
-0.0072839
-0.00659889
-0.00596887
-0.0761214
-0.0747046
-0.0741155
-0.0731873
-0.0721486
-0.0709839
-0.0697125
-0.0683481
-0.0669015
-0.0653814
-0.063795
-0.0621486
-0.0604478
-0.058698
-0.0569046
-0.0550729
-0.0532083
-0.0513164
-0.0494026
-0.0474727
-0.0455324
-0.0435875
-0.0416438
-0.039707
-0.0377829
-0.035877
-0.0339948
-0.0321418
-0.030323
-0.0285433
-0.0268074
-0.0251195
-0.0234837
-0.0219035
-0.0203819
-0.0189219
-0.0175256
-0.0161949
-0.0149309
-0.0137345
-0.012606
-0.0115451
-0.0105513
-0.00962338
-0.00875986
-0.00795886
-0.00721822
-0.00653537
-0.00590783
-0.0766589
-0.0752686
-0.0746849
-0.0737396
-0.0726787
-0.0714859
-0.0701852
-0.0687914
-0.0673159
-0.0657678
-0.0641542
-0.0624814
-0.060755
-0.0589804
-0.0571628
-0.0553076
-0.0534203
-0.0515063
-0.0495712
-0.0476207
-0.0456607
-0.0436969
-0.0417351
-0.0397812
-0.0378409
-0.0359197
-0.0340233
-0.0321569
-0.0303258
-0.0285348
-0.0267886
-0.0250914
-0.0234472
-0.0218596
-0.0203317
-0.0188662
-0.0174653
-0.0161309
-0.014864
-0.0136655
-0.0125357
-0.0114741
-0.0104802
-0.00955285
-0.00869037
-0.00789086
-0.0071521
-0.00647146
-0.00584643
-0.0772
-0.0758456
-0.075267
-0.0743031
-0.0732173
-0.0719943
-0.0706626
-0.0692381
-0.0677329
-0.0661562
-0.064515
-0.0628156
-0.0610633
-0.0592636
-0.0574216
-0.0555428
-0.0536325
-0.0516962
-0.0497397
-0.0477686
-0.0457887
-0.0438059
-0.041826
-0.0398549
-0.0378982
-0.0359618
-0.034051
-0.0321713
-0.0303279
-0.0285255
-0.026769
-0.0250624
-0.0234099
-0.021815
-0.0202806
-0.0188097
-0.0174043
-0.0160661
-0.0147964
-0.0135959
-0.0124647
-0.0114025
-0.0104086
-0.0094818
-0.00862039
-0.00782243
-0.00708558
-0.0064072
-0.00578473
-0.0777462
-0.0764375
-0.0758632
-0.0748782
-0.0737645
-0.0725087
-0.0711443
-0.0696878
-0.0681522
-0.0665463
-0.0648771
-0.0631507
-0.0613723
-0.0595473
-0.0576808
-0.0557781
-0.0538447
-0.0518861
-0.049908
-0.0479161
-0.0459163
-0.0439144
-0.0419163
-0.0399279
-0.0379549
-0.0360031
-0.034078
-0.0321849
-0.0303291
-0.0285154
-0.0267485
-0.0250326
)
;

boundaryField
{
    inlet
    {
        type            zeroGradient;
    }
    outlet
    {
        type            fixedValue;
        value           nonuniform 0();
    }
    cylinder
    {
        type            zeroGradient;
    }
    top
    {
        type            symmetryPlane;
    }
    bottom
    {
        type            symmetryPlane;
    }
    defaultFaces
    {
        type            empty;
    }
    procBoundary2to1
    {