/*--------------------------------*- C++ -*----------------------------------*\
  =========                 |
  \\      /  F ield         | OpenFOAM: The Open Source CFD Toolbox
   \\    /   O peration     | Website:  https://openfoam.org
    \\  /    A nd           | Version:  7
     \\/     M anipulation  |
\*---------------------------------------------------------------------------*/
FoamFile
{
    version     2.0;
    format      ascii;
    class       volVectorField;
    location    "20";
    object      U;
}
// * * * * * * * * * * * * * * * * * * * * * * * * * * * * * * * * * * * * * //

dimensions      [0 1 -1 0 0 0 0];

internalField   nonuniform List<vector> 
656
(
(1.14866 -0.004108 -1.86303e-21)
(1.15325 -0.00407748 2.89474e-21)
(1.15786 -0.00404623 -6.7368e-22)
(1.16246 -0.00401417 -4.00719e-22)
(1.16705 -0.00398121 1.20233e-21)
(1.17163 -0.00394736 -1.0971e-21)
(1.17617 -0.00391237 -5.07835e-23)
(1.18068 -0.00387407 3.90004e-22)
(1.18514 -0.003834 5.32217e-23)
(1.14862 -0.0122935 -1.90945e-21)
(1.15326 -0.0121866 1.73195e-21)
(1.1579 -0.0120754 -5.00706e-21)
(1.16254 -0.0119598 2.33199e-22)
(1.16718 -0.0118401 -9.77385e-23)
(1.17179 -0.0117163 -7.00425e-22)
(1.17638 -0.0115882 2.55234e-22)
(1.18092 -0.011454 2.94794e-22)
(1.18542 -0.0113151 -1.46591e-22)
(1.14857 -0.0201485 1.78679e-21)
(1.15327 -0.0199669 1.85768e-21)
(1.15798 -0.0197774 3.64199e-21)
(1.16269 -0.0195801 3.95526e-21)
(1.16739 -0.0193752 -2.32079e-22)
(1.17208 -0.0191629 -1.27859e-22)
(1.17673 -0.0189432 1.5845e-21)
(1.18134 -0.018716 -7.10271e-22)
(1.18591 -0.0184812 3.01713e-22)
(1.1485 -0.0277392 -2.20443e-21)
(1.15329 -0.0274849 -2.37983e-22)
(1.15809 -0.0272187 -7.12034e-21)
(1.16289 -0.0269411 2.24729e-21)
(1.16768 -0.0266524 4.33446e-22)
(1.17245 -0.026353 -3.02948e-22)
(1.1772 -0.026043 2.58692e-22)
(1.1819 -0.0257224 -1.62322e-22)
(1.18655 -0.0253911 9.52008e-23)
(1.14843 -0.0351046 -1.11433e-20)
(1.15332 -0.0347802 -3.15049e-21)
(1.15823 -0.0344393 4.82015e-21)
(1.16314 -0.0340828 -2.98575e-21)
(1.16804 -0.0337113 -2.05041e-21)
(1.17292 -0.0333254 -7.23612e-22)
(1.17777 -0.0329252 1.19362e-21)
(1.18258 -0.0325111 8.69545e-23)
(1.18734 -0.032083 -3.07338e-23)
(1.14835 -0.0422722 8.16218e-21)
(1.15336 -0.0418802 5.52872e-21)
(1.15839 -0.0414668 1.46365e-21)
(1.16342 -0.0410332 3.67213e-21)
(1.16845 -0.0405802 1.34626e-21)
(1.17345 -0.0401086 6.84667e-22)
(1.17842 -0.0396188 7.70462e-22)
(1.18336 -0.0391112 8.15418e-23)
(1.18824 -0.038586 -1.21321e-22)
(1.14825 -0.0492655 -6.68886e-21)
(1.1534 -0.0488085 6.88651e-21)
(1.15857 -0.0483249 6.2406e-22)
(1.16374 -0.0478159 -2.80766e-21)
(1.1689 -0.0472827 2.3052e-21)
(1.17404 -0.0467263 -4.98217e-22)
(1.17916 -0.0461473 3.58183e-22)
(1.18423 -0.0455464 -1.01599e-21)
(1.18924 -0.0449238 7.87509e-23)
(1.14814 -0.0561042 -5.08426e-22)
(1.15344 -0.0555848 2.04139e-21)
(1.15876 -0.0550331 1.66488e-21)
(1.16408 -0.0544504 5.9998e-21)
(1.16939 -0.0538383 -3.06532e-21)
(1.17469 -0.0531979 3.28702e-22)
(1.17995 -0.0525301 -2.00484e-21)
(1.18518 -0.0518359 1.47611e-21)
(1.19035 -0.0511155 5.54761e-24)
(1.148 -0.0628044 -8.84623e-21)
(1.15346 -0.0622253 -1.15746e-20)
(1.15895 -0.0616076 -8.11081e-22)
(1.16444 -0.060953 -1.14896e-20)
(1.16992 -0.0602632 -4.95674e-21)
(1.17538 -0.0595397 1.65371e-21)
(1.18081 -0.0587836 -5.52939e-23)
(1.1862 -0.057996 3.86253e-22)
(1.19154 -0.0571774 -9.82447e-23)
(1.14782 -0.0693797 7.33952e-21)
(1.15347 -0.0687437 -2.31848e-21)
(1.15914 -0.0680623 3.62404e-22)
(1.16481 -0.0673377 1.10423e-20)
(1.17047 -0.0665716 -3.00909e-21)
(1.17611 -0.0657658 -5.24522e-21)
(1.18172 -0.0649218 1.03896e-21)
(1.18729 -0.0640407 -3.95238e-22)
(1.19281 -0.0631232 -7.8574e-23)
(1.14761 -0.0758412 -6.62282e-21)
(1.15346 -0.0751514 7.68112e-21)
(1.15932 -0.0744091 -4.8427e-21)
(1.16518 -0.0736164 -8.851e-21)
(1.17104 -0.0727757 7.76686e-21)
(1.17688 -0.0718887 4.74495e-21)
(1.18268 -0.070957 1.86848e-22)
(1.18845 -0.0699821 6.93141e-22)
(1.19415 -0.0689646 -2.10363e-22)
(1.15342 -0.0814587 3.62686e-21)
(1.15949 -0.0806583 7.1697e-21)
(1.16556 -0.0798001 8.82021e-21)
(1.17163 -0.0788863 -3.96227e-21)
(1.17768 -0.0779191 -3.40998e-21)
(1.18369 -0.0769002 -1.94699e-21)
(1.18966 -0.0758309 -1.8877e-22)
(1.19557 -0.0747119 1.84581e-22)
(1.15335 -0.0876744 -3.69263e-21)
(1.15965 -0.0868194 1.61119e-21)
(1.16595 -0.0858983 -5.23173e-21)
(1.17224 -0.0849135 7.02115e-21)
(1.17851 -0.0838671 -7.34037e-22)
(1.18475 -0.0827609 -2.27824e-22)
(1.19094 -0.0815961 4.55671e-22)
(1.19707 -0.0803735 3.94388e-23)
(1.15326 -0.0938069 -1.20482e-20)
(1.1598 -0.0929011 1.74946e-21)
(1.16634 -0.09192 -3.76803e-21)
(1.17287 -0.0908661 -1.889e-21)
(1.17938 -0.0897413 4.14922e-21)
(1.18586 -0.0885474 5.36978e-22)
(1.19228 -0.0872855 -9.9475e-22)
(1.19865 -0.0859558 -4.407e-23)
(1.15315 -0.0998641 1.85203e-20)
(1.15994 -0.0989117 9.70332e-21)
(1.16674 -0.0978737 -3.36759e-21)
(1.17353 -0.0967524 -1.47948e-21)
(1.18029 -0.0955497 -4.20629e-21)
(1.18702 -0.0942669 1.76939e-21)
(1.1937 -0.0929049 1.02131e-21)
(1.2003 -0.0914636 7.37489e-23)
(1.15302 -0.105854 1.80688e-21)
(1.16009 -0.104859 -2.30597e-22)
(1.16716 -0.103767 9.54392e-21)
(1.17422 -0.10258 -5.54095e-21)
(1.18125 -0.101299 5.57342e-21)
(1.18825 -0.0999248 1.22739e-22)
(1.19518 -0.0984585 -7.03364e-22)
(1.20204 -0.0968995 -1.82522e-23)
(1.15289 -0.111783 1.60937e-20)
(1.16024 -0.110751 -2.80698e-20)
(1.1676 -0.109607 2.6621e-21)
(1.17495 -0.108354 5.28956e-21)
(1.18227 -0.106993 1.42134e-21)
(1.18954 -0.105525 -6.61733e-22)
(1.19674 -0.103948 4.66525e-22)
(1.20387 -0.102264 -2.76582e-23)
(1.15276 -0.11766 -3.67096e-20)
(1.16042 -0.116593 1.02873e-20)
(1.16808 -0.1154 -7.7441e-21)
(1.17573 -0.114081 -5.87493e-21)
(1.18334 -0.112637 -4.73783e-21)
(1.1909 -0.111068 -1.18551e-21)
(1.19838 -0.109374 -4.93382e-22)
(1.20577 -0.107554 6.61929e-23)
(1.15264 -0.123492 -1.80333e-21)
(1.16063 -0.122393 2.8197e-20)
(1.16861 -0.12115 -8.00766e-22)
(1.17657 -0.119762 1.06935e-20)
(1.18449 -0.11823 2.91604e-21)
(1.19234 -0.116555 8.08175e-22)
(1.2001 -0.114734 2.58799e-22)
(1.20776 -0.112766 3.16854e-23)
(1.15256 -0.129284 1.78015e-20)
(1.16088 -0.128154 -1.83106e-20)
(1.16919 -0.126859 -2.10977e-21)
(1.17747 -0.125399 -6.139e-21)
(1.1857 -0.123773 -5.53732e-21)
(1.19385 -0.121981 5.04696e-22)
(1.2019 -0.120021 7.49771e-24)
(1.20981 -0.117893 -1.92713e-22)
(1.15252 -0.135041 -1.56295e-20)
(1.16119 -0.13388 1.7731e-21)
(1.16984 -0.132529 2.10387e-21)
(1.17845 -0.13099 2.66951e-21)
(1.18699 -0.12926 3.61554e-21)
(1.19544 -0.127341 -3.1018e-22)
(1.20376 -0.125231 1.27097e-22)
(1.21193 -0.122929 3.56577e-22)
(1.15254 -0.140766 3.12593e-20)
(1.16156 -0.139569 -1.60737e-21)
(1.17056 -0.138157 -8.91398e-22)
(1.1795 -0.13653 6.58033e-22)
(1.18835 -0.134686 1.27557e-21)
(1.19709 -0.132628 -1.61559e-21)
(1.20569 -0.130354 -3.53361e-22)
(1.2141 -0.127862 -2.64809e-22)
(1.15264 -0.146459 -1.95524e-20)
(1.16201 -0.145221 -9.15139e-21)
(1.17135 -0.143739 2.21451e-21)
(1.18062 -0.142013 -7.81721e-21)
(1.18978 -0.140044 -8.595e-22)
(1.19881 -0.137833 2.10193e-21)
(1.20766 -0.13538 6.00592e-22)
(1.2163 -0.132684 -4.58901e-22)
(1.15281 -0.152118 4.51569e-21)
(1.16255 -0.150829 -2.33041e-21)
(1.17222 -0.149266 -1.78909e-20)
(1.18181 -0.14743 2.91472e-21)
(1.19127 -0.145326 8.34693e-22)
(1.20056 -0.142946 -8.47194e-22)
(1.20966 -0.140299 -4.23644e-22)
(1.21852 -0.137385 2.21878e-22)
(1.15308 -0.157737 -3.85768e-21)
(1.16316 -0.156385 -9.28759e-21)
(1.17316 -0.154728 3.21474e-20)
(1.18306 -0.15277 4.04358e-23)
(1.1928 -0.150516 -1.71027e-21)
(1.20235 -0.147954 3.44579e-22)
(1.21168 -0.145101 -3.94463e-22)
(1.22072 -0.141955 6.34311e-22)
(1.16385 -0.16188 1.94924e-20)
(1.17417 -0.160116 -1.42552e-20)
(1.18435 -0.15802 5.51766e-21)
(1.19436 -0.155597 -1.56762e-21)
(1.20416 -0.152846 1.49784e-22)
(1.21368 -0.149776 1.12104e-21)
(1.2229 -0.146386 -3.35912e-22)
(1.18569 -0.163168 -1.255e-20)
(1.19594 -0.160564 1.86008e-21)
(1.20595 -0.157613 -6.04578e-22)
(1.21566 -0.154315 -9.56627e-22)
(1.22503 -0.150673 6.98967e-22)
(1.22709 -0.154807 -9.90017e-22)
(1.18955 -0.0037923 5.98422e-24)
(1.19389 -0.00374858 1.25248e-22)
(1.19816 -0.00370248 -1.58283e-22)
(1.20235 -0.00365375 -4.94731e-23)
(1.20646 -0.00360217 -1.19703e-23)
(1.21046 -0.00354755 4.1168e-23)
(1.21436 -0.00348968 4.7623e-22)
(1.21815 -0.00342842 -7.05441e-22)
(1.22183 -0.00336362 2.28855e-22)
(1.22539 -0.00329515 9.64467e-22)
(1.22882 -0.00322295 7.12069e-22)
(1.23212 -0.00314694 -2.84593e-23)
(1.2353 -0.00306708 -2.70132e-21)
(1.23834 -0.00298337 3.08074e-21)
(1.24124 -0.00289577 6.35992e-22)
(1.24401 -0.00280418 4.88547e-22)
(1.24664 -0.00270826 9.99583e-24)
(1.24912 -0.00260707 -3.80815e-21)
(1.18987 -0.0111714 -2.75865e-23)
(1.19424 -0.0110226 1.59725e-22)
(1.19855 -0.0108682 8.95581e-23)
(1.20277 -0.0107079 -8.74239e-23)
(1.2069 -0.0105414 -1.11116e-22)
(1.21093 -0.0103682 -5.78971e-22)
(1.21486 -0.0101881 7.65299e-22)
(1.21868 -0.0100006 7.87502e-24)
(1.22238 -0.00980559 -1.13689e-21)
(1.22595 -0.00960265 1.94416e-21)
(1.22941 -0.00939159 -2.87435e-21)
(1.23273 -0.00917221 1.04515e-21)
(1.23592 -0.00894434 -6.56194e-22)
(1.23897 -0.00870782 7.6935e-22)
(1.24189 -0.00846242 2.82484e-22)
(1.24467 -0.00820764 7.27598e-22)
(1.24731 -0.00794217 1.35902e-21)
(1.24981 -0.00766272 -1.72736e-21)
(1.19041 -0.0182383 2.80458e-23)
(1.19485 -0.0179871 -2.32532e-22)
(1.19922 -0.0177274 8.62007e-23)
(1.2035 -0.0174588 -9.58517e-23)
(1.20768 -0.0171807 -6.20186e-25)
(1.21177 -0.0168927 3.66355e-22)
(1.21575 -0.0165943 2.17079e-22)
(1.21961 -0.016285 3.03542e-22)
(1.22336 -0.0159643 1.85005e-21)
(1.22699 -0.0156317 -2.19756e-21)
(1.23048 -0.0152869 2.46643e-21)
(1.23385 -0.0149294 -2.80525e-21)
(1.23707 -0.0145588 -3.87277e-22)
(1.24017 -0.0141748 4.03838e-21)
(1.24312 -0.0137767 -5.0942e-22)
(1.24593 -0.0133637 -2.83722e-21)
(1.2486 -0.0129334 -4.65749e-21)
(1.25113 -0.0124799 4.83699e-21)
(1.19115 -0.0250488 6.69501e-23)
(1.19567 -0.0246953 3.46213e-23)
(1.20012 -0.0243302 2.19032e-22)
(1.20448 -0.0239532 -1.05574e-22)
(1.20874 -0.0235636 -2.25498e-23)
(1.2129 -0.0231609 -2.68847e-22)
(1.21696 -0.0227445 -1.11251e-22)
(1.2209 -0.0223136 -1.41324e-21)
(1.22471 -0.0218676 9.98142e-22)
(1.22841 -0.0214059 8.01849e-24)
(1.23197 -0.0209277 3.3683e-21)
(1.2354 -0.0204326 -8.30526e-22)
(1.23869 -0.0199197 -3.14902e-21)
(1.24184 -0.0193884 -2.06376e-21)
(1.24484 -0.0188379 -3.21675e-22)
(1.24771 -0.0182664 1.12205e-20)
(1.25042 -0.0176707 -4.31849e-21)
(1.25299 -0.0170424 -8.59487e-21)
(1.19203 -0.0316405 -7.69168e-23)
(1.19666 -0.0311838 -1.72782e-22)
(1.20121 -0.0307125 7.42647e-23)
(1.20567 -0.030226 -8.22125e-23)
(1.21003 -0.0297237 -1.27696e-22)
(1.21429 -0.0292052 -4.4791e-22)
(1.21844 -0.0286694 -7.33909e-22)
(1.22247 -0.0281157 -1.11156e-21)
(1.22638 -0.0275432 -3.28283e-21)
(1.23016 -0.026951 -3.22478e-22)
(1.23381 -0.0263381 -4.18653e-23)
(1.23732 -0.0257035 3.76097e-21)
(1.24069 -0.0250461 4.74364e-21)
(1.24391 -0.024365 -3.48534e-21)
(1.24699 -0.0236585 5.86234e-21)
(1.24992 -0.0229244 -3.78085e-21)
(1.2527 -0.0221579 -2.18534e-21)
(1.25532 -0.0213486 1.92302e-21)
(1.19306 -0.038043 1.51024e-22)
(1.1978 -0.0374822 1.11924e-22)
(1.20247 -0.0369035 -1.44274e-22)
(1.20705 -0.0363062 -2.49385e-23)
(1.21153 -0.03569 9.41918e-22)
(1.2159 -0.0350538 1.28266e-21)
(1.22016 -0.034397 -7.9324e-22)
(1.2243 -0.0337185 -1.3304e-21)
(1.22832 -0.0330171 6.9152e-21)
(1.2322 -0.0322916 -2.40958e-21)
(1.23595 -0.0315406 -1.01475e-20)
(1.23956 -0.0307627 1.34305e-21)
(1.24303 -0.0299562 1.74994e-21)
(1.24634 -0.0291193 -1.50302e-21)
(1.24951 -0.0282498 8.06469e-21)
(1.25251 -0.0273442 3.9298e-21)
(1.25536 -0.0263966 -7.25847e-21)
(1.25804 -0.0253939 -5.92509e-21)
(1.1942 -0.0442795 9.5481e-23)
(1.19908 -0.0436138 6.54967e-23)
(1.20388 -0.0429264 9.9782e-23)
(1.20859 -0.0422169 1.09881e-22)
(1.2132 -0.0414847 3.52846e-22)
(1.21771 -0.0407288 -1.63007e-21)
(1.22209 -0.0399483 -1.11217e-22)
(1.22636 -0.0391419 3.52032e-21)
(1.2305 -0.038308 -1.95011e-21)
(1.2345 -0.037445 5.85239e-21)
(1.23837 -0.0365509 1.25757e-20)
(1.24209 -0.0356235 -5.37023e-21)
(1.24566 -0.0346604 5.05382e-21)
(1.24907 -0.0336588 1.16599e-20)
(1.25233 -0.0326153 7.65109e-21)
(1.25542 -0.0315252 5.28358e-21)
(1.25833 -0.0303809 9.1431e-21)
(1.26107 -0.0291672 2.66586e-21)
(1.19545 -0.0503692 -7.34361e-23)
(1.20048 -0.0495973 -2.34782e-22)
(1.20543 -0.0487998 -5.10218e-24)
(1.21029 -0.047976 -1.25775e-22)
(1.21504 -0.0471254 -5.25925e-23)
(1.21969 -0.0462469 1.37407e-21)
(1.22422 -0.0453392 1.84747e-21)
(1.22862 -0.0444006 3.09492e-22)
(1.23289 -0.0434292 5.61979e-23)
(1.23703 -0.0424227 -2.27131e-21)
(1.24102 -0.0413783 -5.82677e-21)
(1.24486 -0.0402929 -4.81349e-21)
(1.24854 -0.0391629 8.23603e-21)
(1.25206 -0.0379843 -5.02608e-21)
(1.2554 -0.0367521 -2.06696e-21)
(1.25857 -0.03546 -1.06372e-20)
(1.26154 -0.0340987 4.43608e-21)
(1.26431 -0.0326507 2.21979e-20)
(1.19681 -0.0563281 -2.81612e-23)
(1.202 -0.0554486 4.62315e-23)
(1.20711 -0.0545388 -4.20477e-23)
(1.21213 -0.0535982 7.67889e-22)
(1.21704 -0.052626 -1.3106e-21)
(1.22184 -0.0516208 -4.7114e-21)
(1.22652 -0.050581 -1.52685e-21)
(1.23107 -0.0495046 -4.02093e-21)
(1.23549 -0.0483889 -5.98945e-21)
(1.23976 -0.0472307 7.95008e-21)
(1.24388 -0.0460264 -3.33986e-21)
(1.24784 -0.0447717 7.90306e-21)
(1.25164 -0.0434616 -1.8742e-20)
(1.25525 -0.0420901 3.61393e-21)
(1.25867 -0.0406507 1.84642e-21)
(1.26189 -0.0391349 -8.64447e-21)
(1.2649 -0.0375313 6.61478e-21)
(1.26767 -0.035821 -2.87916e-20)
(1.19825 -0.0621695 -3.34225e-23)
(1.20362 -0.0611805 8.24464e-23)
(1.20891 -0.0601558 1.73593e-24)
(1.2141 -0.0590948 -1.31595e-21)
(1.21918 -0.0579966 -1.7747e-21)
(1.22414 -0.0568594 5.95797e-21)
(1.22899 -0.0556812 7.25544e-22)
(1.23369 -0.0544593 -4.92204e-21)
(1.23826 -0.0531902 6.41636e-21)
(1.24267 -0.0518699 -1.56694e-20)
(1.24692 -0.0504935 -6.92042e-21)
(1.251 -0.0490551 -9.73429e-21)
(1.25489 -0.0475481 7.30932e-21)
(1.25858 -0.0459646 -7.40347e-21)
(1.26206 -0.0442956 -2.31205e-20)
(1.26531 -0.0425303 1.88487e-20)
(1.26832 -0.0406555 -1.10762e-20)
(1.27105 -0.0386506 2.17321e-20)
(1.19979 -0.0679049 6.41659e-23)
(1.20535 -0.0668036 8.47811e-24)
(1.21082 -0.0656603 2.47385e-22)
(1.21619 -0.0644744 1.38898e-21)
(1.22145 -0.0632443 3.90986e-21)
(1.22659 -0.061968 -2.71663e-21)
(1.2316 -0.060643 -7.37053e-21)
(1.23647 -0.0592656 4.15222e-21)
(1.24118 -0.0578317 -1.35195e-21)
(1.24573 -0.056336 1.57682e-20)
(1.2501 -0.0547722 1.59284e-20)
(1.25428 -0.0531329 -1.33537e-20)
(1.25825 -0.0514092 -8.35133e-22)
(1.262 -0.0495911 -4.85102e-21)
(1.26551 -0.0476669 6.83332e-21)
(1.26874 -0.0456234 -1.0693e-20)
(1.27169 -0.043445 -1.39908e-20)
(1.27432 -0.0411106 -5.97892e-21)
(1.20142 -0.0735435 -7.41462e-23)
(1.20718 -0.0723263 -6.53687e-23)
(1.21285 -0.0710596 -8.27954e-22)
(1.21841 -0.0697424 -1.07471e-21)
(1.22386 -0.0683728 -1.64508e-21)
(1.22917 -0.0669484 5.03572e-21)
(1.23435 -0.0654658 -1.28766e-21)
(1.23937 -0.0639207 1.14643e-21)
(1.24423 -0.0623077 1.54477e-20)
(1.2489 -0.0606205 -1.19548e-20)
(1.25338 -0.0588512 9.21749e-21)
(1.25764 -0.0569905 2.17069e-20)
(1.26167 -0.0550274 -2.07943e-21)
(1.26543 -0.0529493 -6.34997e-21)
(1.26892 -0.0507419 1.83946e-20)
(1.27209 -0.048389 -2.1667e-20)
(1.27492 -0.045873 -1.04262e-20)
(1.27737 -0.0431731 1.89043e-20)
(1.20313 -0.0790928 -1.40965e-23)
(1.2091 -0.0777547 1.47328e-22)
(1.21498 -0.0763581 -1.70963e-22)
(1.22074 -0.0749016 2.96761e-21)
(1.22638 -0.0733829 4.59256e-21)
(1.23188 -0.0717989 -2.62782e-21)
(1.23722 -0.0701455 5.7417e-21)
(1.24239 -0.0684176 -8.97713e-22)
(1.24738 -0.0666087 -2.51397e-21)
(1.25216 -0.0647112 2.37897e-21)
(1.25672 -0.0627154 -1.94634e-20)
(1.26103 -0.0606104 -2.4406e-20)
(1.26507 -0.0583828 9.41811e-21)
(1.26881 -0.0560173 3.02923e-20)
(1.27221 -0.0534969 -9.9017e-21)
(1.27525 -0.0508025 2.82261e-20)
(1.27787 -0.0479147 1.08474e-20)
(1.28006 -0.0448138 -4.54458e-22)
(1.20493 -0.0845581 -1.26932e-23)
(1.21113 -0.0830925 -5.81384e-22)
(1.21722 -0.0815577 1.93463e-22)
(1.22318 -0.0799518 -1.92977e-21)
(1.22901 -0.078272 7.82667e-22)
(1.23469 -0.0765146 -2.84344e-21)
(1.24019 -0.0746748 -1.19048e-21)
(1.2455 -0.0727465 -8.03676e-21)
(1.2506 -0.0707223 -2.58866e-21)
(1.25547 -0.068593 3.11707e-21)
(1.26007 -0.0663477 -3.41298e-21)
(1.26439 -0.0639733 8.94331e-21)
(1.2684 -0.0614543 3.78327e-21)
(1.27205 -0.0587729 -1.92298e-20)
(1.2753 -0.0559092 1.04035e-20)
(1.27812 -0.0528416 -2.33135e-20)
(1.28045 -0.0495487 3.47094e-20)
(1.28226 -0.0460136 -1.33265e-20)
(1.20683 -0.0899424 5.79247e-23)
(1.21325 -0.0883409 7.71658e-22)
(1.21956 -0.0866577 1.37852e-21)
(1.22573 -0.0848902 -3.86513e-21)
(1.23174 -0.0830351 -5.1636e-22)
(1.23759 -0.0810882 -3.03848e-21)
(1.24324 -0.0790439 7.83459e-21)
(1.24867 -0.0768953 1.62908e-20)
(1.25385 -0.0746341 -2.29492e-20)
(1.25877 -0.0722499 1.20655e-20)
(1.26339 -0.0697301 7.42398e-21)
(1.26767 -0.0670599 -1.428e-20)
(1.27158 -0.0642217 -7.47403e-22)
(1.27507 -0.0611955 -2.25894e-20)
(1.2781 -0.0579588 -2.60312e-20)
(1.28061 -0.0544876 -2.09824e-20)
(1.28254 -0.0507593 4.40437e-20)
(1.28387 -0.0467606 -4.49349e-21)
(1.20881 -0.0952464 1.06398e-22)
(1.21547 -0.0934988 -9.56853e-22)
(1.22199 -0.0916547 2.77044e-22)
(1.22836 -0.0897112 5.40478e-21)
(1.23456 -0.0876646 -6.64783e-21)
(1.24056 -0.0855099 1.20278e-20)
(1.24633 -0.0832412 3.20187e-22)
(1.25186 -0.0808507 1.2822e-21)
(1.2571 -0.0783292 -6.97697e-21)
(1.26203 -0.0756653 -1.21319e-21)
(1.26661 -0.0728449 6.89171e-21)
(1.2708 -0.0698518 2.82247e-20)
(1.27455 -0.0666667 -1.92749e-20)
(1.2778 -0.0632674 1.52682e-20)
(1.28052 -0.0596294 9.15608e-20)
(1.28262 -0.0557271 4.04479e-20)
(1.28405 -0.0515369 -9.75238e-20)
(1.28477 -0.0470503 4.1195e-20)
(1.21088 -0.100469 -9.06294e-23)
(1.21777 -0.0985626 8.08938e-22)
(1.22451 -0.0965434 -1.50555e-21)
(1.23107 -0.0944076 3.87169e-21)
(1.23744 -0.0921513 5.32494e-21)
(1.24358 -0.089769 -7.39402e-21)
(1.24946 -0.0872544 -2.84243e-20)
(1.25505 -0.0845991 1.73364e-20)
(1.26031 -0.081793 2.9322e-20)
(1.26521 -0.0788238 1.95332e-21)
(1.2697 -0.0756765 4.75726e-21)
(1.27372 -0.0723334 -1.88793e-20)
(1.27724 -0.068774 5.38569e-21)
(1.28018 -0.0649746 7.95326e-20)
(1.28249 -0.0609095 -1.46673e-19)
(1.28408 -0.0565521 -3.70716e-20)
(1.28489 -0.0518787 -2.16682e-20)
(1.28487 -0.046886 -1.23994e-19)
(1.21304 -0.105605 -2.51859e-22)
(1.22015 -0.103527 -1.33101e-21)
(1.2271 -0.101316 -1.9956e-21)
(1.23385 -0.0989705 -7.04565e-21)
(1.24037 -0.0964851 -8.38878e-21)
(1.24662 -0.0938543 3.71687e-21)
(1.25258 -0.0910714 7.72017e-21)
(1.2582 -0.0881275 -3.75896e-20)
(1.26344 -0.0850121 -3.95277e-20)
(1.26825 -0.081712 -6.37924e-21)
(1.27259 -0.0782115 -1.70145e-20)
(1.27639 -0.0744921 -1.02762e-21)
(1.2796 -0.0705322 -2.50675e-20)
(1.28214 -0.0663078 -1.07669e-19)
(1.28394 -0.0617926 1.54413e-19)
(1.28492 -0.0569603 7.05241e-20)
(1.28499 -0.0517882 -3.46749e-21)
(1.2841 -0.0462783 6.39087e-20)
(1.21527 -0.110649 -1.48804e-23)
(1.22261 -0.108383 4.97795e-22)
(1.22975 -0.105965 1.7642e-21)
(1.23666 -0.10339 4.9616e-21)
(1.24331 -0.100656 1.54202e-20)
(1.24966 -0.0977548 -7.87758e-22)
(1.25566 -0.0946809 3.6984e-20)
(1.26127 -0.0914249 -5.21331e-21)
(1.26644 -0.0879756 4.92396e-20)
(1.27112 -0.0843194 2.24568e-20)
(1.27525 -0.0804402 1.37382e-20)
(1.27876 -0.0763189 -1.47791e-20)
(1.28158 -0.071934 7.22604e-20)
(1.28363 -0.0672617 5.0833e-21)
(1.28482 -0.0622768 -1.58533e-19)
(1.28507 -0.0569547 4.5473e-21)
(1.28429 -0.051275 -5.04801e-21)
(1.2824 -0.0452447 -1.20669e-21)
(1.21756 -0.115595 4.42007e-22)
(1.22512 -0.113124 -5.6582e-22)
(1.23244 -0.11048 1.87043e-21)
(1.2395 -0.107657 -1.18274e-20)
(1.24626 -0.104653 -2.08801e-20)
(1.25266 -0.101461 -3.00911e-21)
(1.25867 -0.0980738 -2.16663e-20)
(1.26423 -0.0944823 2.0475e-20)
(1.26929 -0.0906752 -8.7267e-22)
(1.27379 -0.0866386 -1.09113e-20)
(1.27764 -0.0823561 -4.22827e-20)
(1.28079 -0.077809 4.31923e-20)
(1.28314 -0.0729763 -6.46738e-20)
(1.2846 -0.0678357 -1.24927e-20)
(1.28509 -0.0623648 1.55774e-19)
(1.28451 -0.0565429 -8.10202e-20)
(1.28274 -0.0503539 2.33162e-20)
(1.21991 -0.120432 -6.62656e-22)
(1.22766 -0.11774 -9.8647e-22)
(1.23515 -0.114851 -1.21962e-21)
(1.24233 -0.111762 7.54839e-21)
(1.24917 -0.108469 1.847e-20)
(1.2556 -0.104965 3.97259e-21)
(1.26159 -0.101243 2.22201e-21)
(1.26706 -0.0972938 -2.17149e-20)
(1.27196 -0.0931061 -4.46499e-20)
(1.27621 -0.0886658 -5.48194e-20)
(1.27973 -0.0839568 1.22449e-20)
(1.28244 -0.0789611 -4.40043e-20)
(1.28425 -0.0736595 -3.37438e-20)
(1.28504 -0.0680327 9.56569e-20)
(1.28472 -0.0620628 -7.41522e-20)
(1.22229 -0.125151 4.47405e-22)
(1.23023 -0.122222 5.10607e-21)
(1.23786 -0.119072 -9.17441e-21)
(1.24514 -0.115698 3.08719e-21)
(1.25203 -0.112096 3.7372e-21)
(1.25846 -0.108261 -7.10495e-22)
(1.26438 -0.104184 -3.05402e-21)
(1.26972 -0.0998563 4.23015e-20)
(1.27441 -0.0952665 2.98791e-20)
(1.27837 -0.0904006 3.63564e-20)
(1.2815 -0.0852432 2.60907e-20)
(1.2837 -0.0797778 -1.84261e-20)
(1.28488 -0.0739879 -2.25548e-20)
(1.28492 -0.067859 -8.12836e-20)
(1.22469 -0.129744 6.94253e-22)
(1.23278 -0.126561 -4.74128e-21)
(1.24054 -0.123133 1.46153e-20)
(1.24789 -0.119457 -2.48718e-21)
(1.2548 -0.11553 -1.56632e-20)
(1.2612 -0.111345 2.27343e-21)
(1.26703 -0.106895 -1.4037e-20)
(1.2722 -0.10217 -2.80984e-20)
(1.27664 -0.0971578 -1.29381e-20)
(1.28024 -0.0918457 -2.49056e-20)
(1.28292 -0.0862193 -7.46811e-20)
(1.28456 -0.0802641 1.57499e-20)
(1.22708 -0.134201 -3.97317e-22)
(1.23532 -0.13075 2.46629e-21)
(1.24316 -0.127029 -1.05962e-20)
(1.25057 -0.123037 3.31561e-21)
(1.25748 -0.118769 -8.39408e-21)
(1.26382 -0.114218 -4.30271e-22)
(1.26951 -0.109378 -7.22499e-21)
(1.27447 -0.104237 8.61352e-21)
(1.27861 -0.0987841 4.39383e-20)
(1.28183 -0.0930065 5.37225e-20)
(1.22945 -0.138515 -9.55693e-22)
(1.2378 -0.134782 1.58416e-21)
(1.24572 -0.130757 5.50607e-21)
(1.25315 -0.126435 -7.63619e-21)
(1.26003 -0.121813 1.67329e-20)
(1.26628 -0.116883 3.41344e-20)
(1.27181 -0.111637 -1.98516e-20)
(1.27653 -0.106064 -5.4492e-21)
(1.28034 -0.100153 9.03618e-21)
(1.23176 -0.142679 4.84349e-22)
(1.24021 -0.138655 -4.17227e-21)
(1.24819 -0.134314 -8.35352e-21)
(1.25562 -0.129652 -1.05037e-20)
(1.26245 -0.124664 1.86973e-20)
(1.26857 -0.119343 -3.21522e-20)
(1.27392 -0.113678 3.70071e-20)
(1.23401 -0.146689 -9.96822e-22)
(1.24253 -0.142365 3.13307e-21)
(1.25054 -0.137699 1.67865e-20)
(1.25796 -0.132688 1.17597e-20)
(1.26471 -0.127325 -4.44355e-20)
(1.23617 -0.15054 1.4077e-21)
)
;

boundaryField
{
    inlet
    {
        type            uniformFixedValue;
        uniformValue    constant (1 0 0);
        value           nonuniform 0();
    }
    outlet
    {
        type            pressureInletOutletVelocity;
        value           nonuniform 0();
    }
    cylinder
    {
        type            fixedValue;
        value           nonuniform 0();
    }
    top
    {
        type            symmetryPlane;
    }
    bottom
    {
        type            symmetryPlane;
    }
    defaultFaces
    {
        type            empty;
    }
    procBoundary1to0
    {
        type            processor;
        value           nonuniform List<vector> 
26
(
(1.14408 -0.00413788 8.96594e-22)
(1.14401 -0.0123958 -5.06639e-21)
(1.14389 -0.0203216 4.02728e-21)
(1.14374 -0.0279808 -8.53185e-21)
(1.14356 -0.0354117 -2.08396e-21)
(1.14336 -0.0426417 -1.5847e-21)
(1.14313 -0.0496944 7.73882e-21)
(1.14286 -0.0565894 -5.16284e-21)
(1.14255 -0.0633429 1.21864e-20)
(1.1422 -0.0699681 -2.40083e-20)
(1.14179 -0.0764761 2.65029e-20)
(1.14736 -0.0821988 1.55794e-20)
(1.14736 -0.0821988 1.55794e-20)
(1.14707 -0.0884607 -4.23396e-21)
(1.14674 -0.0946348 -4.09429e-22)
(1.14637 -0.100728 -2.6516e-20)
(1.14597 -0.106749 -5.06325e-21)
(1.14555 -0.112703 2.86205e-20)
(1.14511 -0.1186 -3.7322e-20)
(1.14468 -0.124445 4.50244e-20)
(1.14426 -0.130248 -3.98777e-21)
(1.14387 -0.136014 -3.75871e-20)
(1.14353 -0.141749 2.49152e-20)
(1.14325 -0.147455 -9.42523e-21)
(1.14306 -0.153134 3.13608e-20)
(1.14296 -0.158783 7.6944e-21)
)
;
    }
    procBoundary1to2
    {
        type            processor;
        value           nonuniform List<vector> 
19
(
(1.25147 -0.00249826 -6.22573e-22)
(1.25217 -0.0073611 -2.11556e-21)
(1.25351 -0.0119893 5.47324e-21)
(1.25541 -0.016362 -6.04544e-21)
(1.25779 -0.0204714 1.51404e-20)
(1.26056 -0.0243067 4.56324e-21)
(1.26361 -0.0278506 -2.33672e-20)
(1.26687 -0.0310799 1.54362e-20)
(1.2702 -0.0339659 -7.79191e-21)
(1.27349 -0.0364776 1.29026e-20)
(1.2766 -0.0385839 -9.39906e-21)
(1.27939 -0.0402566 -2.31278e-20)
(1.28172 -0.0414729 -6.0008e-21)
(1.28346 -0.0422177 9.87225e-20)
(1.28447 -0.0424841 3.31672e-21)
(1.28466 -0.0422746 -8.31446e-20)
(1.28392 -0.0416002 -7.71942e-20)
(1.28219 -0.0404803 1.68518e-20)
(1.27942 -0.0389414 1.15377e-19)
)
;
    }
    procBoundary1to5
    {
        type            processor;
        value           nonuniform List<vector> 
38
(
(1.15343 -0.163308 -1.31338e-20)
(1.15343 -0.163308 -1.31338e-20)
(1.16462 -0.167302 -1.29406e-20)
(1.17523 -0.165416 -1.31767e-23)
(1.17523 -0.165416 -1.31767e-23)
(1.18703 -0.168198 -2.50731e-21)
(1.19751 -0.165406 -8.9415e-22)
(1.20771 -0.162243 2.54359e-22)
(1.21759 -0.158708 -1.61096e-21)
(1.21759 -0.158708 -1.61096e-21)
(1.22907 -0.15878 6.71093e-22)
(1.27973 -0.0438087 4.73081e-20)
(1.28319 -0.0557359 -3.83812e-20)
(1.27973 -0.0438087 4.73081e-20)
(1.28033 -0.0490433 4.56204e-20)
(1.28319 -0.0557359 -3.83812e-20)
(1.2837 -0.0613803 -2.64895e-20)
(1.28504 -0.073968 -1.38364e-19)
(1.2837 -0.0613803 -2.64895e-20)
(1.28423 -0.067323 -2.33513e-20)
(1.284 -0.0868912 -7.76442e-20)
(1.28504 -0.073968 -1.38364e-19)
(1.285 -0.0804272 -2.0851e-20)
(1.284 -0.0868912 -7.76442e-20)
(1.28311 -0.0938917 6.01642e-20)
(1.27836 -0.10766 -2.23118e-20)
(1.28311 -0.0938917 6.01642e-20)
(1.2818 -0.101276 5.92892e-20)
(1.2707 -0.121602 -1.32487e-23)
(1.27836 -0.10766 -2.23118e-20)
(1.27583 -0.115508 -3.03712e-20)
(1.24475 -0.145909 5.0241e-21)
(1.25277 -0.140912 -2.22246e-22)
(1.26015 -0.135544 -9.63799e-21)
(1.2707 -0.121602 -1.32487e-23)
(1.26681 -0.129796 -7.52851e-21)
(1.24475 -0.145909 5.0241e-21)
(1.23822 -0.15423 -8.86065e-22)
)
;
    }
}


// ************************************************************************* //
