/*--------------------------------*- C++ -*----------------------------------*\
  =========                 |
  \\      /  F ield         | OpenFOAM: The Open Source CFD Toolbox
   \\    /   O peration     | Website:  https://openfoam.org
    \\  /    A nd           | Version:  7
     \\/     M anipulation  |
\*---------------------------------------------------------------------------*/
FoamFile
{
    version     2.0;
    format      ascii;
    class       volScalarField;
    location    "5";
    object      p;
}
// * * * * * * * * * * * * * * * * * * * * * * * * * * * * * * * * * * * * * //

dimensions      [0 2 -2 0 0 0 0];

internalField   nonuniform List<scalar> 
2625
(
0.0588998
0.0563146
0.0537264
0.0511365
0.0485462
0.0459571
0.0433706
0.040788
0.0382109
0.0356408
0.033079
0.030527
0.027986
0.0254572
0.0229449
0.0204471
0.0179659
0.0155032
0.0590157
0.0564221
0.0538248
0.0512253
0.048625
0.0460254
0.043428
0.0408342
0.0382456
0.0356637
0.0330899
0.0305259
0.0279732
0.0254334
0.0229068
0.0203961
0.0179028
0.015428
0.0591
0.056495
0.0538857
0.0512738
0.0486606
0.0460477
0.0434367
0.0408289
0.0382261
0.0356296
0.0330412
0.0304622
0.0278944
0.0253392
0.022798
0.0202726
0.0177644
0.0152749
0.0591621
0.0565421
0.0539175
0.0512897
0.0486605
0.0460311
0.0434034
0.0407787
0.0381587
0.0355449
0.032939
0.0303425
0.0277571
0.0251843
0.0226256
0.0200827
0.0175571
0.0150502
0.0592092
0.0565708
0.0539274
0.0512807
0.048632
0.0459831
0.0433354
0.0406907
0.0380505
0.0354164
0.0327901
0.0301731
0.0275672
0.0249739
0.0223948
0.0198315
0.0172857
0.0147588
0.0592416
0.0565816
0.0539164
0.0512475
0.0485765
0.0459049
0.0432345
0.0405669
0.0379036
0.0352464
0.0325968
0.0299567
0.0273275
0.0247111
0.0221089
0.0195226
0.016954
0.0144044
0.0565761
0.053886
0.0511921
0.0484958
0.0457989
0.0431029
0.0404095
0.0377205
0.0350375
0.0323621
0.0296961
0.0270412
0.024399
0.0217712
0.0191595
0.0165656
0.0139909
0.0565559
0.0538382
0.0511163
0.048392
0.0456669
0.0429427
0.040221
0.0375036
0.0347922
0.0320885
0.0293942
0.026711
0.0240407
0.0213849
0.0187453
0.0161237
0.0135216
0.0565224
0.0537743
0.0510219
0.0482669
0.045511
0.042756
0.0400035
0.0372552
0.0345129
0.0317784
0.0290534
0.0263396
0.0236388
0.0209527
0.018283
0.0156314
0.0129996
0.056477
0.0536958
0.0509102
0.048122
0.0453329
0.0425445
0.0397587
0.0369772
0.0342017
0.031434
0.0286759
0.0259293
0.0231958
0.0204771
0.017775
0.0150914
0.0124278
0.056421
0.0536041
0.0507829
0.047959
0.0451341
0.04231
0.0394885
0.0366714
0.0338604
0.0310574
0.0282641
0.0254823
0.0227139
0.0199605
0.017224
0.0145062
0.0118086
0.0563555
0.0535005
0.0506412
0.0477791
0.0449162
0.0420541
0.0391947
0.0363397
0.033491
0.0306504
0.0278196
0.0250006
0.0221953
0.0194051
0.0166322
0.0138781
0.0111447
0.0562818
0.0533862
0.0504863
0.0475839
0.0446805
0.0417782
0.0388786
0.0359836
0.033095
0.0302147
0.0273445
0.0244862
0.0216419
0.018813
0.0160016
0.0132094
0.0104381
0.0562007
0.0532623
0.0503196
0.0473744
0.0444285
0.0414837
0.0385417
0.0356046
0.0326741
0.029752
0.0268403
0.0239408
0.0210555
0.0181859
0.0153342
0.0125019
0.00969103
0.0561135
0.0531299
0.0501421
0.047152
0.0441613
0.0411718
0.0381855
0.0352041
0.0322296
0.0292638
0.0263087
0.023366
0.0204378
0.0175257
0.0146318
0.0117577
0.00890537
0.0560209
0.0529899
0.0499549
0.0469176
0.04388
0.0408439
0.0378111
0.0347835
0.031763
0.0287516
0.0257511
0.0227633
0.0197905
0.016834
0.0138961
0.0109785
0.00808296
0.055924
0.0528433
0.0497589
0.0466724
0.0435858
0.040501
0.0374197
0.0343439
0.0312756
0.0282166
0.0251688
0.0221342
0.0191149
0.0161124
0.0131287
0.0101659
0.0072255
0.0558234
0.052691
0.0495551
0.0464173
0.0432797
0.0401442
0.0370125
0.0338866
0.0307685
0.0276601
0.0245633
0.0214801
0.0184125
0.0153622
0.0123312
0.00932139
0.0063346
0.0557202
0.0525339
0.0493443
0.0461533
0.0429627
0.0397744
0.0365904
0.0334126
0.0302429
0.0270833
0.0239357
0.0208021
0.0176846
0.0145848
0.0115048
0.00844654
0.00541176
0.0556149
0.0523727
0.0491275
0.0458812
0.0426356
0.0393928
0.0361545
0.0329229
0.0296998
0.0264872
0.0232872
0.0201014
0.0169325
0.0137816
0.010651
0.0075427
0.00445841
0.0555084
0.0522082
0.0489054
0.0456018
0.0422994
0.0390001
0.0357058
0.0324185
0.0291403
0.025873
0.0226188
0.0193793
0.0161572
0.0129537
0.00977104
0.00661115
0.0034759
0.0554014
0.0520412
0.0486788
0.045316
0.0419548
0.0385972
0.035245
0.0319004
0.0285653
0.0252417
0.0219316
0.0186367
0.01536
0.0121024
0.00886602
0.00565312
0.00246549
0.0552944
0.0518722
0.0484483
0.0450245
0.0416027
0.0381849
0.0347731
0.0313694
0.0279757
0.0245941
0.0212265
0.0178746
0.0145419
0.0112285
0.0079371
0.00466978
0.0014284
0.055188
0.051702
0.0482147
0.0447279
0.0412437
0.037764
0.0342908
0.0308263
0.0273723
0.0239311
0.0205047
0.0170943
0.0137041
0.0103334
0.00698535
0.00366222
0.000365765
0.055083
0.0515312
0.0479786
0.044427
0.0408785
0.0373352
0.0337989
0.0302719
0.0267561
0.0232538
0.0197673
0.0162969
0.0128481
0.00941818
0.00601181
0.00263149
-0.00072133
0.0549798
0.0513603
0.0477405
0.0441224
0.040508
0.0368992
0.0332982
0.0297069
0.0261275
0.0225625
0.0190135
0.0154773
0.0119728
0.00848325
0.00501726
0.00157849
-0.00183189
0.054879
0.05119
0.0475012
0.0438148
0.0401326
0.0364567
0.0327892
0.0291322
0.0254877
0.0218581
0.0182418
0.0146256
0.0110755
0.00752814
0.00400242
0.000504203
-0.00296493
0.054781
0.0510206
0.0472612
0.0435046
0.0397529
0.0360083
0.0322727
0.0285484
0.0248375
0.0211419
0.0174671
0.0138324
0.0101704
0.0065548
0.0029687
-0.000590218
-0.0041194
0.0546863
0.0508528
0.0470209
0.0431925
0.0393697
0.0355546
0.0317493
0.0279561
0.0241769
0.0204135
0.0166686
0.0129497
0.00924104
0.00556534
0.0019167
-0.0017042
-0.00529446
0.0545955
0.050687
0.0467808
0.0428789
0.0389833
0.0350962
0.0312196
0.0273558
0.0235069
0.0196747
0.0158611
0.0120709
0.00830166
0.00456087
0.000847468
-0.00283672
-0.00648919
0.0545088
0.0505237
0.0465416
0.0425644
0.0385944
0.0346336
0.0306842
0.0267484
0.0228283
0.0189261
0.0150438
0.0111851
0.00734901
0.00354095
-0.000238304
-0.00398694
-0.00770276
0.0544267
0.0503632
0.0463035
0.0422495
0.0382034
0.0341674
0.0301436
0.0261343
0.0221417
0.0181679
0.0142151
0.0102865
0.006382
0.00250603
-0.00133998
-0.00515416
-0.0089344
0.0543496
0.050206
0.0460669
0.0419345
0.0378107
0.0336979
0.0295983
0.025514
0.0214474
0.0174005
0.0133758
0.00937601
0.0054018
0.00145695
-0.00245687
-0.00633769
-0.0101834
0.0542777
0.0500524
0.0458324
0.0416198
0.0374169
0.0332257
0.0290487
0.024888
0.0207459
0.0166247
0.0125267
0.00845449
0.00440928
0.000394393
-0.00358834
-0.00753686
-0.011449
0.0542115
0.0499028
0.0456002
0.0413059
0.0370222
0.0327512
0.0284953
0.0242568
0.0200379
0.015841
0.0116683
0.00752251
0.00340504
-0.000681039
-0.00473376
-0.00875099
-0.0127305
0.0541511
0.0497573
0.0453706
0.0409931
0.0366271
0.0322748
0.0279386
0.0236208
0.0193237
0.0150497
0.0108011
0.00658055
0.00238961
-0.00176876
-0.00589251
-0.00997946
-0.0140273
0.0540968
0.0496164
0.045144
0.0406818
0.0362319
0.0317969
0.0273789
0.0229804
0.0186038
0.0142514
0.0099256
0.00562913
0.00136355
-0.00286821
-0.00706402
-0.0112216
-0.0153388
0.0540488
0.0494803
0.0449206
0.0403721
0.035837
0.0313177
0.0268166
0.0223361
0.0178786
0.0134466
0.0090423
0.00466874
0.00032737
-0.00397884
-0.0082477
-0.012477
-0.0166642
0.0540073
0.0493491
0.0447007
0.0400644
0.0354425
0.0308376
0.026252
0.0216881
0.0171485
0.0126355
0.00815161
0.00369983
-0.000718424
-0.00510013
-0.00944302
-0.0137448
-0.0180031
0.0539724
0.049223
0.0444844
0.0397589
0.0350489
0.0303569
0.0256854
0.0210368
0.0164138
0.0118187
0.00725394
0.00272286
-0.00177336
-0.00623156
-0.0106494
-0.0150247
-0.0193547
0.0539444
0.0491023
0.0442719
0.0394558
0.0346562
0.0298758
0.0251171
0.0203826
0.0156749
0.0109965
0.00634964
0.00173828
-0.00283696
-0.00737265
-0.0118664
-0.0163159
-0.0207185
0.0489869
0.0440634
0.0391552
0.0342648
0.0293947
0.0245474
0.0197257
0.0149321
0.0101693
0.00543913
0.000746515
-0.00390879
-0.00852292
-0.0130935
-0.0176181
-0.022094
0.048877
0.043859
0.0388574
0.0338747
0.0289136
0.0239766
0.0190664
0.0141857
0.00933739
0.00452293
-0.000251896
-0.00498838
-0.00968189
-0.0143301
-0.0189305
-0.0234805
0.0487726
0.0436588
0.0385624
0.0334862
0.0284328
0.0234048
0.018405
0.0134361
0.00850124
0.00360096
-0.00125662
-0.00607532
-0.0108491
-0.0155757
-0.0202528
-0.0248775
0.0486737
0.0434627
0.0382704
0.0330993
0.0279524
0.0228322
0.0177416
0.0126835
0.00766057
0.00266958
-0.00226812
-0.00716924
-0.0120241
-0.0168299
-0.0215843
-0.0262844
0.0485803
0.0432709
0.0379813
0.0327143
0.0274726
0.0222592
0.0170767
0.0119283
0.0068156
0.00172797
-0.00328616
-0.00826973
-0.0132063
-0.0180921
-0.0229245
-0.0277005
0.0484924
0.0430833
0.0376953
0.032331
0.0269935
0.0216857
0.0164104
0.0111706
0.00597014
0.000824314
-0.00430691
-0.00937638
-0.0143953
-0.0193618
-0.0242729
-0.0291254
0.0484099
0.0429
0.0374123
0.0319497
0.0265153
0.021112
0.0157428
0.0104107
0.0051186
-0.000122761
-0.00533478
-0.0104884
-0.0155907
-0.0206385
-0.0256289
-0.0305585
0.0483327
0.0427208
0.0371324
0.0315704
0.026038
0.0205382
0.015074
0.00964861
0.00426427
-0.00107185
-0.00636623
-0.0116056
-0.0167919
-0.0219217
-0.0269919
-0.031999
0.0482608
0.0425458
0.0368556
0.0311932
0.0255618
0.0199645
0.0144045
0.00888484
0.00340818
-0.0020196
-0.00740117
-0.0127276
-0.0179986
-0.0232108
-0.0283614
-0.0334465
0.0423748
0.0365818
0.0308181
0.0250868
0.0193911
0.0137343
0.00811968
0.00254998
-0.00296946
-0.00843989
-0.0138539
-0.0192101
-0.0245054
-0.0297367
-0.0349003
0.0304451
0.024613
0.0188181
0.0130638
0.00735335
0.00168979
-0.00392197
-0.00948199
-0.014984
-0.020426
-0.0258048
-0.0311174
-0.0363597
0.0182457
0.0123931
0.00658615
0.000827991
-0.00487662
-0.0105269
-0.0161174
-0.0216458
-0.0271085
-0.0325027
-0.0378241
-3.50201e-05
-0.00583294
-0.0115742
-0.0172536
-0.0228687
-0.0284159
-0.033892
-0.0392928
-0.0240943
-0.0297262
-0.0352846
-0.0407651
0.0130603
0.0106386
0.00823944
0.0058641
0.0035139
0.00119009
-0.00110608
-0.00337341
-0.00561072
-0.00781689
-0.00999079
-0.0121314
-0.0142376
-0.0163085
-0.0183431
-0.0203405
-0.0222998
-0.0242203
-0.026101
-0.0279414
-0.0297406
-0.0314981
-0.0332133
-0.0348855
-0.0365144
-0.0380993
-0.03964
-0.0411361
-0.0425871
-0.043993
-0.0453534
-0.0466682
-0.0479373
-0.0491605
-0.050338
-0.0514695
0.0129732
0.0105398
0.00812913
0.0057426
0.00338153
0.0010472
-0.00125912
-0.00353619
-0.00578281
-0.00799781
-0.0101801
-0.0123285
-0.0144421
-0.0165198
-0.0185607
-0.0205638
-0.0225283
-0.0244534
-0.0263381
-0.028182
-0.0299841
-0.031744
-0.0334609
-0.0351344
-0.036764
-0.0383492
-0.0398897
-0.041385
-0.042835
-0.0442393
-0.0455978
-0.0469104
-0.0481769
-0.0493974
-0.0505718
-0.0517002
0.0128054
0.0103576
0.00793276
0.00553232
0.00315764
0.000810063
-0.00150912
-0.00379864
-0.00605728
-0.00828384
-0.0104772
-0.0126362
-0.0147598
-0.016847
-0.0188969
-0.0209084
-0.0228807
-0.0248131
-0.0267046
-0.0285546
-0.0303624
-0.0321274
-0.033849
-0.0355267
-0.0371599
-0.0387484
-0.0402916
-0.0417893
-0.0432413
-0.0446473
-0.0460072
-0.0473208
-0.0485882
-0.0498093
-0.0509841
-0.0521129
0.0125637
0.010099
0.00765751
0.00524071
0.00284997
0.000486668
-0.00184788
-0.00415237
-0.00642557
-0.00866627
-0.0108733
-0.0130455
-0.0151819
-0.0172814
-0.019343
-0.0213657
-0.0233488
-0.0252914
-0.0271927
-0.029052
-0.0308685
-0.0326418
-0.0343712
-0.0360561
-0.0376963
-0.0392911
-0.0408404
-0.0423437
-0.0438009
-0.0452118
-0.0465762
-0.047894
-0.0491653
-0.05039
-0.0515683
-0.0527002
0.0122524
0.00976802
0.00730716
0.00487127
0.00246176
8.00155e-05
-0.0022726
-0.00459478
-0.00688525
-0.00914279
-0.0113662
-0.0135544
-0.0157062
-0.0178207
-0.0198968
-0.0219336
-0.0239302
-0.0258858
-0.0277996
-0.0296708
-0.0314989
-0.0332832
-0.0350231
-0.0367182
-0.038368
-0.039972
-0.04153
-0.0430418
-0.0445069
-0.0459254
-0.047297
-0.0486217
-0.0498995
-0.0511305
-0.0523147
-0.0534524
0.0118756
0.00936904
0.00688627
0.00442875
0.00199793
-0.000404763
-0.00277797
-0.00512034
-0.0074306
-0.0097075
-0.0119498
-0.0141565
-0.0163263
-0.0184583
-0.0205514
-0.0226048
-0.0246175
-0.0265886
-0.0285175
-0.0304034
-0.0322456
-0.0340435
-0.0357967
-0.0375044
-0.0391665
-0.0407824
-0.0423518
-0.0438745
-0.0453503
-0.0467789
-0.0481604
-0.0494946
-0.0507815
-0.0520212
-0.0532138
-0.0543597
0.0114372
0.00890604
0.00639894
0.00391739
0.00146288
-0.000963154
-0.00335932
-0.00572428
-0.0080567
-0.0103553
-0.012619
-0.0148465
-0.0170367
-0.0191886
-0.0213012
-0.0233735
-0.0254047
-0.0273939
-0.0293403
-0.0312433
-0.0331021
-0.0349162
-0.036685
-0.038408
-0.0400848
-0.0417151
-0.0432984
-0.0448346
-0.0463235
-0.0477648
-0.0491586
-0.0505047
-0.0518031
-0.053054
-0.0542574
-0.0554138
0.0109407
0.0083826
0.00584887
0.00334101
0.000860526
-0.00159113
-0.00401253
-0.00640233
-0.00875918
-0.0110818
-0.013369
-0.0156197
-0.0178325
-0.0200067
-0.022141
-0.0242346
-0.0262866
-0.0282961
-0.0302624
-0.0321848
-0.0340625
-0.0358951
-0.0376819
-0.0394225
-0.0411165
-0.0427635
-0.0443632
-0.0459153
-0.0474196
-0.0488761
-0.0502845
-0.0516449
-0.0529572
-0.0542216
-0.0554381
-0.0566073
0.0103893
0.00780202
0.00523946
0.0027031
0.000194464
-0.00228497
-0.00473377
-0.00715056
-0.009534
-0.0118828
-0.0141957
-0.0164716
-0.0187093
-0.0209078
-0.0230661
-0.0251831
-0.0272581
-0.0292901
-0.0312785
-0.0332225
-0.0351214
-0.0369747
-0.0387818
-0.0405423
-0.0422557
-0.0439217
-0.04554
-0.0471103
-0.0486324
-0.0501062
-0.0515316
-0.0529086
-0.0542371
-0.0555172
-0.056749
-0.0579332
0.00978581
0.00716731
0.00457382
0.00200687
-0.000531987
-0.00304127
-0.00551953
-0.00796536
-0.0103774
-0.0127544
-0.0150951
-0.0173983
-0.0196629
-0.0218878
-0.024072
-0.0262146
-0.0283146
-0.0303713
-0.0323838
-0.0343515
-0.0362737
-0.0381499
-0.0399794
-0.0417619
-0.0434969
-0.0451841
-0.0468232
-0.0484139
-0.049956
-0.0514494
-0.052894
-0.0542898
-0.0556367
-0.0569347
-0.058184
-0.0593853
0.00913305
0.00648127
0.00385483
0.0012553
-0.00131577
-0.00385687
-0.00636655
-0.00884338
-0.011286
-0.0136932
-0.0160636
-0.018396
-0.0206895
-0.0229427
-0.0251548
-0.0273249
-0.0294519
-0.0315352
-0.0335739
-0.0355673
-0.0375148
-0.0394158
-0.0412698
-0.0430764
-0.0448351
-0.0465456
-0.0482075
-0.0498207
-0.051385
-0.0529001
-0.0543661
-0.0557828
-0.0571503
-0.0584684
-0.0597374
-0.060958
0.00843349
0.00574647
0.00308516
0.000451133
-0.00215405
-0.00472886
-0.00727182
-0.00978153
-0.0122566
-0.0146958
-0.0170977
-0.0194613
-0.0217854
-0.0240688
-0.0263107
-0.0285101
-0.030666
-0.0327777
-0.0348444
-0.0368655
-0.0388402
-0.040768
-0.0426485
-0.0444811
-0.0462654
-0.0480012
-0.0496881
-0.0513259
-0.0529143
-0.0544533
-0.0559427
-0.0573825
-0.0587727
-0.0601132
-0.061404
-0.062646
0.00768943
0.0049653
0.00226727
-0.000403087
-0.00304419
-0.00565451
-0.00823256
-0.0107769
-0.0132862
-0.0157591
-0.0181944
-0.0205908
-0.0229473
-0.0252627
-0.0275361
-0.0297666
-0.0319532
-0.0340951
-0.0361917
-0.0382421
-0.0402459
-0.0422024
-0.0441111
-0.0459716
-0.0477835
-0.0495465
-0.0512603
-0.0529246
-0.0545393
-0.0561041
-0.0576191
-0.0590841
-0.0604991
-0.061864
-0.0631789
-0.0644445
0.00690303
0.00413999
0.00140347
-0.00130498
-0.00398375
-0.0066313
-0.00924614
-0.0118268
-0.014372
-0.0168803
-0.0193506
-0.0217815
-0.0241721
-0.0265212
-0.0288278
-0.031091
-0.0333099
-0.0354837
-0.0376118
-0.0396934
-0.0417279
-0.0437148
-0.0456535
-0.0475438
-0.0493851
-0.0511771
-0.0529197
-0.0546125
-0.0562553
-0.0578481
-0.0593906
-0.0608829
-0.0623249
-0.0637164
-0.0650575
-0.066349
0.0060763
0.00327263
0.000495894
-0.00225233
-0.00497043
-0.00765686
-0.0103101
-0.0129288
-0.0155114
-0.0180568
-0.0205636
-0.0230307
-0.0254569
-0.0278411
-0.0301825
-0.03248
-0.0347328
-0.0369402
-0.0391014
-0.0412157
-0.0432826
-0.0453015
-0.047272
-0.0491937
-0.0510661
-0.052889
-0.0546621
-0.0563853
-0.0580582
-0.0596808
-0.061253
-0.0627746
-0.0642457
-0.065666
-0.0670355
-0.0683552
0.00521112
0.00236515
-0.000453435
-0.00324305
-0.00600208
-0.00872897
-0.0114222
-0.0140804
-0.016702
-0.0192859
-0.0218308
-0.0243355
-0.0267988
-0.0292197
-0.0315973
-0.0339306
-0.0362189
-0.0384612
-0.040657
-0.0428056
-0.0449064
-0.046959
-0.0489628
-0.0509175
-0.0528227
-0.0546782
-0.0564837
-0.0582389
-0.0599438
-0.0615982
-0.0632019
-0.064755
-0.0662572
-0.0677086
-0.0691089
-0.0704591
0.00430926
0.00141938
-0.00144263
-0.0042752
-0.00707668
-0.00984553
-0.0125802
-0.0152793
-0.0179415
-0.0205654
-0.0231497
-0.0256934
-0.0281952
-0.0306542
-0.0330694
-0.03544
-0.037765
-0.0400437
-0.0422756
-0.0444599
-0.0465961
-0.0486837
-0.0507224
-0.0527116
-0.0546512
-0.0565409
-0.0583804
-0.0601695
-0.0619082
-0.0635962
-0.0652335
-0.06682
-0.0683556
-0.0698402
-0.0712735
-0.0726568
0.00337237
0.000437041
-0.00246992
-0.00534692
-0.00819232
-0.0110046
-0.0137821
-0.0165236
-0.0192276
-0.0218928
-0.024518
-0.0271019
-0.0296436
-0.032142
-0.0345962
-0.0370052
-0.0393683
-0.0416848
-0.043954
-0.0461753
-0.0483483
-0.0504724
-0.0525473
-0.0545726
-0.0565481
-0.0584734
-0.0603486
-0.0621733
-0.0639474
-0.0656709
-0.0673436
-0.0689656
-0.0705367
-0.0720568
-0.0735257
-0.0749444
0.00240202
-0.00058025
-0.00353361
-0.00645648
-0.00934721
-0.0122042
-0.015026
-0.0178112
-0.0205583
-0.0232661
-0.0259334
-0.0285589
-0.0311417
-0.0336807
-0.036175
-0.0386237
-0.0410261
-0.0433815
-0.0456893
-0.0479489
-0.0501599
-0.0523217
-0.0544342
-0.0564969
-0.0585097
-0.0604722
-0.0623845
-0.0642464
-0.0660577
-0.0678185
-0.0695286
-0.071188
-0.0727968
-0.0743547
-0.0758615
-0.0773183
0.00139969
-0.00163096
-0.00463214
-0.00760224
-0.0105396
-0.0134427
-0.01631
-0.0191401
-0.0219316
-0.0246832
-0.0273938
-0.030062
-0.032687
-0.0352678
-0.0378033
-0.0402929
-0.0427358
-0.0451312
-0.0474787
-0.0497778
-0.0520279
-0.0542287
-0.0563799
-0.0584813
-0.0605326
-0.0625338
-0.0644847
-0.0663852
-0.0682353
-0.0700351
-0.0717844
-0.0734833
-0.0751319
-0.0767299
-0.0782772
-0.0797747
0.000366768
-0.00271366
-0.00576399
-0.00878265
-0.011768
-0.0147184
-0.0176325
-0.0205087
-0.0233457
-0.0261422
-0.0288971
-0.0316093
-0.0342776
-0.0369011
-0.0394789
-0.0420104
-0.0444947
-0.0469312
-0.0493195
-0.051659
-0.0539493
-0.0561901
-0.0583813
-0.0605225
-0.0626136
-0.0646546
-0.0666455
-0.0685861
-0.0704766
-0.072317
-0.0741073
-0.0758477
-0.0775381
-0.0791786
-0.0807688
-0.0823099
-0.000695427
-0.00382696
-0.00692775
-0.00999623
-0.0130307
-0.0160297
-0.0189916
-0.0219151
-0.0247987
-0.0276413
-0.0304416
-0.0331985
-0.0359111
-0.0385784
-0.0411995
-0.0437738
-0.0463004
-0.048779
-0.0512089
-0.0535898
-0.0559213
-0.0582031
-0.0604352
-0.0626172
-0.0647493
-0.0668313
-0.0688634
-0.0708455
-0.0727778
-0.0746605
-0.0764935
-0.0782772
-0.0800116
-0.0816968
-0.0833326
-0.0849201
-0.00178564
-0.00496956
-0.00812206
-0.0112416
-0.0143264
-0.017375
-0.0203859
-0.0233577
-0.026289
-0.0291785
-0.0320252
-0.0348279
-0.0375857
-0.0402976
-0.0429628
-0.0455807
-0.0481506
-0.050672
-0.0531444
-0.0555675
-0.057941
-0.0602648
-0.0625386
-0.0647625
-0.0669364
-0.0690606
-0.071135
-0.0731598
-0.0751353
-0.0770617
-0.0789392
-0.080768
-0.0825484
-0.0842807
-0.0859646
-0.0876013
-0.00290269
-0.00614025
-0.00934565
-0.0125173
-0.0156537
-0.018753
-0.0218139
-0.024835
-0.0278149
-0.0307523
-0.0336463
-0.0364956
-0.0392994
-0.0420567
-0.0447668
-0.0474291
-0.0500429
-0.0526079
-0.0551235
-0.0575895
-0.0600058
-0.0623721
-0.0646885
-0.0669551
-0.0691718
-0.071339
-0.0734567
-0.0755254
-0.0775453
-0.0795169
-0.0814403
-0.0833161
-0.0851446
-0.0869261
-0.0886607
-0.0903495
-0.00404544
-0.00733783
-0.0105973
-0.0138223
-0.0170111
-0.0201622
-0.0232741
-0.0263454
-0.0293748
-0.0323611
-0.0353031
-0.0381998
-0.0410503
-0.0438537
-0.0466094
-0.0493168
-0.0519752
-0.0545842
-0.0571437
-0.0596533
-0.0621129
-0.0645224
-0.0668821
-0.0691919
-0.0714522
-0.0736632
-0.0758252
-0.0779388
-0.0800042
-0.0820222
-0.0839931
-0.0859174
-0.0877959
-0.0896289
-0.0914168
-0.0931606
-0.00521284
-0.00856121
-0.0118758
-0.0151552
-0.0183975
-0.0216014
-0.0247652
-0.0278876
-0.0309673
-0.0340031
-0.0369939
-0.0399387
-0.0428366
-0.0456869
-0.0484887
-0.0512416
-0.0539451
-0.0565988
-0.0592026
-0.0617562
-0.0642596
-0.0667129
-0.0691163
-0.07147
-0.0737744
-0.0760299
-0.078237
-0.0803962
-0.0825083
-0.0845738
-0.0865934
-0.088568
-0.0904982
-0.0923848
-0.0942284
-0.0960301
-0.00640385
-0.0098093
-0.0131802
-0.0165149
-0.0198117
-0.0230692
-0.0262858
-0.0294601
-0.0325909
-0.035677
-0.0387173
-0.0417108
-0.0446567
-0.0475542
-0.0504027
-0.0532016
-0.0559507
-0.0586495
-0.0612979
-0.0638959
-0.0664435
-0.0689409
-0.0713884
-0.0737864
-0.0761353
-0.0784358
-0.0806885
-0.0828942
-0.0850536
-0.0871677
-0.0892374
-0.0912635
-0.0932472
-0.0951894
-0.0970911
-0.0989536
-0.00761747
-0.0110811
-0.0145092
-0.0179002
-0.0212525
-0.0245645
-0.0278347
-0.0310617
-0.0342443
-0.0373813
-0.0404717
-0.0435145
-0.0465088
-0.049454
-0.0523496
-0.0551949
-0.0579898
-0.0607339
-0.0634273
-0.0660699
-0.0686619
-0.0712036
-0.0736955
-0.076138
-0.0785318
-0.0808777
-0.0831765
-0.0854291
-0.0876366
-0.0898001
-0.0919207
-0.0939998
-0.0960385
-0.0980382
-0.1
-0.101926
-0.00885275
-0.0123756
-0.0158619
-0.0193102
-0.0227188
-0.0260861
-0.0294107
-0.0326911
-0.0359262
-0.0391147
-0.0422556
-0.0453481
-0.0483914
-0.0513847
-0.0543275
-0.0572195
-0.0600604
-0.0628501
-0.0655885
-0.0682758
-0.0709123
-0.0734984
-0.0760347
-0.0785219
-0.0809607
-0.0833521
-0.0856972
-0.0879972
-0.0902532
-0.0924668
-0.0946393
-0.0967724
-0.0988676
-0.100927
-0.102951
-0.104944
-0.0101088
-0.0136918
-0.0172374
-0.0207439
-0.0242096
-0.027633
-0.0310126
-0.0343471
-0.0376352
-0.0408757
-0.0440677
-0.0472103
-0.0503028
-0.0533445
-0.0563349
-0.0592737
-0.0621607
-0.0649959
-0.0677794
-0.0705114
-0.0731923
-0.0758228
-0.0784034
-0.0809351
-0.0834189
-0.0858559
-0.0882474
-0.0905948
-0.0928997
-0.0951638
-0.0973889
-0.0995769
-0.10173
-0.10385
-0.105939
-0.108
-0.0113847
-0.0150289
-0.0186346
-0.0222002
-0.0257238
-0.0292041
-0.0326394
-0.0360285
-0.0393701
-0.0426632
-0.0459066
-0.0490997
-0.0522416
-0.0553318
-0.0583699
-0.0613555
-0.0642887
-0.0671694
-0.0699978
-0.0727743
-0.0754995
-0.078174
-0.0807988
-0.0833748
-0.0859033
-0.0883856
-0.0908234
-0.0932183
-0.0955721
-0.097887
-0.100165
-0.102409
-0.10462
-0.106802
-0.108958
-0.111091
-0.0126797
-0.0163861
-0.0200528
-0.0236782
-0.0272605
-0.0307982
-0.0342899
-0.0377342
-0.0411298
-0.0444758
-0.047771
-0.0510147
-0.0542063
-0.0573451
-0.0604309
-0.0634634
-0.0664426
-0.0693685
-0.0722417
-0.0750624
-0.0778315
-0.0805497
-0.0832181
-0.085838
-0.0884108
-0.0909381
-0.0934218
-0.0958639
-0.0982666
-0.100632
-0.102964
-0.105263
-0.107534
-0.10978
-0.112003
-0.11421
-0.0139931
-0.0177625
-0.021491
-0.025177
-0.0288187
-0.0324146
-0.0359632
-0.0394631
-0.0429132
-0.0463124
-0.0496596
-0.0529542
-0.0561955
-0.059383
-0.0625164
-0.0655955
-0.0686204
-0.0715914
-0.0745089
-0.0773734
-0.0801858
-0.0829472
-0.0856587
-0.0883218
-0.0909383
-0.09351
-0.0960391
-0.0985279
-0.100979
-0.103395
-0.10578
-0.108136
-0.110467
-0.112777
-0.11507
-0.117352
-0.015324
-0.0191573
-0.0229485
-0.0266958
-0.0303976
-0.0340522
-0.0376582
-0.0412143
-0.0447191
-0.0481718
-0.0515712
-0.0549168
-0.0582078
-0.0614439
-0.0646247
-0.0677502
-0.0708206
-0.0738362
-0.0767974
-0.0797051
-0.0825603
-0.085364
-0.0881179
-0.0908235
-0.0934828
-0.0960981
-0.0986718
-0.101207
-0.103705
-0.106172
-0.108609
-0.111022
-0.113413
-0.115788
-0.118151
-0.120511
-0.0166717
-0.0205698
-0.0244244
-0.0282338
-0.0319963
-0.0357102
-0.0393741
-0.0429866
-0.0465465
-0.0500529
-0.0535047
-0.0569012
-0.0602419
-0.0635264
-0.0667544
-0.069926
-0.0730414
-0.0761009
-0.0791054
-0.0820555
-0.0849526
-0.0877979
-0.0905931
-0.0933402
-0.0960413
-0.0986991
-0.101316
-0.103896
-0.106442
-0.108958
-0.111448
-0.113916
-0.116368
-0.118808
-0.121243
-0.123682
-0.0180356
-0.0219993
-0.025918
-0.0297901
-0.0336139
-0.0373876
-0.0411097
-0.0447791
-0.0483944
-0.0519546
-0.0554588
-0.0589063
-0.0622965
-0.0656291
-0.068904
-0.0721212
-0.075281
-0.0783839
-0.0814307
-0.0844225
-0.0873604
-0.0902462
-0.0930817
-0.095869
-0.0986108
-0.10131
-0.103969
-0.106593
-0.109184
-0.111748
-0.11429
-0.116814
-0.119325
-0.121831
-0.124338
-0.126857
-0.019415
-0.023445
-0.0274286
-0.031364
-0.0352496
-0.0390835
-0.0428644
-0.0465908
-0.0502617
-0.0538758
-0.0574324
-0.0609307
-0.0643703
-0.0677508
-0.071072
-0.0743343
-0.0775378
-0.0806833
-0.0837716
-0.0868039
-0.0897817
-0.0927067
-0.0955811
-0.0984073
-0.101188
-0.103927
-0.106627
-0.109293
-0.111929
-0.11454
-0.117131
-0.11971
-0.122281
-0.124852
-0.127432
-0.130032
-0.0208092
-0.0249062
-0.0289553
-0.0329548
-0.0369026
-0.0407972
-0.0446371
-0.0484209
-0.0521474
-0.0558156
-0.0594245
-0.0629735
-0.066462
-0.0698899
-0.0732571
-0.0765637
-0.0798103
-0.0829974
-0.0861262
-0.0891979
-0.0922142
-0.0951771
-0.0980889
-0.100952
-0.103771
-0.106547
-0.109287
-0.111993
-0.114671
-0.117327
-0.119968
-0.122599
-0.125229
-0.127866
-0.130517
-0.1332
-0.0222175
-0.0263823
-0.0304976
-0.0345615
-0.0385721
-0.0425278
-0.046427
-0.0502683
-0.0540506
-0.0577727
-0.0614339
-0.0650333
-0.0685705
-0.0720454
-0.0754578
-0.0788081
-0.0820967
-0.0853245
-0.0884926
-0.0916025
-0.0946559
-0.097655
-0.100603
-0.103501
-0.106355
-0.109168
-0.111944
-0.114689
-0.117408
-0.120107
-0.122794
-0.125477
-0.128164
-0.130865
-0.0236394
-0.0278727
-0.0320547
-0.0361836
-0.0402574
-0.0442745
-0.0482332
-0.0521323
-0.0559703
-0.0597464
-0.0634595
-0.0671091
-0.0706946
-0.0742158
-0.0776728
-0.0810659
-0.0843957
-0.087663
-0.0908691
-0.0940157
-0.0971046
-0.100138
-0.10312
-0.106052
-0.108939
-0.111786
-0.114596
-0.117377
-0.120134
-0.122874
-0.125606
-0.128338
-0.131081
-0.0250743
-0.0293766
-0.0336259
-0.0378203
-0.0419577
-0.0460365
-0.050055
-0.0540118
-0.0579057
-0.0617355
-0.0655004
-0.0691997
-0.072833
-0.0764
-0.0799008
-0.0833358
-0.0867056
-0.0900112
-0.093254
-0.0964356
-0.0995583
-0.102625
-0.105638
-0.108601
-0.11152
-0.114397
-0.11724
-0.120054
-0.122846
-0.125624
-0.128398
-0.0265214
-0.0308934
-0.0352106
-0.0394708
-0.0436722
-0.0478129
-0.0518913
-0.055906
-0.0598556
-0.0637391
-0.0675555
-0.0713041
-0.0749846
-0.0785967
-0.0821405
-0.0856163
-0.089025
-0.0923676
-0.0956454
-0.0988605
-0.102015
-0.105112
-0.108155
-0.111147
-0.114094
-0.117
-0.119871
-0.122715
-0.12554
-0.128354
-0.0279802
-0.0324225
-0.0368079
-0.0411346
-0.0454002
-0.0496031
-0.0537415
-0.057814
-0.0618193
-0.0657562
-0.0696237
-0.0734212
-0.0771483
-0.0808047
-0.0843905
-0.0879062
-0.0913525
-0.0947305
-0.0980419
-0.101289
-0.104473
-0.107598
-0.110668
-0.113687
-0.116659
-0.11959
-0.122488
-0.125359
-0.0294501
-0.0339631
-0.0384174
-0.0428107
-0.0471409
-0.0514061
-0.0556046
-0.059735
-0.0637958
-0.0677858
-0.0717041
-0.07555
-0.0793229
-0.0830228
-0.0866496
-0.090204
-0.0936866
-0.0970986
-0.100442
-0.103718
-0.10693
-0.110082
-0.113176
-0.116218
-0.119212
-0.122166
-0.0309305
-0.0355148
-0.0400382
-0.0444985
-0.0488935
-0.0532212
-0.0574799
-0.061668
-0.0657841
-0.069827
-0.0737956
-0.0776892
-0.0815074
-0.0852498
-0.0889167
-0.0925084
-0.0960259
-0.0994703
-0.102843
-0.106147
-0.109385
-0.11256
-0.115676
-0.118738
-0.121752
-0.0324207
-0.0370767
-0.0416697
-0.0461974
-0.0506573
-0.0550476
-0.0593664
-0.0636122
-0.0677834
-0.0718788
-0.0758972
-0.079838
-0.0837006
-0.0874847
-0.0911904
-0.0948183
-0.0983692
-0.101844
-0.105245
-0.108575
-0.111836
-0.115031
-0.118166
-0.0339202
-0.0386483
-0.0433112
-0.0479064
-0.0524315
-0.0568844
-0.0612634
-0.0655667
-0.0697927
-0.0739402
-0.078008
-0.0819952
-0.0859014
-0.0897262
-0.0934697
-0.0971324
-0.100715
-0.104219
-0.107646
-0.110999
-0.11428
-0.117493
-0.0354282
-0.0402288
-0.044962
-0.0496249
-0.0542153
-0.058731
-0.06317
-0.0675306
-0.0718112
-0.0760103
-0.0801269
-0.0841599
-0.0881088
-0.0919733
-0.0957533
-0.0994493
-0.103062
-0.106593
-0.110044
-0.113418
-0.0369442
-0.0418177
-0.0466213
-0.0513522
-0.0560079
-0.0605863
-0.0650853
-0.069503
-0.0738378
-0.0780882
-0.0822529
-0.0863311
-0.0903218
-0.0942248
-0.0980401
-0.101768
-0.105409
-0.108965
-0.112438
-0.0384674
-0.0434141
-0.0482885
-0.0530875
-0.0578086
-0.0624497
-0.0670085
-0.0714831
-0.0758718
-0.0801729
-0.0843852
-0.0885075
-0.0925392
-0.0964797
-0.100329
-0.104087
-0.107755
-0.0399973
-0.0450174
-0.0499627
-0.0548299
-0.0596166
-0.0643202
-0.0689387
-0.0734699
-0.0779121
-0.0822634
-0.0865226
-0.0906884
-0.09476
-0.0987367
-0.102619
-0.0415332
-0.0466269
-0.0516433
-0.0565789
-0.0614309
-0.0661971
-0.070875
-0.0754625
-0.0799577
-0.0843587
-0.0886641
-0.0928725
-0.096983
-0.0430743
-0.0482419
-0.0533294
-0.0583333
-0.0632508
-0.0680793
-0.0728164
-0.0774599
-0.0820076
-0.0864577
-0.0908086
-0.0446199
-0.0498615
-0.0550203
-0.0600926
-0.0650753
-0.069966
-0.0747621
-0.0794612
-0.0461693
-0.0514851
-0.0567154
-0.0618561
)
;

boundaryField
{
    inlet
    {
        type            zeroGradient;
    }
    outlet
    {
        type            fixedValue;
        value           nonuniform 0();
    }
    cylinder
    {
        type            zeroGradient;
    }
    top
    {
        type            symmetryPlane;
    }
    bottom
    {
        type            symmetryPlane;
    }
    defaultFaces
    {
        type            empty;
    }
    procBoundary1to0
    {
        type            processor;
        value           nonuniform List<scalar> 
52
(
0.0614805
0.0616042
0.0616994
0.0617761
0.0618412
0.0618947
0.0592606
0.0592606
0.0592679
0.0592647
0.0592523
0.0592318
0.0592045
0.0591712
0.0591332
0.0590912
0.0590462
0.058999
0.0589505
0.0589014
0.0588524
0.0588042
0.0587574
0.0587128
0.0586708
0.0586321
0.0585971
0.0585663
0.0585403
0.0585194
0.0585041
0.0584948
0.0584919
0.0584956
0.0585062
0.0585242
0.0585496
0.0585828
0.0586239
0.058673
0.0587303
0.0587959
0.0539231
0.0539231
0.0539088
0.0539013
0.0539007
0.0539069
0.0539197
0.0539392
0.0539652
0.0539974
)
;
    }
    procBoundary1to2
    {
        type            processor;
        value           nonuniform List<scalar> 
38
(
-0.0525554
-0.0527828
-0.0531957
-0.0537861
-0.0545438
-0.0554591
-0.0565235
-0.0577294
-0.0590701
-0.0605391
-0.0621309
-0.0638402
-0.0656622
-0.0675925
-0.0696268
-0.0717613
-0.0739921
-0.0763155
-0.0787279
-0.0812257