/*--------------------------------*- C++ -*----------------------------------*\
  =========                 |
  \\      /  F ield         | OpenFOAM: The Open Source CFD Toolbox
   \\    /   O peration     | Website:  https://openfoam.org
    \\  /    A nd           | Version:  7
     \\/     M anipulation  |
\*---------------------------------------------------------------------------*/
FoamFile
{
    version     2.0;
    format      ascii;
    class       volScalarField;
    location    "70";
    object      p;
}
// * * * * * * * * * * * * * * * * * * * * * * * * * * * * * * * * * * * * * //

dimensions      [0 2 -2 0 0 0 0];

internalField   nonuniform List<scalar> 
42000
(
-0.384428
-0.387726
-0.385876
-0.383056
-0.378353
-0.372493
-0.365587
-0.357876
-0.349519
-0.340665
-0.331445
-0.321975
-0.312364
-0.302711
-0.293111
-0.283647
-0.274419
-0.265405
-0.257
-0.248205
-0.384706
-0.387946
-0.386074
-0.383226
-0.378502
-0.372625
-0.365703
-0.357979
-0.34961
-0.340745
-0.331515
-0.322035
-0.312414
-0.302752
-0.293143
-0.283669
-0.274431
-0.265403
-0.257013
-0.248107
-0.385261
-0.388386
-0.386471
-0.383565
-0.378802
-0.372887
-0.365935
-0.358184
-0.349791
-0.340905
-0.331654
-0.322156
-0.312516
-0.302834
-0.293205
-0.283712
-0.274455
-0.2654
-0.257038
-0.247911
-0.386091
-0.389045
-0.387064
-0.384074
-0.37925
-0.37328
-0.366282
-0.35849
-0.350062
-0.341143
-0.331863
-0.322336
-0.312668
-0.302957
-0.293299
-0.283775
-0.27449
-0.265396
-0.257075
-0.247618
-0.387196
-0.389921
-0.387853
-0.384751
-0.379845
-0.373803
-0.366743
-0.358897
-0.350421
-0.34146
-0.33214
-0.322575
-0.312869
-0.303121
-0.293423
-0.28386
-0.274537
-0.265389
-0.257125
-0.247227
-0.388571
-0.391013
-0.388835
-0.385593
-0.380587
-0.374453
-0.367317
-0.359404
-0.350869
-0.341855
-0.332485
-0.322872
-0.313119
-0.303324
-0.293578
-0.283964
-0.274595
-0.26538
-0.257186
-0.246738
-0.390216
-0.392318
-0.39001
-0.386601
-0.381474
-0.37523
-0.368003
-0.36001
-0.351404
-0.342326
-0.332897
-0.323227
-0.313419
-0.303567
-0.293763
-0.28409
-0.274664
-0.265368
-0.25726
-0.246152
-0.392125
-0.393834
-0.391374
-0.38777
-0.382504
-0.376132
-0.368798
-0.360713
-0.352025
-0.342873
-0.333375
-0.323639
-0.313766
-0.303848
-0.293977
-0.284235
-0.274745
-0.265354
-0.257346
-0.24547
-0.394295
-0.395557
-0.392925
-0.3891
-0.383673
-0.377157
-0.369702
-0.361511
-0.35273
-0.343493
-0.333917
-0.324107
-0.31416
-0.304168
-0.294221
-0.2844
-0.274836
-0.265337
-0.257444
-0.244692
-0.396721
-0.397484
-0.394659
-0.390586
-0.384981
-0.378303
-0.370713
-0.362402
-0.353517
-0.344187
-0.334523
-0.32463
-0.314601
-0.304526
-0.294494
-0.284584
-0.274937
-0.265316
-0.257553
-0.243819
-0.399399
-0.39961
-0.396572
-0.392226
-0.386424
-0.379567
-0.371827
-0.363385
-0.354385
-0.344951
-0.335192
-0.325206
-0.315087
-0.30492
-0.294794
-0.284787
-0.275049
-0.265291
-0.257673
-0.242851
-0.402323
-0.401932
-0.398661
-0.394016
-0.387999
-0.380945
-0.373042
-0.364457
-0.355332
-0.345784
-0.33592
-0.325835
-0.315617
-0.305351
-0.295123
-0.285009
-0.275172
-0.265263
-0.257804
-0.24179
-0.405487
-0.404445
-0.400921
-0.395953
-0.389702
-0.382437
-0.374356
-0.365616
-0.356355
-0.346685
-0.336708
-0.326515
-0.316191
-0.305817
-0.295479
-0.285249
-0.275304
-0.26523
-0.257945
-0.240637
-0.408884
-0.407143
-0.403349
-0.398033
-0.39153
-0.384037
-0.375765
-0.36686
-0.357452
-0.347651
-0.337553
-0.327244
-0.316806
-0.306318
-0.295861
-0.285508
-0.275447
-0.265193
-0.258096
-0.239392
-0.412508
-0.410021
-0.405938
-0.40025
-0.39348
-0.385742
-0.377268
-0.368184
-0.358621
-0.34868
-0.338453
-0.328022
-0.317463
-0.306853
-0.29627
-0.285784
-0.275599
-0.26515
-0.258256
-0.238058
-0.416352
-0.413073
-0.408683
-0.402601
-0.395546
-0.38755
-0.37886
-0.369588
-0.359859
-0.34977
-0.339407
-0.328846
-0.31816
-0.307421
-0.296705
-0.286078
-0.275761
-0.265103
-0.258424
-0.236634
-0.420406
-0.416293
-0.411579
-0.405081
-0.397725
-0.389456
-0.380537
-0.371066
-0.361164
-0.350919
-0.340412
-0.329715
-0.318896
-0.308021
-0.297166
-0.28639
-0.275933
-0.26505
-0.258598
-0.235123
-0.424664
-0.419676
-0.414621
-0.407685
-0.400013
-0.391456
-0.382298
-0.372618
-0.362533
-0.352124
-0.341467
-0.330628
-0.319669
-0.308654
-0.297652
-0.286719
-0.276115
-0.264991
-0.258779
-0.233525
-0.429117
-0.423213
-0.417801
-0.410408
-0.402404
-0.393547
-0.384137
-0.374238
-0.363962
-0.353383
-0.342569
-0.331582
-0.320479
-0.309317
-0.298162
-0.287066
-0.276307
-0.264928
-0.258964
-0.231842
-0.433756
-0.426898
-0.421114
-0.413244
-0.404894
-0.395723
-0.386052
-0.375925
-0.36545
-0.354693
-0.343717
-0.332577
-0.321324
-0.31001
-0.298698
-0.287431
-0.27651
-0.264859
-0.259153
-0.230075
-0.438573
-0.430725
-0.424554
-0.416187
-0.407478
-0.397981
-0.388038
-0.377674
-0.366993
-0.356052
-0.344909
-0.333611
-0.322203
-0.310733
-0.299258
-0.287815
-0.276724
-0.264785
-0.259343
-0.228225
-0.443557
-0.434684
-0.428113
-0.419232
-0.410151
-0.400316
-0.390091
-0.379483
-0.368588
-0.357458
-0.346142
-0.334681
-0.323116
-0.311485
-0.299844
-0.288217
-0.27695
-0.264707
-0.259533
-0.226293
-0.448701
-0.43877
-0.431785
-0.422373
-0.412908
-0.402724
-0.392208
-0.381347
-0.370233
-0.358907
-0.347413
-0.335787
-0.32406
-0.312266
-0.300453
-0.288639
-0.277189
-0.264626
-0.259721
-0.22428
-0.453992
-0.442973
-0.435562
-0.425604
-0.415743
-0.4052
-0.394385
-0.383263
-0.371923
-0.360397
-0.348722
-0.336926
-0.325035
-0.313075
-0.301088
-0.289081
-0.277441
-0.264543
-0.259904
-0.222186
-0.459423
-0.447285
-0.439438
-0.428918
-0.418651
-0.407739
-0.396617
-0.385228
-0.373657
-0.361926
-0.350066
-0.338097
-0.326039
-0.313912
-0.301749
-0.289544
-0.277708
-0.264459
-0.260082
-0.220012
-0.464981
-0.4517
-0.443404
-0.43231
-0.421626
-0.410336
-0.398899
-0.387238
-0.37543
-0.36349
-0.351442
-0.339298
-0.327072
-0.314776
-0.302435
-0.290031
-0.277992
-0.264378
-0.26025
-0.21776
-0.470657
-0.456207
-0.447453
-0.435773
-0.424663
-0.412987
-0.401229
-0.389289
-0.37724
-0.365087
-0.352848
-0.340528
-0.328133
-0.315666
-0.303148
-0.290543
-0.278296
-0.264303
-0.260407
-0.215431
-0.47644
-0.460798
-0.451578
-0.439299
-0.427756
-0.415687
-0.403601
-0.391377
-0.379082
-0.366714
-0.354281
-0.341784
-0.329219
-0.316584
-0.303888
-0.291082
-0.278621
-0.26424
-0.260549
-0.213027
-0.482319
-0.465464
-0.455771
-0.442883
-0.430899
-0.418429
-0.406011
-0.393499
-0.380955
-0.368368
-0.35574
-0.343063
-0.33033
-0.317527
-0.304655
-0.29165
-0.278972
-0.264195
-0.260673
-0.210552
-0.488282
-0.470196
-0.460022
-0.446517
-0.434086
-0.421211
-0.408455
-0.39565
-0.382854
-0.370046
-0.357221
-0.344365
-0.331464
-0.318496
-0.305452
-0.292251
-0.279353
-0.264178
-0.260776
-0.208014
-0.494319
-0.474986
-0.464325
-0.450195
-0.437311
-0.424025
-0.410927
-0.397826
-0.384775
-0.371744
-0.358721
-0.345687
-0.332619
-0.319489
-0.306279
-0.29289
-0.27977
-0.264202
-0.260853
-0.205427
-0.500418
-0.479823
-0.468671
-0.453909
-0.440568
-0.426867
-0.413424
-0.400024
-0.386716
-0.37346
-0.360238
-0.347026
-0.333793
-0.320507
-0.307136
-0.293569
-0.28023
-0.264285
-0.260901
-0.202812
-0.506566
-0.484697
-0.473051
-0.457652
-0.443851
-0.429731
-0.41594
-0.402239
-0.388671
-0.375189
-0.361769
-0.348378
-0.334984
-0.321547
-0.308025
-0.294294
-0.280741
-0.264451
-0.260913
-0.200207
-0.512751
-0.4896
-0.477456
-0.461417
-0.447153
-0.432612
-0.418471
-0.404466
-0.390638
-0.376928
-0.363308
-0.349741
-0.33619
-0.322608
-0.308947
-0.295071
-0.281315
-0.264733
-0.260884
-0.197679
-0.518961
-0.494521
-0.481878
-0.465196
-0.450467
-0.435504
-0.421011
-0.406702
-0.392611
-0.378672
-0.364853
-0.351111
-0.337405
-0.323687
-0.3099
-0.295904
-0.281965
-0.265173
-0.260817
-0.195369
-0.525183
-0.49945
-0.486307
-0.468982
-0.453787
-0.438401
-0.423555
-0.40894
-0.394585
-0.380418
-0.366399
-0.352484
-0.338627
-0.324781
-0.310884
-0.296798
-0.282708
-0.265828
-0.260729
-0.193524
-0.531403
-0.504376
-0.490735
-0.472766
-0.457106
-0.441297
-0.426098
-0.411176
-0.396557
-0.38216
-0.367942
-0.353854
-0.339851
-0.325885
-0.311897
-0.297755
-0.28356
-0.266765
-0.260595
-0.192325
-0.537611
-0.509293
-0.495155
-0.476544
-0.46042
-0.444188
-0.428637
-0.413408
-0.398524
-0.383896
-0.369478
-0.355217
-0.34107
-0.326993
-0.312933
-0.298776
-0.284549
-0.268073
-0.260247
-0.191659
-0.543795
-0.514193
-0.499562
-0.480312
-0.463726
-0.447072
-0.431168
-0.415632
-0.400482
-0.385622
-0.371002
-0.356568
-0.34228
-0.328099
-0.313985
-0.299858
-0.285714
-0.269891
-0.259825
-0.193168
-0.549906
-0.519033
-0.503912
-0.484028
-0.466984
-0.449913
-0.433659
-0.417818
-0.402404
-0.387313
-0.372492
-0.357886
-0.343458
-0.329179
-0.315027
-0.300972
-0.287048
-0.272307
-0.261
-0.207923
-0.55585
-0.523715
-0.508111
-0.487602
-0.470112
-0.452634
-0.436041
-0.419904
-0.404233
-0.388917
-0.3739
-0.359127
-0.344565
-0.330193
-0.316013
-0.302057
-0.288431
-0.275004
-0.265109
-0.254587
-0.561837
-0.528452
-0.512369
-0.491239
-0.473301
-0.455413
-0.438475
-0.422035
-0.406099
-0.39055
-0.375327
-0.360378
-0.345671
-0.331198
-0.316982
-0.303109
-0.289737
-0.277449
-0.266901
-0.273629
-0.567783
-0.533154
-0.516599
-0.494854
-0.476471
-0.458175
-0.440893
-0.424148
-0.407945
-0.392158
-0.376726
-0.361594
-0.346735
-0.332151
-0.317882
-0.304058
-0.290837
-0.279335
-0.267055
-0.280808
-0.573638
-0.537774
-0.520753
-0.498402
-0.479581
-0.460882
-0.443259
-0.426212
-0.409741
-0.393715
-0.378069
-0.362749
-0.347731
-0.333025
-0.318682
-0.304864
-0.291693
-0.280683
-0.266914
-0.284387
-0.579389
-0.542302
-0.524824
-0.501875
-0.482624
-0.463529
-0.445568
-0.42822
-0.411481
-0.395213
-0.37935
-0.363835
-0.348649
-0.333805
-0.319365
-0.305509
-0.292301
-0.281547
-0.266633
-0.285908
-0.585024
-0.546729
-0.528803
-0.505268
-0.485595
-0.466109
-0.447814
-0.430168
-0.413159
-0.396647
-0.38056
-0.364844
-0.349477
-0.33448
-0.319916
-0.305975
-0.292661
-0.281959
-0.266098
-0.285823
-0.590529
-0.551043
-0.53268
-0.508571
-0.488485
-0.468615
-0.449991
-0.432046
-0.414768
-0.398008
-0.381692
-0.365765
-0.350206
-0.335037
-0.320322
-0.306252
-0.292771
-0.281958
-0.265292
-0.284572
-0.595886
-0.555232
-0.536443
-0.511774
-0.491284
-0.471037
-0.452088
-0.433847
-0.416298
-0.399286
-0.382735
-0.366587
-0.350823
-0.335464
-0.32057
-0.306329
-0.29263
-0.281582
-0.264234
-0.2825
-0.601082
-0.559282
-0.54008
-0.514865
-0.493981
-0.473365
-0.454095
-0.43556
-0.417739
-0.400471
-0.383678
-0.3673
-0.351317
-0.335749
-0.320651
-0.306201
-0.292242
-0.280864
-0.262941
-0.279831
-0.6061
-0.563181
-0.543578
-0.517833
-0.496567
-0.475591
-0.456005
-0.437177
-0.419082
-0.401554
-0.384511
-0.367893
-0.351677
-0.335881
-0.320554
-0.305862
-0.29161
-0.279834
-0.261425
-0.276712
-0.610924
-0.566915
-0.546927
-0.520667
-0.49903
-0.477702
-0.457806
-0.438686
-0.420316
-0.402523
-0.385224
-0.368355
-0.351892
-0.335851
-0.320272
-0.305309
-0.290736
-0.278517
-0.259696
-0.273247
-0.615538
-0.57047
-0.550111
-0.523356
-0.50136
-0.47969
-0.459488
-0.440079
-0.421432
-0.403369
-0.385805
-0.368674
-0.351951
-0.335648
-0.319797
-0.304538
-0.289626
-0.276933
-0.257764
-0.269509
-0.619926
-0.573832
-0.55312
-0.525887
-0.503545
-0.481542
-0.46104
-0.441343
-0.422417
-0.40408
-0.386243
-0.36884
-0.351844
-0.335262
-0.319122
-0.303547
-0.288281
-0.275097
-0.255637
-0.265551
-0.624071
-0.576987
-0.555938
-0.528248
-0.505574
-0.483248
-0.462451
-0.442467
-0.423261
-0.404644
-0.386527
-0.368842
-0.351559
-0.334685
-0.31824
-0.302334
-0.286705
-0.273024
-0.253322
-0.261412
-0.627957
-0.57992
-0.558552
-0.530426
-0.507433
-0.484795
-0.463708
-0.44344
-0.423951
-0.40505
-0.386645
-0.368668
-0.351088
-0.333908
-0.317145
-0.300895
-0.2849
-0.270724
-0.250822
-0.257118
-0.631565
-0.582617
-0.560949
-0.532408
-0.509112
-0.486171
-0.464801
-0.44425
-0.424476
-0.405286
-0.386585
-0.368306
-0.350418
-0.332922
-0.31583
-0.29923
-0.282868
-0.268204
-0.24814
-0.252689
-0.634879
-0.585062
-0.563114
-0.53418
-0.510595
-0.487363
-0.465716
-0.444883
-0.424824
-0.405339
-0.386336
-0.367747
-0.349541
-0.331719
-0.314291
-0.297334
-0.280608
-0.26547
-0.245278
-0.248138
-0.637881
-0.587241
-0.565032
-0.53573
-0.511872
-0.488359
-0.46644
-0.445329
-0.424981
-0.405197
-0.385885
-0.366978
-0.348447
-0.330291
-0.31252
-0.295206
-0.278122
-0.262527
-0.242235
-0.243474
-0.640554
-0.589137
-0.566689
-0.537043
-0.512926
-0.489145
-0.466961
-0.445572
-0.424935
-0.404848
-0.385221
-0.365989
-0.347125
-0.32863
-0.310513
-0.292843
-0.275409
-0.259376
-0.239011
-0.238701
-0.642879
-0.590735
-0.568069
-0.538105
-0.513746
-0.489708
-0.467264
-0.4456
-0.424672
-0.404278
-0.384331
-0.364768
-0.345566
-0.326727
-0.308264
-0.290241
-0.272468
-0.256019
-0.235605
-0.233822
-0.644839
-0.592019
-0.569158
-0.538901
-0.514317
-0.490034
-0.467337
-0.4454
-0.42418
-0.403476
-0.383204
-0.363305
-0.34376
-0.324576
-0.305768
-0.287398
-0.269298
-0.252456
-0.232015
-0.228837
-0.646415
-0.592973
-0.56994
-0.539416
-0.514624
-0.490108
-0.467165
-0.444958
-0.423445
-0.402428
-0.381827
-0.361589
-0.341699
-0.322169
-0.303019
-0.284311
-0.265898
-0.248687
-0.228237
-0.223746
-0.647589
-0.593581
-0.570399
-0.539637
-0.514653
-0.489917
-0.466734
-0.444259
-0.422453
-0.401121
-0.380189
-0.359609
-0.339373
-0.319499
-0.300012
-0.280976
-0.262266
-0.244712
-0.224271
-0.218544
-0.648342
-0.593826
-0.57052
-0.539547
-0.51439
-0.489445
-0.46603
-0.443291
-0.421192
-0.399544
-0.378278
-0.357355
-0.336774
-0.316559
-0.296742
-0.27739
-0.258399
-0.240528
-0.220112
-0.21323
-0.648656
-0.593693
-0.570286
-0.539132
-0.513818
-0.488679
-0.465039
-0.442038
-0.419648
-0.397682
-0.376083
-0.354817
-0.333893
-0.313343
-0.293205
-0.27355
-0.254297
-0.236135
-0.215759
-0.2078
-0.648513
-0.593164
-0.569682
-0.538375
-0.512924
-0.487603
-0.463745
-0.440488
-0.417807
-0.395525
-0.373592
-0.351986
-0.330723
-0.309844
-0.289396
-0.269454
-0.249957
-0.23153
-0.211209
-0.202248
-0.647895
-0.592224
-0.568692
-0.537263
-0.511691
-0.486202
-0.462136
-0.438626
-0.415657
-0.39306
-0.370795
-0.348851
-0.327256
-0.306057
-0.285312
-0.265098
-0.245376
-0.226712
-0.20646
-0.196571
-0.646783
-0.590856
-0.5673
-0.535779
-0.510106
-0.484463
-0.460195
-0.436438
-0.413184
-0.390274
-0.367682
-0.345405
-0.323484
-0.301976
-0.280947
-0.26048
-0.240554
-0.22168
-0.20151
-0.190765
-0.645158
-0.589044
-0.565489
-0.533909
-0.508153
-0.48237
-0.45791
-0.433911
-0.410376
-0.387158
-0.364241
-0.341639
-0.3194
-0.297595
-0.276299
-0.255598
-0.235489
-0.216431
-0.196357
-0.184825
-0.643004
-0.586772
-0.563245
-0.531636
-0.505817
-0.479908
-0.455265
-0.431031
-0.40722
-0.383698
-0.360464
-0.337544
-0.315
-0.292912
-0.271364
-0.250449
-0.23018
-0.210965
-0.191
-0.178747
-0.640302
-0.584023
-0.560552
-0.528946
-0.503083
-0.477064
-0.452248
-0.427786
-0.403705
-0.379885
-0.356341
-0.333113
-0.310276
-0.28792
-0.266139
-0.245032
-0.224625
-0.20528
-0.185438
-0.172527
-0.637034
-0.580782
-0.557394
-0.525825
-0.499938
-0.473823
-0.448844
-0.424162
-0.399818
-0.375709
-0.351864
-0.328339
-0.305223
-0.282617
-0.260624
-0.239346
-0.218824
-0.199376
-0.179671
-0.166162
-0.633183
-0.577034
-0.553756
-0.522257
-0.496365
-0.470172
-0.445041
-0.420149
-0.39555
-0.37116
-0.347025
-0.323216
-0.299837
-0.276999
-0.254814
-0.233389
-0.212776
-0.193252
-0.173698
-0.159648
-0.62873
-0.572763
-0.549623
-0.518228
-0.492353
-0.466096
-0.440826
-0.415732
-0.390889
-0.366228
-0.341815
-0.317738
-0.294113
-0.271064
-0.24871
-0.227161
-0.206481
-0.186909
-0.167519
-0.152985
-0.623659
-0.567954
-0.54498
-0.513725
-0.487886
-0.461584
-0.436186
-0.410903
-0.385825
-0.360906
-0.336229
-0.3119
-0.288049
-0.26481
-0.242309
-0.220663
-0.19994
-0.180345
-0.161135
-0.146169
-0.617948
-0.562593
-0.539813
-0.508732
-0.482952
-0.456621
-0.431109
-0.405648
-0.380348
-0.355185
-0.33026
-0.305698
-0.281641
-0.258234
-0.235613
-0.213893
-0.193153
-0.173563
-0.154547
-0.139198
-0.611583
-0.556666
-0.53411
-0.503239
-0.477537
-0.451196
-0.425585
-0.399959
-0.374451
-0.349058
-0.323903
-0.299127
-0.274886
-0.251337
-0.22862
-0.206854
-0.186122
-0.166563
-0.147756
-0.132073
-0.60456
-0.550175
-0.527869
-0.497241
-0.47164
-0.445305
-0.419608
-0.393831
-0.368129
-0.342522
-0.317156
-0.292186
-0.267786
-0.244119
-0.221332
-0.199546
-0.178848
-0.159347
-0.140765
-0.124791
-0.596865
-0.543115
-0.521084
-0.490734
-0.465251
-0.438939
-0.41317
-0.387257
-0.361376
-0.335573
-0.310014
-0.284874
-0.260338
-0.236579
-0.21375
-0.191971
-0.171334
-0.151916
-0.133575
-0.117354
-0.588327
-0.535355
-0.513646
-0.483624
-0.458294
-0.432036
-0.406221
-0.380195
-0.354159
-0.328184
-0.30246
-0.277177
-0.252535
-0.228715
-0.205872
-0.18413
-0.16358
-0.144272
-0.126189
-0.109763
-0.578594
-0.526603
-0.505316
-0.475716
-0.450609
-0.424465
-0.398655
-0.372562
-0.346413
-0.320308
-0.294457
-0.26907
-0.244358
-0.220513
-0.197692
-0.176019
-0.155585
-0.136417
-0.118609
-0.102017
-0.568651
-0.517616
-0.49671
-0.467511
-0.442603
-0.416555
-0.390736
-0.364568
-0.338305
-0.312073
-0.286104
-0.260628
-0.235866
-0.212016
-0.189241
-0.16766
-0.147365
-0.128359
-0.110842
-0.0941197
-0.558162
-0.50811
-0.487588
-0.458808
-0.43411
-0.408169
-0.382352
-0.356123
-0.329762
-0.303423
-0.277361
-0.25182
-0.227035
-0.20321
-0.180508
-0.159047
-0.138918
-0.120098
-0.102888
-0.0860714
-0.54696
-0.497954
-0.477846
-0.449522
-0.425058
-0.399248
-0.373457
-0.34719
-0.320756
-0.294337
-0.26821
-0.242637
-0.217861
-0.194091
-0.171493
-0.150182
-0.130245
-0.111637
-0.0947515
-0.0778742
-0.535038
-0.487149
-0.467483
-0.43965
-0.415446
-0.389791
-0.364049
-0.337768
-0.311288
-0.284818
-0.258656
-0.233081
-0.208346
-0.184665
-0.162202
-0.14107
-0.121351
-0.102981
-0.0864362
-0.0695307
-0.522403
-0.475704
-0.456506
-0.429196
-0.405275
-0.3798
-0.354129
-0.32786
-0.301359
-0.274867
-0.248702
-0.223157
-0.198496
-0.174935
-0.152638
-0.131714
-0.112241
-0.0941322
-0.0779465
-0.061044
-0.50905
-0.463616
-0.44491
-0.418157
-0.394542
-0.369271
-0.343695
-0.317464
-0.290971
-0.264487
-0.238351
-0.21287
-0.188315
-0.164907
-0.142808
-0.122121
-0.102919
-0.0850966
-0.0692873
-0.0524174
-0.494972
-0.450881
-0.432691
-0.406529
-0.383245
-0.358201
-0.332746
-0.306579
-0.280125
-0.25368
-0.227606
-0.202223
-0.177809
-0.154587
-0.132716
-0.112296
-0.0933913
-0.075879
-0.0604635
-0.0436544
-0.480167
-0.437497
-0.419847
-0.394309
-0.37138
-0.34659
-0.321282
-0.295208
-0.268822
-0.24245
-0.216472
-0.191221
-0.166984
-0.143981
-0.12237
-0.102244
-0.0836633
-0.0664843
-0.0514804
-0.0347592
-0.464634
-0.423462
-0.406377
-0.381495
-0.358946
-0.334438
-0.309303
-0.283352
-0.257066
-0.2308
-0.204954
-0.179872
-0.155845
-0.133095
-0.111775
-0.0919733
-0.073741
-0.0569179
-0.0423427
-0.0257361
-0.448375
-0.408777
-0.392281
-0.368089
-0.345946
-0.321745
-0.296812
-0.271014
-0.244862
-0.218738
-0.193059
-0.168181
-0.1444
-0.121937
-0.100939
-0.0814892
-0.0636308
-0.0471857
-0.0330569
-0.0165861
-0.431391
-0.393444
-0.37756
-0.354092
-0.332379
-0.308514
-0.283813
-0.2582
-0.232215
-0.206268
-0.180793
-0.156157
-0.132657
-0.110514
-0.0898694
-0.0707993
-0.0533393
-0.0372953
-0.0236401
-0.00730154
-0.413689
-0.377466
-0.362217
-0.339505
-0.318249
-0.294748
-0.270309
-0.244914
-0.219131
-0.193399
-0.168166
-0.143808
-0.120625
-0.098834
-0.0785736
-0.0599108
-0.042873
-0.0272525
-0.0141112
0.00210797
-0.395274
-0.360849
-0.346257
-0.324334
-0.30356
-0.280453
-0.256306
-0.231163
-0.205619
-0.180138
-0.155185
-0.131142
-0.108311
-0.0869067
-0.0670602
-0.0488317
-0.0322389
-0.0170579
-0.00438587
0.0115497
-0.376154
-0.343597
-0.329684
-0.308582
-0.288319
-0.265634
-0.241811
-0.216954
-0.191686
-0.166495
-0.141859
-0.118169
-0.0957262
-0.074741
-0.055338
-0.03757
-0.0214454
-0.00673824
0.00546622
0.0211041
-0.356338
-0.325718
-0.312506
-0.292257
-0.27253
-0.250299
-0.226833
-0.202298
-0.177343
-0.15248
-0.128201
-0.1049
-0.0828802
-0.0623464
-0.0434161
-0.0261344
-0.0104997
0.00371641
0.0154239
0.0307631
-0.335839
-0.307222
-0.294731
-0.275367
-0.256203
-0.234456
-0.21138
-0.187203
-0.162599
-0.138103
-0.114219
-0.0913459
-0.0697838
-0.0497332
-0.0313041
-0.0145337
0.000589647
0.0142978
0.0254893
0.0405126
-0.314669
-0.288118
-0.276369
-0.257921
-0.239347
-0.218116
-0.195464
-0.171681
-0.147467
-0.123378
-0.099927
-0.0775179
-0.056448
-0.036912
-0.0190118
-0.002777
0.0118141
0.0249967
0.0356583
0.0503444
-0.292842
-0.268419
-0.257431
-0.239929
-0.221973
-0.201289
-0.179095
-0.155744
-0.131958
-0.108315
-0.0853366
-0.0634283
-0.0428847
-0.0238938
-0.00654963
0.0091261
0.0231648
0.0358047
0.0459239
0.0602514
-0.270374
-0.248137
-0.237929
-0.221404
-0.204093
-0.183988
-0.162286
-0.139405
-0.116087
-0.0929286
-0.0704611
-0.04909
-0.029106
-0.0106902
0.00607178
0.0211658
0.034633
0.0467137
0.056279
0.0702264
-0.247283
-0.227287
-0.217878
-0.202359
-0.18572
-0.166225
-0.145052
-0.122678
-0.0998667
-0.0772332
-0.0553145
-0.0345163
-0.0151245
0.00268706
0.0188414
0.0333319
0.0462093
0.057715
0.0667162
0.0802616
-0.223588
-0.205886
-0.197292
-0.182808
-0.166868
-0.148017
-0.127407
-0.105578
-0.0833134
-0.0612434
-0.0399112
-0.0197212
-0.000953557
0.0162256
0.0317478
0.045614
0.0578841
0.0687999
0.0772278
0.0903491
-0.199309
-0.18395
-0.17619
-0.162768
-0.147555
-0.129379
-0.109369
-0.0881205
-0.0664423
-0.044975
-0.0242664
-0.00471893
0.0133934
0.0299128
0.0447793
0.0580013
0.0696475
0.0799592
0.0878061
0.100481
-0.174469
-0.1615
-0.154588
-0.142256
-0.127796
-0.110329
-0.0909569
-0.0703199
-0.0492707
-0.0284444
-0.00839582
0.0104755
0.0279024
0.0437356
0.0579238
0.0704826
0.0814895
0.0911835
0.0984428
0.110648
-0.149092
-0.138554
-0.132506
-0.121291
-0.107611
-0.0908834
-0.0721757
-0.0522071
-0.0318162
-0.0116685
0.00768435
0.0258467
0.042559
0.0576806
0.071169
0.0830466
0.0933996
0.102463
0.109129
0.120842
-0.123201
-0.115136
-0.109966
-0.0998921
-0.0870188
-0.0710628
-0.053058
-0.0337888
-0.0140968
0.00533514
0.0239573
0.0413789
0.0573484
0.0717341
0.0845022
0.0956817
0.105367
0.113788
0.119857
0.131052
-0.096824
-0.0912662
-0.0869884
-0.0780811
-0.0660401
-0.0508879
-0.0336216
-0.0150863
0.0038684
0.0225482
0.0404059
0.057056
0.0722556
0.0858822
0.0979104
0.108376
0.117381
0.125148
0.130618
0.14127
-0.0699879
-0.0669701
-0.0635975
-0.0558803
-0.0446972
-0.0303798
-0.0138864
0.00387888
0.0220595
0.039952
0.0570124
0.0728614
0.0872652
0.100111
0.11138
0.121117
0.129429
0.136533
0.141402
0.151481
-0.0427177
-0.0422759
-0.0398175
-0.0333133
-0.023013
-0.00956087
0.00612589
0.0230854
0.0404564
0.0575273
0.0737586
0.0887781
0.102361
0.114405
0.124899
0.133892
0.141501
0.14793
0.1522
0.161675
-0.0150378
-0.0172153
-0.0156744
-0.0104044
-0.00101162
0.0115453
0.0263923
0.0425114
0.059038
0.0752544
0.0906262
0.104789
0.117529
0.12875
0.138452
0.146689
0.153584
0.159329
0.163003
0.171836
0.0129912
0.00821018
0.00880536
0.0128203
0.0212819
0.0329145
0.0468895
0.0621344
0.0777831
0.093113
0.107596
0.120877
0.13275
0.143131
0.152026
0.159495
0.165667
0.170718
0.173802
0.181946
0.0413644
0.0339497
0.0335935
0.0363342
0.0438415
0.0545214
0.067593
0.0819313
0.0966697
0.111083
0.12465
0.137024
0.148011
0.157534
0.165608
0.172297
0.177737
0.182083
0.184588
0.191983
0.070048
0.0599752
0.0586614
0.0601094
0.0666402
0.0763399
0.088478
0.101878
0.115675
0.129143
0.141768
0.153212
0.163293
0.171942
0.179182
0.185082
0.189782
0.193414
0.195352
0.201922
0.099007
0.0862583
0.0839795
0.084117
0.0896501
0.0983433
0.109519
0.121951
0.134778
0.147272
0.15893
0.169424
0.17858
0.186342
0.192735
0.197837
0.201789
0.204697
0.206087
0.211725
0.12821
0.112768
0.109517
0.108328
0.112843
0.120504
0.130689
0.142125
0.153953
0.165449
0.176117
0.185641
0.193857
0.200717
0.206254
0.210549
0.213745
0.21592
0.216787
0.221347
0.157627
0.139475
0.135245
0.132712
0.136189
0.142795
0.151963
0.162375
0.173179
0.183651
0.193309
0.201845
0.209106
0.215052
0.219723
0.223205
0.225639
0.227069
0.227446
0.230723
0.187225
0.166341
0.161127
0.157236
0.159659
0.165186
0.173313
0.182675
0.192431
0.201858
0.210486
0.218017
0.224311
0.229334
0.233131
0.235794
0.237457
0.238137
0.238077
0.239777
0.216946
0.193309
0.187113
0.181856
0.18321
0.187642
0.194706
0.202997
0.211683
0.220046
0.227627
0.23414
0.239454
0.243546
0.246462
0.248302
0.249188
0.249122
0.248724
0.248399
0.246753
0.220331
0.213159
0.206533
0.206809
0.210129
0.216112
0.223313
0.23091
0.238192
0.244712
0.250195
0.254521
0.257674
0.259705
0.260719
0.260818
0.260024
0.259371
0.256357
0.276906
0.247585
0.239386
0.231346
0.230503
0.232675
0.237543
0.243623
0.250105
0.256284
0.261725
0.266166
0.269494
0.271702
0.272845
0.27303
0.272338
0.270827
0.269715
0.262838
0.307991
0.275502
0.266099
0.256509
0.254437
0.255371
0.259052
0.263954
0.269276
0.274319
0.278657
0.282038
0.284358
0.285614
0.285866
0.285222
0.283746
0.281528
0.279424
0.266284
0.338089
0.30273
0.292299
0.281288
0.278077
0.277835
0.280371
0.284121
0.2883
0.292216
0.295456
0.29778
0.299094
0.299401
0.298765
0.297299
0.295054
0.292168
0.289732
0.275123
0.367799
0.329715
0.31831
0.305914
0.301583
0.300174
0.301564
0.30416
0.307192
0.309977
0.312116
0.313381
0.313687
0.313046
0.311525
0.309242
0.306247
0.302704
0.299986
0.285459
0.397375
0.356626
0.344243
0.33046
0.324998
0.322408
0.32264
0.324069
0.325943
0.327589
0.328621
0.328825
0.328123
0.326534
0.324131
0.321036
0.317304
0.313104
0.309912
0.295579
0.426776
0.383408
0.370048
0.354881
0.348281
0.344503
0.343567
0.34382
0.344528
0.345029
0.344952
0.344092
0.342384
0.339851
0.33657
0.332668
0.328204
0.323354
0.319583
0.305316
0.455941
0.409999
0.395671
0.379129
0.371391
0.36642
0.36431
0.363382
0.362921
0.362274
0.361087
0.359167
0.356454
0.352981
0.348829
0.344125
0.338934
0.333435
0.32905
0.314798
0.484832
0.43636
0.421074
0.403167
0.394293
0.388128
0.384842
0.382729
0.381097
0.379303
0.377008
0.37403
0.370319
0.365911
0.360892
0.355392
0.349479
0.343334
0.338309
0.324055
0.513413
0.462454
0.446221
0.426962
0.416954
0.409597
0.405133
0.401836
0.399033
0.396095
0.392696
0.388665
0.383961
0.378627
0.372749
0.366459
0.359828
0.353036
0.347357
0.333076
0.541647
0.488242
0.471075
0.450477
0.439342
0.430795
0.425156
0.420677
0.416706
0.412627
0.40813
0.403054
0.397366
0.391113
0.384385
0.377313
0.369969
0.362533
0.35619
0.341859
0.569496
0.513688
0.495598
0.473678
0.461422
0.451692
0.444882
0.439224
0.434092
0.42888
0.423294
0.417181
0.410519
0.403358
0.395789
0.387943
0.379893
0.371815
0.364807
0.350403
0.596919
0.538753
0.519756
0.49653
0.483163
0.472257
0.464282
0.457455
0.451168
0.444833
0.438167
0.43103
0.423405
0.415347
0.406949
0.398339
0.389591
0.380876
0.373205
0.35871
0.623877
0.5634
0.54351
0.518999
0.504532
0.492461
0.48333
0.475342
0.467913
0.460466
0.452732
0.444584
0.43601
0.427068
0.417852
0.408489
0.399052
0.389707
0.38138
0.36678
0.650329
0.587592
0.566825
0.54105
0.525496
0.512273
0.501999
0.492862
0.484303
0.475758
0.466972
0.457827
0.448319
0.438507
0.428488
0.418385
0.408269
0.398302
0.389329
0.374612
0.676238
0.611291
0.589666
0.562649
0.546024
0.531664
0.520261
0.509991
0.500317
0.49069
0.480869
0.470744
0.460318
0.449654
0.438846
0.428016
0.417234
0.406654
0.397047
0.382203
0.701562
0.634463
0.611997
0.583764
0.566086
0.550606
0.538091
0.526705
0.515934
0.505244
0.494406
0.48332
0.471995
0.460495
0.448916
0.437374
0.425939
0.414759
0.404532
0.389552
0.726265
0.65707
0.633785
0.604363
0.585651
0.569071
0.555463
0.54298
0.531134
0.5194
0.507566
0.495541
0.483336
0.47102
0.458687
0.44645
0.434377
0.422608
0.411777
0.396656
0.750309
0.679079
0.654995
0.624412
0.604689
0.587032
0.572352
0.558795
0.545895
0.533141
0.520335
0.507391
0.494329
0.481217
0.468149
0.455234
0.44254
0.430198
0.41878
0.403512
0.773656
0.700454
0.675594
0.643882
0.623171
0.604461
0.588734
0.574127
0.560198
0.546449
0.532695
0.518858
0.504961
0.491075
0.477292
0.46372
0.450421
0.437521
0.425535
0.410118
0.79627
0.721163
0.69555
0.662742
0.641068
0.621333
0.604585
0.588955
0.574024
0.559308
0.544632
0.529927
0.51522
0.500584
0.486109
0.471898
0.458013
0.444573
0.432037
0.416469
0.818116
0.741172
0.714832
0.680962
0.658354
0.637622
0.619882
0.603258
0.587355
0.5717
0.556131
0.540586
0.525096
0.509734
0.494589
0.479762
0.465311
0.451347
0.438283
0.422563
0.83916
0.760451
0.733409
0.698514
0.675002
0.653304
0.634603
0.617017
0.600173
0.583611
0.567178
0.550822
0.534576
0.518514
0.502724
0.487302
0.472306
0.457839
0.444267
0.428395
0.85937
0.778968
0.751251
0.71537
0.690985
0.668356
0.648726
0.630212
0.612461
0.595024
0.577761
0.560624
0.543651
0.526916
0.510506
0.494514
0.478994
0.464042
0.449985
0.433963
0.878713
0.796693
0.768331
0.731503
0.70628
0.682754
0.662232
0.642825
0.624202
0.605925
0.587865
0.569979
0.55231
0.534931
0.517927
0.501388
0.485367
0.469953
0.455433
0.439263
0.897159
0.8136
0.784621
0.746889
0.720862
0.696477
0.6751
0.654838
0.63538
0.6163
0.597478
0.578878
0.560543
0.542549
0.52498
0.50792
0.491421
0.475565
0.460605
0.444291
0.91468
0.829659
0.800094
0.761501
0.734709
0.709505
0.687312
0.666234
0.645981
0.626136
0.606589
0.587308
0.568342
0.549764
0.531656
0.514101
0.497149
0.480874
0.465499
0.449044
0.931246
0.844847
0.814727
0.775318
0.747799
0.721818
0.698849
0.676998
0.65599
0.63542
0.615186
0.595262
0.575697
0.556566
0.53795
0.519928
0.502547
0.485876
0.470108
0.453518
0.946833
0.859137
0.828494
0.788317
0.760112
0.733396
0.709696
0.687114
0.665394
0.64414
0.623258
0.602728
0.5826
0.562949
0.543855
0.525392
0.507608
0.490566
0.47443
0.457711
0.961415
0.872507
0.841375
0.800477
0.771628
0.744223
0.719836
0.696568
0.674181
0.652285
0.630797
0.609698
0.589043
0.568906
0.549364
0.53049
0.51233
0.494939
0.478461
0.461618
0.974968
0.884935
0.853347
0.811779
0.782329
0.754281
0.729254
0.705347
0.682337
0.659845
0.637792
0.616165
0.595019
0.574429
0.554472
0.535216
0.516706
0.498992
0.482196
0.465237
0.987473
0.896401
0.864393
0.822205
0.792199
0.763556
0.737936
0.713439
0.689853
0.666809
0.644234
0.62212
0.600522
0.579514
0.559173
0.539565
0.520732
0.50272
0.485633
0.468565
0.998907
0.906886
0.874493
0.831737
0.801222
0.772034
0.74587
0.720831
0.696718
0.673169
0.650117
0.627556
0.605544
0.584155
0.563463
0.543532
0.524405
0.506121
0.488767
0.4716
1.00925
0.916372
0.88363
0.84036
0.809383
0.7797
0.753044
0.727514
0.702923
0.678916
0.655431
0.632467
0.61008
0.588346
0.567337