/*--------------------------------*- C++ -*----------------------------------*\
  =========                 |
  \\      /  F ield         | OpenFOAM: The Open Source CFD Toolbox
   \\    /   O peration     | Website:  https://openfoam.org
    \\  /    A nd           | Version:  7
     \\/     M anipulation  |
\*---------------------------------------------------------------------------*/
FoamFile
{
    version     2.0;
    format      ascii;
    class       volVectorField;
    location    "50";
    object      U;
}
// * * * * * * * * * * * * * * * * * * * * * * * * * * * * * * * * * * * * * //

dimensions      [0 1 -1 0 0 0 0];

internalField   nonuniform List<vector> 
656
(
(0.551749 -0.00233946 3.14304e-22)
(0.564601 -0.00223146 -2.40957e-22)
(0.577229 -0.00212587 -1.62551e-22)
(0.589622 -0.002023 -1.659e-23)
(0.601774 -0.00192312 7.85297e-23)
(0.613677 -0.00182644 4.04213e-22)
(0.625326 -0.0017331 -3.53609e-22)
(0.636719 -0.00164324 -1.17141e-22)
(0.647853 -0.00155692 7.72736e-23)
(0.658727 -0.00147418 -3.25886e-23)
(0.669343 -0.00139504 7.36963e-23)
(0.679699 -0.00131948 -5.16188e-23)
(0.689802 -0.00124744 -2.34708e-23)
(0.699648 -0.00117888 -3.86238e-23)
(0.709251 -0.00111365 3.37998e-23)
(0.718598 -0.00105178 2.5534e-23)
(0.727724 -0.000992858 7.67623e-23)
(0.736575 -0.000937392 -6.84026e-24)
(0.745265 -0.000883894 -2.39238e-24)
(0.753599 -0.000834917 3.11766e-23)
(0.76194 -0.000784855 4.30903e-24)
(0.769645 -0.000744133 1.72276e-23)
(0.77787 -0.000691821 7.97602e-24)
(0.784561 -0.000666768 1.02102e-23)
(0.793345 -0.000595506 1.60196e-25)
(0.797813 -0.000605925 -5.5794e-24)
(0.809048 -0.000487575 -6.6285e-25)
(0.554634 -0.00699599 2.22978e-21)
(0.567358 -0.0066733 -3.21099e-22)
(0.579862 -0.00635781 -5.46914e-22)
(0.592136 -0.00605044 -2.19934e-22)
(0.604172 -0.00575198 1.02218e-23)
(0.615963 -0.00546304 -1.67459e-22)
(0.627505 -0.0051841 7.02264e-22)
(0.638794 -0.00491552 -4.64456e-22)
(0.649828 -0.00465752 5.40674e-22)
(0.660607 -0.00441024 7.81941e-23)
(0.67113 -0.00417368 -1.11291e-22)
(0.681398 -0.00394781 -5.8632e-23)
(0.691416 -0.00373245 2.20449e-23)
(0.701182 -0.00352748 4.89374e-23)
(0.710707 -0.00333245 -1.69538e-22)
(0.719979 -0.0031475 -3.93485e-23)
(0.729035 -0.00297131 1.35439e-23)
(0.737818 -0.00280547 9.53588e-23)
(0.746443 -0.00264549 1.0379e-23)
(0.754714 -0.00249905 -1.28076e-22)
(0.762996 -0.00234932 1.62325e-23)
(0.770646 -0.00222756 -7.48099e-24)
(0.778815 -0.00207106 8.1764e-24)
(0.785459 -0.00199621 1.322e-23)
(0.794188 -0.00178296 -6.37902e-25)
(0.798623 -0.00181422 -4.4117e-24)
(0.809793 -0.0014603 1.10033e-24)
(0.560368 -0.0115856 -2.16127e-21)
(0.572838 -0.0110522 1.52378e-23)
(0.585097 -0.0105306 2.57733e-21)
(0.597133 -0.0100224 -5.6058e-22)
(0.608939 -0.00952886 2.36021e-22)
(0.620509 -0.00905102 1.64457e-22)
(0.631837 -0.00858967 -2.5845e-22)
(0.64292 -0.00814541 -4.82376e-22)
(0.653757 -0.00771861 -1.93043e-22)
(0.664345 -0.00730949 4.5422e-22)
(0.674685 -0.00691808 -4.06794e-22)
(0.684778 -0.00654432 -4.67746e-22)
(0.694628 -0.00618792 2.60499e-23)
(0.704233 -0.00584869 1.09072e-22)
(0.713604 -0.00552589 3.02436e-22)
(0.722729 -0.00521972 2.02222e-22)
(0.731643 -0.00492805 -2.53047e-22)
(0.740291 -0.00465348 -3.49416e-23)
(0.748787 -0.00438858 1.39469e-22)
(0.756936 -0.00414611 -1.1618e-22)
(0.7651 -0.00389809 -9.40145e-23)
(0.772639 -0.00369653 -6.23316e-23)
(0.780699 -0.00343713 -5.77868e-23)
(0.787247 -0.00331339 4.05163e-23)
(0.795869 -0.00295979 -1.93885e-25)
(0.800236 -0.00301189 -2.73853e-23)
(0.811277 -0.00242576 3.18724e-23)
(0.568875 -0.0160648 -1.6871e-21)
(0.580971 -0.0153272 -6.66716e-23)
(0.592866 -0.0146059 8.34171e-22)
(0.604551 -0.0139029 5.54595e-22)
(0.616018 -0.0132201 -8.19455e-22)
(0.627259 -0.0125589 -6.71224e-23)
(0.638271 -0.0119204 8.12612e-24)
(0.64905 -0.0113054 -2.7343e-22)
(0.659593 -0.0107145 9.34479e-22)
(0.6699 -0.010148 -5.39937e-22)
(0.67997 -0.00960601 5.54869e-23)
(0.689803 -0.00908834 -2.33577e-22)
(0.699404 -0.00859465 1.50838e-22)
(0.70877 -0.0081247 1.06744e-22)
(0.717913 -0.00767742 -4.83146e-22)
(0.726819 -0.00725316 -2.60577e-22)
(0.735524 -0.00684891 -1.42812e-23)
(0.743973 -0.00646835 -1.62625e-23)
(0.752278 -0.00610109 1.86134e-22)
(0.760245 -0.00576497 2.12831e-22)
(0.768233 -0.00542092 1.46696e-22)
(0.775609 -0.00514159 1.38791e-22)
(0.783506 -0.00478143 -6.7799e-23)
(0.789914 -0.00461027 -3.12402e-23)
(0.798375 -0.004119 -8.22036e-24)
(0.802642 -0.00419195 -2.63893e-24)
(0.813491 -0.00337918 8.20804e-23)
(0.580048 -0.0203924 2.06447e-22)
(0.591654 -0.0194596 1.8701e-21)
(0.603074 -0.0185472 -2.2357e-21)
(0.614299 -0.0176577 4.22592e-22)
(0.625321 -0.0167935 -3.11233e-21)
(0.636134 -0.0159564 1.84379e-21)
(0.646732 -0.015148 -2.07311e-21)
(0.657112 -0.0143692 1.7784e-21)
(0.667272 -0.0136207 1.14394e-21)
(0.677209 -0.012903 -1.86699e-21)
(0.686925 -0.0122161 -9.42499e-23)
(0.696419 -0.01156 3.56258e-22)
(0.705694 -0.0109342 5.2161e-22)
(0.714747 -0.0103383 -5.34358e-22)
(0.723591 -0.00977114 3.97981e-22)
(0.732211 -0.00923305 1.19587e-22)
(0.740642 -0.00872023 2.77503e-22)
(0.748829 -0.00823743 -4.3784e-22)
(0.756883 -0.00777131 -4.73305e-23)
(0.764613 -0.00734482 -2.34537e-22)
(0.772371 -0.00690786 1.37911e-24)
(0.779533 -0.00655355 -1.21722e-22)
(0.787216 -0.00609557 1.24246e-22)
(0.793438 -0.00587906 -2.81509e-23)
(0.801689 -0.00525383 -1.34574e-23)
(0.805825 -0.00534762 8.4409e-23)
(0.816422 -0.00431583 -1.80084e-23)
(0.593746 -0.0245297 2.49596e-21)
(0.604754 -0.0234129 -3.76192e-21)
(0.615595 -0.0223201 8.73667e-22)
(0.626259 -0.0212545 1.46565e-21)
(0.636738 -0.0202189 5.77816e-22)
(0.647027 -0.0192155 -7.80731e-22)
(0.657121 -0.0182461 -7.15246e-22)
(0.667015 -0.017312 -6.9174e-22)
(0.676706 -0.016414 2.16077e-21)
(0.686194 -0.0155527 -7.38796e-22)
(0.695478 -0.0147283 -1.14846e-21)
(0.704556 -0.0139406 -8.46609e-22)
(0.713433 -0.013189 1.74086e-21)
(0.722105 -0.0124734 -1.14349e-21)
(0.730583 -0.011792 1.09563e-21)
(0.738853 -0.0111454 -8.5463e-23)
(0.746949 -0.010529 1.41974e-22)
(0.754816 -0.00994868 1.5368e-22)
(0.762563 -0.00938812 1.80034e-22)
(0.770001 -0.00887537 1.97037e-23)
(0.777479 -0.0083494 -1.19541e-23)
(0.784378 -0.00792361 -5.45791e-24)
(0.7918 -0.00737154 -2.03963e-22)
(0.797796 -0.00711224 1.04632e-22)
(0.805787 -0.00635774 3.21542e-23)
(0.809764 -0.00647233 -5.20437e-23)
(0.820051 -0.00523114 -9.55658e-23)
(0.609798 -0.0284411 -3.02538e-21)
(0.620109 -0.0271538 5.48541e-22)
(0.630275 -0.0258935 6.70308e-21)
(0.640286 -0.0246641 -8.44289e-22)
(0.650134 -0.0234687 -2.0737e-21)
(0.659813 -0.0223101 1.3694e-21)
(0.669319 -0.0211904 7.27458e-22)
(0.678646 -0.020111 -3.89048e-22)
(0.687792 -0.0190732 1.7454e-21)
(0.696755 -0.0180774 -1.52628e-21)
(0.705535 -0.0171239 4.12565e-22)
(0.714129 -0.0162127 -8.37428e-22)
(0.722542 -0.015343 4.27726e-22)
(0.730768 -0.0145147 1.22194e-21)
(0.73882 -0.0137258 -1.21374e-21)
(0.746681 -0.0129771 1.1451e-22)
(0.754386 -0.0122631 4.03634e-22)
(0.761879 -0.0115908 -1.51972e-22)
(0.769268 -0.010941 -6.23901e-22)
(0.776365 -0.0103469 3.35417e-22)
(0.783514 -0.00973659 5.56163e-23)
(0.790107 -0.00924348 2.93795e-23)
(0.797222 -0.00860174 1.39274e-22)
(0.802954 -0.00830267 -1.99048e-22)
(0.810643 -0.00742451 4.88265e-24)
(0.814434 -0.00755985 -2.58485e-23)
(0.824357 -0.00612065 4.53003e-23)
(0.628006 -0.0320955 3.91604e-21)
(0.637533 -0.0306527 1.24886e-21)
(0.646939 -0.0292394 -3.8336e-22)
(0.656215 -0.02786 -9.46968e-22)
(0.665352 -0.0265182 6.48778e-21)
(0.674345 -0.0252171 -3.26435e-21)
(0.683188 -0.0239591 -1.32735e-21)
(0.691877 -0.0227459 -8.80264e-22)
(0.700409 -0.021579 7.49072e-22)
(0.708781 -0.0204589 3.15453e-22)
(0.716992 -0.0193861 -2.61749e-22)
(0.725041 -0.0183605 9.6272e-22)
(0.732929 -0.0173814 -9.53867e-22)
(0.740653 -0.0164486 -2.69655e-22)
(0.748222 -0.0155598 -1.33765e-22)
(0.755622 -0.0147162 6.39096e-22)
(0.762885 -0.0139113 1.55688e-22)
(0.769956 -0.0131534 -3.28957e-22)
(0.77694 -0.0124204 6.74398e-22)
(0.783652 -0.0117504 -5.34105e-22)
(0.790429 -0.0110611 -3.94674e-23)
(0.796675 -0.0105054 1.1037e-23)
(0.803444 -0.00977907 -7.99918e-23)
(0.808877 -0.00944368 3.17044e-23)
(0.816221 -0.00844831 1.59257e-23)
(0.819803 -0.00860428 7.76229e-23)
(0.829313 -0.00698011 -1.24029e-22)
(0.64815 -0.0354656 7.1083e-21)
(0.656818 -0.0338841 -4.82849e-21)
(0.665391 -0.0323338 5.26723e-22)
(0.67386 -0.0308197 -1.99898e-21)
(0.682218 -0.0293461 9.63035e-23)
(0.690458 -0.0279163 6.52659e-21)
(0.698575 -0.0265332 -6.28506e-21)
(0.706563 -0.0251988 8.07803e-22)
(0.714421 -0.0239146 1.77423e-21)
(0.722143 -0.0226816 -1.79067e-23)
(0.72973 -0.0215001 5.42885e-22)
(0.737179 -0.0203702 -2.40635e-22)
(0.744491 -0.0192911 6.92308e-22)
(0.751663 -0.0182627 -1.45021e-21)
(0.758702 -0.0172826 1.17208e-22)
(0.765594 -0.0163519 -3.31504e-22)
(0.77237 -0.0154637 5.27659e-22)
(0.778976 -0.0146271 -4.66725e-22)
(0.785514 -0.0138174 -1.83095e-22)
(0.791801 -0.0130778 1.07137e-23)
(0.798168 -0.0123153 -6.02441e-23)
(0.804032 -0.0117023 1.12032e-22)
(0.810418 -0.010897 3.91847e-23)
(0.815521 -0.0105291 -8.61586e-23)
(0.822486 -0.00942375 -2.29189e-23)
(0.825837 -0.00960018 2.66474e-23)
(0.83489 -0.00780544 7.10751e-23)
(0.669993 -0.0385294 2.1314e-21)
(0.677739 -0.036827 2.95787e-21)
(0.685419 -0.0351568 -5.84543e-21)
(0.693023 -0.0335245 1.45744e-21)
(0.700544 -0.0319345 -2.5489e-21)
(0.707976 -0.030391 5.99198e-22)
(0.715312 -0.0288969 -1.4498e-21)
(0.722549 -0.0274547 2.58076e-21)
(0.729681 -0.026066 -1.63176e-21)
(0.736706 -0.024732 4.3396e-21)
(0.743621 -0.0234532 -2.68666e-21)
(0.750425 -0.0222298 1.0598e-21)
(0.757117 -0.0210609 -4.35276e-22)
(0.763693 -0.0199465 -1.83338e-22)
(0.770162 -0.018884 3.46184e-22)
(0.776506 -0.0178749 4.3961e-22)
(0.782758 -0.0169113 -7.94201e-22)
(0.788861 -0.0160037 3.22371e-22)
(0.794917 -0.0151244 -4.15787e-23)
(0.800747 -0.0143217 -3.54271e-23)
(0.806671 -0.0134925 -1.02348e-22)
(0.812122 -0.0128278 -5.32318e-23)
(0.818094 -0.0119498 8.04945e-23)
(0.822842 -0.0115534 1.91514e-23)
(0.829394 -0.0103459 -1.32545e-23)
(0.832498 -0.0105426 -6.46003e-23)
(0.841053 -0.00859284 -1.96197e-23)
(0.693284 -0.0412696 -3.93631e-21)
(0.700059 -0.0394652 6.16722e-21)
(0.706797 -0.0376931 -5.66639e-21)
(0.71349 -0.0359595 -1.12688e-21)
(0.72013 -0.0342697 -1.22313e-22)
(0.726709 -0.0326278 3.10453e-21)
(0.733223 -0.0310375 -1.28056e-21)
(0.739666 -0.0295015 4.34456e-21)
(0.746033 -0.0280216 -7.23507e-22)
(0.752322 -0.0265993 -2.474e-21)
(0.758528 -0.0252352 7.16594e-22)
(0.764649 -0.0239295 -2.48186e-21)
(0.770686 -0.0226815 1.34472e-21)
(0.776632 -0.0214912 1.5245e-22)
(0.782497 -0.0203559 -5.62218e-22)
(0.788261 -0.0192772 -4.6511e-22)
(0.793957 -0.0182467 -2.84336e-22)
(0.799528 -0.0172759 2.17671e-22)
(0.805074 -0.0163347 1.89462e-23)
(0.810418 -0.015476 2.11199e-22)
(0.815871 -0.0145867 3.13718e-22)
(0.820885 -0.0138763 2.74932e-24)
(0.826416 -0.0129321 -9.26861e-23)
(0.830788 -0.0125115 1.96138e-22)
(0.836901 -0.0112105 4.43855e-23)
(0.839743 -0.011427 -6.86474e-23)
(0.847767 -0.00933875 1.82945e-22)
(0.717763 -0.0436744 -4.46866e-21)
(0.723531 -0.0417872 5.85093e-21)
(0.729294 -0.0399317 -2.89399e-21)
(0.735042 -0.0381146 5.26914e-21)
(0.740768 -0.0363415 -1.83177e-22)
(0.746464 -0.0346173 -5.91233e-21)
(0.752124 -0.0329459 -2.10257e-22)
(0.757743 -0.0313304 1.87392e-21)
(0.763316 -0.029773 -7.13611e-22)
(0.768838 -0.0282753 7.23431e-22)
(0.774307 -0.026838 1.37409e-22)
(0.779718 -0.0254617 1.11632e-21)
(0.785073 -0.0241456 -9.67825e-22)
(0.790363 -0.0228897 6.85577e-22)
(0.795598 -0.0216914 1.53764e-21)
(0.800758 -0.0205525 2.91981e-22)
(0.805874 -0.0194638 1.80872e-22)
(0.81089 -0.0184382 -6.20506e-22)
(0.815902 -0.0174427 4.21426e-22)
(0.820739 -0.0165352 4.60926e-22)
(0.825701 -0.0155931 -2.47354e-22)
(0.830257 -0.0148432 7.38104e-23)
(0.835327 -0.0138397 -1.04238e-23)
(0.839306 -0.0133993 -3.7108e-24)
(0.844957 -0.0120136 1.39363e-23)
(0.847528 -0.0122495 7.07603e-23)
(0.854993 -0.0100399 -1.40778e-23)
(0.743166 -0.0457372 -3.699e-21)
(0.747907 -0.0437869 1.16287e-20)
(0.752673 -0.0418665 -7.78394e-22)
(0.757456 -0.0399834 -6.45007e-21)
(0.762248 -0.038144 2.80015e-21)
(0.76704 -0.0363534 1.19944e-21)
(0.771827 -0.0346162 -1.98991e-21)
(0.776603 -0.0329356 2.26658e-21)
(0.781362 -0.0313144 1.02001e-21)
(0.786099 -0.0297543 -9.04903e-22)
(0.790812 -0.0282563 1.23679e-21)
(0.795495 -0.026821 -5.55662e-22)
(0.800149 -0.0254479 -1.7497e-21)
(0.804765 -0.0241371 9.56957e-22)
(0.809352 -0.0228856 -1.85129e-22)
(0.813891 -0.0216959 -4.54984e-22)
(0.81841 -0.0205579 3.71816e-22)
(0.822855 -0.0194859 -4.96301e-22)
(0.827318 -0.0184442 -3.69116e-23)
(0.831632 -0.0174954 -1.85125e-22)
(0.836086 -0.0165075 1.42523e-22)
(0.840171 -0.0157245 -2.48963e-22)
(0.844765 -0.0146689 2.17117e-22)
(0.84834 -0.0142131 -2.71159e-22)
(0.853512 -0.0127521 2.94253e-23)
(0.855807 -0.0130068 -3.22962e-23)
(0.862689 -0.0106934 -1.53928e-22)
(0.772937 -0.0454627 5.17722e-21)
(0.776699 -0.0434958 -2.22264e-21)
(0.780509 -0.0415643 -1.18026e-21)
(0.784358 -0.0396751 -2.46374e-21)
(0.788239 -0.037834 -2.3401e-21)
(0.792144 -0.0360459 4.60402e-21)
(0.796067 -0.0343146 -1.63281e-21)
(0.800003 -0.0326431 -1.86295e-21)
(0.803947 -0.0310335 1.36228e-21)
(0.807894 -0.029487 -1.68053e-21)
(0.811839 -0.0280045 1.27309e-21)
(0.815783 -0.0265853 -5.44752e-22)
(0.819716 -0.02523 1.33854e-21)
(0.823646 -0.0239354 -1.83753e-21)
(0.827553 -0.0227043 4.08766e-22)
(0.831466 -0.0215259 5.35761e-22)
(0.835329 -0.0204159 -1.04972e-22)
(0.839233 -0.0193359 -4.82876e-22)
(0.843015 -0.0183533 4.72401e-22)
(0.846953 -0.0173271 3.95341e-22)
(0.850558 -0.0165174 -3.4234e-22)
(0.854666 -0.0154169 -8.93661e-23)
(0.85783 -0.0149501 -1.23292e-22)
(0.862513 -0.0134235 2.64134e-23)
(0.864528 -0.0136963 6.64224e-23)
(0.870813 -0.0112966 3.98997e-24)
(0.798376 -0.0468176 -7.10582e-21)
(0.80114 -0.0448221 -6.31569e-22)
(0.803981 -0.0428592 -4.00648e-21)
(0.806892 -0.0409363 2.23462e-21)
(0.809864 -0.0390601 1.33112e-21)
(0.812889 -0.0372357 -1.45442e-21)
(0.815962 -0.0354676 1.01787e-21)
(0.819076 -0.0337591 2.64893e-21)
(0.822225 -0.0321125 1.80611e-21)
(0.825406 -0.0305295 -2.88303e-21)
(0.828613 -0.029011 2.0988e-21)
(0.831845 -0.0275567 -3.03142e-21)
(0.835093 -0.0261671 6.86901e-22)
(0.838363 -0.0248392 3.39689e-22)
(0.841637 -0.0235758 9.59887e-22)
(0.84494 -0.022366 -5.38263e-22)
(0.848219 -0.0212262 -6.68207e-22)
(0.851561 -0.020116 2.56265e-22)
(0.854808 -0.019107 -2.63845e-22)
(0.858226 -0.0180497 -1.11896e-22)
(0.861349 -0.0172197 -2.46077e-22)
(0.864967 -0.0160818 2.17795e-22)
(0.867718 -0.0156083 7.47847e-23)
(0.871905 -0.0140259 1.4516e-23)
(0.873643 -0.0143158 -2.30225e-23)
(0.879319 -0.0118472 3.86791e-23)
(0.823991 -0.0478579 8.98815e-21)
(0.825773 -0.045851 -1.01406e-24)
(0.827661 -0.0438729 -9.92267e-22)
(0.829648 -0.041932 -3.94413e-21)
(0.831724 -0.0400352 3.4039e-21)
(0.833882 -0.0381887 2.17509e-21)
(0.836115 -0.0363971 1.26232e-23)
(0.838417 -0.0346642 -3.10502e-21)
(0.840781 -0.0329929 -1.08033e-22)
(0.843204 -0.0313849 -4.83614e-23)
(0.84568 -0.0298414 2.32591e-21)
(0.848206 -0.0283624 1.06397e-21)
(0.850774 -0.0269486 -9.13742e-22)
(0.85339 -0.0255968 1.047e-21)
(0.856034 -0.0243103 5.86574e-22)
(0.858732 -0.0230775 -1.73667e-21)
(0.861431 -0.0219163 7.10266e-22)
(0.864214 -0.0207835 2.73105e-22)
(0.866929 -0.0197554 -4.18208e-22)
(0.869828 -0.0186744 -3.03695e-23)
(0.872472 -0.0178303 -1.16317e-23)
(0.8756 -0.0166623 -1.96224e-22)
(0.877943 -0.0161862 7.96961e-23)
(0.881632 -0.0145579 2.81177e-24)
(0.883099 -0.014864 1.96236e-23)
(0.888163 -0.0123434 -4.76397e-24)
(0.849558 -0.0485949 -5.70206e-21)
(0.850385 -0.0465927 1.20195e-20)
(0.851347 -0.0446148 -1.30985e-20)
(0.852434 -0.0426703 3.9215e-21)
(0.853637 -0.040767 -3.2103e-21)
(0.854949 -0.0389114 2.8136e-21)
(0.856362 -0.0371089 2.22596e-21)
(0.85787 -0.0353637 -4.44297e-21)
(0.859467 -0.033679 3.43871e-21)
(0.861148 -0.0320569 -8.7665e-22)
(0.862907 -0.030499 -1.1224e-21)
(0.864742 -0.0290052 -2.29076e-21)
(0.866643 -0.0275767 9.59436e-22)
(0.868616 -0.02621 2.36868e-21)
(0.870642 -0.0249091 -2.1747e-21)
(0.872745 -0.0236617 1.30456e-21)
(0.874872 -0.0224867 -7.89283e-22)
(0.877105 -0.0213391 -4.35056e-23)
(0.879296 -0.020299 -8.26011e-24)
(0.881685 -0.0192011 2.2726e-22)
(0.883856 -0.0183489 2.00322e-22)
(0.886502 -0.0171581 3.70265e-23)
(0.888444 -0.0166834 -1.82731e-22)
(0.89164 -0.0150191 1.25113e-22)
(0.892844 -0.0153401 -8.67114e-23)
(0.897296 -0.0127836 -3.32131e-23)
(0.874869 -0.0490551 1.05714e-21)
(0.87478 -0.0470713 3.72454e-21)
(0.874851 -0.0451067 2.10782e-21)
(0.875071 -0.043171 9.61154e-21)
(0.875433 -0.0412729 -4.69227e-21)
(0.875928 -0.0394197 3.26378e-21)
(0.876549 -0.0376171 8.76691e-22)
(0.87729 -0.03587 -3.48836e-21)
(0.878144 -0.0341819 -9.5391e-22)
(0.879106 -0.0325553 5.66761e-22)
(0.880169 -0.0309921 -5.09852e-22)
(0.881332 -0.0294924 1.39091e-21)
(0.882586 -0.0280576 -2.18739e-22)
(0.883935 -0.0266843 -6.7142e-22)
(0.885359 -0.0253768 1.55685e-21)
(0.886882 -0.0241222 -7.57348e-22)
(0.888454 -0.0229408 8.55336e-22)
(0.89015 -0.0217852 -5.08174e-22)
(0.891831 -0.0207395 6.35339e-23)
(0.893722 -0.0196316 -1.53637e-22)
(0.895434 -0.0187768 2.14258e-22)
(0.897607 -0.0175703 -7.08792e-23)
(0.899161 -0.0171002 -1.95108e-23)
(0.901872 -0.0154099 -5.46722e-23)
(0.902827 -0.0157438 5.61092e-23)
(0.906674 -0.0131671 -1.2645e-23)
(0.899737 -0.0492721 1.32605e-20)
(0.898777 -0.0473178 -3.98331e-21)
(0.897999 -0.0453767 4.17573e-21)
(0.897394 -0.0434597 1.37485e-21)
(0.896953 -0.0415762 -9.03246e-21)
(0.896668 -0.0397342 6.63308e-21)
(0.896532 -0.0379402 1.78875e-21)
(0.896538 -0.0361994 -8.59984e-22)
(0.896679 -0.0345159 -6.01259e-22)
(0.896951 -0.0328926 2.31039e-21)
(0.897347 -0.0313317 5.0012e-22)
(0.897865 -0.0298335 -1.67886e-21)
(0.898496 -0.0283995 -1.14814e-22)
(0.899243 -0.0270266 8.14889e-23)
(0.900088 -0.0257193 -2.05725e-22)
(0.901053 -0.0244641 -3.90703e-22)
(0.902089 -0.0232826 2.8146e-22)
(0.903267 -0.0221254 8.81288e-22)
(0.904457 -0.0210801 -5.91684e-22)
(0.905867 -0.0199682 4.05256e-22)
(0.907137 -0.0191158 -7.74624e-23)
(0.908853 -0.0179003 -1.75237e-22)
(0.910035 -0.0174377 1.81019e-22)
(0.912274 -0.0157315 -1.67077e-23)
(0.912995 -0.0160751 6.02794e-24)
(0.916248 -0.013493 2.78259e-23)
(0.923992 -0.0491833 1.19137e-20)
(0.922213 -0.0472768 -2.0411e-20)
(0.920637 -0.0453762 6.79061e-21)
(0.919254 -0.0434936 -2.20972e-21)
(0.918055 -0.0416393 7.74918e-24)
(0.917032 -0.0398221 5.18231e-22)
(0.916179 -0.0380494 4.68231e-21)
(0.915489 -0.036327 8.53921e-23)
(0.914954 -0.0346595 1.93467e-21)
(0.914571 -0.0330503 -2.39904e-21)
(0.914332 -0.0315018 -1.91555e-21)
(0.914236 -0.0300147 7.02297e-22)
(0.914273 -0.0285909 2.18871e-22)
(0.914447 -0.027227 1.96796e-21)
(0.914739 -0.0259282 -1.40506e-21)
(0.915171 -0.0246806 -9.74636e-23)
(0.915696 -0.0235066 -8.92397e-23)
(0.91638 -0.0223549 2.57082e-23)
(0.917101 -0.0213169 4.68388e-22)
(0.918052 -0.0202077 -1.99958e-22)
(0.9189 -0.0193639 -9.51148e-23)
(0.920179 -0.0181462 8.96783e-23)
(0.921008 -0.0176955 -8.45869e-23)
(0.922793 -0.0159818 -1.97875e-23)
(0.9233 -0.0163365 -1.26174e-23)
(0.925973 -0.0137586 -9.75443e-25)
(0.941727 -0.0486908 0)
(0.939428 -0.046849 0)
(0.937342 -0.0450067 0)
(0.935458 -0.0431766 0)
(0.933768 -0.0413698 0)
(0.932265 -0.0395956 0)
(0.930941 -0.0378619 0)
(0.92979 -0.036175 0)
(0.928805 -0.0345399 0)
(0.927981 -0.0329603 0)
(0.927313 -0.0314389 0)
(0.926797 -0.0299768 0)
(0.926425 -0.028576 0)
(0.9262 -0.0272332 0)
(0.926105 -0.025954 0)
(0.926159 -0.024724 0)
(0.926318 -0.0235669 0)
(0.926645 -0.0224295 0)
(0.927022 -0.0214067 0)
(0.927632 -0.0203077 0)
(0.928166 -0.019479 0)
(0.929112 -0.0182654 0)
(0.929671 -0.0178328 0)
(0.931101 -0.0161155 0)
(0.931438 -0.0164919 0)
(0.93365 -0.0139135 0)
(0.954955 -0.0482221 0)
(0.952292 -0.0464318 0)
(0.949846 -0.0446368 0)
(0.947608 -0.0428503 0)
(0.945569 -0.0410835 0)
(0.943721 -0.0393462 0)
(0.942058 -0.0376465 0)
(0.940574 -0.035991 0)
(0.93926 -0.0343849 0)
(0.938114 -0.032832 0)
(0.937129 -0.0313354 0)
(0.936302 -0.029896 0)
(0.935625 -0.0285164 0)
(0.935101 -0.027193 0)
(0.934712 -0.025932 0)
(0.934479 -0.0247181 0)
(0.934356 -0.0235767 0)
(0.934407 -0.0224522 0)
(0.934517 -0.0214434 0)
(0.93486 -0.0203536 0)
(0.935145 -0.0195385 0)
(0.935826 -0.0183289 0)
(0.936168 -0.0179121 0)
(0.937314 -0.0161918 0)
(0.937505 -0.0165883 0)
(0.939353 -0.0140084 0)
(0.968608 -0.0476662 0)
(0.965583 -0.045932 0)
(0.962778 -0.0441888 0)
(0.960186 -0.0424501 0)
(0.957797 -0.0407275 0)
(0.955605 -0.0390311 0)
(0.953601 -0.0373693 0)
(0.951781 -0.0357488 0)
(0.950137 -0.0341752 0)
(0.948665 -0.0326525 0)
(0.947359 -0.0311839 0)
(0.946217 -0.0297704 0)
(0.94523 -0.0284148 0)
(0.944402 -0.0271135 0)
(0.943714 -0.0258733 0)
(0.943187 -0.024678 0)
(0.942778 -0.0235546 0)
(0.942546 -0.0224453 0)
(0.942383 -0.0214524 0)
(0.942452 -0.0203739 0)
(0.942481 -0.0195741 0)
(0.94289 -0.0183705 0)
(0.943008 -0.0179706 0)
(0.94386 -0.0162501 0)
(0.943901 -0.0166662 0)
(0.94537 -0.0140899 0)
(0.982661 -0.0470171 0)
(0.979278 -0.0453442 0)
(0.976119 -0.0436577 0)
(0.973175 -0.0419714 0)
(0.970439 -0.0402974 0)
(0.967902 -0.038646 0)
(0.965558 -0.0370259 0)
(0.963402 -0.0354442 0)
(0.961426 -0.0339067 0)
(0.959627 -0.0324174 0)
(0.957999 -0.03098 0)
(0.956539 -0.0295955 0)
(0.955239 -0.0282669 0)
(0.954103 -0.0269905 0)
(0.953113 -0.0257736 0)
(0.952288 -0.0245996 0)
(0.951587 -0.0234966 0)
(0.951066 -0.0224048 0)
(0.950625 -0.02143 0)
(0.950413 -0.020365 0)
(0.950181 -0.019582 0)
(0.95031 -0.0183874 0)
(0.950199 -0.0180045 0)
(0.950748 -0.0162886 0)
(0.950636 -0.0167212 0)
(0.951712 -0.0141568 0)
(0.997079 -0.0462636 0)
(0.993345 -0.0446577 0)
(0.989838 -0.0430332 0)
(0.986549 -0.0414043 0)
(0.983469 -0.0397837 0)
(0.980592 -0.0381818 0)
(0.977912 -0.0366079 0)
(0.975421 -0.0350691 0)
(0.973115 -0.0335715 0)
(0.97099 -0.0321195 0)
(0.969039 -0.0307168 0)
(0.967261 -0.0293647 0)
(0.965646 -0.0280664 0)
(0.9642 -0.026818 0)
(0.962906 -0.0256276 0)
(0.961779 -0.0244776 0)
(0.960784 -0.0233977 0)
(0.959971 -0.0223262 0)
(0.809048 0.000487576 6.26807e-25)
)
;

boundaryField
{
    inlet
    {
        type            uniformFixedValue;
        uniformValue    constant (1 0 0);
        value           nonuniform 0();
    }
    outlet
    {
        type            pressureInletOutletVelocity;
        value           nonuniform List<vector> 
25
(
(0.93365 -0.0139135 0)
(0.939353 -0.0140084 0)
(0.94537 -0.0140899 0)
(0.951712 -0.0141568 0)
(0.809048 -0.000487575 -6.6285e-25)
(0.809793 -0.0014603 1.10033e-24)
(0.811277 -0.00242576 3.18724e-23)
(0.813491 -0.00337918 8.20804e-23)
(0.816422 -0.00431583 -1.80084e-23)
(0.820051 -0.00523114 -9.55658e-23)
(0.824357 -0.00612065 4.53003e-23)
(0.829313 -0.00698011 -1.24029e-22)
(0.83489 -0.00780544 7.10751e-23)
(0.841053 -0.00859284 -1.96197e-23)
(0.847767 -0.00933875 1.82945e-22)
(0.854993 -0.0100399 -1.40778e-23)
(0.862689 -0.0106934 -1.53928e-22)
(0.870813 -0.0112966 3.98997e-24)
(0.879319 -0.0118472 3.86791e-23)
(0.888163 -0.0123434 -4.76397e-24)
(0.897296 -0.0127836 -3.32131e-23)
(0.906674 -0.0131671 -1.2645e-23)
(0.916248 -0.013493 2.78259e-23)
(0.925973 -0.0137586 -9.75443e-25)
(0.809048 0.000487576 6.26807e-25)
)
;
    }
    cylinder
    {
        type            fixedValue;
        value           nonuniform 0();
    }
    top
    {
        type            symmetryPlane;
    }
    bottom
    {
        type            symmetryPlane;
    }
    defaultFaces
    {
        type            empty;
    }
    procBoundary11to7
    {
        type            processor;
        value           nonuniform List<vector> 
28
(
(0.551749 0.00233946 -3.94978e-22)
(0.564601 0.00223146 1.27427e-22)
(0.577229 0.00212587 -5.43359e-23)
(0.589622 0.002023 6.88677e-23)
(0.601774 0.00192312 5.55131e-23)
(0.613677 0.00182644 -4.29692e-22)
(0.625326 0.0017331 2.03661e-22)
(0.636719 0.00164324 -6.99643e-23)
(0.647853 0.00155692 -9.30945e-23)
(0.658727 0.00147418 -5.13038e-23)
(0.669343 0.00139504 -1.93458e-23)
(0.679699 0.00131948 -3.91914e-23)
(0.689802 0.00124744 3.6397e-23)
(0.699648 0.00117888 -4.01167e-23)
(0.709251 0.00111365 9.53056e-23)
(0.718598 0.00105178 4.17497e-23)
(0.727724 0.000992858 1.99458e-23)
(0.736575 0.000937392 -4.62121e-23)
(0.745265 0.000883894 3.44377e-23)
(0.753599 0.000834917 2.64541e-23)
(0.76194 0.000784855 8.02079e-24)
(0.769645 0.000744133 6.58603e-24)
(0.77787 0.000691821 9.68993e-24)
(0.784561 0.000666768 7.53436e-24)
(0.793345 0.000595506 6.68111e-25)
(0.797813 0.000605926 -5.35135e-24)
(0.809793 0.0014603 1.7421e-24)
(0.797813 0.000605926 -5.35135e-24)
)
;
    }
    procBoundary11to10
    {
        type            processor;
        value           nonuniform List<vector> 
25
(
(0.538685 -0.00244952 -4.60431e-23)
(0.541702 -0.0073248 1.65756e-21)
(0.547696 -0.012129 -1.48127e-21)
(0.556589 -0.0168161 -1.72674e-21)
(0.568268 -0.0213423 9.65624e-22)
(0.582582 -0.0256664 -2.8716e-21)
(0.599351 -0.0297509 2.89753e-21)
(0.618366 -0.0335625 8.17525e-21)
(0.639397 -0.0370726 5.76565e-21)
(0.662191 -0.0402576 7.30903e-21)
(0.686483 -0.0430994 -1.0696e-20)
(0.711999 -0.0455855 4.54115e-21)
(0.738461 -0.0477092 9.58366e-21)
(0.769231 -0.0474569 -3.57481e-22)
(0.769231 -0.0474569 -3.57481e-22)
(0.7957 -0.0488369 -8.31573e-21)
(0.822326 -0.0498841 1.05041e-20)
(0.848874 -0.0506109 -2.77673e-21)
(0.875128 -0.0510466 1.17498e-20)
(0.90089 -0.0512273 1.20412e-21)
(0.925984 -0.0510822 7.26998e-21)
(0.944249 -0.0505177 0)
(0.957845 -0.0499929 0)
(0.971865 -0.0493762 0)
(0.986278 -0.0486606 0)
)
;
    }
    procBoundary11to14
    {
        type            processor;
        value           uniform (1.00105 -0.0478348 0);
    }
    procBoundary11to15
    {
        type            processor;
        value           nonuniform List<vector> 
27
(
(0.959246 -0.0213717 0)
(0.958749 -0.0203231 0)
(0.958251 -0.0195585 0)
(0.958092 -0.0183761 0)
(0.957748 -0.0180103 0)
(0.957984 -0.0163043 0)
(0.957717 -0.0167501 0)
(0.958386 -0.0142065 0)
(1.01182 -0.0453985 0)
(1.00775 -0.0438651 0)
(1.0039 -0.0423079 0)
(1.00027 -0.0407418 0)
(0.99686 -0.0391794 0)
(0.99365 -0.0376318 0)
(0.990638 -0.0361085 0)
(0.987818 -0.034617 0)
(0.985186 -0.0331636 0)
(0.982737 -0.0317528 0)
(0.980466 -0.0303887 0)
(0.97837 -0.0290726 0)
(0.976443 -0.0278081 0)
(0.974687 -0.0265911 0)
(0.973086 -0.0254303 0)
(0.971658 -0.0243075 0)
(0.970365 -0.0232534 0)
(0.959246 -0.0213717 0)
(0.969257 -0.0222052 0)
)
;
    }
}


// ************************************************************************* //
