/*--------------------------------*- C++ -*----------------------------------*\
  =========                 |
  \\      /  F ield         | OpenFOAM: The Open Source CFD Toolbox
   \\    /   O peration     | Website:  https://openfoam.org
    \\  /    A nd           | Version:  7
     \\/     M anipulation  |
\*---------------------------------------------------------------------------*/
FoamFile
{
    version     2.0;
    format      ascii;
    class       volVectorField;
    location    "15";
    object      U;
}
// * * * * * * * * * * * * * * * * * * * * * * * * * * * * * * * * * * * * * //

dimensions      [0 1 -1 0 0 0 0];

internalField   nonuniform List<vector> 
2625
(
(1.12282 0.0525351 7.66282e-21)
(1.11831 0.0533556 -1.6016e-21)
(1.11895 0.0716631 -1.83965e-20)
(1.11382 0.0541573 -4.75073e-20)
(1.10937 0.0549355 -7.99701e-21)
(1.10495 0.0556856 5.58655e-20)
(1.10058 0.0564028 9.07447e-21)
(1.09625 0.0570829 -5.88052e-20)
(1.09198 0.0577214 -5.17224e-21)
(1.08776 0.0583142 4.19594e-20)
(1.0836 0.0588575 -9.84277e-21)
(1.07951 0.0593473 3.63629e-21)
(1.07548 0.0597803 8.89814e-20)
(1.05984 0.0515976 1.22097e-19)
(1.06337 0.0512316 1.29908e-19)
(1.06698 0.0508092 -9.07554e-20)
(1.07067 0.050334 -1.13383e-19)
(1.07444 0.0498094 9.68364e-20)
(1.07828 0.0492393 2.57271e-21)
(1.0822 0.0486277 4.37731e-20)
(1.08618 0.0479786 -9.65364e-22)
(1.09023 0.0472965 1.61885e-20)
(1.09434 0.0465858 4.10746e-20)
(1.09852 0.0458509 -8.88668e-21)
(1.10274 0.0450964 5.47955e-20)
(1.10703 0.0443268 -1.14908e-20)
(1.11136 0.0435468 -5.4766e-21)
(1.11573 0.0427606 1.5706e-20)
(1.12014 0.0419726 -1.029e-20)
(1.05982 0.0506802 -5.54018e-20)
(1.06334 0.0503239 1.30909e-20)
(1.06693 0.0499131 6.39905e-20)
(1.07061 0.049451 4.86914e-20)
(1.07436 0.0489411 -2.9527e-20)
(1.07819 0.048387 -1.80736e-20)
(1.08209 0.0477926 -1.34011e-20)
(1.08606 0.0471619 -9.1179e-21)
(1.0901 0.046499 2.39758e-20)
(1.0942 0.0458082 -1.07179e-20)
(1.09837 0.0450938 4.43755e-20)
(1.10259 0.0443603 -2.98465e-20)
(1.10687 0.0436121 8.52058e-22)
(1.1112 0.0428535 2.00968e-20)
(1.11557 0.0420887 -2.00882e-20)
(1.11997 0.0413219 5.70527e-21)
(1.0564 0.0500942 -4.81872e-20)
(1.05982 0.0498001 -6.27617e-20)
(1.06331 0.0494507 -1.13795e-19)
(1.06689 0.0490487 9.99359e-21)
(1.07055 0.0485973 -4.69637e-20)
(1.07428 0.0480996 -4.43535e-20)
(1.0781 0.0475592 2.72221e-20)
(1.08199 0.0469798 -1.44871e-20)
(1.08595 0.0463651 -1.06361e-21)
(1.08998 0.0457194 -4.36879e-20)
(1.09407 0.0450465 -2.7641e-20)
(1.09823 0.0443508 -2.18579e-20)
(1.10245 0.0436365 1.50695e-21)
(1.10672 0.0429078 -1.80355e-20)
(1.11104 0.042169 -2.53404e-20)
(1.11541 0.0414241 1.73162e-20)
(1.11981 0.0406771 -2.01962e-20)
(1.05645 0.0492212 -1.56422e-20)
(1.05984 0.0489307 1.76437e-20)
(1.06331 0.0485869 1.30781e-19)
(1.06687 0.0481925 -4.08325e-20)
(1.07051 0.0477504 4.00516e-20)
(1.07423 0.0472638 1.31791e-20)
(1.07803 0.046736 -2.93109e-20)
(1.0819 0.0461704 -1.11544e-20)
(1.08585 0.0455709 -2.54116e-20)
(1.08987 0.0449413 5.23554e-21)
(1.09396 0.0442856 1.38254e-20)
(1.09811 0.0436078 4.17439e-21)
(1.10232 0.0429119 1.65513e-20)
(1.10658 0.0422021 2.34405e-20)
(1.1109 0.0414825 -5.0154e-21)
(1.11526 0.0407569 -9.80432e-21)
(1.11966 0.0400293 1.02765e-20)
(1.05651 0.0483595 -2.81225e-20)
(1.05988 0.0480711 3.18866e-20)
(1.06333 0.0477317 -3.90341e-20)
(1.06687 0.0473437 -1.69174e-20)
(1.07049 0.0469099 -2.6174e-20)
(1.07419 0.0464332 3.7579e-20)
(1.07797 0.0459169 2.55589e-20)
(1.08183 0.0453643 -5.83518e-22)
(1.08577 0.044779 5.00892e-20)
(1.08978 0.0441648 1.97761e-20)
(1.09385 0.0435253 -5.20278e-21)
(1.09799 0.0428646 -2.32308e-20)
(1.10219 0.0421866 -2.38011e-20)
(1.10645 0.0414951 6.24546e-21)
(1.11076 0.0407941 4.35063e-21)
(1.11511 0.0400875 1.73142e-20)
(1.11951 0.0393788 9.39916e-21)
(1.05334 0.0477469 -1.29188e-20)
(1.05659 0.0475106 2.76016e-20)
(1.05994 0.0472233 1.07889e-20)
(1.06337 0.046887 -1.80906e-20)
(1.06688 0.0465043 1.78297e-20)
(1.07049 0.0460775 -5.10541e-21)
(1.07417 0.0456097 2.67704e-20)
(1.07794 0.0451038 -4.09268e-20)
(1.08178 0.0445631 1.33799e-20)
(1.0857 0.0439911 -5.28483e-20)
(1.08969 0.0433912 -3.92807e-20)
(1.09376 0.0427673 2.83824e-20)
(1.09789 0.0421229 3.81503e-20)
(1.10208 0.0414619 2.50383e-21)
(1.10633 0.0407881 1.53209e-20)
(1.11063 0.0401052 -2.26241e-21)
(1.11498 0.0394169 -1.25972e-20)
(1.11937 0.0387267 3.98128e-21)
(1.05347 0.0469119 -8.58843e-20)
(1.0567 0.0466733 4.54561e-20)
(1.06001 0.0463861 -2.0832e-20)
(1.06342 0.0460521 3.33058e-20)
(1.06692 0.0456735 1.27375e-20)
(1.0705 0.0452529 3.08549e-20)
(1.07416 0.0447929 -3.2748e-20)
(1.07791 0.0442966 2.00073e-20)
(1.08174 0.0437669 1.58993e-20)
(1.08565 0.0432072 9.06702e-21)
(1.08962 0.0426209 3.86373e-20)
(1.09367 0.0420116 -2.90709e-20)
(1.09779 0.0413828 -2.38757e-20)
(1.10197 0.0407382 2.11664e-20)
(1.10621 0.0400814 -1.94066e-20)
(1.11051 0.039416 3.26432e-20)
(1.11485 0.0387454 -1.35446e-21)
(1.11923 0.0380732 -1.42142e-20)
(1.05049 0.0462812 -2.61843e-20)
(1.05361 0.0460875 1.0173e-19)
(1.05681 0.045846 -8.2542e-20)
(1.06011 0.0455581 1.76153e-20)
(1.06349 0.0452255 -2.29776e-20)
(1.06697 0.0448504 -6.62188e-21)
(1.07053 0.0444351 -5.64265e-20)
(1.07417 0.0439821 -3.44251e-20)
(1.0779 0.0434944 6.41379e-21)
(1.08171 0.0429749 1.52519e-20)
(1.0856 0.0424267 3.61761e-21)
(1.08957 0.0418533 -1.09801e-20)
(1.0936 0.0412579 -4.35384e-21)
(1.09771 0.040644 5.15667e-21)
(1.10188 0.0400151 -4.74912e-21)
(1.10611 0.0393747 -1.96582e-21)
(1.11039 0.0387262 -2.90211e-20)
(1.11472 0.038073 -3.28573e-21)
(1.1191 0.0374182 -1.24766e-20)
(1.05067 0.0454714 -6.07809e-20)
(1.05376 0.045272 -7.91354e-20)
(1.05694 0.0450271 8.42879e-20)
(1.06021 0.044738 2.90372e-21)
(1.06358 0.0444063 4.53084e-20)
(1.06703 0.0440339 -3.55201e-20)
(1.07057 0.0436232 6.04731e-20)
(1.07419 0.0431766 5.69743e-20)
(1.0779 0.0426968 -1.10379e-20)
(1.0817 0.0421868 -2.35171e-20)
(1.08557 0.0416495 1.44756e-20)
(1.08952 0.0410881 -6.59998e-21)
(1.09354 0.040506 2.42429e-20)
(1.09763 0.0399063 -3.17713e-21)
(1.10179 0.0392926 -3.67848e-21)
(1.10601 0.038668 2.33799e-20)
(1.11028 0.0380359 -2.26255e-21)
(1.11461 0.0373994 -1.18903e-20)
(1.11898 0.0367618 1.59244e-20)
(1.04789 0.0448307 5.17154e-20)
(1.05086 0.0446693 9.94161e-21)
(1.05393 0.044464 6.52411e-20)
(1.05708 0.0442155 4.13497e-21)
(1.06033 0.0439248 1.3576e-20)
(1.06367 0.0435934 -5.01391e-20)
(1.0671 0.0432234 2.97149e-20)
(1.07062 0.0428167 -2.70485e-20)
(1.07423 0.0423758 -6.47358e-20)
(1.07792 0.0419034 2.59017e-20)
(1.08169 0.0414022 -3.28867e-20)
(1.08555 0.0408751 -1.78108e-20)
(1.08948 0.0403253 4.16206e-20)
(1.09349 0.0397557 -9.47248e-21)
(1.09757 0.0391698 -1.9953e-20)
(1.10171 0.0385705 -2.08885e-20)
(1.10592 0.0379612 -4.43819e-20)
(1.11018 0.037345 1.43934e-20)
(1.1145 0.0367249 1.06816e-20)
(1.11886 0.0361039 -8.7435e-21)
(1.04811 0.0440428 6.49777e-20)
(1.05106 0.0438734 6.29199e-20)
(1.0541 0.0436623 -4.62839e-20)
(1.05723 0.04341 1.21147e-20)
(1.06046 0.0431174 -3.21013e-20)
(1.06378 0.0427862 4.06469e-20)
(1.06719 0.0424179 -5.29957e-21)
(1.07069 0.0420149 -2.81641e-20)
(1.07427 0.0415793 1.64662e-20)
(1.07794 0.0411137 -1.7015e-20)
(1.0817 0.0406207 1.39703e-20)
(1.08554 0.0401033 2.32761e-20)
(1.08946 0.0395644 -2.1544e-20)
(1.09345 0.039007 1.41029e-20)
(1.09751 0.0384341 1.67652e-20)
(1.10164 0.0378489 1.90802e-20)
(1.10584 0.0372543 2.14452e-20)
(1.11009 0.0366535 2.0184e-20)
(1.1144 0.0360493 2.66173e-20)
(1.11875 0.0354445 2.86337e-20)
(1.04552 0.0433969 -3.63866e-20)
(1.04834 0.0432592 -4.12628e-20)
(1.05127 0.0430822 -1.46346e-21)
(1.05428 0.0428655 7.87355e-20)
(1.0574 0.0426094 -5.11184e-21)
(1.0606 0.042315 2.13905e-20)
(1.06389 0.0419836 -2.24268e-20)
(1.06728 0.0416169 -1.09912e-20)
(1.07076 0.0412171 8.97997e-21)
(1.07433 0.0407864 4.11135e-20)
(1.07798 0.0403272 2.68422e-20)
(1.08172 0.0398421 3.9953e-20)
(1.08554 0.0393338 -9.87366e-21)
(1.08944 0.0388053 -1.29492e-20)
(1.09342 0.0382595 9.90351e-21)
(1.09746 0.0376992 1.16226e-20)
(1.10158 0.0371275 -1.6042e-20)
(1.10576 0.0365473 1.82016e-20)
(1.11 0.0359614 -2.1253e-20)
(1.1143 0.0353726 -6.44166e-21)
(1.11864 0.0347836 -1.63039e-20)
(1.04577 0.042625 -5.44666e-20)
(1.04858 0.0424786 -2.82647e-20)
(1.05148 0.0422945 1.03412e-20)
(1.05448 0.0420724 -1.52647e-20)
(1.05756 0.0418127 -1.63236e-21)
(1.06075 0.0415164 -4.87414e-20)
(1.06402 0.0411848 1.03947e-20)
(1.06739 0.0408196 4.83705e-20)
(1.07084 0.0404228 -4.19166e-21)
(1.07439 0.0399967 -2.16779e-20)
(1.07803 0.0395435 -5.81102e-20)
(1.08175 0.0390658 -2.48269e-20)
(1.08555 0.0385663 -2.70944e-22)
(1.08943 0.0380478 -4.36996e-21)
(1.09339 0.0375131 -1.20082e-20)
(1.09742 0.036965 1.91825e-20)
(1.10153 0.0364063 1.92766e-20)
(1.1057 0.03584 -2.73372e-20)
(1.10992 0.0352686 -3.43845e-21)
(1.11421 0.0346949 -2.6588e-20)
(1.11854 0.0341213 -4.4502e-21)
(1.04334 0.041973 -8.04068e-20)
(1.04603 0.0418539 -1.3448e-21)
(1.04882 0.0416996 -1.73512e-20)
(1.0517 0.0415091 1.00369e-20)
(1.05467 0.0412821 -1.48569e-20)
(1.05774 0.041019 -7.24096e-21)
(1.0609 0.0407209 1.85374e-20)
(1.06415 0.0403891 1.49122e-20)
(1.0675 0.0400253 -4.7537e-20)
(1.07094 0.0396314 2.09596e-20)
(1.07446 0.0392096 1.29095e-20)
(1.07808 0.0387621 3.22775e-20)
(1.08178 0.0382916 3.11064e-20)
(1.08557 0.0378005 -2.71427e-22)
(1.08943 0.0372916 1.17388e-20)
(1.09338 0.0367676 -2.34756e-20)
(1.09739 0.0362313 -2.44725e-20)
(1.10148 0.0356853 4.49207e-21)
(1.10564 0.0351324 -4.2034e-21)
(1.10985 0.0345751 1.06775e-20)
(1.11412 0.0340161 -6.22086e-21)
(1.11845 0.0334576 1.94635e-20)
(1.04362 0.0412096 -6.31596e-21)
(1.0463 0.0410825 3.80886e-22)
(1.04906 0.0409213 -1.37887e-20)
(1.05192 0.0407249 8.66835e-21)
(1.05487 0.0404934 -3.43048e-20)
(1.05792 0.0402274 -8.7536e-21)
(1.06106 0.0399277 2.65798e-20)
(1.0643 0.0395958 -3.78025e-20)
(1.06762 0.0392334 -3.4784e-20)
(1.07104 0.0388422 -4.11113e-20)
(1.07455 0.0384246 -1.46298e-20)
(1.07814 0.0379827 4.59957e-21)
(1.08183 0.037519 -3.92076e-20)
(1.08559 0.0370361 -1.62171e-20)
(1.08944 0.0365365 1.36284e-20)
(1.09337 0.0360229 1.41877e-20)
(1.09737 0.0354979 1.41609e-20)
(1.10144 0.0349642 5.92696e-21)
(1.10558 0.0344244 -8.60568e-22)
(1.10979 0.0338809 -8.49838e-21)
(1.11405 0.0333361 1.72754e-20)
(1.11836 0.0327924 -1.10189e-20)
(1.04134 0.0405437 -1.66285e-20)
(1.0439 0.0404439 -5.35531e-21)
(1.04656 0.0403098 2.80674e-20)
(1.0493 0.0401425 5.2364e-20)
(1.05215 0.039941 -4.96943e-20)
(1.05508 0.0397056 4.94711e-20)
(1.05811 0.0394369 -5.82697e-21)
(1.06123 0.039136 -4.27917e-20)
(1.06444 0.0388042 2.94842e-20)
(1.06775 0.0384431 2.63417e-20)
(1.07115 0.0380548 5.7395e-20)
(1.07464 0.0376413 4.64924e-21)
(1.07821 0.0372048 2.09896e-20)
(1.08188 0.0367478 -1.81765e-20)
(1.08563 0.0362728 -1.25969e-20)
(1.08946 0.0357822 -4.71911e-20)
(1.09337 0.0352787 1.21997e-20)
(1.09735 0.0347647 -2.18187e-20)
(1.10141 0.034243 -1.23725e-20)
(1.10554 0.0337159 3.81977e-20)
(1.10973 0.0331858 -1.58648e-20)
(1.11397 0.032655 1.43873e-20)
(1.11827 0.0321256 -8.17293e-21)
(1.04163 0.0397807 3.83391e-20)
(1.04417 0.0396751 4.63834e-20)
(1.04682 0.039535 3.32248e-21)
(1.04955 0.0393625 -4.76762e-20)
(1.05237 0.0391565 5.20927e-20)
(1.05529 0.0389178 7.55251e-21)
(1.0583 0.0386469 1.68353e-20)
(1.0614 0.038345 2.1429e-20)
(1.06459 0.0380135 -2.99255e-20)
(1.06788 0.0376541 2.41875e-20)
(1.07126 0.0372686 7.11094e-21)
(1.07473 0.0368592 3.23855e-20)
(1.07829 0.0364281 -2.51671e-20)
(1.08194 0.0359776 1.61955e-20)
(1.08567 0.0355103 3.24731e-20)
(1.08948 0.0350285 1.13171e-20)
(1.09337 0.0345348 -2.55342e-20)
(1.09734 0.0340316 3.36665e-20)
(1.10139 0.0335215 1.51767e-20)
(1.1055 0.0330068 -8.65234e-21)
(1.10967 0.0324898 3.09972e-20)
(1.11391 0.0319727 -9.92856e-21)
(1.11819 0.0314574 -4.03157e-21)
(1.03944 0.0390959 3.22767e-21)
(1.04192 0.0390129 -5.51797e-20)
(1.04445 0.0389023 2.60798e-20)
(1.04708 0.0387573 -8.94826e-21)
(1.04979 0.0385803 2.30481e-20)
(1.0526 0.0383707 -3.337e-20)
(1.0555 0.0381292 -5.16944e-20)
(1.05849 0.0378566 8.51954e-21)
(1.06157 0.0375542 -1.70551e-20)
(1.06475 0.0372233 -4.75357e-21)
(1.06802 0.0368656 -1.31253e-20)
(1.07138 0.0364831 -5.98031e-20)
(1.07483 0.0360778 -5.82446e-20)
(1.07837 0.0356521 6.22056e-21)
(1.082 0.0352081 1.06592e-20)
(1.08572 0.0347483 -2.90792e-20)
(1.08951 0.0342751 9.60454e-22)
(1.09339 0.033791 4.93232e-20)
(1.09734 0.0332984 -1.62588e-20)
(1.10137 0.0327997 1.96156e-20)
(1.10546 0.0322971 -1.88825e-20)
(1.10963 0.0317929 -2.25058e-20)
(1.11385 0.0312891 -7.06347e-21)
(1.11812 0.0307876 1.70256e-20)
(1.03745 0.0383673 -2.3555e-20)
(1.03974 0.0383269 1.12448e-20)
(1.04221 0.0382398 5.69762e-20)
(1.04472 0.0381252 -3.87483e-20)
(1.04734 0.0379761 -3.82256e-20)
(1.05003 0.0377955 2.48283e-20)
(1.05283 0.0375828 5.84571e-20)
(1.05571 0.0373392 2.96979e-20)
(1.05868 0.0370655 -3.66983e-20)
(1.06175 0.0367629 4.53624e-20)
(1.06491 0.0364329 9.17887e-23)
(1.06816 0.0360772 1.70758e-22)
(1.07151 0.0356978 2.5013e-20)
(1.07494 0.0352968 1.46503e-20)
(1.07846 0.0348764 5.70107e-21)
(1.08207 0.0344388 1.10314e-20)
(1.08577 0.0339865 1.90515e-20)
(1.08955 0.0335218 3.43417e-20)
(1.09341 0.0330472 -4.96746e-20)
(1.09735 0.0325649 -1.75457e-21)
(1.10136 0.0320774 -4.26159e-20)
(1.10544 0.0315867 1.84609e-21)
(1.10958 0.031095 -3.3165e-21)
(1.11379 0.0306043 2.7683e-21)
(1.11805 0.0301163 -3.51039e-21)
(1.03776 0.0375948 1.89353e-21)
(1.04004 0.0375516 -1.19541e-20)
(1.04249 0.0374611 -4.19189e-20)
(1.04499 0.0373432 -8.71815e-22)
(1.04759 0.0371907 5.9714e-20)
(1.05028 0.0370073 -2.35059e-20)
(1.05305 0.0367924 -2.19862e-20)
(1.05592 0.0365472 9.45842e-21)
(1.05888 0.0362728 1.02862e-20)
(1.06193 0.0359705 7.60615e-21)
(1.06508 0.0356417 3.18438e-20)
(1.06831 0.0352884 -9.47772e-21)
(1.07164 0.0349124 2.83616e-20)
(1.07505 0.0345157 2.75669e-20)
(1.07856 0.0341007 2.30754e-20)
(1.08215 0.0336696 -3.04291e-20)
(1.08583 0.0332247 7.99086e-21)
(1.08959 0.0327684 -1.67898e-21)
(1.09343 0.0323031 4.81459e-20)
(1.09736 0.031831 1.2549e-20)
(1.10135 0.0313544 6.62702e-22)
(1.10542 0.0308754 -1.13412e-20)
(1.10955 0.030396 2.28964e-20)
(1.11374 0.0299181 -1.06486e-20)
(1.11799 0.0294434 -1.32602e-20)
(1.03563 0.0368553 8.36325e-21)
(1.03805 0.0368154 -1.17657e-20)
(1.04032 0.0367696 -2.63708e-20)
(1.04276 0.0366765 -3.89546e-20)
(1.04526 0.0365558 3.83311e-20)
(1.04784 0.0364008 1.68816e-21)
(1.05052 0.0362153 8.71743e-21)
(1.05328 0.0359987 -1.70801e-20)
(1.05613 0.0357527 6.31039e-21)
(1.05908 0.0354781 2.85806e-20)
(1.06211 0.0351765 -4.24985e-20)
(1.06524 0.0348495 -2.36849e-20)
(1.06846 0.0344987 3.3986e-20)
(1.07177 0.0341263 -9.68589e-21)
(1.07517 0.0337342 -4.4334e-20)
(1.07866 0.0333247 -7.34502e-21)
(1.08223 0.0329001 -5.91457e-21)
(1.0859 0.0324626 1.35215e-20)
(1.08964 0.0320147 9.8245e-21)
(1.09347 0.0315586 -5.27145e-20)
(1.09737 0.0310965 -1.81626e-20)
(1.10135 0.0306307 1.7476e-20)
(1.1054 0.0301631 1.86641e-20)
(1.10952 0.0296958 -1.64764e-20)
(1.11369 0.0292305 1.37919e-20)
(1.11793 0.0287688 9.15741e-21)
(1.03594 0.0360704 -5.80841e-20)
(1.03834 0.0360289 5.82606e-20)
(1.04061 0.0359808 4.13004e-20)
(1.04303 0.0358856 5.53599e-20)
(1.04552 0.0357629 1.96641e-21)
(1.04809 0.035606 -3.53993e-20)
(1.05076 0.0354189 -5.51836e-20)
(1.05351 0.0352014 -3.29023e-20)
(1.05635 0.0349551 -3.37324e-20)
(1.05928 0.0346809 -4.24421e-20)
(1.0623 0.0343805 -5.46814e-21)
(1.06541 0.0340555 -3.91499e-22)
(1.06861 0.0337077 -1.45539e-21)
(1.07191 0.0333391 -1.3946e-20)
(1.07529 0.0329518 5.4991e-20)
(1.07876 0.032548 -3.38185e-20)
(1.08232 0.0321299 4.27355e-20)
(1.08597 0.0317 -1.46577e-20)
(1.08969 0.0312603 -4.56299e-20)
(1.0935 0.0308134 2.03413e-20)
(1.09739 0.0303612 1.40302e-20)
(1.10135 0.029906 -1.80535e-20)
(1.10539 0.0294498 -2.91661e-21)
(1.10949 0.0289944 -2.49152e-22)
(1.11365 0.0285414 -4.59103e-21)
(1.11788 0.0280925 -2.89229e-21)
(1.03624 0.035278 6.42747e-20)
(1.03863 0.0352353 -3.02339e-20)
(1.04089 0.035185 -2.16098e-20)
(1.0433 0.0350883 3.50313e-20)
(1.04577 0.034964 2.14695e-21)
(1.04834 0.0348059 5.91806e-21)
(1.05099 0.034618 7.69566e-20)
(1.05373 0.0344001 2.09524e-20)
(1.05656 0.034154 -6.86824e-21)
(1.05947 0.0338808 5.12383e-20)
(1.06248 0.033582 -1.926e-20)
(1.06558 0.0332595 4.03703e-20)
(1.06877 0.032915 -3.65271e-20)
(1.07205 0.0325505 -8.02619e-21)
(1.07541 0.0321682 -1.96436e-20)
(1.07887 0.0317703 2.67362e-20)
(1.08241 0.0313589 -4.97179e-20)
(1.08604 0.0309365 -1.74741e-20)
(1.08975 0.0305052 -6.36503e-21)
(1.09355 0.0300673 9.72896e-21)
(1.09742 0.0296251 -1.96292e-20)
(1.10136 0.0291804 6.78399e-21)
(1.10538 0.0287353 -2.15563e-20)
(1.10947 0.0282916 8.62836e-21)
(1.11362 0.0278509 -7.02248e-22)
(1.11783 0.0274146 -5.28897e-21)
(1.03654 0.034478 -7.37014e-20)
(1.0389 0.0344343 -8.71787e-21)
(1.04116 0.0343821 7.19134e-21)
(1.04356 0.0342843 -7.9029e-20)
(1.04603 0.0341589 -3.05091e-20)
(1.04858 0.0340002 -1.70651e-20)
(1.05122 0.033812 -8.42049e-21)
(1.05395 0.0335943 2.6774e-20)
(1.05677 0.033349 4.26285e-20)
(1.05967 0.0330772 -5.02079e-20)
(1.06267 0.0327807 -4.03908e-21)
(1.06575 0.032461 -3.13335e-20)
(1.06892 0.0321202 3.3796e-20)
(1.07219 0.0317602 -3.55101e-21)
(1.07554 0.0313831 -1.96307e-20)
(1.07898 0.0309912 -2.05715e-20)
(1.08251 0.0305867 2.47326e-20)
(1.08612 0.0301719 5.01092e-21)
(1.08982 0.029749 2.79759e-20)
(1.09359 0.0293203 -1.26957e-20)
(1.09745 0.0288878 1.16658e-20)
(1.10138 0.0284536 5.28552e-21)
(1.10538 0.0280196 1.42157e-20)
(1.10945 0.0275874 2.89988e-21)
(1.11359 0.0271587 5.49046e-21)
(1.11778 0.0267348 -5.10788e-21)
(1.03683 0.0336704 6.18763e-20)
(1.03918 0.033626 5.79965e-20)
(1.04143 0.0335721 -3.3124e-20)
(1.04382 0.0334735 7.42557e-20)
(1.04628 0.0333476 -2.43971e-21)
(1.04882 0.0331887 2.46065e-20)
(1.05145 0.0330007 -2.78416e-20)
(1.05417 0.0327838 -2.91995e-20)
(1.05697 0.0325398 -3.74069e-20)
(1.05987 0.03227 4.22502e-20)
(1.06285 0.0319761 1.18483e-20)
(1.06592 0.0316597 2.52991e-20)
(1.06908 0.031323 -9.25365e-21)
(1.07233 0.0309677 2.52073e-20)
(1.07567 0.0305962 2.44141e-20)
(1.07909 0.0302106 -2.274e-20)
(1.08261 0.0298131 -2.61296e-20)
(1.0862 0.029406 4.19138e-20)
(1.08988 0.0289916 3.86784e-21)
(1.09364 0.028572 2.93569e-20)
(1.09748 0.0281493 -1.22595e-20)
(1.1014 0.0277255 -1.85355e-20)
(1.10538 0.0273024 -5.38591e-21)
(1.10944 0.0268817 -1.01091e-20)
(1.11356 0.0264649 -2.60115e-22)
(1.11774 0.0260532 1.01098e-20)
(1.03711 0.0328552 -1.23625e-20)
(1.03944 0.0328102 -9.21848e-20)
(1.04169 0.0327547 1.82706e-20)
(1.04407 0.0326559 -6.31951e-20)
(1.04652 0.0325297 -1.43909e-20)
(1.04906 0.0323711 -3.82163e-20)
(1.05168 0.0321839 4.81878e-20)
(1.05439 0.0319683 -3.59984e-21)
(1.05718 0.0317261 3.58547e-20)
(1.06006 0.0314588 -7.82154e-21)
(1.06303 0.0311679 4.26861e-20)
(1.06609 0.0308553 -4.29909e-20)
(1.06924 0.0305229 3.12823e-21)
(1.07248 0.0301728 2.28599e-20)
(1.0758 0.0298071 9.59384e-21)
(1.07921 0.029428 1.93868e-20)
(1.08271 0.0290377 3.65852e-20)
(1.08629 0.0286386 -3.381e-20)
(1.08995 0.0282327 2.73917e-20)
(1.0937 0.0278223 -2.35489e-20)
(1.09752 0.0274094 -2.9774e-20)
(1.10142 0.026996 2.42168e-20)
(1.10539 0.0265837 2.22952e-21)
(1.10943 0.0261744 -2.64226e-21)
(1.11354 0.0257693 -4.21729e-21)
(1.1177 0.0253697 -3.20591e-21)
(1.03738 0.0320322 -1.54135e-20)
(1.0397 0.0319868 6.54372e-21)
(1.04194 0.03193 -4.87936e-21)
(1.04432 0.0318312 -1.68104e-20)
(1.04676 0.0317051 2.45642e-20)
(1.04929 0.0315473 -7.87587e-21)
(1.0519 0.0313613 -8.88444e-21)
(1.0546 0.0311475 3.21067e-22)
(1.05738 0.0309076 -2.29303e-21)
(1.06026 0.0306432 2.34393e-20)
(1.06322 0.0303558 -1.18569e-20)
(1.06626 0.0300474 3.74071e-20)
(1.0694 0.0297199 2.48277e-20)
(1.07262 0.0293752 -7.45575e-22)
(1.07593 0.0290156 2.60482e-22)
(1.07933 0.0286433 -2.83919e-21)
(1.08281 0.0282605 1.5899e-20)
(1.08638 0.0278693 1.09975e-20)
(1.09003 0.0274722 -8.35148e-22)
(1.09375 0.027071 -8.41194e-21)
(1.09756 0.0266679 3.91485e-20)
(1.10145 0.0262649 -5.10647e-21)
(1.1054 0.0258635 1.01792e-20)
(1.10943 0.0254654 -4.16793e-21)
(1.11352 0.0250719 3.5183e-21)
(1.11767 0.0246843 -2.23599e-21)
(1.03765 0.0312015 4.06015e-20)
(1.03995 0.0311558 6.08545e-20)
(1.04219 0.031098 1.69464e-20)
(1.04456 0.0309994 2.24197e-20)
(1.04699 0.0308738 -5.1883e-20)
(1.04951 0.0307171 1.9379e-21)
(1.05212 0.0305328 -7.51617e-20)
(1.05481 0.0303212 -5.30693e-22)
(1.05758 0.0300841 -3.58513e-20)
(1.06045 0.029823 -2.21913e-20)
(1.0634 0.0295396 -1.09969e-20)
(1.06643 0.0292358 -2.46032e-20)
(1.06956 0.0289134 -1.36474e-20)
(1.07277 0.0285746 -3.34081e-20)
(1.07606 0.0282215 -2.12768e-20)
(1.07945 0.0278562 2.72629e-20)
(1.08292 0.027481 -9.99706e-21)
(1.08647 0.0270981 7.84065e-21)
(1.0901 0.0267097 -2.93909e-20)
(1.09382 0.026318 6.23286e-21)
(1.09761 0.0259248 -1.29654e-20)
(1.10148 0.025532 -2.38316e-21)
(1.10542 0.0251415 5.40222e-21)
(1.10943 0.0247546 1.15901e-20)
(1.1135 0.0243727 -9.34545e-21)
(1.11764 0.0239969 5.47794e-21)
(1.03791 0.030363 -7.03434e-20)
(1.0402 0.0303171 -4.4845e-21)
(1.04243 0.0302584 -5.71491e-21)
(1.04479 0.0301604 1.0509e-20)
(1.04722 0.0300356 1.81827e-20)
(1.04974 0.0298805 6.33626e-20)
(1.05233 0.0296982 4.69574e-20)
(1.05502 0.0294892 3.02434e-20)
(1.05778 0.0292553 1.88811e-20)
(1.06064 0.028998 -2.60171e-20)
(1.06358 0.0287191 8.73271e-21)
(1.0666 0.0284202 -2.44104e-20)
(1.06971 0.0281034 -7.31743e-22)
(1.07291 0.0277708 1.44539e-20)
(1.0762 0.0274244 -5.79199e-22)
(1.07957 0.0270664 -4.64129e-20)
(1.08302 0.0266991 7.35406e-21)
(1.08656 0.0263247 -2.77495e-20)
(1.09018 0.0259453 -2.24198e-20)
(1.09388 0.025563 -2.7201e-21)
(1.09766 0.0251797 6.2998e-21)
(1.10151 0.0247974 1.83195e-21)
(1.10543 0.0244176 -4.68343e-21)
(1.10943 0.0240419 5.38945e-21)
(1.11349 0.0236714 8.9144e-21)
(1.11761 0.0233074 4.77033e-21)
(1.03816 0.0295168 4.60872e-20)
(1.04044 0.0294708 2.62507e-20)
(1.04267 0.0294115 -5.19163e-21)
(1.04502 0.0293142 -6.19213e-21)
(1.04745 0.0291905 3.7377e-20)
(1.04995 0.0290372 -7.07636e-20)
(1.05254 0.0288573 -1.24084e-20)
(1.05522 0.0286514 8.59223e-21)
(1.05798 0.0284211 -2.1653e-20)
(1.06082 0.028168 1.13334e-20)
(1.06375 0.0278938 -3.40237e-20)
(1.06677 0.0276004 2.38355e-20)
(1.06987 0.0272895 -2.79807e-21)
(1.07306 0.0269634 -4.48414e-20)
(1.07633 0.0266241 -1.36539e-21)
(1.07969 0.0262738 3.77221e-20)
(1.08313 0.0259146 -1.42186e-20)
(1.08666 0.0255489 1.47949e-20)
(1.09026 0.0251786 2.66526e-20)
(1.09395 0.0248059 -2.18199e-21)
(1.09771 0.0244327 8.84088e-21)
(1.10155 0.0240608 -2.23498e-21)
(1.10546 0.0236918 -5.25002e-21)
(1.10944 0.0233272 -6.38335e-21)
(1.11348 0.0229681 -9.82015e-21)
(1.11759 0.0226157 -2.86804e-21)
(1.03841 0.0286626 2.95427e-20)
(1.04067 0.0286167 -5.67456e-20)
(1.0429 0.028557 1.24344e-20)
(1.04525 0.0284608 4.47188e-20)
(1.04766 0.0283384 -6.71928e-20)
(1.05017 0.0281873 6.36431e-20)
(1.05275 0.0280101 3.04203e-22)
(1.05542 0.0278076 -3.26732e-20)
(1.05817 0.0275813 4.44554e-20)
(1.06101 0.0273328 4.25267e-21)
(1.06393 0.0270638 3.21813e-21)
(1.06694 0.0267761 -3.01968e-20)
(1.07003 0.0264716 2.04468e-21)
(1.07321 0.0261524 5.2858e-20)
(1.07647 0.0258205 -3.72705e-20)
(1.07981 0.0254781 -1.06662e-20)
(1.08324 0.0251273 7.81366e-21)
(1.08675 0.0247704 -6.92293e-21)
(1.09034 0.0244095 -1.54028e-20)
(1.09401 0.0240465 -1.20578e-21)
(1.09776 0.0236834 1.69684e-21)
(1.10159 0.023322 6.65309e-23)
(1.10548 0.0229639 -5.41957e-22)
(1.10945 0.0226104 1.88903e-21)
(1.11348 0.0222627 1.38497e-20)
(1.11757 0.0219218 2.33022e-21)
(1.03864 0.0278007 -5.69288e-20)
(1.0409 0.027755 4.96245e-20)
(1.04312 0.0276949 -1.46017e-20)
(1.04546 0.0276 1.27072e-20)
(1.04788 0.0274792 8.29236e-21)
(1.05037 0.0273305 -2.27975e-20)
(1.05295 0.0271564 2.22474e-21)
(1.05561 0.0269576 6.90502e-22)
(1.05836 0.0267357 -5.04614e-20)
(1.06119 0.0264922 -1.41418e-20)
(1.0641 0.0262288 5.76411e-20)
(1.0671 0.0259472 3.2724e-20)
(1.07018 0.0256494 -3.83854e-20)
(1.07335 0.0253374 -2.29795e-20)
(1.0766 0.0250132 2.5633e-20)
(1.07994 0.024679 -1.06541e-20)
(1.08335 0.024337 -8.34244e-21)
(1.08685 0.0239892 -2.74763e-21)
(1.09043 0.0236378 4.81821e-22)
(1.09409 0.0232847 -2.8413e-21)
(1.09782 0.0229319 -1.32626e-20)
(1.10163 0.0225811 1.04817e-20)
(1.10551 0.0222338 7.43413e-22)
(1.10946 0.0218914 -3.75618e-21)
(1.11347 0.021555 -1.21737e-20)
(1.11755 0.0212256 -7.54437e-21)
(1.03887 0.0269309 -1.5521e-20)
(1.04112 0.0268855 -7.04193e-20)
(1.04334 0.0268254 -2.90998e-22)
(1.04568 0.0267318 -3.97503e-20)
(1.04808 0.0266129 1.98073e-20)
(1.05058 0.0264669 7.98579e-21)
(1.05315 0.0262962 -2.85451e-20)
(1.05581 0.0261015 -1.48214e-20)
(1.05854 0.0258843 4.69159e-20)
(1.06137 0.0256461 2.33412e-20)
(1.06427 0.0253886 -1.79427e-20)
(1.06726 0.0251135 -1.13284e-20)
(1.07034 0.0248228 -5.31816e-21)
(1.0735 0.0245183 -1.47131e-20)
(1.07674 0.0242022 3.31091e-20)
(1.08006 0.0238766 1.69352e-20)
(1.08346 0.0235434 -1.03973e-20)
(1.08695 0.023205 -1.9505e-21)
(1.09051 0.0228633 6.86155e-21)
(1.09416 0.0225203 8.47047e-22)
(1.09788 0.0221779 -5.41095e-21)
(1.10167 0.0218377 -1.52387e-20)
(1.10554 0.0215013 -9.02256e-23)
(1.10947 0.0211701 -7.54039e-22)
(1.11348 0.020845 7.2772e-21)
(1.11754 0.0205271 5.94082e-22)
(1.03909 0.0260533 4.84575e-20)
(1.04133 0.0260082 1.39556e-21)
(1.04355 0.0259483 -1.2663e-20)
(1.04588 0.0258562 -1.74603e-20)
(1.04829 0.0257394 2.63087e-20)
(1.05077 0.0255964 -1.05227e-20)
(1.05334 0.0254294 1.69883e-20)
(1.05599 0.025239 4.22928e-20)
(1.05873 0.0250268 4.46992e-21)
(1.06154 0.0247943 -1.00322e-20)
(1.06444 0.0245431 -2.7985e-20)
(1.06743 0.0242749 -7.72228e-21)
(1.07049 0.0239915 -1.68617e-20)
(1.07364 0.023695 5.32322e-20)
(1.07687 0.0233873 -2.83291e-20)
(1.08018 0.0230704 -2.31092e-20)
(1.08358 0.0227465 1.17615e-20)
(1.08705 0.0224177 9.09129e-21)
(1.0906 0.0220859 8.4247e-21)
(1.09423 0.0217532 2.47e-20)
(1.09794 0.0214212 1.47088e-21)
(1.10172 0.0210918 8.75756e-21)
(1.10557 0.0207664 -5.56825e-21)
(1.10949 0.0204463 4.53057e-21)
(1.11348 0.0201326 9.4984e-21)
(1.03931 0.0251679 -8.72603e-21)
(1.04154 0.0251232 4.04495e-20)
(1.04376 0.0250636 2.3772e-20)
(1.04608 0.0249733 2.14556e-20)
(1.04848 0.0248587 2.55319e-20)
(1.05097 0.024719 3.78759e-20)
(1.05353 0.0245558 1.83965e-20)
(1.05618 0.0243701 -1.88471e-20)
(1.0589 0.0241633 -2.89301e-20)
(1.06172 0.0239368 -3.15813e-20)
(1.06461 0.0236922 3.95922e-20)
(1.06758 0.0234312 2.91867e-21)
(1.07064 0.0231555 1.60242e-20)
(1.07378 0.0228672 -4.30192e-20)
(1.077 0.0225682 4.00413e-21)
(1.0803 0.0222604 2.40839e-20)
(1.08369 0.0219461 1.59623e-20)
(1.08715 0.0216271 -1.59833e-20)
(1.09069 0.0213054 5.791e-21)
(1.09431 0.0209831 -1.52247e-20)
(1.098 0.0206619 1.4909e-20)
(1.10176 0.0203433 5.6943e-21)
(1.1056 0.020029 4.01352e-23)
(1.10951 0.0197201 -9.93795e-21)
(1.11348 0.0194177 -1.7523e-20)
(1.03952 0.0242745 1.9315e-20)
(1.04173 0.0242305 -4.88961e-20)
(1.04395 0.0241713 3.08076e-20)
(1.04628 0.0240829 4.89023e-21)
(1.04867 0.0239708 -2.5914e-20)
(1.05115 0.0238345 -1.52273e-20)
(1.05371 0.0236755 1.67085e-20)
(1.05636 0.0234947 2.27063e-20)
(1.05908 0.0232935 -1.06436e-20)
(1.06188 0.0230733 3.34894e-20)
(1.06477 0.0228357 -9.55536e-21)
(1.06774 0.0225822 1.8253e-20)
(1.07079 0.0223146 1.45413e-20)
(1.07392 0.0220349 -5.46231e-21)
(1.07713 0.0217448 1.44017e-20)
(1.08043 0.0214465 -2.50964e-20)
(1.0838 0.0211419 -6.48054e-21)
(1.08725 0.020833 2.02922e-20)
(1.09078 0.0205217 -1.84576e-21)
(1.09438 0.02021 3.23458e-21)
(1.09806 0.0198996 -1.40829e-20)
(1.10181 0.0195921 -1.98279e-20)
(1.10564 0.0192889 -1.30729e-21)
(1.10953 0.0189912 1.06154e-20)
(1.11349 0.0187001 1.94341e-20)
(1.03972 0.0233734 -4.76999e-20)
(1.04193 0.02333 6.22972e-20)
(1.04415 0.0232714 -1.18593e-20)
(1.04647 0.023185 3.28793e-20)
(1.04886 0.0230757 -4.38575e-22)
(1.05134 0.022943 -4.06711e-20)
(1.05389 0.0227884 -5.68602e-21)
(1.05653 0.0226128 -8.23445e-21)
(1.05925 0.0224175 1.8529e-20)
(1.06205 0.0222039 -7.78121e-21)
(1.06493 0.0219735 -9.3346e-22)
(1.06789 0.0217279 -1.83187e-20)
(1.07094 0.0214687 2.08898e-20)
(1.07406 0.0211978 4.4118e-21)
(1.07726 0.0209171 -1.44192e-20)
(1.08055 0.0206284 1.94464e-20)
(1.08391 0.0203339 -1.09317e-20)
(1.08735 0.0200353 -2.35747e-20)
(1.09086 0.0197347 -1.50006e-20)
(1.09446 0.0194338 -4.86325e-21)
(1.09812 0.0191344 8.4634e-21)
(1.10186 0.018838 8.32894e-21)
(1.10567 0.018546 1.05792e-20)
(1.10955 0.0182596 -1.29027e-20)
(1.1135 0.0179798 -1.9939e-22)
(1.03991 0.0224644 -1.36135e-20)
(1.04211 0.0224217 7.42549e-22)
(1.04433 0.022364 -3.08779e-20)
(1.04665 0.0222797 -4.4817e-20)
(1.04904 0.0221732 2.68369e-20)
(1.05151 0.0220444 4.72255e-20)
(1.05407 0.0218944 4.70816e-21)
(1.0567 0.0217242 1.46262e-21)
(1.05942 0.0215352 7.54523e-21)
(1.06221 0.0213285 -1.48796e-20)
(1.06509 0.0211056 8.03793e-22)
(1.06804 0.0208681 -2.92103e-21)
(1.07108 0.0206176 -1.48019e-20)
(1.0742 0.0203559 1.87066e-20)
(1.07739 0.0200847 1.08854e-20)
(1.08066 0.0198061 7.8054e-21)
(1.08402 0.0195219 1.03912e-22)
(1.08745 0.0192339 8.28321e-22)
(1.09095 0.0189441 -2.66818e-21)
(1.09453 0.0186542 -7.40441e-21)
(1.09819 0.0183659 6.96118e-21)
(1.10191 0.0180808 -4.99684e-21)
(1.10571 0.0178002 3.1202e-21)
(1.10958 0.0175252 6.44686e-21)
(1.11351 0.0172568 -1.46788e-20)
(1.04009 0.0215476 1.6291e-20)
(1.04229 0.0215057 -4.32597e-20)
(1.04451 0.0214489 -1.02298e-20)
(1.04682 0.0213669 3.30962e-22)
(1.04921 0.0212635 -5.02226e-20)
(1.05169 0.0211387 -4.80371e-20)
(1.05424 0.0209935 -3.77529e-20)
(1.05687 0.0208291 -2.33772e-20)
(1.05958 0.0206464 -3.31735e-20)
(1.06237 0.0204469 3.67743e-20)
(1.06524 0.0202318 -2.05571e-20)
(1.06819 0.0200027 1.80416e-20)
(1.07122 0.0197612 -1.96924e-21)
(1.07433 0.019509 -1.88819e-20)
(1.07752 0.0192478 -5.91908e-21)
(1.08078 0.0189794 -8.48557e-21)
(1.08412 0.0187057 -7.87514e-21)
(1.08754 0.0184286 -2.19935e-21)
(1.09104 0.0181499 -5.63515e-21)
(1.09461 0.0178712 -3.15994e-21)
(1.09825 0.0175942 -2.08704e-20)
(1.10197 0.0173205 8.32086e-21)
(1.10575 0.0170513 -2.94427e-21)
(1.10961 0.0167878 8.57628e-21)
(1.11353 0.0165308 -5.51658e-21)
(1.04027 0.020623 2.09465e-20)
(1.04246 0.0205819 3.94391e-22)
(1.04468 0.0205262 -1.97199e-20)
(1.04699 0.0204467 6.53351e-21)
(1.04938 0.0203465 1.81898e-20)
(1.05185 0.0202258 1.92754e-20)