/*--------------------------------*- C++ -*----------------------------------*\
  =========                 |
  \\      /  F ield         | OpenFOAM: The Open Source CFD Toolbox
   \\    /   O peration     | Website:  https://openfoam.org
    \\  /    A nd           | Version:  7
     \\/     M anipulation  |
\*---------------------------------------------------------------------------*/
FoamFile
{
    version     2.0;
    format      ascii;
    class       surfaceScalarField;
    location    "100";
    object      phi;
}
// * * * * * * * * * * * * * * * * * * * * * * * * * * * * * * * * * * * * * //

dimensions      [0 3 -1 0 0 0 0];

internalField   nonuniform List<scalar> 
5137
(
0.0023064
-0.000504467
0.00231213
-0.000447746
0.00231808
-0.0003906
-0.000333057
0.00235139
-0.000621352
0.00235647
-0.000565814
0.0023618
-0.000509793
0.00236736
-0.000453315
0.00237317
-0.000396406
-0.000339093
0.00240396
-0.000680666
0.00240853
-0.000625916
0.00241337
-0.000570655
0.00241848
-0.000514907
0.00242386
-0.000458696
0.0024295
-0.000402048
-0.000344991
0.00245517
-0.00079188
0.00245882
-0.000738535
0.00246278
-0.00068463
0.00246705
-0.000630186
0.00247163
-0.000575228
0.0024765
-0.000519777
0.00248166
-0.00046386
0.00248711
-0.000407499
-0.000350723
0.00251072
-0.000899048
0.00251331
-0.000847232
0.00251624
-0.00079481
0.00251951
-0.000741804
0.00252312
-0.000688235
0.00252705
-0.000634125
0.00253132
-0.000579496
0.00253591
-0.00052437
0.00254083
-0.000468772
0.00254605
-0.000412727
-0.000356258
0.00257258
-0.000951611
0.00257432
-0.000900794
0.00257644
-0.000849348
0.00257892
-0.000797295
0.00258178
-0.000744655
0.00258499
-0.000691449
0.00258856
-0.000637699
0.00259249
-0.000583426
0.00259678
-0.000528653
0.00260141
-0.000473403
0.00260638
-0.000417699
-0.000361567
0.00263714
-0.0010513
0.00263756
-0.0010022
0.00263839
-0.000952435
0.00263961
-0.000902016
0.00264123
-0.000850966
0.00264324
-0.000799307
0.00264564
-0.000747059
0.00264844
-0.000694243
0.00265162
-0.00064088
0.00265518
-0.000586991
0.00265913
-0.000532598
0.00266344
-0.000477723
0.00266813
-0.000422389
-0.000366621
0.0027064
-0.0010987
0.00270582
-0.00105072
0.00270565
-0.00100204
0.00270591
-0.000952692
0.00270659
-0.000902693
0.00270769
-0.000852063
0.0027092
-0.000800823
0.00271113
-0.000748992
0.00271348
-0.000696591
0.00271624
-0.000643641
0.00271942
-0.000590162
0.00272299
-0.000536176
0.00272698
-0.000481704
0.00273136
-0.00042677
-0.000371395
0.00278116
-0.00119001
0.00277909
-0.0011439
0.00277745
-0.00109707
0.00277625
-0.00104952
0.00277549
-0.00100128
0.00277516
-0.000952368
0.00277528
-0.000902809
0.00277584
-0.000852621
0.00277684
-0.000801822
0.00277828
-0.000750432
0.00278016
-0.000698472
0.00278248
-0.00064596
0.00278523
-0.000592918
0.00278842
-0.000539365
0.00279204
-0.000485324
0.00279609
-0.000430816
-0.000375863
0.00285843
-0.00123177
0.00285527
-0.00118685
0.00285254
-0.00114118
0.00285026
-0.00109479
0.00284843
-0.00104769
0.00284706
-0.000999901
0.00284614
-0.00095145
0.00284568
-0.000902352
0.00284569
-0.000852625
0.00284616
-0.000802289
0.00284709
-0.000751363
0.00284848
-0.000699866
0.00285034
-0.000647817
0.00285266
-0.000595236
0.00285543
-0.000542143
0.00285867
-0.000488559
0.00286236
-0.000434506
-0.000380004
0.00294392
-0.00131422
0.00293923
-0.00127123
0.00293496
-0.00122751
0.00293114
-0.00118302
0.00292776
-0.0011378
0.00292483
-0.00109186
0.00292237
-0.00104522
0.00292038
-0.000997909
0.00291886
-0.000949931
0.00291782
-0.00090131
0.00291726
-0.000852064
0.00291718
-0.000802212
0.00291758
-0.00075177
0.00291848
-0.000700759
0.00291986
-0.000649196
0.00292172
-0.0005971
0.00292407
-0.000544492
0.0029269
-0.000491392
0.00293021
-0.000437819
-0.000383796
0.0030294
-0.00135021
0.0030236
-0.00130842
0.00301822
-0.00126586
0.00301328
-0.00122256
0.00300878
-0.00117852
0.00300474
-0.00113376
0.00300116
-0.00108829
0.00299806
-0.00104213
0.00299545
-0.000995292
0.00299332
-0.000947803
0.00299169
-0.000899677
0.00299055
-0.000850929
0.00298992
-0.000801578
0.00298979
-0.000751641
0.00299017
-0.000701136
0.00299105
-0.000650081
0.00299245
-0.000598495
0.00299435
-0.000546397
0.00299676
-0.000493805
0.00299968
-0.00044074
-0.000387222
0.0031258
-0.00142336
-0.00313346
0.0031185
-0.00138362
0.00311158
-0.00134329
0.00310508
-0.00130192
0.00309901
-0.00125978
0.00309338
-0.00121693
0.0030882
-0.00117335
0.0030835
-0.00112905
0.00307927
-0.00108406
0.00307553
-0.00103838
0.00307228
-0.000992047
0.00306954
-0.000945061
0.0030673
-0.000897444
0.00306559
-0.000849211
0.00306439
-0.00080038
0.00306371
-0.000750967
0.00306357
-0.000700988
0.00306395
-0.000650463
0.00306486
-0.000599409
0.00306631
-0.000547842
0.00306829
-0.000495784
0.0030708
-0.000443251
-0.000390265
0.00321128
-0.00141494
-0.0032197
0.00320325
-0.00137558
0.0031956
-0.00133564
0.00318838
-0.0012947
0.00318161
-0.00125301
0.00317528
-0.0012106
0.00316942
-0.00116749
0.00316404
-0.00112367
0.00315915
-0.00107917
0.00315476
-0.00103399
0.00315088
-0.000988166
0.00314752
-0.000941698
0.00314468
-0.000894605
0.00314238
-0.000846904
0.00314061
-0.00079861
0.00313938
-0.000749738
0.0031387
-0.000700307
0.00313856
-0.000650332
0.00313899
-0.00059983
0.00313996
-0.000548819
0.0031415
-0.000497317
0.00314359
-0.000445342
-0.000392914
0.00329865
-0.00140575
-0.00330784
0.00328986
-0.00136679
0.00328147
-0.00132726
0.00327353
-0.00128676
0.00326603
-0.00124551
0.00325901
-0.00120358
0.00325246
-0.00116094
0.0032464
-0.00111761
0.00324084
-0.00107361
0.0032358
-0.00102895
0.00323128
-0.000983645
0.00322729
-0.000937709
0.00322384
-0.000891156
0.00322094
-0.000844002
0.00321859
-0.000796262
0.0032168
-0.00074795
0.00321558
-0.000699084
0.00321492
-0.000649678
0.00321484
-0.00059975
0.00321534
-0.000549316
0.00321642
-0.000498394
0.00321808
-0.000447
0.00338793
-0.00139577
-0.00339791
0.00337837
-0.00135723
0.00336922
-0.00131812
0.00336054
-0.00127807
0.00335232
-0.00123729
0.00334457
-0.00119583
0.00333732
-0.00115369
0.00333057
-0.00111087
0.00332434
-0.00106738
0.00331864
-0.00102325
0.00331347
-0.000978478
0.00330885
-0.000933088
0.00330478
-0.00088709
0.00330128
-0.0008405
0.00329835
-0.00079333
0.003296
-0.000745596
0.00329423
-0.000697314
0.00329304
-0.000648497
0.00329246
-0.000599163
0.00329247
-0.000549327
0.00329308
-0.000499006
-0.000448218
0.00347914
-0.00138498
-0.00348992
0.00346879
-0.00134688
0.00345888
-0.00130821
0.00344943
-0.00126863
0.00344047
-0.00122833
0.003432
-0.00118736
0.00342404
-0.00114573
0.0034166
-0.00110342
0.00340968
-0.00106047
0.00340331
-0.00101687
0.00339749
-0.000972657
0.00339223
-0.000927829
0.00338754
-0.000882402
0.00338343
-0.000836391
0.00337991
-0.000789809
0.00337699
-0.000742671
0.00337467
-0.00069499
0.00337295
-0.000646782
0.00337185
-0.000598062
0.00337137
-0.000548846
0.00337151
-0.000499148
-0.000448986
0.00357231
-0.00137337
-0.00358392
0.00356116
-0.00133572
0.00355046
-0.00129751
0.00354025
-0.00125842
0.00353053
-0.00121861
0.00352132
-0.00117816
0.00351264
-0.00113704
0.00350449
-0.00109527
0.00349688
-0.00105286
0.00348983
-0.00100983
0.00348335
-0.000966176
0.00347745
-0.000921926
0.00347213
-0.000877086
0.00346741
-0.000831672
0.0034633
-0.000785695
0.0034598
-0.00073917
0.00345692
-0.000692109
0.00345466
-0.000644529
0.00345304
-0.000596443
0.00345206
-0.000547865
0.00345173
-0.000498813
-0.0004493
0.00366747
-0.00136092
-0.00367991
0.0036555
-0.00132375
0.003644
-0.00128601
0.003633
-0.00124742
0.00362252
-0.00120813
0.00361256
-0.0011682
0.00360314
-0.00112762
0.00359427
-0.0010864
0.00358596
-0.00104455
0.00357823
-0.00100209
0.00357108
-0.000959027
0.00356453
-0.000915371
0.00355858
-0.000871136
0.00355324
-0.000826335
0.00354853
-0.000780981
0.00354445
-0.000735087
0.003541
-0.000688666
0.00353821
-0.000641732
0.00353606
-0.000594299
0.00353458
-0.000546382
0.00353376
-0.000497995
-0.000449154
0.00376464
-0.00134762
-0.00377794
0.00375183
-0.00131094
0.00373952
-0.0012737
0.00372772
-0.00123562
0.00371646
-0.00119687
0.00370574
-0.00115748
0.00369557
-0.00111746
0.00368598
-0.0010768
0.00367696
-0.00103554
0.00366853
-0.000993666
0.00366071
-0.000951203
0.0036535
-0.000908158
0.0036469
-0.000864546
0.00364095
-0.000820376
0.00363563
-0.000775663
0.00363096
-0.000730419
0.00362695
-0.000684656
0.0036236
-0.000638388
0.00362093
-0.000591629
0.00361894
-0.000544392
0.00361764
-0.000496692
-0.000448543
0.00386386
-0.00133345
-0.00387803
0.0038502
-0.00129728
0.00383705
-0.00126055
0.00382444
-0.00122301
0.00381238
-0.00118481
0.00380089
-0.00114598
0.00378997
-0.00110654
0.00377963
-0.00106647
0.00376989
-0.0010258
0.00376077
-0.000984538
0.00375226
-0.000942694
0.00374438
-0.00090028
0.00373714
-0.000857308
0.00373055
-0.000813789
0.00372462
-0.000769735
0.00371937
-0.00072516
0.00371478
-0.000680074
0.00371089
-0.000634492
0.00370768
-0.000588426
0.00370518
-0.00054189
0.00370339
-0.000494898
-0.000447463
0.00396514
-0.00131839
-0.0039802
0.00395062
-0.00128276
0.00393663
-0.00124656
0.00392319
-0.00120958
0.00391032
-0.00117194
0.00389804
-0.0011337
0.00388635
-0.00109484
0.00387527
-0.00105538
0.0038648
-0.00101533
0.00385496
-0.000974698
0.00384576
-0.000933493
0.00383721
-0.000891728
0.00382931
-0.000849415
0.00382209
-0.000806566
0.00381555
-0.000763191
0.00380969
-0.000719304
0.00380453
-0.000674916
0.00380008
-0.00063004
0.00379634
-0.000584688
0.00379333
-0.000538873
0.00379104
-0.00049261
-0.000445912
0.00406853
-0.00130243
-0.00408449
0.00405313
-0.00126735
0.00403827
-0.0012317
0.004024
-0.0011953
0.00401031
-0.00115826
0.00399723
-0.00112062
0.00398476
-0.00108237
0.00397291
-0.00104354
0.00396171
-0.00100412
0.00395114
-0.000964137
0.00394124
-0.00092359
0.00393201
-0.000882495
0.00392346
-0.000840862
0.00391559
-0.000798702
0.00390843
-0.000756026
0.00390197
-0.000712847
0.00389623
-0.000669177
0.00389122
-0.000625027
0.00388694
-0.000580409
0.0038834
-0.000535338
0.00388062
-0.000489825
-0.000443884
0.00417405
-0.00128555
-0.00419093
0.00415775
-0.00125105
0.00414203
-0.00121598
0.0041269
-0.00118017
0.00411238
-0.00114374
0.00409848
-0.00110672
0.00408522
-0.00106911
0.00407261
-0.00103092
0.00406065
-0.000992165
0.00404936
-0.000952846
0.00403875
-0.000912979
0.00402882
-0.000872573
0.0040196
-0.000831639
0.00401109
-0.000790189
0.0040033
-0.000748233
0.00399623
-0.000705783
0.00398991
-0.000662851
0.00398433
-0.000619448
0.00397951
-0.000575587
0.00397545
-0.000531279
0.00397216
-0.000486539
-0.000441378
0.00428174
-0.00126774
-0.00429954
0.00426453
-0.00123384
0.00424792
-0.00119937
0.00423192
-0.00116418
0.00421656
-0.00112838
0.00420184
-0.001092
0.00418778
-0.00105505
0.00417438
-0.00101753
0.00416166
-0.000979446
0.00414963
-0.000940816
0.0041383
-0.000901648
0.00412768
-0.000861953
0.00411778
-0.00082174
0.00410862
-0.000781021
0.00410019
-0.000739806
0.00409251
-0.000698107
0.0040856
-0.000655934
0.00407945
-0.0006133
0.00407408
-0.000570216
0.00406949
-0.000526695
0.0040657
-0.000482748
-0.000438389
0.00439162
-0.00124899
-0.00441037
0.00437349
-0.00121572
0.00435598
-0.00118186
0.00433911
-0.00114731
0.00432289
-0.00111216
0.00430734
-0.00107645
0.00429246
-0.00104017
0.00427827
-0.00100334
0.00426478
-0.000965957
0.00425201
-0.000928038
0.00423995
-0.000889592
0.00422862
-0.000850628
0.00421804
-0.000811158
0.00420821
-0.000771191
0.00419914
-0.000730739
0.00419085
-0.000689811
0.00418333
-0.00064842
0.00417661
-0.000606577
0.00417069
-0.000564292
0.00416557
-0.000521579
0.00416127
-0.000478449
-0.000434914
0.00450373
-0.00122929
-0.00452343
0.00448467
-0.00119665
0.00446625
-0.00116344
0.00444849
-0.00112955
0.00443141
-0.00109508
0.00441501
-0.00106005
0.00439931
-0.00102447
0.00438432
-0.00098835
0.00437005
-0.000951689
0.00435652
-0.000914503
0.00434373
-0.0008768
0.00433169
-0.00083859
0.00432041
-0.000799884
0.00430991
-0.000760692
0.0043002
-0.000721024
0.00429128
-0.000680891
0.00428316
-0.000640304
0.00427586
-0.000599273
0.00426938
-0.000557811
0.00426373
-0.000515928
0.00425892
-0.000473637
-0.00043095
0.00461811
-0.00120862
-0.00463877
0.0045981
-0.00117665
0.00457876
-0.00114409
0.0045601
-0.00111089
0.00454214
-0.00107712
0.00452489
-0.0010428
0.00450836
-0.00100794
0.00449256
-0.000972551
0.00447751
-0.000936633
0.0044632
-0.000900202
0.00444967
-0.000863264
0.00443691
-0.000825831
0.00442494
-0.000787912
0.00441376
-0.000749517
0.0044034
-0.000710656
0.00439384
-0.00067134
0.00438512
-0.000631579
0.00437723
-0.000591384
0.00437019
-0.000550767
0.004364
-0.000509738
0.00435867
-0.000468309
-0.000426492
0.00473479
-0.00118698
-0.00475643
0.00471383
-0.00115569
0.00469356
-0.00112382
0.00467399
-0.00109133
0.00465515
-0.00105827
0.00463703
-0.00102469
0.00461966
-0.00099057
0.00460304
-0.000955932
0.00458719
-0.000920781
0.00457211
-0.000885127
0.00455783
-0.000848978
0.00454434
-0.000812344
0.00453166
-0.000775234
0.0045198
-0.000737659
0.00450877
-0.000699628
0.00449859
-0.000661152
0.00448925
-0.000622241
0.00448077
-0.000582905
0.00447316
-0.000543156
0.00446642
-0.000503004
0.00446057
-0.000462461
-0.000421538
0.00485381
-0.00116435
-0.00487644
0.00483189
-0.00113377
0.00481068
-0.00110261
0.00479019
-0.00107084
0.00477045
-0.00103853
0.00475146
-0.0010057
0.00473324
-0.000972347
0.0047158
-0.000938486
0.00469914
-0.000904125
0.00468328
-0.00086927
0.00466824
-0.000833932
0.00465401
-0.00079812
0.00464062
-0.000761844
0.00462807
-0.000725112
0.00461638
-0.000687934
0.00460555
-0.000650321
0.00459559
-0.000612283
0.00458652
-0.00057383
0.00457833
-0.000534972
0.00457105
-0.000495721
0.00456468
-0.000456088
-0.000416083
0.00497522
-0.00114073
-0.00499884
0.00495233
-0.00111088
0.00493017
-0.00108045
0.00490875
-0.00104943
0.00488811
-0.00101788
0.00486824
-0.000985827
0.00484916
-0.000953265
0.00483088
-0.000920205
0.00481341
-0.000886655
0.00479676
-0.000852624
0.00478095
-0.000818121
0.00476598
-0.000783154
0.00475187
-0.000747733
0.00473863
-0.000711868
0.00472626
-0.000675567
0.00471478
-0.000638841
0.0047042
-0.0006017
0.00469452
-0.000564153
0.00468576
-0.000526211
0.00467792
-0.000487885
0.00467102
-0.000449185
-0.000410123
0.00509906
-0.00111611
-0.00512368
0.00507518
-0.001087
0.00505206
-0.00105733
0.00502972
-0.00102709
0.00500816
-0.000996325
0.0049874
-0.000965068
0.00496745
-0.000933317
0.00494833
-0.00090108
0.00493004
-0.000868365
0.00491259
-0.000835181
0.00489601
-0.000801535
0.00488029
-0.000767438
0.00486545
-0.000732897
0.00485151
-0.000697921
0.00483846
-0.000662522
0.00482633
-0.000626706
0.00481511
-0.000590486
0.00480483
-0.000553869
0.00479549
-0.000516867
0.00478709
-0.00047949
0.00477966
-0.000441749
-0.000403653
0.00522536
-0.00109047
-0.005251
0.0052005
-0.00106214
0.00517642
-0.00103324
0.00515313
-0.0010038
0.00513065
-0.000973847
0.00510899
-0.000943412
0.00508817
-0.000912496
0.0050682
-0.000881105
0.00504908
-0.000849248
0.00503083
-0.000816934
0.00501347
-0.00078417
0.00499699
-0.000750964
0.00498142
-0.000717327
0.00496677
-0.000683266
0.00495304
-0.000648791
0.00494024
-0.000613911
0.00492839
-0.000578635
0.0049175
-0.000542974
0.00490757
-0.000506936
0.00489861
-0.000470533
0.00489063
-0.000433774
-0.000396671
0.00535419
-0.00106382
-0.00538084
0.00532833
-0.00103628
0.00530328
-0.00100819
0.00527904
-0.000979559
0.00525564
-0.000950442
0.00523308
-0.000920852
0.00521137
-0.000890793
0.00519054
-0.000860272
0.00517059
-0.000829297
0.00515153
-0.000797876
0.00513338
-0.000766017
0.00511614
-0.000733728
0.00509983
-0.000701018
0.00508446
-0.000667896
0.00507004
-0.000634369
0.00505658
-0.000600449
0.00504409
-0.000566143
0.00503257
-0.00053146
0.00502205
-0.000496412
0.00501252
-0.000461008
0.00500401
-0.000425257
-0.00038917
0.00548559
-0.00103615
-0.00551327
0.00545873
-0.00100942
0.0054327
-0.000982152
0.00540751
-0.000954366
0.00538317
-0.000926104
0.0053597
-0.000897382
0.00533711
-0.000868203
0.00531541
-0.000838575
0.00529462
-0.000808505
0.00527474
-0.000778001
0.0052558
-0.000747071
0.00523779
-0.000715722
0.00522074
-0.000683964
0.00520465
-0.000651804
0.00518953
-0.000619251
0.00517539
-0.000586314
0.00516225
-0.000553002
0.00515012
-0.000519325
0.005139
-0.000485291
0.0051289
-0.00045091
0.00511983
-0.000416192
-0.000381148
0.00561962
-0.00100745
-0.00564832
0.00559175
-0.000981555
0.00556474
-0.000955133
0.00553858
-0.00092821
0.0055133
-0.000900826
0.00548892
-0.000872995
0.00546543
-0.00084472
0.00544287
-0.000816008
0.00542123
-0.000786867
0.00540053
-0.000757303
0.00538078
-0.000727326
0.005362
-0.000696941
0.0053442
-0.000666158
0.00532738
-0.000634985
0.00531156
-0.000603431
0.00529675
-0.000571502
0.00528295
-0.00053921
0.00527019
-0.000506561
0.00525846
-0.000473567
0.00524779
-0.000440235
0.00523817
-0.000406576
-0.000372599
0.00575633
-0.000977712
-0.00578607
0.00572746
-0.000952677
0.00569945
-0.000927123
0.00567232
-0.000901087
0.0056461
-0.000874604
0.00562079
-0.000847686
0.00559641
-0.000820338
0.00557297
-0.000792565
0.00555047
-0.000764376
0.00552895
-0.000735776
0.0055084
-0.000706775
0.00548883
-0.000677379
0.00547027
-0.000647596
0.00545272
-0.000617434
0.00543619
-0.000586902
0.0054207
-0.000556007
0.00540625
-0.000524759
0.00539285
-0.000493165
0.00538052
-0.000461235
0.00536926
-0.000428978
0.00535909
-0.000396403
-0.00036352
0.0058958
-0.000946939
-0.00592657
0.0058659
-0.000922781
0.0058369
-0.000898119
0.0058088
-0.000872991
0.00578163
-0.000847431
0.00575539
-0.000821449
0.0057301
-0.00079505
0.00570578
-0.00076824
0.00568243
-0.000741026
0.00566007
-0.000713414
0.00563871
-0.000685413
0.00561836
-0.00065703
0.00559903
-0.000628271
0.00558074
-0.000599145
0.0055635
-0.00056966
0.00554732
-0.000539824
0.0055322
-0.000509645
0.00551817
-0.000479131
0.00550522
-0.000448291
0.00549338
-0.000417135
0.00548265
-0.00038567
-0.000353907
0.00603807
-0.000915122
-0.00606989
0.00600715
-0.000891863
0.00597715
-0.000868115
0.00594808
-0.000843918
0.00591995
-0.000819303
0.00589278
-0.00079428
0.00586658
-0.000768853
0.00584137
-0.000743028
0.00581716
-0.000716813
0.00579395
-0.000690213
0.00577178
-0.000663236
0.00575064
-0.000635888
0.00573054
-0.000608178
0.00571151
-0.000580113
0.00569355
-0.0005517
0.00567667
-0.000522947
0.00566089
-0.000493862
0.00564621
-0.000464454
0.00563265
-0.00043473
0.00562022
-0.0004047
0.00560892
-0.000374372
-0.000343755
0.00618323
-0.000882259
-0.0062161
0.00615129
-0.00085992
0.00612028
-0.000837106
0.00609023
-0.000813862
0.00606114
-0.000790214
0.00603303
-0.000766172
0.00600592
-0.00074174
0.00597981
-0.000716924
0.00595473
-0.00069173
0.00593068
-0.000666165
0.00590769
-0.000640236
0.00588575
-0.000613949
0.00586488
-0.000587312
0.0058451
-0.000560332
0.00582642
-0.000533016
0.00580884
-0.000505372
0.00579239
-0.000477407
0.00577706
-0.00044913
0.00576288
-0.000420548
0.00574985
-0.00039167
0.00573798
-0.000362504
-0.000333059
0.00633136
-0.000848346
-0.00636527
0.00629839
-0.000826947
0.00626637
-0.00080509
0.00623533
-0.00078282
0.00620527
-0.000760161
0.00617622
-0.000737122
0.00614819
-0.000713708
0.00612119
-0.000689923
0.00609523
-0.000665774
0.00607034
-0.000641268
0.00604651
-0.00061641
0.00602377
-0.000591208
0.00600212
-0.000565668
0.00598159
-0.000539798
0.00596218
-0.000513604
0.0059439
-0.000487093
0.00592677
-0.000460274
0.00591079
-0.000433153
0.00589598
-0.000405739
0.00588235
-0.00037804
0.00586991
-0.000350063
-0.000321818
0.00648253
-0.000813379
-0.0065175
0.00644852
-0.00079294
0.00641549
-0.000772061
0.00638346
-0.000750787
0.00635244
-0.000729139
0.00632244
-0.000707125
0.00629348
-0.00068475
0.00626558
-0.000662019
0.00623875
-0.000638939
0.00621299
-0.000615514
0.00618833
-0.000591752
0.00616479
-0.000567659
0.00614236
-0.000543241
0.00612106
-0.000518505
0.00610092
-0.000493458
0.00608193
-0.000468106
0.00606412
-0.000442458
0.00604748
-0.00041652
0.00603204
-0.0003903
0.00601781
-0.000363806
0.00600479
-0.000337045
-0.000310025
0.00663683
-0.000777356
-0.00667285
0.00660179
-0.000757897
0.00656774
-0.000738017
0.00653472
-0.000717759
0.00650272
-0.000697143
0.00647177
-0.000676176
0.00644188
-0.000654863
0.00641307
-0.000633209
0.00638536
-0.00061122
0.00635874
-0.0005889
0.00633325
-0.000566258
0.00630889
-0.000543297
0.00628567
-0.000520025
0.00626361
-0.000496448
0.00624273
-0.000472573
0.00622303
-0.000448406
0.00620453
-0.000423955
0.00618723
-0.000399226
0.00617116
-0.000374226
0.00615632
-0.000348963
0.00614272
-0.000323445
-0.000297679
0.00679436
-0.000740273
-0.00683144
0.00675828
-0.000721814
0.00672321
-0.000702953
0.00668919
-0.000683732
0.00665621
-0.000664169
0.00662431
-0.000644272
0.00659349
-0.000624043
0.00656377
-0.000603488
0.00653516
-0.000582612
0.00650768
-0.000561421
0.00648134
-0.000539921
0.00645616
-0.000518118
0.00643216
-0.000496017
0.00640933
-0.000473624
0.0063877
-0.000450946
0.00636729
-0.000427989
0.00634809
-0.00040476
0.00633013
-0.000381266
0.00631342
-0.000357513
0.00629796
-0.000333508
0.00628378
-0.00030926
-0.000284774
0.00695522
-0.000702127
-0.00699336
0.00691809
-0.000684687
0.006882
-0.000666865
0.00684697
-0.000648702
0.00681302
-0.000630214
0.00678015
-0.000611407
0.00674839
-0.000592284
0.00671776
-0.00057285
0.00668826
-0.000553112
0.00665991
-0.000533072
0.00663272
-0.000512739
0.00660672
-0.000492116
0.00658192
-0.00047121
0.00655832
-0.000450026
0.00653594
-0.000428571
0.0065148
-0.000406849
0.00649491
-0.000384869
0.00647628
-0.000362636
0.00645893
-0.000340156
0.00644285
-0.000317437
0.00642808
-0.000294485
-0.000271308
0.00711951
-0.000662914
-0.00715872
0.00708134
-0.000646513
0.00704422
-0.000629751
0.00700819
-0.000612666
0.00697324
-0.000595273
0.00693941
-0.000577577
0.00690671
-0.000559582
0.00687515
-0.000541292
0.00684476
-0.000522713
0.00681553
-0.000503849
0.0067875
-0.000484705
0.00676067
-0.000465287
0.00673506
-0.000445601
0.00671068
-0.000425651
0.00668756
-0.000405443
0.00666569
-0.000384983
0.0066451
-0.000364277
0.00662579
-0.000343332
0.00660779
-0.000322152
0.0065911
-0.000300746
0.00657573
-0.000279118
-0.000257277
0.00728736
-0.000622633
-0.00732764
0.00724813
-0.000607289
0.00720999
-0.000591605
0.00717294
-0.000575619
0.00713701
-0.000559341
0.00710221
-0.000542778
0.00706856
-0.000525932
0.00703608
-0.000508808
0.00700477
-0.000491411
0.00697467
-0.000473745
0.00694578
-0.000455815
0.00691812
-0.000437627
0.0068917
-0.000419184
0.00686654
-0.000400492
0.00684266
-0.000381558
0.00682006
-0.000362385
0.00679876
-0.00034298
0.00677878
-0.000323349
0.00676013
-0.000303497
0.00674281
-0.00028343
0.00672685
-0.000263155
-0.000242677
0.00745888
-0.000581278
-0.00750023
0.0074186
-0.00056701
0.00737942
-0.000552425
0.00734136
-0.000537557
0.00730443
-0.000522415
0.00726866
-0.000507006
0.00723406
-0.00049133
0.00720064
-0.000475395
0.00716843
-0.000459202
0.00713744
-0.000442757
0.00710769
-0.000426064
0.0070792
-0.000409129
0.00705197
-0.000391955
0.00702602
-0.000374547
0.00700137
-0.000356911
0.00697804
-0.000339051
0.00695603
-0.000320974
0.00693537
-0.000302683
0.00691606
-0.000284186
0.00689811
-0.000265486
0.00688155
-0.000246591
-0.000227506
0.00763421
-0.000538847
-0.00767664
0.00759287
-0.000525674
0.00755265
-0.000512207
0.00751357
-0.000498476
0.00747565
-0.000484491
0.00743889
-0.000470255
0.00740334
-0.000455772
0.00736899
-0.000441046
0.00733586
-0.00042608
0.00730399
-0.000410879
0.00727337
-0.000395447
0.00724403
-0.000379789
0.00721598
-0.000363908
0.00718925
-0.000347809
0.00716383
-0.000331497
0.00713976
-0.000314977
0.00711704
-0.000298253
0.00709569
-0.000281331
0.00707572
-0.000264215
0.00705714
-0.000246911
0.00703997
-0.000229425
-0.000211761
0.00781348
-0.000495336
-0.007857
0.00777109
-0.000483276
0.00772983
-0.000470945
0.00768972
-0.000458371
0.00765079
-0.000445562
0.00761306
-0.000432521
0.00757654
-0.000419251
0.00754125
-0.000405757
0.00750721
-0.000392041
0.00747444
-0.000378107
0.00744295
-0.00036396
0.00741276
-0.000349602
0.00738389
-0.000335039
0.00735636
-0.000320275
0.00733018
-0.000305313
0.00730536
-0.000290158
0.00728192
-0.000274815
0.00725987
-0.000259288
0.00723924
-0.000243581
0.00722003
-0.000227701
0.00720226
-0.000211652
-0.000195438
0.00799686
-0.000450742
-0.00804146
0.0079534
-0.000439813
0.00791109
-0.000428637
0.00786996
-0.000417239
0.00783002
-0.000405625
0.0077913
-0.0003938
0.00775381
-0.000381765
0.00771758
-0.000369523
0.00768262
-0.000357079
0.00764895
-0.000344435
0.00761658
-0.000331596
0.00758554
-0.000318564
0.00755585
-0.000305343
0.00752751
-0.000291938
0.00750055
-0.000278352
0.00747498
-0.000264589
0.00745082
-0.000250653
0.00742808
-0.000236549
0.00740678
-0.000222281
0.00738693
-0.000207853
0.00736855
-0.000193269
-0.000178536
0.0081845
-0.00040506
-0.00823018
0.00813997
-0.000395279
0.00809661
-0.000385277
0.00805444
-0.000375074
0.00801349
-0.000364676
0.00797378
-0.000354086
0.00793532
-0.000343306
0.00789814
-0.00033234
0.00786225
-0.000321189
0.00782767
-0.000309859
0.00779442
-0.000298351
0.00776253
-0.000286669
0.007732
-0.000274816
0.00770286
-0.000262795
0.00767512
-0.000250611
0.00764879
-0.000238266
0.00762391
-0.000225765
0.00760047
-0.000213112
0.0075785
-0.000200309
0.00755801
-0.000187362
0.00753901
-0.000174274
-0.00016105
0.00837657
-0.000358286
-0.00842334
0.00833096
-0.000349672
0.00828654
-0.000340861
0.00824334
-0.000331871
0.00820137
-0.000322708
0.00816066
-0.000313374
0.00812123
-0.000303871
0.00808309
-0.000294201
0.00804626
-0.000284367
0.00801078
-0.000274372
0.00797665
-0.000264219
0.00794389
-0.000253911
0.00791252
-0.000243451
0.00788257
-0.00023284
0.00785404
-0.000222084
0.00782696
-0.000211185
0.00780134
-0.000200146
0.0077772
-0.000188971
0.00775456
-0.000177663
0.00773342
-0.000166226
0.00771381
-0.000154664
-0.000142979
0.00857324
-0.000310417
-0.00862111
0.00852655
-0.000302986
0.00848108
-0.000295384
0.00843683
-0.000287627
0.00839384
-0.000279718
0.00835213
-0.00027166
0.00831171
-0.000263453
0.00827261
-0.000255102
0.00823485
-0.000246607
0.00819845
-0.000237971
0.00816343
-0.000229197
0.0081298
-0.000220287
0.00809759
-0.000211243
0.00806682
-0.000202069
0.00803751
-0.000192768
0.00800966
-0.000183341
0.00798331
-0.000173792
0.00795846
-0.000164124
0.00793514
-0.000154339
0.00791335
-0.000144442
0.00789312
-0.000134435
0.0087747
-0.000261449
-0.00882367
0.00872693
-0.000255219
0.00868039
-0.000248844
0.0086351
-0.000242337
0.00859109
-0.000235701
0.00854836
-0.000228938
0.00850696
-0.000222049
0.0084669
-0.000215037
0.00842819
-0.000207903
0.00839087
-0.000200649
0.00835495
-0.000193277
0.00832045
-0.00018579
0.0082874
-0.000178189
0.00825581
-0.000170477
0.00822569
-0.000162656
0.00819708
-0.000154729
0.00816999
-0.000146698
0.00814443
-0.000138565
0.00812042
-0.000130334
0.00809799
-0.000122006
-0.000113585
0.00898116
-0.000211378
-0.00903123
0.0089323
-0.000206365
0.00888469
-0.000201234
0.00883835
-0.000195996
0.0087933
-0.000190652
0.00874957
-0.000185204
0.00870717
-0.000179653
0.00866614
-0.000174001
0.00862648
-0.00016825
0.00858824
-0.0001624
0.00855141
-0.000156455
0.00851604
-0.000150414
0.00848213
-0.000144281
0.00844971
-0.000138057
0.0084188
-0.000131745
0.00838942
-0.000125345
0.00836158
-0.00011886
0.0083353
-0.000112292
0.00831061
-0.000105643
0.00828752
-9.89162e-05
-9.21125e-05
0.00919281
-0.000160201
-0.00924398
0.00914286
-0.000156421
0.00909418
-0.000152551
0.00904678
-0.000148599
0.0090007
-0.000144565
0.00895595
-0.000140451
0.00891255
-0.000136259
0.00887054
-0.000131988
0.00882993
-0.000127641
0.00879075
-0.000123219
0.00875302
-0.000118723
0.00871676
-0.000114155
0.00868199
-0.000109515
0.00864874
-0.000104806
0.00861702
-0.000100028
0.00858686
-9.51834e-05
0.00855828
-9.02737e-05
0.00853128
-8.53005e-05
0.00850591
-8.02651e-05
0.00848216
-7.51697e-05
-7.00157e-05
0.00940986
-0.000107915
-0.00946215
0.00935883
-0.000105384
0.00930907
-0.00010279
0.00926061
-0.00010014
0.00921348
-9.74348e-05
0.0091677
-9.4674e-05
0.0091233
-9.18592e-05
0.0090803
-8.89911e-05
0.00903873
-8.60707e-05
0.00899861
-8.30987e-05
0.00895997
-8.00763e-05
0.00892281
-7.70042e-05
0.00888718
-7.38836e-05
0.00885309
-7.07153e-05
0.00882057
-6.75005e-05
0.00878962
-6.42401e-05
0.00876028
-6.09354e-05
0.00873257
-5.75874e-05
0.0087065
-5.4197e-05
0.0086821
-5.07658e-05
-4.72944e-05
0.00963254
-5.45165e-05
-0.00968594
0.0095804
-5.32472e-05
0.00952955
-5.1945e-05
0.00948003
-5.06131e-05
0.00943184
-4.92521e-05
0.00938503
-4.78627e-05
0.00933962
-4.6445e-05
0.00929563
-4.5e-05
0.00925309
-4.35279e-05
0.00921202
-4.20295e-05
0.00917244
-4.0505e-05
0.0091344
-3.89553e-05
0.00909789
-3.73805e-05
0.00906296
-3.57815e-05
0.00902962
-3.41585e-05
0.00899789
-3.25124e-05
0.0089678
-3.08434e-05
0.00893936
-2.91526e-05
0.00891261
-2.744e-05
0.00888755
-2.57067e-05
-2.39528e-05
0.00986106
-0.00991558
0.00980781
0.00975587
0.00970525
0.009656
0.00960814
0.00956169
0.00951669
0.00947317
0.00943114
0.00939063
0.00935168
0.0093143
0.00927851
0.00924436
0.00921184
0.009181
0.00915185
0.00912441
0.0090987
0.00302561
0.00110564
0.00303824
0.00110886
0.00305203
0.00110752
0.00306689
0.00110135
0.00308267
0.00108997
0.00309918
0.00107283
0.00311622
0.00104914
0.00101758
0.00306404
5.76322e-05
0.00306307
0.000161234
0.00306159
0.000252859
0.00305969
0.000334789
0.0030575
0.000409463
0.00305516
0.000478242
0.00305278
0.000542254
0.0030505
0.000602194
0.00304845
0.000658556
0.00304674
0.000711626
0.00304553
0.000761562
0.00304492
0.000808412
0.00304507
0.000852152
0.00304607
0.000892704
0.00304805
0.000929955
0.00305112
0.000963774
0.00305535
0.000994019
0.00306083
0.00102055
0.00306761
0.00104325
0.00307572
0.00106199
0.00308517
0.00107668
0.00309596
0.00108724
0.00310804
0.00109356
0.00312135
0.00109555
0.0031358
0.00109307
0.00315127
0.00108588
0.0031676
0.00107363
0.00318461
0.00105582
0.00320208
0.00103167
0.000999955
0.00313693
5.79308e-05
0.00313606
0.000162106
0.00313473
0.000254194
0.00313303
0.000336483
0.0031311
0.000411392
0.00312906
0.000480285
0.00312703
0.000544284
0.00312514
0.000604084
0.00312352
0.000660176
0.0031223
0.000712846
0.00312161
0.000762251
0.00312158
0.000808442
0.00312234
0.0008514
0.00312399
0.000891051
0.00312665
0.000927292
0.00313042
0.000960002
0.00313539