0 	0.525939 	1.249e-17 	-0.577638
0 	0.57878 	1.249e-17 	-0.503007
0 	0.633585 	1.249e-17 	-0.481913
0 	0.690426 	1.11022e-17 	-0.438449
0 	0.749378 	9.71445e-18 	-0.407538
0 	0.810522 	9.71445e-18 	-0.371332
0 	0.873937 	9.71445e-18 	-0.338086
0 	0.939708 	1.11022e-17 	-0.304518
