/*--------------------------------*- C++ -*----------------------------------*\
  =========                 |
  \\      /  F ield         | OpenFOAM: The Open Source CFD Toolbox
   \\    /   O peration     | Website:  https://openfoam.org
    \\  /    A nd           | Version:  7
     \\/     M anipulation  |
\*---------------------------------------------------------------------------*/
FoamFile
{
    version     2.0;
    format      ascii;
    class       surfaceScalarField;
    location    "15";
    object      phi;
}
// * * * * * * * * * * * * * * * * * * * * * * * * * * * * * * * * * * * * * //

dimensions      [0 3 -1 0 0 0 0];

internalField   nonuniform List<scalar> 
5135
(
-0.0118256
-0.000803726
-0.011723
-0.000881112
-0.0116161
-0.000957734
-0.00103357
0.00187184
-0.00132347
0.00186724
-0.0012515
0.00186311
-0.00117865
0.00185947
-0.00110495
0.00185633
-0.00103042
0.00185368
-0.000955087
0.00185154
-0.000878969
0.0018499
-0.000802092
-0.000724479
0.0019223
-0.00138873
0.00191696
-0.00131813
0.0019121
-0.00124664
0.00190774
-0.00117429
0.00190389
-0.00110109
0.00190054
-0.00102708
0.00189771
-0.000952257
0.0018954
-0.00087666
0.00189362
-0.000800309
-0.000723228
0.00197501
-0.0014518
0.00196887
-0.0013826
0.00196324
-0.0013125
0.00195811
-0.00124152
0.00195351
-0.00116968
0.00194942
-0.00109701
0.00194586
-0.00102351
0.00194283
-0.000949229
0.00194034
-0.000874171
0.00193839
-0.000798364
-0.000721832
0.00203009
-0.00151261
0.00202312
-0.00144483
0.00201666
-0.00137614
0.00201072
-0.00130656
0.00200531
-0.00123611
0.00200043
-0.0011648
0.00199609
-0.00109267
0.0019923
-0.00101972
0.00198906
-0.000945989
0.00198638
-0.000871489
0.00198426
-0.000796244
-0.000720279
0.00207986
-0.00150475
0.00207252
-0.00143749
0.00206572
-0.00136934
0.00205945
-0.0013003
0.00205373
-0.00123039
0.00204857
-0.00115964
0.00204397
-0.00108806
0.00203993
-0.00101568
0.00203646
-0.000942521
0.00203356
-0.000868596
0.00203125
-0.000793933
-0.000718554
0.00213924
-0.00156227
0.00213097
-0.00149648
0.00212324
-0.00142977
0.00211607
-0.00136217
0.00210946
-0.00129369
0.00210342
-0.00122435
0.00209795
-0.00115417
0.00209306
-0.00108317
0.00208876
-0.00101138
0.00208504
-0.000938806
0.00208192
-0.000865478
0.00207941
-0.000791416
-0.000716642
0.00220141
-0.00161731
0.00219214
-0.00155301
0.00218345
-0.00148778
0.00217532
-0.00142164
0.00216776
-0.00135461
0.00216078
-0.00128671
0.0021544
-0.00121796
0.00214861
-0.00114838
0.00214341
-0.00107798
0.00213882
-0.00100679
0.00213485
-0.00093483
0.00213149
-0.000862118
0.00212875
-0.000788677
-0.000714531
0.00226649
-0.0016698
0.00225619
-0.00160701
0.00224646
-0.00154328
0.00223732
-0.00147863
0.00222876
-0.00141308
0.0022208
-0.00134665
0.00221345
-0.00127935
0.0022067
-0.00121121
0.00220056
-0.00114224
0.00219505
-0.00107247
0.00219016
-0.0010019
0.00218591
-0.000930575
0.00218229
-0.000858501
0.00217932
-0.000785703
-0.000712204
0.00233463
-0.00171965
0.00232324
-0.0016584
0.00231243
-0.0015962
0.00230222
-0.00153307
0.00229261
-0.00146903
0.00228362
-0.00140409
0.00227524
-0.00133827
0.00226748
-0.0012716
0.00226035
-0.00120408
0.00225386
-0.00113575
0.00224801
-0.00106662
0.0022428
-0.000996701
0.00223825
-0.000926025
0.00223436
-0.000854611
0.00223114
-0.000782477
-0.000709648
0.00240594
-0.00176679
0.00239341
-0.00170712
0.00238148
-0.00164647
0.00237016
-0.00158488
0.00235945
-0.00152236
0.00234936
-0.00145894
0.00233991
-0.00139463
0.00233109
-0.00132945
0.00232291
-0.00126342
0.00231539
-0.00119656
0.00230852
-0.00112888
0.00230231
-0.00106041
0.00229678
-0.000991166
0.00229192
-0.000921166
0.00228774
-0.000850432
0.00228425
-0.000778985
-0.000706847
0.00249484
-0.00186828
0.00248054
-0.00181118
0.00246683
-0.00175309
0.00245373
-0.00169402
0.00244125
-0.00163399
0.00242939
-0.00157302
0.00241817
-0.00151114
0.00240759
-0.00144836
0.00239766
-0.0013847
0.00238838
-0.00132018
0.00237977
-0.00125481
0.00237184
-0.00118862
0.00236458
-0.00112162
0.002358
-0.00105384
0.00235212
-0.000985282
0.00234693
-0.00091598
0.00234245
-0.000845949
0.00233868
-0.000775211
-0.000703788
0.00257404
-0.00190825
0.00255852
-0.00185276
0.0025436
-0.00179626
0.0025293
-0.00173878
0.00251561
-0.00168033
0.00250257
-0.00162094
0.00249016
-0.00156062
0.00247841
-0.00149939
0.00246732
-0.00143727
0.0024569
-0.00137428
0.00244716
-0.00131043
0.0024381
-0.00124575
0.00242973
-0.00118025
0.00242207
-0.00111396
0.00241511
-0.00104688
0.00240886
-0.000979036
0.00240333
-0.000910453
0.00239853
-0.000841148
0.00239446
-0.000771142
-0.000700456
0.00265674
-0.00194538
0.00263998
-0.0018915
0.00262383
-0.00183661
0.00260828
-0.00178072
0.00259337
-0.00172387
0.00257909
-0.00166606
0.00256546
-0.00160731
0.0025525
-0.00154765
0.0025402
-0.0014871
0.00252859
-0.00142566
0.00251766
-0.00136335
0.00250743
-0.00130021
0.00249791
-0.00123623
0.0024891
-0.00117144
0.00248101
-0.00110587
0.00247365
-0.00103952
0.00246703
-0.000972411
0.00246115
-0.000904571
0.00245601
-0.000836015
0.00245164
-0.000766763
-0.000696838
0.00274304
-0.0019797
0.00272502
-0.00192736
0.0027076
-0.00187407
0.00269079
-0.0018198
0.00267461
-0.00176454
0.00265907
-0.00170832
0.00264418
-0.00165117
0.00262996
-0.00159309
0.00261642
-0.00153411
0.00260357
-0.00147424
0.00259142
-0.0014135
0.00257997
-0.00135191
0.00256925
-0.00128948
0.00255925
-0.00122623
0.00254998
-0.00116218
0.00254145
-0.00109734
0.00253368
-0.00103174
0.00252666
-0.000965395
0.00252041
-0.000898319
0.00251493
-0.000830534
0.00251023
-0.000762061
-0.00069292
0.00283305
-0.00201091
0.00281374
-0.00196039
0.00279503
-0.00190865
0.00277692
-0.00185597
0.00275944
-0.00180232
0.00274261
-0.0017477
0.00272643
-0.00169215
0.00271092
-0.00163566
0.0026961
-0.00157827
0.00268197
-0.00151998
0.00266855
-0.00146082
0.00265584
-0.0014008
0.00264386
-0.00133993
0.00263262
-0.00127824
0.00262213
-0.00121574
0.00261239
-0.00115244
0.00260342
-0.00108837
0.00259521
-0.00102354
0.00258779
-0.000957972
0.00258116
-0.000891684
0.00257531
-0.000824694
0.00257028
-0.000757022
-0.000688689
0.00292688
-0.00203905
-0.00294803
0.00290625
-0.00199028
0.00288621
-0.00194035
0.00286678
-0.00188922
0.00284798
-0.00183716
0.00282982
-0.00178416
0.00281231
-0.0017302
0.00279548
-0.00167531
0.00277934
-0.00161952
0.00276389
-0.00156283
0.00274916
-0.00150525
0.00273516
-0.00144681
0.00272188
-0.00138753
0.00270936
-0.00132741
0.00269759
-0.00126647
0.00268659
-0.00120474
0.00267637
-0.00114222
0.00266693
-0.00107893
0.00265829
-0.0010149
0.00265045
-0.00095013
0.00264341
-0.000884652
0.0026372
-0.00081848
0.00263181
-0.000751633
-0.000684132
0.00300267
-0.00201711
-0.00302461
0.00298127
-0.00196889
0.00296049
-0.00191957
0.00294033
-0.00186906
0.00292081
-0.00181764
0.00290194
-0.00176529
0.00288375
-0.00171201
0.00286625
-0.00165782
0.00284946
-0.00160272
0.00283338
-0.00154675
0.00281803
-0.00148991
0.00280343
-0.00143221
0.00278958
-0.00137368
0.0027765
-0.00131432
0.00276419
-0.00125417
0.00275267
-0.00119322
0.00274195
-0.00113149
0.00273203
-0.00106901
0.00272293
-0.0010058
0.00271466
-0.000941855
0.00270722
-0.000877211
0.00270062
-0.00081188
0.00269487
-0.000745882
-0.000679237
0.00308034
-0.00199436
-0.00310308
0.00305816
-0.00194671
0.0030366
-0.00189801
0.00301569
-0.00184815
0.00299543
-0.00179739
0.00297585
-0.00174571
0.00295697
-0.00169312
0.00293878
-0.00163963
0.00292132
-0.00158526
0.00290459
-0.00153002
0.00288862
-0.00147393
0.0028734
-0.00141699
0.00285896
-0.00135924
0.0028453
-0.00130067
0.00283244
-0.00124131
0.00282039
-0.00118116
0.00280916
-0.00112026
0.00279875
-0.00105861
0.00278918
-0.000996229
0.00278046
-0.000933136
0.0027726
-0.000869348
0.0027656
-0.000804882
0.00275948
-0.000739757
-0.000673993
0.00315992
-0.00197079
-0.0031835
0.00313694
-0.00192372
0.00311459
-0.00187566
0.00309291
-0.00182647
0.0030719
-0.00177638
0.00305159
-0.0017254
0.00303198
-0.00167351
0.0030131
-0.00162075
0.00299495
-0.00156712
0.00297756
-0.00151263
0.00296094
-0.0014573
0.0029451
-0.00140115
0.00293005
-0.00134419
0.00291581
-0.00128642
0.00290238
-0.00122788
0.00288978
-0.00116857
0.00287802
-0.0011085
0.00286712
-0.0010477
0.00285707
-0.000986183
0.00284789
-0.00092396
0.0028396
-0.000861051
0.00283219
-0.000797474
0.00282568
-0.000733246
-0.000668388
0.00324147
-0.00194636
-0.0032659
0.00321766
-0.00189991
0.0031945
-0.00185251
0.00317203
-0.001804
0.00315025
-0.0017546
0.00312918
-0.00170433
0.00310884
-0.00165317
0.00308924
-0.00160115
0.0030704
-0.00154828
0.00305233
-0.00149456
0.00303504
-0.00144002
0.00301856
-0.00138467
0.00300289
-0.00132852
0.00298804
-0.00127158
0.00297404
-0.00121387
0.00296088
-0.00115541
0.00294859
-0.00109621
0.00293717
-0.00103628
0.00292663
-0.000975644
0.00291698
-0.000914315
0.00290824
-0.000852309
0.00290041
-0.000789644
0.0028935
-0.000726338
-0.00066241
0.00332502
-0.00192106
-0.00335032
0.00330036
-0.00187525
0.00327637
-0.00182852
0.00325308
-0.00178071
0.00323051
-0.00173203
0.00320867
-0.00168248
0.00318757
-0.00163208
0.00316724
-0.00158082
0.00314768
-0.00152872
0.00312891
-0.0014758
0.00311095
-0.00142206
0.00309381
-0.00136753
0.00307751
-0.00131221
0.00306205
-0.00125612
0.00304745
-0.00119927
0.00303372
-0.00114168
0.00302088
-0.00108336
0.00300893
-0.00102433
0.00299789
-0.000964602
0.00298776
-0.000904189
0.00297856
-0.00084311
0.0029703
-0.000781382
0.00296299
-0.000719023
-0.000656049
0.00341061
-0.00189487
-0.0034368
0.00338507
-0.00184971
0.00336023
-0.00180368
0.00333611
-0.00175659
0.00331273
-0.00170864
0.00329009
-0.00165985
0.00326822
-0.00161021
0.00324713
-0.00155973
0.00322684
-0.00150843
0.00320736
-0.00145632
0.00318871
-0.00140341
0.0031709
-0.00134972
0.00315395
-0.00129526
0.00313786
-0.00124003
0.00312265
-0.00118407
0.00310834
-0.00112737
0.00309494
-0.00106996
0.00308245
-0.00101184
0.00307089
-0.000953043
0.00306027
-0.000893571
0.0030506
-0.000833443
0.0030419
-0.000772677
0.00303416
-0.000711288
-0.000649295
0.00349828
-0.00186775
-0.0035254
0.00347185
-0.00182328
0.00344613
-0.00177797
0.00342116
-0.00173162
0.00339693
-0.00168442
0.00337348
-0.0016364
0.00335082
-0.00158754
0.00332896
-0.00153787
0.00330792
-0.00148739
0.00328771
-0.00143611
0.00326835
-0.00138405
0.00324986
-0.00133122
0.00323224
-0.00127763
0.0032155
-0.0012233
0.00319968
-0.00116824
0.00318477
-0.00111246
0.00317079
-0.00105598
0.00315775
-0.000998805
0.00314566
-0.000940957
0.00313454
-0.000882449
0.00312439
-0.000823297
0.00311523
-0.000763516
0.00310707
-0.000703124
-0.000642137
0.00358808
-0.00183969
-0.00361614
0.00356072
-0.00179593
0.00353411
-0.00175135
0.00350826
-0.00170577
0.00348318
-0.00165934
0.00345889
-0.00161211
0.00343542
-0.00156407
0.00341277
-0.00151522
0.00339096
-0.00146557
0.00337
-0.00141515
0.00334992
-0.00136397
0.00333072
-0.00131202
0.00331241
-0.00125933
0.00329503
-0.00120592
0.00327857
-0.00115178
0.00326304
-0.00109694
0.00324848
-0.00104141
0.00323487
-0.000985202
0.00322225
-0.000928331
0.00321061
-0.000870812
0.00319997
-0.00081266
0.00319035
-0.000753891
0.00318174
-0.000694521
-0.000634566
0.00368004
-0.00181066
-0.00370907
0.00365175
-0.00176763
0.00362421
-0.00172381
0.00359745
-0.00167901
0.0035715
-0.00163339
0.00354636
-0.00158697
0.00352205
-0.00153976
0.00349859
-0.00149175
0.00347599
-0.00144298
0.00345427
-0.00139343
0.00343344
-0.00134314
0.00341352
-0.0012921
0.00339452
-0.00124034
0.00337646
-0.00118786
0.00335935
-0.00113467
0.00334321
-0.00108079
0.00332804
-0.00102624
0.00331386
-0.000971022
0.00330068
-0.000915153
0.00328851
-0.000858648
0.00327737
-0.000801522
0.00326727
-0.00074379
0.00325822
-0.000685468
-0.000626572
0.00377422
-0.00178064
-0.00380424
0.00374495
-0.00173837
0.00371647
-0.00169533
0.00368879
-0.00165134
0.00366194
-0.00160653
0.00363592
-0.00156096
0.00361076
-0.00151459
0.00358647
-0.00146746
0.00356306
-0.00141957
0.00354055
-0.00137093
0.00351897
-0.00132155
0.00349831
-0.00127145
0.0034786
-0.00122063
0.00345985
-0.00116911
0.00344208
-0.0011169
0.00342529
-0.00106401
0.00340951
-0.00101046
0.00339474
-0.000956252
0.00338099
-0.00090141
0.00336829
-0.000845945
0.00335664
-0.000789871
0.00334605
-0.000733202
0.00333654
-0.000675955
0.00387065
-0.0017496
-0.00390169
0.0038404
-0.00170811
0.00381094
-0.00166587
0.00378232
-0.00162271
0.00375454
-0.00157876
0.00372763
-0.00153404
0.00370159
-0.00148856
0.00367644
-0.00144232
0.00365221
-0.00139534
0.0036289
-0.00134762
0.00360654
-0.00129918
0.00358513
-0.00125004
0.00356469
-0.00120019
0.00354523
-0.00114965
0.00352678
-0.00109844
0.00350934
-0.00104657
0.00349293
-0.000994042
0.00347755
-0.000940879
0.00346324
-0.000887091
0.00344998
-0.000832692
0.00343781
-0.000777696
0.00342672
-0.000722117
-0.000665971
0.00396939
-0.00171751
-0.00400147
0.00393811
-0.00167684
0.00390767
-0.00163543
0.00387807
-0.00159312
0.00384935
-0.00155003
0.00382151
-0.0015062
0.00379458
-0.00146162
0.00376857
-0.0014163
0.00374349
-0.00137026
0.00371936
-0.00132349
0.00369619
-0.00127602
0.00367401
-0.00122785
0.00365283
-0.001179
0.00363265
-0.00112948
0.0036135
-0.00107929
0.0035954
-0.00102846
0.00357834
-0.000976987
0.00356235
-0.00092489
0.00354744
-0.000872182
0.00353363
-0.000818876
0.00352092
-0.000764985
0.00350932
-0.000710524
-0.000655508
0.00407047
-0.00168436
-0.00410362
0.00403816
-0.00164452
0.00400669
-0.00160396
0.00397611
-0.00156253
0.00394642
-0.00152034
0.00391764
-0.00147742
0.00388978
-0.00143377
0.00386288
-0.0013894
0.00383693
-0.00134431
0.00381196
-0.00129852
0.00378798
-0.00125204
0.00376501
-0.00120488
0.00374306
-0.00115706
0.00372215
-0.00110857
0.00370229
-0.00105944
0.0036835
-0.00100967
0.00366579
-0.000959275
0.00364917
-0.000908272
0.00363366
-0.000856671
0.00361927
-0.000804485
0.00360601
-0.000751728
0.0035939
-0.000698412
-0.000644554
0.00417395
-0.00165012
-0.00420819
0.00414057
-0.00161114
0.00410806
-0.00157146
0.00407646
-0.00153093
0.00404578
-0.00148966
0.00401603
-0.00144768
0.00398724
-0.00140498
0.00395942
-0.00136158
0.00393259
-0.00131748
0.00390676
-0.00127269
0.00388194
-0.00122723
0.00385817
-0.00118111
0.00383544
-0.00113433
0.00381377
-0.0010869
0.00379319
-0.00103885
0.0037737
-0.000990175
0.00375531
-0.000940891
0.00373805
-0.00089101
0.00372192
-0.000840545
0.00370695
-0.000789508
0.00369313
-0.000737912
0.00368049
-0.000685771
-0.000633098
0.00427987
-0.00161476
-0.00431523
0.00424539
-0.00157667
0.00421182
-0.00153789
0.00417918
-0.00149829
0.00414749
-0.00145797
0.00411676
-0.00141695
0.004087
-0.00137523
0.00405825
-0.00133282
0.00403051
-0.00128973
0.0040038
-0.00124598
0.00397813
-0.00120156
0.00395353
-0.0011565
0.00393
-0.0011108
0.00390756
-0.00106447
0.00388624
-0.00101752
0.00386603
-0.000969969
0.00384696
-0.000921821
0.00382904
-0.000873091
0.00381229
-0.00082379
0.00379671
-0.00077393
0.00378232
-0.000723525
0.00376914
-0.000672587
-0.000621131
0.00438828
-0.00157825
-0.00442478
0.00435269
-0.00154108
0.00431803
-0.00150323
0.00428432
-0.00146459
0.00425159
-0.00142524
0.00421985
-0.0013852
0.00418912
-0.00134449
0.00415941
-0.00130311
0.00413074
-0.00126106
0.00410313
-0.00121837
0.00407659
-0.00117503
0.00405114
-0.00113105
0.00402679
-0.00108646
0.00400357
-0.00104125
0.00398148
-0.000995435
0.00396055
-0.000949033
0.00394078
-0.000902051
0.00392219
-0.000854499
0.00390479
-0.000806392
0.0038886
-0.00075774
0.00387363
-0.000708555
0.00385989
-0.000658851
-0.000608642
0.00449922
-0.00154058
-0.0045369
0.0044625
-0.00150435
0.00442672
-0.00146745
0.00439193
-0.0014298
0.00435814
-0.00139145
0.00432537
-0.00135243
0.00429363
-0.00131275
0.00426294
-0.00127242
0.00423332
-0.00123145
0.00420479
-0.00118983
0.00417736
-0.0011476
0.00415105
-0.00110474
0.00412587
-0.00106128
0.00410184
-0.00101722
0.00407898
-0.000972572
0.0040573
-0.00092735
0.00403681
-0.000881563
0.00401753
-0.000835222
0.00399948
-0.000788338
0.00398266
-0.000740923
0.0039671
-0.00069299
0.0039528
-0.000644551
-0.000595619
0.00461276
-0.00150172
-0.00465163
0.00457487
-0.00146646
0.00453796
-0.00143054
0.00450206
-0.0013939
0.00446719
-0.00135657
0.00443336
-0.0013186
0.00440059
-0.00127999
0.00436891
-0.00124074
0.00433832
-0.00120086
0.00430885
-0.00116036
0.00428051
-0.00111925
0.00425331
-0.00107755
0.00422728
-0.00103525
0.00420243
-0.000992368
0.00417878
-0.000948917
0.00415633
-0.000904905
0.00413511
-0.000860343
0.00411513
-0.000815243
0.00409641
-0.000769613
0.00407895
-0.000723468
0.00406278
-0.000676817
0.0040479
-0.000629674
-0.000582052
0.00472894
-0.00146164
-0.00476902
0.00468986
-0.00142738
0.00465179
-0.00139247
0.00461476
-0.00135686
0.00457878
-0.0013206
0.00454387
-0.0012837
0.00451006
-0.00124618
0.00447736
-0.00120803
0.00444578
-0.00116928
0.00441534
-0.00112993
0.00438607
-0.00108998
0.00435798
-0.00104945
0.00433107
-0.00100835
0.00430538
-0.000966676
0.00428092
-0.000924451
0.00425769
-0.000881681
0.00423573
-0.000838376
0.00421503
-0.000794547
0.00419562
-0.000750204
0.00417751
-0.000705359
0.00416072
-0.000660024
0.00414526
-0.000614209
-0.000567928
0.00484781
-0.00142032
-0.00488913
0.00480752
-0.00138708
0.00476826
-0.00135322
0.00473007
-0.00131867
0.00469297
-0.00128349
0.00465696
-0.00124769
0.00462208
-0.00121129
0.00458834
-0.00117429
0.00455575
-0.00113669
0.00452433
-0.00109851
0.00449411
-0.00105976
0.00446509
-0.00102044
0.0044373
-0.000980555
0.00441075
-0.000940127
0.00438546
-0.000899159
0.00436144
-0.000857662
0.00433871
-0.000815646
0.00431729
-0.00077312
0.00429718
-0.000730096
0.0042784
-0.000686585
0.00426098
-0.000642597
0.00424491
-0.000598144
-0.000553238
0.00496943
-0.00137773
-0.00501201
0.0049279
-0.00134555
0.00488744
-0.00131276
0.00484807
-0.0012793
0.00480981
-0.00124523
0.00477269
-0.00121057
0.00473671
-0.00117532
0.00470191
-0.00113948
0.00466828
-0.00110307
0.00463587
-0.0010661
0.00460468
-0.00102856
0.00457472
-0.000990481
0.00454602
-0.000951857
0.0045186
-0.000912701
0.00449246
-0.000873023
0.00446763
-0.000832831
0.00444412
-0.000792136
0.00442195
-0.000750947
0.00440112
-0.000709275
0.00438167
-0.00066713
0.00436359
-0.000624523
0.00434692
-0.000581465
-0.000537969
0.00509385
-0.00133386
-0.00513772
0.00505106
-0.00130276
0.00500936
-0.00127106
0.00496879
-0.00123873
0.00492936
-0.0012058
0.0048911
-0.0011723
0.00485401
-0.00113823
0.00481812
-0.00110359
0.00478344
-0.0010684
0.00475001
-0.00103266
0.00471782
-0.00099638
0.00468691
-0.000959567
0.00465728
-0.000922232
0.00462897
-0.000884381
0.00460197
-0.000846025
0.00457631
-0.000807171
0.004552
-0.00076783
0.00452907
-0.000728012
0.00450752
-0.000687725
0.00448737
-0.000646981
0.00446863
-0.000605789
0.00445133
-0.000564162
-0.000522109
0.00522112
-0.00128868
-0.00526631
0.00517705
-0.00125869
0.0051341
-0.00122812
0.0050923
-0.00119694
0.00505168
-0.00116518
0.00501225
-0.00113287
0.00497402
-0.00110001
0.00493703
-0.0010666
0.00490128
-0.00103265
0.0048668
-0.000998181
0.00483361
-0.000963186
0.00480172
-0.000927677
0.00477115
-0.000891662
0.00474192
-0.000855149
0.00471404
-0.000818148
0.00468754
-0.000780666
0.00466242
-0.000742714
0.00463871
-0.000704299
0.00461641
-0.000665432
0.00459556
-0.000626123
0.00457615
-0.000586382
0.00455821
-0.00054622
-0.000505647
0.00535131
-0.00124216
-0.00539783
0.00530593
-0.00121331
0.0052617
-0.00118389
0.00521866
-0.00115389
0.00517682
-0.00112334
0.0051362
-0.00109225
0.00509682
-0.00106063
0.0050587
-0.00102848
0.00502186
-0.000995816
0.00498632
-0.000962641
0.0049521
-0.000928963
0.00491921
-0.00089479
0.00488768
-0.000860128
0.00485751
-0.000824987
0.00482874
-0.000789375
0.00480137
-0.000753299
0.00477543
-0.000716769
0.00475092
-0.000679793
0.00472787
-0.000642382
0.00470629
-0.000604544
0.0046862
-0.000566289
0.00466761
-0.000527627
-0.00048857
0.00548447
-0.00119428
-0.00553234
0.00543776
-0.0011666
0.00539223
-0.00113837
0.00534792
-0.00110958
0.00530484
-0.00108026
0.00526301
-0.00105042
0.00522245
-0.00102007
0.00518318
-0.000989215
0.00514523
-0.000957863
0.00510861
-0.000926019
0.00507334
-0.000893691
0.00503944
-0.000860887
0.00500692
-0.000827613
0.00497581
-0.000793877
0.00494612
-0.000759688
0.00491788
-0.000725053
0.00489109
-0.00068998
0.00486577
-0.000654479
0.00484195
-0.000618559
0.00481964
-0.000582227
0.00479884
-0.000545495
0.00477959
-0.000508371
-0.000470867
0.00562065
-0.00114502
-0.00566991
0.00557259
-0.00111854
0.00552575
-0.00109152
0.00548014
-0.00106397
0.0054358
-0.00103591
0.00539274
-0.00100736
0.00535098
-0.000978313
0.00531055
-0.000948783
0.00527146
-0.000918775
0.00523374
-0.000888296
0.0051974
-0.000857352
0.00516246
-0.00082595
0.00512895
-0.000794097
0.00509687
-0.000761801
0.00506625
-0.00072907
0.00503711
-0.000695911
0.00500946
-0.000662332
0.00498332
-0.000628341
0.00495871
-0.000593948
0.00493565
-0.00055916
0.00491414
-0.000523987
0.00489421
-0.000488439
-0.000452525
0.00575993
-0.00109436
-0.00581059
0.00571049
-0.0010691
0.0056623
-0.00104333
0.00561539
-0.00101705
0.00556976
-0.000990288
0.00552545
-0.000963047
0.00548247
-0.000935338
0.00544086
-0.000907165
0.00540061
-0.000878534
0.00536177
-0.000849451
0.00532434
-0.000819924
0.00528835
-0.000789959
0.00525382
-0.000759563
0.00522076
-0.000728742
0.00518919
-0.000697504
0.00515914
-0.000665857
0.00513061
-0.000633807
0.00510364
-0.000601364
0.00507822
-0.000568534
0.00505439
-0.000535328
0.00503216
-0.000501753
0.00501153
-0.000467818
-0.000433533
0.00590236
-0.00104227
-0.00595445
0.00585153
-0.00101827
0.00580197
-0.000993777
0.00575372
-0.0009688
0.00570679
-0.000943359
0.00566121
-0.000917465
0.00561699
-0.000891123
0.00557417
-0.000864339
0.00553275
-0.000837118
0.00549277
-0.000809466
0.00545423
-0.000781391
0.00541717
-0.000752897
0.0053816
-0.000723991
0.00534754
-0.000694681
0.00531501
-0.000664973
0.00528402
-0.000634873
0.00525461
-0.00060439
0.00522677
-0.000573531
0.00520054
-0.000542304
0.00517593
-0.000510717
0.00515296
-0.000478777
0.00513163
-0.000446494
-0.000413878
0.00604801
-0.000988736
-0.00610154
0.00599576
-0.000966025
0.00594482
-0.000942835
0.00589521
-0.000919191
0.00584695
-0.000895105
0.00580008
-0.000870589
0.0057546
-0.000845648
0.00571055
-0.000820285
0.00566794
-0.000794508
0.00562679
-0.000768322
0.00558714
-0.000741732
0.00554898
-0.000714744
0.00551236
-0.000687365
0.00547728
-0.000659601
0.00544376
-0.000631459
0.00541183
-0.000602944
0.00538151
-0.000574065
0.00535281
-0.000544828
0.00532574
-0.000515241
0.00530034
-0.000485312
0.00527661
-0.000455047
0.00525457
-0.000424457
-0.000393548
0.00619693
-0.000933735
-0.00625193
0.00614324
-0.000912339
0.0060909
-0.000890487
0.00603991
-0.000868205
0.00599031
-0.000845507
0.00594212
-0.000822401
0.00589537
-0.000798892
0.00585007
-0.000774985
0.00580625
-0.000750685
0.00576392
-0.000725998
0.00572312
-0.000700929
0.00568386
-0.000675482
0.00564616
-0.000649666
0.00561004
-0.000623485
0.00557553
-0.000596945
0.00554264
-0.000570053
0.00551139
-0.000542816
0.0054818
-0.00051524
0.00545389
-0.000487332
0.00542768
-0.000459099
0.00540318
-0.00043055
0.00538041
-0.000401691
-0.000372531
0.0063492
-0.000877246
-0.00640569
0.00629406
-0.000857195
0.00624028
-0.00083671
0.0061879
-0.000815823
0.00613694
-0.000794544
0.00608742
-0.00077288
0.00603936
-0.000750837
0.00599279
-0.000728419
0.00594774
-0.00070563
0.00590422
-0.000682477
0.00586225
-0.000658963
0.00582186
-0.000635094
0.00578307
-0.000610877
0.0057459
-0.000586315
0.00571038
-0.000561416
0.00567651
-0.000536184
0.00564432
-0.000510627
0.00561383
-0.00048475
0.00558506
-0.000458561
0.00555802
-0.000432065
0.00553274
-0.000405271
0.00550924
-0.000378185
-0.000350815
0.00650488
-0.000819251
-0.00656288
0.00644826
-0.000800573
0.00639304
-0.000781487
0.00633924
-0.000762026
0.00628689
-0.000742197
0.00623602
-0.000722008
0.00618665
-0.000701463
0.0061388
-0.000680567
0.00609249
-0.000659324
0.00604775
-0.000637739
0.00600461
-0.000615817
0.00596308
-0.000593562
0.00592318
-0.000570979
0.00588494
-0.000548075
0.00584838
-0.000524853
0.00581351
-0.000501321
0.00578037
-0.000477483
0.00574896
-0.000453345
0.00571932
-0.000428914
0.00569145
-0.000404196
0.00566537
-0.000379198
0.00564111
-0.000353926
-0.000328388
0.00666405
-0.000759729
-0.00672357
0.00660593
-0.000742455
0.00654924
-0.000724798
0.00649401
-0.000706793
0.00644026
-0.000688446
0.00638802
-0.000669765
0.0063373
-0.000650752
0.00628815
-0.000631412
0.00624057
-0.00061175
0.0061946
-0.000591768
0.00615026
-0.000571473
0.00610756
-0.000550868
0.00606654
-0.000529957
0.00602722
-0.000508747
0.0059896
-0.000487242
0.00595373
-0.000465447
0.00591962
-0.000443367
0.00588728
-0.000421009
0.00585674
-0.000398377
0.00582802
-0.000375478
0.00580114
-0.000352318
0.00577612
-0.000328903
-0.000305239
0.00682676
-0.000698664
-0.00688783
0.00676713
-0.000682822
0.00670896
-0.000666626
0.00665227
-0.000650108
0.0065971
-0.000633275
0.00654347
-0.000616133
0.0064914
-0.000598686
0.00644092
-0.000580936
0.00639206
-0.000562888
0.00634484
-0.000544546
0.00629928
-0.000525913
0.00625541
-0.000506994
0.00621324
-0.000487794
0.00617281
-0.000468316
0.00613414
-0.000448566
0.00609724
-0.000428548
0.00606214
-0.000408266
0.00602885
-0.000387727
0.00599741
-0.000366936
0.00596783
-0.000345897
0.00594013
-0.000324617
0.00591433
-0.000303101
-0.000281357
0.00699309
-0.000636038
-0.00705572
0.00693193
-0.000621658
0.00687225
-0.000606952
0.0068141
-0.000591953
0.00675749
-0.000576666
0.00670245
-0.000561096
0.00664901
-0.000545247
0.0065972
-0.000529121
0.00654703
-0.000512722
0.00649854
-0.000496054
0.00645175
-0.000479121
0.00640668
-0.000461926
0.00636336
-0.000444473
0.00632181
-0.000426766
0.00628205
-0.000408809
0.00624411
-0.000390607
0.00620801
-0.000372165
0.00617377
-0.000353486
0.00614141
-0.000334576
0.00611095
-0.00031544
0.00608242
-0.000296083
0.00605583
-0.000276511
-0.000256728
0.00716311
-0.000571835
-0.00722732
0.0071004
-0.000558946
0.00703921
-0.00054576
0.00697957
-0.000532311
0.0069215
-0.000518601
0.00686504
-0.000504636
0.00681021
-0.000490418
0.00675704
-0.00047595
0.00670556
-0.000461236
0.00665578
-0.000446278
0.00660774
-0.00043108
0.00656146
-0.000415645
0.00651697
-0.000399977
0.00647428
-0.00038408
0.00643343
-0.000367956
0.00639443
-0.000351611
0.00635731
-0.000335048
0.0063221
-0.000318271
0.00628881
-0.000301285
0.00625746
-0.000284095
0.00622808
-0.000266704
0.00620069
-0.000249119
-0.000231344
0.00733689
-0.000506041
-0.00740269
0.00727262
-0.000494671
0.00720989
-0.000483036
0.00714875
-0.000471166
0.00708921
-0.000459066
0.00703132
-0.000446738
0.00697508
-0.000434185
0.00692054
-0.000421409
0.00686772
-0.000408413
0.00681664
-0.000395201
0.00676734
-0.000381775
0.00671983
-0.000368138
0.00667414
-0.000354292
0.00663031
-0.000340243
0.00658834
-0.000325992
0.00654828
-0.000311544
0.00651013
-0.000296901
0.00647393
-0.000282068
0.00643969
-0.000267049
0.00640744
-0.000251848
0.00637721
-0.000236468
0.006349
-0.000220915
-0.000205193
0.0075145
-0.000438643
-0.0075819
0.00744865
-0.000428819
0.00738438
-0.000418765
0.00732172
-0.000408506
0.0072607
-0.000398046
0.00720135
-0.000387387
0.00714369
-0.000376531
0.00708776
-0.000365481
0.00703359
-0.000354239
0.0069812
-0.000342808
0.00693061
-0.00033119
0.00688186
-0.000319387
0.00683497
-0.000307403
0.00678997
-0.000295241
0.00674688
-0.000282902
0.00670573
-0.000270391
0.00666654
-0.000257711
0.00662933
-0.000244865
0.00659414
-0.000231855
0.00656098
-0.000218687
0.00652987
-0.000205363
0.00650085
-0.000191888
-0.000178265
0.007696
-0.000369627
-0.00776502
0.00762856
-0.00036138
0.00756273
-0.000352934
0.00749854
-0.000344316
0.00743603
-0.000335527
0.00737521
-0.000326568
0.00731612
-0.000317443
0.00725879
-0.000308152
0.00720325
-0.000298698
0.00714952
-0.000289083
0.00709764
-0.00027931
0.00704764
-0.000269379
0.00699953
-0.000259295
0.00695335
-0.000249058
0.00690912
-0.000238673
0.00686687
-0.00022814
0.00682662
-0.000217464
0.0067884
-0.000206647
0.00675224
-0.000195692
0.00671815
-0.000184601
0.00668617
-0.000173379
0.00665631
-0.000162027
-0.000150551
0.00788147
-0.000298986
-0.00795212
0.00781243
-0.00029234
0.00774503
-0.000285533
0.0076793
-0.000278585
0.00761527
-0.000271496
0.00755297
-0.000264269
0.00749244
-0.000256906
0.00743369
-0.000249408
0.00737677
-0.000241776
0.0073217
-0.000234013
0.00726851
-0.00022612
0.00721723
-0.0002181
0.00716789
-0.000209953
0.00712051
-0.000201682
0.00707513
-0.00019329
0.00703177
-0.000184778
0.00699045
-0.000176148
0.00695121
-0.000167404
0.00691406
-0.000158547
0.00687904
-0.000149579
0.00684617
-0.000140504
0.00681546
-0.000131325
-0.000122043
0.00807097
-0.000226709
-0.00814325
0.00800032
-0.000221692
0.00793134
-0.000216551
0.00786405
-0.0002113
0.0077985
-0.000205942
0.00773471
-0.000200478
0.00767271
-0.000194908
0.00761254
-0.000189235
0.00755422
-0.00018346
0.00749779
-0.000177583
0.00744328
-0.000171608
0.00739071
-0.000165534
0.00734012
-0.000159364
0.00729154
-0.000153099
0.00724499
-0.000146741
0.0072005
-0.000140291
0.00715811
-0.000133751
0.00711783
-0.000127124
0.00707969
-0.00012041
0.00704373
-0.000113613
0.00700995
-0.000106733
0.0069784
-9.97728e-05
-9.27348e-05
0.00826455
-0.000152791
-0.00833847
0.00819229
-0.000149427
0.00812171
-0.000145977
0.00805286
-0.000142451
0.00798577
-0.000138852
0.00792047
-0.000135179
0.007857
-0.000131435
0.00779539
-0.00012762
0.00773566
-0.000123734
0.00767786
-0.00011978
0.00762201
-0.000115758
0.00756814
-0.000111669
0.00751629
-0.000107515
0.00746649
-0.000103296
0.00741876
-9.9014e-05
0.00737314
-9.46696e-05
0.00732966
-9.02641e-05
0.00728833
-8.5799e-05
0.0072492
-8.12755e-05
0.00721228
-7.66946e-05
0.0071776
-7.2058e-05
0.0071452
-6.73672e-05
-6.26232e-05
0.00846227
-7.72248e-05
-0.00853784
0.00838838
-7.55354e-05
0.0083162
-7.37999e-05
0.00824577
-7.20248e-05
0.00817713
-7.02112e-05
0.00811031
-6.83599e-05
0.00804535
-6.64713e-05
0.00798228
-6.45463e-05
0.00792113
-6.25854e-05
0.00786194
-6.05895e-05
0.00780474
-5.85587e-05
0.00774956
-5.64941e-05
0.00769644
-5.43959e-05
0.00764541
-5.22648e-05
0.0075965
-5.01014e-05
0.00754974
-4.79064e-05
0.00750515
-4.56805e-05
0.00746278
-4.3424e-05
0.00742264
-4.11378e-05
0.00738477
-3.88225e-05
0.00734919
-3.64788e-05
0.00731593
-3.41075e-05
0.00866417