/*--------------------------------*- C++ -*----------------------------------*\
  =========                 |
  \\      /  F ield         | OpenFOAM: The Open Source CFD Toolbox
   \\    /   O peration     | Website:  https://openfoam.org
    \\  /    A nd           | Version:  7
     \\/     M anipulation  |
\*---------------------------------------------------------------------------*/
FoamFile
{
    version     2.0;
    format      ascii;
    class       volVectorField;
    location    "15";
    object      U;
}
// * * * * * * * * * * * * * * * * * * * * * * * * * * * * * * * * * * * * * //

dimensions      [0 1 -1 0 0 0 0];

internalField   nonuniform List<vector> 
2625
(
(1.14391 0.200208 -5.53394e-21)
(1.13768 0.200817 1.20973e-20)
(1.13142 0.201294 -1.88268e-21)
(1.12514 0.201634 9.09404e-21)
(1.10081 0.191423 2.08533e-20)
(1.10688 0.191636 -1.81498e-21)
(1.11295 0.191718 -1.41921e-20)
(1.11901 0.191672 3.3084e-20)
(1.12506 0.191499 3.08719e-20)
(1.1311 0.1912 -5.78792e-21)
(1.13711 0.190778 3.99309e-21)
(1.1431 0.190234 1.12777e-20)
(1.14907 0.189571 -1.77696e-21)
(1.09514 0.188191 2.08295e-20)
(1.10113 0.188542 -2.21896e-21)
(1.10712 0.188764 3.67375e-21)
(1.11311 0.18886 4.59423e-21)
(1.11909 0.188831 -1.58652e-20)
(1.12507 0.188677 2.2782e-21)
(1.13103 0.188402 1.5313e-21)
(1.13698 0.188007 -4.24153e-21)
(1.1429 0.187492 2.48811e-21)
(1.1488 0.186861 4.82552e-21)
(1.08969 0.184898 -2.73724e-21)
(1.09558 0.185368 -5.0237e-21)
(1.10148 0.185713 -6.9495e-21)
(1.10738 0.185935 -1.75164e-21)
(1.11329 0.186034 1.77376e-21)
(1.1192 0.186012 -9.97811e-21)
(1.1251 0.185871 -8.94067e-22)
(1.13099 0.185612 5.52979e-21)
(1.13686 0.185236 6.85979e-22)
(1.14272 0.184745 2.19978e-21)
(1.14855 0.18414 -1.65075e-21)
(1.08451 0.181516 8.82681e-21)
(1.09029 0.182091 -2.70783e-21)
(1.09608 0.182545 -1.80412e-20)
(1.10189 0.18288 2.09524e-20)
(1.1077 0.183097 2.17662e-20)
(1.11352 0.183196 5.5759e-21)
(1.11934 0.183179 4.30765e-22)
(1.12516 0.183047 -1.55482e-20)
(1.13097 0.1828 -1.9587e-20)
(1.13677 0.182441 5.95861e-21)
(1.14256 0.18197 -5.22436e-21)
(1.14832 0.18139 5.01877e-21)
(1.08528 0.17874 1.46074e-21)
(1.09095 0.179289 2.4793e-20)
(1.09664 0.179724 -1.155e-20)
(1.10235 0.180045 -1.69262e-20)
(1.10807 0.180253 -2.24614e-20)
(1.1138 0.180349 1.87107e-20)
(1.11954 0.180333 1.81787e-21)
(1.12527 0.180206 4.66013e-21)
(1.131 0.17997 2.5965e-20)
(1.13672 0.179625 -1.59141e-21)
(1.14242 0.179173 -6.38523e-21)
(1.14811 0.178615 -2.59855e-21)
(1.08057 0.175355 -3.9794e-20)
(1.08611 0.175982 -3.59495e-21)
(1.09167 0.176501 -2.88518e-20)
(1.09726 0.176912 8.81059e-21)
(1.10287 0.177215 -1.35861e-21)
(1.1085 0.17741 -4.48838e-21)
(1.11413 0.177499 -2.87868e-20)
(1.11977 0.177481 2.12297e-20)
(1.12541 0.177357 1.05026e-20)
(1.13106 0.177128 -1.69417e-20)
(1.13669 0.176794 4.19608e-22)
(1.14231 0.176358 8.29143e-21)
(1.14792 0.175819 -2.50139e-21)
(1.07617 0.171967 2.96289e-20)
(1.08156 0.172654 -7.8297e-22)
(1.08699 0.173241 -7.67127e-21)
(1.09245 0.173726 2.36029e-20)
(1.09794 0.174109 1.27325e-20)
(1.10344 0.174391 2.40902e-20)
(1.10897 0.17457 2.22655e-21)
(1.1145 0.174648 7.52633e-21)
(1.12005 0.174624 6.50512e-21)
(1.1256 0.1745 -1.46319e-20)
(1.13115 0.174275 1.0623e-20)
(1.13669 0.173951 9.30584e-22)
(1.14223 0.173527 1.19173e-21)
(1.14776 0.173005 -2.6381e-22)
(1.07208 0.168603 4.72058e-21)
(1.07733 0.169333 -4.12126e-21)
(1.08261 0.169971 -9.67828e-21)
(1.08793 0.170515 8.51566e-21)
(1.09328 0.170963 -2.37956e-20)
(1.09866 0.171316 -3.11916e-21)
(1.10406 0.171573 -2.5096e-20)
(1.10948 0.171733 2.33578e-20)
(1.11492 0.171797 4.52702e-21)
(1.12036 0.171765 -1.76925e-20)
(1.12582 0.171638 4.2673e-21)
(1.13127 0.171414 -1.55166e-20)
(1.13673 0.171096 -3.17404e-22)
(1.14218 0.170683 2.41893e-21)
(1.14762 0.170176 4.97356e-21)
(1.06831 0.165286 3.52783e-20)
(1.0734 0.166043 -2.10977e-20)
(1.07854 0.166715 -1.56977e-20)
(1.08371 0.167302 3.07405e-20)
(1.08892 0.167801 -1.94806e-20)
(1.09416 0.168211 2.43836e-20)
(1.09943 0.168531 -1.39882e-20)
(1.10472 0.16876 -7.05717e-21)
(1.11004 0.168899 -1.33764e-20)
(1.11537 0.168947 1.88907e-21)
(1.12072 0.168905 -4.07467e-21)
(1.12607 0.168771 1.1687e-20)
(1.13143 0.168546 1.10744e-20)
(1.1368 0.168231 2.04755e-21)
(1.14215 0.167827 -1.22634e-21)
(1.1475 0.167332 -1.83155e-21)
(1.06485 0.16203 -2.25217e-20)
(1.06978 0.162799 4.91208e-22)
(1.07476 0.163493 -9.20737e-21)
(1.07978 0.164108 -8.35325e-21)
(1.08484 0.164643 -5.17912e-22)
(1.08994 0.165096 8.3502e-21)
(1.09507 0.165466 -2.57953e-20)
(1.10024 0.165752 1.10748e-20)
(1.10542 0.165953 1.24678e-21)
(1.11063 0.166068 1.93381e-21)
(1.11586 0.166098 6.38897e-21)
(1.12111 0.166042 8.96197e-21)
(1.12636 0.1659 1.90048e-21)
(1.13163 0.165673 -5.46041e-22)
(1.13689 0.165359 -1.23953e-20)
(1.14216 0.164961 -3.48586e-21)
(1.14742 0.164477 -6.77381e-21)
(1.05694 0.158005 2.23829e-20)
(1.06167 0.158843 -3.36123e-20)
(1.06645 0.159614 3.51222e-20)
(1.07128 0.160317 -5.52583e-21)
(1.07615 0.160949 -1.63889e-20)
(1.08106 0.161508 7.67664e-22)
(1.08601 0.161992 2.94857e-21)
(1.091 0.162399 -1.71851e-20)
(1.09602 0.162728 3.81993e-20)
(1.10108 0.162979 1.53334e-20)
(1.10616 0.163149 -2.0264e-21)
(1.11127 0.16324 1.06407e-20)
(1.11639 0.16325 -8.04718e-21)
(1.12153 0.163179 -1.93528e-20)
(1.12669 0.163028 -1.35306e-20)
(1.13185 0.162795 4.95094e-22)
(1.13702 0.162481 9.6808e-21)
(1.14219 0.162086 4.72718e-21)
(1.14736 0.161611 1.04649e-20)
(1.05418 0.154897 -3.82045e-21)
(1.05877 0.155725 -2.58786e-20)
(1.06339 0.156491 1.98838e-20)
(1.06807 0.157195 9.7747e-21)
(1.07279 0.157835 1.05621e-20)
(1.07755 0.158407 8.88529e-21)
(1.08236 0.15891 -1.07885e-20)
(1.08721 0.159344 -3.99921e-21)
(1.09209 0.159705 4.01493e-20)
(1.09701 0.159994 -3.14231e-21)
(1.10195 0.160209 2.16648e-23)
(1.10693 0.160349 3.12485e-20)
(1.11193 0.160414 -1.57963e-20)
(1.11695 0.160403 4.58345e-21)
(1.12199 0.160316 2.11538e-20)
(1.12704 0.160152 -7.69282e-21)
(1.13211 0.159913 3.80499e-21)
(1.13718 0.159597 1.53811e-21)
(1.14225 0.159204 -4.42828e-21)
(1.14732 0.158735 -1.03389e-20)
(1.05165 0.151853 -1.07523e-20)
(1.0561 0.152668 -1.3566e-20)
(1.06059 0.153427 3.44428e-20)
(1.06512 0.154127 5.50871e-21)
(1.0697 0.154767 -4.21955e-20)
(1.07432 0.155346 1.23981e-20)
(1.07898 0.155861 -4.46667e-21)
(1.08368 0.156311 2.89023e-20)
(1.08842 0.156695 -7.95936e-21)
(1.0932 0.157012 -1.40175e-20)
(1.09801 0.157261 -1.7037e-20)
(1.10285 0.15744 -2.18033e-20)
(1.10772 0.157549 -1.38749e-20)
(1.11262 0.157588 -1.9626e-21)
(1.11754 0.157555 -1.22346e-21)
(1.12247 0.157451 -6.23921e-21)
(1.12743 0.157275 9.44946e-21)
(1.13239 0.157027 -5.03124e-21)
(1.13736 0.156708 -1.70881e-21)
(1.14234 0.156316 3.77624e-21)
(1.14732 0.155852 4.39239e-21)
(1.04938 0.148852 -1.85376e-20)
(1.05366 0.149661 5.44295e-21)
(1.05802 0.150412 -6.9363e-21)
(1.06241 0.151107 -6.52939e-21)
(1.06685 0.151745 -2.35344e-20)
(1.07133 0.152325 -1.1853e-20)
(1.07585 0.152846 -3.13941e-20)
(1.08041 0.153307 2.30392e-20)
(1.08501 0.153706 -2.50031e-21)
(1.08965 0.154044 -1.89058e-20)
(1.09433 0.154317 -2.40613e-21)
(1.09904 0.154527 -4.81852e-21)
(1.10378 0.154671 1.91914e-20)
(1.10854 0.154749 8.05596e-21)
(1.11333 0.154761 -1.13883e-21)
(1.11815 0.154707 8.86432e-22)
(1.12298 0.154585 -8.11027e-21)
(1.12783 0.154396 -8.08942e-21)
(1.1327 0.154139 -4.54114e-21)
(1.13757 0.153814 1.34117e-21)
(1.14245 0.153422 -3.5275e-21)
(1.14733 0.152961 -1.72311e-21)
(1.04728 0.145884 2.97686e-20)
(1.05146 0.146687 1.50419e-20)
(1.05565 0.147435 1.55879e-20)
(1.05992 0.148125 -6.31603e-21)
(1.06423 0.148761 4.23363e-21)
(1.06857 0.149341 3.2537e-20)
(1.07296 0.149865 4.39724e-20)
(1.07739 0.150332 -4.79003e-21)
(1.08185 0.150741 2.2496e-20)
(1.08636 0.151093 1.02196e-20)
(1.0909 0.151385 1.74575e-20)
(1.09547 0.151617 -2.4378e-20)
(1.10008 0.151788 4.40219e-21)
(1.10471 0.151899 -4.41567e-21)
(1.10938 0.151947 -2.94146e-20)
(1.11407 0.151933 -2.31301e-21)
(1.11878 0.151856 -5.72527e-21)
(1.12352 0.151717 -1.0933e-20)
(1.12827 0.151514 8.83443e-21)
(1.13303 0.151247 1.35845e-21)
(1.1378 0.150917 -2.6156e-22)
(1.14259 0.150522 -4.05818e-21)
(1.14737 0.150064 4.08515e-22)
(1.04498 0.142949 -5.47138e-20)
(1.04942 0.143737 6.35046e-22)
(1.05352 0.144481 -1.59825e-20)
(1.05763 0.145172 -2.14926e-20)
(1.06181 0.145805 1.0783e-20)
(1.06603 0.146385 -5.94933e-20)
(1.07029 0.146911 1.55663e-22)
(1.07459 0.147382 -2.58039e-20)
(1.07892 0.147799 1.00133e-20)
(1.08329 0.14816 -1.4806e-20)
(1.0877 0.148466 -2.33687e-20)
(1.09214 0.148716 -1.42251e-20)
(1.09662 0.148908 7.25393e-21)
(1.10113 0.149044 1.15797e-20)
(1.10567 0.149121 1.29926e-21)
(1.11023 0.149141 1.00474e-20)
(1.11482 0.149101 2.35184e-20)
(1.11943 0.149003 -8.67307e-21)
(1.12407 0.148845 2.4842e-20)
(1.12872 0.148628 -2.24667e-21)
(1.13338 0.148351 2.07116e-21)
(1.13806 0.148015 -6.74983e-21)
(1.14275 0.147618 1.37853e-21)
(1.14744 0.147162 2.77643e-22)
(1.0472 0.14081 3.05522e-20)
(1.05154 0.141543 -9.72365e-21)
(1.05556 0.142232 1.58964e-20)
(1.05959 0.142869 7.06411e-21)
(1.06369 0.143449 -7.57301e-21)
(1.06782 0.143977 1.24569e-20)
(1.07199 0.144452 -2.05763e-20)
(1.0762 0.144875 6.53999e-21)
(1.08045 0.145244 3.15981e-21)
(1.08473 0.145561 1.00138e-20)
(1.08904 0.145824 4.89242e-21)
(1.09339 0.146034 3.31746e-20)
(1.09777 0.146189 -4.9232e-21)
(1.10218 0.14629 -7.24403e-21)
(1.10662 0.146337 1.16882e-20)
(1.11109 0.146328 -2.70544e-21)
(1.11558 0.146264 2.39712e-21)
(1.1201 0.146145 4.09913e-21)
(1.12463 0.14597 -4.58975e-21)
(1.12919 0.145739 5.10082e-21)
(1.13375 0.145452 3.6648e-21)
(1.13833 0.145109 5.34907e-21)
(1.14292 0.144709 -2.43287e-23)
(1.14752 0.144253 4.28961e-21)
(1.0494 0.138621 1.33589e-20)
(1.05363 0.139303 -3.7945e-20)
(1.05758 0.139939 8.74782e-21)
(1.06153 0.140525 3.54952e-21)
(1.06555 0.141056 1.55847e-20)
(1.0696 0.141535 2.2914e-20)
(1.07368 0.141963 2.39651e-20)
(1.07781 0.14234 -1.27229e-20)
(1.08196 0.142666 2.36055e-21)
(1.08615 0.14294 -2.87885e-20)
(1.09038 0.143164 -1.30202e-20)
(1.09464 0.143336 -2.85527e-21)
(1.09892 0.143456 3.75428e-20)
(1.10324 0.143525 -1.16278e-20)
(1.10759 0.143542 -2.58319e-20)
(1.11196 0.143507 2.12241e-20)
(1.11636 0.14342 -1.81243e-20)
(1.12077 0.143281 7.82434e-21)
(1.12521 0.143089 -1.04389e-21)
(1.12967 0.142845 -3.65884e-21)
(1.13414 0.142547 -7.05278e-22)
(1.13863 0.142198 1.60711e-21)
(1.14312 0.141795 5.84223e-21)
(1.14762 0.141339 3.37138e-22)
(1.05156 0.136383 6.24475e-21)
(1.0557 0.137015 1.31559e-20)
(1.05957 0.137601 -1.70555e-20)
(1.06345 0.138139 -5.02556e-21)
(1.06738 0.138623 -2.16364e-21)
(1.07135 0.139057 -1.01113e-20)
(1.07536 0.139441 -7.48193e-21)
(1.07939 0.139775 -1.18843e-20)
(1.08347 0.14006 -1.01557e-20)
(1.08757 0.140296 3.31785e-20)
(1.09171 0.140482 -7.08099e-21)
(1.09587 0.14062 5.29615e-21)
(1.10007 0.140708 -1.08499e-20)
(1.1043 0.140747 1.65129e-20)
(1.10855 0.140736 -2.33515e-21)
(1.11283 0.140677 -2.29923e-20)
(1.11713 0.140568 1.79778e-20)
(1.12146 0.140409 5.0301e-21)
(1.1258 0.140202 3.99621e-21)
(1.13016 0.139944 2.2755e-22)
(1.13454 0.139637 1.93752e-21)
(1.13893 0.139281 -9.57853e-21)
(1.14333 0.138875 -4.83878e-21)
(1.14774 0.138419 -4.19676e-21)
(1.0537 0.134094 -1.12518e-20)
(1.05774 0.134679 -8.25635e-21)
(1.06154 0.135218 -1.79883e-20)
(1.06534 0.13571 -7.11827e-21)
(1.06919 0.13615 -2.21145e-20)
(1.07309 0.136542 2.06957e-23)
(1.07701 0.136885 4.44153e-21)
(1.08096 0.13718 1.8152e-20)
(1.08495 0.137427 8.83361e-22)
(1.08897 0.137626 4.5753e-21)
(1.09302 0.137778 2.39091e-20)
(1.0971 0.137883 2.12498e-21)
(1.10121 0.137941 -1.93107e-20)
(1.10535 0.137953 5.28999e-21)
(1.10951 0.137917 2.97573e-20)
(1.1137 0.137834 -1.38816e-21)
(1.11791 0.137705 -5.1814e-21)
(1.12214 0.137529 -2.42493e-21)
(1.12639 0.137306 4.01107e-23)
(1.13066 0.137037 2.25515e-21)
(1.13495 0.136721 1.20473e-21)
(1.13925 0.136358 3.86774e-21)
(1.14356 0.135949 4.49358e-21)
(1.14787 0.135494 6.70112e-22)
(1.05581 0.131754 -2.85035e-20)
(1.05976 0.132294 1.4329e-20)
(1.06349 0.132789 6.27989e-21)
(1.0672 0.133237 5.91518e-21)
(1.07098 0.133637 1.82232e-20)
(1.07479 0.133988 2.70811e-20)
(1.07864 0.134293 -1.67925e-20)
(1.08251 0.134551 3.02337e-20)
(1.08642 0.134763 2.47858e-20)
(1.09035 0.134929 -4.04143e-22)
(1.09432 0.13505 4.53477e-21)
(1.09832 0.135125 -1.6568e-20)
(1.10234 0.135156 1.7082e-20)
(1.10639 0.135141 -2.08993e-20)
(1.11047 0.135082 -1.47118e-20)
(1.11456 0.134978 2.06431e-21)
(1.11869 0.13483 4.94125e-22)
(1.12283 0.134638 -2.17287e-21)
(1.12699 0.134402 -9.70675e-21)
(1.13117 0.134121 5.75849e-22)
(1.13537 0.133797 -9.0325e-21)
(1.13957 0.133429 1.27102e-21)
(1.14379 0.133017 -4.72819e-21)
(1.14802 0.132561 1.34562e-21)
(1.05789 0.129364 7.52673e-21)
(1.06174 0.129861 -6.75974e-21)
(1.0654 0.130313 4.0363e-21)
(1.06904 0.130721 6.61653e-21)
(1.07274 0.131082 1.0925e-20)
(1.07648 0.131396 -3.1545e-20)
(1.08024 0.131665 3.14448e-20)
(1.08404 0.131889 -1.72166e-20)
(1.08786 0.132068 -5.35057e-21)
(1.09172 0.132204 -1.10652e-20)
(1.0956 0.132295 -1.76492e-20)
(1.09951 0.132343 7.82987e-21)
(1.10345 0.132348 -6.64566e-21)
(1.10742 0.13231 1.09514e-20)
(1.11141 0.13223 1.43056e-20)
(1.11542 0.132107 9.23216e-21)
(1.11946 0.131942 -7.77759e-22)
(1.12351 0.131735 1.04888e-21)
(1.12759 0.131486 3.44099e-21)
(1.13168 0.131196 -7.3973e-21)
(1.13579 0.130864 7.92475e-21)
(1.13991 0.130491 2.96413e-21)
(1.14404 0.130077 2.71693e-21)
(1.14818 0.129622 -7.15409e-21)
(1.05993 0.126924 -5.81171e-21)
(1.06369 0.12738 -1.59551e-20)
(1.06728 0.127791 2.39135e-20)
(1.07085 0.128161 -2.14807e-20)
(1.07447 0.128485 1.19525e-20)
(1.07813 0.128764 4.99594e-21)
(1.08182 0.129 -1.37006e-20)
(1.08553 0.129192 -3.21458e-20)
(1.08928 0.129342 -1.54211e-20)
(1.09306 0.129449 -4.62362e-21)
(1.09686 0.129514 5.46632e-21)
(1.1007 0.129537 3.49802e-21)
(1.10455 0.129519 -5.28296e-21)
(1.10844 0.129459 -1.92232e-20)
(1.11234 0.12936 -1.86795e-20)
(1.11627 0.129219 6.90179e-21)
(1.12022 0.129039 -7.60673e-21)
(1.12419 0.128819 -3.29154e-21)
(1.12818 0.128559 1.10253e-21)
(1.13219 0.12826 8.3015e-21)
(1.13621 0.127922 -1.47196e-21)
(1.14024 0.127545 -1.72023e-21)
(1.14429 0.127129 -2.4093e-21)
(1.14834 0.126674 3.24516e-22)
(1.06194 0.124433 3.09364e-20)
(1.06561 0.12485 -5.81652e-21)
(1.06912 0.125224 -2.9492e-20)
(1.07262 0.125557 3.37096e-20)
(1.07617 0.125847 -3.06826e-20)
(1.07975 0.126093 1.00814e-20)
(1.08336 0.126298 7.79666e-21)
(1.08701 0.126461 2.7966e-20)
(1.09068 0.126582 -1.82485e-20)
(1.09438 0.126663 -3.02957e-21)
(1.0981 0.126704 1.10842e-20)
(1.10186 0.126704 -2.31763e-20)
(1.10563 0.126665 2.19426e-20)
(1.10944 0.126587 1.80143e-20)
(1.11326 0.126469 -6.07107e-21)
(1.11711 0.126313 -6.60396e-21)
(1.12098 0.12612 4.10317e-21)
(1.12487 0.125888 5.04437e-21)
(1.12877 0.125618 -3.21737e-21)
(1.1327 0.125312 -5.29743e-21)
(1.13663 0.124968 -4.29755e-21)
(1.14058 0.124588 -5.46988e-21)
(1.14454 0.124171 -2.17936e-21)
(1.14851 0.123718 2.77452e-21)
(1.06392 0.121892 -1.95844e-20)
(1.0675 0.122272 4.0331e-20)
(1.07094 0.12261 1.98093e-20)
(1.07436 0.122909 -4.86038e-20)
(1.07784 0.123167 8.61396e-21)
(1.08135 0.123383 -2.63827e-20)
(1.08488 0.123558 -3.33951e-20)
(1.08845 0.123694 1.78748e-20)
(1.09204 0.12379 3.46709e-20)
(1.09567 0.123847 -1.17961e-20)
(1.09932 0.123865 4.97283e-21)
(1.10299 0.123845 1.99202e-22)
(1.10669 0.123787 -1.09256e-20)
(1.11042 0.123691 -5.15699e-21)
(1.11417 0.123558 8.04085e-21)
(1.11794 0.123389 9.29588e-21)
(1.12172 0.123183 -4.37348e-21)
(1.12553 0.122941 -7.5627e-21)
(1.12936 0.122663 8.38989e-21)
(1.1332 0.122351 -4.36551e-21)
(1.13705 0.122003 1.64282e-21)
(1.14092 0.12162 2.37253e-21)
(1.1448 0.121203 -6.90916e-22)
(1.14869 0.120752 -1.10895e-21)
(1.06585 0.119302 1.14669e-20)
(1.06935 0.119647 7.46139e-21)
(1.07271 0.119951 -3.40375e-21)
(1.07607 0.120218 3.16431e-20)
(1.07947 0.120445 -2.31837e-21)
(1.0829 0.120632 1.09074e-20)
(1.08637 0.120781 2.94886e-20)
(1.08986 0.120892 -2.68322e-20)
(1.09338 0.120964 -1.55047e-20)
(1.09693 0.120999 -1.18587e-20)
(1.10051 0.120997 -2.29117e-20)
(1.10411 0.120958 5.85793e-21)
(1.10773 0.120883 -1.10826e-20)
(1.11138 0.120772 -1.16506e-20)
(1.11505 0.120625 -6.23436e-22)
(1.11874 0.120444 -8.32316e-21)
(1.12245 0.120227 -1.77035e-21)
(1.12618 0.119977 1.01947e-20)
(1.12993 0.119693 -7.12779e-21)
(1.13369 0.119375 9.43584e-24)
(1.13747 0.119024 2.52882e-21)
(1.14126 0.118641 4.42947e-22)
(1.14506 0.118224 1.64429e-21)
(1.14886 0.117776 -5.30718e-22)
(1.06774 0.116663 -2.85146e-20)
(1.07115 0.116975 -3.06644e-20)
(1.07445 0.117247 -5.57539e-21)
(1.07773 0.117484 -3.18828e-20)
(1.08107 0.117682 1.5816e-21)
(1.08443 0.117843 8.28302e-21)
(1.08782 0.117967 1.32465e-20)
(1.09124 0.118054 1.73354e-20)
(1.09469 0.118104 -1.77671e-20)
(1.09817 0.118119 2.53589e-20)
(1.10167 0.118099 -9.13483e-22)
(1.1052 0.118043 1.71467e-20)
(1.10875 0.117952 6.79037e-21)
(1.11232 0.117828 4.82664e-21)
(1.11592 0.117669 8.56868e-21)
(1.11954 0.117477 -5.70824e-21)
(1.12317 0.117252 9.11823e-21)
(1.12682 0.116995 -5.70204e-21)
(1.13049 0.116705 5.16626e-21)
(1.13418 0.116384 9.64919e-21)
(1.13788 0.116031 1.49448e-21)
(1.14159 0.115648 3.50515e-21)
(1.14531 0.115233 3.52148e-21)
(1.06959 0.113975 -2.48217e-21)
(1.07292 0.114255 -1.50673e-20)
(1.07615 0.114498 -1.56196e-21)
(1.07937 0.114706 3.77397e-22)
(1.08263 0.114878 1.3327e-20)
(1.08592 0.115014 1.004e-20)
(1.08924 0.115114 -2.36537e-20)
(1.09259 0.11518 -2.13227e-20)
(1.09597 0.115211 2.19892e-20)
(1.09938 0.115207 -1.47678e-20)
(1.10281 0.11517 3.97951e-21)
(1.10626 0.115099 -7.28026e-21)
(1.10974 0.114995 8.36834e-22)
(1.11324 0.114859 1.76329e-21)
(1.11676 0.11469 -7.70935e-21)
(1.12031 0.114489 6.49266e-21)
(1.12387 0.114257 -6.35484e-21)
(1.12745 0.113994 -4.11211e-21)
(1.13104 0.1137 4.86363e-22)
(1.13465 0.113377 6.83174e-22)
(1.13828 0.113023 -6.42632e-21)
(1.14191 0.11264 -2.65006e-21)
(1.14556 0.112229 -2.13283e-21)
(1.0714 0.111239 4.79277e-20)
(1.07465 0.11149 2.76724e-20)
(1.07781 0.111704 5.8034e-21)
(1.08096 0.111886 2.33594e-20)
(1.08415 0.112033 -2.8871e-20)
(1.08737 0.112146 -2.81046e-20)
(1.09063 0.112225 -8.265e-22)
(1.09391 0.112271 1.70465e-20)
(1.09722 0.112284 3.93076e-21)
(1.10055 0.112264 -6.14417e-21)
(1.10391 0.112211 -3.32421e-21)
(1.1073 0.112127 -8.64834e-21)
(1.11071 0.112011 -3.43984e-22)
(1.11414 0.111864 7.60717e-21)
(1.11759 0.111686 -1.67816e-21)
(1.12106 0.111478 -9.77543e-22)
(1.12455 0.111241 8.04603e-21)
(1.12806 0.110973 1.07068e-20)
(1.13158 0.110677 -5.97405e-21)
(1.13512 0.110352 -5.27385e-21)
(1.13867 0.109999 2.23755e-21)
(1.14223 0.109618 8.93576e-22)
(1.14581 0.10921 -1.82907e-21)
(1.07317 0.108456 -3.14341e-20)
(1.07634 0.108679 -8.92806e-21)
(1.07943 0.108866 2.55935e-21)
(1.08251 0.109023 4.83183e-21)
(1.08563 0.109148 2.17282e-20)
(1.08879 0.109239 7.72357e-21)
(1.09198 0.109299 1.22475e-20)
(1.09519 0.109326 -2.55221e-20)
(1.09843 0.109322 -1.55774e-20)
(1.1017 0.109287 -3.01391e-21)
(1.10499 0.109222 9.65932e-22)
(1.10831 0.109125 6.40208e-21)
(1.11165 0.108999 6.67887e-21)
(1.11501 0.108843 -3.63372e-22)
(1.11839 0.108658 2.92395e-21)
(1.12179 0.108444 -4.00742e-21)
(1.12521 0.108202 -7.58255e-21)
(1.12865 0.107932 -7.91816e-21)
(1.1321 0.107634 1.24592e-21)
(1.13557 0.107309 -8.34936e-22)
(1.13905 0.106958 1.04875e-22)
(1.14254 0.10658 -4.08671e-21)
(1.14605 0.106176 2.95226e-21)
(1.07488 0.105625 9.3188e-21)
(1.07798 0.105822 2.98688e-21)
(1.081 0.105985 -3.05205e-20)
(1.08402 0.106119 -1.40307e-20)
(1.08708 0.106222 3.50174e-21)
(1.09017 0.106294 1.82298e-20)
(1.09329 0.106335 -1.51908e-20)
(1.09644 0.106346 3.90131e-21)
(1.09961 0.106327 1.80305e-21)
(1.10281 0.106279 1.68247e-20)
(1.10604 0.106201 1.11838e-21)
(1.10929 0.106095 1.84538e-21)
(1.11256 0.105959 -2.05119e-22)
(1.11585 0.105796 4.97217e-22)
(1.11917 0.105605 -3.58746e-21)
(1.1225 0.105386 6.63939e-21)
(1.12586 0.105141 6.37483e-21)
(1.12923 0.104869 7.79285e-21)
(1.13261 0.104571 -1.48482e-21)
(1.13601 0.104247 -2.96381e-21)
(1.13942 0.103898 -1.79834e-22)
(1.14285 0.103524 7.05085e-21)
(1.14628 0.103126 1.59635e-21)
(1.07655 0.102747 1.61447e-20)
(1.07957 0.10292 4.32353e-22)
(1.08253 0.103061 1.93201e-20)
(1.08549 0.103173 8.24244e-21)
(1.08848 0.103257 -2.9361e-20)
(1.09151 0.10331 -1.30238e-20)
(1.09456 0.103335 1.33747e-20)
(1.09765 0.103331 1.10088e-20)
(1.10076 0.103299 5.28157e-21)
(1.10389 0.103238 4.38527e-22)
(1.10705 0.10315 4.81877e-21)
(1.11024 0.103034 -3.65177e-21)
(1.11344 0.102891 -5.5747e-23)
(1.11667 0.102722 -1.66504e-22)
(1.11992 0.102526 3.24236e-21)
(1.12319 0.102304 -7.73101e-22)
(1.12648 0.102057 -7.2583e-21)
(1.12978 0.101784 -4.55857e-21)
(1.1331 0.101487 1.89251e-21)
(1.13643 0.101165 3.37568e-21)
(1.13978 0.10082 1.03916e-21)
(1.14314 0.10045 -8.49261e-22)
(1.1465 0.100058 -2.06868e-21)
(1.07817 0.0998239 -2.32629e-20)
(1.08112 0.0999741 -6.11766e-21)
(1.08402 0.100094 -5.36236e-23)
(1.08691 0.100186 -1.57101e-20)
(1.08984 0.100251 1.65531e-20)
(1.09281 0.100289 1.94946e-20)
(1.0958 0.100298 -5.50087e-21)
(1.09882 0.100281 -1.7133e-21)
(1.10187 0.100236 -1.44438e-21)
(1.10494 0.100165 -3.77146e-21)
(1.10804 0.100067 -3.43226e-21)
(1.11116 0.099944 4.45788e-21)
(1.1143 0.0997948 -1.43379e-21)
(1.11747 0.0996203 1.56538e-21)
(1.12065 0.0994208 3.89795e-21)
(1.12386 0.0991968 6.13738e-21)
(1.12708 0.0989485 -2.30879e-21)
(1.13032 0.0986764 3.55412e-21)
(1.13357 0.098381 -1.95759e-22)
(1.13684 0.0980625 4.5736e-21)
(1.14012 0.0977214 -4.6658e-21)
(1.14342 0.097358 -8.02981e-22)
(1.14672 0.0969729 9.7656e-22)
(1.07975 0.0968546 2.14089e-20)
(1.08263 0.0969838 1.9005e-20)
(1.08546 0.0970837 5.17864e-21)
(1.08829 0.0971585 1.65982e-20)
(1.09116 0.0972069 -2.53384e-21)
(1.09407 0.0972289 -2.31586e-20)
(1.097 0.0972248 2.2451e-21)
(1.09996 0.0971951 1.10733e-20)
(1.10294 0.0971398 1.07047e-21)
(1.10595 0.0970593 3.85691e-21)
(1.10899 0.0969539 -3.19188e-22)
(1.11205 0.0968239 -8.60593e-21)
(1.11513 0.0966695 4.70604e-21)
(1.11823 0.0964913 -2.78286e-21)
(1.12136 0.0962893 -3.67048e-21)
(1.1245 0.0960642 -2.82224e-21)
(1.12766 0.0958161 3.89079e-21)
(1.13084 0.0955455 -5.90029e-21)
(1.13403 0.0952528 2.02013e-21)
(1.13723 0.0949384 -4.38995e-21)
(1.14045 0.0946026 4.63162e-21)
(1.14368 0.0942459 -2.58304e-22)
(1.14692 0.0938686 -5.59395e-22)
(1.08127 0.0938398 -2.58077e-20)
(1.08408 0.0939496 -3.02534e-20)
(1.08686 0.0940317 -9.00106e-21)
(1.08963 0.0940898 -9.75862e-21)
(1.09244 0.0941231 8.12548e-21)
(1.09528 0.0941314 1.06205e-20)
(1.09815 0.0941151 1.85602e-21)
(1.10105 0.0940744 -1.01181e-21)
(1.10398 0.0940097 -2.71021e-21)
(1.10693 0.0939211 -2.11037e-21)
(1.10991 0.093809 -7.3119e-22)
(1.1129 0.0936736 -3.6996e-21)
(1.11593 0.0935153 -1.06248e-20)
(1.11897 0.0933343 4.96945e-21)
(1.12203 0.093131 1.45995e-21)
(1.12512 0.0929057 6.1493e-22)
(1.12822 0.0926588 6.11002e-21)
(1.13133 0.0923907 3.18613e-21)
(1.13447 0.0921017 -5.12413e-21)
(1.13761 0.0917921 -1.18214e-21)
(1.14077 0.0914625 1.21882e-21)
(1.14394 0.0911131 -1.82483e-21)
(1.14712 0.0907443 -3.59452e-21)
(1.08274 0.0907799 2.35812e-20)
(1.08549 0.0908719 1.91161e-20)
(1.0882 0.0909375 1.10546e-20)
(1.09092 0.0909805 8.06489e-21)
(1.09367 0.0910001 -5.38417e-21)
(1.09646 0.0909961 -5.59311e-21)
(1.09927 0.0909689 -1.7094e-21)
(1.10211 0.0909187 -1.17415e-21)
(1.10498 0.0908457 4.93424e-21)
(1.10787 0.0907503 4.80016e-21)
(1.11079 0.0906326 -1.64656e-21)
(1.11373 0.0904929 6.06812e-21)
(1.1167 0.0903316 -1.92288e-21)
(1.11968 0.0901489 2.53088e-21)
(1.12269 0.0899452 3.35252e-21)
(1.12571 0.0897208 -6.35634e-21)
(1.12875 0.089476 3.33965e-22)
(1.13181 0.0892112 4.81349e-21)
(1.13488 0.0889268 1.4113e-21)
(1.13797 0.088623 -2.64485e-23)
(1.14107 0.0883002 4.44727e-22)
(1.14418 0.0879589 1.11639e-21)
(1.1473 0.0875994 6.22967e-21)
(1.08416 0.0876751 -1.08833e-20)
(1.08684 0.0877507 6.02134e-22)
(1.0895 0.0878015 1.88453e-21)
(1.09216 0.0878308 -1.72038e-21)
(1.09486 0.087838 -6.34356e-21)
(1.09759 0.0878231 5.7502e-21)
(1.10035 0.0877862 1.62529e-22)
(1.10313 0.0877276 1.24865e-21)
(1.10594 0.0876476 -9.00905e-21)
(1.10878 0.0875464 -9.06695e-21)
(1.11164 0.0874243 5.37212e-21)
(1.11453 0.0872815 -1.27094e-21)
(1.11744 0.0871182 4.07912e-21)
(1.12036 0.0869349 -7.62091e-22)
(1.12331 0.0867317 -2.70557e-21)
(1.12628 0.0865091 1.87942e-21)
(1.12927 0.0862672 -7.65041e-21)
(1.13227 0.0860066 -1.01663e-20)
(1.13528 0.0857274 1.4398e-21)
(1.13832 0.0854301 3.36661e-21)
(1.14136 0.085115 -2.37587e-21)
(1.14441 0.0847824 -5.95629e-22)
(1.14747 0.0844327 -3.91298e-21)
(1.08552 0.0845256 -3.79607e-21)
(1.08814 0.0845863 -7.93184e-22)
(1.09075 0.0846236 -5.18296e-21)
(1.09336 0.0846406 4.527e-22)
(1.096 0.0846368 8.72702e-21)
(1.09868 0.0846121 3.23839e-21)
(1.10138 0.0845668 2.9701e-22)
(1.10411 0.0845011 -4.60127e-21)
(1.10687 0.0844152 6.85904e-22)
(1.10965 0.0843094 1.04929e-20)
(1.11246 0.0841838 -2.26023e-21)
(1.11529 0.0840388 -7.36021e-21)
(1.11815 0.0838746 -2.67977e-21)
(1.12102 0.0836915 -7.29083e-21)
(1.12391 0.0834898 3.92534e-21)
(1.12683 0.0832697 -3.59424e-21)
(1.12976 0.0830317 2.98679e-21)
(1.1327 0.082776 6.07501e-21)
(1.13567 0.0825029 5.24545e-22)
(1.13864 0.0822127 -4.55593e-21)
(1.14163 0.0819059 -2.32653e-21)
(1.14463 0.0815827 5.19975e-21)
(1.14764 0.0812434 -4.36314e-21)
(1.08683 0.0813313 1.72946e-21)
(1.0894 0.0813786 6.57299e-21)
(1.09195 0.0814037 -5.05499e-21)
(1.09451 0.0814097 -7.10364e-21)
(1.0971 0.0813963 1.76033e-21)
(1.09973 0.0813631 -6.02157e-21)
(1.10238 0.0813106 1.06347e-21)
(1.10506 0.0812389 -3.58445e-21)
(1.10776 0.0811482 6.28485e-21)
(1.11049 0.0810387 -4.84805e-21)
(1.11325 0.0809108 2.08294e-21)
(1.11603 0.0807645 3.83479e-21)
(1.11883 0.0806003 -1.0842e-21)
(1.12165 0.0804183 4.76544e-21)
(1.12449 0.0802189 3.60275e-21)
(1.12735 0.0800022 3.36922e-21)
(1.13023 0.0797687 2.35729e-21)
(1.13312 0.0795187 4.97587e-21)
(1.13603 0.0792523 -3.81298e-21)
(1.13895 0.07897 1.7317e-21)
(1.14189 0.0786721 6.21052e-21)
(1.14483 0.0783588 -6.79337e-21)
(1.14779 0.0780305 3.7061e-23)
(1.08809 0.0780923 -2.31189e-21)
(1.0906 0.0781274 -7.59201e-21)
(1.0931 0.0781418 1.14364e-20)
(1.09561 0.0781381 1.52731e-20)
(1.09815 0.0781161 2.04264e-21)
(1.10073 0.0780757 -1.81293e-21)
(1.10333 0.0780171 -4.23212e-21)
(1.10596 0.0779404 8.84965e-21)
(1.10861 0.077846 5.61066e-21)
(1.1113 0.077734 -6.57689e-21)
(1.114 0.0776046 -5.37119e-22)
(1.11673 0.077458 7.69755e-21)
(1.11948 0.0772946 2.6573e-21)
(1.12225 0.0771146 -5.83237e-22)
(1.12504 0.0769182 -5.9996e-21)
(1.12785 0.0767058 3.17874e-21)
(1.13067 0.0764775 -1.84293e-21)
(1.13352 0.0762338 -7.35907e-22)
(1.13638 0.0759749 1.90135e-21)
(1.13925 0.075701 -1.05056e-21)
(1.14213 0.0754125 -5.20727e-21)
(1.14503 0.0751098 5.34724e-21)
(1.14793 0.074793 4.53815e-21)
(1.08929 0.0748083 2.26515e-21)
(1.09175 0.0748327 2.03558e-21)
(1.0942 0.0748375 -9.68629e-21)
(1.09666 0.0748253 -9.21737e-21)
(1.09916 0.0747961 -5.1142e-21)
(1.10169 0.0747495 3.90319e-21)
(1.10424 0.0746858 1.49294e-21)
(1.10682 0.0746053 -6.72354e-21)
(1.10943 0.0745081 -1.11688e-20)
(1.11206 0.0743945 7.54527e-21)
(1.11472 0.0742646 7.10345e-21)
(1.1174 0.0741186 1.58092e-21)
(1.1201 0.0739569 3.0466e-21)
(1.12282 0.0737796 1.90899e-21)
(1.12556 0.0735871 -1.93016e-21)
(1.12832 0.0733795 -5.12672e-22)
(1.1311 0.0731572 -5.0264e-21)
(1.13389 0.0729205 -8.33409e-21)
(1.1367 0.0726696 1.01118e-21)
(1.13953 0.0724047 -3.99696e-21)
(1.14236 0.0721263 1.42808e-21)
(1.1452 0.0718346 -1.40008e-21)
(1.14806 0.0715298 -2.25358e-21)
(1.09043 0.0714791 -7.40859e-21)
(1.09284 0.0714939 -1.20276e-21)
(1.09525 0.0714904 1.45824e-21)
(1.09767 0.071471 4.43545e-21)
(1.10012 0.0714355 5.85498e-21)
(1.1026 0.0713839 -5.42028e-21)
(1.10511 0.0713163 1.95829e-21)
(1.10765 0.0712329 2.94701e-21)
(1.11021 0.0711339 6.57268e-21)
(1.11279 0.0710195 4.71831e-21)
(1.1154 0.07089 -7.35088e-21)
(1.11804 0.0707454 -2.74966e-21)
(1.12069 0.0705862 -2.65009e-21)
(1.12337 0.0704125 5.72794e-22)
(1.12606 0.0702245 7.39676e-21)
(1.12877 0.0700225 -3.99378e-21)
(1.1315 0.0698068 1.40537e-21)
(1.13425 0.0695777 3.96622e-21)
(1.13701 0.0693353 -7.23323e-22)
(1.13979 0.0690801 7.23768e-21)
(1.14257 0.0688122 1.01921e-21)
(1.14537 0.0685319 7.52211e-22)
(1.14818 0.0682396 2.39137e-22)
(1.09152 0.0681043 8.62341e-21)
(1.09388 0.0681107 4.22152e-21)
(1.09625 0.0681 3.20653e-22)
(1.09863 0.0680744 -4.42291e-21)
(1.10103 0.0680339 -4.96181e-21)
(1.10347 0.0679782 6.12866e-21)
(1.10594 0.0679076 -2.31757e-21)
(1.10843 0.0678223 -8.9497e-22)
(1.11095 0.0677224 4.73445e-22)
(1.11349 0.0676082 -2.45531e-21)
(1.11605 0.0674799 6.12049e-21)
(1.11864 0.0673376 -6.69416e-21)
(1.12125 0.0671816 -3.51456e-22)
(1.12388 0.0670121 -3.42131e-21)
(1.12653 0.0668294 -3.76747e-21)
(1.1292 0.0666336 -4.25404e-22)
(1.13189 0.0664252 3.64005e-21)
(1.13459 0.0662042 4.8098e-21)
(1.13731 0.065971 1.13801e-21)
(1.14003 0.0657259 -4.28705e-21)
(1.14278 0.065469 -2.49324e-22)
(1.14553 0.0652007 -2.00112e-21)
(1.14829 0.0649212 1.04262e-21)
(1.09256 0.0646831 -1.16769e-24)
(1.09487 0.0646823 -1.40393e-21)
(1.0972 0.0646656 -2.49837e-21)
(1.09953 0.0646349 3.77344e-21)
(1.1019 0.0645902 -5.75542e-21)
(1.1043 0.0645315 -8.21153e-22)
(1.10672 0.0644589 -9.08776e-21)
(1.10917 0.0643726 -1.14892e-21)
(1.11165 0.0642727 -1.78802e-21)
(1.11415 0.0641595 -6.21539e-21)
(1.11667 0.0640332 -2.76222e-21)
(1.11922 0.0638939 6.11194e-21)
(1.12179 0.0637419 -2.84554e-21)
(1.12438 0.0635773 3.79787e-21)
(1.12698 0.0634005 2.29531e-21)
(1.12961 0.0632117 1.07198e-21)
(1.13225 0.063011 1.57842e-21)
(1.13491 0.0627988 -3.10268e-21)
(1.13758 0.0625753 -1.8191e-21)
(1.14027 0.0623408 2.03945e-21)
(1.14297 0.0620954 -1.30725e-21)
(1.14567 0.0618395 1.27768e-22)
(1.14839 0.0615732 -1.46774e-21)
(1.09353 0.0612149 -3.68946e-21)
(1.09581 0.061208 -1.124e-21)
(1.09809 0.0611862 2.99906e-21)
(1.10039 0.0611514 -4.78298e-21)
(1.10272 0.0611037 5.27749e-21)
(1.10508 0.0610429 4.99097e-21)
(1.10747 0.0609691 9.00499e-21)
(1.10988 0.0608827 -1.94813e-21)
(1.11232 0.0607837 -1.47429e-21)
(1.11478 0.0606723 -2.91893e-22)
(1.11726 0.0605487 -1.64839e-21)
(1.11977 0.0604131 -4.07116e-21)
(1.12229 0.0602658 8.39948e-22)
(1.12484 0.0601068 -6.61924e-21)