/*--------------------------------*- C++ -*----------------------------------*\
  =========                 |
  \\      /  F ield         | OpenFOAM: The Open Source CFD Toolbox
   \\    /   O peration     | Website:  https://openfoam.org
    \\  /    A nd           | Version:  7
     \\/     M anipulation  |
\*---------------------------------------------------------------------------*/
FoamFile
{
    version     2.0;
    format      ascii;
    class       surfaceScalarField;
    location    "10";
    object      phi;
}
// * * * * * * * * * * * * * * * * * * * * * * * * * * * * * * * * * * * * * //

dimensions      [0 3 -1 0 0 0 0];

internalField   nonuniform List<scalar> 
5139
(
-0.0329741
0.00125923
-0.0329565
0.00109737
-0.0329245
0.000936134
-0.0328782
0.000775657
-0.0328177
0.000616054
-0.0327434
0.000457436
-0.0326554
0.000299909
-0.0325541
0.000143883
-0.0324398
-1.11784e-05
-0.0323126
-0.000164878
-0.032173
-0.000317141
-0.0320213
-0.000467901
-0.000617099
0.000804436
0.000295675
-0.000800202
0.0008108
0.000451072
0.000819311
0.000607543
0.000829984
0.000764984
0.000842833
0.000923285
0.000857869
0.00108233
0.000875102
0.001242
0.000894542
0.00140216
0.000916195
0.00156269
0.000940064
0.00172345
0.000966155
0.00188432
0.000994467
0.00204516
0.001025
0.00220582
0.00105775
0.00236619
0.00109272
0.00252613
0.00268551
0.000809879
0.000291416
-0.00080562
0.000816282
0.000444668
0.000824848
0.000598978
0.000835589
0.000754242
0.000848521
0.000910354
0.000863654
0.0010672
0.000880999
0.00122465
0.000900565
0.00138259
0.000922358
0.0015409
0.000946382
0.00169943
0.000972642
0.00185806
0.00100114
0.00201666
0.00103187
0.00217509
0.00106483
0.00233323
0.00110002
0.00249094
0.0026481
0.000815357
0.000287131
-0.000811072
0.000821801
0.000438224
0.000830421
0.000590358
0.000841231
0.000743432
0.000854246
0.000897339
0.000869477
0.00105196
0.000886935
0.00120719
0.000906628
0.0013629
0.000928562
0.00151896
0.000952742
0.00167525
0.000979172
0.00183163
0.00100785
0.00198798
0.00103878
0.00214417
0.00107196
0.00230006
0.00110737
0.00245553
0.00114502
0.00261045
0.00276469
0.000820872
0.00028282
-0.000816561
0.000827356
0.00043174
0.00083603
0.000581684
0.00084691
0.000732552
0.000860009
0.00088424
0.000875339
0.00103664
0.00089291
0.00118962
0.00091273
0.00134308
0.000934807
0.00149689
0.000959144
0.00165091
0.000985746
0.00180503
0.00101461
0.00195912
0.00104574
0.00211304
0.00107913
0.00226667
0.00111478
0.00241988
0.00115267
0.00257255
0.00272455
0.000826423
0.000278484
-0.000822086
0.000832947
0.000425216
0.000841677
0.000572954
0.000852626
0.000721603
0.00086581
0.000871056
0.000881239
0.00102121
0.000898924
0.00117194
0.000918873
0.00132313
0.000941093
0.00147466
0.000965589
0.00162642
0.000992363
0.00177826
0.00102142
0.00193006
0.00105275
0.00208171
0.00108635
0.00223306
0.00112223
0.002384
0.00116037
0.00253441
0.00120077
0.00268416
0.00283313
0.00083201
0.000274122
-0.000827648
0.000838575
0.000418651
0.00084736
0.00056417
0.00085838
0.000710583
0.000871648
0.000857788
0.000887177
0.00100568
0.000904977
0.00115414
0.000925056
0.00130305
0.000947421
0.0014523
0.000972076
0.00160176
0.000999024
0.00175131
0.00102827
0.00190082
0.0010598
0.00205017
0.00109363
0.00219924
0.00112973
0.00234789
0.00116812
0.00249602
0.00120878
0.0026435
0.00279022
0.000837635
0.000269734
-0.000833247
0.000844241
0.000412045
0.000853081
0.000555329
0.000864171
0.000699492
0.000877525
0.000844434
0.000893155
0.000990047
0.00091107
0.00113622
0.00093128
0.00128284
0.00095379
0.00142979
0.000978606
0.00157694
0.00100573
0.00172419
0.00103516
0.00187139
0.0010669
0.00201843
0.00110094
0.00216519
0.00113729
0.00231155
0.00117592
0.00245739
0.00121684
0.00260258
0.00126003
0.00274703
0.00289061
0.000843297
0.00026532
-0.000838883
0.000849943
0.000405398
0.000858839
0.000546433
0.000870001
0.000688331
0.000883441
0.000830994
0.000899172
0.000974317
0.000917203
0.00111819
0.000937544
0.0012625
0.000960201
0.00140713
0.000985178
0.00155197
0.00101248
0.00169689
0.0010421
0.00184176
0.00107405
0.00198648
0.00110831
0.00213093
0.00114489
0.00227497
0.00118378
0.0024185
0.00122496
0.0025614
0.00126843
0.00270356
0.00284486
0.000848996
0.00026088
-0.000844556
0.000855684
0.000398711
0.000864636
0.000537481
0.000875869
0.000677099
0.000889395
0.000817467
0.000905228
0.000958484
0.000923377
0.00110004
0.00094385
0.00124203
0.000966654
0.00138433
0.000991794
0.00152683
0.00101927
0.00166941
0.00104909
0.00181195
0.00108124
0.00195433
0.00111573
0.00209644
0.00115255
0.00223815
0.00119169
0.00237936
0.00123314
0.00251995
0.00127689
0.00265981
0.00279882
0.000854733
0.000256415
-0.000850268
0.000861462
0.000391982
0.000870471
0.000528472
0.000881775
0.000665794
0.000895389
0.000803854
0.000911324
0.000942549
0.00092959
0.00108177
0.000950197
0.00122142
0.00097315
0.00136138
0.000998454
0.00150152
0.00102611
0.00164175
0.00105612
0.00178194
0.00108848
0.00192197
0.0011232
0.00206173
0.00116025
0.0022011
0.00119965
0.00233997
0.00124137
0.00247823
0.0012854
0.00261577
0.00133174
0.00275248
0.00288827
0.000860509
0.000251923
-0.000856017
0.000867279
0.000385212
0.000876344
0.000519407
0.00088772
0.000654418
0.000901422
0.000790152
0.00091746
0.000926511
0.000935845
0.00106339
0.000956586
0.00120068
0.000979688
0.00133827
0.00100516
0.00147606
0.00103299
0.00161391
0.0010632
0.00175173
0.00109577
0.00188939
0.00113071
0.00202679
0.00116801
0.0021638
0.00120766
0.00230032
0.00124965
0.00243624
0.00129397
0.00257145
0.00134061
0.00270585
0.00283933
0.000866323
0.000247406
-0.000861805
0.000873134
0.000378401
0.000882256
0.000510284
0.000893705
0.000642969
0.000907494
0.000776363
0.000923636
0.000910369
0.000942141
0.00104488
0.000963017
0.0011798
0.00098627
0.00131502
0.0010119
0.00145042
0.00103992
0.00158589
0.00107033
0.00172133
0.00110311
0.00185661
0.00113828
0.00199162
0.00117582
0.00212626
0.00121573
0.00226041
0.00125799
0.00239397
0.0013026
0.00252684
0.00134954
0.0026589
0.0013988
0.00279007
0.00292024
0.000872175
0.000242863
-0.000867632
0.000879028
0.000371548
0.000888207
0.000501105
0.000899729
0.000631447
0.000913607
0.000762485
0.000929854
0.000894122
0.000948479
0.00102626
0.00096949
0.00115879
0.000992895
0.00129162
0.0010187
0.00142462
0.0010469
0.00155769
0.0010775
0.00169073
0.0011105
0.00182361
0.0011459
0.00195623
0.00118368
0.00208848
0.00122385
0.00222025
0.00126639
0.00235144
0.00131129
0.00248194
0.00135853
0.00261166
0.00140811
0.00274049
0.00286835
0.000878067
0.000238294
-0.000873498
0.000884962
0.000364654
0.000894199
0.000491868
0.000905794
0.000619852
0.000919761
0.000748518
0.000936112
0.000877771
0.000954858
0.00100751
0.000976006
0.00113764
0.000999563
0.00126806
0.00102553
0.00139865
0.00105392
0.00152931
0.00108472
0.00165992
0.00111794
0.00179039
0.00115356
0.0019206
0.0011916
0.00205044
0.00123202
0.00217982
0.00127484
0.00230862
0.00132003
0.00243675
0.00136759
0.0025641
0.00141749
0.00269059
0.00146972
0.00281612
0.0029406
0.000883999
0.000233699
-0.000879404
0.000890935
0.000357718
0.000900229
0.000482573
0.000911898
0.000608183
0.000925955
0.000734461
0.000942412
0.000861314
0.000961279
0.000988647
0.000982565
0.00111636
0.00100628
0.00124435
0.00103242
0.00137251
0.00106099
0.00150073
0.00109199
0.00162892
0.00112542
0.00175696
0.00116128
0.00188474
0.00119956
0.00201216
0.00124026
0.00213913
0.00128335
0.00226552
0.00132884
0.00239126
0.0013767
0.00251624
0.00142693
0.00264037
0.0014795
0.00276355
0.00153439
0.00288571
0.00300675
0.00088997
0.000229078
-0.000885349
0.000896948
0.00035074
0.000906301
0.000473221
0.000918043
0.000596441
0.00093219
0.000720314
0.000948754
0.000844751
0.000967743
0.000969657
0.000989168
0.00109493
0.00101303
0.00122048
0.00103934
0.0013462
0.0010681
0.00147198
0.00109931
0.00159771
0.00113296
0.0017233
0.00116905
0.00184865
0.00120758
0.00197363
0.00124854
0.00209817
0.00129192
0.00222215
0.0013377
0.00234548
0.00138588
0.00246806
0.00143643
0.00258981
0.00148934
0.00271064
0.00154459
0.00283046
0.00294918
0.000895982
0.000224432
-0.000891335
0.000903002
0.00034372
0.000912412
0.00046381
0.000924229
0.000584623
0.000938467
0.000706076
0.000955137
0.000828081
0.00097425
0.000950544
0.000995814
0.00107337
0.00101984
0.00119646
0.00104632
0.00131971
0.00107527
0.00144303
0.00110668
0.0015663
0.00114055
0.00168943
0.00117688
0.00181232
0.00121566
0.00193485
0.00125688
0.00205694
0.00130054
0.00217849
0.00134663
0.0022994
0.00139511
0.00241957
0.001446
0.00253893
0.00149925
0.00265738
0.00155486
0.00277484
0.00161281
0.00289123
0.00300647
0.000902034
0.000219759
-0.000897361
0.000909096
0.000336658
0.000918565
0.000454341
0.000930457
0.000572731
0.000944786
0.000691747
0.000961563
0.000811303
0.000980801
0.000931307
0.00100251
0.00105167
0.00102668
0.00117228
0.00105334
0.00129306
0.00108248
0.00141389
0.00111409
0.00153469
0.00114818
0.00165534
0.00118475
0.00177575
0.00122379
0.00189582
0.00126528
0.00201545
0.00130923
0.00213454
0.00135561
0.00225301
0.00140442
0.00237077
0.00145563
0.00248772
0.00150923
0.00260378
0.00156521
0.00271887
0.00162353
0.00283291
0.00294583
0.000908127
0.000215061
-0.000903429
0.000915231
0.000329554
0.000924759
0.000444813
0.000936726
0.000560764
0.000951146
0.000677327
0.000968033
0.000794416
0.000987394
0.000911945
0.00100924
0.00102982
0.00103358
0.00114795
0.00106041
0.00126623
0.00108973
0.00138457
0.00112156
0.00150286
0.00115587
0.00162102
0.00119268
0.00173894
0.00123197
0.00185653
0.00127374
0.00197368
0.00131797
0.00209031
0.00136466
0.00220633
0.00141378
0.00232164
0.00146533
0.00243617
0.00151928
0.00254983
0.00157562
0.00266253
0.00163432
0.00277421
0.00169537
0.00288478
0.00299418
0.000914261
0.000210337
-0.000909537
0.000921408
0.000322407
0.000930994
0.000435227
0.000943037
0.000548722
0.00095755
0.000662814
0.000974545
0.000777422
0.000994032
0.000892457
0.00101602
0.00100783
0.00104052
0.00112345
0.00106752
0.00123922
0.00109704
0.00135505
0.00112907
0.00147083
0.00116361
0.00158648
0.00120066
0.00170189
0.00124021
0.00181698
0.00128225
0.00193164
0.00132677
0.00204579
0.00137376
0.00215934
0.00142321
0.0022722
0.00147509
0.00238429
0.0015294
0.00249552
0.00158611
0.00260583
0.00164519
0.00271512
0.00170663
0.00282334
0.00293041
0.000920437
0.000205588
-0.000915687
0.000927626
0.000315218
0.000937272
0.000425581
0.000949391
0.000536603
0.000963996
0.000648209
0.000981101
0.000760317
0.00100071
0.000872843
0.00102285
0.0009857
0.0010475
0.0010988
0.00107468
0.00121204
0.0011044
0.00132534
0.00113664
0.00143859
0.00117141
0.00155171
0.0012087
0.0016646
0.00124851
0.00177717
0.00129082
0.00188932
0.00133564
0.00200098
0.00138293
0.00211204
0.0014327
0.00222243
0.00148493
0.00233206
0.00153959
0.00244086
0.00159667
0.00254875
0.00165614
0.00265565
0.00171798
0.0027615
0.00178217
0.00286622
0.00296976
0.000926655
0.000200812
-0.00092188
0.000933887
0.000307987
0.000943592
0.000415875
0.000955787
0.000524408
0.000970486
0.00063351
0.000987701
0.000743102
0.00100744
0.000853102
0.00102972
0.000963425
0.00105453
0.00107398
0.00108189
0.00118468
0.0011118
0.00129543
0.00114425
0.00140614
0.00117925
0.00151671
0.00121679
0.00162707
0.00125686
0.0017371
0.00129945
0.00184673
0.00134456
0.00195587
0.00139217
0.00206443
0.00144226
0.00217233
0.00149483
0.00227949
0.00154985
0.00238584
0.0016073
0.0024913
0.00166716
0.00259579
0.00172941
0.00269925
0.00179402
0.00280162
0.00186096
0.00290281
0.00300279
0.000932915
0.000196011
-0.000928114
0.00094019
0.000300713
0.000949955
0.00040611
0.000962227
0.000512136
0.000977019
0.000618717
0.000994345
0.000725777
0.00101421
0.000833233
0.00103663
0.000941004
0.00106161
0.001049
0.00108915
0.00115714
0.00111925
0.00126533
0.00115192
0.00137347
0.00118715
0.00148149
0.00122493
0.00158928
0.00126526
0.00169677
0.00130814
0.00180386
0.00135354
0.00191047
0.00140146
0.00201651
0.00145189
0.00212191
0.0015048
0.00222658
0.00156018
0.00233046
0.001618
0.00243347
0.00167826
0.00253554
0.00174091
0.0026366
0.00180594
0.00273658
0.00187332
0.00283543
0.00293309
0.000939219
0.000191184
-0.000934392
0.000946536
0.000293395
0.000956361
0.000396285
0.00096871
0.000499787
0.000983597
0.00060383
0.00100103
0.000708339
0.00102103
0.000813236
0.0010436
0.000918438
0.00106874
0.00102386
0.00109646
0.00112942
0.00112676
0.00123503
0.00115964
0.00134059
0.0011951
0.00144603
0.00123313
0.00155125
0.00127373
0.00165617
0.00131688
0.0017607
0.00136259
0.00186476
0.00141082
0.00196827
0.00146158
0.00207115
0.00151483
0.00217333
0.00157058
0.00227472
0.00162878
0.00237526
0.00168943
0.00247489
0.0017525
0.00257353
0.00181796
0.00267113
0.00188578
0.00276761
0.00195594
0.00286293
0.00295702
0.000945565
0.000186331
-0.000940713
0.000952925
0.000286035
0.000962811
0.0003864
0.000975237
0.000487361
0.000990219
0.000588849
0.00100777
0.00069079
0.0010279
0.000793108
0.00105061
0.000895724
0.00107591
0.000998555
0.00110382
0.00110152
0.00113432
0.00120453
0.00116741
0.00130749
0.0012031
0.00141034
0.00124139
0.00151297
0.00128225
0.00161531
0.00132569
0.00171726
0.00137169
0.00181876
0.00142025
0.00191972
0.00147133
0.00202006
0.00152494
0.00211972
0.00158105
0.00221861
0.00163964
0.00231668
0.00170068
0.00241384
0.00176416
0.00251005
0.00183005
0.00260524
0.00189832
0.00269934
0.00196894
0.00279231
0.00204188
0.00288408
0.0029746
0.000951955
0.000181453
-0.000947077
0.000959359
0.000278632
0.000969304
0.000376454
0.000981809
0.000474857
0.000996886
0.000573771
0.00101455
0.000673127
0.00103481
0.000772851
0.00105767
0.000872863
0.00108314
0.000973085
0.00111122
0.00107343
0.00114192
0.00117383
0.00117524
0.00127418
0.00121116
0.00137441
0.0012497
0.00147444
0.00129083
0.00157417
0.00133456
0.00167354
0.00138086
0.00177246
0.00142973
0.00187085
0.00148116
0.00196864
0.00153512
0.00206576
0.0015916
0.00216213
0.00165057
0.0022577
0.00171202
0.0023524
0.00177591
0.00244615
0.00184223
0.00253892
0.00191095
0.00263063
0.00198204
0.00272122
0.00205546
0.00281066
0.00289887
0.00095839
0.000176549
-0.000953486
0.000965836
0.000271186
0.000975842
0.000366448
0.000988425
0.000462274
0.0010036
0.000558598
0.00102137
0.000655352
0.00104176
0.000752462
0.00106477
0.000849853
0.00109041
0.000947447
0.00111868
0.00104516
0.00114958
0.00114293
0.00118311
0.00124065
0.00121928
0.00133825
0.00125806
0.00143565
0.00129947
0.00153277
0.00134348
0.00162952
0.00139009
0.00172584
0.00143929
0.00182165
0.00149105
0.00191687
0.00154537
0.00201144
0.00160222
0.00210529
0.00166158
0.00219834
0.00172343
0.00229055
0.00178775
0.00238184
0.0018545
0.00247216
0.00192367
0.00256146
0.00199522
0.00264967
0.00206913
0.00273676
0.00214535
0.00282265
0.00290731
0.000964869
0.00017162
-0.000959939
0.000972358
0.000263697
0.000982425
0.000356381
0.000995087
0.000449612
0.00101036
0.000543328
0.00102825
0.000637461
0.00104877
0.000731941
0.00107193
0.000826693
0.00109773
0.000921642
0.00112619
0.00101671
0.00115729
0.00111182
0.00119105
0.00120689
0.00122745
0.00130185
0.00126649
0.0013966
0.00130817
0.00149109
0.00135247
0.00158522
0.00139939
0.00167893
0.00144891
0.00177213
0.00150101
0.00186477
0.00155569
0.00195677
0.00161291
0.00204806
0.00167266
0.00213859
0.00173492
0.00222829
0.00179966
0.0023171
0.00186686
0.00240496
0.00193648
0.00249183
0.00200851
0.00257765
0.0020829
0.00266236
0.00215962
0.00274593
0.00223865
0.00282828
0.00290939
0.000971392
0.000166665
-0.000966437
0.000978925
0.000256163
0.000989054
0.000346252
0.00100179
0.000436872
0.00101716
0.000527962
0.00103517
0.000619456
0.00105582
0.000711287
0.00107913
0.000803382
0.0011051
0.000895668
0.00113375
0.00098807
0.00116505
0.00108051
0.00119903
0.00117292
0.00123567
0.00126521
0.00127497
0.0013573
0.00131693
0.00144913
0.00136152
0.00154062
0.00140875
0.0016317
0.0014586
0.00172229
0.00151105
0.00181232
0.00156608
0.00190173
0.00162368
0.00199046
0.00168383
0.00207844
0.0017465
0.00216562
0.00181166
0.00225193
0.0018793
0.00233733
0.00194938
0.00242175
0.00202188
0.00250515
0.00209677
0.00258748
0.002174
0.00266869
0.00225355
0.00274873
0.00233538
0.00282756
0.00290512
0.000977961
0.000161684
-0.00097298
0.000985538
0.000248587
0.000995728
0.000336062
0.00100855
0.000424052
0.00102401
0.000512497
0.00104213
0.000601335
0.00106292
0.000690499
0.00108638
0.000779919
0.00111253
0.000869524
0.00114136
0.000959242
0.00117287
0.001049
0.00120707
0.00113872
0.00124395
0.00122832
0.00128351
0.00131774
0.00132574
0.0014069
0.00137064
0.00149573
0.00141818
0.00158416
0.00146835
0.00167211
0.00152115
0.00175953
0.00157654
0.00184634
0.00163453
0.00193248
0.00169507
0.0020179
0.00175815
0.00210254
0.00182375
0.00218633
0.00189183
0.00226924
0.00196238
0.0023512
0.00203536
0.00243217
0.00211073
0.0025121
0.00218848
0.00259095
0.00226855
0.00266866
0.00235093
0.00274519
0.00282049
0.000984576
0.000156677
-0.00097957
0.000992197
0.000240967
0.00100245
0.00032581
0.00101535
0.000411152
0.00103091
0.000496935
0.00104915
0.000583098
0.00107007
0.000669577
0.00109369
0.000756304
0.00112
0.00084321
0.00114902
0.000930225
0.00118074
0.00101728
0.00121517
0.00110429
0.00125229
0.0011912
0.00129211
0.00127792
0.00133462
0.00136439
0.00137981
0.00145054
0.00142767
0.0015363
0.00147817
0.0016216
0.00153132
0.00170638
0.00158708
0.00179057
0.00164545
0.00187412
0.00170639
0.00195696
0.00176989
0.00203904
0.00183592
0.0021203
0.00190445
0.00220071
0.00197547
0.00228019
0.00204892
0.00235872
0.0021248
0.00243623
0.00220306
0.00251269
0.00228367
0.00258805
0.00236659
0.00266226
0.00245178
0.00273529
0.00280708
0.000991237
0.000151645
-0.000986205
0.000998902
0.000233302
0.00100922
0.000315495
0.0010222
0.000398171
0.00103786
0.000481274
0.00105621
0.000564744
0.00107727
0.000648519
0.00110104
0.000732534
0.00112753
0.000816723
0.00115673
0.000901016
0.00118866
0.000985345
0.00122332
0.00106964
0.00126069
0.00115382
0.00130077
0.00123784
0.00134357
0.0013216
0.00138905
0.00140506
0.00143722
0.00148813
0.00148807
0.00157076
0.00154156
0.00165288
0.0015977
0.00173444
0.00165645
0.00181537
0.00171779
0.00189561
0.00178171
0.00197512
0.00184818
0.00205384
0.00191717
0.00213172
0.00198865
0.00220871
0.00206259
0.00228477
0.00213897
0.00235985
0.00221774
0.00243391
0.00229889
0.00250691
0.00238236
0.00257879
0.00246812
0.00264953
0.00255613
0.00271907
0.00278737
0.000997945
0.000146587
-0.000992887
0.00100565
0.000225594
0.00101603
0.000305119
0.00102909
0.00038511
0.00104485
0.000465513
0.00106332
0.000546272
0.00108452
0.000627325
0.00110844
0.00070861
0.0011351
0.000790063
0.0011645
0.000871616
0.00119664
0.000953203
0.00123153
0.00103476
0.00126914
0.00111621
0.00130949
0.00119749
0.00135257
0.00127853
0.00139836
0.00135927
0.00144685
0.00143964
0.00149803
0.00151958
0.00155188
0.00159903
0.00160838
0.00167793
0.00166752
0.00175623
0.00172928
0.00183386
0.00179362
0.00191078
0.00186053
0.00198693
0.00192997
0.00206227
0.00200192
0.00213676
0.00207636
0.00221034
0.00215324
0.00228297
0.00223254
0.00235462
0.00231422
0.00242523
0.00239824
0.00249477
0.00248457
0.0025632
0.00257317
0.00263047
0.002664
0.00269654
0.00276137
0.0010047
0.000141503
-0.000999617
0.00101245
0.000217842
0.00102289
0.00029468
0.00103603
0.000371967
0.0010519
0.000449653
0.00107049
0.000527681
0.00109182
0.000605994
0.0011159
0.00068453
0.00114273
0.000763228
0.00117233
0.000842023
0.00120468
0.00092085
0.00123979
0.000999644
0.00127766
0.00107834
0.00131828
0.00115687
0.00136164
0.00123517
0.00140773
0.00131318
0.00145654
0.00139083
0.00150806
0.00146806
0.00156227
0.00154482
0.00161915
0.00162105
0.00167868
0.00169669
0.00174084
0.00177169
0.00180561
0.00184601
0.00187296
0.00191958
0.00194287
0.00199237
0.0020153
0.00206433
0.00209023
0.00213541
0.00216762
0.00220558
0.00224744
0.00227479
0.00232966
0.00234301
0.00241424
0.00241019
0.00250115
0.00247629
0.00259034
0.00254128
0.00268177
0.00260511
0.00266774
0.0010115
0.000136394
-0.00100639
0.0010193
0.000210045
0.0010298
0.000284177
0.00104303
0.000358743
0.00105899
0.000433692
0.0010777
0.000508971
0.00109917
0.000584524
0.0011234
0.000660293
0.00115041
0.000736217
0.0011802
0.000812235
0.00121277
0.000888284
0.00124811
0.000964301
0.00128623
0.00104022
0.00132712
0.00111598
0.00137077
0.00119152
0.00141716
0.00126678
0.0014663
0.00134169
0.00151816
0.0014162
0.00157273
0.00149025
0.00162999
0.00156379
0.00168992
0.00163677
0.00175249
0.00170912
0.00181769
0.00178081
0.00188549
0.00185178
0.00195586
0.001922
0.00202877
0.00199141
0.00210419
0.00205999
0.0021821
0.00212767
0.00226245
0.00219444
0.00234522
0.00226024
0.00243036
0.00232505
0.00251784
0.00238881
0.00260763
0.0024515
0.00269967
0.00251307
0.00257348
0.00101835
0.000131259
-0.00101322
0.0010262
0.000202204
0.00103676
0.000273611
0.00105007
0.000345436
0.00106613
0.00041763
0.00108496
0.000490141
0.00110657
0.000562916
0.00113096
0.000635898
0.00115815
0.00070903
0.00118813
0.000782252
0.00122092
0.000855503
0.00125649
0.000928723
0.00129486
0.00100185
0.00133602
0.00107482
0.00137996
0.00114758
0.00142667
0.00122007
0.00147613
0.00129223
0.00152834
0.001364
0.00158327
0.00143532
0.00164091
0.00150615
0.00170123
0.00157644
0.00176423
0.00164613
0.00182986
0.00171517
0.00189811
0.00178353
0.00196894
0.00185116
0.00204234
0.00191802
0.00211827
0.00198406
0.00219669
0.00204925
0.00227757
0.00211355
0.00236089
0.00217693
0.0024466
0.00223934
0.00253466
0.00230075
0.00262504
0.00236112
0.0027177
0.00242041
0.0024786
0.00102525
0.000126098
-0.00102009
0.00103314
0.000194318
0.00104377
0.000262982
0.00105716
0.000332047
0.00107332
0.000401466
0.00109227
0.00047119
0.00111402
0.000541167
0.00113858
0.000611344
0.00116594
0.000681664
0.00119612
0.000752071
0.00122912
0.000822506
0.00126493
0.00089291
0.00130356
0.000963225
0.00134499
0.00103339
0.00138922
0.00110335
0.00143624
0.00117305
0.00148603
0.00124243
0.00153858
0.00131144
0.00159388
0.00138002
0.00165191
0.00144813
0.00171263
0.00151571
0.00177605
0.00158272
0.00184212
0.0016491
0.00191082
0.00171483
0.00198213
0.00177985
0.00205601
0.00184413
0.00213244
0.00190763
0.00221138
0.00197031
0.00229281
0.00203213
0.00237668
0.00209306
0.00246296
0.00215306
0.00255161
0.0022121
0.00264259
0.00227014
0.00273586
0.00232714
0.00238308
0.0010322
0.000120911
-0.00102702
0.00104013
0.000186387
0.00105083
0.000252288
0.0010643
0.000318574
0.00108057
0.0003852
0.00109964
0.000452118
0.00112153
0.000519278
0.00114624
0.00058663
0.00117379
0.000654119
0.00120417
0.000721691
0.00123738
0.00078929
0.00127343
0.00085686
0.00131231
0.000924344
0.00135402
0.000991686
0.00139854
0.00105883
0.00144587
0.00112572
0.001496
0.00119231
0.0015489
0.00125854
0.00160457
0.00132436
0.00166298
0.00138972
0.00172412
0.00145458
0.00178795
0.00151888
0.00185446
0.00158259
0.00192362
0.00164567
0.00199541
0.00170807
0.00206978
0.00176976
0.00214672
0.00183069
0.00222619
0.00189084
0.00230816
0.00195016
0.00239258
0.00200863
0.00247944
0.00206621
0.00256868
0.00212286
0.00266026
0.00217855
0.00275416
0.00223325
0.00228693
0.0010392
0.000115698
-0.00103399
0.00104718
0.000178411
0.00105794
0.000241531
0.00107149
0.000305018
0.00108786
0.000368831
0.00110706
0.000432923
0.00112909
0.000497247
0.00115396
0.000561754
0.00118169
0.000626393
0.00121227
0.000691111
0.0012457
0.000755855
0.00128199
0.000820571
0.00132113
0.000885204
0.00136312
0.000949702
0.00140794
0.00101401
0.00145558
0.00107808
0.00150604
0.00114185
0.0015593
0.00120528
0.00161534
0.00126832
0.00167414
0.00133092
0.00173568
0.00139303
0.00179994
0.00145462
0.0018669
0.00151564
0.00193652
0.00157605
0.00200878
0.00163581
0.00208366
0.00169488
0.00216111
0.00175324
0.00224111
0.00181084
0.00232362
0.00186765
0.00240861
0.00192364
0.00249604
0.00197877
0.00258588
0.00203302
0.00267807
0.00208635
0.00277259
0.00213873
0.00219013
0.00104625
0.00011046
-0.00104101
0.00105427
0.000170389
0.0010651
0.000230708
0.00107874
0.000291378
0.00109521
0.000352358
0.00111453
0.000413605
0.0011367
0.000475073
0.00116174
0.000536717
0.00118965
0.000598486
0.00122043
0.00066033
0.00125408
0.000722199
0.00129061
0.000784042
0.00133001
0.000845805
0.00137228
0.000907439
0.00141739
0.000968891
0.00146536
0.00103011
0.00151616
0.00109105
0.00156977
0.00115167
0.00162618
0.0012119
0.00168538
0.00127172
0.00174733
0.00133108
0.00181202
0.00138993
0.00187943
0.00144824
0.00194951
0.00150596
0.00202226
0.00156306
0.00209763
0.00161951
0.0021756
0.00167527
0.00225614
0.00173031
0.0023392
0.00178459
0.00242476
0.00183808
0.00251277
0.00189076
0.00260321
0.00194259
0.00269602
0.00199354
0.00279116
0.00204359
0.00209269
0.00105335
0.000105195
-0.00104809
0.00106142
0.000162322
0.00107231
0.00021982
0.00108603
0.000277653
0.00110261
0.00033578
0.00112205
0.000394162
0.00114437
0.000452756
0.00116957
0.000511515
0.00119766
0.000570395
0.00122864
0.000629346
0.00126252
0.000688321
0.00129929
0.000747269
0.00133896
0.000806143
0.0013815
0.000864893
0.00142692
0.000923471
0.00147521
0.000981828
0.00152634
0.00103992
0.00158032
0.00109769
0.00163711
0.00115511
0.0016967
0.00121213
0.00175907
0.00126871
0.00182419
0.0013248
0.00189205
0.00138038
0.00196261
0.0014354
0.00203584
0.00148983
0.00211172
0.00154363
0.00219021
0.00159678
0.00227128
0.00164923
0.0023549
0.00170097
0.00244103
0.00175195
0.00252963
0.00180216
0.00262067
0.00185155
0.0027141
0.00190011
0.00280988
0.00194781
0.0019946
0.0010605
9.99038e-05
-0.00105521
0.00106862
0.00015421
0.00107957
0.000208867
0.00109338
0.000263842
0.00111006
0.000319098
0.00112963
0.000374596
0.00115209
0.000430294
0.00117746
0.00048615
0.00120573
0.000542119
0.00123692
0.000598157
0.00127102
0.000654217
0.00130804
0.000710253
0.00134797
0.000766218
0.00139079
0.000822064
0.00143652
0.000877747
0.00148513
0.00093322
0.0015366
0.000988439
0.00159094
0.00104336
0.00164811
0.00109794
0.0017081
0.00115214
0.00177089
0.00120592
0.00183645
0.00125924
0.00190476
0.00131207
0.00197579
0.00136437
0.00204952
0.0014161
0.00212591
0.00146725
0.00220492
0.00151776
0.00228654
0.00156762
0.00237072
0.00161679
0.00245742
0.00166525
0.00254662
0.00171296
0.00263826
0.00175991
0.00273232
0.00180606
0.00282874
0.00185138
0.00189586
0.00106771
9.45865e-05
-0.00106239
0.00107586
0.000146051
0.00108688
0.000197848
0.00110078
0.000249946
0.00111757
0.00030231
0.00113726
0.000354903
0.00115987
0.000407686
0.0011854
0.000460618
0.00121386
0.000513658
0.00124526
0.000566763
0.00127959
0.000619888
0.00131685
0.000672991
0.00135704
0.000726026
0.00140015
0.000778949
0.00144618
0.000831717
0.00149512
0.000884287
0.00154694
0.000936615
0.00160164
0.000988661
0.0016592
0.00104038
0.00171959
0.00109175
0.0017828
0.00114271
0.0018488
0.00119324
0.00191757
0.0012433
0.00198908
0.00129286
0.0020633
0.00134188
0.0021402
0.00139034
0.00221975
0.00143821
0.00230192
0.00148545
0.00238666
0.00153205
0.00247395
0.00157796
0.00256374
0.00162317
0.002656
0.00166765
0.00275068
0.00171138
0.00284774
0.00175432
0.00179645
0.00107496
8.92427e-05
-0.00106962
0.00108317
0.000137846
0.00109425
0.000186763
0.00110823
0.000235964
0.00112513
0.000285416
0.00114495
0.000335084
0.0011677
0.000384931
0.0011934
0.000434919
0.00122205
0.000485009
0.00125365
0.00053516
0.00128821
0.000585332
0.00132572
0.000635481
0.00136618
0.000685566
0.00140958
0.000735546
0.00145592
0.000785379
0.00150518
0.000835025
0.00155735
0.000884443
0.00161242
0.000933594
0.00167036
0.000982441
0.00173116
0.00103095
0.0017948
0.00107907
0.00186125
0.00112679
0.00193048
0.00117407
0.00200247
0.00122087
0.00207719
0.00126716
0.00215461
0.00131293
0.00223469
0.00135813
0.00231741
0.00140274
0.00240272
0.00144673
0.0024906
0.00149009
0.00258099
0.00153278
0.00267387
0.00157478
0.00276918
0.00161606
0.0028669
0.0016566
0.00169639
0.00108227
8.38725e-05
-0.0010769
0.00109052
0.000129594
0.00110167
0.000175611
0.00111574
0.000221895
0.00113275
0.000268414
0.00115269
0.000315137
0.00117559
0.000362028
0.00120146
0.000409052
0.0012303
0.000456172
0.00126211
0.000503349
0.0012969
0.000550545
0.00133466
0.000597721
0.00137539
0.000644836
0.00141908
0.000691853
0.00146573
0.000738731
0.00151532
0.000785433
0.00156784
0.00083192
0.00162328
0.000878157
0.00168161
0.000924107
0.00174282
0.000969736
0.00180689
0.00101501
0.00187378
0.0010599
0.00194348
0.00110437
0.00201596
0.00114839
0.00209119
0.00119194
0.00216913
0.00123499
0.00224975
0.0012775
0.00233302
0.00131946
0.00241891
0.00136085
0.00250738
0.00140162
0.00259838
0.00144178
0.00269188
0.00148128
0.00278783
0.0015201
0.0028862
0.00155823
0.00159565
0.00108963
7.84755e-05
-0.00108424
0.00109793
0.000121295
0.00110915
0.000164392
0.00112331
0.000207738
0.00114042
0.000251305
0.00116049
0.000295062
0.00118354
0.000338977
0.00120958
0.000383016
0.00123861
0.000427145
0.00127063
0.000471328
0.00130565
0.000515528
0.00134366
0.000559709
0.00138466
0.000603834
0.00142865
0.000647867
0.00147561
0.00069177
0.00152553
0.000735507
0.00157841
0.000779044
0.00163422
0.000822346
0.00169295
0.000865379
0.00175457
0.000908112
0.00181907
0.000950512
0.00188642
0.00099255
0.00195659
0.0010342
0.00202955
0.00107543
0.00210529
0.00111621
0.00218375
0.00115652
0.00226492
0.00119633
0.00234876
0.00123563
0.00243523
0.00127438
0.00252429
0.00131256
0.0026159
0.00135016
0.00271003
0.00138715
0.00280663
0.0014235
0.00290566
0.0014592
0.00149423
0.00109705
7.30516e-05
-0.00109163
0.0011054
0.00011295
0.00111668
0.000153105
0.00113093
0.000193493
0.00114815
0.000234087
0.00116835
0.000274858
0.00119155
0.000315776
0.00121776
0.000356809
0.00124698
0.000397926
0.00127921
0.000439094
0.00131446
0.000480278
0.00135273
0.000521444
0.001394
0.000562558
0.00143828
0.000603585
0.00148556
0.000644492
0.00153582
0.000685245
0.00158906
0.000725811
0.00164524
0.000766158
0.00170437
0.000806255
0.00176641
0.000846071
0.00183134
0.000885578
0.00189915
0.000924747
0.00196979
0.000963551
0.00204325
0.00100196
0.0021195
0.00103996
0.0021985
0.00107752
0.00228021
0.00111462
0.00236462
0.00115123
0.00245167
0.00118733
0.00254133
0.0012229
0.00263356
0.00125793
0.00272833
0.00129238
0.00282558
0.00132625
0.00292528
0.00135951
0.00139214
0.00110452
6.76009e-05
-0.00109907
0.00111292
0.000104556
0.00112427
0.000141751
0.00113861
0.00017916
0.00115593