/*--------------------------------*- C++ -*----------------------------------*\
  =========                 |
  \\      /  F ield         | OpenFOAM: The Open Source CFD Toolbox
   \\    /   O peration     | Website:  https://openfoam.org
    \\  /    A nd           | Version:  7
     \\/     M anipulation  |
\*---------------------------------------------------------------------------*/
FoamFile
{
    version     2.0;
    format      ascii;
    class       volVectorField;
    location    "10";
    object      U;
}
// * * * * * * * * * * * * * * * * * * * * * * * * * * * * * * * * * * * * * //

dimensions      [0 1 -1 0 0 0 0];

internalField   nonuniform List<vector> 
2625
(
(1.21366 0.0364692 -9.98783e-22)
(1.20982 0.0370908 1.1454e-21)
(1.20591 0.0377171 -1.00995e-21)
(1.20192 0.0383517 9.17459e-22)
(1.19786 0.0389978 -6.91374e-22)
(1.19374 0.0396579 -6.95222e-23)
(1.18956 0.0403345 -3.52496e-23)
(1.18531 0.0410293 -2.06858e-22)
(1.18102 0.0417434 8.18625e-22)
(1.17668 0.0424774 1.707e-21)
(1.17229 0.0432317 -2.49669e-21)
(1.16786 0.0440058 1.42717e-21)
(1.1634 0.0447986 -1.55339e-21)
(1.18653 0.0318091 2.59996e-23)
(1.19073 0.0313307 1.84569e-23)
(1.19487 0.0308741 3.93403e-23)
(1.19894 0.0304369 1.37776e-22)
(1.20293 0.0300162 -3.06895e-22)
(1.20685 0.0296089 -2.2841e-21)
(1.21067 0.0292115 -4.10758e-21)
(1.21441 0.02882 -1.32405e-21)
(1.21805 0.0284304 2.4822e-21)
(1.2216 0.0280384 -6.40179e-21)
(1.22506 0.0276396 -3.15472e-21)
(1.22841 0.0272295 -4.55275e-21)
(1.23166 0.0268034 8.78125e-21)
(1.23481 0.0263568 6.24541e-21)
(1.23786 0.0258852 2.72577e-20)
(1.2408 0.0253842 9.63788e-21)
(1.18638 0.0313922 -2.01238e-23)
(1.19059 0.030922 -1.48453e-23)
(1.19473 0.0304727 -1.08257e-22)
(1.19879 0.0300421 2.45429e-23)
(1.20278 0.0296274 5.14444e-22)
(1.20669 0.0292257 -4.68003e-22)
(1.21052 0.0288335 1.62974e-21)
(1.21425 0.028447 -3.14463e-21)
(1.21789 0.0280623 -2.01201e-21)
(1.22143 0.0276752 5.59478e-21)
(1.22488 0.0272814 6.6856e-22)
(1.22822 0.0268765 -4.07903e-21)
(1.23147 0.026456 -4.95643e-21)
(1.23461 0.0260155 1.04761e-20)
(1.23764 0.0255507 -1.05202e-20)
(1.24058 0.0250572 -1.2928e-20)
(1.18623 0.0309719 3.57625e-23)
(1.19044 0.0305099 -3.35773e-24)
(1.19458 0.0300681 6.06429e-23)
(1.19864 0.0296445 -2.89815e-23)
(1.20263 0.0292363 2.72965e-22)
(1.20654 0.0288407 9.18105e-22)
(1.21036 0.0284542 2.69272e-22)
(1.21409 0.0280733 2.13834e-21)
(1.21773 0.027694 -2.64104e-21)
(1.22126 0.0273124 -7.85609e-21)
(1.2247 0.0269243 -2.7781e-21)
(1.22804 0.0265253 -5.22248e-21)
(1.23128 0.0261111 1.17828e-20)
(1.23441 0.0256775 7.48841e-22)
(1.23743 0.0252201 -1.28997e-20)
(1.24036 0.0247349 1.13632e-20)
(1.24317 0.0242176 5.63707e-21)
(1.18608 0.0305481 5.00128e-24)
(1.19029 0.0300945 3.78287e-23)
(1.19443 0.0296607 -4.27132e-23)
(1.19849 0.0292443 5.73804e-23)
(1.20248 0.0288429 -8.43656e-22)
(1.20638 0.0284537 2.56382e-22)
(1.2102 0.0280733 -4.25048e-22)
(1.21393 0.0276983 -1.24867e-21)
(1.21756 0.0273248 7.00237e-21)
(1.22109 0.0269491 5.56664e-21)
(1.22453 0.0265669 2.89192e-21)
(1.22786 0.0261741 9.70837e-21)
(1.23109 0.0257665 -2.16854e-21)
(1.23421 0.02534 -1.14572e-20)
(1.23723 0.0248903 2.07782e-20)
(1.24014 0.0244135 -6.28084e-21)
(1.24294 0.0239055 -3.1791e-21)
(1.18593 0.0301207 -4.1599e-23)
(1.19014 0.0296757 -2.90658e-23)
(1.19427 0.0292498 -2.43664e-23)
(1.19834 0.0288408 -3.01276e-22)
(1.20233 0.0284464 2.36082e-22)
(1.20623 0.0280636 -3.85483e-22)
(1.21004 0.0276894 1.68359e-22)
(1.21377 0.0273203 9.9791e-23)
(1.21739 0.0269528 -5.67558e-21)
(1.22092 0.0265829 -2.59167e-21)
(1.22435 0.0262067 -1.24454e-21)
(1.22767 0.0258201 3.17225e-21)
(1.23089 0.0254191 6.4189e-22)
(1.23401 0.0249996 2.26914e-21)
(1.23702 0.0245576 -8.02663e-21)
(1.23992 0.0240892 1.10999e-20)
(1.24271 0.0235903 2.60599e-21)
(1.2454 0.0230574 7.37644e-21)
(1.18578 0.0296897 1.39181e-23)
(1.18998 0.0292534 -3.30043e-23)
(1.19412 0.0288355 -2.27905e-23)
(1.19818 0.0284339 4.64227e-23)
(1.20217 0.0280464 9.93053e-22)
(1.20607 0.0276702 -9.97921e-22)
(1.20988 0.0273022 1.65235e-21)
(1.2136 0.0269391 1.77353e-21)
(1.21723 0.0265775 1.85351e-21)
(1.22075 0.0262135 -2.77997e-21)
(1.22417 0.0258433 -2.13723e-21)
(1.22749 0.025463 -4.02002e-21)
(1.2307 0.0250686 -5.93482e-21)
(1.23381 0.0246562 8.67786e-21)
(1.23681 0.0242217 2.5208e-21)
(1.2397 0.0237616 -8.32342e-21)
(1.24248 0.0232718 -1.12232e-21)
(1.24516 0.022749 9.42537e-21)
(1.18562 0.0292551 -3.20159e-23)
(1.18983 0.0288275 3.70717e-23)
(1.19396 0.0284176 7.22101e-24)
(1.19803 0.0280235 1.53244e-23)
(1.20201 0.027643 -5.46622e-22)
(1.20591 0.0272734 1.43247e-21)
(1.20972 0.0269117 -2.4133e-21)
(1.21344 0.0265548 -4.35084e-22)
(1.21706 0.0261991 3.48253e-21)
(1.22058 0.0258411 4.33284e-21)
(1.22399 0.025477 3.93873e-21)
(1.22731 0.025103 3.78974e-22)
(1.23051 0.0247152 7.48675e-22)
(1.23361 0.0243098 -1.03106e-20)
(1.2366 0.023883 -9.28638e-21)
(1.23948 0.0234312 -5.10362e-22)
(1.24226 0.0229504 2.09529e-20)
(1.24492 0.0224376 -1.26424e-20)
(1.24748 0.0218894 -1.0748e-20)
(1.18547 0.0288168 5.34818e-23)
(1.18967 0.028398 -1.09937e-23)
(1.19381 0.0279962 4.59608e-23)
(1.19787 0.0276097 2.44814e-22)
(1.20185 0.0272363 5.51255e-22)
(1.20575 0.0268734 -3.24451e-22)
(1.20956 0.0265181 -6.0785e-22)
(1.21327 0.0261673 -2.63218e-21)
(1.21689 0.0258177 -1.12962e-21)
(1.2204 0.0254657 8.28334e-22)
(1.22381 0.0251078 -8.98658e-22)
(1.22712 0.0247401 2.05527e-21)
(1.23032 0.024359 3.69821e-21)
(1.23341 0.0239607 -6.85907e-21)
(1.23639 0.0235415 -7.76067e-21)
(1.23926 0.0230979 -2.12567e-21)
(1.24203 0.0226262 -1.8513e-20)
(1.24468 0.0221233 -1.41711e-21)
(1.24723 0.021586 -2.66592e-21)
(1.18531 0.0283749 -5.58472e-23)
(1.18952 0.0279648 -1.35115e-23)
(1.19365 0.0275712 7.29691e-23)
(1.19771 0.0271924 1.08278e-23)
(1.2017 0.0268261 -6.3613e-22)
(1.20559 0.0264699 -1.07851e-22)
(1.2094 0.0261211 -2.50266e-22)
(1.21311 0.0257766 4.42097e-21)
(1.21672 0.0254331 -3.17025e-22)
(1.22023 0.0250872 -5.02159e-22)
(1.22363 0.0247355 -2.58124e-21)
(1.22693 0.0243742 -5.78713e-21)
(1.23013 0.0239998 -4.16894e-21)
(1.23321 0.0236086 8.40105e-21)
(1.23618 0.0231971 9.91697e-21)
(1.23905 0.0227617 -7.57719e-21)
(1.2418 0.0222991 -1.39382e-21)
(1.24445 0.021806 1.51029e-20)
(1.24698 0.0212795 -2.28764e-21)
(1.18515 0.0279293 5.39116e-23)
(1.18936 0.027528 1.37097e-23)
(1.19349 0.0271427 -1.29179e-23)
(1.19755 0.0267715 -1.76765e-22)
(1.20154 0.0264124 -3.2921e-23)
(1.20543 0.0260631 9.17508e-22)
(1.20923 0.0257208 1.01489e-21)
(1.21294 0.0253826 -8.16732e-22)
(1.21655 0.0250453 -3.30143e-21)
(1.22005 0.0247056 2.77908e-21)
(1.22345 0.0243601 4.85817e-21)
(1.22675 0.0240053 1.64252e-21)
(1.22993 0.0236376 8.74064e-22)
(1.23301 0.0232535 -9.15584e-22)
(1.23598 0.0228496 -5.43987e-21)
(1.23883 0.0224226 6.55036e-21)
(1.24158 0.0219689 9.37226e-21)
(1.24421 0.0214856 -2.83462e-20)
(1.24674 0.0209699 -1.33005e-20)
(1.24915 0.0204191 -1.27763e-20)
(1.185 0.02748 -1.38219e-23)
(1.1892 0.0270876 2.30095e-23)
(1.19334 0.0267105 2.42382e-24)
(1.19739 0.026347 3.87313e-22)
(1.20137 0.0259952 -2.64199e-22)
(1.20527 0.0256528 -1.02106e-22)
(1.20907 0.0253171 3.51176e-22)
(1.21277 0.0249852 -1.56417e-21)
(1.21638 0.0246542 1.87019e-21)
(1.21988 0.0243207 -4.9557e-21)
(1.22327 0.0239816 -7.04071e-22)
(1.22656 0.0236332 3.2474e-22)
(1.22974 0.0232723 -7.17383e-22)
(1.23281 0.0228955 3.38162e-21)
(1.23577 0.0224992 3.59466e-21)
(1.23862 0.0220804 1.69839e-20)
(1.24135 0.0216357 1.29505e-20)
(1.24398 0.0211622 1.34851e-20)
(1.24649 0.0206571 1.25596e-20)
(1.24889 0.020118 1.02484e-20)
(1.18484 0.0270269 -5.48908e-24)
(1.18904 0.0266434 -1.19409e-23)
(1.19318 0.0262746 -1.55607e-23)
(1.19723 0.025919 5.14476e-23)
(1.20121 0.0255745 1.44826e-22)
(1.2051 0.025239 -7.75504e-22)
(1.2089 0.0249099 -1.26746e-22)
(1.2126 0.0245845 -1.65057e-21)
(1.2162 0.0242598 -1.07864e-21)
(1.2197 0.0239326 2.89495e-21)
(1.22309 0.0235998 -3.38958e-21)
(1.22638 0.023258 3.12412e-21)
(1.22955 0.022904 8.84185e-22)
(1.23261 0.0225343 -5.90661e-21)
(1.23556 0.0221457 -9.95443e-21)
(1.2384 0.0217351 -4.2336e-21)
(1.24113 0.0212994 -1.36874e-20)
(1.24374 0.0208356 1.17118e-20)
(1.24625 0.0203411 -1.03604e-20)
(1.24864 0.0198136 7.9648e-21)
(1.25092 0.0192506 1.3827e-20)
(1.18468 0.0265701 -2.72136e-23)
(1.18888 0.0261955 2.16898e-25)
(1.19302 0.0258351 -7.62978e-23)
(1.19707 0.0254872 -3.71501e-22)
(1.20105 0.0251501 5.99749e-22)
(1.20494 0.0248216 -3.89306e-22)
(1.20873 0.0244992 3.60807e-22)
(1.21243 0.0241803 1.11791e-21)
(1.21603 0.023862 1.42224e-21)
(1.21952 0.0235412 -4.84071e-21)
(1.22291 0.0232148 4.30011e-21)
(1.22619 0.0228796 -6.49423e-21)
(1.22936 0.0225324 6.51552e-21)
(1.23241 0.0221699 -4.11622e-21)
(1.23535 0.021789 1.13582e-20)
(1.23819 0.0213867 -1.70236e-20)
(1.2409 0.0209599 -1.86008e-21)
(1.24351 0.0205058 -1.72742e-20)
(1.246 0.0200219 1.21525e-20)
(1.24839 0.0195058 1.15773e-20)
(1.25066 0.0189554 -7.60868e-21)
(1.18452 0.0261095 5.9605e-23)
(1.18872 0.0257438 3.20604e-23)
(1.19285 0.0253918 4.55438e-23)
(1.19691 0.0250518 3.45908e-22)
(1.20089 0.0247221 -3.51279e-22)
(1.20477 0.0244006 7.43037e-22)
(1.20857 0.024085 2.54014e-22)
(1.21226 0.0237726 4.60062e-22)
(1.21586 0.0234607 -1.01223e-22)
(1.21935 0.0231464 1.27551e-21)
(1.22273 0.0228264 -8.44314e-22)
(1.226 0.0224979 4.74003e-21)
(1.22916 0.0221575 -7.41528e-21)
(1.23221 0.0218023 6.94736e-21)
(1.23515 0.0214291 1.22706e-20)
(1.23797 0.0210351 -4.05887e-21)
(1.24068 0.0206171 7.01149e-21)
(1.24328 0.0201727 -2.71323e-21)
(1.24576 0.0196993 2.67289e-21)
(1.24814 0.0191947 -1.49234e-20)
(1.2504 0.0186567 -1.50269e-20)
(1.25255 0.0180834 -2.81379e-21)
(1.18436 0.0256451 -7.76222e-23)
(1.18856 0.0252884 -3.81431e-23)
(1.19269 0.0249447 -1.59192e-23)
(1.19675 0.0246126 -2.36973e-22)
(1.20072 0.0242904 -2.04576e-22)
(1.20461 0.023976 -8.85316e-22)
(1.2084 0.0236672 2.66088e-22)
(1.21209 0.0233614 -2.44002e-21)
(1.21568 0.023056 1.73126e-21)
(1.21917 0.0227481 4.02562e-21)
(1.22255 0.0224347 -1.34378e-21)
(1.22581 0.0221128 -2.46503e-21)
(1.22897 0.0217794 2.96236e-21)
(1.23201 0.0214314 4.92406e-21)
(1.23494 0.021066 -6.63908e-21)
(1.23776 0.0206802 1.0858e-20)
(1.24046 0.0202711 -5.43694e-21)
(1.24305 0.0198363 -6.54876e-22)
(1.24552 0.0193733 3.94386e-21)
(1.24789 0.0188801 8.74412e-21)
(1.25014 0.0183544 8.30447e-21)
(1.25228 0.0177945 9.76585e-21)
(1.25431 0.0171988 -8.14368e-21)
(1.1842 0.0251769 6.41474e-24)
(1.1884 0.0248291 -1.32702e-23)
(1.19253 0.0244938 1.81436e-23)
(1.19658 0.0241697 -1.58039e-22)
(1.20056 0.0238549 2.98669e-22)
(1.20444 0.0235477 8.22863e-23)
(1.20823 0.0232457 5.47964e-23)
(1.21192 0.0229466 -3.59823e-22)
(1.21551 0.0226477 -2.28584e-21)
(1.21899 0.0223463 -3.77055e-21)
(1.22237 0.0220395 -2.41178e-21)
(1.22563 0.0217243 -1.53649e-22)
(1.22878 0.0213979 -4.93688e-21)
(1.23182 0.0210572 -3.43163e-21)
(1.23474 0.0206995 -4.89542e-21)
(1.23755 0.0203219 8.94126e-21)
(1.24024 0.0199218 -1.0189e-20)
(1.24282 0.0194965 2.39952e-20)
(1.24529 0.019044 -7.84154e-21)
(1.24764 0.0185619 -1.31648e-20)
(1.24988 0.0180485 7.30157e-21)
(1.25202 0.0175019 -8.66992e-21)
(1.25404 0.0169206 1.48329e-20)
(1.18404 0.0247049 -4.76027e-24)
(1.18824 0.024366 2.09948e-23)
(1.19237 0.0240391 3.94162e-23)
(1.19642 0.0237229 -9.32153e-23)
(1.20039 0.0234157 1.13709e-22)
(1.20427 0.0231156 8.21882e-22)
(1.20806 0.0228206 -1.47542e-21)
(1.21175 0.0225281 1.54453e-21)
(1.21533 0.0222358 -5.05429e-22)
(1.21881 0.021941 3.89821e-21)
(1.22218 0.0216407 -2.68e-21)
(1.22544 0.0213323 4.27106e-21)
(1.22859 0.0210129 1.0327e-20)
(1.23162 0.0206795 -1.45636e-21)
(1.23453 0.0203296 -2.49372e-21)
(1.23733 0.0199603 -6.19357e-21)
(1.24002 0.019569 1.90624e-20)
(1.24259 0.0191533 -4.85027e-21)
(1.24505 0.0187111 9.34596e-21)
(1.2474 0.0182403 2.08503e-20)
(1.24963 0.017739 -1.6109e-20)
(1.25175 0.0172056 -1.40304e-20)
(1.25376 0.0166385 -2.12381e-21)
(1.25567 0.0160365 -1.93204e-20)
(1.18388 0.024229 6.89216e-23)
(1.18808 0.0238991 -6.65999e-24)
(1.19221 0.0235806 -4.58951e-23)
(1.19626 0.0232723 1.05468e-22)
(1.20023 0.0229727 -1.5149e-22)
(1.20411 0.0226798 -1.07161e-21)
(1.20789 0.0223916 5.569e-22)
(1.21158 0.022106 -7.77252e-22)
(1.21516 0.0218203 1.312e-21)
(1.21863 0.021532 -3.6368e-21)
(1.222 0.0212384 2.60166e-21)
(1.22525 0.0209368 -4.40676e-21)
(1.22839 0.0206244 -3.00803e-21)
(1.23142 0.0202984 -5.5737e-21)
(1.23433 0.0199562 1.07556e-20)
(1.23712 0.0195952 -4.54947e-21)
(1.2398 0.0192127 -1.39268e-20)
(1.24237 0.0188066 -1.22109e-20)
(1.24482 0.0183747 1.31257e-20)
(1.24715 0.017915 -1.09071e-20)
(1.24938 0.0174257 3.03402e-20)
(1.25149 0.0169054 1.03649e-21)
(1.25349 0.0163524 -1.85108e-20)
(1.25538 0.0157657 7.03647e-21)
(1.18372 0.0237492 1.15418e-23)
(1.18792 0.0234282 1.00006e-23)
(1.19204 0.0231182 -1.54897e-23)
(1.19609 0.0228178 -1.59719e-22)
(1.20006 0.0225257 -5.23266e-23)
(1.20394 0.0222401 1.27187e-21)
(1.20772 0.0219589 1.44389e-21)
(1.2114 0.02168 2.31459e-21)
(1.21498 0.021401 1.73233e-21)
(1.21846 0.0211193 1.53071e-21)
(1.22182 0.0208325 -2.7333e-21)
(1.22507 0.0205377 4.19004e-21)
(1.2282 0.0202323 -7.03261e-21)
(1.23122 0.0199137 1.12598e-21)
(1.23413 0.0195793 -2.03975e-21)
(1.23691 0.0192265 1.28556e-21)
(1.23959 0.0188529 -2.20836e-21)
(1.24214 0.0184563 1.53553e-21)
(1.24458 0.0180347 -2.64278e-20)
(1.24691 0.017586 -7.82785e-22)
(1.24913 0.0171087 -3.11363e-20)
(1.25123 0.0166013 2.14051e-20)
(1.25322 0.0160623 1.18466e-20)
(1.25511 0.0154907 6.5733e-21)
(1.25688 0.0148853 -1.55933e-20)
(1.18357 0.0232655 1.34517e-23)
(1.18776 0.0229534 1.34397e-23)
(1.19188 0.0226518 3.35828e-23)
(1.19593 0.0223594 3.07726e-22)
(1.19989 0.0220749 -6.03195e-22)
(1.20377 0.0217965 -1.23305e-21)
(1.20755 0.0215224 -1.35526e-21)
(1.21123 0.0212503 -7.17707e-22)
(1.21481 0.0209779 -8.75955e-22)
(1.21828 0.0207029 -1.09774e-21)
(1.22164 0.0204228 -8.70979e-23)
(1.22488 0.0201349 8.58388e-22)
(1.22801 0.0198366 9.84855e-21)
(1.23103 0.0195254 3.63488e-21)
(1.23392 0.0191987 -8.12874e-21)
(1.23671 0.0188543 -6.43741e-21)
(1.23937 0.0184896 1.3883e-20)
(1.24192 0.0181024 -6.57069e-21)
(1.24435 0.017691 6.48074e-22)
(1.24667 0.0172533 7.53471e-21)
(1.24888 0.0167879 2.94061e-20)
(1.25097 0.0162933 -1.40971e-21)
(1.25296 0.0157682 -1.68215e-20)
(1.25483 0.0152114 -1.80499e-20)
(1.2566 0.0146221 3.79906e-20)
(1.18341 0.0227778 -9.62125e-23)
(1.1876 0.0224747 1.93517e-23)
(1.19172 0.0221815 -4.23696e-23)
(1.19577 0.0218971 1.51367e-23)
(1.19973 0.0216202 1.133e-21)
(1.2036 0.021349 5.57447e-22)
(1.20738 0.0210819 -3.62808e-22)
(1.21106 0.0208166 9.01463e-22)
(1.21463 0.020551 3.25346e-22)
(1.2181 0.0202827 3.64395e-21)
(1.22146 0.0200093 4.01134e-21)
(1.2247 0.0197283 -4.80148e-21)
(1.22782 0.0194371 -2.36669e-21)
(1.23083 0.0191334 1.64731e-22)
(1.23372 0.0188146 5.49883e-21)
(1.2365 0.0184784 8.51065e-21)
(1.23916 0.0181225 -1.01782e-20)
(1.2417 0.0177448 1.13604e-20)
(1.24412 0.0173436 1.08882e-20)
(1.24643 0.0169169 -1.10426e-20)
(1.24863 0.0164633 -3.31732e-20)
(1.25072 0.0159814 6.78269e-21)
(1.25269 0.01547 3.06068e-20)
(1.25456 0.0149279 -4.43934e-21)
(1.25632 0.0143544 -4.19231e-21)
(1.25797 0.0137486 -5.27576e-21)
(1.18325 0.0222863 3.85522e-23)
(1.18744 0.0219919 -1.94883e-23)
(1.19156 0.0217071 -4.42107e-23)
(1.1956 0.0214307 -1.59511e-22)
(1.19956 0.0211614 -3.14993e-22)
(1.20344 0.0208976 1.63588e-22)
(1.20721 0.0206375 1.10058e-21)
(1.21089 0.020379 -9.22165e-22)
(1.21446 0.0201202 -4.02839e-21)
(1.21792 0.0198587 -5.2451e-21)
(1.22127 0.019592 4.02986e-21)
(1.22451 0.0193179 -2.44334e-21)
(1.22763 0.0190339 -4.65204e-21)
(1.23064 0.0187376 1.9523e-21)
(1.23352 0.0184266 -1.57887e-21)
(1.23629 0.0180987 -2.93798e-21)
(1.23894 0.0177517 -3.01373e-22)
(1.24148 0.0173835 -2.11375e-21)
(1.2439 0.0169924 -1.10617e-20)
(1.2462 0.0165766 9.37597e-21)
(1.24839 0.0161347 1.27146e-20)
(1.25047 0.0156654 -2.86188e-20)
(1.25243 0.0151676 -9.20521e-21)
(1.25429 0.0146401 3.55538e-21)
(1.25604 0.0140822 -1.96724e-20)
(1.25768 0.0134932 3.23367e-20)
(1.25922 0.0128723 4.57011e-22)
(1.18309 0.0217907 -9.73836e-24)
(1.18728 0.0215052 -1.92998e-23)
(1.1914 0.0212288 6.09671e-23)
(1.19544 0.0209604 6.26171e-23)
(1.1994 0.0206986 -2.80659e-22)
(1.20327 0.0204421 7.69209e-22)
(1.20704 0.020189 -1.53177e-21)
(1.21072 0.0199375 -1.11844e-21)
(1.21429 0.0196854 1.25209e-21)
(1.21775 0.0194307 4.85339e-21)
(1.22109 0.0191709 -9.94776e-22)
(1.22433 0.0189037 3.74387e-21)
(1.22744 0.0186269 3.54887e-21)
(1.23044 0.018338 1.86493e-21)
(1.23333 0.0180349 -3.20976e-21)
(1.23609 0.0177153 -6.73101e-22)
(1.23873 0.0173771 5.40895e-21)
(1.24126 0.0170183 -1.28328e-20)
(1.24367 0.0166373 4.25192e-21)
(1.24597 0.0162324 -1.23379e-20)
(1.24815 0.0158022 5.42701e-21)
(1.25022 0.0153454 -3.71461e-21)
(1.25218 0.014861 -1.08831e-20)
(1.25403 0.014348 -7.45186e-21)
(1.25577 0.0138056 1.62088e-20)
(1.2574 0.0132331 -1.11639e-20)
(1.25893 0.0126298 -4.59936e-21)
(1.18294 0.0212911 8.33235e-24)
(1.18712 0.0210145 -4.86822e-25)
(1.19124 0.0207464 1.12671e-23)
(1.19528 0.0204859 5.80422e-23)
(1.19924 0.0202318 5.01639e-22)
(1.2031 0.0199825 -1.03356e-21)
(1.20688 0.0197365 1.31097e-21)
(1.21055 0.0194919 1.26257e-21)
(1.21411 0.0192467 1.81145e-21)
(1.21757 0.0189987 -4.08792e-21)
(1.22091 0.0187457 -2.24919e-21)
(1.22414 0.0184855 -4.67428e-21)
(1.22726 0.0182159 -3.09e-21)
(1.23025 0.0179345 -4.25854e-21)
(1.23313 0.0176392 -3.05943e-21)
(1.23589 0.0173279 3.54134e-21)
(1.23852 0.0169986 1.2571e-21)
(1.24104 0.0166493 8.78715e-21)
(1.24345 0.0162783 3.49936e-21)
(1.24574 0.0158842 6.89102e-21)
(1.24791 0.0154656 -7.56766e-21)
(1.24997 0.0150213 1.66769e-20)
(1.25192 0.0145503 4.17473e-21)
(1.25376 0.0140516 1.43597e-20)
(1.2555 0.0135244 -1.23177e-20)
(1.25712 0.0129682 -1.19205e-20)
(1.25865 0.0123823 2.32031e-20)
(1.26006 0.0117661 -2.1415e-21)
(1.18278 0.0207876 -2.25618e-24)
(1.18696 0.0205196 -7.49231e-24)
(1.19108 0.0202599 -1.42887e-23)
(1.19512 0.0200073 6.54672e-23)
(1.19907 0.0197608 -7.95488e-23)
(1.20294 0.0195189 8.88917e-23)
(1.20671 0.0192799 -1.31157e-21)
(1.21038 0.0190422 -1.08162e-21)
(1.21394 0.0188038 -9.75606e-22)
(1.21739 0.0185626 4.87136e-22)
(1.22074 0.0183165 -4.31697e-21)
(1.22396 0.0180634 1.02777e-20)
(1.22707 0.0178009 2.0656e-21)
(1.23006 0.0175271 -3.28123e-21)
(1.23293 0.0172397 6.29529e-21)
(1.23568 0.0169367 -1.52908e-22)
(1.23832 0.0166161 -6.40915e-21)
(1.24083 0.0162762 -3.66005e-21)
(1.24323 0.0159154 -1.04682e-20)
(1.24551 0.0155321 -7.89299e-21)
(1.24768 0.015125 1.78808e-20)
(1.24973 0.0146931 2.82008e-21)
(1.25167 0.0142353 2.48562e-20)
(1.2535 0.0137507 -1.63137e-20)
(1.25523 0.0132387 -1.30598e-20)
(1.25685 0.0126986 1.46405e-20)
(1.25836 0.0121299 -9.88597e-21)
(1.25978 0.011532 -5.04164e-21)
(1.26109 0.0109043 2.66699e-20)
(1.18263 0.0202799 1.13604e-23)
(1.18681 0.0200207 1.11039e-23)
(1.19092 0.0197693 -3.16134e-23)
(1.19496 0.0195246 -9.89476e-23)
(1.19891 0.0192857 -6.86032e-23)
(1.20277 0.019051 -1.65832e-22)
(1.20654 0.0188192 1.41468e-21)
(1.21021 0.0185884 2.17726e-21)
(1.21377 0.0183568 1.494e-21)
(1.21722 0.0181225 -2.56353e-21)
(1.22056 0.0178833 1.4368e-21)
(1.22378 0.0176371 -8.62734e-21)
(1.22689 0.0173819 -4.74879e-21)
(1.22987 0.0171156 5.22105e-21)
(1.23274 0.016836 -1.88748e-21)
(1.23548 0.0165414 -2.31508e-21)
(1.23811 0.0162297 -1.72848e-21)
(1.24062 0.0158992 1.48539e-21)
(1.24301 0.0155484 1.46007e-20)
(1.24528 0.0151758 -1.86298e-20)
(1.24744 0.0147802 -1.3283e-20)
(1.24949 0.0143606 1.66444e-20)
(1.25142 0.013916 -2.0764e-20)
(1.25325 0.0134455 2.14274e-20)
(1.25497 0.0129485 1.23534e-20)
(1.25658 0.0124243 5.18595e-21)
(1.25809 0.0118725 1.40889e-20)
(1.25949 0.0112926 1.33544e-21)
(1.26079 0.0106839 -2.50641e-20)
(1.18247 0.0197682 6.18239e-24)
(1.18665 0.0195177 -1.34855e-23)
(1.19076 0.0192745 1.79262e-23)
(1.1948 0.0190377 -3.53444e-25)
(1.19875 0.0188063 -5.02187e-22)
(1.20261 0.018579 -4.48185e-22)
(1.20637 0.0183542 -1.15036e-21)
(1.21004 0.0181304 -4.6873e-22)
(1.2136 0.0179056 3.51966e-22)
(1.21705 0.0176781 5.40439e-21)
(1.22038 0.0174458 -1.30464e-21)
(1.2236 0.0172067 5.99227e-22)
(1.2267 0.0169588 2.66634e-21)
(1.22968 0.0167 -1.43819e-21)
(1.23255 0.0164283 -1.29857e-21)
(1.23529 0.016142 1.8121e-21)
(1.23791 0.0158391 -2.39308e-21)
(1.24041 0.015518 6.40517e-21)
(1.2428 0.0151772 -3.16083e-21)
(1.24506 0.0148154 2.37932e-20)
(1.24721 0.0144313 -4.60896e-21)
(1.24925 0.0140239 -6.9531e-22)
(1.25118 0.0135923 6.36309e-21)
(1.253 0.0131357 9.55624e-21)
(1.25471 0.0126536 -1.87944e-21)
(1.25631 0.0121452 -2.30298e-20)
(1.25781 0.0116102 -5.71835e-22)
(1.25921 0.011048 1.41624e-20)
(1.26051 0.0104581 2.27002e-20)
(1.26171 0.00983986 1.28402e-20)
(1.18232 0.0192524 1.66064e-23)
(1.1865 0.0190105 -3.2255e-23)
(1.1906 0.0187755 -3.11796e-23)
(1.19464 0.0185466 -8.37177e-23)
(1.19859 0.0183228 4.54156e-22)
(1.20245 0.0181027 -1.65448e-22)
(1.20621 0.017885 6.50655e-22)
(1.20987 0.0176681 -1.35767e-21)
(1.21343 0.0174502 -7.36432e-22)
(1.21687 0.0172296 -1.47697e-21)
(1.22021 0.0170042 5.79087e-21)
(1.22342 0.0167721 6.17113e-21)
(1.22652 0.0165315 -1.36341e-22)
(1.2295 0.0162802 -2.60099e-21)
(1.23235 0.0160165 3.2807e-21)
(1.23509 0.0157385 -5.93358e-21)
(1.23771 0.0154444 7.62938e-21)
(1.2402 0.0151327 3.03513e-21)
(1.24258 0.0148019 -1.11948e-21)
(1.24484 0.0144507 -8.52681e-21)
(1.24699 0.014078 4.7276e-21)
(1.24902 0.0136828 -1.82771e-20)
(1.25094 0.0132642 5.12352e-21)
(1.25275 0.0128215 -6.90795e-21)
(1.25445 0.0123541 1.6689e-20)
(1.25605 0.0118614 1.11876e-20)
(1.25754 0.011343 -1.99354e-20)
(1.25893 0.0107983 -3.30718e-20)
(1.26023 0.010227 -1.42113e-20)
(1.26142 0.00962823 -6.3525e-21)
(1.26252 0.00900137 2.2756e-20)
(1.18217 0.0187325 -1.49235e-24)
(1.18634 0.0184991 2.95317e-23)
(1.19045 0.0182723 2.84226e-23)
(1.19448 0.0180512 4.73896e-23)
(1.19843 0.0178349 -3.92819e-22)
(1.20228 0.0176221 1.00768e-21)
(1.20605 0.0174115 -9.85058e-24)
(1.20971 0.0172015 4.16408e-22)
(1.21326 0.0169905 3.11602e-22)
(1.2167 0.0167767 3.44844e-22)
(1.22003 0.0165582 -5.66291e-21)
(1.22324 0.0163333 9.9143e-22)
(1.22634 0.0160999 5.77026e-21)
(1.22931 0.0158562 2.50806e-22)
(1.23217 0.0156004 3.02093e-21)
(1.2349 0.0153307 4.88985e-21)
(1.23751 0.0150455 3.03256e-21)
(1.24 0.0147432 -2.04646e-21)
(1.24237 0.0144223 8.17178e-22)
(1.24463 0.0140818 3.1756e-21)
(1.24677 0.0137205 -8.09235e-22)
(1.24879 0.0133374 -1.43307e-20)
(1.2507 0.0129317 -1.63275e-20)
(1.25251 0.0125027 3.98969e-21)
(1.2542 0.0120499 -2.69843e-20)
(1.25579 0.0115727 -4.85158e-22)
(1.25728 0.0110707 7.93728e-21)
(1.25866 0.0105435 2.48769e-20)
(1.25995 0.00999042 -1.41109e-20)
(1.26114 0.00941098 4.62083e-21)
(1.26223 0.00880441 -1.43103e-20)
(1.26323 0.0081696 -5.48572e-21)
(1.18202 0.0182084 -1.6746e-23)
(1.18619 0.0179835 5.6882e-23)
(1.1903 0.0177648 5.59838e-24)
(1.19432 0.0175515 -9.2783e-23)
(1.19827 0.0173427 1.89286e-22)
(1.20212 0.0171372 -2.19147e-22)
(1.20588 0.0169336 2.09441e-22)
(1.20954 0.0167306 6.52063e-22)
(1.21309 0.0165264 -8.13032e-22)
(1.21653 0.0163195 -5.75194e-22)
(1.21986 0.016108 5.99283e-21)
(1.22307 0.0158901 -6.94834e-21)
(1.22616 0.015664 -7.58524e-21)
(1.22913 0.0154279 1.12394e-21)
(1.23198 0.01518 -8.53539e-21)
(1.23471 0.0149187 -6.36936e-21)
(1.23731 0.0146423 -3.70121e-21)
(1.2398 0.0143493 -2.78358e-21)
(1.24217 0.0140385 -1.52739e-21)
(1.24442 0.0137086 5.47291e-21)
(1.24655 0.0133585 -1.80688e-21)
(1.24857 0.0129875 1.64657e-20)
(1.25047 0.0125947 8.83252e-21)
(1.25227 0.0121794 -8.55123e-21)
(1.25396 0.0117411 2.19368e-20)
(1.25554 0.0112793 -6.06812e-22)
(1.25702 0.0107936 -2.6015e-20)
(1.2584 0.0102835 -1.70336e-21)
(1.25968 0.00974854 1.47897e-20)
(1.26086 0.00918816 -2.08125e-20)
(1.26195 0.00860165 6.68907e-21)
(1.26294 0.00798789 -1.13901e-20)
(1.18188 0.0176802 -3.8513e-24)
(1.18604 0.0174637 -5.93081e-24)
(1.19014 0.017253 -3.44358e-24)
(1.19417 0.0170475 7.07205e-23)
(1.19811 0.0168462 -3.5956e-22)
(1.20196 0.0166479 7.92083e-22)
(1.20572 0.0164513 -5.59525e-23)
(1.20938 0.0162552 -8.18676e-22)
(1.21293 0.0160579 -5.81267e-22)
(1.21637 0.0158578 -2.88991e-22)
(1.21969 0.0156533 -3.3234e-21)
(1.2229 0.0154425 6.51281e-21)
(1.22598 0.0152237 8.29013e-22)
(1.22895 0.0149952 2.85921e-21)
(1.2318 0.0147552 8.49633e-21)
(1.23452 0.0145022 8.5586e-21)
(1.23712 0.0142347 6.59118e-22)
(1.2396 0.0139511 6.98592e-23)
(1.24196 0.0136502 -9.81644e-23)
(1.24421 0.0133309 4.92915e-22)
(1.24633 0.0129922 -5.70791e-22)
(1.24834 0.0126331 -9.44614e-21)
(1.25024 0.0122531 -4.06568e-21)
(1.25203 0.0118514 5.5471e-21)
(1.25371 0.0114275 -7.07367e-21)
(1.25529 0.010981 -2.24092e-20)
(1.25676 0.0105114 3.10271e-20)
(1.25813 0.0100183 1.94622e-21)
(1.25941 0.00950133 -1.71036e-20)
(1.26059 0.00895983 1.08667e-21)
(1.26167 0.00839314 2.69636e-21)
(1.26266 0.00780021 2.55295e-20)
(1.26356 0.00717998 4.39757e-21)
(1.18173 0.0171477 2.67488e-23)
(1.1859 0.0169395 -5.70723e-23)
(1.18999 0.0167369 -3.52435e-24)
(1.19402 0.0165391 7.89951e-23)
(1.19796 0.0163452 4.80618e-22)
(1.20181 0.0161541 -1.29382e-21)
(1.20556 0.0159646 -3.50801e-22)
(1.20922 0.0157754 1.53643e-21)
(1.21276 0.0155849 1.95208e-21)
(1.2162 0.0153917 9.68295e-22)
(1.21952 0.0151941 -1.26312e-21)
(1.22273 0.0149904 -3.61591e-21)
(1.22581 0.0147789 9.9818e-22)
(1.22877 0.014558 -1.16199e-21)
(1.23161 0.014326 -4.27021e-21)
(1.23433 0.0140814 -7.78568e-21)
(1.23693 0.0138226 -2.02983e-21)
(1.23941 0.0135484 2.40412e-22)
(1.24176 0.0132575 6.31538e-21)
(1.244 0.0129488 -8.24435e-21)
(1.24612 0.0126213 -1.6318e-21)
(1.24813 0.0122742 4.80921e-22)
(1.25002 0.0119069 -1.09368e-21)
(1.2518 0.0115187 -4.99174e-21)
(1.25348 0.0111092 -6.02448e-21)
(1.25505 0.0106778 1.46267e-20)
(1.25651 0.0102242 -1.3536e-20)
(1.25788 0.00974806 -2.18945e-20)
(1.25915 0.00924884 1.86199e-20)
(1.26032 0.00872602 3.28963e-20)
(1.2614 0.00817895 -7.95232e-21)
(1.26238 0.00760662 -2.82665e-20)
(1.26328 0.00700803 -4.1131e-22)
(1.26409 0.00638128 -6.8914e-21)
(1.18159 0.016611 -3.6738e-23)
(1.18575 0.0164111 1.61215e-23)
(1.18985 0.0162164 2.29923e-23)
(1.19387 0.0160263 -2.91691e-23)
(1.1978 0.0158397 -4.26574e-22)
(1.20165 0.0156558 4.65641e-22)
(1.20541 0.0154733 -4.21681e-22)
(1.20906 0.015291 -1.04255e-21)
(1.2126 0.0151074 -1.79467e-21)
(1.21604 0.0149211 -2.36078e-21)
(1.21936 0.0147304 -4.82009e-22)
(1.22256 0.0145338 2.88283e-21)
(1.22564 0.0143297 -2.82624e-21)
(1.2286 0.0141163 -2.23263e-21)
(1.23144 0.0138923 5.67361e-23)
(1.23415 0.013656 5.04215e-21)
(1.23674 0.0134061 -6.02541e-22)
(1.23922 0.0131412 -6.17031e-22)
(1.24157 0.0128603 -8.94684e-21)
(1.2438 0.0125621 -3.4191e-21)
(1.24591 0.0122459 5.07356e-22)
(1.24791 0.0119108 3.88111e-21)
(1.2498 0.0115561 -3.75233e-22)
(1.25158 0.0111814 -7.17467e-21)
(1.25325 0.0107861 1.132e-20)
(1.25481 0.0103698 1.89074e-20)
(1.25627 0.00993209 -8.60067e-21)
(1.25763 0.00947267 -3.03887e-21)
(1.25889 0.00899107 -6.46099e-21)
(1.26006 0.00848677 -1.12365e-20)
(1.26113 0.00795913 1.37939e-20)
(1.26211 0.00740722 2.67233e-20)
(1.26301 0.00683004 -8.08113e-21)
(1.26381 0.00622587 -1.54928e-20)
(1.26453 0.00559338 3.29619e-22)
(1.18145 0.01607 -2.32387e-23)
(1.18561 0.0158783 2.87998e-23)
(1.1897 0.0156915 -1.70658e-23)
(1.19372 0.015509 -1.07588e-22)
(1.19765 0.0153298 1.73745e-22)
(1.2015 0.015153 1.04992e-22)
(1.20525 0.0149775 6.48887e-22)
(1.2089 0.0148021 -1.48644e-21)
(1.21244 0.0146253 3.67841e-22)
(1.21587 0.0144459 1.36557e-21)
(1.21919 0.0142622 1.57163e-21)
(1.22239 0.0140727 -1.55056e-21)
(1.22547 0.0138758 2.49921e-21)
(1.22843 0.0136701 9.72808e-22)
(1.23126 0.013454 4.2946e-21)
(1.23397 0.0132261 5.2003e-21)
(1.23656 0.012985 3.1272e-21)
(1.23903 0.0127295 -4.06808e-21)
(1.24137 0.0124585 5.5996e-21)
(1.2436 0.0121709 1.30992e-21)
(1.24571 0.0118658 1.41884e-20)
(1.24771 0.0115426 5.43774e-21)
(1.24959 0.0112006 5.85769e-21)
(1.25136 0.0108393 6.204e-21)
(1.25302 0.0104582 -1.34224e-20)
(1.25457 0.0100568 -1.74813e-20)
(1.25603 0.00963496 3.16469e-20)
(1.25738 0.00919217 -9.55798e-21)
(1.25864 0.00872806 -4.79144e-21)
(1.2598 0.00824212 8.4618e-21)
(1.26087 0.00773376 -4.89355e-21)
(1.26184 0.00720207 -2.34677e-20)
(1.26273 0.00664613 2.43689e-20)
(1.26354 0.00606431 9.44924e-21)
(1.26425 0.00545537 -5.88783e-21)
(1.18131 0.0155246 -4.29557e-24)
(1.18547 0.0153411 -1.27482e-23)
(1.18956 0.0151622 1.09809e-23)
(1.19357 0.0149872 -1.30501e-23)
(1.1975 0.0148153 -9.24122e-23)
(1.20135 0.0146456 -1.945e-22)
(1.2051 0.0144771 -2.81725e-22)
(1.20875 0.0143085 8.84353e-22)
(1.21229 0.0141386 1.66217e-21)
(1.21572 0.013966 -1.03471e-21)
(1.21903 0.0137892 -1.41423e-21)
(1.22223 0.0136068 -1.43849e-22)
(1.2253 0.0134173 2.04061e-21)
(1.22826 0.0132192 1.88285e-21)
(1.23109 0.0130111 -2.09313e-22)
(1.23379 0.0127915 -1.06956e-20)
(1.23638 0.0125593 -5.66459e-21)
(1.23884 0.0123131 1.36969e-23)
(1.24119 0.012052 3.39349e-21)
(1.24341 0.011775 8.92326e-21)
(1.24551 0.0114811 -9.51322e-21)
(1.2475 0.0111698 3.63625e-21)
(1.24938 0.0108404 -8.96915e-21)
(1.25114 0.0104924 8.87999e-21)
(1.2528 0.0101254 1.48711e-20)
(1.25435 0.00973898 2.43448e-21)
(1.2558 0.00933282 -2.51076e-20)
(1.25714 0.00890656 9.23769e-21)
(1.25839 0.00845983 1.44834e-21)
(1.25955 0.00799212 -1.81646e-21)
(1.26061 0.00750288 -1.76234e-20)
(1.26158 0.00699126 7.83143e-21)
(1.26247 0.00645638 -1.02401e-20)
(1.26327 0.00589674 1.07172e-20)
(1.26398 0.00531114 2.00221e-20)
(1.18118 0.0149749 6.5209e-23)
(1.18533 0.0147995 -2.43494e-23)
(1.18941 0.0146283 9.02298e-24)
(1.19343 0.0144608 1.84491e-23)
(1.19736 0.0142962 -1.35708e-22)
(1.2012 0.0141336 2.5233e-22)
(1.20495 0.013972 7.1237e-22)
(1.20859 0.0138103 -2.44789e-22)
(1.21213 0.0136472 -3.0637e-21)
(1.21556 0.0134814 4.4728e-22)
(1.21887 0.0133116 3.36742e-21)
(1.22207 0.0131363 -3.19652e-22)
(1.22514 0.0129541 -1.10458e-21)
(1.22809 0.0127636 2.09065e-22)
(1.23092 0.0125634 -3.46948e-21)
(1.23362 0.0123523 1.17145e-20)
(1.2362 0.0121289 5.96787e-21)
(1.23866 0.0118921 -7.24609e-22)
(1.241 0.0116409 -1.14271e-20)
(1.24322 0.0113743 -8.60176e-21)
(1.24532 0.0110917 2.26471e-21)
(1.2473 0.0107922 -1.54965e-21)
(1.24917 0.0104754 1.18227e-20)
(1.25093 0.0101407 -4.04975e-21)
(1.25258 0.00978778 -1.49068e-20)