0 	0.551757 	1.38778e-18 	-0.550916
0 	0.659416 	2.77556e-18 	-0.436064
0 	0.775694 	2.77556e-18 	-0.390762
0 	0.90128 	2.77556e-18 	-0.315454
