/*--------------------------------*- C++ -*----------------------------------*\
  =========                 |
  \\      /  F ield         | OpenFOAM: The Open Source CFD Toolbox
   \\    /   O peration     | Website:  https://openfoam.org
    \\  /    A nd           | Version:  7
     \\/     M anipulation  |
\*---------------------------------------------------------------------------*/
FoamFile
{
    version     2.0;
    format      ascii;
    class       volScalarField;
    location    "10";
    object      p;
}
// * * * * * * * * * * * * * * * * * * * * * * * * * * * * * * * * * * * * * //

dimensions      [0 2 -2 0 0 0 0];

internalField   nonuniform List<scalar> 
10500
(
-0.409926
-0.408631
-0.39832
-0.384155
-0.367066
-0.34812
-0.328415
-0.308167
-0.289834
-0.269215
-0.410986
-0.409314
-0.398891
-0.384588
-0.367413
-0.348389
-0.328618
-0.308275
-0.289974
-0.268852
-0.413096
-0.410674
-0.400029
-0.385452
-0.368103
-0.348922
-0.329021
-0.30849
-0.290253
-0.268127
-0.416238
-0.4127
-0.401722
-0.386736
-0.369129
-0.349715
-0.329619
-0.308808
-0.290667
-0.267045
-0.420385
-0.415373
-0.403954
-0.388428
-0.370479
-0.350757
-0.330405
-0.309223
-0.291215
-0.265615
-0.425502
-0.41867
-0.406708
-0.390511
-0.372141
-0.352039
-0.331372
-0.309732
-0.29189
-0.263848
-0.431551
-0.42256
-0.409956
-0.392967
-0.374097
-0.353546
-0.33251
-0.310329
-0.292685
-0.261761
-0.438482
-0.42701
-0.413671
-0.395772
-0.37633
-0.355266
-0.333807
-0.311009
-0.29359
-0.259374
-0.44622
-0.431995
-0.417822
-0.398903
-0.378818
-0.357182
-0.335251
-0.311767
-0.294589
-0.256713
-0.454719
-0.437464
-0.422373
-0.402331
-0.381541
-0.359279
-0.33683
-0.312601
-0.295664
-0.25381
-0.46391
-0.443373
-0.427288
-0.406029
-0.384475
-0.361538
-0.33853
-0.31351
-0.29679
-0.250707
-0.47372
-0.449675
-0.432527
-0.409967
-0.387596
-0.363943
-0.340337
-0.314497
-0.297935
-0.247452
-0.48407
-0.45632
-0.43805
-0.414114
-0.390882
-0.366478
-0.342237
-0.315568
-0.299058
-0.244106
-0.494881
-0.463256
-0.443812
-0.418438
-0.394306
-0.369124
-0.344215
-0.316734
-0.300107
-0.240752
-0.506068
-0.470428
-0.449771
-0.422907
-0.397843
-0.371862
-0.346258
-0.318014
-0.301029
-0.237532
-0.517542
-0.47778
-0.455879
-0.427485
-0.401467
-0.374674
-0.348349
-0.319432
-0.301766
-0.234662
-0.529213
-0.485251
-0.462089
-0.432138
-0.405147
-0.377537
-0.350473
-0.32102
-0.3022
-0.232234
-0.540989
-0.492786
-0.468355
-0.43683
-0.408857
-0.380428
-0.352627
-0.322827
-0.302068
-0.230012
-0.552775
-0.500324
-0.474627
-0.441524
-0.41256
-0.383317
-0.354813
-0.324941
-0.30137
-0.229513
-0.564435
-0.507767
-0.480821
-0.446149
-0.416197
-0.386146
-0.356999
-0.327381
-0.301444
-0.240858
-0.575774
-0.514958
-0.486804
-0.450595
-0.419667
-0.388815
-0.359049
-0.329806
-0.303433
-0.279343
-0.586923
-0.522047
-0.492706
-0.45497
-0.423044
-0.391349
-0.360895
-0.331823
-0.303545
-0.292516
-0.597703
-0.528882
-0.498393
-0.459154
-0.426217
-0.393632
-0.362394
-0.333149
-0.302458
-0.295831
-0.607962
-0.535346
-0.503759
-0.463056
-0.429099
-0.395575
-0.363462
-0.333745
-0.301059
-0.295914
-0.617584
-0.541355
-0.508731
-0.466609
-0.431619
-0.397103
-0.364034
-0.333587
-0.29929
-0.293722
-0.626448
-0.546824
-0.51323
-0.469737
-0.4337
-0.398137
-0.364035
-0.332633
-0.296959
-0.289633
-0.634432
-0.55166
-0.517167
-0.472358
-0.435259
-0.398592
-0.363384
-0.330849
-0.293969
-0.284082
-0.641403
-0.555765
-0.520448
-0.474382
-0.436206
-0.39838
-0.362
-0.328199
-0.290255
-0.2774
-0.647229
-0.559034
-0.522975
-0.475713
-0.436444
-0.397411
-0.359803
-0.324649
-0.285764
-0.269799
-0.651775
-0.561361
-0.524641
-0.476251
-0.435876
-0.395594
-0.356717
-0.320166
-0.280446
-0.261414
-0.654899
-0.562635
-0.525337
-0.475889
-0.434399
-0.392838
-0.352668
-0.314714
-0.274261
-0.252322
-0.656464
-0.562739
-0.52495
-0.47452
-0.43191
-0.389052
-0.347584
-0.308259
-0.267176
-0.242566
-0.656327
-0.561559
-0.523364
-0.472033
-0.428306
-0.384151
-0.341402
-0.30077
-0.259163
-0.232164
-0.654348
-0.558977
-0.520462
-0.468316
-0.423485
-0.378051
-0.334062
-0.292217
-0.250202
-0.221115
-0.650387
-0.554874
-0.516126
-0.463259
-0.417351
-0.370676
-0.325512
-0.282576
-0.240278
-0.209414
-0.64431
-0.549133
-0.51024
-0.456755
-0.40981
-0.361955
-0.315709
-0.271827
-0.229383
-0.19705
-0.635986
-0.541642
-0.502692
-0.448703
-0.400779
-0.351829
-0.304617
-0.259957
-0.217516
-0.184015
-0.625306
-0.532305
-0.493384
-0.439012
-0.390182
-0.340247
-0.292211
-0.246961
-0.204682
-0.170302
-0.612159
-0.521025
-0.48222
-0.427597
-0.377956
-0.327169
-0.278475
-0.232841
-0.190892
-0.155911
-0.596301
-0.507618
-0.469049
-0.414342
-0.364022
-0.312554
-0.263397
-0.217603
-0.176164
-0.140847
-0.577336
-0.491794
-0.453658
-0.399102
-0.348289
-0.296358
-0.246969
-0.201257
-0.160519
-0.125122
-0.556096
-0.474054
-0.436362
-0.38207
-0.330883
-0.278666
-0.229253
-0.183852
-0.143994
-0.108754
-0.532238
-0.45413
-0.416962
-0.363111
-0.311726
-0.259447
-0.210252
-0.165407
-0.126619
-0.0917651
-0.50559
-0.431891
-0.395368
-0.34217
-0.290798
-0.23871
-0.189992
-0.145958
-0.108429
-0.0741824
-0.476141
-0.407321
-0.371566
-0.319248
-0.26812
-0.216493
-0.168521
-0.125551
-0.0894675
-0.0560344
-0.44391
-0.380422
-0.345564
-0.294364
-0.243727
-0.192844
-0.145894
-0.104241
-0.069792
-0.0373484
-0.408928
-0.351208
-0.317382
-0.267551
-0.21767
-0.167822
-0.12217
-0.0820716
-0.0494755
-0.0181865
-0.371248
-0.31971
-0.287058
-0.238861
-0.190013
-0.141501
-0.0974203
-0.0590881
-0.0285263
0.00134604
-0.330946
-0.285981
-0.254654
-0.208362
-0.160836
-0.113964
-0.0717297
-0.0354773
-0.00695373
0.0212536
-0.288124
-0.250095
-0.220248
-0.176142
-0.130234
-0.0853042
-0.0451825
-0.0112105
0.0150897
0.0414777
-0.242906
-0.212148
-0.183941
-0.142305
-0.0983146
-0.0556261
-0.0178747
0.0136191
0.0375514
0.0619508
-0.195441
-0.172253
-0.145853
-0.106972
-0.0651976
-0.025044
0.010092
0.0389168
0.0603701
0.0826019
-0.1459
-0.130548
-0.106124
-0.0702796
-0.0310184
0.00632083
0.0386104
0.0645913
0.0834752
0.103352
-0.0944543
-0.0872063
-0.0649062
-0.0323833
0.00408038
0.0383389
0.0675676
0.0905477
0.106793
0.124111
-0.0412913
-0.0424229
-0.0223834
0.00655587
0.0399454
0.0708739
0.0968457
0.116687
0.130245
0.144775
0.0132121
0.00372333
0.0212599
0.0463605
0.0764148
0.103784
0.126322
0.142905
0.153756
0.165226
0.06894
0.0509194
0.0658158
0.0868418
0.113319
0.136923
0.155871
0.169103
0.177263
0.18532
0.125597
0.0989301
0.111059
0.127798
0.150483
0.170141
0.185364
0.195186
0.200733
0.204828
0.182892
0.147518
0.156758
0.169024
0.187726
0.203284
0.21467
0.221061
0.224046
0.223379
0.240787
0.196574
0.202749
0.210344
0.224881
0.236204
0.243663
0.246606
0.24677
0.240335
0.2995
0.246123
0.248928
0.25161
0.261791
0.268755
0.272224
0.271692
0.268385
0.254946
0.357116
0.295054
0.294606
0.292394
0.298185
0.300764
0.300238
0.296238
0.290059
0.273503
0.413863
0.343409
0.339702
0.332565
0.333919
0.332093
0.327584
0.320108
0.311092
0.292716
0.469666
0.391034
0.384022
0.371935
0.368825
0.362597
0.354138
0.343204
0.331233
0.31124
0.524207
0.437637
0.427308
0.410286
0.402723
0.392135
0.379783
0.365446
0.350507
0.328865
0.577152
0.482926
0.4693
0.447406
0.435441
0.420567
0.404408
0.386748
0.368905
0.345624
0.628193
0.526628
0.509755
0.483088
0.46681
0.447761
0.427908
0.407029
0.386373
0.361496
0.677031
0.568477
0.548435
0.517136
0.496671
0.473589
0.450182
0.42621
0.40286
0.376432
0.723376
0.608216
0.585111
0.549359
0.524871
0.49793
0.471136
0.44422
0.418314
0.390389
0.766946
0.645598
0.619566
0.579577
0.551264
0.52067
0.490679
0.460991
0.432685
0.403331
0.807478
0.680389
0.651592
0.607622
0.575715
0.541703
0.508729
0.476458
0.445927
0.415223
0.844721
0.712369
0.680998
0.633335
0.598097
0.560928
0.525206
0.490561
0.457992
0.426031
0.878445
0.741336
0.707605
0.656572
0.618295
0.578255
0.54004
0.503244
0.468836
0.435726
0.908439
0.767104
0.731253
0.677201
0.636205
0.593601
0.553167
0.514457
0.478419
0.444279
0.934514
0.789509
0.751798
0.695105
0.651732
0.606894
0.564527
0.524154
0.486705
0.451661
0.956506
0.808406
0.769114
0.710183
0.664796
0.618069
0.574072
0.532297
0.493661
0.457851
0.974275
0.823672
0.783095
0.722348
0.675329
0.627073
0.581758
0.538852
0.49926
0.462827
0.987708
0.835208
0.793656
0.731531
0.683276
0.633863
0.587552
0.543791
0.503478
0.466574
0.996718
0.84294
0.800732
0.737681
0.688595
0.638406
0.591428
0.547094
0.506298
0.469078
1.00125
0.846823
0.804282
0.740765
0.691261
0.640683
0.593369
0.548748
0.507711
0.470332
1.00125
0.846823
0.804282
0.740765
0.691261
0.640683
0.593369
0.548748
0.507711
0.470332
0.996718
0.84294
0.800732
0.737681
0.688595
0.638406
0.591428
0.547094
0.506298
0.469078
0.987708
0.835208
0.793656
0.731531
0.683276
0.633863
0.587552
0.543791
0.503478
0.466574
0.974275
0.823672
0.783095
0.722348
0.675329
0.627073
0.581758
0.538852
0.49926
0.462827
0.956506
0.808406
0.769114
0.710183
0.664796
0.618069
0.574072
0.532297
0.493661
0.457851
0.934514
0.789509
0.751798
0.695105
0.651732
0.606894
0.564527
0.524154
0.486705
0.451661
0.908439
0.767104
0.731253
0.677201
0.636205
0.593601
0.553167
0.514457
0.478419
0.444279
0.878445
0.741336
0.707605
0.656572
0.618296
0.578255
0.54004
0.503244
0.468836
0.435726
0.844721
0.712369
0.680998
0.633335
0.598097
0.560928
0.525206
0.490561
0.457992
0.426031
0.807478
0.680389
0.651592
0.607622
0.575715
0.541703
0.508729
0.476458
0.445927
0.415223
0.766946
0.645598
0.619566
0.579577
0.551264
0.52067
0.490679
0.460991
0.432685
0.403331
0.723376
0.608216
0.585111
0.549359
0.524871
0.49793
0.471136
0.44422
0.418314
0.390389
0.677031
0.568477
0.548435
0.517136
0.496671
0.473589
0.450182
0.42621
0.40286
0.376432
0.628193
0.526628
0.509755
0.483088
0.46681
0.447761
0.427908
0.407029
0.386373
0.361496
0.577152
0.482926
0.4693
0.447406
0.435441
0.420568
0.404408
0.386748
0.368905
0.345624
0.524207
0.437637
0.427308
0.410287
0.402723
0.392135
0.379783
0.365446
0.350507
0.328865
0.469666
0.391034
0.384022
0.371935
0.368825
0.362597
0.354138
0.343205
0.331233
0.31124
0.413863
0.343409
0.339702
0.332565
0.333919
0.332093
0.327584
0.320108
0.311092
0.292716
0.357116
0.295054
0.294606
0.292394
0.298185
0.300764
0.300238
0.296238
0.290059
0.273503
0.2995
0.246123
0.248928
0.25161
0.261791
0.268755
0.272224
0.271692
0.268385
0.254946
0.240787
0.196574
0.202749
0.210344
0.224881
0.236204
0.243663
0.246606
0.24677
0.240335
0.182892
0.147518
0.156758
0.169024
0.187726
0.203284
0.21467
0.221061
0.224046
0.223379
0.125597
0.0989301
0.111059
0.127798
0.150483
0.170141
0.185364
0.195186
0.200733
0.204828
0.0689401
0.0509194
0.0658158
0.0868418
0.113319
0.136923
0.155872
0.169103
0.177263
0.18532
0.0132121
0.00372336
0.0212599
0.0463605
0.0764148
0.103784
0.126322
0.142906
0.153756
0.165226
-0.0412913
-0.0424229
-0.0223834
0.0065559
0.0399454
0.0708739
0.0968457
0.116687
0.130245
0.144775
-0.0944543
-0.0872062
-0.0649061
-0.0323833
0.00408041
0.0383389
0.0675677
0.0905477
0.106793
0.124111
-0.1459
-0.130548
-0.106124
-0.0702796
-0.0310183
0.00632086
0.0386105
0.0645914
0.0834752
0.103352
-0.195441
-0.172253
-0.145853
-0.106972
-0.0651975
-0.025044
0.0100921
0.0389169
0.0603701
0.0826019
-0.242906
-0.212147
-0.183941
-0.142305
-0.0983146
-0.0556261
-0.0178747
0.0136191
0.0375514
0.0619508
-0.288124
-0.250095
-0.220248
-0.176141
-0.130234
-0.0853041
-0.0451825
-0.0112105
0.0150897
0.0414777
-0.330946
-0.285981
-0.254654
-0.208362
-0.160836
-0.113964
-0.0717297
-0.0354773
-0.0069537
0.0212537
-0.371248
-0.31971
-0.287058
-0.238861
-0.190013
-0.141501
-0.0974203
-0.059088
-0.0285263
0.00134607
-0.408928
-0.351208
-0.317382
-0.267551
-0.21767
-0.167822
-0.12217
-0.0820715
-0.0494755
-0.0181864
-0.44391
-0.380422
-0.345564
-0.294364
-0.243727
-0.192844
-0.145894
-0.104241
-0.069792
-0.0373484
-0.476141
-0.407321
-0.371566
-0.319248
-0.26812
-0.216493
-0.168521
-0.125551
-0.0894675
-0.0560344
-0.50559
-0.431891
-0.395368
-0.34217
-0.290798
-0.23871
-0.189992
-0.145958
-0.108429
-0.0741824
-0.532238
-0.45413
-0.416962
-0.363111
-0.311726
-0.259447
-0.210251
-0.165407
-0.126619
-0.0917651
-0.556096
-0.474054
-0.436362
-0.38207
-0.330883
-0.278666
-0.229253
-0.183852
-0.143994
-0.108754
-0.577336
-0.491794
-0.453658
-0.399102
-0.348289
-0.296358
-0.246969
-0.201257
-0.160519
-0.125122
-0.596301
-0.507618
-0.469049
-0.414342
-0.364022
-0.312554
-0.263397
-0.217603
-0.176164
-0.140847
-0.612159
-0.521025
-0.48222
-0.427597
-0.377956
-0.327169
-0.278475
-0.232841
-0.190892
-0.155911
-0.625306
-0.532305
-0.493384
-0.439012
-0.390182
-0.340247
-0.292211
-0.246961
-0.204682
-0.170302
-0.635986
-0.541642
-0.502692
-0.448703
-0.400779
-0.351829
-0.304617
-0.259957
-0.217516
-0.184015
-0.64431
-0.549133
-0.51024
-0.456755
-0.40981
-0.361955
-0.315709
-0.271827
-0.229383
-0.19705
-0.650387
-0.554874
-0.516126
-0.463259
-0.417351
-0.370676
-0.325512
-0.282576
-0.240278
-0.209414
-0.654347
-0.558977
-0.520462
-0.468315
-0.423485
-0.378051
-0.334062
-0.292217
-0.250202
-0.221115
-0.656327
-0.561559
-0.523364
-0.472033
-0.428306
-0.384151
-0.341402
-0.30077
-0.259163
-0.232164
-0.656464
-0.562739
-0.52495
-0.47452
-0.43191
-0.389052
-0.347584
-0.308259
-0.267176
-0.242566
-0.654899
-0.562634
-0.525337
-0.475889
-0.434399
-0.392838
-0.352668
-0.314714
-0.274261
-0.252322
-0.651775
-0.561361
-0.524641
-0.476251
-0.435876
-0.395594
-0.356717
-0.320166
-0.280446
-0.261414
-0.647229
-0.559034
-0.522975
-0.475713
-0.436444
-0.397411
-0.359803
-0.324649
-0.285764
-0.269799
-0.641403
-0.555765
-0.520448
-0.474382
-0.436206
-0.39838
-0.362
-0.328199
-0.290255
-0.2774
-0.634432
-0.55166
-0.517167
-0.472358
-0.435259
-0.398592
-0.363384
-0.330849
-0.293969
-0.284082
-0.626448
-0.546824
-0.51323
-0.469737
-0.4337
-0.398137
-0.364035
-0.332633
-0.296959
-0.289633
-0.617584
-0.541355
-0.508731
-0.466609
-0.431619
-0.397103
-0.364034
-0.333587
-0.29929
-0.293722
-0.607962
-0.535346
-0.503759
-0.463056
-0.429099
-0.395575
-0.363462
-0.333745
-0.301059
-0.295914
-0.597703
-0.528882
-0.498393
-0.459154
-0.426217
-0.393632
-0.362394
-0.333149
-0.302458
-0.295831
-0.586923
-0.522047
-0.492706
-0.45497
-0.423044
-0.391349
-0.360895
-0.331823
-0.303545
-0.292516
-0.575774
-0.514958
-0.486804
-0.450595
-0.419667
-0.388815
-0.359049
-0.329806
-0.303433
-0.279343
-0.564435
-0.507767
-0.480821
-0.446149
-0.416197
-0.386146
-0.356999
-0.327381
-0.301444
-0.240858
-0.552775
-0.500324
-0.474627
-0.441524
-0.41256
-0.383317
-0.354813
-0.324941
-0.30137
-0.229513
-0.540989
-0.492786
-0.468355
-0.43683
-0.408856
-0.380428
-0.352627
-0.322827
-0.302068
-0.230012
-0.529213
-0.485251
-0.462089
-0.432138
-0.405147
-0.377537
-0.350473
-0.32102
-0.3022
-0.232234
-0.517542
-0.47778
-0.455879
-0.427485
-0.401467
-0.374674
-0.348349
-0.319432
-0.301766
-0.234662
-0.506068
-0.470428
-0.449771
-0.422907
-0.397843
-0.371862
-0.346258
-0.318014
-0.301029
-0.237532
-0.494881
-0.463256
-0.443812
-0.418438
-0.394306
-0.369124
-0.344215
-0.316734
-0.300107
-0.240752
-0.48407
-0.45632
-0.43805
-0.414114
-0.390882
-0.366478
-0.342237
-0.315568
-0.299058
-0.244106
-0.47372
-0.449675
-0.432527
-0.409967
-0.387596
-0.363943
-0.340337
-0.314497
-0.297935
-0.247452
-0.46391
-0.443373
-0.427288
-0.406029
-0.384475
-0.361538
-0.33853
-0.31351
-0.29679
-0.250707
-0.454719
-0.437464
-0.422373
-0.402331
-0.381541
-0.359279
-0.33683
-0.312601
-0.295664
-0.25381
-0.44622
-0.431995
-0.417822
-0.398903
-0.378818
-0.357182
-0.335251
-0.311767
-0.294589
-0.256713
-0.438482
-0.42701
-0.413671
-0.395772
-0.37633
-0.355266
-0.333807
-0.311009
-0.29359
-0.259374
-0.431551
-0.42256
-0.409956
-0.392967
-0.374097
-0.353546
-0.33251
-0.310329
-0.292685
-0.261761
-0.425502
-0.41867
-0.406708
-0.390511
-0.372141
-0.352039
-0.331372
-0.309732
-0.29189
-0.263848
-0.420385
-0.415373
-0.403954
-0.388428
-0.370479
-0.350757
-0.330405
-0.309223
-0.291215
-0.265615
-0.416238
-0.4127
-0.401722
-0.386736
-0.369129
-0.349715
-0.329619
-0.308808
-0.290667
-0.267045
-0.413096
-0.410674
-0.400029
-0.385452
-0.368103
-0.348922
-0.329021
-0.30849
-0.290253
-0.268127
-0.410986
-0.409314
-0.398891
-0.384588
-0.367413
-0.348389
-0.328618
-0.308275
-0.289974
-0.268852
-0.409926
-0.408631
-0.39832
-0.384155
-0.367066
-0.34812
-0.328415
-0.308167
-0.289834
-0.269215
-0.259438
-0.250857
-0.241779
-0.232672
-0.223441
-0.214131
-0.204815
-0.19554
-0.186355
-0.177303
-0.168423
-0.159752
-0.151317
-0.143143
-0.135248
-0.127645
-0.120345
-0.113351
-0.106665
-0.100283
-0.0942008
-0.0884093
-0.0828984
-0.077656
-0.0726683
-0.0679204
-0.0633963
-0.0590796
-0.0549533
-0.0510004
-0.0472043
-0.0435485
-0.0400182
-0.036598
-0.0332787
-0.0300427
-0.0268984
-0.0238078
-0.0208389
-0.0178576
-0.0151403
-0.012185
-0.00997516
-0.00674399
-0.00576124
-0.00123063
-0.00344463
0.0055177
-0.00526511
0.0170875
-0.260009
-0.251301
-0.242096
-0.232948
-0.223683
-0.214343
-0.205004
-0.195711
-0.186511
-0.177448
-0.168559
-0.159879
-0.151437
-0.143256
-0.135356
-0.127748
-0.120443
-0.113445
-0.106754
-0.100368
-0.0942808
-0.0884854
-0.0829707
-0.0777247
-0.0727336
-0.0679825
-0.0634555
-0.059136
-0.0550071
-0.0510518
-0.0472535
-0.0435956
-0.0400635
-0.0366414
-0.0333204
-0.0300826
-0.0269367
-0.0238444
-0.0208738
-0.0178907
-0.0151715
-0.0122143
-0.0100021
-0.00676954
-0.00578267
-0.00125372
-0.00345761
0.00549116
-0.00526062
0.0170371
-0.261143
-0.252183
-0.242727
-0.233497
-0.224163
-0.214763
-0.205379
-0.196051
-0.186822
-0.177735
-0.168828
-0.160132
-0.151676
-0.143483
-0.135571
-0.127953
-0.120638
-0.11363
-0.10693
-0.100535
-0.0944404
-0.088637
-0.0831148
-0.0778617
-0.0728639
-0.0681064
-0.0635734
-0.0592484
-0.0551144
-0.0511543
-0.0473516
-0.0436896
-0.0401535
-0.0367278
-0.0334033
-0.0301621
-0.0270129
-0.0239172
-0.0209432
-0.0179566
-0.0152336
-0.0122727
-0.0100556
-0.00682041
-0.00582535
-0.00129973
-0.00348345
0.00543824
-0.00525163
0.0169366
-0.262822
-0.253493
-0.243664
-0.234312
-0.224875
-0.215387
-0.205935
-0.196554
-0.187283
-0.178162
-0.169226
-0.160507
-0.152031
-0.143819
-0.135891
-0.128258
-0.120928
-0.113907
-0.107193
-0.100786
-0.0946786
-0.0888633
-0.0833299
-0.0780661
-0.0730581
-0.0682912
-0.0637493
-0.059416
-0.0552743
-0.0513071
-0.0474977
-0.0438295
-0.0402876
-0.0368564
-0.0335267
-0.0302805
-0.0271263
-0.0240256
-0.0210465
-0.0180545
-0.015326
-0.0123596
-0.0101353
-0.00689617
-0.00588889
-0.00136834
-0.00352192
0.00535927
-0.00523817
0.0167868
-0.265018
-0.255215
-0.244896
-0.235383
-0.225811
-0.216204
-0.206663
-0.197214
-0.187888
-0.178723
-0.169751
-0.161001
-0.152498
-0.144264
-0.136314
-0.128661
-0.121312
-0.114272
-0.107542
-0.101117
-0.0949939
-0.0891631
-0.0836147
-0.0783367
-0.0733154
-0.0685358
-0.0639821
-0.0596377
-0.0554857
-0.0515089
-0.0476907
-0.0440142
-0.0404646
-0.0370261
-0.0336895
-0.0304366
-0.0272758
-0.0241684
-0.0211827
-0.0181837
-0.0154477
-0.0124742
-0.0102404
-0.0069962
-0.00597274
-0.00145906
-0.00357267
0.00525473
-0.00522025
0.0165887
-0.267695
-0.257326
-0.246408
-0.236697
-0.226957
-0.217205
-0.207555
-0.198021
-0.188628
-0.17941
-0.170394
-0.161607
-0.153073
-0.144811
-0.136836
-0.129159
-0.121787
-0.114725
-0.107973
-0.101528
-0.0953847
-0.0895346
-0.0839678
-0.0786722
-0.0736341
-0.0688387
-0.0642702
-0.0599121
-0.0557472
-0.0517585
-0.0479291
-0.0442423
-0.0406831
-0.0372355
-0.0338903
-0.0306289
-0.0274601
-0.0243444
-0.0213504
-0.0183429
-0.0155978
-0.0126155
-0.0103701
-0.00711969
-0.00607621
-0.00157124
-0.00363527
0.00512526
-0.0051979
0.0163436
-0.270803
-0.259794
-0.248177
-0.238234
-0.228298
-0.218374
-0.208596
-0.198964
-0.189494
-0.180214
-0.171149
-0.162321
-0.153751
-0.145457
-0.137453
-0.129748
-0.12235
-0.115262
-0.108485
-0.102016
-0.0958489
-0.089976
-0.0843872
-0.0790706
-0.0740125
-0.0691983
-0.0646121
-0.0602374
-0.0560571
-0.052054
-0.0482113
-0.0445121
-0.0409413
-0.0374828
-0.0341273
-0.030856
-0.0276774
-0.0245521
-0.0215483
-0.0185307
-0.0157749
-0.0127823
-0.0105231
-0.00726563
-0.00619842
-0.00170413
-0.00370919
0.00497161
-0.00517117
0.0160533
-0.27428
-0.26258
-0.250177
-0.239973
-0.229813
-0.219694
-0.209772
-0.20003
-0.190474
-0.181127
-0.172007
-0.163134
-0.154526
-0.146197
-0.13816
-0.130425
-0.122997
-0.115881
-0.109075
-0.102578
-0.0963841
-0.090485
-0.0848708
-0.0795299
-0.0744487
-0.0696126
-0.0650058
-0.0606117
-0.0564134
-0.0523936
-0.0485353
-0.0448216
-0.0412373
-0.0377661
-0.0343986
-0.0311157
-0.027926
-0.0247895
-0.0217746
-0.0187454
-0.0159774
-0.0129731
-0.0106982
-0.0074329
-0.00633839
-0.00185683
-0.00379382
0.00479469
-0.00514012
0.0157197
-0.278055
-0.265633
-0.252375
-0.241885
-0.231477
-0.221144
-0.211065
-0.201203
-0.191555
-0.182136
-0.172959
-0.164039
-0.15539
-0.147024
-0.138953
-0.131184
-0.123725
-0.116577
-0.10974
-0.103212
-0.0969876
-0.0910589
-0.0854162
-0.0800478
-0.0749403
-0.0700793
-0.065449
-0.0610328
-0.0568139
-0.0527749
-0.0488988
-0.0451686
-0.0415689
-0.0380832
-0.034702
-0.0314061
-0.0282038
-0.0250546
-0.0220272
-0.0189853
-0.0162035
-0.0131865
-0.010894
-0.00762024
-0.00649501
-0.00202834
-0.00388846
0.00459552
-0.00510483
0.015345
-0.282037
-0.268887
-0.254726
-0.243934
-0.233262
-0.2227
-0.212454
-0.202467
-0.192723
-0.183231
-0.173995
-0.165027
-0.156336
-0.147932
-0.139825
-0.132022
-0.124528
-0.117346
-0.110476
-0.103914
-0.0976564
-0.0916952
-0.0860207
-0.0806217
-0.075485
-0.070596
-0.0659393
-0.0614984
-0.0572563
-0.0531958
-0.0492996
-0.0455507
-0.0419337
-0.0384318
-0.0350353
-0.0317248
-0.0285085
-0.0253454
-0.0223043
-0.0192483
-0.0164516
-0.0134206
-0.0111089
-0.00782626
-0.00666709
-0.00221758
-0.00399239
0.00437521
-0.00506538
0.0149316
-0.286124
-0.272265
-0.257179
-0.246078
-0.23513
-0.224333
-0.213916
-0.203802
-0.193963
-0.184397
-0.175105
-0.166088
-0.157356
-0.148914
-0.140771
-0.132933
-0.125403
-0.118185
-0.111279
-0.104681
-0.0983874
-0.0923907
-0.0866816
-0.081249
-0.07608
-0.0711603
-0.0664744
-0.062006
-0.0577382
-0.0536536
-0.0497352
-0.0459656
-0.0423293
-0.0388094
-0.0353961
-0.0320695
-0.0288378
-0.0256596
-0.0226035
-0.0195323
-0.0167195
-0.0136738
-0.0113412
-0.00804953
-0.00685335
-0.00242338
-0.00410482
0.00413497
-0.00502189
0.0144822
-0.290194
-0.275669
-0.259671
-0.248264
-0.237041
-0.22601
-0.215426
-0.205189
-0.195258
-0.185623
-0.176276
-0.167215
-0.158443
-0.149964
-0.141785
-0.133911
-0.126345
-0.11909
-0.112145
-0.105509
-0.0991772
-0.0931424
-0.087396
-0.0819269
-0.0767228
-0.0717694
-0.0670516
-0.0625531
-0.058257
-0.0541461
-0.0502031
-0.0464107
-0.0427532
-0.0392136
-0.0357819
-0.0324378
-0.0291895
-0.0259949
-0.0229227
-0.0198355
-0.0170055
-0.0139441
-0.0115893
-0.00828853
-0.00705248
-0.00264453
-0.00422496
0.00387606
-0.00497453
0.0139996
-0.294108
-0.278984
-0.262126
-0.250432
-0.238947
-0.227698
-0.216958
-0.206607
-0.196593
-0.186895
-0.177499
-0.168397
-0.159588
-0.151075
-0.142862
-0.134952
-0.127349
-0.120055
-0.113071
-0.106395
-0.100023
-0.0939474
-0.0881609
-0.0826528
-0.0774107
-0.072421
-0.0676685
-0.0631373
-0.0588104
-0.0546707
-0.0507009
-0.0468836
-0.0432031
-0.039642
-0.0361903
-0.0328273
-0.0295611
-0.026349
-0.0232598
-0.0201555
-0.0173073
-0.0142299
-0.0118515
-0.00854176
-0.00726316
-0.00287979
-0.004352
0.00359983
-0.00492345
0.0134866
-0.297711
-0.282076
-0.26446
-0.252513
-0.240794
-0.229355
-0.218482
-0.208035
-0.19795
-0.1882
-0.178762
-0.169626
-0.160785
-0.15224
-0.143994
-0.136049
-0.12841
-0.121078
-0.114053
-0.107336
-0.100921
-0.0948027
-0.0889738
-0.083424
-0.0781414
-0.0731126
-0.0683228
-0.0637561
-0.059396
-0.0552251
-0.0512263
-0.0473821
-0.0436766
-0.0400923
-0.036619
-0.0332357
-0.0299503
-0.0267197
-0.0236124
-0.0204903
-0.0176231
-0.0145291
-0.0121261
-0.00880767
-0.00748404
-0.0031279
-0.00448513
0.00330762
-0.00486888
0.0129463
-0.30083
-0.284783
-0.266565
-0.254414
-0.242511
-0.230933
-0.219961
-0.209443
-0.199307
-0.18952
-0.180052
-0.170888
-0.162022
-0.153449
-0.145173
-0.137196
-0.129521
-0.122151
-0.115086
-0.108325
-0.101866
-0.0957039
-0.0898305
-0.0842367
-0.0789111
-0.0738407
-0.0690111
-0.0644066
-0.0600108
-0.0558065
-0.0517766
-0.0479034
-0.0441711
-0.0405619
-0.0370655
-0.0336605
-0.0303549
-0.0271047
-0.0239785
-0.0208379
-0.0179509
-0.0148401
-0.0124113
-0.00908471
-0.00771374
-0.00338753
-0.0046235
0.00300094
-0.00481107
0.0123817
-0.30319
-0.286839
-0.26828
-0.256009
-0.244007
-0.232368
-0.221349
-0.210796
-0.200637
-0.190831
-0.181347
-0.172167
-0.163282
-0.154689
-0.146388
-0.138381
-0.130672
-0.123264
-0.116159
-0.109355
-0.102852
-0.0966437
-0.0907243
-0.0850847
-0.0797142
-0.0746003
-0.0697288
-0.0650844
-0.0606509
-0.0564112
-0.0523482
-0.0484443
-0.0446835
-0.041048
-0.0375272
-0.0340994
-0.0307724
-0.0275018
-0.0243559
-0.0211963
-0.0182888
-0.0151609
-0.0127055
-0.00937131
-0.00795085
-0.00365727
-0.0047662
0.00268134
-0.00475026
0.0117961
-0.304336
-0.287969
-0.269518
-0.257255
-0.24527
-0.233666
-0.222659
-0.212113
-0.201957
-0.192151
-0.182665
-0.173478
-0.164581
-0.15597
-0.147646
-0.139612
-0.13187
-0.124425
-0.117278
-0.110431
-0.103881
-0.0976255
-0.0916579
-0.0859703
-0.0805525
-0.0753925
-0.0704766
-0.0657899
-0.0613163
-0.0570388
-0.0529406
-0.049004
-0.045213
-0.0415494
-0.0380027
-0.0345508
-0.0312013
-0.0279094
-0.0247428
-0.0215637
-0.0186351
-0.0154902
-0.0130072
-0.00966629
-0.0081944
-0.00393627
-0.00491273
0.0023497
-0.0046865
0.0111919
-0.304498
-0.288459
-0.270498
-0.258271
-0.246397
-0.234923
-0.223988
-0.213487
-0.20336
-0.19357
-0.184089
-0.1749
-0.165993
-0.157365
-0.149018
-0.140953
-0.133176
-0.12569
-0.118498
-0.111601
-0.105
-0.0986911
-0.0926695
-0.0869278
-0.0814567
-0.0762446
-0.0712784
-0.0665435
-0.0620243
-0.057704
-0.0535657
-0.0495918
-0.0457664
-0.0420711
-0.0384953
-0.0350164
-0.0316422
-0.0283271
-0.0251387
-0.0219391
-0.0189888
-0.0158269
-0.013316
-0.00996956
-0.00844481
-0.00422533
-0.00506417
0.00200494
-0.00462009
0.0105702
-0.304611
-0.287613
-0.270398
-0.258261
-0.24671
-0.235586
-0.224887
-0.214552
-0.204544
-0.194837
-0.185413
-0.176262
-0.167377
-0.158759
-0.150408
-0.14233
-0.134529
-0.127012
-0.119781
-0.11284
-0.10619
-0.0998284
-0.0937517
-0.0879537
-0.0824259
-0.0771576
-0.0721365
-0.0673485
-0.0627784
-0.0584099
-0.0542264
-0.0502102
-0.0463457
-0.0426144
-0.0390056
-0.0354965
-0.0320946
-0.0287542
-0.025542
-0.022321
-0.0193481
-0.0161694
-0.0136303
-0.0102797
-0.00870108
-0.00452314
-0.00522081
0.00164934
-0.00455418
0.0099368
-0.294285
-0.279364
-0.266266
-0.255005
-0.244411
-0.234086
-0.223942
-0.214021
-0.20433
-0.194868
-0.185637
-0.176638
-0.167875
-0.159352
-0.151076
-0.143054
-0.135295
-0.127804
-0.120589
-0.113654
-0.107
-0.100629
-0.0945364
-0.0887184
-0.0831674
-0.0778736
-0.0728256
-0.0680101
-0.0634124
-0.0590166
-0.0548065
-0.0507648
-0.0468758
-0.0431209
-0.0394897
-0.035959
-0.0325362
-0.0291754
-0.0259426
-0.0227019
-0.019706
-0.01651
-0.0139395
-0.0105833
-0.00894732
-0.00480958
-0.00536741
0.00130955
-0.00449559
0.00931848
-0.248886
-0.268672
-0.264479
-0.253919
-0.243855
-0.233787
-0.223749
-0.213885
-0.204222
-0.194773
-0.185545
-0.176545
-0.167779
-0.159254
-0.150978
-0.142958
-0.135205
-0.127724
-0.120522
-0.113604
-0.10697
-0.100622
-0.094555
-0.0887647
-0.0832428
-0.0779793
-0.0729622
-0.0681776
-0.0636103
-0.059244
-0.0550618
-0.0510459
-0.04718
-0.043445
-0.0398297
-0.0363105
-0.032894
-0.0295343
-0.0262958
-0.0230454
-0.0200296
-0.0168163
-0.0142084
-0.010841
-0.00913947
-0.0050345
-0.00545941
0.00104353
-0.00443417
0.00877997
-0.234251
-0.257914
-0.257474
-0.248417
-0.239608
-0.23043
-0.221025
-0.21165
-0.20238
-0.193254
-0.184298
-0.17553
-0.166963
-0.158612
-0.150486
-0.142599
-0.13496
-0.127578
-0.120462
-0.113617
-0.107047
-0.100751
-0.0947277
-0.0889734
-0.0834808
-0.0782408
-0.073242
-0.0684714
-0.0639145
-0.0595554
-0.0553779
-0.0513645
-0.0474991
-0.0437632
-0.0401454
-0.0366226
-0.0332007
-0.0298353
-0.0265879
-0.0233305
-0.0202998
-0.0170818
-0.0144461
-0.0110883
-0.00932696
-0.00528179
-0.00555959
0.000731475
-0.00435158
0.00821831
-0.229707
-0.248881
-0.249439
-0.241662
-0.234
-0.225776
-0.217115
-0.208343
-0.199573
-0.190869
-0.182275
-0.173822
-0.165532
-0.157424
-0.149514
-0.141817
-0.134346
-0.127112
-0.120124
-0.113391
-0.106915
-0.100701
-0.0947462
-0.0890486
-0.0836025
-0.0783998
-0.0734304
-0.0686823
-0.0641421
-0.0597949
-0.0556253
-0.0516165
-0.0477533
-0.0440177
-0.0403987
-0.0368741
-0.0334491
-0.0300816
-0.0268292
-0.0235714
-0.0205311
-0.0173188
-0.0146602
-0.0113272
-0.0095052
-0.00554264
-0.00565567
0.00038328
-0.00424553
0.00760515
-0.226323
-0.240861
-0.241899
-0.235147
-0.228357
-0.220961
-0.213003
-0.20482
-0.196552
-0.188279
-0.180059
-0.171933
-0.163932
-0.15608
-0.148398
-0.140902
-0.13361
-0.126534
-0.119685
-0.113072
-0.106702
-0.100578
-0.0947003
-0.0890676
-0.0836753
-0.0785168
-0.0735831
-0.0688634
-0.0643451
-0.0600144
-0.0558568
-0.0518563
-0.0479983
-0.0442657
-0.0406477
-0.0371233
-0.0336967
-0.0303284
-0.0270718
-0.0238146
-0.0207648
-0.0175596
-0.014877
-0.0115713
-0.00968524
-0.00581189
-0.00575049
1.96005e-05
-0.00412929
0.00695658
-0.2229
-0.233322
-0.234564
-0.228692
-0.222613
-0.215958
-0.208677
-0.201082
-0.193327
-0.185503
-0.177676
-0.169897
-0.162203
-0.154623
-0.147182
-0.139902
-0.132801
-0.125894
-0.119194
-0.112711
-0.106454
-0.100427
-0.0946326
-0.0890702
-0.0837368
-0.0786269
-0.0737326
-0.0690444
-0.0645507
-0.0602388
-0.056095
-0.0521043
-0.0482527
-0.044524
-0.0409076
-0.0373837
-0.0339555
-0.0305864
-0.0273252
-0.0240685
-0.0210084
-0.01781
-0.0151018
-0.0118244
-0.00987094
-0.00609081
-0.00584706
-0.000358505
-0.00400626
0.00627446
-0.219009
-0.226032
-0.22719
-0.222089
-0.216634
-0.210662
-0.204042
-0.197042
-0.189819
-0.182467
-0.17506
-0.167654
-0.160292
-0.153008
-0.145831
-0.138785
-0.131892
-0.12517
-0.118632
-0.112292
-0.106159
-0.100239
-0.0945362
-0.0890513
-0.0837827
-0.0787264
-0.0738758
-0.0692225
-0.0647563
-0.0604653
-0.0563368
-0.0523571
-0.0485127
-0.0447883
-0.0411738
-0.0376504
-0.0342207
-0.0308508
-0.0275848
-0.0243286
-0.0212578
-0.0180667
-0.0153322
-0.0120847
-0.0100615
-0.00637904
-0.00594606
-0.000751452
-0.0038775
0.00555994
-0.21438
-0.21879
-0.219691
-0.215281
-0.210404
-0.205065
-0.199089
-0.192686
-0.18601
-0.179153
-0.17219
-0.165182
-0.158177
-0.151213
-0.144322
-0.137532
-0.130866