/*--------------------------------*- C++ -*----------------------------------*\
  =========                 |
  \\      /  F ield         | OpenFOAM: The Open Source CFD Toolbox
   \\    /   O peration     | Website:  https://openfoam.org
    \\  /    A nd           | Version:  7
     \\/     M anipulation  |
\*---------------------------------------------------------------------------*/
FoamFile
{
    version     2.0;
    format      ascii;
    class       surfaceScalarField;
    location    "10";
    object      phi;
}
// * * * * * * * * * * * * * * * * * * * * * * * * * * * * * * * * * * * * * //

dimensions      [0 3 -1 0 0 0 0];

internalField   nonuniform List<scalar> 
20715
(
-6.10937e-06
6.10937e-06
-1.10559e-12
-9.77012e-06
3.66076e-06
-1.05618e-11
-3.49964e-06
-6.27046e-06
-1.54711e-11
1.91402e-05
-2.26399e-05
-1.49271e-11
6.31202e-05
-4.39799e-05
-9.43006e-12
0.00013282
-6.96995e-05
-1.03866e-12
0.00023182
-9.90004e-05
9.55782e-12
0.000362596
-0.000130776
2.14344e-11
0.000524449
-0.000161853
3.19933e-11
-0.000192594
4.18809e-11
0.000717043
-5.86132e-06
1.19707e-05
-8.89535e-06
6.69479e-06
-1.62495e-06
-1.35409e-05
2.24026e-05
-4.66674e-05
6.8199e-05
-8.97763e-05
0.000140204
-0.000141705
0.000242086
-0.000200882
0.000376437
-0.000265126
0.000542686
-0.000328103
-0.000390488
0.000740581
-5.36842e-06
1.73391e-05
-7.15371e-06
8.48008e-06
2.1087e-06
-2.28033e-05
2.89014e-05
-7.34601e-05
7.83144e-05
-0.000139189
0.000154906
-0.000218296
0.000262516
-0.000308492
0.000403964
-0.000406574
0.000578937
-0.000503076
-0.000598887
0.000787336
-4.63544e-06
2.19746e-05
-4.56113e-06
8.40576e-06
7.66743e-06
-3.50318e-05
3.85767e-05
-0.000104369
9.33696e-05
-0.000193982
0.000176777
-0.000301703
0.000292885
-0.0004246
0.000444847
-0.000558536
0.000632735
-0.000690965
-0.000822801
0.00085665
-3.66944e-06
2.5644e-05
-1.14037e-06
5.87669e-06
1.50018e-05
-5.1174e-05
5.13399e-05
-0.000140707
0.000113221
-0.000255864
0.000205595
-0.000394077
0.000332861
-0.000551867
0.000498596
-0.000724271
0.000703383
-0.000895752
-0.00106696
0.00094754
-2.47966e-06
2.81237e-05
3.07516e-06
3.21872e-07
2.40461e-05
-7.2145e-05
6.70752e-05
-0.000183737
0.000137682
-0.00032647
0.00024107
-0.000497465
0.000382009
-0.000692806
0.000564566
-0.000906827
0.000789962
-0.00112115
-0.00133571
0.00105871
-1.07399e-06
2.91976e-05
8.05225e-06
-8.80437e-06
3.47211e-05
-9.88138e-05
8.5641e-05
-0.000234656
0.000166522
-0.000407352
0.000282849
-0.000613792
0.000439795
-0.000849751
0.000641965
-0.001109
0.000891338
-0.00137052
-0.00163293
0.00118856
5.43986e-07
2.86537e-05
1.37469e-05
-2.20073e-05
4.69341e-05
-0.000132001
0.000106872
-0.000294595
0.000199474
-0.000499953
0.000330516
-0.000744834
0.000505592
-0.00102483
0.000729863
-0.00133327
0.00100617
-0.00164683
-0.00196194
0.00133518
2.32918e-06
2.63245e-05
2.01101e-05
-3.97882e-05
6.05809e-05
-0.000172472
0.000130582
-0.000364596
0.000236232
-0.000605603
0.0003836
-0.000892202
0.000578692
-0.00121992
0.000827203
-0.00158178
0.00113295
-0.00195258
-0.00232541
0.00149642
4.29499e-06
2.20295e-05
2.70905e-05
-6.25837e-05
7.55467e-05
-0.000220928
0.000156564
-0.000445613
0.00027646
-0.000725499
0.00044158
-0.00105732
0.000658308
-0.00143665
0.000932816
-0.00185629
0.00126996
-0.00228972
-0.0027253
0.00166984
6.41911e-06
1.56104e-05
3.46321e-05
-9.07967e-05
9.17078e-05
-0.000278004
0.000184593
-0.000538498
0.00031979
-0.000860696
0.000503886
-0.00124142
0.000743588
-0.00167635
0.00104543
-0.00215813
0.00141537
-0.00265965
-0.00316272
0.00185279
8.68496e-06
6.92541e-06
4.26756e-05
-0.000124787
0.000108932
-0.00034426
0.000214427
-0.000643994
0.000365825
-0.00101209
0.000569908
-0.0014455
0.000833615
-0.00194006
0.00116371
-0.00248822
0.00156721
-0.00306316
-0.00363791
0.00204241
1.1076e-05
-4.15058e-06
5.11592e-05
-0.00016487
0.000127079
-0.00042018
0.000245811
-0.000762726
0.000414143
-0.00118043
0.000638992
-0.00167035
0.000927423
-0.00222849
0.00128622
-0.00284702
0.00172344
-0.00350038
-0.00415017
0.0022357
1.35755e-05
-1.77261e-05
6.00191e-05
-0.000211314
0.000146004
-0.000506165
0.000278473
-0.000895196
0.000464295
-0.00136625
0.000710447
-0.0019165
0.00102399
-0.00254203
0.00141152
-0.00323454
0.00188194
-0.00397081
-0.00469777
0.00242955
1.61666e-05
-3.38927e-05
6.91895e-05
-0.000264337
0.000165553
-0.000602529
0.000312128
-0.00104177
0.000515804
-0.00156992
0.000783542
-0.00218424
0.00112226
-0.00288075
0.00153813
-0.0036504
0.00204062
-0.0044733
-0.00527798
0.00262083
1.88325e-05
-5.27252e-05
7.8603e-05
-0.000324108
0.000185569
-0.000709495
0.000346477
-0.00120268
0.000568171
-0.00179162
0.000857503
-0.00247357
0.00122112
-0.00324437
0.00166456
-0.00409385
0.00219743
-0.00500617
-0.00588709
0.00280654
2.15564e-05
-7.42815e-05
8.81905e-05
-0.000390742
0.000205888
-0.000827193
0.000381207
-0.001378
0.000620866
-0.00203128
0.000931513
-0.00278422
0.00131939
-0.00363225
0.00178935
-0.00456381
0.00235039
-0.00556721
-0.00652073
0.00298403
2.43211e-05
-9.86026e-05
9.78817e-05
-0.000464302
0.000226341
-0.000955652
0.000415993
-0.00156765
0.000673334
-0.00228862
0.00100471
-0.00311559
0.00141588
-0.00404342
0.00191106
-0.005059
0.00249752
-0.00615367
-0.0071745
0.00315129
2.71094e-05
-0.000125712
0.000107604
-0.000544797
0.000246754
-0.0010948
0.000450498
-0.00177139
0.000724993
-0.00256311
0.00107616
-0.00346676
0.00150929
-0.00447655
0.00202842
-0.00557813
0.00263747
-0.00676271
-0.00784629
0.00330926
2.99034e-05
-0.000155615
0.000117285
-0.000632179
0.000266951
-0.00124447
0.000484375
-0.00198882
0.000775236
-0.00285397
0.00114488
-0.00383641
0.00159812
-0.00492979
0.00213972
-0.00611972
0.00277288
-0.00739588
-0.00853629
0.00346288
3.24636e-05
-0.000188079
0.000126369
-0.000726084
0.000286002
-0.0014041
0.000516267
-0.00221908
0.0008222
-0.00315991
0.00120837
-0.00422257
0.00167883
-0.00540025
0.00223881
-0.0066797
0.00290293
-0.00805999
-0.00942333
0.00378997
3.51824e-05
-0.000223262
0.00013568
-0.000826581
0.000305136
-0.00157356
0.000547723
-0.00246167
0.000867628
-0.00347981
0.00126832
-0.00462327
0.00175256
-0.00588449
0.00232429
-0.00725144
0.00299231
-0.00872802
-0.0102481
0.0038171
3.78515e-05
-0.000261113
0.000144722
-0.000933452
0.000323507
-0.00175234
0.0005775
-0.00271566
0.000909827
-0.00381214
0.00132256
-0.00503599
0.00181651
-0.00637844
0.0023927
-0.00782762
0.00305039
-0.00938571
-0.0110186
0.00382083
4.04517e-05
-0.000301565
0.00015342
-0.00104642
0.000340942
-0.00193986
0.000605274
-0.00297999
0.000948277
-0.00415514
0.00137034
-0.00545806
0.00186999
-0.00687809
0.00244468
-0.00840231
0.00308648
-0.0100275
-0.0117384
0.00380633
4.29644e-05
-0.000344529
0.0001617
-0.00116516
0.000357269
-0.00213543
0.000630737
-0.00325346
0.000982509
-0.00450691
0.00141109
-0.00588664
0.00191253
-0.00737952
0.00248078
-0.00897057
0.00310299
-0.0106497
-0.012412
0.00377658
4.53708e-05
-0.0003899
0.000169489
-0.00128927
0.000372321
-0.00233827
0.000653597
-0.00353474
0.0010121
-0.00486542
0.00144431
-0.00631885
0.00194377
-0.00787899
0.00250129
-0.00952809
0.00310078
-0.0112492
-0.0130424
0.00373123
4.76521e-05
-0.000437552
0.000176712
-0.00141833
0.000385938
-0.00254749
0.00067358
-0.00382238
0.00103667
-0.00522851
0.00146958
-0.00675175
0.00196345
-0.00837286
0.00250637
-0.010071
0.00308037
-0.0118232
-0.0136316
0.00366951
4.9789e-05
-0.000487341
0.000183297
-0.00155184
0.000397962
-0.00276216
0.000690431
-0.00411485
0.00105588
-0.00559396
0.00148655
-0.00718242
0.00197136
-0.00885767
0.00249617
-0.0105958
0.00304212
-0.0123692
-0.0141803
0.00359079
5.17619e-05
-0.000539103
0.000189174
-0.00168925
0.000408244
-0.00298123
0.000703915
-0.00441052
0.00106944
-0.00595948
0.00149496
-0.00760795
0.00196739
-0.00933009
0.00247088
-0.0110993
0.00298642
-0.0128847
-0.0146887
0.00349482
5.35508e-05
-0.000592654
0.00019427
-0.00182997
0.000416644
-0.0032036
0.000713819
-0.00470769
0.0010771
-0.00632276
0.00149462
-0.00802547
0.00195153
-0.009787
0.00243079
-0.0115786
0.00291377
-0.0133677
-0.0151566
0.00338174
5.5136e-05
-0.00064779
0.00019852
-0.00197336
0.000423029
-0.00342811
0.000719957
-0.00500462
0.00107866
-0.00668146
0.0014854
-0.00843221
0.00192386
-0.0102255
0.00237628
-0.012031
0.00282482
-0.0138162
-0.0155839
0.00325207
5.64973e-05
-0.000704287
0.000201855
-0.00211872
0.000427277
-0.00365353
0.000722167
-0.00529951
0.00107398
-0.00703327
0.00146727
-0.0088255
0.00188459
-0.0106428
0.00230785
-0.0124543
0.00272037
-0.0142287
-0.0159701
0.0031066
5.76152e-05
-0.000761902
0.000204217
-0.00226532
0.000429281
-0.00387859
0.000720322
-0.00559055
0.00106298
-0.00737593
0.00144029
-0.00920282
0.00183399
-0.0110365
0.00222611
-0.0128464
0.00260137
-0.014604
-0.0163151
0.00294638
5.84708e-05
-0.000820373
0.000205546
-0.00241239
0.000428947
-0.004102
0.000714324
-0.00587593
0.00104561
-0.00770721
0.00140458
-0.00956179
0.00177248
-0.0114044
0.00213179
-0.0132057
0.00246885
-0.014941
-0.0166189
0.00277262
5.9046e-05
-0.000879419
0.000205792
-0.00255914
0.000426201
-0.0043224
0.000704111
-0.00615384
0.00102191
-0.00802501
0.00136036
-0.00990025
0.00170053
-0.0117445
0.00202571
-0.0135309
0.00232396
-0.0152393
-0.0168816
0.00258663
5.93242e-05
-0.000938743
0.000204911
-0.00270473
0.000420982
-0.00453847
0.00068966
-0.00642252
0.000991958
-0.00832731
0.00130791
-0.0102162
0.00161872
-0.0120553
0.00190874
-0.0138209
0.00216786
-0.0154984
-0.0171035
0.00238978
5.92901e-05
-0.000998033
0.000202865
-0.0028483
0.000413253
-0.00474886
0.000670982
-0.00668025
0.000955901
-0.00861223
0.00124759
-0.0105079
0.00152768
-0.0123354
0.00178182
-0.014075
0.00200177
-0.0157184
-0.0172852
0.00218344
5.89301e-05
-0.00105696
0.000199626
-0.002989
0.000402996
-0.00495223
0.000648126
-0.00692538
0.000913929
-0.00887803
0.00117981
-0.0107738
0.0014281
-0.0125837
0.00164592
-0.0142929
0.0018269
-0.0158993
-0.0174272
0.00196897
5.8232e-05
-0.0011152
0.000195172
-0.00312594
0.000390215
-0.00514728
0.00062118
-0.00715634
0.000866286
-0.00912313
0.00110504
-0.0110125
0.00132071
-0.0127994
0.00150203
-0.0144742
0.00164443
-0.0160417
-0.0175305
0.00174769
5.71866e-05
-0.00117238
0.000189494
-0.00325824
0.000374936
-0.00533272
0.000590265
-0.00737167
0.00081326
-0.00934613
0.00102379
-0.0112231
0.00120629
-0.0129819
0.00135113
-0.014619
0.00145552
-0.0161461
-0.0175958
0.00152085
5.4985e-05
-0.00122737
0.000181157
-0.00338442
0.000355297
-0.00550686
0.000553296
-0.00756967
0.000752735
-0.00954557
0.000934086
-0.0114044
0.00108306
-0.0131309
0.00119175
-0.0147277
0.00125897
-0.0162134
-0.0176244
0.00128751
5.3176e-05
-0.00128054
0.000172969
-0.00350421
0.000335106
-0.00566899
0.000514865
-0.00774943
0.000689896
-0.0097206
0.000841505
-0.011556
0.00095684
-0.0132462
0.00102969
-0.0148006
0.00106043
-0.0162441
-0.0176169
0.001053
5.09901e-05
-0.00133153
0.00016357
-0.00361679
0.000312606
-0.00581803
0.000473009
-0.00790983
0.000622746
-0.00987034
0.000744154
-0.0116774
0.000825906
-0.0133279
0.000863467
-0.0148381
0.000858593
-0.0162392
-0.0175746
0.000816208
4.84309e-05
-0.00137996
0.000152995
-0.00372135
0.000287911
-0.00595295
0.000427972
-0.00804989
0.000551702
-0.00999407
0.000642637
-0.0117684
0.000691028
-0.0133763
0.000693943
-0.0148411
0.000654389
-0.0161997
-0.0174982
0.000578065
4.5505e-05
-0.00142547
0.000141289
-0.00381714
0.000261149
-0.00607281
0.000380017
-0.00816876
0.000477194
-0.0100912
0.000537556
-0.0118287
0.000552951
-0.0133917
0.000521958
-0.0148101
0.000448676
-0.0161264
-0.017389
0.000339412
4.22228e-05
-0.00146769
0.000128504
-0.00390342
0.000232463
-0.00617677
0.000329422
-0.00826572
0.000399665
-0.0101615
0.000429512
-0.0118586
0.0004124
-0.0133746
0.000348305
-0.014746
0.000242254
-0.0160203
-0.0172477
0.00010096
3.85979e-05
-0.00150629
0.000114704
-0.00397952
0.000202011
-0.00626407
0.000276479
-0.00834019
0.000319557
-0.0102046
0.000319092
-0.0118581
0.000270061
-0.0133256
0.000173739
-0.0146496
3.60328e-05
-0.0158826
-0.0170752
-0.00013642
3.46471e-05
-0.00154094
9.99596e-05
-0.00404484
0.000169961
-0.00633407
0.000221489
-0.00839172
0.000237319
-0.0102204
0.000206874
-0.0118277
0.000126597
-0.0132453
-1.34998e-06
-0.0145217
-0.000169806
-0.0157142
-0.0168729
-0.000372165
3.039e-05
-0.00157133
8.43484e-05
-0.0040988
0.000136491
-0.00638622
0.000164758
-0.00841998
0.000153392
-0.010209
9.34164e-05
-0.0117677
-1.7321e-05
-0.0131346
-0.000175462
-0.0143636
-0.000374137
-0.0155155
-0.0166412
-0.000605762
2.58488e-05
-0.00159718
6.79548e-05
-0.0041409
0.000101785
-0.00642005
0.000106597
-0.0084248
6.82118e-05
-0.0101706
-2.07416e-05
-0.0116787
-0.000161121
-0.0129942
-0.000348792
-0.0141759
-0.000576507
-0.0152878
-0.0163811
-0.000836643
2.10481e-05
-0.00161822
5.08685e-05
-0.00417072
6.60345e-05
-0.00643521
4.7315e-05
-0.00840608
-1.77959e-05
-0.0101055
-0.000135085
-0.0115614
-0.000304225
-0.0128251
-0.00052046
-0.0139596
-0.000776365
-0.0150319
-0.0160931
-0.00106432
1.60148e-05
-0.00163424
3.31833e-05
-0.00418789
2.94325e-05
-0.00643146
-1.27806e-05
-0.00836386
-0.000104223
-0.0100141
-0.00024912
-0.0114165
-0.000446087
-0.0126281
-0.000689908
-0.0137158
-0.000973171
-0.0147486
-0.015778
-0.00128832
1.07784e-05
-0.00164502
1.49963e-05
-0.00419211
-7.82442e-06
-0.00640864
-7.3394e-05
-0.00829829
-0.00019067
-0.00989681
-0.000362379
-0.0112448
-0.000586191
-0.0124043
-0.000856598
-0.0134454
-0.00116641
-0.0144388
-0.0154362
-0.00150824
5.3712e-06
-0.00165039
-3.59249e-06
-0.00418314
-4.55543e-05
-0.00636668
-0.000134228
-0.00820962
-0.00027676
-0.00975428
-0.000474422
-0.0110472
-0.000724055
-0.0121546
-0.00102001
-0.0131495
-0.00135556
-0.0141033
-0.0150681
-0.00172364
-2.8376e-07
-0.0016501
-2.24899e-05
-0.00416094
-8.3551e-05
-0.00630562
-0.000194999
-0.00809817
-0.000362135
-0.00958714
-0.000584839
-0.0108245
-0.000859226
-0.0118803
-0.00117965
-0.012829
-0.00154011
-0.0137428
-0.014674
-0.00193413
-5.8676e-06
-0.00164424
-4.15798e-05
-0.00412523
-0.000121632
-0.00622557
-0.000255438
-0.00796437
-0.000446458
-0.00939612
-0.000693248
-0.0105777
-0.000991286
-0.0115822
-0.00133504
-0.0124853
-0.00171952
-0.0133583
-0.0142543
-0.00213928
-1.16121e-05
-0.00163262
-6.07723e-05
-0.00407607
-0.000159616
-0.00612672
-0.000315285
-0.0078087
-0.000529416
-0.00918199
-0.000799303
-0.0103078
-0.00111986
-0.0112617
-0.00148573
-0.0121194
-0.00189325
-0.0129508
-0.0138089
-0.00233867
-1.74015e-05
-0.00161522
-7.99671e-05
-0.0040135
-0.000197325
-0.00600936
-0.000374296
-0.00763173
-0.000610717
-0.00894557
-0.000902689
-0.0100158
-0.0012446
-0.0109198
-0.00163131
-0.0117327
-0.00206076
-0.0125214
-0.0133378
-0.0025318
-2.32027e-05
-0.00159202
-9.90667e-05
-0.00393764
-0.000234592
-0.00587384
-0.000432241
-0.00743408
-0.000690094
-0.00868772
-0.00100313
-0.00970279
-0.00136522
-0.0105577
-0.00177139
-0.0113265
-0.00222124
-0.0120715
-0.0128417
-0.00271741
-2.89812e-05
-0.00156304
-0.000117976
-0.00384864
-0.000271252
-0.00572056
-0.000488902
-0.00721643
-0.000767303
-0.00840932
-0.00110037
-0.00936973
-0.00148149
-0.0101765
-0.00190565
-0.0109024
-0.00237334
-0.0116038
-0.0123183
-0.00289668
-3.60853e-05
-0.00152695
-0.00013888
-0.00374585
-0.000309945
-0.0055495
-0.000547119
-0.00697925
-0.00084522
-0.00811122
-0.00119725
-0.0090177
-0.00159621
-0.00977758
-0.00203683
-0.0104617
-0.00251506
-0.0111256
-0.0118039
-0.00302946
-4.1727e-05
-0.00148523
-0.000157107
-0.00363047
-0.000344868
-0.00536174
-0.000600521
-0.0067236
-0.000917318
-0.00779442
-0.00128737
-0.00864764
-0.00170334
-0.00936161
-0.00215984
-0.0100052
-0.00265328
-0.0106321
-0.0112771
-0.00318012
-4.72868e-05
-0.00143794
-0.000174907
-0.00350285
-0.000378755
-0.00515789
-0.00065207
-0.00645028
-0.000986619
-0.00745987
-0.00137371
-0.00826056
-0.00180574
-0.00892958
-0.00227735
-0.00953363
-0.00278536
-0.0101241
-0.0107359
-0.00332654
-5.27299e-05
-0.00138521
-0.000192193
-0.00336339
-0.000411473
-0.00493861
-0.000701603
-0.00616016
-0.00105295
-0.00710853
-0.00145609
-0.00785741
-0.00190325
-0.00848242
-0.00238912
-0.00904777
-0.00291072
-0.00960253
-0.0101807
-0.00346591
-5.8025e-05
-0.00132718
-0.000208885
-0.00321253
-0.000442896
-0.0047046
-0.000748965
-0.00585409
-0.00111614
-0.00674135
-0.00153437
-0.00743919
-0.00199572
-0.00802107
-0.002495
-0.00854848
-0.00302948
-0.00906806
-0.00961238
-0.0035978
-6.3142e-05
-0.00126404
-0.000224908
-0.00305076
-0.000472908
-0.0044566
-0.000794017
-0.00553298
-0.00117606
-0.00635931
-0.0016084
-0.00700685
-0.00208303
-0.00754644
-0.00259491
-0.0080366
-0.00314158
-0.00852139
-0.0090316
-0.00372235
-6.8052e-05
-0.00119599
-0.000240189
-0.00287862
-0.000501401
-0.00419538
-0.000836629
-0.00519775
-0.00123256
-0.00596338
-0.00167806
-0.00656135
-0.00216507
-0.00705943
-0.00268875
-0.00751292
-0.00324692
-0.00796321
-0.00843904
-0.00383948
-7.27276e-05
-0.00112326
-0.000254661
-0.00269669
-0.000528274
-0.00392177
-0.000876681
-0.00484934
-0.00128553
-0.00555453
-0.00174324
-0.00610364
-0.00224175
-0.00656092
-0.00277642
-0.00697825
-0.00334541
-0.00739422
-0.00783536
-0.00394909
-7.71435e-05
-0.00104612
-0.000268263
-0.00250557
-0.000553435
-0.0036366
-0.000914066
-0.00448871
-0.00133485
-0.00513375
-0.00180382
-0.00563466
-0.00231295
-0.00605179
-0.00285783
-0.00643338
-0.00343694
-0.0068151
-0.00722124
-0.00405106
-8.1276e-05
-0.000964844
-0.000280936
-0.00230591
-0.000576798
-0.00334074
-0.000948683
-0.00411683
-0.00138042
-0.00470202
-0.00185972
-0.00515536
-0.00237861
-0.0055329
-0.00293289
-0.00587909
-0.00352141
-0.00622659
-0.00659738
-0.00414527
-8.51037e-05
-0.00087974
-0.000292629
-0.00209838
-0.000598287
-0.00303508
-0.000980442
-0.00373467
-0.00142214
-0.00426032
-0.00191084
-0.00466666
-0.00243861
-0.00500513
-0.00300152
-0.00531619
-0.00359869
-0.00562942
-0.00596449
-0.00423157
-8.86069e-05
-0.000791133
-0.000303292
-0.0018837
-0.000617831
-0.00272054
-0.00100926
-0.00334324
-0.00145995
-0.00380963
-0.0019571
-0.0041695
-0.00249289
-0.00446934
-0.0030636
-0.00474548
-0.00366867
-0.00502435
-0.00532335
-0.00430981
-9.17679e-05
-0.000699365
-0.000312884
-0.00166258
-0.000635367
-0.00239806
-0.00103507
-0.00294354
-0.00149375
-0.00335096
-0.00199843
-0.00366482
-0.00254137
-0.0039264
-0.00311907
-0.00416778
-0.00373123
-0.00441219
-0.00467474
-0.00437983
-9.45711e-05
-0.000604794
-0.000321366
-0.00143579
-0.000650839
-0.00206859
-0.0010578
-0.00253657
-0.00152348
-0.00288528
-0.00203476
-0.00315354
-0.00258397
-0.00337719
-0.00316781
-0.00358393
-0.00378626
-0.00379375
-0.00401951
-0.00444149
-9.70029e-05
-0.000507791
-0.000328705
-0.00120408
-0.0006642
-0.00173309
-0.0010774
-0.00212338
-0.00154908
-0.00241359
-0.00206602
-0.00263661
-0.00262062
-0.00282259
-0.00320977
-0.00299478
-0.00383365
-0.00316987
-0.00335853
-0.00449463
-9.90516e-05
-0.00040874
-0.000334873
-0.000968263
-0.000675407
-0.00139256
-0.00109381
-0.00170497
-0.00157051
-0.00193689
-0.00209216
-0.00211495
-0.00265127
-0.00226349
-0.00324486
-0.00240119
-0.0038733
-0.00254143
-0.00269271
-0.00453912
-0.000100708
-0.000308032
-0.000339845
-0.000729126
-0.000684426
-0.00104798
-0.00110701
-0.00128239
-0.00158772
-0.00145618
-0.00211315
-0.00158952
-0.00267586
-0.00170078
-0.00327302
-0.00180403
-0.00390514
-0.00190931
-0.00202298
-0.00457487
-0.000101964
-0.000206069
-0.000343603
-0.000487487
-0.000691229
-0.000700351
-0.00111695
-0.000856671
-0.00160067
-0.000972462
-0.00212893
-0.00106126
-0.00269435
-0.00113536
-0.0032942
-0.00120418
-0.00392909
-0.00127442
-0.0013503
-0.00460177
-0.000102814
-0.000103255
-0.000346132
-0.000244169
-0.000695795
-0.000350687
-0.00112361
-0.00042886
-0.00160934
-0.000486733
-0.00213949
-0.0005311
-0.00270672
-0.000568132
-0.00330836
-0.000602537
-0.00394511
-0.000637673
-0.000675643
-0.00461976
-0.000103255
6.20009e-12
-0.000347424
1.9318e-11
-0.000698111
3.22099e-11
-0.00112697
4.0276e-11
-0.0016137
4.28952e-11
-0.0021448
4.03614e-11
-0.00271294
3.43018e-11
-0.00331547
2.63246e-11
-0.00395315
1.7986e-11
1.05011e-11
-0.00462879
-0.000103255
0.000103255
-0.000347424
0.000244169
-0.000698111
0.000350688
-0.00112697
0.00042886
-0.0016137
0.000486733
-0.0021448
0.0005311
-0.00271294
0.000568132
-0.00331547
0.000602537
-0.00395315
0.000637673
0.000675643
-0.00462879
-0.000102814
0.000206069
-0.000346132
0.000487487
-0.000695795
0.000700351
-0.00112361
0.000856671
-0.00160934
0.000972462
-0.00213949
0.00106126
-0.00270672
0.00113536
-0.00330836
0.00120418
-0.00394511
0.00127442
0.0013503
-0.00461976
-0.000101964
0.000308032
-0.000343603
0.000729126
-0.000691229
0.00104798
-0.00111695
0.00128239
-0.00160067
0.00145618
-0.00212893
0.00158952
-0.00269435
0.00170078
-0.0032942
0.00180403
-0.00392909
0.00190931
0.00202298
-0.00460177
-0.000100708
0.00040874
-0.000339845
0.000968263
-0.000684426
0.00139256
-0.00110701
0.00170497
-0.00158772
0.00193689
-0.00211315
0.00211495
-0.00267586
0.00226349
-0.00327302
0.00240119
-0.00390514
0.00254143
0.00269271
-0.00457487
-9.90516e-05
0.000507791
-0.000334873
0.00120408
-0.000675407
0.00173309
-0.00109381
0.00212338
-0.00157051
0.00241359
-0.00209216
0.00263661
-0.00265127
0.00282259
-0.00324486
0.00299478
-0.0038733
0.00316987
0.00335853
-0.00453912
-9.70029e-05
0.000604794
-0.000328705
0.00143579
-0.0006642
0.00206859
-0.0010774
0.00253657
-0.00154908
0.00288528
-0.00206602
0.00315354
-0.00262062
0.00337719
-0.00320977
0.00358393
-0.00383365
0.00379375
0.00401951
-0.00449463
-9.45711e-05
0.000699365
-0.000321366
0.00166258
-0.000650839
0.00239806
-0.0010578
0.00294354
-0.00152348
0.00335096
-0.00203476
0.00366482
-0.00258397
0.0039264
-0.00316781
0.00416778
-0.00378626
0.00441219
0.00467474
-0.00444149
-9.17679e-05
0.000791133
-0.000312884
0.0018837
-0.000635367
0.00272054
-0.00103507
0.00334324
-0.00149375
0.00380963
-0.00199843
0.0041695
-0.00254137
0.00446934
-0.00311907
0.00474548
-0.00373123
0.00502435
0.00532335
-0.00437983
-8.86069e-05
0.00087974
-0.000303292
0.00209838
-0.000617831
0.00303508
-0.00100926
0.00373467
-0.00145995
0.00426032
-0.0019571
0.00466666
-0.00249289
0.00500513
-0.0030636
0.00531619
-0.00366867
0.00562942
0.00596449
-0.00430981
-8.51037e-05
0.000964844
-0.000292629
0.00230591
-0.000598287
0.00334074
-0.000980442
0.00411683
-0.00142214
0.00470202
-0.00191084
0.00515536
-0.00243861
0.0055329
-0.00300152
0.00587909
-0.00359869
0.00622659
0.00659738
-0.00423157
-8.1276e-05
0.00104612
-0.000280936
0.00250557
-0.000576798
0.0036366
-0.000948683
0.00448871
-0.00138042
0.00513375
-0.00185972
0.00563466
-0.00237861
0.00605179
-0.00293289
0.00643338
-0.00352141
0.0068151
0.00722124
-0.00414527
-7.71435e-05
0.00112326
-0.000268263
0.00269669
-0.000553435
0.00392177
-0.000914066
0.00484934
-0.00133485
0.00555453
-0.00180382
0.00610364
-0.00231295
0.00656092
-0.00285783
0.00697825
-0.00343694
0.00739422
0.00783536
-0.00405106
-7.27276e-05
0.00119599
-0.000254661
0.00287862
-0.000528274
0.00419538
-0.000876681
0.00519775
-0.00128553
0.00596338
-0.00174324
0.00656135
-0.00224175
0.00705943
-0.00277642
0.00751292
-0.00334541
0.00796321
0.00843904
-0.00394909
-6.8052e-05
0.00126404
-0.000240189
0.00305076
-0.000501401
0.0044566
-0.000836629
0.00553298
-0.00123256
0.00635931
-0.00167806
0.00700685
-0.00216507
0.00754644
-0.00268875
0.0080366
-0.00324692
0.00852139
0.0090316
-0.00383948
-6.3142e-05
0.00132718
-0.000224908
0.00321253
-0.000472908
0.0047046
-0.000794017
0.00585409
-0.00117606
0.00674135
-0.0016084
0.00743919
-0.00208303
0.00802107
-0.00259491
0.00854848
-0.00314158
0.00906806
0.00961238
-0.00372235
-5.8025e-05
0.00138521
-0.000208885
0.00336339
-0.000442896
0.00493861
-0.000748965
0.00616016
-0.00111614
0.00710853
-0.00153437
0.00785741
-0.00199572
0.00848242
-0.002495
0.00904777
-0.00302948
0.00960253
0.0101807
-0.0035978
-5.27299e-05
0.00143794
-0.000192193
0.00350285
-0.000411473
0.00515789
-0.000701603
0.00645028
-0.00105295
0.00745987
-0.00145609
0.00826056
-0.00190325
0.00892958
-0.00238912
0.00953363
-0.00291072
0.0101241
0.0107359
-0.00346591
-4.72868e-05
0.00148523
-0.000174907
0.00363047
-0.000378755
0.00536174
-0.00065207
0.0067236
-0.000986619
0.00779442
-0.00137371
0.00864764
-0.00180574
0.00936161
-0.00227735
0.0100052
-0.00278536
0.0106321
0.0112771
-0.00332654
-4.1727e-05
0.00152695
-0.000157107
0.00374585
-0.000344868
0.0055495
-0.000600521
0.00697925
-0.000917318
0.00811122
-0.00128737
0.0090177
-0.00170334
0.00977758
-0.00215984
0.0104617
-0.00265328
0.0111256
0.0118039
-0.00318012
-3.60853e-05
0.00156304
-0.00013888
0.00384864
-0.000309945
0.00572056
-0.000547119
0.00721643
-0.00084522
0.00840932
-0.00119725
0.00936973
-0.00159621
0.0101765
-0.00203683
0.0109024
-0.00251506
0.0116038
0.0123183
-0.00302946
-2.89812e-05
0.00159202
-0.000117976
0.00393764
-0.000271252
0.00587384
-0.000488902
0.00743408
-0.000767303
0.00868772
-0.00110037
0.00970279
-0.00148149
0.0105577
-0.00190565
0.0113265
-0.00237334
0.0120715
0.0128417
-0.00289668
-2.32027e-05
0.00161522
-9.90667e-05
0.0040135
-0.000234592
0.00600936
-0.000432241
0.00763173
-0.000690094
0.00894557
-0.00100313
0.0100158
-0.00136522
0.0109198
-0.00177139
0.0117327
-0.00222124
0.0125214
0.0133378
-0.00271741
-1.74015e-05
0.00163262
-7.99671e-05
0.00407607
-0.000197325
0.00612672
-0.000374296
0.0078087
-0.000610717
0.00918199
-0.000902689
0.0103078
-0.0012446
0.0112617
-0.00163131
0.0121194
-0.00206076
0.0129508
0.0138089
-0.0025318
-1.16121e-05
0.00164424
-6.07723e-05
0.00412523
-0.000159616
0.00622557
-0.000315285
0.00796437
-0.000529416
0.00939612
-0.000799303
0.0105777
-0.00111986
0.0115822
-0.00148573
0.0124853
-0.00189325
0.0133583
0.0142543
-0.00233867
-5.8676e-06
0.0016501
-4.15798e-05
0.00416094
-0.000121632
0.00630562
-0.000255438
0.00809817
-0.000446458
0.00958714
-0.000693248
0.0108245
-0.000991286
0.0118803
-0.00133504
0.012829
-0.00171952
0.0137428
0.014674
-0.00213928
-2.8376e-07
0.00165039
-2.24899e-05
0.00418314
-8.3551e-05
0.00636668
-0.000194999
0.00820962
-0.000362135
0.00975428
-0.000584839
0.0110472
-0.000859226
0.0121546
-0.00117965
0.0131495
-0.00154011
0.0141033
0.0150681
-0.00193413
5.3712e-06
0.00164502
-3.59249e-06
0.00419211
-4.55543e-05
0.00640864
-0.000134228
0.00829829
-0.00027676
0.00989681
-0.000474422
0.0112448
-0.000724055
0.0124043
-0.00102001
0.0134454
-0.00135556
0.0144388
0.0154362
-0.00172364
1.07784e-05
0.00163424
1.49963e-05
0.00418789
-7.82442e-06
0.00643146
-7.3394e-05
0.00836386
-0.00019067
0.0100141
-0.000362379
0.0114165
-0.000586191
0.0126281
-0.000856598
0.0137158
-0.00116641
0.0147486
0.015778
-0.00150824
1.60148e-05
0.00161822
3.31833e-05
0.00417072
2.94325e-05
0.00643521
-1.27806e-05
0.00840608
-0.000104223
0.0101055
-0.00024912
0.0115614
-0.000446087
0.0128251
-0.000689908
0.0139596
-0.000973171
0.0150319
0.0160931
-0.00128832
2.10481e-05
0.00159718
5.08685e-05
0.0041409
6.60345e-05
0.00642005
4.7315e-05
0.0084248
-1.77959e-05
0.0101706
-0.000135085
0.0116787
-0.000304225
0.0129942
-0.00052046
0.0141759
-0.000776365
0.0152878
0.0163811
-0.00106432
2.58488e-05
0.00157133
6.79548e-05
0.0040988
0.000101785
0.00638622
0.000106597
0.00841998
6.82118e-05
0.010209
-2.07415e-05
0.0117677
-0.000161121
0.0131346
-0.000348792
0.0143636
-0.000576507
0.0155155
0.0166412
-0.000836643
3.039e-05
0.00154094
8.43484e-05
0.00404484
0.000136491
0.00633407
0.000164758
0.00839172
0.000153392
0.0102204
9.34164e-05
0.0118277
-1.7321e-05
0.0132453
-0.000175462
0.0145217
-0.000374137
0.0157142
0.0168729
-0.000605762
3.46471e-05
0.00150629
9.99596e-05
0.00397952
0.000169961
0.00626407
0.000221489
0.00834019
0.000237319
0.0102046
0.000206874
0.0118581
0.000126597
0.0133256
-1.34996e-06
0.0146496
-0.000169806
0.0158826
0.0170752
-0.000372165
3.85979e-05
0.00146769
0.000114704
0.00390342
0.000202011
0.00617677
0.000276479
0.00826572
0.000319557
0.0101615
0.000319092
0.0118586
0.000270061
0.0133746
0.000173739
0.014746
3.60329e-05
0.0160203
0.0172477
-0.00013642
4.22228e-05
0.00142547
0.000128504
0.00381714
0.000232463
0.00607281
0.000329422
0.00816876
0.000399665
0.0100912
0.000429512
0.0118287
0.0004124
0.0133917
0.000348305
0.0148101
0.000242254
0.0161264
0.017389
0.00010096
4.5505e-05
0.00137996
0.000141289
0.00372135
0.000261149
0.00595295
0.000380017
0.00804989
0.000477194
0.00999407
0.000537556
0.0117684
0.000552951
0.0133763
0.000521958
0.0148411
0.000448677
0.0161997
0.0174982
0.000339412
4.84309e-05
0.00133153
0.000152995
0.00361679
0.000287911
0.00581803
0.000427972
0.00790983
0.000551702
0.00987034
0.000642637
0.0116774
0.000691028
0.0133279
0.000693943
0.0148381
0.000654389
0.0162392
0.0175746
0.000578065
5.09901e-05
0.00128054
0.00016357
0.00350421
0.000312606
0.00566899
0.000473009
0.00774943
0.000622746
0.0097206
0.000744154
0.011556
0.000825906
0.0132462
0.000863467
0.0148006
0.000858593
0.0162441
0.0176169
0.000816208
5.3176e-05
0.00122737
0.000172969
0.00338442
0.000335106
0.00550686
0.000514865
0.00756967
0.000689896
0.00954557
0.000841505
0.0114044
0.00095684
0.0131309
0.00102969
0.0147277
0.00106043
0.0162134
0.0176244
0.001053
5.4985e-05
0.00117238
0.000181157
0.00325824
0.000355297
0.00533272
0.000553296
0.00737167
0.000752735
0.00934613
0.000934086
0.0112231
0.00108306
0.0129819
0.00119175
0.014619
0.00125897
0.0161461
0.0175958
0.00128751
5.71866e-05
0.0011152
0.000189494
0.00312594
0.000374936
0.00514728
0.000590265
0.00715634
0.00081326
0.00912313
0.00102379
0.0110125
0.00120629
0.0127994
0.00135113
0.0144742
0.00145552
0.0160417
0.0175305
0.00152085
5.8232e-05
0.00105696
0.000195172
0.002989
0.000390215
0.00495223
0.00062118
0.00692538
0.000866286
0.00887803
0.00110504
0.0107738
0.00132071
0.0125837
0.00150203
0.0142929
0.00164443
0.0158993
0.0174272
0.00174769
5.89301e-05
0.000998033
0.000199626
0.0028483
0.000402996
0.00474886
0.000648126
0.00668025
0.000913929
0.00861223
0.00117981
0.0105079
0.0014281
0.0123354
0.00164592
0.014075
0.0018269
0.0157184
0.0172852
0.00196897
5.92901e-05
0.000938743
0.000202865
0.00270473
0.000413253
0.00453848
0.000670982
0.00642252
0.000955901
0.00832731
0.00124759
0.0102162
0.00152768
0.0120553
0.00178182
0.0138209
0.00200177
0.0154984
0.0171035
0.00218344
5.93242e-05
0.000879419
0.000204911
0.00255914
0.000420982
0.0043224
0.00068966
0.00615384
0.000991958
0.00802501
0.00130791
0.00990025
0.00161872
0.0117445