/*--------------------------------*- C++ -*----------------------------------*\
  =========                 |
  \\      /  F ield         | OpenFOAM: The Open Source CFD Toolbox
   \\    /   O peration     | Website:  https://openfoam.org
    \\  /    A nd           | Version:  7
     \\/     M anipulation  |
\*---------------------------------------------------------------------------*/
FoamFile
{
    version     2.0;
    format      ascii;
    class       volVectorField;
    location    "10";
    object      U;
}
// * * * * * * * * * * * * * * * * * * * * * * * * * * * * * * * * * * * * * //

dimensions      [0 1 -1 0 0 0 0];

internalField   nonuniform List<vector> 
10500
(
(-0.00172477 0.000413165 -3.18516e-21)
(-0.0040134 0.000176212 6.0888e-21)
(-0.00359151 -0.000447295 -2.52615e-20)
(0.00147992 -0.00125781 -1.38347e-20)
(0.0111954 -0.00210485 -3.00937e-20)
(0.0252683 -0.00292107 -7.30464e-21)
(0.0431059 -0.00365162 -1.18098e-20)
(0.0641362 -0.00424442 -2.96484e-20)
(0.0867807 -0.00460356 7.83098e-21)
(0.111336 -0.00476408 3.22826e-21)
(-0.00175443 0.00122168 -5.52945e-22)
(-0.00384065 0.000497716 -9.09627e-21)
(-0.00302419 -0.00137238 -1.61121e-20)
(0.00252406 -0.00379737 3.24376e-20)
(0.0127775 -0.00632787 3.99361e-20)
(0.0274242 -0.0087639 1.34664e-21)
(0.04586 -0.0109422 1.42364e-21)
(0.067518 -0.0127066 3.53392e-20)
(0.0907461 -0.013773 -1.77168e-20)
(0.116119 -0.0142281 -5.80735e-20)
(-0.00180863 0.00197716 3.55536e-20)
(-0.00348563 0.000726745 -7.63069e-20)
(-0.00187942 -0.00238904 2.78688e-21)
(0.00462134 -0.00640916 3.85637e-21)
(0.0159482 -0.0105915 -1.65317e-20)
(0.0317385 -0.0146095 -4.58988e-20)
(0.0513657 -0.0181954 1.0422e-19)
(0.0742727 -0.0210896 -1.19426e-20)
(0.0986602 -0.0228306 9.63389e-21)
(0.125657 -0.0235008 -9.19917e-21)
(-0.00187727 0.00264568 -8.11002e-20)
(-0.00292958 0.000804054 1.55778e-19)
(-0.000137165 -0.00355558 -8.16913e-20)
(0.0077895 -0.00913862 2.64527e-20)
(0.0207199 -0.0149201 -8.75095e-20)
(0.0382162 -0.0204572 1.80119e-19)
(0.0596177 -0.025384 -3.44407e-20)
(0.0843821 -0.0293384 2.76669e-20)
(0.110489 -0.0317005 9.46666e-20)
(0.139892 -0.0324539 -4.73904e-20)
(-0.00194549 0.00319536 8.34132e-20)
(-0.00214474 0.000674219 -1.01743e-19)
(0.00223216 -0.00492568 -8.28698e-20)
(0.0120547 -0.0120263 -5.44803e-20)
(0.027111 -0.0193332 2.90519e-20)
(0.0468643 -0.0263014 -2.42808e-19)
(0.0706079 -0.0324762 -1.64863e-19)
(0.0978182 -0.0373937 -6.23041e-20)
(0.126182 -0.0403041 -1.21726e-19)
(0.158734 -0.0409581 7.2478e-20)
(-0.00199396 0.00359702 1.24002e-19)
(-0.00109502 0.000287191 1.48792e-20)
(0.0052671 -0.0065469 1.36213e-19)
(0.0174508 -0.0151061 -6.1405e-21)
(0.035145 -0.0238438 2.32544e-19)
(0.0576909 -0.0321305 1.24565e-19)
(0.0843243 -0.0394341 -1.3817e-19)
(0.114542 -0.0451911 2.3478e-19)
(0.145671 -0.0485597 1.28751e-19)
(0.182064 -0.0488832 4.58782e-20)
(-0.00199913 0.00382451 -1.23116e-19)
(0.00026329 -0.000400238 1.37245e-19)
(0.0090143 -0.00845894 -1.30765e-19)
(0.0240186 -0.0184038 -2.55414e-19)
(0.0448496 -0.0284569 -4.20768e-19)
(0.0707048 -0.037925 -8.40538e-20)
(0.10075 -0.0462125 1.87742e-19)
(0.134504 -0.0526591 -1.45676e-20)
(0.168866 -0.0563806 -2.91249e-19)
(0.209727 -0.0560982 6.72863e-20)
(-0.0019335 0.00385516 -1.04456e-19)
(0.00198076 -0.00142312 -1.73857e-19)
(0.0135274 -0.0106921 5.80275e-21)
(0.0318048 -0.0219355 2.14157e-19)
(0.0562557 -0.0331679 4.63681e-19)
(0.0859138 -0.0436562 2.57484e-19)
(0.119863 -0.0527577 -2.34452e-20)
(0.157641 -0.0597188 -4.97251e-19)
(0.195662 -0.0636753 1.88709e-19)
(0.241534 -0.062472 -1.96528e-19)
(-0.00176656 0.00367232 -1.32504e-19)
(0.00411429 -0.0028087 6.49243e-20)
(0.0188659 -0.0132661 3.05183e-19)
(0.0408606 -0.0257059 -3.21192e-20)
(0.0693961 -0.0379612 -1.52806e-19)
(0.103324 -0.0492851 9.92814e-20)
(0.141634 -0.0590062 1.58806e-19)
(0.183873 -0.0662823 3.4272e-19)
(0.22593 -0.0703456 9.89868e-21)
(0.277258 -0.0678746 1.96958e-19)
(-0.00146592 0.00326424 7.24307e-20)
(0.0067251 -0.00457475 -1.52326e-19)
(0.0250942 -0.0161892 -3.81478e-20)
(0.05124 -0.0297077 2.12297e-19)
(0.0843037 -0.0428095 2.21153e-19)
(0.122937 -0.0547617 -5.17502e-19)
(0.166023 -0.0648842 -2.57243e-19)
(0.213107 -0.0722533 -8.77971e-20)
(0.25952 -0.0762863 3.34068e-20)
(0.316629 -0.0721778 6.07784e-20)
(-0.000996797 0.00262319 3.64778e-20)
(0.00987762 -0.0067274 -1.3335e-19)
(0.0322794 -0.0194566 -1.87779e-19)
(0.0629984 -0.0339203 -1.30346e-19)
(0.101009 -0.0476726 -4.03835e-19)
(0.144748 -0.0600245 3.61543e-19)
(0.19298 -0.0703076 2.90438e-19)
(0.245228 -0.0775264 -3.65899e-19)
(0.296259 -0.0813847 -2.16392e-21)
(0.359338 -0.0752571 -8.89798e-21)
(-0.000323012 0.00174709 -7.29838e-20)
(0.0136385 -0.00926185 2.34595e-19)
(0.04049 -0.0230504 8.68326e-20)
(0.0761904 -0.038309 -5.0648e-21)
(0.11954 -0.0524972 2.60255e-19)
(0.168746 -0.0650005 -4.34284e-19)
(0.222444 -0.0751822 2.73462e-19)
(0.280103 -0.081989 2.56876e-19)
(0.335953 -0.0855196 1.18143e-19)
(0.405031 -0.0769936 -1.03228e-19)
(0.000592187 0.00063964 -2.16757e-19)
(0.0180749 -0.012162 -2.33041e-19)
(0.0497937 -0.0269387 -5.26005e-20)
(0.0908675 -0.0428249 3.73733e-19)
(0.139917 -0.0572169 -1.20632e-19)
(0.194907 -0.0696056 4.89194e-19)
(0.254335 -0.0794054 -1.41419e-19)
(0.317575 -0.085523 -1.08345e-19)
(0.378381 -0.0885608 -9.5207e-20)
(0.453308 -0.0772749 6.07328e-19)
(0.00178551 -0.000689803 7.5683e-19)
(0.0232534 -0.0154002 3.93031e-19)
(0.0602556 -0.0310759 -2.96718e-19)
(0.107076 -0.0474051 -3.0812e-19)
(0.162151 -0.0617526 2.21303e-19)
(0.223194 -0.0737461 -3.78446e-19)
(0.288556 -0.0828678 5.47992e-20)
(0.357463 -0.0880083 1.17909e-19)
(0.423304 -0.0903688 4.31048e-20)
(0.50372 -0.0759987 -1.78186e-19)
(0.00329295 -0.00222631 -8.01796e-19)
(0.0292379 -0.018937 1.59674e-20)
(0.0719361 -0.0354024 1.2017e-20)
(0.124853 -0.0519724 -5.71091e-20)
(0.186242 -0.0660128 -4.89953e-19)
(0.253554 -0.0773198 -2.2385e-20)
(0.324988 -0.0854563 -1.09089e-19)
(0.399563 -0.0893276 2.07979e-19)
(0.470465 -0.0907957 -3.21421e-19)
(0.555777 -0.0730824 -4.69922e-20)
(0.00514908 -0.00394946 3.98329e-19)
(0.0360885 -0.0227218 -2.7471e-21)
(0.0848883 -0.0398448 2.3065e-19)
(0.144228 -0.0564361 8.11249e-20)
(0.212173 -0.0698953 -3.9301e-19)
(0.285913 -0.0802187 4.92205e-19)
(0.363487 -0.0870583 -4.41447e-19)
(0.443645 -0.0893736 1.71849e-19)
(0.519592 -0.089689 2.81264e-19)
(0.608951 -0.0684772 -2.25472e-19)
(0.00738642 -0.0058336 -2.21945e-19)
(0.0438593 -0.026693 -7.01301e-20)
(0.0991567 -0.0443173 -4.19656e-19)
(0.165214 -0.0606934 -2.37734e-19)
(0.239911 -0.0732886 4.26854e-19)
(0.320174 -0.0823309 -8.01815e-19)
(0.403882 -0.087566 3.73344e-19)
(0.489452 -0.0880572 -4.85319e-19)
(0.570394 -0.0868848 -6.47441e-19)
(0.66266 -0.062129 2.94004e-19)
(0.010035 -0.00784843 3.68108e-19)
(0.0525978 -0.030779 -4.19913e-19)
(0.114774 -0.0487223 1.04342e-19)
(0.18781 -0.0646307 4.61583e-19)
(0.269402 -0.0760739 2.54373e-19)
(0.356214 -0.0835442 -5.56949e-21)
(0.445973 -0.0868841 -1.10969e-19)
(0.536709 -0.085318 1.41956e-19)
(0.622556 -0.0821692 5.79624e-19)
(0.716178 -0.0538522 -6.22143e-19)
(0.0131221 -0.00995957 2.04809e-19)
(0.0623432 -0.0348995 1.33207e-19)
(0.131762 -0.0529523 4.51263e-19)
(0.211996 -0.0681253 -1.7891e-19)
(0.300567 -0.0781271 -5.80565e-19)
(0.393882 -0.0837488 2.30883e-19)
(0.489526 -0.0849384 -3.07583e-19)
(0.585146 -0.0811383 2.16399e-19)
(0.675807 -0.075288 -3.6056e-19)
(0.768665 -0.0436089 6.92676e-19)
(0.0166685 -0.0121262 2.14797e-19)
(0.0731225 -0.0389633 2.93104e-19)
(0.150122 -0.0568879 -8.52373e-20)
(0.237733 -0.0710447 7.06928e-20)
(0.333301 -0.0793186 6.92724e-19)
(0.432993 -0.0828378 -1.49978e-19)
(0.534265 -0.0816799 6.51399e-19)
(0.634485 -0.0755597 -3.44816e-19)
(0.730114 -0.0662676 -3.15414e-19)
(0.820579 -0.0332238 -4.35902e-19)
(0.0206816 -0.0142949 -6.9652e-19)
(0.0849408 -0.0428626 1.77868e-19)
(0.169831 -0.0603932 -4.30283e-19)
(0.264948 -0.0732421 2.49098e-20)
(0.367464 -0.0795094 -7.0601e-19)
(0.473316 -0.0807019 9.15467e-20)
(0.579847 -0.0770721 -1.45422e-19)
(0.684284 -0.0686947 2.98127e-19)
(0.785174 -0.0559754 3.54264e-19)
(0.877084 -0.0270992 5.64277e-19)
(0.0251699 -0.0164167 4.15501e-19)
(0.0977969 -0.0464919 -8.56479e-20)
(0.190854 -0.0633362 4.07958e-19)
(0.293548 -0.0745772 -9.23182e-20)
(0.402889 -0.0785694 3.9837e-19)
(0.514589 -0.0772404 5.02248e-19)
(0.62587 -0.0710742 -2.65756e-19)
(0.733808 -0.0606797 -1.6066e-19)
(0.838347 -0.0459471 3.88412e-19)
(0.930747 -0.0262611 -3.59413e-19)
(0.0301499 -0.0184529 -4.81794e-19)
(0.111693 -0.0497569 4.96567e-19)
(0.213151 -0.065596 -5.7723e-19)
(0.323438 -0.0749219 4.19382e-19)
(0.439403 -0.0763823 -4.1407e-19)
(0.556547 -0.0723624 -5.54499e-19)
(0.671941 -0.0636239 2.44543e-19)
(0.782479 -0.0513799 8.8018e-20)
(0.888585 -0.0352483 1.70656e-19)
(0.979877 -0.022103 2.73605e-19)
(0.0356245 -0.0203548 2.42979e-19)
(0.126607 -0.0525506 -5.0512e-19)
(0.236656 -0.0670407 4.75775e-19)
(0.354489 -0.0741413 -6.26936e-19)
(0.476803 -0.0728293 4.54155e-19)
(0.598899 -0.0659764 6.09983e-19)
(0.717683 -0.0546488 1.45021e-19)
(0.829862 -0.0406264 -3.5498e-19)
(0.935751 -0.0233067 -4.05611e-19)
(1.02465 -0.0140134 1.61793e-19)
(0.0415878 -0.0220693 1.27029e-19)
(0.142501 -0.0547623 -5.75662e-19)
(0.261279 -0.067538 3.50108e-19)
(0.386547 -0.0721047 2.49783e-19)
(0.514863 -0.0678011 4.96732e-19)
(0.641349 -0.0580055 -6.1896e-19)
(0.762742 -0.0441011 -4.19007e-20)
(0.875606 -0.0283532 -1.1224e-19)
(0.979901 -0.0100268 4.41885e-20)
(1.06554 -0.00285686 -3.37308e-19)
(0.0480278 -0.0235435 -3.43704e-19)
(0.159321 -0.0562827 5.16181e-19)
(0.286911 -0.066961 -4.79697e-19)
(0.419437 -0.0686922 1.46542e-19)
(0.553339 -0.0612053 -1.14367e-18)
(0.683593 -0.0483962 -3.41673e-20)
(0.806784 -0.0319681 1.71038e-19)
(0.919404 -0.0145782 2.06754e-19)
(1.02102 0.00454285 2.75205e-19)
(1.10275 0.0107019 1.56172e-19)
(0.054926 -0.0247244 -3.14534e-19)
(0.176999 -0.0570055 -4.33049e-19)
(0.313421 -0.0651911 3.29595e-19)
(0.452965 -0.0637977 -1.22694e-19)
(0.591976 -0.0529695 1.85792e-19)
(0.725326 -0.0371217 3.64819e-19)
(0.849491 -0.0182718 2.46763e-20)
(0.960982 0.000624739 2.64709e-19)
(1.05904 0.0202915 -4.1673e-19)
(1.13629 0.0260888 1.00416e-19)
(0.0622574 -0.0255602 6.47631e-19)
(0.19545 -0.0568296 3.221e-19)
(0.340665 -0.0621197 7.29649e-22)
(0.48692 -0.0573315 9.22804e-20)
(0.630504 -0.0430436 4.20004e-19)
(0.766243 -0.024183 -4.50011e-19)
(0.890564 -0.00306716 -3.77541e-19)
(1.00009 0.0171398 -3.3593e-19)
(1.09389 0.0370613 4.13121e-19)
(1.16618 0.0427862 -5.99276e-19)
(0.0699899 -0.0260005 1.35825e-19)
(0.214576 -0.0556605 3.26427e-19)
(0.368476 -0.0576514 -1.44099e-19)
(0.521074 -0.0492235 -5.56544e-20)
(0.668648 -0.0314024 -2.1222e-19)
(0.806046 -0.0096099 -1.44024e-19)
(0.929724 0.0135607 1.62515e-19)
(1.03653 0.0348204 -1.70254e-19)
(1.12549 0.0546668 -2.20123e-19)
(1.19247 0.0603473 2.2732e-19)
(0.0780843 -0.0259977 -4.53728e-19)
(0.234264 -0.0534123 1.86141e-19)
(0.396673 -0.051706 -2.91328e-19)
(0.555188 -0.0394247 1.06277e-19)
(0.706127 -0.0180468 4.97653e-19)
(0.844443 0.00653995 2.27888e-19)
(0.966713 0.0314998 -2.24432e-19)
(1.07012 0.053499 3.09278e-19)
(1.15381 0.0729116 3.52128e-21)
(1.2152 0.0783981 4.3542e-21)
(0.0864949 -0.0255072 1.9056e-19)
(0.254388 -0.0500096 -3.73481e-19)
(0.425061 -0.0442207 5.91737e-19)
(0.58901 -0.0279096 -3.09123e-19)
(0.742661 -0.00300397 -2.03308e-19)
(0.88116 0.0241824 2.36215e-19)
(1.0013 0.0506158 5.57604e-20)
(1.10071 0.0729953 -2.57954e-19)
(1.17881 0.0915985 -8.58173e-20)
(1.23449 0.0966314 1.95665e-19)
(0.0951693 -0.0244885 1.67547e-19)
(0.274808 -0.045389 -7.55196e-20)
(0.453434 -0.035152 -1.38783e-19)
(0.622286 -0.0146767 1.00329e-19)
(0.777974 0.0136725 1.395e-19)
(0.915936 0.0432089 2.39172e-19)
(1.0333 0.0707559 7.07807e-20)
(1.1282 0.0931224 4.68021e-19)
(1.20051 0.110537 -8.21559e-20)
(1.25043 0.114797 -3.15265e-19)
(0.104049 -0.0229062 -6.09444e-19)
(0.295376 -0.039501 2.81768e-20)
(0.481574 -0.0244767 5.28855e-21)
(0.654758 0.000250182 9.26424e-20)
(0.811799 0.0319036 -5.35089e-19)
(0.948535 0.0634892 -2.2471e-19)
(1.06252 0.0917538 1.2561e-19)
(1.15253 0.113693 -2.09742e-19)
(1.21895 0.129546 -2.09171e-19)
(1.26319 0.132696 2.54018e-19)
(0.113069 -0.0207302 1.88296e-19)
(0.31593 -0.0323109 4.32059e-20)
(0.509259 -0.0121935 -8.07045e-20)
(0.686167 0.0168225 -8.57192e-20)
(0.843881 0.051586 1.06853e-19)
(0.978744 0.0848744 5.63257e-20)
(1.08885 0.113433 6.5051e-20)
(1.17366 0.134521 1.335e-20)
(1.2342 0.148459 2.45383e-19)
(1.27292 0.150168 -6.60104e-20)
(0.12216 -0.017937 1.09771e-21)
(0.336304 -0.0238003 -2.77549e-20)
(0.536262 0.00167629 3.75302e-20)
(0.716262 0.0349666 5.86521e-20)
(0.873984 0.072594 1.09336e-19)
(1.00638 0.1072 1.81833e-19)
(1.11217 0.135612 -1.45731e-19)
(1.1916 0.155429 9.04258e-20)
(1.24635 0.167123 -8.48787e-20)
(1.27981 0.167089 3.07036e-20)
(0.131248 -0.0145101 2.25271e-19)
(0.356325 -0.013968 -1.21226e-20)
(0.562356 0.0170887 9.85558e-20)
(0.7448 0.0545852 7.51678e-20)
(0.901888 0.0947822 -2.94522e-20)
(1.03128 0.130289 -7.37007e-20)
(1.13243 0.158107 4.17704e-20)
(1.20637 0.176247 -1.07457e-19)
(1.25552 0.185402 1.00704e-19)
(1.28403 0.183361 -6.98623e-20)
(0.140253 -0.0104405 -1.74636e-19)
(0.375815 -0.00283082 -7.99909e-20)
(0.587317 0.033977 -1.43452e-19)
(0.77155 0.0755582 -5.90877e-20)
(0.927398 0.117987 1.36536e-19)
(1.05333 0.153957 -7.99993e-20)
(1.14959 0.180733 1.45936e-19)
(1.21805 0.196814 7.05682e-20)
(1.26184 0.203174 -5.32089e-20)
(1.28578 0.198909 9.7848e-20)
(0.149097 -0.00572805 1.83953e-19)
(0.394599 0.00957579 1.8205e-19)
(0.610926 0.0522517 1.12751e-19)
(0.796298 0.0977444 -1.12131e-19)
(0.950345 0.142031 -9.06848e-20)
(1.07243 0.17801 -1.06958e-19)
(1.16365 0.203312 -7.04794e-20)
(1.22672 0.216981 -6.35934e-20)
(1.26547 0.220334 -3.1683e-20)
(1.28524 0.213675 -5.75556e-20)
(0.1577 -0.000381138 -7.76562e-20)
(0.412502 0.0231976 -6.3066e-20)
(0.632977 0.0718018 -4.25063e-20)
(0.818847 0.120984 7.26686e-20)
(0.970584 0.166724 7.79541e-20)
(1.08851 0.202256 9.20992e-20)
(1.17462 0.225668 -2.16608e-20)
(1.23247 0.236612 -2.6762e-20)
(1.26655 0.236786 9.94636e-21)
(1.2826 0.227616 3.43694e-20)
(0.16597 0.0055831 2.33038e-21)
(0.429344 0.0379625 -8.68124e-21)
(0.653266 0.0924967 -2.70071e-20)
(0.839019 0.1451 1.41149e-20)
(0.987997 0.191866 -6.32944e-21)
(1.10154 0.226499 -2.39406e-20)
(1.18257 0.247634 -1.62931e-20)
(1.23543 0.25558 1.80751e-20)
(1.26525 0.252451 -3.09585e-21)
(1.27803 0.240696 -7.92021e-22)
(0.173766 0.0121359 4.40405e-21)
(0.444918 0.0537767 -7.21535e-21)
(0.671583 0.114185 -3.0096e-20)
(0.856641 0.169901 1.97894e-20)
(1.00248 0.217251 -1.10854e-20)
(1.1115 0.250545 -2.558e-20)
(1.18755 0.26905 -9.70893e-21)
(1.23574 0.273772 1.85263e-20)
(1.26174 0.267258 -4.26437e-21)
(1.27172 0.252889 -1.41354e-21)
(0.181001 0.0192326 -7.0784e-20)
(0.459057 0.0705174 -4.95935e-20)
(0.687754 0.136686 -3.4549e-20)
(0.871578 0.195174 5.39881e-20)
(1.01398 0.242663 6.91545e-20)
(1.11842 0.2742 7.35275e-20)
(1.18965 0.289763 -1.44907e-20)
(1.23352 0.291081 -2.15082e-20)
(1.25618 0.281147 4.03464e-21)
(1.26381 0.264174 2.22657e-20)
(0.187649 0.0268252 1.62947e-19)
(0.47166 0.0880575 1.4267e-19)
(0.701672 0.15982 8.84422e-20)
(0.883758 0.220707 -6.82019e-20)
(1.02247 0.267891 -6.38508e-20)
(1.12234 0.297283 -1.19151e-19)
(1.189 0.309635 -2.4078e-20)
(1.22894 0.307418 -3.78061e-20)
(1.24872 0.294066 -9.03227e-21)
(1.25447 0.274532 -4.3691e-20)
(0.19364 0.0348597 -1.66979e-19)
(0.482603 0.106258 -3.92451e-20)
(0.713217 0.183391 -1.36986e-19)
(0.893109 0.246284 -1.15363e-20)
(1.02795 0.29273 6.64807e-20)
(1.12333 0.31962 -2.23555e-20)
(1.18571 0.328538 8.88417e-20)
(1.22215 0.322699 3.69243e-20)
(1.23953 0.30597 -2.98392e-20)
(1.24384 0.283947 4.93876e-20)
(0.198899 0.0432727 1.23493e-19)
(0.491763 0.124966 -6.02693e-21)
(0.722289 0.207195 9.07159e-20)
(0.899583 0.271684 2.86128e-20)
(1.03046 0.316974 -2.38827e-20)
(1.12149 0.341045 1.96887e-20)
(1.17992 0.346353 -1.19206e-20)
(1.21331 0.336852 -4.07858e-20)
(1.22876 0.316819 2.95471e-20)
(1.23205 0.292405 -1.20799e-20)
(0.20336 0.0519934 -4.55578e-20)
(0.499038 0.144016 -1.74943e-21)
(0.728809 0.231019 5.26635e-20)
(0.903158 0.296684 -1.32993e-20)
(1.03002 0.340423 6.39262e-20)
(1.11691 0.3614 1.06731e-19)
(1.17177 0.36297 -5.87324e-20)
(1.20256 0.349811 5.71622e-20)
(1.21655 0.32658 -2.93436e-20)
(1.21922 0.299888 -9.53287e-21)
(0.206963 0.0609437 1.07853e-19)
(0.504346 0.163233 6.59939e-20)
(0.732726 0.254645 -3.88142e-20)
(0.903841 0.321062 -6.10442e-20)
(1.02671 0.362884 1.62346e-20)
(1.10972 0.380538 3.62279e-20)
(1.16141 0.378292 1.01465e-20)
(1.19006 0.361517 9.51641e-21)
(1.20306 0.335226 4.6855e-20)
(1.20548 0.306381 -5.04437e-21)
(0.209659 0.0700393 -2.89931e-19)
(0.507625 0.182434 -4.17063e-20)
(0.734017 0.27785 -1.91553e-20)
(0.901665 0.344599 8.15869e-20)
(1.02063 0.384173 -2.15624e-19)
(1.10004 0.398322 -1.12969e-19)
(1.14899 0.392228 1.64266e-20)
(1.17596 0.371916 -1.45421e-20)
(1.1884 0.34273 -2.4949e-20)
(1.19093 0.311869 -9.57928e-21)
(0.211409 0.0791904 1.07921e-19)
(0.508831 0.201431 -2.89001e-20)
(0.732679 0.300413 -9.85357e-20)
(0.896686 0.367083 3.49121e-20)
(1.01188 0.404115 7.588e-20)
(1.08804 0.414627 6.43445e-20)
(1.13466 0.404702 1.91347e-20)
(1.1604 0.380965 3.55643e-20)
(1.1727 0.349062 3.86579e-21)
(1.17569 0.316344 3.57469e-20)
(0.212181 0.0883029 1.02753e-19)
(0.507944 0.220031 -1.46448e-19)
(0.728739 0.322111 1.95735e-19)
(0.888986 0.388307 -7.30069e-20)
(1.00059 0.422544 -5.00753e-20)
(1.07385 0.429338 2.18537e-20)
(1.1186 0.415643 -2.06727e-21)
(1.14355 0.388631 -2.46019e-20)
(1.15606 0.354202 1.31795e-20)
(1.15985 0.319786 -3.6635e-20)
(0.211956 0.0972795 -1.39908e-19)
(0.504965 0.23804 9.27491e-20)
(0.722246 0.342731 -1.42893e-19)
(0.878668 0.408074 7.82282e-20)
(0.986908 0.43931 1.0248e-19)
(1.05765 0.442352 3.37037e-22)
(1.10096 0.424988 -2.12e-20)
(1.12553 0.394881 -3.21282e-20)
(1.1386 0.358137 1.14152e-20)
(1.14348 0.322175 -5.71921e-21)
(0.210727 0.106021 7.15622e-20)
(0.499916 0.255267 7.73248e-20)
(0.713276 0.36206 -2.15524e-20)
(0.865858 0.426199 -5.48139e-21)
(0.970992 0.454271 -4.98173e-20)
(1.03961 0.453578 -3.61017e-20)
(1.0819 0.432686 -1.12171e-20)
(1.10648 0.399689 1.15298e-20)
(1.12043 0.360854 4.1538e-20)
(1.12667 0.323496 -4.83569e-20)
(0.208496 0.114429 1.34814e-19)
(0.492842 0.271521 5.07257e-20)
(0.701926 0.3799 1.06029e-20)
(0.850698 0.442508 -5.04339e-21)
(0.953014 0.467303 1.8765e-20)
(1.01991 0.462935 8.41887e-21)
(1.06159 0.438696 4.23627e-20)
(1.08654 0.403036 6.32209e-20)
(1.10165 0.362343 -1.53821e-19)
(1.10949 0.32373 2.86353e-19)
(0.205278 0.122403 -7.86949e-20)
(0.483809 0.286619 -8.63717e-20)
(0.688315 0.396058 4.18692e-20)
(0.833351 0.456842 -1.17796e-20)
(0.933158 0.47829 -3.78611e-20)
(0.998732 0.470358 -3.86328e-20)
(1.04019 0.442984 2.6184e-20)
(1.06584 0.40491 -4.76519e-20)
(1.08233 0.362599 1.08094e-19)
(1.09201 0.322858 -5.69266e-20)
(0.201094 0.129842 -1.76422e-20)
(0.472909 0.300389 1.7049e-20)
(0.672584 0.410358 -1.68841e-20)
(0.813996 0.469057 -4.01824e-21)
(0.911617 0.487137 8.90128e-20)
(0.976258 0.475788 -2.34424e-20)
(1.01787 0.445524 -2.50353e-20)
(1.04451 0.405306 -9.04433e-20)
(1.06256 0.361622 -1.41385e-19)
(1.07428 0.320859 -1.33974e-20)
(0.195987 0.136654 6.9685e-22)
(0.460244 0.312659 -1.63937e-20)
(0.654891 0.422637 5.5521e-21)
(0.792823 0.479022 -4.78717e-20)
(0.888591 0.493757 -5.56855e-20)
(0.952681 0.479183 1.46678e-19)
(0.994797 0.446301 2.70731e-20)
(1.02267 0.404224 1.09402e-19)
(1.04242 0.359421 -8.85279e-20)
(1.05634 0.317711 1.56149e-19)
(0.190011 0.142754 -4.24461e-20)
(0.445934 0.323274 7.14349e-20)
(0.635413 0.432745 -7.84847e-20)
(0.770036 0.486625 9.54557e-20)
(0.864289 0.498083 -7.06397e-20)
(0.928194 0.480507 -2.86542e-19)
(0.971129 0.445305 -2.70131e-20)
(1.00047 0.401675 1.01028e-19)
(1.02198 0.356008 2.80907e-19)
(1.03822 0.313392 -1.06978e-19)
(0.183223 0.148059 9.88705e-20)
(0.430125 0.332096 -5.73547e-20)
(0.614343 0.440554 9.22239e-20)
(0.745852 0.491772 -8.39234e-20)
(0.838921 0.500059 8.28568e-20)
(0.902989 0.47974 2.62052e-19)
(0.947036 0.442538 -6.3726e-20)
(0.978023 0.397672 -1.56447e-19)
(1.00131 0.351398 -1.06228e-20)
(1.01995 0.307871 -1.2942e-19)
(0.175696 0.152496 -1.38775e-19)
(0.412978 0.339003 5.24564e-20)
(0.591887 0.445951 -1.72904e-19)
(0.720492 0.494387 8.23296e-20)
(0.812703 0.499647 -2.80878e-19)
(0.877259 0.47687 -2.36366e-19)
(0.922685 0.438005 1.97013e-19)
(0.955476 0.392242 4.57255e-20)
(0.980479 0.345615 -2.02009e-19)
(1.00157 0.301092 2.29511e-19)
(0.167496 0.155984 3.2552e-19)
(0.394654 0.343876 -5.41589e-20)
(0.568257 0.44884 1.74445e-19)
(0.694184 0.494407 9.44208e-21)
(0.785851 0.49682 3.67897e-19)
(0.851195 0.471895 -1.13749e-19)
(0.89824 0.431723 1.55076e-19)
(0.932968 0.38542 -2.25881e-19)
(0.95966 0.338743 -3.59681e-19)
(0.983058 0.293214 -4.23516e-19)
(0.158644 0.158392 3.18501e-20)
(0.375299 0.346579 -2.23719e-19)
(0.543658 0.449123 4.93035e-21)
(0.667151 0.491781 4.43366e-20)
(0.758578 0.491562 -4.46975e-19)
(0.824986 0.464822 4.17212e-20)
(0.873865 0.423708 -5.53305e-19)
(0.910668 0.377229 2.0172e-19)
(0.939197 0.330935 4.41149e-19)
(0.964374 0.284837 4.59009e-19)
(0.149248 0.15966 -6.88652e-20)
(0.355123 0.34702 -8.85255e-20)
(0.518328 0.446737 -3.49512e-19)
(0.63963 0.486482 2.25485e-19)
(0.731096 0.483878 2.65056e-19)
(0.798812 0.455672 -5.43701e-20)
(0.849709 0.413982 7.95255e-20)
(0.888747 0.367649 3.2767e-21)
(0.919449 0.322074 2.83273e-19)
(0.947046 0.277065 -9.04518e-19)
(0.139478 0.159812 -3.85731e-19)
(0.334379 0.345195 3.02254e-19)
(0.492538 0.441683 -1.09675e-20)
(0.611876 0.478524 -3.49155e-19)
(0.703628 0.473795 -3.34402e-19)
(0.772856 0.444477 2.69814e-20)
(0.825915 0.402574 2.16033e-19)
(0.867292 0.356697 -3.35967e-19)
(0.900256 0.312035 -6.40746e-19)
(0.929913 0.268659 8.63254e-19)
(0.129445 0.15883 1.7583e-19)
(0.313279 0.34108 3.53837e-20)
(0.46653 0.433959 3.45786e-19)
(0.584127 0.46793 2.21345e-19)
(0.676383 0.461348 -3.20919e-19)
(0.747291 0.431277 5.63045e-19)
(0.80262 0.38952 -4.44414e-19)
(0.846396 0.344412 6.85967e-19)
(0.881652 0.300878 5.87227e-19)
(0.913225 0.259268 -4.60167e-19)
(0.119252 0.156688 -4.66547e-19)
(0.292029 0.334663 -5.47606e-21)
(0.440543 0.423579 -1.35105e-19)
(0.556614 0.454735 -2.06909e-19)
(0.649563 0.446587 4.7258e-19)
(0.722286 0.416123 -6.03103e-19)
(0.779957 0.374867 4.87175e-19)
(0.82616 0.330835 -2.1997e-19)
(0.863719 0.288666 -2.46911e-19)
(0.897143 0.248916 3.72911e-19)
(0.109005 0.153378 9.27301e-19)
(0.270839 0.325954 -7.63022e-20)
(0.414815 0.410576 9.13209e-21)
(0.529564 0.438992 1.36564e-19)
(0.623366 0.429574 4.40646e-19)
(0.698002 0.399077 -1.35792e-19)
(0.758054 0.358667 1.95769e-19)
(0.806685 0.316005 -2.58398e-19)
(0.84653 0.275435 3.44617e-19)
(0.881752 0.237658 2.07587e-19)
(0.0988138 0.148904 -1.00423e-18)
(0.249922 0.314985 -3.9137e-19)
(0.38958 0.39501 3.23717e-19)
(0.5032 0.420775 3.33515e-19)
(0.597983 0.410384 -1.9242e-19)
(0.674593 0.380209 4.10801e-19)
(0.737033 0.34098 4.18915e-20)
(0.788065 0.299968 -3.33382e-19)
(0.830154 0.261216 2.35069e-20)
(0.867117 0.225524 1.48107e-19)
(0.0887895 0.143284 3.46129e-19)
(0.229483 0.301808 3.42371e-19)
(0.365067 0.376956 -5.8804e-20)
(0.477735 0.400171 -3.68924e-19)
(0.573595 0.389106 -4.95134e-20)
(0.652207 0.359598 -5.31577e-19)
(0.717011 0.321872 1.96513e-19)
(0.770389 0.282776 1.06518e-19)
(0.814658 0.246047 2.98792e-19)
(0.853299 0.212541 -8.93228e-19)
(0.0790406 0.136545 2.33522e-19)
(0.209726 0.286495 -3.37964e-19)
(0.341495 0.356511 -1.54988e-19)
(0.453374 0.377287 -6.96142e-20)
(0.550376 0.365842 -2.60215e-19)
(0.630983 0.337333 6.01044e-19)
(0.698095 0.301416 -3.70919e-19)
(0.753744 0.264486 -3.27308e-19)
(0.800105 0.229971 -3.03773e-19)
(0.840353 0.19875 3.21929e-19)
(0.0696731 0.128727 -1.37091e-19)
(0.190845 0.269137 2.32963e-19)
(0.319077 0.333791 1.62469e-19)
(0.430311 0.352244 2.64458e-19)
(0.528488 0.340704 5.69662e-19)
(0.611051 0.313513 -5.24617e-19)
(0.680389 0.279693 -3.14511e-19)
(0.738205 0.245162 4.3067e-19)
(0.786554 0.213039 1.7079e-20)
(0.828326 0.184193 2.03206e-21)
(0.0607896 0.119883 -1.98972e-19)
(0.173028 0.249843 2.90002e-19)
(0.298012 0.308929 -1.49475e-20)
(0.408729 0.325176 -3.22935e-19)
(0.508084 0.313815 -2.59892e-19)
(0.592533 0.288241 6.49827e-19)
(0.663986 0.256789 5.33751e-19)
(0.723847 0.224872 2.19899e-19)
(0.77406 0.195304 -1.27681e-19)
(0.817263 0.168921 -1.00885e-19)
(0.0524876 0.110072 2.06937e-19)
(0.15645 0.228739 -5.29764e-20)
(0.278487 0.282075 -6.40137e-19)
(0.388798 0.296233 2.04741e-19)
(0.489304 0.285311 2.02427e-19)
(0.57554 0.261633 -8.46373e-20)
(0.648972 0.232796 -2.70955e-19)
(0.710734 0.203692 -5.26972e-19)
(0.762673 0.176828 -1.35388e-19)
(0.807201 0.152989 -1.22381e-19)
(0.0448584 0.0993676 1.34198e-19)
(0.141274 0.20597 4.24856e-19)
(0.260674 0.253393 -2.63846e-21)
(0.370673 0.265577 -4.8858e-19)
(0.472277 0.255333 -7.76889e-19)
(0.560174 0.233808 -3.91076e-19)
(0.635426 0.207813 2.49406e-19)
(0.698927 0.181701 6.23088e-19)
(0.752437 0.157675 -3.86331e-19)
(0.798174 0.136454 4.68206e-19)
(0.0379863 0.0878506 2.66628e-19)
(0.127651 0.181693 -3.35664e-19)
(0.24473 0.223064 2.84237e-19)
(0.354496 0.233381 3.78707e-19)
(0.457119 0.224034 7.71213e-19)
(0.546525 0.204893 8.51689e-20)
(0.623418 0.181943 -3.37986e-19)
(0.688478 0.158983 7.18218e-20)
(0.743393 0.137915 4.67314e-19)
(0.790211 0.119379 -1.3451e-19)
(0.0319472 0.0756106 -2.98214e-19)
(0.115714 0.15608 -1.26985e-20)
(0.230795 0.19128 -3.22075e-19)
(0.340391 0.199828 4.79553e-20)
(0.443933 0.191574 -3.5374e-19)
(0.534675 0.175022 -1.7877e-19)
(0.61301 0.155295 1.47498e-19)
(0.679434 0.135627 -5.05674e-19)
(0.735575 0.117621 -1.70297e-19)
(0.783339 0.101831 6.40539e-20)
(0.026808 0.0627448 -2.2858e-19)
(0.105581 0.129315 1.95522e-19)
(0.218991 0.158245 1.69067e-19)
(0.328467 0.165112 7.87702e-20)
(0.432807 0.15812 -4.94267e-20)
(0.524693 0.144333 4.57883e-19)
(0.604254 0.127981 1.73412e-19)
(0.671836 0.111724 1.80773e-19)
(0.729014 0.0968694 1.55391e-19)
(0.777579 0.0838767 -1.12198e-19)
(0.0226258 0.049357 2.41951e-19)
(0.0973513 0.101591 -3.11024e-19)
(0.209422 0.124172 1.37396e-19)
(0.318817 0.129432 -9.35076e-20)
(0.423815 0.123844 2.27651e-19)
(0.516636 0.112967 -3.83576e-19)
(0.597196 0.100117 7.35865e-20)
(0.665718 0.0873692 -2.32551e-20)
(0.723735 0.0757395 -1.12886e-19)
(0.77295 0.065588 7.96438e-21)
(0.0194472 0.0355566 -8.28679e-20)
(0.0911067 0.0731128 1.61196e-19)
(0.202171 0.0892841 -1.41424e-20)
(0.311514 0.0929969 1.70685e-21)
(0.417019 0.088924 -3.34685e-20)
(0.510553 0.0810718 1.74789e-19)
(0.591871 0.0718219 -2.40128e-19)
(0.661105 0.0626612 6.01103e-20)
(0.719758 0.0543132 -9.72057e-20)
(0.769465 0.0470371 7.61165e-20)
(0.0173078 0.0214568 5.45967e-21)
(0.0869088 0.0440892 8.71201e-21)
(0.197302 0.053808 2.96952e-20)
(0.306614 0.0560176 -4.80207e-20)
(0.412463 0.053541 -8.16878e-20)
(0.506478 0.0487964 -2.54155e-20)
(0.588307 0.0432178 2.33768e-20)
(0.658019 0.0376992 -6.39733e-20)
(0.717098 0.0326738 9.39216e-21)
(0.767136 0.0282981 1.01089e-19)
(0.0162318 0.00717353 3.82408e-21)
(0.0847992 0.0147344 -1.42897e-20)
(0.194856 0.0179762 4.76451e-20)
(0.304155 0.0187097 3.54818e-20)
(0.410178 0.0178786 5.76611e-20)
(0.504435 0.0162914 8.02364e-21)
(0.58652 0.0144271 2.45549e-20)
(0.656473 0.0125838 4.3742e-20)
(0.715766 0.0109059 -8.73892e-21)
(0.765969 0.00944561 -2.39102e-21)
(0.0162318 -0.00717353 7.73034e-21)
(0.0847992 -0.0147344 -1.26245e-20)
(0.194856 -0.0179762 5.08034e-20)
(0.304155 -0.0187097 2.65645e-20)
(0.410178 -0.0178786 5.66178e-20)
(0.504435 -0.0162915 1.34519e-20)
(0.58652 -0.0144271 2.13148e-20)
(0.656473 -0.0125838 5.27514e-20)
(0.715766 -0.0109059 -1.37447e-20)
(0.765969 -0.00944561 -5.60832e-21)
(0.0173078 -0.0214568 1.30702e-21)
(0.0869088 -0.0440892 1.87816e-20)
(0.197302 -0.053808 3.15756e-20)
(0.306614 -0.0560176 -6.22923e-20)
(0.412463 -0.0535411 -7.49151e-20)
(0.506478 -0.0487964 -2.59513e-21)
(0.588307 -0.0432178 -2.83865e-21)
(0.658019 -0.0376992 -6.27954e-20)
(0.717098 -0.0326738 3.09643e-20)
(0.767136 -0.0282981 1.00756e-19)
(0.0194472 -0.0355566 -8.3838e-20)
(0.0911067 -0.0731128 1.54321e-19)
(0.202171 -0.0892841 -6.5291e-21)
(0.311514 -0.0929969 -7.12646e-21)
(0.417019 -0.088924 3.08382e-20)
(0.510553 -0.0810718 8.2582e-20)
(0.591871 -0.0718219 -1.85193e-19)
(0.661105 -0.0626612 2.10711e-20)
(0.719758 -0.0543132 -1.63708e-20)
(0.769465 -0.0470371 1.56918e-20)
(0.0226258 -0.049357 1.90183e-19)
(0.0973513 -0.101591 -3.08515e-19)
(0.209422 -0.124172 1.56691e-19)
(0.318817 -0.129432 -4.86749e-20)
(0.423815 -0.123844 1.58766e-19)
(0.516636 -0.112967 -3.21926e-19)
(0.597196 -0.100117 6.26618e-20)
(0.665718 -0.0873692 -4.83521e-20)
(0.723735 -0.0757395 -1.61409e-19)
(0.77295 -0.065588 8.07428e-20)
(0.026808 -0.0627448 -1.90919e-19)
(0.105581 -0.129315 1.98783e-19)
(0.218991 -0.158245 1.50319e-19)
(0.328467 -0.165112 1.00288e-19)
(0.432807 -0.15812 -5.53603e-20)
(0.524693 -0.144333 4.27853e-19)
(0.604254 -0.127981 2.86311e-19)
(0.671836 -0.111724 1.06064e-19)
(0.729014 -0.0968694 2.08036e-19)
(0.777579 -0.0838767 -1.2563e-19)
(0.0319472 -0.0756106 -2.64324e-19)
(0.115714 -0.15608 -2.99463e-20)
(0.230795 -0.19128 -2.58726e-19)
(0.340391 -0.199828 9.38111e-21)
(0.443933 -0.191574 -4.0508e-19)
(0.534675 -0.175022 -2.17197e-19)
(0.61301 -0.155295 2.30953e-19)
(0.679434 -0.135627 -3.96089e-19)
(0.735575 -0.117621 -2.13011e-19)
(0.783339 -0.101831 -7.67876e-20)
(0.0379863 -0.0878506 2.69879e-19)
(0.127651 -0.181693 -2.42393e-19)
(0.24473 -0.223064 2.25341e-19)
(0.354496 -0.233381 4.30566e-19)
(0.457119 -0.224034 7.123e-19)
(0.546525 -0.204893 1.38966e-19)
(0.623418 -0.181943 -3.16147e-19)
(0.688478 -0.158983 3.05996e-20)
(0.743393 -0.137915 4.75477e-19)
(0.790211 -0.119379 -1.14494e-19)
(0.0448585 -0.0993676 2.05289e-19)
(0.141274 -0.20597 3.01357e-19)
(0.260674 -0.253393 -2.33506e-20)
(0.370673 -0.265577 -3.66538e-19)
(0.472277 -0.255333 -7.63865e-19)
(0.560174 -0.233808 -4.16818e-19)
(0.635426 -0.207813 3.61536e-20)
(0.698927 -0.181701 8.02383e-19)
(0.752437 -0.157675 -3.02858e-19)
(0.798174 -0.136454 3.29933e-19)
(0.0524876 -0.110072 2.36651e-19)