/*--------------------------------*- C++ -*----------------------------------*\
  =========                 |
  \\      /  F ield         | OpenFOAM: The Open Source CFD Toolbox
   \\    /   O peration     | Website:  https://openfoam.org
    \\  /    A nd           | Version:  7
     \\/     M anipulation  |
\*---------------------------------------------------------------------------*/
FoamFile
{
    version     2.0;
    format      ascii;
    class       surfaceScalarField;
    location    "15";
    object      phi;
}
// * * * * * * * * * * * * * * * * * * * * * * * * * * * * * * * * * * * * * //

dimensions      [0 3 -1 0 0 0 0];

internalField   nonuniform List<scalar> 
5139
(
0.0315056
-0.00105409
0.0316923
-0.000909786
0.0318679
-0.00076378
0.0320319
-0.00061611
0.0321842
-0.000466818
0.0323243
-0.000315955
0.032452
-0.000163577
0.0325669
-9.74999e-06
0.0326688
0.000145452
0.0327573
0.000301634
0.0328322
0.000459333
0.0328933
0.00061814
0.0329402
0.000777951
0.0329728
0.000938655
0.0329909
0.00110014
0.0329943
0.00126227
0.0329829
0.00142494
0.001588
0.00163209
4.41056e-05
0.00159109
4.09944e-05
0.00155325
3.78406e-05
0.00151861
3.46451e-05
0.0014872
3.14081e-05
0.00145907
2.81306e-05
0.00143426
2.48135e-05
0.0014128
2.14575e-05
0.00139474
1.80636e-05
0.0013801
1.46332e-05
0.00136894
1.11673e-05
0.00136127
7.66707e-06
0.00135713
4.13397e-06
0.00135656
5.69654e-07
-3.0245e-06
0.00135959
0.00161285
8.76832e-05
0.00157235
8.14968e-05
0.00153497
7.52261e-05
0.00150074
6.8872e-05
0.00146971
6.24358e-05
0.00144192
5.5919e-05
0.00141741
4.93234e-05
0.00139622
4.26506e-05
0.00137838
3.59028e-05
0.00136393
2.90821e-05
0.00135291
2.21907e-05
0.00134534
1.52314e-05
0.00134127
8.20671e-06
0.00134072
1.11971e-06
-6.02624e-06
0.00134372
0.00159384
0.000130737
0.00155383
0.000121512
0.00151689
0.00011216
0.00148308
0.000102684
0.00145243
9.30863e-05
0.00142498
8.33683e-05
0.00140077
7.35326e-05
0.00137984
6.35819e-05
0.00136223
5.35195e-05
0.00134796
4.33481e-05
0.00133708
3.30716e-05
0.00132962
2.26937e-05
0.0013256
1.22185e-05
0.00132507
1.65044e-06
-9.00574e-06
0.00132805
0.00157506
0.000173273
0.00153553
0.000161043
0.00149904
0.000148647
0.00146564
0.000136086
0.00143536
0.000123363
0.00140825
0.000110482
0.00138434
9.74438e-05
0.00136367
8.4254e-05
0.00134627
7.09156e-05
0.00133218
5.74332e-05
0.00132144
4.38114e-05
0.00131408
3.00552e-05
0.00131013
1.617e-05
0.00130962
2.16165e-06
-1.19632e-05
0.00131258
0.0015565
0.000215294
0.00151744
0.000200095
0.0014814
0.00018469
0.0014484
0.000169081
0.0014185
0.00015327
0.00139172
0.000137262
0.0013681
0.00012106
0.00134769
0.000104669
0.00133051
8.80936e-05
0.0013166
7.13391e-05
0.001306
5.44114e-05
0.00129874
3.73167e-05
0.00129485
2.00617e-05
0.00129436
2.6537e-06
-1.48991e-05
0.00129729
0.00153815
0.000256806
0.00149957
0.000238674
0.00146397
0.000220295
0.00143138
0.000201673
0.00140184
0.000182811
0.00137539
0.000163713
0.00135206
0.000144384
0.0013319
0.00012483
0.00131494
0.000105055
0.00130121
8.50677e-05
0.00129075
6.48732e-05
0.00128359
4.44792e-05
0.00127975
2.38943e-05
0.00127928
3.12672e-06
-1.78137e-05
0.0012822
0.00152003
0.000297815
0.00148192
0.000276783
0.00144675
0.000255466
0.00141455
0.000233866
0.00138538
0.000211989
0.00135925
0.000189838
0.00133622
0.000167419
0.00131631
0.000144739
0.00129956
0.000121804
0.00128601
9.86206e-05
0.00127568
7.51979e-05
0.00126862
5.1544e-05
0.00126484
2.76683e-05
0.00126439
3.58088e-06
-2.07071e-05
0.00126728
0.00150212
0.000338324
0.00146447
0.000314427
0.00142973
0.000290206
0.00139793
0.000265665
0.00136911
0.000240807
0.00134331
0.00021564
0.00132056
0.000190168
0.0013009
0.000164399
0.00128437
0.00013834
0.00127099
0.000112
0.0012608
8.53873e-05
0.00125383
5.85119e-05
0.00125011
3.13843e-05
0.00124968
4.01626e-06
-2.35799e-05
0.00125255
0.00148442
0.00037834
0.00144723
0.000351611
0.00141292
0.000324521
0.00138151
0.000297072
0.00135305
0.000269271
0.00132756
0.000241122
0.0013051
0.000212634
0.00128569
0.000183813
0.00126936
0.000154667
0.00125615
0.000125208
0.0012461
9.54428e-05
0.00123922
6.5384e-05
0.00123556
3.50432e-05
0.00123515
4.4332e-06
-2.64319e-05
0.001238
0.00146693
0.000417867
0.0014302
0.000388341
0.00139631
0.000358415
0.00136529
0.000328094
0.00133717
0.000297383
0.00131201
0.000266289
0.00128982
0.000234819
0.00127065
0.000202983
0.00125453
0.000170788
0.00124149
0.000138245
0.00123157
0.000105366
0.00122479
7.21614e-05
0.00122119
3.86454e-05
0.00122079
4.83198e-06
-2.92636e-05
0.00122362
0.00144965
0.00045691
0.00141337
0.000424619
0.00137989
0.000391892
0.00134925
0.000358732
0.00132149
0.000325147
0.00129664
0.000291143
0.00127473
0.000256728
0.0012558
0.000221912
0.00123988
0.000186704
0.00122701
0.000151115
0.00121722
0.000115158
0.00121054
7.88454e-05
0.00120699
4.21918e-05
0.00120661
5.21264e-06
-3.20749e-05
0.00120942
0.00143257
0.000495475
0.00139674
0.000460453
0.00136368
0.000424957
0.00133341
0.000388993
0.00130599
0.000352568
0.00128145
0.000315688
0.00125981
0.000278363
0.00124112
0.000240602
0.00122541
0.000202417
0.00121271
0.000163819
0.00120304
0.000124821
0.00119645
8.5437e-05
0.00119296
4.5683e-05
0.0011926
5.57575e-06
-3.48663e-05
0.00119539
0.0014157
0.000533567
0.00138031
0.000495845
0.00134765
0.000457614
0.00131776
0.00041888
0.00129068
0.000379648
0.00126644
0.000339927
0.00124508
0.000299727
0.00122663
0.000259058
0.00121111
0.000217931
0.00119857
0.000176359
0.00118904
0.000134356
0.00118254
9.19373e-05
0.0011791
4.91198e-05
0.00117875
5.92153e-06
-3.76377e-05
0.00118153
0.00139903
0.000571191
0.00136407
0.000530802
0.00133182
0.000489869
0.0013023
0.000448397
0.00127556
0.000406392
0.00125162
0.000363865
0.00123052
0.000320824
0.0012123
0.00027728
0.00119699
0.000233246
0.00118461
0.000188736
0.0011752
0.000143765
0.00116879
9.83476e-05
0.00116541
5.25029e-05
0.00116508
6.25013e-06
-4.03893e-05
0.00116783
0.00138256
0.000608353
0.00134803
0.000565329
0.00131618
0.000521725
0.00128702
0.000477548
0.00126061
0.000432804
0.00123697
0.000387503
0.00121614
0.000341655
0.00119815
0.000295273
0.00118303
0.000248367
0.00117081
0.000200954
0.00116153
0.000153049
0.00115521
0.000104669
0.00115187
5.58331e-05
0.00115156
6.56217e-06
-4.3121e-05
0.00115429
0.00136628
0.000645057
0.00133218
0.000599429
0.00130072
0.000553187
0.00127193
0.000506338
0.00124585
0.000458888
0.0012225
0.000410847
0.00120193
0.000362226
0.00118417
0.000313038
0.00116924
0.000263295
0.00115718
0.000213014
0.00114802
0.00016221
0.00114178
0.000110902
0.00113851
5.91112e-05
0.00113821
6.85785e-06
-4.58331e-05
0.00114092
0.0013502
0.00068131
0.00131652
0.000633109
0.00128545
0.00058426
0.00125701
0.00053477
0.00123126
0.000484646
0.0012082
0.000433899
0.00118789
0.000382539
0.00117035
0.000330578
0.00115561
0.000278033
0.00114371
0.000224917
0.00113467
0.00017125
0.00112852
0.00011705
0.0011253
6.23378e-05
0.00112502
7.13761e-06
-4.85256e-05
0.00112771
0.00133431
0.000717115
0.00130105
0.000666372
0.00127036
0.000614949
0.00124228
0.00056285
0.00121684
0.000510085
0.00119408
0.000456663
0.00117402
0.000402596
0.0011567
0.000347897
0.00114215
0.000292582
0.0011304
0.000236667
0.00112148
0.00018017
0.00111542
0.000123111
0.00111224
6.55139e-05
0.00111198
7.40166e-06
-5.11982e-05
0.00111465
0.00131861
0.000752479
0.00128576
0.000699225
0.00125545
0.000645257
0.00122772
0.000590581
0.0012026
0.000535206
0.00118012
0.000479142
0.00116031
0.000422401
0.00114321
0.000364997
0.00112885
0.000306946
0.00111725
0.000248264
0.00110845
0.000188972
0.00110247
0.000129089
0.00109934
6.86403e-05
0.0010991
7.65074e-06
-5.38514e-05
0.00110175
0.0013031
0.000787406
0.00127065
0.000731671
0.00124072
0.000675189
0.00121333
0.000617968
0.00118852
0.000560015
0.00116633
0.000501341
0.00114677
0.000441958
0.00112988
0.000381881
0.0011157
0.000321127
0.00110426
0.000259712
0.00109557
0.000197657
0.00108968
0.000134984
0.0010866
7.17178e-05
0.00108637
7.88498e-06
-5.64851e-05
0.001089
0.00128777
0.000821903
0.00125573
0.000763716
0.00122617
0.000704751
0.00119912
0.000645014
0.00117462
0.000584514
0.0011527
0.000523261
0.00113339
0.000461269
0.00111672
0.000398552
0.00110272
0.000335126
0.00109142
0.000271011
0.00108285
0.000206227
0.00107703
0.000140797
0.001074
7.47471e-05
0.00107379
8.10478e-06
-5.90991e-05
0.0010764
0.00127263
0.000855973
0.00124098
0.000795365
0.00121179
0.000733946
0.00118507
0.000671725
0.00116088
0.000608708
0.00113923
0.000544908
0.00112017
0.000480338
0.00110371
0.000415012
0.00108988
0.000348948
0.00107873
0.000282164
0.00107027
0.000214684
0.00106454
0.00014653
0.00106156
7.77293e-05
0.00106135
8.31066e-06
-6.16935e-05
0.00106395
0.00125767
0.000889622
0.00122641
0.000826621
0.00119758
0.000762779
0.0011712
0.000698103
0.00114731
0.000632601
0.00112593
0.000566285
0.0011071
0.000499167
0.00109085
0.000431264
0.0010772
0.000362593
0.00106619
0.000293174
0.00105785
0.000223029
0.0010522
0.000152184
0.00104926
8.06649e-05
0.00104907
8.50305e-06
-6.42683e-05
0.00105164
0.00124289
0.000922856
0.00121202
0.000857491
0.00118354
0.000791255
0.00115749
0.000724154
0.00113389
0.000656196
0.00111279
0.000587394
0.00109419
0.00051776
0.00107815
0.000447311
0.00106467
0.000376064
0.00105381
0.000304041
0.00104557
0.000231264
0.00104
0.000157759
0.00103711
8.35548e-05
0.00103693
8.68237e-06
-6.68234e-05
0.00103948
0.00122828
0.000955679
0.00119779
0.000887979
0.00116967
0.000819378
0.00114394
0.000749881
0.00112064
0.000679498
0.0010998
0.000608239
0.00108144
0.00053612
0.00106559
0.000463155
0.00105229
0.000389364
0.00104156
0.000314768
0.00103344
0.00023939
0.00102794
0.000163258
0.00102509
8.64e-05
0.00102493
8.84908e-06
-6.93588e-05
0.00102746
0.00121385
0.000988096
0.00118374
0.00091809
0.00115597
0.000847152
0.00113056
0.000775289
0.00110755
0.000702509
0.00108696
0.000628825
0.00106883
0.000554249
0.00105319
0.0004788
0.00104006
0.000402495
0.00102947
0.000325357
0.00102145
0.00024741
0.00101603
0.000168681
0.00101322
8.92012e-05
0.00101307
9.00349e-06
-7.18745e-05
0.00101559
0.0011996
0.00102011
0.00116986
0.000947829
0.00114243
0.000874583
0.00111734
0.000800382
0.00109461
0.000725235
0.00107428
0.000649153
0.00105638
0.000572152
0.00104093
0.000494248
0.00102797
0.00041546
0.00101751
0.00033581
0.0010096
0.000255324
0.00100425
0.00017403
0.00100149
9.19592e-05
0.00100135
9.14606e-06
-7.43704e-05
0.00100385
0.00118551
0.00105174
0.00115614
0.000977199
0.00112905
0.000901673
0.00110427
0.000825163
0.00108183
0.000747678
0.00106175
0.000669229
0.00104407
0.000589831
0.00102882
0.000509501
0.00101602
0.00042826
0.0010057
0.000346129
0.000997891
0.000263134
0.000992615
0.000179306
0.0009899
9.46748e-05
0.000989768
9.2775e-06
-7.68466e-05
0.000992245
0.0011716
0.00114259
0.00100621
0.00111584
0.000928429
0.00109136
0.000849637
0.0010692
0.000769842
0.00104937
0.000689054
0.00103191
0.000607289
0.00101685
0.000524563
0.00100421
0.000440898
0.000994028
0.000356315
0.00098632
0.000270843
0.000981116
0.000184509
0.000978442
9.73488e-05
0.000978321
9.39791e-06
-7.93028e-05
0.000980778
0.0011292
0.00103486
0.00110278
0.000954853
0.00107861
0.000873808
0.00105672
0.000791731
0.00103714
0.000708633
0.0010199
0.000624529
0.00100503
0.000539436
0.000992547
0.000453376
0.000982491
0.000366371
0.000974884
0.00027845
0.000969751
0.000189642
0.000967118
9.99822e-05
0.000967008
9.50764e-06
-8.1739e-05
0.000969444
0.00111597
0.00106315
0.00108988
0.000980951
0.001066
0.00089768
0.00104439
0.000813349
0.00102505
0.000727968
0.00100803
0.000641554
0.000993339
0.000554123
0.000981018
0.000465697
0.000971091
0.000376299
0.000963582
0.000285958
0.000958519
0.000194706
0.000955926
0.000102576
0.000955826
9.60753e-06
-8.41555e-05
0.000958242
0.0011029
0.0010911
0.00107713
0.00100673
0.00105355
0.000921257
0.0010322
0.000834699
0.00101311
0.000747064
0.000996294
0.000658367
0.000981791
0.000568626
0.000969625
0.000477862
0.000959824
0.0003861
0.000952413
0.000293369
0.000947419
0.0001997
0.000944864
0.00010513
0.000944774
9.69768e-06
-8.65518e-05
0.00094717
0.00108999
0.0011187
0.00106453
0.00103218
0.00104125
0.000944543
0.00102016
0.000855785
0.0010013
0.000765923
0.0009847
0.000674971
0.000970379
0.000582947
0.000958366
0.000489874
0.00094869
0.000395777
0.000941375
0.000300684
0.000936448
0.000204628
0.000933932
0.000107646
0.000933851
9.77847e-06
-8.8928e-05
0.000936227
0.00107723
0.00114596
0.00105209
0.00105733
0.00102909
0.000967541
0.00100827
0.00087661
0.000989642
0.000784548
0.000973244
0.000691368
0.000959101
0.00059709
0.00094724
0.000501736
0.000937686
0.000405331
0.000930466
0.000307904
0.000925605
0.000209489
0.000923126
0.000110124
0.000923054
9.85059e-06
-9.12842e-05
0.000925411
0.00106463
0.00117289
0.0010398
0.00108216
0.00101708
0.000990256
0.000996513
0.000897179
0.000978118
0.000802943
0.000961924
0.000707563
0.000947957
0.000611057
0.000936244
0.000513449
0.000926811
0.000414763
0.000919684
0.000315031
0.000914888
0.000214285
0.000912447
0.000112565
0.000912383
9.91418e-06
-9.36201e-05
0.000914719
0.00105218
0.00119949
0.00102765
0.00110669
0.00100521
0.00101269
0.000984899
0.000917494
0.000966731
0.000821111
0.000950737
0.000723557
0.000936944
0.000624851
0.000925377
0.000525015
0.000916064
0.000424077
0.000909029
0.000322066
0.000904297
0.000219017
0.000901891
0.00011497
0.000901836
9.96981e-06
-9.5936e-05
0.000904152
0.00103988
0.00122576
0.00101565
0.00113092
0.000993488
0.00103485
0.000973423
0.000937559
0.000955479
0.000839055
0.000939682
0.000739353
0.00092606
0.000638473
0.000914638
0.000536437
0.000905442
0.000433273
0.000898497
0.000329011
0.000893828
0.000223687
0.000891458
0.00011734
0.00089141
1.00177e-05
-9.82315e-05
0.000893706
0.00102772
0.0012517
0.00100379
0.00115485
0.000981902
0.00105674
0.000962083
0.000957378
0.00094436
0.000856778
0.000928758
0.000754955
0.000915305
0.000651927
0.000904025
0.000547717
0.000894945
0.000442353
0.000888089
0.000335867
0.000883481
0.000228294
0.000881146
0.000119676
0.000881106
1.00583e-05
-0.000100507
0.000883381
0.00101571
0.00127733
0.000992073
0.00117849
0.000970454
0.00107836
0.000950878
0.000976953
0.000933373
0.000874283
0.000917963
0.000770364
0.000904676
0.000665214
0.000893537
0.000558857
0.00088457
0.00045132
0.000877802
0.000342635
0.000873255
0.00023284
0.000870954
0.000121977
0.00087092
1.00921e-05
-0.000102762
0.000873175
0.00100385
0.00130265
0.000980497
0.00120183
0.000959142
0.00109971
0.000939806
0.000996289
0.000922516
0.000891574
0.000907296
0.000785584
0.000894172
0.000678337
0.000883171
0.000569858
0.000874317
0.000460174
0.000867634
0.000349318
0.000863147
0.000237327
0.000860879
0.000124245
0.000860852
1.01193e-05
-0.000104997
0.000863087
0.000992122
0.00132765
0.000969059
0.0012249
0.000947965
0.00112081
0.000928866
0.00101539
0.000911787
0.000908653
0.000896753
0.000800617
0.000883792
0.000691299
0.000872926
0.000580723
0.000864183
0.000468918
0.000857585
0.000355915
0.000853157
0.000241755
0.000850921
0.000126481
0.0008509
1.01402e-05
-0.000107211
0.000853115
0.00098054
0.00135236
0.000957758
0.00124768
0.000936922
0.00114164
0.000918055
0.00103425
0.000901185
0.000925524
0.000886336
0.000815466
0.000873533
0.000704102
0.000862802
0.000591454
0.000854167
0.000477552
0.000847652
0.00036243
0.000843282
0.000246126
0.000841079
0.000128684
0.000841063
1.01554e-05
-0.000109405
0.000843257
0.000969097
0.00137676
0.000946592
0.00127018
0.000926009
0.00116223
0.000907373
0.00105289
0.000890708
0.000942189
0.00087604
0.000830134
0.000863394
0.000716748
0.000852795
0.000602053
0.000844268
0.00048608
0.000837835
0.000368862
0.000833522
0.000250439
0.000831349
0.000130857
0.00083134
1.01649e-05
-0.000111579
0.000833514
0.00095779
0.00140086
0.000935559
0.00129241
0.000915227
0.00118256
0.000896817
0.0010713
0.000880355
0.00095865
0.000865866
0.000844623
0.000853375
0.000729239
0.000842906
0.000612522
0.000834484
0.000494502
0.000828133
0.000375214
0.000823875
0.000254697
0.000821733
0.000132998
0.000821729
1.01692e-05
-0.000113733
0.000823882
0.00094662
0.00142467
0.000924658
0.00131438
0.000904572
0.00120264
0.000886386
0.00108949
0.000870124
0.000974912
0.000855811
0.000858936
0.000843472
0.000741578
0.000833132
0.000622863
0.000824814
0.00050282
0.000818542
0.000381486
0.000814339
0.0002589
0.000812227
0.00013511
0.000812228
1.01686e-05
-0.000115866
0.000814361
0.000935583
0.0014482
0.000913887
0.00133607
0.000894045
0.00122249
0.000876078
0.00110745
0.000860014
0.000990977
0.000845875
0.000873075
0.000833686
0.000753767
0.000823472
0.000633077
0.000815257
0.000511036
0.000809063
0.000387679
0.000804914
0.000263049
0.000802831
0.000137193
0.000802836
1.01635e-05
-0.000117979
0.000804949
0.000924678
0.00147144
0.000903245
0.0013575
0.000883642
0.00124209
0.000865893
0.0011252
0.000850022
0.00100685
0.000836055
0.000887043
0.000824014
0.000765807
0.000813925
0.000643166
0.00080581
0.00051915
0.000799694
0.000393796
0.000795598
0.000267145
0.000793544
0.000139247
0.000793553
1.0154e-05
-0.000120071
0.000795646
0.000913903
0.00149439
0.000892729
0.00137868
0.000873362
0.00126146
0.000855828
0.00114274
0.000840149
0.00102253
0.00082635
0.000900841
0.000814455
0.000777702
0.000804489
0.000653133
0.000796474
0.000527165
0.000790433
0.000399837
0.000786389
0.000271189
0.000784363
0.000141272
0.000784377
1.01405e-05
-0.000122144
0.000786449
0.000903258
0.00151708
0.000882338
0.0013996
0.000863205
0.00128059
0.000845881
0.00116006
0.000830391
0.00103802
0.000816759
0.000914474
0.000805008
0.000789452
0.000795163
0.000662978
0.000787245
0.000535083
0.000781279
0.000405803
0.000777286
0.000275182
0.000775288
0.00014327
0.000775306
1.01232e-05
-0.000124196
0.000777358
0.000892739
0.00153949
0.000872071
0.00142027
0.000853168
0.00129949
0.000836052
0.00117718
0.000820749
0.00105332
0.00080728
0.000927942
0.000795671
0.000801061
0.000785945
0.000672705
0.000778124
0.000542904
0.000772231
0.000411696
0.000768289
0.000279125
0.000766318
0.000145241
0.000766339
1.01023e-05
-0.000126228
0.000768371
0.000882347
0.00156163
0.000861926
0.00144069
0.000843249
0.00131817
0.000826339
0.00119409
0.000811219
0.00106844
0.000797913
0.000941248
0.000786443
0.000812531
0.000776834
0.000682314
0.000769109
0.00055063
0.000763288
0.000417516
0.000759395
0.000283018
0.000757451
0.000147186
0.000757475
1.00782e-05
-0.00012824
0.000759487
0.000872078
0.0015835
0.000851902
0.00146086
0.000833449
0.00133662
0.000816741
0.00121079
0.000801802
0.00108338
0.000788655
0.000954395
0.000777323
0.000823862
0.00076783
0.000691807
0.000760198
0.000558262
0.000754449
0.000423265
0.000750604
0.000286862
0.000748686
0.000149104
0.000748713
1.00512e-05
-0.000130231
0.000750705
0.000861932
0.00160512
0.000841997
0.0014808
0.000823763
0.00135486
0.000807255
0.0012273
0.000792494
0.00109814
0.000779505
0.000967385
0.000768309
0.000835058
0.00075893
0.000701186
0.00075139
0.000565802
0.000745711
0.000428944
0.000741915
0.000290658
0.000740022
0.000150997
0.000740051
1.00213e-05
-0.000132203
0.000742023
0.000851906
0.00162647
0.000832209
0.00150049
0.000814193
0.00137287
0.000797881
0.00124361
0.000783296
0.00111272
0.000770462
0.00098022
0.0007594
0.00084612
0.000750133
0.000710453
0.000742684
0.000573251
0.000737074
0.000434553
0.000733325
0.000294407
0.000731457
0.000152865
0.000731489
9.98868e-06
-0.000134155
0.000733441
0.000842
0.00164757
0.000822537
0.00151996
0.000804735
0.00139068
0.000788618
0.00125973
0.000774206
0.00112714
0.000761524
0.000992901
0.000750594
0.00085705
0.000741438
0.000719609
0.000734079
0.00058061
0.000728537
0.000440095
0.000724834
0.00029811
0.000722991
0.000154709
0.000723025
9.95378e-06
-0.000136087
0.000724957
0.000832212
0.00166843
0.00081298
0.00153919
0.000795389
0.00140827
0.000779463
0.00127566
0.000765223
0.00114138
0.000752691
0.00100543
0.000741891
0.00086785
0.000732845
0.000728655
0.000725573
0.000587882
0.000720098
0.00044557
0.000716441
0.000301767
0.000714622
0.000156529
0.000714659
9.91671e-06
-0.000137999
0.000716571
0.000822541
0.00168903
0.000803536
0.00155819
0.000786154
0.00142565
0.000770415
0.0012914
0.000756344
0.00115545
0.000743961
0.00101782
0.000733289
0.000878522
0.00072435
0.000737594
0.000717166
0.000595066
0.000711757
0.000450979
0.000708145
0.00030538
0.000706349
0.000158325
0.000706388
9.87761e-06
-0.000139892
0.00070828
0.000812984
0.00170939
0.000794204
0.00157697
0.000777027
0.00144283
0.000761474
0.00130695
0.000747569
0.00116935
0.000735333
0.00103005
0.000724787
0.000889068
0.000715955
0.000746427
0.000708856
0.000602165
0.000703512
0.000456322
0.000699944
0.000308948
0.000698171
0.000160098
0.000698212
9.83664e-06
-0.000141765
0.000700085
0.00080354
0.00172951
0.000784982
0.00159553
0.000768007
0.0014598
0.000752638
0.00132232
0.000738897
0.00118309
0.000726805
0.00104214
0.000716384
0.000899488
0.000707656
0.000755155
0.000700642
0.000609179
0.000695362
0.000461602
0.000691837
0.000312473
0.000690087
0.000161849
0.00069013
9.79415e-06
-0.000143618
0.000691983
0.000794206
0.000775866
0.000759092
0.000743904
0.000730325
0.000718375
0.000708078
0.000699453
0.000692522
0.000687306
0.000683824
0.000682096
0.00068214
0.000683974
0.00136623
-6.63923e-06
0.00137652
-1.02873e-05
0.00139047
-1.39591e-05
0.00140813
-1.76527e-05
0.00142949
-2.13657e-05
0.00145459
-2.50952e-05
0.00148343
-2.88388e-05
0.00151602
-3.25939e-05
0.00155238
-3.63572e-05
0.0015925
-4.01258e-05
0.0016364
-4.38969e-05
0.00168407
-4.76674e-05
0.0017355
-5.14339e-05
0.0017907
-5.51937e-05
0.00184964
-5.89435e-05
0.00191232
-6.26803e-05
0.00197872
-6.64012e-05
0.00204882
-7.01032e-05
0.00212261
-7.37835e-05
0.00220005
-7.74395e-05
0.00228112
-8.10682e-05
0.00236578
-8.46676e-05
0.00245402
-8.82346e-05
0.00254578
-9.17672e-05
0.00264105
-9.52632e-05
0.00273977
-9.87201e-05
0.0028419
-0.000102136
0.00294741
-0.000105509
0.00305625
-0.000108837
0.00316837
-0.000112117
0.00328372
-0.000115349
0.00340225
-0.00011853
0.00352391
-0.000121659
0.00364864
-0.000124733
-0.000127751
0.0013503
-1.32134e-05
0.00136048
-2.04664e-05
0.00137428
-2.77671e-05
0.00139174
-3.51108e-05
0.00141287
-4.24927e-05
0.00143768
-4.9908e-05
0.00146619
-5.73511e-05
0.00149842
-6.48167e-05
0.00153436
-7.22989e-05
0.00157402
-7.97916e-05
0.00161742
-8.72893e-05
0.00166453
-9.47854e-05
0.00171537
-0.000102274
0.00176993
-0.000109749
0.00182819
-0.000117204
0.00189014
-0.000124633
0.00195577
-0.00013203
0.00202506
-0.00013939
0.00209798
-0.000146707
0.00217452
-0.000153975
0.00225464
-0.000161189
0.00233832
-0.000168345
0.00242552
-0.000175436
0.00251621
-0.00018246
0.00261036
-0.00018941
0.00270792
-0.000196283
0.00280886
-0.000203074
0.00291313
-0.000209779
0.00302069
-0.000216395
0.00313149
-0.000222918
0.00324548
-0.000229344
0.00336262
-0.000235668
0.00348285
-0.000241889
0.00360612
-0.000248002
-0.000254003
0.00133456
-1.97231e-05
0.00134464
-3.0539e-05
0.00135829
-4.14255e-05
0.00137556
-5.23763e-05
0.00139645
-6.33841e-05
0.00142098
-7.44416e-05
0.00144917
-8.55407e-05
0.00148103
-9.66729e-05
0.00151656
-0.00010783
0.00155577
-0.000119003
0.00159867
-0.000130183
0.00164524
-0.00014136
0.00169549
-0.000152527
0.00174942
-0.000163673
0.001807
-0.000174789
0.00186824
-0.000185866
0.0019331
-0.000196897
0.00200158
-0.000207871
0.00207366
-0.000218781
0.0021493
-0.000229618
0.00222849
-0.000240375
0.00231119
-0.000251044
0.00239737
-0.000261619
0.002487
-0.000272091
0.00258004
-0.000282454
0.00267646
-0.000292702
0.00277622
-0.000302828
0.00287927
-0.000312827
0.00298556
-0.000322693
0.00309506
-0.000332419
0.00320772
-0.000342001
0.00332349
-0.000351433
0.00344231
-0.000360709
0.00356413
-0.000369825
-0.000378775
0.00131902
-2.61694e-05
0.00132899
-4.05059e-05
0.0013425
-5.49363e-05
0.00135958
-6.94518e-05
0.00138024
-8.40428e-05
0.00140449
-9.86994e-05
0.00143236
-0.000113411
0.00146386
-0.000128167
0.00149898
-0.000142956
0.00153775
-0.000157765
0.00158015
-0.000172584
0.00162619
-0.000187399
0.00167586
-0.0002022
0.00172916
-0.000216973
0.00178608
-0.000231707
0.0018466
-0.00024639
0.00191071
-0.00026101
0.0019784
-0.000275555
0.00204963
-0.000290015
0.0021244
-0.00030438
0.00220266
-0.000318637
0.00228439
-0.000332779
0.00236957
-0.000346794
0.00245815
-0.000360674
0.00255011
-0.00037441
0.0026454
-0.000387993
0.00274399
-0.000401416
0.00284583
-0.000414669
0.00295088
-0.000427746
0.0030591
-0.000440638
0.00317044
-0.000453339
0.00328485
-0.000465841
0.00340227
-0.000478138
0.00352267
-0.000490222
-0.000502087
0.00130368
-3.2553e-05
0.00131354
-5.03687e-05
0.0013269
-6.83012e-05
0.00134379
-8.63392e-05
0.00136422
-0.000104471
0.00138821
-0.000122685
0.00141576
-0.000140967
0.0014469
-0.000159303
0.00148162
-0.000177681
0.00151994
-0.000196084
0.00156185
-0.000214498
0.00160736
-0.000232909
0.00165646
-0.000251301
0.00170915
-0.000269658
0.00176541
-0.000287967
0.00182523
-0.000306212
0.0018886
-0.000324379
0.0019555
-0.000342454
0.00202591
-0.000360422
0.0020998
-0.000378271
0.00217715
-0.000395988
0.00225793
-0.00041356
0.00234211
-0.000430976
0.00242966
-0.000448223
0.00252054
-0.000465292
0.00261472
-0.000482171
0.00271215
-0.00049885
0.0028128
-0.00051532
0.00291663
-0.00053157
0.00302358
-0.000547591
0.00313362
-0.000563375
0.00324669
-0.000578912
0.00336274
-0.000594194
0.00348173
-0.000609212
-0.000623959
0.00128852
-3.88746e-05
0.00129828
-6.01286e-05
0.0013115
-8.15218e-05
0.0013282
-0.000103041
0.0013484
-0.000124672
0.00137212
-0.000146401
0.00139936
-0.000168211
0.00143014
-0.000190086
0.00146447
-0.00021201
0.00150235
-0.000233964
0.00154379
-0.000255932
0.00158877
-0.000277895
0.00163731
-0.000299836
0.00168938
-0.000321735
0.00174499
-0.000343577
0.00180412
-0.000365342
0.00186676
-0.000387014
0.00193288
-0.000408575
0.00200247
-0.000430011
0.0020755
-0.000451303
0.00215195
-0.000472438
0.00223179
-0.0004934
0.00231499
-0.000514176
0.00240152
-0.000534752
0.00249134
-0.000555114
0.00258442
-0.000575249
0.00268072
-0.000595147
0.00278019
-0.000614795
0.0028828
-0.000634181
0.00298851
-0.000653295
0.00309726
-0.000672126
0.00320901
-0.000690663
0.00332371
-0.000708895
0.00344131
-0.000726814
-0.000744408
0.00127354
-4.51349e-05
0.0012832
-6.97868e-05
0.00129628
-9.46e-05
0.0013128
-0.000119559
0.00133277
-0.000144649
0.00135622
-0.000169851
0.00138316
-0.000195147
0.00141359
-0.000220519
0.00144753
-0.000245947
0.00148498
-0.000271412
0.00152594
-0.000296891
0.00157041
-0.000322365
0.00161838
-0.000347812
0.00166986
-0.000373212
0.00172483
-0.000398544
0.00178327
-0.000423788
0.00184518
-0.000448923
0.00191054
-0.000473931
0.00197932
-0.000498791
0.0020515
-0.000523487
0.00212706
-0.000547999
0.00220598
-0.000572312
0.00228821
-0.000596408
0.00237373
-0.000620272
0.0024625
-0.000643888
0.0025545
-0.000667243
0.00264967
-0.000690321
0.00274798
-0.00071311
0.0028494
-0.000735596
0.00295387
-0.000757766
0.00306135
-0.000779608
0.0031718
-0.00080111
0.00328516
-0.00082226
0.0034014
-0.000843045
-0.000863455
0.00125875
-5.13346e-05
0.00126831
-7.93443e-05
0.00128125
-0.000107537
0.00129758
-0.000135896
0.00131734
-0.000164403
0.00134052
-0.000193038
0.00136716
-0.00022178
0.00139725
-0.000250608
0.0014308
-0.000279499
0.00146782
-0.000308431
0.00150831
-0.00033738
0.00155226
-0.000366323
0.00159969
-0.000395236
0.00165057
-0.000424095
0.00170491
-0.000452877
0.00176268
-0.000481558
0.00182387
-0.000510116
0.00188847
-0.000538529
0.00195645
-0.000566775
0.0020278
-0.000594833
0.00210248
-0.000622683
0.00218048
-0.000650306
0.00226175
-0.000677684
0.00234628
-0.000704797
0.00243402
-0.00073163
0.00252494
-0.000758165
0.00261901
-0.000784387
0.00271618
-0.00081028
0.00281641
-0.000835829
0.00291966
-0.000861021
0.00302589
-0.000885839
0.00313506
-0.000910272
0.0032471
-0.000934305
0.00336198
-0.000957924
-0.000981117
0.00124414
-5.74747e-05
0.0012536
-8.88024e-05
0.0012664
-0.000120335
0.00128255
-0.000152054
0.00130209
-0.000183938
0.00132502
-0.000215965
0.00135135
-0.000248112
0.00138109
-0.000280355
0.00141426
-0.000312669
0.00145086
-0.000345028
0.00149089
-0.000377407
0.00153434
-0.000409778
0.00158122
-0.000442116
0.00163152
-0.000474393
0.00168523
-0.000506583
0.00174233
-0.000538662
0.00180281
-0.000570602
0.00186667
-0.00060238
0.00193386
-0.000633971
0.00200438
-0.000665352
0.0020782
-0.000696501
0.00215529
-0.000727395
0.00223562
-0.000758015
0.00231916
-0.00078834
0.00240588
-0.000818351
0.00249575
-0.00084803
0.00258872
-0.000877359
0.00268476
-0.00090632
0.00278383
-0.000934897
0.00288588
-0.000963074
0.00299088
-0.000990835
0.00309877
-0.00101816
0.00320951
-0.00104505
0.00332306
-0.00107147
-0.00109741
0.0012297
-6.35554e-05
0.00123906
-9.81623e-05
0.00125172
-0.000132996
0.0012677
-0.000168034
0.00128702
-0.000203256
0.00130969
-0.000238635
0.00133573
-0.000274147
0.00136514
-0.000309765
0.00139793
-0.000345461
0.00143411
-0.000381208
0.00147368
-0.000416975
0.00151664
-0.000452735
0.00156298
-0.000488456
0.0016127
-0.000524112
0.00166578
-0.000559671
0.00172223
-0.000595106
0.00178201
-0.000630389
0.00184513
-0.000665492
0.00191155
-0.000700389
0.00198125
-0.000735054
0.00205421
-0.000769462
0.0021304
-0.00080359
0.0022098
-0.000837415
0.00229238
-0.000870913
0.00237809
-0.000904066
0.00246691
-0.000936851
0.00255881
-0.000969251
0.00265373
-0.00100124
0.00275165
-0.00103281
0.00285252
-0.00106394
0.00295629
-0.00109461
0.00306293
-0.0011248
0.00317239
-0.00115451
0.00328462
-0.0011837
-0.00121236
0.00121544
-6.95777e-05
0.00122471
-0.000107425
0.00123723
-0.00014552
0.00125304
-0.00018384
0.00127214
-0.000222359
0.00129455
-0.000261052
0.0013203
-0.000299889
0.00134937
-0.000338842
0.00138179
-0.000377881
0.00141756
-0.000416975
0.00145668
-0.000456091
0.00149914
-0.000495199
0.00154495
-0.000534265
0.0015941
-0.000573259
0.00164657
-0.000612147
0.00170237
-0.0006509
0.00176146
-0.000689486
0.00182385
-0.000727876
0.0018895
-0.00076604
0.00195839
-0.00080395
0.00203051
-0.00084158
0.00210582
-0.000878903
0.0021843
-0.000915894
0.00226592
-0.00095253
0.00235064
-0.000988787
0.00243843
-0.00102464
0.00252926
-0.00106008
0.00262308
-0.00109507
0.00271986
-0.0011296
0.00281956
-0.00116364
0.00292213
-0.00119719
0.00302754
-0.00123021
0.00313573
-0.00126269
0.00324665