/*--------------------------------*- C++ -*----------------------------------*\
  =========                 |
  \\      /  F ield         | OpenFOAM: The Open Source CFD Toolbox
   \\    /   O peration     | Website:  https://openfoam.org
    \\  /    A nd           | Version:  7
     \\/     M anipulation  |
\*---------------------------------------------------------------------------*/
FoamFile
{
    version     2.0;
    format      ascii;
    class       volScalarField;
    location    "35";
    object      p;
}
// * * * * * * * * * * * * * * * * * * * * * * * * * * * * * * * * * * * * * //

dimensions      [0 2 -2 0 0 0 0];

internalField   nonuniform List<scalar> 
2625
(
-0.0186508
-0.0175577
-0.0164948
-0.0154608
-0.0144549
-0.0134754
-0.0125226
-0.0115929
-0.0106903
-0.00980538
-0.00895226
-0.00810433
-0.00730554
-0.00647945
-0.00575387
-0.0049141
-0.00431568
-0.0033749
-0.00304273
-0.00178807
-0.00206089
1.32416e-05
-0.00165957
0.00241013
-0.0644245
-0.0620296
-0.0596975
-0.0574277
-0.0552193
-0.0530715
-0.0509834
-0.0489539
-0.0469821
-0.0450667
-0.0432064
-0.0414002
-0.0396467
-0.0379445
-0.0362923
-0.0346887
-0.0331324
-0.0316219
-0.0301559
-0.028733
-0.0273517
-0.0260107
-0.0247086
-0.0234441
-0.0222159
-0.0210226
-0.0198631
-0.018736
-0.0176401
-0.0165745
-0.0155376
-0.014529
-0.0135466
-0.0125911
-0.0116588
-0.0107534
-0.00986616
-0.00901018
-0.00816059
-0.00735846
-0.00653225
-0.00580157
-0.00496559
-0.00435676
-0.00342989
-0.00307224
-0.00185815
-0.00206392
-0.000100834
-0.00159473
0.00218163
-0.0644549
-0.0620724
-0.0597515
-0.0574915
-0.0552917
-0.0531515
-0.05107
-0.0490462
-0.047079
-0.0451675
-0.0433104
-0.0415066
-0.0397548
-0.0380538
-0.0364022
-0.0347988
-0.0332422
-0.0317311
-0.030264
-0.0288397
-0.0274567
-0.0261138
-0.0248096
-0.0235428
-0.0223121
-0.0211163
-0.0199541
-0.0188242
-0.0177255
-0.016657
-0.0156173
-0.0146057
-0.0136205
-0.0126621
-0.0117271
-0.0108189
-0.00992918
-0.00907027
-0.00821892
-0.00741336
-0.00658696
-0.00585109
-0.00501882
-0.0043995
-0.00348647
-0.00310322
-0.00192971
-0.00206815
-0.000216449
-0.00153032
0.00195013
-0.0644824
-0.0621131
-0.0598039
-0.0575544
-0.0553639
-0.0532318
-0.0511573
-0.0491395
-0.0471774
-0.0452701
-0.0434164
-0.0416153
-0.0398655
-0.0381658
-0.0365151
-0.034912
-0.0333552
-0.0318434
-0.0303753
-0.0289497
-0.0275651
-0.0262203
-0.024914
-0.0236448
-0.0224117
-0.0212132
-0.0200482
-0.0189155
-0.0178139
-0.0167424
-0.0156998
-0.0146852
-0.0136971
-0.0127357
-0.0117979
-0.0108867
-0.00999451
-0.00913258
-0.00827938
-0.0074703
-0.00664361
-0.00590249
-0.00507382
-0.00444396
-0.00354464
-0.00313578
-0.00200263
-0.00207381
-0.000333281
-0.0014668
0.00171625
-0.0645067
-0.0621513
-0.0598546
-0.0576162
-0.0554356
-0.0533121
-0.0512451
-0.0492338
-0.0472772
-0.0453744
-0.0435245
-0.0417263
-0.0399787
-0.0382806
-0.0366309
-0.0350281
-0.0334713
-0.031959
-0.03049
-0.029063
-0.0276768
-0.0263301
-0.0250216
-0.0237502
-0.0225145
-0.0213133
-0.0201455
-0.0190099
-0.0179054
-0.0168309
-0.0157852
-0.0147675
-0.0137764
-0.0128119
-0.0118712
-0.010957
-0.0100622
-0.00919717
-0.00834203
-0.00752935
-0.00670226
-0.00595583
-0.00513062
-0.00449021
-0.00360435
-0.00317006
-0.00207677
-0.00208115
-0.000450999
-0.00140463
0.00148063
-0.0645273
-0.0621867
-0.0599033
-0.0576767
-0.0555065
-0.0533923
-0.0513333
-0.0493289
-0.0473782
-0.0454804
-0.0436345
-0.0418395
-0.0400944
-0.0383981
-0.0367495
-0.0351474
-0.0335905
-0.0320778
-0.0306079
-0.0291797
-0.027792
-0.0264434
-0.0251328
-0.0238589
-0.0226207
-0.0214168
-0.0202461
-0.0191076
-0.018
-0.0169224
-0.0158735
-0.0148528
-0.0138585
-0.0128909
-0.0119472
-0.0110299
-0.0101324
-0.00926411
-0.00840691
-0.00759056
-0.00676294
-0.00601116
-0.00518922
-0.00453834
-0.00366558
-0.00320616
-0.00215201
-0.00209039
-0.000569263
-0.00134427
0.00124395
-0.0645441
-0.0622191
-0.0599496
-0.0577356
-0.0555766
-0.0534721
-0.0514217
-0.0494247
-0.0474803
-0.0455879
-0.0437464
-0.0419549
-0.0402126
-0.0385183
-0.036871
-0.0352696
-0.033713
-0.0321999
-0.0307293
-0.0292999
-0.0279106
-0.0265601
-0.0252474
-0.0239712
-0.0227303
-0.0215237
-0.0203501
-0.0192085
-0.0180978
-0.017017
-0.015965
-0.014941
-0.0139435
-0.0129726
-0.0120259
-0.0111053
-0.010205
-0.00933345
-0.00847408
-0.00765399
-0.0068257
-0.00606854
-0.00524965
-0.00458839
-0.00372831
-0.00324418
-0.00222822
-0.00210175
-0.000687728
-0.0012862
0.00100693
-0.0645565
-0.062248
-0.0599934
-0.0577926
-0.0556454
-0.0535514
-0.0515102
-0.0495211
-0.0475835
-0.0456968
-0.04386
-0.0420725
-0.0403332
-0.0386412
-0.0369954
-0.0353949
-0.0338386
-0.0323253
-0.030854
-0.0294235
-0.0280327
-0.0266804
-0.0253655
-0.0240869
-0.0228434
-0.021634
-0.0204575
-0.0193128
-0.0181989
-0.0171149
-0.0160596
-0.0150322
-0.0140315
-0.0130573
-0.0121073
-0.0111834
-0.0102802
-0.00940525
-0.00854359
-0.00771969
-0.00689056
-0.00612802
-0.00531192
-0.00464044
-0.00379251
-0.00328423
-0.00230527
-0.00211543
-0.000806047
-0.00123088
0.000770306
-0.0645642
-0.0622731
-0.0600342
-0.0578475
-0.0557128
-0.0536299
-0.0515984
-0.0496178
-0.0476875
-0.0458069
-0.0439754
-0.042192
-0.040456
-0.0387665
-0.0371226
-0.0355232
-0.0339673
-0.032454
-0.0309821
-0.0295505
-0.0281583
-0.0268042
-0.0254872
-0.0242062
-0.0229601
-0.0217478
-0.0205683
-0.0194205
-0.0183034
-0.017216
-0.0161573
-0.0151265
-0.0141224
-0.0131448
-0.0121915
-0.0112642
-0.0103579
-0.00947955
-0.00861547
-0.00778771
-0.00695757
-0.00618966
-0.00537605
-0.00469455
-0.00385814
-0.00332639
-0.00238303
-0.00213165
-0.000923875
-0.00117874
0.00053484
-0.0645669
-0.0622941
-0.0600718
-0.0578999
-0.0557785
-0.0537074
-0.0516862
-0.0497146
-0.0477921
-0.0459182
-0.0440922
-0.0423135
-0.0405811
-0.0388944
-0.0372525
-0.0356544
-0.0340992
-0.0325859
-0.0311136
-0.0296811
-0.0282874
-0.0269316
-0.0256125
-0.024329
-0.0230803
-0.0218651
-0.0206826
-0.0195316
-0.0184112
-0.0173204
-0.0162583
-0.015224
-0.0142164
-0.0132352
-0.0122786
-0.0113478
-0.0104384
-0.00955642
-0.00868978
-0.00785808
-0.00702675
-0.00625348
-0.00544204
-0.00475075
-0.00392517
-0.00337076
-0.00246138
-0.00215058
-0.00104087
-0.00113022
0.000301314
-0.0645639
-0.0623105
-0.0601056
-0.0579495
-0.0558422
-0.0537835
-0.0517734
-0.0498114
-0.0478973
-0.0460305
-0.0442105
-0.0424367
-0.0407083
-0.0390248
-0.0373851
-0.0357885
-0.0342342
-0.0327211
-0.0312484
-0.029815
-0.0284201
-0.0270625
-0.0257413
-0.0244555
-0.0232041
-0.0219861
-0.0208004
-0.0196462
-0.0185224
-0.0174282
-0.0163625
-0.0153246
-0.0143134
-0.0133287
-0.0123685
-0.0114341
-0.0105215
-0.00963587
-0.00876655
-0.00793086
-0.00709813
-0.00631954
-0.0055099
-0.00480909
-0.00399358
-0.00341739
-0.00254019
-0.00217237
-0.0011567
-0.00108572
7.05245e-05
-0.064555
-0.0623219
-0.0601355
-0.0579959
-0.0559035
-0.053858
-0.0518596
-0.0499079
-0.0480026
-0.0461435
-0.0443299
-0.0425615
-0.0408375
-0.0391573
-0.0375202
-0.0359254
-0.0343721
-0.0328594
-0.0313865
-0.0299524
-0.0285562
-0.027197
-0.0258737
-0.0245856
-0.0233315
-0.0221106
-0.0209218
-0.0197643
-0.0186371
-0.0175393
-0.01647
-0.0154285
-0.0144136
-0.0134252
-0.0124614
-0.0115233
-0.0106073
-0.00971796
-0.0088458
-0.00800606
-0.00717174
-0.00638785
-0.00557965
-0.0048696
-0.00406332
-0.00346633
-0.00261935
-0.00219716
-0.00127103
-0.00104561
-0.000156725
-0.0645395
-0.0623279
-0.0601609
-0.0580388
-0.055962
-0.0539306
-0.0519445
-0.0500037
-0.048108
-0.046257
-0.0444504
-0.0426878
-0.0409685
-0.0392921
-0.0376578
-0.0360651
-0.034513
-0.0330009
-0.0315279
-0.0300931
-0.0286958
-0.027335
-0.0260098
-0.0247192
-0.0234625
-0.0222386
-0.0210467
-0.0198859
-0.0187552
-0.0176538
-0.0165809
-0.0155356
-0.014517
-0.0135247
-0.0125573
-0.0116154
-0.0106959
-0.00980271
-0.00892755
-0.00808372
-0.00724757
-0.00645844
-0.00565127
-0.00493231
-0.00413438
-0.00351764
-0.00269875
-0.00222508
-0.00138356
-0.00101025
-0.000379626
-0.0645172
-0.062328
-0.0601814
-0.0580778
-0.0560176
-0.0540009
-0.052028
-0.0500987
-0.0482131
-0.0463708
-0.0445717
-0.0428153
-0.0411012
-0.0394289
-0.0377978
-0.0362073
-0.0346567
-0.0331453
-0.0316724
-0.0302372
-0.0288388
-0.0274765
-0.0261493
-0.0248565
-0.0235971
-0.0223703
-0.0211752
-0.020011
-0.0188768
-0.0177718
-0.0166951
-0.015646
-0.0146235
-0.0136273
-0.0126561
-0.0117103
-0.0107872
-0.00989013
-0.00901184
-0.00816384
-0.00732566
-0.00653132
-0.00572476
-0.00499721
-0.00420671
-0.00357132
-0.00277828
-0.00225618
-0.00149399
-0.000979919
-0.000597379
-0.0644874
-0.0623218
-0.0601966
-0.0581124
-0.0560696
-0.0540686
-0.0521096
-0.0501926
-0.0483177
-0.0464847
-0.0446935
-0.0429438
-0.0412353
-0.0395674
-0.0379398
-0.0363519
-0.0348031
-0.0332927
-0.03182
-0.0303845
-0.0289852
-0.0276214
-0.0262923
-0.0249972
-0.0237352
-0.0225055
-0.0213072
-0.0201396
-0.0190018
-0.0178931
-0.0168126
-0.0157596
-0.0147332
-0.0137331
-0.0127579
-0.0118081
-0.0108813
-0.00998023
-0.00909866
-0.00824645
-0.00740599
-0.0066065
-0.00580012
-0.00506432
-0.00428027
-0.00362737
-0.00285784
-0.00229054
-0.00160204
-0.000954888
-0.000809192
-0.0644497
-0.0623088
-0.0602061
-0.0581422
-0.0561178
-0.0541333
-0.0521889
-0.0502849
-0.0484214
-0.0465983
-0.0448157
-0.0430732
-0.0413706
-0.0397076
-0.0380839
-0.0364988
-0.034952
-0.0334428
-0.0319706
-0.0305348
-0.0291347
-0.0277696
-0.0264388
-0.0251414
-0.0238768
-0.0226442
-0.0214428
-0.0202717
-0.0191303
-0.0180178
-0.0169334
-0.0158765
-0.0148461
-0.0138419
-0.0128627
-0.0119088
-0.0109782
-0.010073
-0.00918801
-0.00833152
-0.00748857
-0.00668395
-0.00587732
-0.00513361
-0.00435504
-0.00368579
-0.00293734
-0.00232815
-0.00170745
-0.00093536
-0.00101429
-0.0644037
-0.0622886
-0.0602094
-0.0581669
-0.0561618
-0.0541946
-0.0522657
-0.0503754
-0.048524
-0.0467114
-0.0449378
-0.043203
-0.0415069
-0.0398493
-0.0382297
-0.0366478
-0.0351033
-0.0335955
-0.032124
-0.0306882
-0.0292875
-0.0279211
-0.0265886
-0.0252891
-0.0240219
-0.0227863
-0.0215817
-0.0204072
-0.0192622
-0.0181459
-0.0170575
-0.0159965
-0.0149621
-0.0139537
-0.0129705
-0.0120124
-0.0110778
-0.0101685
-0.00927988
-0.00841905
-0.00757336
-0.00676367
-0.00595635
-0.00520505
-0.00443096
-0.00374653
-0.0030167
-0.00236901
-0.00180999
-0.000921493
-0.00121192
-0.0643488
-0.0622607
-0.0602061
-0.058186
-0.0562011
-0.0542521
-0.0523395
-0.0504637
-0.048625
-0.0468236
-0.0450597
-0.0433332
-0.041644
-0.039992
-0.038377
-0.0367987
-0.0352567
-0.0337507
-0.0322801
-0.0308444
-0.0294432
-0.0280758
-0.0267416
-0.0254399
-0.0241703
-0.0229319
-0.021724
-0.0205461
-0.0193974
-0.0182772
-0.0171849
-0.0161198
-0.0150812
-0.0140686
-0.0130812
-0.0121189
-0.0111802
-0.0102666
-0.00937424
-0.00850902
-0.00766036
-0.00684562
-0.00603717
-0.00527861
-0.004508
-0.00380953
-0.00309583
-0.00241306
-0.00190945
-0.000913385
-0.00140137
-0.0642846
-0.0622246
-0.0601958
-0.0581991
-0.0562354
-0.0543055
-0.05241
-0.0505495
-0.0487242
-0.0469347
-0.045181
-0.0434632
-0.0417815
-0.0401357
-0.0385257
-0.0369513
-0.0354122
-0.0339081
-0.0324386
-0.0310033
-0.0296017
-0.0282333
-0.0268976
-0.025594
-0.0243219
-0.0230806
-0.0218696
-0.0206882
-0.0195359
-0.0184118
-0.0173155
-0.0162462
-0.0152034
-0.0141865
-0.0131947
-0.0122281
-0.0112852
-0.0103673
-0.00947105
-0.00860137
-0.00774952
-0.00692976
-0.00611974
-0.00535421
-0.00458611
-0.00387471
-0.00317466
-0.00246022
-0.00200563
-0.000911078
-0.00158195
-0.0642107
-0.0621801
-0.060178
-0.0582057
-0.0562642
-0.0543543
-0.0524768
-0.0506323
-0.0488212
-0.0470442
-0.0453013
-0.043593
-0.0419191
-0.04028
-0.0386753
-0.0371052
-0.0355693
-0.0340675
-0.0325993
-0.0311646
-0.0297629
-0.0283937
-0.0270566
-0.025751
-0.0244765
-0.0232325
-0.0220184
-0.0208335
-0.0196775
-0.0185495
-0.0174491
-0.0163756
-0.0153285
-0.0143072
-0.0133111
-0.0123401
-0.0113929
-0.0104705
-0.00957027
-0.00869606
-0.00784079
-0.00701602
-0.006204
-0.00543179
-0.00466522
-0.00394197
-0.00325311
-0.00251034
-0.00209839
-0.000914554
-0.00175303
-0.0641268
-0.0621266
-0.0601524
-0.0582055
-0.0562871
-0.0543982
-0.0525394
-0.0507117
-0.0489157
-0.0471518
-0.0454204
-0.043722
-0.0420566
-0.0404245
-0.0388257
-0.0372602
-0.0357279
-0.0342286
-0.0327621
-0.0313282
-0.0299265
-0.0285567
-0.0272183
-0.0259109
-0.0246341
-0.0233873
-0.0221701
-0.0209819
-0.0198221
-0.0186902
-0.0175857
-0.016508
-0.0154565
-0.0144308
-0.0134303
-0.0124547
-0.0115031
-0.0105763
-0.00967182
-0.00879301
-0.0079341
-0.00710433
-0.0062899
-0.00551125
-0.00474528
-0.00401118
-0.00333113
-0.00256329
-0.00218757
-0.00092373
-0.00191402
-0.0640325
-0.0620638
-0.0601185
-0.0581981
-0.0563038
-0.0544367
-0.0525976
-0.0507875
-0.0490071
-0.0472571
-0.0455378
-0.0438499
-0.0421935
-0.040569
-0.0389765
-0.037416
-0.0358876
-0.0343912
-0.0329266
-0.0314937
-0.0300923
-0.028722
-0.0273825
-0.0260734
-0.0247944
-0.023545
-0.0223247
-0.021133
-0.0199696
-0.0188338
-0.0177251
-0.0166432
-0.0155873
-0.0145571
-0.0135521
-0.0125719
-0.0116159
-0.0106844
-0.00977562
-0.00889214
-0.00802938
-0.00719459
-0.00637736
-0.00559249
-0.00482622
-0.00408221
-0.00340865
-0.00261885
-0.00227307
-0.000938467
-0.00206439
-0.0639274
-0.0619913
-0.0600761
-0.0581832
-0.0563139
-0.0544694
-0.0526509
-0.0508592
-0.0490952
-0.0473597
-0.0456533
-0.0439764
-0.0423296
-0.0407131
-0.0391273
-0.0375723
-0.0360482
-0.0345549
-0.0330926
-0.031661
-0.03026
-0.0288894
-0.027549
-0.0262383
-0.0249572
-0.0237052
-0.0224819
-0.0212869
-0.0201198
-0.0189801
-0.0178673
-0.016781
-0.0157207
-0.014686
-0.0136764
-0.0126916
-0.0117309
-0.0107947
-0.00988156
-0.00899333
-0.00812652
-0.0072867
-0.00646628
-0.00567538
-0.00490794
-0.00415489
-0.00348559
-0.0026768
-0.0023548
-0.000958562
-0.00220369
-0.0638115
-0.0619091
-0.0600248
-0.0581603
-0.056317
-0.0544961
-0.0526989
-0.0509264
-0.0491796
-0.0474593
-0.0457663
-0.0441011
-0.0424644
-0.0408565
-0.0392779
-0.0377287
-0.0362092
-0.0347195
-0.0332597
-0.0318296
-0.0304293
-0.0290587
-0.0277174
-0.0264054
-0.0251222
-0.0238677
-0.0226415
-0.0214432
-0.0202725
-0.0191288
-0.0180119
-0.0169213
-0.0158566
-0.0148173
-0.013803
-0.0128135
-0.0118482
-0.0109073
-0.00998952
-0.00909648
-0.00822542
-0.00738054
-0.00655657
-0.00575979
-0.00499037
-0.00422902
-0.0035619
-0.00273689
-0.00243269
-0.000983756
-0.0023315
-0.0636844
-0.0618167
-0.0599645
-0.0581293
-0.0563129
-0.0545164
-0.0527414
-0.0509888
-0.0492599
-0.0475555
-0.0458765
-0.0442236
-0.0425975
-0.0409987
-0.0394277
-0.0378848
-0.0363704
-0.0348846
-0.0334275
-0.0319993
-0.0306
-0.0292294
-0.0278876
-0.0265742
-0.0252893
-0.0240324
-0.0228033
-0.0216018
-0.0204274
-0.0192799
-0.0181589
-0.0170639
-0.0159947
-0.0149508
-0.0139319
-0.0129376
-0.0119675
-0.0110218
-0.0100994
-0.00920142
-0.00832593
-0.00747595
-0.00664809
-0.00584554
-0.0050734
-0.00430443
-0.0036375
-0.00279882
-0.00250671
-0.00101373
-0.00244752
-0.0635463
-0.0617142
-0.0598949
-0.05809
-0.0563012
-0.05453
-0.0527779
-0.0510461
-0.0493357
-0.0476479
-0.0459836
-0.0443436
-0.0427286
-0.0411394
-0.0395765
-0.0380403
-0.0365313
-0.0350497
-0.0335958
-0.0321697
-0.0307715
-0.0294013
-0.0280591
-0.0267446
-0.0254579
-0.0241988
-0.022967
-0.0217623
-0.0205844
-0.019433
-0.0183079
-0.0172086
-0.0161349
-0.0150864
-0.0140627
-0.0130637
-0.0120888
-0.0111381
-0.0102109
-0.009308
-0.0084279
-0.00757277
-0.0067407
-0.00593247
-0.0051569
-0.00438088
-0.00371232
-0.00286231
-0.00257684
-0.00104813
-0.00255151
-0.063397
-0.0616015
-0.0598159
-0.0580421
-0.0562818
-0.0545367
-0.0528083
-0.0510979
-0.0494068
-0.0477362
-0.0460871
-0.0444605
-0.0428573
-0.0412782
-0.0397238
-0.0381948
-0.0366916
-0.0352146
-0.0337641
-0.0323404
-0.0309437
-0.0295741
-0.0282316
-0.0269162
-0.0256279
-0.0243667
-0.0231322
-0.0219244
-0.0207431
-0.0195879
-0.0184587
-0.0173551
-0.0162769
-0.0152237
-0.0141953
-0.0131914
-0.0122116
-0.011256
-0.010324
-0.00941602
-0.00853116
-0.00767083
-0.00683425
-0.00602039
-0.00524074
-0.00445815
-0.00378627
-0.00292701
-0.00264306
-0.00108654
-0.00264329
-0.0632367
-0.0614785
-0.0597275
-0.0579856
-0.0562546
-0.0545363
-0.0528322
-0.0511439
-0.0494727
-0.04782
-0.0461868
-0.0445742
-0.0429832
-0.0414146
-0.0398693
-0.0383478
-0.0368508
-0.0353787
-0.033932
-0.032511
-0.031116
-0.0297472
-0.0284047
-0.0270886
-0.0257989
-0.0245356
-0.0232986
-0.0220879
-0.0209031
-0.0197442
-0.018611
-0.0175031
-0.0164204
-0.0153626
-0.0143294
-0.0133207
-0.012336
-0.0113753
-0.0104383
-0.00952528
-0.00863551
-0.00776992
-0.00692856
-0.00610908
-0.00532478
-0.00453599
-0.00385927
-0.00299258
-0.00270539
-0.0011285
-0.00272281
-0.0630657
-0.0613455
-0.0596298
-0.0579204
-0.0562194
-0.0545285
-0.0528495
-0.0511839
-0.0495333
-0.047899
-0.0462822
-0.0446841
-0.0431058
-0.0415483
-0.0400124
-0.0384989
-0.0370085
-0.0355417
-0.0340991
-0.0326811
-0.0312881
-0.0299203
-0.028578
-0.0272614
-0.0259704
-0.0247053
-0.0234659
-0.0222522
-0.0210642
-0.0199016
-0.0187644
-0.0176523
-0.0165651
-0.0155027
-0.0144648
-0.0134511
-0.0124615
-0.0114958
-0.0105537
-0.00963554
-0.00874074
-0.00786981
-0.00702343
-0.00619833
-0.00540884
-0.00461414
-0.00393121
-0.00305868
-0.00276387
-0.00117353
-0.00279008
-0.0628843
-0.0612028
-0.0595229
-0.0578467
-0.0561763
-0.0545135
-0.0528601
-0.0512178
-0.0495883
-0.0479729
-0.046373
-0.04479
-0.0432249
-0.0416789
-0.0401529
-0.0386477
-0.0371642
-0.0357031
-0.0342649
-0.0328502
-0.0314594
-0.0300929
-0.0287511
-0.0274341
-0.0261421
-0.0248753
-0.0236336
-0.0224172
-0.0212259
-0.0200598
-0.0189186
-0.0178024
-0.0167108
-0.0156437
-0.014601
-0.0135825
-0.0125879
-0.0116171
-0.01067
-0.00974655
-0.00884659
-0.00797026
-0.00711865
-0.00628788
-0.00549276
-0.00469233
-0.004002
-0.00312495
-0.00281853
-0.00122113
-0.00284521
-0.062693
-0.0610506
-0.0594071
-0.0577646
-0.0561253
-0.054491
-0.0528638
-0.0512454
-0.0496374
-0.0480415
-0.046459
-0.0448915
-0.0433401
-0.0418059
-0.0402902
-0.0387938
-0.0373176
-0.0358624
-0.0344289
-0.0330178
-0.0316296
-0.0302646
-0.0289235
-0.0276063
-0.0263134
-0.0250451
-0.0238013
-0.0225822
-0.0213879
-0.0202182
-0.0190733
-0.0179529
-0.0168569
-0.0157853
-0.0147378
-0.0137144
-0.0127148
-0.011739
-0.0107867
-0.00985801
-0.0089528
-0.00807102
-0.00721397
-0.00637749
-0.00557632
-0.0047703
-0.0040715
-0.00319102
-0.00286943
-0.00127077
-0.0028884
-0.0624924
-0.0608895
-0.0592828
-0.0576744
-0.0560666
-0.0544614
-0.0528607
-0.0512666
-0.0496806
-0.0481046
-0.04654
-0.0449883
-0.0434509
-0.0419291
-0.040424
-0.0389366
-0.0374681
-0.0360192
-0.0345908
-0.0331835
-0.031798
-0.0304349
-0.0290946
-0.0277775
-0.026484
-0.0252142
-0.0239685
-0.0227469
-0.0215496
-0.0203766
-0.0192279
-0.0181034
-0.0170032
-0.015927
-0.0148748
-0.0138466
-0.012842
-0.0118611
-0.0109036
-0.00996963
-0.00905909
-0.00817178
-0.00730913
-0.00646689
-0.00565932
-0.00484775
-0.00413961
-0.00325653
-0.00291663
-0.00132191
-0.00291995
-0.0622833
-0.0607201
-0.0591504
-0.0575764
-0.0560004
-0.0544246
-0.0528509
-0.0512813
-0.0497178
-0.0481619
-0.0466156
-0.0450801
-0.0435571
-0.042048
-0.0405538
-0.0390759
-0.0376153
-0.036173
-0.0347499
-0.0333468
-0.0319643
-0.0306032
-0.029264
-0.0279472
-0.0266532
-0.0253822
-0.0241347
-0.0229108
-0.0217106
-0.0205343
-0.019382
-0.0182536
-0.0171491
-0.0160685
-0.0150116
-0.0139785
-0.012969
-0.011983
-0.0110203
-0.0100811
-0.00916513
-0.00827225
-0.00740387
-0.00655578
-0.00574152
-0.00492441
-0.00420618
-0.00332113
-0.00296021
-0.00137401
-0.00294023
-0.0620666
-0.0605432
-0.0590107
-0.0574712
-0.0559272
-0.0543809
-0.0528344
-0.0512897
-0.0497488
-0.0482136
-0.0466857
-0.0451668
-0.0436585
-0.0421622
-0.0406794
-0.0392112
-0.0377588
-0.0363234
-0.0349059
-0.0335071
-0.0321279
-0.0307691
-0.0294312
-0.0281148
-0.0268205
-0.0255486
-0.0242994
-0.0230733
-0.0218704
-0.020691
-0.0195351
-0.0184028
-0.0172942
-0.0162092
-0.0151478
-0.0141099
-0.0130955
-0.0121044
-0.0111366
-0.010192
-0.00927059
-0.0083721
-0.00749787
-0.00664386
-0.00582268
-0.00499998
-0.00427106
-0.00338449
-0.00300026
-0.00142655
-0.00294974
-0.0618433
-0.0603597
-0.0588642
-0.0573594
-0.0558475
-0.0543308
-0.0528116
-0.051292
-0.0497739
-0.0482594
-0.0467502
-0.0452481
-0.0437547
-0.0422716
-0.0408003
-0.0393421
-0.0378982
-0.0364698
-0.0350581
-0.033664
-0.0322883
-0.0309319
-0.0295956
-0.0282799
-0.0269854
-0.0257126
-0.024462
-0.0232338
-0.0220284
-0.020846
-0.0196867
-0.0185507
-0.0174381
-0.0163488
-0.0152828
-0.0142403
-0.0132209
-0.0122248
-0.0112519
-0.0103019
-0.00937511
-0.00847098
-0.00759082
-0.00673084
-0.00590255
-0.00507417
-0.00433411
-0.00344627
-0.00303686
-0.001479
-0.00294904
-0.0616147
-0.0601705
-0.058712
-0.0572416
-0.0557617
-0.0542746
-0.0527828
-0.0512882
-0.049793
-0.0482993
-0.046809
-0.0453238
-0.0438455
-0.0423758
-0.0409162
-0.0394681
-0.0380329
-0.0366119
-0.0352062
-0.0338168
-0.0324449
-0.0310912
-0.0297565
-0.0284417
-0.0271473
-0.0258739
-0.0246219
-0.0233919
-0.0221841
-0.0209988
-0.0198363
-0.0186967
-0.0175801
-0.0164866
-0.0154163
-0.0143691
-0.0133449
-0.0123439
-0.0113658
-0.0104106
-0.0094783
-0.00856853
-0.00768239
-0.00681637
-0.00598084
-0.00514669
-0.00439515
-0.00350617
-0.00307011
-0.00153089
-0.00293879
-0.0613821
-0.059977
-0.058555
-0.0571187
-0.0556706
-0.054213
-0.0527483
-0.0512787
-0.0498065
-0.0483336
-0.0468621
-0.0453939
-0.0439308
-0.0424745
-0.0410268
-0.039589
-0.0381626
-0.036749
-0.0353495
-0.0339652
-0.0325971
-0.0312463
-0.0299135
-0.0285997
-0.0273056
-0.0260317
-0.0247786
-0.0235469
-0.0223368
-0.0211489
-0.0199832
-0.0188401
-0.0177197
-0.0166222
-0.0155475
-0.0144958
-0.013467
-0.012461
-0.0114779
-0.0105175
-0.00957975
-0.00866436
-0.00777221
-0.00690013
-0.00605728
-0.00521725
-0.00445404
-0.0035639
-0.00310013
-0.00158175
-0.00291973
-0.0611471
-0.0597803
-0.0583944
-0.0569918
-0.055575
-0.0541465
-0.0527088
-0.051264
-0.0498144
-0.0483623
-0.0469096
-0.0454583
-0.0440104
-0.0425676
-0.0411317
-0.0397043
-0.0382869
-0.0368809
-0.0354877
-0.0341085
-0.0327444
-0.0313966
-0.0300659
-0.0287534
-0.0274596
-0.0261854
-0.0249314
-0.0236981
-0.022486
-0.0212955
-0.0201269
-0.0189804
-0.0178564
-0.0167549
-0.0156761
-0.01462
-0.0135866
-0.0125758
-0.0115877
-0.0106221
-0.00967904
-0.00875805
-0.00785993
-0.00698176
-0.00613157
-0.00528556
-0.0045106
-0.0036192
-0.00312702
-0.00163117
-0.00289267
-0.0609112
-0.0595821
-0.0582314
-0.0568618
-0.0554758
-0.054076
-0.0526647
-0.0512444
-0.0498173
-0.0483856
-0.0469515
-0.0455171
-0.0440842
-0.0426549
-0.0412308
-0.0398138
-0.0384053
-0.037007
-0.0356202
-0.0342462
-0.0328863
-0.0315416
-0.0302132
-0.0289019
-0.0276087
-0.0263344
-0.0250796
-0.0238449
-0.0226309
-0.021438
-0.0202666
-0.019117
-0.0179895
-0.0168842
-0.0158014
-0.014741
-0.0137031
-0.0126877
-0.0116947
-0.0107241
-0.0097757
-0.00884919
-0.00794513
-0.00706091
-0.0062034
-0.00535134
-0.00456465
-0.00367184
-0.00315092
-0.00167878
-0.00285852
-0.0606765
-0.0593838
-0.0580675
-0.0567301
-0.0553742
-0.0540023
-0.052617
-0.0512206
-0.0498154
-0.0484039
-0.0469881
-0.0455702
-0.0441522
-0.0427362
-0.0413239
-0.0399171
-0.0385176
-0.0371269
-0.0357465
-0.0343778
-0.0330221
-0.0316807
-0.0303545
-0.0290448
-0.0277523
-0.026478
-0.0252225
-0.0239866
-0.0227708
-0.0215757
-0.0204017
-0.0192491
-0.0181183
-0.0170095
-0.0159227
-0.0148582
-0.013816
-0.0127961
-0.0117984
-0.0108228
-0.00986926
-0.00893733
-0.00802743
-0.0071372
-0.00627246
-0.00541432
-0.00461604
-0.0037216
-0.00317195
-0.00172426
-0.00281823
-0.0604447
-0.0591874
-0.0579042
-0.056598
-0.0552712
-0.0539264
-0.0525663
-0.0511931
-0.0498094
-0.0484174
-0.0470195
-0.0456178
-0.0442144
-0.0428114
-0.0414106
-0.040014
-0.0386233
-0.0372402
-0.0358662
-0.0345028
-0.0331514
-0.0318132
-0.0304895
-0.0291813
-0.0278896
-0.0266154
-0.0253595
-0.0241225
-0.0229052
-0.021708
-0.0205316
-0.0193762
-0.0182422
-0.0171299
-0.0160395
-0.0149711
-0.0139247
-0.0129004
-0.0118982
-0.0109178
-0.00995923
-0.00902202
-0.00810641
-0.00721027
-0.00633844
-0.0054742
-0.00466457
-0.00376831
-0.00319025
-0.00176736
-0.00277281
-0.0602181
-0.0589946
-0.0577433
-0.0564669
-0.0551681
-0.0538494
-0.0525135
-0.0511628
-0.0497997
-0.0484267
-0.0470461
-0.04566
-0.0442708
-0.0428804
-0.0414909
-0.0401042
-0.0387222
-0.0373465
-0.0359788
-0.0346206
-0.0332734
-0.0319385
-0.0306173
-0.0293107
-0.02802
-0.026746
-0.0254897
-0.0242519
-0.0230331
-0.0218341
-0.0206554
-0.0194974
-0.0183604
-0.0172449
-0.016151
-0.0150788
-0.0140285
-0.0130001
-0.0119935
-0.0110085
-0.0100451
-0.00910276
-0.00818161
-0.00727971
-0.00640099
-0.00553072
-0.0047101
-0.00381181
-0.00320597
-0.00180786
-0.00272333
-0.0599989
-0.0588074
-0.0575864
-0.0563385
-0.0550663
-0.0537725
-0.0524597
-0.0511304
-0.0497871
-0.0484322
-0.0470681
-0.0456971
-0.0443215
-0.0429433
-0.0415647
-0.0401875
-0.0388138
-0.0374454
-0.0360838
-0.0347307
-0.0333877
-0.0320561
-0.0307373
-0.0294324
-0.0281427
-0.0268691
-0.0256126
-0.0243739
-0.0231539
-0.0219532
-0.0207724
-0.019612
-0.0184723
-0.0173537
-0.0162565
-0.0151809
-0.0141268
-0.0130945
-0.0120837
-0.0110944
-0.0101263
-0.00917907
-0.00825261
-0.00734514
-0.00645979
-0.00558362
-0.00475244
-0.00385198
-0.00321925
-0.00184564
-0.00267087
-0.0597895
-0.0586281
-0.0574355
-0.0562143
-0.0549672
-0.0536969
-0.0524059
-0.0510968
-0.0497721
-0.0484344
-0.047086
-0.0457293
-0.0443666
-0.043
-0.0416317
-0.0402637
-0.038898
-0.0375364
-0.0361807
-0.0348326
-0.0334936
-0.0321652
-0.0308488
-0.0295457
-0.028257
-0.0269838
-0.0257271
-0.0244878
-0.0232667
-0.0220645
-0.0208818
-0.0197192
-0.018577
-0.0174556
-0.0163554
-0.0152765
-0.0142189
-0.0131829
-0.0121682
-0.0111747
-0.0102023
-0.00925042
-0.00831892
-0.00740615
-0.0065145
-0.00563261
-0.00479142
-0.00388872
-0.00323026
-0.00188062
-0.00261657
-0.0595924
-0.0584589
-0.0572927
-0.0560963
-0.0548725
-0.0536239
-0.0523532
-0.0510629
-0.0497557
-0.048434
-0.0471002
-0.0457569
-0.0444062
-0.0430505
-0.0416919
-0.0403325
-0.0389743
-0.0376193
-0.0362692
-0.0349257
-0.0335906
-0.0322653
-0.0309512
-0.0296498
-0.0283621
-0.0270894
-0.0258327
-0.0245929
-0.0233708
-0.0221673
-0.0209829
-0.0198182
-0.0186737
-0.0175498
-0.0164468
-0.0153648
-0.0143041
-0.0132646
-0.0122463
-0.011249
-0.0102725
-0.00931629
-0.00838007
-0.00746231
-0.00656475
-0.00567744
-0.00482689
-0.00392194
-0.00323915
-0.0019128
-0.00256155
-0.0594102
-0.0583022
-0.0571599
-0.0559862
-0.0547837
-0.053555
-0.0523028
-0.0510298
-0.0497385
-0.0484315
-0.0471112
-0.0457801
-0.0444405
-0.0430948
-0.0417452
-0.0403937
-0.0390425
-0.0376935
-0.0363486
-0.0350095
-0.033678
-0.0323556
-0.0310438
-0.0297439
-0.0284573
-0.0271851
-0.0259284
-0.0246882
-0.0234653
-0.0222606
-0.0210747
-0.0199082
-0.0187616
-0.0176354
-0.0165299
-0.0154452
-0.0143815
-0.013339
-0.0123174
-0.0113166
-0.0103363
-0.00937612
-0.00843556
-0.00751319
-0.00661019
-0.00571782
-0.00485866
-0.00395158
-0.00324608
-0.00194221
-0.00250692
-0.0592456
-0.0581603
-0.0570395
-0.055886
-0.0547025
-0.0534916
-0.0522561
-0.0509985
-0.0497215
-0.0484276
-0.0471194
-0.0457993
-0.0444697
-0.043133
-0.0417915
-0.0404472
-0.0391023
-0.0377587
-0.0364185
-0.0350835
-0.0337552
-0.0324354
-0.0311257
-0.0298273
-0.0285417
-0.02727
-0.0260133
-0.0247728
-0.0235493
-0.0223435
-0.0211563
-0.0199883
-0.0188399
-0.0177117
-0.0166039
-0.0155168
-0.0144505
-0.0134052
-0.0123806
-0.0113767
-0.0103931
-0.00942934
-0.00848488
-0.00755835
-0.00665045
-0.00575349
-0.00488655
-0.00397759
-0.0032512
-0.00196901
-0.00245377
-0.0591015
-0.0580357
-0.0569336
-0.0557976
-0.0546306
-0.0534352
-0.0522141
-0.0509699
-0.0497054
-0.048423
-0.0471253
-0.0458148
-0.044494
-0.0431652
-0.0418306
-0.0404926
-0.0391532
-0.0378145
-0.0364785
-0.0351469
-0.0338215
-0.0325041
-0.0311962
-0.0298991
-0.0286144
-0.0273432
-0.0260867
-0.0248459
-0.0236218
-0.0224152
-0.0212269
-0.0200575
-0.0189076
-0.0177776
-0.0166679
-0.0155788
-0.0145103
-0.0134625
-0.0124354
-0.0114288
-0.0104423
-0.00947535
-0.00852748
-0.00759731
-0.00668513
-0.00578414
-0.00491039
-0.00399992
-0.00325464
-0.00199334
-0.00240321
-0.0589805
-0.0579311
-0.0568444
-0.0557231
-0.0545698
-0.0533873
-0.0521782
-0.0509453
-0.0496911
-0.0484182
-0.0471294
-0.0458269
-0.0445134
-0.0431912
-0.0418625
-0.0405298
-0.039195
-0.0378604
-0.0365278
-0.0351992
-0.0338763
-0.0325609
-0.0312545
-0.0299586
-0.0286746
-0.0274039
-0.0261475
-0.0249065
-0.023682
-0.0224747
-0.0212855
-0.020115
-0.0189638
-0.0178324
-0.0167211
-0.0156302
-0.0145599
-0.0135101
-0.0124809
-0.011472
-0.010483
-0.00951353
-0.00856281
-0.00762958
-0.00671382
-0.00580946
-0.00492995
-0.00401848
-0.00325655
-0.00201503
-0.00235653
-0.0588857
-0.057849
-0.0567744
-0.0556644
-0.0545218
-0.0533494
-0.0521497
-0.0509255
-0.0496794
-0.048414
-0.047132
-0.0458359
-0.044528
-0.043211
-0.041887
-0.0405583
-0.0392272
-0.0378958
-0.0365659
-0.0352396
-0.0339187
-0.0326048
-0.0312997
-0.0300047
-0.0287214
-0.027451
-0.0261947
-0.0249536
-0.0237287
-0.022521
-0.0213311
-0.0201598
-0.0190076
-0.0178751
-0.0167625
-0.0156703
-0.0145985
-0.0135472
-0.0125163
-0.0115056
-0.0105148
-0.00954323
-0.00859029
-0.00765467
-0.00673609
-0.00582912
-0.00494503
-0.00403323
-0.00325712
-0.00203387
-0.00231445
-0.0588197
-0.0577919
-0.0567256
-0.0556235
-0.0544883
-0.0533228
-0.0521297
-0.0509115
-0.049671
-0.0484109
-0.0471336
-0.0458419
-0.044538
-0.0432245
-0.0419037
-0.040578
-0.0392494
-0.0379201
-0.0365922
-0.0352675
-0.0339479
-0.0326352
-0.0313309
-0.0300366
-0.0287537
-0.0274835
-0.0262273
-0.0249862
-0.0237611
-0.022553
-0.0213626
-0.0201907
-0.0190379
-0.0179046
-0.0167912
-0.015698
-0.0146253
-0.0135729
-0.0125408
-0.0115289
-0.0105368
-0.0095638
-0.0086093
-0.00767202
-0.00675148
-0.00584276
-0.00495529
-0.00404425
-0.00325586
-0.00205505
-0.00227317
-0.0587855
-0.0577623
-0.0567003
-0.0556023
-0.054471
-0.0533091
-0.0521193
-0.0509043
-0.0496667
-0.0484092
-0.0471345
-0.045845
-0.0445432
-0.0432315
-0.0419124
-0.0405882
-0.0392609
-0.0379328
-0.0366058
-0.035282
-0.0339631
-0.032651
-0.0313471
-0.0300532
-0.0287705
-0.0275005
-0.0262443
-0.0250031
-0.0237779
-0.0225696
-0.021379
-0.0202068
-0.0190536
-0.0179199
-0.0168061
-0.0157125
-0.0146392
-0.0135862
-0.0125536
-0.011541
-0.0105482
-0.00957449
-0.00861918
-0.00768105
-0.00675944
-0.00584998
-0.00496016
-0.0040518
-0.00324979
-0.00209438
-0.00222483
)
;

boundaryField
{
    inlet
    {