/*--------------------------------*- C++ -*----------------------------------*\
  =========                 |
  \\      /  F ield         | OpenFOAM: The Open Source CFD Toolbox
   \\    /   O peration     | Website:  https://openfoam.org
    \\  /    A nd           | Version:  7
     \\/     M anipulation  |
\*---------------------------------------------------------------------------*/
FoamFile
{
    version     2.0;
    format      ascii;
    class       volScalarField;
    location    "5";
    object      p;
}
// * * * * * * * * * * * * * * * * * * * * * * * * * * * * * * * * * * * * * //

dimensions      [0 2 -2 0 0 0 0];

internalField   nonuniform List<scalar> 
12100
(
-0.344625
-0.356975
-0.365483
-0.380328
-0.398226
-0.418631
-0.439471
-0.458424
-0.472541
-0.478549
-0.472999
-0.4528
-0.416134
-0.363809
-0.298687
-0.22647
-0.154371
-0.0878149
-0.0338378
0.00897871
-0.345784
-0.357854
-0.366378
-0.381251
-0.399249
-0.419835
-0.440967
-0.460347
-0.475051
-0.481833
-0.477251
-0.458184
-0.42278
-0.371324
-0.306724
-0.234567
-0.16221
-0.0948314
-0.0405569
0.00296199
-0.348024
-0.359543
-0.368084
-0.382989
-0.401153
-0.422051
-0.443691
-0.463821
-0.479557
-0.487695
-0.484813
-0.467728
-0.43437
-0.384587
-0.32098
-0.24898
-0.176264
-0.107842
-0.0527174
-0.00837801
-0.351198
-0.36191
-0.370441
-0.385341
-0.403675
-0.424925
-0.44716
-0.468184
-0.485159
-0.494927
-0.494086
-0.479364
-0.448538
-0.400897
-0.338568
-0.26675
-0.19379
-0.124903
-0.0687225
-0.023721
-0.355111
-0.36478
-0.373235
-0.38804
-0.406467
-0.427997
-0.450763
-0.47262
-0.490779
-0.502125
-0.503293
-0.491033
-0.462694
-0.417232
-0.35616
-0.285105
-0.212279
-0.14343
-0.0866064
-0.0413204
-0.359536
-0.367953
-0.376223
-0.390782
-0.409145
-0.430776
-0.453862
-0.47631
-0.49537
-0.507982
-0.510809
-0.500602
-0.47443
-0.430908
-0.371423
-0.301452
-0.229306
-0.161228
-0.104501
-0.0594318
-0.364237
-0.371231
-0.379162
-0.393268
-0.411337
-0.432801
-0.45589
-0.478565
-0.498096
-0.511508
-0.515504
-0.506755
-0.482248
-0.440346
-0.382431
-0.313948
-0.24321
-0.176713
-0.120948
-0.0766616
-0.368992
-0.374433
-0.381833
-0.395235
-0.412727
-0.433707
-0.456426
-0.478922
-0.49847
-0.512142
-0.516704
-0.508839
-0.485402
-0.444699
-0.388315
-0.321717
-0.253164
-0.189047
-0.135074
-0.0921134
-0.37361
-0.377414
-0.384066
-0.396484
-0.413088
-0.433267
-0.455268
-0.477154
-0.496299
-0.50977
-0.514396
-0.506794
-0.483819
-0.443884
-0.388998
-0.324686
-0.259059
-0.198038
-0.146548
-0.105358
-0.377942
-0.380073
-0.385755
-0.396903
-0.412345
-0.431375
-0.452357
-0.473342
-0.491748
-0.504676
-0.508899
-0.500967
-0.477855
-0.438302
-0.384938
-0.32334
-0.261292
-0.203934
-0.155432
-0.116318
-0.381886
-0.382363
-0.386861
-0.396471
-0.410479
-0.428136
-0.447876
-0.467768
-0.485225
-0.497319
-0.500699
-0.491856
-0.468051
-0.428631
-0.376939
-0.31851
-0.260554
-0.207221
-0.162005
-0.125125
-0.385391
-0.384284
-0.387406
-0.395264
-0.407632
-0.423773
-0.442153
-0.460832
-0.477232
-0.488207
-0.490266
-0.479943
-0.455014
-0.415705
-0.365991
-0.311167
-0.257628
-0.208456
-0.166634
-0.132019
-0.388456
-0.385873
-0.387477
-0.393436
-0.404043
-0.418622
-0.43561
-0.453079
-0.468244
-0.47775
-0.477953
-0.465659
-0.439419
-0.400472
-0.353142
-0.302256
-0.253232
-0.208153
-0.169681
-0.137266
-0.39112
-0.387197
-0.387207
-0.391199
-0.400013
-0.413081
-0.428697
-0.444909
-0.458613
-0.466196
-0.464018
-0.44946
-0.422043
-0.383913
-0.339353
-0.292561
-0.247927
-0.206726
-0.171465
-0.141123
-0.393464
-0.38835
-0.386755
-0.3888
-0.395864
-0.407289
-0.421787
-0.436629
-0.448518
-0.453668
-0.448715
-0.431897
-0.403721
-0.366919
-0.325381
-0.282641
-0.242096
-0.204482
-0.172239
-0.143811
-0.395603
-0.389438
-0.386297
-0.386494
-0.391939
-0.402033
-0.415171
-0.428387
-0.438006
-0.440263
-0.432389
-0.413613
-0.385236
-0.350181
-0.311741
-0.272839
-0.235973
-0.201637
-0.172176
-0.145478
-0.397677
-0.390581
-0.386007
-0.384519
-0.388496
-0.397294
-0.408963
-0.42019
-0.427065
-0.426139
-0.415485
-0.395249
-0.36721
-0.334152
-0.298726
-0.263334
-0.229693
-0.19834
-0.171345
-0.146178
-0.399844
-0.391901
-0.386052
-0.383072
-0.385718
-0.393189
-0.40316
-0.411965
-0.41571
-0.411554
-0.398486
-0.377339
-0.350051
-0.319067
-0.286465
-0.254199
-0.223357
-0.194704
-0.169717
-0.145916
-0.402272
-0.393521
-0.386578
-0.382295
-0.38369
-0.389723
-0.397668
-0.403626
-0.404023
-0.396821
-0.381822
-0.360249
-0.333966
-0.305006
-0.274983
-0.245453
-0.21707
-0.190818
-0.167262
-0.144853
-0.405123
-0.395554
-0.387692
-0.382246
-0.382396
-0.386802
-0.392344
-0.395118
-0.392153
-0.382252
-0.365807
-0.344177
-0.319014
-0.291948
-0.264234
-0.237084
-0.210921
-0.186765
-0.164208
-0.14349
-0.408543
-0.398094
-0.389449
-0.3829
-0.38175
-0.384279
-0.387039
-0.386435
-0.380278
-0.368094
-0.350625
-0.329181
-0.30515
-0.279809
-0.254136
-0.229064
-0.204926
-0.1826
-0.161265
-0.142193
-0.412618
-0.401221
-0.39188
-0.384215
-0.381671
-0.382009
-0.381655
-0.377637
-0.368571
-0.354512
-0.336344
-0.315227
-0.292277
-0.26848
-0.244597
-0.221354
-0.199026
-0.178293
-0.1586
-0.141228
-0.41744
-0.404975
-0.394929
-0.386091
-0.382007
-0.379789
-0.376101
-0.368782
-0.357147
-0.34158
-0.322954
-0.30223
-0.280278
-0.257848
-0.235535
-0.213903
-0.193175
-0.173947
-0.155745
-0.139635
-0.423068
-0.409363
-0.398509
-0.38845
-0.382581
-0.37745
-0.370341
-0.359939
-0.346084
-0.329312
-0.310394
-0.290082
-0.269031
-0.247806
-0.22687
-0.206656
-0.187362
-0.169464
-0.152577
-0.137671
-0.429533
-0.414361
-0.402539
-0.391226
-0.383194
-0.37486
-0.364371
-0.351157
-0.335406
-0.317672
-0.298572
-0.278661
-0.258416
-0.238252
-0.218526
-0.199568
-0.181543
-0.164842
-0.149129
-0.13522
-0.436845
-0.419913
-0.406987
-0.394314
-0.383657
-0.371934
-0.358197
-0.342464
-0.325105
-0.306597
-0.287386
-0.267852
-0.248322
-0.229094
-0.210435
-0.19259
-0.175699
-0.160059
-0.145378
-0.132393
-0.445002
-0.425939
-0.411879
-0.397544
-0.38381
-0.368619
-0.351831
-0.333866
-0.315142
-0.296005
-0.27673
-0.257542
-0.238648
-0.22025
-0.202536
-0.185683
-0.169803
-0.155113
-0.141366
-0.129202
-0.453979
-0.432347
-0.417257
-0.400712
-0.383528
-0.364885
-0.345276
-0.325348
-0.305464
-0.285811
-0.266501
-0.247631
-0.229306
-0.211647
-0.194776
-0.178812
-0.163839
-0.150001
-0.137097
-0.125685
-0.463715
-0.439066
-0.423103
-0.40362
-0.382716
-0.360713
-0.338527
-0.316878
-0.296006
-0.275925
-0.256603
-0.238026
-0.220215
-0.203219
-0.187106
-0.171943
-0.157787
-0.144722
-0.13259
-0.12186
-0.474096
-0.446061
-0.429278
-0.406107
-0.3813
-0.356084
-0.331567
-0.308415
-0.286698
-0.266263
-0.246948
-0.228646
-0.211304
-0.194911
-0.179484
-0.165048
-0.151633
-0.139272
-0.12785
-0.117745
-0.484934
-0.453331
-0.435505
-0.408036
-0.379222
-0.350977
-0.32437
-0.299908
-0.27747
-0.256745
-0.237458
-0.219418
-0.20251
-0.186671
-0.171872
-0.158102
-0.145363
-0.133651
-0.122884
-0.11335
-0.495986
-0.460888
-0.441425
-0.409279
-0.376438
-0.345366
-0.3169
-0.291303
-0.268254
-0.247297
-0.228059
-0.210277
-0.193779
-0.178456
-0.164237
-0.151083
-0.138966
-0.127855
-0.117695
-0.108687
-0.50697
-0.468712
-0.446669
-0.409701
-0.372908
-0.339224
-0.309117
-0.282543
-0.258983
-0.237852
-0.218689
-0.201167
-0.185063
-0.170226
-0.156552
-0.143971
-0.132432
-0.121881
-0.112288
-0.103763
-0.517598
-0.476714
-0.450925
-0.409166
-0.368591
-0.332518
-0.300975
-0.273572
-0.249596
-0.22835
-0.209291
-0.192037
-0.17632
-0.161949
-0.14879
-0.136749
-0.125751
-0.11573
-0.106665
-0.0985867
-0.527598
-0.484702
-0.453964
-0.407548
-0.363442
-0.325213
-0.292427
-0.264335
-0.240038
-0.218734
-0.199814
-0.182844
-0.167511
-0.153594
-0.140932
-0.129404
-0.118918
-0.109399
-0.100831
-0.0931656
-0.536727
-0.492376
-0.455631
-0.404737
-0.357412
-0.317272
-0.283428
-0.254781
-0.230255
-0.208957
-0.190215
-0.173548
-0.158607
-0.145138
-0.132958
-0.121924
-0.111928
-0.10289
-0.0947873
-0.0875083
-0.544778
-0.499351
-0.455822
-0.400646
-0.350449
-0.308653
-0.273931
-0.244862
-0.220201
-0.198975
-0.180456
-0.164119
-0.14958
-0.136561
-0.124854
-0.114301
-0.104777
-0.0962021
-0.0885403
-0.0816243
-0.551575
-0.505202
-0.454456
-0.395215
-0.342507
-0.299316
-0.263896
-0.234535
-0.209837
-0.188754
-0.170505
-0.154528
-0.140408
-0.127845
-0.11661
-0.106528
-0.0974651
-0.0893393
-0.0820965
-0.075526
-0.556962
-0.509513
-0.451454
-0.388403
-0.333547
-0.289226
-0.253287
-0.223766
-0.19913
-0.178262
-0.160337
-0.144754
-0.131076
-0.118978
-0.108218
-0.0986032
-0.0899932
-0.0823064
-0.0754644
-0.0692267
-0.560763
-0.511905
-0.446723
-0.380185
-0.323539
-0.278353
-0.242074
-0.212526
-0.188054
-0.167478
-0.149931
-0.134781
-0.121568
-0.109951
-0.099671
-0.0905246
-0.0823648
-0.0751113
-0.0686558
-0.0627388
-0.562775
-0.51206
-0.44017
-0.370526
-0.312447
-0.266659
-0.230224
-0.200785
-0.176582
-0.156376
-0.139265
-0.124591
-0.111873
-0.100755
-0.0909665
-0.0822931
-0.0745849
-0.0677635
-0.0616871
-0.0560689
-0.563024
-0.509851
-0.431741
-0.359399
-0.300234
-0.254108
-0.217706
-0.188517
-0.16469
-0.144939
-0.128324
-0.114172
-0.101984
-0.0913877
-0.0821037
-0.0739125
-0.066661
-0.0602737
-0.0545739
-0.0492259
-0.561278
-0.505075
-0.421353
-0.346778
-0.286884
-0.240681
-0.204501
-0.175705
-0.152363
-0.133152
-0.117102
-0.10352
-0.0919018
-0.081852
-0.0730874
-0.0653904
-0.0586052
-0.0526538
-0.0472981
-0.0422583
-0.55734
-0.49763
-0.40897
-0.332655
-0.272387
-0.226365
-0.190596
-0.162336
-0.139591
-0.120998
-0.105614
-0.0926404
-0.0816299
-0.0721539
-0.0639276
-0.0567322
-0.0504264
-0.0449073
-0.0398892
-0.0351724
-0.551019
-0.48745
-0.394562
-0.317022
-0.256733
-0.211147
-0.175979
-0.148404
-0.126382
-0.108471
-0.0938776
-0.0815484
-0.0711643
-0.0622911
-0.0546259
-0.0479503
-0.042134
-0.0370479
-0.0323713
-0.0279826
-0.542124
-0.474496
-0.378121
-0.299879
-0.239916
-0.195022
-0.16065
-0.133926
-0.112764
-0.0956799
-0.081799
-0.0702235
-0.0605144
-0.0522735
-0.0451927
-0.0390564
-0.0337408
-0.0290924
-0.0247627
-0.0207089
-0.530463
-0.458754
-0.359651
-0.281229
-0.221932
-0.178007
-0.14464
-0.118948
-0.0987131
-0.0825404
-0.0694605
-0.058678
-0.0496912
-0.0421137
-0.0356409
-0.0300636
-0.0252616
-0.0210576
-0.0170808
-0.0133729
-0.515869
-0.440225
-0.339167
-0.26108
-0.202802
-0.160152
-0.128
-0.103426
-0.0842483
-0.0690669
-0.0568754
-0.0469297
-0.0387077
-0.0318257
-0.0259856
-0.0209869
-0.0167124
-0.0129607
-0.0093439
-0.005996
-0.498199
-0.418926
-0.316692
-0.23946
-0.182609
-0.141484
-0.110698
-0.0873939
-0.0693903
-0.0552826
-0.0440583
-0.0349979
-0.0275806
-0.0214258
-0.0162432
-0.011843
-0.00811008
-0.00481967
-0.00157146
0.00140039
-0.477351
-0.394903
-0.292246
-0.216444
-0.161429
-0.121983
-0.0927686
-0.0708839
-0.0541651
-0.0412144
-0.0310274
-0.0229027
-0.016329
-0.0109325
-0.00643217
-0.00265003
0.000527219
0.00334682
0.00621565
0.00879487
-0.453271
-0.368255
-0.265854
-0.192174
-0.139206
-0.101707
-0.0742526
-0.0539315
-0.0386036
-0.0268914
-0.0178066
-0.0106668
-0.00497425
-0.000365941
0.00342779
0.00657268
0.00918032
0.0115182
0.0139947
0.0161652
-0.425953
-0.339153
-0.237596
-0.166596
-0.11603
-0.0807151
-0.0551982
-0.0365769
-0.0227415
-0.0123457
-0.00442383
0.0016844
0.00645995
0.0102517
0.0133157
0.0158049
0.0178292
0.0196727
0.0217409
0.0234879
-0.395448
-0.307717
-0.207599
-0.13974
-0.0919732
-0.0590743
-0.0356602
-0.0188663
-0.00661937
0.00238703
0.00908963
0.0141229
0.017948
0.0208967
0.0232094
0.025026
0.026454
0.0277892
0.02943
0.0307387
-0.361873
-0.273766
-0.17617
-0.111755
-0.0671167
-0.0368562
-0.0156999
-0.000851394
0.00971819
0.0172677
0.0226994
0.0266183
0.0294625
0.0315438
0.0330853
0.0342147
0.0350365
0.0358509
0.037043
0.0378963
-0.325429
-0.237175
-0.14355
-0.0828029
-0.0415531
-0.0141387
0.00461537
0.0174109
0.0262222
0.0322537
0.0363682
0.0391375
0.0409738
0.0421658
0.0429181
0.0433484
0.0435595
0.0438458
0.0445681
0.0449456
-0.28627
-0.198362
-0.109675
-0.0530275
-0.0153894
0.00899342
0.0252132
0.035859
0.0428399
0.0472995
0.0500565
0.0516459
0.052451
0.0527342
0.0526814
0.0524042
0.0520055
0.0517585
0.051985
0.0518664
-0.244266
-0.158064
-0.0746583
-0.0225591
0.0112584
0.0324478
0.0460157
0.0544267
0.0595148
0.0623564
0.0637221
0.0641068
0.0638613
0.0632196
0.0623494
0.0613618
0.060356
0.0595564
0.0592247
0.0585766
-0.199646
-0.116749
-0.0387104
0.00846788
0.0382686
0.0561248
0.0669399
0.073044
0.0761874
0.0773736
0.0773212
0.0764819
0.0751712
0.0735929
0.0719
0.0702068
0.0685951
0.0671875
0.066149
0.0648536
-0.152945
-0.0744571
-0.00205914
0.0399017
0.0655122
0.0799186
0.0878983
0.0916377
0.0927957
0.0922982
0.0908084
0.0887317
0.086346
0.0838257
0.0813136
0.0789284
0.0767068
0.0745984
0.0726298
0.0704826
-0.10444
-0.0313297
0.0350628
0.0715745
0.0928537
0.103719
0.1088
0.110132
0.109276
0.107076
0.104137
0.100816
0.097351
0.0938899
0.0905691
0.0875047
0.0846566
0.0817527
0.0787247
0.0759655
-0.0543577
0.0124214
0.0724354
0.10332
0.120159
0.127415
0.129554
0.12845
0.125563
0.121651
0.117259
0.112692
0.10815
0.103756
0.0996394
0.0958948
0.0923831
0.0886484
0.0847128
0.0827993
-0.00350618
0.0564859
0.109848
0.13498
0.147298
0.150897
0.150067
0.146513
0.14159
0.135967
0.130125
0.124318
0.118708
0.113395
0.108493
0.104054
0.0998423
0.0953734
0.0910051
0.0895198
0.0477756
0.10059
0.147065
0.166365
0.17412
0.174044
0.170239
0.164239
0.157287
0.149964
0.142685
0.135651
0.128988
0.122772
0.117095
0.111955
0.107059
0.101994
0.0973719
0.095836
0.0990872
0.144419
0.18385
0.197291
0.200477
0.196736
0.189972
0.181545
0.172586
0.163583
0.154888
0.146648
0.138954
0.131854
0.125411
0.119575
0.114036
0.10848
0.103617
0.101765
0.150011
0.187658
0.21997
0.227574
0.226223
0.218853
0.209167
0.198349
0.187417
0.176767
0.166685
0.157267
0.148567
0.140606
0.133412
0.1269
0.120765
0.114772
0.109627
0.107344
0.200131
0.229995
0.255188
0.25703
0.251211
0.240275
0.227726
0.214571
0.201713
0.189458
0.178026
0.167465
0.15779
0.148995
0.141071
0.13391
0.127222
0.12082
0.115361
0.1126
0.249038
0.271123
0.289275
0.285478
0.275294
0.260887
0.245554
0.23013
0.215406
0.201599
0.188864
0.1772
0.166588
0.156987
0.148362
0.140582
0.133377
0.126584
0.120797
0.117542
0.296332
0.310742
0.322004
0.312741
0.298333
0.280572
0.262556
0.244948
0.228431
0.213134
0.199151
0.186432
0.174924
0.164554
0.155259
0.146895
0.139203
0.132037
0.125919
0.122169
0.341626
0.348564
0.353158
0.338646
0.32019
0.299221
0.27864
0.25895
0.240725
0.224011
0.208842
0.195122
0.182764
0.171665
0.161737
0.152822
0.144675
0.137156
0.130715
0.126478
0.384554
0.384309
0.382526
0.363029
0.340733
0.316726
0.293721
0.272063
0.252228
0.234178
0.217893
0.203232
0.190075
0.178292
0.16777
0.158342
0.149771
0.141922
0.135171
0.130461
0.424772
0.41771
0.40991
0.385734
0.359838
0.332986
0.307714
0.28422
0.262881
0.243587
0.226263
0.210727
0.196828
0.184409
0.173336
0.163432
0.15447
0.146316
0.139273
0.134111
0.461962
0.448514
0.435123
0.406613
0.377388
0.347908
0.320544
0.295355
0.272632
0.252193
0.233913
0.217573
0.202992
0.18999
0.178412
0.168073
0.158754
0.150322
0.143008
0.137419
0.495824
0.47649
0.457991
0.425532
0.393274
0.361404
0.332138
0.305411
0.281431
0.259953
0.240808
0.22374
0.208542
0.195013
0.182978
0.172246
0.162606
0.153924
0.146362
0.140377
0.526085
0.501434
0.478358
0.442365
0.407398
0.373393
0.34243
0.314332
0.289233
0.26683
0.246914
0.229199
0.213454
0.199456
0.187015
0.175934
0.16601
0.157109
0.149324
0.142979
0.552498
0.523161
0.496082
0.457005
0.419673
0.383805
0.351364
0.32207
0.295997
0.27279
0.252204
0.233926
0.217705
0.2033
0.190506
0.179123
0.168954
0.159863
0.151883
0.145219
0.574848
0.541515
0.511043
0.469353
0.430021
0.392579
0.358887
0.328584
0.301689
0.277802
0.256652
0.2379
0.221277
0.206529
0.193438
0.1818
0.171425
0.162175
0.15403
0.147091
0.592953
0.55636
0.523136
0.47933
0.438377
0.39966
0.364957
0.333838
0.306277
0.281843
0.260236
0.2411
0.224154
0.209129
0.195798
0.183954
0.173414
0.164036
0.155757
0.148593
0.606664
0.567588
0.532278
0.486868
0.444688
0.405008
0.369539
0.337803
0.30974
0.28489
0.262938
0.243514
0.226323
0.211088
0.197577
0.185578
0.174913
0.165438
0.157058
0.149721
0.61587
0.575117
0.538406
0.491919
0.448916
0.408589
0.372607
0.340458
0.312057
0.28693
0.264747
0.245129
0.227774
0.212399
0.198767
0.186664
0.175915
0.166377
0.157928
0.150473
0.620494
0.578895
0.541479
0.494453
0.451037
0.410384
0.374146
0.341788
0.313219
0.287952
0.265653
0.245938
0.228501
0.213056
0.199363
0.187208
0.176418
0.166847
0.158364
0.15085
0.620494
0.578895
0.541479
0.494453
0.451037
0.410384
0.374146
0.341788
0.313219
0.287952
0.265653
0.245938
0.228501
0.213056
0.199363
0.187208
0.176418
0.166847
0.158364
0.15085
0.61587
0.575117
0.538406
0.491919
0.448916
0.408589
0.372607
0.340458
0.312057
0.28693
0.264747
0.245129
0.227774
0.212399
0.198767
0.186664
0.175915
0.166377
0.157928
0.150473
0.606664
0.567588
0.532278
0.486868
0.444688
0.405008
0.369539
0.337803
0.30974
0.28489
0.262938
0.243514
0.226323
0.211088
0.197577
0.185578
0.174913
0.165438
0.157058
0.149721
0.592953
0.55636
0.523136
0.47933
0.438377
0.39966
0.364957
0.333838
0.306277
0.281843
0.260236
0.2411
0.224154
0.209129
0.195798
0.183954
0.173414
0.164036
0.155757
0.148593
0.574848
0.541515
0.511043
0.469353
0.430021
0.392579
0.358887
0.328584
0.301689
0.277802
0.256652
0.2379
0.221277
0.206529
0.193438
0.1818
0.171425
0.162175
0.15403
0.147091
0.552498
0.523162
0.496082
0.457005
0.419673
0.383805
0.351364
0.32207
0.295997
0.27279
0.252204
0.233926
0.217705
0.2033
0.190506
0.179123
0.168954
0.159863
0.151883
0.145219
0.526085
0.501434
0.478358
0.442365
0.407398
0.373393
0.34243
0.314332
0.289233
0.26683
0.246914
0.229199
0.213454
0.199456
0.187015
0.175934
0.16601
0.157109
0.149324
0.142979
0.495824
0.47649
0.457991
0.425532
0.393274
0.361404
0.332138
0.305411
0.281431
0.259953
0.240808
0.22374
0.208542
0.195013
0.182978
0.172246
0.162606
0.153924
0.146362
0.140377
0.461962
0.448514
0.435123
0.406613
0.377388
0.347908
0.320544
0.295355
0.272632
0.252193
0.233913
0.217573
0.202992
0.18999
0.178412
0.168073
0.158754
0.150322
0.143008
0.137419
0.424772
0.41771
0.40991
0.385734
0.359838
0.332986
0.307714
0.28422
0.262881
0.243587
0.226263
0.210727
0.196828
0.184409
0.173336
0.163432
0.15447
0.146316
0.139273
0.134111
0.384554
0.384309
0.382526
0.363029
0.340733
0.316726
0.293721
0.272063
0.252228
0.234178
0.217893
0.203232
0.190075
0.178292
0.16777
0.158342
0.149771
0.141922
0.135171
0.130461
0.341626
0.348564
0.353158
0.338646
0.32019
0.299221
0.27864
0.25895
0.240725
0.224011
0.208842
0.195122
0.182764
0.171665
0.161737
0.152822
0.144675
0.137156
0.130715
0.126478
0.296332
0.310742
0.322004
0.312741
0.298333
0.280572
0.262556
0.244948
0.228431
0.213134
0.199151
0.186432
0.174924
0.164554
0.155259
0.146895
0.139203
0.132037
0.125919
0.122169
0.249038
0.271123
0.289275
0.285478
0.275294
0.260887
0.245554
0.23013
0.215406
0.201599
0.188864
0.1772
0.166588
0.156987
0.148362
0.140582
0.133377
0.126584
0.120797
0.117542
0.200131
0.229995
0.255188
0.25703
0.251211
0.240276
0.227726
0.214571
0.201713
0.189458
0.178026
0.167465
0.15779
0.148995
0.141071
0.13391
0.127222
0.12082
0.115361
0.1126
0.150011
0.187658
0.21997
0.227574
0.226223
0.218853
0.209167
0.198349
0.187417
0.176767
0.166685
0.157267
0.148567
0.140606
0.133412
0.1269
0.120765
0.114772
0.109627
0.107344
0.0990872
0.144419
0.183851
0.197291
0.200478
0.196736
0.189972
0.181545
0.172586
0.163583
0.154888
0.146648
0.138954
0.131854
0.125411
0.119575
0.114036
0.10848
0.103617
0.101765
0.0477756
0.10059
0.147065
0.166365
0.17412
0.174044
0.170239
0.164239
0.157287
0.149964
0.142685
0.135651
0.128988
0.122772
0.117095
0.111955
0.107059
0.101994
0.097372
0.095836
-0.00350612
0.056486
0.109848
0.13498
0.147298
0.150897
0.150067
0.146513
0.14159
0.135967
0.130125
0.124318
0.118708
0.113395
0.108493
0.104054
0.0998423
0.0953734
0.0910051
0.0895198
-0.0543577
0.0124215
0.0724355
0.10332
0.120159
0.127415
0.129554
0.12845
0.125563
0.121651
0.117259
0.112692
0.10815
0.103756
0.0996395
0.0958949
0.0923831
0.0886484
0.0847129
0.0827994
-0.104439
-0.0313297
0.0350628
0.0715745
0.0928537
0.103719
0.1088
0.110132
0.109276
0.107076
0.104137
0.100816
0.097351
0.0938899
0.0905692
0.0875047
0.0846566
0.0817528
0.0787247
0.0759656
-0.152945
-0.074457
-0.00205909
0.0399017
0.0655122
0.0799186
0.0878984
0.0916377
0.0927957
0.0922982
0.0908084
0.0887317
0.086346
0.0838258
0.0813136
0.0789284
0.0767068
0.0745985
0.0726298
0.0704826
-0.199646
-0.116749
-0.0387103
0.00846793
0.0382686
0.0561248
0.0669399
0.073044
0.0761874
0.0773736
0.0773213
0.0764819
0.0751712
0.0735929
0.0719
0.0702069
0.0685952
0.0671875
0.066149
0.0648536
-0.244266
-0.158064
-0.0746582
-0.0225591
0.0112584
0.0324478
0.0460157
0.0544267
0.0595148
0.0623564
0.0637222
0.0641069
0.0638613
0.0632196
0.0623494
0.0613618
0.060356
0.0595565
0.0592248
0.0585766
-0.28627
-0.198362
-0.109675
-0.0530275
-0.0153894
0.00899346
0.0252132
0.035859
0.0428399
0.0472995
0.0500565
0.051646
0.052451
0.0527342
0.0526814
0.0524043
0.0520055
0.0517585
0.051985
0.0518664
-0.325429
-0.237175
-0.14355
-0.0828029
-0.041553
-0.0141387
0.00461541
0.017411
0.0262223
0.0322537
0.0363683
0.0391376
0.0409739
0.0421658
0.0429182
0.0433484
0.0435595
0.0438458
0.0445681
0.0449457
-0.361873
-0.273766
-0.17617
-0.111755
-0.0671166
-0.0368562
-0.0156999
-0.000851355
0.00971823
0.0172677
0.0226994
0.0266183
0.0294625
0.0315438
0.0330853
0.0342147
0.0350365
0.0358509
0.037043
0.0378963
-0.395447
-0.307717
-0.207599
-0.13974
-0.0919732
-0.0590742
-0.0356601
-0.0188663
-0.00661933
0.00238707
0.00908966
0.014123
0.0179481
0.0208967
0.0232094
0.0250261
0.026454
0.0277892
0.0294301
0.0307387
-0.425953
-0.339153
-0.237596
-0.166596
-0.11603
-0.080715
-0.0551981
-0.0365768
-0.0227415
-0.0123457
-0.0044238
0.00168444
0.00645998
0.0102517
0.0133157
0.015805
0.0178292
0.0196727
0.021741
0.0234879
-0.453271
-0.368255
-0.265854
-0.192174
-0.139206
-0.101707
-0.0742525
-0.0539314
-0.0386035
-0.0268914
-0.0178066
-0.0106668
-0.00497422
-0.000365912
0.00342782
0.00657271
0.00918034
0.0115183
0.0139947
0.0161652
-0.477351
-0.394903
-0.292246
-0.216444
-0.161429
-0.121983
-0.0927686
-0.0708839
-0.054165
-0.0412144
-0.0310273
-0.0229027
-0.0163289
-0.0109324
-0.00643214
-0.00265
0.000527244
0.00334684
0.00621567
0.0087949
-0.498199
-0.418926
-0.316692
-0.23946
-0.182609
-0.141484
-0.110698
-0.0873939
-0.0693902
-0.0552825
-0.0440582
-0.0349979
-0.0275806
-0.0214258
-0.0162432
-0.011843
-0.00811006
-0.00481965
-0.00157144
0.00140042
-0.515869
-0.440225
-0.339167
-0.26108
-0.202802
-0.160152
-0.127999
-0.103426
-0.0842483
-0.0690669
-0.0568754
-0.0469297
-0.0387077
-0.0318257
-0.0259855
-0.0209869
-0.0167123
-0.0129607
-0.00934387
-0.00599598
-0.530463
-0.458754
-0.359651
-0.281229
-0.221932
-0.178007
-0.14464
-0.118948
-0.098713
-0.0825403
-0.0694605
-0.0586779
-0.0496911
-0.0421137
-0.0356409
-0.0300636
-0.0252616
-0.0210576
-0.0170808
-0.0133728
-0.542123
-0.474496
-0.378121
-0.299879
-0.239916
-0.195022
-0.16065
-0.133926
-0.112764
-0.0956798
-0.081799
-0.0702235
-0.0605144
-0.0522735
-0.0451926
-0.0390564
-0.0337408
-0.0290924
-0.0247627
-0.0207089
-0.551019
-0.48745
-0.394562
-0.317022
-0.256733
-0.211147
-0.175979
-0.148404
-0.126382
-0.108471
-0.0938775
-0.0815483
-0.0711642
-0.062291
-0.0546258
-0.0479503
-0.042134
-0.0370479
-0.0323713
-0.0279826
-0.55734
-0.49763
-0.40897
-0.332655
-0.272386
-0.226365
-0.190596
-0.162336
-0.139591
-0.120998
-0.105614
-0.0926404
-0.0816299
-0.0721539
-0.0639275
-0.0567322
-0.0504264
-0.0449073
-0.0398891
-0.0351724
-0.561278
-0.505074
-0.421353
-0.346778
-0.286884
-0.240681
-0.204501
-0.175705
-0.152363
-0.133152
-0.117102
-0.10352
-0.0919018
-0.0818519
-0.0730874
-0.0653904
-0.0586052
-0.0526538
-0.0472981
-0.0422583
-0.563024
-0.509851
-0.431741
-0.359399
-0.300234
-0.254108
-0.217706
-0.188517
-0.16469
-0.144939
-0.128324
-0.114172
-0.101984
-0.0913877
-0.0821037
-0.0739124
-0.066661
-0.0602736
-0.0545739
-0.0492259
-0.562775
-0.51206
-0.44017
-0.370526
-0.312447
-0.266659
-0.230224
-0.200785
-0.176582
-0.156376
-0.139265
-0.124591
-0.111873
-0.100755
-0.0909665
-0.0822931
-0.0745849
-0.0677635
-0.061687
-0.0560689
-0.560763
-0.511905
-0.446723
-0.380185
-0.323539
-0.278353
-0.242074
-0.212526
-0.188054
-0.167478
-0.149931
-0.134781
-0.121568
-0.109951
-0.099671
-0.0905246
-0.0823648
-0.0751112
-0.0686558
-0.0627388
-0.556962
-0.509512
-0.451453
-0.388403
-0.333547
-0.289226
-0.253287
-0.223766
-0.19913
-0.178262
-0.160337
-0.144754
-0.131076
-0.118978
-0.108218
-0.0986032
-0.0899932
-0.0823064
-0.0754644
-0.0692267
-0.551575
-0.505202
-0.454456
-0.395215
-0.342507
-0.299316
-0.263896
-0.234535
-0.209837
-0.188754
-0.170505
-0.154528
-0.140408
-0.127845
-0.11661
-0.106528
-0.0974651
-0.0893393
-0.0820964
-0.075526
-0.544778
-0.499351
-0.455822
-0.400646
-0.350449
-0.308653
-0.273931
-0.244862
-0.220201
-0.198975
-0.180456
-0.164118
-0.14958
-0.136561
-0.124854
-0.114301
-0.104777
-0.0962021
-0.0885403
-0.0816243
-0.536727
-0.492376
-0.455631
-0.404737
-0.357412
-0.317272
-0.283428
-0.254781
-0.230255
-0.208957
-0.190215
-0.173548
-0.158607
-0.145138
-0.132958
-0.121924
-0.111928
-0.10289
-0.0947872
-0.0875083
-0.527598
-0.484702
-0.453964
-0.407548
-0.363442
-0.325213
-0.292427
-0.264335
-0.240038
-0.218734
-0.199814
-0.182844
-0.167511
-0.153594
-0.140932
-0.129404
-0.118918
-0.109399
-0.100831
-0.0931656
-0.517598
-0.476714
-0.450925
-0.409166
-0.368591
-0.332518
-0.300975
-0.273572
-0.249596
-0.228349
-0.209291
-0.192037
-0.176319
-0.161949
-0.14879
-0.136749
-0.125751
-0.11573
-0.106665
-0.0985867
-0.50697
-0.468712
-0.446669
-0.409701
-0.372908
-0.339224
-0.309117
-0.282543
-0.258983
-0.237852
-0.218689
-0.201167
-0.185063
-0.170226
-0.156552
-0.143971
-0.132432
-0.121881
-0.112288
-0.103763
-0.495986
-0.460888
-0.441425
-0.409279
-0.376438
-0.345366
-0.3169
-0.291302
-0.268254
-0.247297
-0.228059
-0.210277
-0.193779
-0.178456
-0.164237
-0.151083
-0.138966
-0.127854
-0.117695
-0.108687
-0.484934
-0.453331
-0.435505
-0.408036
-0.379222
-0.350977
-0.32437
-0.299908
-0.27747
-0.256745
-0.237458
-0.219418
-0.20251
-0.186671
-0.171872
-0.158102
-0.145363
-0.133651
-0.122884
-0.11335
-0.474096
-0.446061
-0.429278
-0.406107
-0.3813
-0.356084
-0.331567
-0.308415
-0.286698
-0.266263
-0.246948
-0.228646
-0.211304
-0.194911
-0.179484
-0.165048
-0.151633
-0.139272
-0.12785
-0.117745
-0.463715
-0.439066
-0.423103
-0.40362
-0.382716
-0.360713
-0.338527
-0.316878
-0.296006
-0.275925
-0.256603
-0.238026
-0.220215
-0.203219
-0.187106
-0.171943
-0.157786
-0.144722
-0.13259
-0.12186
-0.453979
-0.432347
-0.417257
-0.400711
-0.383528
-0.364885
-0.345276
-0.325348
-0.305464
-0.285811
-0.266501
-0.24763
-0.229306
-0.211647
-0.194776
-0.178812
-0.163839
-0.150001
-0.137097
-0.125685
-0.445002
-0.425939
-0.411879
-0.397544
-0.38381
-0.368619
-0.351831
-0.333866
-0.315142
-0.296005
-0.27673
-0.257542
-0.238648
-0.22025
-0.202536
-0.185683
-0.169803
-0.155113
-0.141366
-0.129202
-0.436845
-0.419913
-0.406987
-0.394314
-0.383657
-0.371934
-0.358197
-0.342464
-0.325105
-0.306597
-0.287386
-0.267851
-0.248322
-0.229094
-0.210435
-0.19259
-0.175699
-0.160059
-0.145378
-0.132393
-0.429533
-0.414361
-0.402539
-0.391226
-0.383194
-0.37486
-0.36437
-0.351157
-0.335406
-0.317672
-0.298572
-0.278661
-0.258416
-0.238252
-0.218526
-0.199568
-0.181543
-0.164842
-0.149129
-0.13522
-0.423068
-0.409363
-0.398509
-0.38845
-0.38258
-0.377449
-0.370341
-0.359939
-0.346084
-0.329312
-0.310393
-0.290082
-0.269031
-0.247806
-0.22687
-0.206656
-0.187362
-0.169464
-0.152577
-0.137671
-0.41744
-0.404975
-0.394929
-0.38609
-0.382007
-0.379789
-0.3761
-0.368782
-0.357147
-0.34158
-0.322954
-0.30223
-0.280278
-0.257848
-0.235535
-0.213903
-0.193175
-0.173947
-0.155745
-0.139635
-0.412618
-0.401221
-0.39188
-0.384215
-0.381671
-0.382009
-0.381655
-0.377637
-0.368571
-0.354512
-0.336344
-0.315227
-0.292277
-0.26848
-0.244597
-0.221354
-0.199026
-0.178293
-0.1586
-0.141228
-0.408543
-0.398094
-0.389449
-0.3829
-0.38175
-0.384279
-0.387039
-0.386435
-0.380278
-0.368094
-0.350624
-0.329181
-0.30515
-0.279809
-0.254136
-0.229064
-0.204926
-0.1826
-0.161265
-0.142193
-0.405123
-0.395554
-0.387692
-0.382246
-0.382396
-0.386802
-0.392343
-0.395118
-0.392153
-0.382252
-0.365807
-0.344177
-0.319014
-0.291948
-0.264234
-0.237084
-0.210921
-0.186765
-0.164208
-0.14349
-0.402272
-0.393521
-0.386577
-0.382295
-0.38369
-0.389723
-0.397668
-0.403626
-0.404023
-0.396821
-0.381822
-0.360249
-0.333966
-0.305006
-0.274983
-0.245453
-0.21707
-0.190818
-0.167262
-0.144853
-0.399844
-0.391901
-0.386052
-0.383072
-0.385718
-0.393189
-0.40316
-0.411964
-0.415709
-0.411553
-0.398486
-0.377339
-0.350051
-0.319067
-0.286465
-0.254199
-0.223357
-0.194704
-0.169717
-0.145916
-0.397676
-0.390581
-0.386007
-0.384519
-0.388496
-0.397294
-0.408963
-0.420189
-0.427065
-0.426139
-0.415485
-0.395249
-0.36721
-0.334152
-0.298726
-0.263334
-0.229693
-0.19834
-0.171345
-0.146178
-0.395603
-0.389438
-0.386296
-0.386494
-0.391939
-0.402033
-0.415171
-0.428387
-0.438006
-0.440263
-0.432389
-0.413613
-0.385236
-0.350181
-0.311741
-0.272839
-0.235973
-0.201637
-0.172176
-0.145478
-0.393464
-0.38835
-0.386755
-0.388799
-0.395864
-0.407289
-0.421787
-0.436629
-0.448518
-0.453668
-0.448715
-0.431897
-0.403721
-0.366919
-0.325382
-0.282641
-0.242096
-0.204482
-0.172239
-0.143811
-0.39112
-0.387197
-0.387207
-0.391198
-0.400013
-0.413081
-0.428697
-0.444909
-0.458612
-0.466196
-0.464018
-0.44946
-0.422043
-0.383913
-0.339353
-0.292561
-0.247927
-0.206726
-0.171465
-0.141123
-0.388456
-0.385873
-0.387477
-0.393436
-0.404043
-0.418622
-0.43561
-0.453079
-0.468244
-0.47775
-0.477953
-0.465659
-0.439419
-0.400472
-0.353143
-0.302256
-0.253232
-0.208153
-0.169681
-0.137266
-0.385391
-0.384284
-0.387406
-0.395264
-0.407632
-0.423773
-0.442153
-0.460832
-0.477232
-0.488207
-0.490266
-0.479943
-0.455014
-0.415705
-0.365991
-0.311167
-0.257628
-0.208456
-0.166634
-0.132019
-0.381886
-0.382363
-0.386861
-0.396471
-0.410479
-0.428136
-0.447875
-0.467768
-0.485225
-0.497319
-0.500699
-0.491856
-0.468051
-0.428631
-0.376939
-0.31851
-0.260554
-0.207221
-0.162005
-0.125125
-0.377942
-0.380073
-0.385755
-0.396903
-0.412345
-0.431374