/*--------------------------------*- C++ -*----------------------------------*\
  =========                 |
  \\      /  F ield         | OpenFOAM: The Open Source CFD Toolbox
   \\    /   O peration     | Website:  https://openfoam.org
    \\  /    A nd           | Version:  7
     \\/     M anipulation  |
\*---------------------------------------------------------------------------*/
FoamFile
{
    version     2.0;
    format      ascii;
    class       surfaceScalarField;
    location    "5";
    object      phi;
}
// * * * * * * * * * * * * * * * * * * * * * * * * * * * * * * * * * * * * * //

dimensions      [0 3 -1 0 0 0 0];

internalField   nonuniform List<scalar> 
23915
(
-0.000113728
0.000113728
-4.25189e-10
-0.000315413
0.000201686
-6.31454e-10
-0.0005687
0.000253287
-6.16337e-10
-0.000858466
0.000289767
-5.20249e-10
-0.00117965
0.000321189
-3.75293e-10
-0.00152619
0.000346531
-1.80308e-10
-0.00188846
0.000362272
6.99837e-11
-0.00225225
0.000363792
3.71236e-10
-0.00259842
0.000346167
7.12805e-10
-0.00290267
0.000304256
1.07718e-09
-0.00313535
0.000232678
1.44262e-09
-0.00326184
0.000126486
1.76604e-09
-0.00324527
-1.65684e-05
1.88134e-09
-0.00305616
-0.000189113
1.94644e-09
-0.00267185
-0.000384313
1.80438e-09
-0.00208644
-0.000585414
1.47267e-09
-0.00131703
-0.000769414
9.95072e-10
-0.000380133
-0.000936895
4.5105e-10
0.000656028
-0.00103616
-1.14255e-10
-0.00117502
-6.30048e-10
0.00183105
-0.000109301
0.00022303
-0.000304275
0.00039666
-0.000548905
0.000497917
-0.000827318
0.00056818
-0.00113343
0.000627302
-0.00146025
0.000673351
-0.00179735
0.000699368
-0.00212982
0.000696268
-0.0024381
0.000654438
-0.00269785
0.000564008
-0.00287992
0.000414753
-0.00295032
0.000196884
-0.00287557
-9.13144e-05
-0.002625
-0.000439686
-0.00217876
-0.000830552
-0.00153494
-0.00122923
-0.000710623
-0.00159373
0.000266168
-0.00191369
0.00133959
-0.00210958
-0.00236231
0.00252688
-0.000100753
0.000323783
-0.000282654
0.000578561
-0.000510421
0.000725684
-0.000766806
0.000824565
-0.00104384
0.000904335
-0.00133289
0.000962398
-0.00162213
0.000988608
-0.00189567
0.000969812
-0.00213353
0.000892294
-0.0023119
0.000742385
-0.00240336
0.000506206
-0.00237591
0.000169435
-0.00220125
-0.00026597
-0.00184993
-0.000791003
-0.00130598
-0.0013745
-0.00057417
-0.00196105
0.00032449
-0.00249239
0.00135135
-0.00294055
0.00246279
-0.00322103
-0.00354715
0.00364764
-8.86142e-05
0.000412397
-0.000251742
0.000741689
-0.000455284
0.000929226
-0.000680246
0.00104953
-0.000916172
0.00114026
-0.00115238
0.00119861
-0.00137551
0.00121173
-0.00156884
0.00116314
-0.00171256
0.00103602
-0.00178449
0.000814316
-0.00176047
0.00048218
-0.00161243
2.13956e-05
-0.00131795
-0.000560451
-0.000850987
-0.00125796
-0.000198367
-0.00202712
0.000609834
-0.00276925
0.00156669
-0.00344924
0.00262249
-0.00399635
0.00374174
-0.00434028
-0.00468935
0.00488394
-7.36366e-05
0.000486033
-0.000213227
0.000881279
-0.000386373
0.00110237
-0.000572254
0.00123541
-0.00075768
0.00132569
-0.00092988
0.00137081
-0.00107416
0.00135601
-0.00117361
0.00126259
-0.00120948
0.00107189
-0.00116235
0.000767191
-0.00101123
0.000331062
-0.000739261
-0.000250577
-0.000319144
-0.000980568
0.000259902
-0.00183701
0.000996581
-0.0027638
0.00187414
-0.00364681
0.00286259
-0.00443769
0.00390657
-0.00504033
0.00498797
-0.00542168
-0.00574444
0.00604306
-5.67401e-05
0.000542773
-0.000169198
0.000993737
-0.000307223
0.0012404
-0.00044841
0.00137659
-0.000576941
0.00145422
-0.000678231
0.0014721
-0.00073683
0.00141461
-0.000736485
0.00126225
-0.000660499
0.000995901
-0.000493263
0.000599955
-0.000218952
5.67508e-05
0.000176193
-0.000645722
0.000709524
-0.0015139
0.00138622
-0.00251371
0.00220029
-0.00357787
0.00311819
-0.00456471
0.0041027
-0.00542221
0.00509639
-0.00603402
0.00609644
-0.00642173
-0.00668034
0.00703235
-3.89489e-05
0.000581722
-0.000122017
0.0010768
-0.000221819
0.0013402
-0.00031489
0.00146967
-0.000383221
0.00152255
-0.000410971
0.00149985
-0.00038266
0.0013863
-0.000283708
0.0011633
-0.000100459
0.000812651
0.000179874
0.000319622
0.000567314
-0.000330689
0.00107357
-0.00115197
0.00170981
-0.00215014
0.00247279
-0.00327669
0.00334117
-0.00444625
0.00426904
-0.00549258
0.00521366
-0.00636683
0.00612391
-0.00694427
0.00700993
-0.00730775
-0.00748193
0.00781151
-2.132e-05
0.000603042
-7.41755e-05
0.00112966
-0.000134373
0.0014004
-0.000178114
0.00151341
-0.000185896
0.00153033
-0.000141416
0.00145537
-3.0297e-05
0.00127518
0.000161139
0.000971859
0.000442579
0.000531211
0.000822646
-6.04445e-05
0.0013102
-0.000818244
0.00191543
-0.0017572
0.0026431
-0.00287781
0.00347589
-0.00410948
0.00437287
-0.00534323
0.00527818
-0.00639789
0.00614935
-0.00723799
0.0069513
-0.00774622
0.00770653
-0.00806298
-0.00815141
0.00837601
-4.86803e-06
0.00060791
-2.81348e-05
0.00115293
-4.91008e-05
0.00142136
-4.44095e-05
0.00150872
5.72006e-06
0.0014802
0.000118396
0.00134269
0.000306064
0.00108751
0.000578881
0.000699042
0.000944953
0.000165139
0.00141193
-0.000527421
0.00198914
-0.00139545
0.0026851
-0.00245317
0.00349266
-0.00368538
0.00437383
-0.00499064
0.00526763
-0.00623703
0.00611619
-0.00724645
0.00688659
-0.00800839
0.00756726
-0.00842689
0.00819252
-0.00868824
-0.00870548
0.00874659
9.50944e-06
0.000598401
1.37744e-05
0.00114866
3.00745e-05
0.00140506
8.04394e-05
0.00145835
0.000184674
0.00137597
0.000358107
0.00116926
0.000612335
0.000833281
0.000955567
0.000355811
0.00139541
-0.0002747
0.00194105
-0.00107306
0.00260353
-0.00205793
0.00338464
-0.00323428
0.0042556
-0.00455634
0.00515419
-0.00588922
0.0060072
-0.00709003
0.00676755
-0.0080068
0.00742125
-0.00866209
0.00798232
-0.00898797
0.00849376
-0.00919968
-0.0091696
0.00895787
2.10978e-05
0.000577303
4.96081e-05
0.00112015
9.9731e-05
0.00135494
0.000191356
0.00136673
0.000343342
0.00122398
0.000569922
0.000942682
0.000881582
0.00052162
0.00128659
-4.91994e-05
0.00179492
-0.000783022
0.00241901
-0.00169715
0.00316715
-0.00280608
0.00402319
-0.00409031
0.00492888
-0.00546204
0.00580381
-0.00676415
0.00657857
-0.00786479
0.00722964
-0.00865788
0.00776616
-0.00919861
0.00822334
-0.00944515
0.00864657
-0.00962291
-0.00957122
0.00904819
2.94254e-05
0.000547878
7.80026e-05
0.00107157
0.000157217
0.00127572
0.000284668
0.00123928
0.000477868
0.00103078
0.000750341
0.000670209
0.00111313
0.00015883
0.00157755
-0.000513618
0.00215743
-0.00136291
0.00286559
-0.00240531
0.00369586
-0.00363635
0.00460221
-0.00499666
0.00549993
-0.00635976
0.00630754
-0.00757176
0.00697702
-0.00853427
0.00751442
-0.00919527
0.00794832
-0.00963251
0.00832627
-0.0098231
0.00868884
-0.00998548
-0.0099342
0.00905182
3.42939e-05
0.000513584
9.81532e-05
0.00100771
0.000201104
0.00117277
0.000358635
0.00108174
0.000587294
0.000802123
0.000901248
0.000356255
0.00131484
-0.000254762
0.00184415
-0.00104293
0.00250508
-0.00202384
0.00329961
-0.00319984
0.00419297
-0.0045297
0.0051074
-0.00591109
0.00594902
-0.00720138
0.00665598
-0.00827871
0.00721155
-0.00908985
0.00764757
-0.0096313
0.00800274
-0.00998768
0.00832776
-0.0101481
0.00865311
-0.0103108
-0.010276
0.00899488
3.57994e-05
0.000477784
0.000110066
0.000933448
0.000231402
0.00105144
0.000414029
0.000899118
0.000674876
0.000541276
0.00103105
8.26894e-08
0.00150245
-0.000726165
0.00210845
-0.00164892
0.00285737
-0.00277276
0.00372515
-0.00406762
0.00464242
-0.00544697
0.00551409
-0.00678276
0.00626102
-0.00794831
0.00685386
-0.00887155
0.00730539
-0.00954138
0.00766261
-0.00998852
0.00796448
-0.0102895
0.00825868
-0.0104423
0.0085634
-0.0106155
-0.0106076
0.00889502
3.43279e-05
0.000443457
0.000114587
0.000853189
0.000249808
0.000916216
0.000454599
0.000694327
0.000748416
0.000247459
0.0011543
-0.000405804
0.0016962
-0.00126806
0.00238927
-0.00234199
0.00321894
-0.00360243
0.00412556
-0.00497424
0.0050158
-0.00633721
0.00580165
-0.00756861
0.00643581
-0.00858247
0.00692113
-0.00935688
0.00728991
-0.00991016
0.00759276
-0.0102914
0.00786253
-0.0105593
0.00814143
-0.0107212
0.00843549
-0.0109096
-0.0109353
0.00876317
3.05272e-05
0.000412929
0.000113379
0.000770337
0.000259744
0.000769851
0.00048708
0.000466992
0.000820213
-8.56741e-05
0.00128808
-0.000873672
0.0019133
-0.00189328
0.00269182
-0.00312051
0.00357408
-0.00448469
0.00447083
-0.00587099
0.00528809
-0.00715447
0.00596515
-0.00824567
0.00648952
-0.00910684
0.00688648
-0.00975384
0.00719639
-0.0102201
0.00746523
-0.0105602
0.00771776
-0.0108118
0.00799058
-0.010994
0.00827879
-0.0111978
-0.0112624
0.00860591
2.52541e-05
0.000387675
0.000108805
0.000686786
0.000266124
0.000612533
0.000520493
0.000212623
0.000903931
-0.000469112
0.0014475
-0.00141724
0.00215962
-0.00260541
0.00300282
-0.0039637
0.00389346
-0.00537533
0.00473323
-0.00671076
0.00544981
-0.00787104
0.00601654
-0.0088124
0.00644762
-0.00953792
0.00677889
-0.0100851
0.00705044
-0.0104916
0.00729946
-0.0108092
0.00754387
-0.0110562
0.00781483
-0.011265
0.00809839
-0.0114814
-0.011591
0.00842704
1.94947e-05
0.000368181
0.000103689
0.000602592
0.000274776
0.000441446
0.000564654
-7.72553e-05
0.00101159
-0.000916048
0.00163893
-0.00204458
0.0024254
-0.00339188
0.00329567
-0.00483397
0.00414833
-0.00622799
0.00489933
-0.00746177
0.00550838
-0.00848009
0.00597768
-0.00928169
0.00633649
-0.00989674
0.00662228
-0.0103709
0.00687037
-0.0107397
0.00710825
-0.0110471
0.00734948
-0.0112975
0.00761918
-0.0115347
0.00789737
-0.0117596
-0.0119209
0.00822723
1.42597e-05
0.000353921
0.000100977
0.000515874
0.000291604
0.000250819
0.000628147
-0.000413798
0.00114953
-0.00143744
0.00185666
-0.00275171
0.00268853
-0.00422374
0.00354243
-0.00568788
0.00432209
-0.00700765
0.00497188
-0.00811156
0.00548163
-0.00898984
0.0058722
-0.00967227
0.00617832
-0.0102029
0.00643399
-0.0106266
0.00666809
-0.0109738
0.0068996
-0.0112786
0.00714007
-0.0115379
0.00740639
-0.011801
0.00767802
-0.0120312
-0.0122462
0.0080033
1.0457e-05
0.000343464
0.000103361
0.00042297
0.000321639
3.25411e-05
0.000716279
-0.000808438
0.00131583
-0.00203699
0.00208433
-0.0035202
0.00292358
-0.005063
0.0037243
-0.0064886
0.00441291
-0.00769625
0.00496426
-0.00866291
0.0053901
-0.00941568
0.00572052
-0.0100027
0.00598947
-0.0104718
0.00622545
-0.0108626
0.00645078
-0.0111991
0.00667825
-0.0115061
0.00691874
-0.0117784
0.00717867
-0.0120609
0.00743918
-0.0122917
-0.0125791
0.00777212
8.95535e-06
0.000334508
0.000113025
0.000318901
0.00036799
-0.000222425
0.000828857
-0.0012693
0.00149904
-0.00270718
0.00229891
-0.00432006
0.0031086
-0.00587269
0.0038326
-0.0072126
0.00442677
-0.00829042
0.00489087
-0.00912701
0.00524964
-0.00977445
0.00553557
-0.0102886
0.00577862
-0.0107149
0.0060014
-0.0110853
0.00622047
-0.0114182
0.00644473
-0.0117304
0.00668422
-0.0120179
0.00693941
-0.0123161
0.00720765
-0.01256
-0.0128762
0.00750468
9.77588e-06
0.000324733
0.000131074
0.000197603
0.000432187
-0.000523537
0.000962505
-0.00179962
0.00168604
-0.00343071
0.00248469
-0.00511871
0.00323791
-0.00662591
0.00387599
-0.00785069
0.00438218
-0.00879661
0.00477337
-0.0095182
0.00508016
-0.0100812
0.00533337
-0.0105418
0.00555776
-0.0109392
0.00577061
-0.0112982
0.00598396
-0.0116316
0.00620446
-0.0119509
0.00643993
-0.0122534
0.00668744
-0.0125636
0.00696555
-0.0128381
-0.0131869
0.00727628
1.33061e-05
0.000311427
0.0001582
5.27091e-05
0.000512979
-0.000878317
0.001108
-0.00239464
0.0018599
-0.00418261
0.00262817
-0.00588698
0.00330915
-0.0073069
0.00386177
-0.00840331
0.00429069
-0.00922553
0.00462282
-0.00985032
0.00488979
-0.0103482
0.00511857
-0.0107706
0.0053287
-0.0111494
0.00553304
-0.0115025
0.00574039
-0.0118389
0.00595584
-0.0121663
0.00618502
-0.0124826
0.00642966
-0.0128083
0.00669771
-0.0131061
-0.013467
0.00697786
1.95339e-05
0.000291893
0.000194233
-0.00012199
0.000607031
-0.00129112
0.00125445
-0.00304206
0.00200786
-0.00493602
0.00272461
-0.00660373
0.00332742
-0.00790971
0.00380086
-0.00887674
0.00416441
-0.00958909
0.00444954
-0.0101355
0.00468585
-0.0105845
0.00489567
-0.0109804
0.00509391
-0.0113476
0.00529002
-0.0116986
0.00549053
-0.0120394
0.00569931
-0.0123751
0.00592171
-0.012705
0.00615714
-0.0130437
0.00641453
-0.0133635
-0.0137449
0.00669239
2.83078e-05
0.000263585
0.000238431
-0.000332113
0.000709293
-0.00176198
0.00139114
-0.0037239
0.00212219
-0.00566707
0.00277492
-0.00725646
0.00330047
-0.00843526
0.00370371
-0.00927998
0.00401321
-0.00989858
0.00426105
-0.0103833
0.00447321
-0.0107967
0.00466741
-0.0111746
0.00485476
-0.011535
0.00504223
-0.0118861
0.00523473
-0.0122319
0.0054356
-0.012576
0.00564881
-0.0129182
0.00587519
-0.0132701
0.00612208
-0.0136104
-0.014003
0.00638021
3.94358e-05
0.000224149
0.000289543
-0.000582221
0.000813751
-0.00228618
0.00150944
-0.00441959
0.0022
-0.00635764
0.00278339
-0.00783985
0.00323663
-0.0088885
0.00357936
-0.00962272
0.0038446
-0.0101638
0.00406255
-0.0106012
0.00425493
-0.0109891
0.00443534
-0.011355
0.00461198
-0.0117116
0.00479005
-0.0120642
0.00497341
-0.0124153
0.00516481
-0.0127674
0.00536786
-0.0131212
0.00558288
-0.0134851
0.00581563
-0.0138431
-0.0142495
0.00606206
5.2786e-05
0.000171363
0.000345837
-0.000875272
0.000914239
-0.00285459
0.00160378
-0.00510913
0.00224198
-0.00699584
0.00275576
-0.00835363
0.00314369
-0.00927643
0.00343511
-0.00991414
0.00366411
-0.0103928
0.00385755
-0.0107947
0.00403289
-0.0111644
0.00420036
-0.0115225
0.00436601
-0.0118773
0.00453378
-0.0122319
0.0047068
-0.0125883
0.00488753
-0.0129481
0.00507885
-0.0133125
0.00528136
-0.0136876
0.00550053
-0.0140623
-0.0144792
0.00573024
6.83222e-05
0.000103041
0.000405189
-0.00121214
0.0010052
-0.0034546
0.0016716
-0.00577553
0.00225095
-0.00757519
0.00269813
-0.00880082
0.00302838
-0.00960668
0.00327665
-0.0101624
0.00347565
-0.0105918
0.00364831
-0.0109673
0.00380822
-0.0113243
0.00396299
-0.0116773
0.00411709
-0.0120314
0.00427364
-0.0123885
0.00443524
-0.0127499
0.00460406
-0.0131169
0.00478257
-0.0134911
0.00497144
-0.0138765
0.00517493
-0.0142658
-0.0146931
0.00538886
8.60437e-05
1.69972e-05
0.000465242
-0.00159134
0.00108228
-0.00407164
0.00171272
-0.00640597
0.00223084
-0.00809331
0.00261625
-0.00918623
0.0028963
-0.00988673
0.00310824
-0.0103743
0.00328195
-0.0107655
0.00343628
-0.0111217
0.00358161
-0.0114696
0.00372352
-0.0118192
0.00386542
-0.0121733
0.00400986
-0.0125329
0.00415903
-0.0128991
0.00431489
-0.0132728
0.0044795
-0.0136557
0.00465359
-0.0140506
0.00484099
-0.0144532
-0.0148895
0.0050374
0.000105851
-8.88535e-05
0.00052358
-0.00200907
0.00114269
-0.00469075
0.00172852
-0.0069918
0.00218592
-0.00855071
0.00251523
-0.00951553
0.00275191
-0.0101234
0.00293303
-0.0105555
0.00308484
-0.0109173
0.00322239
-0.0112592
0.00335345
-0.0116007
0.00348217
-0.0119479
0.0036112
-0.0123023
0.00374268
-0.0126644
0.00387851
-0.0130349
0.00402043
-0.0134147
0.00417018
-0.0138054
0.00432861
-0.014209
0.00449872
-0.0146233
-0.015068
0.00467718
0.00012742
-0.000216274
0.000577839
-0.00245948
0.00118518
-0.00529809
0.00172128
-0.0075279
0.00212036
-0.00894979
0.00239941
-0.00979459
0.00259868
-0.0103227
0.00275329
-0.0107101
0.00288554
-0.0110496
0.0030072
-0.0113809
0.00312402
-0.0117175
0.00323911
-0.012063
0.00335462
-0.0124178
0.00347237
-0.0127822
0.00359402
-0.0131565
0.00372114
-0.0135418
0.00385519
-0.0139395
0.00399703
-0.0143509
0.00414918
-0.0147755
-0.0152275
0.00430868
0.000150167
-0.000366441
0.00062583
-0.00293515
0.00120977
-0.00588202
0.00169369
-0.00801182
0.002038
-0.00929411
0.00227242
-0.010029
0.00243926
-0.0104895
0.00257061
-0.0108414
0.00268489
-0.0111639
0.00279111
-0.0114871
0.00289352
-0.0118199
0.00299453
-0.012164
0.0030959
-0.0125192
0.00319922
-0.0128855
0.00330596
-0.0132633
0.0034175
-0.0136534
0.00353507
-0.014057
0.00365956
-0.0144754
0.00379294
-0.0149088
-0.0153674
0.0039329
0.00017332
-0.00053976
0.000665688
-0.00342752
0.00121732
-0.00643365
0.00164857
-0.00844307
0.00194224
-0.00958778
0.00213716
-0.0102239
0.00227566
-0.010628
0.00238612
-0.0109519
0.00248345
-0.0112612
0.0025744
-0.0115781
0.00266215
-0.0119077
0.00274862
-0.0122505
0.00283529
-0.0126059
0.00292356
-0.0129737
0.00301472
-0.0133544
0.00310998
-0.0137486
0.0032104
-0.0141574
0.00331682
-0.0145818
0.00343079
-0.0150228
-0.0154871
0.00355044
0.00019605
-0.00073581
0.00069605
-0.00392752
0.0012092
-0.00694681
0.00158866
-0.00882253
0.00183599
-0.0098351
0.00199597
-0.0103839
0.00210934
-0.0107414
0.00220063
-0.0110432
0.00228159
-0.0113422
0.00235728
-0.0116537
0.0024301
-0.0119805
0.00250159
-0.0123219
0.00257306
-0.0126773
0.00264572
-0.0130464
0.00272071
-0.0134294
0.00279909
-0.013827
0.00288174
-0.0142401
0.00296949
-0.0146695
0.00306347
-0.0151168
-0.0155859
0.00316226
0.000217563
-0.000953373
0.000716155
-0.00442611
0.00118704
-0.00741769
0.00151653
-0.00915203
0.0017217
-0.0100403
0.00185065
-0.0105129
0.00194142
-0.0108322
0.00201471
-0.0111165
0.00207963
-0.0114071
0.00213996
-0.0117141
0.00219754
-0.0120381
0.00225367
-0.0123781
0.00230949
-0.0127331
0.00236606
-0.013103
0.00242437
-0.0134877
0.00248533
-0.013888
0.00254971
-0.0143045
0.00261822
-0.014738
0.00269171
-0.0151903
-0.0156632
0.00276907
0.000237138
-0.00119051
0.000725836
-0.00491481
0.00115251
-0.00784436
0.00143449
-0.00943401
0.00160143
-0.0102072
0.00170263
-0.0106141
0.0017727
-0.0109022
0.00182876
-0.0111725
0.00187781
-0.0114561
0.00192264
-0.0117589
0.00196471
-0.0120802
0.00200513
-0.0124185
0.00204491
-0.0127729
0.00208496
-0.013143
0.00212615
-0.0135289
0.00216924
-0.0139311
0.00221488
-0.0143501
0.00226371
-0.0147869
0.00231629
-0.0152429
-0.0157187
0.00237179
0.000254118
-0.00144463
0.000725417
-0.0053861
0.00110729
-0.00822623
0.00134456
-0.00967128
0.00147685
-0.0103395
0.00155298
-0.0106902
0.00160378
-0.010953
0.00164313
-0.0112119
0.00167634
-0.0114893
0.00170551
-0.0117881
0.00173182
-0.0121065
0.00175624
-0.0124429
0.00177963
-0.0127963
0.0018028
-0.0131662
0.0018265
-0.0135526
0.00185134
-0.0139559
0.00187788
-0.0143767
0.00190665
-0.0148156
0.00193797
-0.0152742
-0.0157519
0.0019712
0.000267917
-0.00171255
0.000715563
-0.00583375
0.001053
-0.00856367
0.00124852
-0.00986679
0.00134933
-0.0104403
0.00140257
-0.0107434
0.00143512
-0.0109856
0.00145808
-0.0112348
0.00147543
-0.0115067
0.00148879
-0.0118014
0.00149912
-0.0121168
0.00150727
-0.0124511
0.001514
-0.012803
0.00152
-0.0131722
0.00152588
-0.0135585
0.00153218
-0.0139622
0.00153931
-0.0143838
0.00154771
-0.014824
0.00155754
-0.015284
-0.0157626
0.00156821
0.000278049
-0.0019906
0.00069718
-0.00625288
0.000991136
-0.00885763
0.00114786
-0.0100235
0.00121998
-0.0105124
0.00125204
-0.0107755
0.00126708
-0.0110006
0.00127384
-0.0112416
0.00127529
-0.0115081
0.00127269
-0.0117988
0.00126686
-0.012111
0.00125854
-0.0124428
0.00124838
-0.0127929
0.00123695
-0.0131608
0.00122478
-0.0135463
0.00121228
-0.0139497
0.00119977
-0.0143713
0.00118759
-0.0148118
0.00117574
-0.0152722
-0.0157505
0.00116365
0.00028417
-0.00227477
0.000671352
-0.00664006
0.000923085
-0.00910936
0.00104386
-0.0101443
0.00108967
-0.0105583
0.00110189
-0.0107877
0.00109996
-0.0109987
0.00109062
-0.0112323
0.00107612
-0.0114936
0.00105746
-0.0117802
0.00103532
-0.0120888
0.00101035
-0.0124178
0.000983118
-0.0127656
0.000954089
-0.0131317
0.000923672
-0.0135159
0.0008922
-0.0139182
0.000859901
-0.014339
0.000826977
-0.0147789
0.000793271
-0.0152384
-0.0157157
0.000758464
0.000284402
-0.00255917
0.000636222
-0.00699188
0.000846895
-0.00932004
0.000934386
-0.0102318
0.000956086
-0.01058
0.000949682
-0.0107813
0.000931303
-0.0109803
0.000906095
-0.011207
0.000875758
-0.0114633
0.000841097
-0.0117455
0.000802697
-0.0120504
0.000761115
-0.0123762
0.000716825
-0.0127213
0.000670208
-0.0130851
0.00062158
-0.0134673
0.000571162
-0.0138678
0.000519146
-0.014287
0.000465634
-0.0147254
0.000409981
-0.0151828
-0.0156586
0.000352846
0.000281961
-0.00284113
0.000598201
-0.00730812
0.000770018
-0.00949185
0.000826725
-0.0102885
0.000825906
-0.0105791
0.000801517
-0.0107569
0.000766781
-0.0109456
0.000725579
-0.0111658
0.000679222
-0.011417
0.000628344
-0.0116946
0.000573462
-0.0119955
0.000515029
-0.0123178
0.000453429
-0.0126598
0.000388974
-0.0130207
0.000321926
-0.0134002
0.000252305
-0.0137982
0.000180312
-0.014215
0.000105944
-0.014651
2.96234e-05
-0.0151065
-0.0155777
-5.12388e-05
0.000275525
-0.00311665
0.000555584
-0.00758818
0.00069036
-0.00962663
0.000718449
-0.0103166
0.000696516
-0.0105572
0.000654745
-0.0107151
0.000603836
-0.0108947
0.000546676
-0.0111087
0.000484293
-0.0113546
0.00041719
-0.0116275
0.000345759
-0.0119241
0.000270451
-0.0122425
0.000191464
-0.0125808
0.000109099
-0.0129383
2.34546e-05
-0.0133146
-6.5155e-05
-0.0137096
-0.000156956
-0.0141232
-0.000251839
-0.0145562
-0.000350707
-0.0150076
-0.0154751
-0.000453332
0.000265428
-0.00338208
0.000509202
-0.00783196
0.000608767
-0.00972619
0.000610181
-0.010318
0.000568298
-0.0105153
0.000509621
-0.0106565
0.000442684
-0.0108277
0.000369616
-0.0110356
0.000291175
-0.0112761
0.000207943
-0.0115443
0.000119806
-0.011836
2.74385e-05
-0.0121501
-6.86678e-05
-0.0124847
-0.000168712
-0.0128383
-0.000272605
-0.0132107
-0.000380438
-0.0136018
-0.000492017
-0.0140116
-0.000607616
-0.0144406
-0.000727919
-0.0148873
-0.0153502
-0.000852814
0.000252072
-0.00363415
0.000459828
-0.00803971
0.000525989
-0.00979235
0.000502437
-0.0102944
0.000441554
-0.0104544
0.000366339
-0.0105812
0.000283488
-0.0107449
0.000194587
-0.0109467
9.99645e-05
-0.0111815
-2.34953e-07
-0.0114441
-0.000103945
-0.0117323
-0.000212757
-0.0120413
-0.000326289
-0.0123711
-0.000444202
-0.0127204
-0.000566508
-0.0130884
-0.000693285
-0.013475
-0.000824554
-0.0138803
-0.000960616
-0.0143045
-0.00110198
-0.0147459
-0.0152033
-0.00124888
0.000235907
-0.00387006
0.000408173
-0.00821198
0.000442673
-0.00982686
0.000395646
-0.0102474
0.000316543
-0.0103753
0.000225075
-0.0104898
0.000126371
-0.0106462
2.13142e-05
-0.0108417
-8.87048e-05
-0.0110715
-0.000203987
-0.0113288
-0.000324952
-0.0116113
-0.000450675
-0.0119156
-0.000581385
-0.0122404
-0.000716998
-0.0125847
-0.000857549
-0.0129478
-0.00100313
-0.0133294
-0.00115389
-0.0137296
-0.00131013
-0.0141483
-0.00147232
-0.0145837
-0.0150348
-0.00164078
0.000217393
-0.00408745
0.000354878
-0.00834946
0.000359361
-0.00983134
0.000290159
-0.0101782
0.000193471
-0.0102786
8.58693e-05
-0.0103822
-2.86695e-05
-0.0105316
-0.000148578
-0.0107218
-0.000274635
-0.0109454
-0.000406151
-0.0111973
-0.00054331
-0.0114741
-0.000685751
-0.0117731
-0.000833513
-0.0120927
-0.000986656
-0.0124316
-0.00114526
-0.0127892
-0.00130947
-0.0131652
-0.00147947
-0.0135596
-0.00165559
-0.0139721
-0.00183825
-0.0144011
-0.0148453
-0.00202783
0.000196981
-0.00428443
0.000300522
-0.00845301
0.000276507
-0.00980732
0.000186274
-0.010088
7.23398e-05
-0.0101647
-5.09001e-05
-0.0102589
-0.000180343
-0.0104022
-0.000316172
-0.0105859
-0.000457917
-0.0108037
-0.000605414
-0.0110498
-0.000758675
-0.0113209
-0.000917624
-0.0116142
-0.00108228
-0.011928
-0.00125277
-0.0122611
-0.00142921
-0.0126128
-0.00161179
-0.0129826
-0.00180074
-0.0133706
-0.00199641
-0.0137765
-0.00219916
-0.0141983
-0.0146351
-0.00240938
0.000175092
-0.00445952
0.000245622
-0.00852354
0.000194497
-0.0097562
8.4206e-05
-0.00997768
-4.63757e-05
-0.0100341
-0.000184693
-0.0101206
-0.000329712
-0.0102572
-0.000480978
-0.0104347
-0.000638251
-0.0106464
-0.000801498
-0.0108865
-0.000970732
-0.0111516
-0.00114599
-0.0114389
-0.00132734
-0.0117466
-0.00151494
-0.0120735
-0.00170896
-0.0124188
-0.00190962
-0.0127819
-0.0021172
-0.013163
-0.00233205
-0.0135616
-0.00255447
-0.0139759
-0.0144047
-0.00278482
0.000152122
-0.00461165
0.000190631
-0.00856204
0.000113658
-0.00967922
-1.62068e-05
-0.00984782
-0.000161981
-0.00988835
-0.000315991
-0.0099666
-0.00047627
-0.0100969
-0.000642766
-0.0102682
-0.000815384
-0.0104738
-0.000994173
-0.0107077
-0.00117919
-0.0109666
-0.00137053
-0.0112476
-0.00156834
-0.0115488
-0.00177279
-0.0118691
-0.00198409
-0.0122075
-0.00220252
-0.0125635
-0.00242837
-0.0129372
-0.002662
-0.013328
-0.00290363
-0.0137343
-0.0141547
-0.0031536
0.000128448
-0.0047401
0.000135955
-0.00856955
3.40427e-05
-0.00957731
-0.000113202
-0.00970057
-0.000275282
-0.00972627
-0.000444501
-0.00979738
-0.00061982
-0.00992159
-0.000801342
-0.0100866
-0.000989093
-0.010286
-0.0011832
-0.0105136
-0.00138376
-0.0107661
-0.00159095
-0.0110404
-0.00180494
-0.0113348
-0.00202595
-0.0116481
-0.00225423
-0.0119792
-0.00249005
-0.0123277
-0.00273379
-0.0126934
-0.00298579
-0.013076
-0.00324618
-0.0134739
-0.0138857
-0.0035152
0.000104418
-0.00484451
8.20854e-05
-0.00854722
-4.33833e-05
-0.00945184
-0.000208363
-0.00953559
-0.000385911
-0.00954872
-0.000570067
-0.00961323
-0.000760193
-0.00973146
-0.000956513
-0.00989032
-0.00115916
-0.0100834
-0.00136833
-0.0103045
-0.00158419
-0.0105502
-0.00180695
-0.0108176
-0.00203683
-0.011105
-0.00227409
-0.0114108
-0.00251898
-0.0117343
-0.00277183
-0.0120749
-0.00303304
-0.0124322
-0.00330298
-0.0128061
-0.00358165
-0.0131952
-0.0135982
-0.00386916
8.0307e-05
-0.00492482
2.99961e-05
-0.00849691
-0.000118415
-0.00930343
-0.000301041
-0.00935297
-0.000493732
-0.00935603
-0.00069255
-0.00941441
-0.000897231
-0.00952678
-0.0011081
-0.00967945
-0.00132538
-0.00986612
-0.00154934
-0.0100805
-0.00178021
-0.0103193
-0.00201824
-0.0105796
-0.00226371
-0.0108595
-0.00251687
-0.0111576
-0.00277802
-0.0114731
-0.00304749
-0.0118054
-0.00332574
-0.012154
-0.00361317
-0.0125186
-0.00390963
-0.0128988
-0.0132928
-0.00421505
5.6302e-05
-0.00498112
-2.22355e-05
-0.00841837
-0.00019175
-0.00913392
-0.000391101
-0.00915362
-0.000598626
-0.00914851
-0.000811824
-0.00920121
-0.00103078
-0.00930782
-0.00125592
-0.00945432
-0.00148754
-0.00963449
-0.001726
-0.00984206
-0.00197157
-0.0100738
-0.00222456
-0.0103266
-0.00248526
-0.0105988
-0.00275398
-0.0108889
-0.00303101
-0.0111961
-0.00331671
-0.0115197
-0.00361157
-0.0118591
-0.00391603
-0.0122142
-0.00422976
-0.012585
-0.0129701
-0.00455247
3.28074e-05
-0.00501393
-7.53862e-05
-0.00831018
-0.000263244
-0.00894606
-0.000478422
-0.00893844
-0.000700468
-0.00892646
-0.00092776
-0.00897392
-0.0011607
-0.00907489
-0.00139979
-0.00921522
-0.00164546
-0.00938883
-0.00189809
-0.00958943
-0.00215803
-0.00981383
-0.00242563
-0.010059
-0.00270121
-0.0103232
-0.00298511
-0.010605
-0.00327763
-0.0109036
-0.00357915
-0.0112182
-0.0038902
-0.0115481
-0.00421126
-0.0118931
-0.00454174
-0.0122546
-0.0126307
-0.00488105
1.0924e-05
-0.00502485
-0.000125434
-0.00817382
-0.00033258
-0.00873891
-0.000562951
-0.00870807
-0.000799156
-0.00869026
-0.00104024
-0.00873284
-0.00128683
-0.00882829
-0.00153957
-0.00896248
-0.00179893
-0.00912946
-0.00206539
-0.00932297
-0.00233935
-0.00953988
-0.00262119
-0.00977714
-0.00291129
-0.0100331
-0.00320997
-0.0103063
-0.00351757
-0.010596
-0.00383449
-0.0109013
-0.0041613
-0.0112212
-0.00449854
-0.0115559
-0.00484537
-0.0119077
-0.0122756
-0.00520049
-1.31619e-05
-0.00501169
-0.000173646
-0.00801334
-0.000399559
-0.008513
-0.000644627
-0.008463
-0.000894601
-0.00844028
-0.00114913
-0.00847831
-0.00140905
-0.00856838
-0.00167507
-0.00869645
-0.00194778
-0.00885675
-0.00222771
-0.00904304
-0.00251531
-0.00925228
-0.00281102
-0.00948144
-0.00311522
-0.00972892
-0.00342829
-0.00999326
-0.00375057
-0.0102737
-0.00408245
-0.0105694
-0.00442454
-0.0108792
-0.0047774
-0.011203
-0.00514024
-0.0115449
-0.0119052
-0.00551069
-3.87196e-05
-0.00497297
-0.000220345
-0.00783171
-0.000464024
-0.00826932
-0.000723359
-0.00820366
-0.00098672
-0.00817692
-0.00125435
-0.00821068
-0.00152721
-0.00829552
-0.00180615
-0.00841751
-0.00209183
-0.00857108
-0.00238484
-0.00875003
-0.00268568
-0.00895143
-0.00299485
-0.00917227
-0.00331276
-0.009411
-0.00363981
-0.00966621
-0.00397636
-0.00993717
-0.00432284
-0.0102229
-0.00467975
-0.0105222
-0.00504759
-0.0108352
-0.00542591
-0.0111666
-0.0115191
-0.00581196
-6.21376e-05
-0.00491083
-0.000265369
-0.00762848
-0.000525922
-0.00800877
-0.000799074
-0.00793051
-0.00107543
-0.00790056
-0.00135576
-0.00793035
-0.00164119
-0.00801009
-0.00193266
-0.00812605
-0.0022309
-0.00827283
-0.00253658
-0.00844435
-0.00285026
-0.00863775
-0.00317247
-0.00885006
-0.00350365
-0.00907982
-0.00384425
-0.00932562
-0.00419469
-0.00958672
-0.00455548
-0.00986211
-0.004927
-0.0101507
-0.00530962
-0.0104526
-0.00570271
-0.0107735
-0.0111196
-0.00610218
-8.42973e-05
-0.00482654
-0.000308609
-0.00740417
-0.000585231
-0.00773215
-0.000871712
-0.00764403
-0.00116066
-0.00761162
-0.00145328
-0.00763772
-0.00175087
-0.00771251
-0.00205444
-0.00782247
-0.00236483
-0.00796244
-0.00268276
-0.00812643
-0.00300884
-0.00831166
-0.00334363
-0.00851527
-0.00368764
-0.00873581
-0.00404134
-0.00897192
-0.00440525
-0.0092228
-0.00478
-0.00948737
-0.00516592
-0.0097648
-0.00556332
-0.0100552
-0.00597312
-0.0103637
-0.0107182
-0.00637456
-0.000108664
-0.00471787
-0.000353781
-0.00715905
-0.000645494
-0.00744043
-0.000944539
-0.00734498
-0.00124543
-0.00731073
-0.00154974
-0.00733341
-0.00185889
-0.00740336
-0.00217399
-0.00750737
-0.00249595
-0.00764049
-0.00282554
-0.00779683
-0.00316344
-0.00797377
-0.00351024
-0.00816847
-0.00386648
-0.00837958
-0.00423268
-0.00860572
-0.00460945
-0.00884603
-0.00499743
-0.0090994
-0.00539682
-0.0093654
-0.00580617
-0.00964582
-0.0062236
-0.00994626
-0.01026
-0.00668182
-0.000128667
-0.00458921
-0.000393063
-0.00689465
-0.000699246
-0.00713425
-0.0010106
-0.00703363
-0.00132322
-0.00699812
-0.00163897
-0.00701765
-0.00195941
-0.00708292
-0.00228574
-0.00718104
-0.00261896
-0.00730727
-0.00295991
-0.00745589
-0.00330929
-0.00762438
-0.00366776
-0.00781
-0.00403588
-0.00801145
-0.00441426
-0.00822734
-0.0048035
-0.00845679
-0.00520403
-0.00869887
-0.0056156
-0.00895383
-0.00603804
-0.00922338
-0.00647681
-0.00950748
-0.00979549
-0.00694131
-0.000147751
-0.00444146
-0.000430404
-0.006612
-0.000750319
-0.00681434
-0.00107346
-0.00671048
-0.00139732
-0.00667426
-0.00172404
-0.00669094
-0.00205529
-0.00675167
-0.00239239
-0.00684394
-0.0027364
-0.00696326
-0.0030882
-0.00710408
-0.00344858
-0.007264
-0.00381822
-0.00744037
-0.00419773
-0.00763194
-0.00458776
-0.00783731
-0.00498893
-0.00805562
-0.00540162
-0.00828619
-0.00582592
-0.00852953
-0.00626304
-0.00878625
-0.00671708
-0.00905345
-0.00932499
-0.00718758
-0.000165879
-0.00427558
-0.000465762