/*--------------------------------*- C++ -*----------------------------------*\
  =========                 |
  \\      /  F ield         | OpenFOAM: The Open Source CFD Toolbox
   \\    /   O peration     | Website:  https://openfoam.org
    \\  /    A nd           | Version:  7
     \\/     M anipulation  |
\*---------------------------------------------------------------------------*/
FoamFile
{
    version     2.0;
    format      ascii;
    class       volVectorField;
    location    "10";
    object      U;
}
// * * * * * * * * * * * * * * * * * * * * * * * * * * * * * * * * * * * * * //

dimensions      [0 1 -1 0 0 0 0];

internalField   nonuniform List<vector> 
2625
(
(0.989447 0.0661823 0)
(0.989399 0.0650804 0)
(0.98942 0.0637809 0)
(0.989511 0.0622757 0)
(0.989668 0.0605597 0)
(0.989888 0.0586313 0)
(0.990167 0.0564937 0)
(0.9905 0.0541545 0)
(0.99088 0.051627 0)
(0.991301 0.0489295 0)
(0.991757 0.0460859 0)
(0.992238 0.0431252 0)
(0.992738 0.0400797 0)
(0.993249 0.0369864 0)
(0.993765 0.0338821 0)
(0.994274 0.0308075 0)
(0.99478 0.027796 0)
(0.995262 0.0248897 0)
(0.995738 0.0221074 0)
(0.996172 0.0194961 0)
(0.996609 0.0170407 0)
(0.996973 0.0148156 0)
(0.997374 0.0127272 0)
(0.997649 0.0109492 0)
(0.998034 0.00918965 0)
(0.998187 0.00792722 0)
(0.998607 0.00630515 0)
(1.00533 0.0659965 0)
(1.0038 0.0661116 0)
(1.00234 0.0662519 0)
(1.00094 0.0664174 0)
(0.999616 0.0666074 0)
(0.998353 0.0668204 0)
(0.997153 0.0670543 0)
(0.996017 0.067306 0)
(0.994944 0.0675716 0)
(0.993933 0.0678465 0)
(0.992984 0.0681249 0)
(0.992097 0.0684005 0)
(0.991273 0.0686655 0)
(0.990512 0.0689118 0)
(0.989813 0.0691297 0)
(0.989179 0.0693092 0)
(0.988609 0.069439 0)
(0.988105 0.069507 0)
(0.987668 0.0695006 0)
(0.987298 0.069406 0)
(0.986998 0.0692092 0)
(0.986767 0.0688957 0)
(0.986607 0.0684508 0)
(0.986518 0.0678596 0)
(0.986501 0.0671078 0)
(0.986555 0.0661819 0)
(0.98668 0.0650695 0)
(0.986874 0.0637601 0)
(0.987135 0.0622457 0)
(0.987459 0.060521 0)
(0.987843 0.058585 0)
(0.988282 0.0564405 0)
(0.98877 0.0540955 0)
(0.9893 0.0515632 0)
(0.989865 0.0488621 0)
(0.990458 0.046016 0)
(0.991069 0.0430537 0)
(0.991692 0.0400079 0)
(0.992317 0.0369152 0)
(0.99294 0.0338123 0)
(0.993548 0.0307399 0)
(0.994143 0.0277314 0)
(0.994708 0.0248283 0)
(0.995258 0.02205 0)
(0.995757 0.0194425 0)
(0.996254 0.0169917 0)
(0.996669 0.0147704 0)
(0.997118 0.0126868 0)
(0.997428 0.0109121 0)
(0.997854 0.00915769 0)
(0.998027 0.00789727 0)
(0.998487 0.0062806 0)
(0.99865 0.0663091 0)
(0.997248 0.0664056 0)
(0.995917 0.066528 0)
(0.994654 0.0666762 0)
(0.993459 0.0668495 0)
(0.992331 0.0670464 0)
(0.991269 0.0672647 0)
(0.990273 0.0675013 0)
(0.989342 0.0677524 0)
(0.988476 0.068013 0)
(0.987674 0.0682777 0)
(0.986938 0.0685398 0)
(0.986266 0.0687917 0)
(0.985659 0.069025 0)
(0.985118 0.0692303 0)
(0.984643 0.0693973 0)
(0.984236 0.0695148 0)
(0.983896 0.0695708 0)
(0.983625 0.0695523 0)
(0.983423 0.069446 0)
(0.983292 0.0692376 0)
(0.983232 0.0689128 0)
(0.983244 0.0684566 0)
(0.983328 0.0678545 0)
(0.983483 0.0670922 0)
(0.98371 0.0661561 0)
(0.984006 0.0650341 0)
(0.98437 0.0637156 0)
(0.984798 0.0621927 0)
(0.985288 0.0604605 0)
(0.985834 0.0585176 0)
(0.986431 0.0563674 0)
(0.987071 0.0540177 0)
(0.987749 0.0514818 0)
(0.988456 0.0487782 0)
(0.989184 0.0459307 0)
(0.989923 0.0429682 0)
(0.990666 0.0399231 0)
(0.991404 0.0368322 0)
(0.992131 0.0337319 0)
(0.992836 0.0306628 0)
(0.99352 0.0276582 0)
(0.994164 0.0247595 0)
(0.994787 0.021986 0)
(0.995351 0.0193832 0)
(0.995906 0.0169377 0)
(0.996371 0.014721 0)
(0.996867 0.012643 0)
(0.997212 0.0108719 0)
(0.997678 0.00912333 0)
(0.99787 0.00786497 0)
(0.99837 0.00625453 0)
(0.992039 0.0665888 0)
(0.990765 0.066667 0)
(0.989563 0.0667718 0)
(0.988431 0.0669031 0)
(0.98737 0.0670601 0)
(0.986377 0.0672413 0)
(0.985453 0.0674443 0)
(0.984597 0.0676661 0)
(0.983808 0.0679028 0)
(0.983086 0.0681496 0)
(0.982431 0.0684007 0)
(0.981844 0.0686495 0)
(0.981324 0.0688885 0)
(0.980871 0.0691091 0)
(0.980486 0.0693021 0)
(0.98017 0.0694569 0)
(0.979924 0.0695624 0)
(0.979747 0.0696066 0)
(0.979641 0.0695766 0)
(0.979606 0.0694589 0)
(0.979643 0.0692393 0)
(0.979752 0.0689035 0)
(0.979934 0.0684367 0)
(0.980189 0.0678243 0)
(0.980515 0.067052 0)
(0.980911 0.0661064 0)
(0.981377 0.0649754 0)
(0.981909 0.0636487 0)
(0.982503 0.0621182 0)
(0.983155 0.0603793 0)
(0.983861 0.0584307 0)
(0.984613 0.0562757 0)
(0.985404 0.0539223 0)
(0.986227 0.0513839 0)
(0.987073 0.0486789 0)
(0.987934 0.0458311 0)
(0.988799 0.0428695 0)
(0.989661 0.0398264 0)
(0.990509 0.0367382 0)
(0.991339 0.0336416 0)
(0.992138 0.0305768 0)
(0.992909 0.0275772 0)
(0.993632 0.0246837 0)
(0.994327 0.0219159 0)
(0.994954 0.0193186 0)
(0.995566 0.0168792 0)
(0.99608 0.0146675 0)
(0.996621 0.0125958 0)
(0.997002 0.0108288 0)
(0.997505 0.00908678 0)
(0.997717 0.00783048 0)
(0.998255 0.00622707 0)
(0.9855 0.0668367 0)
(0.984354 0.0668971 0)
(0.983281 0.0669848 0)
(0.982281 0.0670996 0)
(0.981352 0.0672406 0)
(0.980495 0.0674063 0)
(0.979708 0.0675944 0)
(0.978991 0.0678017 0)
(0.978344 0.0680244 0)
(0.977767 0.0682575 0)
(0.977258 0.0684953 0)
(0.976819 0.0687311 0)
(0.97645 0.0689574 0)
(0.97615 0.0691657 0)
(0.975921 0.0693465 0)
(0.975763 0.0694894 0)
(0.975676 0.0695833 0)
(0.97566 0.069616 0)
(0.975718 0.0695748 0)
(0.975848 0.069446 0)
(0.976051 0.0692158 0)
(0.976328 0.0688695 0)
(0.976679 0.0683925 0)
(0.977102 0.0677703 0)
(0.977597 0.0669887 0)
(0.978161 0.0660343 0)
(0.978794 0.0648951 0)
(0.979491 0.0635608 0)
(0.980249 0.0620236 0)
(0.981062 0.0602788 0)
(0.981924 0.0583254 0)
(0.982829 0.0561666 0)
(0.983769 0.0538105 0)
(0.984735 0.0512705 0)
(0.985718 0.0485652 0)
(0.986708 0.0457183 0)
(0.987697 0.0427586 0)
(0.988675 0.0397184 0)
(0.989632 0.0366341 0)
(0.990563 0.0335422 0)
(0.991455 0.0304826 0)
(0.992311 0.0274889 0)
(0.993112 0.0246014 0)
(0.993876 0.0218402 0)
(0.994565 0.019249 0)
(0.995234 0.0168165 0)
(0.995795 0.0146105 0)
(0.996381 0.0125457 0)
(0.996796 0.010783 0)
(0.997337 0.00904822 0)
(0.997567 0.00779399 0)
(0.998143 0.00619835 0)
(0.979037 0.0670543 0)
(0.978019 0.0670974 0)
(0.977075 0.0671683 0)
(0.976206 0.0672669 0)
(0.975411 0.0673923 0)
(0.974689 0.0675429 0)
(0.974039 0.0677164 0)
(0.973461 0.0679096 0)
(0.972955 0.0681185 0)
(0.972521 0.0683382 0)
(0.972158 0.068563 0)
(0.971866 0.0687861 0)
(0.971647 0.069 0)
(0.971499 0.0691962 0)
(0.971424 0.0693651 0)
(0.971422 0.0694965 0)
(0.971494 0.0695789 0)
(0.971638 0.0696005 0)
(0.971858 0.0695484 0)
(0.972151 0.069409 0)
(0.972519 0.0691684 0)
(0.972962 0.0688121 0)
(0.973479 0.0683254 0)
(0.974068 0.0676939 0)
(0.97473 0.0669036 0)
(0.97546 0.065941 0)
(0.976258 0.0647942 0)
(0.977118 0.0634531 0)
(0.978037 0.06191 0)
(0.979008 0.0601602 0)
(0.980025 0.0582027 0)
(0.98108 0.0560411 0)
(0.982165 0.0536833 0)
(0.983272 0.0511428 0)
(0.984389 0.0484381 0)
(0.985508 0.045593 0)
(0.986618 0.0426362 0)
(0.98771 0.0395999 0)
(0.988773 0.0365204 0)
(0.989803 0.0334342 0)
(0.990786 0.0303807 0)
(0.991726 0.0273938 0)
(0.992602 0.0245131 0)
(0.993435 0.0217593 0)
(0.994185 0.0191749 0)
(0.994908 0.0167499 0)
(0.995517 0.01455 0)
(0.996147 0.0124928 0)
(0.996594 0.0107347 0)
(0.997173 0.00900782 0)
(0.997421 0.00775564 0)
(0.998034 0.00616849 0)
(0.972655 0.0672427 0)
(0.971764 0.0672689 0)
(0.97095 0.0673235 0)
(0.970212 0.0674063 0)
(0.969549 0.0675165 0)
(0.968962 0.0676524 0)
(0.968448 0.0678115 0)
(0.968009 0.0679909 0)
(0.967643 0.0681863 0)
(0.967351 0.0683929 0)
(0.967132 0.068605 0)
(0.966988 0.0688157 0)
(0.966917 0.0690175 0)
(0.96692 0.0692018 0)
(0.966998 0.0693592 0)
(0.967151 0.0694792 0)
(0.967379 0.0695506 0)
(0.967682 0.0695614 0)
(0.968062 0.0694987 0)
(0.968517 0.0693491 0)
(0.969048 0.0690985 0)
(0.969654 0.0687326 0)
(0.970335 0.0682367 0)
(0.971089 0.0675965 0)
(0.971915 0.066798 0)
(0.972809 0.0658278 0)
(0.973769 0.0646741 0)
(0.97479 0.063327 0)
(0.975866 0.0617786 0)
(0.976993 0.0600246 0)
(0.978162 0.058064 0)
(0.979365 0.0559003 0)
(0.980594 0.0535418 0)
(0.981838 0.0510016 0)
(0.983087 0.0482985 0)
(0.984332 0.0454562 0)
(0.985561 0.0425032 0)
(0.986765 0.0394718 0)
(0.987933 0.036398 0)
(0.98906 0.0333182 0)
(0.990132 0.0302718 0)
(0.991154 0.0272924 0)
(0.992104 0.0244193 0)
(0.993004 0.0216736 0)
(0.993813 0.0190967 0)
(0.994591 0.0166798 0)
(0.995245 0.0144865 0)
(0.995917 0.0124373 0)
(0.996398 0.0106842 0)
(0.997012 0.00896575 0)
(0.997278 0.00771561 0)
(0.997928 0.0061376 0)
(0.966358 0.0674026 0)
(0.965594 0.0674122 0)
(0.964909 0.0674509 0)
(0.964301 0.0675183 0)
(0.963771 0.0676136 0)
(0.963317 0.067735 0)
(0.962939 0.0678802 0)
(0.962637 0.068046 0)
(0.96241 0.0682283 0)
(0.96226 0.0684221 0)
(0.962184 0.0686217 0)
(0.962185 0.0688203 0)
(0.962262 0.0690103 0)
(0.962415 0.0691832 0)
(0.962644 0.0693293 0)
(0.96295 0.0694383 0)
(0.963333 0.0694991 0)
(0.963793 0.0694995 0)
(0.964331 0.0694267 0)
(0.964945 0.0692673 0)
(0.965637 0.0690073 0)
(0.966405 0.0686323 0)
(0.967248 0.0681278 0)
(0.968164 0.0674795 0)
(0.969152 0.0666734 0)
(0.970207 0.0656964 0)
(0.971327 0.0645366 0)
(0.972506 0.0631841 0)
(0.973739 0.0616314 0)
(0.975018 0.059874 0)
(0.976336 0.0579112 0)
(0.977685 0.0557464 0)
(0.979054 0.0533879 0)
(0.980434 0.050849 0)
(0.981812 0.0481484 0)
(0.98318 0.0453096 0)
(0.984526 0.0423613 0)
(0.98584 0.0393356 0)
(0.98711 0.0362683 0)
(0.988332 0.0331959 0)
(0.989492 0.0301571 0)
(0.990594 0.027186 0)
(0.991616 0.024321 0)
(0.992582 0.0215839 0)
(0.99345 0.0190149 0)
(0.99428 0.0166067 0)
(0.994979 0.0144203 0)
(0.995693 0.0123798 0)
(0.996206 0.0106318 0)
(0.996855 0.00892228 0)
(0.997139 0.00767403 0)
(0.997824 0.00610583 0)
(0.960149 0.0675349 0)
(0.959512 0.0675284 0)
(0.958955 0.0675514 0)
(0.958477 0.0676037 0)
(0.958077 0.0676844 0)
(0.957756 0.0677917 0)
(0.957513 0.0679233 0)
(0.957347 0.0680758 0)
(0.957259 0.0682452 0)
(0.957249 0.0684266 0)
(0.957316 0.0686141 0)
(0.957461 0.0688009 0)
(0.957683 0.0689795 0)
(0.957984 0.0691412 0)
(0.958363 0.0692765 0)
(0.95882 0.069375 0)
(0.959357 0.0694256 0)
(0.959972 0.0694161 0)
(0.960666 0.0693337 0)
(0.961438 0.0691651 0)
(0.962289 0.0688963 0)
(0.963216 0.0685129 0)
(0.964219 0.0680006 0)
(0.965295 0.0673449 0)
(0.966442 0.0665321 0)
(0.967656 0.065549 0)
(0.968933 0.0643839 0)
(0.970267 0.063027 0)
(0.971653 0.0614708 0)
(0.973083 0.059711 0)
(0.974548 0.0577468 0)
(0.976039 0.0555817 0)
(0.977546 0.0532241 0)
(0.979059 0.0506874 0)
(0.980564 0.04799 0)
(0.982053 0.0451557 0)
(0.983513 0.0422128 0)
(0.984934 0.0391935 0)
(0.986305 0.0361333 0)
(0.98762 0.0330687 0)
(0.988866 0.0300381 0)
(0.990046 0.0270757 0)
(0.99114 0.0242194 0)
(0.99217 0.0214913 0)
(0.993094 0.0189306 0)
(0.993976 0.0165313 0)
(0.994719 0.0143522 0)
(0.995475 0.0123205 0)
(0.996018 0.0105777 0)
(0.996702 0.00887768 0)
(0.997003 0.00763106 0)
(0.997722 0.00607332 0)
(0.954031 0.067647 0)
(0.95352 0.067625 0)
(0.95309 0.067633 0)
(0.952741 0.0676709 0)
(0.952472 0.0677375 0)
(0.952283 0.0678312 0)
(0.952173 0.0679495 0)
(0.952143 0.0680892 0)
(0.952192 0.0682461 0)
(0.95232 0.0684153 0)
(0.952528 0.0685909 0)
(0.952815 0.0687662 0)
(0.953182 0.0689334 0)
(0.953629 0.0690841 0)
(0.954156 0.0692086 0)
(0.954764 0.0692966 0)
(0.955452 0.0693369 0)
(0.95622 0.0693175 0)
(0.957068 0.0692255 0)
(0.957996 0.0690476 0)
(0.959003 0.0687698 0)
(0.960087 0.0683779 0)
(0.961247 0.0678575 0)
(0.962481 0.0671944 0)
(0.963784 0.0663747 0)
(0.965155 0.0653855 0)
(0.966586 0.0642151 0)
(0.968074 0.0628538 0)
(0.96961 0.0612942 0)
(0.971187 0.059532 0)
(0.972797 0.0575666 0)
(0.974428 0.0554017 0)
(0.97607 0.0530455 0)
(0.977713 0.0505114 0)
(0.979343 0.0478179 0)
(0.980951 0.0449887 0)
(0.982522 0.042052 0)
(0.984049 0.0390399 0)
(0.985518 0.0359877 0)
(0.986924 0.0329319 0)
(0.988253 0.0299105 0)
(0.98951 0.0269578 0)
(0.990674 0.024111 0)
(0.991767 0.0213928 0)
(0.992747 0.0188413 0)
(0.993679 0.0164518 0)
(0.994465 0.0142806 0)
(0.995261 0.0122585 0)
(0.995836 0.0105215 0)
(0.996552 0.00883132 0)
(0.99687 0.00758691 0)
(0.997623 0.00603984 0)
(0.945802 0.0677903 5.24769e-21)
(0.945466 0.0677495 1.3707e-22)
(0.945213 0.0677393 -2.71044e-21)
(0.945041 0.0677593 3.13967e-21)
(0.944952 0.0678085 -2.22961e-21)
(0.944944 0.0678851 1.97231e-21)
(0.945017 0.0679866 -3.74653e-21)
(0.945172 0.0681097 1.09937e-21)
(0.945408 0.0682501 1.54449e-21)
(0.945725 0.068403 -3.38916e-21)
(0.946124 0.0685623 3.33137e-21)
(0.946605 0.0687214 -8.29574e-22)
(0.947168 0.0688724 -1.24498e-21)
(0.947812 0.0690068 1.38598e-21)
(0.948539 0.0691151 -9.34167e-23)
(0.949348 0.0691869 -1.58766e-22)
(0.95024 0.069211 1.95913e-23)
(0.951214 0.0691754 -4.51231e-22)
(0.952269 0.0690674 6.42338e-23)
(0.953405 0.0688737 3.68335e-22)
(0.954621 0.0685804 -2.17427e-23)
(0.955915 0.0681735 -5.5896e-22)
(0.957285 0.0676385 3.28486e-22)
(0.958729 0.0669615 -7.289e-23)
(0.960241 0.0661288 2.69726e-22)
(0.96182 0.0651277 -3.26744e-22)
(0.963457 0.0639466 -4.77094e-23)
(0.965148 0.0625761 2.07525e-22)
(0.966884 0.061009 -1.31515e-22)
(0.968658 0.0592413 -7.53152e-24)
(0.970458 0.0572724 2.69563e-23)
(0.972275 0.0551061 6.32481e-23)
(0.974098 0.052751 3.75765e-24)
(0.975913 0.0502203 -6.65408e-24)
(0.977709 0.0475327 -2.4693e-24)
(0.979474 0.0447116 -2.20995e-23)
(0.981195 0.0417852 2.77395e-23)
(0.982861 0.0387853 -1.43063e-25)
(0.984461 0.035747 -1.05633e-23)
(0.985989 0.0327064 4.40473e-24)
(0.98743 0.0297013 -1.86703e-24)
(0.988789 0.0267655 -1.89006e-24)
(0.990045 0.0239357 4.29972e-25)
(0.991223 0.0212348 8.71053e-25)
(0.992278 0.0186997 -2.2229e-25)
(0.993278 0.0163266 2.33447e-26)
(0.994121 0.0141699 1.84894e-25)
(0.994971 0.0121629 1.2951e-26)
(0.995587 0.0104372 -2.51014e-25)
(0.996348 0.00876112 8.1777e-26)
(0.996689 0.0075235 -4.75262e-26)
(0.997488 0.00599048 -6.74834e-25)
(0.934656 0.0678576 5.48114e-21)
(0.934578 0.0677988 -4.8377e-21)
(0.934582 0.0677709 1.83526e-21)
(0.93467 0.0677735 3.04573e-21)
(0.934841 0.0678053 -3.71225e-22)
(0.935095 0.0678645 -3.48149e-21)
(0.935432 0.0679485 9.66956e-22)
(0.935852 0.0680537 1.612e-21)
(0.936355 0.068176 -9.93248e-22)
(0.936941 0.0683102 7.18635e-22)
(0.93761 0.0684504 -2.90164e-22)
(0.938363 0.0685898 1.83986e-22)
(0.939199 0.0687206 -7.36002e-22)
(0.94012 0.0688342 9.43759e-23)
(0.941124 0.0689211 -1.84469e-22)
(0.942213 0.068971 1.88106e-22)
(0.943384 0.0689728 -3.31486e-22)
(0.94464 0.0689145 7.56897e-22)
(0.945978 0.0687835 -4.02174e-22)
(0.947397 0.0685667 3.78095e-22)
(0.948896 0.0682504 -1.64704e-22)
(0.950473 0.0678207 -7.72427e-23)
(0.952126 0.0672636 1.47049e-22)
(0.95385 0.0665653 -3.29449e-22)
(0.955642 0.0657125 2.5369e-22)
(0.957497 0.0646927 5.93067e-24)
(0.959407 0.0634949 -8.9988e-23)
(0.961367 0.06211 -1.0232e-22)
(0.963366 0.0605312 9.76994e-23)
(0.965397 0.0587548 9.01974e-23)
(0.967448 0.0567808 -6.01043e-23)
(0.969508 0.054613 -1.8147e-23)
(0.971565 0.0522603 1.91212e-23)
(0.973605 0.0497362 -5.80939e-23)
(0.975615 0.0470592 2.58026e-23)
(0.977584 0.0442527 -3.21768e-23)
(0.979497 0.0413446 1.98428e-23)
(0.981344 0.0383665 -3.06103e-24)
(0.983112 0.0353527 -1.03646e-23)
(0.984795 0.032339 8.50959e-24)
(0.98638 0.0293624 -2.04314e-24)
(0.98787 0.0264561 1.07795e-24)
(0.989245 0.0236563 -1.51181e-24)
(0.99053 0.0209849 4.22792e-25)
(0.991681 0.0184786 9.78046e-26)
(0.992766 0.0161328 8.80588e-27)
(0.993684 0.0140018 2.72315e-26)
(0.994601 0.0120184 -5.07684e-25)
(0.99527 0.0103141 4.52563e-25)
(0.996087 0.0086571 -6.01886e-25)
(0.996458 0.00743616 -2.17775e-25)
(0.997315 0.00591932 1.52492e-24)
(0.923304 0.0678245 -5.46159e-22)
(0.92349 0.0677493 -3.69614e-21)
(0.92376 0.0677053 2.58783e-22)
(0.924114 0.0676919 -1.32709e-22)
(0.924553 0.0677077 8.9844e-22)
(0.925076 0.0677508 6.06333e-22)
(0.925683 0.0678184 -5.18253e-22)
(0.926374 0.067907 3.17101e-22)
(0.927151 0.0680123 3.95986e-23)
(0.928012 0.0681291 -2.21955e-21)
(0.928958 0.0682514 1.95881e-21)
(0.929989 0.0683723 -3.68057e-22)
(0.931106 0.0684841 1.68986e-22)
(0.932309 0.0685782 -1.87625e-22)
(0.933597 0.0686451 1.61466e-22)
(0.934971 0.0686745 -2.11792e-22)
(0.936429 0.0686553 1.73414e-22)
(0.937972 0.0685758 2.16939e-22)
(0.939598 0.0684234 -4.41704e-22)
(0.941307 0.0681852 2.40771e-22)
(0.943095 0.0678478 2.55284e-22)
(0.944961 0.0673973 -2.46923e-22)
(0.946901 0.0668201 -2.06907e-23)
(0.948912 0.0661026 2.60059e-22)
(0.950988 0.0652319 -9.9455e-23)
(0.953124 0.0641959 1.57898e-22)
(0.955312 0.0629839 -7.21013e-23)
(0.957545 0.0615872 -1.13629e-22)
(0.959812 0.0599994 -8.87995e-23)
(0.962105 0.0582171 2.94717e-23)
(0.96441 0.0562406 1.18519e-22)
(0.966717 0.0540743 -7.12904e-23)
(0.96901 0.0517269 9.20553e-23)
(0.971278 0.0492122 -2.56807e-23)
(0.973506 0.0465487 -4.16887e-23)
(0.975681 0.0437596 3.07915e-24)
(0.977789 0.0408726 1.64746e-24)
(0.979818 0.0379187 1.13628e-23)
(0.981756 0.0349321 -6.19164e-24)
(0.983597 0.0319477 3.06873e-24)
(0.985327 0.0290019 -3.14421e-24)
(0.986949 0.0261273 -2.87311e-25)
(0.988444 0.0233594 -5.36027e-25)
(0.989837 0.0207195 1.02988e-25)
(0.991083 0.0182436 -1.18315e-25)
(0.992255 0.0159268 1.3324e-25)
(0.993246 0.0138229 -9.09923e-26)
(0.994232 0.0118643 2.04753e-25)
(0.994953 0.0101829 3.72452e-25)
(0.995828 0.00854581 1.91953e-24)
(0.996227 0.00734296 -4.74259e-25)
(0.997143 0.00584284 -2.7812e-24)
(0.911761 0.0677099 -1.15378e-21)
(0.912218 0.0676183 4.79582e-21)
(0.91276 0.0675582 -5.01963e-21)
(0.913388 0.0675287 3.76716e-21)
(0.914101 0.0675285 -4.94502e-22)
(0.914899 0.0675555 -8.35429e-22)
(0.915783 0.0676069 -1.46617e-21)
(0.916752 0.067679 2.28674e-21)
(0.917808 0.0677674 -4.54066e-22)
(0.918951 0.0678671 -5.02169e-22)
(0.92018 0.0679718 -1.074e-22)
(0.921496 0.0680747 -4.99871e-22)
(0.922899 0.068168 1.74754e-22)
(0.92439 0.0682432 -1.49094e-22)
(0.925968 0.0682909 2.01466e-22)
(0.927632 0.0683007 2.03182e-22)
(0.929383 0.0682617 -8.45305e-23)
(0.931219 0.0681622 3.4654e-23)
(0.93314 0.0679899 3.63376e-22)
(0.935142 0.0677319 -6.51563e-22)
(0.937225 0.067375 5.34615e-22)
(0.939385 0.0669056 -3.34564e-22)
(0.941618 0.0663104 7.76571e-23)
(0.94392 0.065576 -2.53525e-22)
(0.946286 0.0646899 1.23223e-22)
(0.948707 0.0636402 2.35508e-22)
(0.951177 0.0624168 -7.44968e-23)
(0.953687 0.0610111 -1.41303e-22)
(0.956227 0.0594172 1.29785e-22)
(0.958784 0.057632 -6.16875e-23)
(0.961348 0.0556562 -1.00433e-22)
(0.963904 0.0534943 5.27385e-23)
(0.966438 0.0511553 -7.10297e-23)
(0.968937 0.0486529 5.55531e-23)
(0.971385 0.0460057 -5.29071e-24)
(0.973768 0.0432368 8.4726e-24)
(0.976073 0.0403734 2.05267e-24)
(0.978286 0.0374463 -6.88681e-24)
(0.980396 0.0344891 3.53555e-24)
(0.982396 0.031536 -3.84263e-24)
(0.984271 0.028623 1.86348e-24)
(0.986027 0.025782 1.18241e-24)
(0.987642 0.0230476 -5.54683e-26)
(0.989143 0.0204406 -2.81727e-25)
(0.990486 0.0179966 1.88114e-25)
(0.991745 0.01571 -6.1347e-25)
(0.99281 0.0136343 -5.41197e-26)
(0.993865 0.0117018 1.69295e-24)
(0.994638 0.0100439 -1.05419e-25)
(0.99557 0.00842804 4.79637e-26)
(0.995998 0.00724344 1.96479e-24)
(0.996971 0.00576156 2.22836e-24)
(0.900043 0.067512 1.399e-21)
(0.900779 0.0674044 7.67682e-22)
(0.9016 0.0673285 -1.43763e-21)
(0.902506 0.0672834 -3.77281e-22)
(0.9035 0.0672675 2.39139e-21)
(0.904579 0.0672787 8.6724e-22)
(0.905746 0.0673141 -3.28329e-21)
(0.906999 0.06737 8.96657e-22)
(0.908341 0.067442 4.20037e-22)
(0.90977 0.0675248 1.48206e-22)
(0.911288 0.0676122 -1.27916e-22)
(0.912895 0.0676975 -2.63626e-22)
(0.91459 0.0677729 -2.23222e-22)
(0.916374 0.0678297 2.81084e-22)
(0.918247 0.0678587 -4.44607e-22)
(0.920208 0.0678496 7.85759e-23)
(0.922256 0.0677915 1.76605e-22)
(0.924391 0.0676729 5.3429e-22)
(0.926611 0.0674816 -1.93795e-22)
(0.928913 0.0672049 -3.12932e-22)
(0.931295 0.0668298 -1.01182e-23)
(0.933754 0.066343 1.83942e-22)
(0.936284 0.0657313 4.90048e-23)
(0.938882 0.0649818 -3.78331e-22)
(0.94154 0.0640821 1.23679e-22)
(0.944252 0.0630208 1.22353e-22)
(0.947008 0.061788 -1.35584e-22)
(0.949799 0.0603757 -2.59428e-23)
(0.952614 0.0587782 6.83398e-23)
(0.95544 0.0569929 3.61308e-23)
(0.958265 0.0550204 9.07598e-24)
(0.961074 0.0528658 -3.75409e-23)
(0.963851 0.0505381 9.76289e-24)
(0.966583 0.048051 -2.33536e-23)
(0.969253 0.0454231 6.27815e-24)
(0.971847 0.0426772 5.09899e-24)
(0.97435 0.0398404 -8.58601e-25)
(0.97675 0.0369429 8.99387e-25)
(0.979032 0.0340178 -3.45976e-24)
(0.981192 0.0310988 2.2287e-24)
(0.983214 0.0282211 -1.13954e-24)
(0.985104 0.0254159 -4.74112e-25)
(0.98684 0.0227172 -7.5276e-25)
(0.988451 0.0201453 4.36385e-25)
(0.98989 0.017735 -7.38655e-25)
(0.991236 0.0154804 4.87838e-25)
(0.992375 0.0134345 -6.16731e-25)
(0.993498 0.0115296 -1.43167e-24)
(0.994325 0.00989636 -8.39147e-26)
(0.995313 0.00830322 -4.30866e-24)
(0.99577 0.00713748 -8.49969e-25)
(0.9968 0.00567537 -5.68652e-24)
(0.888171 0.0672252 -2.42501e-21)
(0.88919 0.0671025 5.99272e-22)
(0.890295 0.0670115 -1.53669e-22)
(0.891487 0.0669513 1.67075e-21)
(0.892766 0.0669204 -1.48756e-21)
(0.894133 0.0669164 -3.11056e-22)
(0.895587 0.0669364 1.23888e-21)
(0.897131 0.0669766 -1.23156e-21)
(0.898763 0.0670326 1.49e-21)
(0.900485 0.067099 -1.10768e-21)
(0.902297 0.0671698 4.21172e-22)
(0.904199 0.067238 -8.51683e-22)
(0.906191 0.0672959 6.06365e-22)
(0.908274 0.067335 -7.29995e-23)
(0.910446 0.067346 -5.32253e-22)
(0.912709 0.0673187 5.69461e-24)
(0.915059 0.0672424 2.29145e-22)
(0.917497 0.0671056 -2.71763e-22)
(0.920021 0.0668964 3.35544e-22)
(0.922627 0.0666021 2.62069e-22)
(0.925313 0.06621 -2.70805e-22)
(0.928074 0.0657071 -8.34382e-23)
(0.930907 0.0650805 -6.6582e-23)
(0.933804 0.0643175 7.56949e-23)
(0.93676 0.063406 1.85145e-22)
(0.939765 0.0623352 -1.4039e-22)
(0.942811 0.0610953 1.89864e-22)
(0.945887 0.0596787 5.45304e-23)
(0.94898 0.0580801 -1.01682e-23)
(0.952078 0.0562971 -6.9786e-23)
(0.955166 0.0543309 -3.79078e-23)
(0.95823 0.0521863 4.77839e-23)
(0.961254 0.0498728 -3.70962e-23)
(0.964221 0.0474041 4.16741e-23)
(0.967115 0.0447985 3.46028e-24)
(0.969921 0.0420788 -1.25156e-23)
(0.972624 0.0392715 -2.77799e-24)
(0.975211 0.0364066 6.39994e-25)
(0.977668 0.0335165 2.72518e-24)
(0.979988 0.0306343 1.73033e-24)
(0.982157 0.0277946 1.96354e-25)
(0.984182 0.0250278 -1.39175e-24)
(0.98604 0.0223673 -3.11224e-25)
(0.98776 0.0198326 -7.6168e-25)
(0.989296 0.0174581 2.88952e-25)
(0.990728 0.0152374 7.36991e-25)
(0.991942 0.0132231 -6.19136e-25)
(0.993134 0.0113474 9.21154e-25)
(0.994013 0.00974017 -5.17433e-25)
(0.995058 0.00817117 4.20076e-25)
(0.995543 0.00702511 -7.62095e-26)
(0.996631 0.00558419 4.156e-24)
(0.87494 0.0670154 -3.1388e-21)
(0.876163 0.0668461 9.87213e-22)
(0.877471 0.066709 7.90719e-22)
(0.878866 0.0666038 2.92564e-21)
(0.880348 0.0665293 -3.33459e-21)
(0.881918 0.066484 -1.39343e-22)
(0.883577 0.0664655 1.50273e-21)
(0.885325 0.0664707 2.27467e-22)
(0.887162 0.0664958 -3.73723e-23)
(0.88909 0.0665364 -4.09442e-22)
(0.891109 0.0665871 -4.8989e-22)
(0.89322 0.0666417 1.53799e-21)
(0.895422 0.0666935 -1.59509e-21)
(0.897716 0.0667346 1.0443e-22)
(0.900101 0.0667567 6.58931e-22)
(0.902578 0.0667504 -3.83167e-22)
(0.905146 0.0667058 3.54616e-22)
(0.907804 0.0666122 1.36023e-22)
(0.910549 0.0664582 -1.61453e-22)
(0.91338 0.0662321 5.85374e-22)
(0.916294 0.0659215 -3.02088e-22)
(0.919288 0.0655139 -8.04072e-23)
(0.922357 0.0649964 -1.2659e-22)
(0.925494 0.0643565 2.66453e-22)
(0.928695 0.0635818 -1.95837e-22)
(0.931951 0.0626607 4.26661e-24)
(0.935254 0.0615824 1.82925e-23)
(0.938592 0.0603377 -3.073e-23)
(0.941955 0.0589192 2.25555e-22)
(0.945329 0.0573221 -1.56523e-22)
(0.948702 0.0555443 1.51078e-22)
(0.952056 0.053587 -1.42487e-22)
(0.955378 0.0514556 1.23101e-22)
(0.958649 0.0491593 -7.11117e-23)
(0.961853 0.046712 4.75062e-23)
(0.964972 0.0441318 6.05347e-25)
(0.967993 0.0414413 1.29735e-25)
(0.970896 0.0386667 -2.82406e-24)
(0.973671 0.0358373 -2.87215e-24)
(0.976303 0.0329852 4.90654e-24)
(0.978785 0.0301427 -1.94341e-24)
(0.981103 0.0273436 -5.86061e-25)
(0.983262 0.0246177 -7.57147e-26)
(0.985241 0.0219978 -6.47489e-25)
(0.987071 0.0195027 1.70549e-24)
(0.988704 0.017166 2.27425e-25)
(0.990224 0.0149812 1.57894e-24)
(0.991511 0.0130001 -4.01386e-25)
(0.992771 0.0111552 7.08352e-25)
(0.993703 0.00957535 -4.24183e-25)
(0.994804 0.00803191 4.15759e-24)
(0.995319 0.00690638 -3.9348e-25)
(0.996463 0.00548804 5.62943e-24)
(0.862525 0.0665551 -1.61136e-21)
(0.864041 0.0663721 -2.34482e-22)
(0.865643 0.0662216 -1.50679e-21)
(0.867333 0.0661029 3.46983e-21)
(0.86911 0.0660149 -3.07295e-21)
(0.870976 0.065956 9.8201e-22)
(0.872931 0.0659235 1.49108e-22)
(0.874976 0.0659146 -8.64493e-22)
(0.877112 0.0659253 3.7499e-22)
(0.87934 0.0659511 -3.17844e-22)
(0.88166 0.0659867 4.67022e-22)
(0.884073 0.0660259 2.40226e-22)
(0.886579 0.0660619 3.17932e-22)
(0.889178 0.066087 -7.1612e-22)
(0.891871 0.0660928 2.33812e-22)
(0.894656 0.0660701 -3.93783e-22)
(0.897533 0.0660091 3.34667e-22)
(0.900501 0.0658991 -8.58379e-24)
(0.903558 0.0657291 -5.24669e-22)
(0.9067 0.0654873 -5.31319e-22)
(0.909926 0.0651618 1.24253e-22)
(0.913231 0.06474 6.08841e-22)
(0.916609 0.0642096 -1.64524e-22)
(0.920056 0.0635582 -3.34208e-22)
(0.923563 0.0627737 2.00074e-22)
(0.927122 0.0618449 -1.22184e-22)
(0.930724 0.0607614 4.02364e-23)
(0.934358 0.0595143 1.08581e-22)
(0.938011 0.0580966 -2.70501e-23)
(0.941669 0.0565036 1.64275e-23)
(0.945317 0.0547337 -1.30263e-22)
(0.94894 0.0527884 3.57274e-23)
(0.95252 0.0506731 7.94384e-23)
(0.95604 0.0483971 -7.25861e-23)
(0.959483 0.0459744 -8.47705e-24)
(0.962829 0.0434228 6.51887e-24)
(0.966064 0.0407646 4.52031e-24)
(0.96917 0.0380258 -6.1272e-25)
(0.972134 0.0352351 1.64876e-24)
(0.974941 0.0324239 1.57352e-24)
(0.977585 0.0296238 -6.37479e-25)
(0.980051 0.0268682 -8.19508e-25)
(0.982345 0.0241858 2.8164e-25)
(0.984446 0.0216088 5.53917e-26)
(0.986386 0.0191555 -3.17757e-25)
(0.988116 0.0168588 2.45435e-26)
(0.989722 0.0147118 -1.01495e-24)
(0.991084 0.0127656 3.86397e-25)
(0.992411 0.0109532 -9.59031e-26)
(0.993396 0.00940196 3.29786e-25)
(0.994553 0.0078855 7.65906e-25)
(0.995096 0.00678133 1.59625e-25)
(0.996296 0.00538697 2.51292e-24)
(0.850015 0.0659964 4.48585e-21)
(0.851829 0.0658009 -1.14673e-21)
(0.853729 0.0656378 -1.12291e-22)
(0.855717 0.0655066 1.07079e-21)
(0.857793 0.0654059 -2.53745e-21)
(0.859958 0.0653341 1.00336e-21)
(0.862213 0.0652885 4.8711e-22)
(0.864559 0.0652662 -8.08772e-22)
(0.866998 0.0652631 -7.92015e-22)
(0.869529 0.0652749 -1.17361e-22)
(0.872154 0.065296 4.35928e-22)
(0.874873 0.0653205 5.77852e-22)
(0.877686 0.0653414 2.95671e-22)
(0.880595 0.0653512 -3.16571e-22)
(0.883598 0.0653416 3.96027e-22)
(0.886694 0.0653034 -3.73833e-22)
(0.889884 0.0652269 -1.10568e-22)
(0.893165 0.0651016 4.12635e-22)
(0.896536 0.0649167 1.32495e-22)
(0.899993 0.0646606 -1.86138e-22)
(0.903533 0.0643214 -6.09437e-24)
(0.907151 0.0638871 2.08046e-22)
(0.910843 0.0633454 -1.11554e-22)
(0.9146 0.0626843 1.12638e-22)
(0.918416 0.0618921 -8.02001e-23)
(0.922281 0.0609577 -7.56597e-23)
(0.926185 0.0598713 1.11348e-22)
(0.930116 0.0586242 -1.43531e-23)
(0.93406 0.0572099 -9.39342e-23)
(0.938003 0.0556239 1.81263e-23)
(0.94193 0.0538648 -1.43774e-23)
(0.945822 0.0519345 5.35124e-24)
(0.949662 0.0498383 -4.05682e-23)
(0.953433 0.0475859 1.83419e-23)
(0.957114 0.0451909 -1.15028e-23)
(0.960689 0.0426711 1.01396e-23)
(0.964139 0.0400485 2.39622e-23)
(0.967447 0.0373486 -5.5285e-24)
(0.970601 0.0345996 -2.5314e-24)
(0.973583 0.0318323 1.56143e-24)
(0.976389 0.0290777 2.3682e-24)
(0.979003 0.0263681 -2.84243e-25)
(0.981433 0.0237319 4.76191e-25)
(0.983656 0.0212004 -1.40579e-24)
(0.985704 0.0187911 1.19647e-24)
(0.987532 0.0165364 -8.22724e-25)
(0.989224 0.0144292 2.28844e-24)
(0.990659 0.0125196 5.84685e-25)
(0.992055 0.0107413 -3.67985e-25)
(0.993091 0.00922001 5.49394e-25)
(0.994304 0.00773196 -5.75921e-24)
(0.994876 0.00664998 1.31443e-24)
(0.996131 0.005281 -1.19744e-23)
(0.837434 0.0653372 6.79671e-22)
(0.83955 0.0651302 9.32983e-22)
(0.841752 0.0649556 -8.43611e-22)
(0.844041 0.0648127 5.37602e-22)
(0.846419 0.0647002 -2.96899e-22)
(0.848887 0.0646163 -2.60755e-22)
(0.851445 0.0645584 -5.00147e-22)
(0.854096 0.0645234 -2.49121e-22)
(0.856839 0.0645074 1.63923e-21)
(0.859677 0.0645058 -7.00628e-22)
(0.862609 0.0645132 1.90373e-22)
(0.865637 0.0645237 -3.49635e-23)
(0.868761 0.0645304 3.19898e-22)
(0.871981 0.0645258 -8.11868e-22)
(0.875297 0.0645016 1.47562e-22)
(0.878708 0.0644488 1.84691e-22)
(0.882212 0.0643578 -3.76925e-22)
(0.88581 0.0642184 -2.44576e-22)
(0.889497 0.0640198 9.34549e-24)
(0.89327 0.0637506 1.24052e-23)
(0.897127 0.0633993 8.23258e-23)
(0.901061 0.062954 2.85988e-22)
(0.905067 0.0624027 8.84168e-23)
(0.909138 0.0617338 -1.72091e-22)
(0.913264 0.0609359 3.249e-23)
(0.917437 0.0599982 3.4327e-23)
(0.921644 0.0589113 1.77834e-22)
(0.925873 0.0576668 -2.6497e-22)
(0.930111 0.0562584 1.11715e-22)
(0.93434 0.0546822 -9.28725e-23)
(0.938545 0.052937 2.21414e-23)
(0.942708 0.0510246 7.00942e-23)
(0.94681 0.0489508 -2.95308e-23)
(0.950831 0.0467251 -2.99475e-23)
(0.954752 0.0443611 -1.80451e-23)
(0.958555 0.0418764 1.02073e-23)
(0.96222 0.0392926 -1.46153e-23)
(0.965731 0.0366348 8.5558e-24)
(0.969074 0.0339307 7.54904e-24)
(0.972232 0.0312104 -3.05087e-24)
(0.9752 0.028504 2.00831e-24)
(0.977963 0.0258434 2.51496e-25)
(0.980527 0.023256 -1.27795e-24)
(0.982871 0.0207723 1.5246e-24)
(0.985029 0.0184094 6.44826e-25)
(0.986952 0.0161989 -1.19021e-24)
(0.98873 0.0141333 -2.10543e-24)
(0.990239 0.0122621 -6.49834e-25)
(0.991702 0.0105196 -1.88361e-24)
(0.99279 0.00902954 -5.46245e-25)
(0.994058 0.00757132 1.81518e-24)
(0.994658 0.0065124 -1.43044e-25)
(0.995969 0.00517018 5.14214e-24)
(0.824811 0.0645753 -2.97135e-21)
(0.827231 0.064358 4.78371e-21)
(0.829737 0.0641729 -2.42615e-21)
(0.83233 0.0640194 5.34947e-22)
(0.835013 0.063896 1.99067e-22)
(0.837786 0.063801 -2.56349e-22)
(0.84065 0.0637316 -9.75506e-22)
(0.843607 0.0636848 7.96554e-22)
(0.846658 0.0636565 -2.49822e-22)
(0.849804 0.0636424 5.91267e-22)
(0.853046 0.0636369 1.71357e-23)
(0.856385 0.0636343 -1.28057e-21)
(0.859821 0.0636275 6.15265e-23)
(0.863354 0.0636093 6.4318e-22)
(0.866985 0.0635715 -3.18441e-22)
(0.870712 0.0635051 -9.47931e-23)
(0.874533 0.0634007 6.64432e-22)
(0.878448 0.0632483 -6.70738e-22)