/*--------------------------------*- C++ -*----------------------------------*\
  =========                 |
  \\      /  F ield         | OpenFOAM: The Open Source CFD Toolbox
   \\    /   O peration     | Website:  https://openfoam.org
    \\  /    A nd           | Version:  7
     \\/     M anipulation  |
\*---------------------------------------------------------------------------*/
FoamFile
{
    version     2.0;
    format      ascii;
    class       volScalarField;
    location    "10";
    object      p;
}
// * * * * * * * * * * * * * * * * * * * * * * * * * * * * * * * * * * * * * //

dimensions      [0 2 -2 0 0 0 0];

internalField   nonuniform List<scalar> 
2625
(
-0.284026
-0.271085
-0.258567
-0.246499
-0.235171
-0.224185
-0.214867
-0.204438
-0.284129
-0.271175
-0.258644
-0.246557
-0.235216
-0.224179
-0.214924
-0.204173
-0.284283
-0.271311
-0.25876
-0.246643
-0.235282
-0.22417
-0.21501
-0.203777
-0.284487
-0.271491
-0.258913
-0.246757
-0.235371
-0.224158
-0.215126
-0.203254
-0.28474
-0.271715
-0.259104
-0.2469
-0.235482
-0.224144
-0.21527
-0.202607
-0.285042
-0.271981
-0.259332
-0.24707
-0.235616
-0.224128
-0.215445
-0.20184
-0.285391
-0.272289
-0.259595
-0.247267
-0.235771
-0.224111
-0.215649
-0.200958
-0.285785
-0.272636
-0.259892
-0.24749
-0.235948
-0.224093
-0.215884
-0.199968
-0.286223
-0.273023
-0.260224
-0.247739
-0.236147
-0.224074
-0.216148
-0.198876
-0.273447
-0.260587
-0.248012
-0.236367
-0.224057
-0.216442
-0.19769
-0.273906
-0.260981
-0.248309
-0.236607
-0.22404
-0.216764
-0.196418
-0.274398
-0.261404
-0.248629
-0.236868
-0.224024
-0.217115
-0.195069
-0.274921
-0.261855
-0.24897
-0.237148
-0.224011
-0.217492
-0.193651
-0.275474
-0.262331
-0.249331
-0.237446
-0.224
-0.217893
-0.192175
-0.276054
-0.26283
-0.249711
-0.237761
-0.223993
-0.218316
-0.19065
-0.276658
-0.263351
-0.250107
-0.238093
-0.223989
-0.218758
-0.189085
-0.277284
-0.263891
-0.250519
-0.238438
-0.223989
-0.219216
-0.187493
-0.27793
-0.264448
-0.250945
-0.238796
-0.223994
-0.219685
-0.185881
-0.278593
-0.265019
-0.251382
-0.239163
-0.224002
-0.220162
-0.18426
-0.265601
-0.251828
-0.239539
-0.224014
-0.220639
-0.18264
-0.266192
-0.252281
-0.239919
-0.22403
-0.221113
-0.181029
-0.266789
-0.25274
-0.240302
-0.224049
-0.221576
-0.179437
-0.267389
-0.2532
-0.240684
-0.224072
-0.22202
-0.177872
-0.267989
-0.253661
-0.241061
-0.224097
-0.222439
-0.176341
-0.268585
-0.254119
-0.24143
-0.224126
-0.222823
-0.174852
-0.254572
-0.241787
-0.224158
-0.223163
-0.173413
-0.255016
-0.242129
-0.224194
-0.223449
-0.172031
-0.255451
-0.24245
-0.224235
-0.22367
-0.170713
-0.255872
-0.242748
-0.224285
-0.223815
-0.16947
-0.256277
-0.243019
-0.224347
-0.223869
-0.168313
-0.243259
-0.224428
-0.223819
-0.167262
-0.243465
-0.224538
-0.223647
-0.166338
-0.243635
-0.224688
-0.223334
-0.165583
-0.243767
-0.224896
-0.222865
-0.165079
-0.225184
-0.222229
-0.164962
-0.225575
-0.221384
-0.165274
-0.22611
-0.220217
-0.165813
-0.218752
-0.167477
-0.217719
-0.176558
-0.217757
-0.202687
-0.213432
-0.217285
-0.143227
-0.139481
-0.135791
-0.132158
-0.128585
-0.125071
-0.121619
-0.118228
-0.114899
-0.111632
-0.108427
-0.105284
-0.102202
-0.0991813
-0.0962205
-0.0933188
-0.0904749
-0.0876877
-0.0849557
-0.0822774
-0.0796511
-0.0770751
-0.0745475
-0.0720665
-0.0696302
-0.0672365
-0.0648834
-0.062569
-0.0602913
-0.0580484
-0.0558385
-0.199755
-0.195667
-0.191479
-0.187349
-0.183211
-0.179076
-0.174958
-0.170863
-0.166797
-0.162765
-0.158773
-0.154824
-0.150921
-0.147067
-0.143265
-0.139518
-0.135826
-0.132193
-0.128618
-0.125104
-0.12165
-0.118258
-0.114928
-0.111661
-0.108455
-0.105312
-0.102229
-0.0992081
-0.0962469
-0.0933447
-0.0905004
-0.0877128
-0.0849804
-0.0823017
-0.0796751
-0.0770988
-0.0745709
-0.0720896
-0.069653
-0.067259
-0.0649056
-0.062591
-0.0603131
-0.0580699
-0.0558597
-0.200077
-0.195925
-0.191678
-0.187528
-0.183372
-0.17922
-0.175088
-0.170982
-0.166907
-0.162867
-0.158868
-0.154913
-0.151006
-0.147148
-0.143343
-0.139592
-0.135898
-0.132262
-0.128685
-0.125168
-0.121713
-0.118319
-0.114988
-0.111719
-0.108512
-0.105367
-0.102284
-0.0992618
-0.0962995
-0.0933964
-0.0905513
-0.0877629
-0.0850297
-0.0823503
-0.079723
-0.077146
-0.0746176
-0.0721357
-0.0696985
-0.0673039
-0.0649501
-0.0626349
-0.0603565
-0.0581129
-0.0559022
-0.200557
-0.19631
-0.191976
-0.187796
-0.183611
-0.179434
-0.175283
-0.17116
-0.167071
-0.16302
-0.159011
-0.155048
-0.151133
-0.147269
-0.143459
-0.139703
-0.136005
-0.132365
-0.128785
-0.125265
-0.121807
-0.118411
-0.115077
-0.111806
-0.108597
-0.105451
-0.102366
-0.0993421
-0.0963784
-0.0934739
-0.0906275
-0.0878379
-0.0851036
-0.0824232
-0.0797948
-0.0772169
-0.0746875
-0.0722047
-0.0697666
-0.0673713
-0.0650166
-0.0627007
-0.0604216
-0.0581772
-0.0559658
-0.201194
-0.196822
-0.192371
-0.188152
-0.18393
-0.17972
-0.175542
-0.171397
-0.16729
-0.163224
-0.159202
-0.155227
-0.151303
-0.147431
-0.143613
-0.139851
-0.136147
-0.132502
-0.128917
-0.125394
-0.121932
-0.118533
-0.115196
-0.111922
-0.108711
-0.105562
-0.102475
-0.099449
-0.0964833
-0.0935771
-0.090729
-0.0879377
-0.0852019
-0.08252
-0.0798903
-0.077311
-0.0747804
-0.0722965
-0.0698572
-0.0674608
-0.0651051
-0.0627882
-0.060508
-0.0582627
-0.0560504
-0.201982
-0.197457
-0.192862
-0.188594
-0.184327
-0.180076
-0.175864
-0.171692
-0.167562
-0.163477
-0.159439
-0.155451
-0.151514
-0.147632
-0.143805
-0.140035
-0.136324
-0.132673
-0.129083
-0.125554
-0.122088
-0.118685
-0.115344
-0.112067
-0.108852
-0.1057
-0.102611
-0.0995821
-0.096614
-0.0937055
-0.0908553
-0.088062
-0.0853243
-0.0826406
-0.0800092
-0.0774283
-0.0748961
-0.0724107
-0.06997
-0.0675722
-0.0652152
-0.062897
-0.0606156
-0.058369
-0.0561555
-0.202917
-0.198212
-0.193447
-0.189122
-0.184801
-0.1805
-0.17625
-0.172045
-0.167888
-0.163779
-0.159722
-0.155717
-0.151767
-0.147872
-0.144034
-0.140255
-0.136536
-0.132877
-0.12928
-0.125746
-0.122274
-0.118866
-0.115521
-0.112239
-0.109021
-0.105866
-0.102773
-0.0997411
-0.0967702
-0.093859
-0.0910062
-0.0882105
-0.0854706
-0.0827847
-0.0801512
-0.0775683
-0.0750343
-0.072547
-0.0701047
-0.0677052
-0.0653466
-0.0630268
-0.0607439
-0.0584959
-0.0562809
-0.203993
-0.199084
-0.194123
-0.189733
-0.185349
-0.180993
-0.176696
-0.172455
-0.168266
-0.164131
-0.160051
-0.156027
-0.152059
-0.14815
-0.1443
-0.14051
-0.136781
-0.133114
-0.129509
-0.125968
-0.12249
-0.119076
-0.115726
-0.11244
-0.109217
-0.106058
-0.102961
-0.0999256
-0.0969514
-0.094037
-0.0911813
-0.0883828
-0.0856402
-0.0829518
-0.0803159
-0.0777308
-0.0751945
-0.0727052
-0.0702608
-0.0678594
-0.0654989
-0.0631773
-0.0608926
-0.0586429
-0.0564262
-0.205203
-0.200067
-0.194888
-0.190425
-0.185971
-0.181551
-0.177204
-0.172919
-0.168694
-0.164529
-0.160424
-0.156378
-0.152392
-0.148466
-0.144602
-0.1408
-0.13706
-0.133383
-0.12977
-0.12622
-0.122735
-0.119315
-0.115959
-0.112667
-0.10944
-0.106276
-0.103174
-0.100135
-0.0971572
-0.0942393
-0.0913802
-0.0885785
-0.0858329
-0.0831416
-0.080503
-0.0779152
-0.0753764
-0.0728847
-0.070438
-0.0680344
-0.0656717
-0.0633481
-0.0610613
-0.0588096
-0.056591
-0.206538
-0.201155
-0.195737
-0.191195
-0.186664
-0.182174
-0.177769
-0.173438
-0.169173
-0.164975
-0.16084
-0.15677
-0.152763
-0.148819
-0.144939
-0.141123
-0.137371
-0.133683
-0.13006
-0.126502
-0.123009
-0.119582
-0.116219
-0.112921
-0.109688
-0.106519
-0.103413
-0.100369
-0.0973871
-0.0944652
-0.0916023
-0.0887971
-0.0860481
-0.0833536
-0.0807118
-0.0781211
-0.0755795
-0.0730851
-0.0706358
-0.0682296
-0.0658646
-0.0635385
-0.0612495
-0.0589955
-0.0567746
-0.207989
-0.202343
-0.196667
-0.192039
-0.187425
-0.182858
-0.178392
-0.174009
-0.1697
-0.165465
-0.161299
-0.157202
-0.153172
-0.149208
-0.14531
-0.141479
-0.137713
-0.134013
-0.13038
-0.126812
-0.123311
-0.119875
-0.116506
-0.113202
-0.109962
-0.106787
-0.103676
-0.100627
-0.0976406
-0.0947143
-0.0918473
-0.0890381
-0.0862853
-0.0835872
-0.080942
-0.078348
-0.0758033
-0.0733058
-0.0708536
-0.0684446
-0.0660768
-0.0637481
-0.0614565
-0.0592
-0.0569767
-0.209544
-0.203624
-0.197672
-0.192954
-0.188251
-0.183602
-0.179069
-0.17463
-0.170274
-0.165998
-0.161799
-0.157672
-0.153617
-0.149631
-0.145715
-0.141866
-0.138086
-0.134373
-0.130728
-0.12715
-0.12364
-0.120196
-0.116818
-0.113507
-0.110261
-0.10708
-0.103963
-0.100909
-0.097917
-0.0949859
-0.0921144
-0.0893009
-0.086544
-0.0838419
-0.081193
-0.0785954
-0.0760471
-0.0735463
-0.0710909
-0.0686788
-0.066308
-0.0639764
-0.0616819
-0.0594226
-0.0571965
-0.211192
-0.204987
-0.198747
-0.193934
-0.189137
-0.184401
-0.179797
-0.175299
-0.170893
-0.166574
-0.162337
-0.158179
-0.154097
-0.150088
-0.146151
-0.142285
-0.138488
-0.134762
-0.131104
-0.127515
-0.123995
-0.120541
-0.117156
-0.113837
-0.110584
-0.107396
-0.104273
-0.101213
-0.0982158
-0.0952795
-0.092403
-0.0895849
-0.0868235
-0.0841171
-0.0814641
-0.0788625
-0.0763105
-0.073806
-0.0713471
-0.0689316
-0.0665574
-0.0642226
-0.061925
-0.0596626
-0.0574335
-0.212918
-0.206424
-0.199884
-0.194975
-0.19008
-0.185253
-0.180575
-0.176013
-0.171553
-0.167189
-0.162913
-0.158722
-0.15461
-0.150576
-0.146617
-0.142732
-0.138919
-0.135178
-0.131507
-0.127906
-0.124375
-0.120912
-0.117517
-0.11419
-0.11093
-0.107735
-0.104605
-0.101539
-0.0985362
-0.0955944
-0.0927126
-0.0898894
-0.0871232
-0.0844122
-0.0817548
-0.0791489
-0.0765928
-0.0740843
-0.0716215
-0.0692023
-0.0668245
-0.0644862
-0.0621851
-0.0599194
-0.057687
-0.214709
-0.207925
-0.201078
-0.19607
-0.191075
-0.186153
-0.181397
-0.17677
-0.172254
-0.167841
-0.163524
-0.159297
-0.155155
-0.151095
-0.147113
-0.143208
-0.139377
-0.13562
-0.131935
-0.128322
-0.124779
-0.121306
-0.117902
-0.114567
-0.111298
-0.108096
-0.104959
-0.101887
-0.0988775
-0.0959298
-0.0930424
-0.0902139
-0.0874425
-0.0847266
-0.0820643
-0.0794539
-0.0768933
-0.0743805
-0.0719136
-0.0694903
-0.0671086
-0.0647665
-0.0624617
-0.0601923
-0.0579564
-0.216549
-0.209477
-0.202318
-0.197213
-0.192115
-0.187097
-0.182261
-0.177565
-0.172991
-0.168528
-0.164168
-0.159904
-0.15573
-0.151642
-0.147636
-0.143709
-0.13986
-0.136087
-0.132387
-0.128761
-0.125207
-0.121723
-0.11831
-0.114965
-0.111688
-0.108478
-0.105334
-0.102255
-0.099239
-0.0962851
-0.0933918
-0.0905575
-0.0877806
-0.0850594
-0.0823921
-0.0797767
-0.0772113
-0.074694
-0.0722225
-0.0697949
-0.067409
-0.0650627
-0.062754
-0.0604807
-0.0582408
-0.21842
-0.211068
-0.203597
-0.198395
-0.193195
-0.188079
-0.183161
-0.178396
-0.173761
-0.169247
-0.164842
-0.16054
-0.156333
-0.152215
-0.148184
-0.144236
-0.140368
-0.136577
-0.132863
-0.129223
-0.125656
-0.122162
-0.118738
-0.115384
-0.112099
-0.108881
-0.105729
-0.102643
-0.09962
-0.0966595
-0.0937599
-0.0909196
-0.088137
-0.0854101
-0.0827374
-0.0801168
-0.0775463
-0.075024
-0.0725478
-0.0701155
-0.0677251
-0.0653744
-0.0630613
-0.0607838
-0.0585398
-0.220305
-0.212684
-0.204904
-0.199609
-0.194307
-0.189093
-0.184094
-0.179257
-0.174561
-0.169994
-0.165544
-0.161202
-0.15696
-0.152813
-0.148757
-0.144786
-0.140898
-0.13709
-0.13336
-0.129706
-0.126127
-0.122621
-0.119187
-0.115823
-0.112529
-0.109303
-0.106143
-0.103049
-0.10002
-0.0970523
-0.0941462
-0.0912995
-0.0885107
-0.085778
-0.0830995
-0.0804733
-0.0778975
-0.0753699
-0.0728886
-0.0704513
-0.0680561
-0.0657006
-0.0633829
-0.0611009
-0.0588525
-0.0566357
-0.222186
-0.21431
-0.206228
-0.200845
-0.195444
-0.190133
-0.185052
-0.180145
-0.175387
-0.170766
-0.166269
-0.161887
-0.157611
-0.153434
-0.14935
-0.145356
-0.141448
-0.137623
-0.133877
-0.130209
-0.126617
-0.1231
-0.119655
-0.116282
-0.112978
-0.109744
-0.106576
-0.103474
-0.100437
-0.0974626
-0.0945497
-0.0916964
-0.0889013
-0.0861623
-0.0834778
-0.0808457
-0.0782642
-0.075731
-0.0732443
-0.0708018
-0.0684013
-0.0660409
-0.0637182
-0.0614314
-0.0591782
-0.0569568
-0.224043
-0.21593
-0.207558
-0.202093
-0.196597
-0.191191
-0.18603
-0.181053
-0.176233
-0.171558
-0.167015
-0.162592
-0.158281
-0.154073
-0.149964
-0.145947
-0.142018
-0.138174
-0.134413
-0.130731
-0.127126
-0.123597
-0.120141
-0.116758
-0.113445
-0.110202
-0.107026
-0.103916
-0.100871
-0.0978898
-0.0949697
-0.0921096
-0.0893078
-0.0865624
-0.0838715
-0.0812333
-0.0786457
-0.0761067
-0.0736142
-0.0711661
-0.0687602
-0.0663944
-0.0640665
-0.0617745
-0.0595163
-0.0572899
-0.225856
-0.217528
-0.20888
-0.203343
-0.197756
-0.19226
-0.187021
-0.181975
-0.177095
-0.172367
-0.167778
-0.163315
-0.158969
-0.15473
-0.150594
-0.146554
-0.142605
-0.138743
-0.134966
-0.131269
-0.127652
-0.124111
-0.120645
-0.117251
-0.113929
-0.110677
-0.107492
-0.104375
-0.101322
-0.0983329
-0.0954056
-0.0925384
-0.0897296
-0.0869774
-0.0842799
-0.0816352
-0.0790413
-0.0764962
-0.0739976
-0.0715436
-0.0691319
-0.0667604
-0.064427
-0.0621296
-0.059866
-0.0576344
-0.227605
-0.219085
-0.210182
-0.204583
-0.198912
-0.193331
-0.188018
-0.182907
-0.177968
-0.173188
-0.168554
-0.164051
-0.15967
-0.155402
-0.151239
-0.147176
-0.143207
-0.139328
-0.135534
-0.131824
-0.128193
-0.124641
-0.121164
-0.11776
-0.114429
-0.111167
-0.107975
-0.104849
-0.101788
-0.0987913
-0.0958564
-0.0929819
-0.090166
-0.0874068
-0.0847024
-0.082051
-0.0794505
-0.0768988
-0.0743939
-0.0719337
-0.0695159
-0.0671385
-0.0647992
-0.062496
-0.0602268
-0.0579897
-0.229271
-0.220585
-0.21145
-0.2058
-0.200054
-0.194394
-0.189013
-0.183839
-0.178844
-0.174016
-0.169337
-0.164796
-0.160382
-0.156085
-0.151896
-0.147811
-0.143822
-0.139925
-0.136117
-0.132392
-0.128749
-0.125185
-0.121698
-0.118284
-0.114943
-0.111673
-0.108472
-0.105337
-0.102269
-0.0992641
-0.0963216
-0.0934395
-0.0906162
-0.0878498
-0.0851383
-0.0824798
-0.0798724
-0.077314
-0.0748025
-0.0723357
-0.0699115
-0.0675278
-0.0651824
-0.0628731
-0.060598
-0.058355
-0.230831
-0.222008
-0.212668
-0.206981
-0.201171
-0.195441
-0.189998
-0.184766
-0.179719
-0.174844
-0.170124
-0.165547
-0.161101
-0.156776
-0.152563
-0.148456
-0.144448
-0.140535
-0.136711
-0.132973
-0.129318
-0.125743
-0.122245
-0.118822
-0.115471
-0.112192
-0.108982
-0.10584
-0.102763
-0.0997505
-0.0968002
-0.0939105
-0.0910796
-0.0883057
-0.0855869
-0.0829212
-0.0803066
-0.0777411
-0.0752227
-0.0727491
-0.0703182
-0.0679279
-0.065576
-0.0632604
-0.060979
-0.0587298
-0.232267
-0.223335
-0.213821
-0.208113
-0.202249
-0.196459
-0.190962
-0.18568
-0.180586
-0.175668
-0.17091
-0.166299
-0.161823
-0.157472
-0.153236
-0.149109
-0.145083
-0.141154
-0.137316
-0.133566
-0.129899
-0.126312
-0.122804
-0.119372
-0.116012
-0.112724
-0.109506
-0.106355
-0.10327
-0.10025
-0.0972916
-0.0943941
-0.0915555
-0.0887739
-0.0860475
-0.0833743
-0.0807523
-0.0781795
-0.0756538
-0.0731731
-0.0707352
-0.068338
-0.0659794
-0.0636571
-0.0613692
-0.0591136
-0.233559
-0.224548
-0.214894
-0.209181
-0.203276
-0.197438
-0.191896
-0.186571
-0.181436
-0.17648
-0.171689
-0.167048
-0.162545
-0.158169
-0.153913
-0.149767
-0.145725
-0.141781
-0.13793
-0.134167
-0.130489
-0.126893
-0.123375
-0.119933
-0.116565
-0.113268
-0.110042
-0.106883
-0.10379
-0.100761
-0.097795
-0.0948896
-0.0920431
-0.0892538
-0.0865196
-0.0838387
-0.0812091
-0.0786287
-0.0760955
-0.0736074
-0.0711622
-0.0687578
-0.066392
-0.0640628
-0.061768
-0.0595057
-0.234686
-0.225625
-0.215869
-0.210169
-0.204239
-0.198366
-0.19279
-0.18743
-0.182262
-0.177275
-0.172455
-0.167788
-0.163261
-0.158865
-0.15459
-0.150428
-0.146371
-0.142413
-0.13855
-0.134776
-0.131088
-0.127482
-0.123955
-0.120505
-0.117128
-0.113823
-0.110589
-0.107422
-0.104321
-0.101284
-0.0983098
-0.0953964
-0.092542
-0.0897446
-0.0870025
-0.0843137
-0.0816762
-0.079088
-0.0765471
-0.0740513
-0.0715985
-0.0691866
-0.0668135
-0.064477
-0.062175
-0.0599056
-0.23563
-0.226548
-0.21673
-0.211062
-0.205123
-0.19923
-0.193633
-0.188249
-0.183056
-0.178046
-0.173203
-0.168515
-0.163969
-0.159556
-0.155265
-0.151088
-0.147019
-0.143049
-0.139176
-0.135392
-0.131694
-0.12808
-0.124544
-0.121086
-0.117701
-0.114388
-0.111146
-0.107971
-0.104862
-0.101817
-0.0988353
-0.0959139
-0.0930514
-0.090246
-0.0874957
-0.0847988
-0.0821532
-0.079557
-0.077008
-0.0745043
-0.0720437
-0.069624
-0.0672432
-0.0648991
-0.0625897
-0.0603129
-0.0580669
-0.236372
-0.227297
-0.217459
-0.211842
-0.205912
-0.200017
-0.194413
-0.189018
-0.183811
-0.178785
-0.173927
-0.169223
-0.164663
-0.160237
-0.155934
-0.151746
-0.147666
-0.143687
-0.139804
-0.136012
-0.132306
-0.128684
-0.125141
-0.121674
-0.118282
-0.114962
-0.111712
-0.10853
-0.105413
-0.102361
-0.0993707
-0.0964413
-0.0935707
-0.0907571
-0.0879987
-0.0852935
-0.0826397
-0.0800352
-0.077478
-0.074966
-0.0724973
-0.0700695
-0.0676808
-0.0653288
-0.0630117
-0.0607273
-0.0584737
-0.236895
-0.227852
-0.218037
-0.212494
-0.206592
-0.200713
-0.195119
-0.189725
-0.184515
-0.179484
-0.174619
-0.169908
-0.16534
-0.160904
-0.156593
-0.152397
-0.148309
-0.144323
-0.140433
-0.136634
-0.132922
-0.129293
-0.125743
-0.12227
-0.118871
-0.115544
-0.112287
-0.109097
-0.105973
-0.102913
-0.0999154
-0.0969781
-0.0940994
-0.0912776
-0.0885109
-0.0857973
-0.083135
-0.0805221
-0.0779564
-0.075436
-0.0729589
-0.0705228
-0.0681258
-0.0657657
-0.0634405
-0.0611482
-0.0588867
-0.237178
-0.228192
-0.218447
-0.212997
-0.207145
-0.201303
-0.195736
-0.19036
-0.185162
-0.180137
-0.175274
-0.170563
-0.165993
-0.161555
-0.15724
-0.15304
-0.148948
-0.144957
-0.141062
-0.137258
-0.13354
-0.129906
-0.12635
-0.122872
-0.119467
-0.116133
-0.112869
-0.109673
-0.106542
-0.103474
-0.100469
-0.0975236
-0.0946369
-0.0918069
-0.0890317
-0.0863097
-0.0836388
-0.0810172
-0.0784429
-0.0759139
-0.0734281
-0.0709835
-0.0685779
-0.0662094
-0.0638758
-0.0615753
-0.0593057
-0.237203
-0.228298
-0.218668
-0.213332
-0.207554
-0.201772
-0.196254
-0.190913
-0.185741
-0.180735
-0.175885
-0.171183
-0.166619
-0.162184
-0.15787
-0.153671
-0.149577
-0.145585
-0.141688
-0.137881
-0.13416
-0.130521
-0.126961
-0.123478
-0.120068
-0.116729
-0.113459
-0.110256
-0.107118
-0.104043
-0.10103
-0.0980774
-0.0951827
-0.0923444
-0.0895609
-0.0868302
-0.0841507
-0.0815203
-0.0789372
-0.0763993
-0.0739046
-0.0714512
-0.0690368
-0.0666596
-0.0643174
-0.0620083
-0.0597304
-0.236942
-0.228145
-0.218678
-0.213479
-0.207801
-0.202107
-0.196658
-0.191372
-0.186243
-0.18127
-0.176446
-0.171763
-0.167213
-0.162788
-0.158482
-0.154287
-0.150197
-0.146206
-0.142309
-0.138501
-0.134778
-0.131137
-0.127575
-0.124087
-0.120673
-0.117329
-0.114054
-0.110845
-0.107701
-0.104619
-0.101599
-0.0986389
-0.0957363
-0.0928899
-0.0900979
-0.0873587
-0.0846704
-0.0820311
-0.0794389
-0.0768919
-0.0743882
-0.0719257
-0.0695023
-0.0671161
-0.064765
-0.0624471
-0.0601605
-0.23637
-0.227716
-0.218459
-0.213417
-0.207869
-0.20229
-0.196936
-0.191727
-0.18666
-0.181736
-0.17695
-0.172297
-0.16777
-0.163363
-0.15907
-0.154885
-0.150803
-0.146817
-0.142923
-0.139117
-0.135395
-0.131754
-0.12819
-0.1247
-0.121282
-0.117935
-0.114655
-0.11144
-0.10829
-0.105203
-0.102176
-0.0992079
-0.0962976
-0.0934431
-0.0906427
-0.0878948
-0.0851976
-0.0825492
-0.0799479
-0.0773917
-0.0748787
-0.0724068
-0.0699741
-0.0675787
-0.0652184
-0.0628914
-0.0605958
-0.235457
-0.226991
-0.217982
-0.213114
-0.207728
-0.202298
-0.197066
-0.191959
-0.186974
-0.182117
-0.177385
-0.172774
-0.168281
-0.1639
-0.159628
-0.15546
-0.151389
-0.147413
-0.143526
-0.139725
-0.136006
-0.132367
-0.128803
-0.125312
-0.121893
-0.118542
-0.115258
-0.11204
-0.108884
-0.105791
-0.102757
-0.0997825
-0.0968646
-0.0940022
-0.0911936
-0.0884371
-0.085731
-0.0830736
-0.080463
-0.0778974
-0.0753749
-0.0728936
-0.0704514
-0.0680465
-0.0656768
-0.0633405
-0.0610356
-0.0587604
-0.234105
-0.225897
-0.217188
-0.212523
-0.207346
-0.202104
-0.197028
-0.192049
-0.18717
-0.1824
-0.177737
-0.173183
-0.168734
-0.16439
-0.160147
-0.156001
-0.151949
-0.147987
-0.144111
-0.140318
-0.136605
-0.13297
-0.129408
-0.125919
-0.122499
-0.119147
-0.11586
-0.112638
-0.109478
-0.10638
-0.103341
-0.100359
-0.0974344
-0.0945644
-0.0917478
-0.088983
-0.0862682
-0.0836018
-0.0809821
-0.0784072
-0.0758753
-0.0733844
-0.0709327
-0.0685183
-0.0661391
-0.0637934
-0.0614791
-0.0591947
-0.232028
-0.224367
-0.216093
-0.211691
-0.20678
-0.201768
-0.196878
-0.192052
-0.187299
-0.18263
-0.17805
-0.173562
-0.169167
-0.164866
-0.160657
-0.156538
-0.152507
-0.148562
-0.1447
-0.140917
-0.137212
-0.133581
-0.130023
-0.126535
-0.123115
-0.119762
-0.116474
-0.113248
-0.110084
-0.106981
-0.103935
-0.100948
-0.0980156
-0.095138
-0.0923132
-0.0895398
-0.0868162
-0.0841407
-0.0815116
-0.0789271
-0.0763855
-0.0738849
-0.0714234
-0.0689991
-0.0666102
-0.0642547
-0.0619308
-0.0596368
-0.229424
-0.222726
-0.214869
-0.210712
-0.2061
-0.201357
-0.196681
-0.192032
-0.187424
-0.182872
-0.178387
-0.173975
-0.169641
-0.165388
-0.161217
-0.157129
-0.153122
-0.149195
-0.145346
-0.141574
-0.137876
-0.13425
-0.130695
-0.127207
-0.123787
-0.120431
-0.117139
-0.113909
-0.110739
-0.107629
-0.104577
-0.101581
-0.0986399
-0.0957529
-0.0929183
-0.0901346
-0.0874003
-0.0847138
-0.0820735
-0.0794776
-0.0769244
-0.0744122
-0.071939
-0.069503
-0.0671025
-0.0647354
-0.0624001
-0.0600948
-0.227633
-0.220666
-0.212709
-0.20872
-0.204484
-0.200118
-0.195763
-0.191384
-0.187002
-0.182639
-0.17831
-0.174027
-0.1698
-0.165636
-0.161539
-0.157511
-0.153555
-0.14967
-0.145856
-0.142112
-0.138437
-0.13483
-0.131289
-0.127814
-0.124402
-0.121053
-0.117765
-0.114537
-0.111367
-0.108255
-0.1052
-0.102199
-0.0992524
-0.0963584
-0.0935158
-0.0907232
-0.0879791
-0.0852822
-0.0826308
-0.0800233
-0.0774582
-0.0749337
-0.072448
-0.0699994
-0.0675861
-0.0652063
-0.0628583
-0.0605405
-0.220001
-0.215457
-0.208067
-0.204688
-0.201011
-0.197174
-0.193264
-0.189263
-0.185205
-0.18112
-0.177028
-0.172951
-0.168901
-0.16489
-0.160926
-0.157015
-0.15316
-0.149364
-0.145629
-0.141954
-0.138341
-0.134789
-0.131297
-0.127865
-0.124491
-0.121176
-0.117919
-0.114718
-0.111572
-0.108481
-0.105444
-0.10246
-0.0995272
-0.0966454
-0.0938132
-0.0910294
-0.0882928
-0.0856019
-0.0829554
-0.0803517
-0.0777894
-0.0752669
-0.0727824
-0.0703343
-0.0679209
-0.0655405
-0.0631915
-0.0608722
-0.189199
-0.214623
-0.209186
-0.206285
-0.202567
-0.198616
-0.194548
-0.190385
-0.186175
-0.181951
-0.177736
-0.173548
-0.169402
-0.165306
-0.161268
-0.157293
-0.153382
-0.149537
-0.145759
-0.142048
-0.138404
-0.134825
-0.131311
-0.127861
-0.124473
-0.121147
-0.117881
-0.114675
-0.111527
-0.108436
-0.105402
-0.102423
-0.0994975
-0.0966249
-0.0938036
-0.0910324
-0.0883099
-0.0856345
-0.0830046
-0.0804186
-0.0778747
-0.0753712
-0.0729062
-0.0704777
-0.068084
-0.0657231
-0.063393
-0.0610921
-0.178156
-0.210922
-0.206091
-0.204014
-0.200703
-0.197018
-0.193145
-0.189138
-0.185061
-0.18095
-0.176835
-0.172736
-0.168668
-0.164643
-0.160669
-0.156751
-0.152892
-0.149095
-0.145361
-0.14169
-0.138082
-0.134538
-0.131055
-0.127634
-0.124273
-0.120972
-0.11773
-0.114546
-0.111418
-0.108347
-0.105331
-0.102369
-0.0994594
-0.0966018
-0.0937947
-0.0910369
-0.0883269
-0.0856633
-0.0830446
-0.0804692
-0.0779352
-0.0754411
-0.0729849
-0.0705647
-0.0681787
-0.065825
-0.0635017
-0.061207
-0.174953
-0.207161
-0.202392
-0.201021
-0.198167
-0.194813
-0.191205
-0.187417
-0.183528
-0.17958
-0.175608
-0.171636
-0.167681
-0.163757
-0.159873
-0.156036
-0.152251
-0.14852
-0.144846
-0.14123
-0.137673
-0.134174
-0.130733
-0.12735
-0.124024
-0.120756
-0.117543
-0.114386
-0.111284
-0.108235
-0.10524
-0.102296
-0.0994042
-0.0965622
-0.0937692
-0.0910241
-0.0883255
-0.0856721
-0.0830624
-0.080495
-0.0779681
-0.0754802
-0.0730294
-0.0706139
-0.0682319
-0.0658817
-0.0635613
-0.0612691
-0.173302
-0.203907
-0.199287
-0.198345
-0.195856
-0.192785
-0.189409
-0.185817
-0.182096
-0.178296
-0.174454
-0.170597
-0.166746
-0.162914
-0.159114
-0.155352
-0.151635
-0.147966
-0.144348
-0.140784
-0.137273
-0.133817
-0.130416
-0.127069
-0.123777
-0.120539
-0.117355
-0.114223
-0.111145
-0.108118
-0.105143
-0.102218
-0.0993428
-0.0965161
-0.0937371
-0.0910046
-0.0883174
-0.0856743
-0.0830739
-0.0805147
-0.0779952
-0.0755137
-0.0730686
-0.0706582
-0.0682806
-0.0659342
-0.0636171
-0.0613277
-0.0590642
-0.172221
-0.200872
-0.196548
-0.195838
-0.193645
-0.190819
-0.187655
-0.184246
-0.180684
-0.177024
-0.173307
-0.169562
-0.165811
-0.16207
-0.158351
-0.154663
-0.151013
-0.147406
-0.143844
-0.14033
-0.136866
-0.133453
-0.130091
-0.126781
-0.123522
-0.120315
-0.117159
-0.114055
-0.111
-0.107996
-0.105041
-0.102135
-0.099277
-0.0964661
-0.0937016
-0.0909823
-0.0883071
-0.0856749
-0.0830843
-0.0805339
-0.0780224
-0.075548
-0.0731093
-0.0707045
-0.0683319
-0.0659899
-0.0636767
-0.0613908
-0.0591303
-0.171633
-0.197947
-0.19398
-0.193372
-0.191429
-0.188824
-0.185861
-0.18263
-0.179226
-0.175708
-0.172117
-0.168486
-0.164838
-0.16119
-0.157555
-0.153944
-0.150363
-0.146819
-0.143315
-0.139854
-0.136439
-0.133071
-0.12975
-0.126478
-0.123254
-0.120079
-0.116953
-0.113876
-0.110847
-0.107866
-0.104932
-0.102046
-0.0992057
-0.0964114
-0.0936619
-0.0909564
-0.0882937
-0.0856729
-0.0830926
-0.0805515
-0.0780483
-0.0755814
-0.0731493
-0.0707505
-0.0683832
-0.0660459
-0.0637368
-0.0614544
-0.0591971
-0.171351
-0.19512
-0.191535
-0.190942
-0.189208
-0.186802
-0.184027
-0.180969
-0.177722
-0.174345
-0.170883
-0.167368
-0.163825
-0.160272
-0.156724
-0.153191
-0.149683
-0.146204
-0.142761
-0.139355
-0.135991
-0.132669
-0.129391
-0.126158
-0.122971
-0.11983
-0.116735
-0.113686
-0.110683
-0.107726
-0.104815
-0.101949
-0.0991282
-0.0963511
-0.0936174
-0.0909262
-0.0882766
-0.0856675
-0.0830979
-0.0805665
-0.0780719
-0.0756128
-0.0731876
-0.0707949
-0.0684331
-0.0661006
-0.0637957
-0.061517
-0.059263
-0.171185
-0.192377
-0.189191
-0.188557
-0.186994
-0.184765
-0.182165
-0.179273
-0.176179
-0.172943
-0.169609
-0.166211
-0.162775
-0.159319
-0.15586
-0.152408
-0.148974
-0.145564
-0.142182
-0.138834
-0.135522
-0.132248
-0.129015
-0.125823
-0.122674
-0.119567
-0.116505
-0.113485
-0.11051
-0.107579
-0.104691
-0.101846
-0.0990443
-0.0962851
-0.0935677
-0.0908914
-0.0882554
-0.0856586
-0.0831001
-0.0805786
-0.078093
-0.075642
-0.073224
-0.0708377
-0.0684815
-0.066154
-0.0638535
-0.0615786
-0.059328
-0.171006
-0.189705
-0.186917
-0.186213
-0.184788
-0.182716
-0.180278
-0.177545
-0.174601
-0.171503
-0.168297
-0.165017
-0.161688
-0.158332
-0.154963
-0.151595
-0.148237
-0.144896
-0.141579
-0.138289
-0.135032
-0.131808
-0.128621
-0.125472
-0.122362
-0.119291
-0.116262
-0.113274
-0.110327
-0.107421
-0.104558
-0.101735
-0.0989537
-0.0962131
-0.0935127
-0.0908519
-0.0882299
-0.0856459
-0.0830989
-0.0805879
-0.0781116
-0.0756689
-0.0732584
-0.0708787
-0.0685284
-0.066206
-0.0639102
-0.0616393
-0.0593922
-0.170738
-0.187093
-0.184687
-0.183901
-0.182588
-0.180655
-0.178367
-0.175786
-0.172986
-0.170026
-0.166948
-0.163785
-0.160566
-0.15731
-0.154033
-0.15075
-0.14747
-0.144201
-0.14095
-0.137721
-0.13452
-0.131348
-0.128209
-0.125103
-0.122034
-0.119001
-0.116007
-0.11305
-0.110133
-0.107255
-0.104416
-0.101616
-0.0988561
-0.0961348
-0.093452
-0.0908072
-0.0881999
-0.0856292
-0.0830942
-0.0805939
-0.0781274
-0.0756934
-0.0732907
-0.0709179
-0.0685737
-0.0662567
-0.0639656
-0.0616989
-0.0594554
-0.170336
-0.18453
-0.18248
-0.181614
-0.18039
-0.178582
-0.176433
-0.173996
-0.171337
-0.168512
-0.16556
-0.162516
-0.159407
-0.156252
-0.15307
-0.149873
-0.146673
-0.143478
-0.140295
-0.137129
-0.133986
-0.130867
-0.127777
-0.124718
-0.12169
-0.118697
-0.115738
-0.112815
-0.109928
-0.107078
-0.104265
-0.101489
-0.0987511
-0.0960498
-0.188235
-0.190924
-0.193855
-0.196336
-0.212764
-0.189166
-0.193163
-0.197947
-0.201855
-0.225119
-0.189742
-0.193999
-0.199124
-0.20273
-0.228037
-0.188645
-0.192888
-0.197968
-0.201241
-0.226622
-0.187265
-0.19155
-0.196626
-0.199828
-0.224312
-0.185882
-0.190199
-0.195216
-0.198445
-0.22141
-0.188643
-0.193525
-0.196835
-0.218014
-0.191589
-0.195027
-0.21436
-0.193068
-0.210598
-0.206793
)
;

boundaryField
{
    inlet
    {
        type            zeroGradient;
    }
    outlet
    {
        type            fixedValue;
        value           nonuniform 0();
    }
    cylinder
    {
        type            zeroGradient;
    }
    top
    {
        type            symmetryPlane;
    }
    bottom
    {
        type            symmetryPlane;
    }
    defaultFaces
    {
        type            empty;
    }
    procBoundary10to6
    {
        type            processor;
        value           nonuniform List<scalar> 
54
(
-0.283974
-0.271039
-0.258528
-0.24647
-0.235149
-0.224189
-0.214839
-0.204571
-0.199594
-0.195538
-0.19138
-0.18726
-0.183131
-0.179005
-0.174893
-0.170803
-0.166742
-0.162714
-0.158725
-0.154779
-0.150878
-0.147027
-0.147027
-0.143227
-0.139481
-0.135791
-0.132158
-0.128585
-0.125071
-0.121619
-0.118228
-0.114899
-0.111632
-0.108427
-0.105284
-0.102202
-0.0991813
-0.0962205
-0.0933188
-0.0904749
-0.0876877
-0.0849557
-0.0822774
-0.0796511
-0.0770751
-0.0745475
-0.0720665
-0.0696302
-0.0672365
-0.0648834
-0.062569
-0.0602913
-0.0580484
-0.0558385
)
;
    }
    procBoundary10to9
    {
        type            processor;
        value           nonuniform List<scalar> 
58
(
-0.29726
-0.297374
-0.297543
-0.297768
-0.298048
-0.29838
-0.298764
-0.299199
-0.299682
-0.286703
-0.286703
-0.287222
-0.28778
-0.288373
-0.289
-0.289657
-0.290342
-0.291052
-0.291786
-0.292539
-0.279269
-0.279269
-0.279957
-0.280653
-0.281354
-0.282057
-0.282759
-0.269174
-0.269174
-0.269752
-0.270316
-0.270862
-0.271387
-0.256665
-0.256665
-0.257032
-0.257375
-0.257692
-0.243861
-0.243861
-0.243917
-0.243941
-0.226842
-0.226842
-0.227772
-0.228711
-0.216857
-0.216857
-0.215348
-0.219016
-0.219016
-0.219425
-0.185804
-0.185764
-0.186118
-0.185014
-0.183582
-0.182147
)
;
    }
    procBoundary10to11
    {
        type            processor;
        value           nonuniform List<scalar> 
53
(
-0.0536597
-0.0536808
-0.0537228
-0.0537857
-0.0538692
-0.0539732
-0.0540972
-0.0542408
-0.0544036
-0.0545851
-0.0547847
-0.0550018
-0.0552358
-0.0554861
-0.0557519
-0.0560326
-0.0563274
-0.0563274
-0.0544488
-0.0547653
-0.0550935
-0.0554329
-0.0557826
-0.0561422
-0.056511
-0.0568883
-0.0572738
-0.0576668
-0.0576668
-0.0558497
-0.0562491
-0.0566544
-0.0570654
-0.0574818
-0.0579033
-0.0583297
-0.0583297
-0.0565131
-0.0569382
-0.0573708
-0.0578177
-0.058251
-0.0585807
-0.0588181
-0.0589387
-0.0590031
-0.0590031
-0.056825
-0.0568936
-0.0569631
-0.0570319
-0.0570998
-0.0571671
)
;
    }