/*--------------------------------*- C++ -*----------------------------------*\
  =========                 |
  \\      /  F ield         | OpenFOAM: The Open Source CFD Toolbox
   \\    /   O peration     | Website:  https://openfoam.org
    \\  /    A nd           | Version:  7
     \\/     M anipulation  |
\*---------------------------------------------------------------------------*/
FoamFile
{
    version     2.0;
    format      ascii;
    class       volVectorField;
    location    "30";
    object      U;
}
// * * * * * * * * * * * * * * * * * * * * * * * * * * * * * * * * * * * * * //

dimensions      [0 1 -1 0 0 0 0];

internalField   nonuniform List<vector> 
2625
(
(0.96836 0.0278788 0)
(0.967583 0.0272543 0)
(0.966848 0.0266431 0)
(0.966152 0.0260452 0)
(0.965496 0.0254603 0)
(0.964879 0.0248883 0)
(0.964301 0.0243289 0)
(0.963761 0.0237818 0)
(0.963259 0.0232468 0)
(0.962794 0.0227237 0)
(0.962367 0.0222116 0)
(0.961974 0.0217108 0)
(0.961619 0.0212197 0)
(0.961296 0.02074 0)
(0.961012 0.0202671 0)
(0.960756 0.0198071 0)
(0.960544 0.0193476 0)
(0.960348 0.0189078 0)
(0.96021 0.0184521 0)
(0.960067 0.0180384 0)
(0.96001 0.0175647 0)
(0.959908 0.0171997 0)
(0.959947 0.0166528 0)
(0.95987 0.0164077 0)
(0.960031 0.0156448 0)
(0.959961 0.0157232 0)
(0.960279 0.0144245 0)
(0.995169 0.0473339 0)
(0.993265 0.0465116 0)
(0.991419 0.0456826 0)
(0.989631 0.0448489 0)
(0.9879 0.0440123 0)
(0.986225 0.0431746 0)
(0.984603 0.0423376 0)
(0.983035 0.0415028 0)
(0.98152 0.0406715 0)
(0.980055 0.0398452 0)
(0.978642 0.0390251 0)
(0.977278 0.0382122 0)
(0.975963 0.0374076 0)
(0.974696 0.0366122 0)
(0.973477 0.0358267 0)
(0.972304 0.0350519 0)
(0.971177 0.0342885 0)
(0.970096 0.0335369 0)
(0.96906 0.0327977 0)
(0.968067 0.0320712 0)
(0.967119 0.0313577 0)
(0.966213 0.0306576 0)
(0.96535 0.0299709 0)
(0.964529 0.0292978 0)
(0.96375 0.0286384 0)
(0.963012 0.0279926 0)
(0.962314 0.0273605 0)
(0.961656 0.026742 0)
(0.961038 0.026137 0)
(0.960459 0.0255453 0)
(0.959918 0.0249667 0)
(0.959416 0.0244009 0)
(0.958951 0.0238477 0)
(0.958524 0.0233068 0)
(0.958133 0.0227779 0)
(0.957778 0.0222604 0)
(0.957459 0.0217544 0)
(0.957176 0.0212582 0)
(0.956924 0.0207736 0)
(0.956712 0.020296 0)
(0.956525 0.0198315 0)
(0.956383 0.0193678 0)
(0.956256 0.0189237 0)
(0.956187 0.0184643 0)
(0.95611 0.0180465 0)
(0.956122 0.0175694 0)
(0.956083 0.0172003 0)
(0.956193 0.0166503 0)
(0.95617 0.0164011 0)
(0.956411 0.0156346 0)
(0.956376 0.0157093 0)
(0.9568 0.0144029 0)
(0.987801 0.0477278 0)
(0.985986 0.0468878 0)
(0.984229 0.0460418 0)
(0.98253 0.0451916 0)
(0.980887 0.0443392 0)
(0.979299 0.0434864 0)
(0.977765 0.0426348 0)
(0.976284 0.0417858 0)
(0.974856 0.040941 0)
(0.973478 0.0401016 0)
(0.972151 0.0392689 0)
(0.970873 0.0384438 0)
(0.969643 0.0376275 0)
(0.968462 0.0368207 0)
(0.967327 0.0360243 0)
(0.966238 0.035239 0)
(0.965195 0.0344654 0)
(0.964197 0.033704 0)
(0.963243 0.0329553 0)
(0.962333 0.0322196 0)
(0.961467 0.0314973 0)
(0.960642 0.0307886 0)
(0.95986 0.0300936 0)
(0.959119 0.0294126 0)
(0.958419 0.0287454 0)
(0.95776 0.0280923 0)
(0.957141 0.027453 0)
(0.956561 0.0268276 0)
(0.95602 0.0262159 0)
(0.955518 0.0256177 0)
(0.955053 0.0250328 0)
(0.954627 0.0244611 0)
(0.954237 0.0239022 0)
(0.953884 0.0233557 0)
(0.953566 0.0228214 0)
(0.953285 0.0222987 0)
(0.953038 0.0217878 0)
(0.952827 0.0212869 0)
(0.952646 0.0207977 0)
(0.952504 0.0203158 0)
(0.952387 0.019847 0)
(0.952315 0.0193794 0)
(0.952255 0.0189313 0)
(0.952255 0.0184685 0)
(0.952244 0.0180467 0)
(0.952324 0.0175667 0)
(0.952346 0.0171936 0)
(0.952527 0.016641 0)
(0.952557 0.0163876 0)
(0.952877 0.0156185 0)
(0.952878 0.0156886 0)
(0.953404 0.0143763 0)
(0.980518 0.0480943 0)
(0.978793 0.0472373 0)
(0.977126 0.0463749 0)
(0.975516 0.0455091 0)
(0.973962 0.0446416 0)
(0.972464 0.0437742 0)
(0.971018 0.0429086 0)
(0.969626 0.0420462 0)
(0.968285 0.0411884 0)
(0.966995 0.0403365 0)
(0.965754 0.0394917 0)
(0.964563 0.0386551 0)
(0.963419 0.0378276 0)
(0.962323 0.03701 0)
(0.961273 0.0362033 0)
(0.960269 0.0354079 0)
(0.95931 0.0346246 0)
(0.958396 0.0338539 0)
(0.957525 0.0330962 0)
(0.956697 0.0323518 0)
(0.955912 0.0316211 0)
(0.955169 0.0309043 0)
(0.954468 0.0302015 0)
(0.953807 0.0295129 0)
(0.953187 0.0288385 0)
(0.952607 0.0281783 0)
(0.952066 0.0275323 0)
(0.951564 0.0269003 0)
(0.9511 0.0262823 0)
(0.950674 0.0256781 0)
(0.950286 0.0250874 0)
(0.949934 0.02451 0)
(0.949619 0.0239456 0)
(0.94934 0.0233939 0)
(0.949096 0.0228547 0)
(0.948887 0.0223272 0)
(0.948711 0.0218116 0)
(0.948572 0.0213063 0)
(0.948462 0.0208128 0)
(0.94839 0.0203269 0)
(0.948342 0.0198541 0)
(0.948338 0.0193829 0)
(0.948346 0.0189311 0)
(0.948413 0.0184651 0)
(0.948467 0.0180397 0)
(0.948615 0.0175571 0)
(0.948698 0.0171801 0)
(0.948948 0.0166255 0)
(0.949032 0.0163676 0)
(0.949429 0.015597 0)
(0.949465 0.0156617 0)
(0.950092 0.0143451 0)
(0.973325 0.0484342 0)
(0.971691 0.0475609 0)
(0.970115 0.0466829 0)
(0.968596 0.045802 0)
(0.967132 0.04492 0)
(0.965723 0.0440388 0)
(0.964367 0.0431598 0)
(0.963064 0.0422845 0)
(0.961811 0.0414144 0)
(0.960609 0.0405506 0)
(0.959456 0.0396944 0)
(0.958351 0.0388467 0)
(0.957294 0.0380086 0)
(0.956283 0.0371808 0)
(0.955319 0.0363641 0)
(0.9544 0.0355593 0)
(0.953525 0.0347668 0)
(0.952694 0.0339873 0)
(0.951906 0.033221 0)
(0.951161 0.0324684 0)
(0.950458 0.0317298 0)
(0.949796 0.0310053 0)
(0.949175 0.0302952 0)
(0.948595 0.0295994 0)
(0.948054 0.0289182 0)
(0.947552 0.0282514 0)
(0.947089 0.027599 0)
(0.946665 0.0269609 0)
(0.946278 0.0263369 0)
(0.945928 0.025727 0)
(0.945615 0.0251308 0)
(0.945339 0.0245481 0)
(0.945098 0.0239787 0)
(0.944892 0.0234221 0)
(0.944721 0.0228782 0)
(0.944584 0.0223462 0)
(0.94448 0.0218262 0)
(0.944411 0.0213169 0)
(0.944371 0.0208193 0)
(0.944368 0.0203298 0)
(0.944388 0.0198533 0)
(0.944452 0.0193788 0)
(0.944527 0.0189234 0)
(0.944661 0.0184547 0)
(0.944779 0.0180257 0)
(0.944994 0.0175409 0)
(0.945137 0.0171601 0)
(0.945456 0.016604 0)
(0.945592 0.0163415 0)
(0.946066 0.0155702 0)
(0.946136 0.0156288 0)
(0.946864 0.0143096 0)
(0.966227 0.0487482 0)
(0.964685 0.0478593 0)
(0.963201 0.0469664 0)
(0.961773 0.0460711 0)
(0.9604 0.0451754 0)
(0.959081 0.0442808 0)
(0.957815 0.0433891 0)
(0.956601 0.0425016 0)
(0.955437 0.0416197 0)
(0.954323 0.0407446 0)
(0.953257 0.0398775 0)
(0.95224 0.0390193 0)
(0.951269 0.0381711 0)
(0.950345 0.0373336 0)
(0.949466 0.0365076 0)
(0.948631 0.0356938 0)
(0.947841 0.0348926 0)
(0.947093 0.0341047 0)
(0.946389 0.0333304 0)
(0.945726 0.03257 0)
(0.945104 0.0318239 0)
(0.944524 0.0310922 0)
(0.943983 0.0303751 0)
(0.943482 0.0296727 0)
(0.943021 0.028985 0)
(0.942598 0.028312 0)
(0.942213 0.0276536 0)
(0.941865 0.0270097 0)
(0.941555 0.0263802 0)
(0.941281 0.0257649 0)
(0.941043 0.0251636 0)
(0.940841 0.024576 0)
(0.940673 0.0240018 0)
(0.94054 0.0234407 0)
(0.940441 0.0228924 0)
(0.940376 0.0223562 0)
(0.940343 0.0218323 0)
(0.940344 0.0213191 0)
(0.940373 0.0208179 0)
(0.940439 0.0203249 0)
(0.940527 0.0198449 0)
(0.940658 0.0193675 0)
(0.940798 0.0189088 0)
(0.940999 0.0184376 0)
(0.94118 0.0180052 0)
(0.94146 0.0175186 0)
(0.941664 0.0171341 0)
(0.94205 0.016577 0)
(0.942238 0.0163098 0)
(0.942787 0.0155386 0)
(0.942892 0.0155904 0)
(0.943717 0.0142701 0)
(0.959228 0.0490371 0)
(0.957779 0.0481334 0)
(0.956387 0.0472262 0)
(0.955051 0.0463172 0)
(0.953769 0.0454083 0)
(0.952541 0.0445012 0)
(0.951365 0.0435973 0)
(0.95024 0.0426982 0)
(0.949165 0.0418051 0)
(0.94814 0.0409193 0)
(0.947162 0.0400418 0)
(0.946232 0.0391737 0)
(0.945348 0.0383159 0)
(0.944509 0.0374692 0)
(0.943715 0.0366344 0)
(0.942966 0.035812 0)
(0.942259 0.0350027 0)
(0.941595 0.0342069 0)
(0.940974 0.033425 0)
(0.940393 0.0326573 0)
(0.939853 0.0319041 0)
(0.939353 0.0311657 0)
(0.938893 0.030442 0)
(0.938471 0.0297333 0)
(0.938089 0.0290395 0)
(0.937744 0.0283607 0)
(0.937436 0.0276967 0)
(0.937165 0.0270474 0)
(0.93693 0.0264127 0)
(0.936732 0.0257925 0)
(0.936568 0.0251863 0)
(0.93644 0.0245941 0)
(0.936345 0.0240155 0)
(0.936285 0.0234502 0)
(0.936257 0.0228978 0)
(0.936263 0.0223578 0)
(0.9363 0.0218301 0)
(0.93637 0.0213135 0)
(0.936468 0.0208088 0)
(0.936602 0.0203127 0)
(0.936756 0.0198295 0)
(0.936954 0.0193493 0)
(0.937159 0.0188876 0)
(0.937425 0.0184141 0)
(0.937669 0.0179787 0)
(0.938014 0.0174905 0)
(0.938276 0.0171024 0)
(0.938729 0.0165448 0)
(0.938968 0.0162726 0)
(0.939591 0.0155025 0)
(0.93973 0.0155468 0)
(0.940651 0.0142269 0)
(0.952332 0.049303 0)
(0.950976 0.0483851 0)
(0.949677 0.0474642 0)
(0.948433 0.0465422 0)
(0.947243 0.0456208 0)
(0.946105 0.0447016 0)
(0.94502 0.0437862 0)
(0.943984 0.042876 0)
(0.942999 0.0419722 0)
(0.942061 0.0410762 0)
(0.941172 0.0401889 0)
(0.940328 0.0393113 0)
(0.939531 0.0384445 0)
(0.938778 0.037589 0)
(0.93807 0.0367458 0)
(0.937405 0.0359154 0)
(0.936782 0.0350983 0)
(0.936202 0.034295 0)
(0.935662 0.0335059 0)
(0.935163 0.0327313 0)
(0.934705 0.0319715 0)
(0.934285 0.0312266 0)
(0.933905 0.0304969 0)
(0.933562 0.0297822 0)
(0.933258 0.0290827 0)
(0.93299 0.0283984 0)
(0.932759 0.0277291 0)
(0.932564 0.0270748 0)
(0.932405 0.0264353 0)
(0.932281 0.0258103 0)
(0.932192 0.0251997 0)
(0.932136 0.0246032 0)
(0.932114 0.0240205 0)
(0.932125 0.0234512 0)
(0.932168 0.0228951 0)
(0.932244 0.0223515 0)
(0.93235 0.0218203 0)
(0.932489 0.0213004 0)
(0.932654 0.0207926 0)
(0.932855 0.0202936 0)
(0.933076 0.0198075 0)
(0.933339 0.0193249 0)
(0.933609 0.0188602 0)
(0.933938 0.0183848 0)
(0.934245 0.0179464 0)
(0.934653 0.017457 0)
(0.934974 0.0170654 0)
(0.935492 0.0165077 0)
(0.935782 0.0162305 0)
(0.936477 0.0154623 0)
(0.936649 0.0154982 0)
(0.937664 0.0141804 0)
(0.945542 0.0495491 0)
(0.94428 0.0486175 0)
(0.943073 0.0476835 0)
(0.941921 0.046749 0)
(0.940823 0.0458155 0)
(0.939776 0.0448848 0)
(0.938781 0.0439583 0)
(0.937835 0.0430375 0)
(0.936939 0.0421235 0)
(0.93609 0.0412177 0)
(0.935288 0.040321 0)
(0.934531 0.0394344 0)
(0.93382 0.0385588 0)
(0.933153 0.0376951 0)
(0.93253 0.0368438 0)
(0.931949 0.0360057 0)
(0.93141 0.0351812 0)
(0.930912 0.0343708 0)
(0.930455 0.0335749 0)
(0.930038 0.0327937 0)
(0.929659 0.0320276 0)
(0.92932 0.0312766 0)
(0.929019 0.030541 0)
(0.928755 0.0298207 0)
(0.928528 0.0291159 0)
(0.928337 0.0284263 0)
(0.928183 0.0277521 0)
(0.928063 0.027093 0)
(0.927979 0.0264489 0)
(0.927929 0.0258195 0)
(0.927912 0.0252047 0)
(0.927929 0.0246042 0)
(0.927979 0.0240176 0)
(0.928061 0.0234447 0)
(0.928174 0.022885 0)
(0.928319 0.022338 0)
(0.928493 0.0218036 0)
(0.9287 0.0212808 0)
(0.928932 0.0207699 0)
(0.929199 0.0202683 0)
(0.929485 0.0197794 0)
(0.929813 0.0192946 0)
(0.930146 0.0188273 0)
(0.930539 0.0183502 0)
(0.930906 0.0179089 0)
(0.931378 0.0174186 0)
(0.931755 0.0170235 0)
(0.932337 0.0164663 0)
(0.932677 0.0161837 0)
(0.933443 0.0154184 0)
(0.933649 0.015445 0)
(0.934757 0.0141309 0)
(0.938861 0.0497694 0)
(0.937692 0.048825 0)
(0.936579 0.0478787 0)
(0.935519 0.0469323 0)
(0.934512 0.0459875 0)
(0.933556 0.045046 0)
(0.932651 0.0441091 0)
(0.931795 0.0431783 0)
(0.930987 0.0422548 0)
(0.930226 0.0413398 0)
(0.929511 0.0404344 0)
(0.928842 0.0395394 0)
(0.928217 0.0386558 0)
(0.927635 0.0377843 0)
(0.927096 0.0369256 0)
(0.926599 0.0360803 0)
(0.926143 0.035249 0)
(0.925728 0.034432 0)
(0.925352 0.0336297 0)
(0.925016 0.0328425 0)
(0.924718 0.0320705 0)
(0.924458 0.031314 0)
(0.924235 0.030573 0)
(0.924049 0.0298475 0)
(0.923899 0.0291377 0)
(0.923785 0.0284434 0)
(0.923706 0.0277646 0)
(0.923661 0.0271011 0)
(0.923651 0.0264528 0)
(0.923674 0.0258194 0)
(0.92373 0.0252008 0)
(0.923818 0.0245966 0)
(0.923939 0.0240065 0)
(0.924091 0.0234301 0)
(0.924273 0.0228672 0)
(0.924487 0.0223173 0)
(0.924729 0.0217799 0)
(0.925002 0.0212543 0)
(0.9253 0.0207408 0)
(0.925633 0.0202368 0)
(0.925983 0.0197454 0)
(0.926374 0.0192586 0)
(0.92677 0.0187888 0)
(0.927225 0.0183103 0)
(0.927652 0.0178664 0)
(0.928186 0.0173754 0)
(0.928619 0.016977 0)
(0.929264 0.0164204 0)
(0.929654 0.0161328 0)
(0.930489 0.0153705 0)
(0.930728 0.0153881 0)
(0.931926 0.0140781 0)
(0.929888 0.0499954 4.56359e-21)
(0.928851 0.0490355 1.27874e-22)
(0.927868 0.0480745 -2.37354e-21)
(0.926937 0.0471141 2.77571e-21)
(0.926058 0.0461561 -1.96977e-21)
(0.925229 0.045202 1.77572e-21)
(0.92445 0.0442533 -3.37829e-21)
(0.923718 0.0433111 9.95106e-22)
(0.923033 0.0423769 1.43221e-21)
(0.922394 0.0414516 -3.17675e-21)
(0.9218 0.0405364 3.15943e-21)
(0.92125 0.0396321 -7.87019e-22)
(0.920743 0.0387397 -1.23065e-21)
(0.920278 0.0378597 1.39331e-21)
(0.919854 0.036993 -8.26965e-23)
(0.919472 0.03614 -1.57037e-22)
(0.919129 0.0353013 3.10288e-23)
(0.918825 0.0344772 -5.06527e-22)
(0.91856 0.0336682 6.89735e-23)
(0.918332 0.0328745 4.51887e-22)
(0.918142 0.0320963 -1.3147e-23)
(0.917988 0.0313338 -7.4676e-22)
(0.91787 0.0305871 4.49183e-22)
(0.917788 0.0298562 -1.09951e-22)
(0.917741 0.0291411 4.33173e-22)
(0.917727 0.0284418 -5.46868e-22)
(0.917748 0.0277581 -1.06857e-22)
(0.917802 0.0270899 3.98352e-22)
(0.917889 0.0264371 -2.84435e-22)
(0.918007 0.0257994 -3.63253e-23)
(0.918158 0.0251766 5.15595e-23)
(0.918339 0.0245684 1.75753e-22)
(0.918551 0.0239745 1.73981e-23)
(0.918794 0.0233945 -2.00248e-23)
(0.919066 0.0228281 -8.72393e-24)
(0.919367 0.0222747 -1.15459e-22)
(0.919695 0.0217342 1.52128e-22)
(0.920054 0.0212055 8.30325e-24)
(0.920436 0.020689 -8.2637e-23)
(0.920851 0.0201823 4.54964e-23)
(0.921282 0.0196882 -1.86949e-23)
(0.921754 0.019199 -3.47814e-23)
(0.922227 0.0187267 -4.84795e-25)
(0.922761 0.0182462 3.76947e-23)
(0.923262 0.0177997 -2.43274e-23)
(0.923872 0.0173074 1.40948e-24)
(0.924376 0.0169058 1.92077e-24)
(0.925098 0.0163491 2.35954e-24)
(0.925547 0.0160567 2.85295e-24)
(0.926469 0.0152963 -2.2153e-24)
(0.926744 0.0153055 8.0943e-25)
(0.928057 0.0139981 -8.72431e-25)
(0.917768 0.0500904 4.77178e-21)
(0.916932 0.0491168 -4.22993e-21)
(0.916148 0.0481431 1.60484e-21)
(0.915414 0.0471712 2.6957e-21)
(0.91473 0.0462024 -3.15886e-22)
(0.914093 0.0452384 -3.11964e-21)
(0.913503 0.0442804 8.66067e-22)
(0.912958 0.0433297 1.47696e-21)
(0.912458 0.0423876 -9.13705e-22)
(0.912001 0.041455 6.7865e-22)
(0.911587 0.0405329 -2.68566e-22)
(0.911214 0.0396223 1.86447e-22)
(0.910882 0.0387239 -7.25757e-22)
(0.910589 0.0378384 9.07003e-23)
(0.910336 0.0369664 -1.96999e-22)
(0.91012 0.0361086 1.94522e-22)
(0.909942 0.0352652 -3.72068e-22)
(0.909801 0.0344368 8.585e-22)
(0.909696 0.0336237 -4.64973e-22)
(0.909626 0.0328261 4.71902e-22)
(0.90959 0.0320442 -1.95794e-22)
(0.909589 0.0312781 -9.54047e-23)
(0.909621 0.030528 2.19219e-22)
(0.909687 0.0297938 -4.90412e-22)
(0.909784 0.0290756 4.05265e-22)
(0.909914 0.0283732 2.63203e-23)
(0.910074 0.0276866 -1.53092e-22)
(0.910266 0.0270157 -2.06382e-22)
(0.910487 0.0263602 2.07682e-22)
(0.910739 0.0257199 2.30281e-22)
(0.911019 0.0250945 -1.36589e-22)
(0.911328 0.0244839 -3.96978e-23)
(0.911666 0.0238876 8.07251e-23)
(0.912031 0.0233054 -2.08737e-22)
(0.912423 0.0227368 1.1444e-22)
(0.912842 0.0221813 -1.60966e-22)
(0.913286 0.0216388 1.15206e-22)
(0.913757 0.0211082 -1.54496e-23)
(0.91425 0.0205898 -9.23788e-23)
(0.914773 0.0200813 8.67193e-23)
(0.91531 0.0195855 -2.4529e-23)
(0.915886 0.0190947 2.75622e-23)
(0.91646 0.0186209 -4.47372e-23)
(0.917093 0.018139 1.09668e-23)
(0.91769 0.0176911 2.95707e-23)
(0.918396 0.0171976 -5.93529e-24)
(0.918987 0.0167947 -3.37316e-24)
(0.919807 0.0162366 6.87574e-24)
(0.920328 0.015943 -5.93226e-24)
(0.921357 0.0151806 1.58337e-24)
(0.921675 0.0151886 -1.83705e-24)
(0.923131 0.0138767 2.42401e-24)
(0.905462 0.0501109 -4.66993e-22)
(0.904835 0.049126 -3.22757e-21)
(0.904257 0.0481421 2.2172e-22)
(0.903727 0.0471607 -1.23341e-22)
(0.903243 0.0461833 7.9427e-22)
(0.902805 0.0452113 5.43701e-22)
(0.902411 0.044246 -4.68195e-22)
(0.902059 0.0432887 2.91042e-22)
(0.90175 0.0423404 4.07272e-23)
(0.901481 0.0414021 -2.09525e-21)
(0.901253 0.0404749 1.85711e-21)
(0.901063 0.0395595 -3.57698e-22)
(0.900911 0.0386566 1.66033e-22)
(0.900796 0.0377671 -1.91331e-22)
(0.900718 0.0368913 1.66268e-22)
(0.900675 0.0360299 -2.29311e-22)
(0.900667 0.0351833 1.8584e-22)
(0.900693 0.0343519 2.48112e-22)
(0.900752 0.0335359 -5.27305e-22)
(0.900845 0.0327355 2.86959e-22)
(0.900969 0.0319511 3.31694e-22)
(0.901125 0.0311826 -3.32168e-22)
(0.901311 0.0304302 -3.7344e-23)
(0.901528 0.0296939 3.97539e-22)
(0.901775 0.0289736 -1.4824e-22)
(0.902051 0.0282692 2.90842e-22)
(0.902355 0.0275808 -1.11613e-22)
(0.902688 0.026908 -2.21071e-22)
(0.903048 0.0262507 -2.05951e-22)
(0.903436 0.0256088 5.31905e-23)
(0.90385 0.0249818 3.1787e-22)
(0.90429 0.0243697 -2.17978e-22)
(0.904756 0.0237719 3.22028e-22)
(0.905248 0.0231883 -7.55467e-23)
(0.905763 0.0226183 -1.79282e-22)
(0.906303 0.0220616 1.23142e-23)
(0.906866 0.0215178 6.60764e-24)
(0.907454 0.0209861 9.00202e-23)
(0.90806 0.0204667 -5.55084e-23)
(0.908695 0.0199571 3.99973e-23)
(0.90934 0.0194604 -5.00201e-23)
(0.910023 0.0189687 -6.31161e-24)
(0.9107 0.0184941 -2.76262e-23)
(0.911436 0.0180115 1.48715e-24)
(0.91213 0.017563 2.06631e-23)
(0.912936 0.0170687 -4.88543e-24)
(0.913616 0.0166654 9.20681e-24)
(0.914536 0.0161065 -9.87391e-25)
(0.915133 0.0158125 -2.19379e-24)
(0.916271 0.0150485 8.88765e-25)
(0.916634 0.0150565 -2.20049e-24)
(0.918234 0.0137397 -4.66196e-24)
(0.892988 0.0500827 -1.00834e-21)
(0.892577 0.0490876 4.19525e-21)
(0.892212 0.0480943 -4.40808e-21)
(0.891892 0.0471042 3.32935e-21)
(0.891616 0.046119 -4.29948e-22)
(0.891382 0.0451398 -7.43356e-22)
(0.89119 0.044168 -1.33246e-21)
(0.891038 0.0432047 2.0976e-21)
(0.890925 0.042251 -4.07811e-22)
(0.890851 0.0413078 -4.64348e-22)
(0.890813 0.0403761 -9.75573e-23)
(0.890812 0.0394565 -4.8669e-22)
(0.890845 0.03855 1.70037e-22)
(0.890914 0.037657 -1.57348e-22)
(0.891015 0.0367781 2.03218e-22)
(0.89115 0.0359139 2.17736e-22)
(0.891317 0.0350646 -9.02401e-23)
(0.891515 0.0342308 4.22796e-23)
(0.891743 0.0334126 4.43229e-22)
(0.892002 0.0326102 -8.05954e-22)
(0.89229 0.0318239 6.96542e-22)
(0.892607 0.0310536 -4.45778e-22)
(0.892952 0.0302996 1.1688e-22)
(0.893324 0.0295617 -3.92613e-22)
(0.893724 0.02884 1.88663e-22)
(0.89415 0.0281344 4.22605e-22)
(0.894602 0.0274446 -1.17356e-22)
(0.89508 0.0267707 -2.82391e-22)
(0.895583 0.0261124 3.05844e-22)
(0.89611 0.0254694 -1.30973e-22)
(0.896661 0.0248415 -2.7382e-22)
(0.897236 0.0242284 1.65642e-22)
(0.897834 0.0236299 -2.59802e-22)
(0.898454 0.0230454 2.13639e-22)
(0.899096 0.0224748 -2.64489e-23)
(0.899761 0.0219174 4.61406e-23)
(0.900445 0.021373 1.68554e-23)
(0.901152 0.0208407 -5.25341e-23)
(0.901874 0.0203208 4.58996e-23)
(0.902623 0.0198109 -4.29132e-23)
(0.90338 0.0193139 3.57398e-23)
(0.904172 0.0188219 4.11891e-23)
(0.904956 0.0183471 1.03577e-23)
(0.905796 0.0178643 7.39942e-25)
(0.906591 0.0174157 -2.50329e-23)
(0.907499 0.0169215 8.95777e-24)
(0.908271 0.0165181 -1.35115e-23)
(0.909292 0.0159593 -1.32569e-23)
(0.909967 0.015665 7.56152e-24)
(0.911216 0.0149009 2.85484e-25)
(0.911627 0.0149078 7.94445e-24)
(0.913373 0.0135881 4.02984e-24)
(0.880366 0.0499936 1.21678e-21)
(0.880177 0.0489896 6.7365e-22)
(0.880032 0.0479881 -1.26428e-21)
(0.879929 0.0469908 -3.38692e-22)
(0.879866 0.045999 2.13449e-21)
(0.879844 0.0450139 7.96305e-22)
(0.879859 0.0440368 -2.97461e-21)
(0.879912 0.0430687 8.1797e-22)
(0.880001 0.0421107 3.91581e-22)
(0.880126 0.0411638 1.44905e-22)
(0.880285 0.0402286 -1.18818e-22)
(0.880476 0.0393061 -2.57962e-22)
(0.880701 0.0383969 -2.2732e-22)
(0.880957 0.0375015 2.84055e-22)
(0.881243 0.0366206 -4.73083e-22)
(0.88156 0.0357545 6.97468e-23)
(0.881906 0.0349037 1.85013e-22)
(0.88228 0.0340684 6.19838e-22)
(0.882682 0.0332489 -2.18686e-22)
(0.883111 0.0324455 -3.89244e-22)
(0.883567 0.0316582 -2.11664e-23)
(0.884049 0.0308872 2.4993e-22)
(0.884556 0.0301324 7.63366e-23)
(0.885088 0.029394 -5.93663e-22)
(0.885644 0.0286717 1.87455e-22)
(0.886224 0.0279656 2.16968e-22)
(0.886827 0.0272755 -2.62397e-22)
(0.887453 0.0266013 -6.8054e-23)
(0.888101 0.0259427 1.49491e-22)
(0.888771 0.0252995 9.91944e-23)
(0.889463 0.0246715 3.36607e-23)
(0.890175 0.0240583 -1.1688e-22)
(0.890907 0.0234597 4.01347e-23)
(0.89166 0.0228752 -9.55384e-23)
(0.892432 0.0223046 2.76479e-23)
(0.893223 0.0217473 3.53881e-23)
(0.894031 0.0212031 1.51165e-24)
(0.89486 0.020671 1.44885e-23)
(0.895702 0.0201514 -3.5386e-23)
(0.896567 0.0196417 4.24107e-23)
(0.897438 0.019145 -7.21087e-24)
(0.898341 0.0186535 9.21774e-24)
(0.899234 0.0181791 -5.62704e-23)
(0.900182 0.0176969 -2.54496e-23)
(0.901079 0.0172488 3.20553e-23)
(0.902091 0.0167553 -1.18188e-23)
(0.902957 0.0163523 1.70538e-23)
(0.904083 0.0157945 4.60112e-24)
(0.904837 0.0155001 2.09192e-24)
(0.9062 0.0147373 -1.45945e-25)
(0.90666 0.0147427 -1.98324e-24)
(0.908554 0.013422 -1.04532e-23)
(0.867618 0.0498364 -2.11237e-21)
(0.867658 0.0488251 5.23638e-22)
(0.867738 0.0478173 -1.34715e-22)
(0.867857 0.0468142 1.48609e-21)
(0.868014 0.0458174 -1.32286e-21)
(0.868208 0.0448279 -2.81938e-22)
(0.868437 0.043847 1.12934e-21)
(0.8687 0.0428756 -1.13138e-21)
(0.868996 0.0419148 1.39511e-21)
(0.869325 0.0409654 -1.04159e-21)
(0.869685 0.0400283 4.09784e-22)
(0.870075 0.0391041 -8.35518e-22)
(0.870494 0.0381935 6.05778e-22)
(0.870942 0.0372971 -6.90514e-23)
(0.871418 0.0364153 -5.61258e-22)
(0.87192 0.0355486 -7.48574e-25)
(0.872449 0.0346973 2.54344e-22)
(0.873004 0.0338618 -3.19252e-22)
(0.873583 0.0330423 4.03464e-22)
(0.874187 0.0322389 3.45485e-22)
(0.874814 0.0314518 -3.43129e-22)
(0.875464 0.030681 -1.1467e-22)
(0.876137 0.0299266 -1.07669e-22)
(0.876832 0.0291885 1.0057e-22)
(0.877548 0.0284668 2.96983e-22)
(0.878285 0.0277612 -2.68327e-22)
(0.879042 0.0270718 3.58406e-22)
(0.879819 0.0263982 1.20868e-22)
(0.880616 0.0257403 -1.8193e-23)
(0.881432 0.0250978 -1.80935e-22)
(0.882266 0.0244705 -1.19745e-22)
(0.883118 0.0238582 1.51e-22)
(0.883988 0.0232604 -1.47825e-22)
(0.884876 0.0226768 1.73791e-22)
(0.885779 0.022107 1.95644e-23)
(0.8867 0.0215507 -8.03575e-23)
(0.887635 0.0210074 -2.98318e-23)
(0.888587 0.0204762 -5.57272e-24)
(0.889551 0.0199576 2.20559e-23)
(0.890535 0.019449 2.60299e-23)
(0.891522 0.0189534 2.57383e-23)
(0.892539 0.018463 -4.60924e-23)
(0.893542 0.0179898 3.85517e-24)
(0.8946 0.0175089 1.46853e-23)
(0.895601 0.0170619 -1.06801e-23)
(0.896719 0.01657 -1.022e-23)
(0.897681 0.0161678 3.56313e-24)
(0.898913 0.015612 -6.96369e-24)
(0.89975 0.0153178 -8.69874e-25)
(0.901228 0.0145575 -1.18953e-24)
(0.901739 0.0145612 -1.42696e-24)
(0.903782 0.0132411 7.78673e-24)
(0.85453 0.0506287 -2.73281e-21)
(0.854766 0.0496092 8.53302e-22)
(0.85504 0.0485924 6.86675e-22)
(0.855352 0.0475798 2.5803e-21)
(0.855699 0.0465728 -2.95988e-21)
(0.85608 0.0455725 -1.36668e-22)
(0.856495 0.0445803 1.34887e-21)
(0.856942 0.043597 2.07748e-22)
(0.857421 0.0426239 -3.33761e-23)
(0.857929 0.0416617 -3.84193e-22)
(0.858466 0.0407114 -4.72278e-22)
(0.859031 0.0397737 1.48776e-21)
(0.859624 0.0388492 -1.57058e-21)
(0.860243 0.0379386 9.05837e-23)
(0.860887 0.0370424 6.74187e-22)
(0.861556 0.0361611 -4.0846e-22)
(0.862248 0.0352951 3.80596e-22)
(0.862964 0.0344446 1.52231e-22)
(0.863702 0.0336101 -1.92963e-22)
(0.864463 0.0327917 7.1353e-22)
(0.865244 0.0319895 -3.76605e-22)
(0.866046 0.0312037 -1.09962e-22)
(0.866868 0.0304343 -1.86434e-22)
(0.867709 0.0296813 3.97098e-22)
(0.868569 0.0289448 -3.03309e-22)
(0.869448 0.0282246 3.15067e-24)
(0.870345 0.0275206 2.65544e-23)
(0.871259 0.0268328 -7.39304e-23)
(0.872191 0.0261608 4.89679e-22)
(0.873138 0.0255046 -3.7526e-22)
(0.874102 0.0248638 4.02351e-22)
(0.875082 0.0242382 -4.28749e-22)
(0.876077 0.0236276 4.0737e-22)
(0.877087 0.0230315 -2.83616e-22)
(0.878111 0.0224496 2.04435e-22)
(0.879149 0.0218816 1.09743e-23)
(0.880201 0.021327 1.09034e-23)
(0.881265 0.0207855 -1.68018e-23)
(0.882344 0.0202561 -2.9657e-23)
(0.88343 0.0197393 7.30925e-23)
(0.884535 0.0192325 -2.12628e-23)
(0.885641 0.0187387 1.36392e-24)
(0.886774 0.0182503 8.5309e-24)
(0.887889 0.0177789 8.85412e-23)
(0.889058 0.0173 -6.26017e-23)
(0.890166 0.0168548 -7.4129e-24)
(0.891391 0.0163652 -1.91781e-23)
(0.892452 0.0159646 1.10314e-23)
(0.893791 0.0154115 -2.54897e-24)
(0.894711 0.015118 1.39737e-24)
(0.896306 0.0143614 9.61656e-25)
(0.89687 0.0143633 -4.02364e-24)
(0.899063 0.0130457 1.1045e-23)
(0.841356 0.0503339 -1.3974e-21)
(0.841835 0.04931 -2.02143e-22)
(0.842349 0.0482897 -1.323e-21)
(0.842896 0.0472742 3.06818e-21)
(0.843476 0.0462649 -2.72563e-21)
(0.844087 0.0452629 8.7903e-22)
(0.844728 0.0442695 1.38234e-22)
(0.845398 0.0432856 -7.90396e-22)
(0.846095 0.0423123 3.43744e-22)
(0.846819 0.0413503 -3.02395e-22)
(0.847569 0.0404005 4.41123e-22)
(0.848344 0.0394637 2.36246e-22)
(0.849143 0.0385403 3.23726e-22)
(0.849965 0.0376311 -7.19114e-22)
(0.850809 0.0367366 2.44484e-22)
(0.851674 0.0358571 -4.18064e-22)
(0.85256 0.034993 3.72721e-22)
(0.853466 0.0341447 5.69427e-24)
(0.854392 0.0333124 -6.07824e-22)
(0.855336 0.0324963 -6.61324e-22)
(0.856298 0.0316965 1.39655e-22)
(0.857277 0.0309132 8.23395e-22)
(0.858274 0.0301464 -2.1102e-22)
(0.859287 0.029396 -5.0114e-22)
(0.860315 0.0286621 3.15604e-22)
(0.861359 0.0279446 -2.09712e-22)
(0.862419 0.0272433 6.96392e-23)
(0.863492 0.0265581 2.25229e-22)
(0.86458 0.0258888 -4.00482e-23)
(0.865681 0.0252352 6.10493e-23)
(0.866796 0.0245971 -3.54099e-22)
(0.867923 0.0239742 9.57498e-23)
(0.869063 0.0233662 2.88128e-22)
(0.870214 0.0227727 -2.8207e-22)
(0.871377 0.0221935 -5.3638e-23)
(0.872551 0.0216281 2.43895e-23)
(0.873737 0.0210761 2.72969e-23)
(0.874931 0.0205372 -4.87488e-24)
(0.876138 0.0200104 1.39814e-23)
(0.87735 0.0194962 2.76887e-23)
(0.878578 0.0189921 -2.63548e-23)
(0.879803 0.0185009 -5.41958e-23)
(0.881053 0.0180151 1.95033e-23)
(0.882283 0.0175463 -3.317e-23)
(0.883564 0.0170702 4.42773e-24)
(0.88478 0.0166275 -1.37761e-24)
(0.886115 0.0161409 7.12221e-24)
(0.887275 0.0157425 -1.10692e-23)
(0.888723 0.0151931 1.55979e-25)
(0.889728 0.0149006 5.94111e-24)
(0.89144 0.0141489 1.40861e-24)
(0.892059 0.014149 1.04354e-24)
(0.894403 0.0128357 5.11603e-24)
(0.828124 0.0499632 3.90699e-21)
(0.82885 0.0489369 -9.9627e-22)
(0.829607 0.0479149 -9.34719e-23)
(0.830395 0.0468983 9.57179e-22)
(0.831212 0.0458886 -2.25216e-21)
(0.832057 0.0448868 9.02529e-22)
(0.832928 0.0438939 4.49645e-22)
(0.833824 0.0429111 -7.33306e-22)
(0.834745 0.0419392 -7.35679e-22)
(0.835689 0.0409791 -1.18279e-22)
(0.836655 0.0400314 4.09211e-22)
(0.837643 0.0390969 5.60878e-22)
(0.838652 0.0381763 2.99231e-22)
(0.83968 0.0372699 -3.20803e-22)
(0.840726 0.0363784 4.09335e-22)
(0.841791 0.0355022 -4.06067e-22)
(0.842874 0.0346415 -1.37924e-22)
(0.843973 0.0337966 4.56159e-22)
(0.845088 0.0329679 1.51296e-22)
(0.846219 0.0321554 -2.39289e-22)
(0.847364 0.0313593 -2.4608e-23)
(0.848524 0.0305797 2.73583e-22)
(0.849697 0.0298166 -1.65167e-22)
(0.850884 0.02907 1.6922e-22)
(0.852083 0.0283399 -1.27878e-22)
(0.853295 0.0276261 -1.37908e-22)
(0.854519 0.0269286 2.10749e-22)
(0.855754 0.0262472 -1.57058e-23)
(0.857 0.0255816 -2.02911e-22)
(0.858257 0.0249317 5.40044e-23)
(0.859523 0.0242973 -3.00515e-23)
(0.8608 0.023678 3.41465e-23)
(0.862086 0.0230736 -1.31186e-22)
(0.863381 0.0224838 8.36438e-23)
(0.864685 0.0219081 -5.5957e-23)
(0.865997 0.0213463 4.73127e-23)
(0.867318 0.0207977 1.64514e-22)
(0.868644 0.0202623 -5.76854e-23)
(0.86998 0.019739 -4.72214e-23)
(0.871319 0.0192282 1.53255e-23)
(0.872671 0.0187275 6.43923e-23)
(0.874017 0.0182397 2.28092e-23)
(0.875386 0.0177573 -8.07331e-23)
(0.876732 0.0172919 6.94124e-23)
(0.878127 0.0168194 -3.31513e-23)
(0.879452 0.0163799 2.02014e-23)
(0.880897 0.0158971 -2.3015e-23)
(0.882158 0.0155015 -6.1487e-24)
(0.883716 0.0149566 4.0971e-24)
(0.884807 0.0146657 -7.26026e-24)
(0.886638 0.0139202 -6.94104e-25)
(0.887313 0.0139182 5.79669e-24)
(0.889808 0.0126114 -2.34308e-23)
(0.814859 0.0495145 5.91777e-22)
(0.815837 0.0484878 8.18992e-22)
(0.816842 0.0474661 -7.40094e-22)
(0.817875 0.0464505 4.76816e-22)
(0.818932 0.0454422 -2.63967e-22)
(0.820014 0.0444424 -2.36089e-22)
(0.821118 0.043452 -4.59361e-22)
(0.822245 0.042472 -2.3824e-22)
(0.823392 0.0415033 1.52466e-21)
(0.824559 0.0405466 -6.55336e-22)
(0.825745 0.0396027 1.85283e-22)
(0.826949 0.0386723 -2.98287e-23)
(0.82817 0.0377558 3.29623e-22)
(0.829407 0.0368539 -8.19326e-22)
(0.830659 0.035967 1.58123e-22)
(0.831927 0.0350954 2.07017e-22)
(0.833208 0.0342395 -4.12886e-22)
(0.834502 0.0333995 -2.88196e-22)
(0.83581 0.0325757 -6.33794e-24)
(0.837129 0.0317681 -4.42455e-24)
(0.83846 0.0309771 8.9637e-23)
(0.839802 0.0302025 3.83588e-22)
(0.841154 0.0294444 1.26412e-22)
(0.842517 0.0287028 -2.74939e-22)
(0.843889 0.0279776 4.10614e-23)
(0.84527 0.0272688 5.59293e-23)
(0.84666 0.0265762 3.54624e-22)
(0.848058 0.0258996 -5.45379e-22)
(0.849464 0.0252389 2.52121e-22)
(0.850878 0.0245938 -2.40196e-22)
(0.852298 0.0239641 4.77877e-23)
(0.853726 0.0233495 2.21162e-22)
(0.85516 0.0227497 -1.03195e-22)
(0.8566 0.0221644 -1.28946e-22)
(0.858046 0.0215932 -1.01982e-22)
(0.859497 0.0210358 4.99904e-23)
(0.860954 0.0204917 -1.2306e-22)
(0.862414 0.0199606 8.16947e-23)
(0.86388 0.0194417 1.05084e-22)
(0.865347 0.0189351 -5.96803e-23)
(0.866824 0.0184387 4.47113e-23)
(0.868292 0.0179551 4.15464e-23)
(0.869781 0.017477 6.2667e-23)
(0.871243 0.0170156 -5.87264e-23)
(0.872753 0.0165474 -6.33214e-24)
(0.874188 0.0161119 2.18398e-23)
(0.875745 0.0156338 1.71288e-23)
(0.877107 0.0152415 4.28726e-24)
(0.878776 0.0147022 3.56078e-24)
(0.879955 0.0144131 -8.12201e-24)
(0.881905 0.0136751 -1.04904e-24)
(0.882636 0.0136711 -3.85561e-25)
(0.885283 0.012373 1.01395e-23)
(0.80159 0.0489858 -2.59863e-21)
(0.802823 0.047961 4.19166e-21)
(0.80408 0.0469417 -2.13501e-21)
(0.80536 0.0459291 4.73024e-22)
(0.806661 0.0449243 1.79447e-22)
(0.807983 0.0439284 -2.29009e-22)
(0.809324 0.0429423 -8.9239e-22)
(0.810683 0.041967 7.27147e-22)
(0.81206 0.0410032 -2.36159e-22)
(0.813452 0.0400518 5.60334e-22)
(0.81486 0.0391134 2.41368e-23)
(0.816283 0.0381886 -1.25684e-21)
(0.817718 0.0372781 4.83145e-23)
(0.819167 0.0363822 6.51365e-22)
(0.820627 0.0355013 -3.40315e-22)
(0.822099 0.0346359 -1.12363e-22)
(0.823581 0.0337863 7.43744e-22)
(0.825073 0.0329526 -7.75138e-22)
(0.826574 0.0321351 3.97048e-22)
(0.828084 0.031334 3.57139e-23)