/*--------------------------------*- C++ -*----------------------------------*\
  =========                 |
  \\      /  F ield         | OpenFOAM: The Open Source CFD Toolbox
   \\    /   O peration     | Website:  https://openfoam.org
    \\  /    A nd           | Version:  7
     \\/     M anipulation  |
\*---------------------------------------------------------------------------*/
FoamFile
{
    version     2.0;
    format      ascii;
    class       volScalarField;
    location    "10";
    object      p;
}
// * * * * * * * * * * * * * * * * * * * * * * * * * * * * * * * * * * * * * //

dimensions      [0 2 -2 0 0 0 0];

internalField   nonuniform List<scalar> 
2625
(
0.0894542
0.0918855
0.0947341
0.0968692
0.0951063
0.099979
0.101814
0.0968015
0.100609
0.105186
0.106719
0.102665
0.106085
0.110351
0.111581
0.104431
0.108504
0.111529
0.115472
0.116399
0.110726
0.114314
0.11694
0.120547
0.121172
0.116997
0.120093
0.122315
0.125572
0.125898
0.120177
0.123239
0.125837
0.127651
0.130545
0.130576
0.12697
0.129449
0.131543
0.132945
0.135464
0.135206
0.142978
0.130977
0.133732
0.135624
0.137207
0.138194
0.140328
0.139787
0.147292
0.138404
0.140458
0.14176
0.142828
0.143398
0.145133
0.144318
0.151512
0.145795
0.147146
0.147853
0.148402
0.148552
0.149879
0.1488
0.155636
0.151522
0.153146
0.15379
0.1539
0.153926
0.153655
0.154563
0.153231
0.159663
0.159648
0.160452
0.160387
0.159897
0.159397
0.158704
0.159184
0.157613
0.163593
0.167726
0.167708
0.166932
0.165841
0.164813
0.163698
0.163741
0.161946
0.167424
0.175654
0.175751
0.174909
0.173421
0.171728
0.17017
0.168633
0.168232
0.166231
0.171156
0.184595
0.183716
0.18205
0.179849
0.177555
0.175466
0.173509
0.172655
0.17047
0.174785
0.193472
0.191617
0.189127
0.186214
0.183318
0.180699
0.178321
0.17701
0.174663
0.178309
0.202277
0.199446
0.196134
0.19251
0.189014
0.185865
0.183069
0.181294
0.178816
0.181738
0.213373
0.211003
0.207199
0.203066
0.198734
0.194638
0.190962
0.187748
0.185508
0.182945
0.185093
0.223129
0.219643
0.21487
0.209919
0.204882
0.200189
0.195987
0.192357
0.189652
0.187075
0.188311
0.232788
0.228191
0.222452
0.216688
0.210949
0.205662
0.200937
0.196892
0.193728
0.191176
0.191036
0.242342
0.23664
0.22994
0.223367
0.216931
0.211054
0.20581
0.20135
0.197735
0.195126
0.192923
0.251783
0.244982
0.237328
0.229953
0.222825
0.216362
0.210603
0.205728
0.201669
0.199013
0.19544
0.268881
0.261104
0.253211
0.244611
0.23644
0.228626
0.221582
0.215313
0.210024
0.205527
0.202765
0.198339
0.279383
0.270295
0.261321
0.251782
0.242824
0.234331
0.226712
0.219938
0.214235
0.209311
0.206375
0.201277
0.289736
0.279349
0.269303
0.258837
0.2491
0.239936
0.231747
0.224474
0.218359
0.21302
0.209863
0.204194
0.299931
0.288258
0.277153
0.26577
0.255263
0.245436
0.236684
0.22892
0.222394
0.216652
0.21324
0.207094
0.309958
0.297014
0.284862
0.272575
0.261309
0.250828
0.241522
0.233273
0.226339
0.220205
0.216513
0.209972
0.319807
0.305608
0.292425
0.279247
0.267233
0.256109
0.246255
0.237529
0.230192
0.223678
0.219684
0.212814
0.342685
0.329469
0.314034
0.299836
0.285781
0.273031
0.261274
0.250883
0.241688
0.23395
0.227069
0.222759
0.215612
0.35352
0.338935
0.322284
0.307087
0.29217
0.278698
0.266321
0.2554
0.245747
0.237614
0.230375
0.22574
0.218361
0.364127
0.348196
0.33035
0.314172
0.298411
0.28423
0.271244
0.259805
0.249702
0.241181
0.233597
0.22863
0.221055
0.374495
0.357242
0.338224
0.321087
0.304497
0.289623
0.276041
0.264095
0.253552
0.244649
0.236731
0.231431
0.223689
0.384613
0.366065
0.3459
0.327823
0.310425
0.294873
0.280709
0.268267
0.257294
0.248017
0.239777
0.234143
0.226258
0.394472
0.374656
0.353371
0.334377
0.316189
0.299975
0.285243
0.272318
0.260927
0.251284
0.242732
0.236768
0.22876
0.40406
0.383007
0.360629
0.340741
0.321783
0.304926
0.289641
0.276245
0.264448
0.254448
0.245595
0.239306
0.231192
0.413368
0.391109
0.367668
0.34691
0.327205
0.309721
0.2939
0.280046
0.267854
0.257507
0.248364
0.241758
0.23355
0.422386
0.398955
0.37448
0.352878
0.332448
0.314357
0.298015
0.283717
0.271143
0.26046
0.251038
0.244122
0.235832
0.460552
0.431104
0.406536
0.381061
0.358642
0.337508
0.31883
0.301985
0.287258
0.274314
0.263305
0.253616
0.246399
0.238037
0.470353
0.439513
0.413845
0.387403
0.364194
0.342382
0.323137
0.305805
0.290664
0.277364
0.266041
0.256095
0.248588
0.240161
0.47979
0.447604
0.420875
0.3935
0.36953
0.347065
0.327273
0.309473
0.293933
0.280291
0.268666
0.258474
0.250688
0.242204
0.48885
0.455369
0.427619
0.399347
0.374645
0.351552
0.331236
0.312987
0.297064
0.283094
0.271178
0.260752
0.252699
0.244162
0.497523
0.462799
0.43407
0.404938
0.379535
0.355841
0.335022
0.316343
0.300054
0.285769
0.273577
0.262927
0.254619
0.246035
0.5058
0.469886
0.440221
0.410267
0.384195
0.359927
0.338629
0.319539
0.3029
0.288316
0.275859
0.264998
0.256448
0.247821
0.513671
0.476623
0.446066
0.41533
0.388621
0.363806
0.342052
0.322572
0.305601
0.290732
0.278024
0.266962
0.258184
0.249518
0.521127
0.483003
0.451599
0.420121
0.392808
0.367476
0.34529
0.32544
0.308154
0.293016
0.280071
0.26882
0.259826
0.251124
0.52816
0.489018
0.456814
0.424637
0.396754
0.370933
0.348339
0.32814
0.310557
0.295167
0.281997
0.270569
0.261373
0.252638
0.534761
0.494662
0.461707
0.428871
0.400453
0.374174
0.351196
0.330671
0.31281
0.297181
0.283802
0.272207
0.262824
0.254059
0.540923
0.499929
0.466271
0.432821
0.403903
0.377195
0.353861
0.333029
0.314909
0.299058
0.285484
0.273735
0.264177
0.255385
0.546639
0.504814
0.470503
0.436483
0.4071
0.379995
0.356329
0.335214
0.316853
0.300797
0.287042
0.27515
0.265431
0.256614
0.551902
0.50931
0.474398
0.439852
0.410042
0.382571
0.358599
0.337224
0.31864
0.302396
0.288474
0.276452
0.266585
0.257746
0.556707
0.513414
0.477952
0.442925
0.412725
0.38492
0.36067
0.339056
0.32027
0.303853
0.28978
0.277639
0.267639
0.25878
0.561047
0.51712
0.481161
0.4457
0.415147
0.38704
0.362538
0.34071
0.321741
0.305169
0.290959
0.27871
0.26859
0.259713
0.564917
0.520424
0.484022
0.448174
0.417306
0.388929
0.364203
0.342183
0.323052
0.306341
0.292009
0.279664
0.269438
0.260545
0.568314
0.523324
0.486532
0.450344
0.4192
0.390587
0.365663
0.343475
0.324201
0.307368
0.292929
0.280502
0.270183
0.261276
0.610308
0.571232
0.525815
0.488688
0.452208
0.420826
0.39201
0.366917
0.344585
0.325188
0.30825
0.29372
0.281221
0.270822
0.261904
0.613125
0.57367
0.527895
0.490489
0.453764
0.422184
0.393198
0.367964
0.345511
0.326011
0.308987
0.29438
0.281821
0.271356
0.262428
0.615383
0.575623
0.529562
0.491931
0.455011
0.423272
0.39415
0.368803
0.346253
0.326671
0.309577
0.294909
0.282302
0.271784
0.262848
0.617079
0.57709
0.530814
0.493014
0.455948
0.424089
0.394865
0.369432
0.346809
0.327166
0.310019
0.295305
0.282663
0.272106
0.263164
0.618211
0.578069
0.531649
0.493737
0.456572
0.424634
0.395342
0.369852
0.347181
0.327496
0.310315
0.29557
0.282903
0.27232
0.263375
0.532067
0.494099
0.456885
0.424906
0.39558
0.370062
0.347367
0.327662
0.310463
0.295703
0.283024
0.272428
0.26348
0.184706
0.182433
0.179957
0.176723
0.173385
0.169883
0.166289
0.162606
0.158847
0.155012
0.18521
0.182407
0.179865
0.176592
0.173267
0.169775
0.166198
0.162532
0.15879
0.154973
0.18542
0.18199
0.179357
0.176034
0.172724
0.169252
0.165703
0.162066
0.158353
0.185321
0.181441
0.178794
0.175445
0.172155
0.168703
0.165181
0.161572
0.157887
0.185066
0.180884
0.178266
0.174905
0.171637
0.168206
0.164709
0.161126
0.157466
0.18472
0.18032
0.177743
0.174375
0.171131
0.16772
0.16425
0.160691
0.184302
0.17975
0.177216
0.173844
0.170624
0.167234
0.16379
0.160256
0.183829
0.179178
0.176687
0.173315
0.17012
0.166752
0.163333
0.183314
0.178611
0.176158
0.172791
0.169622
0.166275
0.162881
0.182768
0.178051
0.17563
0.172272
0.169128
0.165803
0.182202
0.177499
0.175102
0.171759
0.168639
0.165336
0.181621
0.176956
0.174577
0.171252
0.168155
0.181031
0.176421
0.174054
0.170751
0.167677
0.180437
0.175895
0.173534
0.170256
0.179841
0.175377
0.173017
0.169768
0.179246
0.174867
0.172505
0.178654
0.174366
0.171998
0.178068
0.173871
0.177488
0.176915
0.216447
0.216452
0.216349
0.2162
0.215983
0.215712
0.215383
0.214999
0.214559
0.214065
0.213516
0.212913
0.212253
0.211537
0.210764
0.209932
0.209041
0.208089
0.207074
0.205994
0.204849
0.203634
0.202348
0.200988
0.199554
0.198034
0.196452
0.194708
0.193058
0.189422
0.216147
0.216149
0.216034
0.215873
0.21564
0.215352
0.215002
0.214595
0.214131
0.213609
0.213031
0.212394
0.2117
0.210948
0.210136
0.209263
0.208329
0.207332
0.206269
0.205141
0.203944
0.202676
0.201335
0.199918
0.198424
0.196837
0.195183
0.193307
0.191533
0.187673
0.215854
0.215862
0.215746
0.215584
0.215348
0.215055
0.214699
0.214285
0.213812
0.213281
0.212692
0.212045
0.211339
0.210575
0.20975
0.208865
0.207918
0.206908
0.205833
0.204692
0.203482
0.202202
0.200849
0.199418
0.19791
0.196302
0.194623
0.192686
0.190883
0.187227
0.215562
0.215574
0.215458
0.215295
0.215054
0.214756
0.214393
0.21397
0.213487
0.212946
0.212345
0.211685
0.210966
0.210188
0.209348
0.208448
0.207484
0.206457
0.205365
0.204206
0.202979
0.20168
0.200308
0.198857
0.197327
0.195693
0.193987
0.192007
0.190199
0.186691
0.21527
0.215286
0.215167
0.215001
0.214755
0.21445
0.214078
0.213646
0.213152
0.212597
0.211983
0.211308
0.210573
0.209778
0.20892
0.208001
0.207018
0.205971
0.204858
0.203677
0.202428
0.201106
0.19971
0.198235
0.19668
0.195017
0.193284
0.191274
0.189467
0.186064
0.214979
0.214998
0.214876
0.214708
0.214457
0.214144
0.213764
0.213321
0.212816
0.212249
0.21162
0.210931
0.21018
0.209367
0.208492
0.207554
0.206551
0.205484
0.20435
0.203148
0.201877
0.200533
0.199114
0.197615
0.196036
0.194348
0.192592
0.190563
0.188765
0.185457
0.214689
0.214711
0.214587
0.214416
0.214159
0.21384
0.213451
0.212999
0.212482
0.211903
0.211261
0.210556
0.20979
0.20896
0.208068
0.207112
0.206091
0.205004
0.20385
0.202628
0.201335
0.19997
0.19853
0.197009
0.195408
0.193699
0.191924
0.189885
0.188098
0.18488
0.214401
0.214425
0.214299
0.214125
0.213863
0.213537
0.21314
0.212678
0.21215
0.211558
0.210903
0.210184
0.209402
0.208557
0.207647
0.206673
0.205634
0.204528
0.203355
0.202112
0.2008
0.199414
0.197953
0.196412
0.19479
0.193062
0.191272
0.18923
0.187453
0.184315
0.214114
0.21414
0.214012
0.213835
0.213568
0.213235
0.21283
0.212358
0.21182
0.211216
0.210547
0.209814
0.209017
0.208156
0.207229
0.206238
0.20518
0.204055
0.202863
0.201601
0.200269
0.198863
0.197383
0.195822
0.194182
0.192437
0.190634
0.188591
0.186822
0.183758
0.213828
0.213856
0.213726
0.213547
0.213274
0.212935
0.212522
0.21204
0.211491
0.210875
0.210193
0.209446
0.208634
0.207757
0.206814
0.205805
0.20473
0.203587
0.202376
0.201095
0.199743
0.198319
0.196819
0.19524
0.193582
0.191823
0.190008
0.187968
0.186203
0.183206
0.213544
0.213574
0.213442
0.21326
0.212982
0.212636
0.212215
0.211724
0.211164
0.210536
0.209842
0.209081
0.208254
0.207361
0.206402
0.205376
0.204283
0.203122
0.201893
0.200594
0.199223
0.19778
0.196263
0.194666
0.192992
0.191219
0.189395
0.187359
0.185595
0.182658
0.213262
0.213294
0.213159
0.212974
0.212691
0.212339
0.21191
0.21141
0.210839
0.2102
0.209492
0.208718
0.207876
0.206968
0.205993
0.20495
0.20384
0.202662
0.201415
0.200097
0.198709
0.197248
0.195713
0.1941
0.192411
0.190627
0.188794
0.186761
0.184995
0.182114
0.212982
0.213015
0.212878
0.21269
0.212402
0.212044
0.211606
0.211097
0.210516
0.209865
0.209145
0.208358
0.207502
0.206578
0.205587
0.204528
0.203402
0.202206
0.200941
0.199607
0.198201
0.196723
0.195171
0.193542
0.191839
0.190045
0.188203
0.186175
0.184404
0.181575
0.212703
0.212738
0.212599
0.212408
0.212115
0.21175
0.211305
0.210787
0.210195
0.209533
0.208801
0.208
0.20713
0.206192
0.205185
0.20411
0.202967
0.201755
0.200473
0.199121
0.197699
0.196204
0.194637
0.192993
0.191277
0.189473
0.187623
0.185599
0.183821
0.18104
0.212427
0.212463
0.212322
0.212128
0.21183
0.211459
0.211006
0.210479
0.209877
0.209204
0.20846
0.207645
0.206762
0.205809
0.204787
0.203697
0.202537
0.201308
0.20001
0.198642
0.197203
0.195692
0.19411
0.192452
0.190724
0.18891
0.187053
0.185033
0.183245
0.18051
0.212153
0.21219
0.212047
0.21185
0.211547
0.21117
0.210709
0.210173
0.209562
0.208878
0.208121
0.207294
0.206397
0.205429
0.204393
0.203287
0.202112
0.200867
0.199553
0.198168
0.196714
0.195188
0.19359
0.19192
0.19018
0.188358
0.186494
0.184477
0.182678
0.179984
0.211881
0.211919
0.211774
0.211574
0.211267
0.210883
0.210415
0.20987
0.209249
0.208554
0.207786
0.206946
0.206035
0.205054
0.204003
0.202882
0.201691
0.200431
0.199101
0.197701
0.196231
0.19469
0.193079
0.191396
0.189644
0.187815
0.185943
0.183929
0.182118
0.179464
0.211612
0.21165
0.211504
0.2113
0.210988
0.210599
0.210123
0.20957
0.208939
0.208233
0.207454
0.206601
0.205677
0.204682
0.203617
0.202481
0.201276
0.2
0.198655
0.19724
0.195755
0.1942
0.192576
0.19088
0.189118
0.187281
0.185403
0.18339
0.181566
0.17895
0.211345
0.211384
0.211236
0.211029
0.210713
0.210317
0.209835
0.209273
0.208632
0.207916
0.207125
0.206261
0.205324
0.204315
0.203236
0.202086
0.200865
0.199575
0.198215
0.196785
0.195286
0.193718
0.19208
0.190373
0.188601
0.186757
0.184871
0.182861
0.181023
0.178442
0.211081
0.211121
0.21097
0.210761
0.21044
0.210039
0.209549
0.208979
0.208329
0.207602
0.2068
0.205924
0.204974
0.203952
0.202859
0.201695
0.20046
0.199156
0.197781
0.196337
0.194825
0.193243
0.191593
0.189875
0.188094
0.186242
0.18435
0.18234
0.180488
0.17794
0.21082
0.21086
0.210708
0.210496
0.244631
0.244582
0.244608
0.2447
0.244846
0.245042
0.245286
0.245576
0.245908
0.246281
0.246692
0.247138
0.247619
0.248133
0.248677
0.24925
0.249851
0.250478
0.25113
0.251806
0.252504
0.253223
0.253963
0.254721
0.255498
0.256291
0.2571
0.257924
0.258762
0.259612
0.24458
0.24453
0.244555
0.244647
0.244792
0.244988
0.245231
0.24552
0.245851
0.246223
0.246633
0.247078
0.247558
0.24807
0.248613
0.249184
0.249784
0.250409
0.25106
0.251734
0.25243
0.253147
0.253885
0.254641
0.255416
0.256207
0.257014
0.257835
0.25867
0.259518
0.244476
0.244426
0.24445
0.244541
0.244685
0.244879
0.245121
0.245408
0.245738
0.246107
0.246515
0.246958
0.247435
0.247945
0.248485
0.249054
0.24965
0.250272
0.250919
0.25159
0.252282
0.252996
0.25373
0.254482
0.255252
0.256038
0.256841
0.257658
0.258487
0.259329
0.244321
0.244271
0.244293
0.244382
0.244525
0.244717
0.244957
0.245241
0.245568
0.245935
0.246339
0.246779
0.247252
0.247758
0.248293
0.248858
0.24945
0.250067
0.250709
0.251374
0.252061
0.252769
0.253497
0.254243
0.255007
0.255786
0.256582
0.257392
0.258213
0.259046
0.244115
0.244064
0.244085
0.244172
0.244312
0.244501
0.244738
0.245019
0.245342
0.245705
0.246105
0.24654
0.247009
0.247509
0.248039
0.248598
0.249184
0.249795
0.25043
0.251088
0.251768
0.252468
0.253188
0.253925
0.25468
0.255451
0.256238
0.257038
0.257848
0.258669
0.243859
0.243806
0.243825
0.24391
0.244047
0.244233
0.244466
0.244743
0.245062
0.245419
0.245814
0.246243
0.246706
0.2472
0.247723
0.248275
0.248852
0.249455
0.250082
0.250732
0.251402
0.252093
0.252802
0.25353
0.254274
0.255034
0.255809
0.256597
0.257394
0.2582
0.243554
0.2435
0.243516
0.243597
0.243731
0.243913
0.244142
0.244414
0.244727
0.245079
0.245467
0.245889
0.246345
0.246831
0.247346
0.247888
0.248457
0.249051
0.249667
0.250306
0.250966
0.251645
0.252342
0.253057
0.253789
0.254535
0.255296
0.25607
0.256851
0.257639
0.2432
0.243144
0.243158
0.243236
0.243365
0.243543
0.243766
0.244032
0.244339
0.244684
0.245065
0.245479
0.245926
0.246403
0.246908
0.247441
0.247999
0.248581
0.249186
0.249812
0.250459
0.251125
0.251808
0.252509
0.253225
0.253956
0.254701
0.255458
0.25622
0.256987
0.242798
0.242741
0.242751
0.242825
0.24295
0.243123
0.24334
0.2436
0.2439
0.244237
0.244609
0.245014
0.245451
0.245918
0.246412
0.246933
0.247479
0.248048
0.248639
0.249252
0.249883
0.250534
0.251201
0.251885
0.252584
0.253297
0.254024
0.254762
0.255503
0.256245
0.242351
0.242291
0.242299
0.242368
0.242488
0.242655
0.242866
0.243118
0.24341
0.243738
0.244101
0.244496
0.244922
0.245377
0.245859
0.246366
0.246898
0.247453
0.248029
0.248625
0.249241
0.249874
0.250523
0.251188
0.251868
0.252561
0.253266
0.253983
0.2547
0.255415
0.241858
0.241797
0.241801
0.241866
0.24198
0.24214
0.242344
0.242588
0.242871
0.243189
0.243542
0.243926
0.244339
0.244781
0.245249
0.245742
0.246259
0.246798
0.247357
0.247935
0.248532
0.249146
0.249775
0.25042
0.251077
0.251748
0.25243
0.253124
0.253814
0.254499
0.241322
0.241259
0.241259
0.241319
0.241428
0.241581
0.241777
0.242012
0.242285
0.242593
0.242934
0.243305
0.243705
0.244133
0.244586
0.245063
0.245563
0.246083
0.246624
0.247183
0.247759
0.248352
0.248959
0.24958
0.250214
0.25086
0.251517
0.252184
0.252845
0.253497
0.240745
0.240679
0.240676
0.240731
0.240833
0.240979
0.241166
0.241392
0.241654
0.24195
0.242278
0.242636
0.243022
0.243434
0.24387
0.24433
0.244811
0.245312
0.245832
0.24637
0.246924
0.247493
0.248077
0.248673
0.24928
0.249899
0.250529
0.251167
0.251796
0.252411
0.240127
0.240059
0.240052
0.240102
0.240197
0.240335
0.240513
0.240729
0.24098
0.241264
0.241578
0.241921
0.242291
0.242686
0.243104
0.243545
0.244006
0.244486
0.244984
0.245498
0.246028
0.246572
0.247129
0.247698
0.248277
0.248867
0.249466
0.250074
0.250669
0.251243
0.239471
0.239402
0.23939
0.239434
0.239523
0.239652
0.239821
0.240026
0.240264
0.240534
0.240834
0.241161
0.241514
0.241891
0.24229
0.24271
0.243149
0.243607
0.244081
0.24457
0.245074
0.24559
0.246119
0.246658
0.247207
0.247765
0.248331
0.248906
0.249464
0.249995
0.238779
0.238708
0.238692
0.238731
0.238812
0.238933
0.239091
0.239284
0.239509
0.239765
0.240049
0.240359
0.240694
0.241051
0.241429
0.241827
0.242243
0.242676
0.243124
0.243587
0.244062
0.24455
0.245048
0.245555
0.246071
0.246595
0.247126
0.247665
0.248184
0.248669
0.238052
0.23798
0.23796
0.237993
0.238066
0.238178
0.238325
0.238506
0.238718
0.238958
0.239225
0.239517
0.239832
0.240169
0.240525
0.240899
0.24129
0.241697
0.242117
0.242551
0.242997
0.243452
0.243918
0.244391
0.244872
0.245359
0.245853
0.246353
0.246831
0.247266
0.237293
0.237219
0.237197
0.237223
0.237288
0.23739
0.237526
0.237694
0.237891
0.238115
0.238365
0.238637
0.238932
0.239246
0.239578
0.239927
0.240292
0.24067
0.241062
0.241465
0.241878
0.2423
0.242731
0.243168
0.243611
0.244059
0.244513
0.244973
0.245406
0.245788
0.236505
0.23643
0.236403
0.236423
0.236481
0.236572
0.236697
0.236851
0.237032
0.237239
0.23747
0.237722
0.237994
0.238285
0.238592
0.238914
0.239251
0.239599
0.23996
0.24033
0.240709
0.241095
0.241489
0.241888
0.242291
0.242697
0.243109
0.243524
0.243911
0.244237
0.235688
0.235612
0.235582
0.235596
0.235645
0.235727
0.235838
0.235978
0.236143
0.236332
0.236543
0.236774
0.237023
0.237288
0.237568
0.237862
0.238169
0.238486
0.238813
0.239148
0.239491
0.23984
0.240194
0.240552
0.240912
0.241275
0.241641
0.242011
0.242348
0.242614
0.234846
0.23477
0.234736
0.234744
0.234785
0.234855
0.234954
0.235079
0.235227
0.235397
0.235587
0.235795
0.236019
0.236258
0.23651
0.236774
0.237048
0.237332
0.237624
0.237923
0.238227
0.238535
0.238848
0.239162
0.239478
0.239794
0.240112
0.240433
0.240718
0.240922
0.23398
0.233905
0.233868
0.233869
0.233901
0.233961
0.234046
0.234155
0.234285
0.234435
0.234603
0.234787
0.234985
0.235196
0.235418
0.235651
0.235892
0.23614
0.236395
0.236655
0.236918
0.237184
0.237453
0.237721
0.23799
0.238256
0.238524
0.238794
0.239024
0.239161
0.233094
0.233019
0.232979
0.232974
0.232997
0.233045
0.233117
0.233209
0.233321
0.23345
0.233595
0.233753
0.233924
0.234106
0.234297
0.234496
0.234701
0.234913
0.235128
0.235347
0.235567
0.235789
0.23601
0.236231
0.236449
0.236664
0.236877
0.237093
0.237267
0.237334
0.232189
0.232115
0.232073
0.232062
0.232075
0.232112
0.232168
0.232244
0.232336
0.232443
0.232564
0.232696
0.232838
0.232989
0.233147
0.23331
0.233479
0.233651
0.233825
0.234
0.234176
0.23435
0.234523
0.234692
0.234858
0.235018
0.235175
0.235334
0.235447
0.235441
0.231269
0.231196
0.231151
0.231134
0.231138
0.231162
0.231204
0.231262
0.231334
0.231418
0.231513
0.231617
0.231729
0.231847
0.231971
0.232097
0.232227
0.232357
0.232488
0.232618
0.232746
0.23287
0.232991
0.233107
0.233217
0.233319
0.233417
0.233516
0.233567
0.233484
0.230334
0.230263
0.230216
0.230193
0.230188
0.230199
0.230225
0.230265
0.230315
0.230376
0.230444
0.230519
0.2306
0.230684
0.230771
0.230859
0.230947
0.231034
0.231119
0.231201
0.231279
0.231351
0.231418
0.231477
0.231529
0.231571
0.231606
0.231642
0.231627
0.231464
0.229388
0.22932
0.229271
0.229241
0.229227
0.229225
0.229235
0.229255
0.229284
0.229319
0.22936
0.229405
0.229452
0.229501
0.229549
0.229597
0.229642
0.229683
0.229721
0.229752
0.229777
0.229795
0.229804
0.229805
0.229795
0.229773
0.229743
0.229712
0.229629
0.229382
0.228433
0.228368
0.228317
0.228282
0.228257
0.228243
0.228236
0.228236
0.228242
0.228251
0.228263
0.228276
0.228289
0.2283
0.228308
0.228313
0.228313
0.228307
0.228294
0.228272
0.228242
0.228202
0.228152
0.22809
0.228015
0.227927
0.227828
0.227727
0.227572
0.227237
0.227472
0.22741
0.227358
0.227316
0.227282
0.227254
0.22723
0.227209
0.227191
0.227173
0.227155
0.227134
0.227111
0.227083
0.22705
0.22701
0.226962
0.226906
0.22684
0.226764
0.226675
0.226575
0.226461
0.226334
0.226192
0.226033
0.225861
0.225687
0.225456
0.225028
0.226506
0.226449
0.226395
0.226348
0.226303
0.226261
0.226219
0.226177
0.226134
0.226088
0.226038
0.225983
0.225922
0.225853
0.225776
0.225689
0.225592
0.225483
0.225362
0.225227
0.225078
0.224914
0.224735
0.224539
0.224325
0.224093
0.223844
0.223592
0.223288
0.222774
0.225538
0.225486
0.225432
0.225378
0.225323
0.225266
0.225206
0.225142
0.225073
0.224997
0.224914
0.224823
0.224722
0.224611
0.224488
0.224353
0.224204
0.22404
0.223861
0.223665
0.223452
0.223222
0.222973
0.222704
0.222416
0.222108
0.221784
0.221455
0.221059
0.220442
0.22457
0.224523
0.224469
0.224409
0.224343
0.224272
0.224193
0.224105
0.224009
0.223903
0.223786
0.223657
0.223515
0.22336
0.223189
0.223002
0.222799
0.222577
0.222338
0.222078
0.221799
0.221498
0.221175
0.220834
0.22047
0.22008
0.219668
0.219251
0.218771
0.218054
0.223605
0.223564
0.223509
0.223443
0.223367
0.22328
0.223181
0.22307
0.222946
0.222808
0.222655
0.222487
0.222302
0.2221
0.221879
0.221639
0.221379
0.221098
0.220794
0.220468
0.220118
0.219746
0.219349
0.218925
0.218477
0.218001
0.217502
0.216996
0.216426
0.215606
0.222644
0.222609
0.222554
0.222482
0.222395
0.222293
0.222173
0.222038
0.221885
0.221714
0.221524
0.221315
0.221085
0.220834
0.220562
0.220266
0.219946
0.219602
0.219232
0.218836
0.218414
0.217962
0.217484
0.216977
0.216442
0.215877
0.215286
0.214686
0.21402
0.213095
0.221689
0.221662
0.221607
0.221529
0.221431
0.221312
0.221172
0.221011
0.220828
0.220622
0.220394
0.220143
0.219867
0.219565
0.219238
0.218884
0.218503
0.218093
0.217653
0.217184
0.216684
0.216152
0.215589
0.214994
0.214367
0.213708
0.213019
0.212319
0.211554
0.210524
0.220742
0.220723
0.220668
0.220584
0.220475
0.220339
0.220178
0.21999
0.219775
0.219535
0.219266
0.21897
0.218647
0.218293
0.217909
0.217495
0.21705
0.216571
0.21606
0.215515
0.214934
0.214319
0.213668
0.212981
0.212258
0.211498
0.210705
0.209899
0.209029
0.207897
0.219805
0.219794
0.219739
0.219649
0.219527
0.219374
0.219188
0.218972
0.218725
0.218447
0.218134
0.217791
0.217414
0.217005
0.216561
0.216083
0.215569
0.215018
0.21443
0.213803
0.213138
0.212433
0.211689
0.210905
0.21008
0.209215
0.208312
0.207389
0.206409
0.205185
0.218879
0.218879
0.218825
0.218729
0.218597
0.218426
0.218216
0.217972
0.217689
0.217368
0.217015
0.216622
0.216192
0.215723
0.215215
0.214667
0.214078
0.213447
0.212773
0.212055
0.211292
0.210485
0.209631
0.208732
0.207789
0.206801
0.205772
0.204724
0.203652
0.202396
0.217969
0.217988
0.217941
0.217845
0.217712
0.217532
0.21731
0.217044
0.216737
0.216389
0.216001
0.215572
0.215101
0.214587
0.21403
0.213428
0.212781
0.212088
0.211346
0.210554
0.209711
0.208816
0.207866
0.206861
0.205802
0.204691
0.203535
0.202362
0.201263
0.200167
0.217068
0.217108
0.21707
0.216986
0.216838
0.216644
0.216403
0.216116
0.215783
0.215406
0.214985
0.21452
0.214011
0.213457
0.212858
0.212214
0.211524
0.210786
0.21
0.209164
0.208276
0.207335
0.206337
0.205279
0.204157
0.202967
0.201709
0.200374
0.199117
0.198076
)
;

boundaryField
{
    inlet
    {
        type            zeroGradient;
    }
    outlet
    {
        type            fixedValue;
        value           nonuniform 0();
    }
    cylinder
    {
        type            zeroGradient;
    }
    top
    {
        type            symmetryPlane;
    }
    bottom
    {
        type            symmetryPlane;
    }
    defaultFaces
    {
        type            empty;
    }
    procBoundary8to4
    {
        type            processor;
        value           nonuniform List<scalar> 
46
(
0.618778
0.578559
0.578559
0.532067
0.494099
0.456885
0.424906
0.39558
0.370062
0.347367
0.327662
0.310463
0.295703
0.283024
0.272428
0.26348
0.244631
0.244582
0.244608
0.2447
0.244846
0.245042
0.245286
0.245576
0.245908
0.246281
0.246692
0.247138
0.247619
0.248133
0.248677
0.24925
0.249851
0.250478
0.25113
0.251806
0.252504
0.253223
0.253963
0.254721
0.255498
0.256291
0.2571
0.257924
0.258762
0.259612
)
;
    }
    procBoundary8to9
    {
        type            processor;
        value           nonuniform List<scalar> 
75
(
0.0841429
0.0840294
0.0895785
0.0895785
0.0909162
0.0909162
0.0917832
0.0981157
0.0981157
0.0996556
0.106515
0.113357
0.113357
0.116039
0.123521
0.123521
0.126917
0.135151
0.143354
0.143354
0.14851
0.157604
0.166654
0.166654
0.173556
0.183613
0.193607
0.20353
0.20353
0.214487
0.225583
0.236581
0.24747
0.25824
0.25824
0.273525
0.285487
0.297291
0.308925
0.320376
0.331633
0.331633
0.357829
0.370381
0.382679
0.394709
0.406459
0.417916
0.429065
0.439896
0.450395
0.450395
0.482804
0.494059
0.504902
0.515319
0.525297
0.534824
0.543888
0.552479
0.560585
0.568198
0.575306
0.581902
0.587978
0.593526
0.598538
0.60301
0.606934
0.606934
0.667467
0.670795
0.673463
0.675467
0.676805
)
;
    }
    procBoundary8to12
    {
        type            processor;
        value           nonuniform List<scalar> 
76
(
0.0868656
0.100235
0.105298
0.110291
0.11521
0.120051
0.124811
0.129486
0.134073
0.138572
0.138572
0.138953
0.143075
0.147126
0.151105
0.151105
0.151083
0.154565
0.154565
0.154126
0.15373
0.157057
0.157057
0.156648
0.159824
0.159824
0.159396
0.162433
0.162433
0.161991
0.164875
0.164875
0.164419
0.167204
0.167204
0.166737
0.169287
0.169287
0.168813
0.171497
0.171497
0.173385
0.173385
0.172905
0.17635
0.21017
0.209763
0.209266
0.208688
0.208029
0.207292
0.206479
0.205591
0.204629
0.203594
0.202487
0.20131
0.200061
0.198742
0.197354
0.195896
0.19437
0.192776
0.191114
0.189386
0.187595
0.185736
0.183837
0.181827
0.179962
0.177445
0.210562
0.210603
0.210448
0.21017
0.210233
)
;
    }
}


// ************************************************************************* //
