/*--------------------------------*- C++ -*----------------------------------*\
  =========                 |
  \\      /  F ield         | OpenFOAM: The Open Source CFD Toolbox
   \\    /   O peration     | Website:  https://openfoam.org
    \\  /    A nd           | Version:  7
     \\/     M anipulation  |
\*---------------------------------------------------------------------------*/
FoamFile
{
    version     2.0;
    format      ascii;
    class       volScalarField;
    location    "5";
    object      p;
}
// * * * * * * * * * * * * * * * * * * * * * * * * * * * * * * * * * * * * * //

dimensions      [0 2 -2 0 0 0 0];

internalField   nonuniform List<scalar> 
656
(
0.0733921
0.214032
0.212877
0.210281
0.206499
0.201584
0.195601
0.188652
0.180875
0.172441
0.16354
0.154366
0.145109
0.135934
0.126986
0.118379
0.214161
0.213024
0.210457
0.206718
0.201852
0.195922
0.189023
0.181291
0.17289
0.164008
0.15484
0.145572
0.136375
0.127392
0.118741
0.214404
0.213295
0.210784
0.207124
0.202351
0.196519
0.189715
0.182066
0.173729
0.164886
0.155729
0.146446
0.137208
0.128163
0.11943
0.21474
0.21367
0.211237
0.207689
0.203045
0.197351
0.190683
0.183153
0.174908
0.166124
0.156986
0.147685
0.138392
0.129263
0.120416
0.215153
0.21413
0.211796
0.208384
0.203902
0.198382
0.191885
0.184509
0.176385
0.167679
0.158572
0.149253
0.139896
0.130666
0.121677
0.215628
0.214658
0.212438
0.209186
0.204894
0.19958
0.193287
0.186096
0.178121
0.169516
0.160453
0.151121
0.141695
0.132352
0.123196
0.216149
0.215239
0.213147
0.210073
0.205994
0.200915
0.194856
0.187881
0.180083
0.171602
0.1626
0.153263
0.143768
0.134305
0.124959
0.216706
0.215859
0.213906
0.211026
0.207181
0.202359
0.196563
0.189832
0.182239
0.173908
0.164986
0.155658
0.146095
0.136511
0.126956
0.217286
0.216507
0.214701
0.212027
0.208432
0.203891
0.19838
0.191922
0.184562
0.176408
0.167586
0.158284
0.148661
0.138958
0.129176
0.217882
0.217172
0.21552
0.213061
0.209731
0.205487
0.200285
0.194125
0.187025
0.179075
0.170379
0.161122
0.15145
0.141637
0.131612
0.218485
0.217846
0.216352
0.214116
0.21106
0.207129
0.202256
0.196418
0.189605
0.181888
0.173343
0.164156
0.154446
0.144539
0.134254
0.219089
0.218521
0.217189
0.215179
0.212407
0.2088
0.204272
0.19878
0.192279
0.184824
0.176457
0.167367
0.157635
0.147653
0.137093
0.219688
0.219191
0.218022
0.216241
0.213758
0.210486
0.206318
0.201189
0.195026
0.187863
0.179701
0.170739
0.161002
0.150972
0.14012
0.220277
0.219851
0.218845
0.217294
0.215103
0.212172
0.208376
0.20363
0.197826
0.190984
0.183056
0.174255
0.164532
0.154485
0.143324
0.220853
0.220497
0.219653
0.218331
0.216434
0.213849
0.210434
0.206085
0.200663
0.194168
0.186503
0.177897
0.168208
0.158183
0.146694
0.221413
0.221126
0.220441
0.219347
0.217743
0.215506
0.212478
0.20854
0.203518
0.197398
0.190025
0.18165
0.172016
0.162056
0.150219
0.221956
0.221735
0.221207
0.220337
0.219023
0.217134
0.214499
0.210982
0.206378
0.200656
0.193603
0.185496
0.17594
0.166092
0.153886
0.222478
0.222323
0.221948
0.221297
0.220271
0.218728
0.216487
0.213399
0.209227
0.203927
0.197221
0.189419
0.179965
0.17028
0.157681
0.22298
0.222887
0.222662
0.222225
0.221481
0.220281
0.218435
0.215781
0.212053
0.207195
0.200864
0.193402
0.184075
0.174605
0.161591
0.22346
0.223429
0.223348
0.223119
0.22265
0.221789
0.220336
0.218118
0.214846
0.210448
0.204516
0.19743
0.188257
0.179054
0.165605
0.223918
0.223946
0.224004
0.223978
0.223778
0.223248
0.222184
0.220405
0.217594
0.213671
0.208163
0.201484
0.192496
0.18361
0.169711
0.224354
0.224438
0.224631
0.2248
0.224861
0.224656
0.223976
0.222633
0.22029
0.216854
0.211793
0.205551
0.19678
0.188256
0.173897
0.224769
0.224907
0.225229
0.225585
0.11186
0.107379
0.102814
0.0981599
0.0934167
0.0885913
0.0836924
0.0787286
0.0737091
0.0686434
0.0635416
0.112213
0.107741
0.103181
0.0985298
0.0937846
0.0889507
0.0840366
0.0790514
0.0740042
0.068905
0.0637642
0.112867
0.10836
0.103759
0.0990701
0.0942837
0.0894033
0.0844379
0.079397
0.0742899
0.0691267
0.0639182
0.113796
0.109215
0.104534
0.0997726
0.0949128
0.0899543
0.0849068
0.0797804
0.0745848
0.0693302
0.0640276
0.114985
0.110294
0.105499
0.100636
0.0956743
0.0906097
0.0854527
0.0802144
0.0749047
0.0695339
0.0641132
0.116424
0.11159
0.106647
0.101654
0.0965639
0.091367
0.086075
0.0807001
0.0752526
0.0697426
0.0641816
0.118104
0.113096
0.107973
0.102824
0.0975806
0.0922268
0.0867757
0.0812413
0.0756335
0.0699628
0.0642406
0.120021
0.114808
0.109475
0.104144
0.0987248
0.0931904
0.0875577
0.0818417
0.0760527
0.0702008
0.0642978
0.122172
0.116723
0.11115
0.105616
0.099997
0.0942596
0.0884234
0.0825051
0.0765147
0.0704622
0.0643597
0.124553
0.118838
0.112998
0.107237
0.101398
0.095436
0.0893755
0.083235
0.0770239
0.0707521
0.064432
0.127163
0.121151
0.115016
0.109009
0.102929
0.0967212
0.0904165
0.0840346
0.0775842
0.0710752
0.06452
0.13
0.123659
0.117202
0.110932
0.10459
0.0981163
0.0915482
0.0849067
0.0781992
0.0714356
0.0646287
0.0577922
0.13306
0.126358
0.119555
0.113004
0.106382
0.0996223
0.0927725
0.0858537
0.0788718
0.0718369
0.0647622
0.0576614
0.136341
0.129242
0.122072
0.115225
0.108303
0.101239
0.0940906
0.0868775
0.0796047
0.0722825
0.0649243
0.0575441
0.139838
0.132306
0.124749
0.117593
0.110354
0.102967
0.0955033
0.0879798
0.0804
0.0727749
0.0651183
0.0574442
0.143547
0.135541
0.127583
0.120107
0.112531
0.104805
0.0970108
0.0891614
0.0812595
0.0733166
0.0653471
0.057365
0.147461
0.138939
0.130568
0.122762
0.114833
0.106752
0.0986127
0.0904229
0.0821842
0.0739094
0.0656129
0.0573093
0.151574
0.142488
0.1337
0.125555
0.117255
0.108806
0.100308
0.0917641
0.0831749
0.0745546
0.0659179
0.0572796
0.155876
0.146176
0.136971
0.128481
0.119793
0.110964
0.102096
0.0931844
0.0842317
0.0752531
0.0662633
0.0572778
0.160357
0.149989
0.140377
0.131532
0.122443
0.113223
0.103974
0.0946826
0.0853543
0.0760051
0.0666502
0.0573054
0.165004
0.153911
0.143909
0.134702
0.125197
0.115579
0.105939
0.0962567
0.0865416
0.0768105
0.0670788
0.0573633
0.169799
0.157925
0.147559
0.137981
0.128049
0.118028
0.107987
0.0979042
0.0877921
0.0776683
0.067549
0.0574518
0.174722
0.162015
0.151319
0.141357
0.130993
0.120564
0.110115
0.099622
0.0891035
0.0785772
0.06806
0.0575711
0.166167
0.155178
0.14482
0.134023
0.123183
0.112317
0.101407
0.0904738
0.0795357
0.0686112
0.0577208
0.159121
0.148354
0.137126
0.125874
0.114587
0.103253
0.0918974
0.0805393
0.0691991
0.0578989
0.151927
0.140279
0.128615
0.116903
0.105143
0.0933602
0.0815765
0.0698142
0.0580975
0.143487
0.131412
0.119274
0.107083
0.094867
0.082651
0.0704595
0.0583188
0.134409
0.121824
0.109182
0.0965139
0.0838464
0.0712075
0.0586258
0.124512
0.111418
0.0982944
0.085172
0.0720812
0.0590528
0.112649
0.0992272
0.0857911
0.0723748
0.0590118
)
;

boundaryField
{
    inlet
    {
        type            zeroGradient;
    }
    outlet
    {
        type            fixedValue;
        value           nonuniform 0();
    }
    cylinder
    {
        type            zeroGradient;
    }
    top
    {
        type            symmetryPlane;
    }
    bottom
    {
        type            symmetryPlane;
    }
    defaultFaces
    {
        type            empty;
    }
    procBoundary0to1
    {
        type            processor;
        value           nonuniform List<scalar> 
26
(
0.0584144
0.058593
0.0586757
0.0586887
0.0586546
0.0585818
0.0584797
0.0583566
0.0582201
0.0580766
0.0579322
0.0579322
0.0509401
0.0505488
0.0501566
0.0497676
0.0493856
0.049014
0.0486557
0.0483131
0.047988
0.0476821
0.047396
0.0471306
0.0468862
0.0466617
)
;
    }
    procBoundary0to4
    {
        type            processor;
        value           nonuniform List<scalar> 
35
(
0.117403
0.102803
0.0881161
0.0881161
0.225899
0.226011
0.225708
0.224798
0.222926
0.219986
0.215393
0.209613
0.201098
0.192971
0.178154
0.225162
0.225351
0.225797
0.225899
0.226334
0.178154
0.179742
0.179742
0.170368
0.170368
0.163111
0.163111
0.155541
0.155541
0.146916
0.146916
0.137542
0.137542
0.12602
0.12602
)
;
    }
    procBoundary0to5
    {
        type            processor;
        value           nonuniform List<scalar> 8(0.0568816 0.0586787 0.0586787 0.046451 0.0462557 0.0461301 0.0461174 0.0457353);
    }
}


// ************************************************************************* //
