/*--------------------------------*- C++ -*----------------------------------*\
  =========                 |
  \\      /  F ield         | OpenFOAM: The Open Source CFD Toolbox
   \\    /   O peration     | Website:  https://openfoam.org
    \\  /    A nd           | Version:  7
     \\/     M anipulation  |
\*---------------------------------------------------------------------------*/
FoamFile
{
    version     2.0;
    format      ascii;
    class       volScalarField;
    location    "15";
    object      p;
}
// * * * * * * * * * * * * * * * * * * * * * * * * * * * * * * * * * * * * * //

dimensions      [0 2 -2 0 0 0 0];

internalField   nonuniform List<scalar> 
6050
(
-0.328423
-0.330024
-0.331577
-0.333096
-0.334587
-0.336037
-0.337413
-0.338626
-0.339545
-0.340025
-0.339681
-0.33853
-0.335425
-0.328594
-0.33019
-0.331742
-0.333263
-0.334762
-0.336229
-0.337637
-0.3389
-0.339872
-0.340485
-0.340128
-0.339268
-0.335764
-0.328914
-0.330499
-0.332042
-0.333561
-0.335068
-0.336557
-0.33801
-0.339356
-0.340381
-0.341278
-0.340756
-0.340605
-0.336206
-0.329346
-0.330905
-0.332426
-0.333929
-0.33543
-0.336926
-0.338408
-0.33985
-0.340825
-0.342229
-0.341144
-0.342259
-0.336417
-0.32984
-0.331352
-0.332827
-0.334289
-0.335758
-0.33723
-0.338689
-0.340249
-0.340962
-0.343149
-0.340932
-0.343639
-0.336492
-0.331778
-0.333179
-0.334568
-0.335969
-0.337377
-0.338732
-0.340428
-0.340749
-0.343388
-0.340721
-0.343871
-0.336196
-0.332124
-0.33342
-0.334701
-0.335996
-0.337299
-0.33853
-0.340173
-0.340197
-0.343048
-0.339688
-0.34314
-0.335273
-0.33234
-0.333501
-0.334645
-0.335797
-0.336952
-0.337999
-0.33952
-0.33917
-0.341955
-0.338101
-0.341034
-0.333533
-0.332389
-0.333388
-0.334368
-0.335347
-0.336308
-0.337123
-0.338377
-0.337715
-0.339829
-0.335943
-0.337296
-0.330398
-0.332248
-0.333062
-0.333853
-0.334621
-0.335332
-0.335853
-0.336629
-0.33571
-0.336532
-0.332839
-0.331938
-0.32522
-0.331901
-0.332508
-0.333078
-0.33358
-0.333964
-0.334066
-0.334158
-0.332833
-0.332069
-0.328285
-0.32512
-0.317876
-0.331711
-0.33201
-0.332152
-0.332095
-0.331577
-0.330814
-0.328751
-0.326454
-0.322068
-0.317051
-0.30888
-0.330645
-0.330586
-0.330237
-0.329563
-0.328208
-0.326426
-0.323328
-0.319692
-0.314374
-0.308061
-0.299114
-0.329263
-0.32871
-0.327705
-0.326193
-0.323832
-0.320897
-0.316662
-0.311912
-0.305667
-0.298581
-0.289134
-0.327493
-0.326268
-0.324422
-0.32187
-0.318415
-0.314291
-0.309023
-0.303404
-0.296449
-0.289031
-0.279373
-0.323151
-0.320295
-0.316591
-0.31205
-0.306828
-0.300751
-0.294488
-0.287097
-0.279692
-0.269997
-0.319289
-0.315314
-0.310463
-0.304932
-0.298793
-0.292149
-0.285395
-0.277814
-0.270619
-0.261008
-0.309562
-0.303667
-0.297294
-0.290454
-0.283428
-0.276269
-0.268685
-0.261667
-0.252313
-0.303187
-0.296404
-0.289349
-0.28201
-0.27471
-0.267228
-0.259728
-0.25257
-0.243731
-0.288848
-0.281262
-0.273579
-0.266063
-0.258383
-0.250944
-0.243272
-0.235124
-0.28113
-0.273139
-0.265214
-0.257531
-0.249777
-0.242339
-0.234344
-0.22651
-0.265036
-0.256937
-0.24914
-0.241371
-0.233877
-0.226062
-0.218617
-0.256977
-0.24875
-0.240885
-0.233121
-0.225702
-0.218075
-0.210958
-0.240647
-0.232742
-0.225035
-0.217711
-0.210294
-0.203595
-0.224696
-0.217064
-0.209875
-0.202716
-0.196319
-0.209185
-0.202143
-0.19522
-0.189129
-0.19447
-0.187794
-0.181964
-0.180382
-0.1748
-0.180382
-0.1748
-0.19447
-0.187794
-0.181964
-0.209185
-0.202143
-0.19522
-0.189129
-0.224696
-0.217064
-0.209875
-0.202716
-0.196319
-0.240647
-0.232742
-0.225035
-0.217711
-0.210294
-0.203594
-0.256977
-0.24875
-0.240885
-0.233121
-0.225702
-0.218075
-0.210958
-0.265036
-0.256937
-0.24914
-0.241371
-0.233877
-0.226062
-0.218617
-0.28113
-0.273139
-0.265214
-0.257531
-0.249777
-0.242339
-0.234344
-0.22651
-0.288848
-0.281262
-0.273579
-0.266063
-0.258383
-0.250944
-0.243272
-0.235123
-0.303187
-0.296404
-0.289349
-0.28201
-0.27471
-0.267228
-0.259728
-0.25257
-0.243731
-0.309562
-0.303667
-0.297294
-0.290454
-0.283428
-0.276269
-0.268685
-0.261667
-0.252313
-0.319289
-0.315314
-0.310463
-0.304932
-0.298793
-0.292149
-0.285395
-0.277814
-0.270619
-0.261008
-0.323151
-0.320295
-0.316591
-0.31205
-0.306828
-0.300751
-0.294488
-0.287097
-0.279691
-0.269997
-0.327493
-0.326268
-0.324422
-0.32187
-0.318415
-0.314291
-0.309023
-0.303404
-0.296449
-0.289031
-0.279373
-0.329263
-0.32871
-0.327705
-0.326193
-0.323832
-0.320897
-0.316662
-0.311912
-0.305667
-0.29858
-0.289134
-0.330645
-0.330586
-0.330237
-0.329563
-0.328208
-0.326426
-0.323328
-0.319692
-0.314374
-0.308061
-0.299114
-0.331711
-0.33201
-0.332152
-0.332095
-0.331577
-0.330814
-0.328751
-0.326454
-0.322068
-0.317051
-0.30888
-0.331901
-0.332508
-0.333078
-0.33358
-0.333964
-0.334066
-0.334158
-0.332833
-0.332069
-0.328285
-0.32512
-0.317876
-0.332248
-0.333062
-0.333853
-0.334621
-0.335332
-0.335853
-0.336629
-0.33571
-0.336532
-0.332839
-0.331938
-0.32522
-0.332389
-0.333388
-0.334368
-0.335347
-0.336308
-0.337123
-0.338377
-0.337714
-0.339829
-0.335943
-0.337295
-0.330398
-0.33234
-0.333501
-0.334645
-0.335797
-0.336952
-0.337999
-0.33952
-0.33917
-0.341955
-0.338101
-0.341034
-0.333533
-0.332124
-0.33342
-0.334702
-0.335996
-0.337299
-0.33853
-0.340173
-0.340197
-0.343048
-0.339688
-0.34314
-0.335273
-0.331778
-0.333179
-0.334568
-0.335969
-0.337377
-0.338732
-0.340428
-0.340749
-0.343388
-0.340721
-0.343871
-0.336196
-0.32984
-0.331352
-0.332827
-0.334289
-0.335758
-0.33723
-0.338689
-0.340249
-0.340962
-0.343149
-0.340931
-0.343639
-0.336491
-0.329346
-0.330905
-0.332426
-0.333929
-0.33543
-0.336926
-0.338408
-0.33985
-0.340825
-0.342229
-0.341143
-0.342259
-0.336417
-0.328914
-0.330499
-0.332042
-0.333562
-0.335068
-0.336557
-0.33801
-0.339356
-0.340381
-0.341278
-0.340756
-0.340605
-0.336206
-0.328594
-0.33019
-0.331742
-0.333263
-0.334762
-0.336229
-0.337637
-0.3389
-0.339872
-0.340485
-0.340128
-0.339268
-0.335763
-0.328423
-0.330024
-0.331577
-0.333097
-0.334587
-0.336037
-0.337413
-0.338626
-0.339545
-0.340025
-0.339681
-0.33853
-0.335425
-0.333151
-0.331096
-0.328476
-0.325162
-0.321082
-0.316115
-0.310149
-0.303076
-0.294796
-0.28523
-0.274312
-0.262003
-0.248299
-0.233239
-0.216907
-0.199444
-0.18104
-0.161936
-0.14244
-0.122878
-0.103596
-0.0849278
-0.0671889
-0.0507273
-0.0357638
-0.0224843
-0.0110022
-0.00135657
0.00648486
0.0126133
0.0171696
0.0203279
0.0222781
0.0232237
0.0233451
0.0228411
0.0218453
0.020535
0.0189744
0.0173215
0.0155664
0.0138619
0.0121192
0.0105185
0.00885972
0.00741084
0.00578785
0.00446436
0.00271576
0.00138335
-0.334113
-0.332166
-0.329655
-0.326465
-0.32249
-0.317623
-0.311755
-0.304772
-0.296571
-0.287081
-0.276229
-0.263974
-0.250309
-0.23527
-0.21894
-0.201463
-0.183034
-0.163879
-0.144315
-0.124674
-0.105267
-0.0864954
-0.0686674
-0.0520959
-0.037026
-0.0236436
-0.0120621
-0.00232157
0.00560964
0.0118224
0.0164577
0.0196898
0.021709
0.0227196
0.0229016
0.0224522
0.021506
0.0202401
0.01872
0.0171023
0.0153797
0.0137019
0.0119852
0.0104042
0.00876719
0.00733172
0.00572804
0.00441157
0.00268478
0.00135315
-0.335659
-0.333863
-0.331513
-0.328522
-0.324737
-0.320057
-0.314369
-0.307568
-0.299531
-0.290199
-0.279484
-0.267347
-0.253775
-0.238802
-0.222509
-0.20504
-0.186582
-0.167285
-0.147649
-0.127891
-0.108375
-0.0894531
-0.0714633
-0.0547199
-0.0394748
-0.0259173
-0.0141623
-0.00425219
0.00384425
0.0102165
0.0150052
0.0183835
0.0205416
0.0216834
0.0219897
0.021654
0.0208105
0.019637
0.0182008
0.0166562
0.0150005
0.0133779
0.0117146
0.0101742
0.00858133
0.00717368
0.00560887
0.00430749
0.00262376
0.00129545
-0.337651
-0.335663
-0.333454
-0.330665
-0.327099
-0.322648
-0.317199
-0.310688
-0.302704
-0.293641
-0.283132
-0.271181
-0.257772
-0.242933
-0.226741
-0.209331
-0.190897
-0.171674
-0.151985
-0.132148
-0.112517
-0.0934643
-0.0753259
-0.0584125
-0.0429812
-0.029225
-0.0172616
-0.0071364
0.00117963
0.00777281
0.0127812
0.0163749
0.0187415
0.020083
0.0205787
0.0204205
0.0197381
0.018709
0.0174037
0.0159732
0.0144218
0.0128856
0.0113042
0.0098272
0.00830154
0.00693773
0.00543142
0.00415509
0.00253444
0.00121523
-0.338512
-0.337051
-0.334777
-0.332099
-0.328759
-0.324548
-0.319341
-0.313028
-0.30548
-0.296636
-0.286392
-0.274699
-0.261536
-0.246926
-0.230944
-0.213714
-0.195423
-0.176317
-0.156705
-0.13691
-0.117284
-0.0981936
-0.0799803
-0.0629559
-0.0473792
-0.0334458
-0.0212764
-0.0109201
-0.0023528
0.0045064
0.00978962
0.013661
0.0163019
0.0179096
0.0186593
0.0187417
0.0182808
0.0174498
0.0163241
0.0150505
0.0136416
0.0122243
0.0107543
0.00936468
0.0079291
0.00662653
0.00519784
0.00395871
0.00241926
0.00111899
-0.338177
-0.337291
-0.335127
-0.332496
-0.329312
-0.325315
-0.320346
-0.314289
-0.307029
-0.298481
-0.288557
-0.277194
-0.26437
-0.250101
-0.234453
-0.217548
-0.199564
-0.180742
-0.161373
-0.141779
-0.122308
-0.103318
-0.0851504
-0.0681155
-0.0524714
-0.0384149
-0.0260697
-0.0154904
-0.00665993
0.000493976
0.00609355
0.0102936
0.0132656
0.0151983
0.0162614
0.0166396
0.0164569
0.0158749
0.0149751
0.0138987
0.012669
0.011402
0.0100714
0.00879269
0.00746873
0.00624522
0.00491181
0.00372386
0.00228124
0.00101365
-0.336415
-0.335844
-0.334004
-0.331508
-0.328425
-0.324577
-0.319813
-0.31401
-0.307046
-0.298819
-0.289245
-0.278265
-0.265854
-0.252026
-0.236845
-0.220422
-0.202919
-0.184561
-0.165623
-0.146417
-0.127278
-0.108553
-0.0905752
-0.0736517
-0.0580381
-0.0439314
-0.0314586
-0.0206807
-0.0115912
-0.00412953
0.00181298
0.00637797
0.00972424
0.0120284
0.0134517
0.0141714
0.0143117
0.0140225
0.013388
0.0125436
0.0115245
0.0104357
0.00926907
0.00812264
0.00692905
0.00580159
0.00457876
0.00345688
0.00212393
0.000905389
-0.333101
-0.332489
-0.33108
-0.328843
-0.325848
-0.322092
-0.3175
-0.311944
-0.305278
-0.297392
-0.288211
-0.277678
-0.265764
-0.252475
-0.237867
-0.22205
-0.205192
-0.187497
-0.169199
-0.150581
-0.131958
-0.113663
-0.0960226
-0.0793357
-0.0638557
-0.0497783
-0.0372343
-0.0262932
-0.0169613
-0.00919294
-0.0028963
0.00205385
0.00580104
0.00850718
0.0103232
0.0114161
0.0119096
0.0119458
0.0116075
0.0110218
0.0102378
0.00934934
0.00836627
0.00737009
0.00632186
0.00530551
0.0042056
0.00316437
0.00195117
0.00079885
-0.328154
-0.327106
-0.32612
-0.324243
-0.321359
-0.31767
-0.313246
-0.307956
-0.301614
-0.294105
-0.285364
-0.275346
-0.264016
-0.251373
-0.237467
-0.222394
-0.206305
-0.189404
-0.171928
-0.154099
-0.136178
-0.118473
-0.101304
-0.0849682
-0.0697173
-0.055746
-0.043189
-0.0321257
-0.0225775
-0.0145163
-0.00786914
-0.00252977
0.00162836
0.00475048
0.00697658
0.00846
0.00932411
0.00970278
0.00968206
0.00937415
0.00884185
0.00816971
0.00738443
0.00655246
0.0056606
0.0047678
0.00380005
0.00285268
0.00176678
0.000696841
-0.321169
-0.319574
-0.31908
-0.317644
-0.314896
-0.311287
-0.307066
-0.302088
-0.296119
-0.28904
-0.280808
-0.271383
-0.260726
-0.248831
-0.235737
-0.221529
-0.206341
-0.190353
-0.173791
-0.156889
-0.139833
-0.122864
-0.106283
-0.0903935
-0.0754519
-0.0616541
-0.0491392
-0.0379969
-0.0282654
-0.0199354
-0.0129542
-0.00723592
-0.00267179
0.000865345
0.00350442
0.00538355
0.00662436
0.00735047
0.00765646
0.00763863
0.00736865
0.00692292
0.00634447
0.00568667
0.00495861
0.00419901
0.00336982
0.00252745
0.00157426
0.000600523
-0.312005
-0.309993
-0.310158
-0.309242
-0.306673
-0.303208
-0.299263
-0.294658
-0.289116
-0.282528
-0.274874
-0.266116
-0.25621
-0.245145
-0.232949
-0.219695
-0.205495
-0.190508
-0.174935
-0.159002
-0.1429
-0.126775
-0.110876
-0.0955069
-0.0809359
-0.0673664
-0.0549423
-0.0437638
-0.0338856
-0.0253183
-0.0180292
-0.0119535
-0.00700013
-0.00306057
-1.71363e-05
0.00225285
0.00386764
0.0049401
0.00557015
0.00584648
0.00584484
0.00563157
0.00526479
0.00478758
0.00422782
0.00360847
0.00292191
0.00219335
0.00137651
0.000509869
-0.301205
-0.298932
-0.299842
-0.299492
-0.297181
-0.293968
-0.290388
-0.286214
-0.281146
-0.275101
-0.268076
-0.260034
-0.250924
-0.240731
-0.229477
-0.217216
-0.204044
-0.190093
-0.175537
-0.160584
-0.145435
-0.130203
-0.115048
-0.100251
-0.0860948
-0.0727948
-0.0605026
-0.0493279
-0.0393411
-0.0305719
-0.0230071
-0.0166025
-0.0112844
-0.00696279
-0.00353145
-0.000882945
0.0010969
0.00250931
0.00345821
0.00402336
0.00429041
0.00431296
0.0041602
0.0038673
0.00347807
0.00300378
0.00246223
0.001854
0.00117577
0.000424161
-0.290241
-0.287519
-0.288979
-0.289128
-0.287129
-0.284263
-0.281112
-0.277397
-0.272824
-0.267346
-0.26097
-0.253651
-0.24534
-0.236018
-0.225698
-0.214421
-0.202261
-0.189331
-0.175778
-0.161784
-0.147545
-0.133188
-0.118801
-0.104608
-0.0908954
-0.0778948
-0.0657674
-0.0546323
-0.0445737
-0.0356388
-0.0278329
-0.0211314
-0.0154771
-0.0107983
-0.00699999
-0.00398981
-0.00165821
8.44128e-05
0.00134433
0.00219245
0.00272157
0.00297924
0.00304123
0.00293483
0.00271703
0.0023908
0.00199542
0.00151201
0.000973601
0.000342378
-0.279437
-0.276666
-0.278436
-0.278876
-0.277164
-0.274689
-0.271984
-0.268718
-0.264633
-0.259716
-0.253974
-0.247356
-0.239812
-0.231322
-0.221892
-0.21155
-0.200354
-0.188394
-0.175796
-0.162716
-0.149333
-0.135796
-0.122161
-0.108584
-0.0953331
-0.0826531
-0.0707167
-0.0596521
-0.0495554
-0.0404897
-0.0324769
-0.0255108
-0.0195503
-0.0145407
-0.0103985
-0.00704572
-0.00437813
-0.00231729
-0.000756059
0.000368128
0.0011534
0.00164075
0.00191512
0.00199602
0.00195002
0.00177371
0.00152495
0.00116922
0.00077106
0.000263438
-0.269475
-0.26677
-0.268534
-0.269077
-0.267632
-0.265579
-0.26332
-0.260484
-0.256869
-0.252494
-0.247355
-0.241394
-0.234565
-0.22685
-0.218246
-0.20877
-0.198466
-0.187406
-0.175695
-0.163468
-0.150883
-0.138096
-0.125171
-0.112203
-0.0994218
-0.087077
-0.0753516
-0.0643832
-0.0542783
-0.0451136
-0.0369263
-0.029727
-0.0234895
-0.0181756
-0.013713
-0.0100374
-0.0070507
-0.00468486
-0.00283318
-0.0014409
-0.00040592
0.000306945
0.000788949
0.00105514
0.00118038
0.0011551
0.00105308
0.000826742
0.000568766
0.000186336
-0.260282
-0.257842
-0.259793
-0.260104
-0.258769
-0.257094
-0.255233
-0.252779
-0.249598
-0.24573
-0.241149
-0.235797
-0.229633
-0.222635
-0.214793
-0.206116
-0.196635
-0.186407
-0.175518
-0.164083
-0.15224
-0.14014
-0.127874
-0.115492
-0.103182
-0.0911827
-0.0796841
-0.0688334
-0.0587464
-0.0495116
-0.0411795
-0.0337763
-0.0272898
-0.021697
-0.0169369
-0.0129582
-0.00966918
-0.00701191
-0.00488107
-0.00322917
-0.00195148
-0.00101788
-0.000331899
0.000116998
0.000411224
0.000536722
0.000581186
0.000485156
0.000367016
0.000110206
-0.251849
-0.249727
-0.251633
-0.251959
-0.250719
-0.249385
-0.247876
-0.245765
-0.242992
-0.239589
-0.235514
-0.230713
-0.225149
-0.218796
-0.211641
-0.203684
-0.194946
-0.185473
-0.175332
-0.164622
-0.153462
-0.141992
-0.130324
-0.118494
-0.106645
-0.0949959
-0.0837355
-0.0730196
-0.0629723
-0.0536922
-0.0452415
-0.0376608
-0.0309508
-0.0251029
-0.0200669
-0.0158039
-0.012229
-0.00929377
-0.00689522
-0.0049925
-0.00347941
-0.00233045
-0.00144475
-0.000815812
-0.000354416
-7.92983e-05
0.00011045
0.000144772
0.000165773
3.4302e-05
-0.244222
-0.24256
-0.244217
-0.244256
-0.243071
-0.242024
-0.240782
-0.238985
-0.236614
-0.233665
-0.230081
-0.225815
-0.220831
-0.215099
-0.208598
-0.201324
-0.193289
-0.184525
-0.175089
-0.16506
-0.154543
-0.143662
-0.132538
-0.121222
-0.109821
-0.0985213
-0.0875069
-0.0769399
-0.0669517
-0.0576495
-0.0491057
-0.0413735
-0.0344657
-0.028387
-0.0230975
-0.01857
-0.0147266
-0.0115277
-0.00887355
-0.00672937
-0.00498852
-0.0036298
-0.00254884
-0.0017429
-0.00111642
-0.000692551
-0.000358648
-0.000194193
-3.54152e-05
-4.22446e-05
-0.237416
-0.236366
-0.237603
-0.237557
-0.236852
-0.235996
-0.23488
-0.233323
-0.231277
-0.228682
-0.225488
-0.221657
-0.217152
-0.211938
-0.205992
-0.199304
-0.191878
-0.183736
-0.174922
-0.165503
-0.155566
-0.145223
-0.134593
-0.123751
-0.112781
-0.101834
-0.0910751
-0.0806703
-0.0707578
-0.0614529
-0.0528367
-0.044974
-0.0378884
-0.0315968
-0.0260698
-0.021291
-0.0171904
-0.0137364
-0.0108338
-0.00845315
-0.00648882
-0.00492287
-0.00364891
-0.00266708
-0.00187678
-0.00130428
-0.000827147
-0.000532066
-0.000236944
-0.000120586
-0.231685
-0.230948
-0.2309
-0.230256
-0.229684
-0.228983
-0.2281
-0.2269
-0.225281
-0.223145
-0.220444
-0.21714
-0.213192
-0.208565
-0.203232
-0.197178
-0.1904
-0.182912
-0.174744
-0.16595
-0.156602
-0.146789
-0.136614
-0.126181
-0.115598
-0.104987
-0.094483
-0.0842442
-0.0744124
-0.0651104
-0.0564288
-0.0484436
-0.0411896
-0.0346956
-0.0289426
-0.023924
-0.019578
-0.0158801
-0.0127395
-0.0101317
-0.00795248
-0.00618681
-0.00472595
-0.00357365
-0.00262319
-0.00190619
-0.0012884
-0.000865804
-0.000435807
-0.000201112
-0.227828
-0.228734
-0.227659
-0.22707
-0.226773
-0.226084
-0.22491
-0.223649
-0.222062
-0.220005
-0.21742
-0.214261
-0.210483
-0.206051
-0.200937
-0.195124
-0.188607
-0.181397
-0.173523
-0.165032
-0.155992
-0.146484
-0.136609
-0.126467
-0.116155
-0.105793
-0.0955147
-0.0854703
-0.0757938
-0.0666074
-0.0579999
-0.0500509
-0.0427963
-0.0362715
-0.0304603
-0.0253638
-0.0209227
-0.0171208
-0.013868
-0.0111479
-0.00885256
-0.00697869
-0.00540835
-0.00415924
-0.00310654
-0.00230197
-0.00159057
-0.00108938
-0.00056718
-0.000257316
-0.22441
-0.225826
-0.224698
-0.224074
-0.223711
-0.223057
-0.222105
-0.220908
-0.219364
-0.21736
-0.214839
-0.211757
-0.208073
-0.203751
-0.198763
-0.193094
-0.186739
-0.179708
-0.172029
-0.163744
-0.154919
-0.145631
-0.135976
-0.126049
-0.115947
-0.105788
-0.0956981
-0.085823
-0.0762911
-0.0672224
-0.0587044
-0.0508176
-0.043599
-0.037087
-0.0312677
-0.0261465
-0.0216667
-0.0178166
-0.0145081
-0.0117288
-0.00937108
-0.0074362
-0.00580426
-0.00449792
-0.00338717
-0.00253059
-0.00176543
-0.00121707
-0.000642325
-0.000288042
-0.220633
-0.222501
-0.221491
-0.220861
-0.220563
-0.220016
-0.219123
-0.217936
-0.216408
-0.21444
-0.211972
-0.208959
-0.205362
-0.201146
-0.196284
-0.190761
-0.184572
-0.177726
-0.170248
-0.162181
-0.153583
-0.144529
-0.135108
-0.125413
-0.11554
-0.105601
-0.0957202
-0.0860341
-0.0766666
-0.0677349
-0.0593251
-0.0515178
-0.044351
-0.0378656
-0.0320505
-0.0269147
-0.0224046
-0.0185125
-0.015153
-0.0123173
-0.00989974
-0.00790413
-0.00621104
-0.00484597
-0.00367704
-0.00276636
-0.00194665
-0.0013484
-0.000720331
-0.00031868
-0.216944
-0.219113
-0.218273
-0.21765
-0.217405
-0.216941
-0.21609
-0.214924
-0.21342
-0.211493
-0.209081
-0.206141
-0.202635
-0.198528
-0.193795
-0.188421
-0.182401
-0.175742
-0.168468
-0.160619
-0.15225
-0.143431
-0.134245
-0.124784
-0.115141
-0.105424
-0.0957523
-0.0862558
-0.0770537
-0.0682601
-0.0599598
-0.0522331
-0.0451194
-0.0386616
-0.0328514
-0.0277013
-0.0231611
-0.0192265
-0.0158157
-0.0129227
-0.010444
-0.00838627
-0.00663061
-0.00520513
-0.00397648
-0.00300985
-0.00213401
-0.00148394
-0.000801101
-0.000349698
-0.213192
-0.215633
-0.214999
-0.214391
-0.214175
-0.213779
-0.212988
-0.211859
-0.210391
-0.208513
-0.206164
-0.203302
-0.19989
-0.195896
-0.191295
-0.186072
-0.180222
-0.173752
-0.166683
-0.159053
-0.150913
-0.14233
-0.133382
-0.124156
-0.114744
-0.10525
-0.0957884
-0.0864828
-0.0774476
-0.0687939
-0.0606049
-0.0529607
-0.0459018
-0.039473
-0.0336689
-0.0285052
-0.0239352
-0.0199582
-0.0164955
-0.0135444
-0.0110037
-0.0088825
-0.00706291
-0.00557544
-0.00428546
-0.00326115
-0.00232751
-0.00162382
-0.000884636
-0.000381147
-0.209362
-0.212062
-0.211644
-0.211061
-0.210864
-0.210534
-0.209813
-0.208732
-0.207306
-0.205481
-0.2032
-0.200419
-0.197105
-0.193227
-0.18876
-0.18369
-0.178012
-0.171732
-0.16487
-0.15746
-0.149551
-0.141205
-0.132496
-0.123508
-0.11433
-0.105062
-0.0958121
-0.0867
-0.0778347
-0.069324
-0.0612496
-0.0536912
-0.04669
-0.0402931
-0.0344974
-0.0293218
-0.0247233
-0.0207046
-0.0171903
-0.0141809
-0.0115777
-0.00939204
-0.00750743
-0.00595651
-0.00460381
-0.0035201
-0.00252714
-0.00176793
-0.000970933
-0.000412956
-0.205527
-0.208419
-0.208209
-0.207667
-0.207485
-0.207218
-0.20657
-0.205544
-0.204166
-0.202399
-0.200189
-0.197494
-0.194281
-0.190521
-0.18619
-0.181276
-0.175771
-0.169682
-0.163028
-0.155839
-0.148162
-0.140055
-0.131587
-0.122839
-0.113897
-0.104856
-0.0958211
-0.0869049
-0.0782122
-0.0698477
-0.0618911
-0.0544217
-0.0474815
-0.0411191
-0.0353344
-0.030149
-0.0255237
-0.0214642
-0.017899
-0.0148311
-0.0121651
-0.00991425
-0.00796371
-0.00634797
-0.00493129
-0.00378648
-0.00273278
-0.00191613
-0.00105997
-0.000445071
-0.201695
-0.204714
-0.204702
-0.204216
-0.204051
-0.203841
-0.203267
-0.202302
-0.200978
-0.199274
-0.197139
-0.194533
-0.191424
-0.187784
-0.183592
-0.178834
-0.173504
-0.167608
-0.161162
-0.154196
-0.146751
-0.138883
-0.130658
-0.122152
-0.113446
-0.104635
-0.0958157
-0.0870972
-0.0785796
-0.0703639
-0.0625281
-0.0551508
-0.0482747
-0.0419497
-0.0361785
-0.0309854
-0.0263349
-0.0222358
-0.0186204
-0.0154943
-0.0127653
-0.0104485
-0.00843123
-0.00674939
-0.00526756
-0.00406004
-0.00294425
-0.00206827
-0.00115168
-0.000477455
-0.197847
-0.200953
-0.201133
-0.200716
-0.200569
-0.200409
-0.19991
-0.199012
-0.197749
-0.196111
-0.194056
-0.191542
-0.188539
-0.185022
-0.18097
-0.17637
-0.171217
-0.165513
-0.159276
-0.152532
-0.14532
-0.137692
-0.12971
-0.121446
-0.112978
-0.104397
-0.0957954
-0.0872763
-0.0789356
-0.0708711
-0.063159
-0.0558766
-0.0490675
-0.0427828
-0.0370277
-0.0318291
-0.0271553
-0.0230178
-0.019353
-0.016169
-0.0133771
-0.0109939
-0.00890929
-0.00716022
-0.00561219
-0.00434042
-0.00316131
-0.00222415
-0.00124598
-0.000510074
-0.193984
-0.197152
-0.197511
-0.197172
-0.197046
-0.196933
-0.196507
-0.195682
-0.194485
-0.192917
-0.190944
-0.188525
-0.185632
-0.18224
-0.17833
-0.173889
-0.168912
-0.163402
-0.157374
-0.150851
-0.143872
-0.136484
-0.128744
-0.120723
-0.112494
-0.104143
-0.0957596
-0.0874409
-0.0792788
-0.0713676
-0.0637816
-0.0565969
-0.0498578
-0.0436161
-0.0378798
-0.032678
-0.0279829
-0.0238084
-0.0200955
-0.016854
-0.0139994
-0.0115494
-0.00939705
-0.00757976
-0.00596464
-0.00462718
-0.00338365
-0.00238353
-0.00134274
-0.000542895
-0.19012
-0.193322
-0.193844
-0.193591
-0.193493
-0.193423
-0.193068
-0.192318
-0.191192
-0.189699
-0.18781
-0.18549
-0.182709
-0.179444
-0.175677
-0.171396
-0.166596
-0.161279
-0.155459
-0.149158
-0.14241
-0.13526
-0.127763
-0.119984
-0.111993
-0.103873
-0.0957076
-0.08759
-0.0796077
-0.0718516
-0.0643939
-0.0573094
-0.050643
-0.0444471
-0.0387324
-0.0335298
-0.0288154
-0.0246058
-0.0208459
-0.0175477
-0.0146308
-0.0121139
-0.00989352
-0.00800719
-0.00632424
-0.00491978
-0.00361088
-0.00254611
-0.0014418
-0.000575888
-0.186261
-0.18947
-0.190144
-0.189983
-0.189917
-0.189889
-0.189603
-0.188931
-0.18788
-0.186464
-0.184664
-0.182444
-0.179777
-0.17664
-0.173017
-0.168897
-0.164273
-0.159149
-0.153535
-0.147454
-0.140936
-0.134024
-0.126768
-0.11923
-0.111477
-0.103587
-0.0956393
-0.0877229
-0.0799212
-0.0723214
-0.0649938
-0.058012
-0.0514208
-0.0452734
-0.0395829
-0.034382
-0.0296507
-0.0254075
-0.0216022
-0.0182482
-0.0152697
-0.0126861
-0.0103975
-0.00844151
-0.00669018
-0.00521758
-0.0038425
-0.00271154
-0.00154294
-0.000609022
-0.182414
-0.185608
-0.186421
-0.186358
-0.186331
-0.186343
-0.186122
-0.185529
-0.184557
-0.183223
-0.181512
-0.179394
-0.176843
-0.173835
-0.170357
-0.166397
-0.161949
-0.157016
-0.151609
-0.145746
-0.139456
-0.132779
-0.125763
-0.118464
-0.110947
-0.103285
-0.0955544
-0.0878388
-0.0802178
-0.0727753
-0.0655794
-0.0587021
-0.0521886
-0.0460923
-0.0404286
-0.0352319
-0.030486
-0.0262113
-0.0223622
-0.0189536
-0.0159143
-0.0132642
-0.0109077
-0.00888158
-0.00706151
-0.0055198
-0.00407795
-0.00287939
-0.00164589
-0.000642265
-0.178591
-0.18175
-0.182689
-0.182727
-0.182745
-0.182797
-0.18264
-0.182125
-0.181235
-0.179984
-0.178364
-0.176351
-0.173916
-0.171039
-0.167705
-0.163904
-0.159632
-0.154889
-0.149684
-0.144037
-0.137973
-0.131529
-0.124748
-0.117687
-0.110404
-0.102968
-0.0954529
-0.0879371
-0.0804965
-0.0732116
-0.0661485
-0.0593774
-0.0529437
-0.0469008
-0.0412666
-0.0360766
-0.0313185
-0.0270144
-0.0231233
-0.0196615
-0.0165625
-0.0138464
-0.0114224
-0.00932605
-0.00743711
-0.00582555
-0.0043165
-0.0030492
-0.00175034
-0.00067558
-0.174807
-0.177911
-0.178962
-0.179102
-0.179172
-0.179264
-0.179168
-0.178731
-0.177924
-0.176758
-0.175232
-0.173323
-0.171005
-0.168258
-0.165069
-0.161427
-0.157328
-0.152772
-0.147769
-0.142334
-0.136492
-0.130277
-0.12373
-0.116901
-0.109849
-0.102638
-0.0953352
-0.0880175
-0.0807564
-0.0736289
-0.0666991
-0.0600354
-0.0536833
-0.0476962
-0.0420938
-0.036913
-0.0321451
-0.0278139
-0.0238828
-0.0203693
-0.017212
-0.0144308
-0.0119398
-0.00977336
-0.00781567
-0.00613378
-0.00455735
-0.00322039
-0.00185589
-0.000708916
-0.171076
-0.174107
-0.175255
-0.175499
-0.175626
-0.17576
-0.175721
-0.175361
-0.174637
-0.173559
-0.172127
-0.170322
-0.168121
-0.165505
-0.162458
-0.158973
-0.155045
-0.150674
-0.145868
-0.140642
-0.135018
-0.129028
-0.12271
-0.116111
-0.109285
-0.102294
-0.0952018
-0.0880797
-0.0809965
-0.0740256
-0.0672292
-0.0606737
-0.0544046
-0.0484751
-0.0429069
-0.0377377
-0.0329626
-0.0286065
-0.0246376
-0.0210742
-0.0178601
-0.0150149
-0.012458
-0.0102218
-0.00819569
-0.00644329
-0.00479953
-0.00339233
-0.00196212
-0.000742209
-0.167416
-0.170355
-0.171586
-0.171934
-0.172123
-0.1723
-0.172317
-0.17203
-0.171389
-0.170399
-0.169061
-0.167361
-0.165277
-0.162789
-0.159884
-0.156554
-0.152793
-0.148603
-0.143991
-0.138968
-0.133558
-0.127787
-0.121693
-0.115319
-0.108715
-0.10194
-0.0950536
-0.088124
-0.0812162
-0.0744004
-0.0677367
-0.0612897
-0.0551047
-0.0492344
-0.0437024
-0.0385472
-0.0337672
-0.0293886
-0.0253843
-0.021773
-0.018504
-0.0155961
-0.0129744
-0.0106692
-0.00857543
-0.00675269
-0.00504193
-0.00356426
-0.0020685
-0.000775369
-0.163844
-0.166676
-0.167975
-0.168424
-0.168679
-0.168901
-0.168972
-0.168755
-0.168196
-0.167294
-0.16605
-0.164453
-0.162484
-0.160123
-0.157357
-0.154178
-0.150582
-0.146569
-0.142145
-0.137321
-0.132118
-0.126561
-0.120684
-0.114529
-0.108142
-0.101577
-0.0948919
-0.0881507
-0.081415
-0.0747521
-0.0682198
-0.061881
-0.0557805
-0.0499706
-0.0444766
-0.0393375
-0.0345551
-0.0301565
-0.0261191
-0.0224622
-0.0191402
-0.0161715
-0.0134865
-0.0111134
-0.00895293
-0.00706041
-0.00528329
-0.00373534
-0.00217445
-0.00080828
-0.16038
-0.163092
-0.164442
-0.164988
-0.165313
-0.165583
-0.165704
-0.165555
-0.165076
-0.164261
-0.16311
-0.161615
-0.159757
-0.15752
-0.154891
-0.15186
-0.148423
-0.144582
-0.14034
-0.135709
-0.130706
-0.125356
-0.11969
-0.113746
-0.107568
-0.101208
-0.0947183
-0.0881604
-0.0815928
-0.0750796
-0.0686767
-0.0624449
-0.0564288
-0.0506801
-0.0452255
-0.0401046
-0.0353221
-0.0309059
-0.0268379
-0.0231379
-0.0197652
-0.0167377
-0.0139912
-0.0115518
-0.00932595
-0.00736464
-0.00552214
-0.00390458
-0.00227933
-0.000840788
-0.157044
-0.159624
-0.161012
-0.16165
-0.162046
-0.162364
-0.162536
-0.162449
-0.162047
-0.161316
-0.160257
-0.158861
-0.157113
-0.154997
-0.152499
-0.149611
-0.146329
-0.142652
-0.138586
-0.13414
-0.12933
-0.124179
-0.118716
-0.112975
-0.106999
-0.100836
-0.0945349
-0.0881542
-0.0817495
-0.075382
-0.0691055
-0.062979
-0.0570466
-0.0513593
-0.0459452
-0.040844
-0.0360635
-0.0316323
-0.0275363
-0.0237957
-0.0203749
-0.0172909
-0.0144853
-0.0119814
-0.00969196
-0.00766334
-0.00575686
-0.00407086
-0.00238238
-0.000872704
-0.153857
-0.156297
-0.157708
-0.158432
-0.1589
-0.159268
-0.159487
-0.15946
-0.159131
-0.158482
-0.157511
-0.156211
-0.154569
-0.152569
-0.150197
-0.147447
-0.144312
-0.140794
-0.136896
-0.132627
-0.128001
-0.123039
-0.117769
-0.112223
-0.10644
-0.100464
-0.0943442
-0.0881336
-0.0818856
-0.0756586
-0.0695047
-0.0634808
-0.0576306
-0.0520043
-0.0466312
-0.041551
-0.0367745
-0.0323306
-0.0282093
-0.024431
-0.0209649
-0.0178272
-0.0149648
-0.0123989
-0.0100481
-0.0079542
-0.00598557
-0.0042329
-0.00248278
-0.000903791
-0.150843
-0.153137
-0.154558
-0.15536
-0.155899
-0.156318
-0.156582
-0.156611
-0.15635
-0.155779
-0.154893
-0.153685
-0.152144
-0.150254
-0.148003
-0.145383
-0.142389
-0.139021
-0.135282
-0.13118
-0.126728
-0.121946
-0.116858
-0.111496
-0.105895
-0.100098
-0.0941492
-0.0881002
-0.0820016
-0.075909
-0.0698727
-0.0639478
-0.0581774
-0.052611
-0.0472788
-0.0422207
-0.0374497
-0.0329955
-0.0288515
-0.0250384
-0.0215301
-0.0183417
-0.0154257
-0.0128007
-0.0103912
-0.00823461
-0.00620619
-0.00438923
-0.00257962
-0.000933769
-0.148024
-0.15017
-0.151591
-0.152462
-0.15307
-0.153539
-0.153848
-0.153928
-0.153729
-0.153231
-0.152426
-0.151306
-0.149859
-0.148073
-0.145936
-0.143438
-0.140576
-0.137349
-0.133758
-0.129812
-0.125523
-0.120909
-0.115992
-0.110802
-0.105372
-0.0997415
-0.0939536
-0.0880565
-0.0820985
-0.0761328
-0.070208
-0.0643773
-0.0586836
-0.0531751
-0.0478831
-0.0428475
-0.0380835
-0.033621
-0.0294571
-0.0256123
-0.022065
-0.0188296
-0.0158633
-0.0131826
-0.0107176
-0.00850162
-0.00641637
-0.00453821
-0.00267187
-0.000962308
-0.145428
-0.147428
-0.148837
-0.149769
-0.150443
-0.150961
-0.151311
-0.151438
-0.151297
-0.150866
-0.150135
-0.149096
-0.147739
-0.146049
-0.144016
-0.141632
-0.138892
-0.135794
-0.132341
-0.12854
-0.124401
-0.119941
-0.115182
-0.11015
-0.104877
-0.0994008
-0.0937615
-0.0880051
-0.0821775
-0.0763298
-0.0705091
-0.0647668
-0.0591453
-0.053692
-0.0484388
-0.0434256
-0.0386695
-0.0342007
-0.0300194
-0.0261463
-0.0225636
-0.0192849
-0.0162723
-0.01354
-0.0110234
-0.00875194
-0.00661349
-0.00467795
-0.00275837
-0.000989024
-0.143081
-0.14494
-0.14633
-0.147315
-0.14805
-0.148616
-0.149005
-0.149173
-0.149083
-0.148713
-0.14805
-0.147086
-0.145808
-0.144206
-0.142269
-0.139988
-0.137358
-0.134378
-0.131049
-0.127378
-0.123375
-0.119055
-0.114438
-0.109549
-0.104419
-0.0990824
-0.0935779
-0.0879491
-0.0822401
-0.0765001
-0.0707746
-0.0651135
-0.0595586
-0.0541567
-0.0489401
-0.0439484
-0.0392008
-0.0347275
-0.0305314
-0.0266333
-0.023019
-0.0197015
-0.0166469
-0.0138678
-0.011304
-0.00898183
-0.00679461
-0.00480635
-0.00283785
-0.00101348
-0.141014
-0.142742
-0.144109
-0.145138
-0.145929
-0.146539
-0.146962
-0.147167
-0.147122
-0.146805
-0.146203
-0.145304
-0.144098
-0.142574
-0.140721
-0.138531
-0.135999
-0.133122
-0.129903
-0.126347
-0.122463
-0.118266
-0.113774
-0.109012
-0.104007
-0.0987936
-0.093408
-0.0878921
-0.0822882
-0.0766437
-0.0710028
-0.0654143
-0.0599192
-0.0545636
-0.0493804