/*--------------------------------*- C++ -*----------------------------------*\
  =========                 |
  \\      /  F ield         | OpenFOAM: The Open Source CFD Toolbox
   \\    /   O peration     | Website:  https://openfoam.org
    \\  /    A nd           | Version:  7
     \\/     M anipulation  |
\*---------------------------------------------------------------------------*/
FoamFile
{
    version     2.0;
    format      ascii;
    class       surfaceScalarField;
    location    "15";
    object      phi;
}
// * * * * * * * * * * * * * * * * * * * * * * * * * * * * * * * * * * * * * //

dimensions      [0 3 -1 0 0 0 0];

internalField   nonuniform List<scalar> 
11919
(
-0.000845799
0.000145808
-4.04881e-10
-0.00100278
0.000156982
-5.70228e-10
-0.00117196
0.000169182
-7.6134e-10
-0.00135424
0.000182281
-9.74301e-10
-0.00155024
0.000195996
-1.20108e-09
-0.00176008
0.000209843
-1.42875e-09
-0.00198327
0.000223193
-1.63896e-09
-0.00221812
0.000234849
-1.80781e-09
-0.00246143
0.000243315
-1.90468e-09
-0.00271079
0.000249363
-1.89491e-09
-0.00295444
0.000243656
-1.74953e-09
-0.00320167
0.000247228
-1.45173e-09
0.000217585
-9.58894e-10
-0.00341926
-0.000815926
0.000283255
-0.000962004
0.000303059
-0.00111711
0.000324285
-0.00128139
0.000346568
-0.00145463
0.000369234
-0.00163599
0.000391199
-0.00182394
0.000411149
-0.00201584
0.00042675
-0.00220654
0.00043401
-0.00239517
0.000437994
-0.00256137
0.000409856
-0.00272537
0.000411231
0.000325727
-0.00283352
-0.000757647
0.000404492
-0.000882694
0.000428107
-0.0010108
0.000452394
-0.00114081
0.000476576
-0.001271
0.000499421
-0.00139887
0.000519068
-0.00152115
0.000533434
-0.00163397
0.000539567
-0.00172801
0.000528047
-0.00180743
0.000517418
-0.00183613
0.000438557
-0.00185054
0.000425645
0.00024942
-0.00177424
-0.000673619
0.000502587
-0.000768884
0.000523372
-0.000859107
0.000542617
-0.000941478
0.000558947
-0.00101247
0.000570413
-0.00106764
0.000574236
-0.00110156
0.000567353
-0.00110976
0.000547772
-0.00107702
0.000495301
-0.00101402
0.000454423
-0.000873372
0.000297907
-0.000689701
0.000241974
-3.34854e-05
-0.000406795
-0.00056728
-0.000625665
0.000581757
-0.000669485
0.000586436
-0.000694207
0.000583669
-0.000694469
0.000570675
-0.00066398
0.000543748
-0.000594988
0.000498361
-0.000482371
0.000435155
-0.000310542
0.000323472
-7.55217e-05
0.000219403
0.000233534
-1.11491e-05
0.000634412
-0.000158905
-0.000543947
0.00114487
-0.000458259
0.000597724
-0.00044929
0.000577468
-0.000409212
0.000543591
-0.00033095
0.000492413
-0.000206568
0.000419366
-2.83879e-05
0.000320181
0.00021748
0.000189287
0.000535602
5.35031e-06
0.000936024
-0.000181019
0.00144452
-0.000519646
0.00203745
-0.000751836
-0.0012966
0.0027901
-0.00027104
0.00056682
-0.000204231
0.000510658
-9.37903e-05
0.000433151
6.89005e-05
0.000329722
0.000293726
0.00019454
0.000589321
2.45856e-05
0.000969665
-0.000191056
0.00144048
-0.000465465
0.00201499
-0.000755534
0.00271351
-0.00121816
0.0035024
-0.00154072
-0.0022739
0.0044797
-6.66406e-05
0.000484894
6.29205e-05
0.000381097
0.000249423
0.000246648
0.000502964
7.61807e-05
0.000835427
-0.000137923
0.00125399
-0.000393982
0.00177894
-0.000716004
0.00240455
-0.00109107
0.00315731
-0.00150829
0.00403727
-0.00209812
0.00501596
-0.00251941
-0.00343315
0.00617521
0.00015476
0.000347135
0.000353171
0.000182686
0.000623241
-2.34218e-05
0.000976416
-0.000276995
0.00142611
-0.00058762
0.00197777
-0.000945639
0.00265327
-0.00139151
0.00343844
-0.00187624
0.00436288
-0.00243273
0.00539799
-0.00313323
0.00654339
-0.00366482
-0.00469539
0.00780563
0.000395842
0.0001471
0.000671459
-9.29307e-05
0.00103524
-0.000387202
0.0014995
-0.000741259
0.00207658
-0.0011647
0.00277119
-0.00164024
0.00359529
-0.00221561
0.00453277
-0.00281373
0.00560114
-0.0035011
0.00673916
-0.00427125
0.00798846
-0.00491411
-0.0059508
0.00924387
0.00066205
0.0010257
-0.000456582
0.00149516
-0.000856659
0.00208183
-0.00132793
0.0027922
-0.00187507
0.0036288
-0.00247684
0.0045836
-0.00317041
0.00563964
-0.00386976
0.00679132
-0.00465278
0.00795757
-0.0054375
0.00920367
-0.00616022
-0.00708972
0.0103426
0.00142445
-0.000920306
0.0020101
-0.0014423
0.00272407
-0.00204191
0.00356183
-0.00271282
0.00451751
-0.00343252
0.00556104
-0.00421394
0.0066718
-0.00498052
0.00781844
-0.00579943
0.00892862
-0.00654768
0.0100556
-0.00728719
-0.00804492
0.0110108
0.00187286
-0.00149401
0.00257801
-0.00214746
0.00340996
-0.00287385
0.0043492
-0.00365207
0.00537534
-0.00445866
0.00644208
-0.00528068
0.00752553
-0.00606397
0.00857892
-0.00685283
0.00956148
-0.00753024
0.0105007
-0.00822636
-0.00881827
0.011274
0.00236755
-0.00218016
0.00318152
-0.00296143
0.00410221
-0.00379454
0.00509458
-0.00464444
0.00612426
-0.00548834
0.00714031
-0.00629673
0.00812226
-0.00704592
0.0090265
-0.00775707
0.00984965
-0.00835338
0.0106027
-0.00897937
-0.00945375
0.0112381
0.00289202
0.00378568
-0.00385509
0.00474682
-0.00475569
0.00573009
-0.0056277
0.00669588
-0.00645413
0.00760294
-0.00720378
0.00844288
-0.00788587
0.00918886
-0.00850305
0.00986829
-0.00903281
0.0104831
-0.00959415
-0.0100051
0.0110344
0.00434326
-0.00478278
0.00528722
-0.00569965
0.00620268
-0.00654316
0.00705734
-0.0073088
0.00783037
-0.0079768
0.00852836
-0.00858385
0.00914355
-0.00911823
0.00971995
-0.00960921
0.0102467
-0.0101209
-0.0105082
0.0107498
0.00480745
0.00568295
-0.00657515
0.00649239
-0.0073526
0.00721993
-0.00803634
0.0078666
-0.00862348
0.00844892
-0.00916618
0.00897253
-0.00964184
0.00948233
-0.010119
0.00995288
-0.0105915
-0.0109849
0.0104296
0.00592193
-0.00735048
0.00661419
-0.00804487
0.00722506
-0.0086472
0.00777063
-0.00916905
0.00826919
-0.00966474
0.00873328
-0.0101059
0.00919754
-0.0105833
0.00962931
-0.0110233
-0.0114485
0.0100929
0.00601887
0.00660385
-0.00862985
0.00712108
-0.00916443
0.00759257
-0.00964055
0.00803309
-0.0101053
0.00845791
-0.0105307
0.00888553
-0.0110109
0.00928953
-0.0114273
-0.0119069
0.00974785
0.00650038
-0.00912705
0.00694762
-0.00961166
0.00736614
-0.0100591
0.00776614
-0.0105053
0.00816287
-0.0109275
0.00855732
-0.0114053
0.00893511
-0.011805
-0.0123675
0.00939571
0.00633351
0.00672966
-0.0100078
0.00710956
-0.010439
0.00747987
-0.0108756
0.00785338
-0.011301
0.00822237
-0.0117743
0.00859585
-0.0121785
-0.0127305
0.00895891
0.00648814
-0.0103659
0.00683821
-0.010789
0.00718462
-0.011222
0.00753582
-0.0116522
0.00788234
-0.0121209
0.00824573
-0.0125419
-0.0130831
0.00859833
0.00623084
0.00655631
-0.0111145
0.0068814
-0.0115471
0.00721121
-0.011982
0.00754151
-0.0124512
0.00788012
-0.0128805
-0.0134185
0.00821546
0.00626694
0.00657173
-0.0118519
0.00688213
-0.0122924
0.00719174
-0.0127608
0.00751301
-0.0132018
-0.0137414
0.00783589
0.00625695
0.00654689
-0.0125823
0.00683834
-0.0130522
0.00714067
-0.0135041
-0.0140407
0.00744005
0.00620728
0.00647892
-0.0133239
0.0067604
-0.0137856
-0.014322
0.00704167
0.00611459
0.00637571
-0.0140467
-0.0145812
0.00663489
0.0059848
0.00622287
0.0059848
0.0140467
0.0145812
0.00622286
0.00611459
0.0133239
0.00637571
0.0137856
0.014322
0.00663489
0.00620728
0.0125823
0.00647892
0.0130522
0.0067604
0.0135041
0.0140407
0.00704167
0.00625695
0.0118519
0.00654689
0.0122924
0.00683834
0.0127608
0.00714067
0.0132018
0.0137414
0.00744005
0.00626694
0.0111145
0.00657173
0.0115471
0.00688213
0.011982
0.00719174
0.0124512
0.00751301
0.0128805
0.0134185
0.00783589
0.00623084
0.0103659
0.00655631
0.010789
0.0068814
0.011222
0.00721121
0.0116522
0.00754151
0.0121209
0.00788012
0.0125419
0.0130831
0.00821546
0.00648814
0.0100078
0.00683821
0.010439
0.00718462
0.0108756
0.00753582
0.011301
0.00788234
0.0117743
0.00824573
0.0121785
0.0127305
0.00859833
0.00633351
0.00912705
0.00672966
0.00961166
0.00710956
0.0100591
0.00747987
0.0105053
0.00785337
0.0109275
0.00822237
0.0114053
0.00859585
0.011805
0.0123675
0.00895891
0.00650038
0.00862985
0.00694762
0.00916443
0.00736614
0.00964055
0.00776614
0.0101053
0.00816287
0.0105307
0.00855732
0.0110109
0.00893511
0.0114273
0.0119069
0.00939571
0.00601887
0.00735048
0.00660385
0.00804487
0.00712108
0.0086472
0.00759257
0.00916906
0.00803309
0.00966474
0.00845791
0.0101059
0.00888553
0.0105833
0.00928953
0.0110233
0.0114485
0.00974785
0.00592193
0.00657515
0.00661419
0.0073526
0.00722506
0.00803634
0.00777063
0.00862348
0.00826919
0.00916618
0.00873328
0.00964184
0.00919754
0.010119
0.00962931
0.0105915
0.0109849
0.0100929
0.00480745
0.00478278
0.00568295
0.00569965
0.00649239
0.00654316
0.00721992
0.0073088
0.0078666
0.0079768
0.00844892
0.00858386
0.00897253
0.00911823
0.00948232
0.00960921
0.00995288
0.0101209
0.0105082
0.0104296
0.00434326
0.00385509
0.00528722
0.00475569
0.00620268
0.00562771
0.00705734
0.00645413
0.00783037
0.00720378
0.00852836
0.00788587
0.00914355
0.00850305
0.00971994
0.00903281
0.0102467
0.00959415
0.0100051
0.0107498
0.00289202
0.00218016
0.00378568
0.00296143
0.00474682
0.00379454
0.00573009
0.00464444
0.00669588
0.00548834
0.00760294
0.00629673
0.00844288
0.00704593
0.00918886
0.00775707
0.00986828
0.00835338
0.0104831
0.00897937
0.00945375
0.0110344
0.00236755
0.00149401
0.00318152
0.00214746
0.00410221
0.00287385
0.00509458
0.00365207
0.00612426
0.00445866
0.0071403
0.00528069
0.00812226
0.00606397
0.0090265
0.00685283
0.00984965
0.00753023
0.0106027
0.00822636
0.00881827
0.0112381
0.00187286
0.000920307
0.00257801
0.00144231
0.00340996
0.00204191
0.0043492
0.00271283
0.00537534
0.00343252
0.00644208
0.00421394
0.00752553
0.00498052
0.00857892
0.00579943
0.00956148
0.00654768
0.0105007
0.00728719
0.00804492
0.011274
0.00142445
0.000456582
0.0020101
0.00085666
0.00272407
0.00132793
0.00356183
0.00187507
0.00451751
0.00247684
0.00556104
0.00317041
0.0066718
0.00386976
0.00781844
0.00465278
0.00892862
0.0054375
0.0100556
0.00616022
0.00708972
0.0110108
0.00066205
-0.0001471
0.0010257
9.29316e-05
0.00149516
0.000387203
0.00208183
0.000741261
0.0027922
0.0011647
0.0036288
0.00164024
0.0045836
0.00221561
0.00563964
0.00281373
0.00679132
0.0035011
0.00795756
0.00427125
0.00920367
0.00491411
0.0059508
0.0103426
0.000395842
-0.000347134
0.000671459
-0.000182685
0.00103524
2.3423e-05
0.0014995
0.000276996
0.00207658
0.000587621
0.00277119
0.00094564
0.00359529
0.00139151
0.00453277
0.00187625
0.00560114
0.00243273
0.00673916
0.00313324
0.00798845
0.00366482
0.00469538
0.00924387
0.00015476
-0.000484893
0.000353171
-0.000381096
0.000623241
-0.000246647
0.000976416
-7.61792e-05
0.00142611
0.000137925
0.00197777
0.000393984
0.00265327
0.000716007
0.00343844
0.00109108
0.00436288
0.00150829
0.00539799
0.00209813
0.00654339
0.00251941
0.00343315
0.00780563
-6.66408e-05
-0.000566819
6.29201e-05
-0.000510657
0.000249423
-0.000433149
0.000502964
-0.00032972
0.000835426
-0.000194538
0.00125399
-2.45834e-05
0.00177894
0.000191059
0.00240455
0.000465467
0.00315731
0.000755536
0.00403727
0.00121817
0.00501596
0.00154072
0.0022739
0.00617521
-0.000271041
-0.000597724
-0.000204231
-0.000577466
-9.37907e-05
-0.00054359
6.88999e-05
-0.000492411
0.000293726
-0.000419364
0.00058932
-0.000320178
0.000969664
-0.000189284
0.00144048
-5.34779e-06
0.00201499
0.000181021
0.00271351
0.000519648
0.0035024
0.000751837
0.0012966
0.0044797
-0.000458259
-0.000581756
-0.000449291
-0.000586435
-0.000409213
-0.000583668
-0.000330951
-0.000570673
-0.000206569
-0.000543745
-2.83889e-05
-0.000498358
0.000217479
-0.000435152
0.0005356
-0.000323469
0.000936022
-0.000219401
0.00144452
1.11511e-05
0.00203745
0.000158906
0.000543947
0.0027901
-0.00056728
-0.000502586
-0.000625666
-0.000523371
-0.000669485
-0.000542615
-0.000694208
-0.000558946
-0.000694469
-0.000570411
-0.000663981
-0.000574234
-0.000594989
-0.000567351
-0.000482372
-0.000547769
-0.000310543
-0.000495298
-7.55236e-05
-0.00045442
0.000233532
-0.000297904
0.00063441
-0.000241972
3.34861e-05
0.00114487
-0.000673619
-0.000404491
-0.000768884
-0.000428106
-0.000859107
-0.000452392
-0.000941478
-0.000476575
-0.00101247
-0.000499419
-0.00106764
-0.000519065
-0.00110156
-0.000533431
-0.00110976
-0.000539563
-0.00107702
-0.000528043
-0.00101402
-0.000517415
-0.000873374
-0.000438555
-0.000689704
-0.000425642
-0.000249419
-0.000406798
-0.000757647
-0.000283254
-0.000882695
-0.000303058
-0.0010108
-0.000324283
-0.00114081
-0.000346567
-0.001271
-0.000369232
-0.00139887
-0.000391196
-0.00152115
-0.000411145
-0.00163397
-0.000426746
-0.00172801
-0.000434006
-0.00180743
-0.000437991
-0.00183613
-0.000409853
-0.00185055
-0.000411228
-0.000325726
-0.00177424
-0.000815926
-0.000145807
-0.000962004
-0.00015698
-0.00111711
-0.00016918
-0.00128139
-0.000182279
-0.00145463
-0.000195994
-0.00163599
-0.000209841
-0.00182394
-0.000223189
-0.00201584
-0.000234845
-0.00220654
-0.000243311
-0.00239517
-0.00024936
-0.00256137
-0.000243652
-0.00272537
-0.000247226
-0.000217583
-0.00283352
-0.000845799
-0.00100278
-0.00117196
-0.00135424
-0.00155024
-0.00176008
-0.00198327
-0.00221812
-0.00246143
-0.00271079
-0.00295444
-0.00320167
-0.00341926
-0.00344499
2.57353e-05
-2.40815e-10
-0.00346271
1.77182e-05
-6.92147e-11
-0.00347107
8.35846e-06
1.2129e-10
-0.00346849
-2.57452e-06
3.33233e-10
-0.00345393
-1.45592e-05
5.70881e-10
-0.00342551
-2.84272e-05
8.30409e-10
-0.0033814
-4.41089e-05
1.10598e-09
-0.00331979
-6.16146e-05
1.39005e-09
-0.00323881
-8.09792e-05
1.67372e-09
-0.00313676
-0.000102047
1.95492e-09
-0.00301192
-0.000124846
2.21929e-09
-0.0028627
-0.000149222
2.4555e-09
-0.00268773
-0.000174975
2.65032e-09
-0.00248591
-0.000201825
2.79038e-09
-0.00225651
-0.000229402
2.86294e-09
-0.00199927
-0.000257235
2.85653e-09
-0.00171436
-0.000284913
2.76099e-09
-0.00140276
-0.000311606
2.57274e-09
-0.00106602
-0.000336745
2.28972e-09
-0.000706215
-0.000359805
1.91574e-09
-0.000325545
-0.000380671
1.45542e-09
7.20385e-05
-0.000397585
9.34047e-10
0.000482994
-0.000410955
3.63903e-10
0.000903541
-0.000420547
-2.2117e-10
0.00132944
-0.000425895
-7.99262e-10
0.00175639
-0.000426948
-1.34385e-09
0.00218025
-0.000423863
-1.8265e-09
0.0025971
-0.000416845
-2.22358e-09
0.00300347
-0.000406369
-2.51706e-09
0.00339625
-0.000392774
-2.69507e-09
0.00377308
-0.000376832
-2.75315e-09
0.00413187
-0.00035879
-2.69332e-09
0.0044716
-0.000339724
-2.52457e-09
0.00479105
-0.000319447
-2.26025e-09
0.00509034
-0.000299295
-1.92032e-09
0.00536885
-0.000278503
-1.52565e-09
0.00562769
-0.000258844
-1.10087e-09
0.00586656
-0.000238863
-6.67201e-10
0.00608732
-0.000220763
-2.49868e-10
0.00628966
-0.000202342
1.3428e-10
0.00647614
-0.000186472
4.64169e-10
0.00664592
-0.00016979
7.32425e-10
0.00680269
-0.000156771
9.2592e-10
0.00694417
-0.000141479
1.04225e-09
0.00707596
-0.000131787
1.09181e-09
0.0071931
-0.00011714
1.05448e-09
0.00730463
-0.000111536
1.00061e-09
0.00740184
-9.72091e-05
8.24611e-10
0.00749848
-9.66383e-05
7.5134e-10
-8.2195e-05
4.38706e-10
-0.0028482
4.04241e-05
-0.00285646
2.59738e-05
-0.00285537
7.26457e-06
-0.00284438
-1.35583e-05
-0.00282167
-3.72723e-05
-0.00278567
-6.44261e-05
-0.00273473
-9.50499e-05
-0.00266715
-0.000129193
-0.00258106
-0.000167072
-0.00247508
-0.000208029
-0.00234753
-0.000252396
-0.00219693
-0.000299815
-0.00202203
-0.000349879
-0.00182183
-0.000402026
-0.00159568
-0.000455549
-0.00134335
-0.000509564
-0.00106524
-0.000563024
-0.000762011
-0.000614835
-0.000435517
-0.000663239
-8.76056e-05
-0.000707717
0.000277665
-0.000745942
0.000658542
-0.000778462
0.00105146
-0.000803877
0.00145239
-0.000821473
0.00185729
-0.000830793
0.00226206
-0.000831725
0.00266279
-0.000824589
0.00305576
-0.000809817
0.00343777
-0.00078838
0.00380596
-0.000760963
0.00415823
-0.000729103
0.00449272
-0.000693275
0.00480857
-0.000655576
0.00510482
-0.000615694
0.00538168
-0.000576159
0.00563871
-0.000535531
0.00587701
-0.000497149
0.00609646
-0.000458307
0.0062988
-0.000423105
0.00648391
-0.000387453
0.00665412
-0.00035668
0.00680886
-0.000324532
0.00695145
-0.000299356
0.00707999
-0.000270024
0.0071995
-0.000251297
0.00730565
-0.000223286
0.00740657
-0.000212458
0.00749456
-0.000185197
0.00758206
-0.000184142
-0.000156858
-0.00176897
3.51586e-05
-0.00175962
1.6623e-05
-0.00174299
-9.36526e-06
-0.00171751
-3.90382e-05
-0.0016814
-7.33825e-05
-0.00163332
-0.000112508
-0.00157177
-0.000156603
-0.0014953
-0.000205663
-0.00140197
-0.000260397
-0.00129085
-0.000319152
-0.00116036
-0.000382882
-0.00100921
-0.000450972
-0.000836276
-0.00052281
-0.000640743
-0.00059756
-0.000422115
-0.000674177
-0.000180183
-0.000751496
8.3986e-05
-0.000827193
0.000368657
-0.000899507
0.000673568
-0.00096815
0.000996576
-0.00103072
0.00133546
-0.00108483
0.00168691
-0.00112991
0.00204747
-0.00116443
0.00241346
-0.00118747
0.00278118
-0.00119851
0.00314689
-0.00119744
0.00350708
-0.00118478
0.00385847
-0.00116121
0.00419829
-0.00112819
0.00452407
-0.00108675
0.00483413
-0.00103916
0.00512694
-0.00098609
0.00540194
-0.000930574
0.00565847
-0.000872221
0.00589695
-0.00081464
0.00611719
-0.000755768
0.00632028
-0.00070024
0.00650635
-0.000644381
0.00667699
-0.000593743
0.00683236
-0.000542823
0.00697442
-0.000498745
0.00710304
-0.000453148
0.00722091
-0.000417226
0.00732685
-0.000375965
0.00742483
-0.000349273
0.00751161
-0.000310068
0.00759377
-0.00029462
0.00766537
-0.000256794
0.00773661
-0.000255383
-0.00021804
-0.000376463
4.82665e-06
-0.000345516
-1.43243e-05
-0.000310411
-4.44701e-05
-0.000267747
-8.1703e-05
-0.000216486
-0.000124644
-0.00015532
-0.000173673
-8.27948e-05
-0.000229128
2.68502e-06
-0.000291142
0.000100701
-0.000358413
0.000214159
-0.00043261
0.000343986
-0.00051271
0.000491274
-0.000598259
0.00065691
-0.000688446
0.000841518
-0.000782168
0.00104538
-0.000878041
0.00126841
-0.00097452
0.00151024
-0.00106902
0.00177029
-0.00115956
0.00204658
-0.00124445
0.0023371
-0.00132124
0.00263977
-0.0013875
0.00295155
-0.00144169
0.00326937
-0.00148225
0.00358997
-0.00150806
0.00391003
-0.00151858
0.00422633
-0.00151373
0.00453584
-0.00149429
0.0048358
-0.00146117
0.00512393
-0.00141632
0.00539826
-0.00136108
0.00565749
-0.00129839
0.00590051
-0.00122911
0.00612699
-0.00115705
0.00633655
-0.00108179
0.00652977
-0.00100786
0.00670675
-0.000932739
0.00686846
-0.000861956
0.00701533
-0.000791248
0.00714867
-0.000727085
0.00726899
-0.000663141
0.00737778
-0.000607534
0.00747539
-0.000550758
0.00756379
-0.000505628
0.00764266
-0.000454835
0.00771472
-0.000421332
0.00777805
-0.000373399
0.00783736
-0.000353933
0.00788881
-0.000308243
0.00794001
-0.000306579
-0.000262462
0.0011848
-3.51015e-05
0.00123096
-6.04788e-05
0.00128188
-9.53929e-05
0.00133819
-0.000138015
0.001401
-0.00018745
0.00147139
-0.000244068
0.0015505
-0.000308237
0.00163932
-0.00037996
0.00173957
-0.000458667
0.00185181
-0.000544846
0.00197706
-0.000637965
0.00211619
-0.000737385
0.00226988
-0.000842138
0.0024386
-0.000950888
0.00262251
-0.00106194
0.00282136
-0.00117337
0.0030349
-0.00128256
0.0032623
-0.00138696
0.00350195
-0.0014841
0.00375199
-0.00157128
0.0040104
-0.00164591
0.00427466
-0.00170595
0.00454215
-0.00174974
0.0048101
-0.00177602
0.00507581
-0.00178429
0.00533663
-0.00177455
0.00559013
-0.0017478
0.00583416
-0.00170519
0.00606696
-0.00164912
0.00628704
-0.00158116
0.00649348
-0.00150483
0.00668551
-0.00142114
0.00686297
-0.00133451
0.00702568
-0.0012445
0.00717417
-0.00115634
0.00730875
-0.00106733
0.00743021
-0.000983417
0.00753914
-0.000900173
0.0076365
-0.00082445
0.00772308
-0.000749715
0.00779981
-0.000684267
0.0078675
-0.000618451
0.00792736
-0.000565482
0.0079799
-0.00050738
0.00802664
-0.000468074
0.00806689
-0.00041365
0.00810358
-0.000390622
0.00813482
-0.000339481
0.00816585
-0.000337609
-0.00028981
0.00283105
-7.60479e-05
0.00288168
-0.000111112
0.00293856
-0.000152274
0.00300039
-0.000199845
0.00306762
-0.000254676
0.003141
-0.000317443
0.00322114
-0.000388387
0.00330866
-0.000467478
0.00340456
-0.000554559
0.00350938
-0.000649671
0.00362384
-0.000752427
0.00374854
-0.000862083
0.00388393
-0.000977527
0.00403029
-0.00109725
0.00418767
-0.00121932
0.00435583
-0.00134154
0.00453434
-0.00146108
0.00472236
-0.00157498
0.00491858
-0.00168031
0.0051214
-0.0017741
0.00532907
-0.00185358
0.00553962
-0.0019165
0.005751
-0.00196112
0.00596116
-0.00198617
0.00616808
-0.00199121
0.00636984
-0.00197631
0.00656474
-0.0019427
0.00675125
-0.0018917
0.00692818
-0.00182606
0.00709453
-0.00174751
0.00724968
-0.00165998
0.00739315
-0.0015646
0.00752482
-0.00146618
0.00764462
-0.00136431
0.00775288
-0.0012646
0.00784998
-0.00116443
0.0079364
-0.00106984
0.00801275
-0.000976518
0.00807957
-0.000891269
0.00813777
-0.000807913
0.00818771
-0.000734213
0.00823051
-0.000661248
0.00826661
-0.000601583
0.00829724
-0.00053801
0.00832288
-0.000493715
0.00834376
-0.000434531
0.00836139
-0.00040825
0.00837531
-0.000353402
0.00838903
-0.000351326
-0.000302266
0.00451558
-0.000111932
0.00455996
-0.000155486
0.00461072
-0.000203034
0.00466655
-0.000255677
0.00472745
-0.000315575
0.00479381
-0.000383804
0.00486581
-0.000460391
0.00494354
-0.000545202
0.00502724
-0.000638267
0.00511718
-0.00073961
0.00521361
-0.000848853
0.0053167
-0.00096518
0.00542659
-0.00108742
0.00554336
-0.00121402
0.00566706
-0.00134302
0.00579748
-0.00147195
0.00593416
-0.00159776
0.00607639
-0.00171722
0.00622313
-0.00182705
0.0063731
-0.00192406
0.00652494
-0.00200542
0.00667728
-0.00206884
0.00682879
-0.00211264
0.0069782
-0.00213558
0.00712429
-0.0021373
0.00726593
-0.00211795
0.00740216
-0.00207892
0.00753209
-0.00202163
0.00765506
-0.00194903
0.0077705
-0.00186295
0.00787802
-0.00176751
0.00797731
-0.00166389
0.00806825
-0.00155712
0.00815075
-0.0014468
0.00822484
-0.0013387
0.00829081
-0.00123039
0.0083488
-0.00112783
0.00839931
-0.00102702
0.0084424
-0.000934365
0.00847899
-0.000844503
0.00850889
-0.000764107
0.0085333
-0.000685663
0.00855203
-0.000620316
0.00856674
-0.00055272
0.00857717
-0.000504142
0.00858404
-0.000441398
0.00858792
-0.000412127
0.00858908
-0.00035457
0.00859007
-0.000352311
-0.000303566
0.00619677
-0.000133489
0.00622549
-0.00018421
0.00625971
-0.000237253
0.00629836
-0.000294328
0.00634159
-0.000358803
0.00638968
-0.000431886
0.00644246
-0.000513177
0.00649962
-0.000602363
0.00656098
-0.000699624
0.00662644
-0.000805067
0.00669587
-0.000918283
0.00676909
-0.0010384
0.00684587
-0.0011642
0.00692595
-0.0012941
0.00700902
-0.00142609
0.00709477
-0.0015577
0.00718308
-0.00168607
0.00727371
-0.00180784
0.007366
-0.00191935
0.00745912
-0.00201718
0.00755218
-0.00209848
0.00764442
-0.00216108
0.00773523
-0.00220345
0.00782414
-0.00222448
0.00791071
-0.00222387
0.00799455
-0.00220179
0.00807534
-0.0021597
0.00815274
-0.00209904
0.00822651
-0.0020228
0.00829635
-0.00193279
0.00836202
-0.00183317
0.00842325
-0.00172512
0.0084798
-0.00161367
0.00853149
-0.00149849
0.00857806
-0.00138526
0.00861956
-0.0012719
0.00865578
-0.00116406
0.00868707
-0.00105831
0.00871304
-0.000960338
0.00873451
-0.000865967
0.0087508
-0.000780402
0.0087631
-0.000697964
0.00877069
-0.000627903
0.00877538
-0.000557413
0.0087765
-0.000505257
0.00877483
-0.000439734
0.00877051
-0.000407802
0.00876388
-0.000347938
0.00875716
-0.000345589
-0.000297977
0.00780418
-0.000132044
0.00780917
-0.0001892
0.00781851
-0.000246586
0.00783123
-0.000307048
0.00784782
-0.000375396
0.00786848
-0.000452545
0.00789275
-0.000537446
0.00792004
-0.000629653
0.00794994
-0.000729531
0.00798213
-0.000837254
0.0080162
-0.000952352
0.00805171
-0.00107391
0.00808823
-0.00120072
0.00812536
-0.00133123
0.0081627
-0.00146343
0.00819986
-0.00159487
0.00823657
-0.00172278
0.00827277
-0.00184405
0.00830877
-0.00195535
0.00834449
-0.00205289
0.0083796
-0.0021336
0.0084139
-0.00219537
0.0084474
-0.00223696
0.0084803
-0.00225738
0.00851281
-0.00225639
0.00854513
-0.00223411
0.00857737
-0.00219195
0.00860959
-0.00213126
0.00864174
-0.00205496
0.00867369
-0.00196473
0.00870515
-0.00186463
0.00873583
-0.0017558
0.00876528
-0.00164313
0.00879319
-0.0015264
0.00881898
-0.00141105
0.00884249
-0.00129541
0.00886314
-0.0011847
0.00888112
-0.0010763
0.00889572
-0.000974936
0.00890756
-0.000877807
0.00891566
-0.000788499
0.00892105
-0.000703352
0.00892267
-0.000629525
0.00892227
-0.000557016
0.00891904
-0.000502022
0.00891353
-0.000434222
0.00890581
-0.000400082
0.00889582
-0.000337955
0.00888594
-0.000335704
-0.000289512
0.00921723
-0.000105403
0.00919602
-0.000167994
0.0091777
-0.000228266
0.00916151
-0.000290853
0.00914821
-0.000362101
0.00913784
-0.000442169
0.00912967
-0.000529281
0.00912303
-0.000623013
0.00911747
-0.000723966
0.00911254
-0.000832328
0.00910773
-0.00094754
0.0091025
-0.00106868
0.00909637
-0.0011946
0.00908895
-0.0013238
0.00907989
-0.00145437
0.00906898
-0.00158396
0.00905611
-0.00170991
0.00904138
-0.00182931
0.00902513
-0.0019391
0.00900836
-0.00203612
0.0089916
-0.00211684
0.00897518
-0.00217895
0.00895956
-0.00222134
0.00894538
-0.00224321
0.00893331
-0.00224431
0.00892387
-0.00222467
0.00891746
-0.00218553
0.00891427
-0.00212807
0.00891433
-0.00205502
0.00891748
-0.00196788
0.00892337
-0.00187051
0.00893155
-0.00176399
0.0089414
-0.00165298
0.00895242
-0.00153741
0.0089638
-0.00142243
0.00897518
-0.00130679
0.0089857
-0.00119523
0.00899535
-0.00108595
0.00900325
-0.000982839
0.00900983
-0.000884387
0.00901392
-0.000792585
0.00901635
-0.000705783
0.00901592
-0.000629096
0.00901414
-0.000555242
0.00901029
-0.000498165
0.00900448
-0.000428419
0.00899704
-0.000392634
0.00898723
-0.000328146
0.00897779
-0.000326269
-0.000281483
0.0102982
-6.09958e-05
0.0102564
-0.000126241
0.0102156
-0.000187424
0.0101754
-0.00025065
0.0101367
-0.00032344
0.0100994
-0.000404841
0.0100626
-0.000492465
0.0100257
-0.000586099
0.00998828
-0.000686576
0.00994998
-0.000794031
0.00991026
-0.000907821
0.00986865
-0.00102706
0.00982477
-0.00115072
0.00977836
-0.00127739
0.00972925
-0.00140526
0.00967745
-0.00153216
0.00962314
-0.0016556
0.00956673
-0.0017729
0.00950881
-0.00188118
0.00945038
-0.00197769
0.00939293
-0.00205939
0.00933743
-0.00212345
0.00928467
-0.00216857
0.00923551
-0.00219405
0.00919083
-0.00219963
0.00915132
-0.00218515
0.00911744
-0.00215165
0.00908944
-0.00210007
0.00906728
-0.00203287
0.00905076
-0.00195136
0.00903938
-0.00185914
0.00903261
-0.00175722
0.00902965
-0.00165002
0.00902986
-0.00153762
0.00903228
-0.00142485
0.0090364
-0.00131091
0.00904121
-0.00120003
0.00904651
-0.00109124
0.0090513
-0.000987636
0.00905591
-0.000888989
0.00905906
-0.000795739
0.00906139
-0.00070811
0.00906168
-0.000629393
0.00906115
-0.00055471
0.00905926
-0.000496277
0.00905567
-0.000424829
0.00905105
-0.000388008
0.00904397
-0.00032107
0.00903761
-0.000319904
-0.000276384
0.0109621
-1.23334e-05
0.0109115
-7.56577e-05
0.0108593
-0.000135168
0.010806
-0.000197326
0.0107525
-0.000269947
0.0106984
-0.000350783
0.010643
-0.000437084
0.0105859
-0.000528991
0.0105268
-0.0006275
0.0104654
-0.000732624
0.0104013
-0.000843667
0.0103341
-0.000959846
0.0102636
-0.00108024
0.0101898
-0.00120356
0.0101126
-0.00132814
0.0100325
-0.00145199
0.00994969
-0.00157283
0.00986497
-0.00168818
0.00977923
-0.00179544
0.00969345
-0.00189191
0.00960932
-0.00197527
0.00952838
-0.0020425
0.00945173
-0.00209193
0.00938037
-0.00212269
0.00931521
-0.00213447
0.00925699
-0.00212694
0.00920619
-0.00210085
0.00916301
-0.00205689
0.00912739
-0.00199724
0.00909904
-0.00192301
0.00907741
-0.00183751
0.00906189
-0.0017417
0.00905161
-0.00163974
0.00904585
-0.00153186
0.00904357
-0.00142258
0.00904419
-0.00131153
0.00904662
-0.00120246
0.00905054
-0.00109517
0.00905491
-0.000992003
0.00905988
-0.000893966
0.00906429
-0.00080014
0.0090685
-0.00071232
0.00907142
-0.000632319
0.00907392
-0.000557209
0.00907572
-0.000498079
0.00907602
-0.000425131
0.00907588
-0.000387868
0.00907329
-0.000318479
0.00907178
-0.000318387
-0.000275968
0.0112258
3.58308e-05
0.0111785
-2.82771e-05
0.0111262
-8.28895e-05
0.0110713
-0.000142487
0.0110146
-0.000213244
0.0109555
-0.000291651
0.0108934
-0.000374948
0.0108281
-0.000463708
0.0107596
-0.000558959
0.0106875
-0.00066054
0.0106116
-0.000767757
0.0105317
-0.00087996
0.0104478
-0.000996346
0.01036
-0.00111574
0.0102685
-0.00123664
0.0101737
-0.00135723
0.0100764
-0.00147547
0.0099772
-0.00158902
0.00987734
-0.00169558
0.00977794
-0.00179252
0.00968042
-0.00187774
0.0095866
-0.00194868
0.00949788
-0.0020032
0.00941534
-0.00204015
0.0093399
-0.00205903
0.00927229
-0.00205933
0.009213
-0.00204155
0.00916221
-0.00200611
0.00911985
-0.00195488
0.00908564
-0.0018888
0.00905902
-0.00181088
0.00903936
-0.00172205
0.00902582
-0.00162619
0.00901763
-0.00152368
0.00901379
-0.00141873
0.00901363
-0.00131137
0.0090161
-0.00120493
0.00902078
-0.00109985
0.00902665
-0.000997874
0.00903371
-0.000901024
0.00904087
-0.000807303
0.00904834
-0.000719793
0.00905518
-0.000639163
0.00906193
-0.00056395
0.00906854
-0.00050469
0.00907384
-0.000430437
0.00907924
-0.000393264
0.00908229
-0.000321531
0.00908679
-0.00032288
-0.000281413
0.0111979
7.60876e-05
0.0111575
1.20983e-05
0.0111119
-3.72417e-05
0.0110626
-9.32339e-05
0.0110102
-0.000160858
0.010954
-0.000235471
0.0108937
-0.000314598
0.0108292
-0.000399263
0.0107607
-0.000490391
0.0106878
-0.000587618
0.0106103
-0.000690312
0.0105283
-0.000797968
0.0104419
-0.000909881
0.0103511
-0.00102499
0.0102564
-0.00114195
0.0101583
-0.00125912
0.0100575
-0.00137468
0.00995495
-0.00148647
0.0098517
-0.00159233
0.00974907
-0.00168988
0.00964827
-0.00177694
0.00955107
-0.00185149
0.00945901
-0.00191114
0.00937329
-0.00195443
0.00929486
-0.0019806
0.00922445
-0.00198892
0.00916255
-0.00197965
0.0091094
-0.00195297
0.00906497
-0.00191045
0.00902902
-0.00185284
0.00900104
-0.00178291
0.00898048
-0.00170149
0.00896651
-0.00161222
0.00895842
-0.00151559
0.00895523
-0.00141554
0.00895627
-0.00131241
0.00896053
-0.00120919
0.00896751
-0.00110683
0.00897626
-0.00100663
0.00898665
-0.000911407
0.00899768
-0.000818337
0.00900939
-0.000731496
0.00902103
-0.000650809
0.00903285
-0.000575771
0.00904502
-0.000516852
0.00905608
-0.000441498
0.00906767
-0.000404861
0.00907713
-0.00033099
0.00908839
-0.000334133
-0.000293497
0.0110026
0.000107854
0.0109666
4.81076e-05
0.0109291
2.5696e-07
0.0108872
-5.13078e-05
0.0108417
-0.000115372
0.0107918
-0.000185557
0.0107372
-0.000260023
0.0106782
-0.000340234
0.0106147
-0.000426859
0.0105464
-0.000519368
0.0104734
-0.000617265
0.0103956
-0.000720167
0.0103131