/*--------------------------------*- C++ -*----------------------------------*\
  =========                 |
  \\      /  F ield         | OpenFOAM: The Open Source CFD Toolbox
   \\    /   O peration     | Website:  https://openfoam.org
    \\  /    A nd           | Version:  7
     \\/     M anipulation  |
\*---------------------------------------------------------------------------*/
FoamFile
{
    version     2.0;
    format      ascii;
    class       volVectorField;
    location    "15";
    object      U;
}
// * * * * * * * * * * * * * * * * * * * * * * * * * * * * * * * * * * * * * //

dimensions      [0 1 -1 0 0 0 0];

internalField   nonuniform List<vector> 
6050
(
(-0.181541 0.00468768 1.8488e-20)
(-0.200233 0.00465327 -2.52866e-20)
(-0.218023 0.00466156 1.47567e-20)
(-0.235129 0.00469834 7.70642e-21)
(-0.25168 0.00474466 2.80101e-21)
(-0.267714 0.00477606 -9.13036e-21)
(-0.283185 0.00476556 -5.2265e-21)
(-0.297906 0.00466957 -3.45083e-21)
(-0.311572 0.00444217 1.44083e-20)
(-0.32395 0.00412558 -1.70541e-20)
(-0.334151 0.0034335 -3.66943e-21)
(-0.34263 0.00309206 4.25914e-21)
(-0.346593 0.00180397 -1.20106e-20)
(-0.176592 0.0139068 -8.05984e-20)
(-0.193696 0.0137742 4.91457e-20)
(-0.209586 0.0137636 -3.8366e-20)
(-0.224432 0.0138323 4.57852e-21)
(-0.238311 0.0139245 -2.23259e-20)
(-0.251209 0.0139677 8.13386e-21)
(-0.263037 0.0138843 1.63969e-20)
(-0.273576 0.0135504 2.74976e-20)
(-0.282415 0.0127992 1.66388e-20)
(-0.289573 0.0118768 4.66032e-20)
(-0.293378 0.00958594 4.45806e-21)
(-0.295892 0.00875676 -3.85586e-20)
(-0.290871 0.00443135 2.88014e-20)
(-0.166871 0.0226679 6.81471e-21)
(-0.180889 0.0223534 -1.89767e-20)
(-0.193113 0.0222228 3.77942e-20)
(-0.203627 0.022206 -1.17516e-20)
(-0.212428 0.0222124 1.34667e-20)
(-0.219411 0.0221248 -1.36327e-20)
(-0.22443 0.0218238 -2.61505e-20)
(-0.227253 0.0211378 -3.03631e-20)
(-0.227152 0.0196596 -3.72519e-20)
(-0.225113 0.0182692 -7.58434e-20)
(-0.217029 0.0137839 2.84647e-20)
(-0.209862 0.0129845 2.41021e-20)
(-0.188422 0.00478895 7.54441e-20)
(-0.152693 0.0306938 -5.84806e-21)
(-0.162291 0.030071 -1.80944e-21)
(-0.169312 0.0296697 -1.09214e-19)
(-0.173749 0.0293935 -5.18104e-20)
(-0.175508 0.0291208 2.42337e-20)
(-0.174395 0.0286958 3.00511e-21)
(-0.170192 0.0279662 2.39372e-20)
(-0.162832 0.0267972 -7.22512e-20)
(-0.150681 0.0243013 2.83073e-20)
(-0.137417 0.0226289 4.16244e-20)
(-0.113144 0.0154579 4.87429e-20)
(-0.0953871 0.0146449 -2.60323e-20)
(-0.0521941 0.00314706 -6.1001e-20)
(-0.134461 0.0377455 -4.49385e-21)
(-0.138492 0.0366629 -1.67235e-21)
(-0.139042 0.035813 2.22974e-20)
(-0.136018 0.035076 3.27199e-20)
(-0.12926 0.0343039 -8.84513e-20)
(-0.118507 0.0333115 1.07437e-19)
(-0.103426 0.0319218 5.50353e-20)
(-0.0845187 0.030098 8.57132e-20)
(-0.0581475 0.0264627 -2.20478e-21)
(-0.033269 0.0239777 -2.06231e-20)
(0.0100003 0.0155702 1.94566e-21)
(0.0374603 0.0123878 -3.17771e-20)
(0.105612 0.000303277 -5.68396e-20)
(-0.110063 0.0419323 8.29726e-21)
(-0.103101 0.0404564 2.29353e-20)
(-0.0915312 0.0390645 1.82075e-19)
(-0.0751583 0.0375868 -1.06355e-21)
(-0.0537009 0.0358239 6.43352e-20)
(-0.0266227 0.0336363 -1.57617e-19)
(0.0045448 0.0307326 2.03717e-20)
(0.0464181 0.0263749 -3.25615e-20)
(0.0827162 0.0220604 -2.6215e-20)
(0.147687 0.0138888 2.47246e-20)
(0.180749 0.00688505 -5.51066e-20)
(0.279007 -0.00428204 5.60815e-20)
(-0.077413 0.0457564 -1.20013e-19)
(-0.0620118 0.0435067 1.41026e-20)
(-0.040944 0.0413103 -3.73961e-20)
(-0.0139971 0.0389819 5.87233e-20)
(0.0190962 0.0363031 -1.83672e-21)
(0.059057 0.0333046 -5.47112e-20)
(0.103067 0.028923 1.43514e-19)
(0.161913 0.0245192 -5.57314e-20)
(0.208006 0.017536 -4.76021e-20)
(0.29832 0.0103803 7.41414e-20)
(0.332868 4.31972e-05 2.80697e-20)
(0.463721 -0.0104998 1.22015e-19)
(-0.0406414 0.0480903 3.64735e-19)
(-0.0158193 0.04498 4.72284e-21)
(0.0157992 0.0419138 -2.33445e-19)
(0.0544289 0.0387016 -2.43398e-20)
(0.100298 0.0350599 -2.27512e-19)
(0.154312 0.0314489 1.07921e-19)
(0.212053 0.0254035 -8.02716e-20)
(0.288855 0.0217606 8.40243e-20)
(0.345175 0.0115367 1.18174e-19)
(0.459974 0.00660424 4.6367e-20)
(0.496325 -0.00654583 -1.30204e-19)
(0.65539 -0.0163025 -1.138e-19)
(0.00059798 0.0489738 -2.99162e-19)
(0.0360802 0.045012 -8.56765e-20)
(0.0796385 0.0411372 5.38017e-20)
(0.131464 0.0371747 9.89501e-20)
(0.191702 0.032709 -2.99451e-20)
(0.261074 0.0289152 1.16117e-19)
(0.334463 0.0214081 6.7277e-21)
(0.427829 0.0190244 -1.26385e-19)
(0.498125 0.00648872 9.21982e-21)
(0.629123 0.00366986 -1.79861e-19)
(0.672111 -0.0109868 3.35164e-20)
(0.845369 -0.0189956 -7.13643e-20)
(0.0472051 0.0485473 1.38845e-19)
(0.0950242 0.0438807 -1.14222e-19)
(0.152395 0.0394299 1.77754e-19)
(0.21938 0.0350612 1.74548e-19)
(0.295903 0.03021 2.25218e-19)
(0.381579 0.0266387 -2.15343e-19)
(0.472524 0.0188181 1.9649e-20)
(0.578338 0.0171958 1.86314e-19)
(0.665987 0.00474669 -6.59859e-20)
(0.799087 0.00316555 1.03545e-21)
(0.853529 -0.0116723 -7.21455e-21)
(1.01867 -0.017094 9.06656e-20)
(0.100683 0.0470826 -1.52131e-19)
(0.163027 0.0420442 -2.42522e-20)
(0.236484 0.0374702 -7.71842e-20)
(0.320712 0.0332628 -5.13332e-20)
(0.414928 0.0288106 -1.21374e-19)
(0.516836 0.0257869 -6.06378e-20)
(0.624337 0.0192299 2.29568e-20)
(0.737136 0.0177598 -1.19582e-19)
(0.838805 0.00733362 1.30728e-20)
(0.959966 0.00617186 7.48159e-21)
(1.02383 -0.00794304 -8.97696e-20)
(1.15834 -0.0112606 6.05314e-20)
(0.242485 0.040184 -7.93693e-20)
(0.334239 0.0361857 2.48085e-19)
(0.437047 0.0329014 -2.79907e-19)
(0.548475 0.0297719 -2.5218e-19)
(0.664399 0.0277482 3.50414e-19)
(0.782404 0.0233373 -7.63696e-20)
(0.895815 0.0220026 3.74533e-20)
(0.999753 0.0138792 5.33919e-20)
(1.09963 0.0124597 -4.83166e-20)
(1.16233 -0.000821463 1.31662e-19)
(1.25361 -0.0036086 1.64446e-19)
(0.335544 0.0392178 1.25574e-19)
(0.446813 0.0366908 -1.41555e-19)
(0.567447 0.035159 -6.02177e-20)
(0.692471 0.0340573 1.96833e-19)
(0.816555 0.0334263 -2.56643e-19)
(0.934995 0.0310163 -1.42569e-20)
(1.04071 0.0297484 1.05744e-19)
(1.13251 0.0229267 -4.24454e-20)
(1.20674 0.0205726 -5.52127e-20)
(1.25607 0.0074271 6.95091e-21)
(1.30596 0.00395251 -7.41866e-20)
(0.443116 0.0402283 -2.62459e-19)
(0.57285 0.0400823 1.54783e-19)
(0.707152 0.0409019 8.87937e-20)
(0.838575 0.0420086 -1.15157e-19)
(0.961238 0.0425547 1.81541e-19)
(1.06905 0.0412911 1.40621e-19)
(1.15803 0.0393326 -3.61867e-20)
(1.22789 0.0325616 1.46099e-21)
(1.27629 0.0285754 -5.30713e-21)
(1.30695 0.0148875 -1.78892e-19)
(1.32691 0.0103521 -2.48617e-19)
(0.563731 0.0442528 1.06439e-19)
(0.707465 0.0470715 -8.89492e-20)
(0.847555 0.0502526 6.29917e-20)
(0.975458 0.0529988 5.39755e-20)
(1.08594 0.0537693 -4.14564e-20)
(1.17427 0.0524246 9.77476e-20)
(1.24067 0.0487028 -1.08789e-19)
(1.28628 0.0412311 1.29754e-19)
(1.31295 0.0351367 2.5463e-19)
(1.32763 0.0209643 1.26911e-19)
(1.33061 0.0156826 2.00274e-19)
(0.842386 0.0575942 1.18408e-20)
(0.977985 0.0623752 3.48688e-20)
(1.0922 0.0654936 -5.943e-20)
(1.18226 0.0652435 -1.50659e-19)
(1.24703 0.0626551 -3.30878e-21)
(1.29064 0.0565494 1.8284e-19)
(1.31574 0.0483 -1.54009e-19)
(1.3275 0.0400577 -3.51926e-19)
(1.3319 0.0260526 -2.61848e-19)
(1.32672 0.0203386 9.81949e-20)
(0.967765 0.0706785 -2.57612e-19)
(1.08891 0.075693 1.95463e-19)
(1.18215 0.0777043 2.56403e-20)
(1.24855 0.0754904 6.68248e-20)
(1.29097 0.0710151 -1.47091e-19)
(1.31596 0.0626548 -4.24342e-20)
(1.3268 0.0539807 -3.95942e-20)
(1.33002 0.0437745 4.28677e-20)
(1.32849 0.0307871 1.53476e-19)
(1.31996 0.0244776 -3.24264e-19)
(1.17498 0.0885296 -9.1897e-20)
(1.24469 0.0883565 2.53381e-20)
(1.28907 0.0838701 -1.4376e-19)
(1.31372 0.07747 -1.20705e-20)
(1.32568 0.0675052 2.93441e-20)
(1.32787 0.0587161 -2.11996e-20)
(1.32668 0.0468129 2.94092e-19)
(1.32159 0.0356461 5.31778e-21)
(1.31243 0.0279912 3.04239e-19)
(1.23604 0.0997584 -3.47075e-20)
(1.28395 0.0970211 -1.22011e-19)
(1.31074 0.0904921 -2.20087e-19)
(1.32289 0.082498 -6.14503e-21)
(1.3266 0.0716806 -1.00625e-19)
(1.32399 0.0627786 8.69956e-20)
(1.32051 0.0496758 -4.44478e-20)
(1.31311 0.0408615 -3.38369e-19)
(1.30506 0.0305999 -1.31757e-19)
(1.30595 0.103905 1.82261e-19)
(1.32006 0.0957913 2.77672e-19)
(1.32412 0.0866481 -4.66513e-20)
(1.32294 0.0755306 6.74109e-20)
(1.31784 0.0663217 -2.46541e-20)
(1.31306 0.0528953 1.52232e-19)
(1.30411 0.0462244 7.52624e-20)
(1.29812 0.0318806 8.63601e-20)
(1.31629 0.109458 1.79443e-20)
(1.32189 0.100218 7.64831e-20)
(1.32102 0.0903353 -1.43428e-20)
(1.31705 0.0791791 1.35634e-19)
(1.31074 0.0695851 1.46801e-20)
(1.3051 0.0567886 -3.53011e-19)
(1.29555 0.0507033 1.57592e-19)
(1.29107 0.0311418 -1.44969e-19)
(1.31942 0.104133 -2.9675e-20)
(1.31565 0.0938074 -3.19052e-20)
(1.31015 0.0826824 -2.3362e-20)
(1.30328 0.072888 1.36864e-19)
(1.29701 0.0609405 1.03969e-19)
(1.28779 0.0530378 3.24231e-20)
(1.28305 0.0400254 9.06614e-20)
(1.3146 0.107769 -3.11786e-20)
(1.30918 0.0971723 -1.21897e-20)
(1.30284 0.0861247 1.11314e-19)
(1.29571 0.0763177 -5.85974e-20)
(1.2891 0.0643938 -6.79368e-20)
(1.28009 0.0577502 -1.55596e-19)
(1.27508 0.0432267 -1.03623e-19)
(1.3022 0.100501 6.25059e-21)
(1.29539 0.0895763 -1.43806e-19)
(1.28815 0.0795542 3.53351e-20)
(1.2813 0.0684288 -6.92446e-20)
(1.27259 0.06073 -2.62753e-19)
(1.26773 0.0478656 1.37196e-19)
(1.28792 0.0929494 7.74944e-20)
(1.28063 0.0829476 -1.87228e-20)
(1.27363 0.0718718 2.31072e-19)
(1.26532 0.064408 2.21594e-19)
(1.26019 0.0517915 9.13643e-20)
(1.27315 0.0861584 -4.47698e-21)
(1.26609 0.0755005 -1.57464e-19)
(1.25808 0.0675449 -6.02022e-20)
(1.2529 0.0554089 -8.73219e-20)
(1.25863 0.0788357 -1.09394e-20)
(1.25096 0.0706883 1.44224e-19)
(1.24558 0.0589479 1.56309e-19)
(1.24384 0.0736512 -8.51034e-20)
(1.23833 0.0621684 -3.24256e-20)
(1.24384 -0.0736512 -3.01224e-20)
(1.23833 -0.0621683 -2.18764e-19)
(1.25863 -0.0788357 7.12059e-20)
(1.25096 -0.0706883 1.56446e-19)
(1.24558 -0.0589479 8.37614e-20)
(1.27315 -0.0861583 9.17243e-20)
(1.26609 -0.0755005 -7.63678e-20)
(1.25808 -0.0675449 -1.26734e-19)
(1.2529 -0.0554089 2.05929e-20)
(1.28792 -0.0929494 -1.98725e-19)
(1.28063 -0.0829476 -2.89396e-21)
(1.27363 -0.0718718 2.596e-19)
(1.26531 -0.064408 1.06187e-19)
(1.26019 -0.0517915 8.97601e-20)
(1.3022 -0.100501 -4.92263e-20)
(1.29539 -0.0895763 3.03756e-20)
(1.28815 -0.0795541 -2.80944e-20)
(1.2813 -0.0684288 2.93512e-20)
(1.27259 -0.06073 -1.62856e-19)
(1.26773 -0.0478656 9.20717e-20)
(1.3146 -0.107769 3.89989e-21)
(1.30918 -0.0971723 9.08531e-20)
(1.30284 -0.0861246 4.27595e-20)
(1.29571 -0.0763177 -1.06218e-19)
(1.2891 -0.0643938 -2.09501e-20)
(1.28009 -0.0577502 -1.07472e-20)
(1.27508 -0.0432267 -1.6292e-19)
(1.31942 -0.104133 -1.1813e-20)
(1.31565 -0.0938073 6.17893e-21)
(1.31015 -0.0826824 -5.8724e-20)
(1.30328 -0.072888 5.40889e-20)
(1.29701 -0.0609404 4.14458e-20)
(1.28779 -0.0530378 -3.75167e-21)
(1.28305 -0.0400254 1.27699e-19)
(1.31629 -0.109458 -1.08503e-19)
(1.32189 -0.100218 -1.69797e-19)
(1.32102 -0.0903353 1.35751e-19)
(1.31705 -0.079179 8.8794e-20)
(1.31074 -0.069585 -3.97317e-20)
(1.3051 -0.0567886 -3.2876e-19)
(1.29555 -0.0507033 3.26454e-20)
(1.29107 -0.0311418 1.89792e-20)
(1.30595 -0.103905 2.13261e-19)
(1.32006 -0.0957912 2.25468e-19)
(1.32412 -0.0866481 -7.41163e-20)
(1.32294 -0.0755306 1.90465e-20)
(1.31784 -0.0663216 5.66519e-20)
(1.31306 -0.0528953 5.21787e-20)
(1.30411 -0.0462244 1.59394e-19)
(1.29812 -0.0318806 6.09341e-20)
(1.23604 -0.0997583 -5.96065e-20)
(1.28395 -0.097021 -9.77328e-20)
(1.31074 -0.090492 -1.51625e-19)
(1.32289 -0.082498 3.59442e-20)
(1.3266 -0.0716806 -1.39367e-19)
(1.32399 -0.0627785 -4.66019e-21)
(1.32051 -0.0496758 -1.14321e-19)
(1.31311 -0.0408615 -1.57108e-19)
(1.30506 -0.0305999 -9.76086e-20)
(1.17498 -0.0885295 4.09434e-20)
(1.24469 -0.0883564 -5.63346e-20)
(1.28907 -0.0838701 -1.24511e-19)
(1.31372 -0.07747 -8.00647e-20)
(1.32568 -0.0675051 1.19818e-19)
(1.32787 -0.058716 -7.77581e-20)
(1.32667 -0.0468129 3.49909e-19)
(1.32159 -0.0356461 1.78844e-19)
(1.31243 -0.0279912 3.09422e-20)
(0.967765 -0.0706784 3.75065e-20)
(1.08891 -0.075693 -1.51442e-20)
(1.18215 -0.0777043 -5.70582e-20)
(1.24855 -0.0754903 2.84575e-19)
(1.29097 -0.071015 -1.84648e-19)
(1.31596 -0.0626548 -1.72061e-19)
(1.3268 -0.0539807 3.63446e-20)
(1.33002 -0.0437745 3.44109e-20)
(1.32849 -0.0307871 4.04621e-19)
(1.31996 -0.0244776 -3.84075e-19)
(0.842386 -0.0575941 1.33559e-19)
(0.977985 -0.0623752 1.27498e-20)
(1.0922 -0.0654935 -3.49679e-20)
(1.18226 -0.0652434 -1.09332e-19)
(1.24703 -0.062655 4.38998e-20)
(1.29064 -0.0565494 8.64959e-20)
(1.31574 -0.0482999 -1.32662e-19)
(1.3275 -0.0400577 -3.1273e-19)
(1.3319 -0.0260526 -1.7497e-19)
(1.32672 -0.0203386 8.77923e-20)
(0.563732 -0.0442527 4.88625e-19)
(0.707465 -0.0470714 -2.13771e-19)
(0.847555 -0.0502525 1.07394e-20)
(0.975458 -0.0529987 1.55433e-19)
(1.08594 -0.0537692 1.25046e-19)
(1.17427 -0.0524245 -7.73281e-20)
(1.24067 -0.0487027 3.80286e-20)
(1.28628 -0.0412311 1.12903e-19)
(1.31295 -0.0351366 8.26164e-20)
(1.32763 -0.0209643 1.59667e-19)
(1.33061 -0.0156826 3.58202e-19)
(0.443116 -0.0402282 -3.01451e-19)
(0.57285 -0.0400822 1.88557e-19)
(0.707152 -0.0409018 1.26115e-19)
(0.838575 -0.0420085 -2.53913e-19)
(0.961238 -0.0425546 3.56354e-19)
(1.06905 -0.041291 -2.39876e-20)
(1.15803 -0.0393326 -6.73679e-20)
(1.22789 -0.0325616 -4.54167e-20)
(1.27629 -0.0285754 -1.74808e-20)
(1.30695 -0.0148875 -2.43159e-20)
(1.32691 -0.0103522 -1.32374e-19)
(0.335545 -0.0392177 1.1055e-19)
(0.446813 -0.0366907 -1.34958e-19)
(0.567448 -0.0351589 -6.79504e-20)
(0.692471 -0.0340572 2.06146e-19)
(0.816555 -0.0334262 -3.37602e-19)
(0.934995 -0.0310162 -1.9213e-21)
(1.04071 -0.0297483 1.46511e-19)
(1.13251 -0.0229266 -9.27949e-20)
(1.20674 -0.0205726 7.77683e-20)
(1.25607 -0.0074271 -1.59455e-19)
(1.30596 -0.00395254 -1.32778e-19)
(0.242485 -0.040184 5.3721e-20)
(0.334239 -0.0361856 1.46796e-19)
(0.437047 -0.0329013 -2.26485e-19)
(0.548475 -0.0297718 -2.3871e-19)
(0.664399 -0.0277481 3.15719e-19)
(0.782404 -0.0233372 -7.22673e-20)
(0.895815 -0.0220024 1.16841e-19)
(0.999753 -0.0138792 9.95145e-20)
(1.09963 -0.0124596 -1.48052e-19)
(1.16233 0.000821472 1.53717e-19)
(1.25361 0.00360857 1.2232e-19)
(0.100683 -0.0470825 2.16098e-19)
(0.163027 -0.0420441 6.47362e-20)
(0.236484 -0.0374701 -2.91747e-19)
(0.320712 -0.0332627 5.58535e-20)
(0.414928 -0.0288105 -1.72683e-19)
(0.516836 -0.0257868 -1.44723e-20)
(0.624337 -0.0192298 7.5484e-20)
(0.737136 -0.0177596 -1.40126e-19)
(0.838805 -0.00733351 -3.71732e-20)
(0.959966 -0.00617178 -3.74029e-20)
(1.02383 0.00794307 2.08537e-20)
(1.15834 0.0112605 -2.64297e-20)
(0.0472051 -0.0485473 1.33733e-19)
(0.0950243 -0.0438806 -7.06454e-20)
(0.152395 -0.0394298 2.58828e-19)
(0.21938 -0.0350611 -3.07795e-20)
(0.295903 -0.0302098 2.3619e-19)
(0.381579 -0.0266386 -5.8887e-20)
(0.472524 -0.018818 4.43867e-20)
(0.578338 -0.0171956 -5.88243e-20)
(0.665987 -0.00474656 6.76462e-20)
(0.799087 -0.00316545 4.42853e-20)
(0.853529 0.0116724 3.19511e-20)
(1.01867 0.017094 -4.49813e-20)
(0.000597973 -0.0489737 -3.71164e-19)
(0.0360802 -0.0450119 -4.43864e-20)
(0.0796385 -0.041137 6.27553e-20)
(0.131464 -0.0371745 9.49304e-20)
(0.191702 -0.0327089 1.04442e-19)
(0.261074 -0.028915 1.67197e-20)
(0.334463 -0.0214079 -1.25229e-20)
(0.427829 -0.0190242 -1.96775e-19)
(0.498125 -0.00648855 -3.12482e-20)
(0.629122 -0.00366974 4.38743e-20)
(0.672111 0.0109869 -8.72146e-20)
(0.845369 0.0189956 -1.56052e-19)
(-0.0406414 -0.0480902 2.53777e-19)
(-0.0158193 -0.0449799 -3.47986e-20)
(0.0157992 -0.0419136 -1.8055e-19)
(0.0544289 -0.0387014 -1.3951e-19)
(0.100298 -0.0350597 -4.71832e-20)
(0.154312 -0.0314487 -5.31083e-20)
(0.212053 -0.0254033 4.33499e-20)
(0.288854 -0.0217604 6.17162e-20)
(0.345175 -0.0115365 8.62986e-20)
(0.459974 -0.00660409 -4.08627e-21)
(0.496324 0.00654593 1.74059e-20)
(0.65539 0.0163025 -1.21207e-19)
(-0.0774131 -0.0457563 -1.52654e-19)
(-0.0620118 -0.0435066 9.90078e-20)
(-0.040944 -0.0413102 -3.61504e-20)
(-0.0139972 -0.0389818 7.18308e-20)
(0.0190961 -0.0363029 -1.4984e-20)
(0.059057 -0.0333043 -1.93922e-20)
(0.103067 -0.0289228 6.36499e-20)
(0.161913 -0.024519 -5.86864e-20)
(0.208006 -0.0175357 5.75968e-20)
(0.29832 -0.0103802 6.40357e-21)
(0.332868 -4.30766e-05 4.80817e-20)
(0.463721 0.0104999 2.37442e-19)
(-0.110063 -0.0419322 3.12886e-20)
(-0.103101 -0.0404563 6.00571e-20)
(-0.0915312 -0.0390643 1.41057e-19)
(-0.0751583 -0.0375866 -4.29414e-20)
(-0.053701 -0.0358237 4.84802e-20)
(-0.0266228 -0.033636 -6.72461e-20)
(0.0045447 -0.0307323 -6.79582e-20)
(0.0464179 -0.0263746 7.76731e-20)
(0.082716 -0.0220602 -1.45028e-20)
(0.147687 -0.0138886 -9.84448e-20)
(0.180749 -0.00688491 7.10691e-20)
(0.279006 0.0042821 -5.44908e-20)
(-0.134461 -0.0377454 1.06226e-19)
(-0.138492 -0.0366628 -1.61328e-20)
(-0.139042 -0.0358129 5.79363e-21)
(-0.136018 -0.0350759 -1.9537e-20)
(-0.12926 -0.0343037 -2.21404e-21)
(-0.118507 -0.0333113 8.73264e-20)
(-0.103426 -0.0319215 9.81606e-20)
(-0.0845189 -0.0300977 1.63215e-20)
(-0.0581477 -0.0264625 4.53223e-20)
(-0.0332692 -0.0239775 -8.8401e-20)
(0.0100001 -0.01557 1.18155e-19)
(0.0374601 -0.0123877 -1.25184e-19)
(0.105612 -0.000303193 -3.36374e-20)
(-0.152693 -0.0306938 1.51711e-20)
(-0.162291 -0.0300709 -2.92192e-20)
(-0.169313 -0.0296696 -5.09456e-20)
(-0.173749 -0.0293933 -8.08179e-20)
(-0.175508 -0.0291206 4.4511e-20)
(-0.174395 -0.0286955 -1.0811e-20)
(-0.170192 -0.0279659 5.81575e-20)
(-0.162832 -0.026797 -9.85992e-20)
(-0.150681 -0.024301 4.58048e-20)
(-0.137417 -0.0226286 5.19645e-20)
(-0.113144 -0.0154577 -5.26593e-20)
(-0.0953873 -0.0146447 4.68202e-20)
(-0.0521944 -0.00314696 -7.71037e-20)
(-0.166871 -0.0226678 -5.94559e-21)
(-0.180889 -0.0223532 -3.43336e-20)
(-0.193113 -0.0222227 1.54048e-20)
(-0.203627 -0.0222058 1.71242e-20)
(-0.212428 -0.0222122 2.75811e-20)
(-0.219411 -0.0221245 -3.59416e-20)
(-0.22443 -0.0218235 -1.76946e-20)
(-0.227253 -0.0211375 2.86032e-21)
(-0.227152 -0.0196593 -8.33442e-20)
(-0.225113 -0.0182689 -4.26268e-20)
(-0.217029 -0.0137836 -2.40052e-20)
(-0.209862 -0.0129843 7.97785e-20)
(-0.188422 -0.00478883 2.73036e-20)
(-0.176592 -0.0139067 -6.94974e-20)
(-0.193696 -0.0137741 4.80881e-20)
(-0.209586 -0.0137634 -3.91231e-20)
(-0.224432 -0.0138322 2.22099e-20)
(-0.238311 -0.0139243 -3.07114e-20)
(-0.251209 -0.0139675 -4.88158e-21)
(-0.263037 -0.013884 9.21269e-21)
(-0.273576 -0.0135501 3.43135e-20)
(-0.282415 -0.0127988 2.03264e-20)
(-0.289573 -0.0118765 5.66371e-20)
(-0.293378 -0.00958567 -1.79228e-20)
(-0.295892 -0.00875655 -2.47703e-20)
(-0.290871 -0.00443122 -3.78399e-22)
(-0.181541 -0.00468759 1.96776e-20)
(-0.200233 -0.00465315 -2.14678e-20)
(-0.218023 -0.0046614 8.29234e-21)
(-0.235129 -0.00469814 1.70742e-20)
(-0.25168 -0.00474443 -7.88057e-21)
(-0.267714 -0.00477579 1.72245e-21)
(-0.283185 -0.00476527 -1.12974e-20)
(-0.297906 -0.00466926 -2.44973e-21)
(-0.311572 -0.00444185 1.17746e-20)
(-0.32395 -0.00412528 -6.88574e-21)
(-0.334151 -0.00343323 -9.05238e-21)
(-0.34263 -0.00309184 -4.23815e-21)
(-0.346593 -0.00180384 -1.50798e-20)
(-0.349964 0.00226221 -1.1552e-20)
(-0.352707 0.00160927 4.18832e-21)
(-0.354326 0.00094663 -6.24322e-21)
(-0.354995 0.000212237 1.08726e-20)
(-0.354492 -0.000605608 -5.20887e-21)
(-0.352672 -0.00149247 -2.90743e-21)
(-0.34934 -0.00244312 3.99686e-21)
(-0.344303 -0.00345202 -1.30507e-21)
(-0.337367 -0.00451305 2.96424e-21)
(-0.328341 -0.00561247 6.79282e-22)
(-0.317039 -0.00674444 -5.54013e-21)
(-0.30328 -0.00789627 1.77435e-22)
(-0.286902 -0.00905297 3.40738e-21)
(-0.267764 -0.0101966 2.20773e-21)
(-0.24576 -0.0113057 1.09093e-22)
(-0.220828 -0.0123555 -5.38772e-21)
(-0.192936 -0.0133282 4.67217e-22)
(-0.162143 -0.0141945 2.19175e-21)
(-0.128565 -0.0149392 -9.87888e-22)
(-0.0923819 -0.015543 1.3874e-21)
(-0.0537809 -0.0160431 -1.71077e-21)
(-0.0130667 -0.0162979 -5.22785e-22)
(0.0293871 -0.0163919 9.66068e-22)
(0.0731919 -0.016327 -5.06054e-22)
(0.117928 -0.0160946 5.88947e-22)
(0.163173 -0.0157069 -6.15973e-23)
(0.208493 -0.0151829 -5.83085e-23)
(0.253466 -0.0145415 2.75953e-23)
(0.297702 -0.0138093 1.57032e-24)
(0.340864 -0.013006 2.54602e-24)
(0.382635 -0.012163 5.56243e-23)
(0.422832 -0.0112923 -3.57729e-23)
(0.461172 -0.0104294 -2.23883e-22)
(0.497738 -0.00957502 7.9892e-23)
(0.532115 -0.00876955 2.21021e-23)
(0.56484 -0.00798648 3.94533e-23)
(0.59505 -0.00727181 -5.10235e-23)
(0.624088 -0.00658344 1.86878e-23)
(0.650177 -0.00597535 1.77261e-23)
(0.675948 -0.00538883 -4.76578e-23)
(0.698094 -0.00489045 -2.10539e-23)
(0.721201 -0.00439783 4.58768e-23)
(0.739588 -0.00400977 -2.60599e-23)
(0.760838 -0.00359204 -3.53647e-23)
(0.775481 -0.00331109 1.31257e-23)
(0.795939 -0.00294413 -1.36756e-23)
(0.806491 -0.00277217 -2.38052e-23)
(0.827693 -0.00244345 -1.41092e-23)
(0.833372 -0.00238372 -2.39305e-24)
(0.857633 -0.00208143 1.22628e-26)
(-0.289918 0.00580249 -3.51499e-20)
(-0.291848 0.0040031 -7.99429e-21)
(-0.292322 0.00201735 3.28379e-20)
(-0.291883 -0.000158331 -2.46778e-20)
(-0.290325 -0.00255818 8.07953e-22)
(-0.28748 -0.00515553 1.41752e-20)
(-0.283179 -0.00793629 -1.16457e-20)
(-0.277247 -0.0108841 6.37204e-21)
(-0.269493 -0.0139874 8.27834e-21)
(-0.259749 -0.0172012 -1.16192e-20)
(-0.247849 -0.020515 2.0848e-20)
(-0.233623 -0.0238862 -1.50408e-20)
(-0.216921 -0.0272698 -1.14344e-20)
(-0.197619 -0.0306132 1.01039e-20)
(-0.175621 -0.0338572 1.92289e-21)
(-0.150887 -0.0369363 -4.30264e-21)
(-0.123391 -0.0398059 -2.92393e-21)
(-0.0931801 -0.0423622 9.15678e-22)
(-0.060402 -0.0445123 4.35192e-21)
(-0.0252963 -0.0462495 -3.97845e-21)
(0.0120541 -0.0475036 -5.20336e-22)
(0.05136 -0.0482572 3.20875e-21)
(0.0921284 -0.048513 -2.16395e-21)
(0.134049 -0.048273 1.68333e-21)
(0.176724 -0.0475413 -6.77423e-22)
(0.219742 -0.0463531 -3.36196e-22)
(0.262694 -0.0447649 4.37398e-22)
(0.305187 -0.0428342 -1.1398e-22)
(0.346863 -0.0406409 -8.08621e-23)
(0.38741 -0.0382439 1.19248e-22)
(0.426549 -0.0357367 4.10214e-23)
(0.464114 -0.0331544 9.72233e-23)
(0.49986 -0.0306002 -1.98003e-22)
(0.533873 -0.0280716 3.74979e-22)
(0.565787 -0.0256912 2.12904e-22)
(0.596113 -0.0233839 -4.0357e-22)
(0.624058 -0.0212797 3.05422e-22)
(0.650888 -0.0192577 -1.36583e-22)
(0.674948 -0.0174716 7.11595e-25)
(0.698714 -0.0157533 -1.2305e-23)
(0.719089 -0.0142921 1.98436e-22)
(0.740379 -0.0128524 -1.2461e-22)
(0.757269 -0.0117166 1.4271e-22)
(0.776854 -0.0104989 -9.75836e-23)
(0.790296 -0.00967712 -4.83326e-23)
(0.809179 -0.00860911 2.4831e-23)
(0.818857 -0.00810653 1.4675e-23)
(0.838483 -0.00715246 3.76955e-24)
(0.843679 -0.00697939 1.60489e-23)
(0.866237 -0.00610534 2.64964e-24)
(-0.180997 0.0068567 -4.48079e-20)
(-0.181149 0.00420314 2.86428e-20)
(-0.179719 0.000994365 4.60959e-21)
(-0.177369 -0.00251838 -3.37905e-20)
(-0.174014 -0.00635164 1.3114e-20)
(-0.169472 -0.0104919 -7.06651e-21)
(-0.163598 -0.0149237 -1.665e-21)
(-0.156244 -0.0196223 9.15529e-21)
(-0.147218 -0.0246345 6.87451e-21)
(-0.136385 -0.0297391 6.041e-21)
(-0.123619 -0.0350171 -3.00202e-20)
(-0.108759 -0.0403863 3.26601e-20)
(-0.0916835 -0.0457722 -3.23748e-20)
(-0.0722932 -0.0510881 1.00075e-20)
(-0.0505175 -0.0562388 1.69949e-20)
(-0.0263707 -0.0611223 -1.75726e-20)
(0.000170241 -0.0655882 4.40318e-21)
(0.029176 -0.0695314 -5.92131e-21)
(0.0604082 -0.0728914 1.44825e-20)
(0.0935896 -0.0755822 -1.93751e-21)
(0.128567 -0.0774202 -2.07456e-21)
(0.165091 -0.0785253 6.37122e-22)
(0.202789 -0.07881 -2.711e-21)
(0.241314 -0.0782735 3.08407e-22)
(0.280295 -0.0769492 3.22689e-22)
(0.319352 -0.0748955 -1.44593e-21)
(0.358126 -0.0722057 6.13316e-23)
(0.396264 -0.0689753 -2.09889e-22)
(0.433468 -0.0653366 -2.12977e-22)
(0.469465 -0.0613856 4.27384e-22)
(0.504038 -0.0572752 4.57612e-22)
(0.53705 -0.0530613 -9.41404e-22)
(0.568319 -0.0489097 3.28829e-22)
(0.597928 -0.044806 -3.46515e-22)
(0.625592 -0.0409469 3.95071e-22)
(0.651781 -0.0372248 1.41844e-22)
(0.675816 -0.0338367 -6.2388e-22)
(0.698832 -0.030595 4.26225e-22)
(0.71938 -0.0277322 -1.00401e-22)
(0.739665 -0.0249914 6.49421e-23)
(0.756965 -0.0226578 -4.4879e-23)
(0.775078 -0.0203728 -2.84435e-22)
(0.789357 -0.0185647 -1.75051e-22)
(0.806007 -0.0166423 1.08537e-22)
(0.817348 -0.0153359 2.14279e-23)
(0.83343 -0.0136556 2.20785e-23)
(0.84157 -0.0128577 1.55162e-23)
(0.85837 -0.0113652 1.72582e-23)
(0.862709 -0.0110953 2.90795e-23)
(0.882197 -0.00973941 6.46388e-25)
(-0.03926 0.00369497 -2.39978e-20)
(-0.0372144 0.00100652 -1.93578e-20)
(-0.0333905 -0.00299106 3.53251e-20)
(-0.0287414 -0.00758444 4.53471e-20)
(-0.0232831 -0.0125769 -6.82691e-20)
(-0.0168338 -0.017979 -5.20028e-21)
(-0.00924624 -0.0237839 4.62958e-20)
(-0.000491117 -0.0299613 -3.42242e-20)
(0.00979914 -0.0364253 -1.99472e-20)
(0.0217527 -0.043137 1.63489e-20)
(0.0352595 -0.050067 1.15062e-20)
(0.0505566 -0.0571159 7.49791e-21)
(0.0677323 -0.0641818 -4.7981e-21)
(0.086859 -0.0711454 -1.77189e-20)
(0.107982 -0.0778763 3.10919e-20)
(0.131102 -0.084247 -2.98733e-20)
(0.156163 -0.0900119 5.20521e-21)
(0.183156 -0.0950499 1.21921e-20)
(0.211927 -0.0993386 -8.4718e-21)
(0.242254 -0.102706 1.69772e-20)
(0.273926 -0.105022 -2.61044e-21)
(0.306699 -0.106258 -1.22369e-21)
(0.340251 -0.106384 -1.72717e-21)
(0.374258 -0.105411 -7.21534e-22)
(0.408399 -0.103392 1.67148e-21)
(0.442343 -0.10041 3.60022e-22)
(0.475788 -0.096594 -8.75307e-23)
(0.508438 -0.0920757 5.83159e-23)
(0.540063 -0.0870368 -8.21751e-23)
(0.57044 -0.0816063 4.49426e-23)
(0.599421 -0.0759915 2.34974e-22)
(0.626898 -0.0702658 -5.19823e-22)
(0.65276 -0.0646509 -8.6661e-23)
(0.677082 -0.0591218 1.05128e-21)
(0.699663 -0.0539242 -2.5994e-22)
(0.720912 -0.048935 -4.84142e-22)
(0.740294 -0.0444055 1.40284e-22)
(0.758765 -0.0400962 -4.12363e-22)
(0.775142 -0.0362919 1.86303e-22)
(0.791266 -0.0326739 -1.53691e-22)
(0.804905 -0.0295873 -5.12865e-23)
(0.819192 -0.0265921 1.56726e-22)
(0.830348 -0.0242111 1.59873e-22)
(0.843423 -0.0217122 -2.03184e-22)
(0.852237 -0.0199954 -1.00231e-22)
(0.864862 -0.0178226 8.13199e-23)
(0.87114 -0.0167754 -6.24536e-23)
(0.884408 -0.0148624 1.6647e-23)
(0.887698 -0.0145179 -5.16646e-23)
(0.903314 -0.0128049 -2.16855e-24)
(0.122128 -0.00276038 -3.20056e-20)
(0.126759 -0.00577884 -1.38201e-20)
(0.132009 -0.0101352 7.8075e-20)
(0.138557 -0.0153313 -3.81647e-20)
(0.145918 -0.0210964 5.30952e-20)
(0.154046 -0.0273962 -8.76294e-20)
(0.163089 -0.0342158 2.68646e-20)
(0.173162 -0.0415032 2.5312e-21)
(0.184398 -0.0490612 2.10906e-20)
(0.196921 -0.0570235 -4.41779e-21)
(0.210783 -0.065229 -2.72274e-20)
(0.226078 -0.0735771 9.12387e-21)
(0.242871 -0.0819404 4.48827e-20)
(0.261203 -0.0901706 -3.98803e-20)
(0.281088 -0.0981028 2.17199e-20)
(0.302508 -0.105571 -9.19229e-21)
(0.325395 -0.11236 1.18244e-20)
(0.349698 -0.118289 8.42293e-21)
(0.375278 -0.123216 -3.33159e-20)
(0.40193 -0.126993 1.25504e-20)
(0.429447 -0.129495 -1.07115e-20)
(0.457599 -0.130669 1.43191e-20)
(0.486125 -0.130492 -1.25155e-20)
(0.514753 -0.128982 5.70823e-21)
(0.543223 -0.126211 1.68455e-21)
(0.571269 -0.122287 -4.48927e-22)
(0.598666 -0.117374 -2.32716e-23)
(0.625186 -0.111635 3.45794e-22)
(0.650673 -0.105297 2.36222e-22)
(0.674964 -0.098516 -9.34165e-23)
(0.697975 -0.0915461 3.93239e-22)
(0.719631 -0.0844747 -3.47485e-22)
(0.739879 -0.0775684 1.27756e-22)
(0.758782 -0.070799 -4.09959e-22)
(0.776211 -0.0644426 3.1963e-22)
(0.792492 -0.0583592 2.61271e-22)
(0.807237 -0.0528472 3.54496e-22)
(0.821196 -0.0476364 -6.01766e-22)
(0.833465 -0.0430353 3.44358e-22)
(0.845479 -0.0386932 1.6147e-22)
(0.855536 -0.0349766 -3.56772e-22)
(0.866028 -0.0314104 1.14118e-22)
(0.87413 -0.0285564 -3.15536e-23)
(0.883618 -0.0256133 2.05625e-22)
(0.889957 -0.0235607 4.14177e-23)
(0.899067 -0.0210179 -9.84571e-23)
(0.903511 -0.0197666 7.40397e-24)
(0.913127 -0.0175532 -2.19644e-23)
(0.915369 -0.0171569 3.16722e-23)
(0.926933 -0.0152187 6.14916e-24)
(0.295084 -0.00995682 -2.1851e-20)
(0.301709 -0.014314 5.58671e-20)
(0.30792 -0.0192821 -1.44484e-19)
(0.315294 -0.0248917 7.6099e-20)
(0.323626 -0.0311449 -6.43658e-20)
(0.332685 -0.0380328 4.25294e-20)
(0.342509 -0.0455145 1.50623e-20)
(0.35318 -0.0535229 -2.3206e-21)
(0.364771 -0.0619638 -4.38564e-21)
(0.377354 -0.0707867 -7.87065e-21)
(0.390968 -0.0798927 -7.79835e-21)
(0.405653 -0.089161 2.31587e-20)
(0.421439 -0.0984437 2.81125e-23)
(0.438335 -0.107567 -1.4956e-20)
(0.456322 -0.116336 2.72318e-21)
(0.47536 -0.124552 2.02619e-20)
(0.495369 -0.131987 -2.07092e-20)
(0.516258 -0.138431 -4.07855e-21)
(0.537892 -0.143708 1.07922e-20)
(0.560096 -0.147653 -6.34985e-21)
(0.582679 -0.150136 2.11715e-21)
(0.605448 -0.151092 1.10044e-20)
(0.628206 -0.150506 -4.71609e-21)
(0.650753 -0.148408 -4.35043e-21)
(0.672909 -0.14489 -2.34245e-21)
(0.694492 -0.140079 -5.87962e-22)
(0.715367 -0.134173 1.49178e-21)
(0.735389 -0.127357 7.50805e-22)
(0.754482 -0.119895 2.79982e-22)
(0.772545 -0.111964 4.92947e-23)
(0.789556 -0.103854 -4.543e-23)
(0.805469 -0.0956608 -4.20168e-23)
(0.820279 -0.0876829 6.81078e-22)
(0.834029 -0.0798929 -3.70853e-22)
(0.846647 -0.07259 -3.43103e-22)
(0.858358 -0.065614 4.43896e-22)
(0.868907 -0.0592913 -7.35154e-22)
(0.878824 -0.0533509 5.70337e-22)
(0.887478 -0.0480982 8.28098e-23)
(0.895875 -0.0431804 -1.60281e-23)
(0.902843 -0.0389491 3.27823e-22)
(0.910019 -0.0349387 -4.14684e-22)
(0.915519 -0.0316997 4.81756e-22)
(0.921855 -0.0284294 -1.45315e-22)
(0.9261 -0.026106 1.36835e-22)
(0.932088 -0.0232984 -9.11946e-23)
(0.934981 -0.0218802 -1.18829e-23)
(0.941301 -0.0194662 -7.51058e-23)
(0.942642 -0.019038 -3.40535e-25)
(0.950499 -0.0169898 1.41465e-24)
(0.476364 -0.017413 1.62017e-19)
(0.48333 -0.0229009 -3.58733e-20)
(0.489892 -0.0286536 6.29294e-21)
(0.497144 -0.0347589 -1.72511e-20)
(0.505226 -0.0414538 -2.33795e-20)
(0.514041 -0.0488104 7.0161e-20)
(0.523579 -0.0567729 -1.15795e-19)
(0.533848 -0.0652635 5.20427e-22)
(0.544842 -0.0742124 1.34841e-19)
(0.55657 -0.0835595 4.11302e-20)
(0.56904 -0.0932061 -1.66055e-19)
(0.582252 -0.103017 8.77964e-20)
(0.596191 -0.112832 -3.09819e-20)
(0.61083 -0.122466 -4.53415e-20)
(0.626115 -0.131714 5.59716e-20)
(0.641971 -0.140353 -1.07406e-21)
(0.658305 -0.148128 -1.26328e-20)
(0.675008 -0.154799 2.45457e-20)
(0.691948 -0.160165 -1.50598e-20)
(0.708973 -0.164054 -7.64375e-21)
(0.725928 -0.166342 9.02523e-21)
(0.742669 -0.166966 4.52102e-21)