/*--------------------------------*- C++ -*----------------------------------*\
  =========                 |
  \\      /  F ield         | OpenFOAM: The Open Source CFD Toolbox
   \\    /   O peration     | Website:  https://openfoam.org
    \\  /    A nd           | Version:  7
     \\/     M anipulation  |
\*---------------------------------------------------------------------------*/
FoamFile
{
    version     2.0;
    format      ascii;
    class       volScalarField;
    location    "10";
    object      p;
}
// * * * * * * * * * * * * * * * * * * * * * * * * * * * * * * * * * * * * * //

dimensions      [0 2 -2 0 0 0 0];

internalField   nonuniform List<scalar> 
24200
(
-0.33713
-0.339549
-0.342109
-0.344806
-0.34763
-0.350567
-0.353597
-0.356691
-0.359812
-0.362911
-0.36593
-0.368798
-0.371433
-0.373739
-0.375608
-0.376923
-0.377553
-0.377365
-0.376218
-0.373976
-0.37051
-0.365712
-0.359505
-0.351826
-0.342666
-0.33226
-0.33718
-0.339601
-0.342163
-0.344863
-0.347692
-0.350637
-0.353676
-0.356781
-0.359916
-0.363033
-0.366073
-0.368967
-0.371631
-0.373972
-0.375881
-0.377239
-0.37792
-0.377785
-0.376697
-0.374515
-0.371109
-0.366368
-0.360211
-0.352574
-0.343413
-0.332994
-0.337279
-0.339702
-0.342269
-0.344975
-0.347813
-0.350771
-0.353827
-0.356954
-0.360116
-0.363267
-0.366348
-0.36929
-0.372011
-0.374417
-0.376401
-0.377845
-0.37862
-0.378588
-0.37761
-0.375544
-0.372254
-0.36762
-0.361558
-0.354001
-0.344854
-0.334387
-0.337422
-0.339847
-0.342419
-0.345134
-0.347985
-0.35096
-0.354039
-0.357197
-0.360397
-0.363594
-0.366732
-0.369741
-0.372541
-0.375038
-0.377126
-0.378687
-0.379591
-0.379702
-0.378876
-0.376969
-0.373839
-0.369357
-0.363426
-0.355984
-0.346896
-0.336289
-0.337601
-0.340028
-0.342605
-0.345329
-0.348195
-0.35119
-0.354297
-0.35749
-0.360736
-0.363989
-0.367194
-0.370283
-0.373177
-0.375783
-0.377994
-0.379693
-0.380751
-0.38103
-0.380383
-0.378664
-0.375726
-0.371427
-0.365654
-0.358354
-0.349413
-0.338507
-0.340235
-0.342816
-0.345549
-0.348428
-0.351445
-0.35458
-0.357812
-0.361106
-0.364419
-0.367696
-0.370872
-0.373868
-0.37659
-0.378933
-0.380781
-0.382002
-0.382459
-0.382004
-0.380485
-0.377753
-0.373654
-0.368062
-0.360928
-0.352231
-0.340791
-0.340457
-0.343039
-0.345777
-0.348669
-0.351704
-0.354867
-0.358135
-0.361477
-0.364849
-0.368198
-0.37146
-0.374556
-0.377393
-0.379868
-0.381861
-0.383243
-0.383874
-0.383605
-0.382283
-0.379754
-0.375856
-0.370483
-0.363448
-0.355178
-0.34296
-0.34068
-0.343259
-0.345999
-0.348898
-0.351948
-0.355134
-0.358434
-0.361817
-0.365243
-0.368658
-0.371998
-0.375186
-0.378129
-0.380723
-0.382849
-0.384376
-0.385165
-0.385065
-0.383918
-0.381579
-0.377887
-0.372702
-0.365719
-0.357873
-0.345322
-0.340892
-0.343462
-0.346198
-0.349098
-0.352156
-0.355357
-0.358681
-0.362097
-0.365566
-0.369036
-0.372441
-0.375706
-0.378737
-0.381431
-0.383667
-0.385317
-0.386236
-0.386275
-0.38527
-0.383109
-0.379545
-0.374548
-0.367698
-0.360023
-0.347492
-0.341079
-0.343634
-0.346358
-0.349252
-0.352308
-0.355515
-0.358852
-0.362289
-0.365788
-0.369296
-0.372749
-0.376071
-0.379168
-0.381936
-0.384255
-0.385993
-0.38701
-0.387153
-0.386262
-0.384201
-0.380748
-0.375916
-0.369116
-0.361689
-0.3491
-0.34123
-0.34376
-0.346465
-0.349342
-0.352387
-0.355588
-0.358925
-0.362369
-0.365881
-0.36941
-0.37289
-0.376244
-0.379381
-0.382194
-0.384563
-0.386356
-0.38743
-0.387635
-0.386806
-0.384817
-0.381415
-0.376717
-0.369884
-0.362738
-0.350035
-0.341332
-0.34383
-0.346505
-0.349356
-0.352378
-0.355561
-0.358884
-0.362319
-0.365827
-0.369355
-0.37284
-0.376202
-0.37935
-0.382176
-0.384559
-0.386369
-0.387459
-0.387683
-0.386866
-0.384907
-0.381496
-0.376892
-0.369957
-0.363061
-0.350232
-0.341375
-0.343832
-0.346467
-0.349282
-0.35227
-0.355421
-0.358716
-0.362126
-0.365611
-0.369118
-0.372584
-0.375928
-0.379058
-0.381865
-0.384228
-0.386015
-0.387078
-0.387276
-0.386422
-0.384445
-0.380965
-0.376405
-0.369314
-0.362595
-0.349654
-0.341352
-0.343759
-0.346345
-0.349112
-0.352054
-0.355162
-0.358414
-0.361782
-0.365226
-0.368693
-0.372117
-0.375418
-0.3785
-0.381257
-0.383564
-0.385289
-0.386283
-0.386409
-0.385466
-0.383419
-0.379813
-0.375234
-0.36795
-0.361306
-0.348287
-0.341256
-0.343604
-0.346132
-0.348842
-0.351728
-0.354779
-0.357975
-0.361287
-0.364674
-0.36808
-0.371441
-0.374673
-0.377681
-0.380355
-0.382571
-0.384195
-0.385076
-0.385081
-0.383996
-0.381823
-0.378037
-0.373364
-0.365865
-0.359177
-0.346126
-0.343365
-0.345826
-0.34847
-0.35129
-0.354274
-0.357403
-0.360644
-0.363957
-0.367286
-0.370562
-0.373701
-0.376607
-0.379168
-0.381257
-0.382739
-0.383461
-0.383294
-0.382015
-0.379651
-0.375637
-0.370785
-0.363064
-0.356209
-0.343179
-0.343041
-0.345429
-0.347998
-0.350744
-0.353652
-0.356702
-0.359861
-0.363086
-0.366319
-0.369491
-0.372515
-0.375291
-0.377705
-0.379629
-0.380927
-0.381441
-0.381048
-0.379518
-0.376897
-0.372609
-0.367494
-0.359554
-0.352421
-0.339472
-0.342634
-0.344943
-0.347432
-0.350096
-0.35292
-0.355881
-0.358947
-0.36207
-0.365192
-0.368239
-0.371123
-0.37374
-0.375974
-0.377692
-0.378759
-0.379014
-0.378336
-0.3765
-0.373555
-0.368953
-0.363499
-0.355351
-0.347861
-0.335053
-0.342148
-0.344373
-0.346778
-0.349354
-0.352087
-0.354952
-0.357913
-0.360921
-0.363915
-0.366816
-0.369533
-0.37196
-0.373974
-0.375443
-0.376227
-0.376169
-0.375147
-0.372949
-0.369621
-0.364671
-0.358827
-0.350487
-0.342603
-0.329996
-0.34159
-0.343728
-0.346044
-0.348528
-0.351164
-0.353924
-0.356769
-0.359648
-0.362494
-0.365226
-0.367747
-0.369947
-0.3717
-0.372871
-0.373319
-0.372891
-0.371469
-0.36886
-0.365102
-0.359782
-0.353527
-0.345019
-0.336752
-0.324402
-0.340966
-0.343015
-0.345239
-0.347627
-0.350159
-0.352806
-0.355524
-0.358257
-0.360934
-0.363468
-0.36576
-0.367691
-0.369136
-0.369957
-0.370016
-0.369165
-0.367295
-0.364235
-0.360023
-0.354327
-0.347674
-0.339031
-0.330437
-0.318392
-0.342243
-0.344372
-0.346659
-0.349081
-0.351604
-0.354179
-0.356747
-0.359229
-0.361535
-0.363557
-0.365176
-0.366264
-0.366684
-0.366303
-0.364983
-0.362629
-0.359098
-0.35443
-0.348373
-0.341368
-0.332636
-0.323799
-0.312098
-0.341421
-0.343452
-0.345633
-0.347936
-0.350321
-0.352736
-0.355113
-0.357371
-0.35941
-0.36112
-0.36238
-0.363062
-0.363032
-0.362169
-0.360349
-0.357496
-0.353494
-0.348394
-0.342015
-0.334726
-0.325956
-0.316979
-0.30565
-0.340556
-0.342485
-0.344551
-0.346723
-0.348954
-0.351187
-0.353345
-0.355342
-0.357074
-0.358427
-0.359281
-0.359511
-0.358994
-0.357621
-0.355287
-0.351939
-0.347492
-0.342007
-0.335361
-0.32787
-0.319121
-0.310106
-0.299162
-0.339654
-0.341474
-0.343416
-0.345441
-0.347497
-0.349519
-0.351425
-0.353122
-0.354504
-0.355456
-0.355861
-0.355604
-0.354573
-0.352681
-0.349841
-0.346027
-0.341178
-0.335374
-0.328528
-0.320922
-0.312249
-0.303287
-0.29273
-0.34042
-0.342223
-0.344082
-0.345937
-0.347716
-0.349333
-0.350689
-0.351678
-0.352189
-0.352112
-0.351345
-0.349793
-0.34739
-0.344073
-0.33984
-0.334652
-0.328601
-0.321627
-0.313987
-0.305436
-0.296604
-0.286425
-0.33932
-0.340965
-0.342634
-0.344258
-0.345759
-0.347047
-0.348022
-0.34858
-0.348618
-0.348038
-0.346754
-0.344692
-0.341807
-0.33806
-0.333468
-0.32801
-0.321789
-0.314755
-0.307148
-0.298759
-0.290111
-0.280298
-0.338167
-0.339633
-0.341081
-0.34244
-0.343626
-0.344546
-0.345104
-0.345201
-0.344747
-0.343658
-0.341868
-0.339324
-0.336003
-0.331884
-0.327
-0.321343
-0.315022
-0.307987
-0.30047
-0.292268
-0.283844
-0.274378
-0.338211
-0.339407
-0.340465
-0.341298
-0.341816
-0.341927
-0.341545
-0.340592
-0.339005
-0.336736
-0.333753
-0.33005
-0.325624
-0.320517
-0.314728
-0.308366
-0.301379
-0.293991
-0.285994
-0.277818
-0.268682
-0.336683
-0.337593
-0.338314
-0.33876
-0.338846
-0.338492
-0.337624
-0.336183
-0.334123
-0.331415
-0.328045
-0.324023
-0.319354
-0.314087
-0.308222
-0.301868
-0.294965
-0.287735
-0.279952
-0.272039
-0.263215
-0.335032
-0.335621
-0.335971
-0.336002
-0.335639
-0.334812
-0.333466
-0.331559
-0.329062
-0.325965
-0.322266
-0.317984
-0.313132
-0.307759
-0.301867
-0.295558
-0.288764
-0.281709
-0.274143
-0.266501
-0.257974
-0.333476
-0.333428
-0.333024
-0.332202
-0.330908
-0.329104
-0.326765
-0.323877
-0.320443
-0.316473
-0.311986
-0.307005
-0.30157
-0.295687
-0.289448
-0.282783
-0.275912
-0.268562
-0.261197
-0.252951
-0.331149
-0.330681
-0.329832
-0.328554
-0.326811
-0.324579
-0.321848
-0.31862
-0.314902
-0.310712
-0.306072
-0.301003
-0.295542
-0.289696
-0.283543
-0.277018
-0.270334
-0.263198
-0.256112
-0.248135
-0.328635
-0.327735
-0.326442
-0.324721
-0.322555
-0.319932
-0.316856
-0.313335
-0.309384
-0.305021
-0.300268
-0.295147
-0.289685
-0.283895
-0.277838
-0.271461
-0.264961
-0.258037
-0.251232
-0.24351
-0.324601
-0.322873
-0.320733
-0.318176
-0.315205
-0.311829
-0.308062
-0.303922
-0.299427
-0.294594
-0.289446
-0.284002
-0.27828
-0.272324
-0.266099
-0.259777
-0.253066
-0.246541
-0.239063
-0.321297
-0.319152
-0.316622
-0.313712
-0.310434
-0.306801
-0.302831
-0.29854
-0.293944
-0.289059
-0.283904
-0.278491
-0.272844
-0.266987
-0.260916
-0.254759
-0.248271
-0.242025
-0.234784
-0.315306
-0.31242
-0.309196
-0.305652
-0.301802
-0.297665
-0.293254
-0.288584
-0.283666
-0.278517
-0.273145
-0.267574
-0.261815
-0.255892
-0.249881
-0.243628
-0.237653
-0.230666
-0.311365
-0.308157
-0.304657
-0.300883
-0.296852
-0.292579
-0.288074
-0.28335
-0.278414
-0.273281
-0.267955
-0.26246
-0.256796
-0.251009
-0.245117
-0.239095
-0.23334
-0.226683
-0.30386
-0.300119
-0.296149
-0.291966
-0.287581
-0.283003
-0.27824
-0.273298
-0.268188
-0.262911
-0.257492
-0.251921
-0.246255
-0.240458
-0.234625
-0.22893
-0.22273
-0.29955
-0.2956
-0.291464
-0.287153
-0.282677
-0.278042
-0.273252
-0.268312
-0.26323
-0.258006
-0.25266
-0.247181
-0.241624
-0.235921
-0.230225
-0.224377
-0.21852
-0.291115
-0.286836
-0.282419
-0.277868
-0.273188
-0.268381
-0.263449
-0.258398
-0.253228
-0.247955
-0.242567
-0.237112
-0.231516
-0.225943
-0.220022
-0.214092
-0.286673
-0.282272
-0.277763
-0.273151
-0.268436
-0.263619
-0.2587
-0.253683
-0.248568
-0.243368
-0.238069
-0.232715
-0.227232
-0.221758
-0.215965
-0.21032
-0.277772
-0.273186
-0.268522
-0.26378
-0.258959
-0.254057
-0.249077
-0.244017
-0.238889
-0.233681
-0.228427
-0.22306
-0.21771
-0.212083
-0.206649
-0.268684
-0.263977
-0.259214
-0.254393
-0.249511
-0.244569
-0.239567
-0.234511
-0.229392
-0.22424
-0.218994
-0.213774
-0.208321
-0.203112
-0.264252
-0.25951
-0.254731
-0.249914
-0.245054
-0.240153
-0.235208
-0.230225
-0.225195
-0.220146
-0.215021
-0.209938
-0.204658
-0.199644
-0.255115
-0.250325
-0.245514
-0.240679
-0.235819
-0.230932
-0.226023
-0.221082
-0.216135
-0.211132
-0.206184
-0.201071
-0.196236
-0.245988
-0.241187
-0.236378
-0.231561
-0.226732
-0.221895
-0.217043
-0.212197
-0.207315
-0.202499
-0.197545
-0.192876
-0.236924
-0.232144
-0.227369
-0.222599
-0.217834
-0.21307
-0.208324
-0.20356
-0.198871
-0.194069
-0.189556
-0.227969
-0.223238
-0.218526
-0.213833
-0.209155
-0.204507
-0.199857
-0.195292
-0.190635
-0.186267
-0.223846
-0.21916
-0.214506
-0.209884
-0.20529
-0.200739
-0.1962
-0.191753
-0.187234
-0.183004
-0.215129
-0.210532
-0.205981
-0.20147
-0.197011
-0.192579
-0.188247
-0.183859
-0.17976
-0.206599
-0.202116
-0.197686
-0.193318
-0.18899
-0.184767
-0.180505
-0.176531
-0.198284
-0.193933
-0.189653
-0.185425
-0.181307
-0.177166
-0.17331
-0.186011
-0.181879
-0.177862
-0.173837
-0.170094
-0.178348
-0.174428
-0.170513
-0.166879
-0.170999
-0.167191
-0.16366
-0.163866
-0.160434
-0.163866
-0.160434
-0.170999
-0.167191
-0.16366
-0.178348
-0.174428
-0.170513
-0.166879
-0.186011
-0.181879
-0.177862
-0.173837
-0.170094
-0.198284
-0.193933
-0.189653
-0.185425
-0.181307
-0.177166
-0.17331
-0.206599
-0.202116
-0.197686
-0.193318
-0.18899
-0.184766
-0.180505
-0.176531
-0.215129
-0.210532
-0.205981
-0.201469
-0.197011
-0.192579
-0.188247
-0.183859
-0.17976
-0.223846
-0.21916
-0.214506
-0.209884
-0.20529
-0.200738
-0.1962
-0.191753
-0.187234
-0.183004
-0.232719
-0.227968
-0.223238
-0.218526
-0.213833
-0.209155
-0.204507
-0.199857
-0.195292
-0.190635
-0.186267
-0.236924
-0.232143
-0.227369
-0.222599
-0.217834
-0.21307
-0.208324
-0.20356
-0.198871
-0.194069
-0.189556
-0.245987
-0.241186
-0.236378
-0.231561
-0.226732
-0.221895
-0.217043
-0.212197
-0.207315
-0.202498
-0.197545
-0.192876
-0.255114
-0.250325
-0.245514
-0.240679
-0.235819
-0.230932
-0.226022
-0.221082
-0.216134
-0.211132
-0.206184
-0.201071
-0.196236
-0.264252
-0.25951
-0.254731
-0.249914
-0.245054
-0.240153
-0.235208
-0.230225
-0.225195
-0.220146
-0.215021
-0.209938
-0.204658
-0.199644
-0.268683
-0.263977
-0.259214
-0.254393
-0.249511
-0.244569
-0.239567
-0.234511
-0.229392
-0.22424
-0.218994
-0.213774
-0.208321
-0.203112
-0.277771
-0.273186
-0.268522
-0.26378
-0.258958
-0.254056
-0.249076
-0.244017
-0.238889
-0.23368
-0.228427
-0.22306
-0.21771
-0.212083
-0.206649
-0.286673
-0.282271
-0.277763
-0.273151
-0.268436
-0.263619
-0.2587
-0.253683
-0.248568
-0.243368
-0.238069
-0.232715
-0.227232
-0.221758
-0.215965
-0.21032
-0.291115
-0.286836
-0.282418
-0.277868
-0.273188
-0.268381
-0.263449
-0.258398
-0.253228
-0.247955
-0.242567
-0.237112
-0.231516
-0.225943
-0.220022
-0.214092
-0.29955
-0.2956
-0.291464
-0.287153
-0.282677
-0.278042
-0.273252
-0.268312
-0.263229
-0.258006
-0.25266
-0.247181
-0.241624
-0.235921
-0.230225
-0.224377
-0.21852
-0.303859
-0.300118
-0.296149
-0.291966
-0.287581
-0.283003
-0.27824
-0.273298
-0.268187
-0.262911
-0.257492
-0.251921
-0.246255
-0.240458
-0.234625
-0.22893
-0.22273
-0.311364
-0.308156
-0.304657
-0.300883
-0.296852
-0.292578
-0.288074
-0.283349
-0.278414
-0.273281
-0.267954
-0.26246
-0.256796
-0.251009
-0.245117
-0.239095
-0.23334
-0.226683
-0.315306
-0.312419
-0.309196
-0.305651
-0.301802
-0.297665
-0.293254
-0.288584
-0.283666
-0.278517
-0.273145
-0.267574
-0.261815
-0.255892
-0.249881
-0.243628
-0.237654
-0.230666
-0.321296
-0.319151
-0.316621
-0.313712
-0.310434
-0.306801
-0.302831
-0.29854
-0.293944
-0.289059
-0.283904
-0.278491
-0.272844
-0.266987
-0.260916
-0.254759
-0.248271
-0.242025
-0.234784
-0.324601
-0.322872
-0.320733
-0.318176
-0.315204
-0.311828
-0.308062
-0.303921
-0.299426
-0.294594
-0.289446
-0.284002
-0.27828
-0.272323
-0.266099
-0.259777
-0.253066
-0.246541
-0.239063
-0.328635
-0.327735
-0.326441
-0.324721
-0.322554
-0.319932
-0.316856
-0.313335
-0.309384
-0.305021
-0.300268
-0.295147
-0.289685
-0.283895
-0.277838
-0.271461
-0.264961
-0.258037
-0.251232
-0.24351
-0.331149
-0.33068
-0.329832
-0.328554
-0.32681
-0.324579
-0.321848
-0.318619
-0.314902
-0.310712
-0.306072
-0.301003
-0.295541
-0.289696
-0.283543
-0.277018
-0.270334
-0.263198
-0.256112
-0.248135
-0.333476
-0.333427
-0.333024
-0.332201
-0.330908
-0.329104
-0.326764
-0.323877
-0.320443
-0.316472
-0.311986
-0.307005
-0.30157
-0.295687
-0.289448
-0.282783
-0.275912
-0.268562
-0.261197
-0.252951
-0.335031
-0.33562
-0.33597
-0.336002
-0.335638
-0.334811
-0.333466
-0.331558
-0.329062
-0.325964
-0.322266
-0.317983
-0.313132
-0.307759
-0.301867
-0.295557
-0.288764
-0.281709
-0.274143
-0.266502
-0.257974
-0.336682
-0.337592
-0.338313
-0.338759
-0.338846
-0.338491
-0.337624
-0.336183
-0.334122
-0.331414
-0.328045
-0.324022
-0.319354
-0.314086
-0.308222
-0.301868
-0.294965
-0.287735
-0.279952
-0.272039
-0.263215
-0.33821
-0.339407
-0.340465
-0.341297
-0.341815
-0.341926
-0.341544
-0.340592
-0.339004
-0.336736
-0.333753
-0.33005
-0.325624
-0.320517
-0.314728
-0.308366
-0.301379
-0.293991
-0.285994
-0.277818
-0.268682
-0.338167
-0.339632
-0.341081
-0.34244
-0.343625
-0.344545
-0.345103
-0.345201
-0.344747
-0.343658
-0.341868
-0.339324
-0.336002
-0.331883
-0.327
-0.321343
-0.315022
-0.307987
-0.30047
-0.292268
-0.283844
-0.274378
-0.339319
-0.340965
-0.342633
-0.344257
-0.345758
-0.347046
-0.348021
-0.348579
-0.348618
-0.348038
-0.346754
-0.344691
-0.341807
-0.33806
-0.333468
-0.32801
-0.321789
-0.314755
-0.307148
-0.298759
-0.290111
-0.280298
-0.340419
-0.342222
-0.344081
-0.345936
-0.347716
-0.349332
-0.350688
-0.351677
-0.352189
-0.352112
-0.351344
-0.349792
-0.347389
-0.344073
-0.339839
-0.334651
-0.328601
-0.321627
-0.313987
-0.305436
-0.296604
-0.286426
-0.339654
-0.341473
-0.343415
-0.34544
-0.347497
-0.349518
-0.351425
-0.353121
-0.354503
-0.355456
-0.355861
-0.355603
-0.354573
-0.35268
-0.349841
-0.346027
-0.341178
-0.335374
-0.328528
-0.320923
-0.312249
-0.303288
-0.292731
-0.340556
-0.342484
-0.344551
-0.346722
-0.348954
-0.351186
-0.353345
-0.355341
-0.357073
-0.358427
-0.359281
-0.359511
-0.358993
-0.357621
-0.355287
-0.351939
-0.347492
-0.342007
-0.335361
-0.327871
-0.319122
-0.310107
-0.299163
-0.341421
-0.343452
-0.345632
-0.347935
-0.35032
-0.352735
-0.355113
-0.35737
-0.359409
-0.36112
-0.36238
-0.363061
-0.363032
-0.362169
-0.360349
-0.357496
-0.353494
-0.348394
-0.342015
-0.334726
-0.325957
-0.31698
-0.30565
-0.342243
-0.344372
-0.346659
-0.349081
-0.351603
-0.354179
-0.356746
-0.359228
-0.361534
-0.363556
-0.365176
-0.366264
-0.366683
-0.366302
-0.364983
-0.362629
-0.359098
-0.35443
-0.348374
-0.341368
-0.332636
-0.3238
-0.312099
-0.340966
-0.343015
-0.345238
-0.347626
-0.350158
-0.352805
-0.355523
-0.358256
-0.360933
-0.363468
-0.365759
-0.367691
-0.369136
-0.369957
-0.370016
-0.369165
-0.367295
-0.364235
-0.360023
-0.354327
-0.347674
-0.339032
-0.330438
-0.318393
-0.34159
-0.343728
-0.346043
-0.348527
-0.351163
-0.353923
-0.356769
-0.359648
-0.362494
-0.365225
-0.367747
-0.369946
-0.371699
-0.37287
-0.373319
-0.37289
-0.371469
-0.368859
-0.365102
-0.359782
-0.353527
-0.345019
-0.336752
-0.324402
-0.342148
-0.344373
-0.346777
-0.349354
-0.352086
-0.354951
-0.357912
-0.360921
-0.363914
-0.366815
-0.369533
-0.371959
-0.373974
-0.375443
-0.376227
-0.376168
-0.375147
-0.372949
-0.369621
-0.364671
-0.358827
-0.350487
-0.342603
-0.329996
-0.342633
-0.344942
-0.347432
-0.350095
-0.352919
-0.355881
-0.358946
-0.36207
-0.365192
-0.368239
-0.371122
-0.37374
-0.375973
-0.377692
-0.378758
-0.379014
-0.378336
-0.3765
-0.373555
-0.368953
-0.363499
-0.355352
-0.347861
-0.335053
-0.34304
-0.345428
-0.347998
-0.350743
-0.353651
-0.356701
-0.35986
-0.363085
-0.366319
-0.36949
-0.372514
-0.37529
-0.377705
-0.379629
-0.380927
-0.381441
-0.381048
-0.379518
-0.376898
-0.37261
-0.367494
-0.359555
-0.352422
-0.339473
-0.343364
-0.345826
-0.348469
-0.351289
-0.354274
-0.357402
-0.360644
-0.363957
-0.367285
-0.370561
-0.373701
-0.376607
-0.379167
-0.381256
-0.382739
-0.383461
-0.383294
-0.382015
-0.379651
-0.375637
-0.370785
-0.363065
-0.35621
-0.34318
-0.341256
-0.343603
-0.346132
-0.348841
-0.351727
-0.354778
-0.357975
-0.361287
-0.364673
-0.36808
-0.37144
-0.374672
-0.37768
-0.380354
-0.38257
-0.384195
-0.385076
-0.385081
-0.383996
-0.381823
-0.378038
-0.373364
-0.365865
-0.359178
-0.346127
-0.341352
-0.343758
-0.346345
-0.349111
-0.352054
-0.355161
-0.358413
-0.361782
-0.365226
-0.368693
-0.372117
-0.375417
-0.3785
-0.381256
-0.383564
-0.385289
-0.386283
-0.386409
-0.385466
-0.383419
-0.379813
-0.375234
-0.36795
-0.361307
-0.348288
-0.341375
-0.343832
-0.346467
-0.349281
-0.352269
-0.355421
-0.358715
-0.362125
-0.36561
-0.369118
-0.372583
-0.375928
-0.379057
-0.381864
-0.384228
-0.386015
-0.387078
-0.387276
-0.386422
-0.384446
-0.380965
-0.376405
-0.369315
-0.362596
-0.349655
-0.341332
-0.34383
-0.346504
-0.349355
-0.352378
-0.35556
-0.358884
-0.362319
-0.365826
-0.369354
-0.372839
-0.376202
-0.379349
-0.382175
-0.384559
-0.386368
-0.387458
-0.387683
-0.386866
-0.384907
-0.381496
-0.376892
-0.369957
-0.363062
-0.350232
-0.34123
-0.34376
-0.346464
-0.349342
-0.352387
-0.355588
-0.358925
-0.362369
-0.365881
-0.369409
-0.372889
-0.376244
-0.379381
-0.382194
-0.384562
-0.386355
-0.387429
-0.387635
-0.386806
-0.384817
-0.381415
-0.376718
-0.369884
-0.362739
-0.350035
-0.341079
-0.343633
-0.346358
-0.349251
-0.352308
-0.355514
-0.358851
-0.362289
-0.365787
-0.369295
-0.372749
-0.37607
-0.379167
-0.381935
-0.384254
-0.385993
-0.38701
-0.387153
-0.386262
-0.384201
-0.380748
-0.375917
-0.369117
-0.36169
-0.349101
-0.340892
-0.343462
-0.346198
-0.349098
-0.352155
-0.355357
-0.35868
-0.362097
-0.365566
-0.369035
-0.372441
-0.375705
-0.378737
-0.38143
-0.383667
-0.385316
-0.386236
-0.386275
-0.38527
-0.383109
-0.379546
-0.374548
-0.367698
-0.360024
-0.347493
-0.34068
-0.343258
-0.345999
-0.348898
-0.351948
-0.355133
-0.358433
-0.361817
-0.365242
-0.368658
-0.371998
-0.375185
-0.378129
-0.380722
-0.382848
-0.384376
-0.385165
-0.385065
-0.383918
-0.381579
-0.377888
-0.372703
-0.365719
-0.357874
-0.345323
-0.340456
-0.343038
-0.345777
-0.348669
-0.351704
-0.354867
-0.358135
-0.361476
-0.364848
-0.368198
-0.37146
-0.374555
-0.377393
-0.379867
-0.381861
-0.383243
-0.383874
-0.383605
-0.382283
-0.379754
-0.375857
-0.370483
-0.363449
-0.355178
-0.34296
-0.340235
-0.342816
-0.345549
-0.348428
-0.351444
-0.35458
-0.357812
-0.361105
-0.364418
-0.367696
-0.370872
-0.373867
-0.376589
-0.378933
-0.380781
-0.382002
-0.382459
-0.382004
-0.380485
-0.377753
-0.373654
-0.368062
-0.360928
-0.352231
-0.340792
-0.337601
-0.340028
-0.342605
-0.345329
-0.348195
-0.35119
-0.354297
-0.35749
-0.360736
-0.363988
-0.367193
-0.370283
-0.373177
-0.375783
-0.377994
-0.379693
-0.380751
-0.38103
-0.380383
-0.378664
-0.375726
-0.371427
-0.365654
-0.358354
-0.349413
-0.338507
-0.337422
-0.339847
-0.342419
-0.345134
-0.347985
-0.350959
-0.354039
-0.357197
-0.360397
-0.363594
-0.366731
-0.369741
-0.372541
-0.375038
-0.377126
-0.378687
-0.379591
-0.379702
-0.378876
-0.376969
-0.373839
-0.369357
-0.363426
-0.355984
-0.346896
-0.336289
-0.337279
-0.339702
-0.342269
-0.344975
-0.347813
-0.35077
-0.353827
-0.356954
-0.360116
-0.363267
-0.366347
-0.36929
-0.372011
-0.374417
-0.376401
-0.377845
-0.378619
-0.378588
-0.37761
-0.375544
-0.372254
-0.36762
-0.361559
-0.354001
-0.344854
-0.334387
-0.33718
-0.339601
-0.342163
-0.344863
-0.347692
-0.350636
-0.353676
-0.356781
-0.359916
-0.363033
-0.366073
-0.368967
-0.371631
-0.373972
-0.375881
-0.377239
-0.37792
-0.377785
-0.376697
-0.374515
-0.371109
-0.366368
-0.360211
-0.352574
-0.343413
-0.332995
-0.33713
-0.339549
-0.342109
-0.344806
-0.34763
-0.350567
-0.353597
-0.356691
-0.359812
-0.362911
-0.36593
-0.368798
-0.371433
-0.373739
-0.375608
-0.376923
-0.377553
-0.377365
-0.376218
-0.373976
-0.37051
-0.365712
-0.359505
-0.351826
-0.342666
-0.33226
-0.31991
-0.304094
-0.286489
-0.266846
-0.245572
-0.22289
-0.1992
-0.174903
-0.150443
-0.126316
-0.102942
-0.0807608
-0.0601074
-0.041253
-0.0243995
-0.00966062
0.00293472
0.013431
0.0219331
0.0285921
0.0335903
0.0371266
0.0394053
0.0406255
0.0409746
0.0406232
0.0397236
0.0384087
0.0367911
0.0349653
0.0330086
0.0309831
0.0289382
0.026912
0.0249332
0.0230231
0.0211965
0.0194634
0.0178296
0.0162978
0.0148685
0.0135403
0.0123102
0.0111745
0.0101289
0.00916854
0.00828832
0.00748314
0.00674784
0.00607728
0.00546624
0.00490942
0.00440144
0.00393703
0.00351134
0.00312028
0.00276083
0.00243108
0.00213
0.00185703
0.00161167
0.00139303
0.00119985
0.00103061
0.000882907
0.000753834
0.000642178
0.000545769
0.000462895
0.000391813
0.000330971
0.000278996
0.000234682
0.000196974
0.000164951
0.000137815
0.000114869
9.55111e-05
7.9218e-05
6.55387e-05
5.40811e-05
4.451e-05
3.65335e-05
2.99053e-05
2.4409e-05
1.98669e-05
1.61183e-05
1.30385e-05
1.05064e-05
8.43953e-06
6.742e-06
5.36744e-06
4.23139e-06
3.32234e-06
2.5516e-06
1.94848e-06
1.39824e-06
9.88593e-07
5.43108e-07
2.44605e-07
-0.320967
-0.305119
-0.287553
-0.267922
-0.246652
-0.223962
-0.200252
-0.175929
-0.151422
-0.127253
-0.103827
-0.0815987
-0.0608807
-0.0419731
-0.025066
-0.0102752
0.00236975
0.0129127
0.0214586
0.0281586
0.0331949
0.036767
0.0390788
0.0403299
0.0407077
0.0403829
0.0395077
0.0382151
0.036618
0.0348107
0.0328707
0.0308604
0.0288291
0.026815
0.0248471
0.0229467
0.0211287
0.0194032
0.0177761
0.0162504
0.0148264
0.0135028
0.0122769
0.011145
0.0101027
0.00914517
0.00826752
0.0074646
0.00673132
0.00606255
0.00545313
0.00489779
0.00439119
0.00392807
0.00350359
0.00311367
0.00275526
0.00242644
0.00212617
0.0018539
0.00160911
0.00139095
0.00119816
0.00102924
0.000881793
0.000752925
0.00064142
0.000545139
0.000462373
0.00039138
0.00033061
0.000278694
0.00023443
0.000196764
0.000164776
0.000137669
0.000114747
9.54098e-05
7.91339e-05
6.54689e-05
5.40233e-05
4.44623e-05
3.64942e-05
2.9873e-05
2.43825e-05
1.98453e-05
1.61006e-05
1.30242e-05
1.04946e-05
8.43022e-06
6.73437e-06
5.36144e-06
4.22662e-06
3.3185e-06
2.54877e-06
1.94618e-06
1.39664e-06
9.87516e-07
5.42404e-07
2.44328e-07
-0.322979
-0.307063
-0.289577
-0.269971
-0.248713
-0.226013
-0.202272
-0.177903
-0.153314
-0.129077
-0.105554
-0.0832146
-0.0624014
-0.0433906
-0.0263818
-0.0114924
0.00124697
0.0118798
0.0205106
0.0272906
0.0324022
0.0360449
0.0384229
0.0397358
0.0401712
0.0398998
0.0390739
0.0378264
0.0362704
0.0345006
0.0325944
0.0306146
0.0286106
0.026621
0.0246749
0.0227939
0.0209932
0.019283
0.0176695
0.0161558
0.0147425
0.0134284
0.0122108
0.0110863
0.0100505
0.00909874
0.0082262
0.0074278
0.00669853
0.00603334
0.00542714
0.00487474
0.00437087
0.00391031
0.00348824
0.00310055
0.00274418
0.0024172
0.00211855
0.00184765
0.00160401
0.0013868
0.00119478
0.00102649
0.000879567
0.000751107
0.000639902
0.000543881
0.00046133
0.000390513
0.000329888
0.000278093
0.000233928
0.000196344
0.000164426
0.000137377
0.000114504
9.52073e-05
7.89656e-05
6.53293e-05
5.39079e-05
4.43669e-05
3.64156e-05
2.98084e-05
2.43295e-05
1.9802e-05
1.60652e-05
1.29955e-05
1.04714e-05
8.41141e-06
6.71928e-06
5.34935e-06
4.21705e-06
3.31096e-06
2.54294e-06
1.94173e-06
1.39343e-06
9.8522e-07
5.41177e-07
2.43718e-07
-0.325755
-0.30973
-0.292368
-0.272809
-0.25158
-0.228881
-0.205108
-0.180703
-0.156001
-0.131699
-0.107986
-0.0855568
-0.0646105
-0.0454614
-0.0283156
-0.0132909
-0.000420063
0.0103394
0.0190917
0.0259875
0.0312093
0.0349564
0.037433
0.0388386
0.0393608
0.0391703
0.038419
0.0372399
0.0357465
0.0340334
0.0321786
0.030245
0.0282824
0.0263299
0.0244169
0.0225652
0.0207906
0.0191035
0.0175104
0.0160148
0.0146175
0.0133175
0.0121124
0.0109989
0.0099729
0.00902983
0.00816492
0.00737328
0.00664998
0.00599011
0.0053887
0.00484067
0.00434083
0.00388405
0.0034655
0.0030811
0.00272775
0.00240348
0.0021072
0.00183834
0.00159641
0.0013806
0.00118973
0.00102239
0.000876231
0.00074838
0.000637628
0.000541995
0.000459766
0.000389213
0.000328806
0.00027719
0.000233174
0.000195715
0.000163901
0.000136939
0.000114139
9.49035e-05
7.87133e-05
6.51201e-05
5.37347e-05
4.42239e-05
3.62977e-05
2.97115e-05
2.42501e-05
1.9737e-05
1.60123e-05
1.29524e-05
1.04365e-05
8.38322e-06
6.69665e-06
5.33123e-06
4.2027e-06
3.29964e-06
2.53421e-06
1.93504e-06
1.38863e-06
9.81784e-07
5.39328e-07
2.42805e-07
-0.329051
-0.31287
-0.295687
-0.276202
-0.255029
-0.232366
-0.208584
-0.184206
-0.159229
-0.134881
-0.111122
-0.0885306
-0.067433
-0.0481284
-0.0308241
-0.01564
-0.00261096
0.00830406
0.0172081
0.0242514
0.0296154
0.0334989
0.0361056
0.0376345
0.0382727
0.0381909
0.0375401
0.0364534
0.0350444
0.033408
0.0316226
0.0297513
0.0278447
0.0259421
0.0240735
0.0222613
0.0205216
0.0188655
0.0172998
0.0158283
0.0144523
0.0131712
0.0119828
0.0108839
0.00987087
0.00893925
0.00808446
0.00730175
0.00658637
0.00593353
0.00533843
0.00479612
0.00430156
0.00384969
0.00343573
0.0030556
0.00270617
0.00238541
0.00209222
0.00182603
0.00158634
0.00137238
0.00118302
0.00101693
0.000871794
0.000744746
0.000634599
0.000539483
0.000457683
0.000387482
0.000327364
0.000275987
0.00023217
0.000194877
0.000163201
0.000136355
0.000113653
9.44988e-05
7.8377e-05
6.48412e-05
5.35039e-05
4.40333e-05
3.61407e-05
2.95824e-05
2.41443e-05
1.96504e-05
1.59417e-05
1.2895e-05
1.039e-05
8.34566e-06
6.6665e-06
5.30709e-06
4.18358e-06
3.28456e-06
2.52258e-06
1.92613e-06
1.38223e-06
9.77211e-07
5.36862e-07
2.41589e-07
-0.332634
-0.316204
-0.299298
-0.279916
-0.258849
-0.236192
-0.21241
-0.187951
-0.163112
-0.138609
-0.11475
-0.0920244
-0.0707834
-0.0513234
-0.0338549
-0.0185007
-0.00529777
0.00579281
0.0148724
0.0220896
0.0276243
0.0316739
0.0344408
0.0361228
0.036906
0.0369605
0.0364363
0.0354662
0.0341639
0.0326245
0.0309267
0.0291343
0.0272982
0.0254585
0.0236459
0.0218834
0.0201877
0.0185703
0.0170389
0.0155977
0.0142483
0.0129906
0.0118229
0.0107424
0.00974541
0.008828
0.00798574
0.00721411
0.00650851
0.00586436
0.00527703
0.00474176
0.00425364
0.00380773
0.00339933
0.00302436
0.00267966
0.00236318
0.00207375
0.0018108
0.00157386
0.00136218
0.00117469
0.00101013
0.000866263
0.000740208
0.000630818
0.000536348
0.000455083
0.00038532
0.000325563
0.000274485
0.000230916
0.000193829
0.000162327
0.000135626
0.000113045
9.39931e-05
7.7957e-05
6.44929e-05
5.32157e-05
4.37953e-05
3.59446e-05
2.94212e-05
2.40121e-05
1.95423e-05
1.58535e-05
1.28233e-05
1.03319e-05
8.29877e-06
6.62886e-06
5.27696e-06
4.15972e-06
3.26574e-06
2.50806e-06
1.915e-06
1.37425e-06
9.71504e-07
5.3378e-07
2.40071e-07
-0.336678
-0.319299
-0.302873
-0.283663
-0.262707
-0.240195
-0.216494
-0.192041
-0.167237
-0.142675
-0.118754
-0.0959305
-0.0745702
-0.0549716
-0.0373485
-0.0218261
-0.00844435
0.00283314
0.0121051
0.0195173
0.0252473
0.0294898
0.0324448
0.0343081
0.0352643
0.0354821
0.0351104
0.0342808
0.0331072
0.0316849
0.030093
0.0283958
0.026645
0.0248812
0.0231361
0.0214333
0.0197904
0.0182197
0.0167294
0.0153244
0.0140069
0.0127773
0.0116343
0.0105755
0.00959768
0.00869716
0.0078698
0.0071113
0.00641731
0.00578344
0.00520528
0.00467827
0.00419768
0.00375871
0.00335675
0.00298773
0.00264851
0.00233697
0.00205193
0.00179277
0.00155905
0.00135005
0.00116475
0.001002
0.000859644
0.000734765
0.000626287
0.000532592
0.000451967
0.00038273
0.000323404
0.000272684
0.000229412
0.000192574
0.000161279
0.000134751
0.000112316
9.33869e-05
7.74533e-05
6.40753e-05
5.28701e-05
4.35099e-05
3.57094e-05
2.92279e-05
2.38536e-05
1.94127e-05
1.57479e-05
1.27374e-05
1.02624e-05
8.24258e-06
6.58375e-06
5.24086e-06
4.13112e-06
3.24319e-06
2.49068e-06
1.90167e-06
1.36468e-06
9.64668e-07
5.30085e-07
2.38253e-07
-0.339445
-0.322818
-0.306217
-0.287305
-0.266516
-0.24415
-0.220579
-0.196214
-0.17149
-0.146943
-0.123012
-0.100139
-0.0787
-0.0589946
-0.0412393
-0.0255622
-0.0120063
-0.000538553
0.00893593
0.0165591
0.0225045
0.0269631
0.0301314
0.032202
0.0333573
0.0337639