/*--------------------------------*- C++ -*----------------------------------*\
  =========                 |
  \\      /  F ield         | OpenFOAM: The Open Source CFD Toolbox
   \\    /   O peration     | Website:  https://openfoam.org
    \\  /    A nd           | Version:  7
     \\/     M anipulation  |
\*---------------------------------------------------------------------------*/
FoamFile
{
    version     2.0;
    format      ascii;
    class       surfaceScalarField;
    location    "10";
    object      phi;
}
// * * * * * * * * * * * * * * * * * * * * * * * * * * * * * * * * * * * * * //

dimensions      [0 3 -1 0 0 0 0];

internalField   nonuniform List<scalar> 
48038
(
-0.000473843
4.91261e-05
-5.25903e-10
-0.000525665
5.18224e-05
-3.60149e-10
-0.000580268
5.46032e-05
-1.67057e-10
-0.000637713
5.74448e-05
5.5263e-11
-0.00069803
6.03169e-05
3.08288e-10
-0.000761213
6.31825e-05
5.93104e-10
-0.00082721
6.59966e-05
9.10053e-10
-0.000895918
6.87062e-05
1.25885e-09
-0.000967169
7.12497e-05
1.63841e-09
-0.00104073
7.35563e-05
2.04665e-09
-0.00111628
7.55462e-05
2.48046e-09
-0.00119341
7.71303e-05
2.93553e-09
-0.00127162
7.82104e-05
3.40633e-09
-0.00135031
7.868e-05
3.88598e-09
-0.00142874
7.84252e-05
4.36622e-09
-0.00150607
7.73269e-05
4.83739e-09
-0.00158134
7.52643e-05
5.28823e-09
-0.00165346
7.21204e-05
5.70614e-09
-0.00172126
6.77918e-05
6.07722e-09
-0.00178347
6.22036e-05
6.38659e-09
-0.00183881
5.5329e-05
6.61908e-09
-0.00188604
4.72257e-05
6.76001e-09
-0.00192414
3.809e-05
6.79701e-09
-0.00195233
2.8183e-05
6.72123e-09
-0.00197007
1.77414e-05
6.52447e-09
7.89311e-06
6.20398e-09
-0.00197797
-0.000468791
9.74476e-05
-0.000519689
0.000102721
-0.000573234
0.000108148
-0.000629471
0.000113682
-0.000688415
0.00011926
-0.00075004
0.000124808
-0.000814277
0.000130233
-0.000881
0.00013543
-0.000950023
0.000140273
-0.00102109
0.00014462
-0.00109385
0.000148313
-0.00116789
0.000151171
-0.00124268
0.000153
-0.00131759
0.000153587
-0.00139187
0.000152706
-0.00146467
0.000150121
-0.00153499
0.000145592
-0.00160176
0.000138885
-0.00166376
0.000129791
-0.0017197
0.000118151
-0.00176827
0.000103895
-0.00180815
8.71074e-05
-0.00183821
6.81484e-05
-0.00185762
4.75887e-05
-0.0018658
2.5925e-05
4.99221e-06
-0.0018629
-0.000458771
0.000144176
-0.00050784
0.00015179
-0.000559292
0.0001596
-0.000613142
0.000167532
-0.000669373
0.000175491
-0.000727925
0.00018336
-0.000788691
0.000191
-0.000851509
0.000198248
-0.000916152
0.000204915
-0.000982319
0.000210788
-0.00104963
0.000215624
-0.00111762
0.000219158
-0.00118571
0.000221096
-0.00125325
0.000221125
-0.00131946
0.00021891
-0.00138344
0.000214101
-0.00144419
0.000206344
-0.00150059
0.000195291
-0.00155143
0.000180625
-0.00159537
0.000162094
-0.00163104
0.000139559
-0.00165701
0.000113079
-0.00167196
8.30992e-05
-0.00167491
5.05398e-05
-0.00166523
1.62455e-05
-1.79699e-05
-0.00164227
-0.000443933
0.000188554
-0.000490305
0.000198161
-0.000538674
0.000207969
-0.000589014
0.000217872
-0.00064126
0.000227737
-0.000695306
0.000237405
-0.000750993
0.000246687
-0.000808105
0.00025536
-0.00086636
0.000263171
-0.000925404
0.000269831
-0.000984799
0.000275019
-0.00104402
0.000278381
-0.00110246
0.000279532
-0.00115939
0.000278059
-0.00121401
0.000273524
-0.00126538
0.000265474
-0.00131249
0.000253451
-0.00135419
0.000237
-0.00138927
0.000215703
-0.00141639
0.000189208
-0.00143412
0.000157289
-0.00144096
0.000119924
-0.00143539
7.75294e-05
-0.00141611
3.12554e-05
-0.00138266
-1.71993e-05
-6.79186e-05
-0.00133271
-0.000424499
-0.00046736
0.000241021
-0.000511722
0.000252332
-0.000557507
0.000263657
-0.000604595
0.000274825
-0.000652819
0.000285629
-0.000701959
0.000295827
-0.000751737
0.000305138
-0.000801805
0.000313239
-0.000851744
0.00031977
-0.000901054
0.00032433
-0.000949153
0.000326481
-0.00099537
0.000325749
-0.00103894
0.00032163
-0.00107901
0.000313596
-0.00111464
0.000301101
-0.00114478
0.000283594
-0.00116832
0.000260534
-0.00118403
0.000231412
-0.00119061
0.000195788
-0.00118666
0.000153348
-0.00117069
0.00010395
-0.00114102
4.78646e-05
-0.00109596
-1.38088e-05
-0.00103535
-7.78098e-05
-0.000148524
-0.000954745
-0.000439356
0.000279624
-0.000478871
0.000291847
-0.000519159
0.000303944
-0.000560035
0.000315701
-0.000601269
0.000326863
-0.000642573
0.000337131
-0.000683598
0.000346163
-0.000723931
0.000353572
-0.000763085
0.000358923
-0.000800497
0.000361742
-0.000835526
0.00036151
-0.000867451
0.000357674
-0.000895469
0.000349648
-0.000918698
0.000336825
-0.000936179
0.000318582
-0.00094688
0.000294295
-0.000949702
0.000263356
-0.000943479
0.000225189
-0.000926975
0.000179284
-0.00089889
0.000125263
-0.000857783
6.28425e-05
-0.000802081
-7.83709e-06
-0.000729636
-8.62537e-05
-0.000640577
-0.000166869
-0.000260041
-0.000529061
-0.000406717
0.000313301
-0.00044064
0.00032577
-0.000474603
0.000337908
-0.000508357
0.000349455
-0.000541602
0.000360107
-0.00057398
0.000369509
-0.000605075
0.000377259
-0.000634407
0.000382904
-0.000661426
0.000385942
-0.000685513
0.000385829
-0.000705978
0.000381975
-0.000722059
0.000373755
-0.000732927
0.000360516
-0.000737688
0.000341586
-0.000735388
0.000316282
-0.00072502
0.000283927
-0.000705531
0.000243867
-0.000675827
0.000195485
-0.000634767
0.000138224
-0.000581193
7.16884e-05
-0.000513739
-4.61101e-06
-0.000431426
-9.01503e-05
-0.000331232
-0.000186447
-0.000212507
-0.000285594
-0.000396486
-7.60622e-05
-0.000369916
0.000341478
-0.000397611
0.000353465
-0.000424553
0.00036485
-0.000450427
0.000375329
-0.000474864
0.000384545
-0.000497443
0.000392088
-0.000517683
0.000397499
-0.000535044
0.000400265
-0.000548923
0.000399821
-0.000558655
0.000395561
-0.000563513
0.000386833
-0.000562714
0.000372955
-0.000555417
0.00035322
-0.000540735
0.000326904
-0.000517737
0.000293284
-0.000485459
0.000251649
-0.000442911
0.000201319
-0.000389082
0.000141655
-0.000322926
7.20682e-05
-0.000243433
-7.80467e-06
-0.000149486
-9.85572e-05
-4.00416e-05
-0.000199595
8.60764e-05
-0.000312565
0.000232864
-0.000432382
-0.000563003
0.000399382
-0.00032947
0.00036367
-0.000350413
0.000374408
-0.000369772
0.000384209
-0.000387167
0.000392724
-0.000402167
0.000399545
-0.000414292
0.000404213
-0.000423005
0.000406212
-0.000427717
0.000404977
-0.000427785
0.000399889
-0.000422511
0.000390287
-0.000411149
0.000375472
-0.000392909
0.000354715
-0.000366959
0.000327269
-0.000332435
0.00029238
-0.000288445
0.000249294
-0.000234082
0.000197287
-0.000168429
0.000135665
-9.05688e-05
6.37951e-05
4.12387e-07
-1.89131e-05
0.000105458
-0.000112851
0.000225564
-0.000218663
0.000361182
-0.000335213
0.000514678
-0.000466061
0.000685101
-0.000602806
-0.00075784
0.000879938
-0.000285921
0.000379494
-0.000299704
0.000388191
-0.000311052
0.000395557
-0.000319527
0.000401198
-0.000324644
0.000404662
-0.00032587
0.000405439
-0.000322627
0.000402969
-0.000314287
0.000396638
-0.00030018
0.000385781
-0.000279592
0.000369699
-0.000251774
0.000347654
-0.000215943
0.000318884
-0.000171292
0.000282618
-0.000116993
0.000238081
-5.22083e-05
0.000184509
2.39088e-05
0.00012117
0.000112214
4.73602e-05
0.000213525
-3.75162e-05
0.000328702
-0.00013409
0.000458415
-0.000242564
0.000603749
-0.000363997
0.000764816
-0.00049628
0.000943728
-0.000644973
0.00113855
-0.000797627
-0.000977412
0.00135812
-0.000239818
0.000388657
-0.000246144
0.000394516
-0.000249183
0.000398597
-0.000248447
0.000400462
-0.000243405
0.00039962
-0.000233484
0.000395519
-0.000218072
0.000387557
-0.000196519
0.000375085
-0.000168139
0.000357401
-0.000132217
0.000333776
-8.80114e-05
0.000303448
-3.47624e-05
0.000265635
2.83066e-05
0.000219549
0.000101981
0.000164407
0.000187044
9.94469e-05
0.000284277
2.39366e-05
0.000394453
-6.28163e-05
0.000518323
-0.000161386
0.000656666
-0.000272432
0.000810054
-0.000395953
0.000979456
-0.000533399
0.00116481
-0.000681628
0.00136796
-0.000848126
0.00158619
-0.00101586
-0.00121977
0.00182855
-0.000191702
0.000390959
-0.000190376
0.00039319
-0.000184927
0.000393148
-0.000174824
0.000390359
-0.000159499
0.000384294
-0.000138349
0.000374369
-0.00011074
0.000359948
-7.60094e-05
0.000340354
-3.34676e-05
0.000314859
1.75932e-05
0.000282715
7.78992e-05
0.000243142
0.000148182
0.000195352
0.00022918
0.00013855
0.000321633
7.19539e-05
0.000426277
-5.19697e-06
0.000543835
-9.36219e-05
0.000675024
-0.000194005
0.000820519
-0.000306882
0.000981017
-0.00043293
0.00115701
-0.000571944
0.00134928
-0.000725668
0.00155768
-0.000890027
0.00178371
-0.00107416
0.00202403
-0.00125618
-0.00148299
0.00228725
-0.000142086
0.000386279
-0.000133006
0.00038411
-0.000118992
0.000379134
-9.9478e-05
0.000370845
-7.3868e-05
0.000358684
-4.15389e-05
0.00034204
-1.84434e-06
0.000320253
4.58904e-05
0.000292619
0.000102344
0.000258406
0.000168215
0.000216844
0.000244207
0.00016715
0.000331028
0.000108532
0.000429384
4.01944e-05
0.000539977
-3.8639e-05
0.0006635
-0.00012872
0.000800632
-0.000230754
0.00095203
-0.000345403
0.00111831
-0.000473162
0.00130005
-0.00061467
0.00149769
-0.00076958
0.00171167
-0.000939657
0.00194185
-0.0011202
0.00218915
-0.00132146
0.00244985
-0.00151688
-0.00176455
0.00273142
-9.14364e-05
0.000374565
-7.45742e-05
0.000367248
-5.19977e-05
0.000356557
-2.31138e-05
0.000341961
1.2695e-05
0.000322876
5.6067e-05
0.000298668
0.000107659
0.000268662
0.000168139
0.000232139
0.000238188
0.000188356
0.000318492
0.00013654
0.000409738
7.59041e-05
0.000512614
5.65624e-06
0.000627801
-7.49933e-05
0.000755975
-0.000166812
0.000897793
-0.000270538
0.00105389
-0.000386853
0.00122486
-0.000516373
0.00141125
-0.000659553
0.00161346
-0.000816873
0.00183185
-0.000987969
0.00206638
-0.00117419
0.00231687
-0.00137069
0.00258335
-0.00158794
0.00286214
-0.00179568
-0.00206093
0.00315852
-4.0157e-05
-1.55358e-05
0.000342627
1.5548e-05
0.000325474
5.37102e-05
0.000303799
9.9586e-05
0.000277
0.000153826
0.000244428
0.000217094
0.000205394
0.000290062
0.000159171
0.000373408
0.000105011
0.000467812
4.2136e-05
0.000573955
-3.02384e-05
0.000692512
-0.000112901
0.000824149
-0.000206631
0.000969518
-0.000312181
0.00112924
-0.000430261
0.0013039
-0.000561513
0.00149398
-0.000706455
0.00169993
-0.000865502
0.00192185
-0.00103879
0.00215998
-0.0012261
0.00241361
-0.00142781
0.00268245
-0.00163953
0.00296525
-0.00187074
0.00325885
-0.00208928
-0.00236729
0.00356522
4.3762e-05
0.000310297
8.32767e-05
0.000285959
0.000130613
0.000256462
0.000186425
0.000221189
0.000251375
0.000179477
0.000326139
0.000130629
0.000411397
7.39136e-05
0.000507832
8.57532e-06
0.000616129
-6.61609e-05
0.000736967
-0.000151076
0.000871016
-0.00024695
0.00101893
-0.000354542
0.00118132
-0.000474574
0.00135875
-0.000607694
0.00155172
-0.000754477
0.00176052
-0.000915261
0.00198542
-0.0010904
0.0022261
-0.00127948
0.00248252
-0.00148251
0.00275315
-0.00169844
0.00303749
-0.00192387
0.00333265
-0.00216591
0.00363649
-0.00239312
-0.0026775
0.0039467
0.0001031
0.000270306
0.000150983
0.000238076
0.000207419
0.000200026
0.000273082
0.000155526
0.000348656
0.000103903
0.000434834
4.4452e-05
0.000532311
-2.35631e-05
0.000641784
-0.000100899
0.000763948
-0.000188324
0.000899483
-0.000286611
0.00104905
-0.000396514
0.00121326
-0.000518752
0.00139267
-0.000653983
0.00158772
-0.000802744
0.00179872
-0.000965484
0.00202571
-0.00114225
0.0022686
-0.00133329
0.00252655
-0.00153742
0.00279899
-0.00175496
0.00308352
-0.00198297
0.00337928
-0.00221963
0.00368163
-0.00246826
0.00398975
-0.00270124
-0.00298444
0.00429669
0.000162404
0.000222669
0.000218642
0.000181837
0.000284173
0.000134495
0.000359698
8.00006e-05
0.000445929
1.76721e-05
0.000543583
-5.32022e-05
0.000653379
-0.00013336
0.000776032
-0.000223551
0.000912241
-0.000324533
0.00106267
-0.000437045
0.00122795
-0.000561791
0.00140861
-0.000699409
0.00160506
-0.000850436
0.00181754
-0.00101522
0.00204606
-0.001194
0.00229023
-0.00138642
0.00254945
-0.00159251
0.00282223
-0.00181021
0.00310731
-0.00204004
0.00340141
-0.00227707
0.00370316
-0.00252137
0.00400643
-0.00277153
0.00431178
-0.00300659
-0.00328072
0.00460806
0.000221755
0.000167341
0.00028642
0.000117173
0.000361147
5.97681e-05
0.000446676
-5.52765e-06
0.000543751
-7.94033e-05
0.000653121
-0.000162572
0.000775527
-0.000255765
0.00091169
-0.000359714
0.00106229
-0.000475137
0.00122796
-0.000602709
0.0014092
-0.000743037
0.0016064
-0.00089661
0.00181973
-0.00106376
0.00204907
-0.00124456
0.00229398
-0.00143892
0.00255352
-0.00164596
0.0028264
-0.00186539
0.00311042
-0.00209422
0.00340347
-0.00233309
0.00370158
-0.00257518
0.0040028
-0.00282259
0.00430009
-0.00306882
0.00459524
-0.00330174
-0.00355955
0.00487407
0.000281398
0.000104181
0.000354672
4.38986e-05
0.000438833
-2.43925e-05
0.000534661
-0.000101356
0.000642938
-0.000187681
0.000764439
-0.000284073
0.000899909
-0.000391236
0.00105005
-0.000509855
0.00121548
-0.000640567
0.0013967
-0.00078393
0.00159404
-0.000940378
0.0018076
-0.00111016
0.00203715
-0.00129332
0.0022821
-0.00148951
0.00254139
-0.00169822
0.00281341
-0.00191798
0.00309608
-0.00214806
0.00338649
-0.00238464
0.00368174
-0.00262834
0.00397742
-0.00287086
0.0042711
-0.00311628
0.00455563
-0.00335335
0.0048337
-0.00357981
-0.0038157
0.00508984
0.000341728
0.000423928
-3.83005e-05
0.000517907
-0.000118372
0.000624488
-0.000207937
0.000744481
-0.000307674
0.000878663
-0.000418255
0.00102775
-0.000540323
0.00119236
-0.000674468
0.00137298
-0.000821184
0.00156988
-0.000980828
0.00178307
-0.00115357
0.00201222
-0.00133931
0.00225659
-0.00153769
0.00251494
-0.00174786
0.00278552
-0.00196879
0.00306594
-0.0021984
0.00335339
-0.0024355
0.00364437
-0.00267562
0.00393537
-0.00291933
0.00422193
-0.00315743
0.00450142
-0.00339576
0.00476736
-0.00361929
0.00502303
-0.00383548
-0.00404615
0.00525347
0.000494859
-0.000129877
0.000599182
-0.000222695
0.000717104
-0.000325858
0.000849432
-0.000440002
0.000996902
-0.000565725
0.00116014
-0.000703557
0.00133959
-0.000853918
0.00153548
-0.00101707
0.00174773
-0.00119308
0.0019759
-0.00138174
0.00221908
-0.0015825
0.00247588
-0.00179449
0.00274435
-0.00201632
0.00302198
-0.00224641
0.00330572
-0.00248215
0.00359212
-0.00272191
0.00387739
-0.00296088
0.00415772
-0.00319966
0.00442906
-0.00342877
0.0046889
-0.0036556
0.00493215
-0.00386254
0.00516232
-0.00406564
-0.00425031
0.00536648
0.00056823
-0.000231409
0.000683534
-0.000337999
0.000813458
-0.000455782
0.000958759
-0.000585304
0.00112006
-0.000727027
0.00129779
-0.000881287
0.00149212
-0.00104824
0.00170288
-0.00122783
0.0019295
-0.0014197
0.00217093
-0.00162317
0.00242562
-0.00183718
0.00269142
-0.0020603
0.00296568
-0.00229058
0.00324524
-0.00252597
0.00352657
-0.00276347
0.00380586
-0.0030012
0.00407935
-0.00323438
0.00434342
-0.00346372
0.00459478
-0.00368014
0.00483142
-0.00389224
0.00504998
-0.0040811
0.00525403
-0.00426969
-0.00442976
0.00543349
0.000644831
-0.000343559
0.000771803
-0.000464971
0.000914381
-0.000598361
0.0010732
-0.000744118
0.00124865
-0.000902484
0.00144087
-0.0010735
0.00164959
-0.00125697
0.00187413
-0.00145237
0.00211329
-0.00165886
0.00236534
-0.00187523
0.002628
-0.00209984
0.00289846
-0.00233075
0.00317344
-0.00256557
0.00344935
-0.00280189
0.00372246
-0.00303658
0.00398902
-0.00326776
0.00424566
-0.00349102
0.00448934
-0.0037074
0.00471783
-0.00390863
0.00492989
-0.0041043
0.00512393
-0.00427514
0.00530341
-0.00444917
-0.00458764
0.00546129
0.000725393
0.000864687
-0.000604265
0.00102045
-0.000754123
0.00119307
-0.000916742
0.00138263
-0.00109204
0.00158878
-0.00127966
0.00181073
-0.00147891
0.00204713
-0.00168878
0.00229611
-0.00190784
0.00255523
-0.00213434
0.00282153
-0.00236614
0.00309165
-0.00260088
0.00336198
-0.00283589
0.00362878
-0.00306868
0.00388848
-0.00329628
0.00413775
-0.00351703
0.00437399
-0.00372725
0.00459502
-0.00392843
0.0047998
-0.00411341
0.00498796
-0.00429246
0.00515942
-0.0044466
0.00531743
-0.00460718
-0.00472785
0.00545763
0.000962633
-0.000756394
0.00113185
-0.000923342
0.00131819
-0.00110308
0.00152125
-0.0012951
0.00174012
-0.00149852
0.00197333
-0.00171213
0.00221886
-0.0019343
0.0024741
-0.00216309
0.002736
-0.00239624
0.00300111
-0.00263125
0.00326577
-0.00286554
0.00352631
-0.00309643
0.00377923
-0.0033216
0.00402147
-0.00353853
0.00425047
-0.00374603
0.00446457
-0.00394135
0.00466262
-0.00412648
0.00484468
-0.00429548
0.00501118
-0.00445895
0.00516317
-0.00459859
0.00530356
-0.00474758
-0.0048544
0.00543011
0.00106573
-0.000921618
0.00124829
-0.00110591
0.00144774
-0.00130253
0.00166306
-0.00151042
0.00189267
-0.00172814
0.00213441
-0.00195386
0.00238555
-0.00218544
0.0026429
-0.00242044
0.00290293
-0.00265627
0.00316197
-0.00289029
0.00341638
-0.00311994
0.00366278
-0.00334284
0.00389824
-0.00355706
0.0041205
-0.00376079
0.00432793
-0.00395347
0.00451992
-0.00413334
0.00469628
-0.00430283
0.00485799
-0.00445719
0.00500602
-0.00460698
0.00514216
-0.00473473
0.00526888
-0.00487429
-0.0049709
0.00538538
0.00117363
0.00136893
-0.0013012
0.00158024
-0.00151384
0.00180588
-0.00173606
0.00204355
-0.00196581
0.0022904
-0.00220071
0.00254312
-0.00243816
0.00279811
-0.00267543
0.00305166
-0.00290983
0.00330018
-0.0031388
0.00354037
-0.00336013
0.00376947
-0.00357194
0.00398536
-0.00377295
0.00418672
-0.00396215
0.00437292
-0.00413967
0.00454427
-0.00430469
0.00470136
-0.00445991
0.00484583
-0.00460166
0.00497891
-0.00474007
0.00510277
-0.00485859
0.00521935
-0.00499087
-0.00508032
0.00532877
0.00149234
-0.00150804
0.00171364
-0.00173513
0.00194699
-0.00196941
0.00218941
-0.00220823
0.00243749
-0.0024488
0.00268755
-0.00268822
0.00293584
-0.00292372
0.00317878
-0.00315276
0.00341316
-0.00337318
0.00363632
-0.0035833
0.00384635
-0.00378196
0.00404205
-0.00396864
0.00422305
-0.00414315
0.00438959
-0.00430621
0.00454273
-0.00445783
0.00468356
-0.00460075
0.00481411
-0.00473221
0.00493562
-0.00486157
0.00505035
-0.00497332
0.00515968
-0.0051002
-0.0051849
0.00526425
0.00161661
-0.00172462
0.00184539
-0.00196392
0.00208329
-0.0022073
0.00232677
-0.00245171
0.00257206
-0.00269409
0.00281537
-0.00293152
0.00305309
-0.00316145
0.0032821
-0.00338176
0.00349983
-0.00359091
0.00370448
-0.00378795
0.00389503
-0.00397251
0.00407121
-0.00414483
0.00423348
-0.00430542
0.00438277
-0.0044555
0.00452058
-0.00459564
0.00464829
-0.00472846
0.00476804
-0.00485195
0.00488085
-0.00497439
0.00498901
-0.00508148
0.00509327
-0.00520447
-0.00528622
0.0051946
0.0017394
0.00197267
-0.00219719
0.00221161
-0.00244624
0.00245233
-0.00269244
0.00269097
-0.00293272
0.00292391
-0.00316446
0.00314802
-0.00338556
0.00336083
-0.00359458
0.00356064
-0.00379072
0.00374653
-0.00397384
0.00391837
-0.00414436
0.00407668
-0.00430314
0.00422254
-0.00445128
0.00435731
-0.00459027
0.00448272
-0.00472105
0.00460019
-0.00484593
0.00471179
-0.00496355
0.00481823
-0.00508083
0.00492175
-0.00518501
0.00502248
-0.00530519
-0.00538537
0.00512162
0.0020926
-0.00243164
0.00232897
-0.0026826
0.00256328
-0.00292675
0.00279188
-0.00316132
0.00301162
-0.0033842
0.00322005
-0.003594
0.00341555
-0.00379007
0.00359728
-0.00397245
0.00376522
-0.00414178
0.00391997
-0.0042991
0.00406263
-0.0044458
0.00419467
-0.00458332
0.00431765
-0.00471325
0.00443332
-0.00483672
0.00454299
-0.0049556
0.00464854
-0.00506909
0.00475034
-0.00518262
0.00485062
-0.00528529
0.0049488
-0.00540337
-0.00548303
0.00504646
0.00220248
-0.00266384
0.00243282
-0.00291294
0.00265754
-0.00315147
0.00287343
-0.00337722
0.00307805
-0.00358882
0.00326979
-0.00378573
0.00344788
-0.00396816
0.00361236
-0.00413693
0.0037639
-0.00429331
0.00390366
-0.00443887
0.00403311
-0.00457525
0.00415388
-0.00470409
0.00426754
-0.00482691
0.00437571
-0.00494489
0.00447952
-0.00505941
0.00458058
-0.00517016
0.00467897
-0.00528101
0.00477694
-0.00538326
0.00487316
-0.00549959
-0.00557966
0.00496979
0.00230001
0.0025213
-0.00313423
0.00273388
-0.00336405
0.00293526
-0.00357859
0.0031238
-0.00377736
0.00329878
-0.00396071
0.00346025
-0.00412964
0.00360896
-0.00428563
0.00374609
-0.00443044
0.00387315
-0.00456593
0.00399176
-0.00469386
0.00410355
-0.00481588
0.00420996
-0.00493332
0.0043124
-0.00504733
0.00441178
-0.00515879
0.00450946
-0.00526785
0.00460526
-0.00537681
0.00470148
-0.00547948
0.00479606
-0.00559416
-0.0056756
0.004892
0.00259329
-0.00334403
0.00279199
-0.00356275
0.00297791
-0.00376451
0.0031503
-0.00394975
0.00330924
-0.00411965
0.00345548
-0.00427588
0.00359027
-0.00442042
0.00371514
-0.00455531
0.00383172
-0.00468251
0.00394163
-0.00480377
0.00404635
-0.0049206
0.00414714
-0.00503412
0.00424517
-0.00514536
0.00434115
-0.00525476
0.00443618
-0.00536288
0.00452992
-0.00547055
0.00462472
-0.00557428
0.00471777
-0.00568722
-0.00577114
0.00481332
0.00264845
0.00283233
-0.00374664
0.00300268
-0.00393486
0.00315956
-0.00410664
0.00330375
-0.00426383
0.00343649
-0.00440863
0.00355937
-0.0045433
0.00367404
-0.00466998
0.00378213
-0.0047906
0.00388512
-0.00490676
0.0039843
-0.00501978
0.00408071
-0.00513053
0.00417528
-0.00523992
0.00426853
-0.00534801
0.00436137
-0.00545572
0.00445336
-0.00556255
0.00454687
-0.00566778
0.0046384
-0.00577875
-0.0058666
0.00473386
0.00285604
-0.00391551
0.00301137
-0.00409019
0.00315391
-0.00424917
0.00328494
-0.00439486
0.00340605
-0.00452975
0.00351895
-0.0046562
0.00362529
-0.00477632
0.00372656
-0.00489188
0.00382407
-0.00500426
0.00391886
-0.00511457
0.00401179
-0.00522346
0.00410352
-0.00533166
0.00419449
-0.00543898
0.00428537
-0.00554661
0.00437577
-0.00565295
0.00446799
-0.00576
0.00455799
-0.00586875
-0.00596225
0.00465365
0.00286471
0.00300605
-0.00423153
0.00313572
-0.00437884
0.00325533
-0.00451448
0.00336663
-0.00464105
0.00347131
-0.00476087
0.00357089
-0.0048759
0.00366671
-0.00498769
0.00375982
-0.00509737
0.00385107
-0.00520582
0.00394111
-0.0053135
0.00403044
-0.00542098
0.00411938
-0.00552792
0.0042084
-0.00563564
0.00429722
-0.00574176
0.00438798
-0.00585076
0.00447652
-0.00595729
-0.00605816
0.00457243
0.00298889
-0.00436024
0.00310729
-0.00449725
0.00321719
-0.00462437
0.00332033
-0.00474418
0.00341828
-0.00485882
0.00351239
-0.00497002
0.00360378
-0.00507907
0.0036933
-0.00518689
0.0037816
-0.00529412
0.00386917
-0.00540107
0.00395635
-0.00550816
0.00404342
-0.00561499
0.00413063
-0.00572285
0.00421784
-0.00582897
0.00430662
-0.00593955
0.00439349
-0.00604416
-0.00615553
0.00449085
0.00296195
0.00307069
-0.00460599
0.00317244
-0.00472612
0.00326883
-0.00484057
0.00336128
-0.00495127
0.00345093
-0.00505967
0.00353867
-0.00516681
0.00362516
-0.00527338
0.0037109
-0.00537986
0.00379625
-0.00548642
0.00388145
-0.00559336
0.00396673
-0.00570028
0.00405218
-0.00580829
0.00413787
-0.00591466
0.0042242
-0.00602588
0.00430776
-0.00612772
-0.006253
0.00440524
0.00302654
-0.00470657
0.00312152
-0.0048211
0.00321238
-0.00493143
0.00330033
-0.00503921
0.00338628
-0.00514563
0.00347095
-0.00525148
0.00355484
-0.00535728
0.00363831
-0.00546333
0.00372163
-0.00556974
0.00380497
-0.0056767
0.00388853
-0.00578383
0.00397229
-0.00589205
0.00405657
-0.00599894
0.00414115
-0.00611045
0.00422505
-0.00621163
-0.00633525
0.00430731
0.0029786
0.00306793
-0.00491043
0.00315417
-0.00501767
0.00323831
-0.00512335
0.0033211
-0.00522841
0.00340305
-0.00533344
0.00348457
-0.00543879
0.0035659
-0.00554466
0.00364725
-0.00565109
0.00372874
-0.00575819
0.00381053
-0.00586563
0.0038926
-0.00597412
0.00397528
-0.00608163
0.00405786
-0.00619303
0.00414199
-0.00629575
-0.00641893
0.00422567
0.00301151
0.00309386
-0.00510002
0.00317474
-0.00520424
0.00325473
-0.0053084
0.00333424
-0.00541294
0.00341353
-0.00551808
0.00349281
-0.00562394
0.00357223
-0.00573051
0.00365189
-0.00583784
0.00373191
-0.00594565
0.0038123
-0.00605451
0.0038933
-0.00616263
0.0039746
-0.00627433
0.00405703
-0.00637818
-0.00650103
0.00413913
0.00303198
-0.00517901
0.00310999
-0.00528225
0.00318745
-0.00538586
0.00326467
-0.00549015
0.00334184
-0.00559526
0.00341912
-0.00570122
0.00349663
-0.00580801
0.00357444
-0.00591565
0.00365268
-0.00602389
0.00373134
-0.00613318
0.00381071
-0.006242
0.00389044
-0.00635406
0.00397153
-0.00645927
-0.00658237
0.00405287
0.00296891
0.00304432
-0.00535765
0.00311943
-0.00546097
0.00319446
-0.00556518
0.00326956
-0.00567036
0.00334486
-0.00577652
0.00342044
-0.0058836
0.00349639
-0.0059916
0.00357282
-0.00610031
0.00364973
-0.00621009
0.00372739
-0.00631966
0.00380556
-0.00643223
0.00388512
-0.00653884
-0.00666209
0.00396485
0.00297791
0.00305077
-0.00553383
0.00312367
-0.00563808
0.00319673
-0.00574342
0.00327004
-0.00584983
0.00334369
-0.00595725
0.00341775
-0.00606566
0.00349232
-0.00617489
0.00356744
-0.00628521
0.00364335
-0.00639557
0.00371984
-0.00650871
0.00379774
-0.00661674
-0.0067403
0.00387595
0.00298154
0.00305234
-0.00570888
0.00312336
-0.00581444
0.00319467
-0.00592115
0.00326636
-0.00602894
0.0033385
-0.0061378
0.00341118
-0.00624757
0.00348446
-0.00635849
0.00355855
-0.00646966
0.00363328
-0.00658345
0.00370943
-0.00669289
-0.00681678
0.00378591
0.0029805
0.00304947
-0.00588341
0.00311877
-0.00599044
0.00318847
-0.00609864
0.00325865
-0.00620798
0.0033294
-0.00631832
0.00340077
-0.00642986
0.00347298
-0.00654187
0.00354588
-0.00665634
0.00362017
-0.00676718
-0.00689146
0.00369485
0.00297507
-0.00595031
0.00304233
-0.0060577
0.00311001
-0.00616632
0.00317819
-0.00627616
0.00324696
-0.0063871
0.00331638
-0.00649928
0.00338665
-0.00661213
0.00345763
-0.00672732
0.00352999
-0.00683954
-0.00696423
0.00360275
0.00290017
0.00296536
-0.00612289
0.00303099
-0.00623195
0.00309713
-0.0063423
0.00316388
-0.00645384
0.00323129
-0.0065667
0.00329955
-0.00668039
0.00336854
-0.00679631
0.00343888
-0.00690988
-0.007035
0.00350965
0.00288786
0.00295141
-0.00629549
0.00301547
-0.00640636
0.00308015
-0.00651852
0.0031455
-0.00663205
0.00321169
-0.00674658
0.00327863
-0.00686325
0.00334687
-0.00697812
-0.00710368
0.00341556
0.00287128
0.00293322
-0.00646831
0.00299578
-0.00658108
0.00305902
-0.00669529
0.00312308
-0.00681064
0.0031879
-0.00692806
0.00325398
-0.0070442
-0.0071702
0.0033205
0.0028504
0.00291079
0.00297187
-0.00675637
0.00303374
-0.00687252
0.00309637
-0.00699068
0.00316021
-0.00710805
-0.00723449
0.0032245
0.00288405
0.00294369
-0.00693215
0.00300406
-0.00705106
0.00306561
-0.0071696
-0.00729646
0.00312758
0.00285293
0.002911
-0.00710913
0.00297019
-0.00722878
-0.00735605
0.00302978
0.00281721
0.00287397
-0.00728555
-0.0074132
0.00293113
0.002777
0.00283166
0.002777
0.00728555
0.0074132
0.00283166
0.00281721
0.00710913
0.00287397
0.00722878
0.00735605
0.00293113
0.00285293
0.00693215
0.002911
0.00705106
0.00297019
0.0071696
0.00729646
0.00302978
0.00288405
0.00675637
0.00294369
0.00687252
0.00300406
0.00699068
0.00306561
0.00710805
0.00723449
0.00312758
0.0028504
0.00646831
0.00291079
0.00658108
0.00297187
0.00669529
0.00303374
0.00681064
0.00309637
0.00692806
0.00316022
0.0070442
0.0071702
0.0032245
0.00287128
0.00629549
0.00293322
0.00640636
0.00299578
0.00651852
0.00305902
0.00663205
0.00312308
0.00674658
0.0031879
0.00686325
0.00325398
0.00697812
0.00710368
0.0033205
0.00288786
0.00612289
0.00295141
0.00623195
0.00301547
0.0063423
0.00308015
0.00645384
0.0031455
0.0065667
0.00321169
0.00668039
0.00327863
0.00679631
0.00334687
0.00690988
0.007035
0.00341556
0.00290017
0.00595031
0.00296536
0.0060577
0.00303099
0.00616632
0.00309713
0.00627616
0.00316388
0.0063871
0.00323129
0.00649928
0.00329955
0.00661213
0.00336854
0.00672732
0.00343888
0.00683954
0.00696423
0.00350965
0.00290817
0.00577759
0.00297507
0.00588341
0.00304233
0.00599044
0.00311001
0.00609864
0.00317819
0.00620798
0.00324696
0.00631832
0.00331638
0.00642986
0.00338665
0.00654187
0.00345763
0.00665634
0.00352999
0.00676718
0.00689146
0.00360275
0.0029805
0.00570888
0.00304947
0.00581444
0.00311877
0.00592114
0.00318847
0.00602894
0.00325865
0.0061378
0.0033294
0.00624757
0.00340077
0.00635848
0.00347298
0.00646966
0.00354588
0.00658344
0.00362017
0.00669289
0.00681678
0.00369485
0.00298154
0.00553383
0.00305234
0.00563808
0.00312336
0.00574342
0.00319467
0.00584983
0.00326636
0.00595725
0.0033385
0.00606566
0.00341118
0.00617489
0.00348446
0.00628521
0.00355855
0.00639557
0.00363328
0.00650871
0.00370943
0.00661674
0.0067403
0.00378591
0.00297791
0.00535765
0.00305077
0.00546097
0.00312367
0.00556518
0.00319673
0.00567036
0.00327004
0.00577652
0.00334369
0.0058836
0.00341775
0.0059916
0.00349232
0.00610031
0.00356744
0.00621009
0.00364335
0.00631966
0.00371984
0.00643223
0.00379774
0.00653884
0.00666209
0.00387595
0.00296891
0.00517901
0.00304432
0.00528225
0.00311943
0.00538586
0.00319446
0.00549015
0.00326956
0.00559526
0.00334486
0.00570122
0.00342044
0.00580801
0.00349639
0.00591565
0.00357282
0.00602389
0.00364973
0.00613318
0.00372739
0.006242
0.00380556
0.00635406
0.00388512
0.00645927
0.00658237
0.00396485
0.00303198
0.00510002
0.00310999
0.00520424
0.00318745
0.0053084
0.00326467
0.00541294
0.00334184
0.00551808
0.00341912
0.00562394
0.00349663
0.00573051
0.00357444
0.00583784
0.00365268
0.00594565
0.00373134
0.00605451
0.00381071
0.00616263
0.00389044
0.00627433
0.00397153
0.00637818
0.00650103
0.00405287
0.00301151
0.00491043
0.00309386
0.00501767
0.00317474
0.00512335
0.00325473
0.00522841
0.00333424
0.00533344
0.00341353
0.00543879
0.00349281
0.00554466
0.00357223
0.00565109
0.00365189
0.00575819
0.00373191
0.00586563
0.0038123
0.00597412
0.0038933
0.00608162
0.0039746
0.00619303
0.00405703
0.00629575
0.00641893
0.00413913
0.0029786
0.00470657
0.00306793
0.0048211
0.00315417
0.00493143
0.00323831
0.00503921
0.0033211
0.00514562
0.00340305
0.00525148
0.00348457
0.00535727
0.0035659
0.00546333
0.00364725
0.00556974
0.00372874
0.00567669
0.00381053
0.00578383
0.0038926
0.00589205
0.00397528
0.00599894
0.00405787
0.00611045
0.00414199
0.00621163
0.00633525
0.00422567
0.00302654
0.00460599
0.00312152
0.00472612
0.00321238
0.00484057
0.00330033
0.00495127
0.00338628
0.00505967
0.00347095
0.00516681
0.00355484
0.00527338
0.00363831
0.00537986
0.00372164
0.00548642
0.00380497
0.00559336
0.00388853
0.00570028
0.00397229
0.00580829
0.00405658
0.00591466
0.00414115
0.00602588
0.00422506
0.00612772
0.006253
0.00430731
0.00296195
0.00436023
0.00307069
0.00449725
0.00317244
0.00462437
0.00326883
0.00474418
0.00336128
0.00485882
0.00345093
0.00497002
0.00353867
0.00507907
0.00362516
0.00518689
0.0037109
0.00529412