/*--------------------------------*- C++ -*----------------------------------*\
  =========                 |
  \\      /  F ield         | OpenFOAM: The Open Source CFD Toolbox
   \\    /   O peration     | Website:  https://openfoam.org
    \\  /    A nd           | Version:  7
     \\/     M anipulation  |
\*---------------------------------------------------------------------------*/
FoamFile
{
    version     2.0;
    format      ascii;
    class       volVectorField;
    location    "10";
    object      U;
}
// * * * * * * * * * * * * * * * * * * * * * * * * * * * * * * * * * * * * * //

dimensions      [0 1 -1 0 0 0 0];

internalField   nonuniform List<vector> 
24200
(
(-0.214357 0.00344511 3.87846e-21)
(-0.228832 0.00350597 3.78931e-21)
(-0.243226 0.00356819 1.82019e-21)
(-0.257547 0.00362896 1.4769e-21)
(-0.271792 0.00368505 -2.92402e-21)
(-0.285942 0.00373288 7.96886e-22)
(-0.299968 0.00376849 -2.9176e-21)
(-0.313825 0.00378755 2.35872e-21)
(-0.327455 0.00378538 2.60194e-21)
(-0.340785 0.00375697 -6.82157e-23)
(-0.353728 0.00369701 1.76204e-22)
(-0.36618 0.00359996 9.83309e-22)
(-0.378026 0.00346013 1.02663e-21)
(-0.389133 0.00327174 -2.30448e-21)
(-0.399357 0.00302909 -1.35701e-22)
(-0.408541 0.00272678 -3.31375e-21)
(-0.416516 0.00235994 -5.48354e-21)
(-0.423106 0.00192481 3.65463e-21)
(-0.42813 0.00141937 1.68794e-21)
(-0.43141 0.000844452 1.26787e-21)
(-0.432779 0.000205056 1.61721e-21)
(-0.432101 -0.000487432 1.90692e-21)
(-0.429292 -0.00121254 1.18969e-21)
(-0.424298 -0.00194736 -1.15213e-21)
(-0.417124 -0.00267111 1.23042e-21)
(-0.408202 -0.00330388 -6.72909e-22)
(-0.2125 0.0103032 6.29411e-21)
(-0.22668 0.0104829 1.03589e-21)
(-0.240748 0.0106665 7.33453e-21)
(-0.254711 0.0108455 -4.70206e-21)
(-0.268563 0.0110103 8.87123e-21)
(-0.282282 0.0111501 5.99694e-21)
(-0.295838 0.0112531 4.34502e-21)
(-0.309183 0.0113064 1.64088e-21)
(-0.322255 0.0112959 -3.2459e-21)
(-0.334981 0.0112066 7.30615e-21)
(-0.34727 0.0110229 3.97338e-21)
(-0.359017 0.0107282 -5.37428e-21)
(-0.370106 0.0103055 -2.08256e-21)
(-0.380404 0.00973774 9.91271e-21)
(-0.389765 0.00900803 -9.29355e-22)
(-0.398033 0.00810027 8.80125e-21)
(-0.405041 0.00700008 6.51862e-21)
(-0.410613 0.00569602 -7.3645e-21)
(-0.414571 0.00418172 -1.9166e-21)
(-0.416737 0.00245892 7.3445e-22)
(-0.416942 0.000541296 -2.12754e-21)
(-0.41504 -0.00153908 -4.45101e-21)
(-0.410942 -0.00372213 2.51707e-21)
(-0.404583 -0.00593365 2.66516e-21)
(-0.39591 -0.00810742 -7.8829e-22)
(-0.385344 -0.0100274 6.43946e-21)
(-0.208811 0.0170673 -2.13901e-20)
(-0.222405 0.0173572 -1.47701e-20)
(-0.235828 0.0176528 -7.22922e-21)
(-0.249082 0.0179401 -2.35911e-20)
(-0.262156 0.0182029 -7.72347e-21)
(-0.275026 0.0184236 -1.86434e-20)
(-0.287654 0.0185823 -7.1848e-21)
(-0.299988 0.0186577 2.55353e-21)
(-0.311964 0.0186266 -1.2365e-20)
(-0.323503 0.0184645 4.03867e-21)
(-0.33451 0.0181452 -7.65453e-21)
(-0.344879 0.0176418 3.69787e-21)
(-0.354489 0.0169266 3.80777e-21)
(-0.363208 0.0159715 -6.64042e-21)
(-0.37089 0.0147492 1.12132e-20)
(-0.37738 0.0132335 -1.69858e-20)
(-0.382515 0.0114009 1.28547e-21)
(-0.386123 0.0092323 -4.44842e-22)
(-0.388031 0.0067163 3.99963e-21)
(-0.388064 0.00385351 -5.20723e-21)
(-0.386053 0.000662773 -4.16738e-22)
(-0.381843 -0.00280917 -3.81311e-21)
(-0.375328 -0.00646829 -4.82322e-21)
(-0.366435 -0.0101784 -1.02033e-22)
(-0.355006 -0.0138178 6.95629e-22)
(-0.341332 -0.0171164 -1.1372e-20)
(-0.203334 0.0236762 -5.329e-21)
(-0.216062 0.0240621 -7.97599e-21)
(-0.228533 0.0244545 -1.63329e-20)
(-0.240743 0.0248338 2.97452e-20)
(-0.252674 0.0251775 5.81712e-22)
(-0.264295 0.0254608 2.54011e-20)
(-0.275564 0.0256565 1.83111e-20)
(-0.286421 0.0257348 -1.03795e-20)
(-0.296797 0.0256638 1.97704e-20)
(-0.306607 0.0254094 -5.6953e-21)
(-0.315753 0.0249361 1.01348e-20)
(-0.324126 0.0242069 1.58245e-21)
(-0.331602 0.0231841 4.88563e-21)
(-0.338049 0.0218298 -1.2828e-20)
(-0.343323 0.0201071 -8.61817e-21)
(-0.347274 0.0179808 9.53754e-21)
(-0.349744 0.0154191 8.90224e-21)
(-0.350572 0.0123961 -1.56528e-20)
(-0.349592 0.0088945 1.22709e-20)
(-0.346643 0.00491171 3.47584e-21)
(-0.341561 0.000467117 5.25093e-21)
(-0.334189 -0.00438674 1.93887e-20)
(-0.324404 -0.00953454 -4.90338e-21)
(-0.312133 -0.0147777 -4.07108e-21)
(-0.297135 -0.0199094 -9.54405e-21)
(-0.279185 -0.0247528 8.01128e-22)
(-0.196137 0.0300706 -7.29485e-22)
(-0.207735 0.0305332 1.86669e-20)
(-0.218965 0.0310018 1.26045e-20)
(-0.229816 0.031451 -5.55984e-21)
(-0.240263 0.0318524 -1.42648e-20)
(-0.250269 0.0321742 9.34422e-21)
(-0.259782 0.0323818 -4.90906e-21)
(-0.268738 0.0324374 -3.87479e-21)
(-0.27706 0.0323009 1.03302e-20)
(-0.284659 0.0319294 9.40976e-22)
(-0.291433 0.0312783 4.24604e-21)
(-0.297271 0.0303016 -7.40789e-21)
(-0.302048 0.0289526 -1.99668e-20)
(-0.305635 0.0271849 -8.92139e-21)
(-0.307892 0.0249534 -8.75496e-22)
(-0.308677 0.0222154 4.85536e-21)
(-0.307841 0.0189325 -1.9643e-20)
(-0.305239 0.0150726 1.2323e-20)
(-0.300722 0.0106135 -3.8204e-21)
(-0.294146 0.00554799 1.28096e-20)
(-0.285369 -0.000107702 -2.0706e-20)
(-0.274245 -0.00630434 8.88257e-21)
(-0.260642 -0.012923 -1.70885e-20)
(-0.244493 -0.0197329 1.13726e-21)
(-0.225641 -0.0263797 1.01162e-20)
(-0.202608 -0.0329806 3.80748e-21)
(-0.197528 0.0367093 5.68056e-22)
(-0.207251 0.0372285 -1.75254e-20)
(-0.216457 0.0377207 -5.72853e-21)
(-0.225113 0.0381514 1.77412e-21)
(-0.233173 0.0384823 -4.27136e-20)
(-0.240579 0.0386716 -2.2881e-20)
(-0.247262 0.0386743 1.96047e-20)
(-0.253138 0.0384421 -2.79791e-20)
(-0.258114 0.0379242 -5.53599e-21)
(-0.262088 0.037068 -3.65778e-20)
(-0.264946 0.0358194 -1.05504e-20)
(-0.266568 0.0341242 3.65873e-20)
(-0.266828 0.0319287 3.66781e-20)
(-0.265596 0.0291812 1.13769e-21)
(-0.26274 0.0258334 1.94119e-21)
(-0.258128 0.021842 -9.93537e-21)
(-0.251632 0.017171 -2.5323e-20)
(-0.243128 0.0117945 6.55702e-21)
(-0.232497 0.00570131 -3.92526e-20)
(-0.219629 -0.00109614 2.06046e-20)
(-0.204403 -0.00855781 2.80752e-21)
(-0.186701 -0.0165755 -9.58296e-21)
(-0.16643 -0.0249797 -2.67044e-20)
(-0.143915 -0.0331153 1.59528e-20)
(-0.115366 -0.0415694 2.08157e-20)
(-0.185567 0.0425331 2.1993e-20)
(-0.193545 0.0430733 2.52562e-20)
(-0.200851 0.0435773 3.34193e-20)
(-0.207445 0.0440048 2.79885e-20)
(-0.213274 0.0443113 3.86391e-20)
(-0.218273 0.0444485 3.3221e-20)
(-0.222369 0.0443641 8.83131e-21)
(-0.225475 0.0440031 7.96473e-21)
(-0.227497 0.0433073 -2.06027e-20)
(-0.228331 0.0422171 1.18542e-20)
(-0.227867 0.0406716 1.87659e-20)
(-0.225992 0.0386103 -3.24773e-21)
(-0.222588 0.035974 -3.22637e-20)
(-0.217537 0.032706 -3.83319e-21)
(-0.210723 0.0287542 1.49004e-20)
(-0.202033 0.0240726 3.90115e-21)
(-0.191363 0.0186232 5.03689e-21)
(-0.178616 0.0123786 1.76516e-20)
(-0.163701 0.00532563 1.29156e-20)
(-0.146546 -0.00252242 -1.40133e-20)
(-0.127063 -0.011139 1.11023e-20)
(-0.105208 -0.0204439 1.5582e-20)
(-0.080685 -0.0303822 8.96072e-21)
(-0.0548673 -0.0400506 -5.12446e-20)
(-0.0208449 -0.0499576 -2.07162e-20)
(-0.171996 0.047952 -3.93337e-20)
(-0.178019 0.0484803 -2.90376e-20)
(-0.183205 0.0489617 -4.51531e-20)
(-0.187506 0.0493504 -2.61997e-20)
(-0.190865 0.0495962 -1.46465e-20)
(-0.193213 0.0496446 1.22285e-20)
(-0.194472 0.0494374 -1.31056e-20)
(-0.194556 0.0489128 -4.04307e-21)
(-0.193371 0.0480069 -1.80868e-20)
(-0.190818 0.0466539 6.17229e-21)
(-0.186794 0.0447875 -4.46324e-21)
(-0.181194 0.0423423 -1.54122e-20)
(-0.173913 0.039255 2.10569e-20)
(-0.164849 0.0354659 6.45482e-20)
(-0.153906 0.0309206 -1.21612e-20)
(-0.140995 0.0255721 3.3776e-20)
(-0.126034 0.0193824 -2.80358e-21)
(-0.108957 0.0123246 -2.0468e-21)
(-0.0896995 0.00438562 1.80487e-20)
(-0.0682297 -0.00441392 -1.95124e-20)
(-0.0444908 -0.0140864 -2.40975e-20)
(-0.0185781 -0.0245148 -2.9731e-20)
(0.0101869 -0.0357341 3.28091e-20)
(0.0391819 -0.0470785 6.86937e-21)
(0.0779206 -0.0580471 4.6983e-20)
(-0.156967 0.0529183 -2.90765e-20)
(-0.160857 0.0533995 3.14913e-20)
(-0.163739 0.0538216 5.72324e-20)
(-0.165561 0.0541339 4.3036e-20)
(-0.16626 0.054281 6.03221e-21)
(-0.165767 0.0542031 -1.11385e-20)
(-0.164003 0.0538362 2.53157e-20)
(-0.160883 0.0531137 2.80137e-20)
(-0.15632 0.0519661 4.97368e-20)
(-0.15022 0.0503231 -5.81042e-20)
(-0.142492 0.0481143 -3.97009e-20)
(-0.133042 0.0452707 4.24499e-20)
(-0.121784 0.0417265 -5.06311e-20)
(-0.108634 0.0374202 -5.61944e-20)
(-0.0935175 0.0322966 -1.86053e-20)
(-0.0763688 0.0263094 -6.59652e-20)
(-0.0571344 0.0194217 -1.13324e-20)
(-0.0357745 0.0116091 -5.7529e-21)
(-0.0122457 0.0028607 -2.7208e-20)
(0.0134272 -0.00681029 3.87312e-20)
(0.0413261 -0.017421 -6.14684e-20)
(0.0711584 -0.028793 5.38603e-20)
(0.104024 -0.0410732 -4.02708e-20)
(0.135931 -0.0538559 -1.00711e-20)
(0.179534 -0.0660757 7.49567e-21)
(-0.140642 0.0573902 2.55017e-20)
(-0.142253 0.0577875 2.94502e-21)
(-0.142684 0.0581124 -1.23603e-20)
(-0.14188 0.0583098 -4.5795e-20)
(-0.139777 0.0583198 -1.73045e-20)
(-0.136306 0.0580778 -3.4525e-20)
(-0.131392 0.0575155 -1.58138e-20)
(-0.124954 0.0565618 1.42459e-20)
(-0.116912 0.0551431 -2.945e-21)
(-0.107185 0.0531859 5.16151e-20)
(-0.0956926 0.0506168 8.67922e-20)
(-0.0823596 0.0473645 -5.56936e-20)
(-0.0671163 0.0433619 -1.18058e-20)
(-0.0499013 0.0385473 -1.44837e-20)
(-0.0306617 0.0328657 4.5259e-20)
(-0.00935599 0.0262721 4.53662e-22)
(0.0140452 0.0187311 3.5984e-20)
(0.0395535 0.0102227 5.81765e-20)
(0.0671921 0.000735017 7.9489e-21)
(0.096886 -0.00971465 7.77215e-21)
(0.1288 -0.0211377 6.89505e-20)
(0.162275 -0.0333246 -1.77423e-20)
(0.199249 -0.0465258 1.32097e-20)
(0.233551 -0.0602992 5.32146e-20)
(0.282247 -0.0738962 -4.20762e-20)
(-0.123183 0.0613319 4.40925e-20)
(-0.1224 0.061608 1.79106e-20)
(-0.120268 0.0617975 -4.71119e-20)
(-0.116732 0.0618417 7.25614e-21)
(-0.111729 0.0616768 5.1877e-20)
(-0.105193 0.0612343 -2.60173e-21)
(-0.0970535 0.0604424 -5.41877e-20)
(-0.0872402 0.0592269 -5.99123e-20)
(-0.0756821 0.057511 -6.81138e-20)
(-0.0623107 0.055219 -6.58028e-20)
(-0.0470624 0.052276 -4.07322e-20)
(-0.0298791 0.0486096 1.50463e-20)
(-0.0107106 0.0441525 -1.5912e-20)
(0.0104834 0.0388431 5.02451e-20)
(0.0337339 0.0326282 -7.59039e-20)
(0.0590601 0.0254644 3.29549e-20)
(0.0864714 0.0173177 -2.96904e-20)
(0.115951 0.00817293 -3.86812e-20)
(0.147521 -0.00198297 4.12466e-21)
(0.181018 -0.0131107 2.31238e-20)
(0.216789 -0.0252471 -4.67949e-20)
(0.253588 -0.0381511 1.69996e-20)
(0.294676 -0.0520679 -2.65983e-20)
(0.330884 -0.0666152 -1.76111e-20)
(0.38474 -0.0813184 -4.41332e-20)
(-0.10475 0.0647139 -3.65141e-20)
(-0.101485 0.0648319 -6.67898e-20)
(-0.0967091 0.0648488 4.35961e-20)
(-0.0903691 0.0647027 -3.05458e-20)
(-0.0824059 0.0643268 -1.28871e-20)
(-0.0727587 0.0636499 -2.09695e-20)
(-0.0613651 0.0625973 1.1237e-19)
(-0.048165 0.0610928 1.14064e-20)
(-0.0330998 0.0590577 4.59552e-20)
(-0.0161155 0.0564153 1.6259e-20)
(0.00283498 0.0530897 -2.50987e-21)
(0.0237917 0.049009 2.57687e-20)
(0.0467865 0.0441061 6.23437e-20)
(0.0718403 0.0383207 -9.53509e-21)
(0.0989648 0.0316016 5.28398e-20)
(0.128159 0.0239074 3.0906e-20)
(0.159418 0.015207 -1.50771e-20)
(0.192694 0.00548863 2.11496e-20)
(0.228029 -0.00525701 -1.57715e-21)
(0.265124 -0.0169848 -2.70698e-20)
(0.304618 -0.0297171 5.0082e-21)
(0.344432 -0.0432606 -7.61687e-22)
(0.38959 -0.0576788 7.40352e-20)
(0.427278 -0.0728614 -6.09731e-20)
(0.486172 -0.0883095 9.85016e-20)
(-0.0854907 0.0675135 8.82799e-20)
(-0.0796794 0.067438 7.16738e-21)
(-0.0722061 0.0672468 3.07869e-21)
(-0.0630195 0.0668759 -2.75783e-20)
(-0.0520665 0.0662561 1.34003e-20)
(-0.0392936 0.0653142 -3.97825e-20)
(-0.0246481 0.0639742 -6.87916e-20)
(-0.00808121 0.062158 -6.8428e-21)
(0.0104519 0.0597869 3.78319e-21)
(0.0309911 0.0567837 -1.21375e-20)
(0.0535675 0.0530728 1.90325e-20)
(0.0782048 0.0485833 -6.05416e-20)
(0.104918 0.0432493 -4.9598e-20)
(0.133712 0.0370124 4.14939e-21)
(0.164583 0.0298235 -1.99781e-20)
(0.197512 0.0216434 1.89346e-20)
(0.232484 0.0124455 -2.98042e-20)
(0.269416 0.00221875 -2.01092e-20)
(0.308387 -0.00903271 -3.38775e-20)
(0.348907 -0.0212835 3.05395e-20)
(0.392013 -0.0344735 5.08148e-20)
(0.434571 -0.0485813 9.19484e-20)
(0.483652 -0.0632862 -2.36823e-20)
(0.522456 -0.0789722 3.42801e-20)
(0.585994 -0.0947958 -7.46285e-20)
(-0.0655351 0.0697151 -9.50773e-20)
(-0.057134 0.0694132 -4.35659e-20)
(-0.0469287 0.0689817 7.44101e-20)
(-0.0348731 0.0683549 4.92937e-20)
(-0.0209208 0.0674624 5.59295e-20)
(-0.00502695 0.0662299 3.66016e-20)
(0.0128508 0.0645808 6.65795e-20)
(0.0327498 0.0624363 2.14437e-20)
(0.0547021 0.0597189 -2.03165e-20)
(0.0787338 0.0563514 1.77278e-20)
(0.104863 0.0522595 7.3825e-20)
(0.133098 0.0473736 2.12157e-20)
(0.163442 0.0416302 9.24883e-20)
(0.195885 0.034973 -6.55197e-20)
(0.230412 0.0273552 -3.87572e-20)
(0.266987 0.0187404 -3.22351e-20)
(0.305586 0.00910812 2.75919e-21)
(0.34608 -0.00155642 1.06065e-19)
(0.388597 -0.0132173 -9.94299e-21)
(0.432403 -0.0259078 -9.35157e-22)
(0.478981 -0.0393975 -8.5911e-20)
(0.524037 -0.053976 -8.16488e-20)
(0.576708 -0.0687426 -6.72847e-20)
(0.616292 -0.0847937 4.21462e-22)
(0.683704 -0.100599 3.39277e-20)
(-0.0449908 0.0713109 5.41961e-20)
(-0.0339676 0.0707534 1.32941e-19)
(-0.0210076 0.0700534 -1.4627e-19)
(-0.00607057 0.0691447 -6.34325e-20)
(0.0108825 0.0679562 -6.89527e-20)
(0.0298876 0.0664137 -5.08425e-20)
(0.0509772 0.0644408 -1.52192e-20)
(0.0741784 0.0619594 3.664e-20)
(0.099512 0.058893 -4.23862e-20)
(0.126993 0.0551659 8.96763e-21)
(0.156627 0.0507057 -7.92593e-21)
(0.188414 0.0454451 1.81036e-20)
(0.222344 0.0393227 -5.34743e-20)
(0.258397 0.0322849 4.57568e-20)
(0.296543 0.0242886 3.93395e-20)
(0.336728 0.0152994 -3.33299e-20)
(0.378914 0.0053075 2.38524e-20)
(0.422912 -0.00571355 -6.98753e-20)
(0.468887 -0.0176711 2.89286e-20)
(0.515835 -0.0307018 -2.7223e-20)
(0.565643 -0.0443178 -7.07231e-21)
(0.612923 -0.0592384 8.53345e-20)
(0.668556 -0.0738282 -5.87596e-20)
(0.708554 -0.090093 9.58078e-22)
(0.778577 -0.105459 5.23594e-20)
(-0.0102602 0.0714633 -6.1761e-20)
(0.00547579 0.0704725 6.82321e-20)
(0.0233083 0.0692623 1.08753e-19)
(0.043269 0.0677621 3.53455e-20)
(0.0653865 0.0658982 7.15987e-20)
(0.0896846 0.0635955 2.25188e-20)
(0.116182 0.0607776 1.91701e-20)
(0.14489 0.0573696 9.63143e-20)
(0.175816 0.0532982 3.07118e-20)
(0.208956 0.0484934 -6.08717e-20)
(0.244301 0.0428906 4.17419e-20)
(0.28183 0.0364311 -3.56243e-20)
(0.321509 0.0290648 -4.12998e-20)
(0.36329 0.020753 -8.21398e-21)
(0.407089 0.0114629 8.3743e-20)
(0.452841 0.00120137 -6.28843e-22)
(0.500275 -0.0100784 -1.88067e-20)
(0.54956 -0.0222028 -1.29768e-20)
(0.599431 -0.0354469 1.10188e-19)
(0.652025 -0.0490078 -3.64974e-20)
(0.701134 -0.0640987 -6.66265e-20)
(0.758723 -0.0782696 -6.76497e-20)
(0.798672 -0.0945768 8.98047e-20)
(0.869498 -0.109083 5.06295e-20)
(0.0139556 0.0715579 -1.16224e-19)
(0.0324985 0.0702613 -8.87864e-21)
(0.0532547 0.0687382 -7.14589e-20)
(0.0762504 0.0669193 6.5241e-20)
(0.101508 0.0647328 -4.0464e-20)
(0.129045 0.0621053 -4.2429e-20)
(0.158873 0.058963 -1.03665e-19)
(0.190998 0.0552333 -8.97518e-20)
(0.225418 0.0508458 -8.75034e-21)
(0.262124 0.0457336 -1.6688e-20)
(0.301092 0.039835 -5.50127e-21)
(0.342288 0.0330952 2.68279e-20)
(0.385654 0.0254672 7.98302e-21)
(0.431111 0.0169189 -8.11773e-20)
(0.478526 0.00741844 -9.58914e-20)
(0.527781 -0.00300534 3.15817e-20)
(0.578503 -0.0144251 3.79828e-20)
(0.6308 -0.0265723 -1.4863e-20)
(0.683205 -0.0398713 -3.08131e-20)
(0.737859 -0.0531969 1.04572e-19)
(0.788179 -0.0682464 4.53403e-20)
(0.846316 -0.0817744 2.89276e-20)
(0.885589 -0.0979328 2.19561e-21)
(0.954946 -0.111207 -6.74577e-20)
(0.0387021 0.0710632 4.03455e-20)
(0.0601039 0.0694546 7.49597e-20)
(0.0838396 0.0676172 -4.93103e-20)
(0.109931 0.0654841 -1.11922e-20)
(0.138398 0.0629858 -3.84103e-20)
(0.169251 0.0600517 -4.17937e-20)
(0.202499 0.0566112 5.753e-20)
(0.238141 0.0525947 7.61301e-20)
(0.276166 0.047935 1.51155e-20)
(0.316552 0.0425688 3.55947e-20)
(0.359257 0.0364377 -3.00354e-20)
(0.404218 0.0294911 -4.63069e-20)
(0.451338 0.0216859 1.88701e-20)
(0.500483 0.0129976 1.7445e-19)
(0.551447 0.0033953 4.17925e-20)
(0.604017 -0.00706679 2.52083e-20)
(0.657706 -0.0184872 -9.53533e-20)
(0.71248 -0.0305052 7.73949e-20)
(0.76676 -0.0436753 -1.90105e-20)
(0.822424 -0.0565984 -9.7471e-20)
(0.873035 -0.0713727 -1.2989e-20)
(0.929989 -0.084078 -3.77524e-20)
(0.967769 -0.0998876 -7.74475e-20)
(1.03314 -0.111663 -1.9005e-20)
(0.0640621 0.0700166 3.16443e-20)
(0.0884076 0.0681008 -2.64541e-22)
(0.115218 0.06596 8.50673e-21)
(0.144513 0.0635303 -2.86478e-20)
(0.176308 0.0607458 3.11594e-20)
(0.210613 0.0575392 4.08482e-20)
(0.247429 0.0538432 -2.71221e-20)
(0.286744 0.049592 -7.17201e-20)
(0.328533 0.0447218 2.27115e-20)
(0.37275 0.0391729 -5.86744e-20)
(0.419319 0.0328906 1.43137e-20)
(0.468127 0.0258287 -6.5866e-20)
(0.519013 0.017948 5.27001e-20)
(0.571755 0.00923249 -1.20759e-19)
(0.626041 -0.000347618 4.42365e-20)
(0.681525 -0.010713 -2.30182e-20)
(0.737594 -0.0219821 4.9361e-20)
(0.794008 -0.0337205 -2.67234e-20)
(0.849172 -0.0465715 -5.31241e-20)
(0.904497 -0.05895 5.41382e-20)
(0.954166 -0.0732234 1.06043e-19)
(1.00806 -0.0849924 6.44129e-20)
(1.04337 -0.100266 1.34214e-20)
(1.10232 -0.110422 1.03781e-20)
(0.090183 0.0684686 -4.13019e-20)
(0.117599 0.0662631 -4.44024e-20)
(0.147627 0.063844 4.70931e-20)
(0.180286 0.0611513 6.86953e-20)
(0.215588 0.0581228 8.46752e-20)
(0.253534 0.0546951 -7.43625e-23)
(0.294116 0.0508049 -6.21173e-20)
(0.337301 0.0463898 6.00103e-20)
(0.383035 0.0413895 1.47256e-21)
(0.431229 0.0357476 -8.19467e-21)
(0.481749 0.0294127 6.25206e-20)
(0.534403 0.0223424 6.36407e-20)
(0.588929 0.0145015 -4.60749e-20)
(0.644985 0.00588211 -1.63709e-20)
(0.702123 -0.00354411 1.73543e-20)
(0.759832 -0.0136767 -9.57993e-21)
(0.817371 -0.0246448 4.77299e-20)
(0.874267 -0.035968 8.20428e-20)
(0.929003 -0.0483294 7.75135e-20)
(0.982433 -0.0600587 -7.71103e-20)
(1.0297 -0.0736476 -1.0283e-19)
(1.07875 -0.0844439 -2.76435e-20)
(1.11055 -0.099033 -1.94049e-21)
(1.16114 -0.107603 -2.42441e-21)
(0.117277 0.0664834 1.239e-19)
(0.14794 0.0640206 5.85436e-20)
(0.181383 0.0613644 4.26382e-20)
(0.21762 0.0584594 -1.35269e-20)
(0.256656 0.0552475 -3.8883e-20)
(0.298479 0.0516694 -1.10065e-20)
(0.343052 0.0476653 2.68059e-20)
(0.390311 0.0431757 5.16131e-20)
(0.440147 0.0381432 -8.13965e-20)
(0.4924 0.0325134 1.66004e-20)
(0.546845 0.0262374 -6.56e-21)
(0.603176 0.0192757 -6.39173e-20)
(0.660998 0.0115955 4.19786e-23)
(0.719818 0.00319575 8.268e-20)
(0.779028 -0.00595021 -1.04604e-19)
(0.837948 -0.0157273 -2.34134e-20)
(0.895724 -0.0262659 -4.65761e-20)
(0.951683 -0.0370684 -4.77812e-20)
(1.00445 -0.0488147 -3.74098e-20)
(1.05438 -0.0598374 1.5154e-19)
(1.09775 -0.0726279 1.14029e-20)
(1.1405 -0.0824883 -1.47059e-20)
(1.16785 -0.0963051 1.06094e-20)
(1.2089 -0.103456 -4.54813e-20)
(0.179754 0.0614681 -1.12151e-20)
(0.216859 0.058634 -3.93248e-20)
(0.256935 0.0555861 4.43207e-21)
(0.299969 0.0522705 2.90219e-20)
(0.345918 0.0486314 2.18161e-20)
(0.394703 0.0446114 5.57653e-20)
(0.446195 0.0401528 -4.25564e-20)
(0.500201 0.0351991 8.84408e-20)
(0.556459 0.0296965 6.8121e-20)
(0.614612 0.0235961 -1.53534e-19)
(0.674212 0.0168596 6.88426e-20)
(0.734699 0.00945463 -6.32991e-20)
(0.795416 0.00138468 -3.99357e-23)
(0.855598 -0.00737576 -3.12494e-20)
(0.914419 -0.0167036 -9.06872e-21)
(0.970952 -0.0267237 5.01464e-21)
(1.02441 -0.0369433 1.69897e-20)
(1.07361 -0.0480109 -2.59718e-20)
(1.11859 -0.0583216 -7.42884e-20)
(1.15673 -0.0702808 -8.32738e-22)
(1.19225 -0.0792995 5.25718e-20)
(1.21449 -0.0923251 -9.09216e-21)
(1.24571 -0.098302 4.65662e-20)
(0.213412 0.0587169 -9.94095e-20)
(0.254466 0.0557823 -1.81454e-20)
(0.298668 0.0526796 -7.22518e-20)
(0.34597 0.0493582 -2.26843e-20)
(0.396274 0.0457641 3.48068e-20)
(0.449427 0.0418404 2.03345e-20)
(0.505203 0.0375289 -9.95767e-21)
(0.563293 0.032771 -9.06161e-20)
(0.623289 0.0275108 2.1196e-20)
(0.684678 0.0216967 1.3425e-19)
(0.74684 0.0152889 -5.3013e-20)
(0.809047 0.00825297 7.86636e-20)
(0.870486 0.000594574 2.40578e-20)
(0.930264 -0.00771123 1.38241e-20)
(0.987474 -0.0165385 -2.27481e-20)
(1.04118 -0.0260028 1.71148e-21)
(1.0906 -0.0356284 3.24756e-20)
(1.1348 -0.0460189 -8.29237e-20)
(1.17371 -0.0556611 2.19551e-20)
(1.20569 -0.0668295 -5.24341e-20)
(1.23365 -0.0751335 5.37559e-20)
(1.25051 -0.0874101 2.97913e-21)
(1.27244 -0.0924823 9.81739e-21)
(0.249307 0.055893 1.52234e-20)
(0.294616 0.0529535 3.17016e-20)
(0.343229 0.0499015 -3.22355e-21)
(0.395031 0.0466873 2.82859e-20)
(0.449842 0.0432562 -9.14904e-20)
(0.507398 0.0395487 -1.32841e-19)
(0.567339 0.0355023 2.81373e-21)
(0.629199 0.0310528 -7.2481e-20)
(0.6924 0.0261386 6.22638e-20)
(0.756252 0.0207019 -1.05852e-19)
(0.819962 0.0146989 -9.75422e-21)
(0.882652 0.00809149 3.76181e-20)
(0.943393 0.000885411 4.75213e-20)
(1.00123 -0.00694323 6.35069e-20)
(1.05527 -0.0152684 5.88503e-20)
(1.10465 -0.0241929 -5.1617e-20)
(1.14871 -0.0332636 3.37116e-20)
(1.18685 -0.0430332 7.74995e-20)
(1.21901 -0.0520877 -2.54921e-20)
(1.24441 -0.0625565 7.60539e-20)
(1.26505 -0.0702814 -2.92907e-20)
(1.27671 -0.081892 -2.56759e-20)
(1.29051 -0.0863021 -2.36429e-20)
(0.287823 0.0531352 -3.60904e-20)
(0.337684 0.0503028 2.04387e-20)
(0.390944 0.0474206 1.10652e-19)
(0.447395 0.0444366 4.96163e-20)
(0.50673 0.0412914 1.32378e-19)
(0.568538 0.0379183 4.8608e-20)
(0.63229 0.034246 6.98478e-20)
(0.697335 0.0302006 1.76307e-20)
(0.762912 0.0257107 4.28775e-20)
(0.828155 0.0207099 8.19352e-20)
(0.892129 0.0151485 -1.51066e-20)
(0.953852 0.00898462 -1.39378e-19)
(1.01236 0.0022238 1.00252e-19)
(1.06672 -0.00515429 -6.46972e-20)
(1.11615 -0.0130236 -5.66648e-20)
(1.15997 -0.0214702 9.63066e-20)
(1.19776 -0.0300633 -1.02999e-19)
(1.22922 -0.0393035 -4.3081e-20)
(1.2545 -0.0478708 -3.04102e-20)
(1.27343 -0.0577538 2.77726e-20)
(1.28747 -0.0650229 -4.45936e-20)
(1.29444 -0.0760657 -6.20392e-21)
(1.30161 -0.080002 2.40855e-20)
(0.383956 0.0479906 3.8426e-20)
(0.442009 0.0454052 -2.56977e-19)
(0.503113 0.0427768 6.04034e-21)
(0.566799 0.0400354 -5.59997e-20)
(0.632471 0.0371021 -2.93058e-20)
(0.699405 0.0338916 -1.48715e-20)
(0.766759 0.030316 -6.2346e-20)
(0.833596 0.0262916 -1.88273e-19)
(0.898912 0.0217424 2.77039e-21)
(0.961685 0.0166127 -1.24488e-20)
(1.02091 0.0108594 -2.18809e-21)
(1.07569 0.00449032 -1.77491e-19)
(1.12521 -0.00250659 3.57904e-20)
(1.1689 -0.0100029 4.03428e-20)
(1.20633 -0.0180629 -7.14113e-20)
(1.23739 -0.0262765 6.38479e-21)
(1.26211 -0.0350908 7.27501e-20)
(1.28084 -0.0432724 -1.93928e-20)
(1.29387 -0.0526798 -2.58599e-20)
(1.3023 -0.0595921 3.25381e-20)
(1.30535 -0.07016 1.98801e-20)
(1.30743 -0.0737493 -9.33446e-20)
(0.433591 0.0461751 -8.09071e-20)
(0.496435 0.0440141 1.9198e-20)
(0.562002 0.0418589 -2.12569e-20)
(0.629626 0.0396231 8.52438e-20)
(0.698503 0.0372097 1.28816e-19)
(0.767709 0.0345149 1.28877e-19)
(0.836226 0.0314344 1.8193e-19)
(0.902984 0.0278713 9.96614e-20)
(0.966905 0.0237415 -1.12013e-19)
(1.02697 0.0189868 6.12699e-20)
(1.08224 0.0135683 6.79163e-20)
(1.13199 0.00750057 1.81212e-19)
(1.17563 0.000786849 -4.89396e-20)
(1.21287 -0.00643874 -6.96486e-20)
(1.24357 -0.0142135 -5.08661e-20)
(1.26795 -0.0221466 2.55099e-20)
(1.28629 -0.0306304 9.03958e-20)
(1.29918 -0.0385139 -3.44058e-20)
(1.30715 -0.0475353 -4.72072e-20)
(1.31111 -0.0541617 -5.6278e-20)
(1.31109 -0.0643295 1.68829e-20)
(1.3095 -0.0676456 6.09794e-20)
(0.486575 0.0450043 2.14722e-20)
(0.554013 0.0433855 -2.23104e-20)
(0.623618 0.0418023 7.90869e-20)
(0.694501 0.0401459 1.03047e-20)
(0.765652 0.0382959 -4.43885e-20)
(0.835964 0.0361276 -6.47219e-20)
(0.904294 0.0335202 -1.03553e-19)
(0.969507 0.0303661 8.40447e-20)
(1.03055 0.0265785 -1.25357e-19)
(1.08649 0.022103 7.18574e-20)
(1.13659 0.0169126 3.77594e-21)
(1.18035 0.0110352 -9.71208e-20)
(1.21749 0.00449636 2.80309e-20)
(1.24802 -0.0025612 1.04466e-20)
(1.27213 -0.0101436 3.83899e-20)
(1.29027 -0.0178803 4.6474e-20)
(1.30296 -0.0261079 -8.92459e-20)
(1.31093 -0.0337593 4.07992e-20)
(1.31483 -0.0424565 3.04224e-20)
(1.3154 -0.0488434 5.8247e-20)
(1.31312 -0.0586638 6.00651e-20)
(1.30905 -0.0617431 -2.82853e-20)
(0.614295 0.0436262 1.60687e-19)
(0.687252 0.042684 -1.19591e-19)
(0.760455 0.0416418 -6.37841e-20)
(0.832705 0.0403538 -1.49825e-20)
(0.902773 0.0386746 -2.25156e-20)
(0.96946 0.0364706 -8.38809e-20)
(1.03167 0.0336303 -6.90795e-20)
(1.08846 0.0300722 1.606e-19)
(1.13912 0.0257551 -1.10153e-19)
(1.18317 0.0206723 -1.15717e-19)
(1.2204 0.014872 1.03691e-19)
(1.25088 0.00840757 1.77753e-21)
(1.27489 0.001431 -5.23215e-20)
(1.2929 -0.00603061 -1.87144e-20)
(1.30556 -0.0136315 -2.98804e-20)
(1.31351 -0.0216511 8.02767e-20)
(1.31756 -0.0291136 -3.95158e-20)
(1.31835 -0.0375219 4.69837e-20)
(1.31649 -0.0436988 -2.23683e-20)
(1.31266 -0.0532036 1.83004e-20)
(1.30701 -0.0560615 -5.55555e-20)
(0.676593 0.0448027 -5.84403e-20)
(0.751966 0.04453 1.16757e-19)
(0.826316 0.0440908 -1.08593e-19)
(0.898321 0.0433144 2.7749e-20)
(0.966703 0.0420398 1.85584e-20)
(1.03031 0.0401284 7.31846e-20)
(1.08819 0.0374747 4.87538e-20)
(1.13963 0.0340137 -2.30939e-21)
(1.18418 0.0297266 9.45452e-20)
(1.2217 0.0246359 1.46264e-19)
(1.25231 0.0188139 3.3314e-21)
(1.27636 0.0123445 3.70345e-20)
(1.2944 0.00538741 8.2866e-20)
(1.30706 -0.00199837 -6.00476e-20)
(1.31516 -0.00949842 4.39362e-20)
(1.31933 -0.0173342 -1.23432e-19)
(1.3204 -0.0246326 7.0846e-20)
(1.31893 -0.0327663 2.57401e-20)
(1.31543 -0.0387546 -1.53684e-20)
(1.3106 -0.0479581 -4.32344e-20)
(1.30403 -0.0506029 -4.56628e-20)
(0.740012 0.0469333 -1.30083e-19)
(0.816642 0.0473119 -4.24458e-22)
(0.890808 0.0474153 -6.26579e-20)
(0.961143 0.0470536 -1.36773e-19)
(1.02643 0.0460595 -1.12203e-19)
(1.08568 0.0443012 -7.7726e-20)
(1.13816 0.0416915 5.27738e-21)
(1.18347 0.0381928 6.04283e-20)
(1.2215 0.0338177 -6.36844e-21)
(1.25243 0.0286228 -1.16428e-19)
(1.27668 0.0227063 -1.11996e-19)
(1.29486 0.0161814 4.10969e-20)
(1.30768 0.00921043 -1.04593e-20)
(1.31591 0.00188115 -1.9377e-20)
(1.32035 -0.0055315 2.57526e-20)
(1.32165 -0.0131894 2.02747e-20)
(1.32057 -0.0203364 -2.39541e-20)
(1.31754 -0.0281961 -9.25512e-20)
(1.31301 -0.0340163 5.99341e-20)
(1.30761 -0.0429189 6.48116e-20)
(1.30055 -0.0453619 8.65915e-20)
(0.880072 0.0509476 -7.44311e-20)
(0.952649 0.051487 1.47882e-19)
(1.01992 0.0514051 1.33111e-19)
(1.08085 0.0505412 4.37391e-20)
(1.13469 0.0487843 5.02286e-20)
(1.18105 0.0460778 5.92063e-20)
(1.21985 0.0424213 -1.60628e-19)
(1.25132 0.0378642 -7.00775e-21)
(1.27596 0.032498 -5.78851e-20)
(1.29443 0.0264452 7.56139e-20)
(1.30749 0.0198427 -3.52214e-20)
(1.31597 0.01285 -6.26606e-20)
(1.32065 0.00557785 4.61499e-20)
(1.32232 -0.00174582 -5.4267e-20)
(1.32152 -0.00922065 3.44878e-20)
(1.31897 -0.0162233 -9.54505e-20)
(1.31492 -0.023802 7.23082e-20)
(1.30979 -0.0294792 1.61125e-20)
(1.30409 -0.0380692 -2.00054e-20)
(1.29684 -0.0403325 -2.6446e-20)
(0.941047 0.0553092 -1.24896e-19)
(1.01066 0.0561406 5.9485e-21)
(1.07363 0.0561786 -7.33824e-20)
(1.12918 0.0552848 -6.45685e-20)
(1.1769 0.0533826 8.65949e-20)
(1.21676 0.0504566 1.28737e-20)
(1.24904 0.0465491 5.92734e-20)
(1.27427 0.0417476 5.46259e-20)
(1.29318 0.0361754 2.01718e-20)
(1.30661 0.0299739 -5.85953e-20)
(1.31541 0.0232961 -2.32413e-20)
(1.32041 0.0162926 9.0507e-22)
(1.32238 0.00909074 -3.26332e-20)
(1.322 0.00186601 7.26987e-20)
(1.31976 -0.0054161 -1.82257e-20)
(1.31623 -0.0122806 2.49689e-20)
(1.31155 -0.019568 4.2756e-20)
(1.30615 -0.0251354 -1.22995e-19)
(1.30033 -0.0333889 8.83543e-20)
(1.29307 -0.0355125 -2.33455e-22)
(0.998452 0.0602343 7.73608e-20)
(1.06386 0.0611896 4.98468e-21)
(1.12152 0.0611794 3.98816e-20)
(1.17098 0.0601029 -6.70349e-20)
(1.21223 0.057929 8.92066e-20)
(1.24558 0.0546901 -1.96719e-19)
(1.27163 0.0504719 1.2003e-20)
(1.29117 0.0453968 4.51382e-20)
(1.30509 0.0396134 1.79506e-20)
(1.3143 0.0332748 -5.67591e-20)
(1.31968 0.0265409 2.15917e-20)
(1.32201 0.019549 7.17785e-20)
(1.32198 0.0124358 3.06001e-20)
(1.32016 0.00532311 -5.92982e-20)
(1.31695 -0.00175743 3.35333e-20)
(1.31281 -0.00849205 1.44675e-21)
(1.30779 -0.0154773 -2.28779e-20)
(1.30231 -0.0209779 3.98096e-22)
(1.29647 -0.0288575 -2.46166e-20)
(1.28934 -0.0309067 -1.30383e-19)
(1.11155 0.0664453 -1.58867e-20)
(1.16317 0.066227 -9.07933e-21)
(1.20618 0.0648364 1.03388e-19)
(1.24093 0.0622952 -4.85249e-20)
(1.26807 0.0586847 1.15187e-19)
(1.28843 0.0541302 -5.35267e-20)
(1.30299 0.0487823 2.39281e-20)
(1.31272 0.0428057 -1.21637e-21)
(1.31852 0.0363575 5.44669e-20)
(1.32125 0.0295962 3.74052e-20)
(1.32159 0.0226431 1.82768e-20)
(1.32013 0.0156367 8.28474e-21)
(1.31733 0.00864889 4.34273e-20)
(1.31353 0.00177423 -6.94882e-20)
(1.30903 -0.00484076 6.05434e-20)
(1.30386 -0.011515 -7.69478e-20)
(1.29842 -0.0170031 4.27035e-20)
(1.29261 -0.0244559 -1.42609e-21)
(1.2857 -0.0265321 7.56337e-20)
(1.15331 0.071733 2.27639e-20)
(1.1985 0.0711689 7.37931e-20)
(1.23501 0.0693646 6.0195e-20)
(1.26353 0.0663963 -9.32803e-20)
(1.28496 0.0623901 -8.95929e-20)
(1.30033 0.0575035 6.71626e-20)
(1.31069 0.0519063 -1.52935e-19)
(1.317 0.0457697 2.24949e-20)
(1.32015 0.0392481 -7.10423e-20)
(1.32088 0.0324909 -1.21217e-20)
(1.31979 0.0256032 -6.67823e-20)
(1.31735 0.0187181 -8.07535e-20)
(1.31392 0.0118665 3.41216e-20)
(1.30975 0.00519516 1.25722e-19)
(1.30506 -0.00130986 4.805e-20)
(1.29988 -0.00766969 6.6088e-20)
(1.29453 -0.013211 1.9244e-20)
(1.2888 -0.0201688 3.95475e-20)
(1.28219 -0.0224236 -8.65584e-21)
(1.2277 0.0758894 1.09852e-21)
(1.25795 0.0736081 -1.14776e-19)
(1.28071 0.0701879 3.20518e-20)
(1.2971 0.0657921 -4.91668e-20)
(1.30823 0.0606007 3.87564e-20)
(1.31514 0.0547925 1.14905e-19)
(1.31877 0.048537 -4.11999e-20)
(1.3199 0.0419797 5.49499e-20)
(1.31918 0.0352566 5.06174e-20)
(1.31709 0.028457 1.8281e-20)
(1.314 0.0217027 1.45213e-21)
(1.31017 0.0149963 3.09379e-20)
(1.30581 0.00851834 -7.98278e-20)
(1.30103 0.00211918 -3.04041e-20)
(1.29591 -0.00393339 -6.83414e-20)
(1.29068 -0.00960008 -5.68598e-20)
(1.28507 -0.0159807 2.34798e-20)
(1.27884 -0.01864 5.40522e-20)
(1.2512 0.0803121 3.92254e-20)
(1.27562 0.0775261 2.48357e-20)
(1.29327 0.07366 9.60625e-20)
(1.30534 0.0689038 -1.56997e-20)
(1.31296 0.0634495 -3.90414e-20)
(1.31713 0.0574759 -1.36928e-19)