/*--------------------------------*- C++ -*----------------------------------*\
  =========                 |
  \\      /  F ield         | OpenFOAM: The Open Source CFD Toolbox
   \\    /   O peration     | Website:  https://openfoam.org
    \\  /    A nd           | Version:  7
     \\/     M anipulation  |
\*---------------------------------------------------------------------------*/
FoamFile
{
    version     2.0;
    format      ascii;
    class       volScalarField;
    location    "10";
    object      p;
}
// * * * * * * * * * * * * * * * * * * * * * * * * * * * * * * * * * * * * * //

dimensions      [0 2 -2 0 0 0 0];

internalField   nonuniform List<scalar> 
6050
(
-0.352464
-0.359141
-0.36639
-0.374
-0.381615
-0.388693
-0.394491
-0.398044
-0.398231
-0.39375
-0.383352
-0.366125
-0.340649
-0.35273
-0.359441
-0.366751
-0.374461
-0.382225
-0.389513
-0.395597
-0.39951
-0.400157
-0.396234
-0.386279
-0.369919
-0.344277
-0.353208
-0.359968
-0.367376
-0.375248
-0.383259
-0.390891
-0.397447
-0.401945
-0.403314
-0.400355
-0.390925
-0.376331
-0.350355
-0.353798
-0.360594
-0.368092
-0.376131
-0.384402
-0.392398
-0.399462
-0.404578
-0.406622
-0.404896
-0.395719
-0.383646
-0.356714
-0.354376
-0.36116
-0.368698
-0.376842
-0.385307
-0.393572
-0.401036
-0.406642
-0.409062
-0.408769
-0.399196
-0.388897
-0.362368
-0.361508
-0.368998
-0.377142
-0.385673
-0.394037
-0.401701
-0.407587
-0.410176
-0.410389
-0.400923
-0.391213
-0.365587
-0.361509
-0.368846
-0.376859
-0.385306
-0.393582
-0.401196
-0.407057
-0.40948
-0.40974
-0.400229
-0.390137
-0.365559
-0.361079
-0.36816
-0.375922
-0.384125
-0.392123
-0.399455
-0.404987
-0.406975
-0.406625
-0.397033
-0.385644
-0.361827
-0.360191
-0.366928
-0.374336
-0.382163
-0.389719
-0.396537
-0.401434
-0.402707
-0.401084
-0.391204
-0.377991
-0.354359
-0.358869
-0.365202
-0.372175
-0.379513
-0.386488
-0.392515
-0.396469
-0.396629
-0.39327
-0.38263
-0.367529
-0.343656
-0.357178
-0.363067
-0.369552
-0.376267
-0.382496
-0.387401
-0.390073
-0.388642
-0.383314
-0.371449
-0.354788
-0.330719
-0.360619
-0.366535
-0.372462
-0.377701
-0.381131
-0.382135
-0.378736
-0.371418
-0.3582
-0.340581
-0.316768
-0.357914
-0.36313
-0.368049
-0.371961
-0.373602
-0.3726
-0.367121
-0.358036
-0.34374
-0.325878
-0.302855
-0.35495
-0.35926
-0.362901
-0.365125
-0.364773
-0.361624
-0.354267
-0.343849
-0.328969
-0.311506
-0.289634
-0.351657
-0.354794
-0.356875
-0.357148
-0.354771
-0.349601
-0.340794
-0.329547
-0.314569
-0.297963
-0.277372
-0.349606
-0.349907
-0.348153
-0.343901
-0.33704
-0.327282
-0.315606
-0.300908
-0.285416
-0.266087
-0.343637
-0.342062
-0.338402
-0.332551
-0.324412
-0.314124
-0.302255
-0.288104
-0.273768
-0.255639
-0.333522
-0.328207
-0.321081
-0.312059
-0.301517
-0.289573
-0.276124
-0.262717
-0.245794
-0.324522
-0.317851
-0.309754
-0.300172
-0.289525
-0.277605
-0.264868
-0.251867
-0.236327
-0.307544
-0.298735
-0.28882
-0.278143
-0.266388
-0.254245
-0.241138
-0.227151
-0.297417
-0.288096
-0.277994
-0.267344
-0.255876
-0.244197
-0.231265
-0.218264
-0.277851
-0.267649
-0.257084
-0.245934
-0.234604
-0.222437
-0.210461
-0.267974
-0.257736
-0.247296
-0.236452
-0.225586
-0.214101
-0.202976
-0.248195
-0.2379
-0.227391
-0.216956
-0.206112
-0.195887
-0.228837
-0.218651
-0.208654
-0.198443
-0.188908
-0.210178
-0.200594
-0.190937
-0.18205
-0.192706
-0.183576
-0.175236
-0.176283
-0.168443
-0.176283
-0.168443
-0.192706
-0.183576
-0.175236
-0.210178
-0.200594
-0.190938
-0.18205
-0.228837
-0.218651
-0.208654
-0.198443
-0.188908
-0.248195
-0.2379
-0.227391
-0.216956
-0.206112
-0.195887
-0.267974
-0.257736
-0.247296
-0.236452
-0.225586
-0.214101
-0.202976
-0.277851
-0.267649
-0.257084
-0.245935
-0.234604
-0.222437
-0.210461
-0.297417
-0.288096
-0.277994
-0.267344
-0.255876
-0.244197
-0.231265
-0.218264
-0.307544
-0.298735
-0.288821
-0.278143
-0.266388
-0.254245
-0.241138
-0.227151
-0.324522
-0.317851
-0.309754
-0.300172
-0.289525
-0.277605
-0.264868
-0.251867
-0.236327
-0.333522
-0.328207
-0.321081
-0.312059
-0.301517
-0.289573
-0.276124
-0.262717
-0.245794
-0.343637
-0.342062
-0.338402
-0.332552
-0.324412
-0.314124
-0.302255
-0.288104
-0.273768
-0.255639
-0.349606
-0.349907
-0.348154
-0.343901
-0.33704
-0.327282
-0.315606
-0.300908
-0.285416
-0.266087
-0.351657
-0.354794
-0.356875
-0.357148
-0.354772
-0.349601
-0.340794
-0.329547
-0.314569
-0.297963
-0.277372
-0.354951
-0.35926
-0.362901
-0.365125
-0.364773
-0.361625
-0.354267
-0.34385
-0.328969
-0.311506
-0.289634
-0.357915
-0.363131
-0.36805
-0.371962
-0.373602
-0.3726
-0.367122
-0.358036
-0.34374
-0.325878
-0.302855
-0.360619
-0.366536
-0.372462
-0.377702
-0.381132
-0.382136
-0.378737
-0.371418
-0.3582
-0.340581
-0.316768
-0.357178
-0.363067
-0.369552
-0.376267
-0.382496
-0.387401
-0.390074
-0.388643
-0.383314
-0.371449
-0.354788
-0.330719
-0.358869
-0.365202
-0.372176
-0.379513
-0.386488
-0.392515
-0.39647
-0.39663
-0.39327
-0.38263
-0.367529
-0.343656
-0.360191
-0.366929
-0.374336
-0.382163
-0.38972
-0.396538
-0.401434
-0.402707
-0.401084
-0.391205
-0.377991
-0.354359
-0.361079
-0.36816
-0.375922
-0.384125
-0.392124
-0.399455
-0.404987
-0.406975
-0.406626
-0.397034
-0.385644
-0.361827
-0.361509
-0.368846
-0.37686
-0.385307
-0.393583
-0.401196
-0.407057
-0.409481
-0.40974
-0.40023
-0.390137
-0.365559
-0.361508
-0.368998
-0.377142
-0.385673
-0.394038
-0.401701
-0.407588
-0.410177
-0.410389
-0.400923
-0.391213
-0.365587
-0.354376
-0.36116
-0.368698
-0.376842
-0.385307
-0.393573
-0.401036
-0.406643
-0.409062
-0.408769
-0.399197
-0.388898
-0.362368
-0.353799
-0.360594
-0.368092
-0.376131
-0.384402
-0.392399
-0.399463
-0.404579
-0.406622
-0.404897
-0.395719
-0.383646
-0.356714
-0.353208
-0.359968
-0.367376
-0.375248
-0.383259
-0.390892
-0.397448
-0.401945
-0.403315
-0.400355
-0.390926
-0.376331
-0.350355
-0.35273
-0.359441
-0.366751
-0.374461
-0.382225
-0.389513
-0.395597
-0.39951
-0.400157
-0.396234
-0.386279
-0.369919
-0.344277
-0.352464
-0.359141
-0.36639
-0.374
-0.381615
-0.388693
-0.394491
-0.398044
-0.398231
-0.39375
-0.383352
-0.366125
-0.340649
-0.316835
-0.295943
-0.272717
-0.247356
-0.220307
-0.192095
-0.163339
-0.134748
-0.107
-0.0807088
-0.0564992
-0.0348253
-0.0159886
-0.000158963
0.012649
0.022558
0.0297988
0.0346776
0.0375414
0.0387475
0.038639
0.0375363
0.0357201
0.0334275
0.0308519
0.0281455
0.0254239
0.0227719
0.0202481
0.0178905
0.0157209
0.013749
0.0119751
0.0103936
0.0089937
0.00776302
0.0066866
0.00574999
0.00493326
0.00421718
0.00357724
0.00300014
0.00247126
0.00199695
0.00156976
0.00120489
0.000877004
0.000610388
0.000350175
0.000145952
-0.321127
-0.300316
-0.277113
-0.251694
-0.224541
-0.196196
-0.167233
-0.138414
-0.110414
-0.0837675
-0.0593233
-0.0373913
-0.018304
-0.00223702
0.0107926
0.020906
0.028334
0.0333837
0.0364042
0.037755
0.0377786
0.0367922
0.0350788
0.0328769
0.0303805
0.0277427
0.0250805
0.0224794
0.0199991
0.0176787
0.0155406
0.0135954
0.0118441
0.0102818
0.00889802
0.00768087
0.00661583
0.00568907
0.00488126
0.00417359
0.00354165
0.00297199
0.00244972
0.00198093
0.00155819
0.00119672
0.000871588
0.000606672
0.000348127
0.000144716
-0.328372
-0.307689
-0.284558
-0.259143
-0.231907
-0.20338
-0.173982
-0.144878
-0.116517
-0.0895692
-0.0646841
-0.0423217
-0.0228137
-0.00633756
0.00708581
0.0175747
0.0253582
0.030742
0.0340749
0.0357166
0.0360115
0.0352676
0.0337683
0.031755
0.0294234
0.0269285
0.024389
0.0218928
0.0195019
0.0172574
0.0151835
0.0132924
0.0115867
0.0100628
0.00871136
0.00752122
0.00647885
0.00557152
0.00478107
0.00408953
0.00347283
0.0029173
0.00240764
0.0019495
0.00153536
0.00118054
0.00086077
0.00059929
0.000344057
0.000142287
-0.336595
-0.315937
-0.29291
-0.267661
-0.240481
-0.211916
-0.182584
-0.153253
-0.124603
-0.0973223
-0.0720414
-0.0492451
-0.0292755
-0.0123185
0.00159703
0.0125815
0.0208562
0.0267192
0.0305124
0.0325908
0.0332956
0.0329288
0.0317635
0.0300441
0.0279695
0.0256969
0.0233481
0.0210145
0.0187613
0.016633
0.0146569
0.0128479
0.011211
0.00974485
0.00844168
0.00729185
0.00628317
0.00540441
0.00463901
0.00397025
0.00337477
0.00283887
0.00234684
0.00190372
0.0015019
0.00115663
0.000844649
0.000588342
0.000338021
0.000138747
-0.342442
-0.32305
-0.300465
-0.275643
-0.248878
-0.220613
-0.191505
-0.162285
-0.133645
-0.106265
-0.0807728
-0.0576713
-0.0373156
-0.0199018
-0.00547136
0.00607082
0.0149295
0.0213862
0.0257663
0.0284117
0.029654
0.0297918
0.0290794
0.0277581
0.0260317
0.0240608
0.0219706
0.0198568
0.0177894
0.0158175
0.0139725
0.0122731
0.0107277
0.00933785
0.00809837
0.0070016
0.00603713
0.0051955
0.00446201
0.00382161
0.00325206
0.00274002
0.00226954
0.001845
0.00145859
0.00112534
0.000823397
0.00057397
0.000330097
0.000134207
-0.345476
-0.326998
-0.305526
-0.281665
-0.255732
-0.228195
-0.199729
-0.171041
-0.142797
-0.115653
-0.09023
-0.0670436
-0.0464593
-0.0286848
-0.0137791
-0.00167089
0.0078182
0.0149429
0.0200027
0.0233159
0.0251989
0.0259413
0.0257859
0.0249557
0.0236578
0.0220588
0.0202881
0.0184461
0.0166085
0.0148296
0.0131463
0.0115818
0.0101488
0.00885243
0.00769083
0.00665889
0.00574835
0.00495169
0.00425625
0.00364888
0.00310899
0.00262399
0.00217802
0.00177485
0.0014064
0.00108707
0.00079725
0.000556346
0.000320379
0.000128796
-0.344816
-0.32696
-0.307076
-0.284778
-0.260161
-0.233789
-0.206424
-0.178748
-0.151351
-0.124833
-0.0998076
-0.0768017
-0.056192
-0.0381984
-0.022903
-0.0102657
-0.000144453
0.00767901
0.0134697
0.0175143
0.0201048
0.0215172
0.0219925
0.0217276
0.0209222
0.0197502
0.0183477
0.0168199
0.0152481
0.0136931
0.0121974
0.0107895
0.00948694
0.00829911
0.00722783
0.0062711
0.0054231
0.00467842
0.00402647
0.00345623
0.00294909
0.0024936
0.0020744
0.00169475
0.00134626
0.00104223
0.000766576
0.000535691
0.000308976
0.000122647
-0.340244
-0.322867
-0.304962
-0.284698
-0.261724
-0.23685
-0.211023
-0.184855
-0.158777
-0.133293
-0.109001
-0.0864481
-0.0660285
-0.0479786
-0.0324076
-0.0193139
-0.00859842
-8.72221e-05
0.0064431
0.0112427
0.0145718
0.0166878
0.0178245
0.0181736
0.0179077
0.0172022
0.0162021
0.0150194
0.013741
0.0124335
0.0111457
0.0099119
0.00875458
0.00768775
0.00671724
0.00584449
0.00506641
0.00437979
0.00377618
0.00324673
0.00277504
0.00235114
0.00196051
0.00160606
0.00127917
0.000991189
0.000731761
0.000512245
0.000296004
0.000115887
-0.331948
-0.315092
-0.299433
-0.281523
-0.260501
-0.237419
-0.213411
-0.189083
-0.164727
-0.140664
-0.117431
-0.0955916
-0.0755678
-0.0576252
-0.0419075
-0.0284546
-0.0172146
-0.00806251
-0.000820982
0.00472008
0.00878688
0.0116103
0.0134112
0.0143856
0.0146884
0.0144766
0.0139014
0.0130839
0.0121176
0.0110747
0.01001
0.00896353
0.00796302
0.00702714
0.00616591
0.00538438
0.00468237
0.004059
0.00350797
0.00302262
0.00258886
0.00219841
0.00183786
0.00150997
0.00120617
0.000934374
0.000693219
0.000486259
0.000281585
0.000108632
-0.320554
-0.304425
-0.291202
-0.275785
-0.256889
-0.235839
-0.213905
-0.191586
-0.169122
-0.146749
-0.124858
-0.103966
-0.084523
-0.0668405
-0.0511067
-0.0374056
-0.0257328
-0.016013
-0.00811701
-0.00187661
0.00289967
0.00641343
0.00886678
0.0104483
0.0113224
0.0116214
0.0114863
0.0110464
0.0104038
0.00963692
0.00880602
0.0079567
0.00712181
0.0063247
0.00557958
0.00489517
0.00427434
0.0037186
0.00322384
0.00278559
0.00239208
0.0020368
0.00170767
0.00140748
0.00112798
0.00087731
0.000651771
0.000458008
0.000265831
0.000100978
-0.307247
-0.292095
-0.281309
-0.268322
-0.251586
-0.232694
-0.212963
-0.192738
-0.17217
-0.15156
-0.131183
-0.111426
-0.0927235
-0.0754376
-0.0598122
-0.0459774
-0.0339743
-0.0237758
-0.0153
-0.00842074
-0.00298192
0.00118915
0.00427145
0.00644118
0.00786049
0.00866945
0.00898494
0.00893149
0.00861968
0.00813598
0.00754624
0.0069012
0.00623864
0.00558642
0.00496291
0.00438048
0.00384509
0.00336069
0.00292544
0.00253699
0.00218591
0.00186742
0.00157094
0.00129936
0.00104491
0.000817745
0.000607955
0.000427721
0.000248849
9.30038e-05
-0.293462
-0.27947
-0.270878
-0.260058
-0.245378
-0.228632
-0.211086
-0.192915
-0.174197
-0.155273
-0.136443
-0.117932
-0.100095
-0.0833251
-0.0679214
-0.0540628
-0.0418336
-0.0312514
-0.0222789
-0.014831
-0.00878663
-0.00400221
-0.000322158
0.00241264
0.00435613
0.00564943
0.00641423
0.00675476
0.00677974
0.00658381
0.00624006
0.00580445
0.00531936
0.00481694
0.00431956
0.00384317
0.00339685
0.00298703
0.00261414
0.00227796
0.00197131
0.00169114
0.00142846
0.00118632
0.000957611
0.000755131
0.000561724
0.000395549
0.000230746
8.4769e-05
-0.28032
-0.267566
-0.260775
-0.251747
-0.238913
-0.224187
-0.208691
-0.19244
-0.175468
-0.158124
-0.140761
-0.123518
-0.106632
-0.0904775
-0.0753963
-0.0616151
-0.0492593
-0.0383872
-0.0290026
-0.0210593
-0.0144707
-0.00912203
-0.00488129
-0.00160774
0.000840307
0.00259837
0.00379051
0.00452416
0.00489208
0.00498867
0.00489449
0.00467202
0.00436839
0.00401978
0.00365234
0.00328551
0.00293143
0.00259904
0.00229108
0.0020094
0.00174905
0.00150866
0.00128085
0.00106897
0.000866743
0.000690357
0.000512796
0.000361627
0.000211619
7.63185e-05
-0.268322
-0.25682
-0.251443
-0.243825
-0.232595
-0.219701
-0.206057
-0.191542
-0.17618
-0.160313
-0.14429
-0.128268
-0.112371
-0.0969088
-0.0822373
-0.0686239
-0.0562333
-0.04516
-0.0354453
-0.0270792
-0.0200081
-0.0141459
-0.00938436
-0.00560161
-0.00266997
-0.000462627
0.00114052
0.0022495
0.00296003
0.00335454
0.00351417
0.00350803
0.00338902
0.00319755
0.00296336
0.00270921
0.00245023
0.00219788
0.00195719
0.00173208
0.00151979
0.00132054
0.0011286
0.000947775
0.000772673
0.000617015
0.00046108
0.000326097
0.000191565
6.76845e-05
-0.257535
-0.247275
-0.242992
-0.236455
-0.226607
-0.215352
-0.203343
-0.19037
-0.176478
-0.161979
-0.147183
-0.132289
-0.117372
-0.102653
-0.0884637
-0.0750982
-0.0627556
-0.0515631
-0.0415956
-0.0328764
-0.0253833
-0.0190582
-0.0138168
-0.00955639
-0.00616413
-0.00352374
-0.00152121
-4.92462e-05
0.000989935
0.00168232
0.00210061
0.00231484
0.00238354
0.00235209
0.00225408
0.00211545
0.00195424
0.00178435
0.00161314
0.00144657
0.00128399
0.00112718
0.000972082
0.000823026
0.000675646
0.000540703
0.000407222
0.00028909
0.000170676
5.88974e-05
-0.247887
-0.238853
-0.235378
-0.229644
-0.221008
-0.211214
-0.200632
-0.189019
-0.176461
-0.163226
-0.149565
-0.135691
-0.121712
-0.107758
-0.0941069
-0.0810588
-0.0688382
-0.0576012
-0.0474526
-0.0384463
-0.0305893
-0.0238507
-0.0181698
-0.0134638
-0.0096351
-0.00657896
-0.00418904
-0.00236222
-0.00100244
-2.2491e-05
0.000654494
0.00109331
0.00135357
0.00148517
0.00152601
0.00150545
0.00144445
0.00135928
0.00125963
0.00115342
0.00104212
0.000929014
0.000811679
0.000695017
0.000575861
0.000463406
0.000352258
0.000250467
0.000148989
4.99883e-05
-0.239301
-0.231488
-0.228509
-0.223335
-0.215793
-0.207305
-0.197959
-0.187554
-0.176212
-0.164141
-0.151532
-0.13859
-0.12548
-0.112281
-0.0992034
-0.0865286
-0.0744938
-0.0632785
-0.0530142
-0.043782
-0.0356161
-0.0285118
-0.0224315
-0.0173122
-0.0130724
-0.00961945
-0.00685566
-0.00468335
-0.00300911
-0.00174656
-0.000818122
-0.000154978
0.000300137
0.000598315
0.000780955
0.000880936
0.000922335
0.000923912
0.000897668
0.000853464
0.000794865
0.000726587
0.00064789
0.000564208
0.000473767
0.000385281
0.000295203
0.00021031
0.000126416
4.09682e-05
-0.231741
-0.225161
-0.222314
-0.217488
-0.210944
-0.203595
-0.195302
-0.185968
-0.175727
-0.16472
-0.153091
-0.141028
-0.128714
-0.116239
-0.103753
-0.0914982
-0.079707
-0.0685757
-0.0582588
-0.0488618
-0.0404437
-0.0330239
-0.0265873
-0.0210903
-0.0164678
-0.0126399
-0.00951847
-0.00701204
-0.00503098
-0.0034905
-0.0023133
-0.00143008
-0.000780269
-0.000312522
1.5706e-05
0.000239679
0.00038641
0.000477208
0.000526512
0.000546155
0.000541795
0.000519577
0.000480477
0.000430503
0.000369384
0.000305617
0.000237105
0.000171904
0.000103169
3.18394e-05
-0.225191
-0.219819
-0.216704
-0.212128
-0.206568
-0.200245
-0.192905
-0.184563
-0.175329
-0.165289
-0.15456
-0.143306
-0.131706
-0.119899
-0.107997
-0.0961894
-0.0846852
-0.0736848
-0.0633615
-0.0538423
-0.0452098
-0.0375068
-0.0307399
-0.0248852
-0.0198942
-0.0157007
-0.0122265
-0.00938756
-0.00709884
-0.00527801
-0.00384857
-0.00274119
-0.0018946
-0.00125549
-0.000778673
-0.000426641
-0.000170411
1.34058e-05
0.000141551
0.000227812
0.000279977
0.000305615
0.000307493
0.00029231
0.00026143
0.000223109
0.000177053
0.000129815
7.91666e-05
2.26073e-05
-0.220248
-0.21567
-0.211542
-0.206901
-0.202039
-0.19648
-0.189982
-0.182589
-0.174333
-0.165256
-0.155447
-0.14503
-0.134148
-0.122953
-0.111596
-0.100253
-0.0890907
-0.0782929
-0.0680387
-0.0584705
-0.0496913
-0.0417656
-0.0347214
-0.0285539
-0.0232315
-0.0187015
-0.0148968
-0.0117415
-0.00915644
-0.00706287
-0.00538626
-0.00405776
-0.00301552
-0.00220497
-0.00157942
-0.00109939
-0.000733392
-0.000455932
-0.000248118
-9.43853e-05
1.51093e-05
8.92871e-05
0.00013266
0.000152583
0.000152104
0.000139298
0.000115842
8.70486e-05
5.46081e-05
1.33017e-05
-0.215932
-0.213315
-0.208221
-0.203706
-0.199091
-0.19374
-0.187535
-0.180493
-0.172621
-0.163952
-0.154563
-0.144564
-0.134092
-0.123288
-0.112295
-0.101272
-0.0903873
-0.0798188
-0.0697368
-0.0602815
-0.0515585
-0.0436376
-0.0365544
-0.0303131
-0.0248911
-0.0202445
-0.0163133
-0.0130276
-0.0103125
-0.00809217
-0.0062942
-0.00485151
-0.00370351
-0.00279652
-0.00208429
-0.00152755
-0.00109428
-0.000758264
-0.000499676
-0.000302448
-0.000155643
-4.96464e-05
2.12479e-05
6.42977e-05
8.35684e-05
8.6679e-05
7.721e-05
5.96226e-05
3.86992e-05
7.33963e-06
-0.211868
-0.209977
-0.204955
-0.200615
-0.19619
-0.191007
-0.184988
-0.178159
-0.170527
-0.162124
-0.153018
-0.143313
-0.133137
-0.122625
-0.111915
-0.101158
-0.0905201
-0.0801705
-0.0702723
-0.0609626
-0.0523462
-0.0444948
-0.0374473
-0.0312125
-0.0257731
-0.0210903
-0.0171092
-0.0137646
-0.0109851
-0.00869843
-0.00683436
-0.00532774
-0.00411931
-0.00315629
-0.00239301
-0.00179049
-0.00131665
-0.000945099
-0.000655608
-0.000431808
-0.000262159
-0.000136678
-4.89672e-05
8.30322e-06
3.99209e-05
5.32137e-05
5.28408e-05
4.25503e-05
2.89908e-05
3.64765e-06
-0.207324
-0.206092
-0.201299
-0.197079
-0.192832
-0.187834
-0.182007
-0.175397
-0.168017
-0.159893
-0.151088
-0.141697
-0.131839
-0.121643
-0.111241
-0.100781
-0.0904191
-0.0803186
-0.0706347
-0.0615003
-0.0530192
-0.0452641
-0.0382768
-0.03207
-0.0266313
-0.021927
-0.0179074
-0.0145119
-0.0116737
-0.00932382
-0.00739528
-0.00582511
-0.00455573
-0.00353557
-0.00271973
-0.00206966
-0.00155341
-0.00114454
-0.000822488
-0.000570595
-0.000376728
-0.000230565
-0.00012499
-5.25408e-05
-7.63236e-06
1.67473e-05
2.63368e-05
2.40829e-05
1.85244e-05
-3.39277e-07
-0.202831
-0.202173
-0.197657
-0.193528
-0.189447
-0.184645
-0.179019
-0.172634
-0.16551
-0.157668
-0.149165
-0.140089
-0.13055
-0.120671
-0.110579
-0.100416
-0.0903321
-0.080481
-0.071012
-0.0620542
-0.0537098
-0.0460526
-0.0391268
-0.0329493
-0.0275122
-0.0227869
-0.0187289
-0.0152822
-0.0123844
-0.00997041
-0.00797605
-0.00634076
-0.00500873
-0.00392969
-0.00305955
-0.00236028
-0.00180006
-0.00135244
-0.000996527
-0.00071538
-0.000496266
-0.000328526
-0.000204306
-0.000116014
-5.7243e-05
-2.12986e-05
-1.32788e-06
4.81727e-06
7.58157e-06
-4.49415e-06
-0.198321
-0.198197
-0.193996
-0.189957
-0.186036
-0.181441
-0.176026
-0.16987
-0.163003
-0.155443
-0.147242
-0.138481
-0.129261
-0.1197
-0.109918
-0.100053
-0.0902461
-0.0806452
-0.0713927
-0.0626134
-0.0544082
-0.0468513
-0.0399896
-0.0338434
-0.0284096
-0.0236646
-0.0195688
-0.0160712
-0.0131137
-0.0106349
-0.0085738
-0.00687225
-0.00547627
-0.00433695
-0.00341109
-0.00266124
-0.00205572
-0.0015681
-0.00117717
-0.000865725
-0.000620428
-0.000430287
-0.0002867
-0.000181951
-0.000108795
-6.08505e-05
-3.01139e-05
-1.52316e-05
-3.83247e-06
-8.81526e-06
-0.193792
-0.19414
-0.190275
-0.186339
-0.18257
-0.178188
-0.172994
-0.16707
-0.160461
-0.153186
-0.145287
-0.13684
-0.127941
-0.118699
-0.10923
-0.0996641
-0.0901372
-0.0807896
-0.0717572
-0.0631607
-0.0550992
-0.0476473
-0.0408541
-0.0347434
-0.0293163
-0.0245544
-0.020423
-0.0168759
-0.0138594
-0.0113159
-0.00918767
-0.00741913
-0.0059582
-0.00475744
-0.00377461
-0.00297287
-0.00232076
-0.00179189
-0.0013648
-0.00102199
-0.000749549
-0.000536158
-0.000372455
-0.000250607
-0.000162505
-0.000102079
-6.01454e-05
-3.61415e-05
-1.57601e-05
-1.33151e-05
-0.189292
-0.190015
-0.186496
-0.182679
-0.179054
-0.174886
-0.169921
-0.164234
-0.157885
-0.150894
-0.143298
-0.135167
-0.126589
-0.117667
-0.108512
-0.0992475
-0.0900027
-0.0809112
-0.0721023
-0.0636926
-0.0557794
-0.0484373
-0.0417172
-0.0356463
-0.03023
-0.0254543
-0.0212898
-0.0176949
-0.0146203
-0.0120126
-0.00981719
-0.00798112
-0.0064544
-0.00519115
-0.00415015
-0.00329527
-0.0025953
-0.00202398
-0.00155955
-0.00118432
-0.000883762
-0.000646259
-0.000461682
-0.000322075
-0.000218452
-0.000145042
-9.14657e-05
-5.79375e-05
-2.82178e-05
-1.79931e-05
-0.184823
-0.185837
-0.182665
-0.178988
-0.1755
-0.171545
-0.166816
-0.16137
-0.155282
-0.148574
-0.141282
-0.133465
-0.125208
-0.116607
-0.107767
-0.0988045
-0.0898434
-0.0810098
-0.0724273
-0.0642081
-0.0564473
-0.0492195
-0.0425771
-0.0365504
-0.0311487
-0.0263626
-0.0221675
-0.0185268
-0.0153955
-0.0127241
-0.0104616
-0.00855762
-0.00696441
-0.00563772
-0.00453747
-0.00362826
-0.00287924
-0.00226427
-0.00176139
-0.00135268
-0.00102306
-0.000760586
-0.000554379
-0.000396356
-0.000276636
-0.000189742
-0.000124079
-8.06208e-05
-4.12098e-05
-2.28436e-05
-0.180375
-0.181621
-0.178793
-0.175274
-0.171921
-0.168173
-0.163683
-0.158483
-0.152656
-0.146232
-0.139241
-0.131738
-0.123801
-0.11552
-0.106995
-0.0983355
-0.0896588
-0.0810847
-0.0727309
-0.0647054
-0.0571009
-0.0499916
-0.0434314
-0.0374531
-0.0320699
-0.027277
-0.0230542
-0.0193698
-0.0161833
-0.0134492
-0.0111198
-0.00914777
-0.00748756
-0.00609665
-0.00493617
-0.00397156
-0.00317236
-0.00251263
-0.00197021
-0.00152701
-0.00116738
-0.000879101
-0.000650522
-0.000473432
-0.000337049
-0.00023617
-0.000157983
-0.000104188
-5.47378e-05
-2.78601e-05
-0.175954
-0.177385
-0.174888
-0.171543
-0.168325
-0.164778
-0.160529
-0.155578
-0.150012
-0.14387
-0.137179
-0.129989
-0.122371
-0.114409
-0.106197
-0.0978402
-0.0894481
-0.0811345
-0.0730113
-0.0651822
-0.0577375
-0.0507509
-0.0442771
-0.0383517
-0.0329912
-0.0281949
-0.0239476
-0.0202219
-0.0169819
-0.0141862
-0.0117905
-0.00975055
-0.00802303
-0.00656728
-0.00534574
-0.00432477
-0.00347436
-0.00276882
-0.00218583
-0.00170717
-0.00131664
-0.00100174
-0.000750061
-0.000553268
-0.000399666
-0.00028431
-0.000193169
-0.000128631
-6.88002e-05
-3.30349e-05
-0.171572
-0.17314
-0.170959
-0.167804
-0.164723
-0.161369
-0.157361
-0.152661
-0.147356
-0.141494
-0.135101
-0.128221
-0.120919
-0.113274
-0.105375
-0.097319
-0.089211
-0.0811583
-0.073267
-0.0656366
-0.0583549
-0.0514947
-0.0451116
-0.0392432
-0.0339095
-0.0291138
-0.0248452
-0.0210809
-0.0177895
-0.0149335
-0.0124724
-0.0103647
-0.00856979
-0.00704878
-0.00576553
-0.00468738
-0.00378484
-0.00303252
-0.00240803
-0.00189299
-0.00147069
-0.00112839
-0.000852915
-0.0006358
-0.000464441
-0.000334125
-0.000229614
-0.000153932
-8.339e-05
-3.83583e-05
-0.167235
-0.1689
-0.167018
-0.164064
-0.161125
-0.157958
-0.154186
-0.149739
-0.144694
-0.139109
-0.133011
-0.126438
-0.119449
-0.112118
-0.104529
-0.0967725
-0.0889475
-0.0811552
-0.0734965
-0.0660666
-0.0589506
-0.0522203
-0.0459319
-0.0401248
-0.034822
-0.0300307
-0.0257442
-0.0219442
-0.0186036
-0.0156891
-0.0131636
-0.0109889
-0.00912664
-0.00754016
-0.00619471
-0.00505871
-0.00410325
-0.00330332
-0.00263645
-0.00208419
-0.00162933
-0.00125889
-0.000958953
-0.000720927
-0.000531299
-0.00038556
-0.000267279
-0.000180062
-9.84933e-05
-4.38185e-05
-0.162948
-0.164677
-0.163076
-0.160332
-0.157541
-0.154554
-0.151013
-0.146818
-0.142033
-0.136722
-0.130914
-0.124644
-0.117965
-0.110945
-0.103662
-0.0962019
-0.0886578
-0.081125
-0.0736989
-0.0664707
-0.0595226
-0.0529253
-0.0467351
-0.0409934
-0.0357256
-0.0309426
-0.0266418
-0.0228092
-0.0194219
-0.0164507
-0.0138622
-0.0116213
-0.00969212
-0.00804019
-0.00663227
-0.00543792
-0.00442891
-0.00358065
-0.00287064
-0.0022804
-0.00179226
-0.001393
-0.00106799
-0.000808508
-0.000600132
-0.00043853
-0.000306106
-0.000206979
-0.000114088
-4.94018e-05
-0.158722
-0.160487
-0.159147
-0.15662
-0.153982
-0.151171
-0.147852
-0.143906
-0.13938
-0.134339
-0.128817
-0.122845
-0.11647
-0.109756
-0.102775
-0.0956085
-0.0883426
-0.0810673
-0.0738733
-0.0668472
-0.0600687
-0.053607
-0.0475185
-0.0418458
-0.036617
-0.0318463
-0.0275348
-0.0236728
-0.0202416
-0.017216
-0.014566
-0.0122599
-0.0102645
-0.00854741
-0.00707697
-0.00582399
-0.00476097
-0.00386381
-0.00311003
-0.00248116
-0.0019591
-0.00153042
-0.0011798
-0.00089835
-0.000670792
-0.000492922
-0.000346015
-0.000234625
-0.000130144
-5.5092e-05
-0.154573
-0.156344
-0.155245
-0.152939
-0.15046
-0.147819
-0.144716
-0.141014
-0.136744
-0.131968
-0.126725
-0.121046
-0.11497
-0.108556
-0.101873
-0.0949945
-0.0880029
-0.0809826
-0.074019
-0.0671948
-0.0605869
-0.0542628
-0.0482789
-0.0426788
-0.0374929
-0.0327382
-0.0284198
-0.0245319
-0.0210597
-0.0179819
-0.0152725
-0.0129026
-0.0108419
-0.00906011
-0.00752734
-0.00621567
-0.00509838
-0.00415192
-0.0033539
-0.00268588
-0.00212937
-0.00167076
-0.00129405
-0.000990206
-0.000743088
-0.000548589
-0.000386901
-0.000262926
-0.000146618
-6.08704e-05
-0.150513
-0.152265
-0.151386
-0.149301
-0.146988
-0.144512
-0.141616
-0.138152
-0.134133
-0.129618
-0.124648
-0.119253
-0.11347
-0.10735
-0.100958
-0.0943623
-0.0876405
-0.0808714
-0.0741358
-0.0675126
-0.0610754
-0.0548904
-0.0490135
-0.0434891
-0.0383496
-0.0336148
-0.0292932
-0.0253827
-0.0218727
-0.0187455
-0.0159787
-0.0135468
-0.011422
-0.00957628
-0.00798165
-0.00661147
-0.00543989
-0.00444392
-0.00360137
-0.00289383
-0.00230248
-0.00181353
-0.00141036
-0.00108376
-0.000816776
-0.000605343
-0.000428626
-0.000291784
-0.000163457
-6.67155e-05
-0.146559
-0.148267
-0.147587
-0.145722
-0.143577
-0.141265
-0.138566
-0.135332
-0.131558
-0.127297
-0.122594
-0.117476
-0.111976
-0.106143
-0.100034
-0.0937152
-0.0872572
-0.0807348
-0.074224
-0.0677996
-0.0615327
-0.0554875
-0.0497193
-0.0442733
-0.0391834
-0.0344722
-0.030151
-0.0262215
-0.0226768
-0.0195032
-0.0166815
-0.0141894
-0.012002
-0.0100936
-0.00843787
-0.00700964
-0.00578398
-0.00473856
-0.00385137
-0.00310412
-0.00247768
-0.00195814
-0.00152825
-0.00117863
-0.000891552
-0.00066295
-0.00047102
-0.000321081
-0.00018059
-7.26021e-05
-0.142726
-0.14437
-0.143867
-0.142217
-0.140244
-0.138092
-0.135581
-0.132566
-0.12903
-0.125017
-0.120571
-0.115721
-0.110497
-0.104941
-0.0991073
-0.0930569
-0.0868561
-0.0805745
-0.074284
-0.0680556
-0.0619574
-0.0560518
-0.0503935
-0.045028
-0.0399907
-0.0353062
-0.030989
-0.0270441
-0.0234682
-0.0202511
-0.0173772
-0.0148272
-0.0125791
-0.0106094
-0.00889362
-0.00740811
-0.00612889
-0.00503431
-0.00410262
-0.00331568
-0.00265411
-0.00210385
-0.00164712
-0.00127435
-0.000967046
-0.000721123
-0.000513874
-0.00035067
-0.000197932
-7.85014e-05
-0.139032
-0.140593
-0.140245
-0.138803
-0.137003
-0.135008
-0.132676
-0.12987
-0.126562
-0.122789
-0.118591
-0.113998
-0.109039
-0.103751
-0.098183
-0.0923922
-0.0864403
-0.0803927
-0.0743169
-0.0682804
-0.0623485
-0.0565815
-0.0510334
-0.0457498
-0.0407673
-0.0361126
-0.0318027
-0.0278459
-0.0242422
-0.0209848
-0.0180616
-0.0154564
-0.0131497
-0.0111205
-0.00934618
-0.0078045
-0.00647254
-0.0053294
-0.00435362
-0.00352724
-0.0028307
-0.00224981
-0.00176627
-0.00137033
-0.00104281
-0.000779514
-0.000556931
-0.000380373
-0.000215377
-8.43792e-05
-0.135496
-0.136959
-0.136742
-0.1355
-0.133872
-0.132031
-0.129868
-0.127259
-0.124169
-0.120626
-0.116665
-0.112319
-0.107612
-0.102581
-0.0972678
-0.0917263
-0.086014
-0.0801922
-0.0743244
-0.0684746
-0.0627051
-0.0570747
-0.0516362
-0.0464353
-0.0415093
-0.0368869
-0.0325875
-0.0286221
-0.024994
-0.0216998
-0.0187304
-0.0160728
-0.01371
-0.0116235
-0.00979239
-0.00819602
-0.00681252
-0.00562174
-0.00460259
-0.00373731
-0.00300619
-0.00239496
-0.00188485
-0.0014659
-0.0011183
-0.000837707
-0.000599884
-0.000409977
-0.0002328
-9.01957e-05
-0.132137
-0.13349
-0.133384
-0.132329
-0.13087
-0.129179
-0.127175
-0.12475
-0.121866
-0.118541
-0.114807
-0.110694
-0.106228
-0.10144
-0.0963695
-0.0910657
-0.0855823
-0.0799766
-0.0743085
-0.0686388
-0.063027
-0.0575299
-0.0521994
-0.0470809
-0.0422126
-0.0376244
-0.0333381
-0.0293673
-0.0257182
-0.0223906
-0.0193785
-0.0166716
-0.0142556
-0.0121143
-0.0102287
-0.00857949
-0.00714603
-0.00590891
-0.00484745
-0.00394412
-0.00317913
-0.0025381
-0.00200187
-0.00156025
-0.00119288
-0.000895211
-0.000642368
-0.00043923
-0.000250049
-9.59039e-05
-0.128974
-0.130209
-0.130193
-0.129312
-0.128018
-0.12647
-0.124616
-0.122363
-0.119671
-0.116551
-0.11303
-0.109137
-0.104897
-0.100338
-0.0954968
-0.0904176
-0.0851507
-0.0797501
-0.0742722
-0.0687744
-0.0633141
-0.0579458
-0.0527204
-0.0476831
-0.0428726
-0.0383201
-0.0340491
-0.0300758
-0.0264091
-0.0230516
-0.0200003
-0.0172475
-0.0147816
-0.0125884
-0.0106509
-0.00895127
-0.00746986
-0.00618813
-0.00508582
-0.00414565
-0.0033478
-0.0026778
-0.00211616
-0.00165245
-0.00126581
-0.000951444
-0.000683952
-0.000467836
-0.000266947
-0.000101448
-0.126031
-0.127142
-0.127197
-0.126474
-0.125338
-0.123929
-0.122214
-0.120118
-0.117603
-0.114673
-0.111351
-0.107664
-0.103634
-0.0992879
-0.0946599
-0.0897904
-0.0847262
-0.0795179
-0.0742187
-0.0688834
-0.0635666
-0.0583212
-0.0531968
-0.0482384
-0.0434849
-0.0389686
-0.0347147
-0.0307415
-0.0270603
-0.0236765
-0.0205895
-0.0177946
-0.0152824
-0.0130408
-0.0110545
-0.00930718
-0.00778034
-0.00645618
-0.00531491
-0.00433953
-0.0035102
-0.00281241
-0.00222636
-0.00174138
-0.00133621
-0.00100573
-0.000724135
-0.000495448
-0.000283289
-0.000106764
-0.12333
-0.124317
-0.124425
-0.123845
-0.122856
-0.121577
-0.119991
-0.118038
-0.115683
-0.112927
-0.109788
-0.106289
-0.102452
-0.0983021
-0.0938701
-0.0891937
-0.0843164
-0.0792858
-0.0741523
-0.0689679
-0.0637851
-0.0586551
-0.0536263
-0.0487431
-0.0440447
-0.0395643
-0.0353286
-0.0313575
-0.0276648
-0.0242581
-0.0211394
-0.0183064
-0.0157518
-0.0134655
-0.0114341
-0.00964252
-0.00807329
-0.00670942
-0.00553158
-0.00452307
-0.00366407
-0.00294003
-0.0023309
-0.00182579