/*--------------------------------*- C++ -*----------------------------------*\
  =========                 |
  \\      /  F ield         | OpenFOAM: The Open Source CFD Toolbox
   \\    /   O peration     | Website:  https://openfoam.org
    \\  /    A nd           | Version:  7
     \\/     M anipulation  |
\*---------------------------------------------------------------------------*/
FoamFile
{
    version     2.0;
    format      ascii;
    class       surfaceScalarField;
    location    "10";
    object      phi;
}
// * * * * * * * * * * * * * * * * * * * * * * * * * * * * * * * * * * * * * //

dimensions      [0 3 -1 0 0 0 0];

internalField   nonuniform List<scalar> 
11919
(
-0.00118017
0.000224294
1.95543e-09
-0.00142777
0.000247598
1.96807e-09
-0.00169848
0.000270712
1.88871e-09
-0.0019906
0.000292117
1.68497e-09
-0.00230038
0.000309777
1.32821e-09
-0.0026215
0.000321125
7.93484e-10
-0.00294465
0.000323148
5.73753e-11
-0.00325654
0.000311894
-8.61583e-10
-0.0035407
0.000284159
-1.96748e-09
-0.00377526
0.000234562
-3.19579e-09
-0.00393218
0.000156929
-4.47355e-09
-0.0040011
6.89194e-05
-5.60917e-09
-8.06122e-05
-6.42472e-09
-0.00392048
-0.00112666
0.000433285
-0.00135431
0.00047525
-0.0015994
0.000515804
-0.00185908
0.000551798
-0.00212841
0.000579103
-0.00239985
0.00059257
-0.00266317
0.000586464
-0.00290418
0.000552905
-0.00310625
0.000486228
-0.00325008
0.000378388
-0.00330018
0.000207036
-0.00326095
2.96882e-05
-0.000286001
-0.00305556
-0.00102345
0.000613027
-0.00121325
0.000665051
-0.00141014
0.000712688
-0.00160938
0.000751047
-0.00180419
0.000773912
-0.00198522
0.000773592
-0.00214106
0.000742305
-0.00225656
0.000668404
-0.00231449
0.00054416
-0.00230266
0.000366555
-0.00217341
7.77925e-05
-0.00195407
-0.000189657
-0.00068901
-0.00155106
-0.000877544
0.000752017
-0.00101519
0.000802699
-0.0011465
0.000843999
-0.00126475
0.000869294
-0.00136134
0.000870502
-0.00142528
0.000837528
-0.00144453
0.000761559
-0.0014038
0.000627671
-0.00128516
0.000425523
-0.001082
0.000163398
-0.00075539
-0.00024882
-0.00030554
-0.000639507
-0.00129046
0.000295905
-0.00069812
-0.000773734
0.000878313
-0.000828281
0.000898546
-0.000853367
0.000894379
-0.000839203
0.000856338
-0.000773813
0.000772138
-0.00064564
0.000633385
-0.000439758
0.00042179
-0.000144608
0.000130373
0.000266754
-0.000247964
0.000785974
-0.000768039
0.00143533
-0.00128886
-0.00211384
0.00225872
-0.000503545
0.000886477
-0.000476067
0.000871069
-0.000403459
0.000821771
-0.000275486
0.000728366
-8.01963e-05
0.000576848
0.000193186
0.000360003
0.000562106
5.28706e-05
0.00102898
-0.000336499
0.00161863
-0.000837612
0.0023348
-0.00148422
0.00316168
-0.00211574
-0.00312383
0.00417166
-0.000218428
0.000825598
-0.000108405
0.000761046
6.07417e-05
0.000652624
0.000299682
0.000489425
0.000620547
0.000255984
0.00103042
-4.98741e-05
0.0015514
-0.000468107
0.00217457
-0.000959669
0.00293426
-0.0015973
0.00381664
-0.00236659
0.00481049
-0.00310959
-0.00426879
0.00595545
7.04803e-05
0.000696648
0.000260901
0.000570626
0.000523188
0.000390337
0.000867721
0.000144892
0.00130738
-0.000183678
0.00184673
-0.000589225
0.00251031
-0.00113169
0.00328217
-0.00173153
0.00419699
-0.00251212
0.00521582
-0.00338543
0.00635302
-0.00424679
-0.00547551
0.00755974
0.000356434
0.000501376
0.000624868
0.000302192
0.000977411
3.7794e-05
0.00142495
-0.000302643
0.00198042
-0.000739154
0.00264819
-0.00125699
0.00344682
-0.00193032
0.00436036
-0.00264507
0.00540837
-0.00356013
0.00652394
-0.004501
0.00774585
-0.00546869
-0.00665215
0.00892249
0.000638473
0.000240198
0.000985161
-4.44964e-05
0.00142933
-0.000406376
0.0019824
-0.000855715
0.00265538
-0.00141213
0.00345297
-0.00205458
0.00437738
-0.00285474
0.00541295
-0.00368064
0.00654858
-0.00469575
0.00770169
-0.00565412
0.00890829
-0.00667529
-0.00770594
0.00996207
0.000922201
0.00135206
-0.000474358
0.00189425
-0.000948566
0.00255936
-0.00152083
0.00335198
-0.00220475
0.00427224
-0.00297484
0.00529861
-0.00388111
0.00640982
-0.00479185
0.00755825
-0.00584419
0.00866789
-0.00676376
0.00974938
-0.00775678
-0.00857686
0.0106203
0.00174124
-0.000996627
0.0023901
-0.00159742
0.0031706
-0.00230133
0.00407461
-0.00310876
0.00508917
-0.00398939
0.00616776
-0.00495969
0.00727982
-0.0059039
0.00835345
-0.00691783
0.00933833
-0.00774863
0.0102262
-0.0086447
-0.00926168
0.0109111
0.0021672
-0.00162112
0.00292602
-0.00235624
0.00381144
-0.00318676
0.00479691
-0.00409422
0.00585106
-0.00504355
0.00691017
-0.0060188
0.00794033
-0.00693406
0.00886971
-0.00784721
0.00968494
-0.00856386
0.0103789
-0.00933864
-0.00980427
0.0109215
0.00263423
-0.00235092
0.00349152
-0.00321353
0.00444949
-0.00414472
0.00546287
-0.00510761
0.00648582
-0.0060665
0.007454
-0.00698698
0.00834332
-0.00782338
0.00910308
-0.00860696
0.00975738
-0.00921816
0.010305
-0.00988628
-0.0102612
0.010762
0.00312914
0.00405292
-0.00413731
0.00503087
-0.00512267
0.00600749
-0.00608423
0.00693544
-0.00699445
0.00776802
-0.00781957
0.00850082
-0.00855618
0.00911066
-0.00921681
0.00964679
-0.00975428
0.010103
-0.0103425
-0.0106747
0.0105164
0.00456151
-0.00507844
0.00550015
-0.00606131
0.00638522
-0.0069693
0.00718271
-0.00779194
0.00787317
-0.00851003
0.00847045
-0.00915346
0.00897187
-0.00971822
0.00943402
-0.0102164
0.00983648
-0.0107449
-0.0110688
0.0102306
0.00497086
0.00582253
-0.00691298
0.00658744
-0.0077342
0.00725242
-0.00845692
0.00782227
-0.00907987
0.00831921
-0.0096504
0.00875099
-0.01015
0.00916837
-0.0106338
0.0095375
-0.0111141
-0.0114572
0.00992586
0.00599412
-0.00765359
0.00663803
-0.00837812
0.00719052
-0.00900941
0.00767033
-0.00955968
0.00809843
-0.0100785
0.00848718
-0.0105388
0.00887436
-0.011021
0.00922163
-0.0114613
-0.0118473
0.00961174
0.00603572
0.0065753
-0.0089177
0.00704189
-0.009476
0.00745836
-0.00997615
0.00784009
-0.0104602
0.0082015
-0.0109002
0.00856321
-0.0113827
0.00889561
-0.0117937
-0.0122403
0.00928862
0.00643574
-0.00937503
0.00684001
-0.00988027
0.00721212
-0.0103483
0.00756209
-0.0108102
0.00790463
-0.0112427
0.00824143
-0.0117195
0.00855446
-0.0121068
-0.0126479
0.00896209
0.00624494
0.00660446
-0.0102398
0.0069445
-0.0106883
0.00727145
-0.0111372
0.00759821
-0.0115695
0.00791774
-0.012039
0.00823884
-0.0124279
-0.0129554
0.00854625
0.0063525
-0.0105662
0.00666773
-0.0110035
0.00697615
-0.0114456
0.00728643
-0.0118797
0.00758909
-0.0123417
0.00791118
-0.0127499
-0.0132697
0.00822551
0.00608942
0.00638403
-0.0112981
0.0066756
-0.0117372
0.00696926
-0.0121734
0.00726284
-0.0126353
0.00756523
-0.0130523
-0.013567
0.00786254
0.00609536
0.0063704
-0.0120122
0.00664933
-0.0124523
0.00692682
-0.0129128
0.0072166
-0.0133421
-0.0138612
0.00751086
0.00606149
0.00632381
-0.0127147
0.00658781
-0.0131768
0.00686368
-0.013618
-0.0141345
0.00713696
0.00599459
0.00624258
-0.0134247
0.00650106
-0.0138765
-0.0143949
0.00676144
0.00589222
0.00613408
-0.0141183
-0.0146365
0.00637563
0.00575977
0.00598368
0.00575977
0.0141183
0.0146365
0.00598368
0.00589222
0.0134247
0.00613408
0.0138765
0.0143949
0.00637563
0.00599459
0.0127147
0.00624258
0.0131768
0.00650106
0.013618
0.0141345
0.00676144
0.00606149
0.0120122
0.00632381
0.0124523
0.00658781
0.0129128
0.00686368
0.0133421
0.0138612
0.00713696
0.00609536
0.0112981
0.0063704
0.0117372
0.00664933
0.0121734
0.00692682
0.0126353
0.0072166
0.0130523
0.013567
0.00751086
0.00608942
0.0105662
0.00638403
0.0110035
0.0066756
0.0114456
0.00696926
0.0118797
0.00726284
0.0123417
0.00756523
0.01275
0.0132697
0.00786254
0.0063525
0.0102398
0.00666773
0.0106883
0.00697615
0.0111372
0.00728643
0.0115695
0.00758909
0.012039
0.00791118
0.0124279
0.0129554
0.00822551
0.00624494
0.00937503
0.00660446
0.00988027
0.0069445
0.0103483
0.00727145
0.0108102
0.00759821
0.0112427
0.00791774
0.0117195
0.00823884
0.0121068
0.0126479
0.00854624
0.00643574
0.0089177
0.00684001
0.009476
0.00721212
0.00997615
0.00756208
0.0104602
0.00790463
0.0109002
0.00824143
0.0113827
0.00855446
0.0117937
0.0122403
0.00896209
0.00603572
0.00765359
0.0065753
0.00837812
0.00704189
0.00900941
0.00745836
0.00955968
0.00784009
0.0100785
0.0082015
0.0105388
0.00856321
0.011021
0.00889561
0.0114613
0.0118473
0.00928861
0.00599412
0.00691298
0.00663804
0.00773421
0.00719052
0.00845692
0.00767033
0.00907987
0.00809843
0.0096504
0.00848717
0.01015
0.00887435
0.0106338
0.00922163
0.0111141
0.0114572
0.00961174
0.00497086
0.00507844
0.00582253
0.00606131
0.00658744
0.0069693
0.00725242
0.00779194
0.00782227
0.00851003
0.00831921
0.00915347
0.00875099
0.00971823
0.00916837
0.0102164
0.0095375
0.0107449
0.0110688
0.00992586
0.00456151
0.00413731
0.00550015
0.00512267
0.00638522
0.00608423
0.00718272
0.00699445
0.00787317
0.00781957
0.00847045
0.00855619
0.00897187
0.00921681
0.00943402
0.00975429
0.00983648
0.0103425
0.0106747
0.0102306
0.00312914
0.00235092
0.00405292
0.00321353
0.00503087
0.00414473
0.00600749
0.00510761
0.00693544
0.0060665
0.00776802
0.00698699
0.00850082
0.00782339
0.00911066
0.00860697
0.00964679
0.00921816
0.010103
0.00988628
0.0102612
0.0105164
0.00263423
0.00162112
0.00349152
0.00235624
0.00444949
0.00318676
0.00546288
0.00409422
0.00648582
0.00504355
0.007454
0.00601881
0.00834332
0.00693407
0.00910308
0.00784721
0.00975738
0.00856387
0.010305
0.00933864
0.00980427
0.010762
0.0021672
0.000996626
0.00292602
0.00159742
0.00381144
0.00230133
0.00479691
0.00310876
0.00585106
0.0039894
0.00691017
0.0049597
0.00794033
0.00590391
0.00886971
0.00691783
0.00968494
0.00774864
0.0103789
0.0086447
0.00926168
0.0109215
0.00174124
0.000474357
0.0023901
0.000948565
0.0031706
0.00152083
0.00407462
0.00220475
0.00508917
0.00297484
0.00616776
0.00388111
0.00727982
0.00479185
0.00835345
0.0058442
0.00933833
0.00676376
0.0102262
0.00775678
0.00857687
0.0109111
0.000922203
-0.000240199
0.00135206
4.44953e-05
0.00189425
0.000406375
0.00255937
0.000855715
0.00335198
0.00141213
0.00427224
0.00205458
0.00529861
0.00285474
0.00640982
0.00368064
0.00755826
0.00469576
0.00866789
0.00565412
0.00974938
0.00667529
0.00770594
0.0106203
0.000638475
-0.000501378
0.000985163
-0.000302193
0.00142933
-3.77948e-05
0.00198241
0.000302643
0.00265538
0.000739156
0.00345297
0.00125699
0.00437738
0.00193033
0.00541296
0.00264507
0.00654858
0.00356014
0.0077017
0.00450101
0.00890829
0.0054687
0.00665216
0.00996207
0.000356436
-0.00069665
0.000624871
-0.000570627
0.000977414
-0.000390338
0.00142495
-0.000144892
0.00198043
0.000183679
0.00264819
0.000589227
0.00344683
0.00113169
0.00436037
0.00173153
0.00540838
0.00251213
0.00652395
0.00338543
0.00774585
0.0042468
0.00547552
0.00892249
7.04822e-05
-0.0008256
0.000260903
-0.000761048
0.00052319
-0.000652625
0.000867724
-0.000489426
0.00130739
-0.000255983
0.00184674
4.98761e-05
0.00251032
0.00046811
0.00328218
0.000959675
0.00419699
0.00159731
0.00521583
0.0023666
0.00635302
0.0031096
0.0042688
0.00755974
-0.000218426
-0.00088648
-0.000108403
-0.000871071
6.07442e-05
-0.000821773
0.000299685
-0.000728367
0.00062055
-0.000576848
0.00103043
-0.000360001
0.0015514
-5.28672e-05
0.00217457
0.000336504
0.00293426
0.000837619
0.00381664
0.00148422
0.00481049
0.00211575
0.00312384
0.00595545
-0.000503543
-0.000878316
-0.000476065
-0.000898549
-0.000403456
-0.000894381
-0.000275483
-0.00085634
-8.01932e-05
-0.000772138
0.00019319
-0.000633384
0.000562109
-0.000421787
0.00102898
-0.000130368
0.00161863
0.000247971
0.00233481
0.000768048
0.00316168
0.00128887
0.00211386
0.00417167
-0.000698119
-0.00075202
-0.000773733
-0.000802702
-0.00082828
-0.000844002
-0.000853365
-0.000869297
-0.0008392
-0.000870504
-0.00077381
-0.000837528
-0.000645636
-0.000761558
-0.000439754
-0.000627669
-0.000144604
-0.000425518
0.000266758
-0.000163391
0.000785977
0.000248829
0.00143533
0.000639518
0.00129047
0.00225872
-0.000877543
-0.000613031
-0.00101519
-0.000665055
-0.0011465
-0.000712691
-0.00126475
-0.000751049
-0.00136134
-0.000773914
-0.00142527
-0.000773593
-0.00144453
-0.000742304
-0.00140379
-0.000668402
-0.00128516
-0.000544156
-0.001082
-0.000366549
-0.000755387
-7.77836e-05
-0.000305537
0.000189668
0.000689021
0.000295908
-0.00102345
-0.000433289
-0.00121325
-0.000475254
-0.00141014
-0.000515808
-0.00160938
-0.000551802
-0.00180419
-0.000579105
-0.00198521
-0.000592571
-0.00214106
-0.000586464
-0.00225655
-0.000552903
-0.00231449
-0.000486224
-0.00230265
-0.000378382
-0.00217341
-0.000207027
-0.00195406
-2.96771e-05
0.000286013
-0.00155106
-0.00112666
-0.000224297
-0.00135431
-0.000247602
-0.0015994
-0.000270716
-0.00185908
-0.00029212
-0.00212841
-0.000309779
-0.00239985
-0.000321127
-0.00266317
-0.000323148
-0.00290418
-0.000311893
-0.00310625
-0.000284155
-0.00325007
-0.000234555
-0.00330018
-0.00015692
-0.00326095
-6.89081e-05
8.06248e-05
-0.00305556
-0.00118017
-0.00142777
-0.00169848
-0.0019906
-0.00230038
-0.0026215
-0.00294465
-0.00325654
-0.0035407
-0.00377526
-0.00393218
-0.0040011
-0.00392048
-0.0037184
-0.000202071
-4.1015e-09
-0.00347241
-0.000245987
-4.20399e-09
-0.00318354
-0.000288869
-4.19006e-09
-0.00285163
-0.000331905
-4.04933e-09
-0.0024779
-0.000373722
-3.76991e-09
-0.00206445
-0.000413453
-3.34326e-09
-0.00161515
-0.00044929
-2.78479e-09
-0.0011346
-0.000480555
-2.10629e-09
-0.000628155
-0.000506441
-1.3375e-09
-0.000101927
-0.000526227
-4.97745e-10
0.000436362
-0.000538289
3.73549e-10
0.00098033
-0.00054397
1.20452e-09
0.00152302
-0.000542695
1.99452e-09
0.00205787
-0.000534854
2.69728e-09
0.002579
-0.000521124
3.27984e-09
0.00308138
-0.000502385
3.7211e-09
0.00356103
-0.00047966
4.009e-09
0.00401508
-0.00045405
4.14014e-09
0.00444171
-0.000426638
4.11879e-09
0.00483999
-0.000398282
3.95683e-09
0.00520968
-0.000369693
3.67209e-09
0.00555123
-0.000341548
3.28462e-09
0.00586559
-0.000314371
2.81604e-09
0.00615415
-0.000288562
2.28872e-09
0.00641855
-0.000264396
1.72494e-09
0.00666058
-0.000242031
1.14589e-09
0.00688211
-0.000221536
5.71628e-10
0.00708501
-0.000202901
2.0585e-11
0.00727108
-0.000186066
-4.88106e-10
0.007442
-0.000170923
-9.40933e-10
0.00759936
-0.000157355
-1.32251e-09
0.00774459
-0.000145229
-1.62082e-09
0.00787901
-0.000134414
-1.82577e-09
0.00800376
-0.000124747
-1.92971e-09
0.00811989
-0.000116134
-1.92706e-09
0.00822844
-0.000108546
-1.81664e-09
0.00833048
-0.000102043
-1.60397e-09
0.00842691
-9.64229e-05
-1.30853e-09
0.00851805
-9.11445e-05
-9.61977e-10
0.00860314
-8.50891e-05
-6.10209e-10
0.00868037
-7.7225e-05
-2.92797e-10
0.00874701
-6.66384e-05
-4.58702e-11
0.00880062
-5.36169e-05
1.25192e-10
0.00883931
-3.86892e-05
2.18001e-10
0.00886308
-2.37643e-05
2.61889e-10
0.00887252
-9.44255e-06
2.64132e-10
0.00887044
2.07642e-06
2.46734e-10
0.0088581
1.23397e-05
2.09876e-10
0.00883961
1.84924e-05
1.95586e-10
2.58085e-05
1.50528e-10
-0.00285522
-0.000402411
-0.0026168
-0.000484411
-0.00233703
-0.000568636
-0.00201684
-0.000652095
-0.00165764
-0.000732931
-0.0012618
-0.000809284
-0.000832267
-0.000878828
-0.000374258
-0.000938564
0.000106234
-0.000986932
0.000602658
-0.00102265
0.00111029
-0.00104592
0.00162196
-0.00105564
0.00213104
-0.00105178
0.00263135
-0.00103516
0.00311736
-0.00100714
0.00358451
-0.000969528
0.0040292
-0.00092435
0.0044489
-0.000873751
0.0048421
-0.000819844
0.00520821
-0.000764393
0.0055472
-0.000708675
0.00585962
-0.000653972
0.00614653
-0.000601282
0.00640933
-0.000551358
0.00664965
-0.000504715
0.00686926
-0.000461644
0.00706998
-0.000422258
0.00725361
-0.000386525
0.00742185
-0.000354311
0.00757632
-0.000325394
0.0077185
-0.000299534
0.00784974
-0.000276466
0.00797126
-0.000255931
0.00808412
-0.000237606
0.00818928
-0.000221294
0.00828765
-0.000206921
0.00838021
-0.000194605
0.00846776
-0.000183969
0.00855062
-0.000174007
0.00862811
-0.000162577
0.00869858
-0.000147694
0.00875949
-0.000127552
0.00880854
-0.000102667
0.00884385
-7.39936e-05
0.00886531
-4.52275e-05
0.00887336
-1.74925e-05
0.00887058
4.85858e-06
0.00885803
2.4886e-05
0.00883963
3.6895e-05
5.12699e-05
-0.0013561
-0.000597368
-0.00113014
-0.00071037
-0.000868503
-0.000830275
-0.000571353
-0.000949245
-0.000239939
-0.00106435
0.000121787
-0.00117101
0.000509781
-0.00126682
0.000922268
-0.00135105
0.00135435
-0.00141901
0.00180063
-0.00146893
0.00225453
-0.00149981
0.00270985
-0.00151096
0.00316068
-0.00150262
0.00360156
-0.00147604
0.00402773
-0.0014333
0.00443526
-0.00137706
0.0048212
-0.00131029
0.00518354
-0.00123609
0.00552116
-0.00115746
0.00583383
-0.00107706
0.0061219
-0.000996745
0.00638605
-0.000918124
0.00662742
-0.000842653
0.00684742
-0.000771361
0.00704766
-0.000704956
0.00722985
-0.000643826
0.00739569
-0.000588105
0.00754689
-0.000537717
0.00768502
-0.000492441
0.00781156
-0.000451935
0.00792785
-0.000415825
0.00803509
-0.000383713
0.00813438
-0.000355221
0.00822665
-0.000329872
0.0083127
-0.000307347
0.00839328
-0.000287502
0.00846918
-0.000270496
0.00854104
-0.000255829
0.00860918
-0.000242152
0.00867309
-0.000226481
0.00873142
-0.000206025
0.00878199
-0.000178126
0.00882276
-0.000143436
0.00885191
-0.000103142
0.00886918
-6.25045e-05
0.00887471
-2.302e-05
0.00887067
8.89504e-06
0.0088578
3.77586e-05
0.00883963
5.50704e-05
7.60186e-05
0.000476148
-0.000777611
0.000680703
-0.000914925
0.000913022
-0.00106259
0.00117354
-0.00120976
0.00146067
-0.00135148
0.00177333
-0.00148366
0.00210972
-0.00160321
0.00246518
-0.00170651
0.00283545
-0.00178929
0.00321557
-0.00184906
0.00360018
-0.00188442
0.00398401
-0.00189479
0.00436207
-0.00188068
0.00472981
-0.00184378
0.00508335
-0.00178684
0.00541956
-0.00171327
0.00573616
-0.00162689
0.00603164
-0.00153157
0.00630523
-0.00143106
0.00655689
-0.00132872
0.00678723
-0.00122708
0.00699698
-0.00112788
0.00718722
-0.0010329
0.00735928
-0.000943415
0.00751461
-0.000860291
0.00765479
-0.000784
0.00778137
-0.000714687
0.00789588
-0.000652229
0.00799977
-0.000596327
0.00809435
-0.000546514
0.0081808
-0.000502283
0.00826019
-0.000463105
0.00833347
-0.000428496
0.00840143
-0.000397835
0.00846476
-0.00037067
0.008524
-0.000346745
0.00857974
-0.000326236
0.00863248
-0.000308567
0.00868252
-0.000292197
0.00872956
-0.000273524
0.00877268
-0.000249146
0.00881019
-0.000215636
0.00884043
-0.000173667
0.00886171
-0.000124424
0.00887364
-7.44341e-05
0.00887598
-2.53591e-05
0.00887041
1.44576e-05
0.00885725
5.09228e-05
0.00883952
7.27968e-05
9.96562e-05
0.00240015
-0.000919044
0.00257342
-0.00108819
0.00276975
-0.00125892
0.0029866
-0.00142661
0.00322293
-0.00158781
0.00347842
-0.00173915
0.00375123
-0.00187602
0.00403793
-0.00199321
0.00433478
-0.00208613
0.00463772
-0.002152
0.00494263
-0.00218933
0.00524546
-0.00219762
0.00554238
-0.0021776
0.00582998
-0.00213139
0.00610539
-0.00206225
0.00636635
-0.00197424
0.00661123
-0.00187176
0.00683895
-0.00175929
0.00704897
-0.00164108
0.00724123
-0.00152098
0.0074162
-0.00140206
0.00757463
-0.00128631
0.00771724
-0.00117551
0.00784508
-0.00107125
0.0079593
-0.000974513
0.00806117
-0.000885872
0.008152
-0.000805513
0.00823307
-0.000733299
0.00830562
-0.00066888
0.0083708
-0.000611691
0.00842962
-0.000561104
0.00848299
-0.000516474
0.00853172
-0.000477234
0.00857653
-0.000442639
0.00861796
-0.000412103
0.00865644
-0.000385223
0.00869236
-0.000362158
0.00872608
-0.000342288
0.00875791
-0.00032402
0.00878775
-0.00030337
0.00881516
-0.000276558
0.00883903
-0.000239498
0.00885815
-0.00019279
0.0088711
-0.000137375
0.00887738
-8.07175e-05
0.00887642
-2.44008e-05
0.0088694
2.14787e-05
0.00885617
6.41532e-05
0.00883922
8.9746e-05
0.000121742
0.0042821
-0.00102948
0.00441588
-0.00122198
0.00456752
-0.00141056
0.00473261
-0.0015917
0.00491022
-0.00176543
0.00510039
-0.00192931
0.00530181
-0.00207745
0.00551192
-0.00220332
0.00572781
-0.00230203
0.00594663
-0.00237082
0.00616562
-0.00240832
0.00638219
-0.00241418
0.00659394
-0.00238934
0.00679876
-0.00233621
0.00699492
-0.00225842
0.00718105
-0.00216036
0.0073561
-0.00204681
0.00751937
-0.00192256
0.00767038
-0.00179209
0.00780888
-0.00165948
0.00793495
-0.00152813
0.00804906
-0.00140042
0.00815151
-0.00127795
0.00824279
-0.00116253
0.00832361
-0.00105533
0.00839479
-0.000957052
0.00845724
-0.000867969
0.00851194
-0.000787995
0.00855984
-0.000716781
0.00860186
-0.000653716
0.00863884
-0.000598083
0.00867151
-0.000549143
0.00870056
-0.000506277
0.00872657
-0.000468655
0.00875004
-0.000435571
0.00877127
-0.000406455
0.00879053
-0.000381416
0.00880804
-0.000359802
0.0088241
-0.000340081
0.00883884
-0.000318102
0.00885222
-0.000289942
0.00886372
-0.000250998
0.00887268
-0.00020175
0.00887799
-0.000142681
0.00887914
-8.18691e-05
0.00887532
-2.05792e-05
0.00886724
2.95587e-05
0.00885436
7.70331e-05
0.00883862
0.000105481
0.000141793
0.00603456
-0.00110859
0.00612626
-0.00131368
0.0062261
-0.0015104
0.00633144
-0.00169704
0.00644295
-0.00187694
0.00656125
-0.00204761
0.00668544
-0.00220164
0.00681381
-0.00233169
0.00694459
-0.00243281
0.00707626
-0.00250249
0.00720756
-0.00253962
0.00733738
-0.00254401
0.00746481
-0.00251677
0.00758905
-0.00246046
0.00770944
-0.0023788
0.00782535
-0.00227627
0.0079362
-0.00215767
0.00804145
-0.00202781
0.00814056
-0.0018912
0.00823296
-0.00175188
0.00831821
-0.00161337
0.00839617
-0.00147837
0.00846679
-0.00134858
0.00852988
-0.00122562
0.00858558
-0.00111103
0.00863421
-0.00100568
0.00867623
-0.00090999
0.00871223
-0.000823989
0.00874285
-0.000747404
0.00876877
-0.000679633
0.0087906
-0.000619913
0.0088089
-0.000567443
0.0088242
-0.00052158
0.008837
-0.000481452
0.00884769
-0.000446261
0.00885651
-0.000415275
0.00886362
-0.000388528
0.00886915
-0.000365335
0.00887336
-0.000344293
0.00887652
-0.000321255
0.00887895
-0.000292374
0.00888064
-0.000252694
0.00888147
-0.000202572
0.00888067
-0.000141883
0.00887784
-7.90369e-05
0.00887202
-1.476e-05
0.00886355
3.80206e-05
0.0088516
8.89834e-05
0.00883761
0.000119471
0.000159287
0.00759713
-0.00114598
0.00763987
-0.00135641
0.00768279
-0.00155333
0.00772417
-0.00173841
0.00776524
-0.00191801
0.0078074
-0.00208977
0.00785108
-0.00224531
0.00789596
-0.00237658
0.00794172
-0.00247857
0.00798826
-0.00254903
0.00803564
-0.00258699
0.00808407
-0.00259243
0.00813386
-0.00256656
0.0081853
-0.0025119
0.00823848
-0.00243198
0.00829324
-0.00233103
0.00834921
-0.00221364
0.00840579
-0.00208439
0.00846221
-0.00194762
0.00851752
-0.0018072
0.00857073
-0.00166658
0.00862097
-0.00152861
0.00866775
-0.00139536
0.00871041
-0.00126828
0.00874842
-0.00114905
0.00878164
-0.00103889
0.00881008
-0.000938439
0.00883398
-0.000847887
0.00885368
-0.000767105
0.00886961
-0.000695561
0.00888219
-0.000632488
0.00889179
-0.000577045
0.00889881
-0.000528598
0.00890361
-0.00048626
0.00890653
-0.000449179
0.00890773
-0.000416476
0.00890731
-0.000388106
0.00890531
-0.000363332
0.00890193
-0.000340913
0.0088975
-0.000316827
0.0088926
-0.000287477
0.00888763
-0.000247724
0.0088829
-0.000197839
0.00887802
-0.000137007
0.00887274
-7.37542e-05
0.00886607
-8.08585e-06
0.00885809
4.59972e-05
0.00884776
9.93093e-05
0.00883612
0.000131112
0.000173672
0.00890925
-0.00113274
0.00889633
-0.00134349
0.00887799
-0.00153499
0.00885345
-0.00171387
0.00882496
-0.00188952
0.00879396
-0.00205877
0.00876087
-0.00221223
0.00872713
-0.00234283
0.00869473
-0.00244617
0.00866498
-0.00251929
0.00863894
-0.00256095
0.00861769
-0.00257119
0.00860237
-0.00255124
0.00859388
-0.0025034
0.00859269
-0.00243078
0.00859878
-0.00233713
0.00861174
-0.00222659
0.00863075
-0.0021034
0.00865471
-0.00197158
0.0086823
-0.00183479
0.00871204
-0.00169632
0.0087425
-0.00155907
0.00877252
-0.00142538
0.00880127
-0.00129702
0.0088277
-0.00117549
0.00885118
-0.00106237
0.00887139
-0.000958648
0.00888824
-0.000864742
0.00890185
-0.000780707
0.00891242
-0.00070613
0.00892021
-0.000640281
0.00892547
-0.000582304
0.00892845
-0.000531582
0.00892943
-0.000487238
0.00892864
-0.000448391
0.00892621
-0.000414046
0.00892219
-0.000384081
0.00891655
-0.00035769
0.00890942
-0.00033379
0.00890114
-0.000308548
0.00889242
-0.000278752
0.00888392
-0.000239227
0.00887631
-0.000190225
0.00886952
-0.000130218
0.00886345
-6.76878e-05
0.00885721
-1.83958e-06
0.00885067
5.25321e-05
0.00884273
0.00010725
0.00883408
0.000139758
0.000184376
0.00989941
-0.00107007
0.00983292
-0.00127701
0.00975751
-0.00145958
0.00967348
-0.00162983
0.00958396
-0.00180001
0.00949064
-0.00196544
0.00939438
-0.00211597
0.00929686
-0.00224531
0.00920159
-0.00235089
0.00911159
-0.00242929
0.00902879
-0.00247814
0.00895472
-0.00249712
0.00889086
-0.00248738
0.00883832
-0.00245086
0.00879763
-0.0023901
0.00876874
-0.00230824
0.00875104
-0.0022089
0.00874349
-0.00209585
0.0087447
-0.00197278
0.00875303
-0.00184312
0.00876671
-0.00171001
0.00878395
-0.0015763
0.0088031
-0.00144454
0.00882291
-0.00131683
0.00884232
-0.00119489
0.00886025
-0.0010803
0.00887607
-0.000974467
0.00888946
-0.000878135
0.00890034
-0.000791587
0.00890878
-0.000714566
0.0089149
-0.000646407
0.00891886
-0.000586259
0.00892081
-0.000533533
0.00892094
-0.000487366
0.00891942
-0.000446869
0.00891633
-0.000410958
0.00891169
-0.000379446
0.00890545
-0.000351446
0.00889766
-0.000326003
0.00888862
-0.000299503
0.00887906
-0.000269193
0.00886981
-0.000229984
0.00886177
-0.000182177
0.00885511
-0.000123557
0.00884989
-6.24707e-05
0.00884533
2.71499e-06
0.00884122
5.6646e-05
0.00883644
0.000112028
0.00883146
0.000144744
0.000190821
0.0105217
-0.000971497
0.0104155
-0.00117075
0.0102982
-0.0013423
0.0101715
-0.00150313
0.0100389
-0.00166743
0.00990227
-0.0018288
0.0097629
-0.00197661
0.00962328
-0.00210569
0.00948657
-0.00221419
0.00935685
-0.00229957
0.00923687
-0.00235816
0.00912853
-0.00238879
0.00903339
-0.00239223
0.00895252
-0.00237
0.00888644
-0.00232402
0.00883498
-0.00225678
0.00879744
-0.00217135
0.00877263
-0.00207104
0.00875902
-0.00195917
0.00875482
-0.00183892
0.00875812
-0.0017133
0.00876696
-0.00158514
0.00877948
-0.00145706
0.00879406
-0.00133141
0.00880949
-0.00121032
0.0088247
-0.00109551
0.00883874
-0.000988504
0.00885107
-0.00089047
0.00886148
-0.000801998
0.00886993
-0.00072301
0.00887645
-0.00065293
0.00888112
-0.000590931
0.00888405
-0.000536458
0.00888534
-0.00048866
0.00888512
-0.00044665
0.00888345
-0.000409282
0.00888032
-0.000376322
0.00887567
-0.00034679
0.00886949
-0.000319831
0.00886203
-0.000292036
0.00885398
-0.000261151
0.00884625
-0.000222253
0.00883983
-0.000175756
0.00883508
-0.000118806
0.00883219
-5.95802e-05
0.00883048
4.42489e-06
0.00882974
5.73899e-05
0.00882889
0.000112878
0.00882822
0.000145409
0.00019243
0.0107959
-0.000856321
0.0106701
-0.00104491
0.010532
-0.00120423
0.0103843
-0.00135549
0.0102307
-0.00151377
0.0100727
-0.00167084
0.00991212
-0.00181601
0.00975188
-0.00194545
0.00959523
-0.00205753
0.00944565
-0.00214999
0.00930653
-0.00221904
0.00918023
-0.00226249
0.00906838
-0.00228038
0.00897205
-0.00227367
0.00889173
-0.0022437
0.0088273
-0.00219235
0.00877805
-0.00212211
0.00874283
-0.00203582
0.00872011
-0.00193645
0.00870812
-0.00182693
0.00870495
-0.00171014
0.00870865
-0.00158884
0.00871729
-0.0014657
0.00872913
-0.00134325
0.00874269
-0.00122389
0.00875691
-0.00110973
0.00877084
-0.00100243
0.00878369
-0.000903327
0.00879512
-0.000813422
0.00880498
-0.000732873
0.00881326
-0.000661216
0.00882
-0.000597662
0.00882523
-0.000541693
0.00882904
-0.000492468
0.00883149
-0.000449105
0.00883264
-0.000410423
0.00883247
-0.000376161
0.00883092
-0.000345239
0.00882796
-0.000316867
0.00882375
-0.000287827
0.00881896
-0.000256363
0.00881447
-0.000217761
0.00881131
-0.000172593
0.00880993
-0.000117428
0.00881062
-6.02673e-05
0.00881279
2.24948e-06
0.00881628
5.39022e-05
0.00882008
0.000109076
0.00882438
0.000141111
0.000188634
0.0108056
-0.00074047
0.0106776
-0.000916903
0.0105369
-0.00106351
0.0103867
-0.00120533
0.0102303
-0.00135736
0.010069
-0.00150953
0.00990473
-0.00165171
0.00974057
-0.00178129
0.00957988
-0.00189684
0.00942536
-0.00199547
0.00928046
-0.00207415
0.00914795
-0.00212997
0.00902966
-0.00216209
0.00892676
-0.00217077
0.00883983
-0.00215677
0.00876888
-0.0021214
0.00871334
-0.00206657
0.00867221
-0.00199469
0.00864411
-0.00190834
0.0086274
-0.00181023
0.0086203
-0.00170304
0.00862093
-0.00158947
0.00862743
-0.0014722
0.00863805
-0.00135387
0.00865122
-0.00123706
0.00866567
-0.00112418
0.00868049
-0.00101725
0.00869492
-0.000917751
0.00870838
-0.000826884
0.00872065
-0.000745139
0.00873165
-0.000672215
0.00874137
-0.000607383
0.00874984
-0.000550163
0.00875709
-0.000499719
0.00876316
-0.000455179
0.00876809
-0.000415348
0.00877188
-0.000379955
0.00877446
-0.000347823
0.0087758
-0.000318205
0.00877602
-0.000288043
0.00877572
-0.000256062
0.00877573
-0.000217774
0.00877706
-0.000173926
0.00878021
-0.000120572
0.0087855
-6.55574e-05
0.00879245
-4.70349e-06
0.00880094
4.54128e-05
0.00881006
9.99535e-05
0.00881994
0.000131238
0.000178879
0.0106539
-0.000632358
0.0105332
-0.000796243
0.0104001
-0.000930399
0.0102582
-0.00106342
0.0101099
-0.00120906
0.00995593
-0.00135558
0.00979837
-0.00149415
0.00964031
-0.00162323
0.00948483
-0.00174136
0.0093344
-0.00184504
0.00919189
-0.00193164
0.00906034
-0.00199842
0.00894185
-0.0020436
0.00883775
-0.00206667
0.00874882
-0.00206785
0.00867526
-0.00204783
0.00861672
-0.00200804
0.00857244
-0.0019504
0.00854126
-0.00187717
0.00852177
-0.00179074
0.00851237
-0.00169363
0.00851132
-0.00158842
0.00851687
-0.00147775
0.00852731
-0.0013643
0.00854105
-0.0012508
0.00855673
-0.00113987
0.0085733
-0.00103382
0.00859
-0.00093445
0.00860625
-0.00084314
0.00862167
-0.00076056
0.00863611
-0.000686653
0.00864952
-0.000620796
0.00866191
-0.000562553
0.00867328
-0.000511089
0.00868365
-0.000465548
0.00869304
-0.000424737
0.00870148
-0.000388396
0.00870891
-0.000355251
0.00871529
-0.000324583
0.00872072
-0.000293477
0.00872576
-0.000261104
0.00873118
-0.000223192
0.00873792
-0.000180664
0.00874647
-0.000129121
0.00875717
-7.62602e-05
0.00876967
-1.72039e-05
0.00878383
3.12561e-05
0.00879889
8.48952e-05
0.00881491
0.000115214
0.00016263
0.0104189
-0.00053486
0.0103087
-0.000685993
0.0101868
-0.000808532
0.0100574
-0.000933987
0.00992162
-0.00107329
0.0097796
-0.00121357
0.00963346
-0.00134801
0.0094862
-0.00147597
0.00934036
-0.00159551
0.00919832
-0.00170301
0.00906242
-0.00179574
0.00893566
-0.00187166
0.00882031
-0.00192825
0.00871794
-0.0019643
0.00862956
-0.00197947
0.0085556
-0.00197388
0.008496
-0.00194843
0.00845026
-0.00190466
0.0084175