/*--------------------------------*- C++ -*----------------------------------*\
  =========                 |
  \\      /  F ield         | OpenFOAM: The Open Source CFD Toolbox
   \\    /   O peration     | Website:  https://openfoam.org
    \\  /    A nd           | Version:  7
     \\/     M anipulation  |
\*---------------------------------------------------------------------------*/
FoamFile
{
    version     2.0;
    format      ascii;
    class       volVectorField;
    location    "10";
    object      U;
}
// * * * * * * * * * * * * * * * * * * * * * * * * * * * * * * * * * * * * * //

dimensions      [0 1 -1 0 0 0 0];

internalField   nonuniform List<vector> 
6050
(
(-0.250624 0.00779711 3.84267e-20)
(-0.282392 0.00801905 -5.3594e-20)
(-0.313505 0.00817458 3.18103e-20)
(-0.343678 0.00819718 1.68973e-20)
(-0.372388 0.00801004 6.2312e-21)
(-0.398882 0.00752855 -2.07999e-20)
(-0.422182 0.0066673 -1.21087e-20)
(-0.441061 0.00532481 -8.01667e-21)
(-0.454159 0.00344865 3.34554e-20)
(-0.459835 0.000929482 -3.90274e-20)
(-0.456428 -0.0022943 -8.05547e-21)
(-0.442883 -0.00558794 9.01719e-21)
(-0.415353 -0.0103554 -2.48156e-20)
(-0.24159 0.0230934 -1.67617e-19)
(-0.270467 0.0237049 1.04023e-19)
(-0.298111 0.0241119 -8.28551e-20)
(-0.32417 0.0241176 9.93253e-21)
(-0.348059 0.0234969 -5.03269e-20)
(-0.368975 0.0220033 1.85246e-20)
(-0.385937 0.0193977 3.79931e-20)
(-0.397718 0.01538 6.41609e-20)
(-0.403105 0.00981575 3.90138e-20)
(-0.400648 0.00245102 1.07767e-19)
(-0.388346 -0.00718806 9.688e-21)
(-0.367426 -0.0163776 -8.40288e-20)
(-0.328338 -0.0310486 5.74522e-20)
(-0.224052 0.0375204 1.41969e-20)
(-0.247407 0.0383683 -3.99168e-20)
(-0.26849 0.0388608 8.21881e-20)
(-0.286847 0.0386797 -2.53329e-20)
(-0.301818 0.0374673 3.02183e-20)
(-0.312552 0.0348332 -3.11621e-20)
(-0.318125 0.0304325 -6.04595e-20)
(-0.317333 0.0237807 -7.0712e-20)
(-0.309207 0.0147156 -8.73686e-20)
(-0.29305 0.00316534 -1.75851e-19)
(-0.264842 -0.0128537 6.37078e-20)
(-0.233737 -0.0268553 5.24041e-20)
(-0.174322 -0.0512497 1.5622e-19)
(-0.198993 0.0505608 -1.19994e-20)
(-0.214662 0.0514164 -3.55028e-21)
(-0.226737 0.0517538 -2.36114e-19)
(-0.234686 0.0511486 -1.14483e-19)
(-0.237828 0.0491361 5.4376e-20)
(-0.235311 0.0452018 6.5215e-21)
(-0.226407 0.0389626 5.5513e-20)
(-0.20998 0.0297694 -1.70164e-19)
(-0.185102 0.0174673 6.66686e-20)
(-0.153469 0.00261098 9.79256e-20)
(-0.104777 -0.0192845 1.10691e-19)
(-0.0651765 -0.0384956 -5.83001e-20)
(0.0196955 -0.0683744 -1.27852e-19)
(-0.167712 0.0617756 -9.37111e-21)
(-0.174105 0.0623648 -3.96441e-21)
(-0.175495 0.0622699 4.80296e-20)
(-0.171339 0.060982 7.26622e-20)
(-0.161028 0.0579622 -1.99052e-19)
(-0.143764 0.0525918 2.46069e-19)
(-0.11919 0.0445187 1.28246e-19)
(-0.0863566 0.0329438 2.01547e-19)
(-0.043615 0.0179015 -4.77696e-21)
(0.00214601 -0.000766593 -4.87439e-20)
(0.0730115 -0.0253565 5.80452e-21)
(0.118566 -0.0510465 -7.02984e-20)
(0.23087 -0.082672 -1.22727e-19)
(-0.127765 0.0708524 1.76963e-20)
(-0.11754 0.0700462 4.91925e-20)
(-0.100495 0.0678329 4.0124e-19)
(-0.0762041 0.0636343 -1.89003e-21)
(-0.0439306 0.0567567 1.48577e-19)
(-0.0037973 0.0469129 -3.68137e-19)
(0.0447832 0.0330068 4.75531e-20)
(0.104779 0.0161233 -7.70257e-20)
(0.162623 -0.00722368 -6.11948e-20)
(0.25613 -0.0317303 5.73286e-20)
(0.303698 -0.0626194 -1.2392e-19)
(0.443124 -0.0960258 1.20034e-19)
(-0.0775535 0.0766461 -2.53066e-19)
(-0.0553756 0.0748765 3.05895e-20)
(-0.0253236 0.0715411 -8.29236e-20)
(0.012779 0.0660318 1.31792e-19)
(0.0596337 0.0576212 -5.23925e-21)
(0.114592 0.0462231 -1.28184e-19)
(0.177916 0.0298296 3.38473e-19)
(0.254274 0.0122014 -1.32498e-19)
(0.323105 -0.0153653 -1.1172e-19)
(0.436419 -0.0395428 1.73436e-19)
(0.48715 -0.073746 6.38633e-20)
(0.646598 -0.107519 2.69344e-19)
(-0.0249851 0.0796453 7.7003e-19)
(0.00916043 0.0767134 1.08145e-20)
(0.0520491 0.0721247 -5.12343e-19)
(0.103609 0.0652557 -5.34412e-20)
(0.164626 0.0553286 -5.20327e-19)
(0.233815 0.0427708 2.51067e-19)
(0.31166 0.0239326 -1.88887e-19)
(0.402582 0.00629757 1.98757e-19)
(0.484706 -0.024429 2.77536e-19)
(0.610478 -0.0477975 1.05316e-19)
(0.669268 -0.0841328 -2.90694e-19)
(0.835842 -0.115489 -2.41272e-19)
(0.0291094 0.0798951 -6.29482e-19)
(0.0752763 0.0756934 -1.82847e-19)
(0.131027 0.0698287 1.19287e-19)
(0.196096 0.0617056 2.21548e-19)
(0.271413 0.0504276 -6.88389e-20)
(0.354896 0.03711 2.67451e-19)
(0.448042 0.0165414 1.54169e-20)
(0.551248 -0.00101796 -2.97399e-19)
(0.649125 -0.0329829 1.90456e-20)
(0.777879 -0.0547964 -4.13832e-19)
(0.847661 -0.09196 7.80885e-20)
(1.00364 -0.118039 -1.54328e-19)
(0.0848647 0.0776143 2.92587e-19)
(0.143568 0.0721892 -2.43616e-19)
(0.212855 0.0652138 3.86221e-19)
(0.292346 0.0561452 3.87315e-19)
(0.382827 0.0439679 5.10126e-19)
(0.481317 0.0303015 -4.95355e-19)
(0.589891 0.00935288 4.43847e-20)
(0.70307 -0.00801016 4.35331e-19)
(0.814114 -0.0390613 -1.54991e-19)
(0.936305 -0.0586141 8.34737e-22)
(1.01277 -0.0948425 -1.12863e-20)
(1.1398 -0.114257 1.92537e-19)
(0.143598 0.0732387 -3.17694e-19)
(0.216168 0.0668703 -5.18708e-20)
(0.300537 0.0592032 -1.68244e-19)
(0.39611 0.0497717 -1.14542e-19)
(0.502706 0.0375009 -2.7561e-19)
(0.616395 0.024109 -1.36825e-19)
(0.737572 0.00422691 5.09442e-20)
(0.856724 -0.0123654 -2.72303e-19)
(0.971305 -0.0408683 2.99908e-20)
(1.07812 -0.0578705 1.32699e-20)
(1.14953 -0.091585 -1.90835e-19)
(1.23608 -0.105026 1.27865e-19)
(0.296444 0.0607383 -1.67614e-19)
(0.397973 0.0531144 5.34709e-19)
(0.511004 0.0441826 -6.15824e-19)
(0.633213 0.0328677 -5.63727e-19)
(0.759425 0.0205348 7.9118e-19)
(0.88626 0.00279572 -1.75673e-19)
(1.00345 -0.0124749 9.006e-20)
(1.1081 -0.0377887 1.21192e-19)
(1.19202 -0.0525249 -1.0473e-19)
(1.24603 -0.0832262 2.82612e-19)
(1.29223 -0.0925772 3.35742e-19)
(0.388047 0.0551145 2.64893e-19)
(0.508175 0.0485626 -3.06022e-19)
(0.637921 0.041095 -1.30252e-19)
(0.771929 0.0317024 4.36335e-19)
(0.903394 0.020939 -5.76804e-19)
(1.02552 0.00573519 -3.31459e-20)
(1.12984 -0.00834188 2.38275e-19)
(1.21309 -0.0307576 -9.5436e-20)
(1.27002 -0.0440439 -1.16634e-19)
(1.30145 -0.0721967 1.4814e-20)
(1.31707 -0.0791639 -1.5464e-19)
(0.493315 0.0515063 -5.51177e-19)
(0.631054 0.0470996 3.2939e-19)
(0.772924 0.0418189 1.93906e-19)
(0.910708 0.0347521 -2.53881e-19)
(1.0365 0.0253954 4.03265e-19)
(1.14286 0.0122799 3.09245e-19)
(1.22506 -0.00142824 -8.10233e-20)
(1.28182 -0.0216335 1.31333e-21)
(1.31345 -0.0344825 -1.35083e-20)
(1.32563 -0.0605979 -3.68589e-19)
(1.32299 -0.066139 -4.87812e-19)
(0.611515 0.0512792 2.23913e-19)
(0.761922 0.0496972 -1.9103e-19)
(0.907178 0.0466971 1.37204e-19)
(1.03785 0.0414638 1.18247e-19)
(1.14695 0.0327029 -9.28177e-20)
(1.22981 0.0206531 2.09939e-19)
(1.28641 0.0064003 -2.34552e-19)
(1.31881 -0.0121024 2.802e-19)
(1.33162 -0.0252939 5.3448e-19)
(1.33143 -0.0493765 2.59685e-19)
(1.31983 -0.0540248 3.99082e-19)
(0.891948 0.0563218 2.5085e-20)
(1.02957 0.0548819 7.5271e-20)
(1.14283 0.0502677 -1.28573e-19)
(1.22819 0.0410998 -3.27763e-19)
(1.28566 0.0291178 -1.14436e-20)
(1.31938 0.0139074 3.92964e-19)
(1.33379 -0.00301539 -3.27399e-19)
(1.3351 -0.0170073 -7.2889e-19)
(1.32825 -0.0386706 -5.24974e-19)
(1.31305 -0.0429999 1.94991e-19)
(1.01081 0.0659 -5.43252e-19)
(1.13087 0.0647289 4.14992e-19)
(1.22047 0.0594149 5.54907e-20)
(1.28085 0.0491839 1.42467e-19)
(1.31624 0.0367264 -3.17277e-19)
(1.33299 0.0207576 -9.13659e-20)
(1.33607 0.00543537 -8.27434e-20)
(1.33125 -0.00963675 9.15282e-20)
(1.32117 -0.0283299 3.12433e-19)
(1.30519 -0.0331848 -6.24552e-19)
(1.20694 0.0745967 -1.9465e-19)
(1.27193 0.0677461 5.43536e-20)
(1.31064 0.0563423 -3.07504e-19)
(1.32955 0.0433163 -2.62743e-20)
(1.33524 0.0271244 6.10213e-20)
(1.33185 0.0132281 -4.31655e-20)
(1.32407 -0.00298324 5.98185e-19)
(1.31254 -0.0181033 1.16102e-20)
(1.29731 -0.0247481 5.90885e-19)
(1.25896 0.0834696 -7.30538e-20)
(1.30238 0.0748875 -2.55589e-19)
(1.3246 0.062558 -4.625e-19)
(1.33242 0.0491103 -1.21208e-20)
(1.33146 0.0332355 -2.08617e-19)
(1.32464 0.0203063 1.79698e-19)
(1.31557 0.00336789 -9.32462e-20)
(1.30337 -0.00780238 -6.69518e-19)
(1.28976 -0.0180545 -2.5099e-19)
(1.31791 0.0809633 3.82326e-19)
(1.32862 0.0680429 5.81897e-19)
(1.32948 0.0544045 -9.61515e-20)
(1.32477 0.0391768 1.4017e-19)
(1.31629 0.02668 -4.90499e-20)
(1.30677 0.00999318 3.04167e-19)
(1.29414 0.00220935 1.48581e-19)
(1.28256 -0.0135804 1.67364e-19)
(1.32368 0.0862563 3.67585e-20)
(1.32684 0.0730367 1.57855e-19)
(1.32358 0.059432 -2.9287e-20)
(1.31685 0.044912 2.77944e-19)
(1.30771 0.0325768 2.96959e-20)
(1.29813 0.0172004 -7.05198e-19)
(1.28551 0.0105953 3.05712e-19)
(1.27494 -0.0123735 -2.79359e-19)
(1.32188 0.0777478 -6.13771e-20)
(1.31628 0.064324 -6.49454e-20)
(1.30854 0.0504228 -4.77844e-20)
(1.29926 0.0383475 2.75618e-19)
(1.28972 0.0244318 2.06152e-19)
(1.2776 0.015785 6.02028e-20)
(1.26854 0.00130215 1.71456e-19)
(1.31532 0.0823033 -6.38232e-20)
(1.30843 0.069115 -2.46747e-20)
(1.30024 0.0557673 2.25294e-19)
(1.29104 0.0440853 -1.17957e-19)
(1.28161 0.0305488 -1.33997e-19)
(1.2704 0.0235922 -3.01693e-19)
(1.26133 0.00753125 -1.96272e-19)
(1.30045 0.0738417 1.18803e-20)
(1.29209 0.0610129 -2.91273e-19)
(1.28305 0.0494301 7.11125e-20)
(1.27391 0.0371099 -1.35195e-19)
(1.26319 0.0290352 -5.07972e-19)
(1.25506 0.0151295 2.65667e-19)
(1.28413 0.0660616 1.5566e-19)
(1.27532 0.0547975 -3.71523e-20)
(1.26639 0.0427682 4.55247e-19)
(1.25645 0.035108 4.29585e-19)
(1.24854 0.0217298 1.73509e-19)
(1.26776 0.059816 -9.44484e-21)
(1.25914 0.0484669 -3.0926e-19)
(1.24973 0.0403604 -1.16381e-19)
(1.24225 0.0276936 -1.66545e-19)
(1.25201 0.0536703 -2.14553e-20)
(1.24319 0.0454648 2.797e-19)
(1.23593 0.0334316 2.99362e-19)
(1.23667 0.0502256 -1.64962e-19)
(1.22965 0.0386146 -6.23673e-20)
(1.23667 -0.0502256 -5.82311e-20)
(1.22965 -0.0386145 -4.19001e-19)
(1.25201 -0.0536702 1.39774e-19)
(1.24319 -0.0454647 3.02834e-19)
(1.23593 -0.0334315 1.60817e-19)
(1.26776 -0.0598159 1.83028e-19)
(1.25914 -0.0484669 -1.50364e-19)
(1.24973 -0.0403604 -2.4585e-19)
(1.24225 -0.0276935 3.87404e-20)
(1.28413 -0.0660616 -3.99966e-19)
(1.27532 -0.0547975 -5.48232e-21)
(1.26639 -0.0427681 5.10938e-19)
(1.25645 -0.035108 2.06665e-19)
(1.24854 -0.0217297 1.73451e-19)
(1.30045 -0.0738416 -9.94999e-20)
(1.29209 -0.0610128 6.07936e-20)
(1.28305 -0.0494301 -5.61629e-20)
(1.27391 -0.0371098 5.80407e-20)
(1.26319 -0.0290351 -3.1844e-19)
(1.25506 -0.0151294 1.73543e-19)
(1.31532 -0.0823033 7.66382e-21)
(1.30843 -0.0691149 1.85415e-19)
(1.30024 -0.0557672 8.56535e-20)
(1.29104 -0.0440852 -2.12772e-19)
(1.28161 -0.0305487 -4.03928e-20)
(1.2704 -0.0235921 -2.26711e-20)
(1.26133 -0.00753116 -3.14424e-19)
(1.32188 -0.0777477 -2.4844e-20)
(1.31628 -0.0643239 1.2353e-20)
(1.30854 -0.0504227 -1.20926e-19)
(1.29926 -0.0383474 1.0925e-19)
(1.28972 -0.0244317 8.48028e-20)
(1.2776 -0.0157849 -5.55741e-21)
(1.26854 -0.00130205 2.47571e-19)
(1.32368 -0.0862563 -2.2564e-19)
(1.32684 -0.0730366 -3.53253e-19)
(1.32358 -0.0594319 2.81299e-19)
(1.31685 -0.0449119 1.81634e-19)
(1.30771 -0.0325767 -7.94235e-20)
(1.29813 -0.0172003 -6.55206e-19)
(1.28551 -0.0105951 6.54186e-20)
(1.27494 0.0123736 3.81429e-20)
(1.31791 -0.0809632 4.46933e-19)
(1.32862 -0.0680428 4.71912e-19)
(1.32948 -0.0544044 -1.54219e-19)
(1.32477 -0.0391767 4.00274e-20)
(1.31629 -0.0266799 1.15589e-19)
(1.30677 -0.00999305 1.02977e-19)
(1.29414 -0.00220922 3.13244e-19)
(1.28256 0.0135805 1.16833e-19)
(1.25896 -0.0834696 -1.25549e-19)
(1.30238 -0.0748874 -2.04488e-19)
(1.3246 -0.0625579 -3.1842e-19)
(1.33242 -0.0491102 7.51613e-20)
(1.33146 -0.0332353 -2.90559e-19)
(1.32464 -0.0203062 -8.00198e-21)
(1.31557 -0.00336773 -2.30586e-19)
(1.30337 0.00780254 -3.10523e-19)
(1.28976 0.0180547 -1.89444e-19)
(1.20694 -0.0745966 8.52942e-20)
(1.27193 -0.067746 -1.18991e-19)
(1.31064 -0.0563422 -2.66332e-19)
(1.32955 -0.0433162 -1.6912e-19)
(1.33524 -0.0271242 2.52111e-19)
(1.33185 -0.013228 -1.59235e-19)
(1.32407 0.00298342 7.12773e-19)
(1.31254 0.0181035 3.51772e-19)
(1.29731 0.0247482 6.0301e-20)
(1.01081 -0.0659001 7.86723e-20)
(1.13087 -0.0647289 -3.22018e-20)
(1.22047 -0.0594149 -1.22081e-19)
(1.28085 -0.0491838 6.09524e-19)
(1.31624 -0.0367262 -3.98413e-19)
(1.33299 -0.0207574 -3.65473e-19)
(1.33607 -0.00543518 7.79795e-20)
(1.33125 0.00963695 7.48781e-20)
(1.32117 0.0283301 8.09184e-19)
(1.30519 0.0331849 -7.53303e-19)
(0.891948 -0.0563218 2.81011e-19)
(1.02957 -0.0548819 2.76169e-20)
(1.14283 -0.0502677 -7.59066e-20)
(1.22819 -0.0410997 -2.38239e-19)
(1.28566 -0.0291176 8.98701e-20)
(1.31938 -0.0139072 1.85463e-19)
(1.33379 0.00301561 -2.81899e-19)
(1.3351 0.0170075 -6.48715e-19)
(1.32825 0.0386709 -3.54508e-19)
(1.31305 0.0430001 1.66509e-19)
(0.611515 -0.0512793 1.02497e-18)
(0.761922 -0.0496973 -4.55389e-19)
(0.907178 -0.0466971 2.35944e-20)
(1.03785 -0.0414637 3.39014e-19)
(1.14695 -0.0327028 2.72219e-19)
(1.22981 -0.0206529 -1.74469e-19)
(1.28641 -0.00640009 8.27132e-20)
(1.31881 0.0121026 2.38771e-19)
(1.33162 0.0252942 1.72125e-19)
(1.33143 0.0493768 3.29188e-19)
(1.31983 0.054025 7.05472e-19)
(0.493315 -0.0515065 -6.32133e-19)
(0.631054 -0.0470997 4.02529e-19)
(0.772924 -0.041819 2.76547e-19)
(0.910709 -0.0347521 -5.58655e-19)
(1.0365 -0.0253953 7.90588e-19)
(1.14286 -0.0122797 -5.60377e-20)
(1.22506 0.00142847 -1.48138e-19)
(1.28182 0.0216338 -9.64866e-20)
(1.31345 0.0344828 -3.25042e-20)
(1.32563 0.0605982 -4.68302e-20)
(1.32299 0.0661392 -2.65603e-19)
(0.388047 -0.0551147 2.3511e-19)
(0.508176 -0.0485628 -2.90109e-19)
(0.637921 -0.0410951 -1.45689e-19)
(0.771929 -0.0317024 4.58039e-19)
(0.903395 -0.0209389 -7.57917e-19)
(1.02552 -0.00573503 -5.36795e-21)
(1.12984 0.00834212 3.29462e-19)
(1.21309 0.0307579 -2.06497e-19)
(1.27002 0.0440442 1.68317e-19)
(1.30145 0.0721971 -3.34461e-19)
(1.31707 0.0791642 -2.62707e-19)
(0.296444 -0.0607386 1.15552e-19)
(0.397974 -0.0531146 3.17043e-19)
(0.511004 -0.0441827 -4.98034e-19)
(0.633213 -0.0328677 -5.32523e-19)
(0.759426 -0.0205347 7.13224e-19)
(0.88626 -0.00279556 -1.6632e-19)
(1.00345 0.0124751 2.69415e-19)
(1.1081 0.037789 2.2065e-19)
(1.19202 0.0525253 -3.27907e-19)
(1.24603 0.0832266 3.27276e-19)
(1.29223 0.0925776 2.48761e-19)
(0.143598 -0.073239 4.51795e-19)
(0.216169 -0.0668706 1.40504e-19)
(0.300538 -0.0592034 -6.33729e-19)
(0.39611 -0.0497719 1.21268e-19)
(0.502707 -0.037501 -3.91299e-19)
(0.616395 -0.0241089 -3.17474e-20)
(0.737573 -0.00422676 1.72003e-19)
(0.856724 0.0123657 -3.2016e-19)
(0.971306 0.0408686 -8.48605e-20)
(1.07812 0.0578709 -8.47094e-20)
(1.14953 0.0915854 4.77224e-20)
(1.23608 0.105026 -5.23189e-20)
(0.084865 -0.0776146 2.81318e-19)
(0.143569 -0.0721894 -1.50252e-19)
(0.212855 -0.065214 5.65406e-19)
(0.292346 -0.0561453 -6.96402e-20)
(0.382828 -0.043968 5.31715e-19)
(0.481317 -0.0303014 -1.35946e-19)
(0.589892 -0.00935273 1.02802e-19)
(0.703071 0.00801042 -1.34381e-19)
(0.814114 0.0390616 1.55945e-19)
(0.936305 0.0586145 9.81837e-20)
(1.01277 0.094843 7.01058e-20)
(1.1398 0.114257 -9.01915e-20)
(0.0291097 -0.0798954 -7.82857e-19)
(0.0752767 -0.0756937 -9.6195e-20)
(0.131027 -0.0698289 1.37782e-19)
(0.196096 -0.0617058 2.11622e-19)
(0.271414 -0.0504276 2.38686e-19)
(0.354897 -0.03711 3.89578e-20)
(0.448043 -0.0165413 -2.97375e-20)
(0.551249 0.00101824 -4.6227e-19)
(0.649126 0.0329832 -7.26218e-20)
(0.77788 0.0547968 9.88396e-20)
(0.847661 0.0919605 -1.93906e-19)
(1.00364 0.11804 -3.26603e-19)
(-0.0249848 -0.0796457 5.36465e-19)
(0.00916077 -0.0767137 -7.58533e-20)
(0.0520495 -0.072125 -3.97191e-19)
(0.103609 -0.0652558 -3.14185e-19)
(0.164626 -0.0553286 -1.08581e-19)
(0.233815 -0.0427707 -1.23524e-19)
(0.31166 -0.0239324 1.01318e-19)
(0.402583 -0.00629729 1.46001e-19)
(0.484706 0.0244294 2.02735e-19)
(0.610478 0.0477979 -8.80306e-21)
(0.669269 0.0841334 3.91208e-20)
(0.835842 0.11549 -2.66346e-19)
(-0.0775532 -0.0766465 -3.23582e-19)
(-0.0553753 -0.0748768 2.13524e-19)
(-0.0253232 -0.0715413 -7.90356e-20)
(0.0127795 -0.0660319 1.626e-19)
(0.0596342 -0.0576213 -3.4283e-20)
(0.114592 -0.0462231 -4.47435e-20)
(0.177916 -0.0298294 1.50324e-19)
(0.254274 -0.0122011 -1.39452e-19)
(0.323106 0.0153658 1.35844e-19)
(0.43642 0.0395433 1.41007e-20)
(0.48715 0.0737466 1.07797e-19)
(0.646598 0.107519 5.07245e-19)
(-0.127764 -0.0708528 6.62269e-20)
(-0.11754 -0.0700465 1.30292e-19)
(-0.100495 -0.0678331 3.11408e-19)
(-0.0762037 -0.0636345 -9.71498e-20)
(-0.0439302 -0.0567568 1.10371e-19)
(-0.00379678 -0.0469129 -1.57516e-19)
(0.0447838 -0.0330066 -1.61026e-19)
(0.10478 -0.016123 1.84312e-19)
(0.162624 0.00722413 -3.52073e-20)
(0.25613 0.0317308 -2.28525e-19)
(0.303698 0.0626201 1.59403e-19)
(0.443125 0.0960265 -1.18256e-19)
(-0.167712 -0.061776 2.21078e-19)
(-0.174104 -0.0623652 -3.37736e-20)
(-0.175495 -0.0622703 1.26664e-20)
(-0.171338 -0.0609823 -4.36367e-20)
(-0.161027 -0.0579624 -5.05841e-21)
(-0.143763 -0.0525919 2.00875e-19)
(-0.119189 -0.0445187 2.29703e-19)
(-0.0863561 -0.0329436 3.84043e-20)
(-0.0436144 -0.0179012 1.07558e-19)
(0.0021466 0.000767051 -2.07959e-19)
(0.0730121 0.0253571 2.7295e-19)
(0.118566 0.0510471 -2.81714e-19)
(0.230871 0.0826727 -7.25149e-20)
(-0.198993 -0.0505612 3.13452e-20)
(-0.214662 -0.0514168 -6.22302e-20)
(-0.226737 -0.0517541 -1.10124e-19)
(-0.234686 -0.0511489 -1.77959e-19)
(-0.237828 -0.0491363 1.00279e-19)
(-0.235311 -0.0452019 -2.47641e-20)
(-0.226406 -0.0389626 1.35501e-19)
(-0.209979 -0.0297693 -2.31707e-19)
(-0.185101 -0.017467 1.07711e-19)
(-0.153469 -0.00261051 1.21201e-19)
(-0.104776 0.0192851 -1.2024e-19)
(-0.065176 0.0384963 1.05794e-19)
(0.019696 0.0683752 -1.6138e-19)
(-0.224052 -0.0375209 -1.24744e-20)
(-0.247407 -0.0383688 -7.3005e-20)
(-0.26849 -0.0388612 3.26601e-20)
(-0.286847 -0.03868 3.73126e-20)
(-0.301818 -0.0374676 6.1779e-20)
(-0.312552 -0.0348333 -8.23186e-20)
(-0.318124 -0.0304325 -4.11832e-20)
(-0.317333 -0.0237806 6.89743e-21)
(-0.309207 -0.0147153 -1.95037e-19)
(-0.293049 -0.00316486 -9.88056e-20)
(-0.264841 0.0128543 -5.41475e-20)
(-0.233737 0.026856 1.74892e-19)
(-0.174322 0.0512505 5.80763e-20)
(-0.241589 -0.0230938 -1.44551e-19)
(-0.270466 -0.0237054 1.01895e-19)
(-0.298111 -0.0241123 -8.44087e-20)
(-0.32417 -0.0241179 4.90871e-20)
(-0.348059 -0.0234971 -6.86548e-20)
(-0.368975 -0.0220034 -1.10566e-20)
(-0.385936 -0.0193977 2.12676e-20)
(-0.397718 -0.0153799 7.99491e-20)
(-0.403105 -0.00981542 4.75952e-20)
(-0.400648 -0.00245051 1.30589e-19)
(-0.388345 0.00718873 -4.03703e-20)
(-0.367425 0.0163784 -5.38002e-20)
(-0.328337 0.0310495 1.03208e-22)
(-0.250624 -0.00779755 4.09326e-20)
(-0.282392 -0.00801947 -4.54002e-20)
(-0.313505 -0.00817497 1.79204e-20)
(-0.343678 -0.00819752 3.75983e-20)
(-0.372388 -0.0080103 -1.76089e-20)
(-0.398882 -0.00752869 3.93195e-21)
(-0.422182 -0.00666731 -2.60043e-20)
(-0.441061 -0.00532466 -5.69352e-21)
(-0.454159 -0.00344832 2.73605e-20)
(-0.459835 -0.000928965 -1.59713e-20)
(-0.456428 0.002295 -2.04778e-20)
(-0.442883 0.00558878 -8.97201e-21)
(-0.415353 0.0103563 -3.00002e-20)
(-0.389637 -0.0118607 -2.02244e-20)
(-0.367245 -0.0141434 8.93036e-21)
(-0.34002 -0.0161352 -6.24073e-21)
(-0.308557 -0.0180404 1.14107e-20)
(-0.272642 -0.0197521 -1.8081e-21)
(-0.232485 -0.0212391 -6.61307e-21)
(-0.188391 -0.0224387 1.93012e-21)
(-0.140788 -0.0233432 3.92066e-22)
(-0.0901331 -0.0239445 -8.22876e-22)
(-0.0370378 -0.0241829 2.95343e-21)
(0.0178368 -0.0240294 -2.47687e-21)
(0.0737839 -0.0235969 1.73634e-22)
(0.130061 -0.022879 4.44568e-22)
(0.186016 -0.021916 -1.0593e-22)
(0.241008 -0.0207572 1.72376e-23)
(0.29447 -0.0194546 -2.78278e-22)
(0.345933 -0.0180606 5.08382e-22)
(0.395035 -0.0166242 -4.53237e-22)
(0.441525 -0.0151906 3.98875e-22)
(0.485257 -0.013803 -8.6107e-22)
(0.526165 -0.0124867 6.49507e-22)
(0.56425 -0.0112537 3.97669e-22)
(0.599579 -0.0101139 2.19139e-22)
(0.632269 -0.00907302 -9.20492e-23)
(0.662473 -0.00813221 -9.07338e-22)
(0.690368 -0.00728925 2.09676e-22)
(0.716142 -0.00653946 1.77077e-22)
(0.739989 -0.00587638 -1.97971e-22)
(0.762095 -0.0052926 8.22966e-23)
(0.782646 -0.00478015 1.11003e-22)
(0.801806 -0.00433136 -5.65655e-23)
(0.819739 -0.00393884 -1.88818e-22)
(0.836581 -0.00359576 3.19541e-23)
(0.852472 -0.00329519 1.23528e-23)
(0.867511 -0.00303231 1.81607e-23)
(0.881827 -0.00280411 -1.71849e-23)
(0.895507 -0.00260949 -5.03401e-23)
(0.908703 -0.0024419 1.47245e-23)
(0.921446 -0.00228856 1.36583e-23)
(0.93379 -0.002127 -8.27194e-24)
(0.945498 -0.0019388 4.99498e-24)
(0.956433 -0.00171009 -3.2547e-24)
(0.966105 -0.00144973 3.55572e-24)
(0.974495 -0.00117025 1.11006e-23)
(0.98114 -0.000905429 1.79242e-25)
(0.986545 -0.000664873 1.48037e-25)
(0.990236 -0.000480635 -6.5338e-25)
(0.993406 -0.0003261 5.83204e-25)
(0.994965 -0.000240753 -4.57597e-25)
(0.997149 -0.000144258 1.33545e-24)
(-0.299 -0.0354943 -5.3307e-20)
(-0.277303 -0.0419724 1.93767e-20)
(-0.250458 -0.0479525 -3.15234e-20)
(-0.219669 -0.0535291 1.4429e-20)
(-0.184794 -0.0585589 9.15193e-21)
(-0.145988 -0.0629653 7.08562e-21)
(-0.103556 -0.0664913 -1.56779e-20)
(-0.0580017 -0.0690442 9.64391e-21)
(-0.00973464 -0.0706041 -6.90552e-21)
(0.0407781 -0.0711584 1.35269e-21)
(0.0927524 -0.0707208 3.41995e-21)
(0.145478 -0.0693936 1.94558e-21)
(0.198342 -0.0672233 -1.30258e-21)
(0.250714 -0.0643341 3.72245e-22)
(0.302007 -0.0608738 -5.40043e-22)
(0.351708 -0.0569999 6.25812e-22)
(0.3994 -0.0528682 6.7469e-22)
(0.444767 -0.0486234 -1.44646e-21)
(0.487597 -0.0443942 6.32152e-22)
(0.527779 -0.0402987 1.68068e-22)
(0.565281 -0.0364223 1.22265e-21)
(0.600127 -0.0328014 -2.56806e-21)
(0.632393 -0.0294605 2.05798e-21)
(0.662202 -0.0264143 -1.76516e-21)
(0.689708 -0.0236653 3.05374e-22)
(0.715086 -0.0212057 1.15516e-21)
(0.738519 -0.0190209 -1.44287e-21)
(0.760194 -0.0170913 6.30774e-22)
(0.780289 -0.0153945 -1.22764e-22)
(0.79898 -0.0139066 6.86568e-22)
(0.81642 -0.0126049 -8.57996e-23)
(0.832763 -0.0114674 3.37077e-23)
(0.848135 -0.0104741 -3.12551e-22)
(0.862666 -0.00960431 2.12582e-22)
(0.876447 -0.00884375 1.46362e-22)
(0.889593 -0.0081833 -2.35985e-22)
(0.902179 -0.0076199 1.13181e-22)
(0.914347 -0.00713482 -9.3026e-24)
(0.926117 -0.00669146 -8.8933e-23)
(0.93755 -0.0062244 2.00825e-23)
(0.948421 -0.00567979 -1.58292e-24)
(0.958613 -0.00501615 -2.18422e-23)
(0.967662 -0.00425876 1.67446e-23)
(0.975554 -0.00344318 1.55662e-23)
(0.981829 -0.00266884 -2.12356e-23)
(0.986972 -0.00196324 3.52979e-24)
(0.990494 -0.00142217 1.44994e-24)
(0.993553 -0.000966742 -3.51404e-25)
(0.995054 -0.000715309 1.06978e-24)
(0.99719 -0.000429598 9.17612e-25)
(-0.141494 -0.0590909 -6.86633e-20)
(-0.120297 -0.0688259 4.13068e-20)
(-0.0944802 -0.0785019 2.0524e-21)
(-0.0651146 -0.0874128 -2.08411e-20)
(-0.0324239 -0.0953864 -7.80412e-21)
(0.00359805 -0.102155 2.05874e-20)
(0.0429497 -0.107573 -2.58888e-20)
(0.0849074 -0.111544 6.21307e-21)
(0.128884 -0.11387 -1.61575e-22)
(0.174514 -0.114571 -1.11164e-21)
(0.221181 -0.113747 2.08712e-21)
(0.268258 -0.111435 4.27668e-21)
(0.315155 -0.107774 -3.36517e-21)
(0.361317 -0.10297 7.42434e-22)
(0.406244 -0.097268 2.71207e-22)
(0.449514 -0.0909264 -6.21684e-22)
(0.490793 -0.0841992 9.57339e-22)
(0.529841 -0.0773201 -1.24576e-21)
(0.566506 -0.0704905 5.67465e-22)
(0.600725 -0.0638801 -1.94363e-21)
(0.632512 -0.0576339 1.09628e-21)
(0.661929 -0.051826 3.41896e-21)
(0.689065 -0.0464863 -2.40558e-21)
(0.714044 -0.0416317 4.53478e-23)
(0.737022 -0.037263 -1.43977e-22)
(0.758168 -0.033365 1.14236e-21)
(0.777654 -0.0299115 -7.35424e-22)
(0.795654 -0.026869 7.6726e-22)
(0.812333 -0.0242002 3.7677e-22)
(0.82785 -0.0218654 -6.89264e-22)
(0.842343 -0.019827 -9.00234e-22)
(0.855949 -0.0180491 1.06523e-21)
(0.868777 -0.0164994 -2.09185e-22)
(0.880943 -0.0151446 -3.8117e-22)
(0.892521 -0.0139606 3.59655e-22)
(0.903612 -0.012932 1.37113e-22)
(0.914268 -0.0120541 -1.23713e-23)
(0.924608 -0.0112985 -8.4334e-23)
(0.934645 -0.0106095 -3.97253e-24)
(0.94444 -0.00988431 -6.52833e-23)
(0.9538 -0.0090376 1.04258e-22)
(0.962645 -0.00800083 -5.6533e-23)
(0.970552 -0.00681213 -1.93623e-23)
(0.977529 -0.0055245 -1.91239e-23)
(0.98312 -0.00429708 3.758e-23)
(0.987777 -0.00317209 -6.03189e-25)
(0.990982 -0.00230722 -9.88166e-24)
(0.993834 -0.00157417 -3.82779e-24)
(0.995225 -0.0011698 -5.00561e-24)
(0.99727 -0.000705729 -6.79866e-25)
(0.052623 -0.0823058 -3.69638e-20)
(0.0731107 -0.0942812 -2.84563e-20)
(0.0972913 -0.106649 5.32652e-20)
(0.124502 -0.118258 5.39891e-20)
(0.154315 -0.128633 -7.99758e-20)
(0.186569 -0.137315 -9.27758e-21)
(0.221232 -0.144212 5.34409e-20)
(0.257899 -0.149261 -4.3238e-20)
(0.296065 -0.152175 1.1841e-20)
(0.335287 -0.152904 1.12677e-21)
(0.375044 -0.151517 7.0698e-21)
(0.414812 -0.148145 5.16067e-21)
(0.4541 -0.142996 -4.23046e-21)
(0.492461 -0.136354 -5.55181e-22)
(0.529505 -0.128549 -9.91585e-23)
(0.564917 -0.119933 8.0138e-23)
(0.59846 -0.110845 3.12117e-21)
(0.629975 -0.101596 -6.87983e-21)
(0.659378 -0.0924521 3.04569e-21)
(0.686642 -0.0836229 -1.29621e-21)
(0.71181 -0.075282 1.83634e-21)
(0.734975 -0.0675553 -6.01015e-22)
(0.756235 -0.0604826 1.09171e-21)
(0.775704 -0.0540746 7.48075e-22)
(0.793521 -0.0483267 -2.01058e-21)
(0.809842 -0.0432152 3.56828e-22)
(0.824819 -0.038702 -2.04873e-22)
(0.838609 -0.0347395 -5.02192e-22)
(0.851357 -0.0312756 3.5422e-22)
(0.863202 -0.0282553 -9.42533e-22)
(0.874264 -0.0256265 1.84256e-21)
(0.88466 -0.0233405 -5.57412e-22)
(0.894483 -0.0213539 8.30389e-23)
(0.903831 -0.0196217 5.88773e-22)
(0.912765 -0.0181101 -1.18921e-22)
(0.921366 -0.0167965 9.97471e-23)
(0.929665 -0.0156747 -5.33477e-22)
(0.937757 -0.0147097 2.09354e-22)
(0.945641 -0.0138328 -2.82216e-22)
(0.953386 -0.0129122 6.63372e-23)
(0.960831 -0.0118372 -5.08922e-25)
(0.967953 -0.0105135 1.27945e-22)
(0.974386 -0.00898706 -9.01592e-23)
(0.98017 -0.00732008 4.8153e-23)
(0.98486 -0.00572226 -4.21013e-23)
(0.988872 -0.0042454 -1.70266e-23)
(0.991653 -0.00310612 1.81388e-23)
(0.994223 -0.00213057 -3.3331e-24)
(0.995466 -0.00159318 9.86583e-24)
(0.997385 -0.00096743 -4.12052e-24)
(0.259824 -0.102104 4.49357e-21)
(0.279717 -0.116956 -6.84101e-21)
(0.301226 -0.131513 5.32695e-20)
(0.325261 -0.145002 2.57023e-20)
(0.351198 -0.157021 -4.7776e-20)
(0.378741 -0.167262 -6.46146e-20)
(0.407849 -0.17541 4.541e-20)
(0.438228 -0.181179 -7.77585e-21)
(0.469437 -0.184346 -1.79298e-20)
(0.501069 -0.184875 2.76678e-20)
(0.532731 -0.182852 -9.20104e-21)
(0.564046 -0.17845 2.2537e-21)
(0.59466 -0.171932 9.40698e-21)
(0.624264 -0.163649 -4.37358e-21)
(0.652608 -0.154007 -1.6657e-22)
(0.679498 -0.143433 1.40754e-21)
(0.704804 -0.132338 -3.16879e-21)
(0.728448 -0.12109 9.06809e-22)
(0.750399 -0.110008 4.50672e-21)
(0.770662 -0.0993372 -3.68112e-21)
(0.789276 -0.0892578 4.64341e-21)
(0.806332 -0.0799267 -6.03793e-21)
(0.821927 -0.0714153 5.99599e-21)
(0.836145 -0.0637278 -2.19737e-21)
(0.849089 -0.0568501 -1.11623e-21)
(0.860878 -0.0507512 3.77042e-22)
(0.871636 -0.0453831 3.28288e-22)
(0.881487 -0.0406861 6.29343e-23)
(0.890549 -0.0365952 -1.84922e-21)
(0.898939 -0.0330416 1.24645e-22)
(0.906755 -0.02996 1.71986e-22)
(0.914092 -0.0272899 6.42316e-23)
(0.921025 -0.0249784 -1.32888e-22)
(0.927637 -0.0229702 -3.2864e-22)
(0.933976 -0.0212222 3.9684e-22)
(0.940108 -0.0197033 1.20727e-22)
(0.946045 -0.0184052 -5.60456e-23)
(0.951859 -0.0172889 -1.40804e-22)
(0.957536 -0.0162794 -2.05911e-22)
(0.96315 -0.0152252 1.95187e-22)
(0.968581 -0.0139978 -1.58449e-22)
(0.973863 -0.0124792 -1.16413e-23)
(0.9787 -0.0107182 -2.51267e-23)
(0.983175 -0.00877674 7.66181e-24)
(0.986864 -0.006904 -1.76663e-23)
(0.990148 -0.00515479 5.2331e-23)
(0.992446 -0.00379952 9.54671e-24)
(0.99469 -0.00262375 9.50963e-25)
(0.99576 -0.00197746 -1.58348e-23)
(0.997526 -0.00121068 -9.99379e-25)
(0.465754 -0.117829 -3.61223e-20)
(0.483482 -0.135476 -1.4026e-19)
(0.502415 -0.152002 7.98431e-21)
(0.522762 -0.166855 3.67085e-20)
(0.544053 -0.179974 -1.8896e-21)
(0.566088 -0.191158 4.72853e-20)
(0.588846 -0.200015 4.48499e-20)
(0.612114 -0.206157 -5.45215e-20)
(0.63552 -0.209349 2.38175e-20)
(0.658731 -0.209564 -1.95261e-20)
(0.681501 -0.206914 2.83993e-20)
(0.703628 -0.201609 -8.99343e-21)
(0.724934 -0.193958 -1.73487e-21)
(0.74528 -0.184363 -4.32986e-22)
(0.764568 -0.173288 9.33512e-22)
(0.782746 -0.16121 -1.20237e-21)
(0.799788 -0.148587 -1.72156e-22)
(0.81569 -0.135828 -4.48551e-23)
(0.830465 -0.123279 2.46563e-21)
(0.844134 -0.111215 -1.39747e-22)
(0.856714 -0.0998233 -3.97867e-22)
(0.868255 -0.0892521 -5.08016e-21)
(0.87883 -0.079616 2.22248e-21)
(0.888488 -0.0709294 3.40823e-21)
(0.89727 -0.0631681 -2.67707e-22)
(0.905244 -0.0562948 1.38131e-21)
(0.912487 -0.0502564 -8.5909e-23)
(0.919083 -0.0449856 -1.04951e-21)
(0.925113 -0.0404085 -1.41152e-21)
(0.930662 -0.0364457 1.48542e-21)
(0.935802 -0.0330209 5.36145e-22)
(0.940607 -0.0300635 -2.06824e-22)
(0.94513 -0.0275134 -2.73049e-22)
(0.949438 -0.0253072 -1.09415e-21)
(0.953568 -0.0233927 2.27674e-22)
(0.957571 -0.0217301 2.46275e-22)
(0.961447 -0.020308 -3.96135e-22)
(0.965249 -0.0190845 3.63265e-22)
(0.96895 -0.0179844 -1.55191e-22)
(0.972627 -0.016845 8.55517e-23)
(0.976195 -0.0155287 2.18949e-22)
(0.979744 -0.0138972 -2.567e-22)
(0.983052 -0.0119981 9.81967e-23)
(0.98625 -0.00988351 3.09915e-23)
(0.988946 -0.00783074 -1.37651e-23)
(0.991496 -0.00588993 -2.1447e-23)
(0.993299 -0.004379 -4.53186e-23)
(0.995202 -0.00304759 2.48843e-23)
(0.99609 -0.00231801 8.07006e-24)
(0.997688 -0.00143281 -7.98163e-25)
(0.662564 -0.13068 1.7537e-19)
(0.676598 -0.149677 2.95619e-20)
(0.692253 -0.167178 1.10567e-19)
(0.708331 -0.182662 -1.23535e-19)
(0.724222 -0.196351 -6.35359e-21)
(0.73995 -0.208073 6.40616e-20)
(0.75565 -0.217291 -7.17997e-20)
(0.771176 -0.22353 3.16899e-21)
(0.786206 -0.226567 6.56728e-20)
(0.800505 -0.226419 -2.94344e-20)
(0.813995 -0.223235 1.67557e-20)
(0.826675 -0.217256 -3.17078e-20)
(0.838558 -0.20882 2.73021e-21)
(0.849679 -0.198362 -1.61177e-21)
(0.860094 -0.186372 7.5289e-21)
(0.869877 -0.173351 -1.81286e-21)
(0.879094 -0.159776 -3.39388e-22)
(0.8878 -0.146074 4.04502e-22)
(0.896027 -0.132598 8.9008e-22)
(0.903792 -0.119634 1.42763e-21)
(0.911089 -0.107386 -2.0825e-21)
(0.917901 -0.0959804 -1.11448e-21)
(0.924246 -0.0855423 -1.16367e-21)
(0.930138 -0.0761293 2.28008e-21)
(0.935561 -0.0677192 -2.02942e-22)
(0.940514 -0.0602687 -5.65309e-22)