/*--------------------------------*- C++ -*----------------------------------*\
  =========                 |
  \\      /  F ield         | OpenFOAM: The Open Source CFD Toolbox
   \\    /   O peration     | Website:  https://openfoam.org
    \\  /    A nd           | Version:  7
     \\/     M anipulation  |
\*---------------------------------------------------------------------------*/
FoamFile
{
    version     2.0;
    format      ascii;
    class       surfaceScalarField;
    location    "5";
    object      phi;
}
// * * * * * * * * * * * * * * * * * * * * * * * * * * * * * * * * * * * * * //

dimensions      [0 3 -1 0 0 0 0];

internalField   nonuniform List<scalar> 
5141
(
0.00213882
0.000591649
-0.00213025
0.00214799
0.000672333
0.00215778
0.000753017
0.00216815
0.000833648
0.00217911
0.000914174
0.000994536
0.00218744
0.000582936
-0.00217872
0.00219678
0.000662987
0.00220675
0.000743045
0.00221734
0.000823059
0.00222854
0.000902977
0.00224033
0.000982744
0.00225271
0.0010623
0.00226565
0.00114159
0.00122055
0.00223712
0.000574081
-0.00222826
0.00224663
0.000653476
0.00225679
0.000732885
0.00226759
0.000812258
0.00227902
0.000891544
0.00229108
0.00097069
0.00230374
0.00104964
0.00231699
0.00112834
0.00233082
0.00120672
0.00234521
0.00128472
0.00136228
0.00228788
0.000565085
-0.00227889
0.00229756
0.000643801
0.00230791
0.000722537
0.00231892
0.000801245
0.00233059
0.000879875
0.0023429
0.000958375
0.00235585
0.00103669
0.00236942
0.00111477
0.00238359
0.00119255
0.00239835
0.00126997
0.00241367
0.00134696
0.00242953
0.00142347
0.00244591
0.00149941
0.00157473
0.00233976
0.000555952
-0.00233063
0.0023496
0.000633965
0.00236013
0.000712003
0.00237136
0.000790021
0.00238326
0.000867969
0.00239584
0.000945798
0.00240908
0.00102346
0.00242296
0.00110089
0.00243747
0.00117803
0.0024526
0.00125484
0.00246832
0.00133124
0.00248462
0.00140718
0.00250146
0.00148257
0.00251882
0.00155737
0.00253667
0.00163148
0.00170485
0.00239278
0.000546685
-0.00238352
0.00240278
0.000623969
0.0024135
0.000701285
0.00242493
0.000778587
0.00243707
0.000855828
0.00244991
0.000932958
0.00246344
0.00100993
0.00247764
0.00108669
0.0024925
0.00116317
0.002508
0.00123934
0.00252412
0.00131512
0.00254085
0.00139045
0.00255816
0.00146527
0.00257601
0.00153951
0.0025944
0.0016131
0.00261327
0.00168597
0.00175805
0.00244697
0.000537289
-0.00243758
0.00245712
0.000613819
0.00246802
0.000690385
0.00247967
0.000766945
0.00249204
0.000843451
0.00250514
0.000919857
0.00251896
0.000996113
0.00253348
0.00107217
0.00254868
0.00114797
0.00256456
0.00122346
0.00258109
0.00129859
0.00259826
0.00137328
0.00261603
0.00144749
0.0026344
0.00152115
0.00265331
0.00159418
0.00267276
0.00166653
0.0026927
0.00173811
0.0027131
0.00180885
0.00187868
0.00250237
0.000527768
-0.00249284
0.00251267
0.000603516
0.00252375
0.000679307
0.00253559
0.000755097
0.0025482
0.000830842
0.00256157
0.000906494
0.00257567
0.000982007
0.00259051
0.00105733
0.00260606
0.00113241
0.00262232
0.0012072
0.00263926
0.00128164
0.00265687
0.00135568
0.00267512
0.00142924
0.00269399
0.00150228
0.00271345
0.00157472
0.00273347
0.0016465
0.00275403
0.00171755
0.00277508
0.0017878
0.00279659
0.00185717
0.00281851
0.00192559
0.00199297
0.00255899
0.000518126
-0.00254935
0.00256944
0.000593067
0.00258069
0.000668054
0.00259275
0.000743047
0.00260559
0.000818001
0.00261921
0.000892872
0.0026336
0.000967613
0.00264876
0.00104218
0.00266466
0.00111651
0.0026813
0.00119057
0.00269865
0.00126429
0.0027167
0.00133763
0.00273543
0.00141051
0.00275481
0.0014829
0.00277482
0.00155471
0.00279543
0.00162589
0.00281661
0.00169637
0.00283832
0.00176609
0.00286053
0.00183496
0.0028832
0.00190292
0.00290628
0.00196989
0.00203579
0.00261688
0.000508369
-0.00260713
0.00262748
0.000582474
0.0026389
0.00065663
0.00265115
0.000730796
0.00266422
0.000804931
0.0026781
0.000878991
0.00269278
0.00095293
0.00270826
0.0010267
0.00272451
0.00110026
0.00274153
0.00117355
0.00275929
0.00124653
0.00277779
0.00131913
0.002797
0.00139131
0.00281689
0.001463
0.00283746
0.00153415
0.00285865
0.00160469
0.00288046
0.00167457
0.00290284
0.00174371
0.00292576
0.00181204
0.00294918
0.0018795
0.00297306
0.00194601
0.00299736
0.00201149
0.00302202
0.00207588
0.00213909
0.00267608
0.000498502
-0.00266621
0.00268681
0.000571742
0.0026984
0.000645038
0.00271085
0.00071835
0.00272414
0.000791636
0.00273828
0.000864854
0.00275325
0.000937961
0.00276904
0.00101091
0.00278564
0.00108366
0.00280304
0.00115615
0.00282122
0.00122835
0.00284016
0.00130018
0.00285985
0.00137162
0.00288027
0.00144258
0.00290138
0.00151303
0.00292317
0.0015829
0.00294561
0.00165213
0.00296867
0.00172065
0.0029923
0.0017884
0.00301648
0.00185532
0.00304116
0.00192132
0.00306631
0.00198635
0.00309187
0.00205032
0.0031178
0.00211316
0.0021748
0.0027366
0.000488531
-0.00272663
0.00274747
0.000560878
0.00275922
0.000633284
0.00277186
0.000705711
0.00278538
0.000778118
0.00279977
0.000850465
0.00281502
0.000922708
0.00283113
0.000994805
0.00284808
0.00106671
0.00286586
0.00113837
0.00288445
0.00120975
0.00290385
0.00128079
0.00292402
0.00135144
0.00294496
0.00142165
0.00296663
0.00149136
0.00298902
0.00156051
0.00301209
0.00162906
0.00303582
0.00169692
0.00306018
0.00176405
0.00308512
0.00183037
0.00311061
0.00189583
0.00313661
0.00196035
0.00316308
0.00202385
0.00318996
0.00208628
0.00321721
0.00214755
0.00324478
0.0022076
0.00226635
0.0027985
0.000478462
-0.00278843
0.0028095
0.000549885
0.00282141
0.000621372
0.00283424
0.000692883
0.00284797
0.000764381
0.00286261
0.000835825
0.00287815
0.000907173
0.00289457
0.000978384
0.00291186
0.00104941
0.00293002
0.00112021
0.00294903
0.00119074
0.00296888
0.00126095
0.00298953
0.00133078
0.00301099
0.00140019
0.00303323
0.00146913
0.00305621
0.00153753
0.00307992
0.00160534
0.00310433
0.00167251
0.00312941
0.00173897
0.00315512
0.00180466
0.00318143
0.00186952
0.00320829
0.00193348
0.00323567
0.00199648
0.00326351
0.00205843
0.00329178
0.00211929
0.00332041
0.00217897
0.00334937
0.0022374
0.00229451
0.00286181
0.0004683
-0.00285165
0.00287293
0.00053877
0.00288499
0.000609307
0.002898
0.000679872
0.00291196
0.000750429
0.00292684
0.000820938
0.00294266
0.00089136
0.00295939
0.000961652
0.00297703
0.00103177
0.00299557
0.00110168
0.00301499
0.00117132
0.00303528
0.00124066
0.00305643
0.00130964
0.00307841
0.00137821
0.0031012
0.00144633
0.00312479
0.00151394
0.00314914
0.00158099
0.00317423
0.00164742
0.00320004
0.00171317
0.00322652
0.00177818
0.00325364
0.0018424
0.00328137
0.00190576
0.00330966
0.00196818
0.00333847
0.00202962
0.00336776
0.00209
0.00339747
0.00214925
0.00342755
0.00220731
0.00345796
0.00226411
0.00348863
0.00231957
0.00237363
0.00292657
0.000458051
-0.00291632
0.0029378
0.000527538
0.00295002
0.000597093
0.00296321
0.000666682
0.00297737
0.000736266
0.0029925
0.000805808
0.00300859
0.00087527
0.00302563
0.00094461
0.00304361
0.00101379
0.00306253
0.00108276
0.00308237
0.00115148
0.00310311
0.00121992
0.00312474
0.00128801
0.00314724
0.00135571
0.00317059
0.00142298
0.00319478
0.00148976
0.00321977
0.001556
0.00324555
0.00162164
0.00327208
0.00168664
0.00329933
0.00175093
0.00332727
0.00181446
0.00335587
0.00187716
0.00338508
0.00193898
0.00341486
0.00199984
0.00344517
0.00205969
0.00347596
0.00211846
0.00350718
0.00217609
0.00353878
0.00223251
0.0035707
0.00228764
0.00360289
0.00234144
0.00239382
0.00299281
0.000447722
-0.00298248
0.00300416
0.000516194
0.00301651
0.000584737
0.00302988
0.000653316
0.00304425
0.000721896
0.00305962
0.000790439
0.00307598
0.000858907
0.00309333
0.000927262
0.00311165
0.000995463
0.00313095
0.00106347
0.00315119
0.00113124
0.00317238
0.00119873
0.00319449
0.00126589
0.00321752
0.00133269
0.00324143
0.00139906
0.00326622
0.00146497
0.00329186
0.00153036
0.00331832
0.00159518
0.00334558
0.00165938
0.0033736
0.00172291
0.00340236
0.0017857
0.00343183
0.0018477
0.00346195
0.00190885
0.00349271
0.00196909
0.00352404
0.00202836
0.00355591
0.0020866
0.00358827
0.00214373
0.00362106
0.00219971
0.00365424
0.00225446
0.00368776
0.00230792
0.00372154
0.00236003
0.00375554
0.00241074
0.00245997
0.00306058
0.000437317
-0.00305018
0.00307203
0.000504743
0.00308453
0.000572242
0.00309806
0.00063978
0.00311264
0.000707323
0.00312824
0.000774833
0.00314488
0.000842275
0.00316253
0.000909611
0.00318119
0.000976801
0.00320085
0.00104381
0.00322151
0.00111058
0.00324314
0.0011771
0.00326574
0.0012433
0.00328928
0.00130914
0.00331376
0.00137458
0.00333915
0.00143958
0.00336543
0.00150408
0.00339257
0.00156804
0.00342056
0.0016314
0.00344936
0.00169411
0.00347894
0.00175611
0.00350927
0.00181737
0.00354032
0.0018778
0.00357204
0.00193737
0.0036044
0.001996
0.00363735
0.00205365
0.00367084
0.00211024
0.00370483
0.00216572
0.00373927
0.00222002
0.0037741
0.00227309
0.00380927
0.00232487
0.00384472
0.00237529
0.00388039
0.0024243
0.00391623
0.00247186
0.00251792
0.00312992
0.000426843
-0.00311945
0.00314147
0.000493191
0.0031541
0.000559614
0.0031678
0.000626079
0.00318258
0.000692551
0.00319841
0.000758996
0.00321531
0.000825378
0.00323326
0.000891659
0.00325226
0.000957803
0.00327229
0.00102377
0.00329336
0.00108952
0.00331543
0.00115502
0.00333851
0.00122022
0.00336258
0.00128508
0.00338761
0.00134955
0.0034136
0.00141359
0.00344052
0.00147716
0.00346835
0.00154021
0.00349706
0.00160268
0.00352664
0.00166453
0.00355704
0.00172571
0.00358824
0.00178617
0.0036202
0.00184584
0.00365289
0.00190468
0.00368627
0.00196262
0.0037203
0.00201962
0.00375493
0.00207561
0.00379012
0.00213053
0.00382581
0.00218433
0.00386196
0.00223694
0.00389851
0.00228832
0.0039354
0.00233839
0.00397259
0.00238711
0.00401
0.00243444
0.00404758
0.00248034
0.00252479
0.00320087
0.000416304
-0.00319033
0.00321252
0.000481542
0.00322528
0.000546857
0.00323914
0.000612215
0.00325411
0.000677585
0.00327017
0.00074293
0.00328733
0.000808218
0.00330558
0.000873411
0.00332491
0.000938474
0.00334531
0.00100337
0.00336678
0.00106806
0.0033893
0.0011325
0.00341285
0.00119666
0.00343744
0.00126049
0.00346303
0.00132396
0.00348962
0.00138701
0.00351718
0.0014496
0.00354569
0.0015117
0.00357513
0.00157324
0.00360547
0.00163419
0.00363669
0.00169449
0.00366876
0.0017541
0.00370164
0.00181296
0.0037353
0.00187102
0.0037697
0.00192822
0.00380481
0.00198452
0.00384057
0.00203985
0.00387695
0.00209415
0.00391389
0.00214739
0.00395135
0.00219948
0.00398928
0.00225039
0.00402762
0.00230005
0.00406631
0.00234842
0.0041053
0.00239545
0.00414452
0.00244112
0.00248539
0.00327347
0.000405705
-0.00326287
0.00328521
0.000469801
0.00329809
0.000533975
0.00331211
0.000598195
0.00332727
0.000662427
0.00334356
0.00072664
0.00336098
0.000790798
0.00337952
0.000854868
0.00339918
0.000918814
0.00341995
0.000982601
0.00344182
0.00104619
0.00346477
0.00110954
0.00348881
0.00117263
0.00351391
0.00123539
0.00354006
0.00129781
0.00356724
0.00135982
0.00359544
0.0014214
0.00362463
0.0014825
0.0036548
0.00154307
0.00368591
0.00160307
0.00371795
0.00166245
0.00375088
0.00172117
0.00378468
0.00177916
0.0038193
0.00183639
0.00385472
0.0018928
0.0038909
0.00194834
0.00392779
0.00200295
0.00396535
0.00205659
0.00400354
0.0021092
0.00404231
0.00216071
0.00408161
0.00221109
0.00412138
0.00226028
0.00416157
0.00230823
0.00420213
0.00235489
0.004243
0.00240025
0.00244427
0.00334777
0.000395051
-0.00333711
0.00335959
0.000457973
0.0033726
0.000520974
0.00338677
0.00058402
0.00340212
0.000647082
0.00341863
0.000710128
0.0034363
0.000773123
0.00345514
0.000836035
0.00347512
0.000898829
0.00349625
0.00096147
0.00351852
0.00102392
0.00354191
0.00108615
0.00356643
0.00114811
0.00359204
0.00120978
0.00361874
0.0012711
0.00364652
0.00133205
0.00367535
0.00139257
0.00370522
0.00145263
0.00373611
0.00151219
0.003768
0.00157119
0.00380085
0.0016296
0.00383464
0.00168737
0.00386935
0.00174446
0.00390493
0.0018008
0.00394137
0.00185637
0.00397861
0.0019111
0.00401662
0.00196494
0.00405537
0.00201785
0.0040948
0.00206977
0.00413487
0.00212064
0.00417553
0.00217043
0.00421673
0.00221908
0.00425842
0.00226654
0.00430054
0.00231277
0.00434304
0.00235775
0.00240145
0.0034238
0.000384346
-0.0034131
0.00343572
0.000446061
0.00344883
0.000507855
0.00346316
0.000569696
0.00347869
0.000631553
0.00349542
0.000693397
0.00351335
0.000755194
0.00353247
0.000816913
0.00355278
0.000878519
0.00357427
0.000939979
0.00359694
0.00100126
0.00362076
0.00106232
0.00364575
0.00112313
0.00367187
0.00118365
0.00369913
0.00124385
0.0037275
0.00130368
0.00375697
0.0013631
0.00378751
0.00142208
0.00381912
0.00148058
0.00385177
0.00153854
0.00388543
0.00159594
0.00392008
0.00165272
0.0039557
0.00170884
0.00399224
0.00176426
0.00402968
0.00181893
0.00406799
0.00187279
0.00410712
0.00192581
0.00414704
0.00197793
0.0041877
0.0020291
0.00422906
0.00207928
0.00427108
0.00212842
0.0043137
0.00217646
0.00435687
0.00222337
0.00440054
0.0022691
0.00444466
0.00231363
0.00235694
0.00350162
0.000373593
-0.00349087
0.00351362
0.000434069
0.00352685
0.000494622
0.00354132
0.000555224
0.00355703
0.000615843
0.00357398
0.00067645
0.00359216
0.000737015
0.00361157
0.000797504
0.0036322
0.000857887
0.00365405
0.000918129
0.00367711
0.000978198
0.00370137
0.00103806
0.00372683
0.00109768
0.00375346
0.00115702
0.00378127
0.00121604
0.00381023
0.00127472
0.00384033
0.001333
0.00387155
0.00139086
0.00390387
0.00144825
0.00393728
0.00150514
0.00397175
0.00156147
0.00400726
0.00161722
0.00404377
0.00167233
0.00408127
0.00172676
0.00411971
0.00178048
0.00415908
0.00183343
0.00419932
0.00188556
0.00424041
0.00193684
0.00428229
0.00198721
0.00432494
0.00203663
0.0043683
0.00208505
0.00441233
0.00213243
0.00445698
0.00217872
0.00450219
0.00222389
0.00454791
0.00226791
0.00231075
0.00358128
0.000362796
-0.00357048
0.00359335
0.000421999
0.00360669
0.000481279
0.00362131
0.000540606
0.0036372
0.000599953
0.00365436
0.00065929
0.00367279
0.000718586
0.00369248
0.000777811
0.00371343
0.000836934
0.00373564
0.000895922
0.00375909
0.000954743
0.00378379
0.00101337
0.00380971
0.00107175
0.00383686
0.00112987
0.00386521
0.00118769
0.00389476
0.00124517
0.00392548
0.00130227
0.00395738
0.00135897
0.00399042
0.00141521
0.00402459
0.00147097
0.00405986
0.0015262
0.00409622
0.00158086
0.00413363
0.00163492
0.00417207
0.00168832
0.00421152
0.00174104
0.00425193
0.00179302
0.00429327
0.00184422
0.00433552
0.0018946
0.00437862
0.00194411
0.00442254
0.00199271
0.00446724
0.00204036
0.00451266
0.00208701
0.00455877
0.00213262
0.00460551
0.00217715
0.00465283
0.00222059
0.0022629
0.00366281
0.000351958
-0.00365197
0.00367495
0.000409854
0.0036884
0.000467826
0.00370316
0.000525846
0.00371923
0.000583886
0.00373661
0.000641917
0.00375528
0.00069991
0.00377526
0.000757835
0.00379653
0.000815662
0.00381909
0.00087336
0.00384294
0.000930896
0.00386806
0.000988241
0.00389446
0.00104536
0.00392211
0.00110222
0.00395101
0.00115879
0.00398114
0.00121504
0.0040125
0.00127092
0.00404506
0.0013264
0.00407881
0.00138146
0.00411374
0.00143604
0.00414981
0.00149012
0.00418701
0.00154366
0.00422532
0.00159661
0.0042647
0.00164894
0.00430514
0.0017006
0.00434659
0.00175156
0.00438904
0.00180178
0.00443243
0.0018512
0.00447674
0.0018998
0.00452192
0.00194753
0.00456794
0.00199434
0.00461475
0.0020402
0.00466231
0.00208506
0.00471056
0.0021289
0.00475946
0.00217169
0.0022134
0.00374626
0.000341079
-0.00373538
0.00375848
0.000397635
0.00377204
0.000454266
0.00378694
0.000510944
0.00380319
0.000567642
0.00382077
0.000624333
0.00383969
0.000680987
0.00385995
0.000737576
0.00388154
0.000794071
0.00390446
0.000850442
0.0039287
0.000906657
0.00395425
0.000962687
0.00398111
0.0010185
0.00400927
0.00107406
0.00403872
0.00112935
0.00406944
0.00118431
0.00410142
0.00123894
0.00413465
0.00129317
0.00416911
0.001347
0.00420479
0.00140037
0.00424166
0.00145325
0.0042797
0.00150561
0.0043189
0.00155741
0.00435922
0.00160861
0.00440064
0.00165918
0.00444313
0.00170907
0.00448666
0.00175825
0.0045312
0.00180667
0.0045767
0.0018543
0.00462314
0.00190109
0.00467047
0.00194701
0.00471865
0.00199202
0.00476764
0.00203608
0.00481738
0.00207916
0.00486784
0.00212123
0.00216227
0.00383169
0.000330162
-0.00382077
0.00384398
0.000385344
0.00385765
0.000440599
0.00387269
0.000495901
0.00388911
0.000551222
0.0039069
0.000606537
0.00392607
0.000661817
0.00394662
0.000717035
0.00396853
0.000772162
0.0039918
0.000827168
0.00401643
0.000882025
0.00404241
0.000936703
0.00406974
0.000991172
0.00409841
0.0010454
0.0041284
0.00109936
0.0041597
0.00115301
0.00419231
0.00120633
0.00422621
0.00125928
0.00426138
0.00131183
0.0042978
0.00136394
0.00433547
0.00141559
0.00437435
0.00146673
0.00441443
0.00151733
0.00445569
0.00156736
0.00449809
0.00161678
0.00454161
0.00166555
0.00458622
0.00171364
0.00463189
0.001761
0.00467858
0.0018076
0.00472626
0.00185341
0.00477488
0.00189838
0.00482442
0.00194248
0.00487482
0.00198567
0.00492605
0.00202793
0.00497806
0.00206922
0.00210953
0.00391914
0.000319208
-0.00390818
0.0039315
0.000372981
0.00394527
0.000426826
0.00396046
0.000480716
0.00397705
0.000534626
0.00399506
0.00058853
0.00401448
0.0006424
0.0040353
0.00069621
0.00405753
0.000749932
0.00408116
0.000803538
0.00410619
0.000857
0.0041326
0.000910289
0.0041604
0.000963375
0.00418957
0.00101623
0.00422011
0.00106882
0.004252
0.00112112
0.00428523
0.00117309
0.00431979
0.00122471
0.00435567
0.00127595
0.00439285
0.00132676
0.00443131
0.00137713
0.00447103
0.00142701
0.00451199
0.00147637
0.00455417
0.00152518
0.00459754
0.00157341
0.00464209
0.00162101
0.00468777
0.00166795
0.00473456
0.00171421
0.00478243
0.00175974
0.00483134
0.0018045
0.00488125
0.00184847
0.00493213
0.0018916
0.00498394
0.00193387
0.00503663
0.00197524
0.00509016
0.00201569
0.0020552
0.00400866
0.000308217
-0.00399767
0.00402109
0.000360547
0.00403497
0.000412946
0.0040503
0.00046539
0.00406707
0.000517853
0.00408529
0.000570309
0.00410496
0.000622734
0.00412607
0.0006751
0.00414862
0.000727382
0.00417261
0.000779551
0.00419803
0.00083158
0.00422487
0.000883441
0.00425314
0.000935107
0.00428282
0.000986549
0.00431391
0.00103774
0.00434638
0.00108864
0.00438024
0.00113923
0.00441547
0.00118949
0.00445206
0.00123936
0.00448998
0.00128884
0.00452923
0.00133788
0.00456979
0.00138645
0.00461163
0.00143453
0.00465473
0.00148208
0.00469908
0.00152906
0.00474464
0.00157545
0.00479138
0.00162121
0.00483929
0.0016663
0.00488833
0.0017107
0.00493846
0.00175437
0.00498964
0.00179728
0.00504185
0.00183939
0.00509505
0.00188067
0.00514919
0.0019211
0.00520423
0.00196065
0.0019993
0.0041003
0.000297189
-0.00408928
0.00411281
0.000348041
0.0041268
0.000398959
0.00414227
0.00044992
0.00415922
0.0005009
0.00417765
0.000551874
0.00419757
0.000602817
0.00421897
0.000653703
0.00424184
0.000704507
0.00426619
0.000755202
0.00429201
0.000805761
0.00431929
0.000856159
0.00434803
0.000906367
0.00437822
0.000956357
0.00440986
0.0010061
0.00444292
0.00105558
0.00447741
0.00110475
0.00451331
0.00115359
0.0045506
0.00120207
0.00458928
0.00125016
0.00462932
0.00129784
0.00467071
0.00134506
0.00471342
0.00139181
0.00475745
0.00143805
0.00480276
0.00148375
0.00484933
0.00152887
0.00489714
0.0015734
0.00494616
0.00161729
0.00499635
0.00166051
0.00504769
0.00170303
0.00510014
0.00174483
0.00515367
0.00178586
0.00520824
0.0018261
0.00526381
0.00186553
0.00532034
0.00190412
0.00194184
0.00419412
0.000286124
-0.00418306
0.0042067
0.000335461
0.0042208
0.000384863
0.00423642
0.000434306
0.00425355
0.000483767
0.0042722
0.000533222
0.00429237
0.000582646
0.00431406
0.000632016
0.00433726
0.000681305
0.00436198
0.000730489
0.0043882
0.000779541
0.00441592
0.000828437
0.00444514
0.000877149
0.00447584
0.000925651
0.00450803
0.000973916
0.00454169
0.00102192
0.0045768
0.00106963
0.00461337
0.00111702
0.00465138
0.00116407
0.0046908
0.00121074
0.00473164
0.00125701
0.00477386
0.00130284
0.00481746
0.00134822
0.0048624
0.0013931
0.00490868
0.00143747
0.00495626
0.00148129
0.00500512
0.00152453
0.00505524
0.00156717
0.00510659
0.00160916
0.00515913
0.00165049
0.00521284
0.00169112
0.00526767
0.00173103
0.0053236
0.00177018
0.00538058
0.00180855
0.00543859
0.00184611
0.00188286
0.00429018
0.00027502
-0.00427907
0.00430283
0.000322807
0.00431704
0.000370655
0.0043328
0.000418544
0.00435012
0.000466449
0.00436899
0.000514348
0.00438942
0.000562217
0.0044114
0.000610033
0.00443494
0.000657771
0.00446002
0.000705406
0.00448665
0.000752914
0.00451481
0.000800271
0.00454451
0.000847449
0.00457574
0.000894425
0.00460848
0.000941171
0.00464274
0.000987663
0.00467849
0.00103387
0.00471573
0.00107978
0.00475445
0.00112535
0.00479464
0.00117056
0.00483626
0.00121538
0.00487932
0.00125978
0.0049238
0.00130374
0.00496966
0.00134724
0.0050169
0.00139023
0.0050655
0.0014327
0.00511541
0.00147462
0.00516663
0.00151595
0.00521912
0.00155667
0.00527286
0.00159675
0.00532781
0.00163617
0.00538394
0.0016749
0.00544122
0.0017129
0.0054996
0.00175016
0.00555906
0.00178665
0.00182236
0.00438851
0.000263877
-0.00437737
0.00440124
0.000310076
0.00441557
0.000356334
0.00443148
0.000402631
0.00444898
0.000448944
0.00446808
0.00049525
0.00448877
0.000541527
0.00451106
0.000587751
0.00453493
0.0006339
0.00456038
0.000679949
0.00458742
0.000725875
0.00461604
0.000771654
0.00464623
0.000817261
0.00467798
0.000862672
0.00471129
0.000907862
0.00474615
0.000952805
0.00478254
0.000997478
0.00482047
0.00104185
0.00485991
0.00108591
0.00490085
0.00112961
0.00494328
0.00117295
0.00498718
0.00121588
0.00503253
0.00125839
0.00507932
0.00130045
0.00512753
0.00134203
0.00517713
0.0013831
0.0052281
0.00142365
0.00528041
0.00146363
0.00533405
0.00150303
0.00538898
0.00154183
0.00544516
0.00157998
0.00550258
0.00161748
0.0055612
0.00165429
0.00562097
0.00169038
0.00568188
0.00172575
0.00176036
0.00448919
0.000252691
-0.00447801
0.004502
0.000297266
0.00451644
0.000341897
0.00453251
0.000386564
0.00455021
0.000431246
0.00456954
0.000475922
0.00459049
0.000520568
0.00461308
0.000565163
0.0046373
0.000609685
0.00466313
0.000654111
0.00469059
0.000698417
0.00471967
0.000742581
0.00475035
0.000786578
0.00478264
0.000830386
0.00481652
0.00087398
0.00485199
0.000917337
0.00488903
0.000960432
0.00492764
0.00100324
0.00496781
0.00104574
0.00500952
0.00108791
0.00505275
0.00112971
0.0050975
0.00117113
0.00514374
0.00121215
0.00519146
0.00125273
0.00524063
0.00129285
0.00529125
0.00133249
0.00534327
0.00137162
0.00539669
0.00141022
0.00545146
0.00144826
0.00550758
0.00148571
0.005565
0.00152256
0.0056237
0.00155878
0.00568364
0.00159434
0.0057448
0.00162923
0.00580714
0.00166341
0.00169688
0.00459228
0.000241462
-0.00458105
0.00460517
0.000284373
0.00461973
0.000327339
0.00463595
0.000370338
0.00465385
0.000413352
0.00467341
0.000456358
0.00469464
0.000499336
0.00471754
0.000542264
0.00474211
0.00058512
0.00476834
0.000627884
0.00479622
0.000670531
0.00482576
0.000713041
0.00485695
0.00075539
0.00488978
0.000797557
0.00492424
0.000839517
0.00496033
0.000881249
0.00499803
0.000922728
0.00503734
0.000963933
0.00507824
0.00100484
0.00512073
0.00104542
0.00516478
0.00108566
0.00521038
0.00112553
0.00525751
0.00116501
0.00530617
0.00120408
0.00535632
0.0012427
0.00540794
0.00128086
0.00546103
0.00131854
0.00551554
0.0013557
0.00557146
0.00139233
0.00562877
0.00142841
0.00568742
0.00146391
0.0057474
0.0014988
0.00580867
0.00153307
0.0058712
0.0015667
0.00593496
0.00159965
0.00163192
0.00469782
0.000230187
-0.00468655
0.0047108
0.000271396
0.00472548
0.000312656
0.00474187
0.000353949
0.00475997
0.000395254
0.00477978
0.000436552
0.00480129
0.000477822
0.00482451
0.000519044
0.00484943
0.000560197
0.00487606
0.000601259
0.00490438
0.000642209
0.00493439
0.000683026
0.0049661
0.000723689
0.00499948
0.000764175
0.00503453
0.000804462
0.00507125
0.00084453
0.00510962
0.000884355
0.00514964
0.000923915
0.00519129
0.000963189
0.00523456
0.00100215
0.00527944
0.00104079
0.0053259
0.00107907
0.00537394
0.00111697
0.00542354
0.00115448
0.00547467
0.00119157
0.00552732
0.00122821
0.00558147
0.00126439
0.00563709
0.00130008
0.00569416
0.00133526
0.00575266
0.00136992
0.00581255
0.00140402
0.0058738
0.00143754
0.0059364
0.00147048
0.0060003
0.00150279
0.00606548
0.00153448
0.0015655
0.0048059
0.000218862
-0.00479457
0.00481896
0.000258329
0.00483378
0.000297844
0.00485033
0.00033739
0.00486864
0.000376948
0.00488869
0.000416498
0.0049105
0.000456021
0.00493404
0.000495497
0.00495934
0.000534905
0.00498637
0.000574226
0.00501514
0.00061344
0.00504564
0.000652525
0.00507786
0.000691462
0.00511181
0.000730228
0.00514747
0.000768804
0.00518483
0.000807168
0.00522389
0.0008453
0.00526462
0.000883177
0.00530703
0.00092078
0.0053511
0.000958087
0.00539681
0.000995076
0.00544416
0.00103173
0.00549311
0.00106802
0.00554366
0.00110393
0.00559579
0.00113944
0.00564948
0.00117452
0.0057047
0.00120917
0.00576144
0.00124334
0.00581966
0.00127704
0.00587935
0.00131023
0.00594048
0.00134289
0.00600302
0.001375
0.00606695
0.00140655
0.00613222
0.00143752
0.00619881
0.00146788
0.00149762
0.00491656
0.000207485
-0.00490519
0.00492972
0.000245168
0.00494467
0.000282898
0.0049614
0.000320657
0.00497992
0.000358426
0.00500023
0.000396188
0.00502233
0.000433923
0.00504622
0.000471612
0.00507189
0.000509236
0.00509934
0.000546776
0.00512857
0.000584213
0.00515956
0.000621526
0.00519233
0.000658696
0.00522685
0.000695704
0.00526313
0.000732528
0.00530115
0.00076915
0.0053409
0.000805549
0.00538237
0.000841704
0.00542556
0.000877597
0.00547044
0.000913206
0.005517
0.000948511
0.00556524
0.000983494
0.00561512
0.00101813
0.00566664
0.00105241
0.00571978
0.0010863
0.00577451
0.00111979
0.00583082
0.00115286
0.00588869
0.00118548
0.00594808
0.00121764
0.00600898
0.00124933
0.00607136
0.00128051
0.00613519
0.00131117
0.00620044
0.0013413
0.00626709
0.00137087
0.0063351
0.00139987
0.00142827
0.00502989
0.000196052
-0.00501846
0.00504315
0.00023191
0.00505823
0.000267812
0.00507515
0.000303742
0.00509389
0.000339681
0.00511447
0.000375613
0.00513687
0.000411518
0.00516111
0.000447379
0.00518716
0.000483178
0.00521504
0.000518896
0.00524474
0.000554515
0.00527625
0.000590015
0.00530957
0.000625379
0.00534469
0.000660587
0.00538159
0.00069562
0.00542029
0.000730459
0.00546075
0.000765085
0.00550297
0.000799479
0.00554695
0.000833621
0.00559266
0.000867494
0.0056401
0.000901077
0.00568924
0.000934351
0.00574007
0.000967299
0.00579258
0.000999901
0.00584674
0.00103214
0.00590254
0.00106399
0.00595995
0.00109544
0.00601896
0.00112647
0.00607954
0.00115707
0.00614166
0.00118721
0.0062053
0.00121687
0.00627043
0.00124604
0.00633703
0.0012747
0.00640506
0.00130284
0.00647449
0.00133043
0.00135746
0.00514595
0.000184558
-0.00513445
0.00515931
0.000218548
0.00517454
0.000252581
0.00519164
0.000286638
0.00521062
0.000320705
0.00523147
0.000354763
0.00525419
0.000388797
0.00527878
0.000422788
0.00530524
0.000456719
0.00533356
0.000490573
0.00536374
0.000524333
0.00539578
0.000557979
0.00542967
0.000591495
0.00546539
0.000624862
0.00550295
0.000658063
0.00554233
0.000691078
0.00558352
0.000723891
0.00562652
0.000756483
0.0056713
0.000788836
0.00571787
0.000820932
0.00576619
0.000852753
0.00581626
0.000884281
0.00586806
0.000915498
0.00592158
0.000946387
0.00597678
0.000976929
0.00603367
0.00100711
0.0060922
0.00103691
0.00615237
0.00106631
0.00621415
0.00109529
0.00627751
0.00112385
0.00634242
0.00115195
0.00640887
0.00117959
0.00647683
0.00120675
0.00654626
0.00123341
0.00661713
0.00125956
0.00128517
0.00526481
0.000172998
-0.00525325
0.00527828
0.000205078
0.00529367
0.000237196
0.00531096
0.000269339
0.00533018
0.000301489
0.00535131
0.000333631
0.00537436
0.000365749
0.00539932
0.000397827
0.0054262
0.000429847
0.00545497
0.000461795
0.00548566
0.000493651
0.00551823
0.000525401
0.0055527
0.000557027
0.00558905
0.000588511
0.00562728
0.000619838
0.00566737
0.000650989
0.00570931
0.000681947
0.0057531
0.000712697
0.00579871
0.000743219
0.00584615
0.000773498
0.00589538
0.000803517
0.0059464
0.000833259
0.0059992
0.000862706
0.00605374
0.000891843
0.00611002
0.000920652
0.00616801
0.000949118
0.00622769
0.000977224
0.00628904
0.00100495
0.00635204
0.00103229
0.00641666
0.00105922
0.00648288
0.00108573
0.00655066
0.0011118
0.00661999
0.00113742
0.00669084
0.00116257
0.00676317
0.00118723
0.00121139
0.00538656
0.00016137
-0.00537493
0.00540014
0.000191493
0.00541569
0.000221652
0.00543319
0.000251834
0.00545266
0.000282023
0.00547408
0.000312204
0.00549747
0.000342362
0.00552281
0.000372482
0.00555011
0.000402548
0.00557936
0.000432544
0.00561056
0.000462455
0.0056437
0.000492265
0.00567877
0.000521957
0.00571576
0.000551516
0.00575467
0.000580925
0.00579549
0.000610169
0.00583821
0.000639232
0.00588281
0.000668097
0.00592928
0.000696748
0.00597761
0.00072517
0.00602778
0.000753346
0.00607978
0.000781261
0.00613359
0.000808899
0.00618918
0.000836244
0.00624656
0.000863281
0.00630568
0.000889995
0.00636653
0.00091637
0.0064291
0.000942392
0.00649334
0.000968046
0.00655925
0.000993317
0.00662679
0.00101819
0.00669594
0.00104265
0.00676667
0.00106669
0.00683895
0.00109029
0.00691275
0.00111343
0.0011361
0.00551126
0.000149666
-0.00549956
0.00552497
0.000177786
0.00554068
0.000205941
0.0055584
0.000234116
0.00557813
0.000262298
0.00559986
0.000290472
0.0056236
0.000318625
0.00564934
0.000346741
0.00567708
0.000374806
0.00570682
0.000402807
0.00573855
0.000430726
0.00577226
0.000458551
0.00580795
0.000486266
0.00584561
0.000513855
0.00588523
0.000541304
0.0059268
0.000568598
0.00597032
0.000595721
0.00601575
0.000622659
0.0060631
0.000649397
0.00611235
0.00067592
0.00616349
0.000702212
0.00621649
0.000728259
0.00627134
0.000754047
0.00632802
0.000779561
0.00638652
0.000804786
0.00644681
0.000829709
0.00650886
0.000854314
0.00657266
0.000878589
0.00663819
0.000902521
0.00670541
0.000926094
0.00677431
0.000949296
0.00684485
0.000972113
0.00691701
0.000994533
0.00699076
0.00101654
0.00706606
0.00103812
0.00105927
0.00563902
0.00013788
-0.00562723
0.00565285
0.00016395
0.00566874
0.000190053
0.00568668
0.000216174
0.00570668
0.000242301
0.00572873
0.000268422
0.00575283
0.000294522
0.00577899
0.000320588
0.00580719
0.000346607
0.00583743
0.000372564
0.00586971
0.000398447
0.00590402
0.000424241
0.00594035
0.000449932