/*--------------------------------*- C++ -*----------------------------------*\
  =========                 |
  \\      /  F ield         | OpenFOAM: The Open Source CFD Toolbox
   \\    /   O peration     | Website:  https://openfoam.org
    \\  /    A nd           | Version:  7
     \\/     M anipulation  |
\*---------------------------------------------------------------------------*/
FoamFile
{
    version     2.0;
    format      ascii;
    class       volScalarField;
    location    "20";
    object      p;
}
// * * * * * * * * * * * * * * * * * * * * * * * * * * * * * * * * * * * * * //

dimensions      [0 2 -2 0 0 0 0];

internalField   nonuniform List<scalar> 
42000
(
-0.392393
-0.394849
-0.389194
-0.38214
-0.372434
-0.361458
-0.34941
-0.33669
-0.323546
-0.310176
-0.29675
-0.2834
-0.270251
-0.257401
-0.24498
-0.233018
-0.221796
-0.210941
-0.201694
-0.191543
-0.39267
-0.395039
-0.389367
-0.382277
-0.372554
-0.36156
-0.3495
-0.336771
-0.323619
-0.310243
-0.296811
-0.283455
-0.270301
-0.257446
-0.245018
-0.233046
-0.221816
-0.210935
-0.20172
-0.191409
-0.393224
-0.39542
-0.389713
-0.38255
-0.372793
-0.361764
-0.349681
-0.336932
-0.323765
-0.310376
-0.296933
-0.283567
-0.270402
-0.257534
-0.245092
-0.2331
-0.221857
-0.210925
-0.201772
-0.191141
-0.394052
-0.395991
-0.390231
-0.382958
-0.373152
-0.362069
-0.349952
-0.337173
-0.323983
-0.310575
-0.297115
-0.283733
-0.270552
-0.257665
-0.245203
-0.233181
-0.221918
-0.21091
-0.201852
-0.190741
-0.395154
-0.396749
-0.39092
-0.3835
-0.373629
-0.362474
-0.350311
-0.337492
-0.324272
-0.310838
-0.297357
-0.283954
-0.270752
-0.25784
-0.245351
-0.233289
-0.222
-0.210891
-0.201958
-0.190212
-0.396525
-0.397694
-0.391777
-0.384176
-0.374222
-0.362977
-0.350758
-0.337889
-0.324632
-0.311166
-0.297657
-0.284228
-0.270999
-0.258057
-0.245535
-0.233423
-0.222102
-0.210868
-0.202092
-0.189557
-0.398163
-0.398823
-0.392801
-0.384982
-0.37493
-0.363579
-0.351291
-0.338362
-0.32506
-0.311556
-0.298014
-0.284554
-0.271294
-0.258315
-0.245753
-0.233584
-0.222225
-0.210841
-0.202253
-0.18878
-0.400064
-0.400133
-0.393989
-0.385918
-0.375751
-0.364275
-0.351908
-0.33891
-0.325556
-0.312007
-0.298427
-0.284931
-0.271635
-0.258614
-0.246006
-0.23377
-0.222368
-0.210811
-0.202442
-0.187888
-0.402224
-0.401622
-0.395339
-0.38698
-0.376683
-0.365066
-0.352608
-0.339531
-0.326117
-0.312518
-0.298895
-0.285358
-0.27202
-0.258952
-0.246293
-0.23398
-0.222531
-0.210778
-0.20266
-0.186885
-0.404636
-0.403285
-0.396847
-0.388166
-0.377723
-0.365948
-0.353388
-0.340223
-0.326742
-0.313086
-0.299414
-0.285832
-0.272447
-0.259327
-0.246611
-0.234215
-0.222715
-0.210744
-0.202906
-0.185778
-0.407297
-0.40512
-0.39851
-0.389474
-0.378869
-0.366918
-0.354247
-0.340983
-0.327429
-0.31371
-0.299984
-0.286351
-0.272916
-0.259738
-0.246961
-0.234473
-0.222918
-0.210708
-0.203179
-0.184575
-0.410198
-0.407121
-0.400324
-0.3909
-0.380118
-0.367976
-0.355181
-0.34181
-0.328174
-0.314387
-0.300603
-0.286914
-0.273424
-0.260184
-0.24734
-0.234754
-0.22314
-0.210672
-0.20348
-0.183284
-0.413335
-0.409285
-0.402284
-0.39244
-0.381466
-0.369116
-0.356188
-0.3427
-0.328977
-0.315115
-0.301267
-0.287518
-0.273969
-0.260662
-0.247747
-0.235056
-0.223382
-0.210636
-0.203807
-0.181913
-0.4167
-0.411605
-0.404387
-0.394091
-0.382911
-0.370337
-0.357265
-0.343652
-0.329833
-0.315891
-0.301974
-0.288161
-0.274549
-0.26117
-0.248181
-0.235379
-0.223641
-0.210601
-0.20416
-0.180472
-0.420288
-0.414076
-0.406626
-0.39585
-0.384449
-0.371636
-0.35841
-0.344662
-0.330741
-0.316712
-0.302722
-0.288841
-0.275161
-0.261707
-0.248639
-0.23572
-0.223918
-0.210567
-0.204535
-0.17897
-0.424081
-0.416698
-0.408998
-0.397711
-0.386075
-0.373008
-0.359618
-0.345727
-0.331698
-0.317577
-0.303508
-0.289554
-0.275803
-0.26227
-0.24912
-0.236079
-0.224211
-0.210536
-0.204932
-0.177417
-0.42808
-0.419461
-0.411497
-0.399671
-0.387787
-0.374451
-0.360887
-0.346844
-0.3327
-0.318482
-0.30433
-0.290299
-0.276473
-0.262857
-0.249622
-0.236455
-0.224519
-0.210507
-0.205348
-0.175823
-0.432274
-0.422358
-0.414117
-0.401726
-0.38958
-0.375961
-0.362214
-0.34801
-0.333745
-0.319423
-0.305184
-0.291072
-0.277167
-0.263466
-0.250142
-0.236845
-0.22484
-0.210481
-0.205778
-0.174198
-0.436654
-0.425383
-0.416854
-0.40387
-0.391449
-0.377534
-0.363595
-0.349223
-0.33483
-0.3204
-0.306068
-0.291871
-0.277884
-0.264093
-0.250679
-0.237248
-0.225174
-0.210458
-0.20622
-0.172553
-0.44121
-0.428532
-0.4197
-0.406099
-0.393392
-0.379167
-0.365027
-0.350479
-0.335952
-0.321407
-0.306979
-0.292693
-0.27862
-0.264737
-0.251229
-0.237663
-0.225517
-0.210439
-0.206669
-0.170897
-0.445933
-0.431796
-0.42265
-0.408408
-0.395404
-0.380856
-0.366507
-0.351774
-0.337107
-0.322444
-0.307914
-0.293535
-0.279373
-0.265395
-0.251791
-0.238086
-0.225868
-0.210424
-0.20712
-0.16924
-0.450813
-0.435168
-0.425698
-0.410793
-0.397479
-0.382598
-0.36803
-0.353106
-0.338293
-0.323505
-0.30887
-0.294394
-0.28014
-0.266064
-0.252361
-0.238517
-0.226224
-0.210412
-0.207566
-0.167592
-0.45584
-0.438643
-0.428838
-0.413248
-0.399615
-0.384388
-0.369594
-0.354471
-0.339506
-0.324589
-0.309844
-0.295268
-0.280918
-0.266741
-0.252938
-0.238952
-0.226582
-0.210404
-0.208003
-0.165961
-0.461004
-0.442213
-0.432062
-0.415769
-0.401806
-0.386222
-0.371195
-0.355867
-0.340744
-0.325692
-0.310832
-0.296152
-0.281703
-0.267423
-0.253517
-0.23939
-0.226939
-0.2104
-0.208422
-0.164357
-0.466293
-0.44587
-0.435365
-0.41835
-0.404048
-0.388097
-0.37283
-0.357289
-0.342003
-0.326812
-0.311833
-0.297044
-0.282493
-0.268108
-0.254096
-0.239829
-0.227293
-0.210399
-0.208816
-0.162786
-0.471697
-0.449608
-0.43874
-0.420985
-0.406337
-0.39001
-0.374494
-0.358735
-0.343281
-0.327945
-0.312842
-0.297941
-0.283284
-0.268791
-0.254672
-0.240265
-0.227639
-0.210401
-0.209177
-0.161259
-0.477206
-0.453417
-0.44218
-0.423671
-0.408667
-0.391955
-0.376185
-0.360201
-0.344573
-0.329087
-0.313857
-0.298839
-0.284073
-0.26947
-0.255241
-0.240696
-0.227974
-0.210408
-0.209496
-0.159781
-0.482808
-0.457292
-0.445678
-0.426401
-0.411035
-0.393929
-0.377899
-0.361684
-0.345876
-0.330237
-0.314873
-0.299736
-0.284856
-0.270142
-0.255801
-0.241121
-0.228294
-0.210419
-0.209762
-0.15836
-0.488493
-0.461224
-0.449227
-0.42917
-0.413435
-0.395929
-0.379633
-0.363181
-0.347189
-0.331389
-0.315888
-0.300626
-0.28563
-0.270802
-0.256346
-0.241535
-0.228596
-0.210438
-0.209964
-0.157006
-0.494249
-0.465204
-0.452821
-0.431972
-0.415863
-0.397949
-0.381382
-0.364688
-0.348506
-0.332541
-0.316898
-0.301508
-0.286392
-0.271447
-0.256875
-0.241938
-0.228875
-0.210466
-0.210091
-0.155727
-0.500064
-0.469226
-0.456451
-0.434803
-0.418314
-0.399987
-0.383142
-0.366202
-0.349824
-0.33369
-0.3179
-0.302376
-0.287135
-0.272074
-0.257383
-0.242326
-0.229128
-0.210508
-0.21013
-0.154538
-0.505927
-0.473281
-0.460112
-0.437656
-0.420783
-0.402037
-0.384912
-0.367718
-0.35114
-0.334831
-0.318888
-0.303226
-0.287858
-0.272677
-0.257865
-0.242698
-0.229351
-0.210571
-0.210065
-0.153455
-0.511827
-0.47736
-0.463795
-0.440526
-0.423266
-0.404096
-0.386685
-0.369234
-0.35245
-0.33596
-0.31986
-0.304055
-0.288554
-0.273252
-0.258318
-0.24305
-0.229543
-0.210664
-0.209881
-0.152503
-0.517752
-0.481455
-0.467494
-0.443406
-0.425757
-0.40616
-0.388458
-0.370745
-0.35375
-0.337074
-0.320809
-0.304856
-0.289219
-0.273795
-0.258738
-0.24338
-0.2297
-0.210801
-0.209557
-0.151722
-0.523688
-0.485558
-0.4712
-0.446292
-0.428251
-0.408223
-0.390228
-0.372247
-0.355036
-0.338167
-0.321733
-0.305626
-0.289848
-0.274299
-0.259119
-0.243685
-0.229821
-0.210997
-0.209079
-0.151196
-0.529625
-0.48966
-0.474906
-0.449177
-0.430743
-0.410282
-0.391988
-0.373735
-0.356303
-0.339235
-0.322625
-0.306359
-0.290435
-0.27476
-0.259456
-0.243962
-0.229906
-0.211275
-0.208434
-0.151061
-0.535549
-0.493753
-0.478605
-0.452055
-0.433227
-0.412331
-0.393736
-0.375206
-0.357546
-0.340273
-0.323481
-0.307048
-0.290973
-0.275169
-0.259742
-0.244205
-0.229955
-0.211661
-0.207581
-0.151359
-0.541452
-0.49783
-0.482291
-0.454923
-0.435701
-0.414367
-0.395468
-0.376656
-0.358761
-0.341277
-0.324294
-0.307688
-0.291456
-0.275521
-0.259972
-0.244408
-0.229973
-0.212192
-0.206408
-0.151887
-0.547322
-0.501886
-0.485959
-0.457775
-0.438159
-0.416386
-0.397179
-0.378079
-0.359944
-0.34224
-0.325059
-0.308273
-0.291877
-0.275807
-0.260137
-0.244562
-0.229971
-0.212923
-0.204936
-0.153548
-0.553113
-0.505879
-0.489571
-0.460581
-0.440576
-0.418367
-0.39885
-0.379461
-0.361081
-0.343151
-0.325765
-0.308792
-0.292227
-0.276018
-0.260226
-0.244653
-0.229948
-0.213857
-0.203901
-0.162668
-0.558737
-0.509725
-0.493053
-0.463276
-0.442898
-0.420265
-0.400448
-0.380774
-0.362149
-0.343992
-0.326399
-0.309234
-0.292495
-0.276143
-0.260229
-0.24466
-0.229865
-0.214802
-0.203945
-0.188926
-0.564387
-0.513614
-0.496574
-0.466008
-0.445245
-0.422177
-0.402046
-0.382072
-0.363189
-0.34479
-0.326974
-0.309604
-0.292679
-0.276175
-0.26013
-0.244555
-0.229662
-0.215516
-0.203049
-0.199724
-0.569985
-0.517469
-0.500065
-0.468713
-0.447566
-0.42406
-0.403609
-0.383327
-0.364175
-0.345524
-0.327475
-0.309889
-0.292768
-0.276101
-0.259916
-0.244317
-0.229301
-0.215855
-0.201545
-0.2036
-0.575482
-0.521245
-0.503484
-0.47136
-0.449832
-0.42589
-0.405116
-0.384522
-0.365094
-0.346182
-0.327889
-0.310078
-0.292752
-0.275912
-0.259578
-0.243929
-0.22877
-0.215814
-0.200045
-0.205351
-0.580867
-0.524932
-0.506823
-0.47394
-0.452036
-0.42766
-0.406561
-0.385649
-0.365937
-0.346755
-0.32821
-0.310163
-0.292621
-0.275597
-0.259103
-0.24338
-0.228064
-0.215417
-0.198555
-0.205776
-0.586127
-0.528523
-0.510078
-0.476448
-0.454172
-0.429365
-0.407937
-0.386703
-0.366699
-0.347236
-0.328427
-0.310134
-0.292366
-0.275147
-0.258481
-0.242659
-0.227177
-0.214685
-0.196998
-0.205071
-0.59125
-0.532009
-0.513237
-0.478877
-0.456234
-0.430997
-0.409238
-0.387674
-0.367369
-0.347617
-0.328534
-0.309984
-0.291979
-0.274554
-0.257704
-0.241759
-0.226105
-0.213642
-0.195349
-0.203504
-0.596222
-0.535379
-0.516291
-0.481217
-0.458212
-0.432548
-0.410454
-0.388554
-0.36794
-0.347887
-0.32852
-0.309702
-0.29145
-0.273807
-0.256765
-0.240674
-0.224843
-0.212311
-0.193597
-0.201307
-0.601027
-0.538621
-0.51923
-0.483458
-0.460097
-0.434009
-0.411577
-0.389335
-0.368402
-0.348039
-0.328376
-0.309279
-0.290771
-0.2729
-0.255654
-0.239399
-0.223391
-0.210716
-0.191731
-0.198645
-0.60565
-0.541724
-0.522041
-0.485592
-0.46188
-0.43537
-0.412596
-0.390006
-0.368746
-0.348062
-0.328093
-0.308707
-0.289933
-0.271824
-0.254367
-0.237932
-0.221748
-0.208875
-0.189741
-0.195632
-0.610078
-0.544676
-0.524716
-0.487608
-0.463551
-0.436623
-0.413504
-0.390559
-0.368961
-0.347947
-0.327661
-0.307977
-0.288928
-0.270573
-0.252898
-0.236271
-0.219912
-0.206806
-0.187619
-0.192353
-0.614294
-0.547465
-0.527241
-0.489497
-0.4651
-0.437757
-0.414289
-0.390982
-0.369039
-0.347683
-0.327071
-0.30708
-0.287748
-0.269139
-0.251241
-0.234414
-0.217885
-0.204524
-0.185359
-0.188868
-0.618282
-0.550079
-0.529605
-0.491247
-0.466517
-0.438762
-0.414941
-0.391266
-0.368968
-0.347261
-0.326314
-0.306007
-0.286385
-0.267517
-0.249392
-0.23236
-0.215666
-0.202041
-0.182954
-0.18522
-0.622028
-0.552506
-0.531797
-0.492847
-0.467791
-0.439628
-0.41545
-0.3914
-0.368738
-0.346671
-0.325379
-0.304749
-0.284833
-0.265701
-0.247348
-0.230108
-0.213257
-0.199366
-0.180401
-0.181441
-0.625515
-0.554732
-0.533804
-0.494287
-0.46891
-0.440342
-0.415804
-0.391373
-0.368338
-0.345903
-0.324259
-0.303299
-0.283084
-0.263686
-0.245105
-0.227658
-0.210658
-0.196508
-0.177697
-0.177551
-0.628727
-0.556745
-0.535613
-0.495554
-0.469863
-0.440894
-0.415991
-0.391173
-0.367757
-0.344946
-0.322943
-0.301649
-0.281131
-0.261468
-0.242661
-0.22501
-0.207871
-0.193473
-0.17484
-0.173564
-0.631648
-0.558531
-0.537212
-0.496636
-0.470638
-0.441272
-0.416001
-0.39079
-0.366985
-0.34379
-0.321422
-0.29979
-0.27897
-0.259041
-0.240012
-0.222165
-0.204896
-0.190266
-0.171827
-0.169489
-0.63426
-0.560078
-0.538586
-0.497522
-0.471222
-0.441463
-0.415821
-0.390211
-0.366011
-0.342426
-0.319689
-0.297717
-0.276594
-0.256403
-0.237158
-0.219121
-0.201735
-0.186891
-0.168657
-0.165331
-0.636547
-0.561371
-0.539724
-0.498198
-0.471603
-0.441456
-0.415438
-0.389425
-0.364823
-0.340844
-0.317734
-0.295421
-0.273998
-0.25355
-0.234096
-0.21588
-0.198389
-0.183351
-0.16533
-0.16109
-0.638493
-0.562396
-0.54061
-0.498652
-0.471769
-0.441238
-0.414842
-0.38842
-0.363412
-0.339034
-0.31555
-0.292897
-0.271178
-0.250479
-0.230825
-0.212442
-0.194859
-0.179648
-0.161845
-0.156767
-0.640079
-0.563139
-0.541231
-0.49887
-0.471706
-0.440795
-0.414019
-0.387185
-0.361766
-0.336987
-0.313128
-0.290139
-0.268129
-0.247188
-0.227345
-0.208807
-0.191146
-0.175785
-0.158203
-0.152361
-0.641289
-0.563587
-0.541573
-0.498839
-0.4714
-0.440116
-0.412956
-0.385708
-0.359875
-0.334693
-0.310462
-0.287141
-0.264848
-0.243675
-0.223655
-0.204977
-0.187253
-0.171763
-0.154404
-0.147869
-0.642106
-0.563724
-0.541622
-0.498546
-0.470838
-0.439186
-0.411642
-0.383978
-0.357728
-0.332145
-0.307544
-0.283897
-0.261331
-0.239938
-0.219754
-0.200953
-0.183179
-0.167584
-0.150449
-0.143288
-0.642512
-0.563536
-0.541363
-0.497977
-0.470007
-0.437994
-0.410064
-0.381983
-0.355317
-0.329334
-0.304369
-0.280404
-0.257576
-0.235975
-0.215644
-0.196735
-0.178928
-0.163249
-0.146339
-0.138616
-0.642491
-0.563009
-0.540781
-0.497117
-0.468893
-0.436525
-0.40821
-0.379712
-0.352631
-0.326252
-0.30093
-0.276658
-0.253579
-0.231787
-0.211323
-0.192324
-0.1745
-0.158759
-0.142076
-0.13385
-0.642024
-0.562128
-0.539863
-0.495954
-0.467482
-0.434768
-0.406068
-0.377155
-0.349661
-0.322892
-0.297221
-0.272654
-0.24934
-0.227373
-0.206794
-0.187723
-0.169897
-0.154117
-0.137661
-0.128987
-0.641094
-0.560879
-0.538592
-0.494472
-0.465761
-0.432708
-0.403625
-0.374301
-0.346398
-0.319247
-0.293239
-0.26839
-0.244858
-0.222732
-0.202057
-0.182933
-0.165122
-0.149323
-0.133096
-0.124025
-0.639685
-0.559247
-0.536956
-0.492659
-0.463716
-0.430333
-0.40087
-0.371139
-0.342835
-0.315311
-0.288978
-0.263864
-0.24013
-0.217866
-0.197113
-0.177956
-0.160177
-0.144379
-0.128384
-0.118962
-0.637779
-0.557218
-0.534939
-0.490501
-0.461334
-0.427631
-0.397792
-0.367661
-0.338963
-0.311078
-0.284435
-0.259072
-0.235156
-0.212774
-0.191964
-0.172794
-0.155063
-0.139287
-0.123527
-0.113797
-0.635361
-0.554777
-0.532526
-0.487983
-0.4586
-0.424589
-0.39438
-0.363856
-0.334775
-0.306543
-0.279606
-0.254015
-0.229938
-0.207459
-0.186611
-0.167448
-0.149783
-0.134048
-0.118527
-0.108528
-0.632412
-0.55191
-0.529704
-0.485092
-0.455503
-0.421196
-0.390623
-0.359717
-0.330264
-0.3017
-0.274489
-0.24869
-0.224474
-0.20192
-0.181058
-0.161922
-0.144339
-0.128666
-0.113387
-0.103154
-0.628918
-0.548604
-0.526459
-0.481815
-0.45203
-0.417439
-0.386512
-0.355236
-0.325425
-0.296547
-0.269082
-0.243097
-0.218766
-0.196161
-0.175305
-0.156218
-0.138735
-0.123141
-0.10811
-0.0976758
-0.624861
-0.544845
-0.522777
-0.478139
-0.448168
-0.413308
-0.382037
-0.350404
-0.320252
-0.29108
-0.263383
-0.237237
-0.212815
-0.190183
-0.169357
-0.150339
-0.132973
-0.117476
-0.102699
-0.0920932
-0.620226
-0.54062
-0.518644
-0.474051
-0.443905
-0.408793
-0.377188
-0.345214
-0.31474
-0.285296
-0.257392
-0.23111
-0.206623
-0.183988
-0.163215
-0.144287
-0.127056
-0.111674
-0.0971573
-0.0864068
-0.614998
-0.535915
-0.514047
-0.46954
-0.43923
-0.403883
-0.371959
-0.339662
-0.308885
-0.279193
-0.251107
-0.224718
-0.200191
-0.17758
-0.156882
-0.138066
-0.120988
-0.105738
-0.0914879
-0.0806175
-0.60916
-0.530718
-0.508974
-0.464591
-0.434131
-0.398568
-0.366341
-0.333741
-0.302684
-0.27277
-0.24453
-0.21806
-0.193523
-0.170961
-0.150362
-0.131679
-0.11477
-0.0996701
-0.0856942
-0.0747269
-0.6027
-0.525018
-0.503413
-0.459196
-0.428599
-0.392841
-0.360327
-0.327446
-0.296135
-0.266026
-0.237661
-0.21114
-0.186621
-0.164134
-0.143659
-0.12513
-0.108408
-0.0934738
-0.0797797
-0.0687365
-0.595617
-0.518815
-0.497361
-0.453349
-0.422628
-0.386695
-0.353913
-0.320776
-0.289235
-0.258961
-0.230502
-0.203961
-0.179488
-0.157104
-0.136776
-0.118421
-0.101904
-0.0871522
-0.0737481
-0.0626487
-0.587903
-0.512103
-0.49081
-0.447042
-0.416211
-0.380124
-0.347095
-0.313725
-0.281984
-0.251576
-0.223055
-0.196524
-0.172128
-0.149873
-0.129716
-0.111558
-0.0952617
-0.0807088
-0.0676029
-0.0564655
-0.579406
-0.504775
-0.483681
-0.440217
-0.409305
-0.3731
-0.339853
-0.306285
-0.274377
-0.243869
-0.21532
-0.188834
-0.164544
-0.142447
-0.122485
-0.104543
-0.0884851
-0.0741465
-0.0613474
-0.0501893
-0.569819
-0.496611
-0.475819
-0.432764
-0.401835
-0.365571
-0.332155
-0.298435
-0.266404
-0.235838
-0.207299
-0.180892
-0.156741
-0.134828
-0.115085
-0.0973811
-0.0815776
-0.0674684
-0.0549846
-0.0438219
-0.559988
-0.488188
-0.467628
-0.424964
-0.393993
-0.357666
-0.324085
-0.290229
-0.258097
-0.227501
-0.199004
-0.172707
-0.148723
-0.127023
-0.107522
-0.090076
-0.074544
-0.0606797
-0.0485204
-0.0373688
-0.549619
-0.479289
-0.45895
-0.416705
-0.385699
-0.349331
-0.315607
-0.281645
-0.249446
-0.218855
-0.190435
-0.164282
-0.140496
-0.119035
-0.0998004
-0.0826324
-0.0673885
-0.053784
-0.0419583
-0.0308325
-0.538566
-0.469809
-0.449711
-0.407931
-0.376914
-0.34054
-0.306706
-0.272676
-0.240448
-0.209902
-0.181594
-0.15562
-0.132064
-0.110869
-0.0919248
-0.075055
-0.0601153
-0.0467851
-0.0353023
-0.0242165
-0.526824
-0.459748
-0.43991
-0.39864
-0.367639
-0.331293
-0.297384
-0.263323
-0.231106
-0.200644
-0.172489
-0.146728
-0.123433
-0.102532
-0.0839004
-0.0673484
-0.0527288
-0.0396874
-0.0285565
-0.0175245
-0.514403
-0.449111
-0.429548
-0.388834
-0.357873
-0.321591
-0.287642
-0.253591
-0.221426
-0.191088
-0.163123
-0.13761
-0.114608
-0.0940282
-0.0757322
-0.0595174
-0.0452337
-0.0324949
-0.0217251
-0.0107604
-0.501301
-0.437896
-0.418622
-0.37851
-0.347615
-0.311435
-0.277483
-0.243483
-0.211411
-0.181239
-0.153503
-0.128275
-0.105596
-0.0853632
-0.0674255
-0.0515669
-0.0376344
-0.0252121
-0.0148131
-0.0039267
-0.487514
-0.4261
-0.407131
-0.367666
-0.336864
-0.300825
-0.266908
-0.233003
-0.201067
-0.171103
-0.143635
-0.118726
-0.0964016
-0.076543
-0.0589858
-0.0435021
-0.0299358
-0.0178435
-0.00782762
0.00297562
-0.47304
-0.41372
-0.395072
-0.3563
-0.325621
-0.289763
-0.255922
-0.222156
-0.1904
-0.160687
-0.133526
-0.108972
-0.0870322
-0.0675736
-0.0504187
-0.035328
-0.0221426
-0.0103937
-0.000772998
0.00993642
-0.457881
-0.400757
-0.382445
-0.344412
-0.313887
-0.278252
-0.24453
-0.210948
-0.179417
-0.149998
-0.123184
-0.0990193
-0.0774944
-0.0584613
-0.0417299
-0.0270501
-0.0142597
-0.00286794
0.00636521
0.0169387
-0.442038
-0.387211
-0.36925
-0.332004
-0.301664
-0.266296
-0.232736
-0.199386
-0.168125
-0.139043
-0.112616
-0.0888752
-0.0677949
-0.0492124
-0.0329253
-0.0186735
-0.00629236
0.00472845
0.0135658
0.0239942
-0.425514
-0.373084
-0.35549
-0.319079
-0.288956
-0.253901
-0.220547
-0.187476
-0.156532
-0.127831
-0.101829
-0.0785473
-0.0579409
-0.0398335
-0.0240109
-0.0102044
0.00175464
0.012392
0.020824
0.0310971
-0.408315
-0.358378
-0.341167
-0.305639
-0.275768
-0.241072
-0.207971
-0.175227
-0.144647
-0.116371
-0.0908333
-0.0680436
-0.0479397
-0.0303314
-0.0149931
-0.00164787
0.00987569
0.020118
0.0281365
0.0382416
-0.390448
-0.343099
-0.326286
-0.291689
-0.262106
-0.227817
-0.195015
-0.162648
-0.132479
-0.104671
-0.0796362
-0.0573722
-0.0377989
-0.0207129
-0.00587795
0.00699006
0.0180654
0.0279011
0.0354992
0.0454225
-0.371919
-0.327251
-0.310853
-0.277235
-0.247977
-0.214143
-0.181688
-0.149749
-0.120037
-0.0927405
-0.0682471
-0.0465415
-0.0275264
-0.0109852
0.00332793
0.0157035
0.0263184
0.0357362
0.0429074
0.0526351
-0.352739
-0.31084
-0.294874
-0.262285
-0.233389
-0.200059
-0.168002
-0.136539
-0.107332
-0.0805901
-0.0566755
-0.0355603
-0.0171298
-0.00115548
0.012618
0.0244864
0.0346291
0.0436183
0.0503565
0.0598744
-0.332918
-0.293876
-0.278358
-0.246846
-0.218352
-0.185576
-0.153965
-0.12303
-0.0943749
-0.0682299
-0.0449309
-0.0244375
-0.00661738
0.00876887
0.0219854
0.0333326
0.042992
0.051542
0.0578416
0.0671354
-0.312469
-0.276367
-0.261314
-0.230928
-0.202875
-0.170705
-0.13959
-0.109234
-0.0811766
-0.0556706
-0.0330234
-0.0131821
0.00400245
0.0187803
0.0314234
0.0422359
0.0514011
0.0595019
0.0653581
0.074413
-0.291406
-0.258324
-0.243753
-0.214541
-0.18697
-0.155457
-0.124889
-0.0951615
-0.067749
-0.0429233
-0.0209633
-0.00180354
0.0147213
0.0288711
0.0409251
0.0511899
0.0598508
0.0674928
0.0729011
0.0817022
-0.269744
-0.239759
-0.225686
-0.197698
-0.17065
-0.139846
-0.109876
-0.0808265
-0.0541044
-0.0299994
-0.00876095
0.00968859
0.0255304
0.0390334
0.0504831
0.0601881
0.0683351
0.0755091
0.0804659
0.0889976
-0.247501
-0.220684
-0.207128
-0.180412
-0.153928
-0.123886
-0.0945629
-0.0662421
-0.0402555
-0.0169108
0.00357276
0.0212845
0.036421
0.0492592
0.0600904
0.069224
0.076848
0.0835452
0.0880474
0.0962941
-0.224693
-0.201115
-0.188093
-0.162695
-0.136818
-0.10759
-0.0789651
-0.0514226
-0.0262153
-0.00366947
0.0160269
0.0329744
0.0473841
0.0595406
0.0697397
0.0782908
0.0853834
0.0915955
0.0956408
0.103586
-0.201342
-0.181067
-0.168596
-0.144565
-0.119338
-0.090974
-0.063098
-0.036382
-0.0119974
0.0097122
0.0285902
0.044748
0.0584106
0.0698691
0.0794233
0.0873818
0.0939352
0.0996542
0.103241
0.110868
-0.177467
-0.160557
-0.148655
-0.126037
-0.101502
-0.0740551
-0.0469773
-0.0211354
0.00238445
0.0232216
0.0412512
0.0565951
0.0694913
0.0802365
0.0891339
0.0964901
0.102497
0.107715
0.110843
0.118135
-0.153092
-0.139604
-0.128288
-0.107128
-0.0833283
-0.0568501
-0.0306193
-0.00569812
0.016916
0.0368457
0.0539984
0.0685052
0.0806168
0.0906344
0.0988636
0.105609
0.111062
0.115773
0.118442
0.12538
-0.128239
-0.118226
-0.107514
-0.0878579
-0.064836
-0.0393767
-0.0140411
0.00991393
0.0315827
0.0505715
0.0668199
0.0804679
0.0917776
0.101054
0.108605
0.114731
0.119625
0.123822
0.126033
0.132597
-0.102933
-0.0964443
-0.0863533
-0.0682457
-0.0460441
-0.0216533
0.00273978
0.0256845
0.0463698
0.0643857
0.0797039
0.0924724
0.102964
0.111487
0.11835
0.123849
0.128179
0.131854
0.133611
0.13978
-0.0772006
-0.0742812
-0.0648284
-0.048312
-0.0269727
-0.00369919
0.0197053
0.0415971
0.0612622
0.0782746
0.0926381
0.104508
0.114167
0.121925
0.12809
0.132956
0.136717
0.139865
0.141171
0.14692
-0.0510659
-0.0517613
-0.0429622
-0.0280783
-0.00764288
0.0144658
0.0368369
0.0576345
0.0762445
0.0922247
0.105611
0.116564
0.125376
0.132358
0.137819
0.142044
0.145232
0.147847
0.148709
0.154011
-0.0245575
-0.0289086
-0.0207782
-0.00756705
0.0119236
0.0328211
0.0541156
0.0737797
0.0913013
0.106222
0.118609
0.128629
0.136581
0.142779
0.147527
0.151107
0.153718
0.155794
0.156219
0.161043
0.00228744
-0.00574111
0.00169875
0.0131984
0.0317043
0.0513459
0.071522
0.090015
0.106417
0.120252
0.13162
0.140692
0.147774
0.153178
0.157207
0.160137
0.162168
0.1637
0.163698
0.168005
0.0294464
0.017709
0.0244428
0.0341937
0.051676
0.0700186
0.0890363
0.106322
0.121575
0.134302
0.144633
0.152742
0.158943
0.163546
0.166851
0.169126
0.170576
0.171557
0.171142
0.174885
0.0568889
0.0414142
0.0474271
0.0553939
0.0718149
0.0888172
0.106638
0.122684
0.13676
0.148356
0.157633
0.164768
0.170079
0.173874
0.176451
0.178068
0.178933
0.179358
0.178547
0.181667
0.084583
0.0653471
0.0706242
0.0767733
0.0920965
0.107719
0.124308
0.139082
0.151955
0.162401
0.17061
0.176759
0.181173
0.184154
0.185998
0.186955
0.187234
0.187097
0.185911
0.188332
0.112498
0.0894791
0.094006
0.0983056
0.112496
0.126702
0.142024
0.155497
0.167144
0.176423
0.183549
0.188704
0.192213
0.194377
0.195485
0.195779
0.195472
0.194767
0.193231
0.194853
0.140603
0.113782
0.117544
0.119964
0.132988
0.145743
0.159766
0.171911
0.182311
0.190406
0.196439
0.200592
0.203191
0.204534
0.204903
0.204534
0.203639
0.202362
0.200507
0.201197
0.168862
0.138221
0.141206
0.14172
0.153547
0.164817
0.177512
0.188305
0.197439
0.204336
0.209267
0.212411
0.214097
0.214616
0.214246
0.213213
0.211729
0.209876
0.207745
0.207332
0.197215
0.162748
0.164951
0.163539
0.174142
0.1839
0.195241
0.20466
0.212512
0.2182
0.22202
0.22415
0.22492
0.224615
0.223504
0.221809
0.219734
0.217307
0.214975
0.213232
0.225625
0.187324
0.188745
0.185391
0.194745
0.202966
0.212931
0.220958
0.227514
0.231982
0.234686
0.235799
0.235651
0.234521
0.232672
0.230314
0.227646
0.224655
0.222192
0.218755
0.254312
0.212075
0.21265
0.207302
0.215362
0.222008
0.230568
0.237181
0.242427
0.245668
0.247251
0.247346
0.246281
0.244328
0.241741
0.238723
0.235459
0.231912
0.229197
0.223305
0.283768
0.237294
0.236826
0.229355
0.236026
0.241034
0.248144
0.253318
0.257238
0.259243
0.259703
0.258779
0.256799
0.254025
0.250704
0.247029
0.243174
0.239079
0.235821
0.226005
0.312387
0.262015
0.26068
0.251191
0.256526
0.259922
0.265594
0.269331
0.271925
0.272694
0.272031
0.27009
0.267196
0.263605
0.259553
0.255226
0.250788
0.246166
0.242647
0.231745
0.340673
0.286547
0.284387
0.272905
0.276905
0.278686
0.282913
0.285208
0.286473
0.286007
0.284222
0.281267
0.277464
0.273059
0.268281
0.263308
0.258295
0.253161
0.24938
0.238353
0.368839
0.311005
0.308003
0.294518
0.297164
0.297317
0.300087
0.300934
0.300868
0.299167
0.296263
0.292299
0.287592
0.282379
0.276881
0.271268
0.265688
0.260051
0.2559
0.244829
0.396843
0.335344
0.331488
0.315996
0.317275
0.315789
0.317094
0.31649
0.315094
0.312161
0.308143
0.303175
0.297571
0.291557
0.285346
0.279098
0.272957
0.266827
0.262248
0.251081
0.424622
0.359514
0.3548
0.337304
0.337206
0.334076
0.333912
0.331857
0.329133
0.324974
0.319849
0.313885
0.307392
0.300585
0.293667
0.286792
0.280095
0.27348
0.268447
0.257183
0.452137
0.383476
0.377902
0.358411
0.356929
0.352154
0.350521
0.347018
0.342971
0.337593
0.33137
0.324419
0.317045
0.309453
0.301838
0.294342
0.287095
0.28
0.274499
0.263151
0.479353
0.407196
0.400762
0.379286
0.376418
0.37
0.366899
0.361953
0.356592
0.350004
0.342694
0.334766
0.326522
0.318155
0.309851
0.301742
0.293951
0.286382
0.280401
0.268973
0.506232
0.430641
0.423348
0.3999
0.395646
0.387589
0.383026
0.376647
0.369981
0.362195
0.353808
0.344917
0.335814
0.326683
0.317699
0.308986
0.300657
0.292619
0.286153
0.274642
0.532738
0.453774
0.445625
0.420223
0.414584
0.404898
0.398881
0.391079
0.383122
0.374152
0.364703
0.354861
0.344911
0.335028
0.325375
0.316068
0.307208
0.298706
0.291755
0.280157
0.558833
0.476562
0.46756
0.440224
0.433208
0.421904
0.414444
0.405235
0.396
0.385862
0.375367
0.364588
0.353807
0.343184
0.332873
0.322981
0.313598
0.304639
0.297206
0.285516
0.584479
0.498969
0.489122
0.459876
0.451491
0.438585
0.429696
0.419095
0.408602
0.397312
0.385788
0.37409
0.362491
0.351142
0.340187
0.32972
0.319824
0.310413
0.302505
0.290718
0.609639
0.520963
0.510278
0.479148
0.469407
0.454917
0.444617
0.432645
0.420911
0.408491
0.395956
0.383357
0.370957
0.358897
0.347309
0.33628
0.325879
0.316026
0.307649
0.295762
0.634276
0.542508
0.530995
0.498014
0.486931
0.470879
0.459188
0.445867
0.432916
0.419386
0.405861
0.392379
0.379196
0.36644
0.354234
0.342655
0.33176
0.321473
0.312637
0.300646
0.658353
0.563573
0.551244
0.516443
0.504037
0.486449
0.473391
0.458745
0.444601
0.429985
0.415492
0.401148
0.3872
0.373765
0.360956
0.348839
0.337463
0.326751
0.317467
0.305369
0.681836
0.584125
0.570992
0.53441
0.520703
0.501607
0.487207
0.471265
0.455953
0.440277
0.42484
0.409654
0.394962
0.380866
0.36747
0.354829
0.342983
0.331856
0.322137
0.309929
0.704687
0.604132
0.59021
0.551888
0.536903
0.516331
0.500618
0.48341
0.46696
0.450251
0.433894
0.417891
0.402474
0.387735
0.373769
0.360619
0.348316
0.336785
0.326645
0.314325
0.726873
0.623562
0.608869
0.56885
0.552615
0.530602
0.513608
0.495167
0.477609
0.459895
0.442646
0.425849
0.409729
0.394368
0.379848
0.366205
0.353459
0.341536
0.330987
0.318555
0.74836
0.642386
0.62694
0.585271
0.567816
0.5444
0.52616
0.50652
0.487887
0.4692
0.451086
0.433521
0.416721
0.400757
0.385702
0.371582
0.358408
0.346105
0.335162
0.322617
0.769115
0.660573
0.644395
0.601126
0.582485
0.557707
0.538258
0.517457
0.497783
0.478154
0.459205
0.440899
0.423443
0.406898
0.391326
0.376745
0.363158
0.350489
0.339167
0.32651
0.789106
0.678096
0.661206
0.616391
0.5966
0.570505
0.549886
0.527963
0.507285
0.486749
0.466996
0.447975
0.429888
0.412784
0.396715
0.381692
0.367707
0.354685
0.343
0.330231
0.808301
0.694926
0.677349
0.631044
0.610142
0.582775
0.561029
0.538026
0.516382
0.494975
0.474449
0.454744
0.436051
0.41841
0.401865
0.386417
0.372051
0.35869
0.346659
0.333779
0.826672
0.711036
0.692798
0.645062
0.62309
0.594502
0.571672
0.547634
0.525065
0.502822
0.481557
0.461196
0.441925
0.423771
0.406771
0.390917
0.376187
0.362502
0.35014
0.337153
0.84419
0.726401
0.707528
0.658424
0.635426
0.605669
0.581803
0.556774
0.533322
0.510283
0.488312
0.467328
0.447504
0.428862
0.411429
0.395188
0.380112
0.366118
0.353443
0.34035
0.860827
0.740996
0.721516
0.671109
0.647132
0.616261
0.591407
0.565437
0.541144
0.517348
0.494709
0.473131
0.452784
0.433679
0.415834
0.399227
0.383822
0.369536
0.356564
0.343369
0.876557
0.754797
0.734742
0.683099
0.658191
0.626263
0.600474
0.573611
0.548522
0.524011
0.500738
0.478601
0.45776
0.438217
0.419984
0.403031
0.387315
0.372752
0.359501
0.346208
0.891355
0.767783
0.747182
0.694374
0.668587
0.635662
0.608989
0.581286
0.555448
0.530263
0.506395
0.483731
0.462426
0.442471
0.423874
0.406595
0.390588
0.375766
0.362253
0.348866
0.905199
0.779932
0.758819
0.704918
0.678305
0.644444
0.616944
0.588453
0.561914
0.536098
0.511674
0.488517
0.466777
0.446439
0.4275
0.409918
0.393638
0.378573
0.364817
0.351341
0.918065
0.791224
0.769634
0.714714
0.687331
0.652598
0.624327
0.595103
0.567911
0.54151
0.516568
0.492954
0.470811
0.450116
0.430861
0.412996
0.396463
0.381173
0.367191
0.353632
0.929935
0.801642
0.779609
0.723748
0.695652
0.660113
0.631129
0.601227
0.573434
0.546492
0.521073
0.497038
0.474522
0.453498
0.433952
0.415827
0.399062
0.383564
0.369374
0.355737
0.940788
0.811168
0.788729
0.732005
0.703255
0.666978
0.637341
0.606819
0.578475
0.551038
0.525184
0.500763
0.477908
0.456584
0.436771
0.418409
0.40143
0.385743
0.371365
0.357655
0.950608
0.819787
0.796979
0.739474
0.71013
0.673183
0.642955
0.611872
0.583029