/*--------------------------------*- C++ -*----------------------------------*\
  =========                 |
  \\      /  F ield         | OpenFOAM: The Open Source CFD Toolbox
   \\    /   O peration     | Website:  https://openfoam.org
    \\  /    A nd           | Version:  7
     \\/     M anipulation  |
\*---------------------------------------------------------------------------*/
FoamFile
{
    version     2.0;
    format      ascii;
    class       surfaceScalarField;
    location    "20";
    object      phi;
}
// * * * * * * * * * * * * * * * * * * * * * * * * * * * * * * * * * * * * * //

dimensions      [0 3 -1 0 0 0 0];

internalField   nonuniform List<scalar> 
83430
(
-1.86883e-06
1.86883e-06
-5.27557e-13
-4.02449e-06
2.15565e-06
-1.50711e-12
-4.75656e-06
7.32074e-07
-2.48971e-12
-2.70542e-06
-2.05113e-06
-3.48204e-12
2.98652e-06
-5.69194e-06
-4.49893e-12
1.30154e-05
-1.00289e-05
-5.5451e-12
2.79124e-05
-1.48969e-05
-6.62732e-12
4.81442e-05
-2.02318e-05
-7.74651e-12
7.41307e-05
-2.59865e-05
-8.89978e-12
0.000106277
-3.21466e-05
-1.00749e-11
0.000144985
-3.87079e-05
-1.12603e-11
0.000190659
-4.56737e-05
-1.24231e-11
0.000243701
-5.30425e-05
-1.34715e-11
0.000304499
-6.07973e-05
-1.4396e-11
0.000373381
-6.88825e-05
-1.52258e-11
0.000450575
-7.71936e-05
-1.58957e-11
0.000536068
-8.54927e-05
-1.63667e-11
0.0006296
-9.3532e-05
-1.65707e-11
0.00073003
-0.000100431
-1.64924e-11
-0.000106724
-1.61108e-11
0.000836754
-1.85018e-06
3.71901e-06
-3.95955e-06
4.26503e-06
-4.62027e-06
1.39279e-06
-2.47415e-06
-4.19726e-06
3.33638e-06
-1.15025e-05
1.35079e-05
-2.02005e-05
2.85727e-05
-2.99617e-05
4.89987e-05
-4.06578e-05
7.52073e-05
-5.21951e-05
0.000107605
-6.45446e-05
0.000146596
-7.76982e-05
0.000192584
-9.16626e-05
0.000245977
-0.000106435
0.00030716
-0.000121981
0.000376468
-0.000138191
0.00045413
-0.000154856
0.000540139
-0.000171501
0.000634239
-0.000187632
0.000735295
-0.000201487
-0.000214128
0.0008427
-1.81315e-06
5.53216e-06
-3.83002e-06
6.28189e-06
-4.34801e-06
1.91079e-06
-2.01191e-06
-6.53336e-06
4.03569e-06
-1.75501e-05
1.44924e-05
-3.06572e-05
2.98924e-05
-4.53616e-05
5.07062e-05
-6.14717e-05
7.73581e-05
-7.8847e-05
0.000110258
-9.74444e-05
0.000149812
-0.000117252
0.000196429
-0.00013828
0.000250519
-0.000160524
0.000312472
-0.000183934
0.000382629
-0.000208347
0.000461224
-0.000233451
0.000548261
-0.000258537
0.000643493
-0.000282865
0.000745794
-0.000303788
-0.000322887
0.000854553
-1.75787e-06
7.29003e-06
-3.63626e-06
8.16028e-06
-3.94055e-06
2.21508e-06
-1.32e-06
-9.15391e-06
5.08251e-06
-2.39526e-05
1.5966e-05
-4.15407e-05
3.18676e-05
-6.12632e-05
5.32616e-05
-8.28657e-05
8.05765e-05
-0.000106162
0.000114227
-0.000131095
0.000154623
-0.000157649
0.00020218
-0.000185837
0.000257311
-0.000215655
0.000320415
-0.000247038
0.000391838
-0.00027977
0.000471827
-0.00031344
0.000560396
-0.000347107
0.000657318
-0.000379786
0.000761475
-0.000407945
-0.000433664
0.000872251
-1.6845e-06
8.97453e-06
-3.37884e-06
9.85462e-06
-3.39902e-06
2.23526e-06
-4.00269e-07
-1.21527e-05
6.47393e-06
-3.08268e-05
1.79246e-05
-5.29914e-05
3.44927e-05
-7.78313e-05
5.66574e-05
-0.00010503
8.48528e-05
-0.000134357
0.000119499
-0.000165741
0.000161014
-0.000199163
0.000209818
-0.000234641
0.00026633
-0.000272168
0.000330959
-0.000311667
0.00040406
-0.000352871
0.000485894
-0.000395274
0.000576492
-0.000437705
0.000675646
-0.000478941
0.000782258
-0.000514556
-0.000547107
0.000895701
-1.59325e-06
1.05678e-05
-3.05847e-06
1.13198e-05
-2.72491e-06
1.9017e-06
7.44568e-07
-1.56221e-05
8.20608e-06
-3.82883e-05
2.03627e-05
-6.5148e-05
3.77601e-05
-9.52286e-05
6.08835e-05
-0.000128154
9.01739e-05
-0.000163648
0.000126059
-0.000201626
0.000168963
-0.000242067
0.000219315
-0.000284992
0.000277543
-0.000330396
0.000344064
-0.000378188
0.000419246
-0.000428053
0.000503365
-0.000479394
0.000596475
-0.000530815
0.000698393
-0.000580859
0.00080804
-0.000624203
-0.000663845
0.000924778
-1.4844e-06
1.20522e-05
-2.67605e-06
1.25115e-05
-1.92009e-06
1.14575e-06
2.11152e-06
-1.96538e-05
1.02742e-05
-4.6451e-05
2.32735e-05
-7.81472e-05
4.16605e-05
-0.000113616
6.59276e-05
-0.000152421
9.65237e-05
-0.000194244
0.000133885
-0.000238988
0.000178445
-0.000286627
0.00023064
-0.000337188
0.00029091
-0.000390665
0.00035968
-0.000446958
0.000437334
-0.000505707
0.000524167
-0.000566227
0.000620257
-0.000626905
0.000725449
-0.00068605
0.00083869
-0.000737444
-0.000784479
0.000959325
-1.35827e-06
1.34105e-05
-2.23265e-06
1.33859e-05
-9.8675e-07
-1.00153e-07
3.69688e-06
-2.43374e-05
1.26727e-05
-5.54267e-05
2.66488e-05
-9.21233e-05
4.61828e-05
-0.00013315
7.17748e-05
-0.000178013
0.000103883
-0.000226352
0.000142953
-0.000278058
0.000189428
-0.000333102
0.000243754
-0.000391515
0.000306382
-0.000453293
0.000377749
-0.000518325
0.000458254
-0.000586212
0.000548212
-0.000656186
0.00064773
-0.000726423
0.000756685
-0.000795005
0.000874055
-0.000854814
-0.000909583
0.000999159
-1.21522e-06
1.46257e-05
-1.72949e-06
1.39001e-05
7.25935e-08
-1.90223e-06
5.49634e-06
-2.97611e-05
1.53949e-05
-6.53253e-05
3.04793e-05
-0.000107208
5.13141e-05
-0.000153984
7.8408e-05
-0.000205107
0.000112229
-0.000260173
0.000153234
-0.000319063
0.000201876
-0.000381744
0.000258613
-0.000448251
0.000323904
-0.000518584
0.000398202
-0.000592623
0.00048192
-0.00066993
0.000575398
-0.000749664
0.000678771
-0.000829795
0.000791951
-0.000908186
0.000913953
-0.000976816
-0.00103969
0.00104406
-1.05567e-06
1.56813e-05
-1.16793e-06
1.40124e-05
1.25509e-06
-4.32524e-06
7.50507e-06
-3.60111e-05
1.84335e-05
-7.62537e-05
3.47545e-05
-0.000123529
5.70399e-05
-0.00017627
8.5808e-05
-0.000233875
0.000121538
-0.000295903
0.000164696
-0.000362221
0.000215749
-0.000432796
0.000275164
-0.000507666
0.000343413
-0.000586833
0.000420961
-0.000670171
0.000508239
-0.000757208
0.000605609
-0.000847034
0.000713238
-0.000937424
0.000831078
-0.00102603
0.000958181
-0.00110392
-0.00117531
0.0010938
-8.80063e-07
1.65614e-05
-5.49477e-07
1.36818e-05
2.5576e-06
-7.43232e-06
9.71773e-06
-4.31713e-05
2.17803e-05
-8.83163e-05
3.94626e-05
-0.000141211
6.33442e-05
-0.000200151
9.39533e-05
-0.000264484
0.00013178
-0.00033373
0.000177304
-0.000407745
0.000231001
-0.000486493
0.000293352
-0.000570017
0.000364839
-0.00065832
0.000445941
-0.000751273
0.000537105
-0.000848372
0.000638717
-0.000948646
0.000750976
-0.00104968
0.000873876
-0.00114892
0.00100651
-0.00123656
-0.00131689
0.00114809
-6.88901e-07
1.72503e-05
1.24221e-07
1.28687e-05
3.9767e-06
-1.12848e-05
1.21285e-05
-5.13231e-05
2.54265e-05
-0.000101614
4.45909e-05
-0.000160376
7.02093e-05
-0.00022577
0.00010282
-0.000297095
0.000142926
-0.000373836
0.000191017
-0.000455837
0.000247583
-0.000543059
0.000313114
-0.000635548
0.000388105
-0.000733311
0.000473046
-0.000836214
0.000568401
-0.000943728
0.000674579
-0.00105482
0.000791814
-0.00116692
0.000920137
-0.00127725
0.0010587
-0.00137512
-0.00146483
0.00120664
-4.82717e-07
1.7733e-05
8.51305e-07
1.15347e-05
5.50872e-06
-1.59422e-05
1.47311e-05
-6.05455e-05
2.93623e-05
-0.000116245
5.01254e-05
-0.000181139
7.76161e-05
-0.00025326
0.000112383
-0.000331862
0.000154942
-0.000416394
0.000205794
-0.000506689
0.00026544
-0.000602705
0.000334383
-0.000704491
0.000413126
-0.000812055
0.000502173
-0.000925261
0.000602002
-0.00104356
0.000713042
-0.00116586
0.000835563
-0.00128944
0.000969636
-0.00141132
0.00111447
-0.00151995
-0.0016195
0.00126914
-2.61958e-07
1.7995e-05
1.63007e-06
9.64264e-06
7.14973e-06
-2.14619e-05
1.75188e-05
-7.09146e-05
3.35776e-05
-0.000132304
5.60514e-05
-0.000203612
8.55442e-05
-0.000282753
0.000122616
-0.000368934
0.000167792
-0.00046157
0.000221587
-0.000560485
0.000284514
-0.000665632
0.000357085
-0.000777062
0.000439814
-0.000894784
0.000533212
-0.00101866
0.000637771
-0.00114812
0.000753941
-0.00128203
0.000882023
-0.00141752
0.00102213
-0.00155143
0.00117353
-0.00167135
-0.0017812
0.00133522
-2.48668e-08
1.80198e-05
2.45848e-06
7.15929e-06
8.89558e-06
-2.7899e-05
2.04846e-05
-8.25036e-05
3.80612e-05
-0.000149881
6.2353e-05
-0.000227904
9.39718e-05
-0.000314372
0.000133487
-0.000408449
0.000181438
-0.00050952
0.000238349
-0.000617396
0.000304744
-0.000732026
0.000381143
-0.000853461
0.00046807
-0.00098171
0.000566043
-0.00111663
0.000675564
-0.00125764
0.000797099
-0.00140357
0.000930981
-0.0015514
0.00107736
-0.00169781
0.00123557
-0.00182956
-0.00195016
0.00140454
2.21284e-07
1.77986e-05
3.33436e-06
4.04621e-06
1.07419e-05
-3.53065e-05
2.36209e-05
-9.53826e-05
4.28019e-05
-0.000169062
6.90138e-05
-0.000254116
0.000102876
-0.000348234
0.000144968
-0.000450542
0.000195839
-0.000560391
0.000256027
-0.000677584
0.000326063
-0.000802062
0.000406475
-0.000933874
0.000497793
-0.00107303
0.00060054
-0.00121938
0.000715226
-0.00137232
0.000842329
-0.00153067
0.00098221
-0.00169128
0.00113506
-0.00185065
0.00130027
-0.00199477
-0.00212658
0.00147669
4.81795e-07
1.73168e-05
4.25568e-06
2.72325e-07
1.26842e-05
-4.37351e-05
2.692e-05
-0.000109618
4.77874e-05
-0.000189929
7.60162e-05
-0.000282345
0.000112232
-0.00038445
0.000157025
-0.000495335
0.000210954
-0.00061432
0.000274567
-0.000741196
0.000348401
-0.000875897
0.000432994
-0.00101847
0.000528876
-0.00116891
0.000636572
-0.00132707
0.000756596
-0.00149235
0.000889434
-0.00166351
0.00103547
-0.00183732
0.00119493
-0.00201011
0.00136728
-0.00216713
-0.00231058
0.00155128
7.54506e-07
1.65623e-05
5.22021e-06
-4.19338e-06
1.47178e-05
-5.32327e-05
3.03738e-05
-0.000125274
5.30054e-05
-0.000212561
8.33421e-05
-0.000312682
0.000122016
-0.000423124
0.000169626
-0.000542944
0.000226738
-0.000671433
0.000293911
-0.000808368
0.000371688
-0.000953674
0.000460608
-0.00110739
0.000561204
-0.00126951
0.000673999
-0.00143987
0.000799504
-0.00161785
0.000938209
-0.00180221
0.00109052
-0.00198963
0.00125668
-0.00217627
0.00143625
-0.0023467
-0.0025022
0.00162788
1.03866e-06
1.55236e-05
6.22568e-06
-9.38041e-06
1.68379e-05
-6.38449e-05
3.3974e-05
-0.000142411
5.84428e-05
-0.000237029
9.09728e-05
-0.000345212
0.000132201
-0.000464353
0.000182733
-0.000593476
0.000243145
-0.000731845
0.000313999
-0.000879222
0.000395846
-0.00103552
0.000489224
-0.00120077
0.000594662
-0.00137494
0.000712678
-0.00155788
0.000843776
-0.00174895
0.000988441
-0.00194688
0.00114709
-0.00214829
0.00132
-0.00234917
0.00150681
-0.00253351
-0.00270144
0.00170605
1.33357e-06
1.419e-05
7.26978e-06
-1.53166e-05
1.90395e-05
-7.56146e-05
3.7712e-05
-0.000161083
6.40864e-05
-0.000263404
9.88889e-05
-0.000380014
0.000142761
-0.000508225
0.000196313
-0.000647028
0.000260127
-0.000795659
0.000334771
-0.000953867
0.000420797
-0.00112155
0.000518742
-0.00129871
0.000629126
-0.00148533
0.000752457
-0.00168122
0.000889227
-0.00188572
0.00103991
-0.00209756
0.00120493
-0.00231331
0.00138457
-0.00252881
0.00157858
-0.00272751
-0.00290823
0.00178536
1.63858e-06
1.25515e-05
8.35016e-06
-2.20282e-05
2.13177e-05
-8.85822e-05
4.15791e-05
-0.000181345
6.99226e-05
-0.000291747
0.00010707
-0.000417162
0.000153666
-0.000554821
0.000210326
-0.000703687
0.000277634
-0.000862968
0.000356163
-0.00103239
0.000446461
-0.00121184
0.00054906
-0.00140131
0.000664471
-0.00160074
0.000793184
-0.00180993
0.000935672
-0.00202821
0.00109239
-0.00225428
0.00126376
-0.00248468
0.00145007
-0.00271512
0.00165117
-0.00292861
-0.00312242
0.00186536
1.95302e-06
1.05984e-05
9.46446e-06
-2.95396e-05
2.36673e-05
-0.000102785
4.55663e-05
-0.000203244
7.59372e-05
-0.000322118
0.000115497
-0.000456722
0.00016489
-0.000604214
0.000224734
-0.000763531
0.000295617
-0.000933851
0.000378108
-0.00111489
0.000472753
-0.00130649
0.000580075
-0.00150863
0.000700568
-0.00172123
0.000834699
-0.00194406
0.000982916
-0.00217642
0.00114565
-0.00241701
0.00132331
-0.00266235
0.00151618
-0.00290799
0.0017242
-0.00313663
-0.0033438
0.00194558
2.27623e-06
8.3222e-06
1.06103e-05
-3.78737e-05
2.60831e-05
-0.000118258
4.96647e-05
-0.000226825
8.21163e-05
-0.00035457
0.000124148
-0.000498753
0.000176403
-0.000656469
0.000239498
-0.000826626
0.000314022
-0.00100837
0.000400539
-0.0012014
0.000499589
-0.00140554
0.000611678
-0.00162072
0.000737282
-0.00184684
0.000876839
-0.00208362
0.00103076
-0.00233035
0.00119945
-0.00258569
0.00138329
-0.00284619
0.00158254
-0.00310724
0.00179727
-0.00335137
-0.0035721
0.00202557
2.60756e-06
5.71464e-06
1.17853e-05
-4.70514e-05
2.85601e-05
-0.000135033
5.3865e-05
-0.00025213
8.84453e-05
-0.00038915
0.000133002
-0.00054331
0.000188175
-0.000711642
0.000254578
-0.000893029
0.000332797
-0.00108659
0.000423389
-0.001292
0.00052688
-0.00150903
0.000643761
-0.0017376
0.00077448
-0.00197756
0.000919441
-0.00222858
0.00107902
-0.00248993
0.00125355
-0.00276023
0.00144342
-0.00303606
0.00164884
-0.00331266
0.00187001
-0.00357253
-0.00380698
0.00210488
2.94635e-06
2.76829e-06
1.29871e-05
-5.70921e-05
3.10928e-05
-0.000153138
5.81579e-05
-0.000279195
9.49097e-05
-0.000425902
0.000142038
-0.000590438
0.000200176
-0.00076978
0.000269934
-0.000962787
0.000351888
-0.00116855
0.000446586
-0.00138669
0.000554538
-0.00161698
0.000676211
-0.00185927
0.000812022
-0.00211337
0.000962334
-0.00237889
0.00112747
-0.00265507
0.00130772
-0.00294048
0.00150342
-0.00323176
0.00171475
-0.00352398
0.001942
-0.00379979
-0.00404804
0.00218306
3.29199e-06
-5.23703e-07
1.42132e-05
-6.80134e-05
3.36762e-05
-0.000172601
6.25343e-05
-0.000308053
0.000101495
-0.000464862
0.000151233
-0.000640177
0.000212376
-0.000830923
0.000285522
-0.00103593
0.000371239
-0.00125426
0.000470059
-0.00148551
0.000582472
-0.0017294
0.000708915
-0.00198572
0.000849769
-0.00225422
0.00100535
-0.00253447
0.00117593
-0.00282564
0.00136172
-0.00312627
0.00156301
-0.00343305
0.00177992
-0.00374089
0.00201289
-0.00403276
-0.00429482
0.00225967
3.64384e-06
-4.16754e-06
1.54614e-05
-7.98309e-05
3.6305e-05
-0.000193445
6.69847e-05
-0.000338733
0.000108186
-0.000506063
0.000160567
-0.000692558
0.000224743
-0.000895099
0.000301302
-0.00111249
0.000390795
-0.00134376
0.000493737
-0.00158845
0.00061059
-0.00184625
0.000741758
-0.00211689
0.00088758
-0.00240004
0.00104832
-0.00269521
0.00122418
-0.0030015
0.0014153
-0.00331739
0.00162191
-0.00363966
0.00184404
-0.00396302
0.0020823
-0.00427102
-0.00454681
0.00233429
4.0013e-06
-8.16884e-06
1.67293e-05
-9.25589e-05
3.89738e-05
-0.00021569
7.14998e-05
-0.000371259
0.000114967
-0.000549531
0.000170017
-0.000747608
0.000237247
-0.000962329
0.000317231
-0.00119247
0.0004105
-0.00143703
0.000517545
-0.0016955
0.000638799
-0.0019675
0.000774625
-0.00225271
0.000925313
-0.00255073
0.00109107
-0.00286096
0.00127202
-0.00318246
0.00146822
-0.0035136
0.00167984
-0.00385128
0.0019068
-0.00418998
0.00214987
-0.00451408
-0.00480345
0.0024065
4.36377e-06
-1.25326e-05
1.80145e-05
-0.00010621
4.16776e-05
-0.000239353
7.60701e-05
-0.000405652
0.000121825
-0.000595286
0.00017956
-0.000805343
0.000249856
-0.00103263
0.000333265
-0.00127588
0.000430297
-0.00153406
0.000541412
-0.00180661
0.000667005
-0.0020931
0.000807398
-0.00239311
0.000962824
-0.00270616
0.00113342
-0.00303156
0.00131924
-0.00336828
0.00152026
-0.00371461
0.00173654
-0.00406756
0.00196789
-0.00442133
0.00221526
-0.00476146
-0.00506411
0.00247593
4.73068e-06
-1.72633e-05
1.93148e-05
-0.000120794
4.4411e-05
-0.000264449
8.06864e-05
-0.000441927
0.000128743
-0.000643342
0.000189174
-0.000865774
0.000262538
-0.00110599
0.000349363
-0.00136271
0.000450129
-0.00163483
0.000565262
-0.00192175
0.000695116
-0.00222295
0.00083996
-0.00253795
0.00099997
-0.00286616
0.00117521
-0.0032068
0.00136566
-0.00355873
0.00157117
-0.00392013
0.00179173
-0.00428812
0.00202702
-0.00465662
0.00227815
-0.00501259
-0.00532814
0.00254219
5.10146e-06
-2.23648e-05
2.06278e-05
-0.00013632
4.71689e-05
-0.00029099
8.5339e-05
-0.000480097
0.000135707
-0.000693711
0.000198838
-0.000928905
0.000275262
-0.00118241
0.000365479
-0.00145293
0.000469937
-0.00173928
0.00058902
-0.00204083
0.000723036
-0.00235696
0.000872195
-0.00268711
0.00103661
-0.00303058
0.00121627
-0.00338646
0.00141106
-0.00375352
0.00162073
-0.00412981
0.00184518
-0.00451257
0.00208391
-0.00489535
0.00233825
-0.00526693
-0.00559484
0.00260494
5.47557e-06
-2.78403e-05
2.19515e-05
-0.000152796
4.99462e-05
-0.000318985
9.00188e-05
-0.00052017
0.000142702
-0.000746394
0.000208527
-0.00099473
0.000287996
-0.00126188
0.000381572
-0.0015465
0.000489665
-0.00184738
0.000612614
-0.00216378
0.000750671
-0.00249502
0.000903986
-0.00284043
0.0010726
-0.00319919
0.00125642
-0.00357027
0.00145524
-0.00395235
0.00166873
-0.00434329
0.00189664
-0.00474047
0.00213831
-0.00513702
0.00239528
-0.0055239
-0.00586344
0.00266388
5.85248e-06
-3.36928e-05
2.32834e-05
-0.000170227
5.27377e-05
-0.000348439
9.47164e-05
-0.000562148
0.000149712
-0.00080139
0.00021822
-0.00106324
0.000300707
-0.00134437
0.000397596
-0.00164339
0.000509254
-0.00195903
0.000635967
-0.00229049
0.000777927
-0.00263698
0.000935216
-0.00299771
0.0011078
-0.00337177
0.0012955
-0.00375798
0.00149803
-0.00415488
0.00171493
-0.0045602
0.00194587
-0.00497141
0.00218998
-0.00538114
0.00244901
-0.00578293
-0.00613315
0.00271873
6.23165e-06
-3.99245e-05
2.46214e-05
-0.000188617
5.55383e-05
-0.000379356
9.94223e-05
-0.000606032
0.000156723
-0.000858691
0.000227895
-0.00113441
0.000313363
-0.00142984
0.00041351
-0.00174354
0.000528648
-0.00207417
0.000659006
-0.00242085
0.000804711
-0.00278269
0.00096577
-0.00315877
0.00114207
-0.00354807
0.00133334
-0.00394925
0.00153922
-0.00436075
0.00175914
-0.00478012
0.00199265
-0.00520492
0.00223872
-0.0056272
0.00249922
-0.00604343
-0.00640315
0.00276922
6.61258e-06
-4.6537e-05
2.59633e-05
-0.000207967
5.83429e-05
-0.000411735
0.000104127
-0.000651817
0.000163719
-0.000918283
0.000237527
-0.00120822
0.000325933
-0.00151824
0.000429268
-0.00184687
0.000547788
-0.00219269
0.000681658
-0.00255472
0.00083093
-0.00293196
0.000995536
-0.00332338
0.00117527
-0.0037278
0.0013698
-0.00414378
0.00157864
-0.00456959
0.00180116
-0.00500264
0.00203679
-0.00544055
0.00228433
-0.00587474
0.00254576
-0.00630487
-0.00667255
0.00281517
6.99475e-06
-5.35318e-05
2.73069e-05
-0.00022828
6.11464e-05
-0.000445575
0.000108822
-0.000699492
0.000170685
-0.000980146
0.000247096
-0.00128463
0.000338385
-0.00160953
0.000444827
-0.00195331
0.000566617
-0.00231448
0.000703848
-0.00269195
0.000856494
-0.0030846
0.0010244
-0.00349129
0.00120728
-0.00391068
0.00140469
-0.00434119
0.0016161
-0.004781
0.00184078
-0.00522732
0.00207807
-0.00567784
0.00232666
-0.00612333
0.00258851
-0.00656672
-0.00694048
0.00285644
7.37765e-06
-6.09094e-05
2.86501e-05
-0.000249552
6.39437e-05
-0.000480868
0.000113497
-0.000749045
0.000177607
-0.00104426
0.000256578
-0.0013636
0.000350686
-0.00170364
0.000460145
-0.00206277
0.000585079
-0.00243942
0.000725504
-0.00283238
0.000881312
-0.00324041
0.00105226
-0.00366223
0.00123795
-0.00409638
0.00143789
-0.00454113
0.00165143
-0.00499454
0.00187782
-0.00545371
0.00211631
-0.00591633
0.00236558
-0.0063726
0.00262739
-0.00682853
-0.00720612
0.00289303
7.76076e-06
-6.86702e-05
2.99907e-05
-0.000271782
6.67299e-05
-0.000517608
0.000118143
-0.000800459
0.000184468
-0.00111058
0.000265951
-0.00144508
0.000362806
-0.00180049
0.000475178
-0.00217515
0.000603117
-0.00256736
0.000746557
-0.00297582
0.000905296
-0.00339915
0.00107899
-0.00383593
0.00126718
-0.00428456
0.00146924
-0.00474319
0.00168447
-0.00520978
0.00191209
-0.00568133
0.00215132
-0.00615556
0.00240099
-0.00662228
0.00266234
-0.00708988
-0.00746879
0.00292501
8.14352e-06
-7.68137e-05
3.13264e-05
-0.000294965
6.94997e-05
-0.000555781
0.000122751
-0.00085371
0.000191255
-0.00117909
0.000275192
-0.00152902
0.000374711
-0.00190001
0.000489883
-0.00229032
0.000620677
-0.00269815
0.000766935
-0.00312207
0.000928361
-0.00356058
0.00110452
-0.00401208
0.00129482
-0.00447487
0.0014986
-0.00494696
0.00171506
-0.00542624
0.00194341
-0.00590968
0.00218292
-0.00639507
0.00243286
-0.00687221
0.00269341
-0.00735043
-0.00772882
0.00295343
8.52531e-06
-8.5339e-05
3.26549e-05
-0.000319094
7.22482e-05
-0.000595374
0.000127311
-0.000908773
0.000197951
-0.00124973
0.00028428
-0.00161535
0.000386372
-0.00200211
0.00050422
-0.00240816
0.000637703
-0.00283163
0.00078657
-0.00327094
0.000950424
-0.00372443
0.00112872
-0.00419038
0.00132078
-0.00466693
0.00152583
-0.00515201
0.00174303
-0.00564344
0.00197159
-0.00613824
0.00221088
-0.00663437
0.00246099
-0.00712232
0.00272186
-0.00761129
-0.00798744
0.00298048
8.83214e-06
-9.41712e-05
3.3823e-05
-0.000344085
7.47468e-05
-0.000636298
0.00013153
-0.000965556
0.000204209
-0.0013224
0.000292825
-0.00170396
0.000397374
-0.00210665
0.000517765
-0.00252856
0.000653783
-0.00296765
0.000805077
-0.00342223
0.000971141
-0.00389049
0.00115133
-0.00437057
0.00134485
-0.00486046
0.00155085
-0.005358
0.0017684
-0.00586099
0.00199673
-0.00636657
0.00223533
-0.00687296
0.00248506
-0.00737205
0.00274959
-0.00787583
-0.00830717
0.00306931
9.20452e-06
-0.000103376
3.512e-05
-0.000370001
7.74226e-05
-0.000678601
0.00013595
-0.00102408
0.000210661
-0.00139712
0.000301517
-0.00179482
0.000408431
-0.00221357
0.000531217
-0.00265134
0.000669565
-0.003106
0.000823014
-0.00357568
0.000990949
-0.00405843
0.00117261
-0.00455223
0.00136711
-0.00505496
0.00157348
-0.00556438
0.00179075
-0.00607826
0.00201811
-0.00659392
0.00225506
-0.00710991
0.00250283
-0.00761982
0.00276405
-0.00813705
-0.0086084
0.00306528
9.57421e-06
-0.00011295
3.6403e-05
-0.00039683
8.00611e-05
-0.000722259
0.000140293
-0.00108431
0.000216977
-0.0014738
0.000309987
-0.00188783
0.000419147
-0.00232273
0.000544175
-0.00277637
0.000684654
-0.00324648
0.000840013
-0.00373104
0.00100952
-0.00422794
0.00119231
-0.00473501
0.00138738
-0.00525003
0.00159367
-0.00577067
0.00181012
-0.00629472
0.00203586
-0.00681967
0.00227033
-0.00734438
0.00251459
-0.00786408
0.00276898
-0.00839144
-0.00889133
0.00305192
9.94056e-06
-0.00012289
3.76695e-05
-0.000424558
8.26572e-05
-0.000767246
0.000144551
-0.00114621
0.000223142
-0.00155239
0.000318213
-0.0019829
0.000429494
-0.00243401
0.0005566
-0.00290348
0.000699002
-0.00338888
0.000856015
-0.00388805
0.00102679
-0.00439872
0.00121035
-0.00491856
0.00140557
-0.00544525
0.00161131
-0.00597641
0.00182642
-0.00650983
0.00204995
-0.0070432
0.00228117
-0.0075756
0.00252076
-0.00810367
0.00276754
-0.00863823
-0.00915754
0.00303376
1.03029e-05
-0.000133193
3.89174e-05
-0.000453173
8.52056e-05
-0.000813535
0.000148713
-0.00120972
0.00022914
-0.00163282
0.000326174
-0.00207993
0.000439443
-0.00254728
0.000568452
-0.00303248
0.000712561
-0.00353299
0.000870965
-0.00404646
0.0010427
-0.00457045
0.00122665
-0.00510252
0.00142162
-0.00564022
0.00162635
-0.00618113
0.0018396
-0.00672308
0.00206033
-0.00726392
0.00228763
-0.0078029
0.00252173
-0.00833778
0.00276057
-0.00887706
-0.0094089
0.00301193
1.06608e-05
-0.000143854
4.01445e-05
-0.000482657
8.77014e-05
-0.000861091
0.000152772
-0.00127479
0.000234959
-0.00171501
0.000333848
-0.00217882
0.000448963
-0.00266239
0.000579696
-0.00316322
0.000725286
-0.00367858
0.000884808
-0.00420598
0.00105717
-0.00474281
0.00124116
-0.00528651
0.00143546
-0.00583452
0.00163872
-0.00638439
0.00184962
-0.00693397
0.002067
-0.00748131
0.00228981
-0.00802571
0.00251786
-0.00856582
0.00274859
-0.0091078
-0.00964704
0.00298673
1.10135e-05
-0.000154868
4.13484e-05
-0.000512992
9.01394e-05
-0.000909882
0.000156716
-0.00134136
0.000240582
-0.00179887
0.000341215
-0.00227946
0.000458027
-0.00277921
0.000590294
-0.00329548
0.000737133
-0.00382542
0.000897494
-0.00436634
0.00107017
-0.00491549
0.00125383
-0.00547017
0.00144705
-0.00602774
0.00164839
-0.00658574
0.00185646
-0.00714204
0.00207001
-0.00769486
0.00228783
-0.00824353
0.00250939
-0.00878738
0.00273198
-0.00933039
-0.00987327
0.00295821
1.13605e-05
-0.000166228
4.25268e-05
-0.000544158
9.25143e-05
-0.00095987
0.000160538
-0.00140939
0.000245995
-0.00188433
0.000348253
-0.00238171
0.000466607
-0.00289756
0.000600212
-0.00342909
0.000748061
-0.00397327
0.000908977
-0.00452726
0.00108163
-0.00508815
0.00126459
-0.00565312
0.00145633
-0.00621948
0.00165533
-0.00678474
0.00186012
-0.00734683
0.00206937
-0.00790411
0.00228179
-0.00845594
0.00249656
-0.00900216
0.00271103
-0.00954486
-0.0100886
0.00292636
1.17013e-05
-0.000177929
4.36776e-05
-0.000576134
9.4821e-05
-0.00101101
0.000164228
-0.00147879
0.000251185
-0.00197129
0.000354942
-0.00248547
0.000474677
-0.0030173
0.000609418
-0.00356383
0.00075803
-0.00412188
0.000919214
-0.00468844
0.00109153
-0.00526046
0.00127341
-0.00583501
0.00146328
-0.00640934
0.00165952
-0.00698098
0.00186061
-0.00754792
0.00206516
-0.00810866
0.00227181
-0.00866259
0.00247956
-0.00920991
0.00268594
-0.00975124
-0.0102938
0.00289114
1.20352e-05
-0.000189965
4.47983e-05
-0.000608897
9.70544e-05
-0.00106327
0.000167777
-0.00154952
0.000256136
-0.00205964
0.000361263
-0.0025906
0.000482211
-0.00313824
0.000617878
-0.0036995
0.000767004
-0.00427101
0.000928164
-0.0048496
0.0010998
-0.0054321
0.00128027
-0.00601548
0.00146787
-0.00659695
0.00166096
-0.00717407
0.00185796
-0.00774491
0.00205744
-0.00830814
0.002258
-0.00886315
0.00245856
-0.00941047
0.00265688
-0.00994956
-0.0104895
0.00285255
1.23617e-05
-0.000202326
4.58866e-05
-0.000642422
9.92092e-05
-0.00111659
0.000171175
-0.00162148
0.000260836
-0.00214931
0.000367196
-0.00269696
0.000489182
-0.00326023
0.000625564
-0.00383588
0.000774949
-0.00442039
0.000935794
-0.00501044
0.00110643
-0.00560273
0.00128512
-0.00619416
0.00147009
-0.00678192
0.00165966
-0.00736363
0.0018522
-0.00793745
0.00204627
-0.00850222
0.00224049
-0.00905737
0.00243373
-0.0096037
0.00262403
-0.0101399
-0.010676
0.00281061
1.26801e-05
-0.000215006
4.69402e-05
-0.000676682
0.00010128
-0.00117093
0.000174414
-0.00169462
0.000265269
-0.00224016
0.000372723
-0.00280441
0.000495569
-0.00338308
0.000632446
-0.00397276
0.000781835
-0.00456978
0.000942071
-0.00517068
0.00111138
-0.00577204
0.00128795
-0.00637072
0.00146994
-0.00696392
0.00165562
-0.00754932
0.00184337
-0.0081252
0.00203174
-0.00869059
0.0022194
-0.00924503
0.00240521
-0.00978952
0.00258754
-0.0103222
-0.0108539
0.00276537
1.29898e-05
-0.000227996
4.79567e-05
-0.000711649
0.000103262
-0.00122624
0.000177485
-0.00176884
0.000269424
-0.0023321
0.000377824
-0.00291281
0.000501347
-0.0035066
0.000638498
-0.00410991
0.000787632
-0.00471892
0.000946969
-0.00533002
0.00111464
-0.00593972
0.00128874
-0.00654483
0.00146741
-0.00714258
0.00164888
-0.00773078
0.00183153
-0.00830786
0.00201395
-0.00887301
0.00219485
-0.00942593
0.00237317
-0.00996783
0.00254755
-0.0104966
-0.0110232
0.00271692
1.32903e-05
-0.000241287
4.89336e-05
-0.000747292
0.00010515
-0.00128245
0.000180379
-0.00184407
0.000273286
-0.00242501
0.000382483
-0.00302201
0.000506495
-0.00363061
0.000643695
-0.00424711
0.000792315
-0.00486754
0.000950464
-0.00548817
0.00111618
-0.00610543
0.0012875
-0.00671615
0.00146252
-0.00731761
0.00163947
-0.00790773
0.00181675
-0.00848513
0.00199299
-0.00904925
0.00216698
-0.00959993
0.00233775
-0.0101386
0.00250422
-0.010663
-0.0111844
0.00266535
1.35808e-05
-0.000254867
4.98687e-05
-0.00078358
0.000106939
-0.00133952
0.000183086
-0.00192021
0.000276844
-0.00251876
0.000386682
-0.00313185
0.000510993
-0.00375492
0.000648016
-0.00438413
0.000795862
-0.00501538
0.000952537
-0.00564484
0.001116
-0.0062689
0.00128423
-0.00688438
0.0014553
-0.00748867
0.00162744
-0.00807987
0.00179909
-0.00865679
0.00196895
-0.00921911
0.00213592
-0.00976689
0.00229911
-0.0103018
0.00245771
-0.0108216
-0.0113374
0.00261078
1.38607e-05
-0.000268728
5.07595e-05
-0.000820479
0.000108623
-0.00139739
0.000185599
-0.00199719
0.000280083
-0.00261325
0.000390406
-0.00324217
0.000514821
-0.00387934
0.00065144
-0.00452075
0.000798255
-0.0051622
0.000953174
-0.00579976
0.00111409
-0.00642981
0.00127892
-0.00704922
0.00144575
-0.0076555
0.00161283
-0.00824694
0.00177864
-0.0088226
0.00194196
-0.00938242
0.00210179
-0.00992673
0.00225739
-0.0104574
0.00240818
-0.0109724
-0.0114826
0.00255334
1.41293e-05
-0.000282857
5.16035e-05
-0.000857953
0.000110198
-0.00145598
0.00018791
-0.0020749
0.000282994
-0.00270833
0.000393639
-0.00335282
0.000517963
-0.00400366
0.000653948
-0.00465673
0.000799477
-0.00530773
0.000952366
-0.00595265
0.00111044
-0.00658788
0.00127161
-0.00721038
0.00143393
-0.00781783
0.0015957
-0.00840871
0.00175547
-0.00898238
0.00191211
-0.00953906
0.00206474
-0.0100794
0.00221275
-0.0106054
0.00235579
-0.0111155
-0.01162
0.00249319
1.4386e-05
-0.000297243
5.23985e-05
-0.000895966
0.000111658
-0.00151524
0.000190009
-0.00215325
0.000285563
-0.00280389
0.000396367
-0.00346362
0.000520401
-0.00412769
0.000655526
-0.00479186
0.000799515
-0.00545171
0.000950105
-0.00610324
0.00110507
-0.00674285
0.0012623
-0.00736761
0.00141987
-0.0079754
0.00157612
-0.00856497
0.00172969
-0.00913595
0.00187953
-0.0096889
0.00202491
-0.0102247
0.00216534
-0.0107458
0.0023007
-0.0112508
-0.0117498
0.00243046
1.46301e-05
-0.000311873
5.31418e-05
-0.000934478
0.000112998
-0.0015751
0.000191889
-0.00223215
0.000287781
-0.00289978
0.000398576
-0.00357441
0.000522123
-0.00425124
0.000656159
-0.0049259
0.000798361
-0.00559392
0.000946391
-0.00625127
0.00109798
-0.00689444
0.00125102
-0.00752065
0.00140361
-0.00812799
0.00155415
-0.00871551
0.00170137
-0.00928316
0.00184433
-0.00983186
0.00198243
-0.0103628
0.00211533
-0.0108787
0.00224307
-0.0113786
-0.011872
0.00236531
1.48609e-05
-0.000326734
5.38313e-05
-0.000973448
0.000114215
-0.00163548
0.000193543
-0.00231147
0.000289637
-0.00299587
0.000400255
-0.00368503
0.000523114
-0.0043741
0.000655838
-0.00505862
0.000796008
-0.00573409
0.000941226
-0.00639649
0.0010892
-0.00704241
0.00123781
-0.00766926
0.00138521
-0.00827539
0.00152988
-0.00886017
0.00167063
-0.00942391
0.00180664
-0.00996787
0.00193745
-0.0104936
0.00206285
-0.0110041
0.00218306
-0.0114988
-0.0119868
0.0022979
1.50777e-05
-0.000341812
5.44645e-05
-0.00101283
0.000115302
-0.00169632
0.000194963
-0.00239114
0.00029112
-0.00309203
0.000401391
-0.0037953
0.000523365
-0.00449607
0.000654552
-0.00518981
0.000792453
-0.00587199
0.000934617
-0.00653865
0.00107873
-0.00718652
0.0012227
-0.00781323
0.00136473
-0.00841742
0.00150337
-0.00899881
0.00163755
-0.0095581
0.00176657
-0.0100969
0.0018901
-0.0106172
0.00200807