/*--------------------------------*- C++ -*----------------------------------*\
  =========                 |
  \\      /  F ield         | OpenFOAM: The Open Source CFD Toolbox
   \\    /   O peration     | Website:  https://openfoam.org
    \\  /    A nd           | Version:  7
     \\/     M anipulation  |
\*---------------------------------------------------------------------------*/
FoamFile
{
    version     2.0;
    format      ascii;
    class       volVectorField;
    location    "20";
    object      U;
}
// * * * * * * * * * * * * * * * * * * * * * * * * * * * * * * * * * * * * * //

dimensions      [0 1 -1 0 0 0 0];

internalField   nonuniform List<vector> 
42000
(
(-0.000834969 0.00017238 1.04853e-21)
(-0.00273953 0.000174433 -3.43415e-21)
(-0.00403417 2.73653e-05 1.78717e-21)
(-0.00327323 -0.000207665 -1.0199e-22)
(-0.000449761 -0.000476626 -3.29251e-21)
(0.0045234 -0.00075892 3.92631e-21)
(0.0114657 -0.00103868 3.44027e-21)
(0.0202016 -0.00130972 2.31004e-21)
(0.0305326 -0.00156828 -1.80038e-21)
(0.0422755 -0.00181337 2.31173e-21)
(0.0552655 -0.00204485 9.7841e-22)
(0.0693573 -0.00226302 8.28604e-23)
(0.0844215 -0.00246784 -1.44277e-21)
(0.100341 -0.00265836 1.57595e-21)
(0.116993 -0.0028317 3.44692e-21)
(0.134258 -0.00298277 1.29221e-21)
(0.151935 -0.00310104 -2.6175e-21)
(0.169911 -0.00317645 -8.49014e-22)
(0.187615 -0.00317353 2.41423e-21)
(0.205219 -0.00312407 7.60046e-22)
(-0.000844365 0.000515253 2.97153e-21)
(-0.00272279 0.000519708 -1.47464e-21)
(-0.00395908 7.80121e-05 3.63201e-21)
(-0.00312463 -0.000626981 -1.68504e-21)
(-0.000215935 -0.00143333 1.2381e-20)
(0.00484869 -0.00227944 -1.51235e-22)
(0.0118873 -0.00311776 6.23919e-21)
(0.0207226 -0.00392981 -4.69756e-21)
(0.0311554 -0.00470431 6.113e-21)
(0.0430018 -0.00543834 5.83436e-21)
(0.0560969 -0.00613146 -2.04299e-21)
(0.0702949 -0.0067846 4.75669e-21)
(0.0854661 -0.00739763 -9.67992e-21)
(0.101493 -0.00796772 -1.05756e-20)
(0.118253 -0.0084863 2.11055e-21)
(0.135627 -0.00893809 -4.33101e-21)
(0.15341 -0.00929159 3.43862e-21)
(0.171496 -0.00951647 -5.06604e-21)
(0.189291 -0.00950687 2.14454e-21)
(0.207041 -0.00935578 3.52713e-21)
(-0.000862887 0.000852524 -1.98114e-20)
(-0.00268879 0.000854197 -7.1561e-21)
(-0.00380827 0.000116264 -1.29242e-20)
(-0.00282683 -0.00105845 2.58223e-21)
(0.000252239 -0.00240063 -1.63486e-20)
(0.00549967 -0.00380823 -9.40148e-21)
(0.0127307 -0.00520226 -1.64553e-20)
(0.0217645 -0.00655209 -8.35453e-21)
(0.0324006 -0.007839 1.88926e-21)
(0.044454 -0.0090582 -9.72029e-21)
(0.0577588 -0.010209 -1.08045e-20)
(0.0721688 -0.0112929 2.2786e-21)
(0.0875538 -0.0123098 1.06347e-20)
(0.103796 -0.0132551 1.20339e-20)
(0.120771 -0.0141145 3.46664e-21)
(0.138361 -0.0148627 9.13764e-21)
(0.156357 -0.0154475 -1.28445e-20)
(0.174663 -0.0158178 -8.8536e-21)
(0.192639 -0.015799 1.14141e-20)
(0.210678 -0.0155381 2.28333e-21)
(-0.000890004 0.00118054 1.28728e-20)
(-0.00263649 0.00117078 1.10676e-20)
(-0.00358056 0.000133897 1.42046e-20)
(-0.00237863 -0.00151016 2.219e-20)
(0.000955809 -0.00338556 2.05067e-20)
(0.00647715 -0.00535082 1.24338e-21)
(0.0139964 -0.00729577 3.00884e-22)
(0.0233275 -0.00917799 1.95195e-20)
(0.034268 -0.0109714 -8.30157e-21)
(0.0466311 -0.0126695 1.10363e-20)
(0.0602498 -0.0142713 6.80353e-21)
(0.074977 -0.0157791 -2.072e-20)
(0.0906814 -0.0171927 -4.81829e-21)
(0.107245 -0.0185058 -2.27404e-20)
(0.124541 -0.0196987 -1.65657e-20)
(0.142454 -0.0207362 8.19119e-21)
(0.160767 -0.0215456 5.5372e-21)
(0.179402 -0.0220545 5.91189e-21)
(0.197647 -0.0220225 -1.69178e-20)
(0.216117 -0.0216383 -9.06157e-21)
(-0.000924926 0.00149571 -3.96631e-21)
(-0.00256431 0.00146244 1.13305e-20)
(-0.00327412 0.000122845 2.1532e-20)
(-0.00177824 -0.00198999 -2.23749e-20)
(0.00189634 -0.00439498 -3.92384e-20)
(0.00778233 -0.00691251 -7.27306e-21)
(0.0156852 -0.00940171 -2.90847e-21)
(0.0254117 -0.0118088 1.56171e-20)
(0.036757 -0.0141006 -5.13185e-21)
(0.0495317 -0.0162688 -3.07923e-20)
(0.0635675 -0.0183123 -2.83636e-20)
(0.0787159 -0.0202343 1.72577e-20)
(0.0948445 -0.0220346 1.08861e-20)
(0.111834 -0.0237052 3.23456e-20)
(0.129557 -0.0252214 2.25816e-20)
(0.147897 -0.0265381 -1.58903e-20)
(0.16663 -0.0275631 -8.45439e-21)
(0.185699 -0.0282013 2.23844e-20)
(0.204302 -0.0281504 7.03556e-21)
(0.22334 -0.0276241 -2.66593e-21)
(-0.000966612 0.0017945 -3.06719e-21)
(-0.0024702 0.00172234 -3.76575e-20)
(-0.00288658 7.5244e-05 -4.87051e-20)
(-0.00102328 -0.00250564 -6.39573e-21)
(0.00307592 -0.00543553 2.4866e-20)
(0.00941681 -0.00849842 8.76427e-21)
(0.0177979 -0.0115233 1.00231e-20)
(0.0280172 -0.0144456 -1.47624e-20)
(0.0398668 -0.0172252 2.59811e-20)
(0.0531541 -0.0198523 -9.94213e-21)
(0.0677089 -0.0223257 4.19128e-20)
(0.0833811 -0.0246495 -5.25185e-21)
(0.100037 -0.0268236 -1.09003e-20)
(0.117556 -0.0288387 -2.08303e-21)
(0.135807 -0.0306651 -1.25231e-20)
(0.154678 -0.0322483 -5.14831e-21)
(0.173931 -0.0334771 1.47106e-20)
(0.193539 -0.0342325 -1.43871e-20)
(0.212581 -0.0341557 1.60907e-20)
(0.232322 -0.0334634 1.52754e-20)
(-0.00101377 0.0020735 1.95584e-20)
(-0.00235161 0.00194383 1.68946e-20)
(-0.00241496 -1.65189e-05 2.45797e-20)
(-0.000110818 -0.00306449 3.10374e-20)
(0.00449711 -0.00651356 4.12244e-20)
(0.0113826 -0.0101134 1.30639e-20)
(0.0203358 -0.0136635 -9.19716e-21)
(0.0311443 -0.0170893 5.63603e-21)
(0.0435965 -0.0203438 -1.35482e-20)
(0.0574957 -0.0234162 1.9036e-20)
(0.0726699 -0.0263051 -2.37335e-20)
(0.0889668 -0.0290155 9.45919e-21)
(0.106251 -0.0315479 1.08036e-20)
(0.1244 -0.0338915 6.93538e-21)
(0.143281 -0.0360123 -1.65213e-20)
(0.162781 -0.0378464 1.69561e-20)
(0.182652 -0.0392649 -1.49523e-20)
(0.202897 -0.0401232 1.05735e-20)
(0.22246 -0.0400121 -7.42859e-21)
(0.243032 -0.0391248 -1.90573e-20)
(-0.00106487 0.0023294 -2.71507e-20)
(-0.00220549 0.00212052 1.33022e-20)
(-0.00185573 -0.000159753 -1.80527e-21)
(0.000962661 -0.00367362 -1.90665e-20)
(0.00616299 -0.00763511 -5.16999e-20)
(0.0136819 -0.0117619 3.86419e-20)
(0.0233001 -0.015825 1.31043e-20)
(0.0347932 -0.0197403 -2.23274e-21)
(0.0479447 -0.0234548 -3.62594e-21)
(0.0625539 -0.0269563 -1.69804e-20)
(0.078446 -0.0302438 3.81303e-20)
(0.0954664 -0.0333232 5.53243e-21)
(0.113477 -0.0361955 2.15684e-21)
(0.132354 -0.038849 -4.88726e-21)
(0.151962 -0.0412456 2.17049e-20)
(0.172189 -0.0433126 -1.42509e-23)
(0.19277 -0.0449042 2.7979e-21)
(0.213749 -0.0458484 -4.01753e-21)
(0.233908 -0.0456935 -2.31097e-20)
(0.255432 -0.0445777 1.38574e-20)
(-0.00111814 0.00255906 2.64843e-20)
(-0.00202834 0.0022463 5.3195e-20)
(-0.00120481 -0.000361412 -6.28782e-20)
(0.00220119 -0.00433972 -4.97669e-20)
(0.00807706 -0.00880578 6.11936e-20)
(0.0163176 -0.013448 -4.55571e-20)
(0.0266926 -0.0180099 9.4322e-21)
(0.0389639 -0.022399 -8.03294e-21)
(0.0529102 -0.0265561 -4.29338e-20)
(0.0683254 -0.0304683 4.37235e-20)
(0.0850317 -0.0341349 -5.42571e-20)
(0.102872 -0.0375631 2.83116e-20)
(0.121705 -0.0407544 -2.10457e-21)
(0.141405 -0.0436965 3.89072e-20)
(0.161833 -0.0463477 -3.98569e-21)
(0.182879 -0.0486267 -2.22228e-20)
(0.20426 -0.0503728 -4.42572e-21)
(0.226062 -0.0513838 -9.89032e-21)
(0.246888 -0.0511745 -2.04398e-21)
(0.269478 -0.0497923 -1.00639e-20)
(-0.00117161 0.00275946 2.71028e-20)
(-0.00181621 0.00231538 -8.17729e-20)
(-0.000457623 -0.000628041 9.2353e-21)
(0.00360934 -0.00506903 9.46104e-20)
(0.0102433 -0.0100307 -2.27811e-20)
(0.0192927 -0.0151754 -4.79087e-21)
(0.030515 -0.0202202 1.09799e-20)
(0.0436569 -0.0250651 -8.56059e-21)
(0.0584912 -0.0296453 4.0415e-20)
(0.0748062 -0.0339475 4.96643e-20)
(0.0924207 -0.0379715 8.99083e-20)
(0.111174 -0.0417257 6.11337e-21)
(0.130922 -0.0452126 -5.42413e-20)
(0.151537 -0.0484192 -1.6216e-20)
(0.172875 -0.0513013 -1.83813e-21)
(0.194827 -0.0537692 6.358e-21)
(0.217091 -0.0556487 2.40373e-20)
(0.239803 -0.0567052 -1.50413e-20)
(0.261362 -0.0564304 3.55148e-20)
(0.28512 -0.0547397 2.58578e-20)
(-0.00122308 0.00292779 -7.58073e-20)
(-0.00156474 0.00232235 4.52532e-20)
(0.000390928 -0.000965729 2.12319e-20)
(0.00519214 -0.00586728 -4.11935e-20)
(0.0126661 -0.0113146 -6.92257e-22)
(0.0226104 -0.0169473 -3.79953e-21)
(0.0347691 -0.0224571 -5.58873e-20)
(0.0488721 -0.0277379 -7.2118e-21)
(0.0646858 -0.0327196 -6.86797e-20)
(0.0819921 -0.0373889 -2.86815e-20)
(0.100606 -0.0417462 -2.44843e-20)
(0.120362 -0.0458012 -4.5803e-20)
(0.141115 -0.0495577 -1.61753e-20)
(0.162732 -0.0530026 -2.09177e-20)
(0.185064 -0.0560892 -3.61314e-21)
(0.208005 -0.0587205 2.85031e-20)
(0.231231 -0.0607104 8.98044e-21)
(0.254931 -0.0617893 1.96284e-20)
(0.277281 -0.061437 -2.93824e-20)
(0.302303 -0.0593925 -1.54327e-20)
(-0.00127016 0.00306144 6.1856e-20)
(-0.00126914 0.00226215 -4.83859e-20)
(0.0013464 -0.00138007 -2.62695e-20)
(0.0069551 -0.00673966 -1.3872e-21)
(0.0153503 -0.0126615 -7.90147e-20)
(0.0262744 -0.0187662 -4.43337e-20)
(0.039457 -0.0247216 4.69138e-20)
(0.0546097 -0.0304163 -1.64244e-20)
(0.0714919 -0.0357759 7.37602e-20)
(0.0898781 -0.0407871 -4.04186e-20)
(0.109579 -0.0454512 -7.51837e-20)
(0.130426 -0.0497797 2.30942e-20)
(0.152267 -0.0537775 1.56531e-20)
(0.174969 -0.0574319 -3.11924e-20)
(0.198376 -0.0606946 -2.28615e-20)
(0.222383 -0.0634613 -2.76917e-20)
(0.246643 -0.0655368 -5.48659e-20)
(0.271401 -0.066613 1.38812e-20)
(0.294597 -0.066171 -4.65785e-20)
(0.320964 -0.0637244 3.72192e-20)
(-0.00131028 0.003158 3.94284e-20)
(-0.000924274 0.00213021 8.71444e-20)
(0.00241479 -0.00187611 8.96189e-21)
(0.00890417 -0.00769077 -1.57437e-21)
(0.018301 -0.014075 1.01843e-19)
(0.0302885 -0.0206342 7.10385e-20)
(0.0445809 -0.0270137 4.49454e-20)
(0.0608697 -0.0330987 9.38121e-20)
(0.0789068 -0.0388103 -1.81399e-20)
(0.0984589 -0.0441363 6.53166e-20)
(0.119332 -0.0490786 9.17451e-20)
(0.141351 -0.0536509 -6.7193e-20)
(0.164363 -0.0578595 -1.59679e-20)
(0.188227 -0.0616924 -1.98333e-21)
(0.212783 -0.0651004 5.01506e-20)
(0.237927 -0.0679728 2.8705e-20)
(0.263286 -0.0701073 1.00526e-19)
(0.289167 -0.0711541 -5.28855e-20)
(0.313253 -0.07061 3.50063e-20)
(0.341035 -0.0677107 -5.94943e-20)
(-0.00134068 0.00321522 -8.34561e-20)
(-0.000524662 0.00192244 -7.27822e-20)
(0.00360251 -0.00245833 -6.10193e-22)
(0.0110457 -0.00872454 3.23249e-20)
(0.0215237 -0.0155577 -1.05094e-19)
(0.0346569 -0.0225525 -3.6965e-20)
(0.0501429 -0.0293332 2.06743e-21)
(0.0676521 -0.0357827 -4.36633e-20)
(0.0869278 -0.0418187 6.88884e-20)
(0.107728 -0.0474301 -4.91008e-20)
(0.129854 -0.0526201 -7.96638e-20)
(0.153125 -0.0574044 4.43121e-20)
(0.177382 -0.0617913 -5.19398e-21)
(0.202481 -0.0657695 4.79017e-20)
(0.228254 -0.0692901 -6.49162e-20)
(0.254599 -0.0722363 3.26874e-20)
(0.281116 -0.0744017 -6.13945e-20)
(0.308175 -0.0753912 1.64176e-20)
(0.333189 -0.0747327 -2.71501e-20)
(0.362442 -0.0713284 1.89451e-20)
(-0.00135839 0.00323095 4.36133e-21)
(-6.45265e-05 0.00163538 -2.66821e-20)
(0.00491632 -0.00313055 6.28565e-20)
(0.0133863 -0.00984424 -3.07452e-20)
(0.0250241 -0.0171118 8.55143e-20)
(0.0393839 -0.0245218 2.79719e-20)
(0.0561453 -0.031679 -7.34569e-20)
(0.0749565 -0.0384655 1.17634e-21)
(0.0955516 -0.0447963 -1.69845e-20)
(0.11768 -0.0506618 -8.98482e-20)
(0.141135 -0.0560669 7.56538e-20)
(0.165732 -0.0610295 -8.71341e-21)
(0.191305 -0.0655601 -3.94263e-21)
(0.217706 -0.0696487 -3.64764e-20)
(0.244758 -0.0732472 7.29629e-20)
(0.272361 -0.0762338 -5.87333e-20)
(0.300084 -0.0784004 -3.8378e-20)
(0.328368 -0.0793034 1.11475e-20)
(0.35434 -0.0785186 3.44762e-20)
(0.385107 -0.0745563 5.13929e-20)
(-0.00136036 0.00320368 1.75145e-20)
(0.000462318 0.00126578 -1.77599e-20)
(0.00636329 -0.00389598 2.5093e-20)
(0.0159332 -0.0110524 -9.86881e-20)
(0.0288084 -0.0187388 7.0016e-20)
(0.0444738 -0.0265419 -2.56978e-20)
(0.0625904 -0.0340492 3.44821e-20)
(0.0827826 -0.0411435 3.28742e-20)
(0.104775 -0.0477376 -3.38375e-20)
(0.128306 -0.0538243 7.78811e-20)
(0.153163 -0.05941 -5.24276e-20)
(0.179156 -0.0645153 -2.33273e-20)
(0.20611 -0.0691532 -3.4264e-20)
(0.233873 -0.0733154 2.62537e-20)
(0.26226 -0.0769556 -5.65995e-21)
(0.29117 -0.0799473 5.81116e-20)
(0.320141 -0.0820846 3.1545e-20)
(0.349687 -0.0828711 6.10256e-21)
(0.376636 -0.0819485 -1.93272e-20)
(0.408944 -0.0773754 -7.93941e-21)
(-0.00134351 0.00313216 2.60049e-20)
(0.00106227 0.000810835 1.08493e-19)
(0.00795088 -0.00475712 -8.12844e-20)
(0.0186934 -0.0123508 1.03416e-19)
(0.0328827 -0.020439 -1.67568e-19)
(0.0499312 -0.028612 -2.90876e-20)
(0.0694804 -0.0364413 -3.6494e-22)
(0.0911296 -0.0438125 -7.49349e-20)
(0.114593 -0.0506367 9.48873e-21)
(0.139599 -0.0569096 1.54637e-20)
(0.165927 -0.0626399 1.03586e-20)
(0.193378 -0.0678507 -4.26715e-20)
(0.221773 -0.0725579 2.88492e-20)
(0.250952 -0.0767552 -2.73725e-20)
(0.280721 -0.0803993 -1.32403e-19)
(0.310979 -0.0833598 7.4229e-21)
(0.341231 -0.085436 -4.73795e-21)
(0.372065 -0.0860756 -3.98474e-20)
(0.400005 -0.0850045 2.51169e-20)
(0.433865 -0.0797686 -2.48463e-20)
(-0.00130456 0.00301508 -1.86288e-20)
(0.00174185 0.000268632 -7.61881e-21)
(0.00968675 -0.00571576 8.04193e-21)
(0.0216748 -0.0137403 4.61614e-20)
(0.0372535 -0.0222123 8.37003e-20)
(0.0557607 -0.0307304 9.54498e-20)
(0.0768173 -0.0388521 -7.64934e-20)
(0.0999968 -0.0464674 3.75677e-20)
(0.125002 -0.0534869 -4.71792e-20)
(0.151549 -0.0599096 -4.88412e-20)
(0.179411 -0.0657466 -1.04355e-20)
(0.20838 -0.0710242 6.31537e-20)
(0.238269 -0.0757611 -4.63063e-21)
(0.268911 -0.079954 -2.02311e-20)
(0.300101 -0.0835631 3.65933e-20)
(0.33174 -0.0864548 -7.7494e-20)
(0.363297 -0.0884375 7.23758e-21)
(0.395434 -0.088899 3.41999e-20)
(0.424367 -0.08767 -9.39599e-22)
(0.459776 -0.0817212 -2.62661e-20)
(-0.00124014 0.00285146 -3.8834e-20)
(0.00250783 -0.000362214 -5.20497e-20)
(0.0115788 -0.00677293 -8.63291e-21)
(0.0248848 -0.0152213 -3.56039e-20)
(0.0419272 -0.0240576 -5.28368e-20)
(0.0619669 -0.0328944 -1.01074e-19)
(0.0846033 -0.0412774 8.89086e-20)
(0.109383 -0.0491027 -6.53974e-20)
(0.135996 -0.0562809 7.50936e-20)
(0.164149 -0.0628154 6.00094e-20)
(0.193602 -0.0687198 2.90646e-21)
(0.224142 -0.074024 1.00829e-19)
(0.255571 -0.0787502 1.39067e-20)
(0.287716 -0.0828977 1.17625e-19)
(0.320359 -0.0864317 8.68193e-20)
(0.353401 -0.0892162 9.33762e-20)
(0.386277 -0.0910725 -8.11346e-21)
(0.419723 -0.0913252 4.97841e-21)
(0.449643 -0.0899297 -2.80794e-20)
(0.486577 -0.083221 2.54549e-20)
(-0.0011468 0.00264067 2.60966e-20)
(0.00336712 -0.00108255 -3.30189e-21)
(0.013635 -0.00792893 -2.57839e-20)
(0.0283314 -0.0167928 -6.32505e-20)
(0.0469106 -0.0259728 7.52913e-20)
(0.0685543 -0.0351007 3.88514e-20)
(0.0928401 -0.0437122 -1.19505e-19)
(0.119286 -0.0517116 3.88315e-20)
(0.147571 -0.0590108 -2.5882e-20)
(0.177386 -0.0656175 3.68164e-20)
(0.208484 -0.0715489 9.87387e-20)
(0.240641 -0.0768384 -1.0292e-19)
(0.273651 -0.081512 5.02318e-20)
(0.307329 -0.0855725 -1.03596e-19)
(0.341449 -0.0889907 -3.57275e-20)
(0.375909 -0.091629 -1.42334e-19)
(0.410107 -0.0933258 -1.21811e-20)
(0.444855 -0.0933388 4.55364e-20)
(0.475746 -0.09177 7.02502e-21)
(0.514168 -0.0842582 -7.79956e-21)
(-0.00102104 0.00238234 2.58567e-20)
(0.00432678 -0.00189264 1.2056e-19)
(0.0158637 -0.00918327 1.21375e-19)
(0.0320226 -0.0184534 6.05239e-21)
(0.0522102 -0.027955 3.82706e-20)
(0.0755274 -0.0373449 -7.74019e-20)
(0.101529 -0.0461507 1.37601e-19)
(0.129705 -0.0542871 9.13057e-21)
(0.159719 -0.0616677 -8.53161e-20)
(0.19125 -0.068306 -4.82468e-20)
(0.22404 -0.0742227 -1.92534e-19)
(0.257854 -0.0794553 1.41575e-20)
(0.292476 -0.0840338 -1.55184e-20)
(0.327713 -0.0879649 -6.95042e-20)
(0.363325 -0.0912261 -3.0783e-20)
(0.399206 -0.093679 1.87038e-20)
(0.434721 -0.0951831 4.5318e-20)
(0.470752 -0.0949264 -4.02463e-20)
(0.502589 -0.0931789 -3.0591e-20)
(0.542444 -0.0848255 -5.85094e-20)
(-0.000859321 0.0020764 -5.97263e-20)
(0.00539392 -0.0027921 7.41359e-21)
(0.0182729 -0.0105347 -6.31054e-20)
(0.0359664 -0.0202007 -4.21708e-20)
(0.0578325 -0.0300006 -1.73454e-19)
(0.0828905 -0.0396217 5.06978e-21)
(0.110672 -0.0485862 -3.15488e-20)
(0.140636 -0.0568209 8.75766e-21)
(0.172434 -0.0642424 6.06652e-20)
(0.205729 -0.0708705 -4.77382e-21)
(0.240252 -0.0767298 2.69701e-20)
(0.275757 -0.0818624 3.4722e-20)
(0.312017 -0.0863028 -4.02915e-21)
(0.348827 -0.0900618 1.21703e-20)
(0.385936 -0.0931247 -5.51688e-20)
(0.423233 -0.0953529 1.56638e-20)
(0.460048 -0.0966313 -2.52755e-20)
(0.497333 -0.0960758 -4.88259e-20)
(0.53008 -0.094146 1.60102e-20)
(0.571296 -0.0849183 5.57183e-20)
(-0.000658087 0.00172306 -4.24474e-20)
(0.00657572 -0.00377997 -1.83963e-19)
(0.0208711 -0.011981 -1.05901e-19)
(0.0401706 -0.0220311 1.37222e-19)
(0.063784 -0.0321045 5.7221e-20)
(0.0906476 -0.041925 2.78668e-20)
(0.120269 -0.0510112 -5.19472e-20)
(0.152078 -0.0593043 -6.96671e-20)
(0.185709 -0.0667248 -8.82148e-20)
(0.220809 -0.0732997 1.16296e-19)
(0.257101 -0.0790583 5.33517e-20)
(0.294323 -0.0840474 3.87185e-20)
(0.332238 -0.0883063 -1.15001e-19)
(0.370629 -0.0918506 -4.00467e-20)
(0.409231 -0.0946739 1.07151e-19)
(0.447928 -0.0966386 2.24452e-20)
(0.486016 -0.0976589 4.15712e-22)
(0.524513 -0.0967766 5.73461e-20)
(0.558127 -0.0946627 5.41044e-20)
(0.600617 -0.0845346 1.06058e-21)
(-0.000413765 0.0013228 1.05657e-20)
(0.00787935 -0.00485464 9.31091e-20)
(0.0236665 -0.0135195 2.5002e-19)
(0.0446433 -0.0239406 -5.06181e-20)
(0.070071 -0.0342613 1.59042e-19)
(0.0988026 -0.0442476 -1.97467e-20)
(0.130322 -0.0534171 -6.87616e-21)
(0.164025 -0.0617275 1.38226e-19)
(0.199533 -0.0691042 1.03781e-19)
(0.236478 -0.0755823 -8.25675e-20)
(0.274565 -0.0811961 -1.02939e-19)
(0.313525 -0.0859978 -2.68188e-20)
(0.353104 -0.0900319 2.33041e-20)
(0.393075 -0.0933191 -2.30928e-20)
(0.433157 -0.0958621 -8.97808e-20)
(0.473228 -0.0975251 7.36093e-21)
(0.512552 -0.0982557 3.94404e-20)
(0.552207 -0.0970201 -1.6259e-20)
(0.586636 -0.0947222 1.51334e-20)
(0.630295 -0.0836749 5.14369e-20)
(-0.000122794 0.000876383 -1.416e-20)
(0.00931194 -0.0060139 -1.5969e-19)
(0.0266672 -0.0151464 -2.47673e-20)
(0.0493921 -0.0259238 -5.36788e-20)
(0.0766995 -0.0364642 -2.22817e-19)
(0.107359 -0.0465816 -4.76142e-20)
(0.140829 -0.0557948 1.69331e-20)
(0.176474 -0.0640801 -9.38992e-20)
(0.213899 -0.0713692 1.29976e-19)
(0.252718 -0.0777061 5.08106e-20)
(0.292624 -0.0831308 1.05556e-19)
(0.333332 -0.0877012 -2.66528e-20)
(0.374577 -0.0914674 1.54013e-19)
(0.416117 -0.0944557 7.508e-21)
(0.457657 -0.0966787 1.02949e-19)
(0.499067 -0.0980029 3.41327e-20)
(0.53958 -0.098413 -2.42619e-20)
(0.580326 -0.0967996 5.4334e-21)
(0.615509 -0.0943198 -3.89915e-20)
(0.660218 -0.0823424 -5.31312e-20)
(0.000218364 0.000384866 6.87507e-20)
(0.0108806 -0.0072549 1.85896e-19)
(0.0298813 -0.0168572 -2.1746e-19)
(0.0544245 -0.0279747 3.82485e-20)
(0.0836753 -0.0387057 1.86225e-19)
(0.116319 -0.048918 1.87438e-19)
(0.15179 -0.0581339 9.66742e-20)
(0.18942 -0.0663509 -1.83365e-20)
(0.228796 -0.0735078 -1.64044e-19)
(0.269514 -0.0796586 -6.33943e-20)
(0.311254 -0.0848496 6.51123e-20)
(0.353716 -0.0891451 -9.08752e-20)
(0.396619 -0.0926011 -1.55796e-19)
(0.439709 -0.0952496 -1.27876e-20)
(0.482674 -0.0971139 -4.20736e-20)
(0.525376 -0.0980637 7.1976e-21)
(0.567021 -0.0981242 4.75898e-20)
(0.60878 -0.0961103 -7.69206e-20)
(0.64465 -0.0934526 -6.99553e-20)
(0.690277 -0.0805425 -2.486e-20)
(0.000613205 -0.000150438 1.60449e-19)
(0.0125922 -0.0085742 -5.0583e-20)
(0.0333166 -0.0186466 4.0061e-21)
(0.0597478 -0.0300863 7.3314e-20)
(0.0910037 -0.0409772 4.57333e-20)
(0.125686 -0.0512468 -2.7308e-20)
(0.163204 -0.0604235 -5.63608e-20)
(0.202856 -0.068528 1.78321e-19)
(0.244212 -0.0755075 4.77037e-21)
(0.286848 -0.081427 -9.95061e-20)
(0.33043 -0.08634 -9.2431e-20)
(0.374642 -0.0903173 6.77368e-20)
(0.419188 -0.0934216 -1.71825e-20)
(0.4638 -0.0956909 1.34065e-19)
(0.508149 -0.0971596 -1.58473e-20)
(0.552087 -0.0977012 -8.30687e-20)
(0.594797 -0.0973841 -4.64695e-20)
(0.637482 -0.0949496 1.95259e-20)
(0.673963 -0.0921197 1.4154e-20)
(0.720361 -0.0782829 -1.3114e-20)
(0.00106517 -0.00072794 -1.4304e-19)
(0.0144537 -0.00996775 2.55249e-20)
(0.036981 -0.0205085 4.93145e-20)
(0.0653691 -0.0322508 -8.83017e-20)
(0.0986896 -0.0432694 -9.58993e-20)
(0.135462 -0.0535575 -1.01566e-19)
(0.175069 -0.0626518 -1.39975e-21)
(0.216776 -0.0705986 -4.20463e-20)
(0.260134 -0.0773551 -4.70931e-20)
(0.304702 -0.0829981 9.22105e-20)
(0.350127 -0.0875888 1.19371e-19)
(0.396077 -0.0912056 1.1656e-19)
(0.442242 -0.093918 1.84233e-19)
(0.488338 -0.0957704 -1.39834e-19)
(0.534021 -0.0968085 7.16542e-20)
(0.57913 -0.0969106 5.82495e-20)
(0.622828 -0.0961899 2.58073e-20)
(0.666339 -0.0933171 1.61663e-19)
(0.703353 -0.0903219 -2.30619e-20)
(0.750362 -0.0755732 7.9e-20)
(0.00157764 -0.00134579 5.68835e-20)
(0.0164717 -0.0114309 7.69066e-21)
(0.0408816 -0.0224361 4.03632e-20)
(0.0712948 -0.0344594 4.51683e-20)
(0.106737 -0.0455718 1.59272e-20)
(0.145648 -0.0558383 4.22095e-20)
(0.187382 -0.0648061 -1.22607e-19)
(0.231172 -0.0725497 6.18627e-20)
(0.27655 -0.079037 2.77883e-20)
(0.323054 -0.0843583 -9.77722e-20)
(0.370315 -0.0885832 -6.46505e-21)
(0.417985 -0.0917983 -6.15101e-20)
(0.465737 -0.0940801 -9.56117e-20)
(0.51327 -0.0954801 5.87086e-20)
(0.560228 -0.0960552 3.87095e-20)
(0.606431 -0.095689 3.07436e-20)
(0.651035 -0.0945406 9.81841e-21)
(0.695262 -0.0912147 -1.1393e-19)
(0.732726 -0.0880622 1.06168e-19)
(0.780173 -0.0724249 -4.92489e-20)
(0.00215389 -0.00200189 1.26918e-20)
(0.0186526 -0.0129584 -1.2492e-19)
(0.0450255 -0.0244217 -2.73552e-20)
(0.077531 -0.0367024 -2.51783e-20)
(0.115151 -0.0478735 -1.17468e-19)
(0.156244 -0.0580768 -6.4415e-21)
(0.200139 -0.0668731 1.66729e-19)
(0.246035 -0.0743671 2.03332e-20)
(0.293445 -0.0805392 -1.38379e-20)
(0.341884 -0.085494 1.23067e-19)
(0.390968 -0.0893104 -7.76249e-20)
(0.440329 -0.0920838 -1.03049e-19)
(0.489626 -0.0938985 8.9667e-21)
(0.538541 -0.0948131 -2.34675e-20)
(0.586705 -0.0948957 -1.66434e-19)
(0.63392 -0.0940356 -4.72462e-20)
(0.679337 -0.0924377 2.50185e-20)
(0.724162 -0.0886469 8.85896e-21)
(0.761991 -0.085345 -7.07746e-20)
(0.809691 -0.0688508 3.96727e-20)
(0.00279712 -0.00269389 5.84469e-20)
(0.0210026 -0.0145446 2.1288e-19)
(0.0494195 -0.026457 8.22459e-20)
(0.0840833 -0.0389696 2.38616e-20)
(0.123934 -0.0501622 -3.30379e-20)
(0.16725 -0.0602598 1.05934e-19)
(0.213335 -0.0688388 -1.22779e-19)
(0.261355 -0.0760366 -7.03647e-20)
(0.310801 -0.0818474 8.51977e-21)
(0.361168 -0.0863913 -4.23626e-21)
(0.412052 -0.0897576 1.58477e-20)
(0.46307 -0.0920512 -1.91021e-20)
(0.513863 -0.0933644 -4.84266e-20)
(0.564096 -0.0937636 9.0852e-20)
(0.613389 -0.0933275 1.71239e-19)
(0.661524 -0.0919521 6.4891e-20)
(0.707657 -0.0898851 -1.27042e-19)
(0.752952 -0.085621 2.06276e-21)
(0.791062 -0.082176 1.32399e-19)
(0.838814 -0.0648649 2.61135e-20)
(0.0035104 -0.0034192 -2.05863e-19)
(0.0235275 -0.016183 -1.33721e-19)
(0.0540696 -0.0285329 -8.27189e-21)
(0.0909567 -0.0412496 -3.1811e-20)
(0.133088 -0.0524254 1.09035e-20)
(0.178665 -0.0623733 -1.43209e-19)
(0.226966 -0.0706885 -1.89081e-19)
(0.277121 -0.0775431 -1.33252e-19)
(0.328602 -0.0829468 1.43414e-19)
(0.380882 -0.0870364 -1.3784e-19)
(0.433538 -0.0899124 4.95576e-20)
(0.486168 -0.09169 1.19015e-19)
(0.538398 -0.0924703 4.73055e-20)
(0.589877 -0.0923275 -2.72053e-20)
(0.640213 -0.0913503 -1.33773e-19)
(0.68917 -0.0894421 9.83449e-20)
(0.735914 -0.0868891 2.24792e-19)
(0.781547 -0.082147 -8.36311e-20)
(0.819856 -0.0785617 -1.40163e-19)
(0.867446 -0.060482 -3.74694e-20)
(0.00429669 -0.00417499 2.2481e-19)
(0.0262329 -0.0178667 3.7707e-20)
(0.0589815 -0.0306396 -4.35507e-20)
(0.0981556 -0.0435306 5.60652e-20)
(0.142615 -0.0546493 1.18392e-19)
(0.190486 -0.0644028 -6.39352e-21)
(0.241023 -0.0724069 4.06183e-19)
(0.293321 -0.0788715 1.06091e-19)
(0.346829 -0.0838225 -1.77615e-19)
(0.400999 -0.0874154 9.67742e-20)
(0.45539 -0.0897625 -1.68335e-20)
(0.50958 -0.0909904 -3.84864e-20)
(0.563181 -0.0912093 6.95481e-20)
(0.615825 -0.0905017 -4.02459e-20)
(0.667112 -0.0889655 1.84602e-20)
(0.716784 -0.086512 2.04065e-20)
(0.764032 -0.0834592 -1.43858e-19)
(0.809865 -0.0782386 1.12016e-19)
(0.8483 -0.074509 5.08371e-20)
(0.895491 -0.055717 6.27177e-21)
(0.00515881 -0.00495823 -1.54383e-19)
(0.029124 -0.0195885 -6.52724e-22)
(0.0641606 -0.0327668 3.82859e-21)
(0.105684 -0.0457998 -4.64469e-20)
(0.152515 -0.0568198 -7.91794e-20)
(0.202712 -0.066333 1.14886e-19)
(0.255499 -0.0739785 -2.92226e-19)
(0.30994 -0.080006 -6.17772e-20)
(0.365461 -0.0844598 1.97011e-19)
(0.421493 -0.0875147 1.81771e-19)
(0.477573 -0.0892964 -1.99683e-19)
(0.533264 -0.0899435 4.86372e-20)
(0.588161 -0.0895759 -5.33499e-20)
(0.641882 -0.088285 6.15435e-20)
(0.694019 -0.0861766 1.01933e-21)
(0.744296 -0.0831708 5.67953e-21)
(0.791937 -0.0796077 -4.82591e-20)
(0.837827 -0.073913 -2.24316e-20)
(0.876326 -0.0700235 4.48878e-21)
(0.922855 -0.0505849 -3.20922e-20)
(0.00609941 -0.00576567 1.45025e-19)
(0.0322055 -0.0213405 -4.84889e-21)
(0.0696112 -0.0349034 7.03343e-20)
(0.113543 -0.0480439 2.24116e-20)
(0.16279 -0.0589219 -7.96444e-20)
(0.215337 -0.068148 3.27485e-20)
(0.270385 -0.075387 -7.57081e-20)
(0.326963 -0.0809308 2.34153e-20)
(0.384477 -0.0848436 -1.75463e-19)
(0.442333 -0.0873209 -2.32962e-19)
(0.500051 -0.0885029 8.11276e-20)
(0.557175 -0.088541 -7.46447e-21)
(0.613284 -0.0875656 1.56737e-20)
(0.667986 -0.0856773 -3.35473e-20)
(0.720868 -0.082989 7.69003e-20)
(0.771634 -0.0794302 -1.95807e-19)
(0.819555 -0.0753507 1.40291e-19)
(0.865363 -0.0691926 -1.19005e-20)
(0.903878 -0.0651099 8.30708e-20)
(0.949451 -0.045104 2.68505e-20)
(0.00712098 -0.00659385 -2.17054e-19)
(0.0354818 -0.0231144 -9.8394e-20)
(0.0753374 -0.0370378 -1.45689e-19)
(0.121737 -0.050249 9.1848e-20)
(0.173437 -0.0609403 -2.27896e-20)
(0.228355 -0.0698315 2.07526e-20)
(0.285669 -0.076616 1.58111e-19)
(0.344374 -0.08163 3.50763e-20)
(0.403854 -0.084959 1.20221e-20)
(0.46349 -0.0868209 3.41882e-20)
(0.522786 -0.0873714 9.96929e-20)
(0.581266 -0.0867757 2.92864e-20)
(0.638498 -0.0851753 2.56498e-20)
(0.694078 -0.0826806 -2.47599e-20)
(0.747591 -0.0794103 -1.0224e-19)
(0.798727 -0.0753047 1.33335e-19)
(0.846816 -0.0707078 7.4753e-20)
(0.892403 -0.0641051 5.87532e-20)
(0.930914 -0.0597718 -9.97454e-20)
(0.975194 -0.039301 -3.51354e-20)
(0.00822583 -0.00743913 1.42156e-19)
(0.0389568 -0.0249013 1.72161e-19)
(0.0813424 -0.0391578 5.43003e-21)
(0.130266 -0.0524006 1.31947e-20)
(0.184454 -0.062859 2.20421e-19)
(0.241762 -0.071367 -1.63085e-19)
(0.301341 -0.0776488 1.80731e-19)
(0.362155 -0.0820875 1.14928e-19)
(0.423565 -0.0847915 1.8733e-19)
(0.484932 -0.0860024 -4.82591e-20)
(0.545737 -0.0858923 -3.88515e-20)
(0.605491 -0.0846414 -3.49171e-21)
(0.663748 -0.082403 3.11771e-20)
(0.720096 -0.0792981 -9.27711e-20)
(0.774123 -0.0754501 1.09605e-19)
(0.825506 -0.0708113 -7.23316e-20)
(0.873649 -0.065703 2.55083e-20)
(0.918888 -0.0586861 -4.64332e-20)
(0.9574 -0.0540092 -9.77504e-20)
(0.999996 -0.0331907 3.48097e-20)
(0.00941619 -0.00829784 -7.15297e-20)
(0.0426339 -0.0266925 -9.82017e-20)
(0.0876287 -0.0412512 1.95234e-19)
(0.139131 -0.0544837 -1.02882e-19)
(0.195838 -0.0646616 -1.02154e-19)
(0.255547 -0.0727374 3.14059e-20)
(0.317386 -0.0784686 -1.01788e-19)
(0.380286 -0.0822875 -2.25844e-19)
(0.443586 -0.0843268 -1.45945e-19)
(0.506625 -0.0848532 1.39634e-21)
(0.568864 -0.0840567 -3.27334e-20)
(0.629801 -0.0821332 -1.33207e-19)
(0.688979 -0.0792484 -1.38833e-19)
(0.745979 -0.0755346 1.66901e-19)
(0.800398 -0.0711199 -1.16318e-19)
(0.851904 -0.0659698 3.40993e-20)
(0.899987 -0.0603659 2.7031e-20)
(0.944765 -0.0529806 -1.01822e-19)
(0.98331 -0.0478017 4.53763e-20)
(1.02371 -0.0267115 3.88688e-20)
(0.0106943 -0.00916638 -8.42725e-20)
(0.0465164 -0.0284788 -7.23445e-20)
(0.0941986 -0.043305 -1.38654e-19)
(0.148331 -0.0564834 3.2928e-20)
(0.207585 -0.0663318 2.28493e-20)
(0.269704 -0.0739259 3.03712e-21)
(0.333791 -0.0790589 1.52121e-19)
(0.398747 -0.0822144 4.10801e-20)
(0.463889 -0.0835512 -6.50885e-20)
(0.528534 -0.0833624 8.20314e-20)
(0.592126 -0.0818567 -3.91548e-20)
(0.654148 -0.079247 9.87231e-21)
(0.714136 -0.0757122 3.68555e-20)
(0.771666 -0.0713966 -8.64349e-20)
(0.826349 -0.0664327 7.02617e-20)
(0.877852 -0.0608021 -1.5172e-20)
(0.925765 -0.0547325 1.09872e-19)
(0.969999 -0.0470458 -2.2294e-20)
(1.00865 -0.0411067 1.49481e-19)
(1.04618 -0.0198374 -2.70932e-20)
(0.0120611 -0.0100399 1.86696e-19)
(0.0506057 -0.0302496 -4.94469e-20)
(0.101052 -0.0453052 1.57961e-19)
(0.157863 -0.058383 1.31703e-19)
(0.219689 -0.0678518 3.14695e-20)
(0.28422 -0.0749145 1.24514e-20)
(0.350538 -0.0794024 -3.43382e-19)
(0.417514 -0.0818524 -8.07852e-20)
(0.484444 -0.082451 -1.19931e-21)
(0.550623 -0.0815192 -1.65172e-19)
(0.615479 -0.0792853 1.02331e-19)
(0.678483 -0.0759801 5.39586e-20)
(0.739164 -0.0717964 8.49058e-20)
(0.797098 -0.0668915 2.7546e-21)
(0.851912 -0.0614029 -4.8995e-20)
(0.903284 -0.0553317 1.19125e-19)
(0.950912 -0.0488465 -2.70746e-19)
(0.994565 -0.0409528 -6.82e-20)
(1.03354 -0.0339809 -1.44981e-19)
(1.0678 -0.0133483 8.00769e-22)
(0.0135131 -0.0109093 -1.81091e-19)
(0.0548985 -0.0319899 3.73834e-20)
(0.108184 -0.0472329 -1.52733e-19)
(0.16772 -0.0601618 -1.28147e-19)
(0.232138 -0.0692003 -2.17653e-20)
(0.29908 -0.0756823 -2.06082e-20)
(0.367607 -0.0794794 3.44874e-19)
(0.436562 -0.0811841 7.22062e-20)
(0.505219 -0.0810118 1.84454e-19)
(0.572853 -0.0793126 1.75483e-19)
(0.638879 -0.0763358 -1.19396e-19)
(0.702754 -0.0723305 -4.12857e-20)
(0.764006 -0.0675043 -1.04118e-19)
(0.822215 -0.0620282 1.69725e-20)
(0.877025 -0.0560458 4.47596e-20)
(0.928132 -0.0495825 -8.80435e-20)
(0.975353 -0.042753 1.10668e-19)
(1.01839 -0.0347881 5.22373e-20)
(1.05798 -0.0268246 1.35411e-19)
(1.09096 -0.00920299 2.73973e-21)
(0.0150507 -0.0117697 8.16874e-20)
(0.0593943 -0.0336884 -1.01272e-19)
(0.115593 -0.0490738 1.46567e-19)
(0.177897 -0.0618032 -5.3523e-20)
(0.244922 -0.0703599 -5.34062e-21)
(0.314269 -0.076212 6.58364e-21)
(0.384977 -0.0792737 -1.72426e-19)
(0.455863 -0.0801951 1.72886e-19)
(0.52618 -0.0792219 -1.24143e-19)
(0.595185 -0.0767346 7.63624e-20)
(0.662279 -0.0730039 3.66667e-20)
(0.726911 -0.0682985 -6.41075e-21)
(0.788608 -0.0628408 -3.56523e-20)
(0.846957 -0.0568167 -1.36814e-20)
(0.901625 -0.0503768 -7.76976e-20)
(0.952331 -0.0435756 3.11777e-20)
(0.999002 -0.0364867 -1.08795e-19)
(1.0413 -0.0286331 -1.17292e-19)
(1.08104 -0.0203367 1.39987e-19)
(1.11294 -0.00810842 3.18725e-20)