/*--------------------------------*- C++ -*----------------------------------*\
  =========                 |
  \\      /  F ield         | OpenFOAM: The Open Source CFD Toolbox
   \\    /   O peration     | Website:  https://openfoam.org
    \\  /    A nd           | Version:  7
     \\/     M anipulation  |
\*---------------------------------------------------------------------------*/
FoamFile
{
    version     2.0;
    format      ascii;
    class       volScalarField;
    location    "15";
    object      p;
}
// * * * * * * * * * * * * * * * * * * * * * * * * * * * * * * * * * * * * * //

dimensions      [0 2 -2 0 0 0 0];

internalField   nonuniform List<scalar> 
2625
(
-0.0237493
-0.022637
-0.0215288
-0.0204216
-0.0193182
-0.0182118
-0.0171121
-0.0160028
-0.0149101
-0.0137933
-0.0127188
-0.011585
-0.0105547
-0.00938087
-0.00844953
-0.00717898
-0.00645872
-0.00496085
-0.00467697
-0.00266798
-0.003267
-0.000159919
-0.00251235
0.00284701
-0.0604147
-0.0586633
-0.056953
-0.0552828
-0.0536516
-0.0520582
-0.0505014
-0.04898
-0.0474926
-0.0460379
-0.0446145
-0.0432211
-0.0418563
-0.0405186
-0.0392066
-0.0379188
-0.0366536
-0.0354095
-0.034185
-0.0329785
-0.0317885
-0.0306134
-0.0294515
-0.0283015
-0.0271616
-0.0260305
-0.0249065
-0.0237887
-0.022675
-0.0215657
-0.0204573
-0.0193529
-0.0182457
-0.0171453
-0.0160355
-0.0149423
-0.0138255
-0.0127503
-0.0116175
-0.0105858
-0.00941486
-0.00847984
-0.00721689
-0.00648631
-0.00500802
-0.00469577
-0.0027371
-0.00326018
-0.000281545
-0.00243639
0.00260378
-0.0604925
-0.0587423
-0.0570329
-0.0553631
-0.0537319
-0.0521381
-0.0505806
-0.0490581
-0.0475694
-0.0461132
-0.0446882
-0.043293
-0.0419263
-0.0405865
-0.0392724
-0.0379823
-0.0367149
-0.0354687
-0.034242
-0.0330333
-0.0318412
-0.030664
-0.0295001
-0.0283481
-0.0272064
-0.0260735
-0.0249479
-0.0238286
-0.0227135
-0.0216028
-0.0204933
-0.0193879
-0.0182799
-0.0171786
-0.0160684
-0.0149745
-0.0138578
-0.0127819
-0.0116501
-0.0106169
-0.00944904
-0.00851017
-0.00725519
-0.00651386
-0.00505592
-0.00471432
-0.00280763
-0.00325252
-0.000405966
-0.00235804
0.0023547
-0.0605715
-0.0588228
-0.0571143
-0.0554449
-0.0538137
-0.0522195
-0.0506613
-0.0491378
-0.0476479
-0.0461902
-0.0447635
-0.0433664
-0.0419977
-0.0406558
-0.0393395
-0.0380472
-0.0367776
-0.035529
-0.0343
-0.0330891
-0.0318948
-0.0307154
-0.0295494
-0.0283954
-0.0272517
-0.0261171
-0.0249897
-0.0238688
-0.0227523
-0.0216402
-0.0205296
-0.019423
-0.0183142
-0.017212
-0.0161014
-0.0150068
-0.0138901
-0.0128135
-0.0116827
-0.0106481
-0.00948339
-0.00854048
-0.00729381
-0.00654135
-0.00510449
-0.00473264
-0.00287948
-0.00324407
-0.00053304
-0.00227746
0.00209999
-0.0606518
-0.0589047
-0.0571971
-0.0555283
-0.0538971
-0.0523026
-0.0507437
-0.0492192
-0.0477279
-0.0462687
-0.0448403
-0.0434413
-0.0420705
-0.0407265
-0.039408
-0.0381134
-0.0368414
-0.0355905
-0.0343591
-0.0331459
-0.0319493
-0.0307676
-0.0295995
-0.0284434
-0.0272977
-0.0261612
-0.025032
-0.0239094
-0.0227914
-0.0216779
-0.020566
-0.0194583
-0.0183486
-0.0172456
-0.0161344
-0.015039
-0.0139225
-0.012845
-0.0117154
-0.0106792
-0.00951785
-0.00857075
-0.00733272
-0.00656877
-0.00515366
-0.00475073
-0.00295256
-0.00323491
-0.000662604
-0.00219485
0.0018399
-0.0607333
-0.0589879
-0.0572814
-0.0556132
-0.0539821
-0.0523873
-0.0508277
-0.0493022
-0.0478096
-0.0463489
-0.0449187
-0.0435178
-0.0421449
-0.0407987
-0.0394778
-0.0381809
-0.0369064
-0.0356531
-0.0344193
-0.0332037
-0.0320046
-0.0308207
-0.0296503
-0.028492
-0.0273443
-0.0262057
-0.0250748
-0.0239504
-0.0228307
-0.0217158
-0.0206027
-0.0194938
-0.018383
-0.0172791
-0.0161674
-0.0150713
-0.0139549
-0.0128765
-0.0117481
-0.0107102
-0.00955238
-0.00860095
-0.00737186
-0.00659609
-0.00520337
-0.00476862
-0.00302677
-0.00322514
-0.000794477
-0.00211044
0.0015747
-0.0608161
-0.0590724
-0.0573672
-0.0556996
-0.0540687
-0.0524736
-0.0509133
-0.0493868
-0.0478929
-0.0464306
-0.0449986
-0.0435957
-0.0422207
-0.0408722
-0.039549
-0.0382496
-0.0369727
-0.0357168
-0.0344806
-0.0332624
-0.0320609
-0.0308746
-0.0297018
-0.0285413
-0.0273914
-0.0262508
-0.0251179
-0.0239917
-0.0228704
-0.0217539
-0.0206394
-0.0195293
-0.0184175
-0.0173126
-0.0162004
-0.0151035
-0.0139871
-0.0129079
-0.0117808
-0.0107411
-0.00958692
-0.00863103
-0.00741117
-0.0066233
-0.00525355
-0.00478632
-0.00310197
-0.00321486
-0.000928455
-0.00202445
0.00130473
-0.0609
-0.0591582
-0.0574543
-0.0557874
-0.0541568
-0.0525615
-0.0510005
-0.049473
-0.0479778
-0.0465139
-0.0450801
-0.0436752
-0.0422979
-0.0409471
-0.0396215
-0.0383196
-0.0370401
-0.0357817
-0.0345428
-0.0333221
-0.032118
-0.0309292
-0.029754
-0.0285912
-0.027439
-0.0262963
-0.0251613
-0.0240333
-0.0229102
-0.0217922
-0.0206762
-0.0195648
-0.018452
-0.017346
-0.0162333
-0.0151355
-0.0140193
-0.0129391
-0.0118133
-0.0107718
-0.00962142
-0.00866096
-0.00745058
-0.00665038
-0.0053041
-0.00480386
-0.00317806
-0.00320416
-0.00106431
-0.00193715
0.00103032
-0.060985
-0.0592453
-0.0575427
-0.0558767
-0.0542463
-0.0526508
-0.0510893
-0.0495608
-0.0480643
-0.0465988
-0.0451631
-0.0437561
-0.0423766
-0.0410234
-0.0396953
-0.0383908
-0.0371087
-0.0358476
-0.0346061
-0.0333827
-0.032176
-0.0309846
-0.0298069
-0.0286416
-0.0274871
-0.0263422
-0.0252051
-0.0240751
-0.0229502
-0.0218305
-0.0207131
-0.0196003
-0.0184865
-0.0173794
-0.016266
-0.0151673
-0.0140513
-0.0129701
-0.0118456
-0.0108023
-0.00965581
-0.00869069
-0.00749003
-0.00667731
-0.00535495
-0.00482126
-0.00325488
-0.00319318
-0.00120181
-0.00184882
0.000751886
-0.061071
-0.0593335
-0.0576325
-0.0559673
-0.0543373
-0.0527417
-0.0511796
-0.0496501
-0.0481523
-0.0466851
-0.0452475
-0.0438385
-0.0424567
-0.0411011
-0.0397704
-0.0384633
-0.0371784
-0.0359146
-0.0346703
-0.0334442
-0.0322348
-0.0310407
-0.0298604
-0.0286926
-0.0275357
-0.0263884
-0.0252492
-0.0241172
-0.0229904
-0.0218689
-0.02075
-0.0196357
-0.0185208
-0.0174125
-0.0162986
-0.015199
-0.014083
-0.0130008
-0.0118777
-0.0108325
-0.00969003
-0.00872019
-0.00752945
-0.00670406
-0.00540599
-0.00483854
-0.00333229
-0.00318203
-0.00134068
-0.00175978
0.000469846
-0.061158
-0.0594228
-0.0577234
-0.0560593
-0.0544297
-0.052834
-0.0512713
-0.0497409
-0.0482418
-0.046773
-0.0453335
-0.0439223
-0.0425382
-0.0411801
-0.0398467
-0.0385369
-0.0372493
-0.0359826
-0.0347355
-0.0335065
-0.0322943
-0.0310975
-0.0299145
-0.0287441
-0.0275847
-0.026435
-0.0252935
-0.0241594
-0.0230306
-0.0219073
-0.0207868
-0.019671
-0.0185549
-0.0174455
-0.0163309
-0.0152303
-0.0141145
-0.0130312
-0.0119096
-0.0108624
-0.00972402
-0.00874942
-0.00756876
-0.00673062
-0.00545712
-0.00485575
-0.00341013
-0.00317086
-0.00148064
-0.00167034
0.000184673
-0.0612458
-0.0595131
-0.0578155
-0.0561525
-0.0545234
-0.0529277
-0.0513645
-0.0498332
-0.0483327
-0.0468623
-0.0454209
-0.0440075
-0.042621
-0.0412603
-0.0399243
-0.0386117
-0.0373212
-0.0360516
-0.0348016
-0.0335697
-0.0323546
-0.0311549
-0.0299692
-0.028796
-0.027634
-0.0264819
-0.0253381
-0.0242017
-0.0230709
-0.0219457
-0.0208235
-0.0197062
-0.0185888
-0.0174782
-0.0163629
-0.0152613
-0.0141456
-0.0130612
-0.011941
-0.010892
-0.00975772
-0.00877833
-0.00760789
-0.00675697
-0.00550825
-0.0048729
-0.00348822
-0.0031598
-0.00162138
-0.00158086
-0.000103125
-0.0613344
-0.0596044
-0.0579087
-0.0562469
-0.0546184
-0.0530227
-0.0514591
-0.0499268
-0.0484251
-0.046953
-0.0455096
-0.044094
-0.0427051
-0.0413419
-0.0400031
-0.0386876
-0.0373942
-0.0361216
-0.0348686
-0.0336337
-0.0324156
-0.031213
-0.0300243
-0.0288484
-0.0276837
-0.026529
-0.0253828
-0.0242441
-0.0231112
-0.021984
-0.0208601
-0.0197411
-0.0186225
-0.0175105
-0.0163945
-0.0152919
-0.0141763
-0.0130908
-0.0119721
-0.0109211
-0.00979105
-0.00880687
-0.00764675
-0.00678309
-0.00555926
-0.00489004
-0.00356638
-0.00314902
-0.00176259
-0.00149171
-0.000393001
-0.0614238
-0.0596965
-0.0580029
-0.0563424
-0.0547146
-0.053119
-0.051555
-0.0500218
-0.0485188
-0.0470451
-0.0455997
-0.0441819
-0.0427905
-0.0414246
-0.040083
-0.0387646
-0.0374682
-0.0361926
-0.0349364
-0.0336984
-0.0324773
-0.0312716
-0.03008
-0.0289012
-0.0277337
-0.0265763
-0.0254276
-0.0242865
-0.0231514
-0.0220222
-0.0208964
-0.0197758
-0.0186558
-0.0175425
-0.0164258
-0.015322
-0.0142065
-0.0131199
-0.0120027
-0.0109497
-0.00982394
-0.00883501
-0.00768525
-0.00680896
-0.00561003
-0.0049072
-0.00364444
-0.00313866
-0.00190391
-0.00140326
-0.000684374
-0.0615137
-0.0597895
-0.058098
-0.0564389
-0.054812
-0.0532165
-0.0516521
-0.0501181
-0.0486138
-0.0471384
-0.0456911
-0.044271
-0.0428771
-0.0415085
-0.0401641
-0.0388427
-0.0375432
-0.0362644
-0.0350051
-0.0337639
-0.0325396
-0.0313308
-0.0301361
-0.0289543
-0.027784
-0.0266238
-0.0254725
-0.0243289
-0.0231916
-0.0220602
-0.0209325
-0.0198101
-0.0186887
-0.0175741
-0.0164565
-0.0153516
-0.0142362
-0.0131484
-0.0120327
-0.0109778
-0.00985632
-0.0088627
-0.00772333
-0.00683455
-0.00566045
-0.00492442
-0.00372219
-0.00312889
-0.00204501
-0.00131592
-0.000976623
-0.0616041
-0.059883
-0.0581939
-0.0565364
-0.0549103
-0.0533152
-0.0517504
-0.0502156
-0.04871
-0.047233
-0.0457837
-0.0443613
-0.0429649
-0.0415935
-0.0402462
-0.0389217
-0.0376191
-0.0363371
-0.0350745
-0.03383
-0.0326024
-0.0313904
-0.0301926
-0.0290077
-0.0278344
-0.0266714
-0.0255174
-0.0243713
-0.0232315
-0.022098
-0.0209683
-0.0198441
-0.0187212
-0.0176051
-0.0164867
-0.0153807
-0.0142653
-0.0131763
-0.0120621
-0.0110053
-0.00988811
-0.00888989
-0.00776087
-0.00685986
-0.0057104
-0.00494173
-0.00379943
-0.00311989
-0.00218551
-0.0012301
-0.0012691
-0.0616949
-0.0599772
-0.0582905
-0.0566347
-0.0550096
-0.0534148
-0.0518498
-0.0503142
-0.0488074
-0.0473288
-0.0458775
-0.0444527
-0.0430538
-0.0416796
-0.0403293
-0.0390017
-0.0376958
-0.0364105
-0.0351446
-0.0338968
-0.0326658
-0.0314505
-0.0302495
-0.0290614
-0.027885
-0.0267191
-0.0255622
-0.0244135
-0.0232713
-0.0221354
-0.0210038
-0.0198776
-0.0187533
-0.0176356
-0.0165164
-0.0154091
-0.0142937
-0.0132036
-0.0120909
-0.0110322
-0.00991925
-0.00891654
-0.00779781
-0.00688485
-0.00575975
-0.00495919
-0.00387596
-0.00311181
-0.00232502
-0.00114622
-0.00156111
-0.0617859
-0.0600717
-0.0583877
-0.0567338
-0.0551097
-0.0535154
-0.0519502
-0.0504139
-0.0489059
-0.0474256
-0.0459723
-0.0445452
-0.0431437
-0.0417667
-0.0404133
-0.0390826
-0.0377734
-0.0364847
-0.0352153
-0.0339641
-0.0327297
-0.031511
-0.0303066
-0.0291153
-0.0279357
-0.0267668
-0.025607
-0.0244555
-0.0233108
-0.0221726
-0.0210388
-0.0199107
-0.0187847
-0.0176655
-0.0165453
-0.0154368
-0.0143214
-0.0132301
-0.0121189
-0.0110584
-0.00994966
-0.0089426
-0.00783404
-0.0069095
-0.00580837
-0.00497681
-0.00395156
-0.00310483
-0.00246316
-0.00106472
-0.00185194
-0.061877
-0.0601666
-0.0584854
-0.0568334
-0.0552106
-0.0536167
-0.0520515
-0.0505145
-0.0490053
-0.0475234
-0.0460681
-0.0446387
-0.0432345
-0.0418546
-0.0404982
-0.0391642
-0.0378517
-0.0365595
-0.0352867
-0.0340319
-0.032794
-0.0315718
-0.0303639
-0.0291693
-0.0279865
-0.0268144
-0.0256517
-0.0244974
-0.02335
-0.0222093
-0.0210734
-0.0199432
-0.0188156
-0.0176947
-0.0165736
-0.0154638
-0.0143484
-0.0132559
-0.0121461
-0.0110838
-0.00997928
-0.00896803
-0.00786949
-0.0069338
-0.00585615
-0.00499465
-0.00402603
-0.00309913
-0.00259953
-0.000986038
-0.00214085
-0.0619681
-0.0602616
-0.0585834
-0.0569335
-0.0553121
-0.0537188
-0.0521535
-0.0506159
-0.0491056
-0.0476221
-0.0461648
-0.044733
-0.0433262
-0.0419434
-0.0405838
-0.0392466
-0.0379306
-0.036635
-0.0353585
-0.0341001
-0.0328586
-0.0316328
-0.0304215
-0.0292234
-0.0280373
-0.0268619
-0.0256961
-0.0245389
-0.0233889
-0.0222456
-0.0211074
-0.0199751
-0.0188458
-0.0177233
-0.0166011
-0.01549
-0.0143745
-0.0132808
-0.0121724
-0.0111084
-0.010008
-0.00899278
-0.00790406
-0.00695772
-0.00590295
-0.00501272
-0.00409916
-0.00309486
-0.00273371
-0.000910602
-0.00242707
-0.0620589
-0.0603566
-0.0586815
-0.057034
-0.055414
-0.0538214
-0.0522562
-0.0507181
-0.0492066
-0.0477215
-0.0462623
-0.0448282
-0.0434186
-0.0420329
-0.0406702
-0.0393296
-0.0380102
-0.0367109
-0.0354308
-0.0341688
-0.0329236
-0.0316941
-0.0304792
-0.0292775
-0.0280879
-0.0269093
-0.0257403
-0.0245801
-0.0234273
-0.0222814
-0.0211409
-0.0200064
-0.0188753
-0.017751
-0.0166277
-0.0155153
-0.0143997
-0.0133049
-0.0121978
-0.0111321
-0.0100358
-0.00901681
-0.00793767
-0.00698124
-0.00594866
-0.00503108
-0.00417073
-0.0030922
-0.00286532
-0.000838852
-0.00270983
-0.0621495
-0.0604515
-0.0587798
-0.0571347
-0.0555162
-0.0539245
-0.0523594
-0.0508208
-0.0493083
-0.0478217
-0.0463604
-0.044924
-0.0435118
-0.0421231
-0.0407572
-0.0394132
-0.0380902
-0.0367873
-0.0355035
-0.0342377
-0.0329887
-0.0317555
-0.0305369
-0.0293316
-0.0281385
-0.0269565
-0.0257843
-0.0246209
-0.0234652
-0.0223167
-0.0211737
-0.020037
-0.018904
-0.017778
-0.0166535
-0.0155398
-0.0144239
-0.013328
-0.0122222
-0.011155
-0.0100626
-0.00904007
-0.00797023
-0.00700434
-0.00599315
-0.00504973
-0.00424053
-0.00309128
-0.00299394
-0.000771212
-0.00298831
-0.0622395
-0.060546
-0.0588779
-0.0572354
-0.0556186
-0.0540279
-0.052463
-0.0509239
-0.0494105
-0.0479223
-0.0464591
-0.0450203
-0.0436054
-0.0422138
-0.0408446
-0.0394972
-0.0381707
-0.0368641
-0.0355765
-0.0343068
-0.033054
-0.031817
-0.0305946
-0.0293856
-0.0281889
-0.0270034
-0.0258278
-0.0246613
-0.0235027
-0.0223513
-0.0212058
-0.0200668
-0.0189319
-0.017804
-0.0166784
-0.0155633
-0.0144472
-0.0133501
-0.0122456
-0.0111769
-0.0100883
-0.00906253
-0.00800167
-0.00702698
-0.00603632
-0.00506871
-0.00430837
-0.00309226
-0.00311917
-0.000708097
-0.00326172
-0.0623288
-0.0606401
-0.0589757
-0.0573359
-0.0557211
-0.0541313
-0.0525668
-0.0510274
-0.049513
-0.0480234
-0.0465582
-0.0451171
-0.0436995
-0.0423049
-0.0409325
-0.0395816
-0.0382514
-0.0369411
-0.0356497
-0.0343761
-0.0331194
-0.0318785
-0.0306522
-0.0294394
-0.028239
-0.0270499
-0.025871
-0.0247012
-0.0235395
-0.0223853
-0.0212373
-0.0200959
-0.0189589
-0.0178292
-0.0167023
-0.0155858
-0.0144694
-0.0133712
-0.0122678
-0.0111978
-0.0101129
-0.00908415
-0.00803192
-0.00704915
-0.00607804
-0.00508802
-0.00437406
-0.00309527
-0.00324064
-0.000649905
-0.00352924
-0.0624173
-0.0607336
-0.0590731
-0.0574362
-0.0558234
-0.0542348
-0.0526707
-0.051131
-0.0496157
-0.0481247
-0.0466577
-0.0452142
-0.0437939
-0.0423963
-0.0410206
-0.0396662
-0.0383324
-0.0370183
-0.035723
-0.0344454
-0.0331848
-0.0319399
-0.0307096
-0.029493
-0.0282889
-0.0270961
-0.0259137
-0.0247406
-0.0235758
-0.0224186
-0.0212679
-0.0201241
-0.0189851
-0.0178534
-0.0167252
-0.0156072
-0.0144905
-0.0133912
-0.012289
-0.0112177
-0.0101363
-0.00910488
-0.0080609
-0.00707081
-0.00611823
-0.00510769
-0.00443742
-0.00310041
-0.00335795
-0.000597011
-0.00379006
-0.0625048
-0.0608263
-0.0591698
-0.057536
-0.0559253
-0.054338
-0.0527744
-0.0512346
-0.0497185
-0.0482261
-0.0467572
-0.0453114
-0.0438885
-0.0424878
-0.0411089
-0.039751
-0.0384135
-0.0370955
-0.0357962
-0.0345147
-0.03325
-0.0320011
-0.0307669
-0.0295463
-0.0283383
-0.0271419
-0.0259558
-0.0247794
-0.0236113
-0.0224512
-0.0212978
-0.0201514
-0.0190103
-0.0178767
-0.0167471
-0.0156276
-0.0145105
-0.0134101
-0.0123089
-0.0112365
-0.0101585
-0.00912469
-0.00808855
-0.00709195
-0.00615678
-0.00512771
-0.00449827
-0.0031078
-0.00347077
-0.000549762
-0.00404339
-0.0625911
-0.0609179
-0.0592657
-0.0576352
-0.0560267
-0.0544409
-0.0528779
-0.0513379
-0.0498211
-0.0483274
-0.0468567
-0.0454087
-0.043983
-0.0425794
-0.0411971
-0.0398357
-0.0384945
-0.0371727
-0.0358694
-0.0345839
-0.0333151
-0.032062
-0.0308238
-0.0295992
-0.0283873
-0.0271871
-0.0259974
-0.0248175
-0.0236462
-0.022483
-0.0213268
-0.0201778
-0.0190346
-0.0178989
-0.0167679
-0.0156469
-0.0145294
-0.0134279
-0.0123276
-0.0112542
-0.0101794
-0.00914356
-0.00811481
-0.00711252
-0.00619361
-0.00514808
-0.00455646
-0.00311751
-0.00357874
-0.000508475
-0.00428844
-0.0626759
-0.0610084
-0.0593606
-0.0577335
-0.0561274
-0.0545431
-0.0529809
-0.0514409
-0.0499235
-0.0484285
-0.046956
-0.0455057
-0.0440775
-0.0426708
-0.0412853
-0.0399204
-0.0385754
-0.0372497
-0.0359424
-0.0346528
-0.0333798
-0.0321227
-0.0308803
-0.0296517
-0.0284358
-0.0272317
-0.0260384
-0.0248549
-0.0236803
-0.022514
-0.0213549
-0.0202033
-0.0190578
-0.0179201
-0.0167875
-0.0156651
-0.014547
-0.0134445
-0.0123451
-0.0112707
-0.010199
-0.00916144
-0.00813965
-0.00713251
-0.00622865
-0.00516878
-0.00461185
-0.00312959
-0.00368155
-0.000473431
-0.00452444
-0.0627593
-0.0610975
-0.0594543
-0.0578307
-0.0562273
-0.0546446
-0.0530832
-0.0515433
-0.0500253
-0.0485291
-0.0470549
-0.0456024
-0.0441716
-0.0427619
-0.0413731
-0.0400047
-0.038656
-0.0373263
-0.036015
-0.0347213
-0.0334442
-0.0321828
-0.0309363
-0.0297036
-0.0284837
-0.0272758
-0.0260786
-0.0248916
-0.0237135
-0.0225441
-0.0213821
-0.0202279
-0.01908
-0.0179402
-0.0168061
-0.0156821
-0.0145635
-0.01346
-0.0123614
-0.0112861
-0.0102173
-0.00917833
-0.00816302
-0.00715189
-0.00626183
-0.0051898
-0.00466433
-0.00314408
-0.00377893
-0.000444865
-0.00475066
-0.0628408
-0.061185
-0.0595467
-0.0579267
-0.0563259
-0.0547451
-0.0531846
-0.0516449
-0.0501264
-0.0486291
-0.0471532
-0.0456986
-0.0442652
-0.0428526
-0.0414605
-0.0400885
-0.0387361
-0.0374025
-0.0360872
-0.0347893
-0.033508
-0.0322425
-0.0309918
-0.0297549
-0.028531
-0.0273191
-0.0261182
-0.0249274
-0.023746
-0.0225733
-0.0214084
-0.0202514
-0.0191012
-0.0179592
-0.0168235
-0.015698
-0.0145788
-0.0134743
-0.0123763
-0.0113004
-0.0102342
-0.00919419
-0.00818489
-0.00717062
-0.00629311
-0.0052111
-0.00471378
-0.00316099
-0.00387061
-0.00042297
-0.00496642
-0.0629205
-0.0612708
-0.0596373
-0.0580212
-0.0564233
-0.0548443
-0.0532849
-0.0517455
-0.0502265
-0.0487283
-0.0472508
-0.0457941
-0.0443581
-0.0429426
-0.0415473
-0.0401718
-0.0388156
-0.0374782
-0.0361588
-0.0348567
-0.0335713
-0.0323015
-0.0310466
-0.0298055
-0.0285775
-0.0273616
-0.0261569
-0.0249625
-0.0237775
-0.0226015
-0.0214337
-0.0202739
-0.0191213
-0.0179772
-0.0168398
-0.0157128
-0.0145928
-0.0134873
-0.01239
-0.0113135
-0.0102498
-0.00920902
-0.00820525
-0.00718868
-0.00632245
-0.00523265
-0.00476013
-0.0031803
-0.00395638
-0.000407887
-0.00517104
-0.062998
-0.0613546
-0.0597262
-0.0581141
-0.0565191
-0.0549421
-0.0533838
-0.0518448
-0.0503256
-0.0488263
-0.0473473
-0.0458886
-0.0444501
-0.0430317
-0.0416333
-0.0402543
-0.0388944
-0.037553
-0.0362296
-0.0349234
-0.0336337
-0.0323597
-0.0311006
-0.0298554
-0.0286233
-0.0274033
-0.0261947
-0.0249966
-0.0238082
-0.0226289
-0.0214579
-0.0202954
-0.0191404
-0.017994
-0.016855
-0.0157264
-0.0146057
-0.0134993
-0.0124024
-0.0113255
-0.010264
-0.0092228
-0.00822409
-0.00720605
-0.00634982
-0.00525439
-0.00480333
-0.00320195
-0.00403606
-0.000399704
-0.00536394
-0.0630733
-0.0614362
-0.0598131
-0.058205
-0.0566131
-0.0550383
-0.0534812
-0.0519427
-0.0504232
-0.0489231
-0.0474426
-0.0459819
-0.044541
-0.0431198
-0.0417182
-0.0403358
-0.0389722
-0.037627
-0.0362995
-0.0349892
-0.0336953
-0.0324171
-0.0311537
-0.0299043
-0.0286681
-0.0274442
-0.0262316
-0.0250298
-0.0238378
-0.0226552
-0.0214812
-0.0203158
-0.0191584
-0.0180097
-0.016869
-0.0157388
-0.0146173
-0.01351
-0.0124136
-0.0113362
-0.0102769
-0.00923554
-0.0082414
-0.00722269
-0.00637522
-0.00527627
-0.00484333
-0.00322589
-0.00410951
-0.00039845
-0.00554456
-0.0631461
-0.0615156
-0.0598977
-0.0582939
-0.0567051
-0.0551325
-0.0535768
-0.0520389
-0.0505192
-0.0490183
-0.0475364
-0.0460738
-0.0446306
-0.0432066
-0.0418019
-0.0404161
-0.0390489
-0.0376999
-0.0363684
-0.035054
-0.0337559
-0.0324735
-0.0312059
-0.0299523
-0.028712
-0.027484
-0.0262676
-0.025062
-0.0238665
-0.0226805
-0.0215035
-0.0203352
-0.0191753
-0.0180244
-0.0168819
-0.0157501
-0.0146278
-0.0135196
-0.0124235
-0.0113459
-0.0102884
-0.00924723
-0.00825721
-0.00723858
-0.00639865
-0.00529821
-0.00488012
-0.00325199
-0.00417662
-0.000404097
-0.00571241
-0.0632163
-0.0615924
-0.0599799
-0.0583804
-0.0567949
-0.0552245
-0.0536703
-0.052133
-0.0506133
-0.0491116
-0.0476285
-0.0461641
-0.0447185
-0.0432919
-0.0418842
-0.0404951
-0.0391243
-0.0377714
-0.0364361
-0.0351176
-0.0338154
-0.0325288
-0.031257
-0.0299993
-0.0287548
-0.0275228
-0.0263025
-0.0250932
-0.0238941
-0.0227048
-0.0215247
-0.0203536
-0.0191911
-0.018038
-0.0168937
-0.0157604
-0.0146371
-0.013528
-0.0124322
-0.0113544
-0.0102987
-0.00925789
-0.00827153
-0.0072537
-0.00642013
-0.00532015
-0.00491371
-0.00328013
-0.00423734
-0.000416555
-0.00586707
-0.0632838
-0.0616665
-0.0600595
-0.0584643
-0.0568821
-0.0553142
-0.0537615
-0.0522249
-0.0507052
-0.0492029
-0.0477186
-0.0462524
-0.0448047
-0.0433755
-0.0419648
-0.0405724
-0.0391981
-0.0378415
-0.0365023
-0.0351798
-0.0338735
-0.0325828
-0.0313068
-0.030045
-0.0287965
-0.0275605
-0.0263363
-0.0251233
-0.0239207
-0.022728
-0.0215448
-0.0203709
-0.0192059
-0.0180506
-0.0169045
-0.0157695
-0.0146454
-0.0135354
-0.0124398
-0.0113619
-0.0103077
-0.00926753
-0.00828441
-0.00726804
-0.00643969
-0.00534201
-0.00494414
-0.00331015
-0.00429165
-0.000435669
-0.0060082
-0.0633483
-0.0617377
-0.0601362
-0.0585454
-0.0569666
-0.0554012
-0.0538501
-0.0523143
-0.0507947
-0.0492919
-0.0478064
-0.0463386
-0.0448888
-0.043457
-0.0420434
-0.0406479
-0.0392702
-0.03791
-0.0365669
-0.0352405
-0.0339302
-0.0326354
-0.0313553
-0.0300894
-0.0288369
-0.027597
-0.026369
-0.0251523
-0.0239462
-0.0227502
-0.0215639
-0.0203872
-0.0192197
-0.0180621
-0.0169142
-0.0157777
-0.0146526
-0.0135418
-0.0124462
-0.0113683
-0.0103155
-0.00927618
-0.00829589
-0.00728157
-0.00645738
-0.00536369
-0.00497145
-0.00334185
-0.00433959
-0.000461225
-0.00613552
-0.0634098
-0.0618058
-0.0602099
-0.0586235
-0.0570482
-0.0554852
-0.0539358
-0.0524009
-0.0508815
-0.0493782
-0.0478916
-0.0464223
-0.0449704
-0.0435363
-0.0421199
-0.0407213
-0.0393402
-0.0379765
-0.0366297
-0.0352995
-0.0339852
-0.0326864
-0.0314024
-0.0301325
-0.028876
-0.0276322
-0.0264005
-0.0251801
-0.0239705
-0.0227713
-0.021582
-0.0204024
-0.0192325
-0.0180726
-0.0169229
-0.0157848
-0.0146587
-0.0135472
-0.0124516
-0.0113737
-0.0103222
-0.00928387
-0.00830602
-0.00729428
-0.00647325
-0.00538511
-0.00499573
-0.00337502
-0.00438121
-0.000492942
-0.00624883
-0.0634681
-0.0618707
-0.0602802
-0.0586983
-0.0571264
-0.055566
-0.0540183
-0.0524844
-0.0509652
-0.0494615
-0.047974
-0.0465032
-0.0450494
-0.043613
-0.0421939
-0.0407923
-0.039408
-0.0380409
-0.0366905
-0.0353565
-0.0340384
-0.0327357
-0.0314478
-0.0301739
-0.0289136
-0.027666
-0.0264306
-0.0252067
-0.0239937
-0.0227913
-0.0215989
-0.0204166
-0.0192442
-0.0180822
-0.0169307
-0.0157911
-0.014664
-0.0135516
-0.0124561
-0.0113782
-0.0103277
-0.00929063
-0.00831487
-0.00730617
-0.00648738
-0.00540615
-0.00501706
-0.00340943
-0.00441663
-0.000530478
-0.00634801
-0.063523
-0.0619322
-0.0603472
-0.0587696
-0.0572012
-0.0556433
-0.0540974
-0.0525645
-0.0510456
-0.0495416
-0.0480532
-0.046581
-0.0451255
-0.0436868
-0.0422652
-0.0408607
-0.0394733
-0.0381029
-0.036749
-0.0354114
-0.0340896
-0.0327831
-0.0314914
-0.0302138
-0.0289496
-0.0276984
-0.0264594
-0.025232
-0.0240157
-0.0228101
-0.0216149
-0.0204299
-0.019255
-0.0180908
-0.0169376
-0.0157965
-0.0146684
-0.0135553
-0.0124596
-0.0113819
-0.0103323
-0.00929651
-0.00832252
-0.00731723
-0.00649984
-0.00542672
-0.00503554
-0.00344479
-0.004446
-0.000573428
-0.00643305
-0.0635745
-0.0619901
-0.0604104
-0.0588372
-0.0572722
-0.0557169
-0.0541727
-0.0526408
-0.0511223
-0.0496181
-0.0481289
-0.0466554
-0.0451982
-0.0437574
-0.0423334
-0.0409262
-0.0395358
-0.0381622
-0.036805
-0.0354639
-0.0341385
-0.0328284
-0.031533
-0.0302517
-0.028984
-0.0277292
-0.0264867
-0.0252559
-0.0240364
-0.0228278
-0.0216297
-0.0204421
-0.0192649
-0.0180986
-0.0169436
-0.015801
-0.0146719
-0.0135581
-0.0124623
-0.0113848
-0.010336
-0.00930157
-0.00832904
-0.00732746
-0.00651072
-0.00544672
-0.00505131
-0.00348083
-0.00446952
-0.000621323
-0.006504
-0.0636225
-0.0620443
-0.0604698
-0.0589008
-0.0573391
-0.0557863
-0.0542439
-0.052713
-0.0511949
-0.0496905
-0.0482007
-0.0467261
-0.0452672
-0.0438245
-0.0423982
-0.0409884
-0.0395953
-0.0382186
-0.0368582
-0.0355138
-0.034185
-0.0328714
-0.0315725
-0.0302877
-0.0290165
-0.0277583
-0.0265124
-0.0252785
-0.0240559
-0.0228443
-0.0216435
-0.0204533
-0.0192739
-0.0181055
-0.0169488
-0.0158049
-0.0146748
-0.0135602
-0.0124643
-0.0113869
-0.0103389
-0.00930586
-0.00833452
-0.00733686
-0.0065201
-0.00546602
-0.0050645
-0.00351723
-0.0044874
-0.000673635
-0.00656101
-0.0636668
-0.0620946
-0.060525
-0.0589601
-0.0574017
-0.0558513
-0.0543106
-0.0527808
-0.0512632
-0.0497587
-0.0482683
-0.0467926
-0.0453322
-0.0438877
-0.0424592
-0.0410471
-0.0396513
-0.0382717
-0.0369083
-0.0355608
-0.0342288
-0.0329119
-0.0316097
-0.0303216
-0.0290471
-0.0277856
-0.0265366
-0.0252995
-0.024074
-0.0228596
-0.0216562
-0.0204636
-0.019282
-0.0181117
-0.0169534
-0.015808
-0.014677
-0.0135618
-0.0124656
-0.0113884
-0.010341
-0.00930945
-0.00833905
-0.00734545
-0.00652809
-0.00548453
-0.00507525
-0.00355365
-0.00449991
-0.000729768
-0.00660432
-0.0637073
-0.0621408
-0.060576
-0.059015
-0.0574596
-0.0559117
-0.0543726
-0.0528439
-0.0513267
-0.0498222
-0.0483312
-0.0468546
-0.0453929
-0.0439466
-0.0425162
-0.0411018
-0.0397035
-0.0383213
-0.0369551
-0.0356047
-0.0342697
-0.0329497
-0.0316443
-0.0303531
-0.0290755
-0.0278109
-0.0265589
-0.025319
-0.0240907
-0.0228737
-0.0216677
-0.0204729
-0.0192892
-0.0181171
-0.0169572
-0.0158106
-0.0146786
-0.0135628
-0.0124664
-0.0113894
-0.0103425
-0.0093124
-0.00834272
-0.00735322
-0.00653478
-0.00550211
-0.00508371
-0.00358974
-0.00450735
-0.000789056
-0.00663429
-0.063744
-0.0621827
-0.0606224
-0.0590651
-0.0575126
-0.0559669
-0.0544295
-0.0529018
-0.0513851
-0.0498805
-0.0483891
-0.0469116
-0.0454487
-0.0440009
-0.0425687
-0.0411522
-0.0397517
-0.038367
-0.0369983
-0.0356451
-0.0343073
-0.0329845
-0.0316762
-0.0303821
-0.0291016
-0.0278342
-0.0265794
-0.0253368
-0.0241059
-0.0228864
-0.0216782
-0.0204812
-0.0192956
-0.0181218
-0.0169605
-0.0158127
-0.0146798
-0.0135634
-0.0124668
-0.01139
-0.0103434
-0.00931478
-0.00834564
-0.00736019
-0.00654027
-0.00551864
-0.00509004
-0.00362511
-0.00451005
-0.00085076
-0.00665137
-0.0637766
-0.0622203
-0.0606641
-0.0591101
-0.0575604
-0.0560168
-0.0544808
-0.0529541
-0.0514379
-0.0499333
-0.0484415
-0.0469633
-0.0454993
-0.0440502
-0.0426163
-0.041198
-0.0397954
-0.0384085
-0.0370374
-0.0356818
-0.0343414
-0.033016
-0.0317052
-0.0304084
-0.0291253
-0.0278553
-0.0265979
-0.0253528
-0.0241196
-0.0228979
-0.0216876
-0.0204886
-0.0193012
-0.0181259
-0.0169632
-0.0158143
-0.0146806
-0.0135636
-0.0124668
-0.0113902
-0.0103439
-0.00931666
-0.00834789
-0.00736637
-0.00654466
-0.005534
-0.0050944
-0.00365934
-0.00450838
-0.000914087
-0.00665613
-0.0638052
-0.0622532
-0.0607007
-0.0591498
-0.0576026
-0.0560608
-0.0545263
-0.0530004
-0.0514847
-0.0499802
-0.048488
-0.0470091
-0.0455442
-0.0440939
-0.0426586
-0.0412386
-0.0398342
-0.0384454
-0.0370721
-0.0357143
-0.0343717
-0.033044
-0.0317308
-0.0304317
-0.0291462
-0.0278739
-0.0266143
-0.025367
-0.0241317
-0.0229079
-0.0216957
-0.020495
-0.0193061
-0.0181293
-0.0169654
-0.0158155
-0.014681
-0.0135636
-0.0124665
-0.0113901
-0.0103441
-0.00931813
-0.00834956
-0.00737177
-0.00654804
-0.00554805
-0.00509695
-0.003692
-0.00450272
-0.000978209
-0.0066493
-0.0638294
-0.0622814
-0.0607321
-0.0591839
-0.0576388
-0.0560987
-0.0545654
-0.0530403
-0.051525
-0.0500206
-0.0485282
-0.0470487
-0.045583
-0.0441316
-0.0426951
-0.0412737
-0.0398677
-0.0384772
-0.0371022
-0.0357425
-0.0343979
-0.0330682
-0.031753
-0.0304518
-0.0291643
-0.02789
-0.0266284
-0.0253792
-0.024142
-0.0229165
-0.0217027
-0.0205005
-0.0193101
-0.0181321
-0.0169672
-0.0158164
-0.0146813
-0.0135634
-0.0124661
-0.0113899
-0.0103441
-0.00931923
-0.00835075
-0.00737639
-0.00655051
-0.00556063
-0.00509788
-0.00372252
-0.00449361
-0.00104187
-0.00663204
-0.0638493
-0.0623045
-0.0607579
-0.059212
-0.0576687
-0.05613
-0.0545977
-0.0530734
-0.0515584
-0.050054
-0.0485614
-0.0470815
-0.0456152
-0.0441629
-0.0427254
-0.0413028
-0.0398956
-0.0385036
-0.0371271
-0.0357659
-0.0344197
-0.0330883
-0.0317714
-0.0304685
-0.0291793
-0.0279033
-0.0266401
-0.0253893
-0.0241506
-0.0229236
-0.0217084
-0.0205049
-0.0193134
-0.0181344
-0.0169686
-0.015817
-0.0146814
-0.0135631
-0.0124657
-0.0113896
-0.0103439
-0.00932004
-0.00835154
-0.00738023
-0.00655217
-0.00557151
-0.00509748
-0.00375008
-0.0044822
-0.00110226
-0.00660651
-0.0638647
-0.0623223
-0.0607779
-0.0592337
-0.0576919
-0.0561543
-0.0546228
-0.053099
-0.0515843
-0.05008
-0.0485873
-0.047107
-0.0456402
-0.0441873
-0.0427489
-0.0413255
-0.0399172
-0.0385242
-0.0371465
-0.035784
-0.0344366
-0.0331039
-0.0317857
-0.0304815
-0.029191
-0.0279137
-0.0266492
-0.0253971
-0.0241572
-0.0229291
-0.0217128
-0.0205083
-0.0193159
-0.0181361
-0.0169696
-0.0158174
-0.0146814
-0.0135629
-0.0124653
-0.0113893
-0.0103437
-0.00932062
-0.008352
-0.00738325
-0.0065531
-0.00558048
-0.00509596
-0.00377399
-0.00446937
-0.00115733
-0.00657372
-0.0638752
-0.0623346
-0.0607917
-0.0592487
-0.0577079
-0.0561711
-0.0546401
-0.0531167
-0.0516022
-0.050098
-0.0486051
-0.0471247
-0.0456575
-0.0442041
-0.0427652
-0.0413412
-0.0399322
-0.0385384
-0.0371599
-0.0357966
-0.0344483
-0.0331147
-0.0317956
-0.0304905
-0.029199
-0.0279208
-0.0266555
-0.0254025
-0.0241618
-0.0229329
-0.0217158
-0.0205107
-0.0193176
-0.0181372
-0.0169702
-0.0158177
-0.0146813
-0.0135626
-0.0124649
-0.011389
-0.0103434
-0.00932102
-0.00835212
-0.00738561
-0.006553
-0.00558808
-0.00509185
-0.00379693
-0.00444853
-0.00122283
-0.00652324
-0.0638807
-0.062341
-0.0607988
-0.0592565
-0.0577162
-0.0561798
-0.0546491
-0.0531259
-0.0516115
-0.0501073
-0.0486144
-0.0471338
-0.0456664
-0.0442129
-0.0427737
-0.0413493
-0.03994
-0.0385458
-0.0371669
-0.0358031
-0.0344543
-0.0331203
-0.0318007
-0.0304951
-0.0292032
-0.0279245
-0.0266587
-0.0254053
-0.0241641
-0.0229348
-0.0217174
-0.0205119
-0.0193185
-0.0181378
-0.0169705
-0.0158178
-0.0146813
-0.0135625
-0.0124647
-0.0113889
-0.0103432
-0.00932137
-0.00835177
-0.0073876
-0.00655119
-0.00559565
-0.00508191
-0.00382522
-0.00440366
-0.00133665
-0.00643722
)
;

boundaryField
{
    inlet
    {
        type            zeroGradient;
    }
    outlet
    {
        type            fixedValue;