/*--------------------------------*- C++ -*----------------------------------*\
  =========                 |
  \\      /  F ield         | OpenFOAM: The Open Source CFD Toolbox
   \\    /   O peration     | Website:  https://openfoam.org
    \\  /    A nd           | Version:  7
     \\/     M anipulation  |
\*---------------------------------------------------------------------------*/
FoamFile
{
    version     2.0;
    format      ascii;
    class       volScalarField;
    location    "10";
    object      p;
}
// * * * * * * * * * * * * * * * * * * * * * * * * * * * * * * * * * * * * * //

dimensions      [0 2 -2 0 0 0 0];

internalField   nonuniform List<scalar> 
657
(
-0.0512691
-0.0618987
-0.048352
-0.0587117
-0.0687311
-0.0783857
-0.0876531
-0.0454409
-0.0555312
-0.0653058
-0.074742
-0.0838198
-0.0925224
-0.100837
-0.108757
-0.0425498
-0.0523694
-0.0618959
-0.0711087
-0.0799896
-0.0885239
-0.0967008
-0.104514
-0.111966
-0.0396858
-0.0492358
-0.0585141
-0.067502
-0.076183
-0.0845441
-0.0925761
-0.100275
-0.107642
-0.114689
-0.121434
-0.0368534
-0.0461359
-0.0551669
-0.0639291
-0.0724076
-0.0805908
-0.0884706
-0.0960438
-0.103313
-0.110288
-0.116986
-0.123437
-0.0340572
-0.0430749
-0.0518596
-0.0603955
-0.0686689
-0.0766691
-0.0843891
-0.0918261
-0.0989826
-0.105867
-0.112496
-0.118895
-0.125099
-0.131158
-0.0313022
-0.0400579
-0.0485978
-0.0569072
-0.0649733
-0.0727862
-0.0803394
-0.0876304
-0.0946612
-0.101439
-0.107979
-0.114301
-0.120437
-0.126427
-0.132323
-0.028593
-0.0370902
-0.0453874
-0.0534706
-0.0613278
-0.0689498
-0.0763302
-0.0834665
-0.09036
-0.0970169
-0.103449
-0.109674
-0.115718
-0.121612
-0.1274
-0.133133
-0.138894
-0.0259342
-0.0341769
-0.0422339
-0.050092
-0.0577396
-0.0651677
-0.0723703
-0.0793442
-0.0860903
-0.0926131
-0.0989221
-0.105032
-0.110962
-0.11674
-0.122398
-0.127978
-0.13354
-0.13905
-0.0233307
-0.0313234
-0.0391433
-0.0467778
-0.0542156
-0.061448
-0.0684686
-0.075274
-0.0818639
-0.0882417
-0.0944143
-0.100393
-0.106193
-0.111836
-0.117347
-0.122758
-0.128111
-0.133374
-0.0207872
-0.028535
-0.0361216
-0.0435347
-0.0507634
-0.0577989
-0.0646346
-0.0712666
-0.0776935
-0.0839172
-0.0899425
-0.0957778
-0.101435
-0.106929
-0.112279
-0.11751
-0.122649
-0.127672
-0.0183091
-0.0258174
-0.033175
-0.0403698
-0.0473908
-0.0542293
-0.0608784
-0.0673335
-0.0735923
-0.0796551
-0.0855248
-0.0912071
-0.0967103
-0.102045
-0.107226
-0.112271
-0.117195
-0.121985
-0.0159019
-0.0231769
-0.0303104
-0.0372904
-0.0441062
-0.0507487
-0.0572107
-0.0634869
-0.0695742
-0.0754714
-0.0811797
-0.0867025
-0.092045
-0.0972148
-0.102221
-0.107076
-0.111789
-0.116354
-0.0135716
-0.0206199
-0.0275349
-0.0343047
-0.0409186
-0.0473671
-0.0536428
-0.0597398
-0.065654
-0.071383
-0.0769266
-0.0822859
-0.0874641
-0.0924654
-0.0972958
-0.101963
-0.10647
-0.110819
-0.0113249
-0.0181537
-0.0248565
-0.0314214
-0.0378376
-0.0440954
-0.050187
-0.0561059
-0.0618472
-0.0674077
-0.0727855
-0.0779803
-0.0829931
-0.087826
-0.0924821
-0.0969654
-0.101277
-0.10542
-0.00916892
-0.0157863
-0.022284
-0.0286501
-0.0348738
-0.0409453
-0.0468564
-0.0526
-0.0581706
-0.063564
-0.0687773
-0.073809
-0.0786583
-0.0833256
-0.0878119
-0.0921186
-0.0962457
-0.100196
-0.00711174
-0.0135263
-0.0198267
-0.0260013
-0.0320389
-0.0379297
-0.0436651
-0.0492377
-0.0546414
-0.0598713
-0.0649237
-0.0697958
-0.0744859
-0.078993
-0.0833165
-0.0874563
-0.0914115
-0.0951846
-0.00516219
-0.0113833
-0.0174953
-0.0234863
-0.0293453
-0.0350623
-0.0406284
-0.046036
-0.0512784
-0.0563502
-0.0612471
-0.0659655
-0.0705028
-0.0748572
-0.079027
-0.0830112
-0.0868086
-0.0904204
-0.00333016
-0.00936816
-0.0153014
-0.021118
-0.026807
-0.0323583
-0.0377629
-0.0430129
-0.0481013
-0.0530223
-0.057771
-0.0623435
-0.0667366
-0.0709476
-0.0749746
-0.0788158
-0.0824702
-0.0859378
-0.0016267
-0.00749279
-0.0132579
-0.0189104
-0.0244392
-0.0298343
-0.0350866
-0.040188
-0.0451313
-0.0499105
-0.0545203
-0.0589564
-0.0632154
-0.0672942
-0.0711906
-0.0749026
-0.0784294
-0.0817701
-6.42851e-05
-0.00577067
-0.0113795
-0.0168793
-0.022259
-0.0275087
-0.0326193
-0.0375826
-0.0423914
-0.0470393
-0.0515211
-0.0558322
-0.0599688
-0.063928
-0.0677072
-0.0713047
-0.0747196
-0.0779507
0.00134288
-0.0042171
-0.00968263
-0.0150423
-0.0202853
-0.0254019
-0.0303829
-0.0352202
-0.0399065
-0.0444356
-0.0488019
-0.0530008
-0.0570284
-0.0608818
-0.0645585
-0.0680567
-0.0713758
-0.0745146
0.00257846
-0.00284961
-0.00818603
-0.0134196
-0.0185397
-0.0235368
-0.0284019
-0.0331269
-0.0377046
-0.0421286
-0.0463936
-0.0504947
-0.0544282
-0.0581911
-0.0617809
-0.065196
-0.0684359
-0.0714996
0.00362333
-0.00168875
-0.00691174
-0.0120347
-0.0170474
-0.0219403
-0.0267047
-0.0313327
-0.0358172
-0.0401518
-0.0443312
-0.0483507
-0.0522064
-0.0558953
-0.0594151
-0.0627643
-0.0659422
-0.0689482
0.00445548
-0.000758227
-0.0058853
-0.010915
-0.0158375
-0.0206436
-0.0253247
-0.0298731
-0.0342819
-0.0385448
-0.0426564
-0.0466122
-0.0504082
-0.0540414
-0.0575096
-0.060811
-0.0639451
-0.0669113
0.00505024
-8.34757e-05
-0.00513256
-0.010087
-0.0149372
-0.0196746
-0.0242909
-0.0287787
-0.0331311
-0.0373421
-0.0414063
-0.0453191
-0.0490765
-0.0526753
-0.0561132
-0.0593883
-0.0624996
-0.0654466
0.00536392
0.000289359
-0.0047016
-0.00960022
-0.0143978
-0.0190858
-0.0236566
-0.0281029
-0.0324183
-0.0365967
-0.0406331
-0.0445228
-0.048262
-0.0518475
-0.0552765
-0.0585473
-0.0616586
-0.0646096
-0.0290121
-0.0402944
0.00763608
-0.00400573
-0.0154885
-0.0267092
-0.0376728
0.0319495
0.0203559
0.00889978
-0.00234427
-0.0135105
-0.0244032
-0.0350539
0.043752
0.0324448
0.0212361
0.0101479
-0.000827622
-0.0115526
-0.0221143
-0.0324549
0.0438619
0.0329438
0.0221137
0.0113952
0.000792914
-0.00960709
-0.0198476
-0.0298807
0.0439886
0.0334516
0.0229929
0.0126361
0.0023969
-0.00768312
-0.0176054
-0.0273349
0.0441335
0.0339687
0.0238729
0.0138681
0.00397224
-0.0057836
-0.0153911
-0.0248215
0.0442962
0.0344941
0.0247519
0.0150904
0.00552762
-0.00390903
-0.0132082
-0.022345
0.0444764
0.0350266
0.0256283
0.016301
0.00706289
-0.00206206
-0.0110603
-0.0199095
0.0446733
0.0355652
0.0265005
0.0174977
0.00857496
-0.000246214
-0.00895115
-0.0175191
0.0448859
0.0361082
0.0273662
0.0186779
0.0100608
0.00153499
-0.00688454
-0.0151782
0.0451125
0.0366535
0.0282232
0.0198388
0.0115174
0.00327791
-0.00486451
-0.0128912
0.0453512
0.0371989
0.0290687
0.0209771
0.0129411
0.00497863
-0.00289537
-0.0106628
0.0455995
0.0377415
0.0298994
0.0220895
0.0143281
0.00663284
-0.000981795
-0.00849818
0.0458548
0.0382781
0.0307118
0.0231718
0.0156742
0.00823586
0.000871119
-0.00640278
0.0461139
0.0388052
0.031502
0.0242199
0.0169746
0.00978254
0.00265779
-0.00438269
0.0463732
0.0393188
0.0322657
0.0252289
0.0182241
0.0112672
0.00437208
-0.00244459
0.0466288
0.0398146
0.0329979
0.0261936
0.0194169
0.0126836
0.0060072
-0.000595826
0.0468765
0.0402877
0.0336933
0.027108
0.0205466
0.0140248
0.00755562
0.00115543
0.0471113
0.0407326
0.0343459
0.0279656
0.0216062
0.0152831
0.00900895
0.00280008
0.0534886
0.0473279
0.0411434
0.0349491
0.028759
0.0225876
0.0164498
0.0103578
0.0043279
0.0535023
0.04752
0.0415132
0.0354953
0.0294801
0.0234817
0.0175149
0.0115914
0.00572735
0.0535028
0.047681
0.0418343
0.0359758
0.0301192
0.0242783
0.0184674
0.0126976
0.00698524
0.0534835
0.0478028
0.0420976
0.0363808
0.0306655
0.0249653
0.0192942
0.0136623
0.00808641
0.053437
0.0478769
0.0422934
0.0366989
0.0311063
0.0255288
0.01998
0.014469
0.00901302
0.0533571
0.0478953
0.0424118
0.0369188
0.0314287
0.025954
0.0205082
0.0150989
0.00974465
0.0532231
0.0478356
0.0424294
0.0370163
0.0316085
0.0262193
0.0208638
0.0155317
0.0102581
0.0530106
0.0476711
0.0423167
0.0369584
0.0316072
0.0262718
0.0209588
0.0157166
0.0105119
)
;

boundaryField
{
    inlet
    {
        type            zeroGradient;
    }
    outlet
    {
        type            fixedValue;
        value           nonuniform 0();
    }
    cylinder
    {
        type            zeroGradient;
    }
    top
    {
        type            symmetryPlane;
    }
    bottom
    {
        type            symmetryPlane;
    }
    defaultFaces
    {
        type            empty;
    }
    procBoundary13to9
    {
        type            processor;
        value           nonuniform List<scalar> 
38
(
-0.0541941
-0.0651149
-0.0721603
-0.0721603
-0.0820261
-0.0914708
-0.0965143
-0.0965143
-0.104954
-0.112964
-0.11628
-0.11628
-0.119066
-0.119066
-0.125834
-0.12791
-0.12791
-0.129683
-0.129683
-0.135781
-0.137136
-0.137136
-0.138189
-0.138189
-0.144131
-0.14466
-0.14466
-0.0312822
-0.0429032
0.00640332
-0.00562932
-0.0174517
-0.0174517
0.0314596
0.0194745
0.0194745
0.0436522
0.0436522
)
;
    }
    procBoundary13to12
    {
        type            processor;
        value           nonuniform List<scalar> 
26
(
0.0551332
0.0548452
0.0545822
0.0543467
0.0541389
0.0539591
0.053807
0.0536822
0.0535835
0.0535093
0.0534578
0.0534266
0.053413
0.0534139
0.0534261
0.0534455
0.0534679
0.0534679
0.0596124
0.0594468
0.0592869
0.0591272
0.0589615
0.0587855
0.0585806
0.0583244
)
;
    }
    procBoundary13to14
    {
        type            processor;
        value           nonuniform List<scalar> 
19
(
-0.144723
-0.138799
-0.13282
-0.126844
-0.120924
-0.115112
-0.109456
-0.103999
-0.0987807
-0.0938379
-0.0892033
-0.0849081
-0.0809833
-0.0774617
-0.0743794
-0.0717779
-0.069708
-0.068229
-0.0674004
)
;
    }
}


// ************************************************************************* //
