/*--------------------------------*- C++ -*----------------------------------*\
  =========                 |
  \\      /  F ield         | OpenFOAM: The Open Source CFD Toolbox
   \\    /   O peration     | Website:  https://openfoam.org
    \\  /    A nd           | Version:  7
     \\/     M anipulation  |
\*---------------------------------------------------------------------------*/
FoamFile
{
    version     2.0;
    format      ascii;
    class       surfaceScalarField;
    location    "10";
    object      phi;
}
// * * * * * * * * * * * * * * * * * * * * * * * * * * * * * * * * * * * * * //

dimensions      [0 3 -1 0 0 0 0];

internalField   nonuniform List<scalar> 
1259
(
0.00418755
0.0013352
-0.00415258
0.00166403
0.00438471
0.00129885
-0.00434836
0.00442603
0.0016227
0.00447217
0.00194625
0.00452288
0.0022686
0.00258873
0.00459076
0.00126116
-0.00455307
0.00463384
0.00157963
0.00468213
0.00189796
0.00473542
0.0022153
0.00479344
0.00253071
0.00485584
0.00284317
0.00492219
0.00315154
0.00345461
0.00480617
0.00122215
-0.00476716
0.00485098
0.00153482
0.00490145
0.0018475
0.00495736
0.00215939
0.00501847
0.0024696
0.00508445
0.00277719
0.00515489
0.00308109
0.00522932
0.00338019
0.00367324
0.00503142
0.00118187
-0.00499115
0.00507795
0.0014883
0.00513058
0.00179487
0.00518914
0.00210083
0.00525339
0.00240535
0.00532303
0.00270755
0.00539769
0.00300644
0.0054769
0.00330098
0.00556012
0.00359001
0.0056467
0.00387231
0.00414655
0.00526704
0.00114039
-0.00522556
0.00531524
0.0014401
0.00537003
0.00174008
0.00543125
0.00203961
0.00549868
0.00233792
0.00557204
0.00263419
0.00565099
0.00292749
0.0057351
0.00321686
0.00582387
0.00350125
0.00591669
0.0037795
0.00601285
0.00405039
0.00431263
0.00551359
0.00109778
-0.00547098
0.00556341
0.00139028
0.00562033
0.00168316
0.0056842
0.00197574
0.00575483
0.0022673
0.00583195
0.00255706
0.00591526
0.00284418
0.00600436
0.00312776
0.00609878
0.00340682
0.00619797
0.00368031
0.00630126
0.0039471
0.0064079
0.00420598
0.00651704
0.0044557
0.00469492
0.00577168
0.00105412
-0.00572802
0.00582306
0.0013389
0.00588207
0.00162415
0.00594857
0.00190924
0.00602239
0.00219348
0.0061033
0.00247615
0.00619101
0.00275648
0.00628516
0.00303361
0.00638532
0.00330666
0.00649098
0.00357465
0.00660152
0.00383656
0.00671625
0.00409126
0.00683435
0.00433759
0.00695493
0.00457433
0.00480021
0.00604195
0.00100949
-0.00599732
0.00609483
0.00128603
0.00615588
0.00156311
0.00622498
0.00184014
0.00630198
0.00211648
0.00638668
0.00239146
0.00647881
0.00266434
0.00657805
0.00293437
0.00668401
0.00320071
0.0067962
0.00346246
0.00691408
0.00371868
0.00703699
0.00396835
0.00716417
0.00421041
0.0072948
0.00444371
0.00742792
0.00466709
0.00756253
0.00487935
0.00507931
0.00632508
0.000963958
-0.00627955
0.00637939
0.00123171
0.00644242
0.00150007
0.00651409
0.00176847
0.00659425
0.00203632
0.00668273
0.00230298
0.00677929
0.00256779
0.00688363
0.00283002
0.00699541
0.00308893
0.00711419
0.00334368
0.00723945
0.00359342
0.0073706
0.00383721
0.00750694
0.00407407
0.00764768
0.00430297
0.00779194
0.00452283
0.00793875
0.00473254
0.00808704
0.00493102
0.00511739
0.00662176
0.000917606
-0.00657541
0.00667745
0.00117603
0.00674242
0.0014351
0.00681662
0.00169428
0.00689991
0.00195302
0.00699215
0.00221074
0.00709313
0.00246681
0.00720258
0.00272057
0.00732019
0.00297132
0.00744556
0.00321831
0.00757823
0.00346075
0.00771764
0.00369779
0.00786315
0.00392855
0.00801404
0.00415208
0.00816947
0.0043674
0.00832853
0.00457349
0.0084902
0.00476935
0.00495417
0.00693275
0.000870488
-0.00688563
0.00698976
0.00111902
0.00705663
0.00136822
0.00713332
0.00161759
0.00721972
0.00186662
0.0073157
0.00211476
0.00742108
0.00236143
0.00753563
0.00260602
0.00765907
0.00284789
0.00779103
0.00308635
0.00793109
0.00332068
0.00807876
0.00355013
0.00823344
0.00377387
0.00839446
0.00399106
0.00856105
0.00420081
0.00873234
0.00440219
0.00890738
0.00459431
0.00477637
0.00725881
0.00082265
-0.00721097
0.0073171
0.00106073
0.00738584
0.00129948
0.007465
0.00153844
0.00755448
0.00177714
0.00765419
0.00201505
0.00776397
0.00225165
0.00788361
0.00248638
0.00801285
0.00271864
0.00815139
0.00294781
0.00829883
0.00317324
0.00845472
0.00339424
0.00861853
0.00361006
0.00878963
0.00381996
0.00896731
0.00402313
0.00915077
0.00421873
0.00933912
0.00440596
0.00458407
0.00760072
0.00077412
-0.00755219
0.00766028
0.00100117
0.00773088
0.00122888
0.0078125
0.00145683
0.00790507
0.00168456
0.00800851
0.00191161
0.00812267
0.00213748
0.00824739
0.00236166
0.00838244
0.00258359
0.00852753
0.00280272
0.00868232
0.00301845
0.0088464
0.00323016
0.00901927
0.00343719
0.00920038
0.00363886
0.00938906
0.00383444
0.00958458
0.00402321
0.00978611
0.00420443
0.00437739
0.00795932
0.00072491
-0.00791011
0.00802014
0.000940337
0.00809261
0.00115641
0.0081767
0.00137274
0.00827237
0.00158889
0.00837956
0.00180443
0.00849814
0.00201891
0.00862795
0.00223184
0.00876881
0.00244274
0.00892045
0.00265108
0.00908257
0.00285634
0.00925479
0.00305794
0.00943667
0.00325531
0.0096277
0.00344783
0.00982727
0.00363487
0.0100347
0.00381577
0.0102493
0.00398988
0.00415654
0.00833545
0.000675014
-0.00828555
0.00839756
0.000878224
0.00847192
0.00108205
0.00855852
0.00128613
0.00865735
0.00149007
0.00876832
0.00169346
0.00889135
0.00189587
0.00902631
0.00209688
0.00917301
0.00229604
0.00933122
0.00249287
0.00950067
0.00268689
0.00968101
0.00287759
0.00987186
0.00306446
0.0100727
0.00324696
0.0102831
0.00342451
0.0105023
0.00359655
0.0107297
0.00376249
0.00392173
0.00873001
0.00062441
-0.00867941
0.00879345
0.000814787
0.00886975
0.00100575
0.00895893
0.00119695
0.00906097
0.00138803
0.00917582
0.00157861
0.00930338
0.00176831
0.00944355
0.00195672
0.00959616
0.00214343
0.009761
0.00232803
0.00993782
0.00251007
0.0101263
0.0026891
0.0103261
0.00286466
0.0105368
0.00303628
0.0107578
0.00320345
0.0109887
0.00336568
0.0112288
0.00352244
0.00367318
0.00914394
0.000573062
-0.00909259
0.00920876
0.00074997
0.00928708
0.000927424
0.00937893
0.0011051
0.00948429
0.00128267
0.00960312
0.00145978
0.00973534
0.00163609
0.00988083
0.00181122
0.0100395
0.0019848
0.010211
0.00215646
0.0103953
0.00232579
0.010592
0.0024924
0.0108008
0.00265587
0.0110213
0.00281579
0.011253
0.00297172
0.0114955
0.00312323
0.0117481
0.00326985
0.00341109
0.00957823
0.000520921
-0.00952609
0.0096445
0.0006837
0.00972494
0.00084698
0.00981958
0.00101047
0.00992839
0.00117385
0.0100513
0.00133683
0.0101884
0.00149906
0.0103394
0.00166022
0.0105042
0.00181998
0.0106827
0.00197799
0.0108746
0.00213389
0.0110796
0.00228734
0.0112975
0.00243796
0.0115279
0.0025854
0.0117704
0.00272927
0.0120244
0.0028692
0.0122895
0.00300477
0.00313555
0.0100339
0.000467925
-0.00998094
0.0101018
0.000615886
0.0101844
0.000764303
0.010282
0.000912906
0.0103944
0.00106142
0.0105217
0.00120955
0.0106637
0.00135702
0.0108204
0.00150352
0.0109917
0.00164875
0.0111773
0.0017924
0.011377
0.00193416
0.0115906
0.00207371
0.0118179
0.00221075
0.0120583
0.00234494
0.0123116
0.00247596
0.0125773
0.00260349
0.012855
0.00272716
0.00284658
0.0105122
0.000414001
-0.0104583
0.0105817
0.000546423
0.0106667
0.000679253
0.0107674
0.00081225
0.0108836
0.000945164
0.0110154
0.00107774
0.0111627
0.00120972
0.0113254
0.00134083
0.0115034
0.00147081
0.0116964
0.00159938
0.0119042
0.00172628
0.0121267
0.00185122
0.0123636
0.00197393
0.0126144
0.00209413
0.0128788
0.00221153
0.0131564
0.00232587
0.0134468
0.00243683
0.00254406
0.0110142
0.000359061
-0.0109593
0.0110855
0.000475187
0.0111731
0.000591672
0.011277
0.000708305
0.0113973
0.000824864
0.0115339
0.000941127
0.0116868
0.00105686
0.0118558
0.00117184
0.0120407
0.00128583
0.0122415
0.00139859
0.0124579
0.00150988
0.0126897
0.00161946
0.0129365
0.0017271
0.0131981
0.00183256
0.013474
0.0019356
0.0137639
0.00203599
0.0140673
0.00213345
0.0022277
0.0115414
0.000303002
-0.0114853
0.0116145
0.000402035
0.0117048
0.000501378
0.0118123
0.000600848
0.0119369
0.000700257
0.0120786
0.000799413
0.0122373
0.000898122
0.012413
0.000996183
0.0126054
0.0010934
0.0128145
0.00118956
0.0130399
0.00128448
0.0132814
0.00137795
0.0135387
0.00146977
0.0138115
0.00155974
0.0140995
0.00164766
0.0144021
0.00173333
0.014719
0.00181654
0.00189703
0.012095
0.000245697
-0.0120377
0.0121703
0.000326798
0.0122635
0.000408156
0.0123747
0.000489622
0.0125039
0.00057104
0.0126511
0.000652252
0.0128161
0.000733097
0.0129989
0.000813414
0.0131993
0.000893037
0.013417
0.000971802
0.013652
0.00104955
0.0139038
0.0011261
0.0141723
0.00120131
0.014457
0.00127501
0.0147576
0.00134704
0.0150737
0.00141724
0.0154048
0.00148543
0.00155141
0.0126768
0.000186989
-0.0126181
0.0127543
0.000249271
0.0128507
0.000311755
0.012966
0.000374325
0.0131002
0.000436861
0.0132532
0.000499241
0.013425
0.000561341
0.0136154
0.000623036
0.0138242
0.0006842
0.0140513
0.000744705
0.0142964
0.000804425
0.0145593
0.000863236
0.0148396
0.000921011
0.015137
0.000977629
0.015451
0.00103297
0.0157814
0.0010869
0.0161275
0.00113929
0.00119
0.0132884
0.000126672
-0.0132281
0.0133685
0.000169199
0.0134684
0.000211867
0.0135881
0.000254598
0.0137277
0.000297308
0.013887
0.000339914
0.014066
0.000382331
0.0142646
0.000424472
0.0144825
0.000466252
0.0147197
0.000507583
0.0149757
0.000548379
0.0152504
0.000588553
0.0155434
0.000628022
0.0158543
0.000666699
0.0161828
0.000704502
0.0165283
0.000741346
0.0168905
0.000777141
0.000811781
0.0139319
6.44712e-05
-0.0138697
0.0140148
8.62531e-05
0.0141186
0.000108111
0.0142432
0.000130002
0.0143886
0.000151885
0.0145548
0.000173717
0.0147417
0.000195453
0.0149491
0.000217049
0.0151769
0.000238462
0.0154248
0.000259645
0.0156927
0.000280555
0.0159801
0.000301146
0.0162867
0.000321376
0.0166122
0.000341201
0.0169561
0.000360578
0.017318
0.000379463
0.0176974
0.000397809
0.000415564
0.0146095
-0.0145451
0.0146958
0.0148039
0.0149339
0.0150858
0.0152595
0.015455
0.015672
0.0159105
0.0161701
0.0164507
0.0167518
0.0170732
0.0174144
0.017775
0.0181544
0.0185522
0.00412231
0.000682086
0.00100933
0.00425456
-0.000295825
0.00427015
1.83863e-05
0.00429099
0.000335917
0.00431708
0.000655997
0.000978047
0.00444368
-0.000911288
0.00444785
-0.000610541
0.00445763
-0.0003056
0.00447309
2.9306e-06
0.00449413
0.000314869
0.00452082
0.000629315
0.000945792
0.00466107
-0.00119871
0.00465825
-0.000908473
0.00466138
-0.000613672
0.00467052
-0.000314733
0.00468563
-1.21879e-05
0.00470682
0.000293688
0.004734
0.000602129
0.00091263
0.00488792
-0.00118801
0.00488349
-0.000904044
0.0048854
-0.000615581
0.0048937
-0.000323034
0.0049084
-2.6886e-05
0.00492956
0.000272524
0.00495715
0.000574536
0.000878635
0.00512619
-0.00117511
0.00511996
-0.000897812
0.00512046
-0.000616088
0.00512777
-0.000330341
0.00514191
-4.10244e-05
0.00516293
0.000251504
0.00519082
0.000546644
0.000843894
0.00537646
-0.00115983
0.00536824
-0.000889591
0.00536717
-0.00061502
0.00537333
-0.000336497
0.00538676
-5.44525e-05
0.00540751
0.000230754
0.00543559
0.000518566
0.000808498
0.00563932
-0.00114197
0.00562893
-0.00087921
0.00562613
-0.000612215
0.00563098
-0.000341352
0.00564356
-6.70276e-05
0.00566391
0.000210399
0.00569207
0.000490412
0.000772543
0.00591534
-0.00112137
0.00590264
-0.000866506
0.00589794
-0.000607519
0.00590135
-0.00034476
0.00591294
-7.86169e-05
0.00593278
0.000190561
0.0059609
0.000462291
0.000736125
0.00620516
-0.00109787
0.00618998
-0.000851327
0.00618325
-0.000600789
0.00618508
-0.000346591
0.00619556
-8.90969e-05
0.00621477
0.000171352
0.00624276
0.000434305
0.000699332
0.00650939
-0.00107131
0.00649159
-0.00083353
0.00648269
-0.000591895
0.00648283
-0.000346722
0.00649209
-9.83568e-05
0.00651056
0.000152872
0.00653833
0.000406544
0.000662246
0.00682867
-0.00104154
0.00680812
-0.000812979
0.00679694
-0.000580713
0.00679526
-0.000345043
0.0068032
-0.000106297
0.00682087
0.000135211
0.00684832
0.000379086
0.000624934
0.00716371
-0.00100841
0.00714027
-0.000789542
0.00712668
-0.000567128
0.00712309
-0.000341454
0.00712963
-0.00011283
0.0071464
0.000118442
0.00717349
0.000351995
0.000587452
0.00751519
-0.000971771
0.00748874
-0.00076309
0.00747264
-0.000551029
0.00746704
-0.000335859
0.00747209
-0.000117877
0.0074879
0.000102631
0.00751458
0.000325322
0.000549836
0.00788388
-0.000931472
0.00785429
-0.000733491
0.00783556
-0.000532304
0.00782787
-0.00032817
0.00783136
-0.000121368
0.00784616
8.78297e-05
0.00787238
0.000299105
0.000512112
0.00827058
-0.000887353
0.00823771
-0.000700612
0.00821625
-0.000510846
0.00820638
-0.0003183
0.00820825
-0.000123236
0.00822199
7.40839e-05
0.00824773
0.000273369
0.000474287
0.00867614
-0.000839254
0.00863985
-0.000664316
0.00861554
-0.000486543
0.0086034
-0.000306162
0.00860359
-0.00012342
0.00861624
6.14323e-05
0.00864148
0.000248132
0.000436359
0.00910146
-0.000787008
0.00906161
-0.000624465
0.00903435
-0.000459281
0.00901985
-0.000291669
0.00901829
-0.00012186
0.00902982
4.99097e-05
0.00905455
0.000223403
0.000398314
0.00954751
-0.000730446
0.00950396
-0.000580915
0.00947362
-0.000428945
0.00945669
-0.000274734
0.00945332
-0.000118495
0.00946368
3.9547e-05
0.0094879
0.000199187
0.000360127
0.0100153
-0.000669396
0.00996792
-0.000533522
0.00993439
-0.000395419
0.00991493
-0.000255269
0.0099097
-0.000113269
0.00991888
3.03718e-05
0.00994258
0.00017548
0.000321768
0.0105717
-0.000723072
0.010506
-0.000603686
0.0104546
-0.000482139
0.0104178
-0.000358585
0.0103957
-0.000233188
0.0103885
-0.000106125
0.0103965
2.24082e-05
0.0104197
0.000152273
0.000283194
0.0110912
-0.000637754
0.0110207
-0.000533145
0.0109652
-0.000426625
0.0109249
-0.000318331
0.0109001
-0.000208408
0.010891
-9.70125e-05
0.0108977
1.56736e-05
0.0109205
0.000129552
0.000244353
0.0116362
-0.000546726
0.0115606
-0.000457605
0.0115009
-0.000366839
0.0114571
-0.000274545
0.0114295
-0.000180849
0.0114184
-8.58863e-05
0.0114239
1.01768e-05
0.0114461
0.000107288
0.000205182
0.0122079
-0.0004498
0.0121272
-0.000376906
0.012063
-0.000302649
0.0120156
-0.000227127
0.0119852
-0.000150445
0.011972
-7.27141e-05
0.0119763
5.9124e-06
0.0119982
8.54367e-05
0.000165594
0.0128078
-0.000346798
0.0127218
-0.000290897
0.0126531
-0.000233935
0.012602
-0.000175991
0.0125687
-0.000117144
0.0125534
-5.74829e-05
0.0125565
2.85239e-06
0.012578
6.39301e-05
0.000125477
0.0134373
-0.000237562
0.0133459
-0.000199449
0.0132725
-0.000160603
0.0132176
-0.000121077
0.0131814
-8.09266e-05
0.0131641
-4.02146e-05
0.0131661
9.30784e-07
0.0131873
4.26592e-05
8.46758e-05
0.0140979
-0.000121971
0.0140009
-0.000102478
0.0139229
-8.2604e-05
0.0138642
-6.23766e-05
0.0138251
-4.18237e-05
0.0138058
-2.09734e-05
0.0138068
-9.00009e-09
0.013828
2.14603e-05
4.2965e-05
0.0147909
0.0146884
0.0146058
0.0145434
0.0145016
0.0144807
0.0144806
0.0145021
)
;

boundaryField
{
    inlet
    {
        type            calculated;
        value           nonuniform 0();
    }
    outlet
    {
        type            calculated;
        value           nonuniform 0();
    }
    cylinder
    {
        type            calculated;
        value           nonuniform 0();
    }
    top
    {
        type            symmetryPlane;
        value           uniform 0;
    }
    bottom
    {
        type            symmetryPlane;
        value           nonuniform 0();
    }
    defaultFaces
    {
        type            empty;
        value           nonuniform 0();
    }
    procBoundary13to9
    {
        type            processor;
        value           nonuniform List<scalar> 
38
(
-0.00137017
-0.00170361
0.00422713
-0.00199239
-0.00231931
-0.00264373
0.00457788
-0.00290556
-0.00321789
-0.00352439
0.00499196
-0.00375105
0.00530713
-0.0039589
-0.00423574
0.00573589
-0.00441132
0.00611154
-0.00456483
-0.00480559
0.0066277
-0.00492229
0.00707701
-0.00501396
-0.00521429
0.00769751
-0.00526604
-0.000707511
-0.0010396
0.000285531
-3.39753e-05
-0.00409689
-0.000356756
0.000912685
-0.00424427
0.000606365
-0.00444508
0.00120741
)
;
    }
    procBoundary13to12
    {
        type            processor;
        value           nonuniform List<scalar> 
26
(
-0.00466977
-0.00489862
-0.00513909
-0.00539175
-0.00565717
-0.00593594
-0.00622866
-0.00653595
-0.00685845
-0.00719684
-0.00755183
-0.00792418
-0.0083147
-0.00872424
-0.00915371
-0.00960407
-0.0100764
0.000802872
-0.0106515
-0.0111765
-0.0117272
-0.0123048
-0.0129108
-0.0135465
-0.0142134
-0.0149129
)
;
    }
    procBoundary13to14
    {
        type            processor;
        value           nonuniform List<scalar> 
19
(
0.00823569
0.00865342
0.00908518
0.00953143
0.00999279
0.0104701
0.0109645
0.0114773
0.0120102
0.012565
0.0131439
0.0137493
0.0143836
0.0150497
0.0157504
0.0164889
0.0172687
0.0180936
0.0189678
)
;
    }
}


// ************************************************************************* //
