/*--------------------------------*- C++ -*----------------------------------*\
  =========                 |
  \\      /  F ield         | OpenFOAM: The Open Source CFD Toolbox
   \\    /   O peration     | Website:  https://openfoam.org
    \\  /    A nd           | Version:  7
     \\/     M anipulation  |
\*---------------------------------------------------------------------------*/
FoamFile
{
    version     2.0;
    format      ascii;
    class       volScalarField;
    location    "20";
    object      p;
}
// * * * * * * * * * * * * * * * * * * * * * * * * * * * * * * * * * * * * * //

dimensions      [0 2 -2 0 0 0 0];

internalField   nonuniform List<scalar> 
2625
(
-0.384731
0.946534
0.930947
0.914381
0.89686
0.878414
0.859071
0.838861
0.817817
0.795971
0.773357
0.700155
0.75001
0.67878
0.725966
0.656771
0.701263
0.634163
0.675938
0.610992
0.65003
0.587292
0.623577
0.563101
0.54321
0.596619
0.538454
0.519456
0.569196
0.513388
0.495299
0.541348
0.487943
0.470775
0.513113
0.462154
0.445921
0.484532
0.43606
0.420775
0.402867
0.455641
0.409699
0.395371
0.378829
0.426476
0.383108
0.369748
0.354581
0.397075
0.356326
0.343943
0.33016
0.367499
0.329415
0.31801
0.305614
0.301283
0.337789
0.30243
0.291999
0.280988
0.277777
0.307691
0.275202
0.265799
0.256208
0.254137
0.276606
0.247285
0.239085
0.231046
0.230203
0.232374
0.246452
0.220031
0.212858
0.206232
0.206508
0.209828
0.216646
0.193009
0.186812
0.181556
0.18291
0.187341
0.186925
0.166041
0.160827
0.156936
0.159358
0.164886
0.173012
0.157327
0.139174
0.134944
0.132411
0.135889
0.142494
0.151663
0.127909
0.112468
0.109217
0.108027
0.112542
0.120203
0.130389
0.141824
0.0987063
0.0859574
0.0836786
0.083816
0.0893492
0.0980425
0.109218
0.12165
0.0697472
0.0596742
0.0583604
0.0598083
0.0663392
0.076039
0.0881771
0.101577
0.115375
0.0410635
0.0336486
0.0332924
0.0360331
0.0435404
0.0542203
0.0672921
0.0816304
0.096369
0.0126903
0.00790902
0.00850416
0.0125191
0.0209807
0.0326134
0.0465885
0.0618335
0.0774823
0.0928124
-0.0153388
-0.0175166
-0.0159756
-0.0107058
-0.00131289
0.0112441
0.0260913
0.0422104
0.0587371
0.0749536
-0.0430189
-0.0425773
-0.0401189
-0.0336147
-0.0233144
-0.00986217
0.00582474
0.0227843
0.0401554
0.0572265
0.0734579
-0.0702891
-0.0672715
-0.063899
-0.0561818
-0.0449986
-0.0306812
-0.0141876
0.0035777
0.0217586
0.0396512
0.0567116
-0.0971254
-0.0915677
-0.08729
-0.0783827
-0.0663416
-0.0511894
-0.0339229
-0.0153876
0.00356735
0.0222473
0.0401051
0.0567553
-0.123503
-0.115437
-0.110267
-0.100194
-0.0873204
-0.0713643
-0.0533593
-0.0340902
-0.0143979
0.00503414
0.0236565
0.0410782
0.0570478
-0.149393
-0.138856
-0.132808
-0.121593
-0.107913
-0.0911851
-0.072477
-0.0525087
-0.0321174
-0.0119695
0.00738345
0.0255459
0.0422583
-0.174771
-0.161802
-0.15489
-0.142558
-0.128098
-0.11063
-0.0912581
-0.0706218
-0.049572
-0.0287456
-0.00869679
0.0101747
0.0276017
0.043435
-0.199611
-0.184252
-0.176492
-0.16307
-0.147857
-0.129681
-0.10967
-0.0884222
-0.0667436
-0.0452763
-0.0245675
-0.0050198
0.0130927
0.0296122
0.0444788
-0.22389
-0.206188
-0.197595
-0.18311
-0.16717
-0.148319
-0.127708
-0.10588
-0.0836148
-0.0615447
-0.0402123
-0.0200221
-0.00125432
0.015925
0.0314473
0.0453136
-0.247585
-0.227589
-0.21818
-0.202661
-0.186022
-0.166527
-0.145354
-0.122979
-0.100168
-0.0775346
-0.0556156
-0.0348173
-0.0154254
0.0023864
0.0185409
0.0330315
0.045909
-0.270676
-0.248439
-0.238231
-0.221707
-0.204395
-0.18429
-0.162588
-0.139706
-0.116388
-0.0932301
-0.0707623
-0.049391
-0.0294068
-0.0109909
0.00577122
0.0208654
0.0343327
0.0464135
-0.293144
-0.268721
-0.257733
-0.240232
-0.222276
-0.201591
-0.179397
-0.156046
-0.13226
-0.108616
-0.0856379
-0.0637294
-0.0431856
-0.0241946
-0.00685022
0.00882566
0.0228645
0.0355046
0.0456238
-0.314971
-0.288421
-0.276672
-0.258224
-0.23965
-0.218418
-0.195766
-0.171983
-0.147768
-0.123679
-0.100228
-0.077819
-0.056749
-0.0372128
-0.0193124
-0.00307748
0.0115137
0.0246965
0.0353582
0.0500445
-0.336142
-0.307524
-0.295034
-0.27567
-0.256506
-0.234759
-0.211682
-0.187505
-0.162901
-0.138405
-0.114521
-0.0916471
-0.0700848
-0.0500341
-0.0316047
-0.0148342
0.000289287
0.0139976
0.0251892
0.0402127
-0.356641
-0.326021
-0.312809
-0.29256
-0.272833
-0.250602
-0.227135
-0.2026
-0.177645
-0.152782
-0.128502
-0.105201
-0.0831813
-0.0626473
-0.0437168
-0.0264349
-0.0108001
0.00341617
0.0151238
0.0304632
-0.376456
-0.3439
-0.329987
-0.308885
-0.288621
-0.265937
-0.242114
-0.217257
-0.191988
-0.166797
-0.142161
-0.11847
-0.0960273
-0.0750419
-0.0556388
-0.0378706
-0.0217458
-0.00703851
0.00516608
0.0208042
-0.395576
-0.361152
-0.34656
-0.324636
-0.303863
-0.280755
-0.256608
-0.231465
-0.205921
-0.18044
-0.155486
-0.131443
-0.108612
-0.0872077
-0.067361
-0.0491323
-0.0325394
-0.0173582
-0.00468603
0.0112498
-0.413992
-0.377769
-0.36252
-0.339808
-0.318552
-0.295051
-0.270611
-0.245216
-0.219433
-0.193701
-0.168467
-0.144109
-0.120926
-0.099135
-0.0788745
-0.0602115
-0.0431735
-0.0275528
-0.0144114
0.00180805
-0.431694
-0.393747
-0.377863
-0.354395
-0.332682
-0.308816
-0.284115
-0.258502
-0.232517
-0.20657
-0.181095
-0.156459
-0.132959
-0.110815
-0.0901703
-0.0711
-0.0536398
-0.0375956
-0.0239403
-0.00760149
-0.448678
-0.40908
-0.392584
-0.368392
-0.346249
-0.322048
-0.297115
-0.271317
-0.245164
-0.21904
-0.193361
-0.168483
-0.144702
-0.122238
-0.10124
-0.08179
-0.0639314
-0.047486
-0.0333571
-0.016886
-0.464937
-0.423765
-0.40668
-0.381799
-0.359249
-0.334741
-0.309606
-0.283655
-0.257368
-0.231103
-0.205256
-0.180174
-0.156146
-0.133396
-0.112076
-0.0922741
-0.0740416
-0.0572182
-0.0426429
-0.0260361
-0.48047
-0.4378
-0.42015
-0.394612
-0.371683
-0.346893
-0.321585
-0.295511
-0.269124
-0.242752
-0.216774
-0.191523
-0.167285
-0.144282
-0.122671
-0.102545
-0.0839639
-0.0667847
-0.0517807
-0.0350592
-0.495275
-0.451185
-0.432994
-0.406832
-0.383548
-0.358505
-0.333049
-0.306882
-0.280427
-0.253982
-0.227908
-0.202524
-0.178111
-0.154889
-0.133017
-0.112597
-0.093692
-0.0761794
-0.0607638
-0.0439544
-0.509353
-0.46392
-0.445213
-0.418461
-0.394846
-0.369574
-0.343998
-0.317766
-0.291274
-0.26479
-0.238653
-0.213172
-0.188617
-0.165209
-0.143109
-0.122422
-0.10322
-0.0853971
-0.0695876
-0.0527174
-0.522707
-0.476008
-0.456809
-0.4295
-0.405578
-0.380103
-0.354432
-0.328163
-0.301662
-0.27517
-0.249005
-0.223459
-0.198798
-0.175236
-0.152939
-0.132015
-0.112541
-0.0944327
-0.0782468
-0.0613441
-0.535342
-0.487453
-0.467787
-0.439953
-0.415749
-0.390095
-0.364352
-0.338071
-0.31159
-0.28512
-0.258959
-0.233383
-0.208648
-0.184966
-0.162503
-0.141371
-0.121652
-0.103281
-0.0867365
-0.0698309
-0.547263
-0.498257
-0.47815
-0.449825
-0.425361
-0.399551
-0.37376
-0.347493
-0.321059
-0.29464
-0.268513
-0.242939
-0.218162
-0.194393
-0.171794
-0.150484
-0.130546
-0.111938
-0.0950518
-0.0781743
-0.558466
-0.508413
-0.487892
-0.459112
-0.434414
-0.408472
-0.382656
-0.356426
-0.330065
-0.303726
-0.277663
-0.252122
-0.227337
-0.203512
-0.180809
-0.159349
-0.139219
-0.120399
-0.103188
-0.0863716
-0.568955
-0.51792
-0.497013
-0.467815
-0.442907
-0.416858
-0.391039
-0.364871
-0.338608
-0.312375
-0.286407
-0.26093
-0.236168
-0.212318
-0.189542
-0.167961
-0.147666
-0.128659
-0.111142
-0.0944199
-0.578898
-0.526907
-0.50562
-0.47602
-0.450913
-0.424769
-0.398958
-0.372865
-0.346716
-0.320611
-0.294759
-0.269372
-0.24466
-0.220814
-0.197994
-0.17632
-0.155886
-0.136717
-0.11891
-0.102317
-0.588631
-0.535659
-0.51395
-0.483928
-0.458598
-0.43234
-0.406524
-0.380498
-0.354462
-0.328487
-0.302762
-0.277479
-0.252837
-0.229016
-0.206174
-0.184431
-0.16388
-0.144573
-0.126489
-0.110063
-0.597169
-0.543419
-0.521388
-0.491038
-0.465555
-0.439243
-0.413474
-0.38756
-0.361679
-0.335876
-0.310317
-0.285176
-0.26064
-0.236881
-0.214051
-0.192273
-0.171635
-0.152216
-0.133876
-0.117655
-0.604864
-0.550479
-0.528173
-0.497545
-0.471943
-0.445608
-0.419911
-0.394135
-0.368432
-0.342825
-0.317458
-0.292488
-0.268088
-0.244421
-0.221633
-0.199847
-0.179149
-0.159647
-0.141066
-0.125092
-0.611888
-0.55697
-0.534414
-0.503543
-0.477841
-0.4515
-0.425888
-0.400263
-0.374755
-0.349361
-0.324206
-0.299429
-0.275189
-0.251639
-0.228921
-0.207155
-0.186423
-0.166864
-0.148057
-0.132373
-0.618253
-0.562897
-0.540118
-0.509036
-0.483256
-0.456924
-0.431413
-0.405952
-0.380652
-0.355488
-0.330563
-0.306
-0.281943
-0.258536
-0.235914
-0.214195
-0.193454
-0.173864
-0.154847
-0.139499
-0.623963
-0.568258
-0.545285
-0.514029
-0.48819
-0.461887
-0.43649
-0.411206
-0.386128
-0.361209
-0.336532
-0.312203
-0.288351
-0.265112
-0.242611
-0.220964
-0.200241
-0.180646
-0.161435
-0.146469
-0.629035
-0.573067
-0.549927
-0.518532
-0.492657
-0.4664
-0.44113
-0.416036
-0.391192
-0.366531
-0.342118
-0.318041
-0.294416
-0.271366
-0.249011
-0.227463
-0.206782
-0.187209
-0.167819
-0.153285
-0.633487
-0.577338
-0.55406
-0.522561
-0.49667
-0.470476
-0.445345
-0.420452
-0.395853
-0.371463
-0.347328
-0.323519
-0.300139
-0.277301
-0.255116
-0.233691
-0.213077
-0.193553
-0.173998
-0.159949
-0.637339
-0.581086
-0.557698
-0.526129
-0.500242
-0.474127
-0.449148
-0.424466
-0.400122
-0.376012
-0.352167
-0.328642
-0.305525
-0.282919
-0.260926
-0.239647
-0.219125
-0.199677
-0.179972
-0.166462
-0.640607
-0.584327
-0.560857
-0.529251
-0.503388
-0.477368
-0.452552
-0.42809
-0.404008
-0.380189
-0.356644
-0.333416
-0.310578
-0.288222
-0.266441
-0.245334
-0.224926
-0.205581
-0.185739
-0.172827
-0.643309
-0.587076
-0.56355
-0.53194
-0.506121
-0.480212
-0.455569
-0.431335
-0.407524
-0.384001
-0.360767
-0.337847
-0.315302
-0.293214
-0.271666
-0.250751
-0.230481
-0.211266
-0.191301
-0.179047
-0.645463
-0.589349
-0.565794
-0.534213
-0.508457
-0.482674
-0.458214
-0.434214
-0.410679
-0.387461
-0.364544
-0.341942
-0.319703
-0.297898
-0.276601
-0.2559
-0.235791
-0.216732
-0.196658
-0.185125
-0.647087
-0.591161
-0.567604
-0.536084
-0.51041
-0.484767
-0.460499
-0.436742
-0.413487
-0.390578
-0.367985
-0.345708
-0.323786
-0.302278
-0.281249
-0.260782
-0.240856
-0.221981
-0.201811
-0.191066
-0.6482
-0.592529
-0.568996
-0.537567
-0.511996
-0.486507
-0.46244
-0.438929
-0.41596
-0.393363
-0.371099
-0.349155
-0.327558
-0.306359
-0.285614
-0.2654
-0.245678
-0.227013
-0.206761
-0.196872
-0.648818
-0.593469
-0.569986
-0.53868
-0.513228
-0.487907
-0.46405
-0.440792
-0.418111
-0.395829
-0.373895
-0.352289
-0.331026
-0.310147
-0.289699
-0.269756
-0.250258
-0.231831
-0.21151
-0.202549
-0.648961
-0.593998
-0.57059
-0.539436
-0.514122
-0.488983
-0.465343
-0.442342
-0.419951
-0.397986
-0.376386
-0.35512
-0.334196
-0.313645
-0.293508
-0.273852
-0.254599
-0.236436
-0.21606
-0.2081
-0.648647
-0.594131
-0.570824
-0.539851
-0.514694
-0.489749
-0.466335
-0.443595
-0.421496
-0.399847
-0.378581
-0.357658
-0.337077
-0.316862
-0.297045
-0.277692
-0.258701
-0.240829
-0.220413
-0.213531
-0.647894
-0.593886
-0.570704
-0.539941
-0.514958
-0.490221
-0.467039
-0.444563
-0.422757
-0.401425
-0.380492
-0.359912
-0.339676
-0.319802
-0.300314
-0.281278
-0.262568
-0.245013
-0.224572
-0.218845
-0.64672
-0.593278
-0.570245
-0.539721
-0.514929
-0.490412
-0.467469
-0.445262
-0.423749
-0.402731
-0.38213
-0.361892
-0.342002
-0.322472
-0.303321
-0.284613
-0.2662
-0.248989
-0.228538
-0.224046
-0.645144
-0.592324
-0.569463
-0.539205
-0.514621
-0.490338
-0.467641
-0.445704
-0.424484
-0.40378
-0.383507
-0.363608
-0.344063
-0.324879
-0.30607
-0.2877
-0.2696
-0.252757
-0.232316
-0.229138
-0.643184
-0.591039
-0.568374
-0.538409
-0.514051
-0.490012
-0.467569
-0.445904
-0.424976
-0.404582
-0.384635
-0.365072
-0.345869
-0.32703
-0.308567
-0.290543
-0.27277
-0.25632
-0.235907
-0.234123
-0.640859
-0.589441
-0.566994
-0.537347
-0.513231
-0.48945
-0.467265
-0.445876
-0.425238
-0.405151
-0.385525
-0.366292
-0.347428
-0.328932
-0.310816
-0.293145
-0.275711
-0.259677
-0.239313
-0.239002
-0.638186
-0.587545
-0.565337
-0.536035
-0.512176
-0.488663
-0.466744
-0.445632
-0.425285
-0.405501
-0.386189
-0.367282
-0.34875
-0.330594
-0.312823
-0.295508
-0.278424
-0.262828
-0.242536
-0.243775
-0.635184
-0.585367
-0.563418
-0.534485
-0.5109
-0.487667
-0.46602
-0.445187
-0.425128
-0.405643
-0.38664
-0.36805
-0.349845
-0.332022
-0.314593
-0.297636
-0.28091
-0.265772
-0.245579
-0.248439
-0.63187
-0.582922
-0.561254
-0.532712
-0.509416
-0.486475
-0.465105
-0.444554
-0.42478
-0.405589
-0.386889
-0.36861
-0.350721
-0.333225
-0.316133
-0.299532
-0.28317
-0.268506
-0.248441
-0.25299
-0.628261
-0.580225
-0.558857
-0.53073
-0.507738
-0.485099
-0.464012
-0.443744
-0.424255
-0.405354
-0.386949
-0.368971
-0.351391
-0.334211
-0.317447
-0.301198
-0.285202
-0.271026
-0.251123
-0.257419
-0.624376
-0.577291
-0.556242
-0.528552
-0.505878
-0.483552
-0.462755
-0.442771
-0.423565
-0.404948
-0.386831
-0.369145
-0.351862
-0.334988
-0.318543
-0.302636
-0.287008
-0.273326
-0.253623
-0.261713
-0.620231
-0.574136
-0.553424
-0.526191
-0.50385
-0.481846
-0.461344
-0.441646
-0.422721
-0.404384
-0.386547
-0.369143
-0.352147
-0.335565
-0.319425
-0.303849
-0.288583
-0.275399
-0.255939
-0.265852
-0.615843
-0.570774
-0.550416
-0.52366
-0.501664
-0.479994
-0.459792
-0.440382
-0.421735
-0.403673
-0.386108
-0.368977
-0.352254
-0.33595
-0.3201
-0.30484
-0.289928
-0.277234
-0.258065
-0.26981
-0.611229
-0.567219
-0.547231
-0.520971
-0.499334
-0.478006
-0.45811
-0.43899
-0.42062
-0.402827
-0.385527
-0.368658
-0.352195
-0.336154
-0.320575
-0.305611
-0.291038
-0.278819
-0.259997
-0.273548
-0.606405
-0.563486
-0.543883
-0.518137
-0.496871
-0.475895
-0.456309
-0.43748
-0.419386
-0.401857
-0.384815
-0.368196
-0.35198
-0.336184
-0.320857
-0.306164
-0.291912
-0.280136
-0.261726
-0.277013
-0.601387
-0.559587
-0.540384
-0.515169
-0.494285
-0.473669
-0.454399
-0.435864
-0.418043
-0.400774
-0.383981
-0.367603
-0.35162
-0.336052
-0.320953
-0.306503
-0.292544
-0.281166
-0.263243
-0.280132
-0.596191
-0.555536
-0.536747
-0.512078
-0.491588
-0.471341
-0.452391
-0.43415
-0.416601
-0.399589
-0.383038
-0.36689
-0.351126
-0.335767
-0.320873
-0.306631
-0.292932
-0.281884
-0.264536
-0.282801
-0.590833
-0.551347
-0.532984
-0.508876
-0.488789
-0.468919
-0.450295
-0.43235
-0.415072
-0.398311
-0.381995
-0.366068
-0.350509
-0.33534
-0.320624
-0.306554
-0.293073
-0.28226
-0.265594
-0.284874
-0.585329
-0.547033
-0.529107
-0.505572
-0.485899
-0.466413
-0.448118
-0.430471
-0.413463
-0.396951
-0.380864
-0.365147
-0.34978
-0.334783
-0.320219
-0.306278
-0.292963
-0.282261
-0.2664
-0.286124
-0.579694
-0.542606
-0.525128
-0.502179
-0.482928
-0.463832
-0.445871
-0.428524
-0.411784
-0.395517
-0.379653
-0.364138
-0.348952
-0.334108
-0.319667
-0.305811
-0.292603
-0.281849
-0.266935
-0.286209
-0.573943
-0.538079
-0.521058
-0.498706
-0.479885
-0.461186
-0.443562
-0.426516
-0.410044
-0.394018
-0.378372
-0.363052
-0.348034
-0.333327
-0.318984
-0.305167
-0.291995
-0.280985
-0.267215
-0.284689
-0.568087
-0.533458
-0.516903
-0.495158
-0.476775
-0.458479
-0.441196
-0.424452
-0.408248
-0.392461
-0.377029
-0.361897
-0.347038
-0.332454
-0.318184
-0.30436
-0.291139
-0.279637
-0.267357
-0.562141
-0.528756
-0.512674
-0.491543
-0.473605
-0.455717
-0.438779
-0.422339
-0.406402
-0.390853
-0.375631
-0.360681
-0.345974
-0.331501
-0.317284
-0.303411
-0.290039
-0.277751
-0.267202
-0.556155
-0.524019
-0.508415
-0.487906
-0.470416
-0.452938
-0.436345
-0.420208
-0.404536
-0.38922
-0.374203
-0.35943
-0.344867
-0.330496
-0.316316
-0.302359
-0.288733
-0.275306
-0.55021
-0.519337
-0.504216
-0.484332
-0.467288
-0.450217
-0.433963
-0.418122
-0.402707
-0.387616
-0.372795
-0.358189
-0.343761
-0.329482
-0.315329
-0.301274
-0.28735
-0.272609
-0.544099
-0.514498
-0.499866
-0.480616
-0.46403
-0.447376
-0.431471
-0.415935
-0.400785
-0.385925
-0.371305
-0.356871
-0.342583
-0.328401
-0.314287
-0.30016
-0.286016
-0.270193
-0.537915
-0.509597
-0.495459
-0.476848
-0.460724
-0.444492
-0.42894
-0.413711
-0.398827
-0.384199
-0.36978
-0.35552
-0.341373
-0.327296
-0.313236
-0.299078
-0.284851
-0.531707
-0.50468
-0.491039
-0.473069
-0.457409
-0.4416
-0.426401
-0.411479
-0.39686
-0.382463
-0.368245
-0.354156
-0.340153
-0.326187
-0.312199
-0.298057
-0.283862
-0.525487
-0.499754
-0.486611
-0.469285
-0.45409
-0.438704
-0.423859
-0.409243
-0.394888
-0.380721
-0.366702
-0.352786
-0.33893
-0.325083
-0.311187
-0.2971
-0.519265
-0.494825
-0.482182
-0.4655
-0.450771
-0.435808
-0.421314
-0.407005
-0.392914
-0.378975
-0.365156
-0.351414
-0.337708
-0.323989
-0.310202
-0.296206
-0.513055
-0.489904
-0.47776
-0.461721
-0.447456
-0.432916
-0.418774
-0.40477
-0.390941
-0.377231
-0.363611
-0.350044
-0.336492
-0.32291
-0.309249
-0.295373
-0.50687
-0.485001
-0.473355
-0.457956
-0.444154
-0.430035
-0.416243
-0.402542
-0.388974
-0.375492
-0.362071
-0.348681
-0.335287
-0.321849
-0.308327
-0.294596
-0.500722
-0.480126
-0.468975
-0.454212
-0.440872
-0.42717
-0.413727
-0.400327
-0.387019
-0.373762
-0.360541
-0.347328
-0.334095
-0.320809
-0.307438
-0.494623
-0.475289
-0.464629
-0.450498
-0.437615
-0.424328
-0.41123
-0.398129
-0.385078
-0.372047
-0.359024
-0.345989
-0.332921
-0.319791
-0.30658
-0.488586
-0.4705
-0.460326
-0.44682
-0.434389
-0.421514
-0.408758
-0.395953
-0.383157
-0.370348
-0.357523
-0.344668
-0.331766
-0.318798
-0.305754
-0.482623
-0.465767
-0.456074
-0.443186
-0.431202
-0.418733
-0.406314
-0.393801
-0.381258
-0.368671
-0.356042
-0.343366
-0.330632
-0.317829
-0.476744
-0.461101
-0.451882
-0.439602
-0.428059
-0.41599
-0.403904
-0.39168
-0.379385
-0.367017
-0.354584
-0.342086
-0.329521
-0.316886
-0.470961
-0.45651
-0.447757
-0.436076
-0.424966
-0.41329
-0.401532
-0.389591
-0.377542
-0.36539
-0.35315
-0.34083
-0.328435
-0.315968
-0.465285
-0.452003
-0.443707
-0.432613
-0.421929
-0.410639
-0.399202
-0.38754
-0.375732
-0.363792
-0.351744
-0.3396
-0.327374
-0.315077
-0.459726
-0.447589
-0.439741
-0.429222
-0.418954
-0.408042
-0.396919
-0.385531
-0.373959
-0.362228
-0.350368
-0.338399
-0.326341
-0.314213
-0.454296
-0.443276
-0.435865
-0.425907
-0.416046
-0.405502
-0.394688
-0.383566
-0.372226
-0.360699
-0.349024
-0.337228
-0.325337
-0.449004
-0.439073
-0.432088
-0.422676
-0.413211
-0.403027
-0.392511
-0.381649
-0.370535
-0.359209
-0.347715
-0.336089
-0.324362
-0.443861
-0.434987
-0.428416
-0.419535
-0.410454
-0.400619
-0.390394
-0.379785
-0.368891
-0.35776
-0.346444
-0.334983
-0.323417
-0.438876
-0.431028
-0.424857
-0.41649
-0.407781
-0.398284
-0.38834
-0.377977
-0.367295
-0.356354
-0.345211
-0.333912
-0.322505
-0.434059
-0.427201
-0.421417
-0.413546
-0.405197
-0.396026
-0.386354
-0.376227
-0.365752
-0.354995
-0.344019
-0.332879
-0.321626
-0.42942
-0.423516
-0.418104
-0.410711
-0.402707
-0.393849
-0.38444
-0.374541
-0.364264
-0.353685
-0.342871
-0.331884
-0.320781
-0.424967
-0.419979
-0.414924
-0.407988
-0.400315
-0.391759
-0.3826
-0.37292
-0.362835
-0.352426
-0.341769
-0.330929
-0.420709
-0.416596
-0.411882
-0.405384
-0.398028
-0.389759
-0.38084
-0.371369
-0.361466
-0.351221
-0.340714
-0.330017
-0.416654
-0.413376
-0.408986
-0.402904
-0.395849
-0.387853
-0.379162
-0.36989
-0.360161
-0.350072
-0.339708
-0.329147
-0.412811
-0.410324
-0.406241
-0.400553
-0.393782
-0.386045
-0.37757
-0.368486
-0.358923
-0.348982
-0.338755
-0.328323
-0.409187
-0.407446
-0.403652
-0.398335
-0.391833
-0.384339
-0.376068
-0.367162
-0.357754
-0.347953
-0.337854
-0.327546
-0.40579
-0.404748
-0.401224
-0.396256
-0.390005
-0.382739
-0.374658
-0.365919
-0.356657
-0.346987
-0.33701
-0.326816
-0.402626
-0.402235
-0.398964
-0.394319
-0.388301
-0.381248
-0.373344
-0.364759
-0.355634
-0.346086
-0.336222
-0.326136
-0.399702
-0.399913
-0.396875
-0.392529
-0.386726
-0.379869
-0.372129
-0.363687
-0.354687
-0.345253
-0.335493
-0.325508
-0.397024
-0.397786
-0.394961
-0.390888
-0.385284
-0.378605
-0.371015
-0.362704
-0.353819
-0.344488
-0.334825
-0.324931
-0.394597
-0.395859
-0.393227
-0.389402
-0.383976
-0.37746
-0.370005
-0.361813
-0.353032
-0.343795
-0.334219
-0.324408
-0.392427
-0.394136
-0.391677
-0.388073
-0.382806
-0.376435
-0.369101
-0.361015
-0.352327
-0.343174
-0.333676
-0.390518
-0.392621
-0.390313
-0.386903
-0.381777
-0.375532
-0.368305
-0.360312
-0.351706
-0.342628
-0.333198
-0.388874
-0.391316
-0.389138
-0.385896
-0.38089
-0.374755
-0.367619
-0.359706
-0.351171
-0.342157
-0.332786
-0.387498
-0.390224
-0.388155
-0.385053
-0.380148
-0.374105
-0.367045
-0.359199
-0.350723
-0.341762
-0.332442
-0.386394
-0.389348
-0.387366
-0.384377
-0.379552
-0.373583
-0.366584
-0.358792
-0.350363
-0.341445
-0.332164
-0.385563
-0.388689
-0.386773
-0.383868
-0.379104
-0.37319
-0.366237
-0.358486
-0.350092
-0.341206
-0.331956
-0.385009
-0.388249
-0.386377
-0.383528
-0.378805
-0.372927
-0.366005
-0.358281
-0.349911
-0.341047
-0.331816
-0.384731
-0.388028
-0.386179
-0.383358
-0.378655
-0.372796
-0.36589
-0.358178
-0.349821
-0.340967
-0.331746
0.0523922
0.0519443
0.0450982
0.03831
0.031582
0.0515032
0.0444402
0.037439
0.030502
0.0236316
0.0168297
0.0100984
0.00344821
0.0510693
0.0437829
0.0365624
0.0294104
0.0223295
0.0153219
0.00838957
0.00154206
-0.00523221
-0.0119201
-0.0185215
-0.025035
-0.0314579
-0.0377881
-0.0440235
-0.0501621
0.0506429
0.0431269
0.0356808
0.0283075
0.0210101
0.0137912
0.00665234
-0.000395803
-0.00736436
-0.0142418
-0.0210264
-0.0277164
-0.0343092
-0.0408024
-0.0471939
-0.0534813
-0.0596627
-0.0657364
0.0424723
0.0347942
0.0271934
0.0196735
0.0122377
0.0048858
-0.00236693
-0.00953542
-0.016607
-0.023579
-0.0304495
-0.037216
-0.0438756
-0.0504259
-0.0568644
-0.0631891
-0.0693979
0.0418182
0.0339021
0.0260678
0.0183196
0.0106605
0.0030837
-0.00437297
-0.0117452
-0.0190152
-0.0261788
-0.0332338
-0.0401775
-0.0470067
-0.0537187
-0.0603109
-0.0667808
-0.0731263
0.0411657
0.0330059
0.0249328
0.0169509
0.00906066
0.00124368
-0.0064123
-0.0139911
-0.0214634
-0.0288228
-0.0360665
-0.0431911
-0.0501934
-0.0570702
-0.0638188
-0.0704364
-0.0769206
0.040528
0.0321173
0.0237981
0.0155753
0.00745369
-0.000551929
-0.00847191
-0.0162692
-0.023949
-0.0315094
-0.0389464
-0.0462561
-0.0534351
-0.06048
-0.0673876
-0.074155
-0.0807794
0.039906
0.031231
0.0226533
0.0141779
0.00581164
-0.00241834
-0.0105816
-0.0186011
-0.0264947
-0.0342608
-0.0418942
-0.0493911
-0.0567476
-0.06396
-0.0710249
-0.0779388
-0.0846989
0.0391673
0.0302307
0.0213968
0.0126701
0.00405531
-0.00442372
-0.0127928
-0.021028
-0.0291326
-0.0371008
-0.0449274
-0.052608
-0.0601382
-0.067514
-0.0747313
-0.0817864
-0.0886757
0.038234
0.029111
0.0200866
0.011164
0.00234224
-0.00634637
-0.0148903
-0.0233203
-0.0316241
-0.0397922
-0.0478185
-0.055698
-0.063426
-0.0709977
-0.0784087
-0.0856546
-0.0927314
-0.172517
-0.176787
-0.165374
-0.169461
-0.173626
-0.177897
-0.182291
-0.162303
-0.166326
-0.170413
-0.174577
-0.178831
-0.183203
-0.187718
-0.159167
-0.163139
-0.167156
-0.171232
-0.17538
-0.179615
-0.183951
-0.188418
-0.193051
-0.155979
-0.159918
-0.163884
-0.167888
-0.171942
-0.176061
-0.180261
-0.184559
-0.188969
-0.193526
-0.198274
-0.148797
-0.152733
-0.156665
-0.160603
-0.164558
-0.168541
-0.172566
-0.176647
-0.1808
-0.185042
-0.189393
-0.19387
-0.198511
-0.203368
-0.14543
-0.149407
-0.153361
-0.157301
-0.161236
-0.165178
-0.169137
-0.173127
-0.177162
-0.181259
-0.185434
-0.189708
-0.194102
-0.198638
-0.203353
-0.208316
-0.137817
-0.141915
-0.145965
-0.149974
-0.153949
-0.157899
-0.161833
-0.165761
-0.169695
-0.173647
-0.177632
-0.181665
-0.185765
-0.18995
-0.194244
-0.198671
-0.203254
-0.208036
-0.213099
-0.129678
-0.133972
-0.138197
-0.142356
-0.146457
-0.150504
-0.154506
-0.15847
-0.162406
-0.166322
-0.170231
-0.174145
-0.178078
-0.182045
-0.186063
-0.190152
-0.194335
-0.198635
-0.203082
-0.207701
-0.212541
-0.217696
-0.111393
-0.116138
-0.120789
-0.12535
-0.129823
-0.13421
-0.138517
-0.142748
-0.146907
-0.151001
-0.155037
-0.159022
-0.162964
-0.166874
-0.170762
-0.17464
-0.178521
-0.182421
-0.186356
-0.190345
-0.19441
-0.198574
-0.202866
-0.207318
-0.211961
-0.216845
-0.222084
-0.0737152
-0.0793476
-0.0848747
-0.0902959
-0.095611
-0.10082
-0.105922
-0.11092
-0.115812
-0.120602
-0.12529
-0.12988
-0.134373
-0.138774
-0.143086
-0.147315
-0.151465
-0.155544
-0.159558
-0.163516
-0.167426
-0.171298
-0.175145
-0.178979
-0.182815
-0.186668
-0.190556
-0.194501
-0.198525
-0.202655
-0.206922
-0.211363
-0.216013
-0.220926
-0.226236
-0.0716985
-0.0775527
-0.0832947
-0.0889231
-0.0944371
-0.0998364
-0.105121
-0.11029
-0.115346
-0.120288
-0.125118
-0.129838
-0.13445
-0.138958
-0.143365
-0.147675
-0.151894
-0.156027
-0.160081
-0.164064
-0.167983
-0.17185
-0.175673
-0.179467
-0.183244
-0.18702
-0.190811
-0.194638
-0.198522
-0.202489
-0.206568
-0.210792
-0.215202
-0.21984
-0.224765
-0.230129
-0.0754869
-0.0814595
-0.0873111
-0.0930402
-0.098646
-0.104128
-0.109486
-0.114719
-0.119829
-0.124816
-0.129682
-0.134428
-0.139058
-0.143573
-0.147979
-0.15228
-0.15648
-0.160586
-0.164605
-0.168545
-0.172416
-0.176226
-0.179989
-0.183716
-0.187422
-0.191123
-0.194838
-0.198587
-0.202394
-0.206286
-0.210293
-0.214454
-0.218813
-0.223418
-0.228333
-0.233732
-0.0793432
-0.0854348
-0.0913961
-0.0972254
-0.102922
-0.108485
-0.113914
-0.119208
-0.124369
-0.129397
-0.134294
-0.139061
-0.143701
-0.148218
-0.152615
-0.156897
-0.161069
-0.165138
-0.169112
-0.172998
-0.176807
-0.180548
-0.184235
-0.18788
-0.191499
-0.195109
-0.198729
-0.202381
-0.206089
-0.209882
-0.213793
-0.217863
-0.222141
-0.22668
-0.231553
-0.236952
-0.0832672
-0.0894788
-0.0955506
-0.10148
-0.107268
-0.112911
-0.11841
-0.123764
-0.128974
-0.13404
-0.138965
-0.143749
-0.148396
-0.152909
-0.157291
-0.161549
-0.165687
-0.169712
-0.173632
-0.177456
-0.181194
-0.184856
-0.188456
-0.192007
-0.195525
-0.199028
-0.202536
-0.206069
-0.209655
-0.213323
-0.217106
-0.221048
-0.225199
-0.229619
-0.234386
-0.239708
-0.0872568
-0.0935891
-0.0997713
-0.105801
-0.111678
-0.1174
-0.122967
-0.128379
-0.133635
-0.138737
-0.143686
-0.148485
-0.153135
-0.15764
-0.162005
-0.166235
-0.170336
-0.174315
-0.17818
-0.181941
-0.185606
-0.18919
-0.192703
-0.196162
-0.199581
-0.202979
-0.206376
-0.209794
-0.213259
-0.216801
-0.220453
-0.224258
-0.228268
-0.232548
-0.237178
-0.242374
-0.0913012
-0.0977466
-0.10403
-0.11015
-0.116104
-0.121891
-0.127511
-0.132962
-0.138246
-0.143363
-0.148315
-0.153103
-0.157732
-0.162203
-0.166523
-0.170697
-0.174731
-0.178634
-0.182414
-0.186081
-0.189647
-0.193125
-0.196528
-0.199872
-0.203174
-0.206455
-0.209734
-0.213035
-0.216386
-0.219816
-0.223361
-0.227066
-0.230985
-0.235188
-0.239766
-0.244939
-0.0953952
-0.101945
-0.108319
-0.114515
-0.120531
-0.126365
-0.132016
-0.137483
-0.142765
-0.147863
-0.152779
-0.157513
-0.162069
-0.16645
-0.17066
-0.174706
-0.178594
-0.182333
-0.185931
-0.1894
-0.19275
-0.195997
-0.199156
-0.202242
-0.205276
-0.208276
-0.211267
-0.214272
-0.217319
-0.220441
-0.223672
-0.227055
-0.230645
-0.23451
-0.238741
-0.243543
-0.099635
-0.106363
-0.112911
-0.119275
-0.125453
-0.13144
-0.137236
-0.142839
-0.148247
-0.153459
-0.158476
-0.163298
-0.167926
-0.172363
-0.176611
-0.180674
-0.184557
-0.188266
-0.191808
-0.195192
-0.198425
-0.20152
-0.204487
-0.207339
-0.21009
-0.212754
-0.215347
-0.217884
-0.220382
-0.222857
-0.225325
-0.2278
-0.230298
-0.232831
-0.235414
-0.238107
)
;

boundaryField
{
    inlet
    {
        type            zeroGradient;
    }
    outlet
    {
        type            fixedValue;
        value           nonuniform 0();
    }
    cylinder
    {
        type            zeroGradient;
    }
    top
    {
        type            symmetryPlane;
    }
    bottom
    {
        type            symmetryPlane;
    }
    defaultFaces
    {
        type            empty;
    }
    procBoundary5to0
    {
        type            processor;
        value           nonuniform List<scalar> 
14
(
0.047451
0.0590801
0.0588463
0.0586257
0.0584188
0.058226
0.0502245
0.0502245
0.0498129
0.0494083
0.0490259
0.0486737
0.0482019
0.047451
)
;
    }
    procBoundary5to1
    {
        type            processor;
        value           nonuniform List<scalar> 
69
(
0.0528465
0.0457566
0.0457566
0.0391753
0.0326501
0.0249164
0.0249164
0.0183148
0.0117808
0.00532983
-0.00313921
-0.00313921
-0.00964212
-0.0160646
-0.0224055
-0.0286622
-0.0348327
-0.040915
-0.0469075
-0.0562024
-0.0562024
-0.0621425
-0.167079
-0.171222
-0.160278
-0.16428
-0.168352
-0.168352
-0.157393
-0.161355
-0.161355
-0.1544
-0.158331
-0.158331
-0.151315
-0.155229
-0.155229
-0.144214
-0.148136
-0.152055
-0.152055
-0.140881
-0.144849
-0.144849
-0.133292
-0.137379
-0.141424
-0.141424
-0.125179
-0.129454
-0.133665
-0.133665
-0.107032
-0.111727
-0.116338
-0.120864
-0.12531
-0.12531
-0.0699477
-0.0754707
-0.0808961
-0.0862237
-0.0914531
-0.0965843
-0.101618
-0.106554
-0.106554
-0.0679787
-0.0679787
)
;
    }
    procBoundary5to2
    {
        type            processor;
        value           nonuniform List<scalar> 
12
(
-0.181035
-0.186668
-0.192223
-0.197685
-0.203037
-0.208261
-0.21334
-0.218254
-0.222985
-0.227507
-0.231792
-0.23581
)
;
    }
    procBoundary5to4
    {
        type            processor;
        value           nonuniform List<scalar> 
69
(
0.961116
0.858838
0.844548
0.829361
0.813301
0.796394
0.778668
0.760152
0.740873
0.720864
0.720864
0.675295
0.654695
0.633485
0.611698
0.589366
0.566525
0.566525
0.518699
0.496231
0.473378
0.450177
0.426662
0.426662
0.393993
0.371091
0.347981
0.324698
0.324698
0.299873
0.277535
0.25507
0.25507
0.237243
0.215812
0.194405
0.194405
0.182375
0.162074
0.162074
0.153653
0.134477
0.134477
0.128842
0.110782
0.110782
0.107296
0.0903256
0.0903256
0.0884776
0.0725608
0.0725608
0.0719551
0.0719551
0.0714337
0.0573801
0.0573801
0.0576234
0.0576234
0.0577009
0.0577009
0.0575839
0.0575839
0.0574149
0.0574149
0.0559789
0.0559789
0.0599516
0.0599516
)
;
    }
    procBoundary5to6
    {
        type            processor;
        value           nonuniform List<scalar> 
60
(
-0.281109
-0.240925
-0.281109
-0.27393
-0.26541
-0.26541
-0.261302
-0.260126
-0.268375
-0.268375
-0.267067
-0.28301
-0.28301
-0.282267
-0.281617
-0.281042
-0.293871
-0.293871
-0.293191
-0.292553
-0.304957
-0.304957
-0.304189
-0.303449
-0.302737
-0.30205
-0.313377
-0.313377
-0.312568
-0.311787
-0.311034
-0.310311
-0.309618
-0.319971
-0.319971
-0.319197
-0.318462
-0.317765
-0.317108
-0.316492
-0.315918
-0.315388
-0.314902
-0.314461
-0.32394
-0.32394
-0.323528
-0.323173
-0.322876
-0.322637
-0.322457
-0.322336