/*--------------------------------*- C++ -*----------------------------------*\
  =========                 |
  \\      /  F ield         | OpenFOAM: The Open Source CFD Toolbox
   \\    /   O peration     | Website:  https://openfoam.org
    \\  /    A nd           | Version:  7
     \\/     M anipulation  |
\*---------------------------------------------------------------------------*/
FoamFile
{
    version     2.0;
    format      ascii;
    class       surfaceScalarField;
    location    "20";
    object      phi;
}
// * * * * * * * * * * * * * * * * * * * * * * * * * * * * * * * * * * * * * //

dimensions      [0 3 -1 0 0 0 0];

internalField   nonuniform List<scalar> 
5058
(
-1.58302e-13
0.000179156
0.000190978
0.000202603
0.00021402
0.000225218
0.000236186
0.000246913
0.000257388
0.000267602
-9.94248e-06
0.000277544
0.000737831
-9.66191e-06
0.000287206
0.000763984
-9.37244e-06
0.000296578
0.000789418
-9.07449e-06
0.000305653
0.000814109
-8.76855e-06
0.000314421
0.000838038
-8.45513e-06
0.000322877
0.000861183
-8.13478e-06
0.000331011
-3.04762e-05
0.000883524
0.00136912
-7.80809e-06
0.000338819
-2.93276e-05
0.000905044
0.00140337
-7.47574e-06
0.000346295
-2.81559e-05
0.000925724
0.0014364
-7.13844e-06
0.000353434
-2.69628e-05
0.000945548
0.00146816
-6.79698e-06
0.000360231
-2.57503e-05
0.000964502
0.00149864
-6.45222e-06
0.000366683
-2.45202e-05
0.00098257
-5.369e-05
0.00152781
0.00200808
-6.10509e-06
0.000372788
-2.32745e-05
0.000999739
-5.11121e-05
0.00155565
0.00204618
-5.75659e-06
0.000378544
-2.20153e-05
0.001016
-4.84988e-05
0.00158213
0.00208259
-5.40773e-06
0.000383952
-2.07447e-05
0.00103133
-4.58535e-05
0.00160724
0.00211729
-5.05948e-06
0.000389012
-1.94646e-05
0.00104574
-4.31795e-05
0.00163095
-7.61295e-05
0.00215024
0.0026103
-4.71268e-06
0.000393724
-1.81769e-05
0.0010592
-4.04802e-05
0.00165326
-7.16596e-05
0.00218142
0.00265031
-4.3683e-06
0.000398093
-1.68835e-05
0.00107172
-3.77592e-05
0.00167413
-6.71443e-05
0.0022108
0.00268825
-3.62301e-06
0.000401716
-1.4855e-05
0.00108295
-3.403e-05
0.00169331
-6.13973e-05
0.00223817
-9.70933e-05
0.00272395
0.00315542
-3.27251e-06
0.000404988
-1.35398e-05
0.00109322
-3.12586e-05
0.00171103
-5.67878e-05
0.0022637
-9.03585e-05
0.00275752
0.00319711
-2.91771e-06
0.000407906
-1.22167e-05
0.00110252
-2.84705e-05
0.00172728
-5.21452e-05
0.00228737
-8.35657e-05
0.00278894
0.00323645
-2.55931e-06
0.000410465
-1.08873e-05
0.00111085
-2.56692e-05
0.00174206
-4.74751e-05
0.00230918
-7.67228e-05
0.00281819
-0.000113667
0.0032734
0.00367927
-2.19797e-06
0.000412663
-9.55347e-06
0.0011182
-2.28581e-05
0.00175537
-4.27829e-05
0.0023291
-6.98373e-05
0.00284524
-0.00010436
0.00330792
0.00372142
-1.83452e-06
0.000414498
-8.21697e-06
0.00112458
-2.00406e-05
0.00176719
-3.80742e-05
0.00234714
-6.29171e-05
0.00287008
-9.49904e-05
0.00333999
-0.00013453
0.00376096
0.00413713
-1.46987e-06
0.000415968
-6.87983e-06
0.00112999
-1.72204e-05
0.00177753
-3.33548e-05
0.00236327
-5.59702e-05
0.0028927
-8.55694e-05
0.00336959
-0.000122462
0.00379785
0.00418144
-1.10496e-06
0.000417073
-5.54416e-06
0.00113443
-1.44013e-05
0.00178639
-2.86304e-05
0.0023775
-4.90046e-05
0.00291307
-7.61074e-05
0.00339669
-0.000110322
0.00383207
-0.000151837
0.00422295
0.00457349
-7.40709e-07
0.000417813
-4.21206e-06
0.0011379
-1.1587e-05
0.00179376
-2.39071e-05
0.00238982
-4.20289e-05
0.0029312
-6.66148e-05
0.00342128
-9.81214e-05
0.00386357
-0.000136803
0.00426163
0.00461941
-3.78025e-07
0.000418191
-2.88571e-06
0.00114041
-8.78145e-06
0.00179966
-1.91908e-05
0.00240023
-3.50513e-05
0.00294706
-5.71028e-05
0.00344333
-8.58742e-05
0.00389235
-0.000121686
0.00429744
-0.000164662
0.00466239
0.00499137
-2.1642e-08
0.000418213
-1.56725e-06
0.00114196
-5.98847e-06
0.00180408
-1.44877e-05
0.00240873
-2.80806e-05
0.00296065
-4.75825e-05
0.00346283
-7.35938e-05
0.00391836
-0.0001065
0.00433035
-0.000146485
0.00470237
0.00503844
3.4051e-07
0.000417872
-2.58485e-07
0.00114256
-3.212e-06
0.00180703
-9.80405e-06
0.00241532
-2.11254e-05
0.00297197
-3.80651e-05
0.00347977
-6.1294e-05
0.00394159
-9.12633e-05
0.00436032
-0.000128214
0.00473932
-0.000172198
0.00508242
0.00539392
6.93671e-07
0.000417179
1.03833e-06
0.00114221
-4.55885e-07
0.00180853
-5.14595e-06
0.00242001
-1.41945e-05
0.00298102
-2.85622e-05
0.00349414
-4.89889e-05
0.00396201
-7.59909e-05
0.00438732
-0.000109868
0.0047732
-0.000150722
0.00512327
0.00544168
1.04263e-06
0.000416136
2.3212e-06
0.00114093
2.27586e-06
0.00180857
-5.19662e-07
0.00242281
-7.29693e-06
0.0029878
-1.90855e-05
0.00350593
-3.66931e-05
0.00397962
-6.07002e-05
0.00441133
-9.14662e-05
0.00480397
-0.000129144
0.00516095
-0.000173704
0.00548624
0.00578423
1.38662e-06
0.000414749
3.58822e-06
0.00113873
4.97944e-06
0.00180718
4.06856e-06
0.00242372
-4.41395e-07
0.00299231
-9.64681e-06
0.00351513
-2.44211e-05
0.00399439
-4.54085e-05
0.00443232
-7.30277e-05
0.00483158
-0.000107483
0.00519541
-0.00014879
0.00552755
-0.000196805
0.00583225
0.00611407
1.72501e-06
0.000413024
4.8375e-06
0.00113562
7.65106e-06
0.00180437
8.61248e-06
0.00242276
6.36276e-06
0.00299456
-2.579e-07
0.00352176
-1.21881e-05
0.00400632
-3.01336e-05
0.00445026
-5.45731e-05
0.00485602
-8.57635e-05
0.0052266
-0.000123764
0.00556555
-0.000168466
0.00587695
0.00616523
2.05723e-06
0.000410967
6.06719e-06
0.00113161
1.02869e-05
0.00180015
1.31059e-05
0.00241994
1.31068e-05
0.00299456
9.06884e-06
0.00352579
-5.02219e-09
0.0040154
-1.48934e-05
0.00446515
-3.6123e-05
0.00487725
-6.40075e-05
0.00525448
-9.86518e-05
0.00560019
-0.000139982
0.00591828
-0.000187777
0.00621302
0.00648895
2.38276e-06
0.000408584
7.27551e-06
0.00112672
1.28834e-05
0.00179454
1.75428e-05
0.00241528
1.97816e-05
0.00299232
1.83214e-05
0.00352725
1.21014e-05
0.00402162
2.93458e-07
0.00447696
-1.76987e-05
0.00489525
-4.2239e-05
0.00527902
-7.34787e-05
0.00563143
-0.000111381
0.00595618
-0.000155752
0.00625739
-0.000206271
0.00653947
0.00680689
2.7011e-06
0.000405883
8.4607e-06
0.00112096
1.54367e-05
0.00178756
2.19168e-05
0.0024088
2.63783e-05
0.00298785
2.74877e-05
0.00352614
2.41272e-05
0.00402498
1.54083e-05
0.00448568
6.78094e-07
0.00490998
-2.04823e-05
0.00530018
-4.82717e-05
0.00565922
-8.2692e-05
0.0059906
-0.000123578
0.00629828
-0.000170627
0.00658652
-0.000223433
0.00685969
0.00712205
3.01176e-06
0.000402872
9.62108e-06
0.00111435
1.79434e-05
0.00177924
2.62222e-05
0.00240052
3.28879e-05
0.00298119
3.65558e-05
0.00352248
3.60526e-05
0.00402548
3.04325e-05
0.0044913
1.89853e-05
0.00492142
1.23768e-06
0.00531793
-2.3058e-05
0.00568352
-5.39443e-05
0.00602149
-9.12862e-05
0.00633562
-0.000134803
0.00663004
-0.000184096
0.00690899
-0.000238684
0.00717663
0.00743682
3.31431e-06
0.000399557
1.0755e-05
0.00110691
2.04e-05
0.0017696
3.04529e-05
0.00239047
3.93016e-05
0.00297234
4.55132e-05
0.00351626
4.78623e-05
0.00402313
4.53469e-05
0.00449381
3.72005e-05
0.00492957
2.28954e-05
0.00533224
2.13417e-06
0.00570428
-2.51681e-05
0.00604879
-5.89096e-05
0.00636936
-9.8832e-05
0.00666996
-0.000144552
0.00695471
-0.000195593
0.00722767
-0.000251414
0.00749264
0.00775284
3.60831e-06
0.000395949
1.1861e-05
0.00109865
2.2803e-05
0.00175866
3.46031e-05
0.00237867
4.56105e-05
0.00296133
5.43481e-05
0.00350753
5.95405e-05
0.00401794
6.01321e-05
0.00449322
5.5301e-05
0.0049344
4.44649e-05
0.00534307
2.72759e-05
0.00572147
3.60519e-06
0.00607246
-2.64809e-05
0.00639945
-6.27498e-05
0.00670623
-0.000104835
0.00699679
-0.00015227
0.00727511
-0.00020452
0.00754489
-0.00026102
0.00780934
0.00807106
3.89334e-06
0.000392056
1.29373e-05
0.00108961
2.51492e-05
0.00174644
3.86671e-05
0.00236515
5.18061e-05
0.00294819
6.30482e-05
0.00349628
7.10715e-05
0.00400992
7.47687e-05
0.00448952
7.32636e-05
0.00493591
6.59197e-05
0.00535042
5.23378e-05
0.00573505
3.23436e-05
0.00609245
5.96586e-06
0.00642582
-2.6592e-05
0.00673879
-6.49835e-05
0.00703518
-0.000108754
0.00731888
-0.000157376
0.00759351
-0.000210293
0.00786226
-0.000266961
0.00812773
0.00839192
4.16904e-06
0.000387887
1.39827e-05
0.0010798
2.74353e-05
0.00173299
4.26394e-05
0.00234995
5.78797e-05
0.00293295
7.16017e-05
0.00348256
8.24398e-05
0.00399908
8.92372e-05
0.00448273
9.10649e-05
0.00493408
8.72328e-05
0.00535425
7.72897e-05
0.00574499
6.10144e-05
0.00610873
3.83955e-05
0.00644844
9.6052e-06
0.00676758
-2.50331e-05
0.00706982
-6.50805e-05
0.00735893
-0.000110021
0.00763845
-0.000159303
0.00791154
-0.000212388
0.00818082
0.00844834
-0.00026881
4.43501e-06
0.000383452
1.49957e-05
0.00106924
2.96584e-05
0.00171833
4.65145e-05
0.00233309
6.38231e-05
0.00291564
7.99968e-05
0.00346639
9.36296e-05
0.00398545
0.000103518
0.00447284
0.000108682
0.00492891
0.000108377
0.00535455
0.000102101
0.00575127
8.95838e-05
0.00612125
7.07722e-05
0.00646726
4.58041e-05
0.00679254
1.49767e-05
0.00710065
-2.12894e-05
0.00739519
-6.24906e-05
0.00767965
-0.000108085
0.00795714
-0.000157538
0.00823027
0.00850118
-0.000210375
4.69092e-06
0.000378761
1.5975e-05
0.00105795
3.18153e-05
0.00170249
5.02871e-05
0.00231462
6.96281e-05
0.0028963
8.82218e-05
0.0034478
0.000104626
0.00396904
0.000117591
0.00445987
0.00012609
0.00492042
0.000129325
0.00535132
0.00012674
0.00575386
0.000118018
0.00612997
0.000103059
0.00648221
8.19661e-05
0.00681364
5.50066e-05
0.00712761
2.25797e-05
0.00742762
-1.48257e-05
0.00771706
-5.66762e-05
0.00799899
-0.000102444
0.00827604
0.00855038
-0.000151648
4.93641e-06
0.000373824
1.69192e-05
0.00104597
3.39033e-05
0.0016855
5.39521e-05
0.00229457
7.52866e-05
0.00287497
9.62654e-05
0.00342682
0.000115412
0.0039499
0.000131438
0.00444385
0.000143266
0.00490859
0.000150048
0.00534454
0.000151176
0.00575273
0.000146281
0.00613486
0.000135219
0.00649328
0.000118052
0.0068308
9.50159e-05
0.00715065
6.64862e-05
0.00745615
3.29338e-05
0.00775061
-5.12847e-06
0.00803705
-4.71388e-05
0.00831805
0.0085959
-9.26607e-05
5.17117e-06
0.000368653
1.78273e-05
0.00103331
3.59196e-05
0.00166741
5.75047e-05
0.00227298
8.07911e-05
0.00285168
0.000104116
0.00340349
0.000125975
0.00392804
0.000145039
0.00442478
0.000160186
0.00489344
0.000170519
0.0053342
0.000175376
0.00574787
0.000174338
0.0061359
0.000167213
0.0065004
0.000154021
0.006844
0.000134963
0.0071697
0.000110388
0.00748072
8.07479e-05
0.00778025
4.65568e-05
0.00807124
8.39556e-06
0.00835621
0.00863776
-3.34583e-05
5.39488e-06
0.000363258
1.8698e-05
0.00102001
3.78616e-05
0.00164825
6.09402e-05
0.0022499
8.61338e-05
0.00282649
0.000111764
0.00337786
0.000136298
0.0039035
0.000158374
0.0044027
0.000176826
0.00487499
0.000190709
0.00532032
0.000199308
0.00573927
0.000202153
0.00613306
0.000199002
0.00650355
0.000189831
0.00685317
0.000174805
0.00718473
0.000154241
0.00750129
0.000128572
0.00780592
9.82908e-05
0.00810152
6.39141e-05
0.00839058
0.00867574
2.59279e-05
5.60723e-06
0.000357651
1.95302e-05
0.00100609
3.9727e-05
0.00162805
6.42541e-05
0.00222538
9.13078e-05
0.00279944
0.000119197
0.00334997
0.000146367
0.00387633
0.000171425
0.00437765
0.000193163
0.00485325
0.00021059
0.0053029
0.00022294
0.00572692
0.000229689
0.00612631
0.000230546
0.00650269
0.000225441
0.00685827
0.000214498
0.00719567
0.000198003
0.00751778
0.000176361
0.00782756
0.000150053
0.00812783
0.000119592
0.00842105
0.00870986
8.54755e-05
5.80793e-06
0.000351843
2.03229e-05
0.000991572
4.15134e-05
0.00160686
6.74422e-05
0.00219945
9.6306e-05
0.00277057
0.000126405
0.00331987
0.000156168
0.00384657
0.000184172
0.00434964
0.000209173
0.00482825
0.000230133
0.00528194
0.000246237
0.00571081
0.000256909
0.00611564
0.000261804
0.0064978
0.000260806
0.00685927
0.000253996
0.00720248
0.000241625
0.00753015
0.000224071
0.00784511
0.000201798
0.0081501
0.000175312
0.00844753
0.00874006
0.000145116
5.99667e-06
0.000345846
2.10753e-05
0.000976493
4.32186e-05
0.00158472
7.05004e-05
0.00217217
0.000101122
0.00273995
0.000133379
0.00328762
0.000165687
0.00381426
0.000196598
0.00431873
0.000224833
0.00480001
0.000249311
0.00525746
0.000269168
0.00569096
0.000283775
0.00610103
0.000292736
0.00648884
0.000295883
0.00685612
0.000293254
0.00720511
0.000285062
0.00753835
0.000271655
0.00785852
0.000253477
0.00816828
0.000231029
0.00846998
0.00876627
0.000204812
6.17316e-06
0.000339673
2.17864e-05
0.00096088
4.48408e-05
0.00156166
7.34252e-05
0.00214358
0.000105749
0.00270763
0.00014011
0.00325326
0.000174911
0.00377946
0.000208684
0.00428496
0.00024012
0.00476858
0.000268095
0.00522948
0.000291699
0.00566735
0.00031025
0.00608248
0.000323299
0.00647579
0.000330627
0.0068488
0.000332225
0.00720351
0.000328264
0.00754231
0.000319063
0.00786772
0.000305043
0.0081823
0.000286696
0.00848833
0.00878845
0.00026452
6.33712e-06
0.000333336
2.24554e-05
0.000944761
4.63782e-05
0.00153774
7.62129e-05
0.00211375
0.000110182
0.00267366
0.000146587
0.00321685
0.000183826
0.00374222
0.000220413
0.00424837
0.00025501
0.00473398
0.000286457
0.00519804
0.000313797
0.00564001
0.000336295
0.00605998
0.000353451
0.00645863
0.000364992
0.00683725
0.000370859
0.00719765
0.000371182
0.00754199
0.000366245
0.00787266
0.000356445
0.0081921
0.000342261
0.00850251
0.00880652
0.00032419
6.48824e-06
0.000326848
2.30817e-05
0.000928168
4.78292e-05
0.00151299
7.88606e-05
0.00208272
0.000114415
0.0026381
0.000152803
0.00317846
0.000192419
0.00370261
0.000231767
0.00420902
0.000269483
0.00469626
0.00030437
0.00516315
0.000335428
0.00560896
0.000361873
0.00603354
0.000383149
0.00643736
0.00039893
0.00682147
0.000409107
0.00718747
0.000413764
0.00753733
0.000413148
0.00787327
0.00040763
0.00819762
0.000397675
0.00851246
0.00882042
0.000383773
6.62626e-06
0.000320222
2.36646e-05
0.00091113
4.91924e-05
0.00148747
8.13653e-05
0.00205054
0.000118443
0.00260102
0.000158749
0.00313816
0.00020068
0.00366067
0.00024273
0.00416697
0.000283515
0.00465548
0.000321806
0.00512486
0.00035656
0.0055742
0.000386944
0.00600315
0.00041235
0.00641195
0.000432395
0.00680143
0.000446918
0.00717295
0.000455957
0.00752829
0.000459718
0.00786951
0.000458543
0.0081988
0.000452881
0.00851813
0.00883009
0.000443213
6.75095e-06
0.000313471
2.42036e-05
0.000893677
5.04666e-05
0.0014612
8.37246e-05
0.00201729
0.000122262
0.00256249
0.000164417
0.003096
0.000208596
0.0036165
0.000253286
0.00412228
0.000297086
0.00461168
0.000338739
0.0050832
0.000377161
0.00553578
0.000411472
0.00596884
0.00044101
0.00638241
0.000465338
0.0067771
0.000484241
0.00715404
0.000497707
0.00751482
0.0005059
0.00786132
0.000509129
0.00819557
0.000507824
0.00851943
0.00883546
0.000502455
6.86213e-06
0.000306609
2.46986e-05
0.000875841
5.16511e-05
0.00143425
8.59364e-05
0.001983
0.000125867
0.00252256
0.000169801
0.00305207
0.000216157
0.00357014
0.00026342
0.00407502
0.000310176
0.00456492
0.000355141
0.00503824
0.000397197
0.00549372
0.000435416
0.00593062
0.000469085
0.00634874
0.000497711
0.00674847
0.000521023
0.00713073
0.000538958
0.00749689
0.000551635
0.00784864
0.000559328
0.00818787
0.000562444
0.00851632
0.00883646
0.00056144
6.95981e-06
0.000299649
2.51493e-05
0.000857651
5.27451e-05
0.00140665
8.79987e-05
0.00194775
0.000129254
0.0024813
0.000174895
0.00300643
0.000223352
0.00352168
0.000273116
0.00402526
0.000322763
0.00451528
0.000370988
0.00499001
0.000416637
0.00544807
0.00045874
0.00588852
0.000496531
0.00631095
0.000529464
0.00671554
0.00055721
0.00710298
0.000579653
0.00747445
0.000596865
0.00783143
0.00060908
0.00817566
0.000616681
0.00850871
0.00883304
0.000620107
7.04407e-06
0.000292605
2.55558e-05
0.000839139
5.37482e-05
0.00137846
8.991e-05
0.00191158
0.00013242
0.00243879
0.000179691
0.00295916
0.000230173
0.0034712
0.000282362
0.00397307
0.00033483
0.00446281
0.000386254
0.00493859
0.000435449
0.00539888
0.000481405
0.00584256
0.000523305
0.00626905
0.000560548
0.0066783
0.000592748
0.00707078
0.000619734
0.00744746
0.000641527
0.00780964
0.000658322
0.00815887
0.000670471
0.00849656
0.00882512
0.000678391
7.32553e-06
0.000285279
2.63161e-05
0.000820149
5.52228e-05
0.00134955
9.23772e-05
0.00187443
0.000136197
0.00239497
0.000185128
0.00291023
0.000237643
0.00341869
0.000292251
0.00391846
0.000347524
0.00440754
0.000402125
0.00488399
0.000454844
0.00534616
0.000504632
0.00579278
0.000550626
0.00622306
0.00059217
0.00663675
0.000628824
0.00703413
0.000660359
0.00741593
0.000686747
0.00778325
0.000708138
0.00813747
0.000724853
0.00847985
0.00881269
0.000737285
7.38211e-06
0.000277897
2.66294e-05
0.000800902
5.60347e-05
0.00132015
9.39726e-05
0.00183649
0.000138902
0.00235004
0.000189303
0.00285982
0.000243676
0.00336431
0.000300544
0.00386159
0.000358484
0.0043496
0.000416147
0.00482633
0.000472301
0.00529001
0.000525861
0.00573922
0.000575917
0.006173
0.00062176
0.00659091
0.000662893
0.006993
0.000699028
0.00737979
0.000730083
0.00775219
0.00075616
0.0081114
0.000777544
0.00845847
0.00879563
0.000794598
7.42927e-06
0.000270468
2.69023e-05
0.000781429
5.67582e-05
0.00129029
9.54171e-05
0.00179783
0.000141382
0.00230408
0.00019317
0.00280804
0.000249312
0.00330817
0.000308353
0.00380255
0.000368874
0.00428908
0.000429522
0.00476568
0.000489044
0.00523048
0.000546323
0.00568194
0.000600407
0.00611892
0.000650534
0.00654078
0.000696148
0.00694738
0.000736903
0.00733904
0.000772661
0.00771644
0.000803472
0.00808059
0.000829582
0.00843236
0.0087739
0.000851318
7.46716e-06
0.000263001
2.71355e-05
0.00076176
5.73938e-05
0.00126004
9.67107e-05
0.00175852
0.000143635
0.00225715
0.000196726
0.00275494
0.000254548
0.00325035
0.000315667
0.00374143
0.000378679
0.00422606
0.000442227
0.00470213
0.000505045
0.00516767
0.000565986
0.005621
0.000624055
0.00606085
0.000678442
0.0064864
0.000728533
0.00689729
0.000773923
0.00729365
0.000814414
0.00767594
0.000850003
0.008045
0.000880893
0.00840147
0.00874742
0.00090737
7.49589e-06
0.000255505
2.73293e-05
0.000741927
5.79419e-05
0.00122942
9.78536e-05
0.00171861
0.000145662
0.00220934
0.000199969
0.00270064
0.000259376
0.00319094
0.000322478
0.00367833
0.000387885
0.00416066
0.000454245
0.00463577
0.000520279
0.00510163
0.000584814
0.00555646
0.00064682
0.00599884
0.000705436
0.00642778
0.000759993
0.00684274
0.000810025
0.00724361
0.000855275
0.00763069
0.000895683
0.00800459
0.000931402
0.00836575
0.00871614
0.000962676
7.51547e-06
0.000247989
2.74843e-05
0.000721958
5.84035e-05
0.0011985
9.88465e-05
0.00167816
0.000147461
0.00216073
0.000202897
0.0026452
0.000263794
0.00313005
0.000328779
0.00361334
0.000396482
0.00409295
0.000465557
0.00456669
0.00053472
0.00503247
0.000602776
0.00548841
0.000668661
0.00593296
0.000731468
0.00636497
0.000790472
0.00678373
0.000845148
0.00718894
0.000895176
0.00758067
0.000940437
0.00795933
0.000981033
0.00832515
0.00868002
0.00101716
7.52586e-06
0.000240463
2.76009e-05
0.000701883
5.87794e-05
0.00116732
9.96903e-05
0.00163725
0.000149034
0.00211139
0.000205509
0.00258873
0.000267797
0.00306776
0.000334562
0.00354658
0.000404456
0.00402306
0.000476147
0.004495
0.000548345
0.00496027
0.000619841
0.00541691
0.00068954
0.00586326
0.00075649
0.00629802
0.000819916
0.00672031
0.00087923
0.00712962
0.000934049
0.00752585
0.000984193
0.00790919
0.00102971
0.00827964
0.008639
0.00107073
7.52705e-06
0.000232936
2.76795e-05
0.00068173
5.90705e-05
0.00113593
0.000100386
0.00159594
0.000150381
0.00206139
0.000207804
0.0025313
0.000271384
0.00300418
0.000339822
0.00347814
0.000411799
0.00395108
0.000485998
0.00442081
0.000561133
0.00488514
0.000635981
0.00534206
0.000709419
0.00578982
0.000780459
0.00622698
0.00084827
0.00665249
0.000912208
0.00706569
0.000971825
0.00746623
0.00102687
0.00785414
0.00107735
0.00822917
0.00859303
0.00112331
7.51905e-06
0.000225417
2.77207e-05
0.000661529
5.92779e-05
0.00110438
0.000100935
0.00155428
0.000151503
0.00201082
0.000209783
0.00247302
0.000274554
0.00293941
0.000344556
0.00340814
0.000418503
0.00387714
0.000495098
0.00434421
0.000573063
0.00480717
0.000651166
0.00526396
0.000728264
0.00571272
0.000803328
0.00615192
0.000875482
0.00658034
0.000944021
0.00699715
0.00100843
0.00740182
0.00106841
0.00779416
0.00112387
0.00817371
0.00854208
0.00117482
7.50193e-06
0.000217915
2.7725e-05
0.000641306
5.94029e-05
0.0010727
0.00010134
0.00151234
0.000152402
0.00195976
0.000211448
0.00241398
0.000277305
0.00287355
0.000348759
0.00333668
0.00042456
0.00380134
0.000503435
0.00426533
0.000584116
0.00472649
0.000665372
0.0051827
0.000746038
0.00563206
0.000825055
0.0060729
0.0009015
0.0065039
0.00097461
0.00692404
0.00104381
0.00733262
0.00110872
0.00772926
0.00116919
0.00811324
0.0084861
0.00122516
7.47577e-06
0.00021044
2.76931e-05
0.000621088
5.94467e-05
0.00104095
0.000101601
0.00147019
0.00015308
0.00190828
0.000212799
0.00235426
0.000279638
0.00280671
0.00035243
0.00326389
0.000429964
0.0037238
0.000510997
0.0041843
0.000594277
0.00464321
0.000678573
0.00509841
0.00076271
0.00554792
0.000845599
0.00599001
0.000926273
0.00642322
0.00100391
0.0068464
0.00107788
0.00725865
0.00114773
0.00765941
0.00121323
0.00804773
0.00842508
0.00127425
7.44072e-06
0.000202999
2.76257e-05
0.000600903
5.94108e-05
0.00100916
0.000101721
0.00142788
0.00015354
0.00185646
0.000213839
0.00229396
0.000281554
0.002739
0.000355568
0.00318988
0.000434712
0.00364466
0.000517776
0.00410124
0.000603529
0.00455746
0.000690749
0.00501119
0.00077825
0.00546042
0.00086492
0.00590334
0.000949751
0.00633839
0.00103188
0.00676427
0.00111059
0.00717994
0.00118536
0.00758464
0.00125591
0.00797719
0.00835898
0.001322
7.39693e-06
0.000195602
2.75235e-05
0.000580777
5.92969e-05
0.000977386
0.000101703
0.00138547
0.000153785
0.00180438
0.000214572
0.00223317
0.000283056
0.00267051
0.000358173
0.00311476
0.0004388
0.00356403
0.000523765
0.00401627
0.000611862
0.00446936
0.000701879
0.00492117
0.000792629
0.00536967
0.00088298
0.00581299
0.00097189
0.00624948
0.00105844
0.00667772
0.00114186
0.00709652
0.00122155
0.00750495
0.00129714
0.0079016
0.0082878
0.00136832
7.34462e-06
0.000188257
2.73874e-05
0.000560734
5.91067e-05
0.000945667
0.000101549
0.00134303
0.000153817
0.00175211
0.000214999
0.00217199
0.000284146
0.00260137
0.000360247
0.00303866
0.000442228
0.00348205
0.000528958
0.00392954
0.000619262
0.00437906
0.000711945
0.00482849
0.000805821
0.00527579
0.000899744
0.00571907
0.000992642
0.00615658
0.00108355
0.00658682
0.00117163
0.00700844
0.00125621
0.00742037
0.00133684
0.00782096
0.00821151
0.00141313
7.28402e-06
0.000180973
2.72184e-05
0.0005408
5.8842e-05
0.000914044
0.000101262
0.00130061
0.00015364
0.00169973
0.000215126
0.0021105
0.000284828
0.00253166
0.000361792
0.0029617
0.000444996
0.00339884
0.000533353
0.00384119
0.000625722
0.00428669
0.000720932
0.00473328
0.000817803
0.00517892
0.000915181
0.00562169
0.00101197
0.0060598
0.00110715
0.00649164
0.00119984
0.00691575
0.00128928
0.00733092
0.00137495
0.00773529
0.00813012
0.00145634
7.21536e-06
0.000173758
2.70173e-05
0.000520998
5.85047e-05
0.000882556
0.000100845
0.00125827
0.000153259
0.00164732
0.000214957
0.00204881
0.000285107
0.00246151
0.000362812
0.00288399
0.000447106
0.00331455
0.000536947
0.00375135
0.000631236
0.0041924
0.000728826
0.00463569
0.000828553
0.0050792
0.000929259
0.00552098
0.00102982
0.00595923
0.0011292
0.00639226
0.00122643
0.00681852
0.00132069
0.00723666
0.00141137
0.00764462
0.00804363
0.00149786
7.13894e-06
0.000166619
2.67852e-05
0.000501351
5.80969e-05
0.000851244
0.000100301
0.00121607
0.000152678
0.00159494
0.000214498
0.00198699
0.000284988
0.00239102
0.000363312
0.00280567
0.00044856
0.0032293
0.000539741
0.00366016
0.000635798
0.00409634
0.000735618
0.00453587
0.000838054
0.00497676
0.000941952
0.00541709
0.00104618
0.00585501
0.00114964
0.0062888
0.00125134
0.00671682
0.00135038
0.00713762
0.00144604
0.00754896
0.00795205
0.00153762
7.05502e-06
0.000159564
2.65231e-05
0.000481883
5.76208e-05
0.000820147
9.96336e-05
0.00117405
0.000151901
0.00154267
0.000213753
0.00192514
0.000284477
0.0023203
0.000363298
0.00272684
0.000449363
0.00314324
0.000541735
0.00356779
0.000639405
0.00399867
0.000741297
0.00443398
0.000846289
0.00487177
0.000953235
0.00531014
0.00106099
0.00574725
0.00116844
0.00618135
0.00127452
0.00661074
0.00137827
0.00703387
0.00147888
0.00744835
0.0078554
0.00157553
6.96391e-06
0.0001526
2.6232e-05
0.000462615
5.70785e-05
0.0007893
9.88466e-05
0.00113229
0.000150934
0.00149059
0.000212729
0.00186334
0.000283582
0.00224945
0.000362777
0.00264765
0.000449521
0.0030565
0.000542935
0.00347438
0.000642059
0.00389955
0.00074586
0.00433017
0.000853246
0.00476438
0.000963086
0.0052003
0.00107423
0.00563611
0.00118555
0.00607004
0.00129592
0.00650036
0.00140432
0.00692547
0.00150983
0.00734284
0.0077537
0.00161153
6.86591e-06
0.000145734
2.59132e-05
0.000443568
5.64724e-05
0.000758741
9.79436e-05
0.00109081
0.000149782
0.00143875
0.000211434
0.00180169
0.00028231
0.00217857
0.000361756
0.0025682
0.000449041
0.00296921
0.000543344
0.00338007
0.00064376
0.00379913
0.000749302
0.00422463
0.000858914
0.00465477
0.000971486
0.00508773
0.00108588
0.00552172
0.00120093
0.00595499
0.0013155
0.00638579
0.00142846
0.00681251
0.00153883
0.00723248
0.00764699
0.00164554
6.76132e-06
0.000138973
2.55676e-05
0.000424762
5.58047e-05
0.000728504
9.69284e-05
0.00104969
0.000148449
0.00138723
0.000209873
0.00174027
0.000280669
0.00210778
0.000360245
0.00248863
0.000447932
0.00288152
0.000542971
0.00328504
0.000644513
0.00369759
0.000751622
0.00411752
0.000863285
0.00454311
0.000978421
0.00497259
0.0010959
0.00540424
0.00121455
0.00583634
0.0013332
0.00626715
0.00145065
0.00669505
0.00156581
0.00711732
0.00753529
0.00167751
6.65047e-06
0.000132322
2.51964e-05
0.000406216
5.50779e-05
0.000698622
9.5805e-05
0.00100896
0.000146943
0.00133609
0.000208054
0.00167915
0.000278667
0.00203716
0.000358253
0.00240904
0.000446204
0.00279357
0.000541824
0.00318942
0.000644323
0.00359509
0.000752823
0.00400902
0.000866356
0.00442957
0.000983878
0.00485507
0.00110428
0.00528384
0.00122638
0.00571423
0.00134899
0.00614455
0.00147084
0.00657319
0.00159073
0.00699743
0.00741864
0.00170738
6.53366e-06
0.000125789
2.48008e-05
0.000387949
5.42944e-05
0.000669129
9.45775e-05
0.00096868
0.000145269
0.0012854
0.000205985
0.00161844
0.000276316
0.00196683
0.000355792
0.00232956
0.000443868
0.0027055
0.000539912
0.00309337
0.0006432
0.0034918
0.000752908
0.00389932
0.000868124
0.00431436
0.000987846
0.00473535
0.00111099
0.00516069
0.0012364
0.00558882
0.00136283
0.00601811
0.00148899
0.00644704
0.00161355
0.00687287
0.00729708
0.00173511
6.4112e-06
0.000119377
2.4382e-05
0.000369978
5.34567e-05
0.000640054
9.32499e-05
0.000928887
0.000143432
0.00123522
0.000203675
0.00155819
0.000273625
0.00189688
0.000352872
0.00225032
0.000440936
0.00261743
0.00053725
0.00299706
0.000641152
0.0033879
0.000751884
0.00378858
0.00086859
0.00419765
0.00099032
0.00461362
0.00111603
0.00503499
0.00124457
0.00546028
0.00137469
0.00588799
0.00150505
0.00631667
0.00163421
0.00674371
0.00717064
0.00176065
6.28341e-06
0.000113094
2.39411e-05
0.00035232
5.25673e-05
0.000611428
9.18267e-05
0.000889627
0.00014144
0.0011856
0.000201132
0.0014985
0.000270603
0.00182741
0.000349506
0.00217141
0.000437422
0.00252952
0.000533849
0.00290063
0.000638192
0.00328356
0.000749759
0.00367702
0.000867758
0.00407965
0.000991295
0.00449008
0.00111937
0.00490691
0.00125087
0.00532878
0.00138454
0.00575431
0.001519
0.00618221
0.0016527
0.00661001
0.00703935
0.00178399
6.15058e-06
0.000106943
2.34792e-05
0.000334992
5.16287e-05
0.000583278
9.0312e-05
0.000850944
0.000139298
0.00113662
0.000198364
0.00143944
0.000267264
0.00175851
0.000345708
0.00209297
0.000433341
0.00244189
0.000529725
0.00280425
0.000634334
0.00317895
0.000746545
0.00356481
0.000865633
0.00396057
0.00099077
0.00436495
0.00112101
0.00477667
0.00125528
0.00519451
0.00139236
0.00561724
0.00153081
0.00604376
0.00166898
0.00647184
0.00690323
0.00180511
6.01304e-06
0.00010093
2.29975e-05
0.000318007
5.06434e-05
0.000555632
8.87104e-05
0.000812877
0.000137014
0.00108831
0.00019538
0.00138107
0.000263617
0.00169027
0.000341491
0.0020151
0.000428708
0.00235467
0.000524895
0.00270806
0.000629595
0.00307425
0.000742256
0.00345214
0.000862226
0.0038406
0.000988746
0.00423842
0.00112094
0.00464448
0.0012578
0.00505766
0.00139811
0.00547693
0.00154044
0.00590142
0.00168304
0.00632924
0.00676227
0.001824
5.87106e-06
9.50594e-05
2.24972e-05
0.000301381
4.9614e-05
0.000528516
8.70261e-05
0.000775465
0.000134594
0.00104074
0.000192191
0.00132347
0.000259676
0.00162279
0.000336871
0.0019379
0.00042354
0.002268
0.000519377
0.00261222
0.000623992
0.00296963
0.000736907
0.00333923
0.000857546
0.00371996
0.000985229
0.00411074
0.00111916
0.00451055
0.00125839
0.00491843
0.00140177
0.00533355
0.00154788
0.00575531
0.00169484
0.00618228
0.00661644
0.00184067
5.72494e-06
8.93344e-05
2.19794e-05
0.000285127
4.8543e-05
0.000501952
8.52637e-05
0.000738744
0.000132045
0.000993962
0.000188805
0.00126671
0.000255452
0.00155614
0.000331861
0.00186149
0.000417855
0.00218201
0.00051319
0.00251689
0.000617546
0.00286528
0.000730518
0.00322626
0.000851608
0.00359887
0.000980223
0.00398213
0.00111565
0.00437512
0.00125704
0.00477704
0.00140331
0.00518729
0.00155308
0.00560554
0.00170439
0.00603097
0.00646569
0.00185514
5.57498e-06
8.37595e-05
2.14452e-05
0.000269256
4.7433e-05
0.000475964
8.34276e-05
0.00070275
0.000129374
0.000948016
0.000185233
0.00121086
0.000250959
0.00149041
0.000326479
0.00178597
0.000411672
0.00209681
0.000506356
0.0024222
0.000610278
0.00276135
0.000723108
0.00311343
0.00084443
0.00347754
0.000973738
0.00385282
0.00111042
0.00423843
0.00125373
0.00463373
0.0014027
0.00503832
0.00155602
0.00545222
0.00171165
0.00587534
0.00630991
0.00186743
5.42144e-06
7.8338e-05
2.08959e-05
0.000253782
4.62866e-05
0.000450573
8.15225e-05
0.000667514
0.000126587
0.000902951
0.000181484
0.00115596
0.00024621
0.00142569
0.000320741
0.00171144
0.000405011
0.00201254
0.000498897
0.00232832
0.000602213
0.00265804
0.000714702
0.00300094
0.00083603
0.00335622
0.000965786
0.00372306
0.00110347
0.00410075
0.00124845
0.00448874
0.0013999
0.00488687
0.00155664
0.00529548
0.0017166
0.00571539
0.00614892
0.00187759
5.2646e-06
7.30734e-05
2.03325e-05
0.000238714
4.51062e-05
0.0004258
7.95528e-05
0.000633067
0.000123693
0.000858811
0.000177568
0.00110208
0.000241218
0.00136204
0.000314665
0.00163799