/*--------------------------------*- C++ -*----------------------------------*\
  =========                 |
  \\      /  F ield         | OpenFOAM: The Open Source CFD Toolbox
   \\    /   O peration     | Website:  https://openfoam.org
    \\  /    A nd           | Version:  7
     \\/     M anipulation  |
\*---------------------------------------------------------------------------*/
FoamFile
{
    version     2.0;
    format      ascii;
    class       volScalarField;
    location    "25";
    object      p;
}
// * * * * * * * * * * * * * * * * * * * * * * * * * * * * * * * * * * * * * //

dimensions      [0 2 -2 0 0 0 0];

internalField   nonuniform List<scalar> 
42000
(
-0.390627
-0.393082
-0.387428
-0.380374
-0.370668
-0.359692
-0.347644
-0.334925
-0.321781
-0.308412
-0.294985
-0.281636
-0.268488
-0.255638
-0.243218
-0.231256
-0.220035
-0.20918
-0.199933
-0.189784
-0.390904
-0.393273
-0.387601
-0.380511
-0.370788
-0.359794
-0.347735
-0.335006
-0.321854
-0.308478
-0.295047
-0.281691
-0.268538
-0.255683
-0.243255
-0.231284
-0.220055
-0.209175
-0.19996
-0.189649
-0.391458
-0.393654
-0.387947
-0.380783
-0.371027
-0.359998
-0.347916
-0.335167
-0.322
-0.308611
-0.295168
-0.281803
-0.268639
-0.255771
-0.24333
-0.231338
-0.220096
-0.209164
-0.200012
-0.189381
-0.392286
-0.394224
-0.388465
-0.381192
-0.371386
-0.360303
-0.348186
-0.335407
-0.322218
-0.30881
-0.295351
-0.281969
-0.268789
-0.255902
-0.243441
-0.231419
-0.220157
-0.20915
-0.200091
-0.188981
-0.393387
-0.394983
-0.389153
-0.381734
-0.371862
-0.360708
-0.348545
-0.335727
-0.322507
-0.309074
-0.295592
-0.28219
-0.268988
-0.256077
-0.243588
-0.231527
-0.220239
-0.20913
-0.200197
-0.188452
-0.394759
-0.395928
-0.390011
-0.382409
-0.372456
-0.361212
-0.348992
-0.336123
-0.322867
-0.309401
-0.295892
-0.282464
-0.269236
-0.256294
-0.243772
-0.231661
-0.220341
-0.209107
-0.200331
-0.187797
-0.396397
-0.397057
-0.391035
-0.383216
-0.373164
-0.361813
-0.349525
-0.336597
-0.323295
-0.309791
-0.29625
-0.28279
-0.269531
-0.256552
-0.243991
-0.231822
-0.220463
-0.20908
-0.200492
-0.18702
-0.398298
-0.398367
-0.392223
-0.384151
-0.373985
-0.362509
-0.350142
-0.337145
-0.323791
-0.310243
-0.296663
-0.283167
-0.269871
-0.256851
-0.244244
-0.232007
-0.220606
-0.20905
-0.200682
-0.186128
-0.400457
-0.399855
-0.393573
-0.385214
-0.374916
-0.3633
-0.350842
-0.337766
-0.324352
-0.310753
-0.29713
-0.283594
-0.270256
-0.257189
-0.24453
-0.232218
-0.22077
-0.209017
-0.200899
-0.185125
-0.40287
-0.401519
-0.395081
-0.3864
-0.375957
-0.364182
-0.351623
-0.338457
-0.324977
-0.311322
-0.29765
-0.284067
-0.270684
-0.257564
-0.244848
-0.232453
-0.220953
-0.208983
-0.201145
-0.184018
-0.40553
-0.403353
-0.396744
-0.387708
-0.377103
-0.365153
-0.352481
-0.339218
-0.325664
-0.311945
-0.29822
-0.284587
-0.271153
-0.257975
-0.245198
-0.232711
-0.221156
-0.208947
-0.201418
-0.182815
-0.408432
-0.405355
-0.398557
-0.389133
-0.378352
-0.36621
-0.353415
-0.340044
-0.326409
-0.312622
-0.298838
-0.28515
-0.27166
-0.25842
-0.245577
-0.232991
-0.221378
-0.208911
-0.201719
-0.181523
-0.411568
-0.407518
-0.400518
-0.390674
-0.3797
-0.36735
-0.354422
-0.340935
-0.327212
-0.31335
-0.299502
-0.285754
-0.272205
-0.258898
-0.245984
-0.233294
-0.221619
-0.208875
-0.202046
-0.180153
-0.414933
-0.409839
-0.40262
-0.392325
-0.381145
-0.368571
-0.3555
-0.341886
-0.328068
-0.314126
-0.300209
-0.286397
-0.272785
-0.259407
-0.246418
-0.233616
-0.221879
-0.208839
-0.202398
-0.178711
-0.418521
-0.412309
-0.40486
-0.394083
-0.382682
-0.36987
-0.356644
-0.342896
-0.328976
-0.314947
-0.300957
-0.287076
-0.273397
-0.259944
-0.246876
-0.233957
-0.222155
-0.208806
-0.202774
-0.177209
-0.422314
-0.414931
-0.407231
-0.395945
-0.384309
-0.371242
-0.357852
-0.343961
-0.329932
-0.315812
-0.301743
-0.28779
-0.274039
-0.260507
-0.247357
-0.234316
-0.222448
-0.208774
-0.203171
-0.175656
-0.426313
-0.417694
-0.40973
-0.397905
-0.38602
-0.372685
-0.359121
-0.345078
-0.330935
-0.316716
-0.302565
-0.288534
-0.274708
-0.261093
-0.247858
-0.234692
-0.222756
-0.208745
-0.203586
-0.174062
-0.430507
-0.420591
-0.412351
-0.399959
-0.387813
-0.374195
-0.360448
-0.346245
-0.33198
-0.317658
-0.303419
-0.289308
-0.275403
-0.261702
-0.248379
-0.235082
-0.223078
-0.208719
-0.204016
-0.172437
-0.434887
-0.423616
-0.415087
-0.402103
-0.389683
-0.375768
-0.361829
-0.347457
-0.333064
-0.318634
-0.304303
-0.290107
-0.27612
-0.262329
-0.248915
-0.235485
-0.223411
-0.208696
-0.204458
-0.170792
-0.439443
-0.426765
-0.417933
-0.404332
-0.391626
-0.377401
-0.363261
-0.348713
-0.334186
-0.319642
-0.305214
-0.290928
-0.276856
-0.262973
-0.249465
-0.235899
-0.223754
-0.208677
-0.204907
-0.169135
-0.444166
-0.430028
-0.420883
-0.406642
-0.393637
-0.37909
-0.364741
-0.350008
-0.335341
-0.320678
-0.306149
-0.29177
-0.277609
-0.263631
-0.250027
-0.236323
-0.224104
-0.208661
-0.205357
-0.167478
-0.449046
-0.433401
-0.423931
-0.409026
-0.395713
-0.380831
-0.366264
-0.35134
-0.336527
-0.32174
-0.307105
-0.292629
-0.278376
-0.2643
-0.250597
-0.236753
-0.22446
-0.20865
-0.205804
-0.16583
-0.454073
-0.436876
-0.427071
-0.411482
-0.397848
-0.382621
-0.367828
-0.352705
-0.337741
-0.322824
-0.308078
-0.293503
-0.279153
-0.264976
-0.251174
-0.237189
-0.224818
-0.208641
-0.20624
-0.164199
-0.459236
-0.440446
-0.430295
-0.414002
-0.400039
-0.384456
-0.369429
-0.354101
-0.338978
-0.323927
-0.309067
-0.294387
-0.279938
-0.265659
-0.251753
-0.237627
-0.225176
-0.208637
-0.206659
-0.162594
-0.464525
-0.444103
-0.433598
-0.416583
-0.402282
-0.386331
-0.371063
-0.355523
-0.340237
-0.325046
-0.310067
-0.295279
-0.280728
-0.266343
-0.252332
-0.238065
-0.225529
-0.208635
-0.207054
-0.161024
-0.469929
-0.44784
-0.436973
-0.419218
-0.40457
-0.388243
-0.372728
-0.356969
-0.341515
-0.326179
-0.311077
-0.296176
-0.281519
-0.267026
-0.252907
-0.238501
-0.225875
-0.208638
-0.207414
-0.159496
-0.475438
-0.45165
-0.440412
-0.421904
-0.4069
-0.390188
-0.374419
-0.358435
-0.342807
-0.327321
-0.312091
-0.297074
-0.282308
-0.267705
-0.253477
-0.238932
-0.22621
-0.208644
-0.207733
-0.158018
-0.48104
-0.455524
-0.44391
-0.424634
-0.409268
-0.392162
-0.376133
-0.359918
-0.34411
-0.328471
-0.313108
-0.29797
-0.283091
-0.268377
-0.254036
-0.239356
-0.22653
-0.208656
-0.207998
-0.156597
-0.486725
-0.459456
-0.44746
-0.427403
-0.411668
-0.394162
-0.377866
-0.361415
-0.345422
-0.329623
-0.314123
-0.298861
-0.283865
-0.269037
-0.254582
-0.239771
-0.226832
-0.208674
-0.208201
-0.155242
-0.492481
-0.463437
-0.451053
-0.430205
-0.414096
-0.396182
-0.379615
-0.362922
-0.346739
-0.330775
-0.315133
-0.299742
-0.284626
-0.269682
-0.25511
-0.240174
-0.227111
-0.208702
-0.208328
-0.153964
-0.498296
-0.467458
-0.454684
-0.433035
-0.416547
-0.39822
-0.381376
-0.364435
-0.348058
-0.331924
-0.316134
-0.30061
-0.28537
-0.270308
-0.255618
-0.240562
-0.227363
-0.208744
-0.208366
-0.152774
-0.504159
-0.471513
-0.458345
-0.435888
-0.419016
-0.40027
-0.383145
-0.365951
-0.349374
-0.333065
-0.317122
-0.30146
-0.286092
-0.270911
-0.2561
-0.240933
-0.227587
-0.208807
-0.208302
-0.151691
-0.510059
-0.475592
-0.462028
-0.438758
-0.421499
-0.402329
-0.384918
-0.367467
-0.350684
-0.334194
-0.318093
-0.302289
-0.286789
-0.271487
-0.256553
-0.241285
-0.227778
-0.2089
-0.208117
-0.150739
-0.515983
-0.479687
-0.465726
-0.441639
-0.42399
-0.404393
-0.386691
-0.368978
-0.351984
-0.335307
-0.319043
-0.30309
-0.287454
-0.272029
-0.256973
-0.241615
-0.227935
-0.209036
-0.207793
-0.149958
-0.52192
-0.48379
-0.469432
-0.444525
-0.426484
-0.406456
-0.388461
-0.37048
-0.353269
-0.336401
-0.319967
-0.30386
-0.288083
-0.272534
-0.257353
-0.24192
-0.228057
-0.209233
-0.207315
-0.149432
-0.527856
-0.487892
-0.473138
-0.44741
-0.428975
-0.408514
-0.390221
-0.371968
-0.354536
-0.337469
-0.320859
-0.304593
-0.288669
-0.272994
-0.25769
-0.242197
-0.228141
-0.209511
-0.20667
-0.149296
-0.533781
-0.491985
-0.476837
-0.450287
-0.43146
-0.410563
-0.391969
-0.373439
-0.355779
-0.338507
-0.321714
-0.305282
-0.289207
-0.273404
-0.257977
-0.24244
-0.22819
-0.209896
-0.205818
-0.149595
-0.539683
-0.496062
-0.480523
-0.453155
-0.433933
-0.412599
-0.393701
-0.374889
-0.356995
-0.33951
-0.322527
-0.305922
-0.28969
-0.273756
-0.258207
-0.242643
-0.228208
-0.210427
-0.204644
-0.150122
-0.545553
-0.500118
-0.484191
-0.456007
-0.436392
-0.414619
-0.395411
-0.376312
-0.358177
-0.340473
-0.323292
-0.306507
-0.290111
-0.274042
-0.258371
-0.242797
-0.228206
-0.211159
-0.203172
-0.151783
-0.551345
-0.504111
-0.487803
-0.458813
-0.438808
-0.416599
-0.397083
-0.377694
-0.359314
-0.341385
-0.323999
-0.307026
-0.290461
-0.274252
-0.258461
-0.242888
-0.228183
-0.212092
-0.202137
-0.160904
-0.556968
-0.507956
-0.491285
-0.461508
-0.44113
-0.418497
-0.398681
-0.379006
-0.360382
-0.342226
-0.324632
-0.307468
-0.290729
-0.274378
-0.258463
-0.242895
-0.2281
-0.213038
-0.202182
-0.187162
-0.562618
-0.511846
-0.494806
-0.46424
-0.443478
-0.42041
-0.400279
-0.380305
-0.361422
-0.343023
-0.325207
-0.307838
-0.290913
-0.274409
-0.258364
-0.24279
-0.227897
-0.213752
-0.201285
-0.19796
-0.568216
-0.515701
-0.498296
-0.466945
-0.445798
-0.422293
-0.401841
-0.38156
-0.362408
-0.343757
-0.325708
-0.308123
-0.291002
-0.274335
-0.258151
-0.242551
-0.227536
-0.214091
-0.199781
-0.201837
-0.573714
-0.519476
-0.501715
-0.469592
-0.448064
-0.424122
-0.403348
-0.382755
-0.363327
-0.344415
-0.326123
-0.308312
-0.290986
-0.274146
-0.257812
-0.242164
-0.227006
-0.21405
-0.198281
-0.203588
-0.579098
-0.523163
-0.505055
-0.472172
-0.450268
-0.425893
-0.404793
-0.383882
-0.36417
-0.344988
-0.326443
-0.308397
-0.290855
-0.273831
-0.257337
-0.241615
-0.226299
-0.213653
-0.196791
-0.204013
-0.584358
-0.526755
-0.508309
-0.47468
-0.452405
-0.427598
-0.40617
-0.384935
-0.364931
-0.345469
-0.326661
-0.308368
-0.2906
-0.273382
-0.256716
-0.240894
-0.225412
-0.212921
-0.195235
-0.203308
-0.589481
-0.530241
-0.511469
-0.477109
-0.454466
-0.42923
-0.40747
-0.385906
-0.365602
-0.34585
-0.326767
-0.308217
-0.290213
-0.272788
-0.255939
-0.239994
-0.22434
-0.211878
-0.193586
-0.201741
-0.594453
-0.533611
-0.514523
-0.479449
-0.456444
-0.43078
-0.408686
-0.386787
-0.366173
-0.34612
-0.326753
-0.307935
-0.289684
-0.272041
-0.254999
-0.238909
-0.223079
-0.210547
-0.191833
-0.199544
-0.599258
-0.536852
-0.517461
-0.48169
-0.458329
-0.432241
-0.409809
-0.387567
-0.366635
-0.346272
-0.326609
-0.307513
-0.289005
-0.271134
-0.253889
-0.237634
-0.221627
-0.208952
-0.189968
-0.196882
-0.603881
-0.539955
-0.520273
-0.483824
-0.460112
-0.433603
-0.410829
-0.388239
-0.366979
-0.346295
-0.326326
-0.306941
-0.288167
-0.270058
-0.252602
-0.236167
-0.219983
-0.207111
-0.187978
-0.19387
-0.608309
-0.542907
-0.522947
-0.48584
-0.461783
-0.434855
-0.411736
-0.388791
-0.367194
-0.34618
-0.325894
-0.306211
-0.287162
-0.268807
-0.251132
-0.234506
-0.218148
-0.205042
-0.185856
-0.19059
-0.612524
-0.545696
-0.525472
-0.487728
-0.463332
-0.435989
-0.412521
-0.389215
-0.367272
-0.345916
-0.325304
-0.305314
-0.285982
-0.267373
-0.249476
-0.232649
-0.21612
-0.202761
-0.183595
-0.187105
-0.616513
-0.54831
-0.527837
-0.489478
-0.464749
-0.436994
-0.413173
-0.389499
-0.367201
-0.345494
-0.324547
-0.30424
-0.284619
-0.265752
-0.247627
-0.230595
-0.213902
-0.200277
-0.181191
-0.183457
-0.620259
-0.550737
-0.530029
-0.491079
-0.466022
-0.43786
-0.413682
-0.389633
-0.36697
-0.344904
-0.323613
-0.302983
-0.283067
-0.263936
-0.245583
-0.228343
-0.211492
-0.197603
-0.178638
-0.179678
-0.623746
-0.552963
-0.532035
-0.492518
-0.467142
-0.438574
-0.414036
-0.389605
-0.36657
-0.344136
-0.322492
-0.301533
-0.281318
-0.261921
-0.24334
-0.225894
-0.208894
-0.194745
-0.175934
-0.175788
-0.626958
-0.554976
-0.533845
-0.493785
-0.468095
-0.439126
-0.414223
-0.389406
-0.36599
-0.343179
-0.321176
-0.299882
-0.279366
-0.259702
-0.240896
-0.223246
-0.206107
-0.19171
-0.173077
-0.171802
-0.629878
-0.556763
-0.535443
-0.494868
-0.468869
-0.439504
-0.414233
-0.389022
-0.365218
-0.342023
-0.319656
-0.298024
-0.277204
-0.257276
-0.238247
-0.2204
-0.203132
-0.188502
-0.170064
-0.167727
-0.632491
-0.558309
-0.536818
-0.495753
-0.469454
-0.439695
-0.414053
-0.388443
-0.364243
-0.340659
-0.317922
-0.295951
-0.274828
-0.254638
-0.235393
-0.217356
-0.199971
-0.185127
-0.166894
-0.163568
-0.634778
-0.559602
-0.537955
-0.49643
-0.469835
-0.439688
-0.413671
-0.387657
-0.363056
-0.339077
-0.315968
-0.293655
-0.272233
-0.251785
-0.232331
-0.214115
-0.196625
-0.181587
-0.163567
-0.159328
-0.636724
-0.560627
-0.538841
-0.496883
-0.470001
-0.43947
-0.413074
-0.386653
-0.361644
-0.337267
-0.313783
-0.291131
-0.269412
-0.248714
-0.22906
-0.210677
-0.193095
-0.177884
-0.160082
-0.155005
-0.63831
-0.56137
-0.539462
-0.497102
-0.469937
-0.439027
-0.412251
-0.385418
-0.359998
-0.33522
-0.311362
-0.288373
-0.266364
-0.245423
-0.22558
-0.207043
-0.189382
-0.174021
-0.15644
-0.150598
-0.63952
-0.561818
-0.539805
-0.497071
-0.469631
-0.438348
-0.411188
-0.383941
-0.358107
-0.332926
-0.308696
-0.285374
-0.263082
-0.24191
-0.22189
-0.203213
-0.185489
-0.169999
-0.152641
-0.146106
-0.640337
-0.561955
-0.539853
-0.496778
-0.46907
-0.437418
-0.409874
-0.382211
-0.355961
-0.330378
-0.305778
-0.282131
-0.259565
-0.238173
-0.21799
-0.199188
-0.181415
-0.16582
-0.148686
-0.141526
-0.640743
-0.561767
-0.539594
-0.496208
-0.468239
-0.436226
-0.408297
-0.380216
-0.35355
-0.327567
-0.302603
-0.278638
-0.25581
-0.23421
-0.213879
-0.19497
-0.177164
-0.161485
-0.144577
-0.136854
-0.640722
-0.56124
-0.539013
-0.495349
-0.467125
-0.434757
-0.406442
-0.377945
-0.350864
-0.324485
-0.299164
-0.274892
-0.251814
-0.230022
-0.209559
-0.19056
-0.172736
-0.156996
-0.140313
-0.132088
-0.640254
-0.56036
-0.538094
-0.494185
-0.465714
-0.433
-0.4043
-0.375388
-0.347894
-0.321126
-0.295455
-0.270888
-0.247575
-0.225608
-0.205029
-0.185959
-0.168134
-0.152354
-0.135898
-0.127225
-0.639325
-0.55911
-0.536824
-0.492704
-0.463993
-0.43094
-0.401857
-0.372533
-0.344631
-0.317481
-0.291473
-0.266624
-0.243092
-0.220967
-0.200292
-0.181169
-0.163359
-0.14756
-0.131334
-0.122263
-0.637916
-0.557478
-0.535187
-0.490891
-0.461948
-0.428565
-0.399102
-0.369372
-0.341068
-0.313545
-0.287212
-0.262098
-0.238364
-0.216101
-0.195348
-0.176192
-0.158413
-0.142616
-0.126621
-0.1172
-0.63601
-0.555449
-0.53317
-0.488732
-0.459565
-0.425863
-0.396024
-0.365893
-0.337196
-0.309311
-0.282668
-0.257307
-0.233391
-0.211009
-0.190199
-0.17103
-0.153299
-0.137524
-0.121764
-0.112034
-0.633592
-0.553008
-0.530758
-0.486215
-0.456832
-0.422821
-0.392612
-0.362089
-0.333008
-0.304776
-0.27784
-0.252249
-0.228172
-0.205694
-0.184847
-0.165684
-0.148019
-0.132285
-0.116764
-0.106765
-0.630643
-0.550142
-0.527936
-0.483324
-0.453735
-0.419428
-0.388856
-0.35795
-0.328497
-0.299934
-0.272723
-0.246924
-0.222709
-0.200155
-0.179293
-0.160158
-0.142576
-0.126902
-0.111624
-0.101391
-0.627149
-0.546836
-0.524691
-0.480047
-0.450262
-0.415671
-0.384745
-0.353468
-0.323658
-0.294781
-0.267316
-0.241332
-0.217001
-0.194396
-0.173541
-0.154454
-0.136972
-0.121377
-0.106347
-0.0959131
-0.623092
-0.543077
-0.521008
-0.476371
-0.4464
-0.411541
-0.380269
-0.348636
-0.318485
-0.289314
-0.261617
-0.235472
-0.21105
-0.188418
-0.167592
-0.148575
-0.13121
-0.115713
-0.100936
-0.0903305
-0.618458
-0.538851
-0.516875
-0.472283
-0.442137
-0.407025
-0.375421
-0.343447
-0.312973
-0.28353
-0.255626
-0.229345
-0.204858
-0.182224
-0.16145
-0.142523
-0.125293
-0.109911
-0.0953944
-0.0846441
-0.61323
-0.534147
-0.512279
-0.467771
-0.437462
-0.402115
-0.370192
-0.337895
-0.307118
-0.277427
-0.249341
-0.222952
-0.198426
-0.175815
-0.155118
-0.136302
-0.119224
-0.103975
-0.0897249
-0.0788548
-0.607392
-0.52895
-0.507206
-0.462823
-0.432363
-0.3968
-0.364573
-0.331974
-0.300918
-0.271004
-0.242765
-0.216295
-0.191758
-0.169196
-0.148598
-0.129915
-0.113007
-0.0979068
-0.0839312
-0.0729642
-0.600931
-0.52325
-0.501645
-0.457428
-0.426831
-0.391073
-0.35856
-0.32568
-0.294368
-0.26426
-0.235896
-0.209375
-0.184856
-0.16237
-0.141895
-0.123366
-0.106644
-0.0917105
-0.0780168
-0.0669738
-0.593849
-0.517047
-0.495593
-0.451581
-0.420861
-0.384927
-0.352146
-0.319009
-0.287469
-0.257195
-0.228737
-0.202196
-0.177723
-0.155339
-0.135012
-0.116658
-0.10014
-0.085389
-0.0719851
-0.0608859
-0.586135
-0.510334
-0.489042
-0.445274
-0.414443
-0.378356
-0.345328
-0.311959
-0.280218
-0.24981
-0.221289
-0.194759
-0.170363
-0.148109
-0.127952
-0.109794
-0.0934982
-0.0789455
-0.06584
-0.0547028
-0.577638
-0.503007
-0.481913
-0.438449
-0.407538
-0.371332
-0.338086
-0.304518
-0.272611
-0.242103
-0.213555
-0.187069
-0.162779
-0.140682
-0.120721
-0.102779
-0.0867216
-0.0723832
-0.0595844
-0.0484265
-0.568051
-0.494843
-0.474051
-0.430996
-0.400067
-0.363803
-0.330388
-0.296668
-0.264638
-0.234072
-0.205534
-0.179127
-0.154976
-0.133064
-0.113321
-0.0956173
-0.0798141
-0.0657051
-0.0532216
-0.0420591
-0.55822
-0.48642
-0.46586
-0.423197
-0.392225
-0.355899
-0.322318
-0.288462
-0.256331
-0.225736
-0.197239
-0.170942
-0.146959
-0.125258
-0.105758
-0.0883122
-0.0727805
-0.0589165
-0.0467574
-0.035606
-0.547851
-0.477521
-0.457182
-0.414937
-0.383931
-0.347564
-0.31384
-0.279879
-0.24768
-0.21709
-0.188669
-0.162517
-0.138732
-0.11727
-0.0980364
-0.0808687
-0.065625
-0.0520207
-0.0401953
-0.0290697
-0.536798
-0.468041
-0.447944
-0.406163
-0.375147
-0.338773
-0.30494
-0.270909
-0.238682
-0.208136
-0.179829
-0.153855
-0.1303
-0.109105
-0.0901608
-0.0732913
-0.0583518
-0.0450219
-0.0335393
-0.0224536
-0.525056
-0.45798
-0.438142
-0.396872
-0.365872
-0.329526
-0.295617
-0.261557
-0.22934
-0.198878
-0.170723
-0.144963
-0.121669
-0.100768
-0.0821364
-0.0655847
-0.0509653
-0.0379241
-0.0267935
-0.0157616
-0.512635
-0.447343
-0.42778
-0.387067
-0.356106
-0.319824
-0.285876
-0.251825
-0.21966
-0.189322
-0.161358
-0.135846
-0.112844
-0.092264
-0.0739682
-0.0577537
-0.0434702
-0.0307316
-0.019962
-0.00899751
-0.499533
-0.436128
-0.416855
-0.376743
-0.345848
-0.309668
-0.275716
-0.241717
-0.209645
-0.179473
-0.151738
-0.12651
-0.103831
-0.083599
-0.0656616
-0.0498032
-0.0358709
-0.0234488
-0.0130499
-0.00216382
-0.485746
-0.424332
-0.405364
-0.365898
-0.335097
-0.299058
-0.265142
-0.231237
-0.199301
-0.169338
-0.14187
-0.116961
-0.0946372
-0.0747788
-0.0572219
-0.0417384
-0.0281723
-0.0160803
-0.00606448
0.00473851
-0.471273
-0.411953
-0.393305
-0.354532
-0.323854
-0.287996
-0.254156
-0.22039
-0.188634
-0.158922
-0.131761
-0.107207
-0.0852679
-0.0658095
-0.0486548
-0.0335644
-0.0203791
-0.00863044
0.000990155
0.0116993
-0.456114
-0.39899
-0.380678
-0.342645
-0.31212
-0.276485
-0.242763
-0.209182
-0.177651
-0.148233
-0.121419
-0.0972547
-0.07573
-0.0566972
-0.039966
-0.0252864
-0.0124963
-0.00110464
0.00812838
0.0187017
-0.440271
-0.385444
-0.367483
-0.330237
-0.299897
-0.26453
-0.23097
-0.19762
-0.166359
-0.137278
-0.110851
-0.0871107
-0.0660306
-0.0474484
-0.0311614
-0.0169099
-0.00452888
0.00649176
0.015329
0.0257572
-0.423747
-0.371317
-0.353723
-0.317312
-0.287189
-0.252135
-0.218781
-0.18571
-0.154767
-0.126066
-0.100065
-0.0767828
-0.0561766
-0.0380695
-0.0222471
-0.00844072
0.00351813
0.0141554
0.0225872
0.0328601
-0.406548
-0.356611
-0.3394
-0.303872
-0.274002
-0.239306
-0.206205
-0.173461
-0.142882
-0.114606
-0.0890685
-0.0662791
-0.0461755
-0.0285674
-0.0132293
0.000115772
0.0116392
0.0218813
0.0298998
0.0400046
-0.388681
-0.341332
-0.324519
-0.289922
-0.26034
-0.22605
-0.193249
-0.160883
-0.130713
-0.102906
-0.0778715
-0.0556078
-0.0360347
-0.018949
-0.00411414
0.0087537
0.0198289
0.0296644
0.0372625
0.0471855
-0.370152
-0.325484
-0.309086
-0.275469
-0.246211
-0.212376
-0.179923
-0.147983
-0.118272
-0.0909756
-0.0664825
-0.0447771
-0.0257622
-0.00922125
0.00509172
0.0174671
0.0280819
0.0374996
0.0446707
0.0543981
-0.350972
-0.309074
-0.293107
-0.260518
-0.231623
-0.198293
-0.166236
-0.134774
-0.105567
-0.0788252
-0.0549109
-0.033796
-0.0153656
0.000608474
0.0143817
0.02625
0.0363926
0.0453816
0.0521197
0.0616374
-0.331151
-0.292109
-0.276591
-0.245079
-0.216586
-0.18381
-0.152199
-0.121265
-0.0926098
-0.0664651
-0.0431664
-0.0226732
-0.00485327
0.0105328
0.0237492
0.0350962
0.0447554
0.0533053
0.0596049
0.0688984
-0.310703
-0.274601
-0.259547
-0.229162
-0.201109
-0.168939
-0.137825
-0.107468
-0.0794116
-0.0539058
-0.0312589
-0.0114178
0.00576654
0.0205442
0.0331872
0.0439995
0.0531646
0.0612653
0.0671214
0.0761761
-0.28964
-0.256558
-0.241986
-0.212775
-0.185204
-0.153692
-0.123124
-0.0933963
-0.0659841
-0.0411586
-0.0191988
-3.93016e-05
0.0164853
0.030635
0.0426888
0.0529535
0.0616143
0.0692562
0.0746644
0.0834653
-0.267978
-0.237992
-0.22392
-0.195932
-0.168884
-0.138081
-0.10811
-0.0790614
-0.0523396
-0.0282348
-0.00699655
0.0114528
0.0272944
0.0407972
0.0522469
0.0619517
0.0700986
0.0772725
0.0822292
0.0907607
-0.245735
-0.218918
-0.205362
-0.178645
-0.152162
-0.12212
-0.0927975
-0.0644771
-0.0384907
-0.0151462
0.00533712
0.0230487
0.038185
0.0510231
0.0618542
0.0709876
0.0786115
0.0853086
0.0898107
0.0980573
-0.222928
-0.199349
-0.186327
-0.160929
-0.135053
-0.105824
-0.0771999
-0.0496576
-0.0244506
-0.00190495
0.0177912
0.0347385
0.0491481
0.0613044
0.0715034
0.0800544
0.0871469
0.0933589
0.0974041
0.105349
-0.199576
-0.179301
-0.16683
-0.142799
-0.117572
-0.0892086
-0.0613329
-0.0346171
-0.0102327
0.0114767
0.0303544
0.0465121
0.0601746
0.0716329
0.081187
0.0891454
0.0956987
0.101418
0.105004
0.112632
-0.175702
-0.158791
-0.146889
-0.124271
-0.0997362
-0.0722898
-0.0452122
-0.0193705
0.00414907
0.024986
0.0430154
0.0583591
0.0712552
0.0820003
0.0908975
0.0982537
0.10426
0.109479
0.112607
0.119898
-0.151326
-0.137838
-0.126522
-0.105362
-0.0815629
-0.0550849
-0.0288543
-0.00393334
0.0186805
0.0386101
0.0557626
0.0702693
0.0823807
0.0923982
0.100627
0.107372
0.112826
0.117537
0.120206
0.127143
-0.126473
-0.11646
-0.105748
-0.0860923
-0.0630706
-0.0376115
-0.0122762
0.0116786
0.0333472
0.0523358
0.0685841
0.0822319
0.0935415
0.102818
0.110369
0.116494
0.121389
0.125585
0.127797
0.13436
-0.101168
-0.0946787
-0.0845877
-0.0664802
-0.0442788
-0.0198882
0.00450463
0.0274492
0.0481342
0.0661499
0.081468
0.0942364
0.104728
0.113251
0.120113
0.125612
0.129942
0.133618
0.135375
0.141543
-0.0754354
-0.0725157
-0.063063
-0.0465467
-0.0252075
-0.00193421
0.0214701
0.0433616
0.0630266
0.0800388
0.0944022
0.106272
0.115931
0.123689
0.129854
0.134719
0.13848
0.141628
0.142935
0.148684
-0.0493008
-0.0499959
-0.0411968
-0.026313
-0.0058778
0.0162307
0.0386016
0.0593991
0.0780089
0.0939888
0.107375
0.118328
0.12714
0.134122
0.139583
0.143808
0.146995
0.149611
0.150472
0.155774
-0.0227925
-0.0271434
-0.019013
-0.00580188
0.0136886
0.0345859
0.0558802
0.0755441
0.0930656
0.107986
0.120373
0.130392
0.138345
0.144543
0.149291
0.15287
0.155482
0.157558
0.157983
0.162806
0.00405234
-0.00397593
0.00346387
0.0149634
0.0334692
0.0531106
0.0732865
0.0917793
0.108181
0.122016
0.133384
0.142456
0.149538
0.154941
0.158971
0.1619
0.163932
0.165463
0.165462
0.169768
0.0312111
0.0194741
0.0262078
0.0359587
0.0534408
0.0717833
0.0908007
0.108087
0.123339
0.136066
0.146397
0.154506
0.160707
0.165309
0.168615
0.17089
0.172339
0.17332
0.172905
0.176648
0.0586536
0.0431792
0.0491921
0.0571588
0.0735796
0.0905818
0.108403
0.124448
0.138524
0.15012
0.159397
0.166532
0.171843
0.175638
0.178214
0.179831
0.180697
0.181121
0.18031
0.18343
0.0863475
0.067112
0.0723891
0.0785381
0.0938612
0.109484
0.126072
0.140846
0.153719
0.164165
0.172374
0.178523
0.182936
0.185918
0.187761
0.188718
0.188998
0.188861
0.187674
0.190095
0.114262
0.0912439
0.0957707
0.10007
0.114261
0.128467
0.143788
0.157261
0.168908
0.178187
0.185313
0.190468
0.193977
0.196141
0.197248
0.197543
0.197235
0.196531
0.194995
0.196617
0.142367
0.115546
0.119308
0.121729
0.134753
0.147507
0.16153
0.173675
0.184075
0.19217
0.198203
0.202355
0.204955
0.206297
0.206667
0.206298
0.205403
0.204125
0.20227
0.20296
0.170626
0.139986
0.142971
0.143485
0.155311
0.166581
0.179277
0.190069
0.199203
0.2061
0.211031
0.214174
0.21586
0.216379
0.216009
0.214977
0.213492
0.211639
0.209508
0.209095
0.19898
0.164512
0.166716
0.165304
0.175906
0.185664
0.197005
0.206424
0.214276
0.219964
0.223784
0.225914
0.226684
0.226378
0.225268
0.223572
0.221497
0.21907
0.216739
0.214995
0.227389
0.189088
0.190509
0.187156
0.19651
0.20473
0.214695
0.222722
0.229277
0.233746
0.23645
0.237562
0.237415
0.236285
0.234435
0.232078
0.229409
0.226418
0.223955
0.220518
0.256076
0.213839
0.214414
0.209067
0.217126
0.223772
0.232332
0.238945
0.244191
0.247432
0.249015
0.249109
0.248045
0.246091
0.243504
0.240486
0.237223
0.233676
0.23096
0.225068
0.285532
0.239058
0.23859
0.231119
0.23779
0.242798
0.249908
0.255082
0.259002
0.261007
0.261467
0.260542
0.258562
0.255788
0.252467
0.248793
0.244938
0.240842
0.237585
0.227768
0.314151
0.263779
0.262444
0.252955
0.25829
0.261686
0.267358
0.271094
0.273688
0.274458
0.273794
0.271853
0.26896
0.265368
0.261316
0.25699
0.252551
0.247929
0.24441
0.233508
0.342436
0.288311
0.286151
0.274669
0.278669
0.28045
0.284676
0.286971
0.288237
0.287771
0.285986
0.28303
0.279228
0.274823
0.270045
0.265072
0.260059
0.254924
0.251144
0.240117
0.370603
0.312768
0.309767
0.296282
0.298928
0.299081
0.30185
0.302697
0.302632
0.300931
0.298027
0.294062
0.289355
0.284143
0.278645
0.273031
0.267452
0.261814
0.257664
0.246593
0.398607
0.337108
0.333252
0.31776
0.319039
0.317553
0.318857
0.318253
0.316857
0.313924
0.309907
0.304939
0.299334
0.293321
0.287109
0.280862
0.274721
0.268591
0.264011
0.252844
0.426386
0.361278
0.356563
0.339068
0.33897
0.33584
0.335676
0.333621
0.330897
0.326737
0.321613
0.315649
0.309155
0.302348
0.29543
0.288555
0.281859
0.275243
0.270211
0.258946
0.453901
0.38524
0.379666
0.360175
0.358693
0.353918
0.352285
0.348781
0.344735
0.339356
0.333134
0.326183
0.318808
0.311217
0.303601
0.296105
0.288859
0.281764
0.276262
0.264915
0.481116
0.40896
0.402526
0.38105
0.378182
0.371764
0.368663
0.363717
0.358356
0.351768
0.344457
0.33653
0.328285
0.319919
0.311614
0.303506
0.295714
0.288145
0.282164
0.270736
0.507995
0.432404
0.425111
0.401664
0.397409
0.389352
0.384789
0.37841
0.371744
0.363958
0.355572
0.34668
0.337577
0.328446
0.319462
0.31075
0.30242
0.294382
0.287917
0.276405
0.534501
0.455538
0.447388
0.421986
0.416348
0.406662
0.400644
0.392843
0.384885
0.375915
0.366467
0.356624
0.346675
0.336791
0.327139
0.317831
0.308971
0.300469
0.293519
0.28192
0.560596
0.478325
0.469324
0.441988
0.434972
0.423668
0.416208
0.406998
0.397764
0.387625
0.37713
0.366352
0.35557
0.344947
0.334637
0.324745
0.315362
0.306402
0.29897
0.287279
0.586242
0.500733
0.490885
0.461639
0.453255
0.440348
0.431459
0.420859
0.410365
0.399075
0.387551
0.375854
0.364255
0.352906
0.34195
0.331484
0.321587
0.312177
0.304268
0.292481
0.611402
0.522726
0.512041
0.480912
0.47117
0.45668
0.44638
0.434408
0.422675
0.410254
0.397719
0.38512
0.37272
0.36066
0.349072
0.338043
0.327642
0.317789
0.309412
0.297525
0.636039
0.544272
0.532758
0.499777
0.488694
0.472642
0.460951
0.44763
0.434679
0.421149
0.407624
0.394142
0.380959
0.368203
0.355998
0.344418
0.333524
0.323236
0.314401
0.302409
0.660116
0.565336
0.553007
0.518206
0.505801
0.488212
0.475154
0.460509
0.446364
0.431748
0.417256
0.402911
0.388963
0.375528
0.36272
0.350603
0.339226
0.328514
0.319231
0.307132
0.683598
0.585888
0.572755
0.536173
0.522466
0.50337
0.48897
0.473028
0.457717
0.44204
0.426603
0.411418
0.396725
0.382629
0.369233
0.356592
0.344746
0.333619
0.323901
0.311693
0.70645
0.605895
0.591973
0.553651
0.538666
0.518094
0.502381
0.485173
0.468723
0.452014
0.435658
0.419654
0.404237
0.389499
0.375532
0.362382
0.35008
0.338549
0.328408
0.316089
0.728636
0.625325
0.610632
0.570613
0.554378
0.532365
0.515371
0.49693
0.479372
0.461658
0.444409
0.427613
0.411493
0.396131
0.381611
0.367968
0.355223
0.343299
0.33275
0.320318
0.750123
0.644149
0.628703
0.587034
0.569579
0.546163
0.527923
0.508283
0.48965
0.470963
0.452849
0.435284
0.418485
0.402521
0.387465
0.373345
0.360171
0.347868
0.336925
0.32438
0.770877
0.662336
0.646157
0.602889
0.584248
0.55947
0.540021
0.51922
0.499546
0.479917
0.460968
0.442662
0.425207
0.408661
0.393089
0.378509
0.364922
0.352252
0.34093
0.328273
0.790868
0.679859
0.662969
0.618154
0.598363
0.572268
0.551649
0.529726
0.509048
0.488512
0.468759
0.449739
0.431652
0.414547
0.398479
0.383455
0.36947
0.356448
0.344763
0.331994
0.810064
0.696688
0.679112
0.632807
0.611905
0.584538
0.562792
0.539789
0.518145
0.496738
0.476212
0.456507
0.437814
0.420173
0.403629
0.38818
0.373815
0.360454
0.348422
0.335543
0.828435
0.712798
0.69456
0.646825
0.624853
0.596265
0.573435
0.549397
0.526828
0.504585
0.48332
0.46296
0.443688
0.425534
0.408534
0.39268
0.37795
0.364266
0.351904
0.338916
0.845952
0.728163
0.70929
0.660187
0.637188
0.607432
0.583566
0.558538
0.535085
0.512046
0.490076
0.469091
0.449268
0.430626
0.413192
0.396952
0.381875
0.367882
0.355206
0.342113
0.862589
0.742758
0.723279
0.672872
0.648894
0.618023
0.59317
0.5672
0.542907
0.519111
0.496472
0.474894
0.454548
0.435442
0.417598
0.400991
0.385585
0.371299
0.358327
0.345132
0.878319
0.75656
0.736504
0.684861
0.659953
0.628026
0.602236
0.575374
0.550285
0.525774
0.502501
0.480364
0.459523
0.43998
0.421747
0.404794
0.389078
0.374516
0.361264
0.347972
0.893117
0.769545
0.748945
0.696137
0.67035
0.637424
0.610752
0.583049
0.557211
0.532026
0.508159
0.485494
0.464189
0.444235
0.425637
0.408359
0.392351
0.377529
0.364016
0.350629
0.906961
0.781694
0.760582
0.706681
0.680068
0.646207
0.618707
0.590216
0.563677
0.537861
0.513437
0.490281
0.468541
0.448202
0.429264
0.411681
0.395401
0.380337
0.36658
0.353104
0.919828
0.792987
0.771397
0.716477
0.689094
0.654361
0.62609
0.596866
0.569674
0.543273
0.518331
0.494717
0.472574
0.451879
0.432624
0.414759
0.398227
0.382937
0.368955
0.355395
0.931697
0.803405
0.781372
0.725511
0.697415
0.661876
0.632892
0.60299
0.575197
0.548255
0.522836
0.498801
0.476286
0.455262
0.435715
0.417591
0.400825
0.385327
0.371138
0.3575
0.94255
0.81293
0.790492
0.733768
0.705018
0.668741
0.639104
0.608582
0.580238
0.552801
0.526947
0.502526
0.479671
0.458347
0.438534
0.420172
0.403194
0.387506
0.373128
0.359418
0.95237
0.821549
0.798742
0.741236
0.711893
0.674946
0.644717
0.613635
0.584792