/*--------------------------------*- C++ -*----------------------------------*\
  =========                 |
  \\      /  F ield         | OpenFOAM: The Open Source CFD Toolbox
   \\    /   O peration     | Website:  https://openfoam.org
    \\  /    A nd           | Version:  7
     \\/     M anipulation  |
\*---------------------------------------------------------------------------*/
FoamFile
{
    version     2.0;
    format      ascii;
    class       volVectorField;
    location    "25";
    object      U;
}
// * * * * * * * * * * * * * * * * * * * * * * * * * * * * * * * * * * * * * //

dimensions      [0 1 -1 0 0 0 0];

internalField   nonuniform List<vector> 
42000
(
(-0.000834952 0.000172376 1.04382e-21)
(-0.00273947 0.000174428 -3.41879e-21)
(-0.00403407 2.73615e-05 1.77906e-21)
(-0.00327311 -0.000207665 -1.01519e-22)
(-0.000449667 -0.000476622 -3.2769e-21)
(0.00452343 -0.000758911 3.90715e-21)
(0.0114657 -0.00103867 3.42289e-21)
(0.0202014 -0.0013097 2.29791e-21)
(0.0305322 -0.00156825 -1.79057e-21)
(0.0422749 -0.00181334 2.2986e-21)
(0.0552646 -0.00204481 9.72606e-22)
(0.0693561 -0.00226297 8.23337e-23)
(0.0844199 -0.00246778 -1.43335e-21)
(0.100339 -0.00265828 1.56515e-21)
(0.11699 -0.00283162 3.42214e-21)
(0.134255 -0.00298267 1.2825e-21)
(0.151931 -0.00310093 -2.5967e-21)
(0.169907 -0.00317632 -8.41914e-22)
(0.18761 -0.00317338 2.39317e-21)
(0.205213 -0.00312391 7.53028e-22)
(-0.000844348 0.000515241 2.95817e-21)
(-0.00272273 0.000519693 -1.46805e-21)
(-0.00395897 7.80024e-05 3.61555e-21)
(-0.00312451 -0.00062698 -1.67726e-21)
(-0.000215846 -0.00143332 1.23224e-20)
(0.00484872 -0.00227941 -1.5047e-22)
(0.0118872 -0.00311771 6.20767e-21)
(0.0207223 -0.00392975 -4.67299e-21)
(0.0311549 -0.00470423 6.07958e-21)
(0.0430012 -0.00543823 5.80109e-21)
(0.0560959 -0.00613132 -2.03094e-21)
(0.0702936 -0.00678444 4.72701e-21)
(0.0854645 -0.00739744 -9.61674e-21)
(0.101491 -0.0079675 -1.05031e-20)
(0.11825 -0.00848604 2.09554e-21)
(0.135624 -0.00893779 -4.29811e-21)
(0.153406 -0.00929125 3.41141e-21)
(0.171492 -0.00951607 -5.02382e-21)
(0.189286 -0.00950643 2.12558e-21)
(0.207035 -0.00935529 3.49451e-21)
(-0.000862869 0.000852505 -1.97225e-20)
(-0.00268873 0.000854173 -7.12418e-21)
(-0.00380817 0.000116249 -1.28657e-20)
(-0.00282672 -0.00105845 2.57033e-21)
(0.000252318 -0.0024006 -1.62712e-20)
(0.00549969 -0.00380818 -9.35561e-21)
(0.0127306 -0.00520218 -1.63722e-20)
(0.0217642 -0.00655198 -8.31092e-21)
(0.0324002 -0.00783886 1.87881e-21)
(0.0444533 -0.00905802 -9.66518e-21)
(0.0577579 -0.0102087 -1.07405e-20)
(0.0721675 -0.0112926 2.26431e-21)
(0.0875521 -0.0123095 1.05657e-20)
(0.103794 -0.0132547 1.19519e-20)
(0.120768 -0.0141141 3.44201e-21)
(0.138357 -0.0148622 9.06853e-21)
(0.156353 -0.0154469 -1.27427e-20)
(0.174658 -0.0158171 -8.77965e-21)
(0.192633 -0.0157983 1.13146e-20)
(0.210671 -0.0155373 2.2624e-21)
(-0.000889985 0.00118051 1.2815e-20)
(-0.00263643 0.00117074 1.10183e-20)
(-0.00358046 0.000133876 1.41403e-20)
(-0.00237853 -0.00151015 2.20877e-20)
(0.000955874 -0.00338552 2.04096e-20)
(0.00647714 -0.00535075 1.23711e-21)
(0.0139963 -0.00729565 2.9924e-22)
(0.0233272 -0.00917784 1.94173e-20)
(0.0342676 -0.0109712 -8.25618e-21)
(0.0466304 -0.0126693 1.09737e-20)
(0.0602488 -0.014271 6.7633e-21)
(0.0749756 -0.0157787 -2.05908e-20)
(0.0906797 -0.0171923 -4.78694e-21)
(0.107243 -0.0185053 -2.25849e-20)
(0.124538 -0.0196981 -1.64467e-20)
(0.14245 -0.0207355 8.12921e-21)
(0.160763 -0.0215448 5.49329e-21)
(0.179397 -0.0220536 5.86276e-21)
(0.197642 -0.0220215 -1.67704e-20)
(0.21611 -0.0216372 -8.97833e-21)
(-0.000924907 0.00149567 -3.94866e-21)
(-0.00256425 0.00146239 1.12802e-20)
(-0.00327403 0.00012282 2.14349e-20)
(-0.00177815 -0.00198999 -2.22718e-20)
(0.00189639 -0.00439493 -3.90531e-20)
(0.0077823 -0.00691242 -7.23768e-21)
(0.015685 -0.00940157 -2.89368e-21)
(0.0254113 -0.0118086 1.55354e-20)
(0.0367565 -0.0141003 -5.10415e-21)
(0.0495309 -0.0162685 -3.06176e-20)
(0.0635664 -0.0183119 -2.81953e-20)
(0.0787144 -0.0202338 1.71506e-20)
(0.0948426 -0.022034 1.08155e-20)
(0.111832 -0.0237045 3.21247e-20)
(0.129554 -0.0252207 2.24192e-20)
(0.147893 -0.0265372 -1.57708e-20)
(0.166626 -0.0275621 -8.38757e-21)
(0.185695 -0.0282001 2.21976e-20)
(0.204296 -0.0281491 6.97455e-21)
(0.223334 -0.0276226 -2.64091e-21)
(-0.000966592 0.00179446 -3.0537e-21)
(-0.00247015 0.00172229 -3.74903e-20)
(-0.0028865 7.52155e-05 -4.84855e-20)
(-0.00102321 -0.00250563 -6.36634e-21)
(0.00307594 -0.00543546 2.47486e-20)
(0.00941674 -0.0084983 8.72151e-21)
(0.0177977 -0.0115231 9.9726e-21)
(0.0280168 -0.0144454 -1.4685e-20)
(0.0398662 -0.0172249 2.58399e-20)
(0.0531532 -0.0198519 -9.88623e-21)
(0.0677077 -0.0223252 4.16641e-20)
(0.0833795 -0.0246489 -5.21935e-21)
(0.100035 -0.0268229 -1.08291e-20)
(0.117553 -0.0288378 -2.06878e-21)
(0.135804 -0.0306642 -1.24333e-20)
(0.154674 -0.0322472 -5.10941e-21)
(0.173927 -0.0334758 1.45939e-20)
(0.193534 -0.0342311 -1.42675e-20)
(0.212575 -0.0341541 1.59509e-20)
(0.232315 -0.0334616 1.51345e-20)
(-0.00101375 0.00207345 1.94716e-20)
(-0.00235156 0.00194377 1.68195e-20)
(-0.00241489 -1.65501e-05 2.44691e-20)
(-0.000110766 -0.00306447 3.08951e-20)
(0.00449711 -0.00651349 4.10305e-20)
(0.0113825 -0.0101132 1.30007e-20)
(0.0203355 -0.0136633 -9.15063e-21)
(0.0311439 -0.017089 5.60672e-21)
(0.0435958 -0.0203435 -1.34745e-20)
(0.0574947 -0.0234157 1.89281e-20)
(0.0726686 -0.0263045 -2.35932e-20)
(0.0889651 -0.0290148 9.40004e-21)
(0.106249 -0.031547 1.07337e-20)
(0.124397 -0.0338905 6.88781e-21)
(0.143277 -0.0360112 -1.64031e-20)
(0.162777 -0.0378451 1.68288e-20)
(0.182647 -0.0392634 -1.48334e-20)
(0.202892 -0.0401215 1.04853e-20)
(0.222453 -0.0400102 -7.36346e-21)
(0.243025 -0.0391227 -1.88794e-20)
(-0.00106484 0.00232935 -2.7031e-20)
(-0.00220544 0.00212046 1.32434e-20)
(-0.00185566 -0.000159786 -1.79711e-21)
(0.000962693 -0.0036736 -1.89792e-20)
(0.00616294 -0.00763502 -5.14569e-20)
(0.0136818 -0.0117617 3.84547e-20)
(0.0232998 -0.0158247 1.30388e-20)
(0.0347926 -0.01974 -2.22083e-21)
(0.0479439 -0.0234544 -3.6063e-21)
(0.0625528 -0.0269557 -1.68846e-20)
(0.0784446 -0.0302431 3.79052e-20)
(0.0954645 -0.0333224 5.49871e-21)
(0.113475 -0.0361945 2.1428e-21)
(0.132351 -0.0388479 -4.85353e-21)
(0.151958 -0.0412443 2.15489e-20)
(0.172184 -0.0433111 -1.42831e-23)
(0.192765 -0.0449025 2.7754e-21)
(0.213743 -0.0458465 -3.98435e-21)
(0.233901 -0.0456913 -2.29083e-20)
(0.255424 -0.0445753 1.37279e-20)
(-0.00111812 0.002559 2.63679e-20)
(-0.00202829 0.00224624 5.29617e-20)
(-0.00120476 -0.000361445 -6.25977e-20)
(0.0022012 -0.00433969 -4.95402e-20)
(0.00807698 -0.00880567 6.09067e-20)
(0.0163174 -0.0134478 -4.53365e-20)
(0.0266922 -0.0180096 9.38501e-21)
(0.0389633 -0.0223986 -7.99128e-21)
(0.0529093 -0.0265556 -4.27016e-20)
(0.0683241 -0.0304677 4.34766e-20)
(0.0850301 -0.0341342 -5.39364e-20)
(0.10287 -0.0375622 2.81367e-20)
(0.121702 -0.0407533 -2.0901e-21)
(0.141402 -0.0436952 3.86428e-20)
(0.161829 -0.0463462 -3.95652e-21)
(0.182874 -0.048625 -2.20548e-20)
(0.204255 -0.0503708 -4.39029e-21)
(0.226056 -0.0513816 -9.8068e-21)
(0.246881 -0.0511721 -2.02609e-21)
(0.26947 -0.0497896 -9.96862e-21)
(-0.00117159 0.0027594 2.69851e-20)
(-0.00181617 0.00231532 -8.14143e-20)
(-0.000457588 -0.000628073 9.19339e-21)
(0.00360932 -0.00506899 9.418e-20)
(0.0102432 -0.0100306 -2.26739e-20)
(0.0192924 -0.0151752 -4.76783e-21)
(0.0305145 -0.0202199 1.09252e-20)
(0.0436562 -0.0250646 -8.51634e-21)
(0.0584902 -0.0296447 4.01962e-20)
(0.0748048 -0.0339468 4.9385e-20)
(0.0924189 -0.0379707 8.93786e-20)
(0.111172 -0.0417247 6.07606e-21)
(0.130919 -0.0452114 -5.38906e-20)
(0.151534 -0.0484178 -1.61058e-20)
(0.172871 -0.0512997 -1.82533e-21)
(0.194822 -0.0537673 6.31067e-21)
(0.217086 -0.0556465 2.38473e-20)
(0.239796 -0.0567028 -1.49157e-20)
(0.261354 -0.0564276 3.52066e-20)
(0.285112 -0.0547367 2.5614e-20)
(-0.00122305 0.00292773 -7.54786e-20)
(-0.0015647 0.00232227 4.5056e-20)
(0.000390946 -0.000965758 2.1137e-20)
(0.00519209 -0.00586723 -4.10066e-20)
(0.012666 -0.0113145 -6.88913e-22)
(0.02261 -0.0169471 -3.78179e-21)
(0.0347685 -0.0224568 -5.56091e-20)
(0.0488713 -0.0277374 -7.17467e-21)
(0.0646847 -0.032719 -6.83102e-20)
(0.0819905 -0.0373882 -2.85197e-20)
(0.100604 -0.0417452 -2.43397e-20)
(0.12036 -0.0458001 -4.55206e-20)
(0.141112 -0.0495564 -1.60707e-20)
(0.162728 -0.0530011 -2.07753e-20)
(0.18506 -0.0560874 -3.58657e-21)
(0.208 -0.0587184 2.82904e-20)
(0.231225 -0.060708 8.91004e-21)
(0.254923 -0.0617866 1.94635e-20)
(0.277273 -0.0614339 -2.91279e-20)
(0.302294 -0.0593892 -1.52861e-20)
(-0.00127013 0.00306138 6.15894e-20)
(-0.00126911 0.00226208 -4.8176e-20)
(0.0013464 -0.00138009 -2.61543e-20)
(0.00695502 -0.0067396 -1.38068e-21)
(0.0153501 -0.0126614 -7.86477e-20)
(0.026274 -0.018766 -4.41215e-20)
(0.0394564 -0.0247212 4.66804e-20)
(0.0546088 -0.0304158 -1.634e-20)
(0.0714906 -0.0357752 7.33632e-20)
(0.0898764 -0.0407863 -4.01912e-20)
(0.109577 -0.0454501 -7.47427e-20)
(0.130423 -0.0497784 2.29526e-20)
(0.152264 -0.053776 1.55535e-20)
(0.174965 -0.0574302 -3.09814e-20)
(0.198371 -0.0606926 -2.26981e-20)
(0.222377 -0.063459 -2.74836e-20)
(0.246637 -0.0655342 -5.44329e-20)
(0.271394 -0.0666101 1.3765e-20)
(0.294588 -0.0661677 -4.6174e-20)
(0.320954 -0.0637208 3.68641e-20)
(-0.00131025 0.00315793 3.92615e-20)
(-0.000924248 0.00213014 8.67688e-20)
(0.00241477 -0.00187613 8.92157e-21)
(0.00890405 -0.0076907 -1.56754e-21)
(0.0183007 -0.0140748 1.01371e-19)
(0.030288 -0.0206339 7.06984e-20)
(0.0445801 -0.0270133 4.4723e-20)
(0.0608687 -0.0330981 9.33287e-20)
(0.0789053 -0.0388096 -1.80429e-20)
(0.098457 -0.0441353 6.49509e-20)
(0.119329 -0.0490775 9.12067e-20)
(0.141348 -0.0536495 -6.67812e-20)
(0.164359 -0.057858 -1.58649e-20)
(0.188222 -0.0616906 -1.96977e-21)
(0.212777 -0.0650983 4.97941e-20)
(0.237921 -0.0679703 2.84901e-20)
(0.263279 -0.0701045 9.97331e-20)
(0.289159 -0.0711509 -5.24429e-20)
(0.313244 -0.0706065 3.47037e-20)
(0.341024 -0.0677068 -5.89196e-20)
(-0.00134065 0.00321515 -8.31014e-20)
(-0.000524643 0.00192237 -7.2469e-20)
(0.00360246 -0.00245834 -6.08525e-22)
(0.0110455 -0.00872445 3.21801e-20)
(0.0215233 -0.0155575 -1.04609e-19)
(0.0346564 -0.0225521 -3.67887e-20)
(0.050142 -0.0293327 2.05784e-21)
(0.0676509 -0.0357821 -4.34389e-20)
(0.0869262 -0.0418179 6.85194e-20)
(0.107726 -0.0474291 -4.88265e-20)
(0.129851 -0.0526189 -7.91988e-20)
(0.153122 -0.0574029 4.40409e-20)
(0.177378 -0.0617896 -5.15962e-21)
(0.202476 -0.0657675 4.75775e-20)
(0.228249 -0.0692878 -6.44552e-20)
(0.254593 -0.0722337 3.24435e-20)
(0.281108 -0.0743987 -6.09084e-20)
(0.308167 -0.0753878 1.62824e-20)
(0.333179 -0.0747288 -2.69158e-20)
(0.362431 -0.0713242 1.87619e-20)
(-0.00135837 0.00323088 4.3423e-21)
(-6.45164e-05 0.00163532 -2.65687e-20)
(0.00491625 -0.00313055 6.25833e-20)
(0.0133861 -0.00984413 -3.06079e-20)
(0.0250237 -0.0171116 8.5121e-20)
(0.0393832 -0.0245214 2.78384e-20)
(0.0561443 -0.0316784 -7.30947e-20)
(0.0749551 -0.0384648 1.17052e-21)
(0.0955498 -0.0447954 -1.68938e-20)
(0.117677 -0.0506607 -8.9348e-20)
(0.141132 -0.0560656 7.52118e-20)
(0.165729 -0.0610279 -8.66163e-21)
(0.191301 -0.0655583 -3.91751e-21)
(0.217701 -0.0696465 -3.62305e-20)
(0.244753 -0.0732447 7.24463e-20)
(0.272355 -0.0762309 -5.8292e-20)
(0.300077 -0.0783972 -3.80764e-20)
(0.328359 -0.0792998 1.10523e-20)
(0.354329 -0.0785145 3.41805e-20)
(0.385095 -0.0745519 5.08884e-20)
(-0.00136033 0.00320361 1.7441e-20)
(0.000462319 0.00126572 -1.76859e-20)
(0.0063632 -0.00389597 2.49851e-20)
(0.0159329 -0.0110523 -9.8251e-20)
(0.0288079 -0.0187385 6.9697e-20)
(0.0444731 -0.0265415 -2.55768e-20)
(0.0625893 -0.0340486 3.4313e-20)
(0.0827811 -0.0411428 3.27069e-20)
(0.104773 -0.0477367 -3.36569e-20)
(0.128303 -0.0538231 7.74473e-20)
(0.15316 -0.0594086 -5.21233e-20)
(0.179152 -0.0645137 -2.31846e-20)
(0.206106 -0.0691513 -3.40447e-20)
(0.233868 -0.0733131 2.60772e-20)
(0.262253 -0.0769529 -5.61789e-21)
(0.291163 -0.0799443 5.76798e-20)
(0.320133 -0.0820811 3.1295e-20)
(0.349677 -0.0828673 6.04943e-21)
(0.376625 -0.0819441 -1.91582e-20)
(0.408932 -0.0773707 -7.86288e-21)
(-0.00134348 0.00313209 2.58981e-20)
(0.00106226 0.000810783 1.08036e-19)
(0.00795076 -0.0047571 -8.09354e-20)
(0.0186932 -0.0123506 1.02957e-19)
(0.0328822 -0.0204387 -1.66804e-19)
(0.0499304 -0.0286116 -2.89513e-20)
(0.0694792 -0.0364407 -3.62597e-22)
(0.091128 -0.0438117 -7.45538e-20)
(0.114591 -0.0506357 9.43839e-21)
(0.139596 -0.0569084 1.53779e-20)
(0.165923 -0.0626384 1.02987e-20)
(0.193374 -0.0678489 -4.24126e-20)
(0.221769 -0.0725558 2.86632e-20)
(0.250947 -0.0767528 -2.71883e-20)
(0.280714 -0.0803966 -1.31467e-19)
(0.310971 -0.0833567 7.36885e-21)
(0.341223 -0.0854324 -4.70118e-21)
(0.372055 -0.0860714 -3.95128e-20)
(0.399993 -0.0849999 2.49038e-20)
(0.433853 -0.0797636 -2.46011e-20)
(-0.00130454 0.00301501 -1.85517e-20)
(0.00174183 0.00026859 -7.58503e-21)
(0.0096866 -0.00571572 8.00676e-21)
(0.0216744 -0.0137402 4.59583e-20)
(0.0372529 -0.022212 8.33203e-20)
(0.0557598 -0.0307299 9.50022e-20)
(0.076816 -0.0388514 -7.61202e-20)
(0.099995 -0.0464666 3.7377e-20)
(0.125 -0.0534858 -4.69298e-20)
(0.151546 -0.0599083 -4.8571e-20)
(0.179408 -0.065745 -1.03748e-20)
(0.208376 -0.0710223 6.27704e-20)
(0.238264 -0.0757589 -4.60093e-21)
(0.268905 -0.0799515 -2.0096e-20)
(0.300094 -0.0835601 3.63335e-20)
(0.331732 -0.0864514 -7.6918e-20)
(0.363288 -0.0884337 7.18069e-21)
(0.395424 -0.0888947 3.39132e-20)
(0.424356 -0.0876651 -9.35081e-22)
(0.459762 -0.0817159 -2.60129e-20)
(-0.00124012 0.0028514 -3.86771e-20)
(0.00250779 -0.000362246 -5.18328e-20)
(0.0115786 -0.00677287 -8.59758e-21)
(0.0248844 -0.0152211 -3.54477e-20)
(0.0419266 -0.0240572 -5.25983e-20)
(0.0619658 -0.0328939 -1.00601e-19)
(0.0846019 -0.0412767 8.84768e-20)
(0.109381 -0.0491017 -6.50674e-20)
(0.135994 -0.0562798 7.46981e-20)
(0.164145 -0.062814 5.96781e-20)
(0.193598 -0.0687181 2.88809e-21)
(0.224137 -0.074022 1.00221e-19)
(0.255566 -0.0787478 1.38187e-20)
(0.287709 -0.082895 1.16839e-19)
(0.320352 -0.0864286 8.62092e-20)
(0.353393 -0.0892127 9.26826e-20)
(0.386267 -0.0910685 -8.05048e-21)
(0.419712 -0.0913206 4.93737e-21)
(0.449631 -0.0899246 -2.78414e-20)
(0.486563 -0.0832155 2.5193e-20)
(-0.00114678 0.00264061 2.59915e-20)
(0.00336708 -0.00108257 -3.28847e-21)
(0.0136348 -0.00792885 -2.56771e-20)
(0.028331 -0.0167926 -6.29757e-20)
(0.0469098 -0.0259724 7.49536e-20)
(0.0685531 -0.0351001 3.86702e-20)
(0.0928385 -0.0437114 -1.18927e-19)
(0.119284 -0.0517106 3.86357e-20)
(0.147568 -0.0590095 -2.57456e-20)
(0.177382 -0.065616 3.66135e-20)
(0.20848 -0.0715471 9.81712e-20)
(0.240636 -0.0768363 -1.02298e-19)
(0.273645 -0.0815096 4.9914e-20)
(0.307322 -0.0855697 -1.02906e-19)
(0.341442 -0.0889874 -3.5479e-20)
(0.3759 -0.0916253 -1.41279e-19)
(0.410097 -0.0933216 -1.20846e-20)
(0.444844 -0.0933341 4.51554e-20)
(0.475733 -0.0917647 6.9659e-21)
(0.514154 -0.0842524 -7.7173e-21)
(-0.00102102 0.00238229 2.57548e-20)
(0.00432672 -0.00189264 1.20068e-19)
(0.0158634 -0.00918317 1.20867e-19)
(0.0320221 -0.0184532 6.02488e-21)
(0.0522093 -0.0279546 3.81002e-20)
(0.0755261 -0.0373443 -7.70438e-20)
(0.101528 -0.0461499 1.36938e-19)
(0.129703 -0.054286 9.08362e-21)
(0.159716 -0.0616664 -8.48696e-20)
(0.191246 -0.0683045 -4.79825e-20)
(0.224036 -0.0742209 -1.91431e-19)
(0.257849 -0.0794531 1.40735e-20)
(0.29247 -0.0840313 -1.54201e-20)
(0.327706 -0.087962 -6.9041e-20)
(0.363317 -0.0912227 -3.05691e-20)
(0.399196 -0.0936752 1.85653e-20)
(0.43471 -0.0951787 4.49648e-20)
(0.470741 -0.0949215 -3.99089e-20)
(0.502576 -0.0931734 -3.03276e-20)
(0.542429 -0.0848194 -5.79085e-20)
(-0.000859307 0.00207636 -5.94924e-20)
(0.00539384 -0.00279209 7.38732e-21)
(0.0182726 -0.0105345 -6.28425e-20)
(0.0359658 -0.0202004 -4.19907e-20)
(0.0578315 -0.0300001 -1.72683e-19)
(0.0828891 -0.039621 5.04533e-21)
(0.11067 -0.0485853 -3.13968e-20)
(0.140634 -0.0568198 8.71366e-21)
(0.172431 -0.064241 6.03468e-20)
(0.205725 -0.0708688 -4.7491e-21)
(0.240247 -0.0767278 2.68144e-20)
(0.275752 -0.0818601 3.45143e-20)
(0.31201 -0.0863001 -4.00296e-21)
(0.34882 -0.0900588 1.20884e-20)
(0.385927 -0.0931212 -5.47819e-20)
(0.423223 -0.0953489 1.55489e-20)
(0.460037 -0.0966268 -2.50768e-20)
(0.497321 -0.0960707 -4.84158e-20)
(0.530067 -0.0941402 1.58734e-20)
(0.571282 -0.084912 5.51278e-20)
(-0.000658077 0.00172302 -4.22858e-20)
(0.00657562 -0.00377995 -1.83222e-19)
(0.0208708 -0.0119809 -1.05467e-19)
(0.04017 -0.0220308 1.36634e-19)
(0.063783 -0.032104 5.69656e-20)
(0.0906461 -0.0419243 2.77369e-20)
(0.120267 -0.0510102 -5.16998e-20)
(0.152075 -0.0593031 -6.93224e-20)
(0.185705 -0.0667233 -8.77584e-20)
(0.220805 -0.073298 1.15663e-19)
(0.257096 -0.0790563 5.30469e-20)
(0.294317 -0.084045 3.84894e-20)
(0.332231 -0.0883035 -1.14278e-19)
(0.370622 -0.0918474 -3.97801e-20)
(0.409222 -0.0946702 1.06401e-19)
(0.447918 -0.0966345 2.22795e-20)
(0.486005 -0.0976542 4.13152e-22)
(0.524501 -0.0967713 5.68656e-20)
(0.558114 -0.0946567 5.36489e-20)
(0.600602 -0.084528 1.05497e-21)
(-0.00041376 0.00132276 1.0522e-20)
(0.00787922 -0.0048546 9.27371e-20)
(0.0236661 -0.0135194 2.48999e-19)
(0.0446426 -0.0239402 -5.04018e-20)
(0.0700699 -0.0342608 1.58344e-19)
(0.098801 -0.0442469 -1.96579e-20)
(0.130319 -0.0534161 -6.84455e-21)
(0.164022 -0.0617262 1.37539e-19)
(0.19953 -0.0691027 1.03242e-19)
(0.236473 -0.0755805 -8.21194e-20)
(0.27456 -0.081194 -1.02355e-19)
(0.313519 -0.0859953 -2.66566e-20)
(0.353097 -0.090029 2.31556e-20)
(0.393067 -0.0933157 -2.29434e-20)
(0.433148 -0.0958583 -8.91569e-20)
(0.473218 -0.0975208 7.30648e-21)
(0.512541 -0.0982508 3.91347e-20)
(0.552194 -0.0970146 -1.61223e-20)
(0.586622 -0.094716 1.50104e-20)
(0.63028 -0.0836681 5.09009e-20)
(-0.000122793 0.000876361 -1.41103e-20)
(0.0093118 -0.00601383 -1.59059e-19)
(0.0266667 -0.0151462 -2.46625e-20)
(0.0493913 -0.0259234 -5.34527e-20)
(0.0766983 -0.0364636 -2.21843e-19)
(0.107357 -0.0465808 -4.7399e-20)
(0.140826 -0.0557937 1.68527e-20)
(0.176471 -0.0640788 -9.34346e-20)
(0.213895 -0.0713676 1.29308e-19)
(0.252713 -0.0777042 5.05369e-20)
(0.292619 -0.0831285 1.04957e-19)
(0.333326 -0.0876986 -2.64944e-20)
(0.37457 -0.0914645 1.53048e-19)
(0.416109 -0.0944522 7.45436e-21)
(0.457648 -0.0966747 1.02237e-19)
(0.499056 -0.0979984 3.38849e-20)
(0.539568 -0.098408 -2.40726e-20)
(0.580313 -0.0967939 5.38726e-21)
(0.615494 -0.0943134 -3.86639e-20)
(0.660203 -0.0823354 -5.25674e-20)
(0.000218359 0.000384853 6.84903e-20)
(0.0108804 -0.00725482 1.85163e-19)
(0.0298808 -0.016857 -2.16583e-19)
(0.0544236 -0.0279743 3.80868e-20)
(0.083674 -0.038705 1.85414e-19)
(0.116317 -0.0489171 1.86589e-19)
(0.151787 -0.0581328 9.62185e-20)
(0.189416 -0.0663495 -1.82464e-20)
(0.228792 -0.0735061 -1.63199e-19)
(0.269509 -0.0796566 -6.30533e-20)
(0.311248 -0.0848473 6.47458e-20)
(0.353709 -0.0891424 -9.03383e-20)
(0.396611 -0.092598 -1.54828e-19)
(0.4397 -0.095246 -1.27053e-20)
(0.482665 -0.0971099 -4.17795e-20)
(0.525365 -0.0980591 7.14892e-21)
(0.567009 -0.098119 4.72229e-20)
(0.608767 -0.0961045 -7.62754e-20)
(0.644636 -0.093446 -6.93755e-20)
(0.690262 -0.0805353 -2.45779e-20)
(0.000613193 -0.000150441 1.59857e-19)
(0.0125921 -0.0085741 -5.0385e-20)
(0.0333161 -0.0186463 3.98761e-21)
(0.0597469 -0.0300859 7.30086e-20)
(0.0910022 -0.0409765 4.5537e-20)
(0.125684 -0.0512459 -2.71834e-20)
(0.163201 -0.0604224 -5.60942e-20)
(0.202852 -0.0685265 1.77449e-19)
(0.244207 -0.0755058 4.74605e-21)
(0.286843 -0.081425 -9.89722e-20)
(0.330424 -0.0863376 -9.19093e-20)
(0.374635 -0.0903145 6.73354e-20)
(0.41918 -0.0934184 -1.70806e-20)
(0.463791 -0.0956872 1.33186e-19)
(0.508139 -0.0971554 -1.57352e-20)
(0.552076 -0.0976965 -8.24623e-20)
(0.594784 -0.0973788 -4.61111e-20)
(0.637468 -0.0949436 1.9362e-20)
(0.673949 -0.0921129 1.40419e-20)
(0.720346 -0.0782754 -1.2975e-20)
(0.00106515 -0.000727934 -1.42513e-19)
(0.0144535 -0.00996762 2.54272e-20)
(0.0369804 -0.0205082 4.91169e-20)
(0.0653681 -0.0322503 -8.79365e-20)
(0.0986881 -0.0432686 -9.54858e-20)
(0.13546 -0.0535565 -1.0111e-19)
(0.175066 -0.0626506 -1.39204e-21)
(0.216772 -0.0705972 -4.18388e-20)
(0.26013 -0.0773533 -4.6854e-20)
(0.304697 -0.082996 9.17171e-20)
(0.35012 -0.0875863 1.18703e-19)
(0.39607 -0.0912028 1.15876e-19)
(0.442234 -0.0939147 1.83094e-19)
(0.488328 -0.0957666 -1.38918e-19)
(0.534011 -0.0968042 7.11607e-20)
(0.579118 -0.0969057 5.78239e-20)
(0.622816 -0.0961844 2.56084e-20)
(0.666325 -0.0933109 1.60309e-19)
(0.703339 -0.090315 -2.28672e-20)
(0.750347 -0.0755655 7.81452e-20)
(0.00157761 -0.00134578 5.66787e-20)
(0.0164715 -0.0114308 7.6627e-21)
(0.040881 -0.0224358 4.0204e-20)
(0.0712937 -0.0344588 4.49816e-20)
(0.106736 -0.0455711 1.58602e-20)
(0.145645 -0.0558373 4.2021e-20)
(0.187379 -0.0648048 -1.22037e-19)
(0.231168 -0.0725481 6.15644e-20)
(0.276546 -0.0790352 2.76472e-20)
(0.323049 -0.0843561 -9.72504e-20)
(0.370309 -0.0885807 -6.42752e-21)
(0.417978 -0.0917953 -6.11476e-20)
(0.465729 -0.0940767 -9.50197e-20)
(0.51326 -0.0954762 5.83249e-20)
(0.560217 -0.0960508 3.84422e-20)
(0.60642 -0.095684 3.05195e-20)
(0.651022 -0.094535 9.73709e-21)
(0.695248 -0.0912083 -1.12979e-19)
(0.732712 -0.0880551 1.05275e-19)
(0.780158 -0.072417 -4.86808e-20)
(0.00215385 -0.00200187 1.2649e-20)
(0.0186523 -0.0129583 -1.24446e-19)
(0.0450249 -0.0244214 -2.72498e-20)
(0.0775298 -0.0367019 -2.50768e-20)
(0.115149 -0.0478727 -1.1697e-19)
(0.156241 -0.0580757 -6.41255e-21)
(0.200136 -0.0668718 1.65956e-19)
(0.246031 -0.0743655 2.02367e-20)
(0.29344 -0.0805373 -1.37685e-20)
(0.341878 -0.0854918 1.22411e-19)
(0.390961 -0.0893078 -7.71908e-20)
(0.440321 -0.0920808 -1.02444e-19)
(0.489618 -0.093895 8.90941e-21)
(0.538532 -0.0948091 -2.33173e-20)
(0.586694 -0.0948911 -1.65293e-19)
(0.633909 -0.0940305 -4.69004e-20)
(0.679325 -0.092432 2.48258e-20)
(0.724149 -0.0886404 8.78515e-21)
(0.761977 -0.0853377 -7.01793e-20)
(0.809676 -0.0688427 3.92413e-20)
(0.00279707 -0.00269385 5.82444e-20)
(0.0210023 -0.0145444 2.12079e-19)
(0.0494187 -0.0264566 8.19275e-20)
(0.0840821 -0.038969 2.37636e-20)
(0.123932 -0.0501614 -3.29009e-20)
(0.167247 -0.0602587 1.05467e-19)
(0.213332 -0.0688374 -1.22211e-19)
(0.261351 -0.0760349 -7.00216e-20)
(0.310796 -0.0818454 8.47688e-21)
(0.361162 -0.086389 -4.21458e-21)
(0.412046 -0.0897549 1.57611e-20)
(0.463062 -0.0920481 -1.89912e-20)
(0.513854 -0.0933609 -4.81296e-20)
(0.564087 -0.0937596 9.02638e-20)
(0.613378 -0.0933229 1.70063e-19)
(0.661512 -0.0919468 6.44204e-20)
(0.707644 -0.0898792 -1.26066e-19)
(0.752939 -0.0856143 2.04342e-21)
(0.791047 -0.0821685 1.31298e-19)
(0.8388 -0.0648566 2.58603e-20)
(0.00351034 -0.00341915 -2.05143e-19)
(0.0235271 -0.0161827 -1.3322e-19)
(0.0540688 -0.0285325 -8.23859e-21)
(0.0909554 -0.041249 -3.16841e-20)
(0.133086 -0.0524245 1.08547e-20)
(0.178662 -0.0623722 -1.4258e-19)
(0.226962 -0.0706871 -1.88216e-19)
(0.277117 -0.0775414 -1.32611e-19)
(0.328597 -0.0829447 1.42692e-19)
(0.380876 -0.087034 -1.37115e-19)
(0.433531 -0.0899096 4.92836e-20)
(0.48616 -0.0916868 1.1832e-19)
(0.538389 -0.0924666 4.70134e-20)
(0.589867 -0.0923233 -2.70283e-20)
(0.640202 -0.0913456 -1.32854e-19)
(0.689158 -0.0894367 9.76321e-20)
(0.735901 -0.0868831 2.23061e-19)
(0.781534 -0.0821402 -8.29311e-20)
(0.819842 -0.0785542 -1.38989e-19)
(0.867432 -0.0604735 -3.70563e-20)
(0.00429662 -0.00417493 2.24034e-19)
(0.0262325 -0.0178665 3.75671e-20)
(0.0589807 -0.0306392 -4.33845e-20)
(0.0981542 -0.0435299 5.58402e-20)
(0.142613 -0.0546484 1.17898e-19)
(0.190484 -0.0644016 -6.36554e-21)
(0.241019 -0.0724055 4.04327e-19)
(0.293316 -0.0788697 1.05581e-19)
(0.346824 -0.0838204 -1.76726e-19)
(0.400993 -0.0874129 9.62643e-20)
(0.455382 -0.0897597 -1.67362e-20)
(0.509572 -0.0909871 -3.82615e-20)
(0.563172 -0.0912055 6.91237e-20)
(0.615815 -0.0904975 -3.99835e-20)
(0.667101 -0.0889607 1.83364e-20)
(0.716773 -0.0865065 2.02618e-20)
(0.76402 -0.083453 -1.42753e-19)
(0.809851 -0.0782317 1.11078e-19)
(0.848286 -0.0745013 5.04074e-20)
(0.895477 -0.0557082 6.16959e-21)
(0.00515873 -0.00495816 -1.53852e-19)
(0.0291235 -0.0195882 -6.48892e-22)
(0.0641597 -0.0327663 3.81511e-21)
(0.105682 -0.0457991 -4.62611e-20)
(0.152513 -0.0568188 -7.88509e-20)
(0.202709 -0.0663317 1.14386e-19)
(0.255495 -0.073977 -2.90895e-19)
(0.309935 -0.0800042 -6.14807e-20)
(0.365456 -0.0844576 1.96029e-19)
(0.421486 -0.0875122 1.80822e-19)
(0.477566 -0.0892935 -1.98582e-19)
(0.533256 -0.0899401 4.83573e-20)
(0.588151 -0.089572 -5.30244e-20)
(0.641872 -0.0882806 6.11437e-20)
(0.694008 -0.0861717 1.0104e-21)
(0.744284 -0.0831653 5.64023e-21)
(0.791925 -0.0796015 -4.78919e-20)
(0.837814 -0.073906 -2.22451e-20)
(0.876312 -0.0700157 4.44215e-21)
(0.922842 -0.050576 -3.17392e-20)
(0.00609932 -0.00576559 1.44537e-19)
(0.032205 -0.0213402 -4.83063e-21)
(0.0696103 -0.0349028 7.00726e-20)
(0.113542 -0.0480432 2.23224e-20)
(0.162788 -0.0589209 -7.93177e-20)
(0.215334 -0.0681467 3.26085e-20)
(0.270381 -0.0753854 -7.53686e-20)
(0.326958 -0.080929 2.33047e-20)
(0.384472 -0.0848414 -1.74588e-19)
(0.442327 -0.0873183 -2.31743e-19)
(0.500044 -0.0884999 8.06815e-20)
(0.557166 -0.0885375 -7.42092e-21)
(0.613275 -0.0875617 1.5579e-20)
(0.667976 -0.0856729 -3.33299e-20)
(0.720857 -0.082984 7.63774e-20)
(0.771622 -0.0794246 -1.9439e-19)
(0.819543 -0.0753443 1.39216e-19)
(0.86535 -0.0691854 -1.17999e-20)
(0.903865 -0.065102 8.23755e-20)
(0.949438 -0.045095 2.6517e-20)
(0.00712087 -0.00659375 -2.16328e-19)
(0.0354813 -0.023114 -9.80394e-20)
(0.0753364 -0.0370372 -1.45146e-19)
(0.121736 -0.0502482 9.14868e-20)
(0.173434 -0.0609393 -2.26987e-20)
(0.228352 -0.0698302 2.06669e-20)
(0.285665 -0.0766144 1.57397e-19)
(0.344369 -0.0816281 3.49103e-20)
(0.403848 -0.0849567 1.19611e-20)
(0.463484 -0.0868183 3.40088e-20)
(0.522778 -0.0873684 9.91468e-20)
(0.581257 -0.0867722 2.91191e-20)
(0.638489 -0.0851713 2.54942e-20)
(0.694067 -0.0826761 -2.46025e-20)
(0.74758 -0.0794052 -1.01543e-19)
(0.798715 -0.0752989 1.32373e-19)
(0.846803 -0.0707013 7.41778e-20)
(0.89239 -0.0640979 5.82673e-20)
(0.930901 -0.0597638 -9.88945e-20)
(0.975181 -0.0392918 -3.47167e-20)
(0.0082257 -0.00743902 1.41686e-19)
(0.0389562 -0.024901 1.71545e-19)
(0.0813413 -0.0391573 5.40876e-21)
(0.130265 -0.0523997 1.31461e-20)
(0.184451 -0.0628579 2.19521e-19)
(0.241758 -0.0713656 -1.62386e-19)
(0.301337 -0.0776471 1.79919e-19)
(0.36215 -0.0820855 1.14389e-19)
(0.423559 -0.0847892 1.86406e-19)
(0.484925 -0.0859997 -4.8009e-20)
(0.545729 -0.0858892 -3.86361e-20)
(0.605482 -0.0846379 -3.46898e-21)
(0.663739 -0.082399 3.09896e-20)
(0.720085 -0.0792935 -9.21729e-20)
(0.774112 -0.075445 1.08861e-19)
(0.825495 -0.0708055 -7.181e-20)
(0.873637 -0.0656965 2.53092e-20)
(0.918875 -0.0586788 -4.60413e-20)
(0.957388 -0.0540011 -9.69056e-20)
(0.999983 -0.0331814 3.44106e-20)
(0.00941605 -0.00829772 -7.12955e-20)
(0.0426333 -0.0266921 -9.7852e-20)
(0.0876276 -0.0412505 1.9452e-19)
(0.139129 -0.0544829 -1.02482e-19)
(0.195835 -0.0646605 -1.01739e-19)
(0.255544 -0.0727361 3.12695e-20)
(0.317382 -0.0784669 -1.01333e-19)
(0.380281 -0.0822855 -2.24785e-19)
(0.44358 -0.0843244 -1.45227e-19)
(0.506618 -0.0848505 1.38704e-21)
(0.568857 -0.0840535 -3.25576e-20)
(0.629792 -0.0821296 -1.32445e-19)
(0.68897 -0.0792443 -1.37992e-19)
(0.745968 -0.07553 1.65832e-19)
(0.800387 -0.0711147 -1.1553e-19)
(0.851892 -0.0659639 3.3852e-20)
(0.899975 -0.0603592 2.68288e-20)
(0.944753 -0.0529732 -1.0098e-19)
(0.983298 -0.0477935 4.49985e-20)
(1.0237 -0.0267021 3.84124e-20)
(0.0106941 -0.00916624 -8.40025e-20)
(0.0465158 -0.0284784 -7.20907e-20)
(0.0941973 -0.0433044 -1.38147e-19)
(0.148329 -0.0564825 3.28013e-20)
(0.207582 -0.0663307 2.27576e-20)
(0.2697 -0.0739245 3.02326e-21)
(0.333786 -0.0790572 1.51447e-19)
(0.398742 -0.0822124 4.0888e-20)
(0.463883 -0.0835488 -6.47704e-20)
(0.528527 -0.0833597 8.16078e-20)
(0.592118 -0.0818535 -3.89396e-20)
(0.65414 -0.0792434 9.81787e-21)
(0.714127 -0.075708 3.66342e-20)
(0.771656 -0.0713919 -8.58781e-20)
(0.826338 -0.0664274 6.97873e-20)
(0.877841 -0.0607961 -1.50621e-20)
(0.925753 -0.0547258 1.09027e-19)
(0.969987 -0.0470383 -2.21084e-20)
(1.00864 -0.0410984 1.48186e-19)
(1.04617 -0.0198278 -2.67748e-20)
(0.0120609 -0.0100397 1.86098e-19)
(0.0506051 -0.0302492 -4.92765e-20)
(0.101051 -0.0453045 1.57394e-19)
(0.157861 -0.058382 1.31199e-19)
(0.219686 -0.0678506 3.13421e-20)
(0.284216 -0.0749131 1.23975e-20)
(0.350533 -0.0794006 -3.4186e-19)
(0.417509 -0.0818504 -8.04091e-20)
(0.484438 -0.0824486 -1.19358e-21)
(0.550616 -0.0815164 -1.64322e-19)
(0.615471 -0.0792821 1.01776e-19)
(0.678474 -0.0759765 5.36496e-20)
(0.739154 -0.0717922 8.43946e-20)
(0.797088 -0.0668868 2.73991e-21)
(0.851902 -0.0613976 -4.866e-20)
(0.903273 -0.0553257 1.18264e-19)
(0.950901 -0.0488397 -2.68671e-19)
(0.994554 -0.0409452 -6.76356e-20)
(1.03353 -0.0339725 -1.43732e-19)
(1.06779 -0.0133386 8.14495e-22)
(0.0135129 -0.0109092 -1.80518e-19)
(0.0548977 -0.0319894 3.72523e-20)
(0.108183 -0.0472322 -1.52184e-19)
(0.167718 -0.0601608 -1.27656e-19)
(0.232135 -0.0691991 -2.16779e-20)
(0.299076 -0.0756808 -2.0522e-20)
(0.367602 -0.0794776 3.43353e-19)
(0.436556 -0.081182 7.1871e-20)
(0.505213 -0.0810093 1.83555e-19)
(0.572846 -0.0793098 1.74582e-19)
(0.638871 -0.0763325 -1.18747e-19)
(0.702745 -0.0723268 -4.10474e-20)
(0.763997 -0.0675 -1.03487e-19)
(0.822205 -0.0620234 1.68647e-20)
(0.877015 -0.0560404 4.4454e-20)
(0.928121 -0.0495764 -8.74119e-20)
(0.975342 -0.0427462 1.09815e-19)
(1.01838 -0.0347805 5.18099e-20)
(1.05797 -0.0268161 1.34236e-19)
(1.09095 -0.00919339 2.73386e-21)
(0.0150505 -0.0117695 8.14299e-20)
(0.0593935 -0.033688 -1.00927e-19)
(0.115591 -0.049073 1.46047e-19)
(0.177895 -0.0618023 -5.33196e-20)
(0.244919 -0.0703586 -5.31978e-21)
(0.314265 -0.0762105 6.55421e-21)
(0.384973 -0.0792719 -1.71666e-19)
(0.455857 -0.080193 1.72088e-19)
(0.526174 -0.0792194 -1.23537e-19)
(0.595178 -0.0767317 7.59733e-20)
(0.662271 -0.0730007 3.64686e-20)
(0.726902 -0.0682948 -6.37444e-21)
(0.788599 -0.0628366 -3.54374e-20)
(0.846947 -0.0568119 -1.35956e-20)
(0.901615 -0.0503714 -7.71698e-20)
(0.95232 -0.0435695 3.09533e-20)
(0.998991 -0.0364799 -1.0796e-19)
(1.04129 -0.0286254 -1.16332e-19)
(1.08103 -0.0203282 1.38771e-19)