/*--------------------------------*- C++ -*----------------------------------*\
  =========                 |
  \\      /  F ield         | OpenFOAM: The Open Source CFD Toolbox
   \\    /   O peration     | Website:  https://openfoam.org
    \\  /    A nd           | Version:  7
     \\/     M anipulation  |
\*---------------------------------------------------------------------------*/
FoamFile
{
    version     2.0;
    format      ascii;
    class       surfaceScalarField;
    location    "5";
    object      phi;
}
// * * * * * * * * * * * * * * * * * * * * * * * * * * * * * * * * * * * * * //

dimensions      [0 3 -1 0 0 0 0];

internalField   nonuniform List<scalar> 
1262
(
0.00479443
-7.5619e-05
0.00479496
-5.73097e-05
0.00479537
-4.31553e-05
0.00479568
-3.21419e-05
0.00479592
-2.39559e-05
0.0047961
-1.73356e-05
0.00479624
-1.32444e-05
-8.501e-06
0.00507379
-0.00216432
0.0050575
-0.00201317
0.00504451
-0.00184321
0.0050346
-0.00166073
0.00502746
-0.00147256
0.00502272
-0.0012854
0.00501997
-0.00110521
0.00501877
-0.00093676
0.00501872
-0.000783422
0.00501944
-0.00064712
0.00502063
-0.000528502
0.00502205
-0.000427182
0.00502351
-0.000342041
0.0050249
-0.000271503
0.00502615
-0.000213778
0.00502724
-0.000167037
0.00502815
-0.000129551
0.0050289
-9.97301e-05
0.0050295
-7.62192e-05
0.00502997
-5.77828e-05
0.00503034
-4.3524e-05
0.00503062
-3.24237e-05
0.00503084
-2.4172e-05
0.005031
-1.74946e-05
0.00503112
-1.33702e-05
-8.58231e-06
0.00534403
-0.00214034
0.00532387
-0.00199301
0.00530742
-0.00182676
0.00529448
-0.00164779
0.00528474
-0.00146282
0.00527781
-0.00127846
0.00527323
-0.00110063
0.00527054
-0.000934072
0.00526929
-0.000782167
0.00526905
-0.000646886
0.00526949
-0.000528936
0.00527031
-0.000428005
0.00527132
-0.000343045
0.00527235
-0.000272543
0.00527334
-0.000214763
0.00527422
-0.000167918
0.00527498
-0.000130307
0.0052756
-0.000100358
0.00527611
-7.67293e-05
0.00527652
-5.81882e-05
0.00527684
-4.38418e-05
0.00527708
-3.26681e-05
0.00527727
-2.43597e-05
0.00527741
-1.7634e-05
0.00527752
-1.34796e-05
-8.65437e-06
0.00562896
-0.00211174
0.00560458
-0.00196863
0.00558437
-0.00180655
0.00556812
-0.00163154
0.00555552
-0.00145022
0.00554615
-0.0012691
0.00553955
-0.00109402
0.00553519
-0.000929711
0.00553257
-0.000779555
0.00553125
-0.000645563
0.00553082
-0.000528508
0.00553097
-0.00042815
0.00553144
-0.000343519
0.00553207
-0.000273172
0.00553274
-0.000215432
0.00553338
-0.000168556
0.00553395
-0.000130877
0.00553444
-0.000100846
0.00553484
-7.71326e-05
0.00553516
-5.85132e-05
0.00553542
-4.40991e-05
0.00553562
-3.28678e-05
0.00553578
-2.45136e-05
0.00553589
-1.77497e-05
0.00553598
-1.35694e-05
-8.71526e-06
0.00592928
-0.00207819
0.00590037
-0.00193972
0.00587607
-0.00178225
0.00585621
-0.00161168
0.00584048
-0.00143449
0.00582844
-0.00125706
0.00581958
-0.00108516
0.00581336
-0.000923489
0.00580923
-0.000775422
0.00580668
-0.000643014
0.00580527
-0.0005271
0.00580464
-0.000427521
0.00580451
-0.000343386
0.00580466
-0.000273328
0.00580496
-0.000215734
0.00580532
-0.000168911
0.00580567
-0.000131231
0.005806
-0.000101168
0.00580627
-7.74101e-05
0.0058065
-5.87435e-05
0.00580669
-4.4285e-05
0.00580684
-3.30148e-05
0.00580695
-2.46275e-05
0.00580704
-1.78375e-05
0.0058071
-1.36362e-05
-8.76279e-06
0.0062457
-0.00203939
0.00621194
-0.00190596
0.00618326
-0.00175357
0.0061595
-0.00158793
0.00614035
-0.00141534
0.00612539
-0.00124209
0.00611405
-0.00107383
0.00610576
-0.000915203
0.00609994
-0.000769593
0.00609601
-0.000639088
0.0060935
-0.000524586
0.00609199
-0.000426012
0.00609116
-0.000342559
0.00609077
-0.00027294
0.00609065
-0.000215613
0.00609068
-0.00016894
0.00609078
-0.000131332
0.00609091
-0.000101297
0.00609104
-7.7541e-05
0.00609116
-5.88629e-05
0.00609126
-4.43873e-05
0.00609135
-3.30998e-05
0.00609142
-2.46947e-05
0.00609147
-1.78922e-05
0.00609151
-1.36761e-05
-8.79451e-06
0.00657894
-0.00199504
0.00654004
-0.00186706
0.00650667
-0.0017202
0.00647872
-0.00155998
0.00645589
-0.00139252
0.00643774
-0.00122393
0.00642369
-0.00105978
0.00641313
-0.000904642
0.00640542
-0.000761883
0.00639996
-0.000633624
0.0063962
-0.000520831
0.0063937
-0.000423509
0.00639208
-0.000340943
0.00639108
-0.000271933
0.00639047
-0.000215008
0.00639012
-0.000168592
0.00638993
-0.000131144
0.00638984
-0.000101203
0.0063898
-7.75019e-05
0.00638979
-5.88538e-05
0.0063898
-4.43926e-05
0.00638981
-3.31128e-05
0.00638982
-2.47074e-05
0.00638984
-1.79085e-05
0.00638985
-1.36848e-05
-8.80767e-06
0.00692974
-0.00194488
0.00688542
-0.00182275
0.00684709
-0.00168186
0.00681466
-0.00152755
0.00678788
-0.00136573
0.00676627
-0.00120233
0.00674927
-0.00104278
0.00673622
-0.000891588
0.00672643
-0.000752097
0.00671926
-0.000626454
0.00671412
-0.000515688
0.0067105
-0.00041989
0.006708
-0.000338438
0.00670628
-0.000270221
0.00670513
-0.00021385
0.00670435
-0.000167813
0.00670383
-0.000130622
0.00670348
-0.000100854
0.00670324
-7.72671e-05
0.00670308
-5.86964e-05
0.00670298
-4.42858e-05
0.00670291
-3.30426e-05
0.00670286
-2.46572e-05
0.00670283
-1.78801e-05
0.0067028
-1.36577e-05
-8.79922e-06
0.00729882
-0.00188871
0.00724884
-0.00177277
0.00720528
-0.0016383
0.00716812
-0.00149039
0.0071371
-0.00133471
0.00711179
-0.00117702
0.0070916
-0.00102259
0.00707583
-0.000875817
0.00706376
-0.000740032
0.0070547
-0.000617398
0.00704802
-0.000509003
0.00704315
-0.000415023
0.00703965
-0.000334932
0.00703714
-0.000267715
0.00703536
-0.000212066
0.00703409
-0.000166546
0.00703319
-0.00012972
0.00703254
-0.000100212
0.00703209
-7.68084e-05
0.00703176
-5.8369e-05
0.00703152
-4.40505e-05
0.00703136
-3.28768e-05
0.00703123
-2.4535e-05
0.00703115
-1.78004e-05
0.00703109
-1.35894e-05
-8.76577e-06
0.0076869
-0.00182634
0.00763106
-0.00171694
0.00758205
-0.00158929
0.0075399
-0.00144824
0.0075044
-0.00129922
0.00747513
-0.00114775
0.0074515
-0.000998946
0.00743278
-0.000857097
0.00741822
-0.000725479
0.00740709
-0.000606268
0.0073987
-0.00050061
0.00739244
-0.000408766
0.00738782
-0.000330308
0.00738442
-0.000264317
0.00738193
-0.000209577
0.00738011
-0.000164724
0.00737878
-0.000128388
0.0073778
-9.92368e-05
0.00737709
-7.60947e-05
0.00737657
-5.7848e-05
0.00737619
-4.36687e-05
0.00737591
-3.26018e-05
0.00737571
-2.43305e-05
0.00737557
-1.76618e-05
0.00737545
-1.34746e-05
-8.70359e-06
0.00809472
-0.00175767
0.00803286
-0.00165508
0.00797819
-0.00153462
0.00793083
-0.00140088
0.00789062
-0.001259
0.00785715
-0.00111428
0.00782983
-0.000971623
0.00780793
-0.0008352
0.00779067
-0.000708223
0.00777728
-0.000592871
0.007767
-0.000490339
0.00775921
-0.000400972
0.00775334
-0.000324439
0.00774895
-0.000259921
0.00774566
-0.000206295
0.00774322
-0.00016228
0.0077414
-0.00012657
0.00774005
-9.78864e-05
0.00773905
-7.50925e-05
0.00773831
-5.71074e-05
0.00773776
-4.31207e-05
0.00773736
-3.22028e-05
0.00773706
-2.40327e-05
0.00773686
-1.74562e-05
0.00773669
-1.3307e-05
-8.6086e-06
0.008523
-0.00168264
0.00845501
-0.00158708
0.00839453
-0.00147415
0.00834177
-0.00134811
0.00829662
-0.00121385
0.00825872
-0.00107638
0.00822748
-0.000940384
0.00820217
-0.000809895
0.008182
-0.000688046
0.00816613
-0.000577006
0.00815381
-0.000478012
0.00814432
-0.000391486
0.00813707
-0.000317193
0.00813157
-0.000254416
0.0081274
-0.000202131
0.00812426
-0.00015914
0.0081219
-0.000124207
0.00812013
-9.61136e-05
0.0081188
-7.37656e-05
0.00811781
-5.61195e-05
0.00811708
-4.23854e-05
0.00811654
-3.16639e-05
0.00811614
-2.36298e-05
0.00811585
-1.71749e-05
0.00811563
-1.30801e-05
-8.47634e-06
0.00897249
-0.00160122
0.00889829
-0.00151288
0.00883189
-0.00140775
0.00877357
-0.00128979
0.00872329
-0.00116358
0.00868074
-0.00103383
0.00864536
-0.000905004
0.00861642
-0.000780958
0.00859311
-0.000664734
0.00857458
-0.000558473
0.00856001
-0.000463446
0.00854867
-0.000380145
0.00853991
-0.00030843
0.00853318
-0.000247687
0.00852803
-0.000196987
0.00852412
-0.000155224
0.00852115
-0.000121236
0.0085189
-9.3869e-05
0.00851721
-7.20754e-05
0.00851595
-5.48545e-05
0.008515
-4.14402e-05
0.00851431
-3.0968e-05
0.00851379
-2.31091e-05
0.00851342
-1.68082e-05
0.00851313
-1.27872e-05
-8.30206e-06
0.00944392
-0.00151348
0.0093635
-0.00143246
0.00929111
-0.00133535
0.0092271
-0.00122579
0.00917153
-0.00110801
0.00912414
-0.000986439
0.00908441
-0.000865271
0.00905163
-0.000748172
0.00902496
-0.000638071
0.00900356
-0.000537069
0.00898657
-0.000446455
0.00897321
-0.000366785
0.00896279
-0.000298008
0.00895471
-0.00023961
0.00894848
-0.000190763
0.00894371
-0.00015045
0.00894007
-0.000117592
0.0089373
-9.11001e-05
0.0089352
-6.99811e-05
0.00893363
-5.32809e-05
0.00893245
-4.02612e-05
0.00893158
-3.0097e-05
0.00893093
-2.24572e-05
0.00893047
-1.63462e-05
0.0089301
-1.24208e-05
-8.08067e-06
0.00993807
-0.00141949
0.00985146
-0.00134585
0.00977303
-0.00125692
0.00970325
-0.00115601
0.00964226
-0.00104702
0.00958986
-0.000934041
0.00954558
-0.000820993
0.00950874
-0.000711332
0.00947852
-0.000607851
0.00945405
-0.000512594
0.00943445
-0.000426854
0.0094189
-0.000351239
0.00940668
-0.000285782
0.00939713
-0.000230063
0.00938972
-0.000183354
0.009384
-0.000144734
0.00937962
-0.000113205
0.00937627
-8.77528e-05
0.00937373
-6.74403e-05
0.00937181
-5.1366e-05
0.00937038
-3.88233e-05
0.00936931
-2.9032e-05
0.00936851
-2.166e-05
0.00936795
-1.57784e-05
0.0093675
-1.19734e-05
-7.80684e-06
0.0104557
-0.0013194
0.010363
-0.00125312
0.0102785
-0.00117246
0.0102029
-0.0010804
0.0101364
-0.000980497
0.0100789
-0.000876487
0.0100299
-0.000771995
0.00998877
-0.000670245
0.00995479
-0.000573877
0.00992705
-0.000484855
0.00990466
-0.000404462
0.00988677
-0.000333344
0.00987259
-0.000271605
0.00986145
-0.000218919
0.00985275
-0.000174656
0.009846
-0.000137989
0.0098408
-0.000108007
0.00983682
-8.37716e-05
0.00983379
-6.44095e-05
0.0098315
-4.90762e-05
0.00982978
-3.71011e-05
0.0098285
-2.77535e-05
0.00982754
-2.07033e-05
0.00982686
-1.5094e-05
0.00982632
-1.14373e-05
-7.47506e-06
0.0109977
-0.00121334
0.010899
-0.00115435
0.0108085
-0.001082
0.010727
-0.000998943
0.0106549
-0.000908364
0.0105921
-0.000813655
0.0105382
-0.000718123
0.0104927
-0.000624738
0.0104548
-0.000535965
0.0104236
-0.000453671
0.0103982
-0.000379105
0.0103778
-0.000312938
0.0103616
-0.000255336
0.0103487
-0.000206057
0.0103386
-0.000164565
0.0103308
-0.000130129
0.0103247
-0.000101927
0.01032
-7.91012e-05
0.0103164
-6.08454e-05
0.0103137
-4.63779e-05
0.0103117
-3.50689e-05
0.0103102
-2.62422e-05
0.0103091
-1.95726e-05
0.0103083
-1.4282e-05
0.0103076
-1.0805e-05
-7.07977e-06
0.0115649
-0.00110147
0.0114602
-0.00104965
0.0113638
-0.00098559
0.0112765
-0.000911623
0.0111987
-0.000830566
0.0111305
-0.000745448
0.0110716
-0.000659245
0.0110216
-0.000574657
0.0109795
-0.000493951
0.0109447
-0.000418872
0.0109163
-0.000350621
0.0108932
-0.000289872
0.0108747
-0.00023684
0.01086
-0.000191359
0.0108484
-0.000152982
0.0108394
-0.000121072
0.0108323
-9.48983e-05
0.0108269
-7.36879e-05
0.0108228
-5.67059e-05
0.0108196
-4.32383e-05
0.0108173
-3.27017e-05
0.0108155
-2.44791e-05
0.0108142
-1.82542e-05
0.0108132
-1.33318e-05
0.0108125
-1.0069e-05
-6.61549e-06
0.0121583
-0.000983932
0.0120478
-0.000939116
0.0119455
-0.000883282
0.0118523
-0.000818449
0.0117688
-0.000747065
0.0116951
-0.000671789
0.0116311
-0.000595253
0.0115764
-0.00051987
0.0115301
-0.000447689
0.0114915
-0.000380312
0.0114598
-0.000318865
0.0114339
-0.000264011
0.0114131
-0.000215996
0.0113964
-0.000174718
0.0113833
-0.000139815
0.0113729
-0.000110742
0.0113649
-8.68593e-05
0.0113587
-6.74821e-05
0.0113539
-5.19517e-05
0.0113503
-3.96272e-05
0.0113476
-2.99764e-05
0.0113456
-2.24465e-05
0.011344
-1.67348e-05
0.0113429
-1.22335e-05
0.0113421
-9.22243e-06
-6.07707e-06
0.0127788
-0.000860822
0.0126625
-0.000822819
0.0125543
-0.000775119
0.0124553
-0.000719427
0.0123661
-0.000657832
0.0122869
-0.000592617
0.0122177
-0.000526061
0.0121581
-0.000460273
0.0121075
-0.000397063
0.0120651
-0.000337868
0.0120299
-0.000283718
0.0120011
-0.000235241
0.0119778
-0.000192698
0.0119592
-0.000156043
0.0119443
-0.000124986
0.0119327
-9.90734e-05
0.0119236
-7.77559e-05
0.0119165
-6.04403e-05
0.0119111
-4.65487e-05
0.011907
-3.55177e-05
0.0119039
-2.68726e-05
0.0119016
-2.01288e-05
0.0118999
-1.50033e-05
0.0118986
-1.09782e-05
0.0118976
-8.25959e-06
-5.45991e-06
0.0134274
-0.000732178
0.0133054
-0.000700787
0.0131914
-0.000661111
0.0130865
-0.000614552
0.0129915
-0.000562842
0.0129068
-0.000507887
0.0128324
-0.000451606
0.0127679
-0.000395788
0.0127128
-0.000341987
0.0126664
-0.00029145
0.0126277
-0.000245088
0.012596
-0.000203475
0.0125702
-0.00016687
0.0125494
-0.000135263
0.0125328
-0.000108435
0.0125198
-8.60149e-05
0.0125096
-6.75465e-05
0.0125016
-5.25292e-05
0.0124956
-4.04704e-05
0.0124909
-3.08893e-05
0.0124874
-2.33745e-05
0.0124848
-1.7514e-05
0.0124829
-1.30508e-05
0.0124815
-9.55909e-06
0.0124804
-7.17604e-06
-4.76029e-06
0.0141053
-0.000597949
0.0139775
-0.000572983
0.0138576
-0.000541229
0.0137469
-0.000503796
0.0136461
-0.000462064
0.0135558
-0.000417563
0.013476
-0.000371846
0.0134066
-0.00032637
0.013347
-0.000282411
0.0132966
-0.000241007
0.0132544
-0.000202927
0.0132196
-0.000168666
0.0131912
-0.000138465
0.0131683
-0.000112339
0.01315
-9.01262e-05
0.0131355
-7.15373e-05
0.0131242
-5.62066e-05
0.0131154
-4.37288e-05
0.0131086
-3.37011e-05
0.0131034
-2.57296e-05
0.0130995
-1.94727e-05
0.0130966
-1.45948e-05
0.0130944
-1.08722e-05
0.0130928
-7.97187e-06
0.0130916
-5.96946e-06
-3.97579e-06
0.0148135
-0.000457978
0.0146798
-0.000439285
0.0145539
-0.000415382
0.0144372
-0.000387093
0.0143306
-0.000355454
0.0142347
-0.00032162
0.0141496
-0.000286769
0.0140753
-0.000252012
0.0140112
-0.000218333
0.0139567
-0.000186538
0.013911
-0.000157233
0.0138732
-0.000130815
0.0138422
-0.000107484
0.0138171
-8.72697e-05
0.013797
-7.00589e-05
0.0137811
-5.5639e-05
0.0137687
-4.37345e-05
0.013759
-3.40377e-05
0.0137515
-2.62393e-05
0.0137458
-2.00376e-05
0.0137415
-1.51664e-05
0.0137383
-1.13705e-05
0.0137359
-8.46715e-06
0.0137341
-6.21586e-06
0.0137328
-4.64037e-06
-3.1057e-06
0.015553
-0.000311978
0.0154132
-0.000299469
0.0152812
-0.000283405
0.0151585
-0.000264336
0.015046
-0.000242956
0.0149444
-0.000220041
0.014854
-0.000196388
0.0147748
-0.000172753
0.0147062
-0.000149807
0.0146478
-0.000128105
0.0145986
-0.00010807
0.0145578
-8.99797e-05
0.0145243
-7.39821e-05
0.0144971
-6.01034e-05
0.0144753
-4.82744e-05
0.0144581
-3.83543e-05
0.0144445
-3.01583e-05
0.0144339
-2.34781e-05
0.0144258
-1.81028e-05
0.0144196
-1.38268e-05
0.0144149
-1.04661e-05
0.0144114
-7.84883e-06
0.0144087
-5.84185e-06
0.0144068
-4.29506e-06
0.0144054
-3.19292e-06
-2.15157e-06
0.0163249
0.0161786
-0.000153194
0.0160403
-0.000145053
0.0159113
-0.00013537
0.0157928
-0.000124496
0.0156856
-0.000112825
0.01559
-0.000100761
0.0155059
-8.869e-05
0.0154331
-7.69568e-05
0.0153708
-6.5847e-05
0.0153183
-5.55786e-05
0.0152747
-4.62981e-05
0.0152388
-3.80834e-05
0.0152096
-3.0951e-05
0.0151862
-2.48676e-05
0.0151676
-1.97629e-05
0.015153
-1.55432e-05
0.0151416
-1.21026e-05
0.0151328
-9.3329e-06
0.0151261
-7.12947e-06
0.0151211
-5.39643e-06
0.0151173
-4.04859e-06
0.0151144
-3.01036e-06
0.0151124
-2.21982e-06
0.0151108
-1.63536e-06
-1.11805e-06
0.0169767
0.0168317
0.0166963
0.0165718
0.016459
0.0163582
0.0162695
0.0161926
0.0161267
0.0160712
0.0160249
0.0159868
0.0159558
0.015931
0.0159112
0.0158956
0.0158835
0.0158742
0.0158671
0.0158617
0.0158576
0.0158546
0.0158524
0.0158508
)
;

boundaryField
{
    inlet
    {
        type            calculated;
        value           nonuniform 0();
    }
    outlet
    {
        type            calculated;
        value           nonuniform List<scalar> 
26
(
0.00479633
0.00503121
0.00527759
0.00553604
0.00580715
0.00609154
0.00638986
0.00670279
0.00703105
0.00737539
0.0077366
0.00811549
0.00851295
0.00892988
0.00936722
0.00982599
0.0103072
0.010812
0.0113416
0.011897
0.0124797
0.0130908
0.0137319
0.0144044
0.0151098
0.0158497
)
;
    }
    cylinder
    {
        type            calculated;
        value           nonuniform 0();
    }
    top
    {
        type            symmetryPlane;
        value           uniform 0;
    }
    bottom
    {
        type            symmetryPlane;
        value           nonuniform 0();
    }
    defaultFaces
    {
        type            empty;
        value           nonuniform 0();
    }
    procBoundary15to11
    {
        type            processor;
        value           nonuniform List<scalar> 
27
(
7.49438e-05
5.67806e-05
4.27446e-05
3.18292e-05
2.37164e-05
1.71604e-05
1.3105e-05
8.41216e-06
0.00218401
0.00202946
0.0018562
0.00167064
0.0014797
0.00129014
0.00110796
0.000937957
0.000783473
0.000646396
0.000527312
0.000425769
0.000340581
0.000270112
0.000212523
0.00016595
0.000128638
-0.00479376
9.89827e-05
)
;
    }
    procBoundary15to14
    {
        type            processor;
        value           nonuniform List<scalar> 
26
(
-0.00509349
-0.00536801
-0.00565756
-0.00596282
-0.0062845
-0.00662329
-0.00697989
-0.00735499
-0.00774926
-0.00816339
-0.00859804
-0.0090539
-0.00953167
-0.0100321
-0.0105558
-0.0111038
-0.0116768
-0.0122758
-0.0129019
-0.0135561
-0.0142395
-0.0149535
-0.015699
-0.0164774
-0.000159515
-0.0171299
)
;
    }
}


// ************************************************************************* //
