/*--------------------------------*- C++ -*----------------------------------*\
  =========                 |
  \\      /  F ield         | OpenFOAM: The Open Source CFD Toolbox
   \\    /   O peration     | Website:  https://openfoam.org
    \\  /    A nd           | Version:  7
     \\/     M anipulation  |
\*---------------------------------------------------------------------------*/
FoamFile
{
    version     2.0;
    format      ascii;
    class       surfaceScalarField;
    location    "10";
    object      phi;
}
// * * * * * * * * * * * * * * * * * * * * * * * * * * * * * * * * * * * * * //

dimensions      [0 3 -1 0 0 0 0];

internalField   nonuniform List<scalar> 
5143
(
0.00447799
-3.99311e-05
0.00451857
-4.04413e-05
0.00455968
-4.09729e-05
0.00460135
-4.15239e-05
0.00464358
-4.20918e-05
0.0046864
-4.26734e-05
0.0047298
-4.3265e-05
0.00477381
-4.38623e-05
0.00481841
-4.44604e-05
0.0048636
-4.50535e-05
0.00490937
-4.56354e-05
0.0049557
-4.6199e-05
0.00500256
-4.67365e-05
0.00504992
-4.72396e-05
0.00509773
-4.7699e-05
0.00514594
-4.81053e-05
0.00519449
-4.8448e-05
0.00524329
-4.87166e-05
0.00529227
-4.89e-05
0.00534133
-4.89871e-05
0.00539035
-4.89667e-05
0.00543923
-4.88278e-05
0.00548782
-4.85598e-05
0.00553599
-4.81528e-05
0.0055836
-4.75977e-05
0.00563048
-4.68869e-05
0.00567647
-4.60139e-05
0.00572141
-4.49743e-05
0.00576513
-4.37657e-05
0.00580745
-4.23881e-05
0.00584822
-4.08438e-05
0.00588727
-3.91381e-05
0.00592445
-3.72793e-05
0.00595962
-3.52782e-05
0.00599265
-3.31487e-05
0.00602343
-3.09074e-05
0.00605187
-2.85731e-05
0.0060779
-2.61668e-05
0.00610146
-2.37109e-05
0.00612254
-2.12291e-05
0.00614114
-1.8745e-05
0.00615727
-1.62823e-05
0.00617098
-1.38634e-05
0.00618234
-1.15092e-05
0.00619143
-9.23857e-06
0.00619836
-7.06738e-06
0.00620322
-5.00861e-06
0.00620616
-3.07203e-06
0.0062073
-1.26384e-06
0.00620676
4.12314e-07
0.00620468
1.9575e-06
1.18323e-07
0.0062012
3.37141e-06
1.12416e-07
0.00619643
4.66581e-06
1.06397e-07
0.0061905
5.83113e-06
1.00441e-07
0.00618349
6.91424e-06
9.43407e-08
0.00617556
7.83389e-06
8.86792e-08
8.82146e-06
8.21195e-08
0.00448655
-7.97323e-05
0.00452687
-8.07546e-05
0.00456771
-8.18196e-05
0.00460911
-8.29229e-05
0.00465108
-8.40593e-05
0.00469363
-8.52226e-05
0.00473677
-8.64053e-05
0.00478051
-8.75989e-05
0.00482484
-8.87933e-05
0.00486976
-8.99773e-05
0.00491527
-9.11382e-05
0.00496133
-9.22619e-05
0.00500793
-9.33329e-05
0.00505502
-9.43343e-05
0.00510257
-9.52481e-05
0.00515052
-9.60549e-05
0.00519881
-9.67342e-05
0.00524735
-9.72647e-05
0.00529608
-9.76247e-05
0.00534488
-9.77917e-05
0.00539366
-9.77435e-05
0.00544229
-9.74583e-05
0.00549065
-9.69149e-05
0.00553859
-9.60936e-05
0.00558597
-9.49765e-05
0.00563263
-9.35481e-05
0.00567841
-9.1796e-05
0.00572315
-8.97113e-05
0.00576667
-8.72893e-05
0.00580881
-8.45299e-05
0.00584941
-8.14383e-05
0.00588829
-7.80251e-05
0.00592532
-7.43066e-05
0.00596035
-7.03047e-05
0.00599325
-6.60474e-05
0.00602391
-6.15676e-05
0.00605224
-5.69031e-05
0.00607816
-5.20959e-05
0.00610164
-4.71908e-05
0.00612265
-4.22347e-05
0.00614118
-3.72752e-05
0.00615726
-3.23593e-05
0.00617093
-2.75318e-05
0.00618225
-2.28345e-05
0.00619132
-1.83045e-05
0.00619822
-1.39738e-05
0.00620308
-9.86798e-06
0.00620602
-6.00663e-06
0.00620716
-2.4019e-06
0.00620663
9.38958e-07
0.00620457
4.0182e-06
0.0062011
6.83527e-06
0.00619636
9.4137e-06
0.00619045
1.17345e-05
0.00618348
1.3891e-05
0.00617559
1.57216e-05
1.7687e-05
0.00450358
-0.000119006
0.00454336
-0.00012054
0.00458368
-0.000122138
0.00462455
-0.000123793
0.00466599
-0.000125498
0.00470801
-0.000127242
0.00475062
-0.000129016
0.00479383
-0.000130805
0.00483763
-0.000132596
0.00488202
-0.000134371
0.00492699
-0.000136111
0.00497253
-0.000137796
0.0050186
-0.000139401
0.00506516
-0.000140903
0.00511219
-0.000142273
0.00515962
-0.000143484
0.00520739
-0.000144503
0.00525542
-0.000145301
0.00530364
-0.000145843
0.00535195
-0.000146097
0.00540023
-0.000146029
0.00544838
-0.000145606
0.00549626
-0.000144797
0.00554374
-0.000143573
0.00559067
-0.000141907
0.0056369
-0.000139775
0.00568226
-0.000137159
0.0057266
-0.000134045
0.00576973
-0.000130427
0.00581151
-0.000126305
0.00585176
-0.000121686
0.00589032
-0.000116586
0.00592704
-0.000111029
0.00596178
-0.000105048
0.00599442
-9.86852e-05
0.00602484
-9.19895e-05
0.00605296
-8.50175e-05
0.00607869
-7.78319e-05
0.006102
-7.04999e-05
0.00612286
-6.30915e-05
0.00614126
-5.5678e-05
0.00615723
-4.83294e-05
0.00617081
-4.1113e-05
0.00618207
-3.40911e-05
0.00619108
-2.73195e-05
0.00619796
-2.08457e-05
0.0062028
-1.47083e-05
0.00620573
-8.93626e-06
0.00620687
-3.54799e-06
0.00620637
1.44581e-06
0.00620434
6.04839e-06
0.00620091
1.0259e-05
0.00619621
1.41127e-05
0.00619037
1.75812e-05
0.00618345
2.08041e-05
0.00617563
2.35396e-05
2.64764e-05
0.00452884
-0.000157497
0.00456784
-0.000159543
0.00460738
-0.000161674
0.00464746
-0.00016388
0.00468812
-0.000166152
0.00472935
-0.000168476
0.00477117
-0.00017084
0.00481359
-0.000173225
0.00485661
-0.000175611
0.00490022
-0.000177977
0.0049444
-0.000180297
0.00498915
-0.000182544
0.00503444
-0.000184686
0.00508022
-0.00018669
0.00512647
-0.000188521
0.00517313
-0.000190139
0.00522013
-0.000191505
0.0052674
-0.000192576
0.00531487
-0.000193309
0.00536243
-0.000193659
0.00540999
-0.000193583
0.00545742
-0.000193036
0.0055046
-0.000191978
0.00555139
-0.000190368
0.00559765
-0.00018817
0.00564324
-0.000185356
0.00568797
-0.000181898
0.00573171
-0.000177781
0.00577428
-0.000172993
0.00581551
-0.000167535
0.00585524
-0.000161418
0.00589331
-0.000154661
0.00592958
-0.000147297
0.0059639
-0.00013937
0.00599615
-0.000130935
0.00602622
-0.000122057
0.00605402
-0.000112811
0.00607946
-0.000103281
0.00610252
-9.35554e-05
0.00612316
-8.37274e-05
0.00614137
-7.38914e-05
0.00615718
-6.41408e-05
0.00617063
-5.45649e-05
0.00618179
-4.52464e-05
0.00619073
-3.62593e-05
0.00619755
-2.76671e-05
0.00620236
-1.95208e-05
0.00620528
-1.18593e-05
0.00620644
-4.70673e-06
0.00620597
1.92236e-06
0.00620398
8.03237e-06
0.00620062
1.36221e-05
0.00619599
1.87382e-05
0.00619023
2.33428e-05
0.00618342
2.76214e-05
0.0061757
3.12527e-05
3.51515e-05
0.00456202
-0.000194962
0.0046
-0.000197519
0.00463851
-0.000200181
0.00467756
-0.000202937
0.00471719
-0.000205775
0.00475739
-0.000208679
0.00479818
-0.000211632
0.00483957
-0.000214611
0.00488155
-0.000217593
0.00492412
-0.00022055
0.00496727
-0.00022345
0.00501099
-0.00022626
0.00505525
-0.000228941
0.00510001
-0.000231451
0.00514523
-0.000233746
0.00519087
-0.000235778
0.00523686
-0.000237498
0.00528314
-0.000238852
0.00532962
-0.000239786
0.0053762
-0.000240246
0.0054228
-0.000240177
0.00546928
-0.000239523
0.00551554
-0.000238234
0.00556143
-0.00023626
0.00560682
-0.000233558
0.00565155
-0.000230087
0.00569547
-0.000225818
0.00573842
-0.000220728
0.00578023
-0.000214805
0.00582074
-0.000208049
0.0058598
-0.000200471
0.00589723
-0.000192098
0.00593291
-0.000182969
0.00596667
-0.000173138
0.00599841
-0.000162675
0.00602801
-0.000151659
0.00605539
-0.000140184
0.00608046
-0.000128353
0.00610318
-0.000116277
0.00612353
-0.000104073
0.00614149
-9.18562e-05
0.00615709
-7.9744e-05
0.00617038
-6.78472e-05
0.0061814
-5.62689e-05
0.00619024
-4.51011e-05
0.006197
-3.44229e-05
0.00620177
-2.42981e-05
0.00620469
-1.47748e-05
0.00620587
-5.88353e-06
0.00620543
2.35758e-06
0.00620351
9.9539e-06
0.00620023
1.69036e-05
0.0061957
2.3265e-05
0.00619005
2.89902e-05
0.00618336
3.43107e-05
0.00617579
3.88257e-05
4.36738e-05
0.00460272
-0.000231169
0.00463943
-0.000234236
0.00467668
-0.000237428
0.00471448
-0.000240733
0.00475284
-0.000244136
0.00479178
-0.000247618
0.0048313
-0.000251158
0.00487142
-0.000254731
0.00491214
-0.000258307
0.00495344
-0.000261855
0.00499533
-0.000265336
0.00503778
-0.000268711
0.00508077
-0.000271932
0.00512427
-0.000274952
0.00516824
-0.000277717
0.00521264
-0.00028017
0.00525739
-0.000282252
0.00530244
-0.0002839
0.0053477
-0.000285049
0.00539309
-0.000285635
0.0054385
-0.00028559
0.00548383
-0.000284852
0.00552895
-0.000283356
0.00557374
-0.000281046
0.00561805
-0.000277868
0.00566174
-0.000273775
0.00570465
-0.00026873
0.00574663
-0.000262707
0.00578751
-0.000255691
0.00582715
-0.00024768
0.00586537
-0.00023869
0.00590202
-0.000228749
0.00593695
-0.000217907
0.00597004
-0.000206226
0.00600115
-0.000193787
0.00603018
-0.000180687
0.00605704
-0.000167038
0.00608165
-0.000152962
0.00610396
-0.00013859
0.00612395
-0.000124062
0.00614161
-0.000109516
0.00615696
-9.50922e-05
0.00617003
-8.09223e-05
0.00618089
-6.71295e-05
0.00618961
-5.38239e-05
0.00619629
-4.10999e-05
0.00620103
-2.90337e-05
0.00620393
-1.76831e-05
0.00620514
-7.08474e-06
0.00620475
2.73958e-06
0.00620291
1.17961e-05
0.00619973
2.00823e-05
0.00619533
2.76676e-05
0.00618983
3.44945e-05
0.0061833
4.08393e-05
0.0061759
4.62232e-05
5.2005e-05
0.00465041
-0.000265905
0.00468566
-0.000269481
0.00472143
-0.000273202
0.00475775
-0.000277053
0.00479464
-0.000281019
0.00483209
-0.000285076
0.00487014
-0.000289202
0.00490877
-0.000293367
0.004948
-0.000297537
0.00498782
-0.000301674
0.00502822
-0.000305737
0.00506919
-0.000309677
0.0051107
-0.000313443
0.00515272
-0.000316976
0.00519522
-0.000320217
0.00523815
-0.000323099
0.00528145
-0.000325554
0.00532506
-0.000327508
0.0053689
-0.000328888
0.00541288
-0.000329617
0.00545691
-0.000329619
0.00550088
-0.000328819
0.00554467
-0.000327146
0.00558815
-0.000324531
0.0056312
-0.000320912
0.00567366
-0.000316236
0.00571539
-0.000310458
0.00575623
-0.000303548
0.00579603
-0.000295488
0.00583462
-0.000286276
0.00587186
-0.000275928
0.00590759
-0.000264479
0.00594166
-0.000251982
0.00597395
-0.000238512
0.00600432
-0.000224162
0.00603268
-0.000209043
0.00605893
-0.000193283
0.00608299
-0.000177026
0.00610482
-0.000160422
0.00612439
-0.000143632
0.00614169
-0.000126819
0.00615674
-0.000110142
0.00616958
-9.37552e-05
0.00618025
-7.78017e-05
0.00618883
-6.24089e-05
0.00619542
-4.76865e-05
0.00620011
-3.37231e-05
0.00620301
-2.0586e-05
0.00620425
-8.31792e-06
0.00620393
3.0555e-06
0.00620219
1.35413e-05
0.00619913
2.31359e-05
0.00619488
3.192e-05
0.00618955
3.98259e-05
0.00618321
4.71745e-05
0.00617603
5.34095e-05
6.01064e-05
0.00470453
-0.000298974
0.00473811
-0.000303058
0.00477221
-0.000307305
0.00480686
-0.000311701
0.00484207
-0.000316226
0.00487785
-0.000320857
0.00491421
-0.000325566
0.00495116
-0.00033032
0.00498871
-0.000335082
0.00502684
-0.000339809
0.00506556
-0.000344452
0.00510484
-0.00034896
0.00514467
-0.000353272
0.00518502
-0.000357324
0.00522585
-0.000361046
0.00526711
-0.000364366
0.00530876
-0.000367204
0.00535074
-0.000369479
0.00539295
-0.000371106
0.00543534
-0.000371999
0.00547779
-0.000372072
0.00552021
-0.00037124
0.00556248
-0.00036942
0.00560449
-0.000366536
0.00564609
-0.000362517
0.00568716
-0.000357301
0.00572754
-0.000350839
0.00576709
-0.000343094
0.00580564
-0.000334045
0.00584306
-0.000323691
0.00587918
-0.000312049
0.00591386
-0.000299157
0.00594695
-0.000285075
0.00597833
-0.000269887
0.00600786
-0.000253697
0.00603545
-0.000236632
0.006061
-0.000218836
0.00608445
-0.00020047
0.00610573
-0.000181707
0.00612483
-0.000162728
0.00614173
-0.000143716
0.00615644
-0.000124853
0.006169
-0.000106315
0.00617946
-8.82619e-05
0.00618789
-7.08399e-05
0.00619438
-5.41736e-05
0.00619902
-3.83636e-05
0.00620192
-2.34869e-05
0.00620319
-9.59196e-06
0.00620296
3.29132e-06
0.00620133
1.51708e-05
0.00619842
2.60416e-05
0.00619434
3.59955e-05
0.00618922
4.49543e-05
0.00618311
5.32829e-05
0.00617617
6.03485e-05
6.79392e-05
0.00476441
-0.000330204
0.00479615
-0.000334792
0.00482841
-0.000339563
0.0048612
-0.0003445
0.00489456
-0.000349582
0.00492849
-0.000354783
0.00496299
-0.000360071
0.00499809
-0.000365412
0.00503377
-0.000370764
0.00507004
-0.000376078
0.00510689
-0.000381303
0.00514431
-0.000386378
0.00518227
-0.000391239
0.00522076
-0.000395814
0.00525974
-0.000400025
0.00529917
-0.000403792
0.00533899
-0.000407026
0.00537915
-0.000409636
0.00541957
-0.000411529
0.00546018
-0.000412608
0.00550088
-0.000412778
0.00554159
-0.000411944
0.00558218
-0.000410012
0.00562254
-0.000406898
0.00566255
-0.000402522
0.00570206
-0.000396816
0.00574095
-0.000389722
0.00577905
-0.0003812
0.00581623
-0.000371226
0.00585234
-0.000359796
0.00588722
-0.00034693
0.00592073
-0.000332667
0.00595273
-0.000317077
0.00598309
-0.000300249
0.0060117
-0.0002823
0.00603843
-0.00026337
0.00606322
-0.00024362
0.00608597
-0.000223228
0.00610665
-0.000202387
0.00612522
-0.000181297
0.00614167
-0.000160165
0.00615601
-0.000139192
0.00616827
-0.000118573
0.0061785
-9.849e-05
0.00618676
-7.91039e-05
0.00619314
-6.05546e-05
0.00619773
-4.29548e-05
0.00620064
-2.63909e-05
0.00620196
-1.09174e-05
0.00620182
3.43176e-06
0.00620033
1.66649e-05
0.00619759
2.87757e-05
0.00619372
3.98668e-05
0.00618883
4.98491e-05
0.00618298
5.91309e-05
0.00617633
6.7004e-05
7.54644e-05
0.00482934
-0.000359444
0.00485909
-0.000364534
0.00488935
-0.000369825
0.00492015
-0.0003753
0.0049515
-0.000380934
0.00498342
-0.0003867
0.00501591
-0.000392564
0.00504899
-0.000398488
0.00508265
-0.000404426
0.0051169
-0.000410326
0.00515172
-0.00041613
0.00518712
-0.000421774
0.00522307
-0.000427186
0.00525954
-0.000432287
0.00529651
-0.000436995
0.00533393
-0.000441217
0.00537177
-0.000444859
0.00540995
-0.000447821
0.00544842
-0.000449999
0.0054871
-0.000451289
0.00552591
-0.000451584
0.00556475
-0.000450779
0.00560351
-0.000448774
0.00564208
-0.000445473
0.00568035
-0.000440788
0.00571818
-0.000434643
0.00575543
-0.000426976
0.00579197
-0.000417739
0.00582765
-0.000406907
0.00586232
-0.000394473
0.00589585
-0.000380458
0.00592809
-0.000364906
0.0059589
-0.000347889
0.00598816
-0.000329507
0.00601575
-0.000309887
0.00604156
-0.000289182
0.00606551
-0.000267567
0.00608752
-0.000245238
0.00610754
-0.000222408
0.00612554
-0.000199296
0.0061415
-0.000176128
0.00615544
-0.000153127
0.00616737
-0.000130508
0.00617735
-0.00010847
0.00618544
-8.7191e-05
0.00619171
-6.68257e-05
0.00619625
-4.74986e-05
0.00619917
-2.93052e-05
0.00620055
-1.23063e-05
0.00620053
3.46005e-06
0.00619919
1.80028e-05
0.00619665
3.13135e-05
0.00619301
4.35056e-05
0.00618838
5.44789e-05
0.00618283
6.46844e-05
0.00617649
7.33392e-05
8.26426e-05
0.00489857
-0.000386569
0.00492619
-0.000392157
0.00495433
-0.000397964
0.004983
-0.00040397
0.00501222
-0.000410152
0.005042
-0.000416478
0.00507235
-0.000422914
0.00510327
-0.000429416
0.00513478
-0.000435936
0.00516688
-0.000442419
0.00519955
-0.000448801
0.00523279
-0.000455013
0.00526658
-0.000460977
0.0053009
-0.000466609
0.00533572
-0.000471818
0.00537101
-0.000476506
0.00540672
-0.000480569
0.0054428
-0.000483898
0.00547918
-0.000486383
0.0055158
-0.000487907
0.00555257
-0.000488356
0.00558941
-0.000487616
0.00562621
-0.000485577
0.00566287
-0.000482133
0.00569927
-0.000477189
0.00573529
-0.000470662
0.0057708
-0.000462482
0.00580566
-0.000452598
0.00583973
-0.000440979
0.00587288
-0.000427619
0.00590495
-0.000412537
0.00593583
-0.00039578
0.00596537
-0.000377426
0.00599344
-0.000357582
0.00601994
-0.000336385
0.00604476
-0.000314
0.00606781
-0.000290617
0.00608902
-0.000266449
0.00610834
-0.000241725
0.00612573
-0.000216685
0.00614117
-0.000191574
0.00615468
-0.000166634
0.00616627
-0.0001421
0.00617599
-0.000118189
0.00618389
-9.50947e-05
0.00619005
-7.29862e-05
0.00619456
-5.19995e-05
0.00619749
-3.22395e-05
0.00619896
-1.37728e-05
0.00619906
3.3579e-06
0.0061979
1.91621e-05
0.00619558
3.36293e-05
0.00619221
4.68831e-05
0.00618787
5.88119e-05
0.00618265
6.99086e-05
0.00617667
7.93171e-05
8.94344e-05
0.00497129
-0.00041148
0.00499669
-0.00041756
0.0050226
-0.000423877
0.00504904
-0.00043041
0.00507603
-0.000437133
0.00510356
-0.000444013
0.00513166
-0.000451013
0.00516033
-0.000458088
0.00518958
-0.000465186
0.00521941
-0.000472247
0.00524981
-0.000479204
0.00528078
-0.000485983
0.00531231
-0.0004925
0.00534436
-0.000498666
0.00537693
-0.000504383
0.00540997
-0.000509545
0.00544344
-0.000514041
0.00547729
-0.000517755
0.00551148
-0.000520566
0.00554592
-0.00052235
0.00558055
-0.000522984
0.00561528
-0.000522344
0.00565001
-0.000520311
0.00568465
-0.000516772
0.00571908
-0.000511622
0.00575319
-0.000504771
0.00578685
-0.000496143
0.00581994
-0.000485682
0.00585231
-0.000473353
0.00588384
-0.000459147
0.00591438
-0.000443084
0.00594382
-0.000425213
0.00597201
-0.000405616
0.00599883
-0.000384408
0.00602418
-0.000361734
0.00604795
-0.00033777
0.00607005
-0.000312722
0.00609042
-0.000286817
0.006109
-0.000260301
0.00612575
-0.000233433
0.00614065
-0.000206477
0.00615371
-0.000179694
0.00616495
-0.000153337
0.0061744
-0.000127639
0.00618211
-0.000102813
0.00618817
-7.90386e-05
0.00619263
-5.64649e-05
0.0061956
-3.52055e-05
0.00619716
-1.53331e-05
0.00619741
3.10535e-06
0.00619645
2.01195e-05
0.00619439
3.5696e-05
0.0061913
4.99692e-05
0.0061873
6.28152e-05
0.00618244
7.47683e-05
0.00617685
8.49001e-05
9.57999e-05
0.00504669
0.0050698
-0.000440669
0.00509341
-0.00044749
0.00511754
-0.000454542
0.00514221
-0.000461798
0.00516742
-0.000469225
0.00519319
-0.000476783
0.00521952
-0.000484423
0.00524643
-0.000492092
0.00527391
-0.000499726
0.00530196
-0.000507254
0.00533057
-0.000514598
0.00535974
-0.000521668
0.00538945
-0.00052837
0.00541966
-0.000534599
0.00545036
-0.000540244
0.00548151
-0.000545186
0.00551305
-0.0005493
0.00554495
-0.000552458
0.00557712
-0.000554528
0.00560952
-0.000555377
0.00564205
-0.000554874
0.00567462
-0.000552889
0.00570716
-0.000549302
0.00573953
-0.000544001
0.00577165
-0.000536887
0.00580339
-0.000527879
0.00583462
-0.000516913
0.00586522
-0.000503952
0.00589505
-0.000488984
0.005924
-0.00047203
0.00595193
-0.00045314
0.00597871
-0.000432399
0.00600423
-0.000409928
0.00602838
-0.000385882
0.00605105
-0.000360447
0.00607217
-0.000333841
0.00609166
-0.000306306
0.00610947
-0.000278106
0.00612555
-0.000249516
0.00613989
-0.000220818
0.00615249
-0.000192293
0.00616336
-0.000164209
0.00617254
-0.000136818
0.00618007
-0.000110346
0.00618603
-8.49888e-05
0.00619047
-6.0905e-05
0.00619348
-3.82176e-05
0.00619515
-1.70051e-05
0.00619557
2.68069e-06
0.00619484
2.08498e-05
0.00619305
3.74858e-05
0.00619029
5.27332e-05
0.00618665
6.64554e-05
0.00618219
7.92277e-05
0.00617704
9.00502e-05
0.000101699
0.00514471
-0.000461436
0.00516597
-0.000468752
0.00518774
-0.000476315
0.00521004
-0.000484096
0.00523288
-0.000492061
0.00525626
-0.000500167
0.0052802
-0.000508365
0.00530471
-0.000516597
0.00532978
-0.000524797
0.00535542
-0.000532892
0.00538162
-0.000540796
0.00540837
-0.000548419
0.00543565
-0.000555658
0.00546346
-0.000562404
0.00549175
-0.000568538
0.0055205
-0.000573937
0.00554967
-0.000578467
0.00557921
-0.000581992
0.00560905
-0.000584373
0.00563914
-0.000585468
0.00566941
-0.000585138
0.00569976
-0.000583245
0.00573012
-0.000579659
0.00576038
-0.000574262
0.00579044
-0.000566947
0.00582018
-0.000557625
0.0058495
-0.00054623
0.00587827
-0.000532718
0.00590636
-0.000517077
0.00593365
-0.000499324
0.00596003
-0.000479512
0.00598536
-0.000457729
0.00600953
-0.000434101
0.00603244
-0.000408791
0.00605399
-0.000381995
0.00607409
-0.000353944
0.00609268
-0.000324892
0.00610969
-0.000295119
0.00612509
-0.000264918
0.00613886
-0.000234586
0.00615099
-0.000204423
0.0061615
-0.000174713
0.0061704
-0.000145725
0.00617776
-0.0001177
0.00618361
-9.08462e-05
0.00618804
-6.5333e-05
0.00619112
-4.12926e-05
0.00619292
-1.88091e-05
0.00619354
2.06046e-06
0.00619306
2.13267e-05
0.00619158
3.89693e-05
0.00618917
5.51433e-05
0.00618593
6.96984e-05
0.00618191
8.32505e-05
0.00617723
9.4729e-05
0.000107091
0.00522063
-0.000479838
0.00523952
-0.00048764
0.00525891
-0.000495704
0.00527881
-0.000504
0.00529924
-0.000512492
0.00532021
-0.000521137
0.00534173
-0.000529882
0.0053638
-0.000538668
0.00538643
-0.000547427
0.00540962
-0.000556081
0.00543336
-0.000564542
0.00545766
-0.000572713
0.00548249
-0.000580489
0.00550784
-0.000587755
0.00553369
-0.000594386
0.00556
-0.000600251
0.00558675
-0.000605211
0.00561388
-0.000609124
0.00564134
-0.00061184
0.00566909
-0.000613212
0.00569704
-0.00061309
0.00572513
-0.000611331
0.00575326
-0.000607796
0.00578136
-0.000602358
0.00580932
-0.000594905
0.00583703
-0.00058534
0.00586439
-0.000573591
0.00589129
-0.000559612
0.0059176
-0.000543385
0.0059432
-0.000524928
0.00596798
-0.000504294
0.00599183
-0.000481574
0.00601462
-0.000456898
0.00603627
-0.000430436
0.00605667
-0.000402393
0.00607573
-0.000373011
0.0060934
-0.000342559
0.00610961
-0.000311329
0.00612432
-0.000279629
0.00613751
-0.000247776
0.00614917
-0.000216083
0.00615931
-0.000184852
0.00616795
-0.000154368
0.00617514
-0.000124885
0.00618091
-9.66238e-05
0.00618535
-6.97652e-05
0.0061885
-4.445e-05
0.00619046
-2.07677e-05
0.0061913
1.21933e-06
0.00619111
2.15222e-05
0.00618996
4.01161e-05
0.00618794
5.71667e-05
0.00618513
7.25091e-05
0.00618158
8.67997e-05
0.00617741
9.88976e-05
0.000111936
0.00529677
-0.000495878
0.00531328
-0.000504156
0.00533029
-0.000512709
0.0053478
-0.000521508
0.00536582
-0.000530516
0.00538437
-0.000539687
0.00540346
-0.000548968
0.00542309
-0.000558298
0.00544327
-0.000567606
0.00546399
-0.000576811
0.00548527
-0.000585821
0.0055071
-0.000594537
0.00552946
-0.000602849
0.00555234
-0.000610635
0.00557572
-0.000617768
0.00559958
-0.000624109
0.00562388
-0.000629513
0.00564859
-0.00063383
0.00567365
-0.000636906
0.00569902
-0.000638584
0.00572464
-0.000638707
0.00575043
-0.000637123
0.00577632
-0.000633688
0.00580223
-0.000628265
0.00582806
-0.000620735
0.00585372
-0.000610997
0.0058791
-0.000598972
0.0059041
-0.000584608
0.0059286
-0.000567886
0.00595249
-0.000548821
0.00597566
-0.000527466
0.005998
-0.000503915
0.00601941
-0.000478301
0.00603977
-0.000450801
0.006059
-0.000421628
0.00607703
-0.000391033
0.00609377
-0.000359298
0.00610917
-0.000326729
0.00612319
-0.000293649
0.0061358
-0.000260389
0.00614699
-0.000227278
0.00615678
-0.000194634
0.00616516
-0.000162756
0.00617219
-0.000131913
0.00617791
-0.000102338
0.00618236
-7.42209e-05
0.00618562
-4.77118e-05
0.00618776
-2.29054e-05
0.00618885
1.30255e-07
0.00618897
2.14067e-05
0.00618819
4.08943e-05
0.00618659
5.87696e-05
0.00618424
7.48517e-05
0.00618121
8.98378e-05
0.00617759
0.000102517
0.000116193
0.00537236
-0.000509585
0.00538653
-0.000518325
0.00540118
-0.000527355
0.00541631
-0.000536643
0.00543195
-0.000546152
0.0054481
-0.000555836
0.00546477
-0.000565641
0.00548198
-0.000575503
0.00549972
-0.000585348
0.005518
-0.000595093
0.00553682
-0.000604646
0.00555619
-0.000613901
0.00557608
-0.000622744
0.0055965
-0.000631051
0.00561742
-0.000638688
0.00563882
-0.000645512
0.00566068
-0.000651373
0.00568296
-0.000656112
0.00570563
-0.000659569
0.00572862
-0.00066158
0.0057519
-0.000661983
0.00577539
-0.000660616
0.00579903
-0.000657327
0.00582274
-0.000651975
0.00584644
-0.000644432
0.00587003
-0.000634589
0.00589342
-0.000622364
0.00591651
-0.000607699
0.0059392
-0.000590572
0.00596137
-0.000570995
0.00598293
-0.000549022
0.00600376
-0.000524746
0.00602377
-0.000498307
0.00604285
-0.000469883
0.00606092
-0.000439698
0.0060779
-0.00040801
0.00609371
-0.000375113
0.00610831
-0.000341325
0.00612164
-0.000306983
0.00613369
-0.000272433
0.00614443
-0.000238018
0.00615386
-0.000204071
0.00616201
-0.000170906
0.0061689
-0.000138803
0.00617457
-0.000108009
0.00617908
-7.87227e-05
0.00618247
-5.11026e-05
0.00618481
-2.52492e-05
0.00618618
-1.23604e-06
0.00618663
2.09494e-05
0.00618626
4.12712e-05
0.00618511
5.99173e-05
0.00618327
7.66896e-05
0.00618078
9.23265e-05
0.00617775
0.000105546
0.00011982
0.00544668
-0.000521008
0.00545855
-0.000530196
0.00547088
-0.000539687
0.00548369
-0.00054945
0.00549698
-0.000559446
0.00551078
-0.000569628
0.00552507
-0.000579941
0.00553989
-0.00059032
0.00555523
-0.000600689
0.0055711
-0.000610964
0.00558751
-0.000621048
0.00560444
-0.000630834
0.0056219
-0.000640204
0.00563988
-0.00064903
0.00565836
-0.000657173
0.00567734
-0.000664486
0.00569678
-0.000670812
0.00571665
-0.000675989
0.00573693
-0.000679848
0.00575757
-0.00068222
0.00577852
-0.000682934
0.00579973
-0.000681824
0.00582113
-0.000678729
0.00584266
-0.0006735
0.00586423
-0.000666004
0.00588577
-0.000656126
0.00590718
-0.000643776
0.00592837
-0.000628893
0.00594925
-0.00061145
0.00596971
-0.000591458
0.00598966
-0.000568968
0.00600899
-0.000544076
0.0060276
-0.000516922
0.00604541
-0.000487691
0.00606233
-0.000456612
0.00607827
-0.000423952
0.00609317
-0.000390014
0.00610697
-0.000355129
0.00611964
-0.000319646
0.00613113
-0.000283923
0.00614143
-0.00024832
0.00615054
-0.000213182
0.00615847
-0.000178837
0.00616524
-0.000145577
0.0061709
-0.00011366
0.00617547
-8.32957e-05
0.00617902
-5.46498e-05
0.00618159
-2.7828e-05
0.00618327
-2.91001e-06
0.0061841
2.01177e-05
0.00618416
4.12124e-05
0.0061835
6.0574e-05
0.00618221
7.79855e-05
0.00618031
9.42272e-05
0.00617791
0.000107946
0.000122776
0.00551902
-0.000530219
0.00552867
-0.00053984
0.00553876
-0.000549776
0.0055493
-0.000559996
0.00556032
-0.000570461
0.00557181
-0.000581124
0.0055838
-0.000591928
0.00559629
-0.000602808
0.00560929
-0.000613687
0.0056228
-0.000624477
0.00563683
-0.000635081
0.00565139
-0.000645389
0.00566646
-0.000655279
0.00568205
-0.000664619
0.00569815
-0.000673269
0.00571473
-0.000681074
0.0057318
-0.000687874
0.00574931
-0.000693501
0.00576724
-0.000697781
0.00578556
-0.000700538
0.00580422
-0.000701595
0.00582318
-0.000700779
0.00584237
-0.000697922
0.00586174
-0.00069287
0.00588121
-0.00068548
0.00590072
-0.000675633
0.00592018
-0.000663233
0.0059395
-0.000648214
0.00595859
-0.000630544
0.00597737
-0.000610231
0.00599572
-0.000587326
0.00601357
-0.000561924
0.00603082
-0.000534167
0.00604737
-0.000504245
0.00606315
-0.00047239
0.00607807
-0.000438878
0.00609208
-0.000404021
0.00610511
-0.000368161
0.00611712
-0.000331657
0.00612808
-0.000294881
0.00613797
-0.000258206
0.00614678
-0.00022199
0.00615451
-0.000186573
0.0061612
-0.00015226
0.00616685
-0.000119319
0.00617153
-8.79685e-05
0.00617526
-5.83832e-05
0.00617811
-3.0673e-05
0.00618012
-4.92449e-06
0.00618136
1.88778e-05
0.00618189
4.06825e-05
0.00618176
6.07031e-05
0.00618105
7.87011e-05
0.00617977
9.55007e-05
0.00617804
0.000109675
0.000125019
0.00558874
0.00559625
-0.000547345
0.00560418
-0.000557708
0.00561255
-0.000568366
0.00562137
-0.000579282
0.00563066
-0.000590407
0.00564041
-0.000601684
0.00565065
-0.000613047
0.00566138
-0.000624419
0.00567261
-0.000635709
0.00568435
-0.000646819
0.0056966
-0.000657636
0.00570936
-0.000668037
0.00572263
-0.000677887
0.0057364
-0.000687039
0.00575066
-0.000695338
0.0057654
-0.000702618
0.00578061
-0.000708706
0.00579625
-0.000713424
0.0058123
-0.000716588
0.00582873
-0.000718018
0.00584548
-0.000717531
0.00586251
-0.000714956
0.00587977
-0.000710129
0.00589719
-0.000702904
0.00591471
-0.000693153
0.00593225
-0.000680775
0.00594974
-0.000665698
0.00596708
-0.000647888
0.0059842
-0.000627349
0.006001
-0.000604129
0.0060174
-0.000578322
0.00603331
-0.000550073
0.00604864
-0.000519573
0.00606331
-0.00048706
0.00607724
-0.000452816
0.00609039
-0.000417162
0.00610267
-0.000380447
0.00611406
-0.000343044
0.00612451
-0.000305335
0.00613401
-0.000267704
0.00614254
-0.000230524
0.00615012
-0.000194144
0.00615674
-0.000158882
0.00616243
-0.000125016
0.00616724
-9.27722e-05
0.00617119
-6.23347e-05
0.00617433
-3.38174e-05
0.00617672
-7.31371e-06
0.00617841
1.71941e-05
0.00617944
3.96451e-05
0.00617988
6.0267e-05
0.00617978
7.87977e-05
0.00617918
9.61072e-05
0.00617816
0.000110693
0.000126507
0.00566072
-0.00055282
0.0056666
-0.000563589
0.0056729
-0.000574665
0.00567962
-0.00058601
0.00568679
-0.000597577
0.00569442
-0.000609307
0.0057025
-0.000621134
0.00571106
-0.000632979
0.00572011
-0.000644752
0.00572964
-0.000656352
0.00573967
-0.000667665
0.0057502
-0.000678565
0.00576123
-0.000688915
0.00577275
-0.000698567
0.00578477
-0.000707359
0.00579728
-0.000715123
0.00581025
-0.000721681
0.00582368
-0.00072685
0.00583753
-0.000730442
0.00585179
-0.00073227
0.0058664
-0.000732146
0.00588134
-0.000729892
0.00589655
-0.000725339
0.00591198
-0.000718332
0.00592756
-0.00070874
0.00594324
-0.000696454
0.00595894
-0.000681398
0.00597459
-0.000663533
0.0059901
-0.000642858
0.00600539
-0.00061942
0.00602038
-0.000593313
0.00603498
-0.000564679
0.00604913
-0.000533715
0.00606273
-0.00050066
0.00607571
-0.000465804
0.00608802
-0.000429472
0.0060996
-0.000392024
0.0061104
-0.000353841
0.00612038
-0.000315318
0.00612952
-0.000276848
0.00613782
-0.000238815
0.00614525
-0.000201582
0.00615185
-0.000165475
0.00615762
-0.000130783
0.00616258
-9.77407e-05
0.00616679
-6.6539e-05
0.00617027
-3.72963e-05
0.00617307
-1.01134e-05
0.00617523
1.50301e-05
0.00617681
3.80624e-05
0.00617785
5.92274e-05
0.00617842
7.82358e-05
0.00617852
9.60063e-05
0.00617825
0.000110958
0.000127199
0.00572154
-0.000556387
0.00572549
-0.00056754
0.00572984
-0.000579012
0.00573459
-0.000590764
0.00573976
-0.00060275
0.00574537
-0.000614911
0.00575141
-0.00062718
0.00575791
-0.000639477
0.00576487
-0.000651714
0.00577231
-0.000663786
0.00578022
-0.000675579
0.00578862
-0.000686966
0.00579751
-0.000697806
0.0058069
-0.000707949
0.00581677
-0.000717232
0.00582713
-0.000725481
0.00583796
-0.000732515
0.00584926
-0.000738148
0.005861
-0.000742185
0.00587317
-0.000744435
0.00588572
-0.000744704
0.00589864
-0.000742809
0.00591187
-0.000738573
0.00592538
-0.000731838
0.0059391
-0.000722464
0.00595299
-0.000710337
0.00596697
-0.000695377
0.00598097
-0.000677537
0.00599493
-0.000656816
0.00600877
-0.000633256
0.0060224
-0.000606949
0.00603576
-0.000578038
0.00604876
-0.000546719
0.00606134
-0.000513237
0.00607342
-0.000477885
0.00608494
-0.000440994
0.00609585
-0.000402932
0.0061061
-0.000364089
0.00611565
-0.000324868
0.00612448
-0.000285675
0.00613256
-0.000246903
0.00613991
-0.000208925
0.00614651
-0.000172077
0.00615238
-0.000136659
0.00615755
-0.00010291
0.00616205
-7.10327e-05
0.0061659
-4.11466e-05
0.00616915
-1.33611e-05
0.00617183
1.2348e-05
0.00617399
3.58958e-05
0.00617568
5.75449e-05
0.00617694
7.6975e-05
0.00617779
9.51575e-05
0.00617832
0.000110427
0.000127052
0.00577824
-0.000558183
0.00578039
-0.000569697
0.00578292
-0.00058154
0.00578583
-0.000593676
0.00578914