/*--------------------------------*- C++ -*----------------------------------*\
  =========                 |
  \\      /  F ield         | OpenFOAM: The Open Source CFD Toolbox
   \\    /   O peration     | Website:  https://openfoam.org
    \\  /    A nd           | Version:  7
     \\/     M anipulation  |
\*---------------------------------------------------------------------------*/
FoamFile
{
    version     2.0;
    format      ascii;
    class       surfaceScalarField;
    location    "10";
    object      phi;
}
// * * * * * * * * * * * * * * * * * * * * * * * * * * * * * * * * * * * * * //

dimensions      [0 3 -1 0 0 0 0];

internalField   nonuniform List<scalar> 
5124
(
-1.32548e-05
-1.28747e-12
-4.82289e-05
-4.80487e-12
-0.000101905
-8.03223e-12
-0.000171554
-1.09205e-11
-0.000254793
-1.34931e-11
-0.000349535
-1.58388e-11
-1.8063e-11
-1.32548e-05
1.32548e-05
-4.82289e-05
3.49742e-05
-0.000101905
5.36763e-05
-0.000171554
6.96491e-05
-0.000254793
8.32389e-05
-0.000349535
9.47417e-05
-0.000453989
0.000104454
-0.000566644
0.000112655
-0.000686258
0.000119615
-0.000811842
0.000125583
-0.000942632
0.000130791
-0.00107807
0.000135442
-0.00121779
0.000139717
-0.00136156
0.000143764
-0.00150926
0.000147709
-0.00166091
0.00015165
-0.00181658
0.000155666
-0.00197639
0.000159814
-0.00214053
0.00016414
0.000168692
-0.00230923
-1.32373e-05
2.6492e-05
-4.81745e-05
6.99114e-05
-0.0001018
0.000107302
-0.00017139
0.000139239
-0.000254565
0.000166413
-0.00034924
0.000189417
-0.000453626
0.00020884
-0.000566215
0.000225244
-0.000685766
0.000239165
-0.000811287
0.000251104
-0.000942018
0.000261521
-0.0010774
0.000270827
-0.00121706
0.000279377
-0.00136077
0.000287473
-0.00150843
0.000295363
-0.00166002
0.000303246
-0.00181563
0.000311275
-0.00197539
0.00031957
-0.00213947
0.000328221
0.000337322
-0.0023081
-1.32067e-05
3.96987e-05
-4.80738e-05
0.000104779
-0.000101602
0.00016083
-0.000171075
0.000208712
-0.000254122
0.00024946
-0.000348664
0.000283959
-0.000452917
0.000313093
-0.000565374
0.000337702
-0.000684797
0.000358587
-0.000810194
0.000376502
-0.000940805
0.000392133
-0.00107607
0.000406095
-0.00121562
0.000418924
-0.00135922
0.000431071
-0.00150676
0.000442907
-0.00165825
0.00045473
-0.00181374
0.000466773
-0.00197338
0.000479211
-0.00213735
0.000492183
0.000505828
-0.00230585
-1.3163e-05
5.28617e-05
-4.79267e-05
0.000139542
-0.000101309
0.000214212
-0.000170608
0.000278012
-0.000253465
0.000332317
-0.000347808
0.000378303
-0.000451861
0.000417146
-0.000564121
0.000449961
-0.000683351
0.000477817
-0.000808562
0.000501713
-0.000938994
0.000522564
-0.00107409
0.00054119
-0.00121347
0.000558301
-0.0013569
0.000574501
-0.00150427
0.000590285
-0.00165559
0.000606048
-0.00181092
0.000622101
-0.00197039
0.000638679
-0.00213417
0.000655966
0.00067415
-0.00230249
-1.31061e-05
6.59678e-05
-4.77334e-05
0.00017417
-0.000100922
0.000267401
-0.000169991
0.00034708
-0.000252594
0.00041492
-0.000346673
0.000472382
-0.00045046
0.000520932
-0.000562456
0.000561958
-0.00068143
0.000596791
-0.000806393
0.000626676
-0.000936585
0.000652756
-0.00107145
0.000676052
-0.0012106
0.000697452
-0.00135381
0.000717709
-0.00150096
0.000737441
-0.00165206
0.000757143
-0.00180716
0.000777204
-0.0019664
0.000797916
-0.00212994
0.000819511
0.000842224
-0.00229802
-1.3036e-05
7.90038e-05
-4.74941e-05
0.000208628
-0.000100443
0.00032035
-0.000169224
0.000415861
-0.000251511
0.000497206
-0.00034526
0.000566132
-0.000448713
0.000624385
-0.000560381
0.000673626
-0.000679034
0.000715444
-0.000803687
0.000751329
-0.00093358
0.000782648
-0.00106815
0.000810624
-0.00120702
0.000836321
-0.00134995
0.000860639
-0.00149683
0.000884321
-0.00164765
0.000907961
-0.00180247
0.000932025
-0.00196142
0.000956866
-0.00212467
0.000982759
0.00100999
-0.00229243
-1.29528e-05
9.19566e-05
-4.7209e-05
0.000242884
-9.98704e-05
0.000373011
-0.000168307
0.000484298
-0.000250215
0.000579114
-0.000343569
0.000659486
-0.000446623
0.000727439
-0.000557896
0.000784899
-0.000676165
0.000833713
-0.000800446
0.000875611
-0.000929979
0.000912181
-0.0010642
0.000944848
-0.00120273
0.000974849
-0.00134533
0.00100323
-0.00149188
0.00103087
-0.00164236
0.00105845
-0.00179685
0.00108651
-0.00195545
0.00111547
-0.00211834
0.00114565
0.00117739
-0.00228574
-1.28566e-05
0.000104813
-4.68783e-05
0.000276906
-9.92057e-05
0.000425339
-0.000167242
0.000552334
-0.000248709
0.000660582
-0.000341602
0.000752379
-0.000444191
0.000830028
-0.000555004
0.000895713
-0.000672825
0.000951534
-0.000796672
0.000999458
-0.000925785
0.00104129
-0.0010596
0.00107867
-0.00119774
0.00111298
-0.00133994
0.00114544
-0.0014861
0.00117703
-0.0016362
0.00120855
-0.0017903
0.0012406
-0.0019485
0.00127368
-0.00211098
0.00130813
0.00134436
-0.00227795
-1.27473e-05
0.00011756
-4.65024e-05
0.000310661
-9.84495e-05
0.000477286
-0.000166029
0.000619913
-0.000246993
0.000741546
-0.000339361
0.000844747
-0.000441418
0.000932085
-0.000551706
0.001006
-0.000669014
0.00106884
-0.000792365
0.00112281
-0.000921
0.00116993
-0.00105435
0.00121202
-0.00119203
0.00125066
-0.0013338
0.0012872
-0.00147952
0.00132275
-0.00162918
0.0013582
-0.00178282
0.00139425
-0.00194057
0.00143142
-0.00210258
0.00147014
0.00151084
-0.00226906
-1.26251e-05
0.000130186
-4.60816e-05
0.000344117
-9.76023e-05
0.000528807
-0.000164669
0.00068698
-0.000245069
0.000821945
-0.000336846
0.000936524
-0.000438306
0.00103354
-0.000548003
0.0011157
-0.000664735
0.00118557
-0.000787529
0.0012456
-0.000915625
0.00129802
-0.00104846
0.00134485
-0.00118563
0.00138783
-0.00132689
0.00142847
-0.00147212
0.00146798
-0.00162128
0.00150736
-0.00177442
0.00154739
-0.00193166
0.00158866
-0.00209314
0.00163162
0.00167677
-0.00225907
-1.24901e-05
0.000142676
-4.56164e-05
0.000377243
-9.66651e-05
0.000579855
-0.000163164
0.000753479
-0.000242938
0.000901719
-0.00033406
0.00102765
-0.000434857
0.00113434
-0.000543899
0.00122474
-0.000659991
0.00130167
-0.000782165
0.00136778
-0.000909662
0.00142552
-0.00104191
0.0014771
-0.00117852
0.00152444
-0.00131923
0.00156918
-0.00146391
0.00161266
-0.00161252
0.00165598
-0.00176511
0.00169998
-0.00192178
0.00174533
-0.00208268
0.00179252
0.0018421
-0.00224801
-1.23425e-05
0.000155018
-4.51072e-05
0.000410008
-9.56389e-05
0.000630387
-0.000161516
0.000819356
-0.000240603
0.000980806
-0.000331005
0.00111805
-0.000431074
0.00123441
-0.000539395
0.00133306
-0.000654784
0.00141706
-0.000776276
0.00148927
-0.000903115
0.00155236
-0.00103473
0.00160872
-0.00117072
0.00166043
-0.00131082
0.00170928
-0.00145489
0.00175674
-0.0016029
0.00180399
-0.00175488
0.00185196
-0.00191093
0.00190137
-0.00207119
0.00195278
0.00200677
-0.00223586
-1.21824e-05
-4.45547e-05
0.00044238
-9.45246e-05
0.000680357
-0.000159725
0.000884556
-0.000238064
0.00105915
-0.000327683
0.00120767
-0.000426959
0.00133369
-0.000534494
0.0014406
-0.000649116
0.00153168
-0.000769865
0.00161002
-0.000895986
0.00167848
-0.00102691
0.00173964
-0.00116222
0.00179574
-0.00130166
0.00184872
-0.00144508
0.00190016
-0.00159243
0.00195134
-0.00174375
0.00200328
-0.00189913
0.00205675
-0.00205869
0.00211234
0.00217072
-0.00222264
-4.39595e-05
0.00047433
-9.33234e-05
0.000729721
-0.000157793
0.000949026
-0.000235325
0.00113668
-0.000324097
0.00129644
-0.000422515
0.0014321
-0.000529199
0.00154728
-0.00064299
0.00164547
-0.000762935
0.00172996
-0.000888278
0.00180382
-0.00101845
0.0018698
-0.00115302
0.00193032
-0.00129175
0.00198744
-0.00143446
0.00204287
-0.00158111
0.00209799
-0.00173171
0.00215389
-0.00188636
0.0022114
-0.00204518
0.00227116
0.0023339
-0.00220836
-4.33222e-05
0.000505826
-9.20366e-05
0.000778435
-0.000155723
0.00101271
-0.000232387
0.00121334
-0.00032025
0.0013843
-0.000417744
0.0015296
-0.000523514
0.00165305
-0.000636411
0.00175837
-0.000755489
0.00184904
-0.000879995
0.00192833
-0.00100935
0.00199916
-0.00114314
0.00206411
-0.00128109
0.00212539
-0.00142305
0.00218482
-0.00156893
0.00224388
-0.00171878
0.00230373
-0.00187265
0.00236527
-0.00203067
0.00242919
0.00249625
-0.00219302
-4.26435e-05
0.000536841
-9.06654e-05
0.000826457
-0.000153515
0.00107556
-0.000229254
0.00128908
-0.000316144
0.00147119
-0.00041265
0.0016261
-0.00051744
0.00175784
-0.00062938
0.0018703
-0.00074753
0.00196719
-0.000871139
0.00205194
-0.000999629
0.00212765
-0.00113258
0.00219706
-0.0012697
0.00226252
-0.00141084
0.00232596
-0.00155592
0.00238896
-0.00170495
0.00245276
-0.00185799
0.00251831
-0.00201517
0.00258636
0.00265772
-0.00217664
-4.19242e-05
0.000567343
-8.92115e-05
0.000873744
-0.000151173
0.00113752
-0.000225927
0.00136384
-0.000311782
0.00155705
-0.000407237
0.00172156
-0.000510984
0.00186159
-0.000621903
0.00198122
-0.000739063
0.00208435
-0.000861716
0.00217459
-0.000989281
0.00225521
-0.00112133
0.00232911
-0.00125758
0.00239876
-0.00139785
0.00246623
-0.00154207
0.00253318
-0.00169023
0.00260092
-0.0018424
0.00267048
-0.00199868
0.00274263
0.00281827
-0.00215922
-4.11652e-05
0.000597306
-8.76762e-05
0.000920255
-0.000148698
0.00119854
-0.00022241
0.00143755
-0.000307168
0.0016418
-0.000401508
0.0018159
-0.000504147
0.00196423
-0.000613982
0.00209106
-0.000730091
0.00220046
-0.000851728
0.00229623
-0.000978311
0.0023818
-0.00110941
0.00246021
-0.00124473
0.00253408
-0.00138408
0.00260559
-0.00152739
0.00267648
-0.00167464
0.00274817
-0.00182588
0.00282172
-0.00198121
0.00289796
0.00297784
-0.00214078
-4.03674e-05
0.000626702
-8.60612e-05
0.000965949
-0.000146093
0.00125858
-0.000218706
0.00151016
-0.000302306
0.0017254
-0.000395468
0.00190906
-0.000496935
0.00206569
-0.000605623
0.00219975
-0.000720619
0.00231546
-0.00084118
0.00241679
-0.000966723
0.00250734
-0.00109681
0.0025903
-0.00123115
0.00266842
-0.00136953
0.00274397
-0.00151188
0.00281883
-0.00165817
0.00289446
-0.00180844
0.00297199
-0.00196277
0.00305229
0.00313639
-0.00212132
-3.95318e-05
0.000655502
-8.43684e-05
0.00101079
-0.000143361
0.00131757
-0.000214818
0.00158162
-0.000297199
0.00180778
-0.000389119
0.00200098
-0.000489351
0.00216592
-0.000596829
0.00230722
-0.000710651
0.00242928
-0.000830077
0.00253621
-0.000954523
0.00263178
-0.00108355
0.00271933
-0.00121684
0.00280171
-0.00135421
0.00288134
-0.00149555
0.00296017
-0.00164083
0.00303974
-0.00179008
0.00312124
-0.00194337
0.00320559
0.00329386
-0.00210085
-3.86592e-05
0.000683682
-8.25996e-05
0.00105473
-0.000140504
0.00137547
-0.00021075
0.00165186
-0.000291851
0.00188889
-0.000382468
0.0020916
-0.000481401
0.00226486
-0.000587606
0.00241343
-0.000700192
0.00254187
-0.000818423
0.00265445
-0.000941714
0.00275508
-0.00106962
0.00284723
-0.00120182
0.00293392
-0.00133812
0.00301764
-0.0014784
0.00310045
-0.00162262
0.00318396
-0.00177081
0.00326943
-0.00192302
0.0033578
0.00345022
-0.00207938
-3.77509e-05
-8.07567e-05
0.00109773
-0.000137525
0.00143224
-0.000206504
0.00172084
-0.000286267
0.00196865
-0.000375518
0.00218085
-0.00047309
0.00236243
-0.000577959
0.0025183
-0.000689248
0.00265316
-0.000806224
0.00277142
-0.000928302
0.00287715
-0.00105503
0.00297396
-0.00118609
0.00306498
-0.00132127
0.00315282
-0.00146044
0.00323962
-0.00160356
0.00332708
-0.00175064
0.0034165
-0.00190172
0.00350888
0.00360543
-0.00205692
-7.88418e-05
0.00113977
-0.000134427
0.00148783
-0.000202086
0.0017885
-0.000280452
0.00204702
-0.000368274
0.00226867
-0.000464422
0.00245858
-0.000567893
0.00262177
-0.000677822
0.00276308
-0.000793484
0.00288708
-0.000914291
0.00299796
-0.00103979
0.00309946
-0.00116966
0.00319484
-0.00130366
0.00328682
-0.00144168
0.00337764
-0.00158365
0.00346905
-0.00172957
0.00356243
-0.00187949
0.0036588
0.00375943
-0.00203349
-7.68572e-05
0.00118079
-0.000131213
0.00154218
-0.000197498
0.00185479
-0.000274409
0.00212393
-0.000360742
0.002355
-0.000455403
0.00255324
-0.000557414
0.00272378
-0.000665922
0.00287159
-0.000780209
0.00300137
-0.000899688
0.00311744
-0.0010239
0.00322368
-0.00115252
0.00332345
-0.0012853
0.00341961
-0.00142211
0.00351445
-0.00156289
0.00360983
-0.00170762
0.00370716
-0.00185632
0.0038075
0.00391219
-0.00200909
-7.4805e-05
0.00122077
-0.000127886
0.00159526
-0.000192746
0.00191965
-0.000268144
0.00219932
-0.000352928
0.00243979
-0.00044604
0.00264635
-0.000546527
0.00282427
-0.000653553
0.00297862
-0.000766405
0.00311422
-0.000884498
0.00323553
-0.00100737
0.00334655
-0.00113468
0.00345076
-0.00126619
0.00355112
-0.00140175
0.00365001
-0.00154129
0.00374937
-0.00168478
0.00385065
-0.00183224
0.00395496
0.00406368
-0.00198373
-7.26876e-05
0.00125968
-0.000124451
0.00164703
-0.000187834
0.00198303
-0.000261662
0.00227315
-0.000344836
0.00252296
-0.000436337
0.00273785
-0.000535239
0.00292317
-0.000640721
0.0030841
-0.000752078
0.00322558
-0.000868726
0.00335218
-0.000990201
0.00346803
-0.00111615
0.00357672
-0.00124634
0.0036813
-0.0013806
0.00378427
-0.00151885
0.00388762
-0.00166107
0.00399286
-0.00180724
0.00410113
0.00421386
-0.00195742
-7.05077e-05
0.00129747
-0.00012091
0.00169743
-0.000182766
0.00204489
-0.000254969
0.00234536
-0.000336474
0.00260447
-0.000426303
0.00282768
-0.000523557
0.00302042
-0.000627432
0.00318798
-0.000737234
0.00333538
-0.000852378
0.00346733
-0.000972399
0.00358805
-0.00109694
0.00370126
-0.00122575
0.00381011
-0.00135866
0.00391719
-0.00149559
0.00402455
-0.00163648
0.00413376
-0.00178133
0.00424597
0.00436269
-0.00193016
-6.82678e-05
-0.000117268
0.00174643
-0.000177547
0.00210516
-0.00024807
0.00241588
-0.000327847
0.00268424
-0.000415942
0.00291578
-0.000511487
0.00311597
-0.000613695
0.00329018
-0.00072188
0.00344357
-0.000835462
0.00358091
-0.000953971
0.00370656
-0.00107705
0.00382433
-0.00120443
0.00393749
-0.00133594
0.0040487
-0.0014715
0.0041601
-0.00161103
0.00427329
-0.00175452
0.00438946
0.00451013
-0.00190197
-0.000113528
0.00179399
-0.000172182
0.00216382
-0.000240971
0.00248467
-0.000318963
0.00276224
-0.000405264
0.00300208
-0.000499036
0.00320974
-0.000599516
0.00339066
-0.000706024
0.00355007
-0.000817984
0.00369287
-0.000934925
0.0038235
-0.00105648
0.00394589
-0.00118238
0.00406339
-0.00131245
0.00417877
-0.00144658
0.00429423
-0.00158472
0.00441143
-0.00172681
0.00453156
0.00465617
-0.00187285
-0.000109695
0.00184006
-0.000166677
0.0022208
-0.000233679
0.00255167
-0.000309827
0.00283838
-0.000394274
0.00308652
-0.000486214
0.00330168
-0.000584902
0.00348935
-0.000689672
0.00365485
-0.000799952
0.00380315
-0.000915265
0.00393881
-0.00103524
0.00406586
-0.00115961
0.00418776
-0.00128818
0.00430735
-0.00142085
0.0044269
-0.00155755
0.00454813
-0.00169822
0.00467223
0.00480077
-0.00184281
-0.000105772
0.00188462
-0.000161037
0.00227607
-0.0002262
0.00261683
-0.000300448
0.00291263
-0.000382981
0.00316906
-0.000473026
0.00339173
-0.000569862
0.00358619
-0.000672833
0.00375782
-0.000781371
0.00391169
-0.000895001
0.00405244
-0.00101335
0.00418421
-0.00113613
0.00431054
-0.00126315
0.00443437
-0.00139431
0.00455806
-0.00152952
0.00468334
-0.00166873
0.00481144
0.00494389
-0.00181185
-0.000101765
0.00192762
-0.000155268
0.00232957
-0.00021854
0.0026801
-0.000290832
0.00298492
-0.000371392
0.00324962
-0.000459482
0.00347982
-0.000554403
0.00368111
-0.000655515
0.00385893
-0.000762252
0.00401842
-0.000874139
0.00416433
-0.000990795
0.00430086
-0.00111193
0.00443168
-0.00123736
0.0045598
-0.00136696
0.00468765
-0.00150065
0.00481703
-0.00163837
0.00494916
0.00508551
-0.00177999
-9.76769e-05
-0.000149375
0.00238127
-0.000210707
0.00274144
-0.000280988
0.00305521
-0.000359516
0.00332814
-0.000445591
0.00356589
-0.000538536
0.00377405
-0.000637726
0.00395812
-0.000742602
0.0041233
-0.000852687
0.00427441
-0.000967598
0.00441578
-0.00108704
0.00455112
-0.00121082
0.00468358
-0.0013388
0.00481564
-0.00147093
0.00494915
-0.00160713
0.00508535
0.00522561
-0.00174722
-0.000143365
0.00243112
-0.000202708
0.00280078
-0.000270924
0.00312342
-0.000347363
0.00340458
-0.000431361
0.00364989
-0.000522269
0.00386496
-0.000619476
0.00405533
-0.00072243
0.00422625
-0.000830655
0.00438264
-0.000943762
0.00452888
-0.00106146
0.00466882
-0.00118353
0.00480565
-0.00130986
0.00494196
-0.00144037
0.00507967
-0.00157502
0.00522
0.00536415
-0.00171357
-0.000137243
0.00247908
-0.00019455
0.00285809
-0.000260649
0.00318952
-0.00033494
0.00347887
-0.000416802
0.00373175
-0.000505611
0.00395377
-0.000600773
0.00415049
-0.000701745
0.00432722
-0.00080805
0.00448894
-0.000919297
0.00464013
-0.00103519
0.00478471
-0.0011555
0.00492597
-0.00128013
0.00506659
-0.00140899
0.00520853
-0.00154207
0.00535308
0.00550112
-0.00167904
-0.000131016
0.00252512
-0.000186241
0.00291331
-0.00025017
0.00325345
-0.000322258
0.00355096
-0.000401924
0.00381141
-0.000488573
0.00404042
-0.000581629
0.00424354
-0.000680557
0.00442615
-0.000784882
0.00459327
-0.000894212
0.00474946
-0.00100824
0.00489873
-0.00112675
0.00504448
-0.00124962
0.00518945
-0.0013768
0.00533571
-0.00150828
0.00548456
0.0056365
-0.00164366
-0.000124691
-0.000177789
0.00296641
-0.000239497
0.00331516
-0.000309327
0.00362079
-0.000386737
0.00388883
-0.000471165
0.00412485
-0.000562053
0.00433443
-0.000658876
0.00452297
-0.000761162
0.00469555
-0.000868516
0.00485681
-0.000980628
0.00501085
-0.00109728
0.00516113
-0.00121835
0.00531052
-0.00134381
0.00546117
-0.00147369
0.00561445
0.00577028
-0.00160748
-0.000169202
0.00301734
-0.00022864
0.0033746
-0.000296156
0.00368831
-0.000371252
0.00396392
-0.000453399
0.004207
-0.000542057
0.00442309
-0.000636712
0.00461763
-0.000736899
0.00479574
-0.00084222
0.00496214
-0.000952363
0.00512099
-0.00106711
0.00527588
-0.00118634
0.00542975
-0.00131005
0.00558488
-0.00143833
0.00574274
0.00590242
-0.00157048
-0.000160489
0.00306606
-0.000217608
0.00343172
-0.000282756
0.00375345
-0.000355481
0.00403665
-0.000435285
0.0042868
-0.000521651
0.00450946
-0.000614078
0.00471006
-0.000712104
0.00489377
-0.000815334
0.00506536
-0.000923453
0.00522911
-0.00103625
0.00538867
-0.0011536
0.00554711
-0.00127557
0.00570685
-0.0014022
0.00586936
0.0060331
-0.00153287
-0.000151658
-0.000206412
0.00348647
-0.000269139
0.00381618
-0.000339435
0.00410694
-0.000416835
0.0043642
-0.000500848
0.00459347
-0.000590984
0.00480019
-0.000686788
0.00498957
-0.000787867
0.00516644
-0.000893908
0.00533515
-0.0010047
0.00549947
-0.00112017
0.00566258
-0.00124044
0.00582711
-0.00136559
0.00599451
0.00616312
-0.00149561
-0.000193529
0.00353874
-0.000253737
0.00387639
-0.000321523
0.00417473
-0.000396457
0.00443913
-0.000478064
0.00467508
-0.000565869
0.004888
-0.00065942
0.00508312
-0.000758325
0.00526535
-0.000862272
0.0054391
-0.000971066
0.00560826
-0.00108466
0.00577618
-0.00120333
0.00594578
-0.00132848
0.00611966
0.00629997
-0.00146533
-0.000182011
0.00358854
-0.000239694
0.00393407
-0.000304938
0.00423997
-0.000377348
0.00451154
-0.000456477
0.00475421
-0.000541864
0.00497338
-0.000633068
0.00517433
-0.000729699
0.00536198
-0.000831449
0.00554085
-0.000938132
0.00571495
-0.00104974
0.00588778
-0.00116658
0.00606262
-0.00128988
0.00624296
0.00643184
-0.00142175
-0.000170361
-0.00022547
0.00398918
-0.000288117
0.00430262
-0.000357944
0.00458137
-0.000434533
0.00483079
-0.000517439
0.00505629
-0.000606231
0.00526312
-0.000700523
0.00545627
-0.000800009
0.00564033
-0.000904504
0.00581944
-0.001014
0.00599728
-0.00112877
0.00617739
-0.00124959
0.00636378
0.0065596
-0.00137735
-0.000211078
0.00404167
-0.000271074
0.00436262
-0.00033826
0.00464856
-0.000412246
0.00490478
-0.000492607
0.00513665
-0.000578922
0.00534943
-0.000670807
0.00554816
-0.000767956
0.00573748
-0.000870177
0.00592166
-0.000977446
0.00610455
-0.00108993
0.00628987
-0.00120799
0.00648184
0.00668338
-0.00133177
-0.00019653
-0.000253823
0.00441991
-0.00031831
0.00471304
-0.000389632
0.0049761
-0.000467383
0.0052144
-0.000551153
0.0054332
-0.000640561
0.00563756
-0.000735297
0.00583222
-0.000835154
0.00602152
-0.000940066
0.00620946
-0.00105009
0.0063999
-0.00116526
0.00659701
0.00680336
-0.00128524
-0.000236378
0.00447445
-0.00029811
0.00477477
-0.000366706
0.0050447
-0.000441782
0.00528948
-0.000522939
0.00551436
-0.000609798
0.00572442
-0.000702042
0.00592446
-0.000799441
0.00611892
-0.000901877
0.0063119
-0.00100929
0.00650731
-0.00112148
0.0067092
0.00691972
-0.00123784
-0.000218756
-0.000277674
0.00483369
-0.000343483
0.00511051
-0.000415819
0.00536181
-0.000494294
0.00559283
-0.000578531
0.00580866
-0.000668202
0.00601413
-0.00076305
0.00621377
-0.000862901
0.00641175
-0.000967585
0.00661199
-0.00107672
0.00681834
0.0070326
-0.00118959
-0.000257021
0.00488974
-0.000319981
0.00517347
-0.000389511
0.00543134
-0.000465235
0.00566856
-0.000546775
0.0058902
-0.000633792
0.00610115
-0.000726
0.00630597
-0.000823163
0.00650891
-0.000925018
0.00671385
-0.00103107
0.00692439
0.00714208
-0.00114055
-0.000236166
-0.000296218
0.00523352
-0.000362877
0.005498
-0.000435779
0.00574146
-0.000514548
0.00596897
-0.000598831
0.00618543
-0.00068831
0.00639545
-0.000782694
0.0066033
-0.000881639
0.00681279
-0.000984577
0.00702733
0.00724824
-0.00109074
-0.000272212
0.0052906
-0.000335934
0.00556173
-0.000405945
0.00581147
-0.000481869
0.0060449
-0.000563339
0.0062669
-0.000650006
0.00648212
-0.000741527
0.00669482
-0.000837494
0.00690876
-0.000937297
0.00712713
0.00735114
-0.0010402
-0.000247982
-0.000308703
0.00562245
-0.000375753
0.00587852
-0.000448758
0.0061179
-0.000527337
0.00634548
-0.000611112
0.0065659
-0.000699695
0.0067834
-0.000792627
0.00700169
-0.000889278
0.00722378
0.00745081
-0.000988945
-0.000281206
0.0056801
-0.000345226
0.00594254
-0.000415239
0.00618791
-0.000490851
0.00642109
-0.000571658
0.0066467
-0.000657233
0.00686898
-0.000747079
0.00709154
-0.000840558
0.00731726
0.00754726
-0.000937012
-0.000253463
-0.000314386
0.00600346
-0.000381334
0.00625486
-0.000453906
0.00649366
-0.000531673
0.00672447
-0.000614176
0.00695148
-0.000700888
0.00717825
-0.000791177
0.00740755
0.00764051
-0.000884423
-0.000283257
-0.000347071
0.00631868
-0.00041653
0.00656312
-0.000491188
0.00679913
-0.000570557
0.00703085
-0.000654094
0.00726179
-0.00074117
0.00749462
0.00773054
-0.000831206
-0.000312474
0.00637929
-0.000378751
0.0066294
-0.000450233
0.00687061
-0.000526412
0.00710703
-0.00060673
0.00734211
-0.00069057
0.00757846
0.00781736
-0.000777384
-0.000277574
-0.000340601
0.00669243
-0.000408842
0.00693885
-0.000481774
0.00717996
-0.000558831
0.00741916
-0.000639408
0.00765904
0.00790093
-0.000722983
-0.000302109
-0.000367046
0.00700379
-0.000436678
0.00724959
-0.000510433
0.00749292
-0.000587716
0.00773632
0.00798125
-0.000668028
-0.00032488
-0.000391158
0.00731587
-0.000461567
0.00756333
-0.000535524
0.00781028
0.00805827
-0.000612546
-0.000345248
-0.000412267
0.00763035
-0.000482862
0.00788088
0.00813197
-0.000556562
-0.000362567
-0.000429762
0.00794807
0.00820231
-0.000376253
0.00826925
0.00261668
-1.55437e-05
5.06125e-05
0.00258066
-0.000105442
0.000141467
0.00254394
-0.000185618
0.000222339
0.00250669
-0.000258196
0.000295442
0.00246901
-0.000325382
0.000363059
0.00243096
-0.000388429
0.000426481
0.00239256
-0.000448382
0.000486787
0.0023538
-0.00050592
0.000544672
0.0023147
-0.000561535
0.000600641
0.00227523
-0.000615541
0.000655009
0.00223539
-0.000668126
0.000707963
0.00219518
-0.000719372
0.00075958
0.00215461
-0.00076928
0.00080985
0.0021137
-0.000817779
0.000858692
0.00207248
-0.00086474
0.00090596
0.00203101
-0.000909983
0.000951459
0.00198935
-0.000953284
0.000994943
0.0019476
-0.000994376
0.00103613
0.00190587
-0.00103295
0.00107468
0.0018643
-0.00106867
0.00111024
0.00182304
-0.00110115
0.00114241
0.00178228
-0.00113
0.00117076
0.00174221
-0.00115479
0.00119486
0.00170305
-0.00117509
0.00121425
0.00166503
-0.00119048
0.00122851
0.00162836
-0.00120059
0.00123726
0.00159328
-0.00120511
0.00124019
0.00155997
-0.00120382
0.00123713
0.00152801
-0.00119629
0.00122825
-0.00118376
0.00121616
0.00261913
1.70799e-05
0.00258544
-7.17557e-05
0.00255095
-0.000151131
0.00251584
-0.000223083
0.0024802
-0.000289743
0.00244409
-0.000352322
0.00240755
-0.000411836
0.00237057
-0.000468943
0.00233316
-0.000524127
0.00229532
-0.000577698
0.00225704
-0.000629844
0.00221832
-0.000680655
0.00217918
-0.000730138
0.00213963
-0.000778235
0.00209973
-0.000824833
0.00205951
-0.000869767
0.00201906
-0.000912831
0.00197846
-0.000953778
0.00193783
-0.000992321
0.0018973
-0.00102814
0.00185702
-0.00106088
0.00181717
-0.00109015
0.00177793
-0.00111555
0.00173949
-0.00113665
0.00170204
-0.00115303
0.00166575
-0.00116431
0.00163077
-0.00117013
0.00159709
-0.00117015
0.00156439
-0.00116358
-0.00115225
0.00262153
4.73015e-05
0.00259014
-4.03673e-05
0.00255785
-0.000118843
0.00252484
-0.000190074
0.00249122
-0.000256116
0.00245703
-0.000318141
0.00242233
-0.000377133
0.00238712
-0.000433734
0.00235141
-0.000488415
0.0023152
-0.000541484
0.00227848
-0.00059313
0.00224128
-0.000643446
0.00220359
-0.00069245
0.00216545
-0.000740095
0.00212689
-0.000786279
0.00208798
-0.000830854
0.00204878
-0.000873632
0.00200939
-0.000914383
0.0019699
-0.000952839
0.00193046
-0.000988697
0.0018912
-0.00102162
0.00185229
-0.00105123
0.00181388
-0.00107714
0.00177616
-0.00109892
0.00173928
-0.00111616
0.00170339
-0.00112842
0.00166858
-0.00113532
0.00163489
-0.00113645
0.00160221
-0.0011309
-0.00112052
0.00262388
7.51676e-05
0.00259475
-1.12331e-05
0.00256462
-8.87112e-05
0.00253367
-0.000159128
0.00250202
-0.000224463
0.00246973
-0.00028585
0.00243684
-0.000344241
0.00240336
-0.000400259
0.00236931
-0.000454368
0.0023347
-0.000506869
0.00229952
-0.000557952
0.00226379
-0.000607716
0.00222752
-0.000656184
0.00219075
-0.000703322
0.00215351
-0.000749039
0.00211586
-0.000793204
0.00207787
-0.000835642
0.00203963
-0.00087614
0.00200124
-0.000914449
0.00196282
-0.000950281
0.00192451
-0.000983312
0.00188646
-0.00101318
0.00184882
-0.0010395
0.00181176
-0.00106185
0.0017754
-0.0010798
0.00173989
-0.00109291
0.00170532
-0.00110074
0.00167172
-0.00110286
0.00163912
-0.0010983
-0.00108888
0.00262619
0.000100728
0.00259926
1.56931e-05
0.00257124
-6.06918e-05
0.00254232
-0.000130203
0.0025126
-0.000194743
0.00248216
-0.00025541
0.00245104
-0.00031312
0.00241926
-0.000368483
0.00238684
-0.000421949
0.00235379
-0.000473815
0.00232011
-0.000524273
0.00228582
-0.000573425
0.00225094
-0.000621301
0.00221549
-0.000667876
0.00217953
-0.000713073
0.00214309
-0.000756771
0.00210627
-0.000798813
0.00206913
-0.000839
0.00203178
-0.000877099
0.00199433
-0.000912836
0.00195692
-0.000945901
0.00191968
-0.000975945
0.00188277
-0.00100258
0.00184631
-0.0010254
0.00181046
-0.00104395
0.00177533
-0.00105778
0.00174102
-0.00106643
0.00170759
-0.00106943
0.00167513
-0.00106584
-0.0010574
0.00262845
0.000124032
0.00260368
4.04584e-05
0.00257773
-3.47398e-05
0.00255078
-0.000103257
0.00252296
-0.000166917
0.00249433
-0.000226781
0.00246494
-0.000283735
0.00243483
-0.000338369
0.002404
-0.000391124
0.00237248
-0.000442291
0.00234027
-0.000492062
0.00230738
-0.000540542
0.00227385
-0.00058777
0.0022397
-0.000633726
0.00220498
-0.000678347
0.00216973
-0.000721524
0.00213403
-0.000763113
0.00209796
-0.000802929
0.00206161
-0.000840754
0.00202511
-0.000876328
0.00198856
-0.000909352
0.0019521
-0.000939487
0.00191587
-0.000966354
0.00188001
-0.000989537
0.00184464
-0.00100859
0.0018099
-0.00102303
0.00177587
-0.00103241
0.00174265
-0.00103621
0.00171037
-0.00103355
-0.00102607
0.00263065
0.000145132
0.002608
6.31115e-05
0.00258407
-1.08095e-05
0.00255905
-7.82449e-05
0.00253308
-0.000140943
0.00250622
-0.000199926
0.00247854
-0.000256047
0.00245005
-0.000309882
0.00242078
-0.000361858
0.00239076
-0.000412262
0.00235998
-0.000461286
0.00232847
-0.000509036
0.00229626
-0.000555558
0.00226338
-0.000600842
0.00222986
-0.000644831
0.00219577
-0.000687432
0.00216117
-0.000728509
0.00212613
-0.000767895
0.00209076
-0.000805382
0.00205515
-0.000840723
0.00201943
-0.000873631
0.00198372
-0.000903776
0.00194815
-0.000930784
0.00191286
-0.000954241
0.00187797
-0.000973698
0.0018436
-0.000988667
0.00180987
-0.000998676
0.00177688
-0.00100322
0.00174477
-0.00100144
-0.00099487
0.0026328
0.000164082
0.00261221
8.3702e-05
0.00259025
1.11461e-05
0.00256713
-5.51236e-05
0.00254297
-0.000116779
0.00251784
-0.000174803
0.00249182
-0.000230019
0.00246492
-0.000282985
0.00243718
-0.000334116
0.00240861
-0.000383695
0.00237924
-0.000431911
0.00234907
-0.000478875
0.00231815
-0.000524635
0.0022865
-0.00056919
0.00225416
-0.000612494
0.00222119
-0.000654462
0.00218765
-0.000694971
0.00215362
-0.000733865
0.00211919
-0.00077095
0.00208446
-0.00080599
0.00204954
-0.000838708
0.00201454
-0.000868784
0.00197961
-0.000895849
0.00194486
-0.000919492
0.00191042
-0.000939262
0.00187643
-0.000954671
0.00184299
-0.000965239
0.00181023
-0.000970456
0.0017783
-0.000969512
-0.000963795
0.0026349
0.000180937
0.00261632
0.000102281
0.00259629
3.1175e-05
0.00257501
-3.38471e-05
0.00255261
-9.43801e-05
0.00252918
-0.000151371
0.00250477
-0.00020561
0.00247943
-0.000257639
0.00245317
-0.000307862
0.00242603
-0.000356554
0.00239802
-0.000403904
0.00236917
-0.000450024
0.00233951
-0.000494968
0.00230906
-0.000538741
0.00227787
-0.000581304
0.00224599
-0.000622583
0.00221348
-0.000662467
0.00218043
-0.00070081
0.00214691
-0.000737428
0.00211301
-0.000772098
0.00207886
-0.000804554
0.00204456
-0.000834482
0.00201023
-0.000861523
0.00197601
-0.000885268
0.00194202
-0.000905269
0.00190838
-0.000921038
0.00187524
-0.000932093
0.0018427
-0.000937921
0.00181094
-0.000937753
-0.00093284
0.00263694
0.000195751
0.00262032
0.0001189
0.00260216
4.93263e-05
0.00258269
-1.43686e-05
0.00256201
-7.37033e-05
0.00254023
-0.000129587
0.0025174
-0.000182781
0.00249356
-0.000233807
0.00246876
-0.000283058
0.00244301
-0.000330803
0.00241634
-0.00037723
0.00238876
-0.00042245
0.00236032
-0.000466524
0.00233104
-0.00050946
0.00230096
-0.000551229
0.00227014
-0.000591764
0.00223864
-0.000630966
0.00220653
-0.000668697
0.00217389
-0.000704786
0.00214081
-0.00073902
0.0021074
-0.000771142
0.00207377
-0.000800848
0.00204003
-0.000827786
0.00200631
-0.000851553
0.00197275
-0.000871705
0.00193947
-0.000887757
0.0019066
-0.000899229
0.00187429
-0.000905608
0.0018427
-0.000906158
-0.000901997
0.00263892
0.000208582
0.00262421
0.000133614
0.00260788
6.56502e-05
0.00259015
3.35928e-06
0.00257115
-5.47028e-05
0.00255098
-0.00010941
0.00252968
-0.00016149