/*--------------------------------*- C++ -*----------------------------------*\
  =========                 |
  \\      /  F ield         | OpenFOAM: The Open Source CFD Toolbox
   \\    /   O peration     | Website:  https://openfoam.org
    \\  /    A nd           | Version:  7
     \\/     M anipulation  |
\*---------------------------------------------------------------------------*/
FoamFile
{
    version     2.0;
    format      ascii;
    class       surfaceScalarField;
    location    "65";
    object      phi;
}
// * * * * * * * * * * * * * * * * * * * * * * * * * * * * * * * * * * * * * //

dimensions      [0 3 -1 0 0 0 0];

internalField   nonuniform List<scalar> 
5145
(
0.00206493
-2.35271e-05
0.00208818
-2.32483e-05
0.00211114
-2.29626e-05
0.00213381
-2.26707e-05
0.00215619
-2.23728e-05
0.00217826
-2.20696e-05
0.00220002
-2.17614e-05
0.00222147
-2.14487e-05
0.0022426
-2.11318e-05
0.00226341
-2.08113e-05
0.0022839
-2.04876e-05
0.00230406
-2.01609e-05
0.00232389
-1.98317e-05
0.00234339
-1.95004e-05
0.00236256
-1.91672e-05
0.00238139
-1.88324e-05
0.00239989
-1.84965e-05
0.00241805
-1.81596e-05
0.00243587
-1.78221e-05
0.00245335
-1.74842e-05
0.0024705
-1.71461e-05
0.00248731
-1.6808e-05
0.00250378
-1.64702e-05
0.00251991
-1.61328e-05
0.0025357
-1.57961e-05
0.00255117
-1.54601e-05
0.00256629
-1.5125e-05
-2.5738e-14
0.00258108
-1.47909e-05
-3.02376e-14
0.00259554
-1.4458e-05
-3.46207e-14
0.00260967
-1.41262e-05
-3.93722e-14
0.00262346
-1.37958e-05
-4.41698e-14
0.00263693
-1.34666e-05
-4.88525e-14
0.00265007
-1.31389e-05
-5.33015e-14
0.00266288
-1.28125e-05
-5.73728e-14
0.00267537
-1.24875e-05
-6.09618e-14
0.00268753
-1.21639e-05
-6.40263e-14
0.00269937
-1.18416e-05
-6.64963e-14
0.00271089
-1.15206e-05
-6.83175e-14
0.00272209
-1.12006e-05
-6.94427e-14
0.00273298
-1.08818e-05
-6.97015e-14
0.00274354
-1.05636e-05
-6.88662e-14
0.00275378
-1.02463e-05
-6.665e-14
0.00276371
-9.92845e-06
-6.27656e-14
0.00277333
-9.61205e-06
-5.67867e-14
0.00278262
-9.29179e-06
-4.84091e-14
0.00279159
-8.97608e-06
-3.7193e-14
0.00280024
-8.64665e-06
-2.30856e-14
0.00280857
-8.33451e-06
-5.48801e-15
0.00281655
-7.97799e-06
1.52456e-14
0.00282424
-7.684e-06
3.97695e-14
0.00283149
-7.24996e-06
6.62304e-14
0.00283851
-7.02798e-06
9.65872e-14
0.00284488
-6.36976e-06
1.26048e-13
0.00285128
-6.39667e-06
1.60376e-13
-5.0472e-06
1.8673e-13
0.00206693
-4.69968e-05
0.00209013
-4.64404e-05
0.00211303
-4.58703e-05
0.00213565
-4.52876e-05
0.00215797
-4.46931e-05
0.00217999
-4.40878e-05
0.0022017
-4.34727e-05
0.0022231
-4.28484e-05
0.00224418
-4.2216e-05
0.00226495
-4.15763e-05
0.00228539
-4.093e-05
0.00230551
-4.02779e-05
0.0023253
-3.96208e-05
0.00234476
-3.89593e-05
0.00236388
-3.82941e-05
0.00238268
-3.76259e-05
0.00240114
-3.69552e-05
0.00241926
-3.62827e-05
0.00243705
-3.56089e-05
0.0024545
-3.49342e-05
0.00247161
-3.42592e-05
0.00248839
-3.35843e-05
0.00250482
-3.29099e-05
0.00252093
-3.22363e-05
0.0025367
-3.1564e-05
0.00255213
-3.08932e-05
0.00256723
-3.02241e-05
0.00258199
-2.95571e-05
0.00259643
-2.88924e-05
0.00261053
-2.823e-05
0.00262431
-2.75702e-05
0.00263775
-2.69131e-05
0.00265087
-2.62587e-05
0.00266367
-2.56071e-05
0.00267614
-2.49582e-05
0.00268829
-2.43121e-05
0.00270011
-2.36686e-05
0.00271162
-2.30276e-05
0.00272281
-2.23888e-05
0.00273368
-2.17521e-05
0.00274423
-2.11167e-05
0.00275447
-2.04832e-05
0.00276439
-1.98486e-05
0.00277399
-1.92168e-05
0.00278328
-1.85773e-05
0.00279225
-1.7947e-05
0.00280089
-1.72891e-05
0.00280922
-1.66659e-05
0.0028172
-1.59539e-05
0.00282488
-1.5367e-05
0.00283213
-1.45001e-05
0.00283916
-1.40571e-05
0.00284554
-1.27423e-05
0.00285194
-1.27968e-05
-1.01015e-05
0.00207092
-7.03521e-05
0.002094
-6.95205e-05
0.0021168
-6.86685e-05
0.00213931
-6.77974e-05
0.00216152
-6.69087e-05
0.00218344
-6.60038e-05
0.00220505
-6.50841e-05
0.00222635
-6.41509e-05
0.00224734
-6.32054e-05
0.00226802
-6.22489e-05
0.00228837
-6.12825e-05
0.0023084
-6.03074e-05
0.0023281
-5.93248e-05
0.00234748
-5.83356e-05
0.00236652
-5.7341e-05
0.00238524
-5.63417e-05
0.00240362
-5.53388e-05
0.00242167
-5.4333e-05
0.00243939
-5.33253e-05
0.00245677
-5.23163e-05
0.00247382
-5.13068e-05
0.00249053
-5.02974e-05
0.00250691
-4.92888e-05
0.00252296
-4.82814e-05
0.00253867
-4.72758e-05
0.00255405
-4.62725e-05
0.0025691
-4.52718e-05
0.00258381
-4.42742e-05
0.0025982
-4.32799e-05
0.00261226
-4.22892e-05
0.00262599
-4.13024e-05
0.0026394
-4.03195e-05
0.00265248
-3.93407e-05
0.00266524
-3.8366e-05
0.00267768
-3.73955e-05
0.00268979
-3.6429e-05
0.00270159
-3.54664e-05
0.00271307
-3.45076e-05
0.00272424
-3.35521e-05
0.00273508
-3.25998e-05
0.00274562
-3.16493e-05
0.00275583
-3.07017e-05
0.00276574
-2.97524e-05
0.00277533
-2.88073e-05
0.0027846
-2.78507e-05
0.00279356
-2.69077e-05
0.0028022
-2.59236e-05
0.00281052
-2.49913e-05
0.00281849
-2.39261e-05
0.00282618
-2.30481e-05
0.00283343
-2.17509e-05
0.00284046
-2.10887e-05
0.00284684
-1.91208e-05
0.00285324
-1.92039e-05
-1.51703e-05
0.00207687
-9.3537e-05
0.00209978
-9.24337e-05
0.00212241
-9.13032e-05
0.00214476
-9.01474e-05
0.00216682
-8.89681e-05
0.00218859
-8.77673e-05
0.00221005
-8.65468e-05
0.00223121
-8.53082e-05
0.00225205
-8.40532e-05
0.00227259
-8.27836e-05
0.00229281
-8.15009e-05
0.00231271
-8.02065e-05
0.00233228
-7.89021e-05
0.00235154
-7.7589e-05
0.00237046
-7.62684e-05
0.00238906
-7.49418e-05
0.00240734
-7.36102e-05
0.00242528
-7.22749e-05
0.00244289
-7.09369e-05
0.00246017
-6.95972e-05
0.00247712
-6.82568e-05
0.00249374
-6.69165e-05
0.00251003
-6.55771e-05
0.00252599
-6.42394e-05
0.00254161
-6.29041e-05
0.00255691
-6.15718e-05
0.00257188
-6.0243e-05
0.00258653
-5.89182e-05
0.00260085
-5.75978e-05
0.00261484
-5.62822e-05
0.00262851
-5.49716e-05
0.00264186
-5.36663e-05
0.00265488
-5.23664e-05
0.00266759
-5.1072e-05
0.00267997
-4.9783e-05
0.00269205
-4.84995e-05
0.0027038
-4.72211e-05
0.00271524
-4.59478e-05
0.00272637
-4.46787e-05
0.00273718
-4.34139e-05
0.00274768
-4.21515e-05
0.00275787
-4.08929e-05
0.00276775
-3.9632e-05
0.00277732
-3.83768e-05
0.00278658
-3.71061e-05
0.00279552
-3.58536e-05
0.00280415
-3.45463e-05
0.00281246
-3.3308e-05
0.00282043
-3.18928e-05
0.00282811
-3.07269e-05
0.00283536
-2.90029e-05
0.0028424
-2.81244e-05
0.00284878
-2.55084e-05
0.0028552
-2.5622e-05
-2.02609e-05
0.00208474
-0.000116496
0.00210743
-0.000115126
0.00212985
-0.000113722
0.00215198
-0.000112286
0.00217384
-0.000110821
0.0021954
-0.000109329
0.00221666
-0.000107813
0.00223763
-0.000106273
0.00225829
-0.000104714
0.00227864
-0.000103136
0.00229868
-0.000101542
0.00231841
-9.99332e-05
0.00233782
-9.83118e-05
0.00235691
-9.66795e-05
0.00237568
-9.5038e-05
0.00239413
-9.33888e-05
0.00241225
-9.17335e-05
0.00243005
-9.00734e-05
0.00244752
-8.84099e-05
0.00246467
-8.67443e-05
0.00248149
-8.50777e-05
0.00249799
-8.34112e-05
0.00251415
-8.17458e-05
0.00253
-8.00825e-05
0.00254552
-7.84221e-05
0.00256071
-7.67654e-05
0.00257558
-7.5113e-05
0.00259013
-7.34656e-05
0.00260435
-7.18237e-05
0.00261826
-7.01876e-05
0.00263184
-6.85578e-05
0.00264511
-6.69345e-05
0.00265806
-6.53179e-05
0.0026707
-6.37082e-05
0.00268302
-6.21052e-05
0.00269503
-6.05089e-05
0.00270673
-5.8919e-05
0.00271812
-5.73353e-05
0.0027292
-5.57569e-05
0.00273997
-5.41839e-05
0.00275043
-5.26137e-05
0.00276058
-5.10484e-05
0.00277043
-4.948e-05
0.00277997
-4.79188e-05
0.0027892
-4.63382e-05
0.00279813
-4.47803e-05
0.00280674
-4.31539e-05
0.00281504
-4.16138e-05
0.002823
-3.98527e-05
0.00283068
-3.84031e-05
0.00283794
-3.6257e-05
0.00284498
-3.5166e-05
0.00285138
-3.19085e-05
0.00285781
-3.2055e-05
-2.53812e-05
0.00209448
-0.000139176
0.0021169
-0.000137545
0.00213905
-0.000135873
0.00216093
-0.000134163
0.00218252
-0.000132418
0.00220384
-0.000130641
0.00222486
-0.000128835
0.00224559
-0.000127001
0.00226601
-0.000125143
0.00228614
-0.000123263
0.00230596
-0.000121364
0.00232548
-0.000119446
0.00234468
-0.000117514
0.00236357
-0.000115569
0.00238214
-0.000113612
0.0024004
-0.000111647
0.00241834
-0.000109674
0.00243596
-0.000107695
0.00245326
-0.000105712
0.00247025
-0.000103726
0.00248691
-0.000101739
0.00250325
-9.97523e-05
0.00251927
-9.77668e-05
0.00253497
-9.57837e-05
0.00255035
-9.38039e-05
0.00256541
-9.18286e-05
0.00258016
-8.98583e-05
0.00259459
-8.78939e-05
0.0026087
-8.5936e-05
0.0026225
-8.39851e-05
0.00263598
-8.20416e-05
0.00264915
-8.01059e-05
0.00266201
-7.81781e-05
0.00267456
-7.62584e-05
0.00268681
-7.43468e-05
0.00269874
-7.24431e-05
0.00271037
-7.0547e-05
0.00272169
-6.86583e-05
0.00273271
-6.67759e-05
0.00274343
-6.48998e-05
0.00275384
-6.30272e-05
0.00276395
-6.11602e-05
0.00277376
-5.92895e-05
0.00278327
-5.74274e-05
0.00279247
-5.5542e-05
0.00280138
-5.36838e-05
0.00280997
-5.17435e-05
0.00281826
-4.99066e-05
0.00282621
-4.78051e-05
0.00283388
-4.60766e-05
0.00284114
-4.35146e-05
0.00284819
-4.22157e-05
0.00285461
-3.83251e-05
0.00286106
-3.85073e-05
-3.0539e-05
0.00210604
-0.000161525
0.00212813
-0.000159639
0.00214997
-0.000157707
0.00217153
-0.00015573
0.00219283
-0.000153712
0.00221384
-0.000151657
0.00223458
-0.000149568
0.00225502
-0.000147447
0.00227518
-0.000145298
0.00229504
-0.000143123
0.0023146
-0.000140925
0.00233386
-0.000138707
0.00235282
-0.000136471
0.00237147
-0.00013422
0.00238981
-0.000131956
0.00240785
-0.000129681
0.00242557
-0.000127397
0.00244298
-0.000125106
0.00246008
-0.000122811
0.00247687
-0.000120512
0.00249334
-0.000118212
0.0025095
-0.000115912
0.00252534
-0.000113613
0.00254088
-0.000111317
0.0025561
-0.000109025
0.00257101
-0.000106737
0.0025856
-0.000104456
0.00259989
-0.000102181
0.00261387
-9.99143e-05
0.00262754
-9.76551e-05
0.0026409
-9.54046e-05
0.00265396
-9.31629e-05
0.00266671
-9.09305e-05
0.00267916
-8.87073e-05
0.00269131
-8.64935e-05
0.00270315
-8.42888e-05
0.0027147
-8.20929e-05
0.00272595
-7.99055e-05
0.0027369
-7.77253e-05
0.00274755
-7.55524e-05
0.00275791
-7.33834e-05
0.00276797
-7.1221e-05
0.00277773
-6.90542e-05
0.0027872
-6.68973e-05
0.00279637
-6.47132e-05
0.00280525
-6.25608e-05
0.00281382
-6.03128e-05
0.0028221
-5.81852e-05
0.00283004
-5.57495e-05
0.00283771
-5.37482e-05
0.00284498
-5.07774e-05
0.00285204
-4.92761e-05
0.00285847
-4.47623e-05
0.00286495
-4.49838e-05
-3.57426e-05
0.00211934
-0.000183493
0.00214106
-0.000181361
0.00216253
-0.000179176
0.00218374
-0.00017694
0.00220469
-0.000174658
0.00222536
-0.000172334
0.00224577
-0.00016997
0.00226589
-0.00016757
0.00228573
-0.000165138
0.00230528
-0.000162676
0.00232454
-0.000160188
0.00234352
-0.000157677
0.00236219
-0.000155146
0.00238057
-0.000152597
0.00239865
-0.000150033
0.00241642
-0.000147457
0.0024339
-0.000144871
0.00245107
-0.000142277
0.00246793
-0.000139677
0.00248449
-0.000137073
0.00250075
-0.000134468
0.0025167
-0.000131862
0.00253235
-0.000129259
0.00254769
-0.000126657
0.00256272
-0.000124061
0.00257746
-0.000121469
0.00259188
-0.000118885
0.00260601
-0.000116308
0.00261984
-0.000113739
0.00263336
-0.000111179
0.00264658
-0.000108629
0.00265951
-0.000106089
0.00267214
-0.00010356
0.00268447
-0.000101041
0.00269651
-9.8532e-05
0.00270826
-9.60337e-05
0.00271971
-9.35452e-05
0.00273087
-9.10664e-05
0.00274174
-8.85957e-05
0.00275232
-8.61332e-05
0.00276261
-8.36751e-05
0.00277262
-8.12243e-05
0.00278233
-7.87685e-05
0.00279176
-7.63239e-05
0.00280089
-7.38482e-05
0.00280974
-7.14086e-05
0.00281829
-6.88599e-05
0.00282655
-6.64486e-05
0.00283449
-6.36862e-05
0.00284216
-6.1419e-05
0.00284943
-5.80475e-05
0.0028565
-5.63503e-05
0.00286296
-5.12249e-05
0.00286947
-5.14896e-05
-4.10005e-05
0.00213431
-0.000205033
0.00215561
-0.000202664
0.00217667
-0.000200235
0.00219748
-0.00019775
0.00221803
-0.000195213
0.00223833
-0.000192628
0.00225836
-0.000189999
0.00227812
-0.000187329
0.0022976
-0.000184623
0.00231681
-0.000181885
0.00233574
-0.000179116
0.00235438
-0.000176322
0.00237274
-0.000173504
0.00239081
-0.000170667
0.00240859
-0.000167813
0.00242608
-0.000164945
0.00244327
-0.000162066
0.00246017
-0.000159177
0.00247678
-0.000156282
0.00249309
-0.000153383
0.0025091
-0.000150481
0.00252482
-0.00014758
0.00254024
-0.000144679
0.00255536
-0.000141782
0.00257019
-0.00013889
0.00258473
-0.000136004
0.00259897
-0.000133124
0.00261291
-0.000130254
0.00262657
-0.000127392
0.00263993
-0.000124541
0.002653
-0.0001217
0.00266578
-0.00011887
0.00267827
-0.000116052
0.00269047
-0.000113245
0.00270239
-0.00011045
0.00271403
-0.000107666
0.00272537
-0.000104894
0.00273644
-0.000102132
0.00274722
-9.93786e-05
0.00275772
-9.66347e-05
0.00276794
-9.38956e-05
0.00277788
-9.11645e-05
0.00278754
-8.84277e-05
0.00279692
-8.57034e-05
0.00280602
-8.2944e-05
0.00281483
-8.02252e-05
0.00282336
-7.73839e-05
0.00283161
-7.46968e-05
0.00283954
-7.1616e-05
0.00284721
-6.90907e-05
0.00285449
-6.5328e-05
0.00286158
-6.34422e-05
0.00286807
-5.77181e-05
0.00287462
-5.80305e-05
-4.63219e-05
0.00215084
-0.0002261
0.00217168
-0.000223504
0.00219229
-0.000220842
0.00221266
-0.000218118
0.00223278
-0.000215336
0.00225265
-0.000212501
0.00227227
-0.000209617
0.00229163
-0.000206688
0.00231072
-0.000203719
0.00232955
-0.000200713
0.00234811
-0.000197674
0.0023664
-0.000194607
0.0023844
-0.000191514
0.00240214
-0.000188399
0.00241959
-0.000185265
0.00243676
-0.000182115
0.00245364
-0.000178953
0.00247025
-0.00017578
0.00248657
-0.0001726
0.0025026
-0.000169415
0.00251834
-0.000166228
0.0025338
-0.00016304
0.00254898
-0.000159853
0.00256387
-0.00015667
0.00257847
-0.000153492
0.00259278
-0.00015032
0.00260682
-0.000147156
0.00262056
-0.000144002
0.00263403
-0.000140857
0.00264721
-0.000137723
0.00266011
-0.000134601
0.00267273
-0.000131491
0.00268508
-0.000128393
0.00269714
-0.000125308
0.00270893
-0.000122236
0.00272044
-0.000119177
0.00273167
-0.000116129
0.00274263
-0.000113093
0.00275332
-0.000110067
0.00276374
-0.00010705
0.00277388
-0.000104039
0.00278375
-0.000101037
0.00279335
-9.8028e-05
0.00280268
-9.50328e-05
0.00281174
-9.19988e-05
0.00282052
-8.90096e-05
0.00282902
-8.58847e-05
0.00283726
-8.29305e-05
0.00284518
-7.95406e-05
0.00285286
-7.6766e-05
0.00286015
-7.26226e-05
0.00286726
-7.05561e-05
0.00287379
-6.42479e-05
0.00288038
-6.46128e-05
-5.17164e-05
0.00216884
-0.000246653
0.00218918
-0.000243842
0.0022093
-0.000240957
0.00222918
-0.000238005
0.00224884
-0.000234989
0.00226825
-0.000231915
0.00228742
-0.000228788
0.00230635
-0.000225611
0.00232502
-0.00022239
0.00234343
-0.000219129
0.00236159
-0.000215831
0.00237949
-0.000212502
0.00239712
-0.000209145
0.00241448
-0.000205763
0.00243157
-0.00020236
0.0024484
-0.00019894
0.00246495
-0.000195506
0.00248123
-0.00019206
0.00249724
-0.000188606
0.00251297
-0.000185147
0.00252843
-0.000181685
0.00254361
-0.000178221
0.00255852
-0.000174759
0.00257315
-0.000171301
0.0025875
-0.000167848
0.00260158
-0.000164402
0.00261539
-0.000160964
0.00262893
-0.000157536
0.00264219
-0.000154118
0.00265518
-0.000150713
0.0026679
-0.00014732
0.00268034
-0.00014394
0.00269252
-0.000140573
0.00270444
-0.00013722
0.00271608
-0.000133881
0.00272746
-0.000130556
0.00273857
-0.000127243
0.00274943
-0.000123943
0.00276001
-0.000120654
0.00277034
-0.000117375
0.0027804
-0.000114102
0.0027902
-0.000110838
0.00279974
-0.000107567
0.00280902
-0.00010431
0.00281803
-0.000101011
0.00282678
-9.77616e-05
0.00283526
-9.43629e-05
0.00284348
-9.11515e-05
0.0028514
-8.74626e-05
0.00285908
-8.44482e-05
0.0028664
-7.99355e-05
0.00287354
-7.76972e-05
0.00288011
-7.08208e-05
0.00288674
-7.12438e-05
-5.71939e-05
0.00218821
-0.000266654
0.002208
-0.000263639
0.00222759
-0.000260544
0.00224696
-0.000257376
0.00226611
-0.000254139
0.00228503
-0.000250838
0.00230373
-0.000247479
0.00232218
-0.000244067
0.0023404
-0.000240606
0.00235837
-0.000237101
0.0023761
-0.000233558
0.00239357
-0.000229979
0.0024108
-0.000226369
0.00242777
-0.000222733
0.00244448
-0.000219074
0.00246094
-0.000215395
0.00247713
-0.000211701
0.00249307
-0.000207995
0.00250874
-0.000204279
0.00252415
-0.000200557
0.0025393
-0.000196832
0.00255418
-0.000193105
0.0025688
-0.00018938
0.00258316
-0.000185658
0.00259725
-0.000181941
0.00261108
-0.000178232
0.00262465
-0.000174532
0.00263796
-0.000170842
0.002651
-0.000167163
0.00266378
-0.000163497
0.00267631
-0.000159844
0.00268858
-0.000156206
0.00270058
-0.000152581
0.00271233
-0.000148972
0.00272383
-0.000145377
0.00273507
-0.000141797
0.00274606
-0.00013823
0.00275679
-0.000134677
0.00276727
-0.000131135
0.0027775
-0.000127604
0.00278748
-0.00012408
0.00279721
-0.000120565
0.00280668
-0.000117042
0.00281591
-0.000113536
0.00282488
-0.000109982
0.0028336
-0.000106482
0.00284206
-0.00010282
0.00285027
-9.93622e-05
0.00285819
-9.53854e-05
0.00286588
-9.21416e-05
0.00287322
-8.72721e-05
0.00288039
-8.48715e-05
0.00288702
-7.74444e-05
0.0028937
-7.79311e-05
-6.27653e-05
0.00220881
-0.000286069
0.00222803
-0.000282863
0.00224706
-0.000279571
0.00226588
-0.000276199
0.0022845
-0.000272753
0.0023029
-0.000269239
0.00232108
-0.000265662
0.00233904
-0.000262027
0.00235677
-0.000258339
0.00237428
-0.000254605
0.00239154
-0.000250827
0.00240858
-0.000247012
0.00242537
-0.000243163
0.00244192
-0.000239285
0.00245823
-0.000235383
0.0024743
-0.000231459
0.00249011
-0.000227518
0.00250568
-0.000223564
0.002521
-0.000219599
0.00253607
-0.000215627
0.00255089
-0.000211651
0.00256546
-0.000207674
0.00257978
-0.000203697
0.00259384
-0.000199724
0.00260766
-0.000195757
0.00262123
-0.000191797
0.00263454
-0.000187847
0.00264761
-0.000183907
0.00266042
-0.00017998
0.00267299
-0.000176065
0.00268531
-0.000172165
0.00269739
-0.00016828
0.00270922
-0.00016441
0.0027208
-0.000160555
0.00273214
-0.000156716
0.00274323
-0.000152893
0.00275409
-0.000149084
0.0027647
-0.000145289
0.00277507
-0.000141507
0.0027852
-0.000137736
0.0027951
-0.000133971
0.00280475
-0.000130217
0.00281416
-0.000126454
0.00282333
-0.000122708
0.00283226
-0.000118912
0.00284095
-0.000115173
0.00284939
-0.00011126
0.0028576
-0.000107566
0.00286553
-0.000103313
0.00287324
-9.98514e-05
0.0028806
-9.46386e-05
0.00288782
-9.20861e-05
0.0028945
-8.41267e-05
0.00290125
-8.46834e-05
-6.8442e-05
0.00223052
-0.000304866
0.00224914
-0.000301482
0.00226758
-0.000298007
0.00228583
-0.000294446
0.00230388
-0.000290805
0.00232173
-0.000287091
0.00233938
-0.000283309
0.00235682
-0.000279466
0.00237404
-0.000275565
0.00239105
-0.000271614
0.00240784
-0.000267617
0.00242441
-0.000263579
0.00244075
-0.000259505
0.00245686
-0.000255399
0.00247275
-0.000251267
0.0024884
-0.000247112
0.00250382
-0.000242938
0.00251901
-0.000238749
0.00253396
-0.000234549
0.00254867
-0.000230341
0.00256315
-0.000226128
0.00257739
-0.000221913
0.00259139
-0.000217699
0.00260515
-0.000213488
0.00261868
-0.000209283
0.00263197
-0.000205086
0.00264502
-0.000200899
0.00265783
-0.000196722
0.00267041
-0.000192559
0.00268276
-0.000188409
0.00269486
-0.000184274
0.00270674
-0.000180155
0.00271838
-0.000176052
0.00272979
-0.000171965
0.00274097
-0.000167895
0.00275192
-0.000163841
0.00276264
-0.000159802
0.00277312
-0.000155778
0.00278338
-0.000151767
0.00279342
-0.000147768
0.00280322
-0.000143776
0.0028128
-0.000139795
0.00282215
-0.000135804
0.00283127
-0.000131831
0.00284016
-0.000127804
0.00284883
-0.000123838
0.00285725
-0.000119685
0.00286546
-0.000115768
0.00287339
-0.000111252
0.00288113
-0.000107584
0.00288853
-0.000102042
0.00289579
-9.93486e-05
0.00290254
-9.08771e-05
0.00290937
-9.15101e-05
-7.42359e-05
0.00225322
-0.000323018
0.00227121
-0.000319472
0.00228903
-0.000315827
0.00230667
-0.000312091
0.00232414
-0.00030827
0.00234142
-0.000304371
0.00235851
-0.000300399
0.00237541
-0.000296361
0.0023921
-0.000292263
0.0024086
-0.00028811
0.00242489
-0.000283908
0.00244097
-0.000279661
0.00245684
-0.000275377
0.0024725
-0.000271058
0.00248794
-0.00026671
0.00250317
-0.000262338
0.00251818
-0.000257945
0.00253296
-0.000253536
0.00254753
-0.000249114
0.00256187
-0.000244684
0.00257599
-0.000240248
0.00258989
-0.00023581
0.00260356
-0.000231373
0.00261701
-0.000226938
0.00263024
-0.00022251
0.00264324
-0.000218089
0.00265602
-0.000213678
0.00266858
-0.000209279
0.00268091
-0.000204893
0.00269303
-0.000200522
0.00270492
-0.000196166
0.00271659
-0.000191826
0.00272804
-0.000187503
0.00273927
-0.000183197
0.00275029
-0.000178909
0.00276108
-0.000174637
0.00277166
-0.000170382
0.00278203
-0.000166142
0.00279218
-0.000161915
0.00280211
-0.000157702
0.00281183
-0.000153495
0.00282133
-0.000149299
0.00283062
-0.000145093
0.0028397
-0.000140906
0.00284855
-0.000136661
0.0028572
-0.000132482
0.00286561
-0.000128102
0.00287382
-0.000123975
0.00288178
-0.000119209
0.00288954
-0.000115347
0.00289699
-0.000109491
0.00290431
-0.000106668
0.00291114
-9.77054e-05
0.00291805
-9.84215e-05
-8.01599e-05
0.00227676
-0.000340504
0.0022941
-0.000336809
0.00231128
-0.00033301
0.0023283
-0.000329114
0.00234516
-0.000325129
0.00236185
-0.000321059
0.00237836
-0.000316913
0.0023947
-0.000312696
0.00241085
-0.000308414
0.00242681
-0.000304075
0.00244259
-0.000299682
0.00245817
-0.000295243
0.00247356
-0.000290763
0.00248874
-0.000286246
0.00250373
-0.000281698
0.00251852
-0.000277123
0.0025331
-0.000272526
0.00254747
-0.000267912
0.00256165
-0.000263284
0.00257561
-0.000258647
0.00258936
-0.000254003
0.00260291
-0.000249356
0.00261625
-0.00024471
0.00262937
-0.000240066
0.00264229
-0.000235429
0.002655
-0.000230799
0.0026675
-0.000226179
0.0026798
-0.000221571
0.00269188
-0.000216977
0.00270376
-0.000212398
0.00271543
-0.000207835
0.00272689
-0.000203289
0.00273815
-0.000198761
0.0027492
-0.00019425
0.00276005
-0.000189757
0.00277069
-0.000185282
0.00278114
-0.000180824
0.00279138
-0.000176382
0.00280141
-0.000171953
0.00281125
-0.000167538
0.00282088
-0.00016313
0.00283032
-0.000158734
0.00283955
-0.000154326
0.00284858
-0.000149938
0.00285741
-0.000145489
0.00286604
-0.000141109
0.00287445
-0.000136517
0.00288267
-0.000132192
0.00289065
-0.000127191
0.00289846
-0.000123148
0.00290596
-0.000116995
0.00291335
-0.000114054
0.00292026
-0.000104623
0.00292727
-0.000105429
-8.62277e-05
0.002301
0.00231766
-0.000353476
0.00233419
-0.000349539
0.00235058
-0.000345499
0.00236681
-0.000341364
0.00238289
-0.00033714
0.00239881
-0.000332835
0.00241457
-0.000328455
0.00243016
-0.000324006
0.00244559
-0.000319495
0.00246083
-0.000314929
0.0024759
-0.000310312
0.00249079
-0.000305652
0.0025055
-0.000300952
0.00252002
-0.000296219
0.00253435
-0.000291458
0.0025485
-0.000286673
0.00256246
-0.000281869
0.00257622
-0.00027705
0.0025898
-0.000272221
0.00260318
-0.000267384
0.00261637
-0.000262544
0.00262936
-0.000257704
0.00264216
-0.000252867
0.00265477
-0.000248035
0.00266718
-0.000243211
0.0026794
-0.000238397
0.00269142
-0.000233596
0.00270325
-0.000228809
0.00271489
-0.000224037
0.00272634
-0.000219282
0.00273759
-0.000214544
0.00274866
-0.000209824
0.00275953
-0.000205123
0.00277021
-0.000200441
0.00278071
-0.000195776
0.00279101
-0.00019113
0.00280113
-0.000186499
0.00281106
-0.000181883
0.0028208
-0.000177282
0.00283036
-0.000172686
0.00283973
-0.000168103
0.00284891
-0.000163508
0.00285791
-0.000158934
0.00286671
-0.000154294
0.00287533
-0.000149728
0.00288375
-0.000144937
0.00289199
-0.000140429
0.00290001
-0.000135207
0.00290785
-0.000130998
0.00291542
-0.000124564
0.00292289
-0.000121518
0.00292991
-0.000111642
0.00293702
-0.000112545
-9.24534e-05
0.00234177
-0.000369459
0.00235763
-0.0003654
0.00237336
-0.000361232
0.00238896
-0.000356964
0.00240442
-0.000352602
0.00241974
-0.000348154
0.00243492
-0.000343627
0.00244994
-0.000339027
0.0024648
-0.000334362
0.00247951
-0.000329637
0.00249406
-0.00032486
0.00250844
-0.000320035
0.00252266
-0.000315169
0.00253671
-0.000310268
0.00255059
-0.000305336
0.00256429
-0.000300379
0.00257782
-0.000295401
0.00259118
-0.000290407
0.00260436
-0.000285401
0.00261737
-0.000280388
0.00263019
-0.00027537
0.00264284
-0.000270352
0.00265531
-0.000265336
0.0026676
-0.000260326
0.00267971
-0.000255324
0.00269165
-0.000250332
0.0027034
-0.000245352
0.00271498
-0.000240387
0.00272638
-0.000235437
0.0027376
-0.000230505
0.00274865
-0.000225591
0.00275952
-0.000220695
0.00277022
-0.000215819
0.00278074
-0.000210961
0.00279109
-0.000206123
0.00280126
-0.000201303
0.00281126
-0.000196499
0.00282109
-0.000191711
0.00283074
-0.000186936
0.00284022
-0.000182169
0.00284953
-0.000177414
0.00285867
-0.000172646
0.00286764
-0.0001679
0.00287643
-0.000163084
0.00288505
-0.000158346
0.00289348
-0.000153372
0.00290175
-0.000148696
0.00290981
-0.000143268
0.00291772
-0.000138907
0.00292536
-0.00013221
0.00293292
-0.000129072
0.00294005
-0.000118775
0.00294729
-0.000119783
-9.88525e-05
0.00236626
-0.000384749
0.00238145
-0.000380584
0.00239652
-0.000376305
0.00241148
-0.000371921
0.00242631
-0.000367437
0.00244102
-0.000362863
0.0024556
-0.000358206
0.00247005
-0.000353472
0.00248435
-0.000348669
0.00249852
-0.000343803
0.00251254
-0.00033888
0.00252641
-0.000333908
0.00254014
-0.000328893
0.00255371
-0.000323839
0.00256712
-0.000318753
0.00258039
-0.00031364
0.00259349
-0.000308505
0.00260643
-0.000303352
0.00261922
-0.000298187
0.00263184
-0.000293012
0.00264431
-0.000287833
0.00265661
-0.000282653
0.00266875
-0.000277475
0.00268072
-0.000272302
0.00269254
-0.000267137
0.00270419
-0.000261983
0.00271568
-0.000256841
0.002727
-0.000251713
0.00273817
-0.000246602
0.00274917
-0.000241508
0.00276001
-0.000236433
0.00277069
-0.000231377
0.00278122
-0.000226341
0.00279158
-0.000221324
0.00280178
-0.000216327
0.00281183
-0.000211348
0.00282172
-0.000206387
0.00283145
-0.000201441
0.00284102
-0.00019651
0.00285044
-0.000191585
0.0028597
-0.000186674
0.0028688
-0.000181748
0.00287775
-0.000176845
0.00288653
-0.000171869
0.00289516
-0.000166975
0.00290362
-0.000161832
0.00291193
-0.000157003
0.00292004
-0.000151387
0.00292802
-0.000146887
0.00293576
-0.000139945
0.00294342
-0.00013673
0.00295068
-0.000126037
0.00295805
-0.000127157
-0.000105441
0.002391
-0.00039934
0.00240551
-0.000395087
0.00241991
-0.000390714
0.00243422
-0.00038623
0.00244843
-0.000381643
0.00246253
-0.00037696
0.00247651
-0.000372189
0.00249037
-0.000367337
0.00250412
-0.000362413
0.00251774
-0.000357422
0.00253123
-0.000352373
0.00254459
-0.00034727
0.00255782
-0.000342121
0.00257091
-0.000336932
0.00258387
-0.000331709
0.00259669
-0.000326457
0.00260936
-0.000321181
0.0026219
-0.000315886
0.00263429
-0.000310577
0.00264653
-0.000305259
0.00265864
-0.000299935
0.00267059
-0.000294609
0.0026824
-0.000289285
0.00269407
-0.000283966
0.00270558
-0.000278655
0.00271695
-0.000273354
0.00272818
-0.000268066
0.00273926
-0.000262792
0.00275019
-0.000257536
0.00276098
-0.000252296
0.00277162
-0.000247076
0.00278212
-0.000241876
0.00279248
-0.000236696
0.00280269
-0.000231536
0.00281276
-0.000226396
0.00282268
-0.000221274
0.00283247
-0.000216171
0.00284211
-0.000211083
0.00285161
-0.000206011
0.00286097
-0.000200945
0.00287019
-0.000195893
0.00287926
-0.000190825
0.0028882
-0.000185781
0.00289699
-0.00018066
0.00290564
-0.000175625
0.00291414
-0.00017033
0.0029225
-0.000165363
0.00293069
-0.000159574
0.00293875
-0.000154953
0.00294659
-0.000147785
0.00295437
-0.000144505
0.00296177
-0.000133443
0.0029693
-0.000134683
-0.000112236
0.00241583
-0.000413232
0.00242965
-0.000408908
0.0024434
-0.000404459
0.00245706
-0.000399893
0.00247064
-0.000395218
0.00248412
-0.000390444
0.00249751
-0.000385577
0.0025108
-0.000380625
0.00252398
-0.000375597
0.00253706
-0.000370499
0.00255002
-0.000365339
0.00256287
-0.000360123
0.00257561
-0.000354858
0.00258823
-0.000349551
0.00260073
-0.000344207
0.0026131
-0.000338832
0.00262535
-0.000333432
0.00263748
-0.000328012
0.00264948
-0.000322577
0.00266135
-0.000317131
0.0026731
-0.000311679
0.00268471
-0.000306225
0.0026962
-0.000300771
0.00270756
-0.000295323
0.00271878
-0.000289882
0.00272988
-0.000284451
0.00274085
-0.000279034
0.00275169
-0.000273631
0.0027624
-0.000268245
0.00277298
-0.000262877
0.00278343
-0.000257528
0.00279375
-0.0002522
0.00280395
-0.000246892
0.00281402
-0.000241604
0.00282396
-0.000236338
0.00283378
-0.00023109
0.00284346
-0.000225861
0.00285303
-0.000220648
0.00286247
-0.00021545
0.00287178
-0.000210259
0.00288097
-0.000205081
0.00289003
-0.000199888
0.00289897
-0.000194719
0.00290778
-0.00018947
0.00291647
-0.00018431
0.00292501
-0.000178879
0.00293344
-0.00017379
0.00294171
-0.000167847
0.00294988
-0.000163119
0.00295784
-0.000155745
0.00296575
-0.000152414
0.00297332
-0.00014101
0.00298101
-0.000142377
-0.000119255
0.0024406
-0.000426429
0.00245375
-0.000422052
0.00246683
-0.000417543
0.00247985
-0.000412913
0.0024928
-0.000408169
0.00250568
-0.00040332
0.00251848
-0.000398374
0.00253119
-0.00039334
0.00254382
-0.000388225
0.00255636
-0.000383037
0.0025688
-0.000377784
0.00258115
-0.000372472
0.0025934
-0.000367108
0.00260555
-0.0003617
0.0026176
-0.000356253
0.00262954
-0.000350773
0.00264137
-0.000345266
0.0026531
-0.000339738
0.00266472
-0.000334194
0.00267622
-0.000328638
0.00268762
-0.000323074
0.0026989
-0.000317508
0.00271007
-0.000311942
0.00272113
-0.000306381
0.00273207
-0.000300827
0.00274291
-0.000295284
0.00275363
-0.000289753
0.00276423
-0.000284237
0.00277473
-0.000278739
0.00278511
-0.000273258
0.00279538
-0.000267798
0.00280554
-0.000262358
0.00281558
-0.000256939
0.00282552
-0.000251541
0.00283535
-0.000246164
0.00284506
-0.000240807
0.00285467
-0.000235469
0.00286417
-0.000230146
0.00287356
-0.00022484
0.00288284
-0.000219539
0.00289201
-0.000214254
0.00290107
-0.00020895
0.00291003
-0.000203673
0.00291887
-0.000198312
0.0029276
-0.000193043
0.00293622
-0.000187494
0.00294473
-0.000182299
0.0029531
-0.000176219
0.00296138
-0.000171401
0.00296948
-0.000163841
0.00297754
-0.000160474
0.00298528
-0.000148755
0.00299317
-0.000150258
-0.000126518
0.00246517
-0.000438939
0.00247764
-0.000434526
0.00249007
-0.000429976
0.00250246
-0.000425298
0.00251479
-0.000420502
0.00252707
-0.000415597
0.00253929
-0.00041059
0.00255144
-0.000405491
0.00256352
-0.000400307
0.00257553
-0.000395047
0.00258746
-0.000389718
0.00259932
-0.000384327
0.00261109
-0.000378882
0.00262278
-0.00037339
0.00263438
-0.000367857
0.0026459
-0.000362289
0.00265733
-0.000356693
0.00266866
-0.000351074
0.0026799
-0.000345437
0.00269105
-0.000339787
0.00270211
-0.00033413
0.00271307
-0.000328469
0.00272394
-0.000322808