/*--------------------------------*- C++ -*----------------------------------*\
  =========                 |
  \\      /  F ield         | OpenFOAM: The Open Source CFD Toolbox
   \\    /   O peration     | Website:  https://openfoam.org
    \\  /    A nd           | Version:  7
     \\/     M anipulation  |
\*---------------------------------------------------------------------------*/
FoamFile
{
    version     2.0;
    format      ascii;
    class       volVectorField;
    location    "20";
    object      U;
}
// * * * * * * * * * * * * * * * * * * * * * * * * * * * * * * * * * * * * * //

dimensions      [0 1 -1 0 0 0 0];

internalField   nonuniform List<vector> 
2625
(
(1.1498 0.302325 1.89779e-20)
(1.15748 0.301385 -3.25969e-21)
(1.16506 0.300218 -5.36933e-21)
(1.17255 0.298824 -5.86516e-21)
(1.13478 0.297658 1.54421e-20)
(1.14246 0.297236 1.18953e-20)
(1.15007 0.296594 -1.01136e-20)
(1.1576 0.295732 -4.6464e-22)
(1.16505 0.294652 -3.76552e-21)
(1.1724 0.293356 -4.42371e-21)
(1.12776 0.292075 1.76798e-20)
(1.13533 0.291899 -1.10133e-20)
(1.14284 0.291512 -1.35091e-20)
(1.15029 0.290917 -2.94069e-21)
(1.15767 0.290114 1.45142e-20)
(1.16498 0.289104 1.22532e-20)
(1.17219 0.287888 6.5746e-21)
(1.11366 0.286036 1.52505e-20)
(1.1211 0.286272 1.08562e-20)
(1.12852 0.28631 -8.85874e-22)
(1.1359 0.286148 5.05987e-21)
(1.14323 0.285789 3.26264e-21)
(1.15052 0.285233 -1.56195e-21)
(1.15773 0.284481 -4.94674e-22)
(1.16489 0.283534 -5.28935e-21)
(1.17196 0.282392 -7.00062e-22)
(1.10035 0.279333 -4.66674e-21)
(1.10761 0.279918 4.00318e-21)
(1.11487 0.280319 -1.97226e-20)
(1.1221 0.280534 -8.57618e-21)
(1.12932 0.280564 -1.2461e-20)
(1.1365 0.280409 2.23724e-21)
(1.14365 0.280069 5.87604e-21)
(1.15075 0.279545 4.95674e-21)
(1.1578 0.278837 -8.19939e-23)
(1.16479 0.277945 3.5916e-21)
(1.17171 0.27687 -5.98496e-21)
(1.09502 0.273084 2.27681e-21)
(1.10205 0.273778 7.88675e-21)
(1.10909 0.274304 -9.08326e-21)
(1.11612 0.274659 -4.90042e-21)
(1.12314 0.274844 2.50501e-21)
(1.13015 0.274858 -4.29698e-21)
(1.13713 0.2747 -1.3336e-20)
(1.14408 0.274371 -4.51834e-21)
(1.151 0.27387 -4.61575e-21)
(1.15787 0.273197 -7.99155e-21)
(1.16469 0.272353 -2.77329e-21)
(1.17144 0.271337 5.57432e-22)
(1.08342 0.266006 -1.49355e-20)
(1.09019 0.26692 -1.93948e-21)
(1.09698 0.267685 -1.38524e-20)
(1.10378 0.268298 -1.07213e-20)
(1.11059 0.268757 1.88295e-20)
(1.1174 0.269061 2.07656e-20)
(1.12421 0.269209 4.61033e-21)
(1.131 0.269199 6.03122e-21)
(1.13778 0.269031 3.7232e-21)
(1.14454 0.268704 3.60597e-21)
(1.15126 0.268218 8.60208e-21)
(1.15795 0.267573 3.50396e-21)
(1.16459 0.266769 1.6759e-21)
(1.17118 0.265805 9.74364e-21)
(1.07937 0.259956 -1.53088e-20)
(1.08587 0.260889 -2.35941e-20)
(1.09241 0.261691 1.69071e-20)
(1.09896 0.262358 4.43225e-21)
(1.10553 0.262887 2.49146e-21)
(1.11212 0.263277 -5.21924e-22)
(1.11871 0.263525 -1.6927e-20)
(1.1253 0.26363 4.60771e-21)
(1.13188 0.26359 7.2862e-21)
(1.13845 0.263406 1.05477e-20)
(1.145 0.263075 -2.62582e-21)
(1.15153 0.262598 -7.76945e-22)
(1.15803 0.261974 -7.03938e-21)
(1.16449 0.261202 -1.16574e-20)
(1.17091 0.260282 3.63951e-22)
(1.06957 0.253054 -1.12583e-20)
(1.07578 0.254094 5.32322e-21)
(1.08203 0.255021 -1.49174e-20)
(1.08831 0.255833 5.69691e-21)
(1.09462 0.256525 -6.84043e-21)
(1.10094 0.257095 1.70708e-20)
(1.10729 0.257541 1.12787e-20)
(1.11365 0.257859 1.35192e-21)
(1.12002 0.258048 -4.07015e-21)
(1.1264 0.258107 -9.8866e-21)
(1.13277 0.258034 2.88776e-21)
(1.13913 0.257828 4.15811e-21)
(1.14549 0.257489 -8.62293e-21)
(1.15182 0.257014 -6.81615e-21)
(1.15813 0.256405 5.56778e-21)
(1.1644 0.255659 8.4776e-21)
(1.17064 0.254777 -3.35255e-21)
(1.06667 0.247414 -1.78409e-20)
(1.07263 0.24842 2.58681e-20)
(1.07863 0.249326 -2.53262e-21)
(1.08466 0.250129 1.57691e-20)
(1.09072 0.250825 8.20163e-21)
(1.0968 0.251413 -1.14429e-20)
(1.10291 0.251889 -1.76751e-20)
(1.10904 0.252252 -1.54347e-20)
(1.11518 0.252499 -1.26751e-20)
(1.12134 0.252629 2.65886e-20)
(1.1275 0.252641 -2.00651e-21)
(1.13366 0.252532 -1.2607e-20)
(1.13982 0.252301 -4.14452e-21)
(1.14597 0.251948 8.32292e-23)
(1.15211 0.251472 1.2255e-20)
(1.15823 0.250872 -6.87471e-21)
(1.16432 0.250147 7.3499e-22)
(1.17038 0.249296 -4.43994e-21)
(1.05843 0.240894 -3.08461e-21)
(1.06412 0.241952 2.87821e-20)
(1.06986 0.24292 -1.1774e-20)
(1.07562 0.243796 -3.2404e-20)
(1.08141 0.244579 1.15651e-20)
(1.08723 0.245266 -1.18569e-20)
(1.09308 0.245855 9.06032e-24)
(1.09895 0.246344 -5.09359e-21)
(1.10485 0.246731 1.25992e-20)
(1.11077 0.247015 1.79742e-20)
(1.1167 0.247193 2.63041e-21)
(1.12264 0.247265 -1.60474e-20)
(1.1286 0.247228 -4.3689e-21)
(1.13456 0.247082 -3.47722e-21)
(1.14051 0.246824 -4.60123e-21)
(1.14647 0.246456 8.94338e-22)
(1.15241 0.245974 -1.44825e-20)
(1.15834 0.245379 9.74937e-21)
(1.16424 0.24467 -1.74017e-21)
(1.17013 0.243845 4.7036e-21)
(1.05647 0.235614 2.72069e-20)
(1.0619 0.236635 -2.39722e-20)
(1.06741 0.237568 -1.39871e-20)
(1.07295 0.238413 6.68785e-21)
(1.07852 0.239172 3.77625e-20)
(1.08411 0.239842 8.36607e-21)
(1.08974 0.240422 1.09725e-20)
(1.09538 0.240912 1.53622e-20)
(1.10105 0.24131 2.14347e-20)
(1.10675 0.241614 6.5026e-21)
(1.11246 0.241823 -8.68671e-21)
(1.11819 0.241935 4.45838e-21)
(1.12393 0.24195 6.40584e-21)
(1.12968 0.241866 1.22272e-20)
(1.13544 0.241683 1.49927e-20)
(1.1412 0.241398 -2.22076e-21)
(1.14695 0.241011 1.25987e-20)
(1.1527 0.240522 9.57161e-21)
(1.15844 0.239929 -1.55591e-21)
(1.16417 0.239231 -1.67065e-21)
(1.16987 0.238429 -4.9635e-21)
(1.049 0.229373 -5.38426e-21)
(1.05466 0.230446 -1.61966e-20)
(1.06 0.23143 -2.3741e-20)
(1.06526 0.232333 2.87353e-20)
(1.07059 0.233152 4.40324e-21)
(1.07595 0.233887 -1.54526e-20)
(1.08133 0.234538 -1.51553e-20)
(1.08673 0.235106 -9.48446e-21)
(1.09216 0.23559 -1.24703e-20)
(1.09762 0.235989 4.25461e-22)
(1.1031 0.236303 -3.26581e-21)
(1.10859 0.23653 -8.34032e-22)
(1.11411 0.236669 -1.45726e-21)
(1.11964 0.23672 -1.47431e-21)
(1.12518 0.236681 -1.70027e-21)
(1.13074 0.236553 4.74864e-21)
(1.1363 0.236332 -7.21993e-21)
(1.14186 0.23602 -3.70629e-21)
(1.14743 0.235615 -1.36604e-20)
(1.15299 0.235116 -1.88962e-21)
(1.15855 0.234523 2.62183e-22)
(1.16409 0.233834 7.51829e-22)
(1.16962 0.233049 7.79482e-24)
(1.05278 0.225355 -2.34723e-22)
(1.05824 0.226317 -7.17281e-21)
(1.06341 0.22719 -3.63628e-21)
(1.0685 0.227986 -1.90042e-20)
(1.07365 0.228701 1.32439e-20)
(1.07884 0.229336 1.62274e-21)
(1.08404 0.229891 -1.60387e-21)
(1.08926 0.230366 1.68354e-20)
(1.09451 0.230763 1.24855e-20)
(1.09978 0.231079 -1.62563e-20)
(1.10507 0.231316 -6.90266e-21)
(1.11038 0.231472 -5.62312e-21)
(1.1157 0.231548 3.88901e-21)
(1.12104 0.231542 -7.50004e-21)
(1.1264 0.231454 -4.5933e-21)
(1.13176 0.231282 -1.70994e-20)
(1.13713 0.231028 4.74273e-21)
(1.14251 0.230689 -3.24923e-22)
(1.14789 0.230265 5.45948e-21)
(1.15327 0.229756 -2.03185e-21)
(1.15865 0.229161 -2.42203e-22)
(1.16401 0.228479 -4.12275e-21)
(1.16937 0.22771 3.70007e-21)
(1.05642 0.221265 1.12486e-20)
(1.06169 0.222123 8.47879e-21)
(1.06669 0.222896 -1.58286e-21)
(1.07162 0.223594 3.03012e-20)
(1.0766 0.224214 -1.4752e-20)
(1.08161 0.224757 1.5489e-20)
(1.08664 0.225225 -1.56392e-20)
(1.09169 0.225617 -2.93833e-20)
(1.09676 0.225934 1.20817e-20)
(1.10185 0.226177 8.24099e-21)
(1.10696 0.226344 6.36159e-21)
(1.11209 0.226437 -4.68318e-22)
(1.11723 0.226454 -1.77688e-20)
(1.12239 0.226396 5.74663e-21)
(1.12756 0.226262 4.51612e-21)
(1.13274 0.226052 6.90948e-21)
(1.13793 0.225765 -3.974e-21)
(1.14313 0.225402 8.54738e-21)
(1.14833 0.224961 -4.44599e-21)
(1.15353 0.224441 2.9117e-21)
(1.15873 0.223844 4.95722e-21)
(1.16392 0.223167 9.22092e-21)
(1.16911 0.222411 -1.84617e-21)
(1.05992 0.217106 1.60727e-20)
(1.06501 0.217867 -1.03314e-21)
(1.06985 0.218547 -6.58926e-22)
(1.07461 0.219155 -1.78865e-20)
(1.07943 0.21969 1.34686e-20)
(1.08428 0.22015 -8.20384e-21)
(1.08914 0.220539 2.23529e-20)
(1.09402 0.220856 1.42154e-20)
(1.09892 0.221102 -1.14748e-20)
(1.10384 0.221277 8.90068e-21)
(1.10877 0.221383 1.24623e-21)
(1.11373 0.221418 2.02463e-22)
(1.1187 0.221383 1.56947e-20)
(1.12368 0.221278 -6.07405e-21)
(1.12867 0.221103 -8.03005e-21)
(1.13368 0.220858 -1.3301e-21)
(1.13869 0.220542 -6.58574e-21)
(1.14371 0.220156 6.30591e-21)
(1.14874 0.219698 5.92015e-21)
(1.15377 0.21917 -1.02269e-21)
(1.15879 0.218569 -8.6569e-21)
(1.16382 0.217897 -3.99052e-21)
(1.06328 0.21288 -2.7424e-20)
(1.06819 0.213552 1.80811e-20)
(1.07287 0.214147 2.56984e-20)
(1.07748 0.214673 -7.88515e-21)
(1.08214 0.215128 3.6504e-21)
(1.08682 0.215514 1.89116e-20)
(1.09152 0.215831 9.56884e-21)
(1.09624 0.21608 -8.27292e-21)
(1.10098 0.216263 -2.90064e-21)
(1.10573 0.216378 -1.7051e-20)
(1.1105 0.216428 -1.45588e-20)
(1.11528 0.216412 1.58088e-21)
(1.12008 0.216331 -1.00781e-20)
(1.1249 0.216184 1.44211e-20)
(1.12972 0.215972 9.09063e-21)
(1.13456 0.215696 -6.92614e-21)
(1.1394 0.215354 2.11029e-21)
(1.14426 0.214948 -6.0408e-21)
(1.14911 0.214476 -6.88646e-22)
(1.15397 0.213939 -4.35882e-21)
(1.15884 0.213337 -1.47548e-21)
(1.1637 0.212668 -4.6638e-21)
(1.0665 0.208592 8.22192e-21)
(1.07124 0.209182 -1.95428e-20)
(1.07576 0.209697 -2.33149e-21)
(1.08022 0.210148 1.68496e-20)
(1.08472 0.210531 1.26341e-21)
(1.08925 0.210849 -6.13995e-22)
(1.09379 0.211101 -1.82728e-20)
(1.09835 0.21129 7.3964e-21)
(1.10293 0.211415 -3.38005e-21)
(1.10752 0.211477 1.22323e-21)
(1.11213 0.211478 1.42324e-20)
(1.11676 0.211416 -6.24143e-21)
(1.12139 0.211294 -9.03398e-21)
(1.12604 0.211111 -1.22333e-20)
(1.13071 0.210867 2.9171e-21)
(1.13538 0.210563 1.33133e-20)
(1.14006 0.210199 1.38801e-20)
(1.14475 0.209775 -3.61581e-21)
(1.14945 0.209291 -5.00781e-22)
(1.15415 0.208747 4.26241e-21)
(1.15885 0.208144 7.47461e-21)
(1.16355 0.20748 2.63083e-21)
(1.06958 0.204245 -3.67493e-21)
(1.07415 0.204758 -6.25785e-21)
(1.07851 0.205201 -7.78444e-21)
(1.08282 0.205582 4.73044e-21)
(1.08717 0.205901 -9.17308e-21)
(1.09155 0.206156 -2.32601e-20)
(1.09594 0.206351 5.21557e-21)
(1.10035 0.206485 -8.7497e-21)
(1.10477 0.206559 1.13779e-20)
(1.10921 0.206574 1.07375e-20)
(1.11367 0.20653 -1.11807e-20)
(1.11814 0.206429 -3.51466e-23)
(1.12262 0.206271 1.35243e-20)
(1.12712 0.206055 4.76478e-21)
(1.13162 0.205784 -8.41621e-21)
(1.13614 0.205456 -6.64676e-21)
(1.14066 0.205073 -1.04224e-20)
(1.1452 0.204635 -1.72235e-21)
(1.14974 0.204141 2.08031e-21)
(1.15428 0.203592 1.69455e-21)
(1.15883 0.202988 -7.76658e-21)
(1.16338 0.202329 -1.21978e-21)
(1.07252 0.199843 -1.15179e-20)
(1.07692 0.200285 6.2792e-21)
(1.08114 0.200661 -8.40513e-21)
(1.0853 0.200979 -2.63964e-20)
(1.0895 0.201238 -9.22285e-21)
(1.09373 0.201438 9.3755e-21)
(1.09798 0.20158 -1.09564e-21)
(1.10224 0.201665 -1.03259e-21)
(1.10651 0.201693 -2.77903e-21)
(1.1108 0.201666 -4.80125e-21)
(1.11511 0.201584 1.43461e-20)
(1.11943 0.201448 1.39685e-21)
(1.12376 0.201259 -1.28124e-21)
(1.12811 0.201016 2.92084e-21)
(1.13246 0.200721 5.05528e-21)
(1.13683 0.200373 1.93747e-21)
(1.14121 0.199974 -4.06916e-21)
(1.14559 0.199524 5.99087e-21)
(1.14998 0.199023 -6.88357e-21)
(1.15438 0.19847 -3.91534e-21)
(1.15877 0.197868 6.30976e-21)
(1.16318 0.197214 -9.48036e-22)
(1.07531 0.195389 2.7105e-20)
(1.07955 0.195766 4.1254e-21)
(1.08362 0.196081 7.11395e-21)
(1.08765 0.196342 1.18808e-21)
(1.09171 0.196546 1.08859e-20)
(1.09579 0.196695 1.32541e-20)
(1.09989 0.19679 5.28609e-21)
(1.10401 0.196831 -5.98513e-21)
(1.10814 0.196819 -5.18262e-21)
(1.11229 0.196755 4.60758e-21)
(1.11645 0.196639 -6.83879e-21)
(1.12063 0.196473 1.40199e-20)
(1.12482 0.196257 1.80807e-21)
(1.12902 0.19599 2.89378e-21)
(1.13323 0.195675 8.88349e-21)
(1.13745 0.195312 1.20778e-21)
(1.14168 0.1949 1.02076e-20)
(1.14592 0.194441 -3.25447e-21)
(1.15017 0.193934 1.82497e-21)
(1.15442 0.193381 1.56402e-22)
(1.15868 0.192781 8.89621e-22)
(1.16294 0.192134 5.57972e-22)
(1.07796 0.190888 -7.93704e-21)
(1.08204 0.191205 2.12858e-21)
(1.08597 0.191464 -7.48811e-21)
(1.08986 0.191672 2.16986e-20)
(1.09378 0.191827 1.79848e-21)
(1.09773 0.19193 -9.35134e-21)
(1.10169 0.191983 2.01368e-21)
(1.10567 0.191985 2.12739e-20)
(1.10967 0.191937 -2.16668e-21)
(1.11367 0.19184 -1.05814e-20)
(1.1177 0.191695 -3.17629e-22)
(1.12173 0.191503 -2.15028e-20)
(1.12578 0.191264 -3.93108e-21)
(1.12985 0.190978 -5.18991e-21)
(1.13392 0.190646 -2.51783e-21)
(1.138 0.190269 -6.60829e-21)
(1.1421 0.189848 -9.82189e-21)
(1.1462 0.189382 -3.78874e-21)
(1.15031 0.188873 5.00592e-21)
(1.15442 0.18832 3.53886e-21)
(1.15854 0.187724 -8.67254e-22)
(1.16267 0.187086 -2.73852e-22)
(1.08046 0.186343 1.87961e-21)
(1.0844 0.186606 1.24772e-20)
(1.08819 0.186813 -6.04388e-21)
(1.09194 0.186973 -2.77868e-20)
(1.09573 0.187084 3.06332e-21)
(1.09954 0.187146 9.04012e-21)
(1.10337 0.18716 -1.00196e-20)
(1.10722 0.187127 -3.56811e-21)
(1.11108 0.187048 1.21576e-20)
(1.11495 0.186923 1.58262e-20)
(1.11884 0.186753 -5.12212e-21)
(1.12275 0.186538 1.79205e-20)
(1.12666 0.186279 4.71506e-21)
(1.13059 0.185977 -3.59352e-21)
(1.13453 0.185632 -5.40181e-21)
(1.13848 0.185246 1.43759e-21)
(1.14244 0.184817 4.89093e-21)
(1.14641 0.184348 3.82851e-21)
(1.15039 0.183838 3.88644e-21)
(1.15437 0.183287 -3.36658e-21)
(1.15836 0.182697 -3.16174e-21)
(1.16235 0.182068 -4.22987e-22)
(1.08282 0.181758 -3.07594e-21)
(1.08661 0.18197 -2.72311e-20)
(1.09027 0.182131 1.63446e-20)
(1.09389 0.182248 2.21628e-21)
(1.09755 0.182318 -2.00021e-20)
(1.10124 0.182343 -8.41937e-21)
(1.10494 0.182324 -8.85042e-21)
(1.10865 0.18226 -1.09558e-20)
(1.11238 0.182153 3.14848e-21)
(1.11613 0.182003 -1.90611e-20)
(1.11989 0.181811 1.20273e-20)
(1.12366 0.181578 -5.08119e-21)
(1.12745 0.181303 1.62698e-21)
(1.13125 0.180988 6.594e-21)
(1.13506 0.180633 -4.90598e-21)
(1.13889 0.180239 -1.305e-22)
(1.14272 0.179806 2.09504e-21)
(1.14656 0.179335 -4.72013e-21)
(1.15041 0.178826 -5.71844e-21)
(1.15427 0.17828 4.68909e-21)
(1.15813 0.177697 5.58443e-21)
(1.162 0.177078 1.99295e-21)
(1.08504 0.177136 3.44986e-21)
(1.08869 0.177303 1.40235e-20)
(1.09221 0.177422 -1.21848e-20)
(1.09572 0.177499 1.01019e-20)
(1.09925 0.177533 -1.29291e-21)
(1.10281 0.177525 -2.8146e-22)
(1.10638 0.177476 9.52369e-21)
(1.10997 0.177385 1.28299e-20)
(1.11358 0.177254 -1.53703e-20)
(1.1172 0.177083 6.36677e-21)
(1.12084 0.176872 -1.17831e-20)
(1.12449 0.176623 3.87565e-21)
(1.12815 0.176335 -3.16437e-22)
(1.13183 0.17601 -6.50269e-21)
(1.13552 0.175647 6.23333e-21)
(1.13922 0.175248 -1.87479e-21)
(1.14293 0.174813 2.85916e-21)
(1.14665 0.174343 9.65375e-21)
(1.15037 0.173837 3.51634e-21)
(1.15411 0.173297 -3.84189e-21)
(1.15785 0.172723 -1.26255e-21)
(1.1616 0.172115 7.53073e-23)
(1.08711 0.172482 -9.98928e-21)
(1.09062 0.172607 -6.91505e-21)
(1.09403 0.172688 3.58224e-21)
(1.09741 0.172729 9.2297e-21)
(1.10082 0.172731 3.81845e-21)
(1.10426 0.172694 -9.21218e-21)
(1.10771 0.172618 5.26307e-21)
(1.11118 0.172503 -5.38853e-21)
(1.11467 0.172351 6.45087e-21)
(1.11817 0.172162 6.49456e-21)
(1.12169 0.171936 9.53513e-21)
(1.12522 0.171673 -6.04819e-21)
(1.12876 0.171375 -5.42862e-21)
(1.13232 0.171042 5.45039e-21)
(1.13589 0.170675 8.73884e-22)
(1.13947 0.170273 3.41302e-21)
(1.14307 0.169838 -5.51834e-21)
(1.14667 0.16937 -2.69935e-21)
(1.15028 0.168869 -2.6496e-21)
(1.1539 0.168336 2.91234e-21)
(1.15752 0.167772 -4.57706e-21)
(1.16116 0.167176 2.32108e-21)
(1.08904 0.167797 1.21775e-20)
(1.09242 0.167885 1.85369e-20)
(1.09571 0.167931 8.40401e-21)
(1.09897 0.167941 -3.91041e-21)
(1.10227 0.167914 1.17455e-20)
(1.10559 0.167851 5.2002e-21)
(1.10893 0.167752 -7.16812e-21)
(1.11228 0.167617 -1.64544e-21)
(1.11565 0.167446 3.3461e-21)
(1.11904 0.167242 -3.74583e-21)
(1.12244 0.167003 -7.90774e-21)
(1.12586 0.16673 2.64966e-21)
(1.12929 0.166424 -2.69026e-21)
(1.13273 0.166086 -1.74465e-21)
(1.13619 0.165715 -3.04659e-21)
(1.13966 0.165313 1.02772e-21)
(1.14314 0.16488 2.16378e-21)
(1.14663 0.164415 -6.37978e-21)
(1.15013 0.163921 -1.92875e-21)
(1.15363 0.163397 -5.13664e-21)
(1.15715 0.162843 1.55881e-21)
(1.16067 0.162261 -5.14663e-21)
(1.09083 0.163086 -1.09522e-20)
(1.09409 0.16314 -1.19732e-20)
(1.09726 0.163155 -9.69629e-21)
(1.10041 0.163137 1.72372e-21)
(1.10359 0.163085 2.55924e-21)
(1.1068 0.162999 -4.02805e-21)
(1.11003 0.162879 6.77756e-21)
(1.11327 0.162726 -7.9012e-21)
(1.11653 0.162541 -2.88226e-21)
(1.11981 0.162323 4.2009e-21)
(1.1231 0.162074 -8.85469e-21)
(1.1264 0.161793 5.40861e-21)
(1.12973 0.161482 -5.84506e-21)
(1.13306 0.16114 8.04333e-21)
(1.13641 0.160768 2.61911e-21)
(1.13977 0.160367 -1.45581e-21)
(1.14314 0.159937 -2.46877e-22)
(1.14652 0.159479 5.4189e-21)
(1.14991 0.158992 -8.30089e-22)
(1.15331 0.158478 1.71603e-21)
(1.15672 0.157936 2.69824e-21)
(1.16013 0.157368 1.9174e-21)
(1.09248 0.15835 4.16497e-21)
(1.09562 0.158374 5.65301e-22)
(1.09868 0.158362 -4.2159e-21)
(1.10172 0.158319 -1.04136e-20)
(1.1048 0.158245 -1.97413e-20)
(1.1079 0.158139 1.96374e-20)
(1.11102 0.158001 -2.01198e-21)
(1.11415 0.157834 1.03931e-20)
(1.11731 0.157635 6.3491e-22)
(1.12048 0.157407 5.30557e-21)
(1.12366 0.15715 1.89841e-20)
(1.12686 0.156863 -8.34086e-21)
(1.13008 0.156548 1.26975e-20)
(1.13331 0.156205 -4.84749e-21)
(1.13655 0.155834 -1.19854e-20)
(1.13981 0.155436 1.64023e-21)
(1.14308 0.15501 3.23761e-22)
(1.14635 0.154559 -3.13123e-21)
(1.14964 0.154081 4.44216e-21)
(1.15294 0.153578 -2.65823e-22)
(1.15624 0.153049 2.15082e-21)
(1.15956 0.152496 -2.00471e-21)
(1.09399 0.153593 5.98705e-21)
(1.09702 0.15359 -1.15379e-21)
(1.09997 0.153555 1.84374e-20)
(1.10291 0.15349 5.02057e-21)
(1.10588 0.153396 1.5999e-20)
(1.10888 0.153272 -1.00284e-20)
(1.1119 0.15312 8.50791e-22)
(1.11493 0.15294 -7.01899e-21)
(1.11798 0.152731 1.81063e-21)
(1.12105 0.152495 -1.44937e-20)
(1.12413 0.152231 -1.56757e-20)
(1.12723 0.151941 -1.40953e-21)
(1.13035 0.151624 4.04604e-21)
(1.13348 0.151281 3.96595e-21)
(1.13662 0.150912 1.06944e-20)
(1.13978 0.150518 3.53694e-21)
(1.14295 0.150099 2.95217e-21)
(1.14612 0.149655 -2.8276e-22)
(1.14931 0.149187 -2.24489e-21)
(1.15251 0.148696 1.47273e-21)
(1.15572 0.148181 -2.95827e-22)
(1.15893 0.147643 2.12919e-22)
(1.09537 0.148818 -9.84396e-21)
(1.09829 0.148791 -2.36414e-21)
(1.10114 0.148734 -1.46858e-20)
(1.10398 0.14865 -6.11403e-21)
(1.10686 0.148539 -6.3298e-21)
(1.10975 0.148402 -5.44188e-21)
(1.11267 0.148237 -8.11419e-21)
(1.11561 0.148046 -6.42951e-21)
(1.11856 0.147829 -4.76429e-21)
(1.12153 0.147587 9.8111e-21)
(1.12452 0.147319 1.10492e-20)
(1.12752 0.147026 5.18898e-21)
(1.13054 0.146709 -1.00338e-20)
(1.13357 0.146368 -7.76024e-21)
(1.13662 0.146002 -2.34407e-21)
(1.13968 0.145614 -5.61925e-21)
(1.14275 0.145202 2.46054e-22)
(1.14583 0.144767 2.39793e-21)
(1.14893 0.14431 -1.82877e-22)
(1.15203 0.143831 2.36361e-21)
(1.15515 0.14333 2.18479e-22)
(1.15827 0.142808 2.99929e-21)
(1.09661 0.144025 -9.37462e-21)
(1.09943 0.143978 -3.87393e-21)
(1.10218 0.143903 1.08722e-20)
(1.10493 0.143802 1.04023e-20)
(1.10771 0.143677 -1.25768e-21)
(1.11052 0.143527 1.23292e-20)
(1.11334 0.143352 -7.68221e-22)
(1.11618 0.143153 1.2932e-20)
(1.11904 0.14293 6.25825e-21)
(1.12192 0.142683 -9.12106e-21)
(1.12481 0.142413 -1.12058e-20)
(1.12772 0.14212 -3.8883e-21)
(1.13065 0.141804 2.66401e-21)
(1.13359 0.141465 2.26116e-21)
(1.13654 0.141105 7.99019e-22)
(1.13951 0.140722 5.8343e-21)
(1.14249 0.140319 -1.60214e-21)
(1.14549 0.139894 -2.68315e-21)
(1.14849 0.139448 2.43972e-21)
(1.1515 0.138983 9.55508e-22)
(1.15453 0.138497 -5.33969e-21)
(1.15756 0.137991 -3.39487e-23)
(1.09772 0.139218 1.44631e-20)
(1.10044 0.139152 1.78214e-20)
(1.1031 0.139062 -3.24053e-21)
(1.10577 0.138948 2.68697e-21)
(1.10846 0.13881 -7.0714e-21)
(1.11117 0.13865 -8.14309e-21)
(1.1139 0.138467 1.91967e-21)
(1.11666 0.138262 8.43535e-22)
(1.11943 0.138034 -4.35676e-21)
(1.12222 0.137785 6.2154e-21)
(1.12502 0.137513 9.30964e-21)
(1.12784 0.137221 -3.36329e-21)
(1.13068 0.136907 2.83535e-21)
(1.13354 0.136573 1.72271e-21)
(1.1364 0.136219 1.02849e-21)
(1.13928 0.135844 -3.67985e-21)
(1.14218 0.135449 8.74868e-22)
(1.14508 0.135035 3.05612e-23)
(1.148 0.134602 -2.07851e-21)
(1.15093 0.13415 -2.91441e-21)
(1.15386 0.13368 2.83871e-21)
(1.15681 0.133191 -1.38237e-21)
(1.09871 0.134397 6.97583e-21)
(1.10134 0.134317 -1.04863e-20)
(1.10391 0.134212 -1.13187e-20)
(1.10649 0.134087 -6.27386e-21)
(1.10909 0.13394 6.33837e-21)
(1.11172 0.133772 -3.68853e-21)
(1.11437 0.133583 5.31964e-21)
(1.11704 0.133373 5.01579e-21)
(1.11972 0.133142 1.19742e-21)
(1.12243 0.132891 -1.81898e-21)
(1.12515 0.132621 -4.33517e-21)
(1.12789 0.13233 2.08988e-21)
(1.13064 0.132021 -6.25212e-21)
(1.13341 0.131692 -2.64971e-21)
(1.13619 0.131344 -3.84075e-21)
(1.13899 0.130978 -4.15631e-22)
(1.1418 0.130593 -2.18507e-21)
(1.14462 0.13019 -1.5475e-21)
(1.14746 0.12977 2.12128e-21)
(1.1503 0.129332 3.63748e-22)
(1.15316 0.128877 1.63772e-21)
(1.15602 0.128406 -4.70773e-22)
(1.09958 0.129565 -1.29695e-21)
(1.10211 0.129472 3.31919e-21)
(1.1046 0.129356 1.30383e-20)
(1.1071 0.129221 -9.23063e-21)
(1.10963 0.129067 -7.44042e-21)
(1.11217 0.128892 1.98246e-21)
(1.11474 0.128699 -9.05643e-21)
(1.11733 0.128486 -7.01098e-21)
(1.11993 0.128254 -6.2155e-21)
(1.12256 0.128004 -5.25791e-21)
(1.1252 0.127735 3.44772e-21)
(1.12786 0.127448 3.78418e-21)
(1.13053 0.127143 3.25619e-21)
(1.13322 0.12682 -1.95206e-21)
(1.13592 0.12648 7.84939e-22)
(1.13864 0.126123 2.42273e-22)
(1.14137 0.125749 -3.36198e-22)
(1.14411 0.125358 7.79742e-23)
(1.14687 0.124951 -3.19502e-21)
(1.14963 0.124528 -3.46888e-21)
(1.15241 0.124089 -1.13762e-21)
(1.15519 0.123635 3.49205e-21)
(1.10032 0.124723 -1.90788e-21)
(1.10278 0.124618 -1.18269e-20)
(1.10519 0.124494 -5.84517e-21)
(1.10761 0.124352 1.58376e-20)
(1.11006 0.124191 1.53066e-20)
(1.11253 0.124013 -3.82686e-21)
(1.11502 0.123816 3.23577e-21)
(1.11753 0.123602 4.95762e-22)
(1.12006 0.12337 1.10605e-20)
(1.12261 0.123121 4.26405e-21)
(1.12517 0.122855 -1.81206e-21)
(1.12775 0.122573 -2.41386e-21)
(1.13035 0.122274 2.13083e-21)
(1.13296 0.121958 4.81672e-22)
(1.13559 0.121627 -8.52667e-23)
(1.13823 0.12128 -2.46881e-21)
(1.14089 0.120917 5.58011e-21)
(1.14356 0.120538 7.88464e-22)
(1.14623 0.120145 2.09115e-22)
(1.14892 0.119737 3.81251e-22)
(1.15162 0.119315 -5.79426e-22)
(1.15433 0.118878 -1.07844e-21)
(1.10095 0.119871 -7.05218e-21)
(1.10333 0.119758 7.28683e-21)
(1.10567 0.119627 1.57797e-21)
(1.10802 0.119479 -8.28943e-21)
(1.11039 0.119314 -1.43172e-20)
(1.11279 0.119133 4.443e-21)
(1.11521 0.118935 1.28832e-20)
(1.11765 0.118721 -6.1497e-22)
(1.12011 0.11849 -7.6109e-21)
(1.12258 0.118244 4.1838e-21)
(1.12507 0.117982 -2.67217e-21)
(1.12758 0.117705 1.27994e-21)
(1.13011 0.117413 -3.48847e-21)
(1.13265 0.117105 -3.36662e-21)
(1.1352 0.116783 2.25847e-21)
(1.13777 0.116446 2.34445e-21)
(1.14036 0.116095 -1.89035e-21)
(1.14295 0.11573 5.28765e-22)
(1.14556 0.115351 -1.48061e-21)
(1.14818 0.114958 1.96549e-21)
(1.1508 0.114552 -2.04276e-21)
(1.15344 0.114132 -2.71172e-21)
(1.10147 0.115011 -6.89241e-21)
(1.10377 0.114891 1.0761e-20)
(1.10604 0.114754 -6.62728e-21)
(1.10833 0.114602 -1.05093e-21)
(1.11063 0.114435 2.07776e-21)
(1.11297 0.114252 -9.25006e-22)
(1.11532 0.114054 -6.94225e-21)
(1.11769 0.113842 1.43674e-22)
(1.12008 0.113614 2.34435e-21)
(1.12248 0.113372 -5.56575e-21)
(1.12491 0.113115 4.37228e-21)
(1.12735 0.112844 2.93408e-21)
(1.1298 0.112559 2.43787e-21)
(1.13228 0.11226 1.61894e-21)
(1.13476 0.111948 2.62517e-21)
(1.13726 0.111622 -1.34949e-21)
(1.13978 0.111283 8.96605e-22)
(1.1423 0.110931 -2.18718e-21)
(1.14484 0.110567 1.35128e-21)
(1.14739 0.11019 -1.15337e-21)
(1.14995 0.1098 7.00286e-22)
(1.15252 0.109398 3.87277e-21)
(1.10188 0.110142 1.28318e-20)
(1.10412 0.110017 -1.11144e-20)
(1.10632 0.109877 1.12338e-20)
(1.10854 0.109723 4.11007e-21)
(1.11079 0.109554 2.20776e-22)
(1.11306 0.109372 5.85634e-22)
(1.11534 0.109175 -3.71099e-21)
(1.11765 0.108965 -2.19877e-21)
(1.11997 0.108741 -2.37866e-21)
(1.12232 0.108503 -3.99155e-22)
(1.12468 0.108252 1.45006e-21)
(1.12705 0.107989 -5.2698e-21)
(1.12944 0.107712 1.48983e-21)
(1.13185 0.107423 2.49321e-21)
(1.13427 0.107121 -5.93192e-22)
(1.13671 0.106806 1.02899e-21)
(1.13916 0.10648 -2.84266e-22)
(1.14162 0.106142 1.92609e-21)
(1.14409 0.105792 1.07497e-21)
(1.14658 0.10543 2.63262e-21)
(1.14907 0.105058 8.4801e-22)
(1.15157 0.104674 -2.6169e-22)
(1.10219 0.105265 -7.78343e-21)
(1.10437 0.105137 9.93272e-22)
(1.10651 0.104995 -3.23288e-21)
(1.10867 0.10484 -1.11942e-21)
(1.11086 0.104671 9.42169e-22)
(1.11307 0.10449 1.61079e-21)
(1.11529 0.104296 1.03603e-21)
(1.11754 0.104089 3.12035e-22)
(1.1198 0.10387 4.67329e-21)
(1.12209 0.103638 8.45753e-22)
(1.12438 0.103394 -3.35731e-21)
(1.1267 0.103138 3.72628e-21)
(1.12903 0.10287 -3.02787e-21)
(1.13138 0.102591 -2.72956e-21)
(1.13374 0.1023 -1.08989e-21)
(1.13611 0.101998 -2.36704e-21)
(1.1385 0.101684 -6.73583e-22)
(1.1409 0.10136 -1.58898e-21)
(1.14331 0.101025 -5.25304e-22)
(1.14573 0.100679 3.43138e-23)
(1.14816 0.100323 -2.51644e-21)
(1.15061 0.0999571 -4.94763e-22)
(1.10241 0.100381 -2.55459e-21)
(1.10453 0.100251 2.81294e-21)
(1.10662 0.100108 -2.02208e-21)
(1.10872 0.0999527 6.12567e-22)
(1.11085 0.0997858 3.83188e-21)
(1.113 0.0996069 -3.85825e-22)
(1.11518 0.0994162 -8.27767e-22)
(1.11737 0.0992139 2.67587e-21)
(1.11957 0.099 -2.04986e-21)
(1.1218 0.0987748 2.12905e-21)
(1.12404 0.0985384 3.60459e-21)
(1.1263 0.098291 -8.5095e-22)
(1.12857 0.0980328 -1.10543e-21)
(1.13086 0.0977638 5.11832e-21)
(1.13316 0.0974843 -2.94657e-21)
(1.13548 0.0971945 -1.00508e-21)
(1.13781 0.0968944 2.66747e-21)
(1.14015 0.0965844 5.03346e-22)
(1.1425 0.0962644 2.89318e-21)
(1.14486 0.0959348 -3.14409e-21)
(1.14724 0.0955956 3.72396e-21)
(1.14962 0.0952471 -2.39591e-22)
(1.10254 0.0954875 3.47567e-21)
(1.1046 0.0953568 -3.09895e-21)
(1.10664 0.0952144 3.74328e-21)
(1.1087 0.095061 1.67298e-22)
(1.11077 0.0948966 1.58956e-21)
(1.11287 0.0947212 2.12097e-21)
(1.11499 0.0945349 -3.92522e-22)
(1.11713 0.094338 -1.62599e-21)
(1.11928 0.0941305 -1.55666e-21)
(1.12146 0.0939126 8.1098e-22)
(1.12365 0.0936844 -4.08234e-21)
(1.12585 0.0934461 -1.57962e-21)
(1.12807 0.0931979 -8.86037e-22)
(1.1303 0.0929399 -1.51461e-21)
(1.13255 0.0926723 1.59835e-21)
(1.13481 0.0923951 1.19715e-21)
(1.13709 0.0921086 -2.73813e-21)
(1.13937 0.091813 -5.51746e-23)
(1.14167 0.0915084 -1.73668e-21)
(1.14398 0.0911948 3.9664e-21)
(1.14629 0.0908726 -2.98484e-22)
(1.14862 0.0905418 -4.58967e-22)
(1.10259 0.0905849 -2.94271e-21)
(1.1046 0.090455 9.29106e-22)
(1.10659 0.0903142 -1.64942e-21)
(1.1086 0.0901635 9.84405e-22)
(1.11063 0.0900025 -6.72034e-22)
(1.11268 0.0898316 -1.30841e-21)
(1.11475 0.0896506 7.06562e-21)
(1.11684 0.0894599 1.98509e-21)
(1.11895 0.0892595 -5.3583e-22)
(1.12107 0.0890495 1.95951e-21)
(1.12321 0.0888302 -1.0415e-21)
(1.12536 0.0886016 1.25305e-21)
(1.12753 0.088364 -1.67778e-21)
(1.12971 0.0881173 1.58265e-21)
(1.13191 0.0878619 -2.42078e-21)
(1.13412 0.0875977 2.87557e-21)
(1.13634 0.0873251 -1.042e-21)
(1.13858 0.0870441 1.38812e-21)
(1.14082 0.0867549 -5.47489e-22)
(1.14308 0.0864575 -6.95585e-22)
(1.14534 0.0861523 -7.29478e-22)
(1.14761 0.0858392 -8.89766e-22)
(1.10256 0.0856721 5.08805e-21)
(1.10453 0.0855439 -3.30978e-24)
(1.10647 0.0854059 -1.38845e-21)
(1.10844 0.0852587 -3.61495e-21)
(1.11043 0.0851022 -1.01943e-21)
(1.11243 0.0849365 3.91178e-22)
(1.11446 0.0847617 -6.13948e-21)
(1.1165 0.0845779 -1.54854e-21)
(1.11856 0.0843853 5.2485e-22)
(1.12064 0.0841839 -1.94726e-21)
(1.12273 0.083974 3.1898e-21)
(1.12484 0.0837556 8.37316e-22)
(1.12696 0.0835289 7.00753e-22)
(1.1291 0.083294 -1.25876e-21)
(1.13124 0.083051 9.08222e-22)
(1.13341 0.0828002 -1.25925e-21)
(1.13558 0.0825416 -2.34392e-22)
(1.13776 0.0822754 -3.84529e-22)
(1.13996 0.0820017 3.48617e-22)
(1.14217 0.0817207 -1.22449e-21)
(1.14438 0.0814324 -4.25818e-22)
(1.1466 0.081137 -5.9521e-22)
(1.10247 0.0807473 -3.67201e-21)
(1.10439 0.080622 -5.52255e-22)
(1.1063 0.0804877 3.18324e-21)
(1.10822 0.080345 2.18326e-21)
(1.11017 0.0801938 -4.01809e-21)
(1.11214 0.0800341 3.83379e-23)
(1.11412 0.0798661 2.36109e-22)
(1.11612 0.0796899 -6.2822e-22)
(1.11814 0.0795057 -2.32223e-21)
(1.12017 0.0793134 -7.89642e-22)
(1.12222 0.0791134 -1.83937e-22)
(1.12429 0.0789056 4.96168e-22)
(1.12636 0.0786903 -2.1656e-22)
(1.12846 0.0784675 -2.26015e-21)
(1.13056 0.0782374 2.50552e-21)
(1.13268 0.0780001 -1.51651e-21)
(1.1348 0.0777558 5.10224e-21)
(1.13694 0.0775045 1.35997e-23)
(1.13909 0.0772465 -7.32522e-22)
(1.14125 0.0769817 2.39932e-21)
(1.14342 0.0767105 -1.19204e-21)
(1.1456 0.0764328 -6.91926e-22)
(1.10232 0.0758089 -1.08235e-21)
(1.1042 0.0756873 1.79011e-21)
(1.10607 0.0755576 -8.5977e-22)
(1.10796 0.0754201 -4.60727e-22)
(1.10987 0.0752749 2.32552e-21)
(1.1118 0.075122 5.73062e-22)
(1.11375 0.0749615 1.47507e-21)
(1.11571 0.0747935 1.46202e-21)
(1.11769 0.0746182 1.68034e-21)
(1.11968 0.0744356 2.14503e-21)
(1.12169 0.0742459 -7.74528e-22)
(1.12371 0.0740492 -9.85651e-22)
(1.12575 0.0738456 -2.41248e-22)
(1.1278 0.0736352 4.01714e-22)
(1.12986 0.0734182 3.43545e-22)
(1.13194 0.0731947 1.77916e-21)
(1.13402 0.0729648 -2.53686e-22)
(1.13612 0.0727286 -1.02345e-21)
(1.13823 0.0724863 -2.45546e-22)
(1.14034 0.072238 -2.67608e-22)
(1.14246 0.0719837 -4.25265e-22)
(1.1446 0.0717237 1.56207e-21)
(1.10211 0.0708545 3.67373e-22)
(1.10396 0.0707375 -1.60651e-21)
(1.1058 0.070613 -2.1503e-21)
(1.10765 0.0704816 -1.9796e-21)
(1.10953 0.0703431 -2.42557e-21)
(1.11143 0.0701976 -4.78756e-21)
(1.11334 0.0700452 2.07483e-21)
(1.11527 0.0698859 -1.87722e-21)
(1.11721 0.06972 2.52751e-21)
(1.11917 0.0695475 -1.51053e-21)
(1.12114 0.0693685 -3.70331e-21)
(1.12312 0.0691832 6.88627e-22)
(1.12512 0.0689917 1.22798e-21)
(1.12714 0.068794 6.4549e-22)
(1.12916 0.0685904 -3.28008e-21)
(1.1312 0.0683808 1.57338e-21)
(1.13324 0.0681656 -2.73662e-21)
(1.1353 0.0679446 -8.31643e-22)
(1.13736 0.0677181 -1.23985e-21)
(1.13944 0.0674863 -6.84645e-22)
(1.14152 0.067249 1.01043e-21)
(1.14361 0.0670066 -5.93248e-22)
(1.10186 0.0658813 -6.03653e-22)
(1.10368 0.0657696 1.76066e-21)
(1.10549 0.0656512 -1.46024e-21)
(1.10732 0.0655264 1.64782e-21)
(1.10916 0.0653952 3.87152e-21)
(1.11103 0.0652577 3.81931e-21)
(1.11291 0.0651138 8.96716e-22)