0 	0.517293 	0 	-0.610072
0 	0.55252 	0 	-0.557097
0 	0.589056 	0 	-0.535385
0 	0.62695 	0 	-0.505353
0 	0.666252 	-1.73472e-18 	-0.480007
0 	0.707014 	-3.46945e-18 	-0.453727
0 	0.749291 	-2.08167e-18 	-0.427882
0 	0.793139 	-6.93889e-19 	-0.40182
0 	0.838615 	-6.93889e-19 	-0.375743
0 	0.885781 	2.42861e-18 	-0.349724
0 	0.9347 	6.93889e-18 	-0.32395
