/*--------------------------------*- C++ -*----------------------------------*\
  =========                 |
  \\      /  F ield         | OpenFOAM: The Open Source CFD Toolbox
   \\    /   O peration     | Website:  https://openfoam.org
    \\  /    A nd           | Version:  7
     \\/     M anipulation  |
\*---------------------------------------------------------------------------*/
FoamFile
{
    version     2.0;
    format      ascii;
    class       surfaceScalarField;
    location    "15";
    object      phi;
}
// * * * * * * * * * * * * * * * * * * * * * * * * * * * * * * * * * * * * * //

dimensions      [0 3 -1 0 0 0 0];

internalField   nonuniform List<scalar> 
5134
(
0.00280898
-8.8536e-05
0.00280539
-9.47561e-05
0.00280172
-0.000100816
0.00279796
-0.000106709
0.00279412
-0.000112428
0.00279021
-0.000117968
0.00278623
-0.000123326
0.00278218
-0.000128499
0.00277807
-0.000133486
0.00277391
-0.000138287
0.00276969
-0.000142902
0.00276543
-0.000147335
0.00276112
-0.000151588
0.00275677
-0.000155667
0.00275238
-0.000159576
0.00274795
-0.000163323
0.0027435
-0.000166913
0.00273901
-0.000170355
0.00273449
-0.000173658
0.00272995
-0.000176829
0.00272538
-0.000179878
0.00272079
-0.000182816
0.00271618
-0.000185652
0.00271155
-0.000188398
0.00270689
-0.000191063
0.00270222
-0.000193661
0.00269753
-0.000196201
0.00269283
-0.000198697
0.00268811
-0.000201162
0.00268337
-0.000203606
0.00267861
-0.000206045
0.00267384
-0.000208492
0.00266906
-0.00021096
0.00266426
-0.000213465
-0.000216021
0.0028663
1.10761e-05
-0.00286729
0.00286502
4.40107e-06
0.00286344
-2.58546e-06
0.00286158
-9.78532e-06
0.00285949
-1.70512e-05
0.0028572
-2.42969e-05
0.00285475
-3.14772e-05
0.00285215
-3.857e-05
0.00284942
-4.55649e-05
0.00284656
-5.24555e-05
0.00284358
-5.92363e-05
0.00284048
-6.59011e-05
0.00283728
-7.24427e-05
0.00283397
-7.88531e-05
0.00283056
-8.51241e-05
0.00282705
-9.12474e-05
0.00282345
-9.72153e-05
0.00281976
-0.000103021
0.00281599
-0.000108657
0.00281214
-0.00011412
0.00280822
-0.000119406
0.00280423
-0.000124511
0.00280018
-0.000129434
0.00279607
-0.000134175
0.0027919
-0.000138736
0.00278768
-0.000143117
0.00278342
-0.000147323
0.00277911
-0.000151358
0.00277476
-0.000155227
0.00277037
-0.000158935
0.00276595
-0.00016249
0.00276149
-0.000165899
0.00275701
-0.000169171
0.00275249
-0.000172313
0.00274795
-0.000175336
0.00274338
-0.000178249
0.00273879
-0.000181061
0.00273418
-0.000183784
0.00272954
-0.000186428
0.00272489
-0.000189005
0.00272021
-0.000191526
0.00271552
-0.000194004
0.00271081
-0.00019645
0.00270608
-0.000198877
0.00270133
-0.000201298
0.00269656
-0.000203727
0.00269178
-0.000206178
0.00268698
-0.000208665
-0.000211203
0.00288629
1.19836e-05
-0.00288719
0.00288512
5.56945e-06
0.00288367
-1.14174e-06
0.00288196
-8.07702e-06
0.00288002
-1.51087e-05
0.00287788
-2.21518e-05
0.00287556
-2.91558e-05
0.00287308
-3.60919e-05
0.00287046
-4.29439e-05
0.0028677
-4.97015e-05
0.00286482
-5.63566e-05
0.00286182
-6.29015e-05
0.00285871
-6.93283e-05
0.00285548
-7.56289e-05
0.00285216
-8.17948e-05
0.00284873
-8.78178e-05
0.0028452
-9.36903e-05
0.00284158
-9.94052e-05
0.00283788
-0.000104956
0.0028341
-0.000110339
0.00283024
-0.000115548
0.00282632
-0.000120582
0.00282232
-0.000125439
0.00281826
-0.000130118
0.00281415
-0.000134621
0.00280998
-0.000138949
0.00280576
-0.000143104
0.0028015
-0.000147092
0.00279719
-0.000150917
0.00279284
-0.000154585
0.00278845
-0.000158103
0.00278403
-0.000161477
0.00277957
-0.000164715
0.00277509
-0.000167827
0.00277057
-0.000170821
0.00276603
-0.000173706
0.00276146
-0.000176493
0.00275687
-0.000179191
0.00275225
-0.000181812
0.00274761
-0.000184367
0.00274295
-0.000186867
0.00273827
-0.000189324
0.00273357
-0.000191749
0.00272885
-0.000194157
0.00272411
-0.000196558
0.00271936
-0.000198968
0.00271458
-0.000201399
0.00270978
-0.000203867
-0.000206385
0.00290634
1.28167e-05
-0.00290717
0.00290527
6.63545e-06
0.00290395
1.76911e-07
0.00290238
-6.50603e-06
0.00290058
-1.33058e-05
0.00289857
-2.01424e-05
0.00289637
-2.69633e-05
0.00289402
-3.37349e-05
0.00289151
-4.04366e-05
0.00288886
-4.70545e-05
0.00288608
-5.35781e-05
0.00288318
-5.99981e-05
0.00288016
-6.63057e-05
0.00287702
-7.24924e-05
0.00287378
-7.85495e-05
0.00287043
-8.44687e-05
0.00286698
-9.02425e-05
0.00286344
-9.58637e-05
0.00285981
-0.000101326
0.00285609
-0.000106625
0.0028523
-0.000111756
0.00284843
-0.000116715
0.0028445
-0.000121503
0.0028405
-0.000126117
0.00283644
-0.000130559
0.00283232
-0.00013483
0.00282815
-0.000138933
0.00282392
-0.000142872
0.00281966
-0.000146651
0.00281535
-0.000150276
0.002811
-0.000153753
0.00280661
-0.000157089
0.00280219
-0.000160293
0.00279773
-0.000163371
0.00279324
-0.000166334
0.00278873
-0.00016919
0.00278418
-0.000171949
0.00277961
-0.000174621
0.00277502
-0.000177217
0.0027704
-0.000179748
0.00276576
-0.000182224
0.00276109
-0.000184658
0.0027564
-0.000187062
0.0027517
-0.000189448
0.00274697
-0.000191828
0.00274221
-0.000194217
0.00273744
-0.000196627
0.00273265
-0.000199073
-0.000201569
0.00292646
1.35795e-05
-0.00292722
0.00292548
7.6083e-06
0.00292428
1.38206e-06
0.00292283
-5.06163e-06
0.00292116
-1.16344e-05
0.00291928
-1.82635e-05
0.00291722
-2.48965e-05
0.00291498
-3.14977e-05
0.00291258
-3.80428e-05
0.00291005
-4.45151e-05
0.00290737
-5.09017e-05
0.00290456
-5.71919e-05
0.00290163
-6.33761e-05
0.00289859
-6.94448e-05
0.00289543
-7.53894e-05
0.00289216
-8.12014e-05
0.00288879
-8.6873e-05
0.00288532
-9.23973e-05
0.00288176
-9.77679e-05
0.00287812
-0.00010298
0.00287439
-0.000108029
0.00287059
-0.000112911
0.00286671
-0.000117627
0.00286277
-0.000122173
0.00285876
-0.000126551
0.00285469
-0.000130763
0.00285057
-0.00013481
0.0028464
-0.000138697
0.00284217
-0.000142427
0.0028379
-0.000146007
0.00283359
-0.000149441
0.00282924
-0.000152738
0.00282485
-0.000155904
0.00282043
-0.000158947
0.00281597
-0.000161877
0.00281148
-0.000164701
0.00280696
-0.000167431
0.00280242
-0.000170075
0.00279784
-0.000172643
0.00279324
-0.000175148
0.00278862
-0.000177599
0.00278397
-0.000180009
0.0027793
-0.000182389
0.0027746
-0.000184752
0.00276988
-0.000187109
0.00276514
-0.000189475
0.00276038
-0.000191862
0.00275559
-0.000194284
-0.000196757
0.00294665
1.42748e-05
-0.00294735
0.00294576
8.4953e-06
0.00294466
2.48357e-06
0.00294333
-3.73394e-06
0.00294179
-1.00863e-05
0.00294003
-1.65089e-05
0.00293809
-2.29517e-05
0.00293597
-2.9378e-05
0.00293369
-3.57614e-05
0.00293125
-4.20829e-05
0.00292868
-4.83277e-05
0.00292597
-5.44836e-05
0.00292314
-6.054e-05
0.00292018
-6.6487e-05
0.0029171
-7.23155e-05
0.00291392
-7.80168e-05
0.00291063
-8.3583e-05
0.00290724
-8.90071e-05
0.00290375
-9.42828e-05
0.00290018
-9.94047e-05
0.00289652
-0.000104369
0.00289278
-0.000109172
0.00288896
-0.000113811
0.00288508
-0.000118287
0.00288113
-0.000122599
0.00287711
-0.000126748
0.00287304
-0.000130737
0.00286891
-0.000134569
0.00286473
-0.000138249
0.00286051
-0.00014178
0.00285623
-0.00014517
0.00285192
-0.000148424
0.00284757
-0.000151551
0.00284318
-0.000154557
0.00283875
-0.000157451
0.00283429
-0.000160242
0.0028298
-0.000162939
0.00282528
-0.000165553
0.00282073
-0.000168093
0.00281615
-0.00017057
0.00281154
-0.000172994
0.00280691
-0.000175378
0.00280225
-0.000177732
0.00279757
-0.00018007
0.00279287
-0.000182402
0.00278813
-0.000184743
0.00278338
-0.000187105
0.0027786
-0.000189503
-0.00019195
0.00296692
1.49047e-05
-0.00296755
0.00296612
9.30235e-06
0.00296511
3.4898e-06
0.00296389
-2.51407e-06
0.00296246
-8.65359e-06
0.00296082
-1.48725e-05
0.00295899
-2.11244e-05
0.00295699
-2.7373e-05
0.00295482
-3.35908e-05
0.00295249
-3.97571e-05
0.00295002
-4.58558e-05
0.00294741
-5.18732e-05
0.00294467
-5.77979e-05
0.0029418
-6.36195e-05
0.00293881
-6.93283e-05
0.00293571
-7.49155e-05
0.0029325
-8.03731e-05
0.00292919
-8.56939e-05
0.00292578
-9.08715e-05
0.00292227
-9.59005e-05
0.00291868
-0.000100777
0.00291501
-0.000105497
0.00291125
-0.000110058
0.00290743
-0.00011446
0.00290353
-0.000118703
0.00289957
-0.000122787
0.00289555
-0.000126715
0.00289147
-0.00013049
0.00288734
-0.000134116
0.00288315
-0.000137597
0.00287892
-0.00014094
0.00287465
-0.000144149
0.00287033
-0.000147234
0.00286597
-0.0001502
0.00286158
-0.000153057
0.00285715
-0.000155812
0.00285269
-0.000158476
0.00284819
-0.000161058
0.00284367
-0.000163567
0.00283911
-0.000166014
0.00283453
-0.000168409
0.00282991
-0.000170765
0.00282527
-0.000173092
0.00282061
-0.000175403
0.00281591
-0.000177709
0.00281119
-0.000180023
0.00280645
-0.000182359
0.00280167
-0.000184729
-0.000187149
0.00298728
1.54712e-05
-0.00298785
0.00298655
1.00342e-05
0.00298563
4.40781e-06
0.00298451
-1.39405e-06
0.00298319
-7.3286e-06
0.00298166
-1.33478e-05
0.00297995
-1.94095e-05
0.00297805
-2.5479e-05
0.00297599
-3.15284e-05
0.00297377
-3.75362e-05
0.0029714
-4.34849e-05
0.00296889
-4.93602e-05
0.00296624
-5.51497e-05
0.00296346
-6.08423e-05
0.00296056
-6.64281e-05
0.00295754
-7.1898e-05
0.00295441
-7.72438e-05
0.00295118
-8.24582e-05
0.00294784
-8.75347e-05
0.00294441
-9.24679e-05
0.00294089
-9.72532e-05
0.00293728
-0.000101887
0.00293359
-0.000106368
0.00292982
-0.000110694
0.00292598
-0.000114864
0.00292208
-0.000118881
0.00291811
-0.000122746
0.00291408
-0.000126461
0.00290999
-0.00013003
0.00290585
-0.000133458
0.00290166
-0.000136751
0.00289743
-0.000139914
0.00289315
-0.000142954
0.00288883
-0.000145879
0.00288447
-0.000148696
0.00288007
-0.000151414
0.00287563
-0.000154042
0.00287117
-0.000156589
0.00286667
-0.000159066
0.00286213
-0.000161481
0.00285757
-0.000163846
0.00285298
-0.000166173
0.00284836
-0.000168471
0.0028437
-0.000170753
0.00283903
-0.00017303
0.00283432
-0.000175316
0.00282958
-0.000177623
0.00282482
-0.000179965
-0.000182355
0.00300773
1.59755e-05
-0.00300823
0.00300707
1.06947e-05
0.00300623
5.24359e-06
0.00300521
-3.66814e-07
0.00300398
-6.10436e-06
0.00300256
-1.19286e-05
0.00300095
-1.78021e-05
0.00299917
-2.36921e-05
0.00299721
-2.95714e-05
0.00299509
-3.5418e-05
0.00299282
-4.12138e-05
0.0029904
-4.69437e-05
0.00298785
-5.25946e-05
0.00298516
-5.8155e-05
0.00298235
-6.36147e-05
0.00297942
-6.89643e-05
0.00297637
-7.41953e-05
0.00297321
-7.93003e-05
0.00296995
-8.42728e-05
0.00296659
-8.91072e-05
0.00296313
-9.37989e-05
0.00295959
-9.83443e-05
0.00295596
-0.000102741
0.00295226
-0.000106988
0.00294848
-0.000111084
0.00294462
-0.00011503
0.00294071
-0.000118829
0.00293673
-0.000122481
0.00293269
-0.000125992
0.0029286
-0.000129365
0.00292445
-0.000132606
0.00292026
-0.00013572
0.00291602
-0.000138713
0.00291173
-0.000141594
0.00290741
-0.00014437
0.00290304
-0.000147048
0.00289864
-0.000149639
0.0028942
-0.00015215
0.00288972
-0.000154591
0.00288521
-0.000156973
0.00288067
-0.000159306
0.0028761
-0.000161601
0.0028715
-0.000163868
0.00286687
-0.00016612
0.0028622
-0.000168367
0.00285751
-0.000170623
0.00285279
-0.0001729
0.00284803
-0.000175211
-0.00017757
0.00302827
1.6419e-05
-0.00302871
0.00302768
1.12871e-05
0.00302692
6.00221e-06
0.00302598
5.73851e-07
0.00302485
-4.97437e-06
0.00302353
-1.06089e-05
0.00302202
-1.62968e-05
0.00302034
-2.2008e-05
0.00301848
-2.77163e-05
0.00301646
-3.33999e-05
0.00301429
-3.90404e-05
0.00301197
-4.46222e-05
0.00300951
-5.01318e-05
0.00300691
-5.55572e-05
0.00300418
-6.08878e-05
0.00300133
-6.61141e-05
0.00299836
-7.12274e-05
0.00299528
-7.62203e-05
0.0029921
-8.1086e-05
0.00298881
-8.58187e-05
0.00298542
-9.0414e-05
0.00298195
-9.4868e-05
0.00297838
-9.91782e-05
0.00297474
-0.000103343
0.00297102
-0.000107362
0.00296722
-0.000111235
0.00296336
-0.000114965
0.00295943
-0.000118553
0.00295544
-0.000122003
0.00295139
-0.000125318
0.00294729
-0.000128504
0.00294314
-0.000131567
0.00293894
-0.000134512
0.00293469
-0.000137347
0.0029304
-0.000140079
0.00292607
-0.000142716
0.00292169
-0.000145266
0.00291728
-0.000147739
0.00291284
-0.000150144
0.00290835
-0.000152491
0.00290384
-0.00015479
0.00289929
-0.000157051
0.00289471
-0.000159286
0.00289009
-0.000161505
0.00288545
-0.000163721
0.00288077
-0.000165945
0.00287606
-0.00016819
0.00287132
-0.000170469
-0.000172795
0.0030489
1.68029e-05
-0.00304929
0.00304838
1.18142e-05
0.00304769
6.688e-06
0.00304683
1.43342e-06
0.00304579
-3.9327e-06
0.00304456
-9.38287e-06
0.00304315
-1.48885e-05
0.00304157
-2.04223e-05
0.00303981
-2.59596e-05
0.00303789
-3.14792e-05
0.00303581
-3.69626e-05
0.00303358
-4.23941e-05
0.00303121
-4.77598e-05
0.0030287
-5.30476e-05
0.00302606
-5.82465e-05
0.00302329
-6.33469e-05
0.00302041
-6.83399e-05
0.0030174
-7.32179e-05
0.00301429
-7.7974e-05
0.00301108
-8.26025e-05
0.00300776
-8.70987e-05
0.00300435
-9.14586e-05
0.00300085
-9.56797e-05
0.00299727
-9.97601e-05
0.00299361
-0.000103699
0.00298987
-0.000107497
0.00298606
-0.000111155
0.00298218
-0.000114676
0.00297824
-0.000118062
0.00297424
-0.000121318
0.00297019
-0.000124447
0.00296607
-0.000127456
0.00296191
-0.000130351
0.0029577
-0.000133137
0.00295345
-0.000135823
0.00294915
-0.000138417
0.00294481
-0.000140926
0.00294043
-0.000143359
0.00293601
-0.000145726
0.00293155
-0.000148036
0.00292706
-0.000150298
0.00292254
-0.000152525
0.00291798
-0.000154725
0.00291338
-0.000156911
0.00290875
-0.000159093
0.00290409
-0.000161283
0.0028994
-0.000163495
0.00289467
-0.000165739
-0.000168031
0.00306964
1.71283e-05
-0.00306996
0.00306917
1.22782e-05
0.00306856
7.30466e-06
0.00306777
2.2167e-06
0.00306681
-2.97398e-06
0.00306568
-8.24509e-06
0.00306436
-1.35721e-05
0.00306287
-1.89305e-05
0.00306121
-2.42974e-05
0.00305938
-2.96525e-05
0.0030574
-3.49777e-05
0.00305526
-4.02572e-05
0.00305298
-4.54771e-05
0.00305055
-5.0625e-05
0.003048
-5.56899e-05
0.00304531
-6.06618e-05
0.0030425
-6.5532e-05
0.00303958
-7.02926e-05
0.00303654
-7.49367e-05
0.0030334
-7.94584e-05
0.00303015
-8.38528e-05
0.00302681
-8.81162e-05
0.00302337
-9.22455e-05
0.00301985
-9.62389e-05
0.00301625
-0.000100096
0.00301257
-0.000103816
0.00300881
-0.0001074
0.00300499
-0.000110851
0.0030011
-0.000114171
0.00299714
-0.000117365
0.00299313
-0.000120435
0.00298906
-0.000123388
0.00298494
-0.00012623
0.00298077
-0.000128966
0.00297655
-0.000131605
0.00297229
-0.000134153
0.00296798
-0.000136618
0.00296363
-0.00013901
0.00295924
-0.000141336
0.00295482
-0.000143607
0.00295035
-0.000145833
0.00294585
-0.000148022
0.00294131
-0.000150186
0.00293673
-0.000152336
0.00293212
-0.000154483
0.00292748
-0.000156638
0.0029228
-0.000158814
0.00291808
-0.000161023
-0.000163278
0.00309048
1.73961e-05
-0.00309074
0.00309007
1.26813e-05
0.00308952
7.85542e-06
0.00308881
2.92794e-06
0.00308793
-2.09333e-06
0.00308688
-7.1905e-06
0.00308565
-1.23426e-05
0.00308424
-1.75281e-05
0.00308267
-2.27258e-05
0.00308094
-2.79166e-05
0.00307904
-3.30829e-05
0.00307699
-3.82092e-05
0.0030748
-4.32816e-05
0.00307246
-4.82878e-05
0.00306999
-5.32165e-05
0.00306738
-5.80579e-05
0.00306466
-6.28029e-05
0.00306181
-6.74437e-05
0.00305884
-7.19734e-05
0.00305577
-7.63858e-05
0.00305259
-8.06762e-05
0.00304932
-8.48404e-05
0.00304595
-8.88756e-05
0.00304249
-9.27796e-05
0.00303895
-9.65515e-05
0.00303532
-0.000100191
0.00303162
-0.0001037
0.00302785
-0.000107079
0.00302401
-0.000110331
0.0030201
-0.000113459
0.00301613
-0.000116469
0.00301211
-0.000119364
0.00300803
-0.000122151
0.0030039
-0.000124835
0.00299972
-0.000127424
0.00299549
-0.000129924
0.00299122
-0.000132344
0.0029869
-0.000134692
0.00298254
-0.000136977
0.00297814
-0.000139207
0.0029737
-0.000141393
0.00296922
-0.000143544
0.0029647
-0.00014567
0.00296015
-0.000147783
0.00295556
-0.000149893
0.00295093
-0.000152011
0.00294627
-0.00015415
0.00294157
-0.000156321
-0.000158538
0.00311142
1.76074e-05
-0.00311164
0.00311108
1.30253e-05
0.00311059
8.34308e-06
0.00310995
3.57088e-06
0.00310914
-1.28637e-06
0.00310817
-6.21442e-06
0.00310702
-1.11955e-05
0.0031057
-1.62107e-05
0.00310422
-2.12408e-05
0.00310257
-2.62678e-05
0.00310076
-3.1275e-05
0.0030988
-3.62474e-05
0.00309669
-4.11711e-05
0.00309443
-4.6034e-05
0.00309204
-5.08249e-05
0.00308952
-5.55337e-05
0.00308687
-6.01515e-05
0.00308409
-6.46704e-05
0.0030812
-6.90834e-05
0.0030782
-7.33843e-05
0.00307509
-7.75682e-05
0.00307189
-8.16311e-05
0.00306858
-8.55697e-05
0.00306518
-8.93819e-05
0.0030617
-9.30667e-05
0.00305813
-9.66238e-05
0.00305448
-0.000100054
0.00305076
-0.000103358
0.00304697
-0.00010654
0.00304312
-0.000109602
0.0030392
-0.000112548
0.00303521
-0.000115383
0.00303118
-0.000118113
0.00302708
-0.000120743
0.00302294
-0.00012328
0.00301875
-0.000125731
0.00301451
-0.000128104
0.00301022
-0.000130407
0.00300589
-0.000132647
0.00300152
-0.000134836
0.00299711
-0.00013698
0.00299266
-0.000139091
0.00298816
-0.000141178
0.00298363
-0.000143252
0.00297906
-0.000145323
0.00297445
-0.000147403
0.00296981
-0.000149503
0.00296512
-0.000151635
-0.000153811
0.00313248
1.77633e-05
-0.00313264
0.0031322
1.33118e-05
0.00313177
8.77014e-06
0.00313119
4.14883e-06
0.00313046
-5.4914e-07
0.00312955
-5.31252e-06
0.00312848
-1.01263e-05
0.00312725
-1.4974e-05
0.00312585
-1.98383e-05
0.00312428
-2.47025e-05
0.00312256
-2.95509e-05
0.00312068
-3.43689e-05
0.00311865
-3.91432e-05
0.00311648
-4.38615e-05
0.00311417
-4.8513e-05
0.00311172
-5.30876e-05
0.00310914
-5.75764e-05
0.00310645
-6.19714e-05
0.00310363
-6.62656e-05
0.0031007
-7.0453e-05
0.00309766
-7.45283e-05
0.00309451
-7.84875e-05
0.00309127
-8.23273e-05
0.00308793
-8.60456e-05
0.00308451
-8.9641e-05
0.003081
-9.31131e-05
0.00307741
-9.64625e-05
0.00307374
-9.96907e-05
0.00307
-0.0001028
0.00306619
-0.000105793
0.00306231
-0.000108674
0.00305838
-0.000111447
0.00305438
-0.000114117
0.00305033
-0.000116691
0.00304622
-0.000119175
0.00304207
-0.000121574
0.00303786
-0.000123898
0.00303361
-0.000126154
0.00302931
-0.000128349
0.00302497
-0.000130493
0.00302058
-0.000132595
0.00301616
-0.000134664
0.00301169
-0.00013671
0.00300718
-0.000138743
0.00300263
-0.000140774
0.00299804
-0.000142813
0.00299341
-0.000144873
0.00298874
-0.000146964
-0.000149099
0.00315366
1.78646e-05
-0.00315376
0.00315343
1.35424e-05
0.00315306
9.13882e-06
0.00315255
4.66477e-06
0.00315187
1.21956e-07
0.00315104
-4.4808e-06
0.00315005
-9.13089e-06
0.00314889
-1.38139e-05
0.00314756
-1.85144e-05
0.00314608
-2.32171e-05
0.00314443
-2.79072e-05
0.00314264
-3.25708e-05
0.00314069
-3.7195e-05
0.00313859
-4.1768e-05
0.00313636
-4.62789e-05
0.00313399
-5.07179e-05
0.00313149
-5.5076e-05
0.00312886
-5.93454e-05
0.00312612
-6.3519e-05
0.00312325
-6.75907e-05
0.00312028
-7.15554e-05
0.0031172
-7.54089e-05
0.00311402
-7.91479e-05
0.00311075
-8.277e-05
0.00310738
-8.62739e-05
0.00310393
-8.9659e-05
0.00310039
-9.29256e-05
0.00309677
-9.60752e-05
0.00309308
-9.91096e-05
0.00308932
-0.000102032
0.00308549
-0.000104845
0.0030816
-0.000107554
0.00307765
-0.000110164
0.00307364
-0.00011268
0.00306957
-0.000115108
0.00306545
-0.000117454
0.00306128
-0.000119727
0.00305706
-0.000121934
0.00305279
-0.000124082
0.00304848
-0.00012618
0.00304412
-0.000128238
0.00303972
-0.000130263
0.00303528
-0.000132266
0.00303079
-0.000134257
0.00302626
-0.000136246
0.0030217
-0.000138244
0.00301708
-0.000140261
0.00301243
-0.00014231
-0.000144401
0.00317496
1.79125e-05
-0.003175
0.00317478
1.37186e-05
0.00317447
9.45115e-06
0.00317401
5.12137e-06
0.0031734
7.30164e-07
0.00317264
-3.7156e-06
0.00317171
-8.20531e-06
0.00317062
-1.27264e-05
0.00316938
-1.72653e-05
0.00316797
-2.18079e-05
0.0031664
-2.63405e-05
0.00316468
-3.085e-05
0.00316281
-3.5324e-05
0.00316079
-3.97509e-05
0.00315863
-4.41203e-05
0.00315634
-4.84224e-05
0.00315391
-5.26485e-05
0.00315135
-5.67907e-05
0.00314868
-6.0842e-05
0.00314588
-6.47964e-05
0.00314298
-6.86486e-05
0.00313996
-7.23945e-05
0.00313684
-7.60306e-05
0.00313363
-7.95546e-05
0.00313032
-8.29649e-05
0.00312692
-8.62608e-05
0.00312344
-8.94427e-05
0.00311988
-9.25116e-05
0.00311623
-9.54693e-05
0.00311252
-9.83185e-05
0.00310874
-0.000101063
0.00310489
-0.000103706
0.00310098
-0.000106252
0.00309701
-0.000108708
0.00309298
-0.000111079
0.0030889
-0.000113371
0.00308476
-0.000115591
0.00308057
-0.000117747
0.00307634
-0.000119846
0.00307205
-0.000121897
0.00306773
-0.000123909
0.00306335
-0.000125889
0.00305893
-0.000127848
0.00305447
-0.000129795
0.00304997
-0.000131741
0.00304542
-0.000133695
0.00304082
-0.000135668
0.00303619
-0.000137673
-0.000139719
0.00319638
1.79079e-05
-0.00319637
0.00319625
1.38416e-05
0.00319599
9.70898e-06
0.00319559
5.52106e-06
0.00319505
1.27844e-06
0.00319434
-3.01354e-06
0.00319348
-7.34593e-06
0.00319247
-1.17079e-05
0.00319129
-1.60873e-05
0.00318995
-2.04714e-05
0.00318846
-2.48475e-05
0.00318681
-2.92033e-05
0.00318502
-3.35271e-05
0.00318307
-3.78076e-05
0.00318099
-4.20348e-05
0.00317876
-4.61992e-05
0.00317641
-5.0292e-05
0.00317392
-5.43057e-05
0.00317131
-5.82332e-05
0.00316858
-6.20686e-05
0.00316574
-6.58066e-05
0.00316279
-6.9443e-05
0.00315973
-7.29744e-05
0.00315658
-7.63983e-05
0.00315333
-7.97131e-05
0.00314998
-8.29181e-05
0.00314655
-8.60132e-05
0.00314304
-8.89994e-05
0.00313945
-9.18785e-05
0.00313579
-9.46529e-05
0.00313205
-9.73258e-05
0.00312824
-9.9901e-05
0.00312438
-0.000102383
0.00312044
-0.000104777
0.00311645
-0.000107089
0.00311241
-0.000109324
0.00310831
-0.00011149
0.00310415
-0.000113594
0.00309995
-0.000115643
0.0030957
-0.000117645
0.0030914
-0.000119608
0.00308705
-0.000121542
0.00308266
-0.000123455
0.00307822
-0.000125357
0.00307373
-0.000127257
0.00306921
-0.000129166
0.00306463
-0.000131095
0.00306001
-0.000133053
-0.000135053
0.00321792
1.7852e-05
-0.00321787
0.00321785
1.3913e-05
0.00321765
9.91406e-06
0.0032173
5.86606e-06
0.00321681
1.7695e-06
0.00321617
-2.37151e-06
0.00321537
-6.54935e-06
0.00321442
-1.07547e-05
0.00321331
-1.49767e-05
0.00321204
-1.92039e-05
0.00321062
-2.34247e-05
0.00320904
-2.76276e-05
0.00320732
-3.18013e-05
0.00320544
-3.59354e-05
0.00320343
-4.00199e-05
0.00320127
-4.40457e-05
0.00319899
-4.80044e-05
0.00319657
-5.18883e-05
0.00319403
-5.56907e-05
0.00319136
-5.94056e-05
0.00318859
-6.30279e-05
0.0031857
-6.65532e-05
0.0031827
-6.99782e-05
0.0031796
-7.33003e-05
0.00317641
-7.65178e-05
0.00317312
-7.96298e-05
0.00316974
-8.26363e-05
0.00316628
-8.55381e-05
0.00316274
-8.83367e-05
0.00315912
-9.10344e-05
0.00315543
-9.36342e-05
0.00315167
-9.61398e-05
0.00314784
-9.85554e-05
0.00314395
-0.000100886
0.00314
-0.000103137
0.00313599
-0.000105314
0.00313192
-0.000107424
0.0031278
-0.000109474
0.00312363
-0.000111471
0.00311941
-0.000113422
0.00311513
-0.000115336
0.00311081
-0.000117222
0.00310645
-0.000119088
0.00310203
-0.000120943
0.00309757
-0.000122796
0.00309306
-0.000124659
0.00308851
-0.00012654
0.00308391
-0.000128451
-0.000130403
0.0032396
1.77457e-05
-0.00323949
0.00323958
1.3934e-05
0.00323942
1.0068e-05
0.00323913
6.15843e-06
0.0032387
2.20584e-06
0.00323811
-1.7866e-06
0.00323737
-5.81239e-06
0.00323648
-9.8634e-06
0.00323544
-1.39301e-05
0.00323423
-1.80022e-05
0.00323288
-2.20689e-05
0.00323137
-2.61195e-05
0.00322971
-3.01437e-05
0.00322791
-3.41313e-05
0.00322596
-3.80729e-05
0.00322388
-4.19596e-05
0.00322165
-4.57833e-05
0.0032193
-4.95365e-05
0.00321682
-5.32127e-05
0.00321422
-5.68058e-05
0.00321151
-6.03109e-05
0.00320868
-6.37237e-05
0.00320574
-6.70407e-05
0.0032027
-7.02593e-05
0.00319956
-7.33778e-05
0.00319633
-7.63952e-05
0.003193
-7.93114e-05
0.00318959
-8.21269e-05
0.0031861
-8.48433e-05
0.00318252
-8.74625e-05
0.00317888
-8.99875e-05
0.00317516
-9.24217e-05
0.00317137
-9.47691e-05
0.00316752
-9.70345e-05
0.00316361
-9.9223e-05
0.00315963
-0.00010134
0.0031556
-0.000103393
0.00315152
-0.000105387
0.00314738
-0.00010733
0.00314318
-0.00010923
0.00313894
-0.000111093
0.00313465
-0.000112929
0.0031303
-0.000114746
0.00312591
-0.000116552
0.00312148
-0.000118358
0.00311699
-0.000120172
0.00311245
-0.000122005
0.00310787
-0.000123867
-0.000125769
0.00326141
1.75901e-05
-0.00326126
0.00326144
1.39058e-05
0.00326134
1.01724e-05
0.00326109
6.40011e-06
0.00326071
2.58978e-06
0.00326018
-1.25614e-06
0.0032595
-5.13206e-06
0.00325867
-9.0309e-06
0.00325768
-1.29442e-05
0.00325654
-1.68627e-05
0.00325525
-2.07766e-05
0.00325381
-2.4676e-05
0.00325221
-2.85511e-05
0.00325047
-3.23925e-05
0.00324859
-3.6191e-05
0.00324657
-3.99383e-05
0.00324441
-4.36264e-05
0.00324213
-4.72482e-05
0.00323971
-5.07971e-05
0.00323717
-5.42673e-05
0.00323452
-5.7654e-05
0.00323174
-6.09528e-05
0.00322886
-6.41603e-05
0.00322588
-6.72739e-05
0.00322279
-7.02918e-05
0.00321961
-7.3213e-05
0.00321634
-7.60372e-05
0.00321297
-7.87649e-05
0.00320953
-8.13973e-05
0.003206
-8.39364e-05
0.0032024
-8.63849e-05
0.00319872
-8.8746e-05
0.00319498
-9.10237e-05
0.00319117
-9.32222e-05
0.00318729
-9.53468e-05
0.00318335
-9.74028e-05
0.00317936
-9.93962e-05
0.0031753
-0.000101333
0.00317119
-0.000103221
0.00316703
-0.000105067
0.00316282
-0.000106878
0.00315855
-0.000108663
0.00315423
-0.00011043
0.00314987
-0.000112186
0.00314545
-0.000113942
0.00314099
-0.000115707
0.00313647
-0.00011749
0.00313191
-0.000119301
-0.000121152
0.00328336
1.73864e-05
-0.00328316
0.00328344
1.38298e-05
0.00328338
1.02288e-05
0.00328319
6.59293e-06
0.00328286
2.9235e-06
0.00328238
-7.7762e-07
0.00328175
-4.50556e-06
0.00328098
-8.25414e-06
0.00328005
-1.20159e-05
0.00327897
-1.57823e-05
0.00327773
-1.95447e-05
0.00327635
-2.32938e-05
0.00327482
-2.70205e-05
0.00327315
-3.0716e-05
0.00327133
-3.43716e-05
0.00326937
-3.79792e-05
0.00326727
-4.15313e-05
0.00326504
-4.50209e-05
0.00326269
-4.84417e-05
0.00326021
-5.17881e-05
0.00325761
-5.50552e-05
0.0032549
-5.82388e-05
0.00325207
-6.13355e-05
0.00324914
-6.43428e-05
0.00324611
-6.72586e-05
0.00324298
-7.00821e-05
0.00323975
-7.28127e-05
0.00323644
-7.54509e-05
0.00323304
-7.79978e-05
0.00322956
-8.04553e-05
0.003226
-8.28257e-05
0.00322236
-8.51122e-05
0.00321866
-8.73184e-05
0.00321489
-8.94487e-05
0.00321105
-9.15077e-05
0.00320714
-9.35007e-05
0.00320318
-9.54335e-05
0.00319916
-9.73123e-05
0.00319508
-9.91436e-05
0.00319095
-0.000100934
0.00318676
-0.000102692
0.00318253
-0.000104424
0.00317823
-0.000106139
0.00317389
-0.000107844
0.0031695
-0.000109549
0.00316506
-0.000111263
0.00316056
-0.000112995
0.00315601
-0.000114754
-0.000116551
0.00330546
1.71358e-05
-0.00330521
0.00330558
1.37072e-05
0.00330557
1.02385e-05
0.00330543
6.73864e-06
0.00330514
3.20906e-06
0.00330471
-3.48671e-07
0.00330414
-3.93026e-06
0.00330341
-7.53027e-06
0.00330254
-1.1142e-05
0.00330151
-1.4758e-05
0.00330034
-1.83701e-05
0.00329901
-2.19699e-05
0.00329754
-2.55489e-05
0.00329593
-2.90989e-05
0.00329417
-3.26116e-05
0.00329227
-3.60795e-05
0.00329023
-3.94953e-05
0.00328806
-4.28523e-05
0.00328576
-4.61443e-05
0.00328334
-4.9366e-05
0.0032808
-5.25125e-05
0.00327814
-5.55798e-05
0.00327537
-5.85646e-05
0.00327249
-6.14642e-05
0.00326951
-6.42767e-05
0.00326643
-6.70009e-05
0.00326325
-6.96366e-05
0.00325999
-7.21839e-05
0.00325663
-7.46438e-05
0.00325319
-7.70181e-05
0.00324968
-7.93089e-05
0.00324608
-8.15192e-05
0.00324242
-8.36526e-05
0.00323868
-8.5713e-05
0.00323488
-8.7705e-05
0.00323101
-8.96337e-05
0.00322708
-9.15045e-05
0.00322309
-9.33233e-05
0.00321905
-9.50966e-05
0.00321494
-9.6831e-05
0.00321079
-9.85335e-05
0.00320657
-0.000100212
0.00320231
-0.000101873
0.00319799
-0.000103526
0.00319362
-0.000105179
0.0031892
-0.00010684
0.00318472
-0.000108519
0.00318019
-0.000110224
-0.000111967
0.0033277
1.68394e-05
-0.0033274
0.00332787
1.35395e-05
0.0033279
1.02033e-05
0.0033278
6.83892e-06
0.00332756
3.44841e-06
0.00332718
3.29423e-08
0.00332665
-3.40366e-06
0.00332598
-6.85656e-06
0.00332516
-1.03198e-05
0.00332419
-1.37866e-05
0.00332307
-1.72496e-05
0.0033218
-2.07011e-05
0.00332038
-2.41332e-05
0.00331882
-2.75382e-05
0.00331712
-3.09084e-05
0.00331528
-3.42366e-05
0.0033133
-3.75159e-05
0.00331118
-4.07398e-05
0.00330894
-4.39025e-05
0.00330657
-4.69987e-05
0.00330409
-5.00239e-05
0.00330148
-5.2974e-05
0.00329876
-5.58457e-05
0.00329593
-5.86364e-05
0.003293
-6.13443e-05
0.00328997
-6.39681e-05
0.00328684
-6.65074e-05
0.00328362
-6.89624e-05
0.00328031
-7.1334e-05
0.00327691
-7.36236e-05
0.00327344
-7.58334e-05
0.00326988
-7.79662e-05
0.00326626
-8.00253e-05
0.00326256
-8.20144e-05
0.00325879
-8.3938e-05
0.00325496
-8.58009e-05
0.00325106
-8.76083e-05
0.0032471
-8.93659e-05
0.00324309
-9.10797e-05
0.00323901
-9.27563e-05
0.00323488
-9.44025e-05
0.0032307
-9.60253e-05
0.00322646
-9.76322e-05
0.00322216
-9.92311e-05
0.00321781
-0.00010083
0.00321341
-0.000102437
0.00320895
-0.000104062
0.00320444
-0.000105713
-0.0001074
0.00335009
1.64985e-05
-0.00334975
0.0033503
1.33278e-05
0.00335038
1.01243e-05
0.00335032
6.89544e-06
0.00335013
3.64344e-06
0.00334979
3.69355e-07
0.00334931
-2.92338e-06
0.00334869
-6.23043e-06
0.00334791
-9.54647e-06
0.00334699
-1.28653e-05
0.00334592
-1.61804e-05
0.00334471
-1.94845e-05
0.00334334
-2.27705e-05
0.00334184
-2.6031e-05
0.00334019
-2.9259e-05
0.0033384
-3.24476e-05
0.00333647
-3.55903e-05
0.00333441
-3.86809e-05
0.00333222
-4.17138e-05
0.00332991
-4.46841e-05
0.00332747
-4.75871e-05
0.00332492
-5.0419e-05
0.00332225
-5.31767e-05
0.00331947
-5.58576e-05
0.00331659
-5.84597e-05
0.0033136
-6.09819e-05
0.00331052
-6.34237e-05
0.00330734
-6.57851e-05
0.00330407
-6.80669e-05
0.00330072
-7.02706e-05
0.00329728
-7.23981e-05
0.00329377
-7.4452e-05
0.00329018
-7.64354e-05
0.00328652
-7.83519e-05
0.00328278
-8.02058e-05
0.00327898
-8.20015e-05
0.00327512
-8.37442e-05
0.00327119
-8.54392e-05
0.00326721
-8.70923e-05
0.00326316
-8.87099e-05
0.00325906
-9.02983e-05
0.00325489
-9.18645e-05
0.00325068
-9.34156e-05
0.00324641
-9.49592e-05
0.00324208
-9.6503e-05
0.0032377
-9.80552e-05
0.00323326
-9.96242e-05
0.00322877
-0.000101219
-0.000102848
0.00337263
1.61143e-05
-0.00337225
0.00337289
1.30735e-05
0.00337301
1.00032e-05
0.003373
6.90983e-06
0.00337284
3.79599e-06
0.00337255
6.62619e-07
0.00337211
-2.48715e-06
0.00337153
-5.64941e-06
0.0033708
-8.81935e-06
0.00336993
-1.19914e-05
0.00336891
-1.51595e-05
0.00336774
-1.83172e-05
0.00336643
-2.14577e-05
0.00336497
-2.45744e-05
0.00336338
-2.76606e-05
0.00336164
-3.07098e-05
0.00335976
-3.37158e-05
0.00335775
-3.66729e-05
0.00335562
-3.95758e-05
0.00335335
-4.24195e-05
0.00335097
-4.51998e-05
0.00334846
-4.79129e-05
0.00334584
-5.05557e-05
0.00334311
-5.31257e-05
0.00334027