/*--------------------------------*- C++ -*----------------------------------*\
  =========                 |
  \\      /  F ield         | OpenFOAM: The Open Source CFD Toolbox
   \\    /   O peration     | Website:  https://openfoam.org
    \\  /    A nd           | Version:  7
     \\/     M anipulation  |
\*---------------------------------------------------------------------------*/
FoamFile
{
    version     2.0;
    format      ascii;
    class       surfaceScalarField;
    location    "10";
    object      phi;
}
// * * * * * * * * * * * * * * * * * * * * * * * * * * * * * * * * * * * * * //

dimensions      [0 3 -1 0 0 0 0];

internalField   nonuniform List<scalar> 
1262
(
0.00475949
-0.00156822
0.00476499
-0.00137617
0.00477032
-0.00117665
0.00477519
-0.000973823
0.00477961
-0.000790819
0.00478331
-0.000609216
0.0047866
-0.000486177
-0.000315275
0.00512441
-0.00146156
0.00510738
-0.00151357
0.00509153
-0.0015695
0.00507684
-0.00162936
0.00506327
-0.0016928
0.00505082
-0.00175906
0.00503948
-0.00182689
0.0050293
-0.00189447
0.0050203
-0.00195932
0.00501256
-0.00201824
0.00500613
-0.0020673
0.0050011
-0.00210185
0.0049975
-0.00211673
0.00499536
-0.00210656
0.00499463
-0.00206649
0.00499521
-0.00199273
0.00499693
-0.00188409
0.00499955
-0.0017417
0.00500282
-0.00157149
0.00500643
-0.00137979
0.00501018
-0.0011804
0.00501379
-0.000977434
0.00501719
-0.000794216
0.00502014
-0.000612166
0.0050228
-0.000488839
-0.000317267
0.00544524
-0.00143985
0.00542473
-0.00149305
0.00540536
-0.00155013
0.00538707
-0.00161108
0.00536985
-0.00167557
0.00535367
-0.00174288
0.00533855
-0.00181177
0.0053245
-0.00188043
0.0053116
-0.00194641
0.0052999
-0.00200654
0.00528951
-0.0020569
0.00528052
-0.00209286
0.00527303
-0.00210924
0.00526709
-0.00210063
0.00526273
-0.00206213
0.00525989
-0.00198989
0.00525845
-0.00188265
0.00525822
-0.00174146
0.00525897
-0.00157224
0.00526043
-0.00138124
0.00526236
-0.00118234
0.00526451
-0.000979585
0.00526673
-0.00079643
0.00526881
-0.000614251
0.00527075
-0.000490772
-0.000318846
0.00578599
-0.00141451
0.00576177
-0.00146884
0.00573862
-0.00152698
0.00571648
-0.00158894
0.00569531
-0.00165441
0.00567511
-0.00172267
0.00565586
-0.00179252
0.00563761
-0.00186218
0.00562043
-0.00192923
0.00560439
-0.00199051
0.00558963
-0.00204214
0.00557627
-0.0020795
0.00556445
-0.00209742
0.0055543
-0.00209047
0.00554587
-0.00205371
0.00553919
-0.00198321
0.0055342
-0.00187766
0.00553074
-0.00173801
0.00552864
-0.00157014
0.00552764
-0.00138025
0.00552751
-0.0011822
0.00552799
-0.000980063
0.00552884
-0.000797287
0.00552993
-0.00061534
0.00553103
-0.000491867
-0.000319944
0.00614748
-0.00138534
0.00611935
-0.00144071
0.00609219
-0.00149981
0.00606593
-0.00156269
0.00604055
-0.00162902
0.00601601
-0.00169813
0.00599232
-0.00176883
0.00596952
-0.00183938
0.00594768
-0.00190739
0.00592692
-0.00196974
0.00590737
-0.00202259
0.00588921
-0.00206134
0.00587263
-0.00208084
0.0058578
-0.00207564
0.00584487
-0.00204077
0.00583391
-0.00197224
0.00582493
-0.00186868
0.00581786
-0.00173093
0.00581254
-0.00156482
0.00580877
-0.00137648
0.00580629
-0.00117972
0.00580486
-0.000978639
0.00580418
-0.000796599
0.00580412
-0.000615285
0.00580426
-0.000492004
-0.000320484
0.00653047
-0.00135219
0.00649825
-0.00140849
0.00646688
-0.00146844
0.00643628
-0.00153209
0.00640642
-0.00159916
0.00637726
-0.00166898
0.00634881
-0.00174039
0.00632112
-0.00181169
0.00629426
-0.00188053
0.00626837
-0.00194385
0.00624362
-0.00199784
0.00622023
-0.00203795
0.00619843
-0.00205904
0.00617846
-0.00205568
0.00616055
-0.00202286
0.00614484
-0.00195654
0.00613144
-0.00185528
0.00612033
-0.00171982
0.00611141
-0.00155591
0.00610453
-0.00136959
0.00609941
-0.00117461
0.00609584
-0.000975065
0.0060934
-0.00079416
0.00609204
-0.00061393
0.00609109
-0.000491053
-0.000320381
0.00693569
-0.00131496
0.00689923
-0.00137203
0.00686346
-0.00143267
0.00682831
-0.00149694
0.00679373
-0.00156458
0.00675969
-0.00163493
0.00672618
-0.00170688
0.00669327
-0.00177877
0.00666103
-0.00184829
0.00662963
-0.00191245
0.00659927
-0.00196748
0.0065702
-0.00200888
0.00654272
-0.00203156
0.00651714
-0.0020301
0.00649377
-0.00199948
0.00647284
-0.00193562
0.00645455
-0.00183698
0.00643896
-0.00170424
0.00642604
-0.00154299
0.00641568
-0.00135923
0.0064076
-0.00116653
0.00640162
-0.000969077
0.00639721
-0.000789752
0.00639438
-0.000611102
0.0063922
-0.000488876
-0.000319542
0.00736373
-0.00127357
0.00732293
-0.00133123
0.00728264
-0.00139238
0.00724277
-0.00145707
0.00720326
-0.00152507
0.00716409
-0.00159576
0.00712525
-0.00166805
0.00708681
-0.00174032
0.00704885
-0.00181034
0.00701156
-0.00187516
0.00697518
-0.00193109
0.00694
-0.0019737
0.00690638
-0.00199795
0.00687472
-0.00199843
0.00684539
-0.00197016
0.00681876
-0.00190899
0.00679509
-0.00181332
0.00677457
-0.00168372
0.00675723
-0.00152565
0.00674301
-0.001345
0.00673164
-0.00115517
0.00672296
-0.000960393
0.00671635
-0.000783142
0.00671187
-0.000606618
0.00670831
-0.000485325
-0.000317865
0.00781513
-0.00122801
0.00776994
-0.00128604
0.00772502
-0.00134746
0.0076803
-0.00141235
0.0076357
-0.00148048
0.0075912
-0.00155125
0.00754679
-0.00162364
0.00750253
-0.00169606
0.00745854
-0.00176635
0.00741502
-0.00183163
0.00737222
-0.0018883
0.00733051
-0.00193199
0.0072903
-0.00195774
0.00725207
-0.0019602
0.0072163
-0.00193439
0.00718346
-0.00187615
0.00715394
-0.00178379
0.00712801
-0.00165779
0.0071058
-0.00150344
0.00708733
-0.00132653
0.00707232
-0.00114016
0.00706064
-0.000948715
0.00705159
-0.000774084
0.00704525
-0.00060028
0.00704016
-0.00048024
-0.000315242
0.00829029
-0.00117833
0.00824072
-0.00123646
0.00819114
-0.00129789
0.00814149
-0.0013627
0.00809168
-0.00143067
0.00804169
-0.00150126
0.0079915
-0.00157345
0.00794119
-0.00164575
0.00789088
-0.00171604
0.00784079
-0.00178154
0.00779122
-0.00183873
0.00774257
-0.00188334
0.00769534
-0.0019105
0.00765008
-0.00191494
0.00760739
-0.00189169
0.00756784
-0.00183661
0.00753196
-0.00174791
0.00750015
-0.00162598
0.00747263
-0.00147591
0.00744948
-0.00130338
0.00743047
-0.00112116
0.00741549
-0.000933731
0.00740372
-0.000762316
0.00739532
-0.00059188
0.00738854
-0.000473457
-0.000311554
0.00878954
-0.00112463
0.00873564
-0.00118256
0.00868143
-0.00124368
0.00862682
-0.00130809
0.00857174
-0.00137559
0.00851614
-0.00144566
0.00846003
-0.00151734
0.00840347
-0.00158919
0.0083466
-0.00165917
0.00828966
-0.0017246
0.00823298
-0.00178205
0.00817703
-0.00182738
0.00812235
-0.00185583
0.00806961
-0.00186221
0.00801952
-0.0018416
0.00797278
-0.00178987
0.00793006
-0.00170518
0.00789188
-0.00158781
0.00785858
-0.0014426
0.00783034
-0.00127514
0.00780696
-0.00109777
0.00778834
-0.000915116
0.0077736
-0.00074757
0.00776291
-0.000581197
0.00775426
-0.000464801
-0.000306675
0.00931307
-0.0010671
0.00925497
-0.00112446
0.00919621
-0.00118492
0.00913669
-0.00124857
0.00907632
-0.00131523
0.00901507
-0.00138441
0.00895293
-0.00145521
0.00888998
-0.00152624
0.00882636
-0.00159555
0.00876232
-0.00166056
0.00869825
-0.00171798
0.00863465
-0.00176379
0.00857216
-0.00179334
0.00851153
-0.00180157
0.00845358
-0.00178365
0.00839918
-0.00173547
0.00834911
-0.00165512
0.00830409
-0.00154279
0.00826455
-0.00140307
0.0082308
-0.00124139
0.00820266
-0.00106963
0.00818008
-0.000892538
0.00816208
-0.000729567
0.00814888
-0.000568
0.00813817
-0.000454092
-0.000300472
0.009861
-0.00100596
0.0097989
-0.00106236
0.00973573
-0.00112175
0.00967139
-0.00118423
0.0096058
-0.00124964
0.00953891
-0.00131751
0.00947071
-0.00138701
0.00940127
-0.0014568
0.00933075
-0.00152504
0.00925944
-0.00158925
0.00918774
-0.00164628
0.00911621
-0.00169225
0.00904556
-0.00172269
0.00897665
-0.00173266
0.00891042
-0.00171743
0.0088479
-0.00167295
0.00879004
-0.00159726
0.00873771
-0.00149045
0.00869148
-0.00135684
0.00865178
-0.0012017
0.0086185
-0.00103634
0.00859161
-0.000865656
0.00857007
-0.000708023
0.00855412
-0.000552051
0.00854117
-0.000441144
-0.000292805
0.0104334
-0.000941509
0.0103675
-0.000996504
0.0103002
-0.00105438
0.0102312
-0.00111524
0.0101605
-0.00117894
0.010088
-0.00124504
0.0100138
-0.00131276
0.00993781
-0.00138085
0.00986034
-0.00144756
0.00978162
-0.00151053
0.0097021
-0.00156677
0.0096224
-0.00161256
0.00954331
-0.00164359
0.00946577
-0.00165512
0.00939089
-0.00164255
0.00931984
-0.00160189
0.00925373
-0.00153116
0.00919363
-0.00143035
0.00914028
-0.00130348
0.00909422
-0.00115564
0.00905541
-0.000997531
0.00902388
-0.000834132
0.00899851
-0.00068265
0.00897957
-0.000533107
0.00896419
-0.000425771
-0.000283528
0.0110303
-0.000874063
0.010961
-0.00092718
0.0108896
-0.000983064
0.0108162
-0.00104181
0.0107406
-0.0011033
0.0106627
-0.00116713
0.0105825
-0.00123256
0.0105
-0.00129844
0.0104156
-0.0013631
0.0103294
-0.00142434
0.0102419
-0.00147932
0.0101539
-0.00152451
0.0100661
-0.00155582
0.00997968
-0.00156869
0.0098958
-0.00155867
0.00981583
-0.00152192
0.00974108
-0.00145641
0.0096728
-0.00136206
0.00961189
-0.00124258
0.00955907
-0.00110282
0.00951436
-0.000952819
0.00947785
-0.000797629
0.00944837
-0.000653166
0.00942619
-0.000510923
0.0094082
-0.000407784
-0.000272492
0.0116517
-0.000803975
0.0115792
-0.000854711
0.0115043
-0.000908087
0.0114266
-0.0009642
0.0113463
-0.00102294
0.0112631
-0.00108395
0.0111771
-0.00114655
0.0110883
-0.00120964
0.0109969
-0.00127171
0.0109032
-0.00133067
0.0108078
-0.00138387
0.0107113
-0.001428
0.0106147
-0.00145919
0.0105191
-0.00147311
0.0104259
-0.00146552
0.0103367
-0.0014327
0.010253
-0.00137265
0.0101761
-0.00128521
0.0101073
-0.00117373
0.0100473
-0.00104285
0.00999632
-0.000901852
0.00995451
-0.000755822
0.00992064
-0.000619295
0.00989498
-0.000485257
0.00987419
-0.000387001
-0.000259546
0.0122978
-0.000731592
0.0122225
-0.000779427
0.0121442
-0.000829762
0.0120627
-0.000882692
0.0119779
-0.000938126
0.0118896
-0.000995736
0.011798
-0.00105489
0.011703
-0.00111461
0.0116047
-0.00117347
0.0115036
-0.00122957
0.0114002
-0.00128043
0.0112952
-0.00132298
0.0111896
-0.0013536
0.0110847
-0.00136823
0.010982
-0.00136287
0.0108833
-0.00133397
0.0107902
-0.00127957
0.0107044
-0.00119944
0.0106273
-0.0010966
0.0105598
-0.000975377
0.0105023
-0.000844301
0.0104549
-0.000708404
0.0104164
-0.000580773
0.010387
-0.000455876
0.0103632
-0.000363246
-0.000244542
0.0129688
-0.000657235
0.012891
-0.000701641
0.0128097
-0.000748389
0.0127246
-0.000797572
0.0126355
-0.000849112
0.0125425
-0.000902715
0.0124454
-0.000957817
0.0123444
-0.00101352
0.0122394
-0.00106854
0.012131
-0.00112113
0.0120196
-0.00116904
0.0119061
-0.00120944
0.0117914
-0.00123898
0.0116771
-0.00125394
0.0115648
-0.00125055
0.0114564
-0.00122551
0.0113537
-0.00117691
0.0112587
-0.00110447
0.011173
-0.00101086
0.0110977
-0.000900096
0.0110333
-0.000779865
0.01098
-0.000655095
0.0109365
-0.00053736
0.0109032
-0.000422559
0.0108763
-0.000336355
-0.000227339
0.0136653
-0.000581171
0.0135853
-0.000621625
0.0135011
-0.00066424
0.0134126
-0.000709104
0.0133197
-0.000756154
0.0132221
-0.000805132
0.0131198
-0.000855536
0.0130129
-0.000906568
0.0129014
-0.000957076
0.0127858
-0.00100549
0.0126665
-0.00104979
0.0125445
-0.00108741
0.0124208
-0.00111534
0.0122971
-0.00113017
0.012175
-0.00112846
0.0120566
-0.00110716
0.0119442
-0.00106446
0.0118398
-0.00100006
0.0117452
-0.000916265
0.0116618
-0.00081674
0.0115903
-0.000708288
0.0115308
-0.000595649
0.0114823
-0.000488843
0.0114448
-0.000385109
0.0114147
-0.000306185
-0.000207805
0.0143879
-0.000503582
0.0143058
-0.000539575
0.0142191
-0.000577521
0.0141275
-0.000617502
0.0140308
-0.000659466
0.0139289
-0.000703194
0.0138216
-0.000748249
0.013709
-0.000793932
0.0135911
-0.000839236
0.0134684
-0.000882785
0.0133414
-0.000922785
0.013211
-0.000956988
0.0130783
-0.000982709
0.0129451
-0.000996916
0.0128132
-0.000996536
0.0126848
-0.000978825
0.0125625
-0.000942101
0.0124485
-0.000886051
0.0123448
-0.000812628
0.0122532
-0.000725103
0.0121743
-0.000629366
0.0121085
-0.000529865
0.0120547
-0.000435048
0.0120129
-0.000343361
0.0119794
-0.000272617
-0.000185827
0.0151377
-0.000424544
0.0150537
-0.000455592
0.0149645
-0.000488351
0.0148699
-0.000522897
0.0147696
-0.000559191
0.0146635
-0.000597049
0.0145513
-0.000636102
0.0144332
-0.000675759
0.0143091
-0.000715159
0.0141794
-0.000753127
0.0140448
-0.00078813
0.013906
-0.000818236
0.0137644
-0.000841134
0.0136217
-0.000854205
0.01348
-0.000854781
0.0133416
-0.000840463
0.0132093
-0.000809751
0.0130855
-0.000762335
0.0129727
-0.000699822
0.0128727
-0.000625048
0.0127863
-0.000542959
0.012714
-0.000457601
0.0126548
-0.000375851
0.0126086
-0.000297188
0.0125716
-0.00023557
-0.000161313
0.015916
-0.000344001
0.01583
-0.000369645
0.0157384
-0.000396726
0.0156408
-0.000425309
0.015537
-0.000455366
0.0154267
-0.00048675
0.0153098
-0.000519161
0.0151861
-0.000552119
0.0150559
-0.000584918
0.0149193
-0.000616597
0.0147771
-0.000645895
0.0146301
-0.000671223
0.0144796
-0.000690673
0.0143275
-0.000702076
0.0141759
-0.000703213
0.0140276
-0.00069208
0.0138852
-0.000667397
0.0137517
-0.000628881
0.0136297
-0.0005778
0.0135212
-0.000516513
0.0134272
-0.000448999
0.0133484
-0.000378784
0.0132838
-0.000311191
0.0132331
-0.000246519
0.0131925
-0.000195009
-0.000134206
0.0167245
-0.000261745
0.0166364
-0.000281558
0.0165422
-0.000302497
0.0164415
-0.000324615
0.016334
-0.000347893
0.0162195
-0.000372222
0.0160977
-0.000397373
0.0159686
-0.000422978
0.0158322
-0.000448498
0.0156888
-0.000473193
0.015539
-0.000496093
0.0153837
-0.000515973
0.0152244
-0.000531358
0.0150629
-0.00054057
0.0149016
-0.000541879
0.0147432
-0.000533724
0.0145909
-0.000515088
0.0144477
-0.000485734
0.0143165
-0.000446601
0.0141996
-0.00039953
0.0140981
-0.000347514
0.0140127
-0.000293429
0.0139426
-0.000241086
0.0138874
-0.000191351
0.0138434
-0.00015096
-0.000104491
0.0175652
-0.000177402
0.0174746
-0.000190983
0.0173774
-0.000205344
0.0172733
-0.000220524
0.017162
-0.000236512
0.017043
-0.000253233
0.0169161
-0.000270535
0.0167813
-0.000288165
0.0166386
-0.000305758
0.0164882
-0.000322806
0.0163308
-0.000338648
0.0161672
-0.000352445
0.0159991
-0.000363185
0.0158282
-0.000369714
0.0156572
-0.000370841
0.0154889
-0.000365487
0.0153268
-0.000352938
0.0151741
-0.000333024
0.0150338
-0.000306365
0.0149085
-0.000274239
0.0147997
-0.000238638
0.0147079
-0.000201657
0.0146325
-0.000165652
0.0145729
-0.000131763
0.0145254
-0.000103527
-7.22043e-05
0.0184399
0.0183463
-9.73801e-05
0.0182457
-0.000104754
0.0181377
-0.000112552
0.018022
-0.000120769
0.0178981
-0.000129367
0.0177658
-0.000138268
0.017625
-0.000147345
0.0174757
-0.000156408
0.0173181
-0.0001652
0.0171528
-0.000173381
0.0169809
-0.00018052
0.0168038
-0.000186097
0.0166236
-0.000189521
0.0164429
-0.000190176
0.0162649
-0.000187506
0.0160931
-0.00018114
0.0159311
-0.000170988
0.0157821
-0.000157355
0.0156488
-0.000140917
0.0155328
-0.000122644
0.0154348
-0.000103724
0.0153543
-8.51222e-05
0.0152905
-6.7958e-05
0.0152399
-5.28955e-05
-3.74582e-05
0.019253
0.0191483
0.0190357
0.018915
0.0187856
0.0186473
0.0185
0.0183436
0.0181784
0.018005
0.0178245
0.0176384
0.0174488
0.0172587
0.0170712
0.01689
0.016719
0.0165617
0.0164208
0.0162981
0.0161944
0.0161093
0.0160413
0.0159884
)
;

boundaryField
{
    inlet
    {
        type            calculated;
        value           nonuniform 0();
    }
    outlet
    {
        type            calculated;
        value           nonuniform List<scalar> 
26
(
0.00478894
0.00502479
0.00527233
0.00553212
0.0058048
0.00609099
0.00639137
0.00670664
0.00703754
0.00738485
0.00774938
0.00813197
0.00853351
0.00895492
0.00939716
0.00986125
0.0103482
0.0108591
0.0113951
0.0119574
0.0125471
0.0131654
0.0138137
0.0144932
0.0152051
0.015951
)
;
    }
    cylinder
    {
        type            calculated;
        value           nonuniform 0();
    }
    top
    {
        type            symmetryPlane;
        value           uniform 0;
    }
    bottom
    {
        type            symmetryPlane;
        value           nonuniform 0();
    }
    defaultFaces
    {
        type            empty;
        value           nonuniform 0();
    }
    procBoundary15to11
    {
        type            processor;
        value           nonuniform List<scalar> 
27
(
0.00156275
0.00137068
0.00117133
0.000968946
0.0007864
0.000605523
0.000482888
0.000312936
0.00147983
0.0015306
0.00158535
0.00164405
0.00170636
0.00177151
0.00183822
0.00190466
0.00196832
0.00202598
0.00207372
0.00210688
0.00212033
0.00210871
0.00206722
0.00199214
0.00188237
-0.00475402
0.00173908
)
;
    }
    procBoundary15to14
    {
        type            processor;
        value           nonuniform List<scalar> 
26
(
-0.00514268
-0.00546695
-0.00581134
-0.00617665
-0.00656362
-0.00697292
-0.00740512
-0.00786069
-0.00833998
-0.00884323
-0.0093706
-0.00992214
-0.0104978
-0.0110977
-0.0117218
-0.0123702
-0.0130432
-0.0137413
-0.0144655
-0.0152167
-0.0159965
-0.0168068
-0.0176495
-0.0185269
-9.04103e-05
-0.0193504
)
;
    }
}


// ************************************************************************* //
