/*--------------------------------*- C++ -*----------------------------------*\
  =========                 |
  \\      /  F ield         | OpenFOAM: The Open Source CFD Toolbox
   \\    /   O peration     | Website:  https://openfoam.org
    \\  /    A nd           | Version:  7
     \\/     M anipulation  |
\*---------------------------------------------------------------------------*/
FoamFile
{
    version     2.0;
    format      ascii;
    class       volScalarField;
    location    "20";
    object      p;
}
// * * * * * * * * * * * * * * * * * * * * * * * * * * * * * * * * * * * * * //

dimensions      [0 2 -2 0 0 0 0];

internalField   nonuniform List<scalar> 
42000
(
-0.40058
-0.40018
-0.390289
-0.376203
-0.359867
-0.340651
-0.320914
-0.299905
-0.279014
-0.257892
-0.237373
-0.217124
-0.19807
-0.179167
-0.16261
-0.144814
-0.132309
-0.114139
-0.108334
-0.0877822
-0.400857
-0.400346
-0.390443
-0.376312
-0.359965
-0.34073
-0.320986
-0.299968
-0.279074
-0.257948
-0.237427
-0.217175
-0.198121
-0.179215
-0.162662
-0.144854
-0.132375
-0.114143
-0.10847
-0.0876131
-0.40141
-0.400677
-0.390752
-0.376529
-0.360162
-0.340887
-0.32113
-0.300095
-0.279193
-0.258059
-0.237534
-0.217278
-0.198223
-0.17931
-0.162766
-0.144934
-0.132505
-0.11415
-0.10874
-0.0872793
-0.402238
-0.401173
-0.391215
-0.376855
-0.360456
-0.341123
-0.321346
-0.300285
-0.279371
-0.258226
-0.237694
-0.217431
-0.198375
-0.179453
-0.162921
-0.145053
-0.132698
-0.114163
-0.10914
-0.0867889
-0.403339
-0.401833
-0.39183
-0.377287
-0.360846
-0.341436
-0.321631
-0.300537
-0.279607
-0.258446
-0.237906
-0.217634
-0.198576
-0.179643
-0.163126
-0.14521
-0.132953
-0.114183
-0.10966
-0.0861541
-0.404711
-0.402654
-0.392596
-0.377825
-0.361332
-0.341825
-0.321986
-0.30085
-0.2799
-0.258719
-0.238169
-0.217886
-0.198826
-0.179877
-0.163379
-0.145407
-0.133265
-0.114211
-0.110293
-0.0853908
-0.406349
-0.403635
-0.39351
-0.378467
-0.361912
-0.34229
-0.322409
-0.301222
-0.280248
-0.259044
-0.238481
-0.218185
-0.199122
-0.180156
-0.163679
-0.145641
-0.133633
-0.114251
-0.111027
-0.0845181
-0.40825
-0.404774
-0.394571
-0.379212
-0.362584
-0.342827
-0.322899
-0.301652
-0.280651
-0.259419
-0.238841
-0.218529
-0.199463
-0.180477
-0.164023
-0.145912
-0.134052
-0.114305
-0.111848
-0.0835578
-0.41041
-0.406067
-0.395776
-0.380057
-0.363346
-0.343436
-0.323453
-0.302139
-0.281105
-0.259842
-0.239247
-0.218918
-0.199846
-0.180839
-0.164409
-0.146219
-0.134517
-0.114377
-0.112743
-0.0825341
-0.412823
-0.407512
-0.397121
-0.381
-0.364195
-0.344114
-0.324069
-0.302679
-0.28161
-0.260312
-0.239697
-0.219348
-0.20027
-0.181239
-0.164834
-0.146559
-0.135023
-0.114469
-0.113695
-0.0814728
-0.415483
-0.409106
-0.398604
-0.382038
-0.36513
-0.344859
-0.324745
-0.303272
-0.282162
-0.260825
-0.240188
-0.219817
-0.200732
-0.181675
-0.165295
-0.146933
-0.135565
-0.114585
-0.114689
-0.0804008
-0.418384
-0.410844
-0.400221
-0.38317
-0.366148
-0.345668
-0.32548
-0.303914
-0.28276
-0.261379
-0.240718
-0.220323
-0.201228
-0.182145
-0.165787
-0.147337
-0.136137
-0.114728
-0.115708
-0.0793452
-0.42152
-0.412723
-0.401968
-0.38439
-0.367245
-0.34654
-0.326269
-0.304604
-0.283401
-0.261973
-0.241285
-0.220862
-0.201756
-0.182645
-0.166309
-0.14777
-0.136731
-0.114901
-0.116734
-0.0783331
-0.424887
-0.414735
-0.403841
-0.385698
-0.368419
-0.34747
-0.327111
-0.305337
-0.284082
-0.262602
-0.241884
-0.221432
-0.202313
-0.183172
-0.166854
-0.148229
-0.137342
-0.115105
-0.117753
-0.0773902
-0.42848
-0.416872
-0.405835
-0.387088
-0.369666
-0.348458
-0.328003
-0.306113
-0.2848
-0.263264
-0.242512
-0.222029
-0.202894
-0.183723
-0.167418
-0.14871
-0.137963
-0.115342
-0.118747
-0.0765408
-0.432263
-0.419153
-0.407945
-0.388559
-0.370983
-0.349498
-0.328941
-0.306927
-0.285553
-0.263956
-0.243168
-0.22265
-0.203495
-0.184293
-0.167997
-0.14921
-0.138586
-0.115614
-0.119703
-0.0758068
-0.436256
-0.421551
-0.410168
-0.390105
-0.372367
-0.35059
-0.329924
-0.307776
-0.286336
-0.264674
-0.243846
-0.223291
-0.204113
-0.184878
-0.168585
-0.149726
-0.139205
-0.115919
-0.120605
-0.0752069
-0.440445
-0.424063
-0.412497
-0.391724
-0.373815
-0.351728
-0.330946
-0.308659
-0.287147
-0.265416
-0.244543
-0.223947
-0.204742
-0.185474
-0.169177
-0.150252
-0.139811
-0.116257
-0.121442
-0.0747567
-0.44482
-0.426685
-0.414928
-0.393411
-0.375321
-0.352911
-0.332007
-0.309571
-0.287983
-0.266177
-0.245255
-0.224615
-0.205378
-0.186075
-0.169766
-0.150784
-0.140399
-0.116625
-0.122202
-0.0744677
-0.449369
-0.429413
-0.417455
-0.395164
-0.376884
-0.354135
-0.333102
-0.31051
-0.28884
-0.266954
-0.245979
-0.22529
-0.206017
-0.186677
-0.170348
-0.151316
-0.14096
-0.117021
-0.122875
-0.0743474
-0.454084
-0.43224
-0.420073
-0.396977
-0.378499
-0.355397
-0.334227
-0.311471
-0.289715
-0.267742
-0.246709
-0.225968
-0.206652
-0.187273
-0.170915
-0.151843
-0.141488
-0.117441
-0.123452
-0.074399
-0.458954
-0.435161
-0.422777
-0.398847
-0.380162
-0.356693
-0.335381
-0.312453
-0.290603
-0.268539
-0.247442
-0.226642
-0.207278
-0.187859
-0.171462
-0.152359
-0.141976
-0.117878
-0.123928
-0.0746213
-0.463969
-0.438169
-0.42556
-0.400769
-0.381871
-0.358021
-0.336559
-0.313451
-0.291502
-0.26934
-0.248172
-0.227309
-0.207889
-0.188427
-0.171981
-0.152856
-0.142416
-0.118328
-0.124297
-0.0750091
-0.469119
-0.441258
-0.428417
-0.402741
-0.38362
-0.359376
-0.337759
-0.314462
-0.292408
-0.27014
-0.248895
-0.227963
-0.20848
-0.188972
-0.172465
-0.153328
-0.142804
-0.118783
-0.124554
-0.0755533
-0.474393
-0.444422
-0.431342
-0.404757
-0.385406
-0.360757
-0.338977
-0.315482
-0.293316
-0.270936
-0.249606
-0.228598
-0.209044
-0.189486
-0.172909
-0.153769
-0.143131
-0.119237
-0.124699
-0.076241
-0.479781
-0.447654
-0.43433
-0.406814
-0.387226
-0.362159
-0.340209
-0.316509
-0.294222
-0.271722
-0.2503
-0.229208
-0.209575
-0.189963
-0.173304
-0.154169
-0.143393
-0.11968
-0.124729
-0.0770568
-0.485271
-0.450948
-0.437374
-0.408906
-0.389075
-0.36358
-0.341452
-0.317538
-0.295123
-0.272494
-0.250971
-0.229788
-0.210066
-0.190395
-0.173644
-0.154523
-0.143583
-0.120106
-0.124646
-0.0779824
-0.490852
-0.454297
-0.440467
-0.411032
-0.39095
-0.365016
-0.342702
-0.318565
-0.296014
-0.273247
-0.251613
-0.23033
-0.21051
-0.190776
-0.173923
-0.154822
-0.143697
-0.120505
-0.124449
-0.0789979
-0.496513
-0.457695
-0.443605
-0.413185
-0.392847
-0.366462
-0.343957
-0.319587
-0.296891
-0.273976
-0.25222
-0.230828
-0.2109
-0.191098
-0.174132
-0.15506
-0.143729
-0.12087
-0.124142
-0.0800821
-0.502244
-0.461134
-0.446781
-0.415362
-0.394761
-0.367917
-0.345212
-0.3206
-0.297748
-0.274675
-0.252788
-0.231277
-0.21123
-0.191354
-0.174267
-0.155229
-0.143675
-0.121192
-0.123726
-0.0812134
-0.508032
-0.464607
-0.449988
-0.417558
-0.39669
-0.369377
-0.346463
-0.321598
-0.298581
-0.275338
-0.253308
-0.231667
-0.211493
-0.191536
-0.174319
-0.155322
-0.143531
-0.121463
-0.123204
-0.0823699
-0.513866
-0.468108
-0.453221
-0.419769
-0.398627
-0.370837
-0.347706
-0.322579
-0.299384
-0.27596
-0.253775
-0.231994
-0.211681
-0.191638
-0.174283
-0.155332
-0.143292
-0.121676
-0.122579
-0.0835305
-0.519735
-0.471629
-0.456472
-0.421991
-0.400571
-0.372293
-0.348937
-0.323536
-0.300153
-0.276535
-0.254182
-0.23225
-0.211788
-0.191653
-0.174152
-0.155253
-0.142956
-0.121822
-0.121853
-0.084675
-0.525627
-0.475163
-0.459736
-0.424218
-0.402515
-0.373743
-0.350151
-0.324466
-0.300881
-0.277057
-0.254523
-0.232427
-0.211805
-0.191572
-0.173922
-0.155079
-0.14252
-0.121896
-0.121027
-0.085786
-0.53153
-0.478704
-0.463006
-0.426447
-0.404455
-0.375181
-0.351345
-0.325362
-0.301563
-0.277518
-0.25479
-0.232519
-0.211728
-0.191391
-0.173587
-0.154803
-0.141981
-0.121891
-0.120103
-0.0868516
-0.537432
-0.482242
-0.466274
-0.428672
-0.406388
-0.376603
-0.352512
-0.32622
-0.302193
-0.277912
-0.254976
-0.232518
-0.211549
-0.191102
-0.173142
-0.154421
-0.141337
-0.121801
-0.11908
-0.0878624
-0.543321
-0.485772
-0.469535
-0.430888
-0.408307
-0.378005
-0.353648
-0.327034
-0.302763
-0.278233
-0.255074
-0.232417
-0.211261
-0.1907
-0.172582
-0.153928
-0.140587
-0.121623
-0.117955
-0.0887915
-0.549186
-0.489284
-0.47278
-0.433091
-0.410208
-0.379381
-0.354747
-0.327797
-0.303268
-0.278473
-0.255078
-0.23221
-0.210858
-0.190179
-0.171903
-0.153318
-0.139729
-0.121352
-0.116713
-0.0895992
-0.555013
-0.492771
-0.476003
-0.435274
-0.412085
-0.380726
-0.355803
-0.328504
-0.3037
-0.278624
-0.254979
-0.23189
-0.210335
-0.189534
-0.171102
-0.152588
-0.138764
-0.120983
-0.115337
-0.0904344
-0.560791
-0.496226
-0.479197
-0.437433
-0.413933
-0.382035
-0.356811
-0.329147
-0.304053
-0.278681
-0.254771
-0.23145
-0.209685
-0.188759
-0.170176
-0.151734
-0.137692
-0.120508
-0.113852
-0.091961
-0.566511
-0.499643
-0.482356
-0.439563
-0.415747
-0.383303
-0.357764
-0.329721
-0.304319
-0.278634
-0.254446
-0.230883
-0.208904
-0.187851
-0.169121
-0.150753
-0.136513
-0.119908
-0.11235
-0.0946234
-0.572151
-0.503007
-0.485467
-0.441653
-0.417518
-0.384521
-0.358654
-0.330216
-0.30449
-0.278477
-0.253998
-0.230184
-0.207987
-0.186806
-0.167936
-0.149642
-0.135227
-0.11917
-0.110808
-0.0956952
-0.577703
-0.506312
-0.488525
-0.4437
-0.41924
-0.385684
-0.359474
-0.330626
-0.304558
-0.278202
-0.25342
-0.229347
-0.206929
-0.18562
-0.166618
-0.148397
-0.133834
-0.118284
-0.109257
-0.0959979
-0.583153
-0.50955
-0.49152
-0.445697
-0.420907
-0.386784
-0.360216
-0.330943
-0.304515
-0.277802
-0.252705
-0.228366
-0.205725
-0.18429
-0.165165
-0.147019
-0.132333
-0.117247
-0.107695
-0.0959453
-0.588488
-0.512711
-0.494446
-0.447636
-0.42251
-0.387815
-0.360874
-0.331158
-0.304355
-0.277269
-0.251847
-0.227236
-0.204374
-0.182815
-0.163576
-0.145505
-0.130723
-0.116061
-0.106107
-0.0955922
-0.593695
-0.515787
-0.497292
-0.44951
-0.424043
-0.388768
-0.361438
-0.331264
-0.304067
-0.276596
-0.250839
-0.225952
-0.20287
-0.181191
-0.161851
-0.143855
-0.129003
-0.114727
-0.10448
-0.0949595
-0.598759
-0.518767
-0.500049
-0.451311
-0.425497
-0.389636
-0.3619
-0.331252
-0.303645
-0.275775
-0.249677
-0.224511
-0.201212
-0.179418
-0.159987
-0.142068
-0.127172
-0.113247
-0.102804
-0.0940802
-0.603665
-0.521642
-0.502708
-0.453031
-0.426864
-0.390408
-0.362251
-0.331112
-0.303079
-0.2748
-0.248353
-0.222908
-0.199397
-0.177494
-0.157985
-0.140144
-0.125229
-0.111624
-0.101066
-0.092983
-0.608401
-0.524401
-0.505258
-0.454661
-0.428133
-0.391078
-0.362481
-0.330837
-0.302363
-0.273663
-0.246863
-0.22114
-0.197423
-0.175418
-0.155845
-0.138085
-0.123173
-0.10986
-0.0992567
-0.0916899
-0.61295
-0.527035
-0.50769
-0.456193
-0.429297
-0.391634
-0.362581
-0.330417
-0.301487
-0.272359
-0.245202
-0.219203
-0.195288
-0.173191
-0.153566
-0.13589
-0.121001
-0.107957
-0.0973672
-0.0902179
-0.617298
-0.529532
-0.509992
-0.457616
-0.430344
-0.392067
-0.362542
-0.329843
-0.300444
-0.270881
-0.243367
-0.217096
-0.192992
-0.170811
-0.151149
-0.13356
-0.118715
-0.105918
-0.095389
-0.0885802
-0.62143
-0.531881
-0.512154
-0.45892
-0.431265
-0.392368
-0.362352
-0.329106
-0.299226
-0.269222
-0.241352
-0.214816
-0.190534
-0.168279
-0.148594
-0.131096
-0.116311
-0.103746
-0.0933152
-0.0867868
-0.62533
-0.534071
-0.514164
-0.460096
-0.432048
-0.392526
-0.362003
-0.328196
-0.297826
-0.267378
-0.239154
-0.21236
-0.187913
-0.165596
-0.145901
-0.128499
-0.11379
-0.101441
-0.0911397
-0.0848455
-0.628982
-0.53609
-0.516011
-0.461133
-0.432684
-0.392529
-0.361484
-0.327106
-0.296236
-0.265344
-0.23677
-0.209729
-0.185129
-0.162762
-0.143072
-0.12577
-0.111152
-0.0990067
-0.0888574
-0.0827619
-0.632371
-0.537927
-0.517683
-0.46202
-0.433159
-0.392368
-0.360785
-0.325825
-0.294449
-0.263113
-0.234197
-0.20692
-0.182182
-0.159779
-0.140107
-0.122911
-0.108396
-0.096444
-0.086464
-0.0805405
-0.635479
-0.53957
-0.519166
-0.462745
-0.433464
-0.392031
-0.359895
-0.324346
-0.292459
-0.260682
-0.231433
-0.203934
-0.179073
-0.156647
-0.137008
-0.119923
-0.105521
-0.0937547
-0.0839561
-0.0781842
-0.638292
-0.541005
-0.520449
-0.463297
-0.433585
-0.391506
-0.358803
-0.322659
-0.290259
-0.258048
-0.228477
-0.20077
-0.175803
-0.153367
-0.133775
-0.116807
-0.102528
-0.0909401
-0.0813309
-0.0756953
-0.640792
-0.54222
-0.521518
-0.463663
-0.433511
-0.390783
-0.357501
-0.320758
-0.287843
-0.255205
-0.225325
-0.197428
-0.172372
-0.149942
-0.13041
-0.113565
-0.099418
-0.0880017
-0.0785863
-0.0730752
-0.642962
-0.543202
-0.52236
-0.463831
-0.433229
-0.389851
-0.355977
-0.318632
-0.285205
-0.252152
-0.221979
-0.193908
-0.168783
-0.146373
-0.126915
-0.110198
-0.0961901
-0.0849408
-0.0757208
-0.070325
-0.644786
-0.543938
-0.522962
-0.463789
-0.432727
-0.388696
-0.354222
-0.316276
-0.282342
-0.248885
-0.218436
-0.190211
-0.165035
-0.142662
-0.123291
-0.106708
-0.0928455
-0.0817588
-0.0727332
-0.0674456
-0.646246
-0.544416
-0.523309
-0.463523
-0.431991
-0.387309
-0.352227
-0.313682
-0.279247
-0.245403
-0.214697
-0.186339
-0.161132
-0.138811
-0.119539
-0.103096
-0.0893851
-0.078457
-0.069623
-0.0644374
-0.647326
-0.54462
-0.523388
-0.463022
-0.431009
-0.385678
-0.349981
-0.310842
-0.275917
-0.241703
-0.210761
-0.182293
-0.157074
-0.134821
-0.115661
-0.0993654
-0.08581
-0.075037
-0.0663901
-0.0613009
-0.648008
-0.544538
-0.523185
-0.46227
-0.429769
-0.383792
-0.347475
-0.307751
-0.272347
-0.237784
-0.206629
-0.178073
-0.152864
-0.130694
-0.11166
-0.0955168
-0.0821214
-0.0715003
-0.0630348
-0.0580367
-0.648275
-0.544155
-0.522685
-0.461256
-0.428257
-0.381639
-0.344701
-0.304402
-0.268536
-0.233646
-0.202302
-0.173682
-0.148503
-0.126434
-0.107538
-0.0915525
-0.0783208
-0.0678484
-0.0595578
-0.0546453
-0.648111
-0.543458
-0.521874
-0.459966
-0.426461
-0.379209
-0.341651
-0.300791
-0.26448
-0.229288
-0.19778
-0.169121
-0.143995
-0.122043
-0.103296
-0.0874746
-0.07441
-0.0640833
-0.0559603
-0.0511275
-0.647498
-0.542434
-0.520737
-0.458387
-0.424369
-0.376492
-0.338317
-0.296912
-0.260176
-0.224709
-0.193066
-0.164394
-0.139341
-0.117522
-0.0989362
-0.0832853
-0.0703908
-0.0602068
-0.052244
-0.0474841
-0.646419
-0.541067
-0.51926
-0.456504
-0.421967
-0.373478
-0.334691
-0.292761
-0.255624
-0.219911
-0.18816
-0.159501
-0.134545
-0.112874
-0.0944618
-0.0789871
-0.0662655
-0.0562212
-0.0484109
-0.0437165
-0.644858
-0.539344
-0.517429
-0.454306
-0.419245
-0.370156
-0.330766
-0.288334
-0.250821
-0.214893
-0.183065
-0.154447
-0.129607
-0.108103
-0.0898749
-0.0745822
-0.0620363
-0.0521287
-0.0444635
-0.039826
-0.642799
-0.537251
-0.51523
-0.451779
-0.416189
-0.366518
-0.326536
-0.283627
-0.245767
-0.209657
-0.177783
-0.149232
-0.124533
-0.10321
-0.0851781
-0.0700734
-0.0577058
-0.047932
-0.0404046
-0.0358145
-0.640225
-0.534775
-0.512648
-0.44891
-0.41279
-0.362556
-0.321996
-0.278638
-0.240462
-0.204204
-0.172316
-0.14386
-0.119323
-0.0981979
-0.0803741
-0.0654633
-0.0532767
-0.0436339
-0.0362376
-0.0316843
-0.637121
-0.531902
-0.509669
-0.445686
-0.409035
-0.35826
-0.31714
-0.273366
-0.234906
-0.198537
-0.166666
-0.138334
-0.113981
-0.0930705
-0.0754657
-0.0607548
-0.0487521
-0.0392374
-0.0319662
-0.0274377
-0.633471
-0.528618
-0.506281
-0.442096
-0.404915
-0.353623
-0.311964
-0.267807
-0.2291
-0.192656
-0.160837
-0.132658
-0.108511
-0.0878305
-0.0704557
-0.0559509
-0.044135
-0.0347458
-0.0275946
-0.023078
-0.629261
-0.52491
-0.502468
-0.438128
-0.40042
-0.348639
-0.306463
-0.261961
-0.223044
-0.186565
-0.154832
-0.126833
-0.102915
-0.0824807
-0.0653472
-0.0510548
-0.0394289
-0.0301626
-0.0231272
-0.0186083
-0.624475
-0.520766
-0.498219
-0.433769
-0.39554
-0.343301
-0.300636
-0.255829
-0.21674
-0.180267
-0.148654
-0.120864
-0.0971962
-0.0770244
-0.0601433
-0.0460696
-0.0346373
-0.0254915
-0.0185691
-0.0140328
-0.619102
-0.516173
-0.493521
-0.42901
-0.390266
-0.337603
-0.294478
-0.249409
-0.210191
-0.173764
-0.142305
-0.114754
-0.0913583
-0.0714648
-0.0548472
-0.0409988
-0.0297638
-0.0207365
-0.0139252
-0.0093555
-0.613126
-0.51112
-0.488362
-0.423839
-0.38459
-0.33154
-0.287988
-0.242703
-0.203398
-0.167059
-0.135791
-0.108506
-0.0854045
-0.0658053
-0.0494623
-0.0358459
-0.0248123
-0.0159019
-0.00920128
-0.00458134
-0.606536
-0.505593
-0.482731
-0.418247
-0.378505
-0.325109
-0.281166
-0.235711
-0.196364
-0.160156
-0.129114
-0.102125
-0.0793384
-0.0600491
-0.043992
-0.0306146
-0.0197869
-0.0109921
-0.00440294
0.000284519
-0.59932
-0.499582
-0.476615
-0.412225
-0.372005
-0.318305
-0.274009
-0.228436
-0.189093
-0.15306
-0.122278
-0.0956131
-0.0731636
-0.0541999
-0.0384399
-0.0253085
-0.0146916
-0.00601168
0.000463799
0.00523645
-0.591467
-0.493077
-0.470006
-0.405764
-0.365083
-0.311127
-0.26652
-0.220879
-0.181588
-0.145773
-0.115288
-0.088975
-0.0668835
-0.0482612
-0.0328094
-0.0199316
-0.0095307
-0.000965433
0.00539283
0.0102684
-0.582968
-0.48607
-0.462895
-0.398857
-0.357735
-0.303571
-0.258698
-0.213044
-0.173853
-0.1383
-0.108147
-0.0822145
-0.060502
-0.0422366
-0.0271043
-0.0144877
-0.00430847
0.00414171
0.010378
0.0153739
-0.573819
-0.478553
-0.455276
-0.3915
-0.349959
-0.29564
-0.250547
-0.204935
-0.165892
-0.130646
-0.10086
-0.0753355
-0.0540227
-0.0361296
-0.0213283
-0.00898076
0.000970759
0.00930474
0.0154128
0.0205464
-0.564001
-0.47051
-0.447132
-0.38368
-0.341746
-0.287328
-0.242065
-0.196554
-0.157709
-0.122815
-0.0934313
-0.0683423
-0.0474498
-0.0299444
-0.0154853
-0.00341514
0.0063023
0.0145184
0.0204903
0.0257789
-0.553509
-0.461936
-0.438461
-0.375394
-0.333097
-0.278638
-0.233257
-0.187905
-0.14931
-0.114811
-0.0858653
-0.0612391
-0.0407871
-0.0236847
-0.0095793
0.00220511
0.0116817
0.0197778
0.0256037
0.0310641
-0.542339
-0.452826
-0.429256
-0.366639
-0.32401
-0.269571
-0.224126
-0.178994
-0.140699
-0.106641
-0.0781668
-0.0540303
-0.0340387
-0.0173545
-0.00361413
0.00787586
0.0171044
0.0250772
0.030749
0.0363931
-0.530487
-0.443173
-0.419513
-0.357412
-0.314484
-0.26013
-0.214678
-0.169826
-0.131882
-0.0983096
-0.0703407
-0.0467202
-0.0272087
-0.0109578
0.0024062
0.0135929
0.0225658
0.03041
0.0359195
0.041759
-0.517949
-0.432972
-0.409228
-0.347709
-0.304521
-0.250317
-0.204915
-0.160406
-0.122866
-0.0898217
-0.0623919
-0.0393133
-0.0203013
-0.00449845
0.00847763
0.0193516
0.0280617
0.0357719
0.0411083
0.0471539
-0.504722
-0.42222
-0.398396
-0.337531
-0.294121
-0.240136
-0.194845
-0.150741
-0.113655
-0.0811832
-0.0543253
-0.0318142
-0.0133206
0.00201936
0.0145961
0.0251479
0.0335874
0.0411576
0.0463097
0.0525697
-0.490804
-0.410913
-0.387017
-0.326875
-0.283288
-0.229592
-0.184472
-0.140837
-0.104257
-0.0723997
-0.0461463
-0.0242275
-0.00627101
0.00859139
0.0207576
0.0309775
0.0391384
0.0465617
0.0515179
0.0579984
-0.476196
-0.399048
-0.37509
-0.315744
-0.272023
-0.21869
-0.173804
-0.1307
-0.0946769
-0.0634773
-0.03786
-0.0165579
0.000843068
0.0152136
0.026958
0.0368362
0.0447101
0.0519789
0.0567277
0.0634318
-0.460898
-0.386625
-0.362614
-0.304138
-0.260332
-0.207435
-0.162847
-0.120338
-0.0849227
-0.0544219
-0.0294717
-0.0088104
0.00801725
0.0218817
0.0331931
0.0427198
0.0502983
0.0574041
0.0619339
0.0688618
-0.444914
-0.373644
-0.34959
-0.292061
-0.24822
-0.195835
-0.151609
-0.109759
-0.0750009
-0.0452398
-0.0209868
-0.000989965
0.0152472
0.0285917
0.039459
0.048624
0.0558987
0.062832
0.0671316
0.0742806
-0.428247
-0.360107
-0.336023
-0.279515
-0.235693
-0.183897
-0.140098
-0.0989702
-0.0649188
-0.0359372
-0.0124116
0.00689904
0.0225283
0.0353391
0.0457513
0.0545445
0.0615071
0.0682578
0.0723163
0.0796802
-0.410902
-0.346014
-0.321914
-0.266507
-0.222758
-0.171629
-0.128323
-0.0879799
-0.0546839
-0.0265209
-0.00375102
0.0148512
0.0298561
0.0421197
0.0520662
0.0604774
0.0671193
0.0736768
0.0774837
0.0850532
-0.392887
-0.331372
-0.30727
-0.253042
-0.209423
-0.15904
-0.116293
-0.0767966
-0.0443037
-0.0169973
0.00498905
0.0228614
0.0372258
0.0489293
0.0583994
0.0664185
0.0727314
0.0790841
0.0826299
0.0903921
-0.374209
-0.316183
-0.292097
-0.239128
-0.195697
-0.14614
-0.104018
-0.0654292
-0.0337862
-0.00737321
0.0138026
0.0309245
0.0446329
0.0557635
0.0647469
0.0723639
0.0783395
0.0844755
0.0877512
0.0956899
-0.354879
-0.300454
-0.276402
-0.224772
-0.181591
-0.132939
-0.0915073
-0.0538869
-0.0231393
0.00234451
0.0226838
0.0390353
0.0520727
0.0626181
0.0711048
0.0783094
0.0839397
0.0898466
0.0928443
0.10094
-0.334906
-0.284193
-0.260193
-0.209984
-0.167114
-0.119448
-0.0787722
-0.0421791
-0.0123711
0.0121488
0.0316266
0.0471887
0.0595405
0.0694887
0.0774688
0.0842514
0.0895285
0.0951934
0.097906
0.106136
-0.314305
-0.267408
-0.243482
-0.194774
-0.152279
-0.105678
-0.0658232
-0.0303154
-0.00149019
0.0220326
0.0406248
0.0553791
0.0670315
0.0763711
0.0838352
0.0901859
0.0951023
0.100512
0.102934
0.111272
-0.293087
-0.250108
-0.226279
-0.179154
-0.137097
-0.091641
-0.0526718
-0.0183058
0.009495
0.0319887
0.0496722
0.0636014
0.074541
0.0832609
0.0901999
0.0961093
0.100658
0.105799
0.107925
0.116343
-0.27127
-0.232307
-0.208597
-0.163136
-0.121583
-0.0773505
-0.0393296
-0.00616037
0.0205758
0.0420096
0.0587626
0.0718499
0.0820642
0.0901538
0.0965591
0.102018
0.106191
0.11105
0.112877
0.121344
-0.24887
-0.214014
-0.190449
-0.146733
-0.105751
-0.0628191
-0.0258086
0.00611051
0.0317432
0.052088
0.0678896
0.0801193
0.0895962
0.0970456
0.102909
0.107908
0.1117
0.116263
0.117788
0.12627
-0.225905
-0.195245
-0.171851
-0.12996
-0.0896142
-0.048061
-0.0121214
0.0184962
0.0429885
0.0622163
0.0770468
0.088404
0.0971323
0.103932
0.109245
0.113776
0.117181
0.121434
0.122656
0.131118
-0.202395
-0.176015
-0.152819
-0.112833
-0.0731893
-0.03309
0.0017195
0.030986
0.0543023
0.0723869
0.0862277
0.0966984
0.104667
0.110809
0.115564
0.11962
0.12263
0.126561
0.12748
0.135884
-0.178361
-0.156339
-0.13337
-0.0953665
-0.0564925
-0.0179207
0.015701
0.0435688
0.0656756
0.082592
0.0954258
0.104997
0.112197
0.117671
0.121863
0.125434
0.128046
0.131641
0.132258
0.140564
-0.153826
-0.136235
-0.113523
-0.077579
-0.0395407
-0.00256821
0.0298098
0.0562335
0.0770988
0.0928239
0.104634
0.113294
0.119716
0.124515
0.128136
0.131217
0.133425
0.136671
0.136989
0.145157
-0.128813
-0.115721
-0.0932953
-0.0594895
-0.0223514
0.0129519
0.0440323
0.0689688
0.0885626
0.103075
0.113847
0.121584
0.127219
0.131337
0.134382
0.136964
0.138765
0.141649
0.141673
0.149661
-0.103347
-0.0948188
-0.0727101
-0.0411156
-0.00494286
0.0286237
0.0583549
0.0817632
0.100057
0.113336
0.123056
0.129861
0.134702
0.138132
0.140595
0.142674
0.144063
0.146572
0.146307
0.154072
-0.077455
-0.0735486
-0.051789
-0.0224772
0.0126663
0.044431
0.0727634
0.0946051
0.111573
0.123601
0.132256
0.138119
0.14216
0.144896
0.146773
0.148342
0.149317
0.15144
0.150892
0.158391
-0.0511619
-0.0519343
-0.0305544
-0.00359474
0.0304568
0.0603573
0.0872436
0.107483
0.123101
0.13386
0.14144
0.146353
0.149587
0.151625
0.152912
0.153966
0.154524
0.156249
0.155428
0.162614
-0.0245005
-0.0299964
-0.00902976
0.0155103
0.0484088
0.0763855
0.101781
0.120384
0.13463
0.144106
0.1506
0.154557
0.156979
0.158315
0.159007
0.159543
0.159681
0.160999
0.159913
0.166742
0.0024964
-0.00775688
0.0127602
0.0348162
0.0665023
0.0924987
0.116362
0.133298
0.146151
0.15433
0.159731
0.162724
0.164331
0.164961
0.165057
0.16507
0.164788
0.165686
0.164348
0.170773
0.0298026
0.014755
0.0347899
0.0543004
0.0847165
0.108679
0.13097
0.146211
0.157654
0.164524
0.168824
0.17085
0.171638
0.171559
0.171056
0.170543
0.16984
0.170311
0.168734
0.174707
0.0573858
0.0375131
0.0570331
0.0739398
0.10303
0.12491
0.145592
0.159112
0.169129
0.174681
0.177873
0.178929
0.178895
0.178105
0.177002
0.175962
0.174836
0.174871
0.17307
0.178541
0.0852121
0.0604905
0.0794627
0.0937106
0.121423
0.141172
0.160212
0.171989
0.180565
0.184791
0.186872
0.186953
0.186097
0.184596
0.182891
0.181321
0.179775
0.179364
0.177358
0.182276
0.113247
0.0836593
0.102051
0.113589
0.139872
0.157449
0.174815
0.184829
0.191953
0.194846
0.195812
0.194919
0.193239
0.191026
0.188719
0.18662
0.184652
0.18379
0.1816
0.185908
0.141456
0.10699
0.12477
0.13355
0.158356
0.173721
0.189387
0.197621
0.203283
0.204838
0.204688
0.202819
0.200316
0.197392
0.194484
0.191854
0.189467
0.188148
0.185795
0.189435
0.169804
0.130454
0.147589
0.153568
0.176853
0.189971
0.203911
0.210351
0.214544
0.214759
0.213492
0.210649
0.207324
0.203689
0.200181
0.197022
0.194217
0.192435
0.189951
0.192866
0.198253
0.154021
0.170481
0.173619
0.19534
0.206181
0.218374
0.223008
0.225727
0.2246
0.222217
0.218402
0.214257
0.209914
0.205808
0.202121
0.198899
0.196651
0.194082
0.196224
0.226768
0.177659
0.193414
0.193677
0.213795
0.222331
0.232759
0.235579
0.23682
0.234354
0.230857
0.226072
0.22111
0.216062
0.21136
0.207148
0.20351
0.200797
0.198215
0.199445
0.255303
0.201333
0.216356
0.213715
0.232195
0.238404
0.247051
0.248051
0.247815
0.244011
0.239404
0.233654
0.227879
0.22213
0.216834
0.2121
0.208047
0.204875
0.202318
0.202172
0.283805
0.225003
0.239273
0.233705
0.250517
0.254381
0.261236
0.260414
0.258701
0.253563
0.247851
0.241141
0.234559
0.228113
0.222227
0.216974
0.212506
0.208885
0.20627
0.204061
0.312279
0.248659
0.262145
0.253626
0.26874
0.270244
0.275298
0.272654
0.269468
0.263003
0.256193
0.248529
0.241145
0.234008
0.227536
0.221769
0.216886
0.21282
0.21016
0.206579
0.340671
0.27226
0.284935
0.273449
0.28684
0.285974
0.289223
0.28476
0.280106
0.272322
0.264421
0.255812
0.247633
0.23981
0.232758
0.22648
0.221183
0.21668
0.213913
0.20948
0.368934
0.295769
0.307612
0.293148
0.304795
0.301553
0.302994
0.296719
0.290606
0.281511
0.272529
0.262983
0.254017
0.245515
0.237888
0.231106
0.225396
0.220466
0.217525
0.21242
0.397028
0.319152
0.330142
0.312696
0.322582
0.316963
0.316598
0.308519
0.300956
0.290563
0.280511
0.270038
0.260293
0.251121
0.242924
0.235644
0.229521
0.224176
0.221015
0.215339
0.424915
0.342376
0.352495
0.332066
0.340178
0.332186
0.330019
0.320149
0.311149
0.299471
0.288359
0.27697
0.266456
0.256621
0.247862
0.24009
0.233558
0.227809
0.224393
0.218241
0.452554
0.365407
0.374639
0.351232
0.357562
0.347204
0.343243
0.331596
0.321173
0.308225
0.296067
0.283775
0.272502
0.262014
0.2527
0.244444
0.237504
0.231364
0.227667
0.22112
0.479906
0.388212
0.396542
0.370169
0.374711
0.361999
0.356256
0.34285
0.33102
0.316818
0.30363
0.290446
0.278426
0.267295
0.257435
0.248702
0.241358
0.234838
0.23084
0.223963
0.506931
0.410755
0.418172
0.388849
0.391602
0.376554
0.369043
0.353898
0.34068
0.325242
0.311039
0.296979
0.284224
0.272461
0.262062
0.252862
0.245117
0.23823
0.233916
0.226763
0.533588
0.433004
0.439499
0.407247
0.408215
0.390851
0.381591
0.36473
0.350143
0.33349
0.318289
0.303368
0.289891
0.277507
0.266581
0.256921
0.248782
0.241538
0.236898
0.229514
0.55984
0.454925
0.46049
0.425338
0.424529
0.404874
0.393884
0.375334
0.359402
0.341554
0.325374
0.309609
0.295423
0.282431
0.270986
0.260877
0.25235
0.24476
0.239789
0.232209
0.585646
0.476485
0.481116
0.443096
0.440521
0.418606
0.405911
0.385699
0.368445
0.349427
0.332287
0.315695
0.300816
0.287229
0.275277
0.264728
0.255819
0.247896
0.242591
0.234844
0.610969
0.49765
0.501346
0.460496
0.456171
0.432029
0.417657
0.395814
0.377266
0.357102
0.339023
0.321622
0.306065
0.291896
0.279449
0.268471
0.259188
0.250942
0.245304
0.237415
0.635769
0.518388
0.52115
0.477515
0.47146
0.445129
0.429109
0.40567
0.385855
0.364571
0.345575
0.327385
0.311168
0.296431
0.2835
0.272104
0.262456
0.253898
0.24793
0.239917
0.66001
0.538667
0.540499
0.494128
0.486366
0.457889
0.440255
0.415256
0.394204
0.371828
0.351938
0.332979
0.316118
0.300829
0.287428
0.275625
0.26562
0.256762
0.250469
0.24235
0.683655
0.558454
0.559364
0.510311
0.500871
0.470294
0.451082
0.424561
0.402304
0.378865
0.358107
0.3384
0.320913
0.305088
0.291229
0.279032
0.26868
0.259532
0.252921
0.244709
0.706667
0.57772
0.577716
0.526042
0.514956
0.482329
0.461578
0.433576
0.410148
0.385677
0.364075
0.343643
0.325549
0.309203
0.294901
0.282322
0.271634
0.262207
0.255286
0.246992
0.729011
0.596434
0.595529
0.541298
0.528602
0.493979
0.471732
0.442292
0.417728
0.392256
0.369837
0.348703
0.330022
0.313173
0.298441
0.285493
0.274479
0.264785
0.257564
0.249197
0.750652
0.614566
0.612774
0.556058
0.541791
0.50523
0.48153
0.450698
0.425036
0.398597
0.375388
0.353576
0.334328
0.316993
0.301848
0.288543
0.277216
0.267265
0.259754
0.251323
0.771558
0.632087
0.629427
0.570301
0.554506
0.516069
0.490964
0.458787
0.432064
0.404693
0.380724
0.358258
0.338465
0.320662
0.305117
0.291471
0.279841
0.269645
0.261855
0.253366
0.791695
0.648969
0.645461
0.584005
0.56673
0.526482
0.500021
0.46655
0.438806
0.410539
0.385838
0.362745
0.342427
0.324175
0.308248
0.294274
0.282354
0.271923
0.263866
0.255325
0.811032
0.665186
0.660853
0.597152
0.578448
0.536457
0.508692
0.473978
0.445255
0.416128
0.390728
0.367034
0.346213
0.327531
0.311238
0.29695
0.284752
0.274099
0.265787
0.257199
0.829538
0.68071
0.675579
0.609723
0.589643
0.54598
0.516966
0.481064
0.451405
0.421457
0.395387
0.371119
0.349819
0.330727
0.314085
0.299497
0.287035
0.27617
0.267616
0.258985
0.847186
0.695518
0.689616
0.621699
0.6003
0.555042
0.524835
0.487799
0.457248
0.426519
0.399812
0.374998
0.353243
0.33376
0.316785
0.301913
0.289201
0.278135
0.269353
0.260682
0.863945
0.709584
0.702944
0.633064
0.610407
0.56363
0.532289
0.494177
0.46278
0.431309
0.403999
0.378668
0.35648
0.336628
0.319339
0.304198
0.291248
0.279993
0.270995
0.262289
0.879791
0.722887
0.715541
0.6438
0.619948
0.571733
0.53932
0.50019
0.467995
0.435824
0.407943
0.382124
0.359529
0.339328
0.321742
0.306348
0.293174
0.281742
0.272542
0.263804
0.894699
0.735404
0.727388
0.653893
0.628913
0.579343
0.545919
0.505833
0.472886
0.440057
0.411642
0.385364
0.362386
0.341859
0.323995
0.308362
0.294979
0.283381
0.273993
0.265225
0.908643
0.747115
0.738468
0.663327
0.637287
0.586449
0.552079
0.511099
0.477449
0.444007
0.415091
0.388385
0.36505
0.344217
0.326094
0.31024
0.296662
0.284909
0.275347
0.266551
0.921603
0.758001
0.748762
0.67209
0.645062
0.593043
0.557794
0.515982
0.48168
0.447667
0.418288
0.391185
0.367519
0.346403
0.328038
0.311979
0.29822
0.286324
0.276601
0.267781
0.933557
0.768044
0.758256
0.680167
0.652225
0.599117
0.563055
0.520478
0.485575
0.451036
0.421229
0.39376
0.369789
0.348412
0.329826
0.313578
0.299652
0.287626
0.277756
0.268913
0.944486
0.777228
0.766934
0.687549
0.658768
0.604663
0.567858
0.52458
0.489128
0.454109
0.423912
0.396109
0.371859
0.350244
0.331456
0.315036
0.300958
0.288813
0.27881
0.269947