/*--------------------------------*- C++ -*----------------------------------*\
  =========                 |
  \\      /  F ield         | OpenFOAM: The Open Source CFD Toolbox
   \\    /   O peration     | Website:  https://openfoam.org
    \\  /    A nd           | Version:  7
     \\/     M anipulation  |
\*---------------------------------------------------------------------------*/
FoamFile
{
    version     2.0;
    format      ascii;
    class       volVectorField;
    location    "20";
    object      U;
}
// * * * * * * * * * * * * * * * * * * * * * * * * * * * * * * * * * * * * * //

dimensions      [0 1 -1 0 0 0 0];

internalField   nonuniform List<vector> 
42000
(
(-0.00177292 0.000225323 -6.212e-21)
(-0.00438063 0.000123325 2.15112e-21)
(-0.00475805 -0.000152817 -8.02832e-22)
(-0.000716962 -0.000536329 -4.13495e-21)
(0.00753469 -0.000924653 -9.69677e-22)
(0.019732 -0.00131048 4.30434e-21)
(0.035498 -0.00166452 5.39617e-21)
(0.0542457 -0.00199044 -4.52733e-21)
(0.0756197 -0.00228154 6.25012e-21)
(0.0991534 -0.00254202 -1.75314e-21)
(0.124519 -0.00277183 -1.04656e-21)
(0.151441 -0.00297391 -1.98689e-22)
(0.179538 -0.00314979 -3.9427e-21)
(0.20884 -0.00330212 -3.50342e-21)
(0.238603 -0.00343013 9.45876e-22)
(0.269707 -0.00354628 2.90206e-21)
(0.300018 -0.00362102 -1.66813e-21)
(0.332978 -0.00375681 -3.54712e-21)
(0.362676 -0.00368785 -3.57024e-22)
(0.397391 -0.00419394 -1.56585e-21)
(-0.00178275 0.000673519 -6.05494e-21)
(-0.00433743 0.00036582 -1.17339e-20)
(-0.00461521 -0.000462681 -4.06707e-21)
(-0.000453173 -0.0016125 2.9401e-21)
(0.00793694 -0.00277625 -7.81289e-21)
(0.0202828 -0.00393223 -1.54569e-21)
(0.0362075 -0.00499268 2.07212e-21)
(0.0551223 -0.00596863 -8.71753e-21)
(0.0766724 -0.00683999 -3.7715e-21)
(0.100391 -0.00761938 3.68147e-21)
(0.125952 -0.00830663 -7.82178e-21)
(0.153078 -0.00891054 -3.83104e-21)
(0.181389 -0.00943573 3.40555e-21)
(0.210916 -0.00988999 1.07517e-20)
(0.240912 -0.0102713 6.85737e-21)
(0.272266 -0.0106163 -8.59394e-22)
(0.302816 -0.0108382 3.19114e-21)
(0.336076 -0.0112394 1.01036e-20)
(0.365947 -0.011034 -2.38545e-22)
(0.401161 -0.0125304 -7.50692e-22)
(-0.00180207 0.00111442 2.27665e-21)
(-0.00425044 0.000595899 6.50425e-21)
(-0.00432891 -0.000785238 -7.51721e-21)
(7.48913e-05 -0.00269932 1.07703e-20)
(0.0087417 -0.00463488 2.04248e-20)
(0.0213843 -0.00655668 -1.62047e-20)
(0.037626 -0.00831855 -2.12252e-21)
(0.0568744 -0.00993917 2.03693e-21)
(0.0787761 -0.011385 -5.99218e-21)
(0.102864 -0.0126772 -1.84833e-20)
(0.128812 -0.0138153 -1.04337e-20)
(0.156346 -0.014814 -3.86072e-21)
(0.185083 -0.0156811 9.76067e-21)
(0.215059 -0.016429 -1.33691e-21)
(0.245516 -0.0170555 5.67478e-21)
(0.277368 -0.0176186 5.99024e-21)
(0.308391 -0.0179801 -6.83108e-21)
(0.342246 -0.0186279 -8.20663e-21)
(0.372459 -0.0182899 2.71728e-21)
(0.408658 -0.0207115 1.0601e-20)
(-0.0018302 0.00154321 -2.50847e-20)
(-0.00411848 0.000805373 -7.88281e-21)
(-0.00389796 -0.00112884 3.9487e-20)
(0.000868204 -0.00380375 -1.31719e-20)
(0.00994949 -0.00650515 -3.36083e-20)
(0.0230364 -0.00918549 3.66509e-20)
(0.0397526 -0.0116405 -2.50319e-20)
(0.0595001 -0.0138969 -9.47006e-21)
(0.0819273 -0.0159076 5.90093e-21)
(0.106567 -0.0177023 1.48713e-20)
(0.133094 -0.0192805 1.59222e-20)
(0.161235 -0.0206623 -1.02519e-20)
(0.190607 -0.0218589 9.99526e-21)
(0.22125 -0.0228869 -2.27112e-20)
(0.252393 -0.0237447 -7.00611e-21)
(0.284981 -0.0245086 -5.37063e-21)
(0.316705 -0.0249974 1.1309e-20)
(0.351436 -0.0258608 1.96442e-21)
(0.382152 -0.0253968 -6.86902e-21)
(0.4198 -0.0286367 -8.87308e-21)
(-0.00186611 0.00195516 3.47764e-20)
(-0.00393976 0.000986195 -2.10998e-20)
(-0.00332056 -0.00150169 -5.18867e-20)
(0.00192822 -0.00493262 4.03198e-20)
(0.0115611 -0.00839148 2.51846e-20)
(0.025239 -0.0118202 -2.8928e-20)
(0.042586 -0.0149568 2.80623e-20)
(0.0629963 -0.0178364 -1.57162e-20)
(0.0861211 -0.0203986 1.7135e-20)
(0.111492 -0.0226817 5.48153e-21)
(0.138786 -0.0246848 -8.95783e-22)
(0.16773 -0.0264335 1.34397e-20)
(0.19794 -0.0279425 -1.73782e-20)
(0.229461 -0.0292315 1.19739e-20)
(0.261506 -0.0303018 1.85571e-21)
(0.29506 -0.0312422 -5.71885e-21)
(0.327699 -0.0318414 5.21754e-21)
(0.363571 -0.0328782 -1.3861e-20)
(0.394938 -0.032298 -5.1811e-21)
(0.434463 -0.0362107 4.5482e-21)
(-0.00190847 0.00234563 1.9909e-20)
(-0.00371196 0.0011305 2.70222e-20)
(-0.00259433 -0.00191179 5.91307e-20)
(0.00325687 -0.00609248 -7.47793e-20)
(0.0135776 -0.0102981 -7.15523e-20)
(0.0279919 -0.0144622 6.5326e-20)
(0.0461241 -0.0182655 -4.51436e-21)
(0.067359 -0.0217523 5.09014e-20)
(0.0913505 -0.0248489 -3.08859e-20)
(0.117629 -0.0276021 4.49672e-20)
(0.145873 -0.0300107 1.58711e-20)
(0.17581 -0.0321057 -9.81465e-21)
(0.207053 -0.0339052 -2.23397e-20)
(0.239655 -0.0354313 -1.3264e-21)
(0.272807 -0.0366901 -3.42396e-20)
(0.307541 -0.0377768 -5.06415e-21)
(0.341295 -0.0384651 7.62713e-21)
(0.378549 -0.0396221 9.09288e-21)
(0.4107 -0.0389391 1.6994e-20)
(0.452486 -0.0433444 -3.97931e-21)
(-0.00195559 0.00271013 -5.81581e-20)
(-0.00343215 0.00123068 -1.52242e-20)
(-0.00171631 -0.0023668 -4.41425e-21)
(0.00485654 -0.00728965 4.51573e-20)
(0.0160002 -0.0122288 8.81781e-20)
(0.0312948 -0.0171124 -4.57154e-20)
(0.0503648 -0.0215643 -3.22874e-20)
(0.0725831 -0.025639 1.26876e-20)
(0.0976071 -0.0292491 5.73938e-20)
(0.124964 -0.0324503 -4.88581e-20)
(0.154336 -0.035241 -3.69117e-20)
(0.185449 -0.0376572 -2.49894e-20)
(0.217913 -0.039721 3.43814e-20)
(0.251788 -0.0414553 2.98108e-20)
(0.286237 -0.042874 4.42373e-20)
(0.322348 -0.0440708 3.8104e-20)
(0.357399 -0.044823 -2.95049e-20)
(0.396247 -0.0460378 1.58077e-20)
(0.429295 -0.0452691 -1.04962e-20)
(0.473668 -0.0499572 -2.15272e-21)
(-0.0020055 0.00304431 1.06258e-20)
(-0.00309688 0.0012794 3.12027e-20)
(-0.000682995 -0.00287404 -6.68061e-20)
(0.00673008 -0.00853008 -3.04141e-21)
(0.0188304 -0.0141873 -2.27922e-20)
(0.0351473 -0.0197716 -7.35244e-20)
(0.0553051 -0.0248509 5.20188e-20)
(0.0786627 -0.0294904 3.01493e-21)
(0.104881 -0.0335896 -7.11443e-20)
(0.133484 -0.0372128 -6.07557e-21)
(0.164153 -0.0403582 1.56524e-20)
(0.196617 -0.0430665 5.0524e-20)
(0.230479 -0.0453641 -2.43626e-20)
(0.265804 -0.0472732 -2.25002e-20)
(0.301726 -0.0488187 -1.99387e-20)
(0.339392 -0.0500843 -1.53447e-20)
(0.375898 -0.0508719 3.03694e-20)
(0.41652 -0.0520737 -6.49387e-21)
(0.450557 -0.0512404 -2.50499e-20)
(0.497779 -0.0559785 1.98872e-20)
(-0.0020559 0.00334403 3.39787e-20)
(-0.00270217 0.00126968 -2.87725e-20)
(0.000509667 -0.00344048 -3.36726e-20)
(0.00888075 -0.00981928 -2.50048e-20)
(0.0220701 -0.0161767 -1.53524e-21)
(0.0395491 -0.0224402 3.13092e-20)
(0.0609418 -0.0281224 -1.48857e-20)
(0.0855908 -0.0333005 -9.5106e-20)
(0.11316 -0.0378606 6.96439e-20)
(0.143168 -0.0418762 6.99256e-20)
(0.175299 -0.0453451 1.1721e-20)
(0.209278 -0.0483123 -3.0774e-20)
(0.244702 -0.0508091 -1.09902e-20)
(0.281641 -0.0528556 -6.63529e-21)
(0.319195 -0.0544909 -2.35891e-20)
(0.358568 -0.0557795 -3.13124e-20)
(0.396665 -0.0565709 -3.51825e-20)
(0.439203 -0.0576824 3.99173e-21)
(0.474297 -0.0568095 1.18905e-20)
(0.524552 -0.0613484 -2.8748e-20)
(-0.00210423 0.00360534 2.05166e-20)
(-0.00224351 0.00119493 8.32536e-20)
(0.00186624 -0.0040726 1.24177e-19)
(0.0113122 -0.0111623 8.02264e-20)
(0.025721 -0.0181996 3.26836e-21)
(0.0444997 -0.025118 2.37779e-20)
(0.0672711 -0.0313755 3.29543e-20)
(0.0933593 -0.0370626 -1.91247e-20)
(0.12243 -0.0420521 -8.92605e-20)
(0.153999 -0.046427 -8.88678e-20)
(0.187745 -0.0501844 -2.40404e-21)
(0.223393 -0.0533736 7.33015e-20)
(0.26053 -0.0560313 -1.57516e-20)
(0.299229 -0.0581739 8.29249e-21)
(0.338551 -0.0598586 -2.13243e-20)
(0.37976 -0.0611207 4.77957e-20)
(0.419555 -0.061882 1.3879e-20)
(0.464111 -0.062821 -3.01993e-21)
(0.500306 -0.061937 3.97972e-20)
(0.5537 -0.0660194 7.73033e-21)
(-0.00214763 0.00382455 -3.60799e-20)
(-0.00171592 0.001049 -9.32656e-20)
(0.00339179 -0.00477639 -2.49051e-20)
(0.0140286 -0.0125636 -1.08252e-19)
(0.0297855 -0.0202583 2.69852e-20)
(0.0499984 -0.0278045 -6.05073e-20)
(0.0742887 -0.0346065 -6.55477e-20)
(0.101959 -0.0407698 2.63137e-20)
(0.132678 -0.0461538 3.32707e-20)
(0.165951 -0.0508513 -1.72729e-20)
(0.201459 -0.0548588 -8.49485e-20)
(0.238916 -0.0582298 -9.51274e-20)
(0.277903 -0.0610067 4.55212e-20)
(0.318489 -0.0632009 -1.1569e-20)
(0.359694 -0.0648915 -7.51258e-21)
(0.402839 -0.0660747 -7.48289e-20)
(0.444412 -0.0667704 -7.65775e-22)
(0.491044 -0.0674518 -1.60836e-20)
(0.528357 -0.0665878 3.86818e-21)
(0.584907 -0.0699566 -4.33971e-21)
(-0.002183 0.00399824 -9.07335e-20)
(-0.00111397 0.000826194 -3.45934e-20)
(0.00509185 -0.00555726 3.7606e-20)
(0.0170343 -0.014027 7.88411e-20)
(0.0342657 -0.0223543 -7.10158e-20)
(0.0560446 -0.0304984 9.50032e-20)
(0.0819899 -0.0378114 1.22302e-19)
(0.111381 -0.0444149 3.08312e-20)
(0.143885 -0.0501552 -1.6541e-20)
(0.179001 -0.0551352 1.23275e-19)
(0.216403 -0.0593512 1.58948e-19)
(0.2558 -0.0628604 1.17418e-19)
(0.296755 -0.0657119 -4.71565e-20)
(0.339336 -0.0679104 -8.27659e-22)
(0.382517 -0.0695613 1.092e-20)
(0.427669 -0.0706113 6.74777e-20)
(0.471066 -0.0712046 1.13026e-20)
(0.519788 -0.0715426 1.8542e-20)
(0.55821 -0.0707312 -3.7812e-20)
(0.617844 -0.0731384 2.13919e-20)
(-0.00220701 0.00412325 8.35472e-20)
(-0.000431783 0.000521333 5.5878e-20)
(0.00697236 -0.00641999 -9.11761e-20)
(0.020334 -0.015556 -4.42021e-20)
(0.039164 -0.0244886 5.4474e-20)
(0.0626374 -0.0331982 -5.63177e-20)
(0.0903694 -0.0409854 -2.42947e-20)
(0.121613 -0.04799 2.34354e-20)
(0.156035 -0.0540453 3.02e-20)
(0.193121 -0.0592649 -3.43327e-20)
(0.23254 -0.0636445 -5.16603e-20)
(0.273989 -0.0672457 -6.19709e-20)
(0.317016 -0.0701244 2.58446e-20)
(0.361677 -0.0722778 -1.43889e-20)
(0.406901 -0.0738414 3.38569e-20)
(0.4541 -0.0747031 -8.60428e-21)
(0.499339 -0.0751567 -8.65273e-21)
(0.550116 -0.0750674 -1.82255e-20)
(0.589613 -0.0743411 2.97009e-20)
(0.65217 -0.0755561 -3.42668e-20)
(-0.00221603 0.00419653 -7.66182e-20)
(0.00033686 0.000129991 9.55876e-20)
(0.00903971 -0.00736872 2.71109e-20)
(0.023933 -0.0171529 3.53784e-20)
(0.0444831 -0.0266614 1.24906e-19)
(0.0697757 -0.0359013 -5.9516e-20)
(0.0994213 -0.0441233 -1.51441e-19)
(0.132643 -0.0514869 2.8881e-21)
(0.169106 -0.057813 -5.43069e-21)
(0.208281 -0.0632261 -1.14342e-19)
(0.249828 -0.067722 -6.05246e-20)
(0.293428 -0.0713662 -4.0874e-20)
(0.33861 -0.0742227 -1.68211e-20)
(0.385415 -0.07628 2.59359e-21)
(0.432722 -0.0777077 -6.5946e-20)
(0.481975 -0.0783261 5.15828e-22)
(0.52904 -0.0786032 -4.26961e-21)
(0.581793 -0.0780065 4.35048e-20)
(0.622306 -0.0773964 -8.18193e-21)
(0.687533 -0.0772141 3.49693e-20)
(-0.0022061 0.004215 4.57357e-20)
(0.00119848 -0.000351327 -7.06519e-20)
(0.0113006 -0.00840686 9.43603e-21)
(0.0278364 -0.0188197 -1.5569e-19)
(0.0502255 -0.0288723 -1.1667e-19)
(0.0774583 -0.0386047 1.31826e-19)
(0.109139 -0.0472192 -2.16793e-20)
(0.144459 -0.0548969 8.51298e-20)
(0.183078 -0.0614467 1.38559e-20)
(0.224449 -0.0670046 1.02473e-19)
(0.26822 -0.0715668 7.50993e-20)
(0.314054 -0.0752032 -1.75202e-20)
(0.361455 -0.0779864 3.09721e-20)
(0.410444 -0.0798955 9.59636e-20)
(0.459849 -0.0811385 2.01566e-20)
(0.511131 -0.0814598 2.46898e-22)
(0.559973 -0.0815244 2.81818e-20)
(0.614578 -0.0803468 -5.89938e-20)
(0.656021 -0.0798806 4.29145e-20)
(0.723587 -0.0781286 -2.9123e-20)
(-0.00217329 0.00417709 5.45413e-20)
(0.0021603 -0.000926538 2.80272e-20)
(0.013762 -0.00953714 -2.68386e-20)
(0.0320499 -0.0205573 1.87444e-19)
(0.0563939 -0.0311201 -1.03159e-19)
(0.0856838 -0.0413047 -9.94865e-20)
(0.119517 -0.0502666 6.88005e-20)
(0.157046 -0.0582109 -1.00704e-20)
(0.197928 -0.0649345 6.27837e-20)
(0.241591 -0.0705862 -6.77645e-20)
(0.28767 -0.0751626 2.63038e-20)
(0.335803 -0.0787384 3.49989e-20)
(0.385466 -0.0813961 1.18743e-19)
(0.436655 -0.0831048 -8.39858e-20)
(0.488145 -0.0841146 -5.32325e-20)
(0.541399 -0.0840876 -4.71917e-20)
(0.591937 -0.0839053 -2.47219e-20)
(0.648223 -0.0820822 7.74018e-20)
(0.690492 -0.0817824 -5.9523e-20)
(0.759987 -0.0783271 -3.14113e-21)
(-0.00211382 0.00408159 -9.50288e-20)
(0.00322966 -0.00159902 -4.55573e-20)
(0.0164312 -0.0107614 1.0042e-19)
(0.0365793 -0.022366 -2.48275e-20)
(0.0629909 -0.0334026 1.0052e-19)
(0.0944505 -0.0439967 1.41879e-19)
(0.130546 -0.0532583 -6.0156e-20)
(0.17039 -0.061419 -6.76832e-20)
(0.21363 -0.0682642 -1.96079e-19)
(0.259671 -0.0739563 1.42371e-19)
(0.308126 -0.078493 -1.79099e-20)
(0.358605 -0.0819544 -1.01125e-20)
(0.410554 -0.0844338 -7.25995e-20)
(0.463934 -0.0858905 4.3085e-20)
(0.517466 -0.0866198 4.0058e-20)
(0.572604 -0.0861967 2.63008e-20)
(0.624725 -0.0857356 9.65777e-21)
(0.682483 -0.0832135 -5.10867e-20)
(0.725448 -0.0830962 -4.11273e-21)
(0.7964 -0.0778472 3.38013e-20)
(-0.00202333 0.00392648 -4.33372e-20)
(0.00441392 -0.0023704 -3.33927e-20)
(0.0193161 -0.0120808 -1.25924e-19)
(0.0414304 -0.0242451 -1.74124e-20)
(0.0700192 -0.035717 7.65693e-20)
(0.103756 -0.0466753 -1.16551e-19)
(0.142218 -0.0561866 1.85887e-20)
(0.184475 -0.0645109 7.4529e-20)
(0.23016 -0.0714233 1.465e-19)
(0.278649 -0.0771006 -1.45183e-19)
(0.329533 -0.0815423 -5.00563e-20)
(0.382389 -0.0848346 7.14472e-20)
(0.436625 -0.0870829 1.62215e-20)
(0.492162 -0.0882371 2.00619e-20)
(0.547668 -0.0886408 3.37316e-20)
(0.604568 -0.0877784 -2.68781e-21)
(0.658129 -0.0870095 -3.70955e-20)
(0.717112 -0.0837482 -1.49133e-20)
(0.760626 -0.0838219 -1.4583e-20)
(0.83251 -0.0767347 -5.20727e-21)
(-0.00189739 0.00371042 2.12998e-19)
(0.00572075 -0.00324187 -6.83359e-20)
(0.0224241 -0.0134955 1.64929e-19)
(0.0466093 -0.0261931 -8.01907e-21)
(0.0774813 -0.0380596 -8.78611e-20)
(0.113599 -0.0493345 2.05463e-21)
(0.154525 -0.0590428 6.1184e-20)
(0.199282 -0.067476 -1.07206e-20)
(0.247488 -0.074399 -1.04377e-19)
(0.298486 -0.0800047 1.05875e-20)
(0.351837 -0.0842949 -1.94183e-21)
(0.40708 -0.0873633 -6.69103e-21)
(0.463582 -0.0893284 -1.82252e-19)
(0.521217 -0.0901316 -4.27837e-20)
(0.578601 -0.0901672 -4.21519e-20)
(0.637113 -0.088828 2.76639e-20)
(0.691943 -0.0877265 -1.30988e-20)
(0.751871 -0.0837005 5.76794e-20)
(0.795768 -0.0839655 3.04547e-20)
(0.868021 -0.0750426 -2.59189e-20)
(-0.00173153 0.00343262 -1.33448e-19)
(0.00715803 -0.00421406 2.07395e-19)
(0.0257634 -0.0150049 -2.00446e-19)
(0.0521219 -0.0282075 1.37172e-22)
(0.0853797 -0.0404256 -1.96547e-20)
(0.123976 -0.0519672 -8.25266e-20)
(0.167457 -0.0618177 1.2649e-21)
(0.214794 -0.0703027 9.22885e-20)
(0.265587 -0.0771782 1.88686e-19)
(0.319138 -0.0826542 -9.83099e-20)
(0.374978 -0.0867361 6.29577e-20)
(0.432599 -0.0895259 -2.79747e-20)
(0.491325 -0.0911569 1.25475e-19)
(0.550974 -0.0915635 -1.61462e-20)
(0.610114 -0.0911923 -2.03267e-20)
(0.670059 -0.0893455 -5.80541e-20)
(0.72596 -0.0878905 3.51171e-20)
(0.786527 -0.0830906 -2.68438e-20)
(0.830625 -0.0835392 -6.20459e-20)
(0.902665 -0.0728294 4.21167e-20)
(-0.00152122 0.00309269 -5.53872e-20)
(0.0087338 -0.0052869 -2.46845e-19)
(0.029342 -0.0166075 1.82999e-19)
(0.0579744 -0.0302849 1.43438e-19)
(0.0937164 -0.0428096 1.18362e-19)
(0.134884 -0.0545657 1.12726e-19)
(0.181003 -0.0645014 2.00273e-19)
(0.230992 -0.0729794 -2.6662e-19)
(0.284425 -0.0797475 -1.52526e-19)
(0.340561 -0.0850349 4.14412e-20)
(0.398894 -0.0888513 -2.6037e-20)
(0.458866 -0.091309 -8.92759e-20)
(0.519751 -0.092557 -6.59518e-20)
(0.581307 -0.0925247 3.03341e-21)
(0.642055 -0.0917123 5.45461e-20)
(0.703229 -0.0893346 3.6377e-20)
(0.75998 -0.0875108 2.19765e-20)
(0.820858 -0.0819447 -3.0355e-20)
(0.86496 -0.0825616 6.79429e-20)
(0.936199 -0.0701571 -3.89436e-20)
(-0.00126187 0.00269056 1.43135e-19)
(0.0104561 -0.00645955 1.85025e-19)
(0.0331677 -0.0183008 -7.45446e-20)
(0.0641726 -0.0324208 -1.71204e-19)
(0.102494 -0.0452049 -1.249e-19)
(0.146319 -0.0571214 -7.15522e-20)
(0.195153 -0.0670833 -1.67568e-19)
(0.247854 -0.0754937 4.93713e-20)
(0.303969 -0.0820936 5.94478e-20)
(0.362708 -0.0871328 -2.94567e-20)
(0.423522 -0.090627 2.69964e-20)
(0.485797 -0.0927002 1.44707e-21)
(0.548756 -0.0935191 1.40352e-19)
(0.612088 -0.09301 -6.08806e-20)
(0.674272 -0.0917273 -2.69759e-20)
(0.736448 -0.0888037 2.61211e-21)
(0.793808 -0.0866012 -2.57253e-20)
(0.854656 -0.0802936 7.88178e-21)
(0.898555 -0.0810574 2.76884e-20)
(0.968415 -0.0670902 -5.24881e-22)
(-0.000948838 0.00222659 -1.66987e-19)
(0.0123332 -0.0077304 -1.47761e-19)
(0.0372488 -0.0200816 -1.95327e-19)
(0.0707224 -0.0346101 2.38872e-20)
(0.111713 -0.0476041 6.79079e-20)
(0.158277 -0.0596246 3.87917e-20)
(0.209894 -0.069552 -1.1946e-19)
(0.26536 -0.0778328 1.10259e-19)
(0.324186 -0.0842027 -1.27249e-19)
(0.385531 -0.0889342 5.99933e-20)
(0.448796 -0.0920502 5.41693e-20)
(0.513308 -0.0936889 1.48266e-19)
(0.578234 -0.0940356 2.2987e-20)
(0.643188 -0.0930169 5.8942e-20)
(0.706614 -0.0912407 -2.87347e-20)
(0.769545 -0.0877651 9.42487e-20)
(0.827256 -0.0851803 2.44078e-20)
(0.887724 -0.0781727 -3.86258e-20)
(0.931206 -0.0790575 -1.04823e-20)
(0.999136 -0.0636935 -1.05852e-20)
(-0.000577512 0.00170148 7.41904e-20)
(0.0143731 -0.00909713 -1.3029e-20)
(0.0415931 -0.0219456 6.14119e-20)
(0.0776294 -0.0368462 -5.07243e-20)
(0.121375 -0.0499989 3.25575e-20)
(0.170753 -0.0620651 1.615e-19)
(0.225214 -0.0718955 -1.0341e-19)
(0.283484 -0.0799836 -2.85833e-20)
(0.34504 -0.0860611 1.89563e-19)
(0.408978 -0.0904257 -8.44629e-20)
(0.474649 -0.0931091 2.37656e-20)
(0.541312 -0.0942656 2.69466e-20)
(0.608076 -0.0941013 -1.76172e-19)
(0.674479 -0.0925459 5.51529e-20)
(0.738934 -0.0902594 -2.65309e-20)
(0.802355 -0.0862351 -1.94523e-20)
(0.860147 -0.0832712 -3.38495e-20)
(0.919886 -0.075621 3.25687e-20)
(0.962732 -0.0765979 -2.87752e-20)
(1.02822 -0.0600311 2.92777e-20)
(-0.000143277 0.00111632 1.16191e-19)
(0.016584 -0.0105566 2.82248e-19)
(0.0462086 -0.0238875 1.60119e-19)
(0.0848989 -0.039122 -2.66172e-21)
(0.131481 -0.0523799 -1.21253e-19)
(0.183741 -0.0644318 -6.75561e-20)
(0.241098 -0.0741013 1.81328e-19)
(0.302204 -0.0819325 -7.12299e-21)
(0.366493 -0.0876553 8.95842e-22)
(0.432998 -0.0915944 1.52977e-19)
(0.501011 -0.0937926 -8.71668e-20)
(0.569721 -0.0944229 -9.63705e-20)
(0.638175 -0.0937132 1.50366e-19)
(0.705833 -0.0916002 5.49685e-20)
(0.771087 -0.0887941 1.18486e-19)
(0.834723 -0.0842337 -1.37938e-19)
(0.892317 -0.080901 -7.99921e-21)
(0.950983 -0.0726801 4.67462e-20)
(0.992973 -0.0737199 6.32124e-20)
(1.05555 -0.0561652 -1.90728e-21)
(0.00035844 0.000472565 1.05652e-19)
(0.0189738 -0.012105 -1.11813e-19)
(0.0511027 -0.0259014 -9.72116e-20)
(0.092536 -0.0414292 9.26965e-20)
(0.142032 -0.0547368 1.61732e-19)
(0.197236 -0.0667126 4.64498e-20)
(0.257531 -0.0761562 7.11571e-20)
(0.321493 -0.0836659 -1.25305e-19)
(0.388507 -0.0889716 8.25091e-20)
(0.457537 -0.0924281 -1.60965e-19)
(0.527811 -0.094091 -1.85233e-19)
(0.598444 -0.0941548 -4.04684e-21)
(0.668423 -0.0928708 -3.82156e-20)
(0.737126 -0.0901862 -1.27447e-19)
(0.802932 -0.0868585 -5.68663e-20)
(0.8665 -0.0817846 9.05166e-20)
(0.923612 -0.0781005 7.68352e-20)
(0.980876 -0.0693934 -4.42231e-20)
(1.02179 -0.0704682 -5.11864e-21)
(1.08107 -0.0521544 -2.58694e-20)
(0.000932154 -0.000227959 -1.13068e-19)
(0.0215503 -0.0137378 -1.44438e-19)
(0.056283 -0.0279802 7.84774e-20)
(0.100545 -0.0437585 9.334e-20)
(0.153026 -0.0570586 -5.55197e-20)
(0.21123 -0.068895 -1.58042e-19)
(0.274498 -0.0780464 -1.61475e-20)
(0.341324 -0.0851696 -4.42517e-20)
(0.411042 -0.0899967 -3.03815e-19)
(0.482538 -0.0929152 1.21913e-19)
(0.554977 -0.0939958 2.48877e-19)
(0.627393 -0.0934573 3.6082e-20)
(0.698713 -0.0915758 -5.76256e-20)
(0.768235 -0.0883132 2.36281e-20)
(0.834338 -0.08447 -1.32579e-19)
(0.897548 -0.0789143 -3.19942e-20)
(0.953897 -0.0749037 -8.63953e-21)
(1.00945 -0.0658057 4.07638e-22)
(1.04908 -0.0668907 -2.95417e-20)
(1.10471 -0.0480536 -2.0109e-21)
(0.0015823 -0.000983071 -3.02379e-19)
(0.0243212 -0.0154495 1.83922e-19)
(0.0617564 -0.0301159 -1.31881e-19)
(0.108931 -0.0460998 -2.73513e-19)
(0.164463 -0.0593332 -9.26467e-20)
(0.225714 -0.0709654 4.02885e-20)
(0.29198 -0.0797579 -8.55014e-21)
(0.361669 -0.0864296 1.45583e-19)
(0.434055 -0.0907175 2.01366e-19)
(0.507946 -0.0930448 1.96255e-19)
(0.582435 -0.0934999 -7.11192e-20)
(0.656477 -0.0923284 -1.21387e-19)
(0.728939 -0.0898328 2.01953e-20)
(0.799043 -0.0859932 -5.48475e-20)
(0.865176 -0.0816488 5.13812e-20)
(0.92774 -0.0756523 3.26046e-20)
(0.98305 -0.0713471 -2.1594e-20)
(1.0366 -0.0619617 -2.25224e-21)
(1.07476 -0.0630369 -4.75532e-20)
(1.12647 -0.0439125 4.38633e-20)
(0.00231321 -0.00179024 1.08365e-19)
(0.0272938 -0.0172343 -3.95254e-20)
(0.0675297 -0.0322999 2.46397e-20)
(0.117696 -0.0484421 2.33903e-19)
(0.176341 -0.0615478 7.02844e-20)
(0.24068 -0.0729098 -2.83755e-19)
(0.309959 -0.0812759 1.55715e-19)
(0.382497 -0.0874317 -1.43737e-19)
(0.457502 -0.0911213 -4.36605e-20)
(0.533701 -0.0928072 -8.52332e-20)
(0.610111 -0.0925976 6.65305e-20)
(0.685606 -0.0907681 -9.45037e-20)
(0.758998 -0.0876487 -8.37875e-20)
(0.829434 -0.0832413 1.18643e-19)
(0.895329 -0.0784181 1.65226e-19)
(0.956962 -0.0720304 1.00391e-20)
(1.01096 -0.0674696 6.55915e-20)
(1.06225 -0.0579061 6.35907e-20)
(1.09876 -0.0589567 -2.67904e-20)
(1.14636 -0.0397756 -9.78081e-20)
(0.00312909 -0.00264659 -3.359e-21)
(0.0304754 -0.0190852 8.55228e-20)
(0.0736091 -0.0345224 1.6531e-19)
(0.126845 -0.0507732 -8.56993e-20)
(0.188658 -0.0636887 -2.89806e-19)
(0.256117 -0.0747136 1.4479e-19)
(0.328416 -0.0825858 -3.2709e-19)
(0.403776 -0.0881618 1.95532e-19)
(0.48134 -0.0911962 8.83913e-20)
(0.559743 -0.0921937 -1.18415e-20)
(0.637929 -0.0912849 -9.13897e-20)
(0.714691 -0.0887787 1.94233e-20)
(0.788788 -0.0850329 1.34202e-19)
(0.859302 -0.080075 -1.18146e-19)
(0.924685 -0.0748038 -8.96665e-21)
(0.985113 -0.0680823 -5.7628e-20)
(1.03755 -0.0633109 -1.60265e-19)
(1.08635 -0.0536824 -9.43808e-20)
(1.12105 -0.0546996 2.97006e-20)
(1.1644 -0.0356818 9.71355e-20)
(0.00403403 -0.00354893 2.10089e-19)
(0.0338726 -0.0209949 -2.38411e-20)
(0.0800004 -0.0367731 -1.16096e-19)
(0.136378 -0.0530806 -1.63553e-19)
(0.20141 -0.0657415 1.39549e-19)
(0.272014 -0.0763616 -1.52459e-19)
(0.347328 -0.0836723 1.40862e-19)
(0.425474 -0.088606 -4.3199e-20)
(0.505521 -0.0909306 -1.83398e-19)
(0.586012 -0.0911965 -8.74362e-21)
(0.665815 -0.0895597 9.76599e-20)
(0.743643 -0.0863645 1.99568e-19)
(0.818211 -0.0819975 -8.84459e-20)
(0.888544 -0.0765145 1.48032e-19)
(0.953147 -0.0708339 2.46079e-21)
(1.0121 -0.0638427 9.36808e-20)
(1.06275 -0.0589119 -9.44482e-20)
(1.10886 -0.0493323 1.05219e-20)
(1.14162 -0.0503129 7.41532e-20)
(1.18066 -0.0316644 -1.2467e-20)
(0.00503193 -0.00449373 -1.78352e-19)
(0.0374918 -0.0229553 -9.65515e-20)
(0.0867086 -0.0390405 -8.95313e-20)
(0.146298 -0.0553505 3.2311e-19)
(0.214591 -0.0676913 1.71773e-19)
(0.288358 -0.077838 2.01803e-19)
(0.366674 -0.0845202 9.25947e-20)
(0.447557 -0.0887507 3.67244e-20)
(0.529997 -0.0903138 1.28548e-19)
(0.612446 -0.0898096 -3.45782e-19)
(0.693694 -0.0874213 -1.13845e-20)
(0.772378 -0.0835319 -4.56572e-20)
(0.847174 -0.0785567 1.73137e-19)
(0.917064 -0.072582 2.421e-21)
(0.980623 -0.0665382 3.53174e-20)
(1.03786 -0.0593476 -9.20709e-20)
(1.0865 -0.0543132 3.69698e-20)
(1.12977 -0.0448956 1.11187e-19)
(1.16047 -0.0458412 5.55888e-21)
(1.19519 -0.0277513 -3.97467e-20)
(0.00612654 -0.00547717 -1.66066e-19)
(0.0413391 -0.0249577 4.55872e-20)
(0.0937384 -0.0413128 2.22252e-20)
(0.156605 -0.0575686 -1.12146e-19)
(0.228198 -0.0695224 -1.17254e-19)
(0.305136 -0.0791268 -5.72956e-20)
(0.386429 -0.0851143 1.28587e-19)
(0.469987 -0.0885826 6.52486e-20)
(0.55472 -0.0893362 -5.85915e-20)
(0.638983 -0.088028 1.72199e-19)
(0.721491 -0.0848713 9.82303e-20)
(0.80081 -0.0802898 -8.49411e-21)
(0.875588 -0.0747272 -1.05673e-19)
(0.944776 -0.0683019 -1.46603e-19)
(1.00704 -0.0619481 -8.88134e-20)
(1.06233 -0.0546331 2.98084e-20)
(1.10876 -0.0495547 -9.5248e-22)
(1.14907 -0.0404096 -6.36929e-20)
(1.17765 -0.0413252 -9.01545e-20)
(1.20808 -0.0239659 5.46555e-20)
(0.00732139 -0.00649513 -6.95071e-21)
(0.0454199 -0.0269927 1.74743e-21)
(0.101094 -0.0435772 1.62252e-19)
(0.167299 -0.0597198 -2.10964e-19)
(0.242222 -0.0712186 1.22552e-19)
(0.322332 -0.0802119 1.5349e-19)
(0.406567 -0.0854395 -8.42938e-20)
(0.492728 -0.0880892 4.01975e-20)
(0.579639 -0.087989 -5.38859e-20)
(0.66556 -0.0858483 -1.03914e-20)
(0.749133 -0.0819129 3.86939e-20)
(0.828859 -0.0766491 6.78107e-20)
(0.903369 -0.0705277 -1.0555e-20)
(0.9716 -0.0637004 1.19205e-19)
(1.03232 -0.0570962 8.02783e-20)
(1.08545 -0.049735 3.51272e-20)
(1.12952 -0.0446754 -9.77983e-21)
(1.16679 -0.0359085 2.36135e-20)
(1.19318 -0.0368012 -1.29357e-20)
(1.21941 -0.0203277 -1.21352e-19)
(0.00861983 -0.00754322 4.51363e-19)
(0.0497392 -0.0290505 -1.26158e-19)
(0.108777 -0.0458202 -2.60606e-19)
(0.178379 -0.0617887 2.18715e-19)
(0.256656 -0.0727632 -1.03692e-19)
(0.33993 -0.0810766 -3.1756e-20)
(0.427062 -0.0854807 2.81462e-20)
(0.515741 -0.0872583 2.28949e-20)
(0.604703 -0.0862647 3.50796e-20)
(0.692115 -0.083269 -7.59616e-20)
(0.776547 -0.0785516 -1.06988e-20)
(0.856446 -0.0726227 -2.50938e-19)
(0.930438 -0.0659791 -5.46462e-20)
(0.997465 -0.0588048 -4.64464e-20)
(1.05641 -0.0520153 -1.6054e-20)
(1.10721 -0.0446886 2.47973e-20)
(1.14877 -0.0397122 -6.49838e-21)
(1.18296 -0.0314236 8.60275e-21)
(1.20714 -0.0323 -5.58544e-20)
(1.22928 -0.0168546 1.11624e-19)
(0.010025 -0.00861676 -3.72061e-19)
(0.0543015 -0.0311205 3.48155e-20)
(0.116792 -0.0480279 1.60099e-19)
(0.189842 -0.0637588 -1.5049e-19)
(0.271491 -0.0741393 -1.33784e-19)
(0.357911 -0.0817046 -1.91888e-19)
(0.447884 -0.0852235 -8.46816e-20)
(0.538985 -0.0860788 -2.04623e-19)
(0.629861 -0.0841569 -1.9223e-20)
(0.718584 -0.0802899 6.76806e-20)
(0.803661 -0.0747944 -1.95587e-19)
(0.883496 -0.0682255 8.77993e-20)
(0.956724 -0.0611037 -3.75997e-20)
(1.02231 -0.0536439 -8.92546e-20)
(1.07927 -0.0467387 -1.14402e-19)
(1.12758 -0.0395281 1.08026e-20)
(1.16652 -0.0347001 4.41192e-20)
(1.19761 -0.0269825 -1.19243e-20)
(1.2196 -0.0278473 1.1238e-19)
(1.23778 -0.0135649 -5.11879e-20)
(0.0115396 -0.00971086 3.19204e-19)
(0.0591106 -0.033192 7.99185e-20)
(0.125138 -0.0501856 1.47757e-19)
(0.201685 -0.0656135 1.2167e-19)
(0.286716 -0.0753295 3.54121e-19)
(0.376256 -0.0820792 1.60567e-19)
(0.469005 -0.0846536 -3.0617e-20)
(0.56242 -0.0845404 8.3214e-20)
(0.655059 -0.0816607 -9.81733e-20)
(0.744905 -0.0769128 1.73561e-19)
(0.830409 -0.0706507 8.78556e-20)
(0.90994 -0.0634745 1.96481e-20)
(0.982162 -0.0559253 1.48942e-19)
(1.04608 -0.0482468 2.81982e-20)
(1.10087 -0.0412994 8.98427e-20)
(1.14655 -0.034286 -1.37941e-19)
(1.18279 -0.0296715 -1.06928e-19)
(1.21082 -0.0226096 1.17574e-21)
(1.23063 -0.0234629 6.16781e-20)
(1.245 -0.0104755 8.55653e-20)
(0.0131665 -0.0108204 -4.04756e-19)
(0.0641697 -0.0352533 1.15884e-20)
(0.133817 -0.0522783 -1.78731e-19)
(0.213903 -0.0673358 1.6054e-20)
(0.302319 -0.0763165 -4.45895e-19)
(0.394944 -0.0821841 2.19414e-20)
(0.490392 -0.0837574 2.86988e-20)
(0.586003 -0.0826338 -2.01553e-20)
(0.680245 -0.0787727 6.15605e-20)
(0.771017 -0.0731411 -1.6591e-20)
(0.856722 -0.0661316 4.54303e-20)
(0.935713 -0.0583882 2.43593e-20)
(1.00669 -0.0504693 -3.86995e-20)
(1.06874 -0.0426433 -1.22111e-20)
(1.12119 -0.0357295 -4.59985e-20)
(1.16413 -0.028993 1.41387e-19)
(1.19762 -0.0246561 5.51379e-20)
(1.22265 -0.0183256 5.51261e-20)
(1.24031 -0.0191578 -4.08829e-20)
(1.25102 -0.0075974 -6.72922e-20)
(0.0149078 -0.0119399 3.20244e-19)
(0.0694813 -0.0372928 -1.93878e-19)
(0.142829 -0.0542904 1.72585e-20)
(0.22649 -0.0689081 -1.99507e-19)
(0.318287 -0.0770826 5.024e-19)
(0.413953 -0.0820034 1.77118e-19)
(0.512012 -0.0825222 -2.79176e-19)
(0.60969 -0.0803509 -6.49742e-20)
(0.705365 -0.075491 1.08334e-21)
(0.79686 -0.0689803 1.21429e-20)
(0.882538 -0.06125 -1.16272e-19)
(0.960752 -0.0529867 4.44893e-20)
(1.03027 -0.0447616 1.15194e-19)
(1.09024 -0.036863 1.72827e-19)
(1.14021 -0.0300605 4.92585e-20)
(1.18034 -0.0236776 -4.56698e-20)
(1.21106 -0.0196809 -1.90675e-20)
(1.23316 -0.0141468 -7.2324e-20)
(1.24873 -0.0149329 1.30666e-20)
(1.25594 -0.00497889 -1.28293e-20)
(0.0167656 -0.0130639 8.67282e-20)
(0.0750474 -0.0392981 3.035e-19)
(0.152171 -0.056206 -9.62434e-20)
(0.23944 -0.0703128 9.05229e-20)
(0.334605 -0.0776105 -1.94303e-19)
(0.433258 -0.0815213 -6.77575e-20)
(0.533832 -0.0809358 1.96844e-19)
(0.633437 -0.0776849 1.64573e-20)
(0.730367 -0.0718152 8.6702e-20)
(0.822374 -0.0644373 -4.00521e-20)
(0.907797 -0.0560205 6.60336e-20)
(0.985004 -0.0472915 -3.43927e-20)
(1.05284 -0.038829 -5.12302e-20)
(1.11057 -0.0309354 -1.78466e-19)
(1.15793 -0.024322 -9.66793e-20)
(1.1952 -0.0183657 -4.01269e-20)
(1.22314 -0.0147702 6.61612e-21)
(1.24244 -0.010084 5.33727e-20)
(1.25596 -0.0107934 -1.08205e-20)
(1.25995 -0.00286246 1.20536e-20)
(0.0187419 -0.0141868 -3.79696e-19)
(0.0808692 -0.041257 -5.74551e-20)
(0.161841 -0.0580091 9.41402e-20)
(0.252743 -0.0715323 -9.54393e-20)
(0.351257 -0.0778829 -1.19467e-19)
(0.452834 -0.0807229 -2.2509e-19)
(0.555816 -0.0789872 -2.08178e-19)
(0.657199 -0.0746302 1.86561e-19)
(0.755197 -0.0677467 6.35586e-20)
(0.847502 -0.059521 -2.04242e-19)
(0.932442 -0.0504594 -5.24019e-20)
(1.00842 -0.0413252 -1.50323e-19)
(1.07438 -0.0326986 -7.15588e-20)
(1.12972 -0.0248892 1.73983e-19)
(1.17436 -0.0185423 9.40461e-20)
(1.20876 -0.013081 -8.28707e-20)
(1.23394 -0.00994517 -6.52863e-21)
(1.25057 -0.00614136 -5.09841e-20)
(1.26209 -0.00679332 7.55158e-20)
(1.26343 -0.00160023 -8.82135e-21)
(0.0208381 -0.0153027 2.60898e-19)
(0.086947 -0.0431565 -4.94882e-20)
(0.171836 -0.0596833 2.06778e-19)
(0.266391 -0.0725486 2.04739e-19)
(0.368225 -0.0778827 1.71852e-19)
(0.472655 -0.0795936 1.04848e-19)
(0.577927 -0.0766664 2.79317e-19)
(0.680931 -0.0711828 -1.27029e-19)
(0.779803 -0.0632887 -1.24784e-20)
(0.872189 -0.0542421 2.51191e-19)
(0.95642 -0.0445845 1.12856e-19)
(1.03095 -0.0351113 2.82343e-19)
(1.09485 -0.0263975 1.63245e-20)
(1.14766 -0.0187522 -1.58455e-19)
(1.18952 -0.0127475 -5.31693e-20)
(1.22104 -0.00784423 1.64648e-19)
(1.24351 -0.00522366 2.31205e-20)
(1.25762 -0.00232057 6.59143e-20)
(1.26714 -0.00302992 -9.00329e-21)
(1.26701 -0.000225927 1.11522e-20)
(0.0230551 -0.0164054 -1.89896e-19)
(0.0932803 -0.0449835 -8.71912e-21)
(0.182151 -0.0612117 -2.73219e-19)
(0.280372 -0.073344 -2.17875e-20)
(0.38549 -0.077593 1.12135e-19)
(0.492691 -0.0781196 -1.00208e-20)