/*--------------------------------*- C++ -*----------------------------------*\
  =========                 |
  \\      /  F ield         | OpenFOAM: The Open Source CFD Toolbox
   \\    /   O peration     | Website:  https://openfoam.org
    \\  /    A nd           | Version:  7
     \\/     M anipulation  |
\*---------------------------------------------------------------------------*/
FoamFile
{
    version     2.0;
    format      ascii;
    class       volScalarField;
    location    "5";
    object      p;
}
// * * * * * * * * * * * * * * * * * * * * * * * * * * * * * * * * * * * * * //

dimensions      [0 2 -2 0 0 0 0];

internalField   nonuniform List<scalar> 
6050
(
-0.348305
-0.360811
-0.369516
-0.384688
-0.403003
-0.423912
-0.445318
-0.349478
-0.361701
-0.370421
-0.38562
-0.404036
-0.425128
-0.446829
-0.351743
-0.36341
-0.372145
-0.387375
-0.405958
-0.427365
-0.449581
-0.354953
-0.365804
-0.374528
-0.389751
-0.408504
-0.430266
-0.453087
-0.35891
-0.368707
-0.377352
-0.392477
-0.411322
-0.43337
-0.45673
-0.363382
-0.371917
-0.380372
-0.395246
-0.414025
-0.436176
-0.459867
-0.482981
-0.368133
-0.375229
-0.38334
-0.397755
-0.416235
-0.438221
-0.461921
-0.485276
-0.372937
-0.378463
-0.386035
-0.399736
-0.417628
-0.439132
-0.462463
-0.485647
-0.377599
-0.38147
-0.388283
-0.400987
-0.417974
-0.438677
-0.461282
-0.483864
-0.381969
-0.384148
-0.389976
-0.401392
-0.417205
-0.43673
-0.458314
-0.479995
-0.385944
-0.386448
-0.391074
-0.400927
-0.415285
-0.433407
-0.453736
-0.474324
-0.389471
-0.38837
-0.391597
-0.399667
-0.412355
-0.428924
-0.447877
-0.46721
-0.484365
-0.392547
-0.389952
-0.391633
-0.397768
-0.408658
-0.423612
-0.441166
-0.459279
-0.475187
-0.395214
-0.391263
-0.391317
-0.395444
-0.404501
-0.417864
-0.43406
-0.450903
-0.465337
-0.397553
-0.392396
-0.390811
-0.392946
-0.40022
-0.412058
-0.426954
-0.442403
-0.455007
-0.399678
-0.39346
-0.390292
-0.390532
-0.396142
-0.406572
-0.420126
-0.433935
-0.444241
-0.447158
-0.401732
-0.394577
-0.389939
-0.388447
-0.392543
-0.401626
-0.413712
-0.425509
-0.433024
-0.432664
-0.403877
-0.39587
-0.389923
-0.386895
-0.389618
-0.397337
-0.407711
-0.417054
-0.421368
-0.417666
-0.404808
-0.406283
-0.397467
-0.390394
-0.386023
-0.387459
-0.393709
-0.402033
-0.408482
-0.409358
-0.402493
-0.387594
-0.409117
-0.399482
-0.391464
-0.385897
-0.386055
-0.390647
-0.396534
-0.399733
-0.397149
-0.387475
-0.371046
-0.349215
-0.412528
-0.402014
-0.393193
-0.386493
-0.385319
-0.388004
-0.391063
-0.390806
-0.384929
-0.372877
-0.355359
-0.333695
-0.416607
-0.405145
-0.395612
-0.387768
-0.38517
-0.38563
-0.385518
-0.381761
-0.37288
-0.358875
-0.340613
-0.319267
-0.295981
-0.421448
-0.408919
-0.398666
-0.389618
-0.385456
-0.383321
-0.379807
-0.372662
-0.361128
-0.34555
-0.326797
-0.305843
-0.283579
-0.427114
-0.413343
-0.402262
-0.391966
-0.385995
-0.380899
-0.373891
-0.36358
-0.349752
-0.332918
-0.313849
-0.293308
-0.271969
-0.250419
-0.433637
-0.418393
-0.406315
-0.394746
-0.386586
-0.37823
-0.367767
-0.354568
-0.33878
-0.320943
-0.301673
-0.281537
-0.261025
-0.24057
-0.220543
-0.441032
-0.424011
-0.410791
-0.397851
-0.38703
-0.375224
-0.361441
-0.345653
-0.328203
-0.309557
-0.290163
-0.270407
-0.250629
-0.231139
-0.212216
-0.194116
-0.449296
-0.430111
-0.415719
-0.401111
-0.387166
-0.371827
-0.354924
-0.336842
-0.31798
-0.298677
-0.279207
-0.259802
-0.240677
-0.222042
-0.204096
-0.187022
-0.170942
-0.458407
-0.436597
-0.42115
-0.404313
-0.386863
-0.368008
-0.348218
-0.328118
-0.308057
-0.288213
-0.268699
-0.249616
-0.231075
-0.213201
-0.196125
-0.179969
-0.164826
-0.150833
-0.468306
-0.443394
-0.427074
-0.407255
-0.386024
-0.363745
-0.341318
-0.319449
-0.298365
-0.278073
-0.25854
-0.239754
-0.221739
-0.204548
-0.188254
-0.172926
-0.158624
-0.145429
-0.133206
-0.122366
-0.478875
-0.450469
-0.43335
-0.409774
-0.384572
-0.359019
-0.334208
-0.310792
-0.288834
-0.268171
-0.248639
-0.230131
-0.212596
-0.196026
-0.180438
-0.16586
-0.152322
-0.139855
-0.128359
-0.118164
-0.489924
-0.457825
-0.439693
-0.41173
-0.382449
-0.353808
-0.326859
-0.302096
-0.279391
-0.258423
-0.238914
-0.220673
-0.203582
-0.18758
-0.172639
-0.158748
-0.145906
-0.134109
-0.123283
-0.11368
-0.5012
-0.465484
-0.445726
-0.412994
-0.37961
-0.348087
-0.319236
-0.293305
-0.269966
-0.248756
-0.229292
-0.211312
-0.194641
-0.179168
-0.164823
-0.151565
-0.139364
-0.128186
-0.117982
-0.108925
-0.512412
-0.473433
-0.451069
-0.413427
-0.376015
-0.341827
-0.311296
-0.284361
-0.260493
-0.239099
-0.219708
-0.201992
-0.185723
-0.170748
-0.156962
-0.144293
-0.132686
-0.122087
-0.112462
-0.103907
-0.523261
-0.481588
-0.4554
-0.412889
-0.371623
-0.334996
-0.302996
-0.275208
-0.25091
-0.229392
-0.210105
-0.19266
-0.176786
-0.162288
-0.149031
-0.136916
-0.125864
-0.11581
-0.106725
-0.0986354
-0.533469
-0.489756
-0.45849
-0.411249
-0.366388
-0.32756
-0.294286
-0.26579
-0.241158
-0.219578
-0.20043
-0.183273
-0.167791
-0.153758
-0.141008
-0.129419
-0.118893
-0.109354
-0.100777
-0.0931189
-0.54279
-0.497627
-0.460184
-0.408396
-0.36026
-0.319479
-0.285122
-0.256055
-0.231186
-0.209608
-0.19064
-0.173792
-0.158709
-0.145134
-0.132876
-0.121793
-0.111769
-0.102722
-0.0946239
-0.087367
-0.551015
-0.5048
-0.460381
-0.404243
-0.353186
-0.310713
-0.275456
-0.245955
-0.220946
-0.199439
-0.180696
-0.164183
-0.149511
-0.136394
-0.124621
-0.114029
-0.104489
-0.0959167
-0.0882709
-0.0813898
-0.557968
-0.510834
-0.459003
-0.398727
-0.345119
-0.301221
-0.265249
-0.235448
-0.210398
-0.189035
-0.170567
-0.15442
-0.140175
-0.127524
-0.116233
-0.106122
-0.0970541
-0.0889407
-0.0817249
-0.0752007
-0.563495
-0.515298
-0.455969
-0.391811
-0.336019
-0.290969
-0.254464
-0.224498
-0.19951
-0.178366
-0.160226
-0.144481
-0.130686
-0.11851
-0.107703
-0.0980697
-0.0894649
-0.0817995
-0.0749952
-0.0688145
-0.567421
-0.517803
-0.451185
-0.383468
-0.325858
-0.279925
-0.243072
-0.213076
-0.188255
-0.167407
-0.149651
-0.134349
-0.121028
-0.109342
-0.0990269
-0.0898705
-0.0817251
-0.0745023
-0.0680961
-0.0622434
-0.569545
-0.518024
-0.444553
-0.373666
-0.314599
-0.268051
-0.231037
-0.201152
-0.176604
-0.156135
-0.138822
-0.124004
-0.111189
-0.100013
-0.0901988
-0.0815255
-0.0738401
-0.0670604
-0.0610459
-0.0554928
-0.569894
-0.515833
-0.436018
-0.362374
-0.302204
-0.25531
-0.218328
-0.188698
-0.164536
-0.144532
-0.127719
-0.113434
-0.101162
-0.0905177
-0.081218
-0.0730383
-0.065818
-0.059483
-0.0538565
-0.0485736
-0.568233
-0.511026
-0.425496
-0.34957
-0.288656
-0.241684
-0.204928
-0.175698
-0.152032
-0.132581
-0.116336
-0.102635
-0.090945
-0.0808592
-0.0720897
-0.0644149
-0.0576707
-0.0517815
-0.0465046
-0.0415371
-0.564359
-0.503503
-0.412948
-0.335242
-0.273945
-0.227157
-0.190819
-0.162136
-0.139083
-0.120268
-0.104684
-0.091611
-0.0805423
-0.0710431
-0.0628232
-0.0556593
-0.0494049
-0.0439574
-0.0390232
-0.0343875
-0.558077
-0.493197
-0.398344
-0.319381
-0.258061
-0.211717
-0.17599
-0.148008
-0.125694
-0.1076
-0.0927687
-0.0803761
-0.0699496
-0.0610657
-0.0534181
-0.0467837
-0.0410288
-0.0360234
-0.0314368
-0.027137
-0.549185
-0.480072
-0.381674
-0.301988
-0.240998
-0.195356
-0.160441
-0.133328
-0.111886
-0.0946162
-0.0805609
-0.0689153
-0.0591752
-0.0509356
-0.0438834
-0.0377983
-0.0325539
-0.0279946
-0.0237616
-0.0198058
-0.537486
-0.464111
-0.362941
-0.283064
-0.222748
-0.17809
-0.1442
-0.118142
-0.0976435
-0.081294
-0.0680785
-0.057234
-0.0482279
-0.0406637
-0.0342306
-0.0287146
-0.0239935
-0.0198868
-0.0160138
-0.0124141
-0.5228
-0.445313
-0.342159
-0.262615
-0.203334
-0.159972
-0.127321
-0.102401
-0.0829813
-0.0676395
-0.0553412
-0.0453474
-0.037119
-0.0302624
-0.0244731
-0.0195462
-0.0153619
-0.0117154
-0.00821037
-0.00498218
-0.504979
-0.423696
-0.319349
-0.240665
-0.182837
-0.14103
-0.10977
-0.0861421
-0.0679197
-0.0536721
-0.0423649
-0.033273
-0.0258634
-0.0197465
-0.014626
-0.010308
-0.00667458
-0.00349672
-0.000369273
0.0024701
-0.483913
-0.399302
-0.29453
-0.217291
-0.161338
-0.121238
-0.0915784
-0.0693963
-0.0524838
-0.039416
-0.0291684
-0.02103
-0.0144787
-0.0091329
-0.00470612
-0.00101673
0.00205221
0.00475204
0.00749015
0.00992307
-0.459542
-0.372229
-0.267726
-0.192643
-0.138771
-0.100654
-0.0727871
-0.0521983
-0.0367036
-0.0248985
-0.0157753
-0.00864008
-0.00298529
0.00155931
0.00526796
0.00830966
0.0108007
0.0130119
0.0153468
0.0173562
-0.431857
-0.342648
-0.239017
-0.16666
-0.115229
-0.0793368
-0.0534441
-0.0345875
-0.0206142
-0.0101508
-0.00221274
0.00387211
0.00859426
0.0123091
0.0152764
0.0176522
0.0195522
0.0212624
0.0231775
0.0247476
-0.400905
-0.31068
-0.208533
-0.139369
-0.0907839
-0.0573537
-0.0336039
-0.0166097
-0.00425511
0.00479247
0.0114884
0.0164792
0.0202351
0.0230937
0.0252979
0.0269911
0.0282879
0.0294836
0.0309593
0.0320744
-0.366805
-0.276145
-0.176574
-0.110918
-0.0655179
-0.0347765
-0.0133277
0.00168393
0.0123292
0.0198925
0.0252943
0.0291512
0.0319103
0.0338883
0.0353097
0.0363058
0.0369901
0.0376593
0.0386739
0.039316
-0.329759
-0.238903
-0.143394
-0.0814739
-0.0395237
-0.0116831
0.00731734
0.0202365
0.0290902
0.0351071
0.0391679
0.0418556
0.0435908
0.0446663
0.045287
0.0455745
0.0456423
0.0457786
0.046311
0.0464577
-0.289927
-0.199374
-0.10892
-0.0511804
-0.0129091
0.0118412
0.0282582
0.0389863
0.0459748
0.0503907
0.0530697
0.0545576
0.0552456
0.0553993
0.0552035
0.0547744
0.0542277
0.0538286
0.0538542
0.0534813
-0.247179
-0.15831
-0.0732677
-0.0201699
0.0142085
0.035703
0.0494165
0.0578667
0.0629265
0.0656945
0.0669575
0.0672204
0.066842
0.0660578
0.0650334
0.063885
0.0627292
0.0617818
0.0612443
0.0603135
-0.201719
-0.116211
-0.0366521
0.0114216
0.0417059
0.0598016
0.0707085
0.0768071
0.0798852
0.0809672
0.0807869
0.0798056
0.0783461
0.0766125
0.0747538
0.0728916
0.071132
0.0695917
0.0683533
0.0667428
-0.154108
-0.0731105
0.000693458
0.0434402
0.0694521
0.0840297
0.0920454
0.0957333
0.0967882
0.0961553
0.0945121
0.0922732
0.0897228
0.087034
0.0843443
0.0817826
0.0794212
0.0772075
0.0750493
0.0725337
-0.104628
-0.0291471
0.0385315
0.075715
0.0973095
0.108275
0.113335
0.114568
0.113571
0.111204
0.108086
0.104582
0.100936
0.0972934
0.0937831
0.090537
0.0875634
0.0845883
0.081362
0.0780795
-0.0535157
0.0154662
0.0766379
0.108077
0.125142
0.132425
0.134484
0.133234
0.130166
0.126056
0.121459
0.116689
0.11195
0.107361
0.103043
0.0991144
0.0954959
0.0917177
0.0875384
0.0847682
-0.00159281
0.0604157
0.114798
0.140364
0.152816
0.156369
0.155398
0.15165
0.146507
0.140653
0.134581
0.128551
0.122728
0.117205
0.112091
0.10747
0.103168
0.0986596
0.0939686
0.0914802
0.0507903
0.105422
0.152771
0.172382
0.180178
0.17998
0.175975
0.169732
0.162521
0.154935
0.1474
0.140123
0.133231
0.126792
0.120895
0.115575
0.110598
0.105477
0.100461
0.0978997
0.103222
0.150161
0.190317
0.203945
0.207077
0.203138
0.196114
0.187396
0.178138
0.168841
0.159865
0.151362
0.143422
0.136086
0.129417
0.123404
0.117787
0.112152
0.106845
0.103979
0.155275
0.194313
0.227195
0.234862
0.233362
0.225719
0.215714
0.204556
0.193287
0.182312
0.171923
0.162223
0.153261
0.145053
0.137628
0.13094
0.124725
0.118634
0.113019
0.109751
0.206522
0.237558
0.263164
0.264946
0.258883
0.247601
0.234673
0.221131
0.207898
0.195287
0.183525
0.172662
0.162711
0.153657
0.145498
0.138161
0.131389
0.124874
0.118937
0.115238
0.256541
0.279579
0.297988
0.29401
0.283489
0.268663
0.252894
0.237036
0.221901
0.207708
0.19462
0.182636
0.171733
0.161865
0.153
0.145044
0.13775
0.130834
0.124577
0.120451
0.304923
0.32007
0.331435
0.321871
0.307037
0.288786
0.270277
0.252192
0.235228
0.219518
0.205159
0.192102
0.180289
0.169643
0.160106
0.151564
0.143779
0.136484
0.129923
0.125392
0.35127
0.358734
0.36328
0.348354
0.329384
0.307856
0.286731
0.26652
0.247814
0.230659
0.215093
0.201018
0.188343
0.176961
0.166787
0.157694
0.149447
0.1418
0.134961
0.130056
0.395203
0.395284
0.393308
0.373288
0.350395
0.325764
0.302163
0.279945
0.259596
0.24108
0.224378
0.209346
0.195861
0.183787
0.173017
0.163407
0.154729
0.146756
0.139664
0.134402
0.436371
0.429445
0.421314
0.396511
0.36994
0.342404
0.316489
0.292396
0.270514
0.25073
0.232969
0.217048
0.202809
0.190093
0.178769
0.16868
0.159603
0.151331
0.144002
0.138371
0.474446
0.460957
0.447105
0.417873
0.3879
0.357679
0.329627
0.303805
0.280511
0.259559
0.240826
0.224087
0.209158
0.195853
0.18402
0.173492
0.164053
0.155507
0.147948
0.141955
0.509119
0.489582
0.470503
0.437233
0.404161
0.371498
0.341504
0.314112
0.289536
0.267526
0.247911
0.230432
0.214877
0.201039
0.188748
0.177823
0.168059
0.159267
0.151489
0.145163
0.540108
0.515107
0.491345
0.454463
0.418622
0.383778
0.352051
0.323258
0.297541
0.274589
0.254189
0.236052
0.219942
0.20563
0.192931
0.181656
0.171604
0.162593
0.154621
0.148001
0.56716
0.537345
0.509486
0.469449
0.431191
0.394445
0.361207
0.331195
0.304484
0.280711
0.25963
0.240921
0.224328
0.209605
0.196552
0.184973
0.174672
0.165472
0.157333
0.150459
0.590054
0.556131
0.5248
0.482093
0.44179
0.403435
0.36892
0.337878
0.310327
0.285863
0.264206
0.245015
0.228015
0.212946
0.199595
0.187759
0.177249
0.167891
0.159613
0.152528
0.6086
0.571327
0.53718
0.492309
0.450349
0.410692
0.375144
0.343269
0.31504
0.290016
0.267895
0.248314
0.230986
0.215638
0.202046
0.190004
0.179324
0.169839
0.161451
0.154196
0.622647
0.582822
0.54654
0.500029
0.456815
0.416173
0.379844
0.347338
0.318596
0.29315
0.270678
0.250803
0.233226
0.217667
0.203893
0.191695
0.180889
0.171308
0.162838
0.155455
0.632079
0.59053
0.552814
0.505202
0.461147
0.419843
0.38299
0.350063
0.320977
0.295247
0.27254
0.252468
0.234726
0.219025
0.20513
0.192828
0.181936
0.172292
0.163767
0.156298
0.636817
0.594399
0.555961
0.507797
0.463319
0.421684
0.384568
0.351428
0.32217
0.296299
0.273473
0.253303
0.235477
0.219706
0.20575
0.193395
0.182461
0.172785
0.164233
0.156721
0.636817
0.594399
0.555961
0.507797
0.463319
0.421684
0.384568
0.351428
0.32217
0.296299
0.273473
0.253303
0.235477
0.219706
0.20575
0.193395
0.182461
0.172785
0.164233
0.156721
0.632079
0.59053
0.552814
0.505202
0.461147
0.419843
0.38299
0.350063
0.320977
0.295247
0.27254
0.252468
0.234726
0.219025
0.20513
0.192828
0.181936
0.172292
0.163767
0.156298
0.622647
0.582822
0.54654
0.500029
0.456815
0.416173
0.379844
0.347338
0.318596
0.29315
0.270678
0.250803
0.233226
0.217667
0.203893
0.191695
0.180889
0.171308
0.162838
0.155455
0.6086
0.571327
0.53718
0.492309
0.450349
0.410692
0.375145
0.343269
0.31504
0.290016
0.267895
0.248314
0.230986
0.215638
0.202046
0.190004
0.179324
0.169839
0.161451
0.154196
0.590054
0.556131
0.5248
0.482093
0.44179
0.403435
0.36892
0.337878
0.310327
0.285863
0.264206
0.245015
0.228015
0.212946
0.199595
0.187759
0.177249
0.167891
0.159613
0.152528
0.56716
0.537345
0.509486
0.469449
0.431191
0.394445
0.361207
0.331195
0.304484
0.280711
0.25963
0.240921
0.224328
0.209606
0.196552
0.184973
0.174672
0.165472
0.157333
0.150459
0.540108
0.515107
0.491345
0.454463
0.418622
0.383778
0.352051
0.323258
0.297541
0.274589
0.254189
0.236052
0.219942
0.20563
0.192931
0.181656
0.171604
0.162593
0.154621
0.148001
0.509119
0.489582
0.470503
0.437233
0.404161
0.371498
0.341504
0.314112
0.289536
0.267526
0.247911
0.230432
0.214877
0.201039
0.188748
0.177823
0.168059
0.159267
0.151489
0.145163
0.474446
0.460957
0.447105
0.417873
0.3879
0.357679
0.329627
0.303805
0.280511
0.25956
0.240826
0.224087
0.209158
0.195853
0.18402
0.173492
0.164053
0.155507
0.147948
0.141955
0.436371
0.429445
0.421314
0.396511
0.36994
0.342404
0.316489
0.292396
0.270514
0.25073
0.232969
0.217048
0.202809
0.190094
0.178769
0.16868
0.159603
0.151331
0.144002
0.138371
0.395203
0.395284
0.393308
0.373288
0.350395
0.325764
0.302163
0.279945
0.259596
0.24108
0.224378
0.209346
0.195861
0.183787
0.173017
0.163407
0.154729
0.146756
0.139664
0.134402
0.35127
0.358734
0.36328
0.348354
0.329384
0.307856
0.286731
0.26652
0.247814
0.230659
0.215093
0.201018
0.188343
0.176961
0.166787
0.157694
0.149447
0.1418
0.134961
0.130056
0.304923
0.32007
0.331435
0.321871
0.307037
0.288786
0.270277
0.252192
0.235228
0.219518
0.205159
0.192102
0.180289
0.169643
0.160106
0.151564
0.143779
0.136485
0.129923
0.125392
0.256541
0.279579
0.297988
0.29401
0.283489
0.268663
0.252894
0.237036
0.221901
0.207708
0.19462
0.182636
0.171733
0.161865
0.153
0.145045
0.13775
0.130834
0.124577
0.120451
0.206522
0.237558
0.263164
0.264946
0.258883
0.247601
0.234673
0.221131
0.207898
0.195287
0.183525
0.172662
0.162711
0.153657
0.145498
0.138161
0.131389
0.124874
0.118937
0.115238
0.155275
0.194313
0.227195
0.234862
0.233362
0.225719
0.215714
0.204556
0.193287
0.182312
0.171923
0.162223
0.153261
0.145053
0.137628
0.13094
0.124725
0.118634
0.113019
0.109751
0.103222
0.150161
0.190317
0.203945
0.207077
0.203138
0.196114
0.187396
0.178138
0.168841
0.159865
0.151362
0.143422
0.136086
0.129417
0.123404
0.117787
0.112153
0.106845
0.103979
0.0507903
0.105422
0.152771
0.172382
0.180178
0.17998
0.175975
0.169732
0.162521
0.154935
0.1474
0.140123
0.133231
0.126792
0.120895
0.115575
0.110598
0.105477
0.100461
0.0978997
-0.00159275
0.0604157
0.114798
0.140364
0.152816
0.156369
0.155398
0.15165
0.146507
0.140653
0.134581
0.128551
0.122728
0.117205
0.112091
0.10747
0.103168
0.0986596
0.0939687
0.0914802
-0.0535156
0.0154663
0.0766379
0.108077
0.125142
0.132425
0.134484
0.133234
0.130166
0.126056
0.121459
0.116689
0.11195
0.107361
0.103043
0.0991144
0.0954959
0.0917177
0.0875384
0.0847682
-0.104628
-0.029147
0.0385315
0.075715
0.0973096
0.108275
0.113335
0.114568
0.113571
0.111204
0.108086
0.104582
0.100936
0.0972934
0.0937831
0.090537
0.0875634
0.0845883
0.081362
0.0780795
-0.154108
-0.0731105
0.00069351
0.0434402
0.0694521
0.0840298
0.0920454
0.0957333
0.0967882
0.0961553
0.0945121
0.0922732
0.0897228
0.0870341
0.0843443
0.0817827
0.0794212
0.0772075
0.0750493
0.0725337
-0.201719
-0.116211
-0.036652
0.0114217
0.0417059
0.0598017
0.0707085
0.0768071
0.0798853
0.0809672
0.0807869
0.0798057
0.0783461
0.0766125
0.0747538
0.0728916
0.071132
0.0695917
0.0683534
0.0667429
-0.247179
-0.15831
-0.0732677
-0.0201698
0.0142086
0.035703
0.0494166
0.0578667
0.0629266
0.0656945
0.0669575
0.0672205
0.066842
0.0660579
0.0650334
0.063885
0.0627292
0.0617818
0.0612443
0.0603135
-0.289927
-0.199374
-0.10892
-0.0511803
-0.0129091
0.0118412
0.0282583
0.0389863
0.0459749
0.0503907
0.0530697
0.0545576
0.0552456
0.0553993
0.0552035
0.0547744
0.0542277
0.0538286
0.0538542
0.0534813
-0.329759
-0.238903
-0.143394
-0.0814738
-0.0395236
-0.011683
0.00731738
0.0202366
0.0290902
0.0351072
0.039168
0.0418556
0.0435908
0.0446663
0.045287
0.0455745
0.0456423
0.0457786
0.046311
0.0464577
-0.366804
-0.276145
-0.176574
-0.110918
-0.0655178
-0.0347765
-0.0133276
0.00168397
0.0123293
0.0198925
0.0252943
0.0291512
0.0319104
0.0338883
0.0353097
0.0363058
0.0369901
0.0376594
0.0386739
0.039316
-0.400905
-0.310679
-0.208533
-0.139369
-0.0907838
-0.0573537
-0.0336038
-0.0166097
-0.00425507
0.0047925
0.0114885
0.0164792
0.0202352
0.0230937
0.0252979
0.0269911
0.0282879
0.0294836
0.0309593
0.0320744
-0.431857
-0.342648
-0.239017
-0.16666
-0.115229
-0.0793367
-0.0534441
-0.0345875
-0.0206141
-0.0101507
-0.00221271
0.00387214
0.00859429
0.0123091
0.0152764
0.0176522
0.0195523
0.0212625
0.0231775
0.0247476
-0.459542
-0.372229
-0.267726
-0.192643
-0.138771
-0.100654
-0.0727871
-0.0521982
-0.0367036
-0.0248985
-0.0157752
-0.00864004
-0.00298526
0.00155934
0.00526799
0.00830968
0.0108007
0.0130119
0.0153468
0.0173562
-0.483913
-0.399302
-0.29453
-0.217291
-0.161338
-0.121238
-0.0915783
-0.0693962
-0.0524838
-0.039416
-0.0291684
-0.0210299
-0.0144787
-0.00913287
-0.00470609
-0.0010167
0.00205223
0.00475206
0.00749017
0.00992309
-0.504979
-0.423696
-0.319349
-0.240665
-0.182837
-0.14103
-0.10977
-0.0861421
-0.0679196
-0.0536721
-0.0423648
-0.033273
-0.0258633
-0.0197465
-0.0146259
-0.010308
-0.00667455
-0.00349669
-0.00036925
0.00247013
-0.5228
-0.445313
-0.342159
-0.262615
-0.203334
-0.159972
-0.127321
-0.102401
-0.0829813
-0.0676395
-0.0553412
-0.0453474
-0.037119
-0.0302624
-0.024473
-0.0195462
-0.0153619
-0.0117154
-0.00821035
-0.00498216
-0.537485
-0.464111
-0.362941
-0.283063
-0.222748
-0.17809
-0.1442
-0.118142
-0.0976434
-0.081294
-0.0680785
-0.0572339
-0.0482278
-0.0406637
-0.0342306
-0.0287146
-0.0239934
-0.0198868
-0.0160138
-0.012414
-0.549185
-0.480072
-0.381674
-0.301988
-0.240998
-0.195356
-0.160441
-0.133328
-0.111886
-0.0946162
-0.0805609
-0.0689152
-0.0591751
-0.0509356
-0.0438834
-0.0377983
-0.0325539
-0.0279946
-0.0237616
-0.0198057
-0.558077
-0.493197
-0.398344
-0.319381
-0.258061
-0.211716
-0.17599
-0.148008
-0.125694
-0.1076
-0.0927687
-0.0803761
-0.0699496
-0.0610657
-0.0534181
-0.0467836
-0.0410288
-0.0360234
-0.0314368
-0.027137
-0.564359
-0.503502
-0.412948
-0.335242
-0.273945
-0.227157
-0.190819
-0.162136
-0.139083
-0.120268
-0.104684
-0.0916109
-0.0805423
-0.0710431
-0.0628232
-0.0556593
-0.0494049
-0.0439574
-0.0390232
-0.0343875
-0.568233
-0.511025
-0.425496
-0.34957
-0.288656
-0.241684
-0.204928
-0.175698
-0.152032
-0.132581
-0.116336
-0.102635
-0.0909449
-0.0808592
-0.0720897
-0.0644148
-0.0576706
-0.0517815
-0.0465046
-0.0415371
-0.569894
-0.515833
-0.436018
-0.362374
-0.302204
-0.25531
-0.218328
-0.188698
-0.164536
-0.144532
-0.127719
-0.113434
-0.101162
-0.0905176
-0.0812179
-0.0730382
-0.065818
-0.059483
-0.0538564
-0.0485735
-0.569545
-0.518024
-0.444553
-0.373666
-0.314598
-0.268051
-0.231037
-0.201152
-0.176604
-0.156135
-0.138822
-0.124004
-0.111189
-0.100013
-0.0901988
-0.0815255
-0.0738401
-0.0670603
-0.0610459
-0.0554928
-0.567421
-0.517803
-0.451185
-0.383468
-0.325858
-0.279925
-0.243072
-0.213076
-0.188254
-0.167407
-0.149651
-0.134349
-0.121028
-0.109342
-0.0990268
-0.0898705
-0.0817251
-0.0745023
-0.0680961
-0.0622434
-0.563495
-0.515298
-0.455968
-0.391811
-0.336019
-0.290969
-0.254464
-0.224498
-0.19951
-0.178366
-0.160226
-0.144481
-0.130686
-0.11851
-0.107703
-0.0980697
-0.0894649
-0.0817995
-0.0749952
-0.0688145
-0.557968
-0.510834
-0.459003
-0.398727
-0.345118
-0.301221
-0.265249
-0.235448
-0.210398
-0.189035
-0.170567
-0.15442
-0.140175
-0.127524
-0.116233
-0.106122
-0.097054
-0.0889406
-0.0817249
-0.0752007
-0.551015
-0.5048
-0.460381
-0.404243
-0.353186
-0.310713
-0.275456
-0.245955
-0.220946
-0.199439
-0.180696
-0.164183
-0.149511
-0.136394
-0.124621
-0.114029
-0.104489
-0.0959167
-0.0882709
-0.0813898
-0.54279
-0.497627
-0.460184
-0.408396
-0.36026
-0.319479
-0.285122
-0.256055
-0.231186
-0.209608
-0.19064
-0.173792
-0.158709
-0.145133
-0.132876
-0.121793
-0.111769
-0.102722
-0.0946239
-0.087367
-0.533469
-0.489756
-0.45849
-0.411249
-0.366388
-0.327559
-0.294286
-0.26579
-0.241158
-0.219578
-0.20043
-0.183273
-0.167791
-0.153758
-0.141008
-0.129419
-0.118893
-0.109354
-0.100777
-0.0931189
-0.523261
-0.481588
-0.4554
-0.412889
-0.371623
-0.334996
-0.302996
-0.275208
-0.25091
-0.229392
-0.210105
-0.19266
-0.176785
-0.162288
-0.149031
-0.136916
-0.125864
-0.115809
-0.106725
-0.0986354
-0.512412
-0.473433
-0.451068
-0.413426
-0.376015
-0.341827
-0.311296
-0.284361
-0.260493
-0.239099
-0.219708
-0.201992
-0.185723
-0.170748
-0.156962
-0.144293
-0.132686
-0.122087
-0.112462
-0.103907
-0.5012
-0.465483
-0.445726
-0.412994
-0.37961
-0.348087
-0.319236
-0.293304
-0.269966
-0.248756
-0.229292
-0.211312
-0.194641
-0.179168
-0.164823
-0.151565
-0.139364
-0.128186
-0.117982
-0.108925
-0.489924
-0.457825
-0.439692
-0.41173
-0.382448
-0.353808
-0.326859
-0.302096
-0.279391
-0.258423
-0.238914
-0.220673
-0.203582
-0.18758
-0.172639
-0.158748
-0.145906
-0.134109
-0.123283
-0.11368
-0.478875
-0.450469
-0.43335
-0.409773
-0.384571
-0.359019
-0.334208
-0.310792
-0.288834
-0.268171
-0.248639
-0.230131
-0.212596
-0.196026
-0.180438
-0.16586
-0.152322
-0.139855
-0.128359
-0.118164
-0.468306
-0.443394
-0.427074
-0.407255
-0.386024
-0.363745
-0.341318
-0.319449
-0.298365
-0.278073
-0.25854
-0.239754
-0.221739
-0.204548
-0.188254
-0.172925
-0.158624
-0.145429
-0.133206
-0.122366
-0.458407
-0.436597
-0.42115
-0.404313
-0.386863
-0.368008
-0.348218
-0.328118
-0.308057
-0.288213
-0.268699
-0.249616
-0.231075
-0.213201
-0.196125
-0.179969
-0.164826
-0.150833
-0.449296
-0.430111
-0.415719
-0.401111
-0.387165
-0.371827
-0.354924
-0.336842
-0.31798
-0.298677
-0.279207
-0.259802
-0.240677
-0.222042
-0.204096
-0.187022
-0.170942
-0.441031
-0.424011
-0.410791
-0.397851
-0.38703
-0.375224
-0.361441
-0.345653
-0.328203
-0.309557
-0.290163
-0.270407
-0.250629
-0.231139
-0.212216
-0.194116
-0.433637
-0.418393
-0.406315
-0.394745
-0.386585
-0.37823
-0.367767
-0.354567
-0.33878
-0.320942
-0.301673
-0.281537
-0.261025
-0.24057
-0.220543
-0.427113
-0.413343
-0.402262
-0.391966
-0.385995
-0.380899
-0.373891
-0.36358
-0.349752
-0.332918
-0.313849
-0.293308
-0.271969
-0.250419
-0.421448
-0.408919
-0.398666
-0.389618
-0.385456
-0.38332
-0.379806
-0.372662
-0.361128
-0.34555
-0.326797
-0.305843
-0.283579
-0.416607
-0.405145
-0.395612
-0.387768
-0.38517
-0.38563
-0.385518
-0.381761
-0.37288
-0.358875
-0.340613
-0.319267
-0.295981
-0.412528
-0.402013
-0.393193
-0.386493
-0.385319
-0.388004
-0.391063
-0.390806
-0.384929
-0.372877
-0.355359
-0.333695
-0.409117
-0.399482
-0.391464
-0.385897
-0.386055
-0.390647
-0.396534
-0.399733
-0.397149
-0.387475
-0.371046
-0.349215
-0.406283
-0.397467
-0.390394
-0.386023
-0.387459
-0.393709
-0.402033
-0.408482
-0.409358
-0.402493
-0.387594
-0.403877
-0.39587
-0.389923
-0.386895
-0.389618
-0.397337
-0.407711
-0.417054
-0.421368
-0.417666
-0.404807
-0.401732
-0.394577
-0.389939
-0.388447
-0.392542
-0.401626
-0.413711
-0.425509
-0.433024
-0.432664
-0.399678
-0.39346
-0.390292
-0.390532
-0.396142
-0.406572
-0.420126
-0.433935
-0.444241
-0.447158
-0.397553
-0.392396
-0.390811
-0.392946
-0.40022
-0.412058
-0.426954
-0.442403
-0.455007
-0.395214
-0.391263
-0.391317
-0.395444
-0.4045
-0.417864
-0.43406
-0.450903
-0.465337
-0.392547
-0.389952
-0.391633
-0.397768
-0.408657
-0.423612
-0.441166
-0.459279
-0.475187
-0.389471
-0.38837
-0.391597
-0.399667
-0.412354
-0.428924
-0.447877
-0.46721
-0.484365
-0.385944
-0.386447
-0.391074
-0.400927
-0.415285
-0.433407
-0.453736
-0.474323
-0.381969
-0.384148
-0.389976
-0.401391
-0.417205
-0.43673
-0.458314
-0.479995
-0.377599
-0.381469
-0.388282
-0.400987
-0.417974
-0.438677
-0.461282
-0.483864
-0.372937
-0.378462
-0.386035
-0.399736
-0.417628
-0.439132
-0.462463
-0.485647
-0.368133
-0.375229
-0.38334
-0.397755
-0.416235
-0.438221
-0.461921
-0.485275
-0.363382
-0.371916
-0.380372
-0.395246
-0.414025
-0.436176
-0.459867
-0.482981
-0.35891
-0.368707
-0.377352
-0.392477
-0.411322
-0.433369
-0.45673
-0.354953
-0.365804
-0.374528
-0.389751
-0.408504
-0.430266
-0.453087
-0.351743
-0.363409
-0.372145
-0.387375
-0.405958
-0.427365
-0.449581
-0.349478
-0.361701
-0.370421
-0.38562
-0.404036
-0.425128
-0.446829
-0.348305
-0.360811
-0.369516
-0.384688
-0.403003
-0.423912
-0.445318
-0.0592504
-0.0655666
-0.071708
-0.0776559
-0.0833932
-0.0889012
-0.0941678
-0.0991744
-0.103913
-0.10836
-0.112515
-0.058409
-0.0646102
-0.0706356
-0.0764655
-0.0820825
-0.0874668
-0.092606
-0.0974791
-0.102079
-0.106377
-0.110378
-0.0575567
-0.0636221
-0.06951
-0.0752005
-0.0806769
-0.0859192
-0.0909155
-0.0956442
-0.1001
-0.104253
-0.108113
-0.0566898
-0.0626276
-0.0683878
-0.0739503
-0.079299
-0.0844138
-0.0892835
-0.0938861
-0.0982183
-0.102249
-0.105993
-0.0558093
-0.0616221
-0.0672581
-0.0726971
-0.0779234
-0.0829165
-0.0876662
-0.0921495
-0.096365
-0.10028
-0.103913
-0.0549169
-0.0606029
-0.0661131
-0.0714268
-0.0765287
-0.0813982
-0.0860255
-0.0903869
-0.0944825
-0.0982775
-0.101794
-0.0540136
-0.0595711
-0.0649534
-0.0701398
-0.0751151
-0.0798583
-0.0843604
-0.0885967
-0.0925689
-0.0962402
-0.0996355
-0.0531008
-0.0585287
-0.0637821
-0.0688399
-0.0736874
-0.0783032
-0.0826789
-0.086789
-0.0906367
-0.0941837
-0.0974574
-0.0521802
-0.0574777
-0.0626016
-0.0675303
-0.0722494
-0.0767374
-0.0809862
-0.0849701
-0.0886933
-0.0921168
-0.0952692
-0.0512536
-0.0564204
-0.0614142
-0.0662136
-0.070804
-0.0751639
-0.0792858
-0.0831437
-0.0867423
-0.0900435
-0.093075
-0.0503231
-0.0553591
-0.0602228
-0.0648926
-0.0693542
-0.0735862
-0.0775811
-0.0813135
-0.0847878
-0.0879679
-0.0908785
-0.0493909
-0.0542963
-0.05903
-0.0635706
-0.0679036
-0.0720081
-0.0758764
-0.0794842
-0.0828346
-0.0858951
-0.0886853
-0.0484595
-0.0532349
-0.0578392
-0.0622511
-0.0664562
-0.070434
-0.0741763
-0.0776607
-0.0808881
-0.083831
-0.086502
-0.0475317
-0.052178
-0.0566538
-0.0609381
-0.0650161
-0.0688684
-0.072486
-0.0758486
-0.0789544
-0.0817819
-0.084336
-0.0466103
-0.051129
-0.0554776
-0.0596357
-0.0635881
-0.0673166
-0.0708109
-0.0740538
-0.0770401
-0.0797546
-0.0821947
-0.0456987
-0.0500917
-0.0543147
-0.0583485
-0.0621771
-0.0657839
-0.0691572
-0.0722827
-0.0751522
-0.0777564
-0.0800864
-0.0821444
-0.0448005
-0.04907
-0.0531698
-0.0570815
-0.0607888
-0.0642763
-0.0675312
-0.0705423
-0.0732983
-0.0757951
-0.0780195
-0.0799797
-0.0439197
-0.0480684
-0.0520478
-0.0558402
-0.059429
-0.0628003
-0.0659402
-0.0688399
-0.0714866
-0.0738792
-0.0760029
-0.0778687
-0.0430607
-0.0470918
-0.0509541
-0.0546305
-0.0581044
-0.0613629
-0.0643918
-0.0671839
-0.0697257
-0.0720181
-0.0740464
-0.0758219
-0.0422283
-0.0461456
-0.0498947
-0.0534589
-0.056822
-0.0599718
-0.0628942
-0.0655829
-0.068025
-0.0702217
-0.0721602
-0.0738502
-0.0414279
-0.0452359
-0.0488761
-0.0523327
-0.0555896
-0.0586354
-0.0614564
-0.0640467
-0.0663946
-0.0685009
-0.0703551
-0.0719654
-0.0406657
-0.0443691
-0.0479056
-0.0512597
-0.0544158
-0.0573629
-0.0600882
-0.0625857
-0.0648453
-0.0668671
-0.0686431
-0.0701798
-0.0399483
-0.0435529
-0.0469913
-0.0502486
-0.0533099
-0.0561644
-0.0588001
-0.0612113
-0.0633891
-0.065333
-0.0670372
-0.0685068
-0.0392833
-0.0427953
-0.0461422
-0.0493092
-0.0522823
-0.0550509
-0.0576041
-0.0599359
-0.0620389
-0.063912
-0.0655513
-0.0669608
-0.0386793
-0.0421058
-0.0453682
-0.0484523
-0.0513446
-0.0540349
-0.0565132
-0.0587733
-0.0608091
-0.0626193
-0.064201
-0.0655578
-0.038146
-0.0414948
-0.0446808
-0.04769
-0.0505098
-0.0531301
-0.0555417
-0.0577387
-0.0597157
-0.0614712
-0.0630034
-0.0643154
-0.0376945
-0.0409744
-0.0440929
-0.0470363
-0.0497926
-0.0523522
-0.0547064
-0.0568496
-0.0587768
-0.0604867
-0.061978
-0.0632535
-0.037337
-0.0405574
-0.0436181
-0.0465058
-0.049209