/*--------------------------------*- C++ -*----------------------------------*\
  =========                 |
  \\      /  F ield         | OpenFOAM: The Open Source CFD Toolbox
   \\    /   O peration     | Website:  https://openfoam.org
    \\  /    A nd           | Version:  7
     \\/     M anipulation  |
\*---------------------------------------------------------------------------*/
FoamFile
{
    version     2.0;
    format      ascii;
    class       volVectorField;
    location    "5";
    object      U;
}
// * * * * * * * * * * * * * * * * * * * * * * * * * * * * * * * * * * * * * //

dimensions      [0 1 -1 0 0 0 0];

internalField   nonuniform List<vector> 
6050
(
(-0.0220704 0.00794281 -4.34704e-20)
(-0.0860134 0.0125994 -5.38369e-20)
(-0.168871 0.0139678 6.8971e-21)
(-0.243995 0.0142817 -1.83559e-20)
(-0.316149 0.0142012 9.407e-20)
(-0.382313 0.0137598 3.12747e-20)
(-0.442102 0.0128 -4.55285e-20)
(-0.0223512 0.0235204 2.05555e-21)
(-0.0849371 0.0374437 -3.42175e-20)
(-0.165528 0.0415769 -7.31958e-20)
(-0.23809 0.0425152 6.14116e-20)
(-0.307118 0.042249 4.12577e-20)
(-0.369524 0.0408959 6.90816e-21)
(-0.424837 0.037998 1.32408e-19)
(-0.0228885 0.0381988 -1.25902e-20)
(-0.0828452 0.0612471 -4.94005e-20)
(-0.159012 0.0682248 7.13134e-20)
(-0.226572 0.0697844 5.75774e-20)
(-0.289528 0.0692652 -2.04539e-19)
(-0.344684 0.0669205 2.84602e-20)
(-0.391431 0.0620351 -2.22348e-19)
(-0.0236363 0.0514407 6.28589e-20)
(-0.0798548 0.0833583 2.59821e-19)
(-0.149645 0.0932976 -8.6955e-20)
(-0.21 0.0954778 -1.85165e-19)
(-0.264275 0.0946075 -1.13149e-19)
(-0.309176 0.0911557 1.64547e-19)
(-0.343958 0.0842217 2.15228e-19)
(-0.0245331 0.0627923 -1.73054e-19)
(-0.0761328 0.103183 -5.037e-20)
(-0.137888 0.116214 1.5611e-19)
(-0.189161 0.119021 8.42171e-20)
(-0.232599 0.117686 4.37353e-19)
(-0.264875 0.112996 -4.27465e-19)
(-0.285171 0.10396 -2.5276e-19)
(-0.0255083 0.0719088 1.12529e-19)
(-0.0718851 0.120204 1.03298e-20)
(-0.124307 0.136439 -2.9336e-19)
(-0.165012 0.139885 -1.50567e-19)
(-0.195977 0.137974 -5.17213e-19)
(-0.213973 0.13192 -1.82036e-20)
(-0.218208 0.120752 -2.70081e-20)
(-0.207266 0.10342 -5.15111e-20)
(-0.0264906 0.0785736 -2.93161e-19)
(-0.0673441 0.134005 -5.30331e-19)
(-0.109542 0.153493 1.95074e-19)
(-0.138623 0.157593 -5.8082e-20)
(-0.156032 0.155009 4.67436e-19)
(-0.158811 0.147489 4.74561e-19)
(-0.14633 0.134192 -1.71276e-19)
(-0.117746 0.114158 2.48005e-19)
(-0.0274165 0.0827084 2.16456e-19)
(-0.0627536 0.144282 2.43991e-19)
(-0.0942709 0.166966 1.74934e-19)
(-0.111118 0.171719 6.4403e-19)
(-0.114429 0.168393 -1.48743e-19)
(-0.101729 0.159339 2.38895e-19)
(-0.0727023 0.143969 3.27369e-19)
(-0.0271692 0.121445 -4.25473e-19)
(-0.0282386 0.0843744 -1.08768e-19)
(-0.0583528 0.150863 6.38769e-20)
(-0.0791677 0.176529 -5.30319e-19)
(-0.0836118 0.181898 -3.15569e-19)
(-0.0727969 0.177802 -2.63758e-19)
(-0.0449141 0.167138 -1.5346e-19)
(-0.000183651 0.149791 -7.92958e-19)
(0.0609409 0.125032 1.48057e-19)
(-0.0289322 0.0837636 4.12814e-19)
(-0.0543592 0.153719 4.79587e-19)
(-0.0648574 0.181954 1.28526e-19)
(-0.0571389 0.18783 5.45236e-19)
(-0.0326221 0.182921 1.60239e-19)
(0.0096732 0.170642 3.71456e-19)
(0.0689138 0.151424 4.37142e-19)
(0.14404 0.124729 4.20999e-19)
(-0.0294996 0.0811803 -2.5946e-19)
(-0.0509536 0.152974 -4.35772e-19)
(-0.051867 0.183127 7.75411e-19)
(-0.0325913 0.189301 -8.17412e-19)
(0.00489158 0.183503 -6.06123e-19)
(0.0605559 0.169692 -2.77534e-19)
(0.133052 0.148743 -1.25442e-19)
(0.220999 0.120393 -7.15086e-19)
(-0.0299724 0.0770142 2.43971e-19)
(-0.0482607 0.148896 1.93107e-19)
(-0.0405731 0.180091 -8.97832e-19)
(-0.0106001 0.186231 -3.08174e-19)
(0.0389369 0.179462 3.43989e-19)
(0.106991 0.164199 -1.92006e-19)
(0.191934 0.141741 5.26084e-19)
(0.292639 0.112164 5.32004e-19)
(0.408625 0.0753696 -7.19082e-19)
(-0.0304095 0.0717061 -7.82204e-19)
(-0.0463304 0.14189 -7.60075e-19)
(-0.0311418 0.173066 5.73112e-19)
(0.00858653 0.178709 3.72432e-19)
(0.0693575 0.170867 2.04291e-19)
(0.14932 0.154285 -1.76547e-19)
(0.247048 0.130701 -3.27757e-19)
(0.362246 0.100541 1.7456e-19)
(0.495384 0.0638153 2.84662e-20)
(-0.0308899 0.065711 1.21307e-19)
(-0.0451238 0.132473 7.97939e-19)
(-0.023464 0.162454 -2.52512e-19)
(0.0252428 0.167049 -3.29554e-20)
(0.0969061 0.158044 -2.63533e-19)
(0.189361 0.140408 -1.04178e-19)
(0.301936 0.116358 9.81986e-20)
(0.43529 0.0866353 3.24456e-19)
(0.589279 0.0515003 9.79928e-20)
(-0.0314996 0.0594601 6.82516e-19)
(-0.0444958 0.121242 -1.97249e-19)
(-0.0171004 0.148839 -5.07406e-19)
(0.0403004 0.151824 6.8591e-19)
(0.123466 0.141666 6.25925e-19)
(0.230571 0.123538 4.65061e-19)
(0.361925 0.100109 4.46491e-19)
(0.517804 0.0724213 -1.67253e-19)
(0.693989 0.0407728 3.03707e-19)
(-0.0323134 0.0533272 -2.14917e-19)
(-0.0441779 0.108825 1.18489e-19)
(-0.011242 0.132959 2.95721e-19)
(0.0554326 0.133878 -8.32232e-19)
(0.152123 0.122815 -1.46107e-19)
(0.27779 0.105183 -7.45572e-19)
(0.432784 0.0840003 3.14939e-19)
(0.613677 0.0603094 -7.83969e-19)
(0.808034 0.0338019 3.07604e-19)
(0.994258 0.00376275 -7.53043e-19)
(-0.033374 0.0476018 6.62631e-21)
(-0.0437666 0.0958278 5.23237e-19)
(-0.0047053 0.115658 -1.37068e-19)
(0.0730232 0.114298 -4.70801e-20)
(0.186878 0.102962 1.6146e-19)
(0.336224 0.0873241 5.763e-19)
(0.51851 0.0704125 -2.93155e-19)
(0.722074 0.0524029 -2.67231e-19)
(0.924546 0.0316821 1.75059e-19)
(1.10026 0.00682204 4.15827e-19)
(-0.0346725 0.0424708 -5.69433e-20)
(-0.0427226 0.0827918 -5.23396e-20)
(0.00401919 0.0978203 5.89183e-19)
(0.0959726 0.0943344 3.0596e-19)
(0.231992 0.0838733 -2.8325e-19)
(0.409776 0.072193 8.12655e-20)
(0.61912 0.0613846 9.61023e-20)
(0.836951 0.0496964 8.75758e-19)
(1.03423 0.0341168 -7.57664e-19)
(1.18853 0.0131878 -1.0658e-18)
(1.29135 -0.0119454 -1.03263e-18)
(-0.0361344 0.0380129 4.90103e-20)
(-0.0403888 0.0701474 -6.59436e-19)
(0.0166557 0.0802845 1.72899e-19)
(0.12733 0.0753091 -5.89271e-19)
(0.290983 0.0674197 7.62128e-19)
(0.499397 0.061725 -5.3134e-19)
(0.729927 0.0579107 2.29521e-20)
(0.949404 0.0518258 -5.30768e-20)
(1.12935 0.039891 -5.73106e-19)
(1.25635 0.0214903 1.43886e-18)
(1.33178 -0.00135352 6.05633e-19)
(-0.0376126 0.0342018 -3.49257e-19)
(-0.036027 0.0581883 4.53881e-19)
(0.0349811 0.0637851 -3.99318e-19)
(0.169808 0.058521 -4.39257e-19)
(0.365535 0.0552978 -8.31288e-19)
(0.6022 0.057005 3.35858e-19)
(0.843063 0.0596973 -2.39062e-19)
(1.05126 0.057543 -7.12445e-19)
(1.20603 0.0476318 6.31057e-19)
(1.30475 0.0306525 -5.10066e-19)
(1.3563 0.00937177 7.00386e-19)
(1.37367 -0.0131045 7.74289e-19)
(-0.0388892 0.0309214 1.81472e-18)
(-0.028866 0.0470654 -4.61417e-19)
(0.0606457 0.0489303 4.06574e-19)
(0.22526 0.0451817 5.01187e-19)
(0.454705 0.048679 7.82551e-19)
(0.712085 0.0579813 -4.24501e-19)
(0.9504 0.0655489 2.57354e-19)
(1.13751 0.0654445 -3.4521e-19)
(1.26407 0.0562832 -6.44697e-19)
(1.33677 0.0400067 3.26762e-19)
(1.36899 0.0198353 -5.91683e-19)
(1.37437 -0.00121058 -3.67148e-19)
(-0.0397148 0.0280185 -1.2738e-18)
(-0.0181419 0.0368078 5.51925e-19)
(0.0950431 0.0362136 -5.78966e-20)
(0.294228 0.0362906 -2.8602e-19)
(0.554814 0.0478679 -8.70311e-19)
(0.821655 0.0636376 6.28526e-19)
(1.04593 0.0740224 -5.82322e-19)
(1.20652 0.0744302 2.67649e-19)
(1.30548 0.0652006 3.32946e-19)
(1.356 0.0492181 -1.36416e-18)
(1.37339 0.0298877 2.55158e-19)
(1.37049 0.0100222 4.08228e-20)
(1.35623 -0.00845232 5.1812e-19)
(-0.0398276 0.0253127 -9.23407e-20)
(-0.0031234 0.0273316 -8.29903e-19)
(0.139207 0.0260704 4.58686e-19)
(0.375689 0.0324793 3.05471e-19)
(0.660409 0.0522969 -2.50883e-19)
(0.924589 0.0726019 -7.9454e-19)
(1.12677 0.0839539 5.47594e-19)
(1.25926 0.0838172 -1.37753e-19)
(1.3333 0.0740453 1.0927e-19)
(1.36585 0.0581363 8.45608e-19)
(1.37232 0.0394811 -4.3845e-19)
(1.36391 0.0206139 -3.90386e-19)
(1.34767 0.00314831 -3.50839e-19)
(-0.0389501 0.0226108 -3.91714e-20)
(0.0168727 0.0185304 4.86074e-19)
(0.193656 0.019 -8.58875e-19)
(0.466965 0.0338802 1.7202e-19)
(0.765599 0.0608784 6.02644e-19)
(1.01666 0.0836562 1.17261e-19)
(1.19241 0.0945773 1.84667e-19)
(1.2978 0.0932361 3.41125e-19)
(1.35051 0.0826785 -3.7522e-19)
(1.36906 0.0667411 -2.77308e-19)
(1.36776 0.0486578 5.12498e-19)
(1.35587 0.030647 9.18537e-19)
(1.33869 0.0140371 9.45705e-20)
(1.319 -0.000487681 -3.34235e-19)
(-0.0368005 0.0197383 9.51907e-20)
(0.0424915 0.0103727 9.13348e-19)
(0.258243 0.0155591 -2.80058e-19)
(0.564161 0.0400596 7.72727e-19)
(0.865431 0.0724246 -6.39558e-19)
(1.09586 0.0959056 7.63934e-19)
(1.24383 0.105427 -6.28889e-19)
(1.32462 0.102505 4.08464e-19)
(1.3598 0.0910668 -2.58184e-19)
(1.36778 0.0750662 3.05964e-20)
(1.36112 0.0574789 -3.03552e-19)
(1.34713 0.0401982 -5.1326e-19)
(1.32964 0.0243027 -2.41776e-19)
(1.31055 0.0103434 1.63579e-19)
(1.29082 -0.0014024 5.12555e-20)
(-0.0330957 0.0165639 -8.61442e-19)
(0.0743373 0.00300453 -8.23667e-19)
(0.332003 0.0162219 6.42519e-19)
(0.662944 0.0501945 -3.82459e-20)
(0.956547 0.0859455 9.10133e-19)
(1.16186 0.108763 -5.55008e-19)
(1.28276 0.116248 2.44689e-19)
(1.34215 0.111562 -3.16443e-19)
(1.36334 0.0992409 5.92593e-19)
(1.36356 0.083173 -2.28056e-19)
(1.3533 0.0660139 2.19963e-19)
(1.33813 0.049344 -1.49806e-20)
(1.3207 0.0340298 1.66243e-19)
(1.30226 0.0205142 -2.15168e-20)
(1.28347 0.0090039 2.3076e-19)
(1.26477 -0.000523269 4.78609e-20)
(-0.0275425 0.013014 1.23744e-18)
(0.112921 -0.00316461 -7.99027e-19)
(0.413119 0.0211783 2.04756e-19)
(0.759359 0.0633727 -8.0981e-19)
(1.03715 0.100727 -5.72681e-19)
(1.21535 0.121864 6.30769e-20)
(1.31116 0.126914 1.1379e-19)
(1.35251 0.120414 -3.14925e-19)
(1.36283 0.107257 5.75347e-20)
(1.35747 0.0911246 4.43027e-19)
(1.34488 0.0743228 -3.19409e-19)
(1.3291 0.0581466 -1.82792e-19)
(1.31191 0.0432878 -9.69371e-20)
(1.29414 0.0301016 -8.32809e-20)
(1.27621 0.0187538 -1.00568e-19)
(1.25846 0.00924108 1.90449e-19)
(1.24116 0.0016813 -8.84682e-20)
(-0.0198223 0.00908445 -2.94176e-19)
(0.158545 -0.00744936 7.41981e-19)
(0.499103 0.0302373 4.45505e-19)
(0.850355 0.07881 -5.06723e-19)
(1.10664 0.116283 6.28216e-19)
(1.25758 0.134988 -3.70728e-21)
(1.33094 0.137383 5.66538e-19)
(1.35747 0.129106 3.69559e-19)
(1.35953 0.115178 3.2322e-19)
(1.35025 0.0989768 -3.07866e-19)
(1.33617 0.0824549 2.11879e-19)
(1.32014 0.0666576 2.19255e-19)
(1.3033 0.0521361 3.5348e-19)
(1.28616 0.0391777 -1.80879e-19)
(1.26903 0.0279142 -3.20545e-22)
(1.25214 0.0183672 -1.59211e-19)
(1.23572 0.0105521 8.06691e-21)
(1.21998 0.0039489 -6.0935e-20)
(-0.00958179 0.00485493 -2.68174e-19)
(0.211154 -0.00899472 -2.99796e-19)
(0.587149 0.0429167 -1.48351e-20)
(0.933918 0.0959143 4.80416e-19)
(1.16522 0.132287 -4.69939e-19)
(1.28998 0.148014 -5.11188e-19)
(1.34382 0.147663 1.93265e-19)
(1.35844 0.137693 -2.29429e-19)
(1.35433 0.12306 -1.46783e-19)
(1.34235 0.106772 5.62775e-20)
(1.32737 0.0904463 -4.76092e-19)
(1.3113 0.074917 4.29934e-19)
(1.29484 0.0606242 -4.0017e-20)
(1.2783 0.0478002 -8.85472e-20)
(1.26188 0.0365563 7.75195e-20)
(1.24578 0.0269105 -1.11881e-19)
(1.23018 0.0188488 -9.36719e-20)
(1.21522 0.0120322 -4.10387e-21)
(1.20099 0.00742693 -6.43406e-20)
(1.18787 0.000916434 1.1584e-19)
(0.00355846 0.000505001 3.08671e-19)
(0.270223 -0.00698635 5.44298e-19)
(0.67453 0.0586356 -7.39147e-19)
(1.00895 0.114261 -2.74722e-19)
(1.21356 0.148516 -1.24643e-19)
(1.31402 0.160884 7.15289e-19)
(1.35125 0.157789 -1.91577e-19)
(1.35649 0.146234 -1.1648e-19)
(1.34787 0.130949 -1.61922e-19)
(1.33406 0.11454 1.94068e-19)
(1.31855 0.0983222 7.1868e-20)
(1.30256 0.0829559 -8.10153e-20)
(1.28649 0.0687927 -2.10184e-19)
(1.27051 0.0560216 2.0704e-20)
(1.25476 0.0447338 -8.32905e-20)
(1.23938 0.0349466 1.45714e-19)
(1.22452 0.0266179 3.43282e-20)
(1.2103 0.0195559 3.30992e-20)
(1.19677 0.0143555 4.24794e-20)
(1.18427 0.00778349 -1.24097e-19)
(0.0199652 -0.00366834 -5.80471e-19)
(0.334737 -0.000869672 -3.4178e-20)
(0.758889 0.0768587 -1.12784e-19)
(1.07502 0.133546 3.24711e-19)
(1.25259 0.164823 -1.11889e-19)
(1.33107 0.173581 -3.13377e-19)
(1.35445 0.16781 -4.38119e-19)
(1.35242 0.15478 3.06617e-19)
(1.34055 0.138874 -3.55181e-19)
(1.32552 0.122297 1.74523e-19)
(1.30974 0.106098 1.01723e-19)
(1.2939 0.0907973 -5.03906e-20)
(1.27822 0.0766752 1.18551e-19)
(1.26276 0.0638844 1.28326e-19)
(1.24763 0.0524996 -2.66943e-19)
(1.23292 0.0425274 1.9089e-19)
(1.21875 0.0339241 1.38748e-20)
(1.2052 0.0265808 2.9693e-20)
(1.19234 0.0208038 1.40548e-19)
(1.18041 0.0141512 3.32455e-20)
(0.0399339 -0.00724797 1.72774e-19)
(0.403288 0.00953515 -7.06254e-19)
(0.838402 0.0971408 6.6827e-19)
(1.13217 0.153536 3.03594e-19)
(1.28334 0.181114 -2.26275e-19)
(1.34233 0.186115 -3.7199e-19)
(1.35438 0.177773 1.36339e-20)
(1.34682 0.163368 -7.23209e-20)
(1.33264 0.146851 6.09272e-19)
(1.31682 0.130048 -2.75039e-19)
(1.30092 0.113782 -3.11805e-20)
(1.28529 0.0984575 6.95555e-20)
(1.26999 0.0842982 -4.26055e-20)
(1.25503 0.0714251 -8.44003e-20)
(1.24048 0.0598953 2.29014e-19)
(1.22639 0.0497067 -1.827e-19)
(1.21285 0.0408151 1.97301e-20)
(1.19994 0.0331599 -9.62972e-20)
(1.18769 0.0268442 -9.64756e-20)
(1.1763 0.0200598 -2.95313e-20)
(0.063631 -0.00972134 -1.23459e-19)
(0.474237 0.0240682 2.95337e-19)
(0.911799 0.119114 -2.70401e-19)
(1.18073 0.174042 -2.80094e-19)
(1.30681 0.197329 4.63585e-19)
(1.34887 0.198511 4.91094e-19)
(1.35178 0.187719 2.36732e-19)
(1.34008 0.17202 -4.02578e-21)
(1.32429 0.154885 -5.96995e-19)
(1.30799 0.137792 5.02694e-20)
(1.29208 0.121374 1.90154e-20)
(1.27668 0.105946 1.22937e-19)
(1.26176 0.0916818 1.94914e-19)
(1.24728 0.0786721 -1.12638e-20)
(1.23327 0.066958 -4.24467e-20)
(1.21977 0.056526 1.62877e-19)
(1.20684 0.0473366 -1.03726e-19)
(1.19452 0.0393483 1.20859e-19)
(1.18284 0.0325162 -1.04571e-20)
(1.17195 0.0255747 1.14958e-19)
(0.09105 -0.0105358 2.16132e-19)
(0.545896 0.0423607 1.15413e-19)
(0.978318 0.142471 -2.642e-19)
(1.22119 0.194893 -3.27352e-19)
(1.32399 0.213431 -2.38319e-20)
(1.35154 0.210796 -5.41383e-20)
(1.34722 0.19768 2.62954e-19)
(1.33247 0.180744 1.8268e-19)
(1.31559 0.162966 1.95156e-19)
(1.29901 0.145516 -6.9295e-20)
(1.28318 0.128872 9.0181e-20)
(1.26805 0.113269 -8.17684e-20)
(1.2535 0.0988399 -1.61798e-19)
(1.23949 0.0856481 1.96762e-20)
(1.22601 0.0737168 3.97769e-20)
(1.21306 0.0630221 4.51676e-20)
(1.20069 0.0535272 5.82874e-20)
(1.18893 0.0451895 -3.39573e-20)
(1.17781 0.037874 6.32498e-20)
(1.1674 0.0307533 -1.37923e-19)
(0.121995 -0.00917477 2.84107e-19)
(0.616661 0.0639679 -2.62047e-20)
(1.0376 0.166949 3.7062e-19)
(1.25414 0.215938 2.26179e-19)
(1.33573 0.229397 1.00518e-19)
(1.35107 0.222997 -2.47223e-19)
(1.3411 0.20767 -2.33998e-19)
(1.32416 0.189536 -6.44441e-20)
(1.30657 0.171079 -1.70905e-20)
(1.28988 0.153206 -1.67197e-20)
(1.27419 0.136264 -2.17933e-19)
(1.25934 0.120425 4.64797e-20)
(1.24519 0.105781 8.17294e-20)
(1.23164 0.0923688 2.65552e-21)
(1.21866 0.0801946 9.33091e-21)
(1.20624 0.0692235 -2.42726e-20)
(1.19442 0.0594188 -5.48432e-20)
(1.18319 0.0507253 -4.3511e-20)
(1.17259 0.0429561 -8.71048e-20)
(1.16265 0.0356455 1.24593e-20)
(0.15609 -0.00523029 -1.74536e-19)
(0.6851 0.0884478 1.10319e-19)
(1.08957 0.192326 -4.59924e-20)
(1.28021 0.237043 1.09808e-20)
(1.34281 0.245211 -4.15009e-19)
(1.34801 0.235133 1.02928e-19)
(1.33373 0.217693 6.58542e-20)
(1.31526 0.198377 -4.47119e-20)
(1.29726 0.179199 1.602e-19)
(1.28057 0.160839 -2.26194e-21)
(1.26508 0.143537 6.8201e-20)
(1.25055 0.127408 7.79477e-20)
(1.23679 0.112507 -5.23358e-20)
(1.2237 0.098844 -5.99016e-20)
(1.21121 0.0864073 -3.14792e-20)
(1.19931 0.0751517 -3.24727e-20)
(1.18801 0.0650366 2.82598e-20)
(1.1773 0.0559869 3.11219e-20)
(1.1672 0.0478005 4.75635e-20)
(1.1577 0.0402987 5.27557e-20)
(0.192809 0.00155081 -8.09681e-20)
(0.750006 0.115382 -1.66149e-20)
(1.13438 0.218404 -1.48724e-19)
(1.30003 0.258092 1.37988e-19)
(1.34589 0.260855 2.97504e-19)
(1.34282 0.24721 1.62115e-19)
(1.32532 0.227739 -7.29844e-20)
(1.30583 0.207242 -4.18281e-20)
(1.28764 0.187296 -9.43883e-20)
(1.27106 0.168391 9.016e-20)
(1.25582 0.150675 -3.34968e-21)
(1.24164 0.134209 -4.28379e-20)
(1.22829 0.119017 -4.92209e-20)
(1.21565 0.105077 -4.58047e-20)
(1.20366 0.0923646 9.27255e-20)
(1.19227 0.080821 -3.08524e-20)
(1.18147 0.0703984 -3.20418e-20)
(1.17126 0.0610001 -5.28543e-21)
(1.16164 0.0524343 -5.12407e-21)
(1.15257 0.0447446 -2.94006e-20)
(0.231519 0.0112597 -7.95127e-21)
(0.810419 0.144372 -1.09683e-19)
(1.17225 0.244999 5.04604e-20)
(1.31422 0.278985 -1.80826e-19)
(1.34553 0.276312 -1.2637e-19)
(1.33583 0.259225 1.86523e-20)
(1.316 0.237784 -2.03561e-21)
(1.2959 0.216095 8.26712e-21)
(1.27769 0.195334 2.56075e-20)
(1.26131 0.175832 4.45979e-20)
(1.24638 0.157654 -6.02151e-20)
(1.23258 0.140815 2.47338e-20)
(1.21966 0.125302 4.23342e-20)
(1.2075 0.111068 -9.18739e-21)
(1.19599 0.09807 -3.89865e-20)
(1.18509 0.0862392 2.12836e-20)
(1.17479 0.0755155 2.33835e-20)
(1.16507 0.0657813 2.29775e-20)
(1.15592 0.056877 -1.11462e-20)
(1.14727 0.0490079 3.87011e-21)
(0.271514 0.0238524 8.95105e-20)
(0.86563 0.175034 -1.26978e-19)
(1.20351 0.271931 -1.73506e-20)
(1.32334 0.299639 7.37898e-20)
(1.34219 0.291557 1.19101e-19)
(1.3273 0.271157 -3.64438e-20)
(1.30587 0.247794 -1.03668e-19)
(1.28548 0.224894 1.02116e-19)
(1.2674 0.203274 -2.72567e-20)
(1.25131 0.18313 -3.09779e-20)
(1.23674 0.164451 2.77481e-20)
(1.22336 0.147207 -1.34626e-20)
(1.2109 0.131352 -3.90795e-21)
(1.19921 0.116809 9.92465e-21)
(1.1882 0.103522 1.39353e-20)
(1.1778 0.0914078 1.73639e-20)
(1.16798 0.0803921 -2.98999e-20)
(1.15874 0.0703395 -7.11175e-21)
(1.15005 0.0611361 -1.66851e-21)
(1.1418 0.0530962 8.08321e-21)
(0.312022 0.0391937 -4.90863e-20)
(0.915154 0.206997 8.81935e-20)
(1.2285 0.299018 -1.09637e-20)
(1.32792 0.319976 -2.37153e-20)
(1.33626 0.306561 -7.74765e-20)
(1.31743 0.282977 3.62324e-20)
(1.29499 0.257726 2.37121e-20)
(1.27458 0.233592 -2.60474e-20)
(1.25676 0.211074 -4.1881e-21)
(1.24104 0.19025 1.21534e-20)
(1.22689 0.171039 -1.28468e-20)
(1.21396 0.153365 6.38224e-21)
(1.20199 0.137151 -1.34768e-20)
(1.1908 0.12229 7.5675e-21)
(1.18029 0.108713 1.52236e-21)
(1.17038 0.0963231 -6.45453e-21)
(1.16105 0.0850264 3.61996e-21)
(1.15228 0.0746749 -5.32332e-21)
(1.14404 0.0652094 1.67156e-21)
(1.13616 0.0570094 5.7167e-21)
(0.352205 0.0570895 -3.50986e-20)
(0.958696 0.239907 7.68293e-20)
(1.24755 0.326076 -8.05254e-21)
(1.32843 0.339924 -3.03556e-20)
(1.32807 0.321287 -7.11047e-20)
(1.30635 0.294643 3.56712e-20)
(1.28339 0.26753 2.30898e-20)
(1.26317 0.24214 -2.05539e-20)
(1.24574 0.21869 -2.63258e-22)
(1.23047 0.197156 9.4189e-21)
(1.2168 0.177388 -8.2474e-21)
(1.20438 0.159267 -2.2135e-21)
(1.19292 0.142681 -4.71574e-21)
(1.18224 0.127498 2.6881e-21)
(1.17224 0.113633 1.70181e-21)
(1.16284 0.100976 -6.51746e-21)
(1.15399 0.08941 6.96596e-21)
(1.1457 0.0787788 -6.51112e-21)
(1.13791 0.0690898 -1.50461e-21)
(1.13037 0.060736 3.7542e-21)
(0.391254 0.0772784 1.01585e-19)
(0.996017 0.273386 -1.03577e-19)
(1.26093 0.352898 -7.43911e-20)
(1.32525 0.359409 9.69375e-20)
(1.31783 0.335698 1.10424e-19)
(1.29415 0.306112 -4.49295e-20)
(1.27109 0.277157 -7.40996e-20)
(1.25125 0.250491 8.04345e-20)
(1.23433 0.226081 -2.22442e-20)
(1.21959 0.203816 -2.55632e-20)
(1.20646 0.183472 1.96261e-20)
(1.19459 0.16489 -3.73111e-21)
(1.18368 0.147926 -8.80457e-21)
(1.17355 0.132418 2.73342e-21)
(1.16407 0.118269 1.27076e-20)
(1.15518 0.105355 1.43152e-20)
(1.14682 0.0935307 -1.72422e-20)
(1.13901 0.0826372 -4.3573e-21)
(1.13165 0.0727712 -2.74386e-21)
(1.12443 0.0642656 5.38757e-21)
(0.428643 0.0995467 4.51174e-20)
(1.02731 0.307191 -1.63602e-19)
(1.26913 0.379346 4.59719e-20)
(1.31877 0.378365 -1.2003e-19)
(1.30579 0.349731 -1.40029e-19)
(1.2809 0.317308 2.26743e-20)
(1.25809 0.28653 8.86278e-21)
(1.23882 0.258575 -8.83422e-21)
(1.22252 0.233189 2.95857e-20)
(1.2084 0.210182 -1.0106e-21)
(1.19587 0.189253 -1.84353e-20)
(1.1846 0.170198 3.86496e-21)
(1.17428 0.152855 3.48558e-20)
(1.16472 0.137029 -2.776e-21)
(1.15578 0.1226 -1.11604e-20)
(1.14741 0.10944 -6.27481e-21)
(1.13955 0.0973712 2.59401e-20)
(1.13222 0.0862337 1.06142e-20)
(1.12526 0.0762351 -5.80164e-21)
(1.11839 0.0675814 -6.62982e-21)
(0.463753 0.12366 -1.00198e-19)
(1.05262 0.341044 -1.9103e-20)
(1.27245 0.405237 -1.42804e-19)
(1.3093 0.396707 1.60605e-19)
(1.29209 0.363325 1.99963e-19)
(1.26667 0.328168 7.76781e-20)
(1.2444 0.295588 -1.41614e-20)
(1.22585 0.26634 1.59096e-20)
(1.21029 0.239968 -8.05832e-20)
(1.19687 0.216214 5.6695e-20)
(1.18504 0.194699 -1.70151e-20)
(1.17441 0.175167 -1.26754e-20)
(1.16472 0.157449 -3.3506e-20)
(1.15575 0.141311 -9.96974e-21)
(1.14738 0.126614 1.46663e-20)
(1.13953 0.113215 -8.9531e-21)
(1.13218 0.100915 -1.13588e-20)
(1.12533 0.0895666 3.10179e-21)
(1.11876 0.079451 -1.7293e-21)
(1.11224 0.0706478 -1.45984e-20)
(0.496029 0.149355 -1.47742e-19)
(1.07208 0.374674 2.89014e-20)
(1.27122 0.430406 6.91255e-20)
(1.29711 0.414352 -7.58918e-20)
(1.27687 0.376409 -2.74304e-19)
(1.25148 0.338615 2.31066e-20)
(1.23003 0.304259 9.84085e-20)
(1.21236 0.273722 -3.62977e-20)
(1.19765 0.246369 7.70255e-20)
(1.185 0.221859 -2.01518e-20)
(1.17397 0.19977 4.95387e-20)
(1.16404 0.179772 6.60871e-21)
(1.15501 0.161681 8.74863e-22)
(1.14666 0.145243 -2.67669e-20)
(1.13887 0.130291 -1.22102e-20)
(1.13156 0.116665 -5.32092e-21)
(1.12473 0.104145 4.87873e-21)
(1.11836 0.0926112 7.44801e-21)
(1.11218 0.0824021 1.24492e-20)
(1.10601 0.0734456 1.98296e-20)
(0.525007 0.17634 1.88437e-19)
(1.08584 0.407822 7.05615e-20)
(1.26577 0.454688 2.34119e-19)
(1.28244 0.43121 1.1444e-19)
(1.26024 0.388902 9.00124e-20)
(1.23538 0.34857 -1.16961e-19)
(1.21498 0.312471 -1.04543e-19)
(1.19835 0.28066 -3.49583e-20)
(1.18462 0.252345 -1.92427e-20)
(1.17286 0.227082 -4.08388e-20)
(1.16264 0.204421 -6.16464e-20)
(1.15347 0.183992 -9.44567e-22)
(1.14513 0.165533 2.72766e-20)
(1.13744 0.148804 5.00429e-20)
(1.13026 0.133611 -4.73483e-20)
(1.12352 0.119772 1.04448e-20)
(1.11722 0.107049 -1.16046e-20)
(1.11132 0.0953561 -4.58145e-21)
(1.10553 0.0850658 -2.25838e-20)
(1.09971 0.0759558 -4.98008e-21)
(0.55031 0.204298 4.13546e-19)
(1.09411 0.440229 -3.90506e-20)
(1.25638 0.477922 -1.83627e-19)
(1.26549 0.447186 -2.52473e-19)
(1.24227 0.400718 -5.49862e-20)
(1.21838 0.35795 -1.33366e-22)
(1.19927 0.320148 1.40959e-19)
(1.18386 0.287091 1.12521e-19)
(1.17119 0.257832 7.41611e-20)
(1.16041 0.231857 -2.98255e-20)
(1.15106 0.208635 2.19808e-20)
(1.1427 0.18778 -1.99128e-20)
(1.13512 0.168979 -3.53087e-20)
(1.12811 0.151975 1.24228e-20)
(1.12157 0.136557 -3.78232e-21)
(1.1154 0.122521 1.03064e-20)
(1.10964 0.109614 1.33694e-20)
(1.10423 0.0977837 -2.2438e-21)
(1.09883 0.0874294 1.39806e-20)
(1.09337 0.0781677 -8.09828e-21)
(0.57165 0.232883 -2.60595e-19)
(1.0971 0.471639 3.12211e-19)
(1.24334 0.499949 -1.38572e-19)
(1.24642 0.46218 -6.63143e-20)
(1.22305 0.411764 2.08019e-19)
(1.20056 0.366669 2.01434e-19)
(1.18296 0.327215 6.79147e-20)
(1.16887 0.292955 -5.13032e-20)
(1.15738 0.262794 -1.08401e-19)
(1.14766 0.236128 -2.0531e-21)
(1.13926 0.212376 1.20096e-20)
(1.13177 0.191118 2.60462e-20)
(1.12497 0.171996 2.28906e-20)
(1.11869 0.154738 -6.92274e-21)
(1.1128 0.139114 1.39673e-20)
(1.10724 0.124899 3.52656e-21)
(1.10203 0.111829 -5.37083e-21)
(1.0971 0.0998851 7.58787e-21)
(1.09209 0.0894801 4.82757e-21)
(1.08701 0.0800746 3.67797e-21)
(0.588827 0.261734 4.19098e-20)
(1.09503 0.501793 -5.56098e-19)
(1.22691 0.520612 3.46639e-19)
(1.22541 0.476086 2.13025e-19)
(1.20268 0.421942 -2.11714e-20)
(1.18195 0.374631 -1.73346e-19)
(1.16604 0.333609 -1.4198e-20)
(1.1534 0.298196 -3.64715e-20)
(1.14321 0.267174 1.13588e-19)
(1.13463 0.23986 -9.21384e-21)
(1.12724 0.215611 -1.94325e-20)
(1.12067 0.193976 5.72384e-21)
(1.11471 0.174561 -5.7578e-21)
(1.10918 0.157075 -3.31032e-21)
(1.10397 0.141268 1.35481e-20)
(1.09903 0.126895 -1.74251e-20)
(1.09439 0.113685 3.33533e-21)
(1.08995 0.101652 -2.83369e-21)
(1.08535 0.0912116 2.20686e-22)
(1.08066 0.0816754 4.6327e-22)
(0.601722 0.290477 -5.23333e-19)
(1.08814 0.530436 5.33995e-20)
(1.20732 0.539749 -1.17351e-19)
(1.20263 0.488789 1.53595e-19)
(1.18128 0.43116 -2.94708e-20)
(1.16257 0.381755 -1.22739e-19)
(1.14852 0.339255 -1.22e-19)
(1.13748 0.302757 2.5331e-20)
(1.12869 0.270927 -2.43716e-20)
(1.12134 0.243012 2.14441e-20)
(1.11504 0.21831 2.7116e-20)
(1.10944 0.196333 -1.78666e-20)
(1.10435 0.176657 -2.25023e-21)
(1.0996 0.15897 9.87076e-21)
(1.0951 0.143007 -1.03464e-20)
(1.09081 0.128502 2.58274e-21)
(1.08674 0.115179 -1.62548e-22)
(1.0828 0.103079 -4.93428e-21)
(1.07861 0.0926198 -3.78188e-21)
(1.07433 0.0829732 -1.19065e-20)
(0.610296 0.31874 2.37564e-19)
(1.0767 0.557325 5.03866e-19)
(1.18481 0.557189 -5.00821e-19)
(1.17827 0.500182 2.93578e-20)
(1.15888 0.439313 -1.20441e-19)
(1.14244 0.387961 2.43653e-19)
(1.13045 0.344082 -7.25438e-20)
(1.12115 0.306579 -4.61085e-21)
(1.11386 0.274009 -2.1077e-20)
(1.10781 0.24555 2.4531e-20)
(1.10267 0.220442 -5.35235e-21)
(1.09809 0.198164 -7.97495e-21)
(1.09391 0.178265 2.08497e-21)
(1.08998 0.160412 -5.28618e-21)
(1.08621 0.144321 5.16184e-21)
(1.08258 0.129712 -1.23682e-20)
(1.07911 0.116306 6.51997e-22)
(1.07567 0.104166 -4.11796e-21)
(1.0719 0.0937049 -5.67924e-21)
(1.06806 0.0839744 1.26575e-20)
(0.614586 0.346152 -1.85194e-19)
(1.06103 0.582248 -1.7873e-19)
(1.1596 0.572755 8.00471e-20)
(1.15246 0.510137 1.87281e-20)
(1.13552 0.446308 -1.76878e-20)
(1.12164 0.393161 -1.63578e-19)
(1.11187 0.348019 5.55775e-20)
(1.10443 0.309609 -4.64936e-20)
(1.09875 0.276375 2.78086e-21)
(1.09408 0.247437 -9.65173e-21)
(1.09015 0.22198 3.20857e-21)
(1.08664 0.19945 -5.88097e-21)
(1.08341 0.179369 7.39589e-21)
(1.08032 0.161386 4.7255e-21)
(1.07732 0.145202 -2.89374e-21)
(1.07437 0.130523 -4.02888e-21)
(1.0715 0.117067 7.40673e-21)
(1.06857 0.104912 1.00848e-20)
(1.06524 0.0944688 1.70909e-20)
(1.06185 0.0846887 8.84038e-21)
(0.614702 0.372339 -4.3221e-19)
(1.04145 0.604998 6.34236e-19)
(1.13192 0.586315 2.09398e-19)
(1.12529 0.518494 -1.4952e-19)
(1.11131 0.452052 1.15911e-19)
(1.10023 0.39728 3.55038e-20)
(1.09285 0.351005 3.93501e-20)
(1.08739 0.311795 1.59287e-21)
(1.0834 0.277987 1.22381e-20)
(1.08019 0.248643 -4.65785e-21)
(1.07752 0.222899 -3.57431e-21)
(1.07512 0.200171 -1.02223e-20)
(1.07287 0.179955 -4.19921e-20)
(1.07066 0.161884 1.77825e-20)
(1.06844 0.145643 8.58786e-21)
(1.06619 0.13093 1.55841e-20)
(1.06394 0.117459 -2.0867e-20)
(1.06153 0.105317 1.26102e-21)
(1.05865 0.0949138 1.80123e-20)
(1.05575 0.0851278 5.53291e-20)
(0.610823 0.396953 9.7178e-19)
(1.01811 0.625286 -5.01835e-19)
(1.10209 0.597786 6.30581e-20)
(1.09691 0.525136 -1.94412e-19)
(1.08634 0.456436 -6.6464e-20)
(1.07827 0.400241 6.2732e-23)
(1.07342 0.35298 -1.0774e-20)
(1.07006 0.31309 -9.5896e-21)
(1.06784 0.278806 -1.36072e-21)
(1.06615 0.249139 -5.14185e-20)
(1.06481 0.223177 3.15602e-20)
(1.06356 0.20031 4.68523e-21)
(1.06233 0.180011 1.91639e-20)
(1.06101 0.161897 -2.9931e-20)
(1.05959 0.14564 3.6896e-20)
(1.05806 0.130932 1.34493e-20)
(1.05644 0.117484 -1.98143e-20)
(1.05457 0.105379 -3.47009e-21)
(1.05216 0.0950372 -6.51441e-20)
(1.04975 0.0853022 -3.17484e-20)
(0.603184 0.41974 -4.69888e-19)
(0.991092 0.642732 -5.10987e-19)
(1.07046 0.607072 1.67336e-19)
(1.06751 0.529997 9.02938e-20)
(1.06072 0.459371 1.00538e-19)
(1.05585 0.401975 -1.15272e-20)
(1.05367 0.353889 -2.39192e-20)
(1.05249 0.313452 4.07304e-20)
(1.05214 0.2788 -7.85391e-20)
(1.05203 0.248899 1.92463e-20)
(1.05205 0.222794 -2.98677e-20)
(1.05199 0.199853 1.15088e-20)
(1.0518 0.179526 -6.48126e-20)
(1.05141 0.161417 2.62262e-20)
(1.05081 0.145187 -5.53948e-20)
(1.05001 0.130527 2.4526e-20)
(1.04903 0.117142 1.18743e-20)
(1.0477 0.105095 3.5778e-20)
(1.04577 0.0948261 5.66315e-20)
(1.04389 0.0852124 -8.18421e-21)
(0.592012 0.440548 1.5953e-19)
(0.960686 0.657088 5.09402e-19)
(1.03726 0.61396 -1.28994e-19)
(1.03723 0.533025 1.30453e-19)
(1.03454 0.460778 -3.65593e-20)
(1.03304 0.402417 -2.32224e-20)
(1.03365 0.353684 5.87512e-20)
(1.03476 0.312842 -5.04247e-20)
(1.03633 0.277938 1.62028e-21)
(1.03785 0.247899 1.46253e-20)
(1.03928 0.221734 1.78226e-22)
(1.04043 0.198787 1.15364e-19)
(1.04132 0.178492 5.85344e-20)
(1.04187 0.160439 -3.01586e-20)
(1.04211 0.144283 3.47448e-20)
(1.04206 0.129717 -2.47797e-20)
(1.04171 0.116437 -8.27931e-22)
(1.04093 0.104464 -1.33966e-19)
(1.03951 0.0942635 -6.00181e-20)
(1.03816 0.0848408 -4.83381e-20)
(0.577405 0.459105 3.50882e-20)
(0.927531 0.668362 1.57242e-19)
(1.00271 0.618235 -1.2655e-19)
(1.00625 0.53413 -1.4943e-20)
(1.00792 0.46059 -3.60173e-20)
(1.00994 0.40151 -2.68589e-20)
(1.01345 0.352322 -4.29314e-20)
(1.01691 0.311226 -2.89119e-20)
(1.02047 0.276195 -3.00912e-20)
(1.02366 0.246121 5.98227e-20)
(1.02653 0.21998 -5.73838e-20)
(1.02894 0.197102 -1.8036e-19)
(1.03091 0.176901 -4.30914e-20)
(1.03242 0.158959 -2.0966e-20)
(1.03352 0.142925 6.47324e-20)
(1.03421 0.128502 -1.12343e-20)
(1.03451 0.115376 1.35212e-20)
(1.03429 0.103501 -2.44551e-20)
(1.03341 0.0933553 9.04172e-20)
(1.03264 0.0841841 -5.76428e-20)
(0.559402 0.47492 8.04068e-20)
(0.892174 0.676515 -3.0937e-19)
(0.967036 0.619823 5.01391e-20)
(0.974708 0.533225 -2.95384e-20)
(0.980986 0.458748 1.31782e-20)
(0.986647 0.399204 1.43277e-19)
(0.993137 0.349764 -1.2745e-19)
(0.999022 0.308576 -3.39234e-20)
(1.00462 0.273549 7.81462e-21)
(1.00952 0.243549 -2.21355e-19)
(1.01386 0.217524 3.90572e-20)
(1.01753 0.194789 1.43764e-19)
(1.0206 0.174748 1.42725e-19)
(1.0231 0.156971 3.57658e-20)
(1.02506 0.141109 -5.38414e-20)
(1.0265 0.126877 -2.14212e-20)
(1.02744 0.113955 6.44396e-20)
(1.02782 0.102211 7.49153e-21)
(1.02762 0.0921379 1.0036e-20)
(1.02748 0.0833488 9.74142e-20)
(0.53836 0.487638 -3.88355e-19)
(0.854947 0.681361 1.37022e-19)
(0.930485 0.618697 1.02036e-20)
(0.942784 0.530237 -4.08366e-21)
(0.953851 0.4552 1.09644e-19)
(0.963254 0.395459 -6.7698e-20)
(0.972801 0.345982 9.11143e-20)
(0.981161 0.30487 -6.52669e-20)
(0.988825 0.269985 -1.06916e-19)
(0.995467 0.24017 3.42612e-19)
(1.00129 0.214355 8.70609e-21)
(1.00624 0.191844 -2.01888e-20)
(1.01044 0.17203 -6.37585e-20)
(1.01392 0.154477 -5.50458e-21)
(1.01675 0.138834 -4.61284e-21)
(1.01893 0.124833 4.10358e-20)
(1.0205 0.112149 -3.52396e-20)
(1.02158 0.100556 -3.21874e-20)
(1.02229 0.0905664 6.77689e-21)
(1.02295 0.0824605 -8.56499e-20)