/*--------------------------------*- C++ -*----------------------------------*\
  =========                 |
  \\      /  F ield         | OpenFOAM: The Open Source CFD Toolbox
   \\    /   O peration     | Website:  https://openfoam.org
    \\  /    A nd           | Version:  7
     \\/     M anipulation  |
\*---------------------------------------------------------------------------*/
FoamFile
{
    version     2.0;
    format      ascii;
    class       volScalarField;
    location    "25";
    object      p;
}
// * * * * * * * * * * * * * * * * * * * * * * * * * * * * * * * * * * * * * //

dimensions      [0 2 -2 0 0 0 0];

internalField   nonuniform List<scalar> 
42000
(
-0.384452
-0.38775
-0.3859
-0.38308
-0.378377
-0.372517
-0.365611
-0.3579
-0.349543
-0.340689
-0.331469
-0.321999
-0.312388
-0.302735
-0.293135
-0.283671
-0.274443
-0.265428
-0.257024
-0.248229
-0.38473
-0.38797
-0.386098
-0.38325
-0.378526
-0.372649
-0.365727
-0.358003
-0.349633
-0.340769
-0.331539
-0.322059
-0.312438
-0.302776
-0.293166
-0.283693
-0.274454
-0.265427
-0.257037
-0.248131
-0.385285
-0.38841
-0.386495
-0.383589
-0.378826
-0.372911
-0.365959
-0.358208
-0.349815
-0.340929
-0.331678
-0.32218
-0.31254
-0.302858
-0.293229
-0.283735
-0.274478
-0.265424
-0.257062
-0.247935
-0.386115
-0.389069
-0.387088
-0.384098
-0.379274
-0.373304
-0.366306
-0.358514
-0.350086
-0.341167
-0.331887
-0.32236
-0.312691
-0.302981
-0.293323
-0.283799
-0.274514
-0.265419
-0.257099
-0.247642
-0.38722
-0.389945
-0.387877
-0.384775
-0.379869
-0.373827
-0.366767
-0.358921
-0.350445
-0.341484
-0.332164
-0.322599
-0.312893
-0.303145
-0.293447
-0.283883
-0.274561
-0.265413
-0.257148
-0.247251
-0.388595
-0.391037
-0.388859
-0.385618
-0.380611
-0.374477
-0.367341
-0.359428
-0.350893
-0.341879
-0.332509
-0.322896
-0.313143
-0.303348
-0.293602
-0.283988
-0.274619
-0.265404
-0.25721
-0.246762
-0.39024
-0.392342
-0.390034
-0.386625
-0.381498
-0.375254
-0.368027
-0.360034
-0.351428
-0.34235
-0.332921
-0.323251
-0.313443
-0.30359
-0.293787
-0.284114
-0.274688
-0.265392
-0.257284
-0.246176
-0.392149
-0.393858
-0.391398
-0.387794
-0.382528
-0.376156
-0.368822
-0.360737
-0.352049
-0.342897
-0.333399
-0.323663
-0.31379
-0.303872
-0.294001
-0.284259
-0.274768
-0.265378
-0.25737
-0.245494
-0.394319
-0.395581
-0.392949
-0.389124
-0.383697
-0.377181
-0.369726
-0.361535
-0.352754
-0.343517
-0.333941
-0.324131
-0.314184
-0.304192
-0.294245
-0.284423
-0.27486
-0.26536
-0.257467
-0.244716
-0.396746
-0.397508
-0.394683
-0.39061
-0.385005
-0.378327
-0.370737
-0.362426
-0.353541
-0.344211
-0.334547
-0.324654
-0.314625
-0.30455
-0.294517
-0.284608
-0.274961
-0.26534
-0.257577
-0.243843
-0.399424
-0.399634
-0.396596
-0.39225
-0.386448
-0.379591
-0.371851
-0.363409
-0.354409
-0.344975
-0.335216
-0.32523
-0.315111
-0.304944
-0.294818
-0.284811
-0.275073
-0.265315
-0.257697
-0.242875
-0.402347
-0.401956
-0.398685
-0.39404
-0.388023
-0.380969
-0.373066
-0.364481
-0.355356
-0.345808
-0.335944
-0.325859
-0.315641
-0.305375
-0.295147
-0.285033
-0.275196
-0.265287
-0.257828
-0.241814
-0.405511
-0.404469
-0.400945
-0.395977
-0.389726
-0.382461
-0.37438
-0.36564
-0.356379
-0.346709
-0.336732
-0.326539
-0.316215
-0.305841
-0.295503
-0.285273
-0.275328
-0.265254
-0.257969
-0.240661
-0.408908
-0.407167
-0.403373
-0.398057
-0.391554
-0.384061
-0.37579
-0.366884
-0.357476
-0.347675
-0.337577
-0.327268
-0.31683
-0.306342
-0.295885
-0.285532
-0.27547
-0.265216
-0.25812
-0.239416
-0.412532
-0.410045
-0.405962
-0.400274
-0.393504
-0.385766
-0.377292
-0.368208
-0.358645
-0.348704
-0.338477
-0.328046
-0.317487
-0.306877
-0.296294
-0.285808
-0.275623
-0.265174
-0.25828
-0.238082
-0.416376
-0.413097
-0.408707
-0.402625
-0.39557
-0.387574
-0.378884
-0.369612
-0.359883
-0.349794
-0.339431
-0.32887
-0.318184
-0.307445
-0.296729
-0.286102
-0.275785
-0.265126
-0.258448
-0.236658
-0.42043
-0.416317
-0.411603
-0.405105
-0.397749
-0.38948
-0.380562
-0.37109
-0.361188
-0.350943
-0.340436
-0.329739
-0.31892
-0.308045
-0.29719
-0.286414
-0.275957
-0.265074
-0.258622
-0.235147
-0.424688
-0.4197
-0.414645
-0.407709
-0.400037
-0.39148
-0.382322
-0.372642
-0.362557
-0.352148
-0.341491
-0.330652
-0.319693
-0.308677
-0.297676
-0.286743
-0.276139
-0.265015
-0.258803
-0.233549
-0.429141
-0.423237
-0.417825
-0.410432
-0.402428
-0.393571
-0.384161
-0.374262
-0.363986
-0.353407
-0.342593
-0.331606
-0.320503
-0.309341
-0.298186
-0.28709
-0.276331
-0.264952
-0.258988
-0.231866
-0.43378
-0.426923
-0.421139
-0.413268
-0.404918
-0.395747
-0.386076
-0.375949
-0.365474
-0.354717
-0.343741
-0.332601
-0.321348
-0.310034
-0.298722
-0.287455
-0.276534
-0.264883
-0.259177
-0.230099
-0.438597
-0.430749
-0.424578
-0.416211
-0.407502
-0.398005
-0.388062
-0.377698
-0.367017
-0.356076
-0.344933
-0.333635
-0.322227
-0.310757
-0.299282
-0.287839
-0.276748
-0.264809
-0.259367
-0.228249
-0.443581
-0.434708
-0.428137
-0.419256
-0.410175
-0.40034
-0.390115
-0.379507
-0.368612
-0.357482
-0.346166
-0.334705
-0.32314
-0.311509
-0.299867
-0.288241
-0.276974
-0.264731
-0.259557
-0.226317
-0.448725
-0.438794
-0.431809
-0.422397
-0.412932
-0.402748
-0.392232
-0.381371
-0.370257
-0.358931
-0.347437
-0.335811
-0.324084
-0.31229
-0.300477
-0.288663
-0.277213
-0.26465
-0.259744
-0.224303
-0.454016
-0.442997
-0.435586
-0.425628
-0.415767
-0.405224
-0.394409
-0.383287
-0.371947
-0.360421
-0.348746
-0.33695
-0.325059
-0.313099
-0.301112
-0.289105
-0.277465
-0.264567
-0.259928
-0.22221
-0.459447
-0.44731
-0.439462
-0.428943
-0.418675
-0.407763
-0.396641
-0.385252
-0.373681
-0.36195
-0.35009
-0.338121
-0.326063
-0.313936
-0.301773
-0.289568
-0.277732
-0.264483
-0.260105
-0.220036
-0.465005
-0.451724
-0.443428
-0.432334
-0.42165
-0.41036
-0.398923
-0.387262
-0.375454
-0.363514
-0.351466
-0.339322
-0.327096
-0.3148
-0.302459
-0.290055
-0.278016
-0.264402
-0.260274
-0.217784
-0.470681
-0.456231
-0.447478
-0.435797
-0.424687
-0.413011
-0.401253
-0.389313
-0.377264
-0.365111
-0.352872
-0.340552
-0.328157
-0.31569
-0.303172
-0.290567
-0.27832
-0.264327
-0.26043
-0.215455
-0.476464
-0.460822
-0.451602
-0.439323
-0.42778
-0.415711
-0.403625
-0.391401
-0.379107
-0.366738
-0.354305
-0.341808
-0.329243
-0.316608
-0.303912
-0.291105
-0.278645
-0.264264
-0.260572
-0.213051
-0.482343
-0.465488
-0.455795
-0.442907
-0.430923
-0.418454
-0.406035
-0.393523
-0.380979
-0.368392
-0.355764
-0.343088
-0.330354
-0.317551
-0.304679
-0.291674
-0.278996
-0.264219
-0.260697
-0.210576
-0.488307
-0.470221
-0.460047
-0.446541
-0.43411
-0.421235
-0.408479
-0.395674
-0.382878
-0.37007
-0.357245
-0.344389
-0.331488
-0.31852
-0.305476
-0.292275
-0.279377
-0.264202
-0.260799
-0.208038
-0.494343
-0.47501
-0.46435
-0.450219
-0.437335
-0.424049
-0.410951
-0.39785
-0.3848
-0.371768
-0.358746
-0.345711
-0.332643
-0.319513
-0.306303
-0.292914
-0.279794
-0.264226
-0.260877
-0.205451
-0.500442
-0.479847
-0.468695
-0.453933
-0.440592
-0.426891
-0.413448
-0.400048
-0.38674
-0.373484
-0.360263
-0.34705
-0.333817
-0.320531
-0.30716
-0.293593
-0.280254
-0.264309
-0.260925
-0.202836
-0.50659
-0.484722
-0.473075
-0.457676
-0.443875
-0.429756
-0.415964
-0.402263
-0.388695
-0.375213
-0.361793
-0.348402
-0.335008
-0.321571
-0.308049
-0.294318
-0.280765
-0.264475
-0.260937
-0.200231
-0.512775
-0.489625
-0.47748
-0.461441
-0.447177
-0.432637
-0.418495
-0.404491
-0.390662
-0.376952
-0.363332
-0.349766
-0.336214
-0.322632
-0.308971
-0.295095
-0.281339
-0.264757
-0.260908
-0.197703
-0.518985
-0.494546
-0.481902
-0.46522
-0.450491
-0.435528
-0.421035
-0.406726
-0.392635
-0.378696
-0.364877
-0.351136
-0.33743
-0.323711
-0.309924
-0.295928
-0.281989
-0.265197
-0.260841
-0.195393
-0.525207
-0.499474
-0.486331
-0.469006
-0.453811
-0.438425
-0.423579
-0.408964
-0.394609
-0.380442
-0.366424
-0.352508
-0.338652
-0.324805
-0.310909
-0.296822
-0.282732
-0.265852
-0.260753
-0.193548
-0.531427
-0.5044
-0.490759
-0.47279
-0.45713
-0.441321
-0.426122
-0.4112
-0.396581
-0.382185
-0.367966
-0.353878
-0.339875
-0.325909
-0.311921
-0.297779
-0.283584
-0.266789
-0.260618
-0.192349
-0.537635
-0.509317
-0.49518
-0.476568
-0.460445
-0.444213
-0.428661
-0.413432
-0.398548
-0.38392
-0.369502
-0.355241
-0.341094
-0.327017
-0.312957
-0.2988
-0.284573
-0.268097
-0.260271
-0.191683
-0.543819
-0.514218
-0.499587
-0.480336
-0.46375
-0.447096
-0.431192
-0.415656
-0.400506
-0.385646
-0.371026
-0.356592
-0.342304
-0.328123
-0.314009
-0.299882
-0.285738
-0.269915
-0.259849
-0.193192
-0.54993
-0.519057
-0.503936
-0.484052
-0.467008
-0.449937
-0.433683
-0.417842
-0.402428
-0.387337
-0.372516
-0.357911
-0.343483
-0.329203
-0.315051
-0.300996
-0.287072
-0.272331
-0.261024
-0.207947
-0.555875
-0.523739
-0.508135
-0.487627
-0.470136
-0.452659
-0.436065
-0.419928
-0.404257
-0.388941
-0.373924
-0.359152
-0.344589
-0.330217
-0.316037
-0.302081
-0.288455
-0.275028
-0.265133
-0.254611
-0.561861
-0.528476
-0.512394
-0.491264
-0.473325
-0.455437
-0.438499
-0.422059
-0.406123
-0.390574
-0.375352
-0.360403
-0.345695
-0.331223
-0.317006
-0.303133
-0.289761
-0.277473
-0.266925
-0.273653
-0.567807
-0.533178
-0.516623
-0.494878
-0.476495
-0.458199
-0.440917
-0.424173
-0.407969
-0.392182
-0.37675
-0.361618
-0.346759
-0.332175
-0.317906
-0.304082
-0.290861
-0.279359
-0.267079
-0.280832
-0.573662
-0.537799
-0.520778
-0.498426
-0.479605
-0.460906
-0.443283
-0.426236
-0.409765
-0.393739
-0.378093
-0.362773
-0.347755
-0.333049
-0.318706
-0.304888
-0.291717
-0.280708
-0.266938
-0.284411
-0.579414
-0.542326
-0.524848
-0.501899
-0.482649
-0.463553
-0.445592
-0.428244
-0.411505
-0.395237
-0.379374
-0.363859
-0.348673
-0.333829
-0.319389
-0.305533
-0.292325
-0.281571
-0.266657
-0.285932
-0.585049
-0.546753
-0.528827
-0.505292
-0.485619
-0.466133
-0.447839
-0.430192
-0.413184
-0.396671
-0.380585
-0.364868
-0.349502
-0.334504
-0.31994
-0.305999
-0.292685
-0.281984
-0.266122
-0.285847
-0.590553
-0.551067
-0.532704
-0.508596
-0.488509
-0.468639
-0.450015
-0.43207
-0.414792
-0.398032
-0.381716
-0.365789
-0.35023
-0.335061
-0.320346
-0.306276
-0.292795
-0.281982
-0.265316
-0.284596
-0.595911
-0.555256
-0.536467
-0.511798
-0.491308
-0.471061
-0.452112
-0.433871
-0.416322
-0.39931
-0.382759
-0.366611
-0.350847
-0.335488
-0.320594
-0.306353
-0.292654
-0.281606
-0.264258
-0.282524
-0.601106
-0.559306
-0.540104
-0.514889
-0.494005
-0.473389
-0.45412
-0.435584
-0.417763
-0.400495
-0.383702
-0.367324
-0.351341
-0.335773
-0.320675
-0.306225
-0.292266
-0.280888
-0.262965
-0.279855
-0.606124
-0.563205
-0.543603
-0.517857
-0.496591
-0.475615
-0.456029
-0.437201
-0.419106
-0.401578
-0.384535
-0.367917
-0.351701
-0.335905
-0.320578
-0.305886
-0.291634
-0.279858
-0.261449
-0.276736
-0.610948
-0.566939
-0.546951
-0.520691
-0.499054
-0.477727
-0.45783
-0.43871
-0.420341
-0.402548
-0.385248
-0.368379
-0.351916
-0.335875
-0.320296
-0.305333
-0.29076
-0.278541
-0.25972
-0.273271
-0.615562
-0.570494
-0.550136
-0.52338
-0.501384
-0.479714
-0.459512
-0.440103
-0.421456
-0.403393
-0.385829
-0.368698
-0.351975
-0.335672
-0.319821
-0.304562
-0.28965
-0.276957
-0.257788
-0.269533
-0.61995
-0.573856
-0.553144
-0.525911
-0.50357
-0.481566
-0.461064
-0.441367
-0.422441
-0.404104
-0.386267
-0.368864
-0.351868
-0.335286
-0.319146
-0.303571
-0.288305
-0.275121
-0.255661
-0.265575
-0.624095
-0.577011
-0.555962
-0.528272
-0.505598
-0.483272
-0.462475
-0.442491
-0.423285
-0.404668
-0.386551
-0.368866
-0.351583
-0.334709
-0.318264
-0.302358
-0.286729
-0.273048
-0.253346
-0.261436
-0.627981
-0.579944
-0.558577
-0.53045
-0.507458
-0.484819
-0.463732
-0.443464
-0.423976
-0.405074
-0.386669
-0.368692
-0.351112
-0.333932
-0.317169
-0.300919
-0.284924
-0.270748
-0.250846
-0.257142
-0.631589
-0.582641
-0.560973
-0.532432
-0.509136
-0.486195
-0.464825
-0.444274
-0.424501
-0.40531
-0.38661
-0.368331
-0.350443
-0.332946
-0.315855
-0.299254
-0.282892
-0.268228
-0.248164
-0.252713
-0.634903
-0.585086
-0.563138
-0.534205
-0.51062
-0.487387
-0.46574
-0.444908
-0.424848
-0.405363
-0.38636
-0.367771
-0.349566
-0.331744
-0.314315
-0.297358
-0.280632
-0.265494
-0.245302
-0.248162
-0.637906
-0.587265
-0.565056
-0.535754
-0.511896
-0.488383
-0.466464
-0.445353
-0.425005
-0.405221
-0.38591
-0.367002
-0.348471
-0.330315
-0.312544
-0.29523
-0.278146
-0.262551
-0.242259
-0.243498
-0.640579
-0.589161
-0.566713
-0.537067
-0.512951
-0.48917
-0.466985
-0.445596
-0.424959
-0.404872
-0.385245
-0.366013
-0.347149
-0.328654
-0.310537
-0.292867
-0.275433
-0.2594
-0.239035
-0.238725
-0.642904
-0.590759
-0.568094
-0.538129
-0.513771
-0.489732
-0.467289
-0.445625
-0.424696
-0.404302
-0.384355
-0.364792
-0.34559
-0.326751
-0.308288
-0.290265
-0.272492
-0.256043
-0.235629
-0.233846
-0.644863
-0.592043
-0.569183
-0.538925
-0.514341
-0.490058
-0.467361
-0.445424
-0.424204
-0.4035
-0.383228
-0.363329
-0.343784
-0.3246
-0.305792
-0.287422
-0.269322
-0.25248
-0.232039
-0.228861
-0.646439
-0.592997
-0.569964
-0.539441
-0.514649
-0.490132
-0.46719
-0.444982
-0.423469
-0.402452
-0.381851
-0.361613
-0.341723
-0.322193
-0.303043
-0.284335
-0.265922
-0.248711
-0.228261
-0.223769
-0.647613
-0.593605
-0.570423
-0.539661
-0.514678
-0.489941
-0.466759
-0.444284
-0.422477
-0.401145
-0.380213
-0.359633
-0.339397
-0.319523
-0.300036
-0.281
-0.26229
-0.244736
-0.224295
-0.218568
-0.648366
-0.593851
-0.570544
-0.539571
-0.514414
-0.489469
-0.466055
-0.443315
-0.421216
-0.399568
-0.378302
-0.357379
-0.336798
-0.316583
-0.296766
-0.277414
-0.258423
-0.240552
-0.220136
-0.213254
-0.648681
-0.593717
-0.57031
-0.539156
-0.513842
-0.488703
-0.465063
-0.442063
-0.419672
-0.397707
-0.376107
-0.354841
-0.333918
-0.313367
-0.293229
-0.273574
-0.254321
-0.236159
-0.215783
-0.207824
-0.648538
-0.593189
-0.569706
-0.5384
-0.512948
-0.487627
-0.46377
-0.440512
-0.417831
-0.395549
-0.373616
-0.35201
-0.330747
-0.309868
-0.289421
-0.269478
-0.249981
-0.231554
-0.211233
-0.202272
-0.647919
-0.592249
-0.568716
-0.537287
-0.511716
-0.486227
-0.46216
-0.43865
-0.415681
-0.393084
-0.370819
-0.348876
-0.32728
-0.306081
-0.285336
-0.265122
-0.2454
-0.226736
-0.206484
-0.196595
-0.646807
-0.590881
-0.567324
-0.535803
-0.51013
-0.484487
-0.460219
-0.436462
-0.413208
-0.390299
-0.367706
-0.345429
-0.323508
-0.302
-0.280971
-0.260504
-0.240578
-0.221704
-0.201534
-0.190789
-0.645183
-0.589068
-0.565514
-0.533933
-0.508177
-0.482394
-0.457934
-0.433935
-0.4104
-0.387182
-0.364265
-0.341663
-0.319425
-0.29762
-0.276323
-0.255622
-0.235513
-0.216455
-0.196381
-0.184849
-0.643028
-0.586796
-0.56327
-0.53166
-0.505841
-0.479933
-0.455289
-0.431055
-0.407244
-0.383722
-0.360488
-0.337568
-0.315024
-0.292936
-0.271388
-0.250473
-0.230204
-0.210989
-0.191024
-0.17877
-0.640326
-0.584047
-0.560576
-0.528971
-0.503108
-0.477088
-0.452272
-0.42781
-0.403729
-0.379909
-0.356365
-0.333137
-0.3103
-0.287944
-0.266164
-0.245056
-0.224649
-0.205304
-0.185462
-0.17255
-0.637058
-0.580806
-0.557418
-0.525849
-0.499962
-0.473848
-0.448869
-0.424187
-0.399843
-0.375733
-0.351888
-0.328363
-0.305247
-0.282641
-0.260648
-0.23937
-0.218847
-0.1994
-0.179695
-0.166185
-0.633207
-0.577058
-0.55378
-0.522281
-0.49639
-0.470196
-0.445065
-0.420173
-0.395574
-0.371184
-0.347049
-0.32324
-0.299861
-0.277023
-0.254838
-0.233413
-0.2128
-0.193276
-0.173721
-0.159672
-0.628755
-0.572787
-0.549647
-0.518252
-0.492377
-0.466121
-0.44085
-0.415757
-0.390913
-0.366252
-0.341839
-0.317762
-0.294137
-0.271088
-0.248734
-0.227185
-0.206505
-0.186933
-0.167543
-0.153009
-0.623683
-0.567978
-0.545005
-0.513749
-0.48791
-0.461608
-0.43621
-0.410927
-0.385849
-0.36093
-0.336253
-0.311924
-0.288073
-0.264834
-0.242333
-0.220687
-0.199964
-0.180369
-0.161159
-0.146192
-0.617973
-0.562617
-0.539838
-0.508756
-0.482976
-0.456645
-0.431133
-0.405672
-0.380373
-0.355209
-0.330285
-0.305722
-0.281665
-0.258258
-0.235637
-0.213917
-0.193177
-0.173587
-0.154571
-0.139222
-0.611608
-0.55669
-0.534134
-0.503263
-0.477562
-0.45122
-0.425609
-0.399984
-0.374476
-0.349082
-0.323928
-0.299151
-0.274911
-0.251361
-0.228644
-0.206878
-0.186146
-0.166587
-0.14778
-0.132097
-0.604584
-0.550199
-0.527893
-0.497266
-0.471664
-0.445329
-0.419632
-0.393855
-0.368153
-0.342547
-0.31718
-0.29221
-0.26781
-0.244143
-0.221356
-0.19957
-0.178872
-0.159371
-0.140789
-0.124815
-0.596889
-0.54314
-0.521109
-0.490758
-0.465275
-0.438963
-0.413195
-0.387281
-0.3614
-0.335597
-0.310038
-0.284898
-0.260362
-0.236603
-0.213774
-0.191995
-0.171358
-0.15194
-0.133599
-0.117378
-0.588351
-0.535379
-0.51367
-0.483648
-0.458318
-0.43206
-0.406245
-0.380219
-0.354183
-0.328209
-0.302484
-0.277201
-0.252559
-0.228739
-0.205896
-0.184154
-0.163603
-0.144296
-0.126213
-0.109787
-0.578618
-0.526627
-0.505341
-0.475741
-0.450634
-0.424489
-0.398679
-0.372586
-0.346437
-0.320332
-0.294481
-0.269094
-0.244382
-0.220537
-0.197716
-0.176043
-0.155609
-0.136441
-0.118633
-0.102041
-0.568675
-0.51764
-0.496734
-0.467535
-0.442627
-0.416579
-0.39076
-0.364592
-0.338329
-0.312097
-0.286128
-0.260652
-0.23589
-0.21204
-0.189265
-0.167684
-0.147389
-0.128383
-0.110866
-0.0941436
-0.558186
-0.508134
-0.487612
-0.458833
-0.434134
-0.408193
-0.382377
-0.356147
-0.329786
-0.303447
-0.277385
-0.251844
-0.227059
-0.203234
-0.180532
-0.159071
-0.138942
-0.120122
-0.102912
-0.0860953
-0.546984
-0.497978
-0.47787
-0.449546
-0.425082
-0.399272
-0.373481
-0.347214
-0.32078
-0.294361
-0.268235
-0.242661
-0.217885
-0.194115
-0.171517
-0.150206
-0.130269
-0.111661
-0.0947754
-0.0778981
-0.535062
-0.487173
-0.467507
-0.439674
-0.41547
-0.389815
-0.364073
-0.337793
-0.311312
-0.284842
-0.258681
-0.233105
-0.20837
-0.184689
-0.162225
-0.141094
-0.121375
-0.103005
-0.0864601
-0.0695546
-0.522427
-0.475728
-0.45653
-0.429221
-0.405299
-0.379824
-0.354153
-0.327884
-0.301383
-0.274891
-0.248726
-0.223181
-0.19852
-0.174959
-0.152662
-0.131738
-0.112265
-0.0941561
-0.0779704
-0.0610679
-0.509074
-0.463641
-0.444934
-0.418182
-0.394567
-0.369295
-0.343719
-0.317488
-0.290995
-0.264511
-0.238375
-0.212894
-0.18834
-0.164931
-0.142832
-0.122145
-0.102943
-0.0851206
-0.0693112
-0.0524413
-0.494996
-0.450905
-0.432715
-0.406553
-0.383269
-0.358226
-0.33277
-0.306603
-0.280149
-0.253704
-0.22763
-0.202247
-0.177833
-0.154611
-0.13274
-0.11232
-0.0934153
-0.0759029
-0.0604874
-0.0436783
-0.480191
-0.437521
-0.419871
-0.394333
-0.371404
-0.346615
-0.321306
-0.295232
-0.268846
-0.242474
-0.216496
-0.191245
-0.167008
-0.144005
-0.122394
-0.102268
-0.0836873
-0.0665082
-0.0515043
-0.0347831
-0.464658
-0.423486
-0.406401
-0.38152
-0.358971
-0.334462
-0.309327
-0.283376
-0.25709
-0.230824
-0.204978
-0.179896
-0.155869
-0.133119
-0.111799
-0.0919972
-0.073765
-0.0569418
-0.0423666
-0.02576
-0.448399
-0.408801
-0.392305
-0.368113
-0.34597
-0.321769
-0.296837
-0.271038
-0.244886
-0.218762
-0.193083
-0.168205
-0.144424
-0.121961
-0.100963
-0.0815132
-0.0636548
-0.0472096
-0.0330808
-0.0166099
-0.431416
-0.393468
-0.377584
-0.354116
-0.332403
-0.308538
-0.283837
-0.258224
-0.232239
-0.206292
-0.180817
-0.156181
-0.132681
-0.110538
-0.0898934
-0.0708232
-0.0533633
-0.0373192
-0.023664
-0.00732542
-0.413713
-0.377491
-0.362241
-0.339529
-0.318273
-0.294772
-0.270333
-0.244938
-0.219155
-0.193423
-0.16819
-0.143832
-0.120649
-0.098858
-0.0785976
-0.0599348
-0.0428969
-0.0272764
-0.0141351
0.00208409
-0.395298
-0.360873
-0.346281
-0.324358
-0.303585
-0.280477
-0.25633
-0.231187
-0.205643
-0.180162
-0.155209
-0.131166
-0.108335
-0.0869307
-0.0670842
-0.0488556
-0.0322629
-0.0170818
-0.00440977
0.0115259
-0.376178
-0.343621
-0.329708
-0.308606
-0.288343
-0.265658
-0.241835
-0.216978
-0.19171
-0.166519
-0.141883
-0.118193
-0.0957502
-0.0747649
-0.055362
-0.037594
-0.0214693
-0.00676215
0.00544232
0.0210802
-0.356363
-0.325742
-0.31253
-0.292282
-0.272554
-0.250323
-0.226857
-0.202322
-0.177367
-0.152504
-0.128225
-0.104924
-0.0829042
-0.0623704
-0.0434401
-0.0261583
-0.0105236
0.00369251
0.0154
0.0307392
-0.335863
-0.307246
-0.294755
-0.275391
-0.256227
-0.234481
-0.211404
-0.187227
-0.162623
-0.138127
-0.114243
-0.0913699
-0.0698078
-0.0497572
-0.031328
-0.0145576
0.000565733
0.0142739
0.0254654
0.0404887
-0.314693
-0.288142
-0.276393
-0.257945
-0.239371
-0.21814
-0.195488
-0.171705
-0.147491
-0.123402
-0.099951
-0.0775419
-0.056472
-0.036936
-0.0190357
-0.00280092
0.0117902
0.0249728
0.0356344
0.0503205
-0.292866
-0.268443
-0.257455
-0.239954
-0.221997
-0.201313
-0.179119
-0.155768
-0.131982
-0.108339
-0.0853606
-0.0634523
-0.0429087
-0.0239178
-0.00657356
0.00910218
0.0231409
0.0357808
0.0459
0.0602276
-0.270398
-0.248161
-0.237953
-0.221428
-0.204117
-0.184012
-0.16231
-0.139429
-0.116111
-0.0929526
-0.0704851
-0.049114
-0.0291299
-0.0107141
0.00604785
0.0211419
0.0346091
0.0466898
0.0562551
0.0702025
-0.247307
-0.227311
-0.217902
-0.202383
-0.185744
-0.166249
-0.145076
-0.122702
-0.0998907
-0.0772572
-0.0553384
-0.0345403
-0.0151485
0.00266312
0.0188174
0.033308
0.0461854
0.0576911
0.0666923
0.0802377
-0.223612
-0.20591
-0.197317
-0.182832
-0.166892
-0.148041
-0.127431
-0.105602
-0.0833374
-0.0612674
-0.0399352
-0.0197451
-0.000977504
0.0162017
0.0317239
0.0455901
0.0578602
0.068776
0.077204
0.0903252
-0.199333
-0.183974
-0.176214
-0.162792
-0.147579
-0.129403
-0.109393
-0.0881445
-0.0664663
-0.044999
-0.0242904
-0.00474288
0.0133695
0.0298888
0.0447553
0.0579773
0.0696236
0.0799353
0.0877822
0.100457
-0.174493
-0.161524
-0.154612
-0.14228
-0.12782
-0.110353
-0.090981
-0.0703439
-0.0492947
-0.0284684
-0.00841979
0.0104515
0.0278784
0.0437116
0.0578999
0.0704587
0.0814656
0.0911597
0.0984189
0.110624
-0.149116
-0.138578
-0.13253
-0.121315
-0.107635
-0.0909074
-0.0721997
-0.0522311
-0.0318402
-0.0116924
0.0076604
0.0258227
0.042535
0.0576567
0.0711451
0.0830227
0.0933757
0.102439
0.109106
0.120818
-0.123225
-0.11516
-0.10999
-0.0999162
-0.0870428
-0.0710868
-0.053082
-0.0338128
-0.0141208
0.00531118
0.0239334
0.041355
0.0573245
0.0717102
0.0844782
0.0956578
0.105343
0.113764
0.119834
0.131029
-0.096848
-0.0912902
-0.0870125
-0.0781052
-0.0660641
-0.0509119
-0.0336456
-0.0151103
0.00384443
0.0225243
0.040382
0.0570321
0.0722317
0.0858583
0.0978865
0.108352
0.117357
0.125125
0.130594
0.141246
-0.0700119
-0.0669941
-0.0636215
-0.0559043
-0.0447212
-0.0304038
-0.0139104
0.0038549
0.0220356
0.0399281
0.0569884
0.0728374
0.0872413
0.100087
0.111357
0.121093
0.129405
0.136509
0.141378
0.151458
-0.0427417
-0.0422999
-0.0398415
-0.0333372
-0.023037
-0.00958486
0.00610191
0.0230614
0.0404324
0.0575034
0.0737347
0.0887542
0.102338
0.114381
0.124875
0.133868
0.141477
0.147906
0.152176
0.161651
-0.0150617
-0.0172393
-0.0156983
-0.0104284
-0.00103561
0.0115214
0.0263684
0.0424875
0.059014
0.0752304
0.0906022
0.104765
0.117505
0.128726
0.138428
0.146665
0.153561
0.159305
0.162979
0.171812
0.0129673
0.00818621
0.00878138
0.0127963
0.0212579
0.0328905
0.0468655
0.0621105
0.0777591
0.0930891
0.107572
0.120853
0.132726
0.143107
0.152002
0.159471
0.165643
0.170694
0.173778
0.181922
0.0413404
0.0339257
0.0335695
0.0363102
0.0438176
0.0544974
0.067569
0.0819073
0.0966457
0.111059
0.124626
0.137
0.147987
0.15751
0.165584
0.172273
0.177713
0.18206
0.184564
0.191959
0.070024
0.0599512
0.0586375
0.0600854
0.0666163
0.076316
0.088454
0.101854
0.115652
0.129119
0.141744
0.153188
0.163269
0.171918
0.179158
0.185058
0.189758
0.19339
0.195328
0.201898
0.098983
0.0862343
0.0839555
0.084093
0.0896261
0.0983194
0.109495
0.121927
0.134754
0.147248
0.158906
0.1694
0.178556
0.186318
0.192711
0.197813
0.201765
0.204673
0.206063
0.211702
0.128186
0.112745
0.109493
0.108304
0.112819
0.12048
0.130665
0.142101
0.153929
0.165425
0.176093
0.185617
0.193833
0.200693
0.20623
0.210525
0.213721
0.215896
0.216763
0.221323
0.157604
0.139451
0.135221
0.132688
0.136165
0.142771
0.151939
0.162351
0.173155
0.183627
0.193285
0.201821
0.209082
0.215029
0.219699
0.223181
0.225615
0.227045
0.227422
0.230699
0.187202
0.166317
0.161103
0.157213
0.159635
0.165162
0.173289
0.182651
0.192407
0.201834
0.210462
0.217993
0.224287
0.22931
0.233107
0.23577
0.237433
0.238113
0.238053
0.239753
0.216922
0.193285
0.187089
0.181833
0.183186
0.187618
0.194682
0.202973
0.211659
0.220022
0.227603
0.234116
0.239431
0.243522
0.246438
0.248278
0.249164
0.249098
0.2487
0.248376
0.246729
0.220307
0.213135
0.206509
0.206785
0.210105
0.216089
0.223289
0.230886
0.238168
0.244688
0.250171
0.254497
0.25765
0.259681
0.260695
0.260794
0.26
0.259347
0.256333
0.276883
0.247561
0.239362
0.231322
0.230479
0.232651
0.237519
0.243599
0.250081
0.25626
0.261701
0.266142
0.26947
0.271678
0.272821
0.273006
0.272314
0.270804
0.269691
0.262814
0.307967
0.275478
0.266075
0.256485
0.254413
0.255347
0.259028
0.26393
0.269253
0.274295
0.278633
0.282014
0.284334
0.28559
0.285842
0.285198
0.283722
0.281505
0.2794
0.26626
0.338065
0.302706
0.292275
0.281264
0.278054
0.277811
0.280347
0.284097
0.288276
0.292192
0.295432
0.297756
0.29907
0.299377
0.298741
0.297275
0.29503
0.292144
0.289708
0.2751
0.367775
0.329691
0.318286
0.305891
0.301559
0.30015
0.30154
0.304136
0.307168
0.309953
0.312092
0.313357
0.313664
0.313022
0.311501
0.309218
0.306223
0.30268
0.299963
0.285435
0.397351
0.356602
0.344219
0.330436
0.324974
0.322384
0.322616
0.324045
0.325919
0.327565
0.328598
0.328801
0.328099
0.32651
0.324108
0.321013
0.31728
0.31308
0.309888
0.295555
0.426752
0.383384
0.370024
0.354857
0.348258
0.344479
0.343543
0.343796
0.344504
0.345005
0.344928
0.344068
0.34236
0.339827
0.336547
0.332645
0.32818
0.32333
0.31956
0.305293
0.455917
0.409975
0.395648
0.379105
0.371367
0.366396
0.364286
0.363358
0.362897
0.36225
0.361064
0.359143
0.356431
0.352957
0.348805
0.344101
0.33891
0.333411
0.329026
0.314774
0.484808
0.436336
0.421051
0.403143
0.394269
0.388105
0.384818
0.382706
0.381073
0.379279
0.376985
0.374006
0.370295
0.365888
0.360869
0.355368
0.349455
0.34331
0.338285
0.324031
0.513389
0.46243
0.446197
0.426938
0.416931
0.409573
0.40511
0.401812
0.399009
0.396071
0.392672
0.388641
0.383937
0.378603
0.372725
0.366435
0.359804
0.353012
0.347333
0.333053
0.541624
0.488218
0.471051
0.450453
0.439318
0.430771
0.425132
0.420653
0.416682
0.412604
0.408106
0.40303
0.397342
0.39109
0.384361
0.377289
0.369945
0.362509
0.356166
0.341835
0.569472
0.513664
0.495575
0.473654
0.461399
0.451668
0.444858
0.439201
0.434068
0.428857
0.42327
0.417157
0.410495
0.403334
0.395765
0.387919
0.37987
0.371791
0.364783
0.350379
0.596895
0.538729
0.519732
0.496506
0.483139
0.472233
0.464258
0.457431
0.451145
0.444809
0.438143
0.431006
0.423381
0.415323
0.406925
0.398315
0.389567
0.380852
0.373181
0.358687
0.623853
0.563376
0.543486
0.518975
0.504508
0.492437
0.483307
0.475318
0.467889
0.460442
0.452708
0.44456
0.435986
0.427044
0.417828
0.408465
0.399028
0.389683
0.381356
0.366756
0.650305
0.587568
0.566801
0.541026
0.525472
0.512249
0.501975
0.492838
0.484279
0.475734
0.466948
0.457803
0.448295
0.438484
0.428464
0.418361
0.408245
0.398278
0.389305
0.374588
0.676214
0.611268
0.589642
0.562625
0.546001
0.53164
0.520237
0.509967
0.500294
0.490666
0.480845
0.47072
0.460294
0.44963
0.438823
0.427992
0.417211
0.40663
0.397023
0.382179
0.701539
0.634439
0.611973
0.583741
0.566062
0.550582
0.538067
0.526681
0.515911
0.50522
0.494382
0.483297
0.471971
0.460471
0.448892
0.43735
0.425916
0.414735
0.404508
0.389528
0.726242
0.657046
0.633761
0.604339
0.585627
0.569047
0.555439
0.542956
0.53111
0.519376
0.507543
0.495517
0.483312
0.470996
0.458663
0.446426
0.434353
0.422584
0.411753
0.396632
0.750285
0.679055
0.654971
0.624389
0.604665
0.587008
0.572328
0.558771
0.545871
0.533117
0.520311
0.507367
0.494305
0.481193
0.468125
0.455211
0.442516
0.430174
0.418756
0.403488
0.773632
0.70043
0.67557
0.643858
0.623147
0.604437
0.58871
0.574103
0.560174
0.546426
0.532671
0.518834
0.504937
0.491051
0.477269
0.463696
0.450397
0.437497
0.425511
0.410094
0.796246
0.721139
0.695526
0.662718
0.641044
0.621309
0.604561
0.588931
0.574
0.559284
0.544608
0.529903
0.515197
0.50056
0.486085
0.471874
0.45799
0.444549
0.432013
0.416445
0.818092
0.741148
0.714808
0.680938
0.65833
0.637598
0.619858
0.603234
0.587331
0.571677
0.556107
0.540562
0.525072
0.50971
0.494565
0.479738
0.465287
0.451323
0.438259
0.422539
0.839136
0.760427
0.733385
0.69849
0.674978
0.65328
0.634579
0.616993
0.600149
0.583587
0.567155
0.550798
0.534552
0.51849
0.5027
0.487279
0.472282
0.457815
0.444243
0.428371
0.859346
0.778944
0.751228
0.715346
0.690961
0.668332
0.648702
0.630188
0.612437
0.595
0.577737
0.5606
0.543627
0.526892
0.510482
0.49449
0.47897
0.464018
0.449961
0.433939
0.878689
0.79667
0.768307
0.73148
0.706256
0.68273
0.662208
0.642801
0.624178
0.605901
0.587841
0.569956
0.552286
0.534907
0.517904
0.501364
0.485343
0.469929
0.455409
0.439239
0.897136
0.813576
0.784597
0.746865
0.720838
0.696454
0.675076
0.654814
0.635356
0.616276
0.597454
0.578854
0.56052
0.542526
0.524956
0.507896
0.491397
0.475541
0.460582
0.444267
0.914656
0.829636
0.80007
0.761478
0.734685
0.709481
0.687288
0.666211
0.645957
0.626112
0.606565
0.587285
0.568318
0.54974
0.531633
0.514078
0.497125
0.48085
0.465475
0.44902
0.931222
0.844823
0.814703
0.775294
0.747775
0.721794
0.698825
0.676974
0.655966
0.635396
0.615162
0.595238
0.575673
0.556542
0.537926
0.519904
0.502523
0.485852
0.470084
0.453495
0.946809
0.859113
0.82847
0.788293
0.760088
0.733372
0.709672
0.68709
0.66537
0.644116
0.623234
0.602704
0.582576
0.562925
0.543831
0.525368
0.507585
0.490542
0.474406
0.457687
0.961391
0.872483
0.841351
0.800454
0.771604
0.744199
0.719812
0.696545
0.674157
0.652262
0.630773
0.609675
0.589019
0.568882
0.54934
0.530466
0.512306
0.494915
0.478437
0.461594
0.974945
0.884911
0.853324
0.811756
0.782305
0.754257
0.72923
0.705323
0.682313
0.659821
0.637768
0.616141
0.594996
0.574406
0.554448
0.535192
0.516682
0.498968
0.482172
0.465213
0.987449
0.896377
0.864369
0.822181
0.792175
0.763532
0.737912
0.713415
0.689829
0.666785
0.64421
0.622096
0.600498
0.579491
0.559149
0.539541
0.520708
0.502696
0.485609
0.468542
0.998883
0.906862
0.874469
0.831713
0.801198
0.77201
0.745846
0.720807
0.696695
0.673145
0.650093
0.627532
0.60552
0.584131
0.563439
0.543509
0.524381
0.506098
0.488743
0.471576
1.00923
0.916349
0.883607
0.840337
0.809359
0.779677
0.75302
0.72749
0.7029
0.678893
0.655408
0.632443
0.610056