/*--------------------------------*- C++ -*----------------------------------*\
  =========                 |
  \\      /  F ield         | OpenFOAM: The Open Source CFD Toolbox
   \\    /   O peration     | Website:  https://openfoam.org
    \\  /    A nd           | Version:  7
     \\/     M anipulation  |
\*---------------------------------------------------------------------------*/
FoamFile
{
    version     2.0;
    format      ascii;
    class       surfaceScalarField;
    location    "25";
    object      phi;
}
// * * * * * * * * * * * * * * * * * * * * * * * * * * * * * * * * * * * * * //

dimensions      [0 3 -1 0 0 0 0];

internalField   nonuniform List<scalar> 
83430
(
-8.22259e-07
8.22259e-07
2.43852e-14
-2.21982e-06
1.39756e-06
5.72175e-14
-3.48019e-06
1.26036e-06
1.25355e-13
-3.99532e-06
5.15136e-07
2.60844e-13
-3.27297e-06
-7.22355e-07
4.10248e-13
-8.91039e-07
-2.38193e-06
6.01159e-13
3.51554e-06
-4.40658e-06
8.13575e-13
1.02711e-05
-6.75554e-06
1.04847e-12
1.96677e-05
-9.39666e-06
1.30369e-12
3.19711e-05
-1.23033e-05
1.5824e-12
4.74213e-05
-1.54502e-05
1.82589e-12
6.62306e-05
-1.88093e-05
2.21657e-12
8.85761e-05
-2.23455e-05
2.53788e-12
0.000114588
-2.60117e-05
2.91285e-12
0.000144332
-2.97438e-05
3.30272e-12
0.000177787
-3.34557e-05
3.74728e-12
0.000214822
-3.7035e-05
4.24171e-12
0.00025517
-4.0348e-05
4.77103e-12
0.000298363
-4.31931e-05
5.38787e-12
-4.56379e-05
6.14299e-12
0.000344001
-8.14331e-07
1.63659e-06
-2.19084e-06
2.77407e-06
-3.41782e-06
2.48735e-06
-3.88774e-06
9.85056e-07
-3.10849e-06
-1.50161e-06
-6.57918e-07
-4.8325e-06
3.82931e-06
-8.89381e-06
1.06779e-05
-1.36042e-05
2.01807e-05
-1.88995e-05
3.2604e-05
-2.47266e-05
4.8189e-05
-3.10352e-05
6.71491e-05
-3.77694e-05
8.96631e-05
-4.48594e-05
0.000115863
-5.22113e-05
0.000145816
-5.96971e-05
0.000179505
-6.71449e-05
0.0002168
-7.43296e-05
0.000257436
-8.0984e-05
0.000300945
-8.67028e-05
-9.16206e-05
0.000346928
-7.98693e-07
2.43528e-06
-2.13317e-06
4.10855e-06
-3.29339e-06
3.64757e-06
-3.67282e-06
1.36448e-06
-2.77967e-06
-2.39476e-06
-1.9168e-07
-7.42049e-06
4.45694e-06
-1.35424e-05
1.14918e-05
-2.0639e-05
2.12069e-05
-2.86145e-05
3.38701e-05
-3.73898e-05
4.97245e-05
-4.68896e-05
6.89861e-05
-5.70311e-05
9.18366e-05
-6.77099e-05
0.000118412
-7.87863e-05
0.000148783
-9.00689e-05
0.000182939
-0.0001013
0.000220752
-0.000112143
0.000261962
-0.000122194
0.000306104
-0.000130844
-0.000138292
0.000352775
-7.75376e-07
3.21066e-06
-2.04696e-06
5.38013e-06
-3.10718e-06
4.7078e-06
-3.35102e-06
1.60831e-06
-2.28722e-06
-3.45856e-06
5.06611e-07
-1.02143e-05
5.39704e-06
-1.84329e-05
1.27109e-05
-2.79529e-05
2.2744e-05
-3.86476e-05
3.57664e-05
-5.04122e-05
5.20242e-05
-6.31475e-05
7.17371e-05
-7.6744e-05
9.50913e-05
-9.10641e-05
0.000122228
-0.000105923
0.000153225
-0.000121066
0.000188078
-0.000136153
0.000226666
-0.000150731
0.000268736
-0.000164264
0.000313822
-0.000175931
-0.000185991
0.000361522
-7.44434e-07
3.95509e-06
-1.93239e-06
6.56809e-06
-2.85961e-06
5.63501e-06
-2.92306e-06
1.67177e-06
-1.63223e-06
-4.74939e-06
1.43546e-06
-1.3282e-05
6.64756e-06
-2.3645e-05
1.43326e-05
-3.56379e-05
2.47885e-05
-4.91035e-05
3.82885e-05
-6.39122e-05
5.50827e-05
-7.99416e-05
7.53954e-05
-9.70566e-05
9.94188e-05
-0.000115088
0.000127301
-0.000133805
0.00015913
-0.000152895
0.000194908
-0.000171931
0.000234525
-0.000190349
0.000277735
-0.000207474
0.000324075
-0.000222271
-0.000235056
0.00037314
-7.05938e-07
4.66103e-06
-1.78974e-06
7.65189e-06
-2.55122e-06
6.3965e-06
-2.3899e-06
1.51045e-06
-8.1614e-07
-6.32315e-06
2.59284e-06
-1.6691e-05
8.20577e-06
-2.92579e-05
1.63532e-05
-4.37853e-05
2.73359e-05
-6.00863e-05
4.14309e-05
-7.80072e-05
5.88929e-05
-9.74036e-05
7.99521e-05
-0.000118116
0.000104808
-0.000139944
0.000133618
-0.000162615
0.00016648
-0.000185757
0.000203408
-0.000208859
0.000244305
-0.000231245
0.000288931
-0.0002521
0.000336829
-0.000270169
-0.000285816
0.000387589
-6.59976e-07
5.32101e-06
-1.61932e-06
8.61123e-06
-2.18272e-06
6.9599e-06
-1.7527e-06
1.08043e-06
1.59288e-07
-8.23513e-06
3.97624e-06
-2.05079e-05
1.00683e-05
-3.53499e-05
1.87683e-05
-5.24854e-05
3.03806e-05
-7.16985e-05
4.51864e-05
-9.2813e-05
6.34458e-05
-0.000115663
8.53963e-05
-0.000140066
0.000111246
-0.000165793
0.000141163
-0.000192532
0.000175256
-0.000219851
0.000213555
-0.000247158
0.000255975
-0.000273664
0.000302288
-0.000298414
0.000352042
-0.000319922
-0.000338595
0.000404821
-6.06655e-07
5.92766e-06
-1.42151e-06
9.42608e-06
-1.7549e-06
7.29329e-06
-1.01284e-06
3.38375e-07
1.29193e-06
-1.05399e-05
5.58268e-06
-2.47987e-05
1.22311e-05
-4.19984e-05
2.15728e-05
-6.18271e-05
3.39158e-05
-8.40415e-05
4.95464e-05
-0.000108444
6.8731e-05
-0.000134848
9.17149e-05
-0.00016305
0.000118716
-0.000192795
0.000149914
-0.00022373
0.000185434
-0.00025537
0.000225318
-0.000287043
0.0002695
-0.000317845
0.000317765
-0.000346679
0.000369664
-0.000371821
-0.000393708
0.000424777
-5.46096e-07
6.47376e-06
-1.19676e-06
1.00768e-05
-1.26872e-06
7.36524e-06
-1.71918e-07
-7.58423e-07
2.57935e-06
-1.32912e-05
7.40869e-06
-2.9628e-05
1.46895e-05
-4.92792e-05
2.47604e-05
-7.1898e-05
3.79337e-05
-9.72148e-05
5.45011e-05
-0.000125011
7.47362e-05
-0.000155083
9.88927e-05
-0.000187207
0.0001272
-0.000221101
0.00015985
-0.000256381
0.000196984
-0.000292504
0.000238664
-0.000328723
0.000284839
-0.00036402
0.000335311
-0.000397151
0.000389637
-0.000426147
-0.000451461
0.00044739
-4.78438e-07
6.9522e-06
-9.45574e-07
1.05439e-05
-7.25225e-07
7.14489e-06
7.68177e-07
-2.25182e-06
4.01878e-06
-1.65418e-05
9.45036e-06
-3.50596e-05
1.74382e-05
-5.72671e-05
2.83243e-05
-8.27841e-05
4.24255e-05
-0.000111316
6.00395e-05
-0.000142625
8.14474e-05
-0.000176491
0.000106913
-0.000212672
0.000136676
-0.000250864
0.000170944
-0.000290649
0.000209876
-0.000331436
0.000253553
-0.0003724
0.000301945
-0.000412412
0.000354872
-0.000450078
0.000411896
-0.000483171
-0.000512147
0.000472582
-4.03836e-07
7.35603e-06
-6.68491e-07
1.08085e-05
-1.25601e-07
6.602e-06
1.80552e-06
-4.18294e-06
5.60717e-06
-2.03434e-05
1.17034e-05
-4.11558e-05
2.04714e-05
-6.60351e-05
3.22568e-05
-9.45695e-05
4.73814e-05
-0.000126441
6.61492e-05
-0.000161393
8.88493e-05
-0.000199191
0.000115755
-0.000239578
0.00014712
-0.000282229
0.000183168
-0.000326697
0.000224074
-0.000372342
0.000269943
-0.000418268
0.000320766
-0.000463235
0.000376384
-0.000505696
0.000436367
-0.000543154
-0.000576048
0.000500268
-3.22456e-07
7.67849e-06
-3.66116e-07
1.08522e-05
5.28874e-07
5.70701e-06
2.93787e-06
-6.59194e-06
7.34114e-06
-2.47467e-05
1.41629e-05
-4.79775e-05
2.37826e-05
-7.56548e-05
3.65494e-05
-0.000107336
5.27904e-05
-0.000142682
7.28163e-05
-0.000181419
9.69248e-05
-0.000223299
0.0001254
-0.000268053
0.000158508
-0.000315337
0.000196488
-0.000364678
0.000239538
-0.000415392
0.000287785
-0.000466515
0.000341244
-0.000516694
0.000399778
-0.00056423
0.000462967
-0.000606344
-0.000643434
0.000530352
-2.3448e-07
7.91297e-06
-3.89034e-08
1.06566e-05
1.23681e-06
4.4313e-06
4.16284e-06
-9.51797e-06
9.21704e-06
-2.98009e-05
1.68237e-05
-5.55842e-05
2.73647e-05
-8.61957e-05
4.11929e-05
-0.000121165
5.86408e-05
-0.000160129
8.00262e-05
-0.000202804
0.000105655
-0.000248928
0.000135823
-0.000298221
0.00017081
-0.000350324
0.000210872
-0.00040474
0.000256227
-0.000460748
0.000307028
-0.000517315
0.000363316
-0.000572983
0.00042498
-0.000625893
0.000491609
-0.000672973
-0.000714556
0.000562731
-1.40133e-07
8.0531e-06
3.11799e-07
1.02047e-05
1.99669e-06
2.74641e-06
5.47786e-06
-1.29991e-05
1.12309e-05
-3.5554e-05
1.96804e-05
-6.40337e-05
3.12101e-05
-9.77255e-05
4.61773e-05
-0.000136132
6.49199e-05
-0.000178872
8.77628e-05
-0.000225647
0.000115021
-0.000276187
0.000147001
-0.0003302
0.000183996
-0.000387319
0.000226281
-0.000447024
0.000274095
-0.000508562
0.000327616
-0.000570837
0.000386916
-0.000632283
0.000451908
-0.000690885
0.000522196
-0.000743261
-0.000789651
0.000597291
-3.95298e-08
8.09263e-06
6.85955e-07
9.47921e-06
2.80695e-06
6.25412e-07
6.8802e-06
-1.70724e-05
1.33786e-05
-4.20524e-05
2.27268e-05
-7.33818e-05
3.53108e-05
-0.00011031
5.1492e-05
-0.000152313
7.1614e-05
-0.000198994
9.60089e-05
-0.000250042
0.000125001
-0.000305179
0.000158907
-0.000364106
0.000198034
-0.000426446
0.000242675
-0.000491666
0.000293092
-0.000558978
0.00034949
-0.000627234
0.00041197
-0.000694763
0.000480475
-0.00075939
0.000554624
-0.00081741
-0.00086894
0.000633913
6.72249e-08
8.0254e-06
1.08254e-06
8.4639e-06
3.66592e-06
-1.95797e-06
8.36696e-06
-2.17734e-05
1.56557e-05
-4.93412e-05
2.59566e-05
-8.36827e-05
3.96582e-05
-0.000124011
5.71257e-05
-0.00016978
7.87087e-05
-0.000220577
0.000104746
-0.00027608
0.000135572
-0.000336004
0.000171512
-0.000400047
0.00021289
-0.000467824
0.000260013
-0.000538789
0.000313167
-0.000612133
0.000372585
-0.000686652
0.000438401
-0.000760579
0.000510588
-0.000831577
0.000588784
-0.000895606
-0.000952623
0.000672467
1.79483e-07
7.84592e-06
1.50072e-06
7.14266e-06
4.57184e-06
-5.0291e-06
9.93511e-06
-2.71367e-05
1.80575e-05
-5.74636e-05
2.93632e-05
-9.49884e-05
4.42431e-05
-0.000138891
6.30665e-05
-0.000188604
8.61885e-05
-0.000243699
0.000113956
-0.000303847
0.000146709
-0.000368757
0.000184788
-0.000438125
0.000228526
-0.000511562
0.00027825
-0.000588514
0.000334266
-0.000668149
0.000396837
-0.000749222
0.000466128
-0.00082987
0.000542149
-0.000907598
0.000624559
-0.000978016
-0.00104088
0.000712817
2.97348e-07
7.54857e-06
1.93966e-06
5.50034e-06
5.52288e-06
-8.61232e-06
1.15815e-05
-3.31953e-05
2.05791e-05
-6.64612e-05
3.29396e-05
-0.000107349
4.90559e-05
-0.000155007
6.93017e-05
-0.00020885
9.40374e-05
-0.000268435
0.000123617
-0.000333426
0.000158389
-0.00040353
0.000198703
-0.000478439
0.000244905
-0.000557764
0.000297339
-0.000640947
0.000356332
-0.000727142
0.000422173
-0.000815064
0.000495067
-0.000902764
0.000575056
-0.000987587
0.000661827
-0.00106479
-0.00113387
0.00075482
4.20525e-07
7.12805e-06
2.39849e-06
3.52238e-06
6.51714e-06
-1.2731e-05
1.33027e-05
-3.99809e-05
2.32153e-05
-7.63737e-05
3.66783e-05
-0.000120812
5.40867e-05
-0.000172416
7.5818e-05
-0.000230581
0.000102238
-0.000294855
0.000133708
-0.000364895
0.000170583
-0.000440406
0.000213224
-0.000521079
0.000261987
-0.000606527
0.00031723
-0.000696191
0.000379303
-0.000789215
0.000448523
-0.000884283
0.000525127
-0.000979368
0.000609201
-0.00107166
0.000700459
-0.00115605
-0.00123174
0.000798326
5.48764e-07
6.57929e-06
2.87631e-06
1.19483e-06
7.55266e-06
-1.74073e-05
1.50955e-05
-4.75237e-05
2.59609e-05
-8.72392e-05
4.05718e-05
-0.000135423
5.9325e-05
-0.000191169
8.26018e-05
-0.000253858
0.000110773
-0.000323027
0.000144206
-0.000398328
0.000183265
-0.000479465
0.000228317
-0.00056613
0.000279729
-0.00065794
0.000337874
-0.000754336
0.000403119
-0.000854459
0.000475808
-0.000956973
0.000556217
-0.00105978
0.000644471
-0.00115991
0.000740321
-0.0012519
-0.0013346
0.000843178
6.81815e-07
5.89747e-06
3.37219e-06
-1.49554e-06
8.62741e-06
-2.26625e-05
1.69561e-05
-5.58524e-05
2.88104e-05
-9.90934e-05
4.4612e-05
-0.000151224
6.47598e-05
-0.000211317
8.96385e-05
-0.000278736
0.000119624
-0.000353012
0.000155089
-0.000433793
0.000196405
-0.000520781
0.000243946
-0.000613671
0.000298089
-0.000712083
0.000359217
-0.000815465
0.000427715
-0.000922957
0.000503953
-0.00103321
0.000588241
-0.00114406
0.00068075
-0.00125242
0.000781276
-0.00135242
-0.00144254
0.000889214
8.19428e-07
5.07804e-06
3.88518e-06
-4.56129e-06
9.73932e-06
-2.85167e-05
1.8881e-05
-6.49941e-05
3.1758e-05
-0.00011197
4.87909e-05
-0.000168257
7.03799e-05
-0.000232906
9.69131e-05
-0.000305269
0.000128771
-0.000384871
0.000166332
-0.000471354
0.000209974
-0.000564422
0.000260075
-0.000663772
0.000317021
-0.000769029
0.000381205
-0.000879649
0.000453025
-0.000994778
0.000532875
-0.00111306
0.0006211
-0.00123229
0.00071792
-0.00134924
0.000823179
-0.00145768
-0.00155562
0.000936265
9.61347e-07
4.1167e-06
4.41433e-06
-8.01428e-06
1.08863e-05
-3.49886e-05
2.08665e-05
-7.49743e-05
3.47979e-05
-0.000125902
5.30998e-05
-0.000186559
7.61736e-05
-0.00025598
0.00010441
-0.000333506
0.000138195
-0.000418656
0.00017791
-0.00051107
0.000223938
-0.00061045
0.000276664
-0.000716498
0.000336478
-0.000828844
0.000403781
-0.000946951
0.000478981
-0.00106998
0.000562492
-0.00119657
0.000654695
-0.00132449
0.000755857
-0.0014504
0.000865884
-0.00156771
-0.0016739
0.000984162
1.10732e-06
3.00938e-06
4.95867e-06
-1.18656e-05
1.20661e-05
-4.20961e-05
2.29087e-05
-8.58169e-05
3.79241e-05
-0.000140917
5.753e-05
-0.000206165
8.21287e-05
-0.000280578
0.000112114
-0.000363491
0.000147874
-0.000454416
0.000189796
-0.000552992
0.000238266
-0.00065892
0.000293674
-0.000771905
0.000356412
-0.000891582
0.000426886
-0.00101743
0.000505513
-0.00114861
0.000592721
-0.00128378
0.000688923
-0.0014207
0.000794438
-0.00155592
0.000909242
-0.00168251
-0.00179738
0.00103273
1.25709e-06
1.75229e-06
5.5172e-06
-1.61257e-05
1.32766e-05
-4.98555e-05
2.50036e-05
-9.75439e-05
4.11305e-05
-0.000157044
6.20726e-05
-0.000227107
8.82328e-05
-0.000306738
0.000120007
-0.000395265
0.000157787
-0.000492196
0.000201963
-0.000597167
0.000252924
-0.000709881
0.000311063
-0.000830043
0.000376773
-0.000957293
0.000450462
-0.00109111
0.000532549
-0.00123069
0.000623474
-0.0013747
0.00072368
-0.0015209
0.000833535
-0.00166577
0.0009531
-0.00180208
-0.00192607
0.00108178
1.4104e-06
3.41888e-07
6.08894e-06
-2.08043e-05
1.45156e-05
-5.82821e-05
2.71473e-05
-0.000110176
4.44106e-05
-0.000174307
6.67183e-05
-0.000249415
9.44731e-05
-0.000334493
0.000128073
-0.000428865
0.000167912
-0.000532035
0.000214382
-0.000643638
0.000267877
-0.000763376
0.000328788
-0.000890954
0.000397509
-0.00102601
0.000474445
-0.00116805
0.000560015
-0.00131626
0.000654666
-0.00146935
0.000758862
-0.0016251
0.000873022
-0.00177993
0.000997306
-0.00192636
-0.0020599
0.00113114
1.567e-06
-1.22511e-06
6.67287e-06
-2.59101e-05
1.57807e-05
-6.73899e-05
2.93358e-05
-0.000123731
4.77581e-05
-0.00019273
7.14575e-05
-0.000273114
0.000100836
-0.000363872
0.000136293
-0.000464322
0.000178225
-0.000573966
0.000227025
-0.000692439
0.000283088
-0.000819439
0.000346804
-0.00095467
0.000418566
-0.00109778
0.000498772
-0.00124826
0.000587838
-0.00140533
0.000686207
-0.00156772
0.000794363
-0.00173325
0.00091277
-0.00189834
0.00104171
-0.0020553
-0.00219883
0.00118063
1.72665e-06
-2.95176e-06
7.26799e-06
-3.14515e-05
1.70697e-05
-7.71916e-05
3.15648e-05
-0.000138226
5.11664e-05
-0.000212331
7.62807e-05
-0.000298229
0.000107309
-0.0003949
0.00014465
-0.000501663
0.000188702
-0.000618018
0.000239861
-0.000743597
0.000298518
-0.000878096
0.000365065
-0.00102122
0.000439888
-0.0011726
0.000523378
-0.00133175
0.00061594
-0.00149789
0.000718009
-0.00166979
0.000830079
-0.00184532
0.000952654
-0.00202091
0.00108615
-0.00218879
-0.00234275
0.00123007
1.88908e-06
-4.84084e-06
7.87329e-06
-3.74357e-05
1.83802e-05
-8.76985e-05
3.38302e-05
-0.000153676
5.46287e-05
-0.00023313
8.11779e-05
-0.000324778
0.000113877
-0.0004276
0.000153125
-0.000540912
0.00019932
-0.000664213
0.000252858
-0.000797134
0.00031413
-0.000939368
0.000383523
-0.00109061
0.000461418
-0.00125049
0.000548195
-0.00141852
0.000644243
-0.00159394
0.000749982
-0.00177553
0.000865906
-0.00196125
0.000992549
-0.00214756
0.00113048
-0.00232672
-0.00249153
0.00127926
2.05407e-06
-6.89492e-06
8.48776e-06
-4.38694e-05
1.971e-05
-9.89208e-05
3.61278e-05
-0.000170094
5.81384e-05
-0.00025514
8.6139e-05
-0.000352779
0.000120527
-0.000461987
0.000161699
-0.000582084
0.000210053
-0.000712567
0.000265984
-0.000853065
0.000329881
-0.00100326
0.000402127
-0.00116286
0.000483095
-0.00133146
0.000573151
-0.00150858
0.000672666
-0.00169345
0.000782036
-0.0018849
0.000901741
-0.00208095
0.00103233
-0.00227815
0.00117456
-0.00246894
-0.00264502
0.00132804
2.22138e-06
-9.11629e-06
9.11039e-06
-5.07584e-05
2.10567e-05
-0.000110867
3.84532e-05
-0.00018749
6.16883e-05
-0.000278376
9.11538e-05
-0.000382244
0.000127243
-0.000498077
0.000170352
-0.000625193
0.000220875
-0.000763091
0.000279206
-0.000911396
0.000345731
-0.00106979
0.000420827
-0.00123795
0.000504858
-0.00141549
0.000598175
-0.0016019
0.000701126
-0.0017964
0.000814078
-0.00199785
0.000937483
-0.00220436
0.00107189
-0.00241256
0.00121825
-0.0026153
-0.00280301
0.00137623
2.39077e-06
-1.15071e-05
9.74017e-06
-5.81078e-05
2.24179e-05
-0.000123545
4.0802e-05
-0.000205874
6.52716e-05
-0.000302845
9.62118e-05
-0.000413184
0.000134012
-0.000535877
0.000179063
-0.000670245
0.00023176
-0.000815787
0.00029249
-0.000972126
0.000361636
-0.00113894
0.000439568
-0.00131588
0.000526641
-0.00150257
0.00062319
-0.00169845
0.000729538
-0.00190275
0.000846015
-0.00211433
0.000973034
-0.00233138
0.00111112
-0.00255065
0.00126142
-0.00276559
-0.00296525
0.00142366
2.56203e-06
-1.40691e-05
1.03761e-05
-6.59218e-05
2.37912e-05
-0.00013696
4.317e-05
-0.000225253
6.88812e-05
-0.000328556
0.000101302
-0.000445605
0.000140817
-0.000575391
0.000187813
-0.000717241
0.000242679
-0.000870653
0.000305799
-0.00103525
0.00037755
-0.00121069
0.000458294
-0.00139663
0.000548376
-0.00159265
0.000648115
-0.00179819
0.00075781
-0.00201245
0.00087775
-0.00223427
0.0010083
-0.00246192
0.00114992
-0.00269228
0.00130396
-0.00291963
-0.00313145
0.00147015
2.73494e-06
-1.6804e-05
1.10171e-05
-7.4204e-05
2.51742e-05
-0.000151117
4.55526e-05
-0.000245631
7.25097e-05
-0.000355513
0.000106415
-0.00047951
0.000147644
-0.000616621
0.00019658
-0.000766177
0.000253606
-0.000927678
0.000319098
-0.00110074
0.000393428
-0.00128502
0.000476948
-0.00148015
0.000569993
-0.00168569
0.000672868
-0.00190106
0.000785848
-0.00212543
0.000909184
-0.00235761
0.00104317
-0.00259591
0.0011882
-0.0028373
0.00134577
-0.0030772
-0.00330124
0.00151557
2.90929e-06
-1.97133e-05
1.16622e-05
-8.29569e-05
2.65644e-05
-0.000166019
4.79453e-05
-0.000267012
7.61499e-05
-0.000383718
0.000111538
-0.000514898
0.000154477
-0.000659561
0.000205344
-0.000817043
0.000264511
-0.000986845
0.00033235
-0.00116858
0.000409222
-0.00136189
0.00049547
-0.0015664
0.000591418
-0.00178164
0.000697359
-0.002007
0.00081355
-0.00224162
0.00094021
-0.00248427
0.00107757
-0.00273327
0.00122589
-0.00298563
0.00138681
-0.00323812
-0.0034742
0.00155977
3.08486e-06
-2.27982e-05
1.23104e-05
-9.21824e-05
2.79595e-05
-0.000181668
5.03436e-05
-0.000289396
7.97945e-05
-0.000413169
0.000116661
-0.000551764
0.000161301
-0.000704201
0.000214081
-0.000869823
0.000275366
-0.00104813
0.000345517
-0.00123873
0.000424883
-0.00144125
0.000513799
-0.00165531
0.000612575
-0.00188042
0.000721496
-0.00211592
0.000840807
-0.00236093
0.000970709
-0.00261417
0.00111137
-0.00287393
0.00126295
-0.00313721
0.00142706
-0.00340222
-0.00364982
0.00160267
3.26145e-06
-2.60596e-05
1.29606e-05
-0.000101882
2.93569e-05
-0.000198065
5.2743e-05
-0.000312782
8.34361e-05
-0.000443862
0.000121772
-0.0005901
0.000168099
-0.000750528
0.000222771
-0.000924495
0.000286142
-0.0011115
0.000358561
-0.00131115
0.000440363
-0.00152306
0.000531871
-0.00174682
0.000633384
-0.00198193
0.000745179
-0.00222772
0.000867501
-0.00248325
0.00100055
-0.00274722
0.00114448
-0.00301786
0.00129933
-0.00329206
0.00146656
-0.00356945
-0.00382751
0.00164425
3.43885e-06
-2.94985e-05
1.36118e-05
-0.000112055
3.07541e-05
-0.000215207
5.51388e-05
-0.000337167
8.70672e-05
-0.000475791
0.000126861
-0.000629894
0.000174856
-0.000798523
0.000231392
-0.000981031
0.00029681
-0.00117692
0.000371443
-0.00138578
0.000455611
-0.00160722
0.000549622
-0.00184083
0.000653763
-0.00208607
0.000768306
-0.00234226
0.000893503
-0.00260845
0.00102959
-0.0028833
0.00117674
-0.00316501
0.001335
-0.00345033
0.00150539
-0.00373984
-0.00400678
0.00168466
3.61676e-06
-3.31152e-05
1.42628e-05
-0.000122701
3.21486e-05
-0.000233093
5.75263e-05
-0.000362545
9.06802e-05
-0.000508944
0.000131916
-0.00067113
0.000181555
-0.000848162
0.000239921
-0.0010394
0.000307339
-0.00124434
0.000384124
-0.00146256
0.000470578
-0.00169368
0.000566989
-0.00193724
0.00067363
-0.00219271
0.000790768
-0.0024594
0.000918673
-0.00273635
0.00105764
-0.00302227
0.00120798
-0.00331535
0.00136998
-0.00361233
0.00154385
-0.0039137
-0.00418781
0.00172488
3.79483e-06
-3.69101e-05
1.49123e-05
-0.000133818
3.35377e-05
-0.000251718
5.9901e-05
-0.000388908
9.42676e-05
-0.000543311
0.000136926
-0.000713789
0.00018818
-0.000899416
0.000248337
-0.00109955
0.000317701
-0.0013137
0.000396566
-0.00154143
0.000485212
-0.00178233
0.000583906
-0.00203593
0.000692901
-0.00230171
0.000812456
-0.00257895
0.000942859
-0.00286676
0.00108449
-0.0031639
0.00123791
-0.00346877
0.00140411
-0.00377853
0.00158361
-0.0040932
-0.00437087
0.00176668
3.92348e-06
-4.08336e-05
1.54531e-05
-0.000145348
3.47508e-05
-0.000271016
6.20253e-05
-0.000416183
9.75236e-05
-0.000578809
0.000141516
-0.000757782
0.000194289
-0.000952188
0.000256128
-0.00116139
0.000327316
-0.00138489
0.000408125
-0.00162224
0.000498808
-0.00187301
0.000599604
-0.00213673
0.000710743
-0.00241285
0.000832468
-0.00270068
0.000965077
-0.00299937
0.00110902
-0.00330784
0.00126514
-0.00362488
0.00143522
-0.00394862
0.00162489
-0.00428287
-0.00461031
0.00186433
4.09672e-06
-4.49303e-05
1.60884e-05
-0.000157339
3.61097e-05
-0.000291037
6.43447e-05
-0.000444418
0.000101018
-0.000615483
0.00014638
-0.000803144
0.000200694
-0.0010065
0.000264223
-0.00122492
0.000337224
-0.00145789
0.000419942
-0.00170495
0.000512597
-0.00196566
0.000615397
-0.00223953
0.00072854
-0.00252599
0.00085224
-0.00282438
0.000986783
-0.00313391
0.00113265
-0.00345371
0.00129078
-0.00378302
0.00146329
-0.00412112
0.00165501
-0.0044746
-0.00483549
0.00188019
4.26909e-06
-4.91994e-05
1.67188e-05
-0.000169789
3.74554e-05
-0.000311774
6.66368e-05
-0.000473599
0.000104464
-0.00065331
0.000151164
-0.000849844
0.000206976
-0.00106231
0.000272137
-0.00129008
0.000346876
-0.00153263
0.000431404
-0.00178948
0.000525908
-0.00206017
0.000630555
-0.00234418
0.000745502
-0.00264094
0.000870922
-0.0029498
0.00100706
-0.00327005
0.00115436
-0.00360101
0.00131368
-0.00394233
0.0014868
-0.00429425
0.00167629
-0.00466409
-0.00504904
0.00188985
4.44014e-06
-5.36395e-05
1.73432e-05
-0.000182692
3.87853e-05
-0.000333216
6.88968e-05
-0.00050371
0.000107854
-0.000692267
0.000155857
-0.000897848
0.000213119
-0.00111957
0.000279849
-0.00135681
0.000356244
-0.00160903
0.000442477
-0.00187572
0.000538695
-0.00215639
0.000645021
-0.0024505
0.000761561
-0.00275748
0.000888431
-0.00307667
0.00102581
-0.00340743
0.00117403
-0.00374923
0.00133375
-0.00410205
0.00150619
-0.00446668
0.00169211
-0.00485002
-0.005252
0.00189507
4.6095e-06
-5.8249e-05
1.79602e-05
-0.000196043
4.00967e-05
-0.000355353
7.11201e-05
-0.000534734
0.000111179
-0.000732326
0.000160447
-0.000947116
0.000219108
-0.00117823
0.000287339
-0.00142504
0.0003653
-0.00168699
0.000453125
-0.00196354
0.000550917
-0.00225418
0.000658744
-0.00255833
0.000776656
-0.00287539
0.0009047
-0.00320471
0.00104296
-0.00354569
0.00119163
-0.0038979
0.00135107
-0.0042615
0.00152193
-0.00463754
0.00170375
-0.00503184
-0.00544573
0.00189748
4.77689e-06
-6.30259e-05
1.85688e-05
-0.000209835
4.13871e-05
-0.000378171
7.33019e-05
-0.000566649
0.000114433
-0.000773457
0.000164924
-0.000997607
0.000224927
-0.00123824
0.000294585
-0.0014947
0.000374018
-0.00176642
0.000463316
-0.00205284
0.000562532
-0.00235339
0.000671678
-0.00266748
0.000790735
-0.00299445
0.00091967
-0.00333364
0.00105846
-0.00368448
0.00120713
-0.00404656
0.00136575
-0.00442012
0.00153441
-0.0048062
0.00171188
-0.00520931
-0.00563145
0.00189761
4.94204e-06
-6.79679e-05
1.91677e-05
-0.00022406
4.26538e-05
-0.000401657
7.54376e-05
-0.000599432
0.000117608
-0.000815628
0.000169277
-0.00104928
0.000230562
-0.00129952
0.000301567
-0.00156571
0.000382372
-0.00184722
0.000473018
-0.00214349
0.000573503
-0.00245388
0.000683777
-0.00277775
0.00080375
-0.00311442
0.000933296
-0.00346319
0.00107227
-0.00382346
0.00122054
-0.00419482
0.00137787
-0.00457745
0.00154392
-0.00497225
0.00171699
-0.00538238
-0.00581011
0.00189564
5.10469e-06
-7.30726e-05
1.9756e-05
-0.000238712
4.38942e-05
-0.000425795
7.75226e-05
-0.000633061
0.000120697
-0.000858802
0.000173495
-0.00110207
0.000235996
-0.00136202
0.000308266
-0.00163798
0.000390338
-0.0019293
0.000482201
-0.00223535
0.000583795
-0.00255547
0.000695004
-0.00288896
0.00081566
-0.00323507
0.000945543
-0.00359307
0.00108439
-0.0039623
0.00123188
-0.00434231
0.00138755
-0.00473313
0.0015507
-0.0051354
0.00171936
-0.00555104
-0.0059824
0.00189166
5.26456e-06
-7.83372e-05
2.03323e-05
-0.000253779
4.51059e-05
-0.000450569
7.95523e-05
-0.000667507
0.000123692
-0.000902942
0.000177567
-0.00115595
0.000241217
-0.00142567
0.000314663
-0.00171142
0.000397891
-0.00201252
0.000490835
-0.00232829
0.000593374
-0.00265801
0.000705322
-0.00300091
0.000826429
-0.00335618
0.00095638
-0.00372302
0.00109479
-0.00410071
0.00124117
-0.0044887
0.00139487
-0.00488682
0.0015549
-0.00529543
0.00171919
-0.00571533
-0.00614886
0.00188565
5.4214e-06
-8.37586e-05
2.08958e-05
-0.000269254
4.62863e-05
-0.000475959
8.1522e-05
-0.000702743
0.000126587
-0.000948007
0.000181482
-0.00121084
0.000246209
-0.0014904
0.00032074
-0.00178596
0.000405009
-0.00209679
0.000498895
-0.00242218
0.000602211
-0.00276133
0.000714699
-0.0031134
0.000836027
-0.00347751
0.000965783
-0.00385278
0.00110347
-0.00423839
0.00124845
-0.00463368
0.0013999
-0.00503827
0.00155664
-0.00545217
0.0017166
-0.00587528
-0.00630986
0.00187759
5.57494e-06
-8.93335e-05
2.14451e-05
-0.000285124
4.74327e-05
-0.000501947
8.34271e-05
-0.000738737
0.000129373
-0.000993953
0.000185232
-0.0012667
0.000250958
-0.00155613
0.000326478
-0.00186147
0.00041167
-0.00218199
0.000506354
-0.00251686
0.000610276
-0.00286525
0.000723105
-0.00322623
0.000844427
-0.00359883
0.000973735
-0.00398209
0.00111042
-0.00437508
0.00125373
-0.00477699
0.0014027
-0.00518724
0.00155602
-0.00560549
0.00171165
-0.00603092
-0.00646564
0.00186743
5.72491e-06
-9.50584e-05
2.19792e-05
-0.000301378
4.85427e-05
-0.000528511
8.52632e-05
-0.000775458
0.000132044
-0.00104073
0.000188804
-0.00132346
0.000255451
-0.00162277
0.00033186
-0.00193788
0.000417853
-0.00226798
0.000513188
-0.0026122
0.000617544
-0.0029696
0.000730515
-0.0033392
0.000851606
-0.00371992
0.00098022
-0.0041107
0.00111565
-0.00451051
0.00125704
-0.00491838
0.00140331
-0.00533351
0.00155308
-0.00575526
0.00170439
-0.00618222
-0.00661639
0.00185514
5.87102e-06
-0.000100929
2.2497e-05
-0.000318004
4.96137e-05
-0.000555627
8.70256e-05
-0.00081287
0.000134594
-0.0010883
0.00019219
-0.00138106
0.000259675
-0.00169026
0.000336869
-0.00201508
0.000423538
-0.00235465
0.000519375
-0.00270803
0.00062399
-0.00307422
0.000736905
-0.00345211
0.000857544
-0.00384056
0.000985227
-0.00423839
0.00111916
-0.00464444
0.00125839
-0.00505761
0.00140177
-0.00547689
0.00154788
-0.00590137
0.00169485
-0.00632919
-0.00676222
0.00184067
6.013e-06
-0.000106942
2.29974e-05
-0.000334989
5.06431e-05
-0.000583273
8.87099e-05
-0.000850937
0.000137014
-0.00113661
0.000195379
-0.00143942
0.000263616
-0.00175849
0.00034149
-0.00209295
0.000428706
-0.00244186
0.000524893
-0.00280422
0.000629593
-0.00317892
0.000742254
-0.00356477
0.000862224
-0.00396053
0.000988745
-0.00436491
0.00112094
-0.00477663
0.0012578
-0.00519447
0.00139811
-0.0056172
0.00154044
-0.00604371
0.00168304
-0.00647179
-0.00690318
0.001824
6.15055e-06
-0.000113093
2.3479e-05
-0.000352317
5.16284e-05
-0.000611422
9.03116e-05
-0.00088962
0.000139298
-0.00118559
0.000198363
-0.00149849
0.000267263
-0.00182739
0.000345707
-0.0021714
0.000433339
-0.0025295
0.000529723
-0.00290061
0.000634333
-0.00328353
0.000746543
-0.00367698
0.000865632
-0.00407962
0.000990768
-0.00449004
0.00112101
-0.00490687
0.00125528
-0.00532874
0.00139236
-0.00575427
0.00153081
-0.00618217
0.00166899
-0.00660996
-0.00703931
0.00180511
6.28337e-06
-0.000119376
2.39409e-05
-0.000369975
5.25671e-05
-0.000640049
9.18263e-05
-0.000928879
0.000141439
-0.0012352
0.000201131
-0.00155818
0.000270602
-0.00189687
0.000349505
-0.0022503
0.000437421
-0.00261741
0.000533847
-0.00299703
0.00063819
-0.00338787
0.000749757
-0.00378855
0.000867757
-0.00419762
0.000991294
-0.00461358
0.00111937
-0.00503495
0.00125087
-0.00546024
0.00138454
-0.00588794
0.00151901
-0.00631663
0.00165271
-0.00674366
-0.0071706
0.001784
6.41117e-06
-0.000125788
2.43819e-05
-0.000387945
5.34565e-05
-0.000669123
9.32495e-05
-0.000968672
0.000143431
-0.00128539
0.000203674
-0.00161842
0.000273624
-0.00196682
0.000352871
-0.00232955
0.000440935
-0.00270548
0.000537248
-0.00309335
0.00064115
-0.00349177
0.000751882
-0.00389928
0.000868589
-0.00431432
0.000990319
-0.00473531
0.00111603
-0.00516066
0.00124457
-0.00558878
0.00137469
-0.00601807
0.00150506
-0.00644699
0.00163422
-0.00687283
-0.00729704
0.00176066
6.53363e-06
-0.000132321
2.48007e-05
-0.000406212
5.42942e-05
-0.000698617
9.45771e-05
-0.00100895
0.000145268
-0.00133608
0.000205985
-0.00167914
0.000276315
-0.00203715
0.000355791
-0.00240902
0.000443867
-0.00279355
0.000539911
-0.00318939
0.000643198
-0.00359506
0.000752907
-0.00400899
0.000868123
-0.00442954
0.000987846
-0.00485503
0.00111099
-0.0052838
0.0012364
-0.00571419
0.00136283
-0.0061445
0.00148899
-0.00657315
0.00161355
-0.00699739
-0.0074186
0.00173511
6.65044e-06
-0.000138972
2.51963e-05
-0.000424758
5.50777e-05
-0.000728498
9.58046e-05
-0.00104968
0.000146943
-0.00138722
0.000208053
-0.00174025
0.000278667
-0.00210776
0.000358252
-0.00248861
0.000446203
-0.0028815
0.000541822
-0.00328501
0.000644322
-0.00369756
0.000752822
-0.00411749
0.000866355
-0.00454307
0.000983878
-0.00497256
0.00110428
-0.0054042
0.00122639
-0.0058363
0.00134899
-0.00626711
0.00147085
-0.00669501
0.00159074
-0.00711728
-0.00753525
0.00170739
6.76129e-06
-0.000145733
2.55675e-05
-0.000443564
5.58045e-05
-0.000758735
9.69281e-05
-0.00109081
0.000148449
-0.00143874
0.000209872
-0.00180167
0.000280668
-0.00217855
0.000360244
-0.00256818
0.000447931
-0.00296919
0.00054297
-0.00338005
0.000644512
-0.0037991
0.000751622
-0.0042246
0.000863285
-0.00465474
0.000978422
-0.00508769
0.0010959
-0.00552168
0.00121455
-0.00595495
0.0013332
-0.00638575
0.00145066
-0.00681246
0.00156582
-0.00723244
-0.00764695
0.00167752
6.86588e-06
-0.000152599