/*--------------------------------*- C++ -*----------------------------------*\
  =========                 |
  \\      /  F ield         | OpenFOAM: The Open Source CFD Toolbox
   \\    /   O peration     | Website:  https://openfoam.org
    \\  /    A nd           | Version:  7
     \\/     M anipulation  |
\*---------------------------------------------------------------------------*/
FoamFile
{
    version     2.0;
    format      ascii;
    class       volVectorField;
    location    "25";
    object      U;
}
// * * * * * * * * * * * * * * * * * * * * * * * * * * * * * * * * * * * * * //

dimensions      [0 1 -1 0 0 0 0];

internalField   nonuniform List<vector> 
42000
(
(-0.000304711 0.000116183 1.81306e-21)
(-0.00135464 0.000182231 -1.49307e-21)
(-0.00261664 0.000144726 1.14584e-22)
(-0.00324519 3.6167e-05 8.70658e-22)
(-0.00303912 -0.000118617 -2.24361e-21)
(-0.00177815 -0.000302759 -1.75829e-21)
(0.000608707 -0.000504069 3.62931e-21)
(0.00415003 -0.000713899 1.9697e-22)
(0.00882834 -0.000925936 2.18585e-21)
(0.0146014 -0.00113541 7.68278e-23)
(0.021408 -0.00133848 3.85829e-22)
(0.0291732 -0.00153168 -8.91777e-23)
(0.0378093 -0.00171154 1.17446e-22)
(0.0472154 -0.00187422 1.84405e-21)
(0.0572749 -0.00201523 1.16244e-21)
(0.0678531 -0.00212925 -2.40454e-22)
(0.0787875 -0.00221012 4.31179e-22)
(0.0899121 -0.00225134 -1.71578e-21)
(0.100946 -0.00224376 -1.61903e-22)
(0.111852 -0.00219732 1.96263e-21)
(-0.000312137 0.000347296 3.57036e-21)
(-0.0013554 0.000543935 -3.18202e-21)
(-0.00259113 0.000430648 -3.85566e-22)
(-0.00318161 0.000104619 -3.33811e-21)
(-0.0029278 -0.000359733 7.07778e-21)
(-0.00161232 -0.000911916 -7.77682e-21)
(0.000834252 -0.00151541 -8.13553e-21)
(0.00443918 -0.00214433 1.35192e-21)
(0.0091841 -0.00277977 -3.60277e-21)
(0.0150261 -0.00340746 -1.66723e-21)
(0.0219036 -0.00401586 5.2677e-21)
(0.0297412 -0.00459465 -4.39998e-21)
(0.038451 -0.00513343 2.12168e-21)
(0.047932 -0.00562068 1.12421e-21)
(0.0580673 -0.00604295 -7.36704e-21)
(0.0687222 -0.00638426 -3.80566e-21)
(0.0797336 -0.00662618 -1.20053e-21)
(0.0909362 -0.00674909 -6.57175e-21)
(0.102041 -0.00672563 4.41919e-21)
(0.113044 -0.00658463 -7.52438e-22)
(-0.000326807 0.000574742 5.01806e-21)
(-0.00135652 0.000897421 9.59362e-21)
(-0.00253958 0.000705907 -6.69984e-21)
(-0.00305383 0.000161279 -4.75076e-21)
(-0.00270451 -0.000612709 -1.7243e-21)
(-0.00128002 -0.00153225 1.09145e-21)
(0.00128595 -0.00253667 1.31153e-20)
(0.00501803 -0.003583 -1.32138e-21)
(0.00989609 -0.00463984 6.08355e-21)
(0.0158759 -0.00568352 -1.32932e-21)
(0.022895 -0.0066949 6.5031e-21)
(0.0308772 -0.00765684 2.56834e-21)
(0.0397343 -0.00855211 5.58116e-21)
(0.0493648 -0.00936156 3.97449e-21)
(0.0596518 -0.0100628 1.74272e-20)
(0.0704598 -0.0106292 -1.4566e-22)
(0.081625 -0.01103 -4.54546e-21)
(0.0929834 -0.0112323 -2.55285e-21)
(0.10423 -0.0111909 -6.27748e-21)
(0.115427 -0.0109503 1.51223e-20)
(-0.000348367 0.000796154 -7.52693e-22)
(-0.00135717 0.00123728 1.4801e-21)
(-0.0024609 0.000963431 4.51529e-21)
(-0.00286061 0.000198313 1.16657e-20)
(-0.00236796 -0.000885438 -7.50792e-21)
(-0.000779959 -0.00217121 6.51513e-21)
(0.00196501 -0.00357446 -1.65331e-20)
(0.00588768 -0.0050354 1.31988e-21)
(0.0109653 -0.00651031 -1.52076e-20)
(0.0171516 -0.00796629 -9.89192e-21)
(0.0243827 -0.00937672 -1.70255e-20)
(0.0325816 -0.0107178 -2.09527e-21)
(0.0416592 -0.0119655 -1.6551e-20)
(0.0515137 -0.0130931 -1.15066e-21)
(0.0620275 -0.0140695 2.50206e-21)
(0.0730647 -0.0148574 -8.80793e-24)
(0.0844601 -0.0154135 1.10809e-20)
(0.0960515 -0.0156913 6.70083e-21)
(0.107509 -0.0156285 -1.16021e-20)
(0.118997 -0.0152799 -4.86489e-21)
(-0.000376292 0.00100919 -6.63757e-21)
(-0.00135615 0.00155817 -5.60569e-21)
(-0.00235347 0.00119627 -4.06802e-21)
(-0.00260011 0.000208032 -8.89579e-21)
(-0.00191622 -0.00118565 5.92507e-21)
(-0.000110236 -0.00283606 3.2685e-21)
(0.00287326 -0.00463521 5.03472e-21)
(0.00704979 -0.00650684 -9.72133e-21)
(0.0123931 -0.00839518 2.30459e-20)
(0.0188543 -0.0102583 2.46756e-20)
(0.0263676 -0.0120623 2.70634e-21)
(0.0348548 -0.0137767 5.26033e-21)
(0.0442258 -0.0153712 -1.00233e-20)
(0.0543781 -0.0168115 1.39349e-20)
(0.0651934 -0.0180577 -3.12432e-21)
(0.0765353 -0.0190619 -7.7274e-21)
(0.0882364 -0.0197684 -4.93869e-21)
(0.100137 -0.0201164 1.1102e-20)
(0.111875 -0.0200273 5.87308e-21)
(0.123749 -0.019559 -1.18968e-20)
(-0.000409892 0.00121155 6.62516e-21)
(-0.00135184 0.00185489 1.10148e-20)
(-0.00221516 0.00139764 -8.62071e-22)
(-0.0022699 0.000182925 -1.64799e-20)
(-0.00134673 -0.00152089 5.33337e-22)
(0.000731692 -0.00353387 -2.71698e-21)
(0.00401309 -0.00572516 -3.68216e-21)
(0.00850653 -0.00800243 1.35479e-21)
(0.0141813 -0.0102982 5.78285e-21)
(0.0209855 -0.0125618 -1.0142e-20)
(0.0288508 -0.0147522 -2.62668e-20)
(0.0376973 -0.0168329 2.40161e-20)
(0.0474339 -0.0187667 1.4884e-20)
(0.0579571 -0.0205126 -1.84046e-20)
(0.069148 -0.0220217 -1.75802e-20)
(0.0808691 -0.0232356 -8.20628e-22)
(0.0929507 -0.0240861 7.12925e-21)
(0.105237 -0.0244975 -5.72496e-21)
(0.117323 -0.0243762 1.36064e-21)
(0.129676 -0.0237731 1.9636e-20)
(-0.00044831 0.001401 -1.71652e-20)
(-0.00134226 0.00212234 -6.47295e-21)
(-0.00204331 0.00156092 2.07827e-20)
(-0.00186692 0.000115708 3.03455e-20)
(-0.000656312 -0.00189843 -1.36059e-20)
(0.00174897 -0.00427146 -1.54068e-20)
(0.00538749 -0.00685027 -3.71845e-21)
(0.0102606 -0.00952702 1.77399e-20)
(0.0163324 -0.0122229 5.25625e-22)
(0.023547 -0.0148789 6.5615e-22)
(0.0318335 -0.0174471 1.20204e-20)
(0.0411098 -0.019885 -5.89004e-21)
(0.0512835 -0.0221493 1.80361e-20)
(0.06225 -0.0241919 4.54239e-21)
(0.0738894 -0.0259556 -1.83874e-20)
(0.0860633 -0.0273713 1.99248e-20)
(0.0985988 -0.028358 5.05204e-21)
(0.111344 -0.0288246 2.20775e-20)
(0.123845 -0.0286637 1.19984e-20)
(0.13677 -0.0279077 -3.57307e-20)
(-0.00049053 0.00157538 2.6554e-22)
(-0.00132504 0.00235562 1.26931e-20)
(-0.00183476 0.00167974 -3.81936e-21)
(-0.00138758 -6.32113e-07 -3.01142e-20)
(0.000158814 -0.00232528 2.89472e-20)
(0.00294536 -0.00505532 -3.26087e-22)
(0.00700001 -0.00801617 2.35764e-20)
(0.0123152 -0.0110851 -1.64785e-20)
(0.0188491 -0.0141726 -2.65389e-21)
(0.0265412 -0.0172113 5.59533e-21)
(0.0353173 -0.0201471 9.26447e-21)
(0.0450931 -0.0229316 -2.09152e-20)
(0.0557744 -0.0255159 -6.61061e-21)
(0.0672554 -0.027845 1.44678e-20)
(0.0794153 -0.0298532 2.82857e-20)
(0.0921142 -0.0314613 -7.92067e-21)
(0.105176 -0.0325752 -1.37306e-20)
(0.118453 -0.0330875 -5.31025e-20)
(0.131434 -0.0328786 -7.06924e-21)
(0.145019 -0.0319484 4.68518e-21)
(-0.000535382 0.0017326 5.65914e-22)
(-0.00129744 0.00255002 -3.58755e-21)
(-0.00158586 0.00174801 -1.19382e-20)
(-0.0008277 -0.000172788 2.07107e-20)
(0.00110301 -0.00280806 -4.13983e-20)
(0.00432516 -0.00589159 2.14525e-20)
(0.00885473 -0.00922816 -2.55903e-20)
(0.0146741 -0.0126809 -1.72026e-20)
(0.0217345 -0.0161499 -3.58205e-20)
(0.0299704 -0.0195603 3.31562e-21)
(0.0393038 -0.0228519 -1.62164e-20)
(0.0496478 -0.025971 8.92115e-21)
(0.0609063 -0.028863 -2.2162e-20)
(0.0729721 -0.0314666 2.65189e-20)
(0.0857228 -0.0337081 1.65963e-21)
(0.0990175 -0.0354976 -3.67622e-20)
(0.112676 -0.0367285 -2.04029e-20)
(0.126557 -0.0372755 2.46008e-21)
(0.140081 -0.0370093 -2.07902e-20)
(0.154412 -0.0358805 -5.70504e-21)
(-0.000581545 0.00187068 -2.44206e-21)
(-0.0012564 0.00270106 1.03409e-20)
(-0.0012925 0.00175993 -9.64959e-21)
(-0.000182584 -0.000407081 -2.51686e-20)
(0.00218119 -0.00335303 3.49783e-20)
(0.00589325 -0.006786 -2.18823e-20)
(0.0109563 -0.0104911 1.12255e-20)
(0.0173414 -0.0143181 4.48721e-20)
(0.0249922 -0.0181573 1.58082e-20)
(0.0338375 -0.0219269 1.63927e-20)
(0.0437951 -0.025561 3.77014e-20)
(0.054775 -0.0290008 -1.56144e-20)
(0.066679 -0.0321867 1.28337e-20)
(0.0793982 -0.0350513 -4.94334e-20)
(0.0928088 -0.0375131 1.3861e-20)
(0.106768 -0.039472 5.5198e-21)
(0.121092 -0.0408083 5.11196e-20)
(0.135645 -0.041378 3.00658e-20)
(0.149773 -0.041044 2.81325e-21)
(0.164934 -0.0396898 9.9986e-21)
(-0.000627558 0.00198775 1.49165e-20)
(-0.00119849 0.0028045 -6.9477e-20)
(-0.000950114 0.00171008 4.42539e-20)
(0.000552983 -0.000709421 -1.30434e-20)
(0.00339882 -0.00396599 -2.40609e-20)
(0.00765502 -0.00774377 3.95633e-20)
(0.0133097 -0.0118093 1.92e-21)
(0.0203216 -0.0159999 -1.72526e-20)
(0.0286261 -0.0201968 1.16577e-20)
(0.0381455 -0.0243115 -2.40013e-20)
(0.0487931 -0.0282732 -7.15504e-20)
(0.0604755 -0.0320184 -1.85001e-20)
(0.0730919 -0.0354827 -8.77035e-21)
(0.0865318 -0.0385932 2.7167e-20)
(0.10067 -0.0412609 -4.19412e-20)
(0.115361 -0.0433757 1.01795e-20)
(0.130416 -0.0448047 -1.50626e-21)
(0.145708 -0.0453838 -1.73041e-20)
(0.160499 -0.044971 1.16353e-20)
(0.17657 -0.0433615 -2.76467e-20)
(-0.000671826 0.00208203 -5.60025e-22)
(-0.00111999 0.0028564 5.05189e-20)
(-0.000553717 0.00159338 -2.41443e-20)
(0.0013847 -0.00108527 -9.25273e-23)
(0.00476186 -0.00465222 1.2973e-20)
(0.00961636 -0.00876965 -6.8833e-20)
(0.0159205 -0.0131866 2.34659e-20)
(0.0236198 -0.017729 -1.00918e-20)
(0.0326404 -0.0222697 -1.7758e-20)
(0.0428977 -0.0267142 5.75093e-20)
(0.0543 -0.0309869 2.6209e-20)
(0.0667501 -0.0350204 5.78516e-20)
(0.0801445 -0.0387462 1.46881e-20)
(0.0943705 -0.0420859 -2.0537e-20)
(0.109301 -0.0449436 2.56636e-20)
(0.124789 -0.0471993 2.32064e-20)
(0.14064 -0.0487072 -1.00113e-21)
(0.156735 -0.0492814 -1.52724e-20)
(0.172244 -0.0487782 3.97369e-20)
(0.189301 -0.0468814 1.18483e-20)
(-0.000712626 0.0021519 2.0479e-20)
(-0.00101686 0.00285306 -4.02354e-20)
(-9.79188e-05 0.00140523 -2.33459e-20)
(0.00231872 -0.0015396 6.48025e-20)
(0.00627673 -0.0054165 -2.58268e-21)
(0.0117836 -0.00986778 5.75367e-20)
(0.0187948 -0.0146264 -2.9663e-20)
(0.0272413 -0.0195076 8.9994e-21)
(0.0370397 -0.0243768 7.07468e-20)
(0.0480976 -0.0291342 -5.84877e-20)
(0.060318 -0.0337 1.87562e-20)
(0.0735996 -0.0380033 -4.68547e-20)
(0.0878358 -0.0419717 3.03011e-20)
(0.102912 -0.0455223 -2.51785e-20)
(0.118697 -0.0485528 -3.25904e-20)
(0.135045 -0.0509332 -1.06339e-20)
(0.151753 -0.052505 -3.07587e-20)
(0.168712 -0.0530593 3.15399e-20)
(0.184993 -0.0524534 -8.23475e-20)
(0.203108 -0.0502349 3.24279e-20)
(-0.000748126 0.00219587 -2.57456e-20)
(-0.000884797 0.0027912 6.18947e-20)
(0.000423059 0.0011414 2.64719e-20)
(0.00336163 -0.00207686 -5.24272e-20)
(0.00795032 -0.006263 1.3009e-21)
(0.0141636 -0.0110417 7.91536e-21)
(0.0219388 -0.0161311 -1.45943e-21)
(0.0311918 -0.0213372 -5.30255e-20)
(0.0418286 -0.0265185 -8.40579e-20)
(0.0537489 -0.0315705 2.5537e-20)
(0.0668495 -0.0364098 3.52593e-20)
(0.0810249 -0.0409626 1.57557e-20)
(0.0961648 -0.0451533 -4.83127e-20)
(0.112152 -0.048895 1.69021e-20)
(0.128854 -0.0520792 2.48056e-20)
(0.146121 -0.0545669 -2.52288e-20)
(0.163745 -0.0561868 -6.37684e-21)
(0.181627 -0.0567051 2.43391e-20)
(0.198728 -0.0559841 5.7192e-20)
(0.217968 -0.0534079 -2.49826e-20)
(-0.000776368 0.00221258 -1.64208e-20)
(-0.000719245 0.00266787 -1.09333e-21)
(0.00101533 0.000798143 -4.23987e-20)
(0.00452041 -0.00270091 6.10519e-20)
(0.0097899 -0.00719527 1.15665e-20)
(0.0167634 -0.0122944 -3.23632e-20)
(0.0253593 -0.0177029 3.8194e-20)
(0.0354773 -0.0232187 2.48502e-20)
(0.0470122 -0.0286942 5.16705e-21)
(0.0598551 -0.034021 -8.8725e-21)
(0.0738967 -0.0391128 -3.65007e-21)
(0.0890263 -0.0438933 2.58007e-20)
(0.10513 -0.0482845 6.6239e-20)
(0.122088 -0.0521957 5.30561e-20)
(0.139764 -0.0555134 -4.9514e-20)
(0.158008 -0.0580897 -3.48064e-20)
(0.176604 -0.0597407 3.27014e-20)
(0.195462 -0.0602063 -5.20275e-20)
(0.213431 -0.0593577 1.01441e-21)
(0.233857 -0.0563861 -2.22944e-20)
(-0.000795289 0.00220081 4.24467e-20)
(-0.000515403 0.00248045 -3.49853e-20)
(0.0016853 0.000372279 2.1971e-20)
(0.00580239 -0.00341504 -3.45084e-20)
(0.0118031 -0.00821623 -2.60817e-20)
(0.0195906 -0.013628 2.23099e-20)
(0.0290632 -0.019343 -6.48742e-20)
(0.0401038 -0.0251521 4.77784e-20)
(0.0525955 -0.0309028 -2.73508e-20)
(0.0664202 -0.0364833 -9.50096e-22)
(0.0814618 -0.0418051 -2.73622e-20)
(0.0976043 -0.0467899 -2.92443e-20)
(0.11473 -0.0513579 -6.63977e-20)
(0.132715 -0.0554157 -4.45512e-20)
(0.151422 -0.058845 6.29524e-20)
(0.170696 -0.0614898 1.50065e-20)
(0.190315 -0.0631542 1.40572e-20)
(0.210202 -0.0635499 3.81922e-20)
(0.229081 -0.0625613 1.22896e-20)
(0.25075 -0.0591554 -1.29141e-20)
(-0.000802738 0.00215952 -2.50212e-20)
(-0.000268242 0.00222668 2.14777e-20)
(0.00243968 -0.000138876 1.93857e-20)
(0.00721522 -0.00422188 3.18669e-22)
(0.0139979 -0.00932809 6.61753e-20)
(0.0226529 -0.0150441 -1.07213e-20)
(0.0330578 -0.0210519 1.71333e-20)
(0.0450779 -0.027137 2.37828e-20)
(0.0585837 -0.0331425 -3.3793e-21)
(0.0734479 -0.0389542 3.75113e-20)
(0.0895469 -0.0444818 1.18576e-22)
(0.106759 -0.0496461 -4.5749e-20)
(0.124962 -0.0543658 -1.64015e-20)
(0.144029 -0.0585456 4.05099e-20)
(0.163818 -0.0620632 -2.33104e-20)
(0.184174 -0.0647552 1.88331e-20)
(0.204865 -0.0664145 1.72579e-20)
(0.225827 -0.0667225 -4.7705e-20)
(0.245656 -0.0655818 1.44697e-20)
(0.268619 -0.061702 8.57334e-20)
(-0.000796509 0.00208788 1.93047e-20)
(2.7448e-05 0.00190471 -1.33511e-22)
(0.00328544 -0.000737456 -7.22345e-21)
(0.00876682 -0.00512343 1.30183e-21)
(0.0163825 -0.0105323 6.10806e-21)
(0.0259584 -0.0165432 -2.95145e-20)
(0.0373506 -0.0228295 -9.0328e-21)
(0.0504059 -0.0291719 -6.5827e-20)
(0.0649822 -0.0354106 6.6857e-20)
(0.0809419 -0.0414296 -1.0261e-20)
(0.0981538 -0.0471377 1.02586e-20)
(0.11649 -0.052455 1.0564e-20)
(0.135824 -0.0572997 6.29286e-21)
(0.156024 -0.0615752 -6.37631e-20)
(0.176946 -0.0651563 -3.67081e-20)
(0.19843 -0.0678731 4.95316e-20)
(0.220237 -0.0695078 -6.81365e-20)
(0.242318 -0.0697102 1.17655e-20)
(0.26313 -0.068406 -7.47867e-20)
(0.287432 -0.0640123 -5.73975e-20)
(-0.00077431 0.00198516 2.88253e-20)
(0.00037703 0.00151311 -1.69495e-20)
(0.00422975 -0.00142502 -3.37254e-20)
(0.0104654 -0.00612099 1.26379e-20)
(0.0189654 -0.0118297 -1.25168e-19)
(0.0295153 -0.0181255 6.93198e-20)
(0.041949 -0.0246746 8.78039e-20)
(0.0560944 -0.0312547 5.31012e-20)
(0.071796 -0.0377039 2.51052e-20)
(0.0889057 -0.043905 1.5341e-20)
(0.107284 -0.0497667 -2.06657e-20)
(0.126797 -0.055209 -1.11761e-20)
(0.147312 -0.0601504 -6.27357e-20)
(0.168694 -0.0644939 8.46568e-20)
(0.190794 -0.0681123 3.06417e-20)
(0.213451 -0.07083 -6.68371e-20)
(0.236414 -0.0724199 1.51322e-20)
(0.259652 -0.0724985 2.3622e-20)
(0.281479 -0.0710202 6.45883e-20)
(0.307158 -0.0660728 9.73236e-21)
(-0.000733792 0.00185084 -6.59944e-20)
(0.000786009 0.0010509 -5.24519e-20)
(0.00527996 -0.00220255 -6.34651e-20)
(0.0123192 -0.00721516 2.03533e-20)
(0.0217552 -0.0132201 4.42284e-20)
(0.033332 -0.01979 4.13135e-21)
(0.0468609 -0.0265854 -8.92349e-20)
(0.0621501 -0.0333825 -5.59399e-20)
(0.0790303 -0.040018 -8.69356e-20)
(0.0973428 -0.0463748 -4.44302e-20)
(0.116939 -0.0523618 2.43187e-20)
(0.137679 -0.0578999 5.12249e-20)
(0.159423 -0.0629082 9.27177e-20)
(0.182032 -0.0672903 -3.65302e-20)
(0.205353 -0.0709182 4.21922e-20)
(0.229221 -0.0736119 -3.4409e-20)
(0.253377 -0.0751361 -1.96445e-21)
(0.277806 -0.0750725 -1.87951e-20)
(0.300673 -0.0734107 6.05957e-21)
(0.327762 -0.0678704 2.25883e-20)
(-0.000672557 0.00168456 3.69945e-20)
(0.00126 0.000517484 5.96283e-20)
(0.00644358 -0.0030704 2.85059e-20)
(0.0143368 -0.00840583 -1.89559e-20)
(0.0247607 -0.0147028 4.6477e-20)
(0.037417 -0.0215349 1.7423e-20)
(0.0520938 -0.0285591 -5.5617e-21)
(0.0685793 -0.0355514 1.75116e-20)
(0.0866902 -0.0423481 5.72217e-20)
(0.106256 -0.0488329 -2.3587e-20)
(0.12712 -0.0549156 -4.44172e-20)
(0.149134 -0.0605186 -5.88725e-20)
(0.172153 -0.0655626 -7.57418e-20)
(0.196031 -0.0699526 3.73453e-20)
(0.220611 -0.0735608 8.80567e-21)
(0.245726 -0.0762041 4.38987e-20)
(0.271107 -0.0776409 4.16886e-20)
(0.296755 -0.0774169 -5.70532e-20)
(0.320684 -0.0755635 -1.09037e-20)
(0.349207 -0.0693923 7.07103e-20)
(-0.000588171 0.00148615 1.47352e-20)
(0.0018047 -8.72535e-05 -9.18469e-21)
(0.00772818 -0.00402833 7.65346e-20)
(0.0165268 -0.00969213 -1.08559e-19)
(0.0279907 -0.0162761 -7.43288e-20)
(0.0417787 -0.0233578 -6.00021e-20)
(0.0576553 -0.0305923 3.12327e-20)
(0.0753885 -0.0377567 2.77804e-20)
(0.0947802 -0.0446883 -4.18167e-21)
(0.115649 -0.0512722 1.67497e-20)
(0.137827 -0.0574198 4.56093e-20)
(0.16116 -0.0630557 1.12096e-19)
(0.185495 -0.0681028 2.16556e-20)
(0.210681 -0.0724683 -2.5113e-20)
(0.236556 -0.0760261 6.5355e-21)
(0.262948 -0.0785915 3.31304e-20)
(0.28958 -0.0799185 4.95772e-20)
(0.316471 -0.0795157 4.81412e-20)
(0.341478 -0.0774643 2.94505e-20)
(0.371456 -0.0706261 -1.26833e-20)
(-0.000478172 0.00125562 -1.33451e-20)
(0.00242587 -0.000763 -9.50995e-20)
(0.00914145 -0.00507545 -1.22789e-19)
(0.0188978 -0.0110725 9.95428e-20)
(0.031454 -0.0179374 2.49369e-20)
(0.0464255 -0.0252552 1.06912e-19)
(0.0635531 -0.0326804 -6.46352e-20)
(0.0825837 -0.0399929 -3.4429e-20)
(0.103305 -0.047032 -1.55925e-20)
(0.125522 -0.0536849 -6.63679e-21)
(0.14906 -0.0598656 -9.82028e-21)
(0.173754 -0.065501 -1.13522e-19)
(0.199444 -0.0705172 9.08239e-21)
(0.225973 -0.0748246 -1.48034e-20)
(0.253174 -0.0782999 -5.79132e-21)
(0.28087 -0.0807583 -2.25466e-20)
(0.308773 -0.0819522 -8.1962e-20)
(0.336925 -0.0813527 2.08678e-20)
(0.363023 -0.0790986 -5.86677e-20)
(0.394466 -0.0715598 -2.4556e-21)
(-0.000340086 0.000993167 5.34376e-20)
(0.0031293 -0.00150899 9.84318e-20)
(0.010691 -0.00621024 1.32618e-19)
(0.0214584 -0.0125444 -8.89422e-20)
(0.0351594 -0.0196836 -2.53862e-20)
(0.0513659 -0.0272227 -1.21745e-19)
(0.0697943 -0.0348181 1.29705e-19)
(0.090171 -0.0422537 1.0195e-20)
(0.112268 -0.0493718 1.43081e-20)
(0.135879 -0.0560626 -1.48522e-20)
(0.160818 -0.0622432 -4.359e-20)
(0.186912 -0.0678438 1.26047e-19)
(0.213993 -0.072794 -8.03694e-20)
(0.241897 -0.0770082 4.43328e-20)
(0.27045 -0.0803673 2.98689e-20)
(0.299471 -0.0826886 -2.21145e-20)
(0.328663 -0.0837252 1.13115e-20)
(0.358088 -0.082911 -2.13588e-20)
(0.385283 -0.0804517 5.6122e-20)
(0.418196 -0.0721816 -1.25284e-20)
(-0.000171431 0.000699176 8.29996e-21)
(0.00392077 -0.002324 -6.73416e-20)
(0.0123846 -0.00743057 -1.5459e-20)
(0.0242173 -0.0141049 1.73889e-19)
(0.0391157 -0.0215104 -2.94692e-20)
(0.0566078 -0.0292552 5.73448e-20)
(0.0763861 -0.0369991 -1.23884e-19)
(0.0981556 -0.0445317 1.65542e-20)
(0.121673 -0.0516993 -2.23098e-20)
(0.14672 -0.058396 4.0963e-20)
(0.1731 -0.0645425 5.01923e-20)
(0.200629 -0.0700728 -1.47069e-19)
(0.229133 -0.0749207 2.04302e-20)
(0.258439 -0.0790055 8.47969e-20)
(0.288367 -0.0822135 -3.99297e-20)
(0.31873 -0.0843659 1.34974e-20)
(0.349221 -0.08522 7.96585e-20)
(0.379925 -0.0841733 -2.77684e-20)
(0.40822 -0.0815086 -5.56374e-20)
(0.442602 -0.0724802 -4.9208e-20)
(3.02675e-05 0.000374206 3.16418e-20)
(0.00480605 -0.00320636 3.01296e-20)
(0.0142299 -0.00873362 -6.38469e-20)
(0.0271829 -0.0157499 -9.78863e-20)
(0.0433312 -0.0234127 1.1535e-19)
(0.0621592 -0.0313465 2.18267e-20)
(0.0833351 -0.0392162 -4.31584e-20)
(0.106543 -0.0468188 3.52463e-22)
(0.131524 -0.0540054 8.21033e-20)
(0.158046 -0.0606751 1.00459e-19)
(0.185902 -0.0667526 -7.81599e-20)
(0.2149 -0.0721763 4.22134e-20)
(0.244855 -0.0768847 1.81579e-20)
(0.275587 -0.0808028 7.88914e-21)
(0.306908 -0.0838235 -6.10844e-20)
(0.338625 -0.0857739 -7.90492e-20)
(0.370421 -0.086419 1.66488e-20)
(0.402402 -0.0851219 -1.72974e-20)
(0.431796 -0.0822539 2.06503e-20)
(0.467636 -0.0724447 4.93209e-20)
(0.000267468 1.90056e-05 -3.15193e-20)
(0.00579083 -0.00415393 2.68775e-20)
(0.0162342 -0.010116 1.26889e-20)
(0.0303636 -0.0174748 1.02874e-19)
(0.0478144 -0.0253848 -1.09191e-19)
(0.0680278 -0.0334897 -9.03613e-20)
(0.0906477 -0.0414615 1.74255e-20)
(0.115337 -0.049106 -3.88348e-20)
(0.141821 -0.0562804 1.21031e-20)
(0.169856 -0.0628892 -1.59609e-19)
(0.199222 -0.0688621 5.3089e-20)
(0.229718 -0.0741422 1.89609e-20)
(0.261149 -0.0786732 9.33431e-20)
(0.293327 -0.0823863 -3.62414e-20)
(0.326053 -0.0851823 -1.56846e-20)
(0.359131 -0.086896 1.03543e-19)
(0.392231 -0.0873044 -1.13855e-19)
(0.425484 -0.0857386 9.15531e-21)
(0.455968 -0.082672 2.455e-20)
(0.493251 -0.0720643 5.3146e-20)
(0.000542602 -0.000365499 -5.75824e-20)
(0.00688074 -0.00516413 2.11193e-20)
(0.0184049 -0.0115735 -1.25904e-20)
(0.0337673 -0.0192742 -1.76017e-19)
(0.0525732 -0.0274199 6.59833e-20)
(0.0742206 -0.0356768 3.43949e-20)
(0.0983297 -0.043726 -2.23205e-20)
(0.124542 -0.0513834 7.78285e-20)
(0.152568 -0.0585134 -7.84359e-20)
(0.182149 -0.065027 1.63735e-19)
(0.213055 -0.070859 -1.05591e-19)
(0.245074 -0.075958 -1.37377e-19)
(0.278002 -0.0802732 -3.73519e-20)
(0.311641 -0.0837424 6.06149e-21)
(0.345783 -0.0862751 9.17568e-20)
(0.380222 -0.0877163 -9.69352e-20)
(0.414622 -0.0878584 5.86914e-20)
(0.449133 -0.086005 1.97626e-21)
(0.480696 -0.0827466 2.11667e-20)
(0.519398 -0.0713284 -1.56698e-19)
(0.000858067 -0.000778204 9.64823e-20)
(0.0080813 -0.00623395 -7.38705e-20)
(0.0207494 -0.0131016 6.50468e-20)
(0.0374021 -0.0211418 1.08187e-19)
(0.0576152 -0.0295104 -6.53955e-20)
(0.0807445 -0.0378992 6.27723e-20)
(0.106386 -0.0459999 4.77043e-20)
(0.134161 -0.0536404 -6.08312e-20)
(0.163764 -0.0606932 -4.76635e-20)
(0.194922 -0.0670764 -9.09841e-20)
(0.227395 -0.072731 1.6206e-19)
(0.26096 -0.0776111 1.58678e-19)
(0.295402 -0.0816718 -6.11849e-20)
(0.330512 -0.0848577 5.28776e-20)
(0.366073 -0.0870879 3.52874e-20)
(0.401872 -0.088219 4.96116e-20)
(0.437561 -0.0880635 -3.07351e-20)
(0.473309 -0.0859024 2.07218e-20)
(0.505936 -0.0824607 7.26625e-20)
(0.546025 -0.0702263 -4.47773e-21)
(0.00121621 -0.00121783 -1.08724e-19)
(0.00939788 -0.0073599 2.32949e-20)
(0.0232743 -0.0146948 -3.08174e-20)
(0.0412753 -0.0230706 -1.61431e-20)
(0.0629477 -0.0316479 1.05678e-20)
(0.0876056 -0.0401471 -2.53891e-20)
(0.114822 -0.0482726 -6.46942e-20)
(0.144197 -0.0558654 9.64213e-20)
(0.175409 -0.0628074 1.16887e-19)
(0.208173 -0.0690249 8.65756e-20)
(0.242236 -0.0744653 -1.37311e-19)
(0.277363 -0.0790885 -1.17158e-19)
(0.313331 -0.082856 -2.08188e-20)
(0.34992 -0.0857193 -4.07427e-20)
(0.386902 -0.0876074 5.27676e-20)
(0.424052 -0.0883898 -3.52687e-20)
(0.461014 -0.0879027 2.30928e-20)
(0.497973 -0.085412 1.98213e-20)
(0.531645 -0.0817964 -1.30204e-19)
(0.573079 -0.0687468 1.09431e-20)
(0.00161934 -0.00168292 -2.05937e-20)
(0.0108357 -0.00853808 1.43595e-19)
(0.0259866 -0.0163473 1.84528e-20)
(0.0453942 -0.025053 -5.05093e-20)
(0.0685774 -0.0338234 -7.841e-20)
(0.0948097 -0.0424103 1.87626e-20)
(0.123641 -0.0505326 8.71522e-20)
(0.154651 -0.0580461 -3.1668e-20)
(0.187502 -0.0648434 -8.46441e-20)
(0.221896 -0.0708593 -3.35709e-20)
(0.257568 -0.0760485 9.6806e-20)
(0.294272 -0.0803773 -3.47183e-20)
(0.331775 -0.0838132 4.55615e-21)
(0.369844 -0.086315 -7.56903e-20)
(0.408241 -0.0878211 2.42798e-20)
(0.446731 -0.0882152 8.04104e-20)
(0.484947 -0.0873601 4.43039e-20)
(0.523083 -0.0845154 -7.75402e-20)
(0.55778 -0.0807342 -4.41723e-20)
(0.600505 -0.066878 1.89949e-20)
(0.00206968 -0.00217186 -1.10749e-20)
(0.0123997 -0.00976416 -1.78108e-19)
(0.0288924 -0.0180525 1.19656e-20)
(0.0497654 -0.0270805 -4.91818e-20)
(0.0745105 -0.0360267 -3.26389e-20)
(0.102362 -0.0446774 -4.95851e-20)
(0.132846 -0.0527676 5.39259e-20)
(0.165523 -0.0601696 -4.81624e-21)
(0.20004 -0.0667876 -4.75413e-20)
(0.236085 -0.0725659 -3.47511e-21)
(0.273381 -0.0774672 1.01605e-19)
(0.311673 -0.0814644 1.68452e-20)
(0.350713 -0.0845313 6.89175e-20)
(0.39026 -0.0866333 9.1313e-20)
(0.430065 -0.0877183 -3.38103e-20)
(0.469877 -0.0876839 -5.82099e-20)
(0.509324 -0.0864215 -1.91373e-20)
(0.548599 -0.0831946 -6.93975e-20)
(0.5843 -0.0792527 5.28127e-21)
(0.628248 -0.0646064 3.00699e-20)
(0.00256939 -0.00268286 -1.88228e-20)
(0.0140948 -0.0110334 5.36443e-20)
(0.0319979 -0.0198032 -6.92841e-20)
(0.0543952 -0.0291441 6.64223e-20)
(0.0807525 -0.0382473 1.18141e-19)
(0.110265 -0.0469364 1.30867e-19)
(0.142439 -0.0549646 -2.8153e-20)
(0.176814 -0.0622222 5.64118e-20)
(0.21302 -0.0686258 -6.635e-20)
(0.250733 -0.0741306 -4.6674e-20)
(0.289665 -0.0787076 -5.07653e-20)
(0.329548 -0.0823368 1.02023e-19)
(0.370125 -0.0849982 -2.87705e-20)
(0.411143 -0.0866639 -6.97354e-20)
(0.452341 -0.0872897 6.58293e-20)
(0.493457 -0.086787 -8.14558e-20)
(0.534108 -0.0850751 -4.38851e-20)
(0.574478 -0.0814329 1.25473e-19)
(0.611166 -0.0773272 3.0316e-20)
(0.656248 -0.0619159 -4.39108e-20)
(0.00312056 -0.003214 1.11049e-19)
(0.0159255 -0.0123407 5.53081e-20)
(0.0353085 -0.0215918 8.93146e-20)
(0.0592892 -0.031234 1.25918e-20)
(0.0873085 -0.0404736 3.07151e-20)
(0.118525 -0.0491745 -3.12506e-20)
(0.152422 -0.0571099 -3.44571e-20)
(0.188521 -0.0641894 -8.07912e-20)
(0.226437 -0.0703435 -1.86485e-20)
(0.265832 -0.0755389 -2.16637e-20)
(0.306406 -0.0797557 6.45181e-21)
(0.34788 -0.0829815 -4.12566e-20)
(0.389988 -0.0852028 -1.00138e-19)
(0.432465 -0.0863974 2.63128e-20)
(0.475039 -0.0865283 -6.9884e-20)
(0.517436 -0.0855186 -7.92287e-21)
(0.559264 -0.0833126 8.73233e-20)
(0.600682 -0.0792164 -1.70234e-20)
(0.638346 -0.0749286 6.32836e-21)
(0.684441 -0.0587862 -2.90032e-20)
(0.00372519 -0.00376318 -3.71235e-20)
(0.017896 -0.0136804 -1.94012e-20)
(0.0388296 -0.02341 -4.57447e-20)
(0.0644526 -0.0333397 7.48225e-20)
(0.0941825 -0.0426936 -6.22209e-20)
(0.127142 -0.0513784 4.00042e-20)
(0.162795 -0.0591891 -1.66575e-21)
(0.200642 -0.0660563 -1.29547e-19)
(0.240284 -0.0719255 5.29113e-20)
(0.28137 -0.0767758 2.89156e-20)
(0.323589 -0.0805974 -4.74407e-20)
(0.36665 -0.0833858 -3.39591e-20)
(0.410276 -0.0851341 1.67433e-19)
(0.454194 -0.085826 -4.20513e-21)
(0.498123 -0.0854294 3.42229e-20)
(0.541774 -0.0838766 5.18725e-20)
(0.584753 -0.0811307 -2.34988e-20)
(0.627173 -0.0765356 -8.73714e-20)
(0.665816 -0.0720226 1.18136e-19)
(0.712762 -0.0551939 1.0529e-20)
(0.00438517 -0.00432816 1.03232e-19)
(0.0200103 -0.0150467 9.57366e-21)
(0.0425656 -0.0252491 5.04497e-20)
(0.0698897 -0.0354502 -5.58332e-20)
(0.101378 -0.0448944 -4.29781e-20)
(0.136119 -0.0535339 -4.0861e-20)
(0.173556 -0.0611871 -5.36709e-20)
(0.213172 -0.0678072 4.70054e-20)
(0.254554 -0.073356 7.26584e-20)
(0.297337 -0.0778261 -1.92989e-20)
(0.341196 -0.0812182 4.2442e-21)
(0.385833 -0.083537 8.813e-20)
(0.430961 -0.0847822 -1.61871e-19)
(0.476298 -0.0849428 3.50266e-20)
(0.521554 -0.0839908 6.12747e-20)
(0.566432 -0.0818637 -4.94264e-20)
(0.610536 -0.0785328 2.00606e-20)
(0.653916 -0.073389 5.8141e-20)
(0.693565 -0.0685711 -1.09557e-19)
(0.741146 -0.0511149 7.53221e-20)
(0.00510226 -0.00490655 -1.60052e-19)
(0.022272 -0.0164333 -3.9309e-20)
(0.0465208 -0.0270999 2.90874e-20)
(0.0756045 -0.0375541 -4.79591e-20)
(0.108897 -0.0470626 5.45438e-20)
(0.145456 -0.0556262 -1.41437e-20)
(0.184705 -0.0630884 3.60839e-20)
(0.226108 -0.0694262 6.62523e-20)
(0.269238 -0.0746191 -1.38975e-19)
(0.313717 -0.0786741 1.01739e-19)
(0.35921 -0.0816039 -3.61708e-21)
(0.405407 -0.0834224 -6.54079e-20)
(0.452014 -0.0841371 1.65955e-19)
(0.49874 -0.0837424 -3.27791e-20)
(0.545292 -0.0822127 -6.6816e-21)
(0.591364 -0.0794872 4.28365e-20)
(0.636571 -0.0755316 4.08199e-20)
(0.68088 -0.0697879 -2.33285e-21)
(0.7216 -0.0645285 6.56712e-20)
(0.769519 -0.0464978 3.64961e-20)
(0.00587825 -0.005496 -2.50964e-20)
(0.0246844 -0.0178337 -4.23533e-20)
(0.0506989 -0.0289529 -4.73434e-20)
(0.0816 -0.0396392 1.05105e-19)
(0.116743 -0.0491845 1.45578e-20)
(0.155153 -0.0576402 3.72929e-20)
(0.196237 -0.0648769 6.20164e-20)
(0.239441 -0.0708969 -3.23109e-20)
(0.284324 -0.0756985 4.79019e-21)
(0.330496 -0.0793044 -9.11372e-20)
(0.377609 -0.0817401 -1.53535e-20)
(0.425345 -0.0830299 3.30568e-20)
(0.4734 -0.0831899 -6.49158e-20)
(0.52148 -0.0822204 4.15592e-20)
(0.569289 -0.0800981 3.72351e-20)
(0.616522 -0.0767602 2.19175e-20)
(0.662812 -0.0721515 -1.1633e-20)
(0.708036 -0.0657628 -9.77763e-20)
(0.749931 -0.0598211 -6.79659e-20)
(0.797744 -0.0411819 -3.8738e-20)
(0.00671498 -0.00609425 1.05116e-19)
(0.0272509 -0.0192415 4.77791e-20)
(0.0551032 -0.0307984 8.3132e-20)
(0.087879 -0.0416936 -9.58473e-20)
(0.124915 -0.0512462 -4.47754e-21)
(0.165208 -0.0595607 -4.85791e-20)
(0.208148 -0.0665365 -3.5939e-20)
(0.253164 -0.0722028 9.59549e-20)
(0.299802 -0.076578 2.21133e-19)
(0.347657 -0.0797015 -2.30763e-20)
(0.396372 -0.0816126 2.00963e-20)
(0.445619 -0.0823475 -6.55714e-20)
(0.495086 -0.081932 -3.02003e-20)
(0.544476 -0.0803734 -8.09163e-20)
(0.593496 -0.0776519 -4.84472e-20)
(0.64185 -0.0737011 -2.39529e-20)
(0.689206 -0.0684338 8.7198e-22)
(0.735374 -0.0613737 -1.67277e-19)
(0.778628 -0.0543549 1.05608e-19)
(0.825616 -0.0349914 -8.25614e-21)
(0.00761308 -0.00669788 -1.40232e-20)
(0.029973 -0.0206488 -8.79447e-20)
(0.0597354 -0.0326252 -1.32662e-19)
(0.094442 -0.0437033 -3.5112e-20)
(0.133413 -0.0532318 -5.0206e-20)
(0.175619 -0.0613707 3.08891e-20)
(0.220433 -0.0680495 2.01431e-20)
(0.267268 -0.0733261 -3.10914e-20)
(0.315656 -0.0772399 -1.82785e-19)
(0.365181 -0.0798486 1.9065e-19)
(0.415474 -0.0812063 5.66659e-20)
(0.466196 -0.0813625 -8.91456e-20)
(0.517032 -0.0803539 1.00603e-19)
(0.567681 -0.0781974 8.07182e-20)
(0.617856 -0.0748788 -2.54406e-21)
(0.667282 -0.0703318 -2.23223e-21)
(0.715684 -0.064437 1.00606e-20)
(0.762887 -0.0567304 7.86014e-20)
(0.807959 -0.0482249 -7.38535e-20)
(0.853695 -0.0286324 -1.01923e-19)
(0.00856893 -0.00729943 -1.02825e-19)
(0.0328473 -0.0220429 6.64079e-20)
(0.0645913 -0.0344167 1.95488e-20)
(0.101284 -0.0456492 5.07047e-20)
(0.14223 -0.0551203 3.05887e-20)
(0.186376 -0.0630479 -1.8155e-20)
(0.233078 -0.0693934 -4.39631e-20)
(0.281736 -0.0742443 -1.06029e-19)
(0.331866 -0.0776627 4.67397e-20)
(0.383042 -0.0797253 -2.07945e-19)
(0.434883 -0.0805028 -7.81777e-20)
(0.487042 -0.0800589 2.03835e-19)
(0.539196 -0.0784435 -9.73863e-20)
(0.591044 -0.0756854 -7.43566e-20)
(0.642307 -0.0717806 1.0631e-20)
(0.692737 -0.0666717 -4.50579e-21)
(0.74214 -0.0602255 5.27957e-21)
(0.790453 -0.0520108 4.5061e-20)
(0.838081 -0.0421086 -1.58832e-20)
(0.885496 -0.0244566 -2.70967e-20)
(0.0095825 -0.00789523 2.34464e-20)
(0.035874 -0.0234154 8.43283e-20)
(0.0696711 -0.0361614 3.8417e-20)
(0.108403 -0.047517 -1.76859e-20)
(0.151362 -0.0568958 -8.24672e-21)
(0.197472 -0.0645754 -5.49914e-20)
(0.246074 -0.0705505 3.86783e-20)
(0.296554 -0.0749399 7.31713e-20)
(0.348415 -0.0778293 -6.07293e-20)
(0.401217 -0.0793159 1.79784e-19)
(0.454571 -0.0794879 9.73136e-20)
(0.508119 -0.078425 -3.77747e-20)
(0.561533 -0.076192 1.51105e-20)