/*--------------------------------*- C++ -*----------------------------------*\
  =========                 |
  \\      /  F ield         | OpenFOAM: The Open Source CFD Toolbox
   \\    /   O peration     | Website:  https://openfoam.org
    \\  /    A nd           | Version:  7
     \\/     M anipulation  |
\*---------------------------------------------------------------------------*/
FoamFile
{
    version     2.0;
    format      ascii;
    class       volVectorField;
    location    "10";
    object      U;
}
// * * * * * * * * * * * * * * * * * * * * * * * * * * * * * * * * * * * * * //

dimensions      [0 1 -1 0 0 0 0];

internalField   nonuniform List<vector> 
656
(
(0.159983 0.0168581 1.46832e-20)
(0.321236 0.0179369 -8.43966e-20)
(0.159983 -0.0168581 -1.46832e-20)
(0.321236 -0.0179369 8.43966e-20)
(0.451042 -0.0166137 6.82051e-20)
(0.564384 -0.0143228 1.85849e-20)
(0.651444 -0.0120458 -1.06312e-20)
(0.721893 -0.0100261 5.61181e-20)
(0.777208 -0.00836163 8.34399e-21)
(0.821907 -0.00699909 1.73861e-20)
(0.857968 -0.00589053 -1.37332e-20)
(0.162287 -0.0504575 4.76134e-20)
(0.323551 -0.0537074 6.94498e-20)
(0.453129 -0.0497582 -1.03628e-19)
(0.566148 -0.0429058 -4.67502e-20)
(0.652921 -0.0360894 1.75907e-20)
(0.723126 -0.0300406 -5.92747e-20)
(0.778246 -0.0250545 7.45981e-20)
(0.822788 -0.0209721 1.09667e-21)
(0.858737 -0.0176495 2.51418e-20)
(0.166873 -0.0837154 -1.21875e-19)
(0.328164 -0.0891725 -1.34902e-19)
(0.45729 -0.0826585 3.06425e-19)
(0.569667 -0.0713041 9.79759e-20)
(0.655868 -0.0599909 -2.22823e-19)
(0.725585 -0.0499433 -2.36803e-20)
(0.780319 -0.0416563 -1.8599e-19)
(0.824547 -0.034869 -8.09784e-20)
(0.860275 -0.029341 -2.05704e-20)
(0.173702 -0.11641 2.02749e-19)
(0.335041 -0.124132 2.30547e-19)
(0.463499 -0.115154 -3.51599e-19)
(0.574923 -0.0993958 -2.59249e-20)
(0.660272 -0.0836567 1.55174e-20)
(0.729261 -0.0696606 -2.6083e-19)
(0.783419 -0.058107 -2.00657e-20)
(0.827179 -0.0486395 3.56206e-20)
(0.862575 -0.0409204 -1.90733e-19)
(0.182712 -0.148322 1.81863e-20)
(0.344129 -0.158389 1.17368e-19)
(0.471718 -0.147087 2.90999e-20)
(0.581887 -0.127061 -3.70321e-19)
(0.666113 -0.106994 5.65188e-19)
(0.73414 -0.0891197 3.74338e-19)
(0.787534 -0.0743475 -1.69323e-19)
(0.830675 -0.0622343 -1.23872e-19)
(0.865633 -0.0523435 1.29731e-19)
(0.193822 -0.179241 -1.9401e-19)
(0.355362 -0.19175 -8.28898e-19)
(0.481895 -0.178301 -1.77059e-19)
(0.590523 -0.154181 -2.79134e-19)
(0.673364 -0.129913 -5.31109e-19)
(0.7402 -0.108249 1.88834e-19)
(0.79265 -0.0903197 4.44331e-19)
(0.835023 -0.0756049 -4.93979e-20)
(0.86944 -0.063567 -2.66074e-19)
(0.206933 -0.208962 9.91848e-21)
(0.368655 -0.224029 7.2985e-19)
(0.493966 -0.208644 -2.13284e-19)
(0.600786 -0.18064 2.54024e-19)
(0.68199 -0.152324 -3.82139e-20)
(0.747418 -0.12698 -1.275e-19)
(0.798748 -0.105967 -1.79468e-20)
(0.840209 -0.0887041 5.86802e-19)
(0.873987 -0.0745483 4.21525e-19)
(0.221928 -0.23729 5.77056e-19)
(0.383907 -0.255045 -7.469e-19)
(0.507855 -0.237971 1.80664e-20)
(0.61262 -0.206326 3.25641e-19)
(0.691953 -0.17414 6.768e-19)
(0.755763 -0.145243 -8.42073e-19)
(0.805804 -0.121235 3.89702e-19)
(0.846217 -0.101487 -2.89861e-19)
(0.879261 -0.0852462 -3.93153e-20)
(0.401004 -0.284627 5.37846e-19)
(0.523473 -0.266139 6.49045e-19)
(0.625962 -0.231131 -1.65428e-19)
(0.703206 -0.195279 -1.64411e-19)
(0.765201 -0.162975 6.96166e-19)
(0.813794 -0.136071 -5.11086e-19)
(0.853026 -0.113909 1.78526e-19)
(0.885247 -0.0956206 -3.44848e-19)
(0.419816 -0.312613 4.53293e-19)
(0.540723 -0.293013 -1.64908e-20)
(0.64074 -0.25495 2.12146e-20)
(0.715697 -0.21566 -2.80781e-19)
(0.775694 -0.180112 -6.53738e-20)
(0.822688 -0.150424 -5.32829e-19)
(0.860615 -0.125929 -1.81198e-19)
(0.89193 -0.105633 3.56215e-19)
(0.4402 -0.338848 -4.88983e-19)
(0.559492 -0.318466 2.82438e-19)
(0.656876 -0.277683 8.98042e-20)
(0.729367 -0.235206 3.76432e-20)
(0.787197 -0.196596 -1.93687e-20)
(0.832453 -0.164248 9.22954e-19)
(0.868958 -0.137509 -4.672e-20)
(0.89929 -0.115248 -7.72477e-20)
(0.462 -0.363194 3.6251e-19)
(0.579661 -0.342376 -8.74735e-19)
(0.674281 -0.299237 7.93044e-19)
(0.744153 -0.253845 3.34796e-19)
(0.799664 -0.21237 -4.22168e-19)
(0.843052 -0.177497 -4.32361e-19)
(0.878028 -0.148613 2.56538e-19)
(0.907304 -0.124432 3.01248e-19)
(0.485048 -0.385521 -6.56365e-19)
(0.601099 -0.364632 1.1404e-19)
(0.69286 -0.319522 -5.97118e-19)
(0.759985 -0.271509 -1.02965e-18)
(0.813042 -0.227381 5.25825e-19)
(0.854446 -0.190131 -1.127e-19)
(0.887794 -0.159207 -4.97254e-19)
(0.915948 -0.133153 -3.59903e-19)
(0.509164 -0.405713 4.20418e-19)
(0.623665 -0.38513 4.56245e-19)
(0.712511 -0.338455 5.12865e-20)
(0.776788 -0.288134 8.70689e-19)
(0.827275 -0.241581 -2.62873e-19)
(0.866591 -0.20211 3.12356e-19)
(0.898224 -0.169262 3.42846e-19)
(0.92519 -0.141384 7.59711e-20)
(0.53416 -0.42367 3.72271e-19)
(0.647211 -0.403776 -3.95691e-19)
(0.733126 -0.355961 -7.41927e-19)
(0.794483 -0.30366 6.08241e-20)
(0.842304 -0.254924 6.9882e-19)
(0.879442 -0.213402 -3.20803e-19)
(0.909282 -0.178751 -6.3433e-19)
(0.934994 -0.149101 -1.28114e-19)
(0.559839 -0.439303 -1.18079e-19)
(0.671578 -0.420488 2.83147e-19)
(0.754587 -0.371969 5.47745e-19)
(0.812983 -0.318032 -8.7176e-19)
(0.858067 -0.267369 -5.01182e-19)
(0.89295 -0.223973 2.35751e-19)
(0.92093 -0.187651 4.16302e-19)
(0.945319 -0.156289 2.1843e-19)
(0.696603 -0.435192 -5.66172e-20)
(0.776774 -0.386417 9.04531e-20)
(0.832201 -0.331202 -7.56701e-20)
(0.874496 -0.278878 -2.11856e-19)
(0.907063 -0.233797 -3.96569e-19)
(0.933133 -0.19594 2.28996e-19)
(0.956115 -0.162928 1.44267e-19)
(0.722114 -0.447825 4.22377e-19)
(0.799559 -0.399248 8.86577e-20)
(0.852043 -0.343124 6.50322e-19)
(0.891522 -0.289417 8.68947e-20)
(0.921729 -0.242847 2.25561e-19)
(0.945852 -0.203593 -6.01109e-19)
(0.967318 -0.168971 1.67443e-19)
(0.747934 -0.458338 -6.54376e-19)
(0.822809 -0.410415 6.56277e-20)
(0.872411 -0.35376 -5.54858e-19)
(0.909075 -0.298957 1.5367e-19)
(0.936897 -0.251099 -5.50778e-20)
(0.959048 -0.210558 -2.97064e-19)
(0.978812 -0.17437 -8.13143e-19)
(0.77388 -0.46669 2.20585e-19)
(0.846385 -0.419876 -2.0561e-19)
(0.893203 -0.363075 2.02566e-19)
(0.927082 -0.307472 -1.28614e-19)
(0.952522 -0.25853 -1.64963e-19)
(0.972724 -0.216786 6.8507e-19)
(0.990426 -0.179309 3.79467e-19)
(0.870145 -0.427599 1.70718e-19)
(0.914315 -0.371043 3.02176e-19)
(0.945466 -0.314943 5.68078e-19)
(0.968564 -0.265129 2.16196e-19)
(0.987022 -0.222348 -7.86479e-19)
(1.00315 -0.184517 1.48724e-19)
(0.893941 -0.433558 -4.87001e-19)
(0.935637 -0.377638 -3.23152e-20)
(0.964146 -0.321356 -5.50638e-19)
(0.98493 -0.270919 1.01905e-19)
(1.00172 -0.227381 2.71571e-19)
(1.01592 -0.18978 2.4604e-19)
(0.917622 -0.437735 3.40391e-19)
(0.957054 -0.382843 2.10484e-20)
(0.983034 -0.326696 -7.86782e-20)
(1.00153 -0.27589 -1.25692e-19)
(1.01659 -0.231791 3.99721e-19)
(1.02882 -0.194396 -9.32196e-20)
(0.97845 -0.386644 9.04282e-21)
(1.00204 -0.33095 1.12999e-19)
(1.01829 -0.280024 2.82638e-19)
(1.03152 -0.235523 -6.14977e-19)
(1.04179 -0.198281 -1.65085e-19)
(0.999704 -0.389032 -2.55756e-19)
(1.02107 -0.33411 2.34608e-20)
(1.03514 -0.283306 7.54354e-20)
(1.04648 -0.23857 2.16024e-19)
(1.0548 -0.201466 2.63512e-19)
(1.02069 -0.390004 2.12362e-19)
(1.04003 -0.336168 -6.58338e-20)
(1.05201 -0.285729 -8.20335e-20)
(1.06142 -0.240931 3.22348e-19)
(1.06784 -0.203969 -3.16192e-19)
(1.05883 -0.337122 -5.04739e-20)
(1.06883 -0.287286 -1.29558e-19)
(1.07632 -0.242601 -1.86163e-19)
(1.08091 -0.205807 2.68712e-19)
(1.07737 -0.336971 1.82562e-19)
(1.08553 -0.287976 2.97403e-20)
(1.09114 -0.24358 1.81929e-19)
(1.09398 -0.206996 -1.67036e-19)
(1.10204 -0.287798 7.72076e-20)
(1.10585 -0.24387 1.32223e-20)
(1.10703 -0.207552 1.32371e-19)
(1.12039 -0.243474 -1.93796e-19)
(1.12002 -0.207492 -1.915e-19)
(0.99996 -0.00181555 5.96516e-21)
(0.999293 -0.00543528 1.28138e-21)
(0.998052 -0.00954666 -5.89992e-21)
(0.996394 -0.0144782 1.15598e-20)
(0.994353 -0.0205392 -2.81124e-21)
(0.992063 -0.0279588 2.93951e-20)
(0.989638 -0.0369336 -7.45285e-20)
(0.98731 -0.0475887 7.4737e-20)
(0.98526 -0.0600342 2.90496e-20)
(0.983877 -0.0742204 -4.88385e-20)
(0.983301 -0.0901909 -1.73359e-20)
(0.98419 -0.107511 9.79695e-22)
(0.986148 -0.126367 6.63827e-20)
(0.990566 -0.144949 -1.0165e-20)
(0.993848 -0.164345 -8.00038e-21)
(0.999954 -0.00174272 3.03406e-21)
(0.999216 -0.00521946 -1.10777e-20)
(0.997839 -0.00916433 9.2001e-21)
(0.995985 -0.0138869 -3.18118e-20)
(0.993677 -0.0196776 8.85772e-21)
(0.991038 -0.026756 2.82616e-20)
(0.988166 -0.035313 -4.53708e-20)
(0.985272 -0.0454712 -6.83149e-21)
(0.98253 -0.057352 7.69499e-20)
(0.980297 -0.070918 -3.61604e-20)
(0.978732 -0.0862512 -4.269e-20)
(0.978409 -0.10296 -3.32278e-20)
(0.979071 -0.121275 -3.1342e-20)
(0.9816 -0.139469 1.3203e-19)
(0.983277 -0.158006 -4.27693e-20)
(0.999949 -0.00166566 7.93433e-21)
(0.999149 -0.00499104 4.85474e-21)
(0.997646 -0.00875723 -8.34692e-21)
(0.995611 -0.0132623 3.03356e-22)
(0.993056 -0.0187699 -1.5868e-20)
(0.990092 -0.0254966 5.31349e-21)
(0.986804 -0.0336279 4.59413e-20)
(0.983381 -0.0432874 -6.90933e-20)
(0.979983 -0.0546077 1.05897e-20)
(0.976936 -0.0675721 6.77001e-20)
(0.974401 -0.0822883 -2.19715e-20)
(0.972879 -0.0984309 -1.08766e-19)
(0.972203 -0.11619 1.62009e-19)
(0.972994 -0.134026 1.15264e-20)
(0.97306 -0.151963 -8.04779e-20)
(0.999946 -0.00158615 -2.84568e-20)
(0.999089 -0.00475693 -2.15928e-20)
(0.99747 -0.00834441 1.56735e-20)
(0.995265 -0.0126245 9.06575e-21)
(0.992482 -0.0178598 7.87411e-24)
(0.989215 -0.024246 2.85421e-20)
(0.985536 -0.031968 -3.07049e-20)
(0.981615 -0.041152 5.6926e-20)
(0.977595 -0.0519397 -6.33445e-20)
(0.973766 -0.0643335 4.29279e-20)
(0.970288 -0.0784571 -2.5834e-20)
(0.967597 -0.0940425 5.476e-20)
(0.965588 -0.11123 -1.41118e-20)
(0.964742 -0.128666 -3.74165e-20)
(0.963269 -0.146063 1.23425e-19)
(0.999944 -0.00150362 7.15826e-21)
(0.999036 -0.00451408 -4.1114e-21)
(0.997309 -0.0079199 -3.30131e-21)
(0.994948 -0.0119449 1.41973e-20)
(0.991949 -0.0169258 -5.44282e-20)
(0.9884 -0.0229684 -7.22471e-21)
(0.984357 -0.0302759 -1.89528e-21)
(0.979968 -0.0389761 6.97517e-20)
(0.975359 -0.049216 1.33296e-20)
(0.970787 -0.0610141 8.81418e-21)
(0.966404 -0.074502 -9.60834e-21)
(0.962588 -0.0894643 -5.84665e-20)
(0.959283 -0.105999 -5.18168e-20)
(0.956889 -0.122923 8.19262e-20)
(0.953931 -0.13973 -7.22025e-20)
(0.999942 -0.00141811 -7.62408e-22)
(0.998988 -0.00426206 3.38803e-20)
(0.997166 -0.00747778 1.86345e-20)
(0.994656 -0.0112705 -3.64448e-20)
(0.991454 -0.0159627 3.32099e-20)
(0.987647 -0.0216526 -3.36348e-20)
(0.983265 -0.0285344 2.6671e-20)
(0.978437 -0.0367356 -4.10003e-20)
(0.973275 -0.0464051 8.11466e-20)
(0.968002 -0.0575755 -3.00882e-20)
(0.96276 -0.0703812 -6.91308e-21)
(0.957873 -0.0846564 -4.21991e-20)
(0.953324 -0.100466 9.02863e-20)
(0.949462 -0.116782 -7.62845e-20)
(0.945061 -0.132954 3.87989e-20)
(0.999941 -0.00132996 -1.16948e-21)
(0.998944 -0.00400181 -1.33057e-20)
(0.997033 -0.00702159 -2.71806e-20)
(0.994388 -0.0106044 -3.24968e-20)
(0.991002 -0.014968 1.99305e-20)
(0.986951 -0.0203024 -2.02397e-21)
(0.982254 -0.0267497 -5.02903e-21)
(0.977019 -0.0344398 2.78277e-20)
(0.97134 -0.0435212 -4.03063e-21)
(0.96541 -0.0540382 -5.53929e-21)
(0.959357 -0.066125 -3.62571e-20)
(0.953461 -0.07966 -3.90053e-20)
(0.94773 -0.0946821 -1.56805e-20)
(0.942478 -0.110305 2.98494e-20)
(0.936685 -0.125782 1.26834e-19)
(0.999941 -0.00123952 -8.13174e-21)
(0.998905 -0.00373415 -6.17746e-21)
(0.996911 -0.00655239 1.5924e-20)
(0.994145 -0.00989635 1.94577e-20)
(0.990588 -0.0139484 1.73881e-20)
(0.986311 -0.018922 2.00779e-20)
(0.981324 -0.024927 1.34172e-20)
(0.975711 -0.0320954 1.816e-20)
(0.969552 -0.0405728 -5.34865e-20)
(0.963009 -0.0504132 4.49832e-20)
(0.956198 -0.0617474 8.41722e-20)
(0.949357 -0.0744916 -2.62713e-20)
(0.942513 -0.0886672 4.6378e-20)
(0.935952 -0.103511 1.43236e-21)
(0.928829 -0.118221 3.61879e-21)
(0.999941 -0.00114704 -1.64921e-20)
(0.99887 -0.00345969 3.53142e-20)
(0.9968 -0.00607107 2.8282e-20)
(0.993924 -0.009165 -1.74911e-20)
(0.99021 -0.0129185 -1.58018e-20)
(0.985725 -0.0175137 4.84837e-21)
(0.980472 -0.0230686 -3.37448e-20)
(0.97451 -0.029705 -2.59952e-20)
(0.967908 -0.0375632 5.80978e-21)
(0.960798 -0.0467043 8.90852e-20)
(0.953283 -0.0572535 -8.8746e-20)
(0.945564 -0.0691587 -4.86584e-20)
(0.937681 -0.0824298 3.84642e-20)
(0.929897 -0.0964109 1.35975e-19)
(0.921515 -0.110279 -9.02052e-20)
(0.999941 -0.00105276 1.26002e-20)
(0.998839 -0.00317901 -3.81026e-20)
(0.9967 -0.00557894 -6.80898e-20)
(0.993723 -0.00841947 2.33761e-20)
(0.989868 -0.0118727 3.03935e-20)
(0.985193 -0.0160768 1.24878e-20)
(0.979695 -0.0211766 -4.70155e-20)
(0.973414 -0.0272712 1.75232e-20)
(0.966405 -0.0344959 -2.41013e-20)
(0.958775 -0.0429162 9.12739e-21)
(0.950612 -0.0526502 -3.3467e-20)
(0.942085 -0.0636714 -5.25491e-21)
(0.93324 -0.0759833 1.48838e-20)
(0.92432 -0.0890242 -2.83019e-20)
(0.914761 -0.101975 4.01798e-20)
(0.999941 -0.000956886 2.61616e-20)
(0.998812 -0.00289273 1.33e-20)
(0.996611 -0.00507706 6.70487e-20)
(0.993542 -0.00766037 -5.87599e-21)
(0.98956 -0.0108018 -4.99747e-20)
(0.984713 -0.0146084 8.61778e-21)
(0.978992 -0.019253 7.58314e-21)
(0.972422 -0.0247973 -1.25053e-20)
(0.965043 -0.0313753 2.55759e-20)
(0.95694 -0.0390548 1.66149e-20)
(0.948185 -0.0479461 -6.46539e-21)
(0.93892 -0.0580422 3.63919e-20)
(0.929195 -0.0693436 -6.0744e-20)
(0.91923 -0.0813716 1.1332e-19)
(0.908582 -0.0933325 -1.77995e-19)
(0.999942 -0.000859628 1.92526e-21)
(0.998787 -0.00260143 6.11079e-21)
(0.996532 -0.00456632 -4.92358e-20)
(0.993381 -0.00688838 -3.6022e-21)
(0.989287 -0.00971137 1.25426e-20)
(0.984284 -0.0131174 -6.08961e-20)
(0.97836 -0.0173013 6.08923e-20)
(0.971532 -0.0222868 -2.88149e-20)
(0.96382 -0.0282059 5.08945e-21)
(0.95529 -0.0351266 -6.19841e-20)
(0.946002 -0.04315 6.2155e-20)
(0.93607 -0.0522837 -2.85534e-20)
(0.925547 -0.0625274 -5.20743e-22)
(0.914633 -0.0734754 1.11231e-20)
(0.90299 -0.0843766 4.92101e-21)
(0.999942 -0.000761166 6.0148e-21)
(0.998766 -0.00230568 -8.29608e-21)
(0.996463 -0.00404766 1.84778e-20)
(0.993238 -0.00610495 1.90308e-20)
(0.989047 -0.00860556 -2.08457e-20)
(0.983905 -0.0116261 3.6168e-20)
(0.977799 -0.0153257 -1.00895e-20)
(0.970742 -0.0197435 4.49103e-20)
(0.962735 -0.0249926 -2.92662e-20)
(0.953825 -0.031138 -1.1129e-21)
(0.944062 -0.038271 4.70814e-20)
(0.933536 -0.0464089 -7.39129e-20)
(0.922299 -0.0555518 2.1824e-20)
(0.910533 -0.065359 -3.03986e-20)
(0.897995 -0.0751361 -3.54082e-21)
(0.999943 -0.000661669 -2.17056e-20)
(0.998748 -0.00200604 1.96655e-20)
(0.996402 -0.00352202 5.3869e-21)
(0.993115 -0.00531152 -2.99593e-20)
(0.988836 -0.00748649 1.57127e-20)
(0.983574 -0.0101245 -1.14379e-21)
(0.977312 -0.0133277 -2.33187e-20)
(0.970053 -0.0171709 3.96317e-20)
(0.961786 -0.0217402 6.04812e-21)
(0.952545 -0.0270959 -1.24408e-20)
(0.942364 -0.0333185 -1.96677e-22)
(0.931318 -0.040431 -4.13456e-20)
(0.919453 -0.0484345 3.23741e-20)
(0.906935 -0.0570464 3.10426e-20)
(0.893607 -0.0656414 4.08953e-20)
(0.999944 -0.000561298 1.67574e-20)
(0.998733 -0.00170305 -1.88941e-20)
(0.996351 -0.00299035 1.99695e-20)
(0.993009 -0.00450937 8.51486e-21)
(0.988655 -0.00635513 -8.30701e-21)
(0.983293 -0.00859655 1.05388e-20)
(0.976897 -0.0113096 -5.89527e-21)
(0.969463 -0.0145729 1.66462e-20)
(0.960974 -0.0184537 -1.91164e-20)
(0.951448 -0.023007 5.57176e-21)
(0.94091 -0.0283019 9.50862e-21)
(0.929416 -0.0343635 2.29112e-20)
(0.91701 -0.0411937 -5.55901e-20)
(0.903844 -0.0485626 -3.18597e-20)
(0.889832 -0.055924 -9.31996e-21)
(0.999944 -0.000460204 2.02192e-21)
(0.99872 -0.00139723 -8.47572e-21)
(0.996309 -0.00245359 -1.08699e-20)
(0.992922 -0.00369974 4.81032e-21)
(0.988505 -0.0052134 -9.91093e-21)
(0.983059 -0.00705218 -1.21259e-20)
(0.976552 -0.00927507 3.5396e-21)
(0.968973 -0.011953 -4.65281e-21)
(0.960298 -0.0151383 2.25627e-20)
(0.950535 -0.0188784 -2.16409e-20)
(0.939697 -0.0232308 -2.57156e-20)
(0.92783 -0.0282198 3.51615e-20)
(0.914973 -0.0338479 -3.61381e-20)
(0.901263 -0.0399332 1.5501e-20)
(0.886677 -0.046017 1.44079e-20)
(0.999945 -0.000358527 -1.90072e-20)
(0.99871 -0.00108911 1.38714e-20)
(0.996275 -0.00191266 -3.14731e-21)
(0.992852 -0.00288396 5.28383e-21)
(0.988386 -0.00406338 1.22926e-20)
(0.982873 -0.00549665 2.70336e-21)
(0.976276 -0.00722724 1.08869e-20)
(0.96858 -0.00931532 1.23142e-21)
(0.959758 -0.011799 -3.07703e-20)
(0.949804 -0.0147171 1.43416e-20)
(0.938728 -0.018115 2.29219e-20)
(0.926561 -0.0220137 6.33312e-21)
(0.913341 -0.0264159 1.81582e-20)
(0.899194 -0.0311839 -3.70181e-20)
(0.884147 -0.0359538 4.90817e-20)
(0.999945 -0.000256405 5.33856e-22)
(0.998702 -0.000779204 8.01885e-22)
(0.99625 -0.00136849 4.36352e-21)
(0.9928 -0.00206339 1.34052e-20)
(0.988296 -0.00290697 -1.25296e-20)
(0.982734 -0.00393243 8.78214e-21)
(0.97607 -0.00516926 -2.14387e-21)
(0.968286 -0.0066637 4.07741e-22)
(0.959352 -0.00844114 1.6195e-21)
(0.949257 -0.0105304 9.12427e-22)
(0.938 -0.0129642 8.61599e-21)
(0.925609 -0.0157588 -3.45923e-20)
(0.912116 -0.0189166 2.00966e-20)
(0.897641 -0.0223412 -2.466e-20)
(0.882246 -0.0257687 4.46504e-20)
(0.999946 -0.000153968 5.21838e-21)
(0.998697 -0.000468028 -2.18562e-21)
(0.996234 -0.00082201 -6.90153e-21)
(0.992766 -0.0012394 -6.49885e-21)
(0.988236 -0.001746 4.96589e-21)
(0.982641 -0.00236193 2.65476e-22)
(0.975932 -0.00310424 -4.99794e-21)
(0.96809 -0.00400215 3.51714e-21)
(0.959082 -0.00506996 -9.70402e-22)
(0.948891 -0.00632549 1.77306e-21)
(0.937515 -0.00778847 1.80669e-21)
(0.924974 -0.00946916 1.15456e-20)
(0.911299 -0.0113692 2.62669e-21)
(0.896604 -0.0134314 -5.1702e-21)
(0.880977 -0.0154961 1.39676e-22)
(0.999946 -5.13428e-05 -1.91914e-22)
(0.998695 -0.000156092 2.77763e-21)
(0.996225 -0.000274152 -1.09782e-21)
(0.992748 -0.000413353 1.14185e-21)
(0.988206 -0.00058229 7.37337e-22)
(0.982595 -0.000787704 -1.91321e-21)
(0.975864 -0.00103516 2.06412e-21)
(0.967992 -0.00133467 -6.91929e-22)
(0.958947 -0.00169082 -8.47758e-22)
(0.948709 -0.00210964 -2.4091e-21)
(0.937273 -0.00259774 3.29817e-21)
(0.924656 -0.00315861 -3.31386e-21)
(0.910891 -0.0037928 -4.32581e-21)
(0.896085 -0.00448145 -6.60302e-22)
(0.880342 -0.00517103 7.59942e-22)
(0.998666 -0.0218923 0)
(0.99848 -0.029448 0)
(0.998621 -0.038348 0)
(0.999339 -0.0486176 0)
(1.00079 -0.060179 0)
(1.00334 -0.0729058 0)
(1.00697 -0.0865081 0)
(1.01231 -0.100771 0)
(1.01857 -0.115043 0)
(1.02759 -0.129172 0)
(1.0351 -0.140227 0)
(0.999989 -0.00198151 0)
(0.999722 -0.00589992 0)
(0.999236 -0.0103061 0)
(0.998651 -0.0155218 0)
(0.998036 -0.0218326 0)
(0.99755 -0.0294189 0)
(0.997334 -0.0383911 0)
(0.997642 -0.0487892 0)
(0.998638 -0.0605603 0)
(1.00071 -0.073588 0)
(1.00384 -0.0876165 0)
(1.00873 -0.10241 0)
(1.01455 -0.117369 0)
(1.02337 -0.13222 0)
(1.03051 -0.144009 0)
(0.999986 -0.00196591 0)
(0.999653 -0.00585583 0)
(0.999044 -0.010237 0)
(0.998284 -0.0154341 0)
(0.997438 -0.0217393 0)
(0.996665 -0.0293422 0)
(0.996103 -0.0383687 0)
(0.996012 -0.0488734 0)
(0.99656 -0.0608284 0)
(0.998147 -0.0741277 0)
(1.00078 -0.0885541 0)
(1.0052 -0.103847 0)
(1.01054 -0.119482 0)
(1.01911 -0.135028 0)
(1.02585 -0.147611 0)
(0.999982 -0.00194777 0)
(0.999588 -0.00580467 0)
(0.998861 -0.0101552 0)
(0.997936 -0.0153268 0)
(0.996871 -0.0216166 0)
(0.995824 -0.0292236 0)
(0.994932 -0.0382878 0)
(0.994452 -0.0488782 0)
(0.994561 -0.0609918 0)
(0.995668 -0.074533 0)
(0.997798 -0.0893268 0)
(1.00171 -0.105085 0)
(1.00657 -0.12138 0)
(1.01481 -0.137586 0)
(1.02112 -0.151041 0)
(0.999978 -0.00192753 0)
(0.999526 -0.00574772 0)
(0.99869 -0.010063 0)
(0.997608 -0.0152029 0)
(0.996337 -0.0214692 0)
(0.995029 -0.0290688 0)
(0.99382 -0.0381556 0)
(0.992966 -0.048812 0)
(0.992647 -0.06106 0)
(0.993278 -0.0748141 0)
(0.994901 -0.0899433 0)
(0.998295 -0.106131 0)
(1.00265 -0.123063 0)
(1.01047 -0.139888 0)
(1.01634 -0.15432 0)
(0.999974 -0.00190574 0)
(0.999468 -0.00568669 0)
(0.998528 -0.0099635 0)
(0.9973 -0.0150674 0)
(0.995834 -0.0213042 0)
(0.99428 -0.0288884 0)
(0.992769 -0.0379868 0)
(0.991555 -0.0486951 0)
(0.990821 -0.0610596 0)
(0.990981 -0.0750057 0)
(0.992099 -0.0904469 0)
(0.994951 -0.107038 0)
(0.998783 -0.12459 0)
(1.00609 -0.142009 0)
(1.01147 -0.157596 0)
(0.99997 -0.00188297 0)
(0.999413 -0.00562343 0)
(0.998377 -0.0098602 0)
(0.997011 -0.0149265 0)
(0.995362 -0.0211315 0)
(0.993576 -0.0286974 0)
(0.991778 -0.0378036 0)
(0.990219 -0.0485591 0)
(0.989082 -0.061034 0)
(0.988779 -0.0751658 0)
(0.989395 -0.0909118 0)
(0.991687 -0.107901 0)
(0.994984 -0.126066 0)
(1.00165 -0.144077 0)
(1.00655 -0.161127 0)
(0.999966 -0.00185827 0)
(0.999361 -0.00555501 0)
(0.998235 -0.00974802 0)
(0.996741 -0.0147715 0)
(0.99492 -0.0209373 0)
(0.992915 -0.0284741 0)
(0.990845 -0.0375722 0)
(0.988955 -0.0483519 0)
(0.987429 -0.0609052 0)
(0.98667 -0.0751797 0)
(0.986787 -0.0911735 0)
(0.988503 -0.10849 0)
(0.991252 -0.127173 0)
(0.997088 -0.145671 0)
(1.00157 -0.164288 0)
(1.04046 -0.146999 -4.2432e-20)
(1.03611 -0.150934 -2.00985e-19)
(1.04601 -0.152817 3.52599e-20)
(1.03176 -0.154717 1.01172e-19)
(1.04207 -0.1569 8.9948e-20)
(1.05137 -0.158967 1.73966e-19)
(1.02743 -0.15838 1.68101e-19)
(1.03816 -0.160932 -1.05156e-19)
(1.04784 -0.163331 -9.7111e-22)
(1.05782 -0.165426 6.12906e-20)
(1.02321 -0.16196 -1.82998e-19)
(1.03435 -0.164939 -1.1052e-20)
(1.04446 -0.167694 -8.41431e-20)
(1.0549 -0.170101 -5.87761e-20)
(1.06558 -0.172153 1.8766e-19)
(1.01925 -0.165507 2.68224e-19)
(1.03078 -0.168937 5.46822e-20)
(1.04137 -0.172064 5.63378e-20)
(1.05226 -0.174792 3.67995e-20)
(1.06337 -0.177106 -9.21983e-20)
(1.07463 -0.178971 -1.14498e-19)
(1.01543 -0.169479 4.23606e-21)
(1.02725 -0.173381 1.06476e-20)
(1.03837 -0.176855 -2.10339e-19)
(1.04975 -0.17985 1.46538e-19)
(1.06132 -0.182363 3.72272e-20)
(1.073 -0.184367 5.04197e-20)
(1.08478 -0.185857 -4.41613e-20)
)
;

boundaryField
{
    inlet
    {
        type            uniformFixedValue;
        uniformValue    constant (1 0 0);
        value           uniform (1 0 0);
    }
    outlet
    {
        type            pressureInletOutletVelocity;
        value           nonuniform 0();
    }
    cylinder
    {
        type            fixedValue;
        value           nonuniform 0();
    }
    top
    {
        type            symmetryPlane;
    }
    bottom
    {
        type            symmetryPlane;
    }
    defaultFaces
    {
        type            empty;
    }
    procBoundary4to0
    {
        type            processor;
        value           nonuniform List<vector> 
35
(
(1.09663 -0.186836 1.32906e-19)
(1.10852 -0.187307 6.51032e-20)
(1.13292 -0.206831 -7.11278e-22)
(1.12041 -0.187281 1.8682e-20)
(0.999326 -0.0219129 0)
(0.999451 -0.0294225 0)
(0.999962 -0.0382311 0)
(1.0011 -0.0483488 0)
(1.00301 -0.0596742 0)
(1.00604 -0.0720703 0)
(1.01016 -0.0852194 0)
(1.01592 -0.0989219 0)
(1.02259 -0.112502 0)
(1.03177 -0.125886 0)
(1.03962 -0.136255 0)
(0.999993 -0.00199415 0)
(0.999794 -0.00593563 0)
(0.999439 -0.0103603 0)
(0.999039 -0.0155865 0)
(0.999039 -0.0155865 0)
(1.04478 -0.142895 7.21804e-22)
(1.04478 -0.142895 7.21804e-22)
(1.04994 -0.148631 1.58421e-20)
(1.04994 -0.148631 1.58421e-20)
(1.05498 -0.154586 4.62741e-20)
(1.05498 -0.154586 4.62741e-20)
(1.06093 -0.160768 5.79672e-20)
(1.06093 -0.160768 5.79672e-20)
(1.06807 -0.167209 1.87794e-19)
(1.06807 -0.167209 1.87794e-19)
(1.07642 -0.173815 -2.08817e-19)
(1.07642 -0.173815 -2.08817e-19)
(1.08601 -0.180373 -5.13154e-20)
(1.08601 -0.180373 -5.13154e-20)
(1.09663 -0.186836 1.32906e-19)
)
;
    }
    procBoundary4to5
    {
        type            processor;
        value           nonuniform List<vector> 
38
(
(0.0373028 -0.00981225 1.32302e-20)
(0.0387289 -0.0293551 2.13328e-20)
(0.0415655 -0.0486603 1.42424e-19)
(0.045782 -0.0675756 -1.3887e-19)
(0.0513333 -0.0859526 5.87047e-19)
(0.05816 -0.103648 -1.01068e-18)
(0.0661893 -0.120524 3.13364e-19)
(0.0753357 -0.136453 3.49903e-19)
(0.238673 -0.264043 1.2597e-19)
(0.238673 -0.264043 1.2597e-19)
(0.257017 -0.289048 8.96091e-20)
(0.276795 -0.31215 6.57095e-19)
(0.29783 -0.333206 -9.57145e-19)
(0.31993 -0.352091 1.67047e-19)
(0.342895 -0.368697 6.37699e-19)
(0.366515 -0.382934 2.98331e-20)
(0.390574 -0.394731 -8.34987e-20)
(0.585995 -0.452541 3.24129e-19)
(0.585995 -0.452541 3.24129e-19)
(0.612419 -0.463329 2.392e-19)
(0.638895 -0.471627 -5.76316e-19)
(0.665203 -0.477412 4.00816e-20)
(0.79976 -0.472852 -6.13949e-20)
(0.79976 -0.472852 -6.13949e-20)
(0.825384 -0.476808 -3.1276e-20)
(0.850562 -0.478561 -1.58426e-19)
(0.941034 -0.440123 -4.14604e-20)
(0.941034 -0.440123 -4.14604e-20)
(0.96402 -0.440719 8.33331e-20)
(0.98642 -0.439532 -2.09693e-19)
(1.04129 -0.389561 -6.34098e-20)
(1.04129 -0.389561 -6.34098e-20)
(1.06137 -0.387708 1.55303e-19)
(1.09556 -0.335718 3.82418e-20)
(1.09556 -0.335718 3.82418e-20)
(1.1183 -0.286756 2.16384e-20)
(1.1183 -0.286756 2.16384e-20)
(1.13474 -0.242401 -2.26043e-20)
)
;
    }
    procBoundary4to8
    {
        type            processor;
        value           nonuniform List<vector> 
25
(
(0.162287 0.0504575 3.77919e-20)
(0.323551 0.0537074 6.95791e-20)
(0.451042 0.0166137 6.38022e-20)
(0.451042 0.0166137 6.38022e-20)
(0.564384 0.0143228 2.96879e-20)
(0.651444 0.0120458 -1.90739e-20)
(0.721893 0.0100261 5.79288e-20)
(0.777208 0.00836162 6.76967e-21)
(0.821907 0.00699908 2.46965e-20)
(0.857968 0.00589052 -2.2181e-20)
(0.999946 5.13434e-05 -5.88863e-23)
(0.998695 0.000156093 2.28947e-21)
(0.996225 0.000274154 -6.05076e-22)
(0.992748 0.000413356 1.48481e-21)
(0.988206 0.000582292 -1.1538e-21)
(0.982595 0.000787707 2.86124e-22)
(0.975864 0.00103517 1.1534e-21)
(0.967992 0.00133467 -1.22787e-21)
(0.958947 0.00169082 9.29677e-22)
(0.948709 0.00210965 -1.22217e-21)
(0.937273 0.00259774 -3.25459e-21)
(0.924656 0.00315861 7.54626e-22)
(0.910891 0.0037928 7.77979e-22)
(0.896085 0.00448145 8.2827e-23)
(0.880342 0.00517102 -3.12101e-22)
)
;
    }
    procBoundary4to9
    {
        type            processor;
        value           uniform (0.0373028 0.00981224 1.06299e-20);
    }
}


// ************************************************************************* //
