# Force coefficients
# liftDir     : (0.000000e+00 1.000000e+00 0.000000e+00)
# dragDir     : (1.000000e+00 0.000000e+00 0.000000e+00)
# pitchAxis   : (0.000000e+00 0.000000e+00 1.000000e+00)
# magUInf     : 1.000000e+00
# lRef        : 1.000000e+00
# Aref        : 1.000000e-01
# CofR        : (0.000000e+00 0.000000e+00 0.000000e+00)
# Time        	Cm            	Cd            	Cl            	Cl(f)         	Cl(r)         
0.005         	1.619746e-10	3.626934e+02	-8.015803e-06	-4.007740e-06	-4.008064e-06
0.01          	-6.679357e-08	1.090888e+01	7.611849e-06	3.739131e-06	3.872718e-06
0.015         	-5.127774e-08	2.597769e+01	-1.734151e-06	-9.183534e-07	-8.157980e-07
0.02          	-7.569374e-08	2.156383e+01	1.116431e-06	4.825219e-07	6.339094e-07
0.025         	-8.674778e-08	1.945218e+01	5.097464e-07	1.681254e-07	3.416210e-07
0.03          	-9.217232e-08	1.759700e+01	4.253969e-07	1.205261e-07	3.048708e-07
0.035         	-9.370915e-08	1.612012e+01	3.392766e-07	7.592917e-08	2.633475e-07
0.04          	-9.285023e-08	1.491194e+01	2.770489e-07	4.567422e-08	2.313747e-07
0.045         	-9.056417e-08	1.391679e+01	2.447561e-07	3.181387e-08	2.129422e-07
0.05          	-8.748917e-08	1.308750e+01	1.843989e-07	4.710276e-09	1.796886e-07
0.055         	-6.144820e-08	1.238892e+01	2.189715e-07	4.803757e-08	1.709340e-07
0.06          	-4.228026e-08	1.179417e+01	1.926842e-07	5.406185e-08	1.386224e-07
0.065         	-2.824169e-08	1.128258e+01	1.749082e-07	5.921239e-08	1.156958e-07
0.07          	-1.803002e-08	1.083819e+01	1.564434e-07	6.019167e-08	9.625171e-08
0.075         	-1.066644e-08	1.044868e+01	1.897195e-07	8.419332e-08	1.055262e-07
0.08          	-5.427278e-09	1.010439e+01	1.522486e-07	7.069700e-08	8.155156e-08
0.085         	-1.748675e-09	9.797601e+00	1.720920e-07	8.429732e-08	8.779467e-08
0.09          	7.628704e-10	9.522224e+00	1.544447e-07	7.798522e-08	7.645948e-08
0.095         	2.417322e-09	9.273464e+00	1.421647e-07	7.349965e-08	6.866500e-08
0.1           	1.723606e-08	9.047348e+00	1.183459e-07	7.640899e-08	4.193687e-08
0.105         	2.779954e-08	8.840731e+00	1.442290e-07	9.991405e-08	4.431497e-08
0.11          	3.517556e-08	8.650987e+00	1.722404e-07	1.212957e-07	5.094462e-08
0.115         	4.018879e-08	8.475898e+00	1.896539e-07	1.350157e-07	5.463816e-08
0.12          	4.342419e-08	8.313757e+00	2.045301e-07	1.456893e-07	5.884088e-08
0.125         	4.534293e-08	8.162990e+00	2.216124e-07	1.561491e-07	6.546327e-08
0.13          	4.628049e-08	8.022349e+00	2.341225e-07	1.633418e-07	7.078077e-08
0.135         	4.649782e-08	7.890739e+00	2.435348e-07	1.682652e-07	7.526960e-08
0.14          	4.618288e-08	7.767271e+00	2.427243e-07	1.675450e-07	7.517926e-08
0.145         	7.974882e-08	7.651105e+00	1.486877e-07	1.540927e-07	-5.404972e-09
0.15          	1.047184e-07	7.541566e+00	2.001922e-07	2.048145e-07	-4.622305e-09
0.155         	1.230607e-07	7.438067e+00	2.204467e-07	2.332841e-07	-1.283741e-08
0.16          	1.363027e-07	7.340115e+00	2.509371e-07	2.617712e-07	-1.083409e-08
0.165         	1.456089e-07	7.247181e+00	2.623075e-07	2.767627e-07	-1.445519e-08
0.17          	1.518755e-07	7.158875e+00	2.740501e-07	2.889005e-07	-1.485042e-08
0.175         	1.557926e-07	7.074802e+00	2.921221e-07	3.018536e-07	-9.731511e-09
0.18          	1.578881e-07	6.994728e+00	2.971510e-07	3.064636e-07	-9.312565e-09
0.185         	1.585956e-07	6.918260e+00	3.033756e-07	3.102835e-07	-6.907817e-09
0.19          	1.582184e-07	6.845191e+00	3.030756e-07	3.097561e-07	-6.680576e-09
0.195         	1.570103e-07	6.775288e+00	3.062424e-07	3.101315e-07	-3.889143e-09
0.2           	1.551703e-07	6.708305e+00	3.076195e-07	3.089800e-07	-1.360535e-09
0.205         	1.528514e-07	6.644127e+00	3.077318e-07	3.067173e-07	1.014478e-09
0.21          	1.501801e-07	6.582478e+00	3.046985e-07	3.025293e-07	2.169189e-09
0.215         	1.472463e-07	6.523232e+00	3.032706e-07	2.988816e-07	4.388990e-09
0.22          	1.441266e-07	6.466280e+00	3.087437e-07	2.984984e-07	1.024525e-08
0.225         	1.408782e-07	6.411418e+00	3.053126e-07	2.935345e-07	1.177811e-08
0.23          	1.375491e-07	6.358603e+00	2.995517e-07	2.873250e-07	1.222672e-08
0.235         	1.341877e-07	6.307645e+00	2.998778e-07	2.841266e-07	1.575123e-08
0.24          	1.308089e-07	6.258468e+00	2.963191e-07	2.789685e-07	1.735061e-08
0.245         	1.274399e-07	6.211005e+00	2.919030e-07	2.733914e-07	1.851156e-08
0.25          	1.241022e-07	6.165142e+00	2.912333e-07	2.697188e-07	2.151444e-08
0.255         	1.208055e-07	6.120774e+00	2.844764e-07	2.630437e-07	2.143272e-08
0.26          	1.175593e-07	6.077896e+00	2.809032e-07	2.580109e-07	2.289225e-08
0.265         	1.143786e-07	6.036346e+00	2.789036e-07	2.538304e-07	2.507314e-08
0.27          	1.112633e-07	5.996098e+00	2.770658e-07	2.497962e-07	2.726963e-08
0.275         	1.082174e-07	5.957087e+00	2.733951e-07	2.449149e-07	2.848017e-08
0.28          	1.052450e-07	5.919246e+00	2.714310e-07	2.409605e-07	3.047053e-08
0.285         	1.210567e-07	5.882536e+00	5.194110e-08	1.470273e-07	-9.508620e-08
0.29          	1.330522e-07	5.846929e+00	1.249854e-07	1.955449e-07	-7.055949e-08
0.295         	1.420657e-07	5.812298e+00	1.643114e-07	2.242214e-07	-5.990999e-08
0.3           	1.487239e-07	5.778671e+00	2.028501e-07	2.501489e-07	-4.729884e-08
0.305         	1.535324e-07	5.745980e+00	2.373986e-07	2.722317e-07	-3.483307e-08
0.31          	1.568766e-07	5.714178e+00	2.628161e-07	2.882847e-07	-2.546853e-08
0.315         	1.590587e-07	5.683241e+00	2.860166e-07	3.020670e-07	-1.605036e-08
0.32          	1.603160e-07	5.653138e+00	3.043529e-07	3.124924e-07	-8.139517e-09
0.325         	1.608355e-07	5.623799e+00	3.175205e-07	3.195958e-07	-2.075296e-09
0.33          	1.607656e-07	5.595273e+00	3.298197e-07	3.256755e-07	4.144188e-09
0.335         	1.602271e-07	5.567438e+00	3.379343e-07	3.291943e-07	8.740010e-09
0.34          	1.593100e-07	5.540307e+00	3.456777e-07	3.321489e-07	1.352882e-08
0.345         	1.580893e-07	5.513851e+00	3.537704e-07	3.349745e-07	1.879593e-08
0.35          	1.566263e-07	5.488043e+00	3.584911e-07	3.358718e-07	2.261922e-08
0.355         	1.549714e-07	5.462858e+00	3.608160e-07	3.353794e-07	2.543666e-08
0.36          	1.801125e-07	5.438268e+00	1.866933e-07	2.734591e-07	-8.676579e-08
0.365         	2.002837e-07	5.414276e+00	2.443066e-07	3.224370e-07	-7.813042e-08
0.37          	2.164180e-07	5.390836e+00	2.722999e-07	3.525680e-07	-8.026807e-08
0.375         	2.292674e-07	5.367957e+00	3.008189e-07	3.796768e-07	-7.885795e-08
0.38          	2.394437e-07	5.345565e+00	3.256143e-07	4.022509e-07	-7.663657e-08
0.385         	2.474065e-07	5.323703e+00	3.456774e-07	4.202452e-07	-7.456780e-08
0.39          	2.535454e-07	5.302314e+00	3.626600e-07	4.348754e-07	-7.221542e-08
0.395         	2.581720e-07	5.281385e+00	3.790052e-07	4.476746e-07	-6.866935e-08
0.4           	2.615374e-07	5.260914e+00	3.876127e-07	4.553438e-07	-6.773102e-08
0.405         	2.638505e-07	5.240890e+00	3.977953e-07	4.627481e-07	-6.495281e-08
0.41          	2.652833e-07	5.221286e+00	4.050185e-07	4.677926e-07	-6.277410e-08
0.415         	2.659757e-07	5.202087e+00	4.112246e-07	4.715880e-07	-6.036338e-08
0.42          	2.660427e-07	5.183282e+00	4.095570e-07	4.708212e-07	-6.126416e-08
0.425         	2.655836e-07	5.164904e+00	4.207790e-07	4.759731e-07	-5.519406e-08
0.43          	2.646900e-07	5.146867e+00	4.216308e-07	4.755054e-07	-5.387462e-08
0.435         	2.634211e-07	5.129197e+00	4.232180e-07	4.750301e-07	-5.181212e-08
0.44          	2.618372e-07	5.111880e+00	4.234744e-07	4.735744e-07	-5.010002e-08
0.445         	2.599886e-07	5.094905e+00	4.240838e-07	4.720304e-07	-4.794668e-08
0.45          	2.579173e-07	5.078261e+00	4.233466e-07	4.695906e-07	-4.624400e-08
0.455         	2.556606e-07	5.061937e+00	4.231973e-07	4.672592e-07	-4.406191e-08
0.46          	2.532486e-07	5.045915e+00	4.222643e-07	4.643807e-07	-4.211643e-08
0.465         	2.507075e-07	5.030231e+00	4.210586e-07	4.612368e-07	-4.017820e-08
0.47          	2.480620e-07	5.014816e+00	4.197313e-07	4.579276e-07	-3.819630e-08
0.475         	2.453311e-07	4.999691e+00	4.146909e-07	4.526765e-07	-3.798567e-08
0.48          	2.425312e-07	4.984848e+00	4.137131e-07	4.493877e-07	-3.567465e-08
0.485         	2.396775e-07	4.970263e+00	4.148957e-07	4.471254e-07	-3.222967e-08
0.49          	2.367813e-07	4.955945e+00	4.107377e-07	4.421501e-07	-3.141250e-08
0.495         	2.338527e-07	4.941911e+00	4.089487e-07	4.383271e-07	-2.937839e-08
0.5           	2.309141e-07	4.928100e+00	4.050831e-07	4.334556e-07	-2.837250e-08
0.505         	2.279608e-07	4.914538e+00	4.040142e-07	4.299679e-07	-2.595374e-08
0.51          	2.250026e-07	4.901214e+00	4.015773e-07	4.257912e-07	-2.421390e-08
0.515         	2.220456e-07	4.888120e+00	3.898455e-07	4.169683e-07	-2.712284e-08
0.52          	2.190966e-07	4.875251e+00	3.703644e-07	4.042788e-07	-3.391435e-08
0.525         	2.161610e-07	4.862602e+00	3.626131e-07	3.974676e-07	-3.485450e-08
0.53          	2.132401e-07	4.850166e+00	3.699720e-07	3.982261e-07	-2.825407e-08
0.535         	2.103387e-07	4.837938e+00	3.596095e-07	3.901435e-07	-3.053395e-08
0.54          	2.074623e-07	4.825914e+00	3.626958e-07	3.888102e-07	-2.611440e-08
0.545         	2.046110e-07	4.814086e+00	3.581561e-07	3.836890e-07	-2.553293e-08
0.55          	2.017891e-07	4.802442e+00	3.521232e-07	3.778507e-07	-2.572754e-08
0.555         	1.989942e-07	4.791019e+00	3.474059e-07	3.726971e-07	-2.529124e-08
0.56          	1.962342e-07	4.779753e+00	3.266853e-07	3.595768e-07	-3.289152e-08
0.565         	1.935054e-07	4.768669e+00	3.236276e-07	3.553192e-07	-3.169158e-08
0.57          	1.908089e-07	4.757763e+00	3.196753e-07	3.506465e-07	-3.097124e-08
0.575         	1.881474e-07	4.747028e+00	3.188517e-07	3.475733e-07	-2.872154e-08
0.58          	1.855212e-07	4.736461e+00	3.182882e-07	3.446653e-07	-2.637712e-08
0.585         	1.829307e-07	4.726058e+00	3.171914e-07	3.415264e-07	-2.433501e-08
0.59          	1.803770e-07	4.715812e+00	3.164594e-07	3.386067e-07	-2.214730e-08
0.595         	1.778589e-07	4.705719e+00	3.108012e-07	3.332595e-07	-2.245834e-08
0.6           	1.753778e-07	4.695785e+00	3.107502e-07	3.307529e-07	-2.000274e-08
0.605         	1.729333e-07	4.685992e+00	3.090080e-07	3.274374e-07	-1.842931e-08
0.61          	1.705263e-07	4.676367e+00	3.091906e-07	3.251216e-07	-1.593101e-08
0.615         	1.681548e-07	4.666880e+00	3.071145e-07	3.217120e-07	-1.459755e-08
0.62          	1.658220e-07	4.657521e+00	3.060980e-07	3.188710e-07	-1.277302e-08
0.625         	1.635249e-07	4.648300e+00	3.051829e-07	3.161163e-07	-1.093342e-08
0.63          	1.612636e-07	4.639214e+00	3.041012e-07	3.133142e-07	-9.213060e-09
0.635         	1.590382e-07	4.630259e+00	3.029015e-07	3.104889e-07	-7.587449e-09
0.64          	1.568482e-07	4.621432e+00	3.018993e-07	3.077978e-07	-5.898529e-09
0.645         	1.546933e-07	4.612729e+00	3.006988e-07	3.050427e-07	-4.343883e-09
0.65          	1.525729e-07	4.604144e+00	3.008693e-07	3.030075e-07	-2.138189e-09
0.655         	1.504870e-07	4.595698e+00	2.984715e-07	2.997227e-07	-1.251274e-09
0.66          	1.484357e-07	4.587355e+00	3.021092e-07	2.994903e-07	2.618933e-09
0.665         	1.464175e-07	4.579130e+00	3.002086e-07	2.965218e-07	3.686802e-09
0.67          	1.444325e-07	4.571026e+00	3.012110e-07	2.950380e-07	6.173002e-09
0.675         	1.424802e-07	4.563009e+00	2.926794e-07	2.888199e-07	3.859483e-09
0.68          	1.405594e-07	4.555116e+00	2.927391e-07	2.869290e-07	5.810129e-09
0.685         	1.386703e-07	4.547330e+00	2.915095e-07	2.844251e-07	7.084403e-09
0.69          	1.368118e-07	4.539645e+00	2.879411e-07	2.807824e-07	7.158731e-09
0.695         	1.349830e-07	4.532076e+00	2.864052e-07	2.781856e-07	8.219640e-09
0.7           	1.331903e-07	4.524592e+00	2.861713e-07	2.762760e-07	9.895310e-09
0.705         	1.314250e-07	4.517210e+00	2.848340e-07	2.738420e-07	1.099199e-08
0.71          	1.296888e-07	4.509924e+00	2.842632e-07	2.718204e-07	1.244274e-08
0.715         	1.279796e-07	4.502733e+00	2.828422e-07	2.694007e-07	1.344148e-08
0.72          	1.262999e-07	4.495635e+00	2.804477e-07	2.665238e-07	1.392392e-08
0.725         	1.246483e-07	4.488627e+00	2.809076e-07	2.651021e-07	1.580548e-08
0.73          	1.230225e-07	4.481710e+00	2.795058e-07	2.627754e-07	1.673034e-08
0.735         	1.214238e-07	4.474879e+00	2.783323e-07	2.605899e-07	1.774239e-08
0.74          	1.198514e-07	4.468135e+00	2.766547e-07	2.581788e-07	1.847592e-08
0.745         	1.183052e-07	4.461475e+00	2.755122e-07	2.560612e-07	1.945093e-08
0.75          	1.167845e-07	4.454898e+00	2.743440e-07	2.539565e-07	2.038755e-08
0.755         	1.152887e-07	4.448401e+00	2.732807e-07	2.519290e-07	2.135166e-08
0.76          	1.272441e-07	4.441968e+00	9.952288e-09	1.322203e-07	-1.222680e-07
0.765         	1.369792e-07	4.435624e+00	7.250940e-08	1.732339e-07	-1.007245e-07
0.77          	1.449169e-07	4.429380e+00	9.991671e-08	1.948753e-07	-9.495854e-08
0.775         	1.514100e-07	4.423201e+00	1.335242e-07	2.181720e-07	-8.464787e-08
0.78          	1.567223e-07	4.417093e+00	1.608683e-07	2.371564e-07	-7.628808e-08
0.785         	1.610648e-07	4.411048e+00	1.841377e-07	2.531337e-07	-6.899599e-08
0.79          	1.646089e-07	4.405082e+00	2.071665e-07	2.681922e-07	-6.102568e-08
0.795         	1.674873e-07	4.399188e+00	2.252647e-07	2.801197e-07	-5.485496e-08
0.8           	1.698081e-07	4.393363e+00	2.400844e-07	2.898503e-07	-4.976587e-08
0.805         	1.716575e-07	4.387606e+00	2.551341e-07	2.992246e-07	-4.409048e-08
0.81          	1.731079e-07	4.381915e+00	2.691369e-07	3.076763e-07	-3.853942e-08
0.815         	1.742178e-07	4.376291e+00	2.783836e-07	3.134096e-07	-3.502605e-08
0.82          	1.750352e-07	4.370731e+00	2.885583e-07	3.193143e-07	-3.075605e-08
0.825         	1.756008e-07	4.365236e+00	2.963768e-07	3.237892e-07	-2.741237e-08
0.83          	1.759481e-07	4.359799e+00	3.072769e-07	3.295866e-07	-2.230967e-08
0.835         	1.929311e-07	4.354398e+00	1.189023e-07	2.523822e-07	-1.334799e-07
0.84          	2.076055e-07	4.349111e+00	1.764829e-07	2.958469e-07	-1.193640e-07
0.845         	2.203018e-07	4.343862e+00	2.053508e-07	3.229772e-07	-1.176264e-07
0.85          	2.313047e-07	4.338673e+00	2.361737e-07	3.493916e-07	-1.132179e-07
0.855         	2.408480e-07	4.333540e+00	2.628286e-07	3.722623e-07	-1.094337e-07
0.86          	2.491284e-07	4.328464e+00	2.845373e-07	3.913970e-07	-1.068598e-07
0.865         	2.563109e-07	4.323444e+00	3.041423e-07	4.083820e-07	-1.042397e-07
0.87          	2.625338e-07	4.318477e+00	3.250580e-07	4.250628e-07	-1.000047e-07
0.875         	2.679160e-07	4.313561e+00	3.372932e-07	4.365626e-07	-9.926946e-08
0.88          	2.725557e-07	4.308695e+00	3.532874e-07	4.491994e-07	-9.591203e-08
0.885         	2.765462e-07	4.303883e+00	3.627878e-07	4.579402e-07	-9.515234e-08
0.89          	2.799567e-07	4.299143e+00	3.557815e-07	4.578474e-07	-1.020659e-07
0.895         	2.828573e-07	4.294431e+00	3.884242e-07	4.770695e-07	-8.864521e-08
0.9           	2.853011e-07	4.289784e+00	3.854640e-07	4.780331e-07	-9.256904e-08
0.905         	2.873360e-07	4.285174e+00	3.991668e-07	4.869194e-07	-8.775263e-08
0.91          	2.890054e-07	4.280615e+00	3.965386e-07	4.872747e-07	-9.073605e-08
0.915         	2.903465e-07	4.276103e+00	3.974069e-07	4.890499e-07	-9.164303e-08
0.92          	2.913935e-07	4.271639e+00	3.717565e-07	4.772718e-07	-1.055153e-07
0.925         	2.921772e-07	4.267220e+00	4.125312e-07	4.984428e-07	-8.591157e-08
0.93          	2.927151e-07	4.262846e+00	4.632399e-07	5.243351e-07	-6.109515e-08
0.935         	2.930400e-07	4.258514e+00	3.572414e-07	4.716607e-07	-1.144194e-07
0.94          	2.931697e-07	4.254239e+00	4.006044e-07	4.934719e-07	-9.286755e-08
0.945         	2.931281e-07	4.249988e+00	3.854995e-07	4.858778e-07	-1.003783e-07
0.95          	2.929240e-07	4.245789e+00	4.471718e-07	5.165098e-07	-6.933806e-08
0.955         	2.925730e-07	4.241633e+00	3.760073e-07	4.805766e-07	-1.045694e-07
0.96          	2.920954e-07	4.237522e+00	4.589199e-07	5.215553e-07	-6.263543e-08
0.965         	2.914933e-07	4.233449e+00	4.332588e-07	5.081227e-07	-7.486393e-08
0.97          	2.907842e-07	4.229417e+00	4.361508e-07	5.088596e-07	-7.270877e-08
0.975         	2.899768e-07	4.225424e+00	4.367094e-07	5.083316e-07	-7.162213e-08
0.98          	2.890802e-07	4.221471e+00	4.404682e-07	5.093143e-07	-6.884609e-08
0.985         	2.881032e-07	4.217558e+00	4.382474e-07	5.072269e-07	-6.897946e-08
0.99          	2.870525e-07	4.213680e+00	4.254777e-07	4.997913e-07	-7.431359e-08
0.995         	2.859343e-07	4.209843e+00	4.469157e-07	5.093921e-07	-6.247643e-08
1             	2.847547e-07	4.206045e+00	4.411055e-07	5.053074e-07	-6.420196e-08
1.005         	2.835176e-07	4.202274e+00	4.408067e-07	5.039210e-07	-6.311426e-08
1.01          	2.822436e-07	4.198541e+00	4.424909e-07	5.034890e-07	-6.099812e-08
1.015         	2.809336e-07	4.194848e+00	4.433936e-07	5.026304e-07	-5.923678e-08
1.02          	2.795861e-07	4.191192e+00	4.447956e-07	5.019839e-07	-5.718828e-08
1.025         	2.782080e-07	4.187547e+00	4.445461e-07	5.004810e-07	-5.593492e-08
1.03          	2.767708e-07	4.183959e+00	4.455332e-07	4.995374e-07	-5.400419e-08
1.035         	2.753004e-07	4.180405e+00	4.455828e-07	4.980918e-07	-5.250895e-08
1.04          	2.738023e-07	4.176883e+00	4.380685e-07	4.928366e-07	-5.476807e-08
1.045         	2.722809e-07	4.173384e+00	4.408021e-07	4.926819e-07	-5.187984e-08
1.05          	2.707017e-07	4.169932e+00	4.387784e-07	4.900909e-07	-5.131255e-08
1.055         	2.691303e-07	4.166507e+00	4.383592e-07	4.883099e-07	-4.995068e-08
1.06          	2.675563e-07	4.163116e+00	4.331620e-07	4.841373e-07	-5.097531e-08
1.065         	2.659729e-07	4.159744e+00	4.355559e-07	4.837509e-07	-4.819495e-08
1.07          	2.643801e-07	4.156408e+00	4.361569e-07	4.824586e-07	-4.630171e-08
1.075         	2.627714e-07	4.153109e+00	4.274310e-07	4.764869e-07	-4.905591e-08
1.08          	2.611631e-07	4.149840e+00	4.259456e-07	4.741359e-07	-4.819027e-08
1.085         	2.595539e-07	4.146588e+00	2.569678e-07	3.880378e-07	-1.310700e-07
1.09          	2.579352e-07	4.143372e+00	3.713350e-07	4.436027e-07	-7.226767e-08
1.095         	2.563060e-07	4.140189e+00	3.478030e-07	4.302075e-07	-8.240452e-08
1.1           	2.546761e-07	4.137033e+00	3.406375e-07	4.249949e-07	-8.435737e-08
1.105         	2.530477e-07	4.133905e+00	3.423175e-07	4.242064e-07	-8.188890e-08
1.11          	2.514177e-07	4.130804e+00	3.447487e-07	4.237920e-07	-7.904334e-08
1.115         	2.497875e-07	4.127731e+00	3.380569e-07	4.188159e-07	-8.075905e-08
1.12          	2.481580e-07	4.124682e+00	3.400324e-07	4.181742e-07	-7.814183e-08
1.125         	2.465291e-07	4.121663e+00	3.331542e-07	4.131062e-07	-7.995197e-08
1.13          	2.449038e-07	4.118670e+00	3.314171e-07	4.106123e-07	-7.919520e-08
1.135         	2.432813e-07	4.115694e+00	3.300494e-07	4.083060e-07	-7.825659e-08
1.14          	2.416631e-07	4.112751e+00	3.216374e-07	4.024818e-07	-8.084443e-08
1.145         	2.400522e-07	4.109832e+00	3.265781e-07	4.033412e-07	-7.676311e-08
1.15          	2.384456e-07	4.106939e+00	3.218663e-07	3.993788e-07	-7.751251e-08
1.155         	2.368433e-07	4.104070e+00	3.272443e-07	4.004654e-07	-7.322117e-08
1.16          	2.352453e-07	4.101218e+00	3.247762e-07	3.976334e-07	-7.285726e-08
1.165         	2.336548e-07	4.098400e+00	3.235580e-07	3.954338e-07	-7.187584e-08
1.17          	2.320699e-07	4.095603e+00	3.249614e-07	3.945506e-07	-6.958916e-08
1.175         	2.304900e-07	4.092841e+00	3.310704e-07	3.960252e-07	-6.495483e-08
1.18          	2.289214e-07	4.090102e+00	3.261280e-07	3.919855e-07	-6.585742e-08
1.185         	2.273634e-07	4.087370e+00	3.272821e-07	3.910044e-07	-6.372235e-08
1.19          	2.258122e-07	4.084658e+00	3.163182e-07	3.839713e-07	-6.765316e-08
1.195         	2.242617e-07	4.081978e+00	3.456730e-07	3.970982e-07	-5.142515e-08
1.2           	2.227242e-07	4.079320e+00	2.682327e-07	3.568405e-07	-8.860786e-08
1.205         	2.211955e-07	4.076684e+00	2.696056e-07	3.559983e-07	-8.639266e-08
1.21          	2.196754e-07	4.074069e+00	2.816441e-07	3.604975e-07	-7.885336e-08
1.215         	2.181637e-07	4.071476e+00	2.688375e-07	3.525825e-07	-8.374496e-08
1.22          	2.166617e-07	4.068904e+00	2.899120e-07	3.616177e-07	-7.170564e-08
1.225         	2.151682e-07	4.066353e+00	2.896999e-07	3.600181e-07	-7.031821e-08
1.23          	2.136840e-07	4.063823e+00	2.933996e-07	3.603838e-07	-6.698416e-08
1.235         	2.122089e-07	4.061313e+00	2.959915e-07	3.602047e-07	-6.421321e-08
1.24          	2.107433e-07	4.058824e+00	2.985625e-07	3.600245e-07	-6.146204e-08
1.245         	2.092869e-07	4.056351e+00	3.089071e-07	3.637404e-07	-5.483330e-08
1.25          	2.078426e-07	4.053897e+00	3.056366e-07	3.606609e-07	-5.502433e-08
1.255         	2.064123e-07	4.051467e+00	3.001270e-07	3.564758e-07	-5.634878e-08
1.26          	2.049915e-07	4.049050e+00	3.002611e-07	3.551220e-07	-5.486096e-08
1.265         	2.035801e-07	4.046667e+00	3.190821e-07	3.631211e-07	-4.403903e-08
1.27          	2.021764e-07	4.044292e+00	3.253066e-07	3.648297e-07	-3.952312e-08
1.275         	2.007840e-07	4.041934e+00	3.068212e-07	3.541946e-07	-4.737343e-08
1.28          	1.994044e-07	4.039593e+00	3.133258e-07	3.560674e-07	-4.274152e-08
1.285         	1.980389e-07	4.037277e+00	2.988817e-07	3.474797e-07	-4.859803e-08
1.29          	1.966789e-07	4.034977e+00	3.176609e-07	3.555094e-07	-3.784848e-08
1.295         	1.953262e-07	4.032693e+00	3.509186e-07	3.707855e-07	-1.986694e-08
1.3           	1.939811e-07	4.030420e+00	3.374926e-07	3.627274e-07	-2.523475e-08
1.305         	1.926445e-07	4.028193e+00	3.382749e-07	3.617820e-07	-2.350708e-08
1.31          	1.913219e-07	4.025968e+00	3.296019e-07	3.561229e-07	-2.652093e-08
1.315         	1.900099e-07	4.023754e+00	3.249595e-07	3.524897e-07	-2.753015e-08
1.32          	1.887081e-07	4.021559e+00	3.457543e-07	3.615853e-07	-1.583100e-08
1.325         	1.874165e-07	4.019380e+00	3.485934e-07	3.617132e-07	-1.311981e-08
1.33          	1.861343e-07	4.017217e+00	3.566979e-07	3.644833e-07	-7.785327e-09
1.335         	1.848610e-07	4.015073e+00	3.429534e-07	3.563377e-07	-1.338431e-08
1.34          	1.835990e-07	4.012950e+00	3.468887e-07	3.570434e-07	-1.015462e-08
1.345         	1.823459e-07	4.010834e+00	3.585431e-07	3.616174e-07	-3.074319e-09
1.35          	1.811027e-07	4.008737e+00	3.588018e-07	3.605037e-07	-1.701826e-09
1.355         	1.798689e-07	4.006656e+00	3.483589e-07	3.540483e-07	-5.689416e-09
1.36          	1.786463e-07	4.004592e+00	3.590071e-07	3.581499e-07	8.572464e-10
1.365         	1.774332e-07	4.002543e+00	3.501683e-07	3.525174e-07	-2.349051e-09
1.37          	1.762303e-07	4.000510e+00	3.555586e-07	3.540096e-07	1.548997e-09
1.375         	1.750366e-07	3.998492e+00	3.556288e-07	3.528511e-07	2.777789e-09
1.38          	1.738528e-07	3.996495e+00	3.560756e-07	3.518906e-07	4.184987e-09
1.385         	1.726798e-07	3.994489e+00	3.695597e-07	3.574596e-07	1.210005e-08
1.39          	1.715144e-07	3.992518e+00	3.589787e-07	3.510037e-07	7.974968e-09
1.395         	1.703583e-07	3.990559e+00	3.663690e-07	3.535429e-07	1.282618e-08
1.4           	1.692114e-07	3.988614e+00	3.617690e-07	3.500959e-07	1.167309e-08
1.405         	1.680744e-07	3.986681e+00	3.653182e-07	3.507335e-07	1.458476e-08
1.41          	1.669463e-07	3.984770e+00	3.668296e-07	3.503611e-07	1.646851e-08
1.415         	1.658288e-07	3.982866e+00	3.563858e-07	3.440217e-07	1.236408e-08
1.42          	1.647205e-07	3.980977e+00	3.623452e-07	3.458931e-07	1.645215e-08
1.425         	1.636211e-07	3.979103e+00	3.586291e-07	3.429357e-07	1.569339e-08
1.43          	1.625309e-07	3.977241e+00	3.646288e-07	3.448453e-07	1.978347e-08
1.435         	1.614492e-07	3.975390e+00	3.754253e-07	3.491618e-07	2.626350e-08
1.44          	1.603746e-07	3.973556e+00	3.622683e-07	3.415088e-07	2.075950e-08
1.445         	1.593096e-07	3.971733e+00	3.644177e-07	3.415184e-07	2.289926e-08
1.45          	1.582546e-07	3.969922e+00	3.671867e-07	3.418480e-07	2.533876e-08
1.455         	1.572105e-07	3.968127e+00	3.668545e-07	3.406377e-07	2.621675e-08
1.46          	1.561739e-07	3.966344e+00	3.645785e-07	3.384632e-07	2.611531e-08
1.465         	1.551455e-07	3.964574e+00	3.700151e-07	3.401530e-07	2.986207e-08
1.47          	1.541245e-07	3.962817e+00	3.671493e-07	3.376992e-07	2.945012e-08
1.475         	1.531118e-07	3.961072e+00	3.689306e-07	3.375771e-07	3.135346e-08
1.48          	1.521068e-07	3.959339e+00	3.695388e-07	3.368762e-07	3.266257e-08
1.485         	1.511094e-07	3.957619e+00	3.556511e-07	3.289349e-07	2.671617e-08
1.49          	1.501209e-07	3.955909e+00	3.631073e-07	3.316746e-07	3.143272e-08
1.495         	1.491425e-07	3.954211e+00	3.547886e-07	3.265368e-07	2.825184e-08
1.5           	1.481729e-07	3.952527e+00	3.563206e-07	3.263332e-07	2.998740e-08
1.505         	1.472087e-07	3.950855e+00	3.605582e-07	3.274878e-07	3.307035e-08
1.51          	1.462505e-07	3.949196e+00	3.527590e-07	3.226300e-07	3.012897e-08
1.515         	1.453007e-07	3.947548e+00	3.524480e-07	3.215247e-07	3.092328e-08
1.52          	1.443573e-07	3.945912e+00	3.490730e-07	3.188938e-07	3.017919e-08
1.525         	1.434212e-07	3.944285e+00	3.507402e-07	3.187913e-07	3.194889e-08
1.53          	1.424923e-07	3.942668e+00	3.419286e-07	3.134566e-07	2.847199e-08
1.535         	1.415674e-07	3.941067e+00	3.540349e-07	3.185849e-07	3.545003e-08
1.54          	1.406504e-07	3.939477e+00	3.437595e-07	3.125301e-07	3.122937e-08
1.545         	1.397350e-07	3.937887e+00	3.495165e-07	3.144932e-07	3.502327e-08
1.55          	1.388415e-07	3.936317e+00	3.402472e-07	3.089651e-07	3.128208e-08
1.555         	1.379554e-07	3.934759e+00	3.417049e-07	3.088078e-07	3.289707e-08
1.56          	1.370736e-07	3.933211e+00	3.390123e-07	3.065798e-07	3.243250e-08
1.565         	1.361967e-07	3.931673e+00	3.399568e-07	3.061751e-07	3.378170e-08
1.57          	1.353266e-07	3.930145e+00	3.344301e-07	3.025416e-07	3.188843e-08
1.575         	1.344638e-07	3.928628e+00	3.274620e-07	2.981947e-07	2.926722e-08
1.58          	1.336072e-07	3.927120e+00	3.272408e-07	2.972276e-07	3.001317e-08
1.585         	1.327568e-07	3.925627e+00	3.264642e-07	2.959889e-07	3.047533e-08
1.59          	1.319172e-07	3.924137e+00	3.243891e-07	2.941117e-07	3.027737e-08
1.595         	1.310797e-07	3.922654e+00	3.228162e-07	2.924878e-07	3.032836e-08
1.6           	1.302432e-07	3.921190e+00	3.205635e-07	2.905250e-07	3.003851e-08
1.605         	1.294154e-07	3.919734e+00	3.199992e-07	2.894150e-07	3.058415e-08
1.61          	1.285959e-07	3.918287e+00	3.140127e-07	2.856022e-07	2.841049e-08
1.615         	1.277817e-07	3.916850e+00	3.171270e-07	2.863452e-07	3.078177e-08
1.62          	1.269726e-07	3.915424e+00	3.168098e-07	2.853775e-07	3.143230e-08
1.625         	1.261720e-07	3.914004e+00	3.156366e-07	2.839903e-07	3.164633e-08
1.63          	1.253754e-07	3.912592e+00	3.225765e-07	2.866636e-07	3.591286e-08
1.635         	1.245850e-07	3.911193e+00	3.151119e-07	2.821409e-07	3.297095e-08
1.64          	1.238028e-07	3.909803e+00	3.109565e-07	2.792810e-07	3.167549e-08
1.645         	1.230245e-07	3.908423e+00	1.866569e-07	2.163529e-07	-2.969600e-08
1.65          	1.222574e-07	3.907052e+00	2.740852e-07	2.593000e-07	1.478524e-08
1.655         	1.214942e-07	3.905690e+00	2.579174e-07	2.504529e-07	7.464467e-09
1.66          	1.207374e-07	3.904335e+00	2.668702e-07	2.541725e-07	1.269769e-08
1.665         	1.199860e-07	3.902991e+00	2.628331e-07	2.514026e-07	1.143052e-08
1.67          	1.192405e-07	3.901655e+00	2.626385e-07	2.505598e-07	1.207872e-08
1.675         	1.185007e-07	3.900329e+00	2.605258e-07	2.487636e-07	1.176219e-08
1.68          	1.177663e-07	3.899011e+00	2.613263e-07	2.484294e-07	1.289688e-08
1.685         	1.170375e-07	3.897702e+00	2.584977e-07	2.462864e-07	1.221133e-08
1.69          	1.163142e-07	3.896401e+00	2.587960e-07	2.457122e-07	1.308383e-08
1.695         	1.155963e-07	3.895111e+00	2.561845e-07	2.436885e-07	1.249595e-08
1.7           	1.148833e-07	3.893828e+00	2.573579e-07	2.435622e-07	1.379564e-08
1.705         	1.141757e-07	3.892547e+00	2.544845e-07	2.414179e-07	1.306658e-08
1.71          	1.134744e-07	3.891278e+00	2.540118e-07	2.404803e-07	1.353144e-08
1.715         	1.127789e-07	3.890021e+00	2.528674e-07	2.392126e-07	1.365482e-08
1.72          	1.120877e-07	3.888772e+00	2.511969e-07	2.376862e-07	1.351071e-08
1.725         	1.114018e-07	3.887530e+00	2.486135e-07	2.357085e-07	1.290496e-08
1.73          	1.107209e-07	3.886296e+00	2.493447e-07	2.353932e-07	1.395150e-08
1.735         	1.100447e-07	3.885067e+00	2.526978e-07	2.363935e-07	1.630423e-08
1.74          	1.093729e-07	3.883849e+00	2.461534e-07	2.324496e-07	1.370376e-08
1.745         	1.087070e-07	3.882638e+00	2.525595e-07	2.349867e-07	1.757279e-08
1.75          	1.080447e-07	3.881435e+00	2.429494e-07	2.295193e-07	1.343002e-08
1.755         	1.073878e-07	3.880239e+00	2.439426e-07	2.293591e-07	1.458345e-08
1.76          	1.067347e-07	3.879052e+00	2.414474e-07	2.274584e-07	1.398900e-08
1.765         	1.060876e-07	3.877872e+00	1.603491e-07	1.862621e-07	-2.591303e-08
1.77          	1.054445e-07	3.876700e+00	2.097055e-07	2.102973e-07	-5.917780e-10
1.775         	1.048067e-07	3.875536e+00	2.097283e-07	2.096709e-07	5.744173e-11
1.78          	1.041725e-07	3.874379e+00	2.044624e-07	2.064037e-07	-1.941299e-09
1.785         	1.035437e-07	3.873229e+00	2.051799e-07	2.061336e-07	-9.537165e-10
1.79          	1.029191e-07	3.872087e+00	2.036736e-07	2.047560e-07	-1.082330e-09
1.795         	1.022994e-07	3.870953e+00	2.027320e-07	2.036654e-07	-9.334019e-10
1.8           	1.016842e-07	3.869825e+00	2.015131e-07	2.024407e-07	-9.276077e-10
1.805         	1.010734e-07	3.868705e+00	2.004418e-07	2.012943e-07	-8.525462e-10
1.81          	1.004671e-07	3.867592e+00	1.994859e-07	2.002101e-07	-7.241967e-10
1.815         	9.986584e-08	3.866487e+00	2.007759e-07	2.002538e-07	5.221197e-10
1.82          	1.100170e-07	3.865363e+00	2.423684e-07	2.312011e-07	1.116723e-08
1.825         	1.192131e-07	3.864278e+00	1.599166e-07	1.991714e-07	-3.925477e-08
1.83          	1.275380e-07	3.863193e+00	1.841120e-07	2.195940e-07	-3.548196e-08