/*--------------------------------*- C++ -*----------------------------------*\
  =========                 |
  \\      /  F ield         | OpenFOAM: The Open Source CFD Toolbox
   \\    /   O peration     | Website:  https://openfoam.org
    \\  /    A nd           | Version:  7
     \\/     M anipulation  |
\*---------------------------------------------------------------------------*/
FoamFile
{
    version     2.0;
    format      ascii;
    class       volVectorField;
    location    "90";
    object      U;
}
// * * * * * * * * * * * * * * * * * * * * * * * * * * * * * * * * * * * * * //

dimensions      [0 1 -1 0 0 0 0];

internalField   nonuniform List<vector> 
2625
(
(1.25325 0.000409634 0)
(1.2525 0.000425988 0)
(1.2517 0.000440898 0)
(1.25087 0.000454406 0)
(1.25 0.000466557 0)
(1.2491 0.000477399 0)
(1.24816 0.000486982 0)
(1.2472 0.000495358 0)
(1.2462 0.000502582 0)
(1.24518 0.000508709 0)
(1.24413 0.000513797 0)
(1.24306 0.000517902 0)
(1.24196 0.000521084 0)
(1.24085 0.000523401 0)
(1.23971 0.000524912 0)
(1.23856 0.000525674 0)
(1.23738 0.000525746 0)
(1.2362 0.000525184 0)
(1.23499 0.000524045 0)
(1.23378 0.000522382 0)
(1.23255 0.00052025 0)
(1.23131 0.000517699 0)
(1.23006 0.000514779 0)
(1.2288 0.000511537 0)
(1.22753 0.00050802 0)
(1.22625 0.000504271 0)
(1.22496 0.000500331 0)
(1.22366 0.000496239 0)
(1.22236 0.000492031 0)
(1.22105 0.000487744 0)
(1.21974 0.000483408 0)
(1.21841 0.000479054 0)
(1.21709 0.000474711 0)
(1.21575 0.000470404 0)
(1.21441 0.000466161 0)
(1.21306 0.000462003 0)
(1.2117 0.000457956 0)
(1.21034 0.000454041 0)
(1.20897 0.000450284 0)
(1.20759 0.000446708 0)
(1.20621 0.000443341 0)
(1.20481 0.000440215 0)
(1.2034 0.000437366 0)
(1.20199 0.000434841 0)
(1.20056 0.00043268 0)
(1.19912 0.000431 0)
(1.19766 0.000429711 0)
(1.19618 0.000429493 0)
(1.19471 0.000428504 0)
(1.19311 0.000433035 0)
(1.19185 0.00042286 0)
(1.18924 0.00044918 0)
(1.25333 0.00122561 0)
(1.25256 0.00127424 0)
(1.25175 0.00131857 0)
(1.25091 0.00135873 0)
(1.25003 0.00139484 0)
(1.24912 0.00142706 0)
(1.24817 0.00145553 0)
(1.24719 0.00148041 0)
(1.24619 0.00150186 0)
(1.24515 0.00152005 0)
(1.24409 0.00153514 0)
(1.24301 0.0015473 0)
(1.2419 0.00155672 0)
(1.24077 0.00156357 0)
(1.23963 0.00156801 0)
(1.23846 0.00157022 0)
(1.23728 0.00157038 0)
(1.23608 0.00156865 0)
(1.23486 0.00156521 0)
(1.23363 0.0015602 0)
(1.23239 0.00155379 0)
(1.23114 0.00154614 0)
(1.22988 0.00153738 0)
(1.22861 0.00152767 0)
(1.22732 0.00151714 0)
(1.22603 0.00150591 0)
(1.22473 0.00149411 0)
(1.22343 0.00148186 0)
(1.22211 0.00146926 0)
(1.22079 0.00145642 0)
(1.21946 0.00144343 0)
(1.21813 0.00143039 0)
(1.21679 0.00141737 0)
(1.21544 0.00140447 0)
(1.21409 0.00139174 0)
(1.21273 0.00137927 0)
(1.21136 0.00136713 0)
(1.20999 0.00135538 0)
(1.2086 0.00134409 0)
(1.20721 0.00133333 0)
(1.20582 0.0013232 0)
(1.20441 0.00131378 0)
(1.20299 0.00130518 0)
(1.20157 0.00129754 0)
(1.20013 0.00129098 0)
(1.19868 0.00128583 0)
(1.19721 0.0012819 0)
(1.19572 0.00128092 0)
(1.19424 0.00127859 0)
(1.19263 0.00128958 0)
(1.19138 0.00127045 0)
(1.18875 0.0013312 0)
(1.25346 0.00204029 0)
(1.25268 0.00212029 0)
(1.25185 0.0021932 0)
(1.25098 0.00225923 0)
(1.25008 0.0023186 0)
(1.24915 0.00237154 0)
(1.24818 0.00241831 0)
(1.24718 0.00245915 0)
(1.24615 0.00249434 0)
(1.24509 0.00252415 0)
(1.24401 0.00254885 0)
(1.2429 0.00256874 0)
(1.24178 0.0025841 0)
(1.24062 0.0025952 0)
(1.23945 0.00260235 0)
(1.23827 0.00260583 0)
(1.23706 0.00260591 0)
(1.23584 0.00260288 0)
(1.2346 0.00259702 0)
(1.23335 0.00258858 0)
(1.23208 0.00257782 0)
(1.23081 0.00256501 0)
(1.22952 0.00255038 0)
(1.22823 0.00253416 0)
(1.22692 0.00251658 0)
(1.22561 0.00249785 0)
(1.22428 0.00247818 0)
(1.22295 0.00245774 0)
(1.22162 0.00243674 0)
(1.22027 0.00241532 0)
(1.21892 0.00239366 0)
(1.21756 0.00237189 0)
(1.2162 0.00235017 0)
(1.21483 0.00232861 0)
(1.21346 0.00230734 0)
(1.21207 0.00228649 0)
(1.21068 0.00226616 0)
(1.20929 0.00224646 0)
(1.20789 0.00222752 0)
(1.20648 0.00220946 0)
(1.20506 0.0021924 0)
(1.20363 0.0021765 0)
(1.20219 0.00216194 0)
(1.20075 0.00214894 0)
(1.19929 0.00213772 0)
(1.19782 0.00212878 0)
(1.19634 0.00212194 0)
(1.19483 0.00211958 0)
(1.19334 0.00211642 0)
(1.1917 0.00213074 0)
(1.19045 0.002114 0)
(1.1878 0.00218898 0)
(1.25364 0.00286399 0)
(1.25282 0.00297438 0)
(1.25196 0.00307495 0)
(1.25107 0.003166 0)
(1.25013 0.00324782 0)
(1.24917 0.00332075 0)
(1.24817 0.00338512 0)
(1.24713 0.0034413 0)
(1.24607 0.00348965 0)
(1.24498 0.00353055 0)
(1.24387 0.00356439 0)
(1.24273 0.00359156 0)
(1.24157 0.00361245 0)
(1.24039 0.00362746 0)
(1.23918 0.003637 0)
(1.23796 0.00364144 0)
(1.23672 0.00364118 0)
(1.23546 0.00363662 0)
(1.23419 0.00362811 0)
(1.23291 0.00361604 0)
(1.23161 0.00360076 0)
(1.2303 0.00358262 0)
(1.22898 0.00356195 0)
(1.22765 0.00353908 0)
(1.22631 0.00351431 0)
(1.22497 0.00348794 0)
(1.22361 0.00346024 0)
(1.22225 0.00343149 0)
(1.22088 0.00340192 0)
(1.2195 0.00337177 0)
(1.21812 0.00334127 0)
(1.21673 0.00331061 0)
(1.21533 0.00327998 0)
(1.21393 0.00324957 0)
(1.21252 0.00321955 0)
(1.21111 0.00319008 0)
(1.20969 0.00316131 0)
(1.20826 0.00313341 0)
(1.20683 0.00310653 0)
(1.20539 0.00308084 0)
(1.20394 0.00305652 0)
(1.20248 0.00303378 0)
(1.20102 0.00301286 0)
(1.19955 0.00299408 0)
(1.19806 0.00297772 0)
(1.19657 0.00296447 0)
(1.19506 0.00295415 0)
(1.19352 0.00294978 0)
(1.19201 0.00294523 0)
(1.19035 0.00296185 0)
(1.18909 0.00294662 0)
(1.18641 0.00303326 0)
(1.25384 0.00370596 0)
(1.25298 0.00384568 0)
(1.25208 0.00397291 0)
(1.25114 0.00408802 0)
(1.25016 0.0041914 0)
(1.24915 0.00428347 0)
(1.24811 0.00436467 0)
(1.24704 0.00443546 0)
(1.24593 0.00449629 0)
(1.2448 0.00454765 0)
(1.24365 0.00459004 0)
(1.24247 0.00462394 0)
(1.24126 0.00464987 0)
(1.24003 0.00466832 0)
(1.23879 0.0046798 0)
(1.23752 0.00468481 0)
(1.23624 0.00468385 0)
(1.23494 0.00467739 0)
(1.23363 0.00466592 0)
(1.2323 0.00464991 0)
(1.23096 0.0046298 0)
(1.22961 0.00460605 0)
(1.22825 0.00457907 0)
(1.22688 0.00454927 0)
(1.22549 0.00451705 0)
(1.2241 0.00448277 0)
(1.2227 0.00444679 0)
(1.2213 0.00440944 0)
(1.21989 0.00437103 0)
(1.21847 0.00433187 0)
(1.21704 0.00429223 0)
(1.21561 0.00425236 0)
(1.21417 0.00421251 0)
(1.21273 0.00417292 0)
(1.21128 0.00413379 0)
(1.20983 0.00409533 0)
(1.20837 0.00405774 0)
(1.2069 0.00402121 0)
(1.20543 0.00398595 0)
(1.20395 0.00395217 0)
(1.20247 0.00392009 0)
(1.20098 0.00388999 0)
(1.19948 0.00386215 0)
(1.19797 0.00383698 0)
(1.19645 0.00381484 0)
(1.19492 0.00379658 0)
(1.19338 0.00378201 0)
(1.19182 0.0037748 0)
(1.19028 0.00376793 0)
(1.18859 0.00378585 0)
(1.18731 0.00377005 0)
(1.18459 0.00386755 0)
(1.25402 0.00457456 0)
(1.25311 0.00474243 0)
(1.25216 0.00489521 0)
(1.25117 0.00503333 0)
(1.25014 0.00515728 0)
(1.24908 0.00526755 0)
(1.24799 0.00536468 0)
(1.24686 0.00544923 0)
(1.24571 0.00552175 0)
(1.24453 0.00558283 0)
(1.24332 0.00563306 0)
(1.24208 0.00567304 0)
(1.24083 0.00570338 0)
(1.23955 0.00572469 0)
(1.23825 0.00573757 0)
(1.23694 0.00574262 0)
(1.2356 0.00574045 0)
(1.23425 0.00573163 0)
(1.23289 0.00571674 0)
(1.23151 0.00569636 0)
(1.23012 0.00567101 0)
(1.22871 0.00564124 0)
(1.2273 0.00560755 0)
(1.22587 0.00557044 0)
(1.22444 0.00553037 0)
(1.223 0.0054878 0)
(1.22155 0.00544314 0)
(1.22009 0.0053968 0)
(1.21863 0.00534915 0)
(1.21716 0.00530056 0)
(1.21569 0.00525136 0)
(1.21421 0.00520186 0)
(1.21272 0.00515234 0)
(1.21123 0.0051031 0)
(1.20973 0.00505438 0)
(1.20823 0.00500643 0)
(1.20673 0.00495949 0)
(1.20522 0.00491379 0)
(1.2037 0.00486959 0)
(1.20218 0.00482712 0)
(1.20065 0.00478666 0)
(1.19911 0.00474853 0)
(1.19757 0.00471308 0)
(1.19603 0.00468078 0)
(1.19447 0.00465206 0)
(1.1929 0.00462794 0)
(1.19133 0.00460819 0)
(1.18973 0.00459714 0)
(1.18816 0.00458681 0)
(1.18643 0.00460476 0)
(1.18514 0.00458684 0)
(1.18237 0.00469323 0)
(1.25416 0.00547729 0)
(1.25318 0.00567206 0)
(1.25217 0.00584916 0)
(1.25112 0.00600912 0)
(1.25004 0.00615251 0)
(1.24892 0.00627992 0)
(1.24776 0.00639197 0)
(1.24658 0.0064893 0)
(1.24536 0.00657259 0)
(1.24412 0.00664251 0)
(1.24285 0.00669975 0)
(1.24156 0.00674502 0)
(1.24024 0.00677903 0)
(1.2389 0.00680247 0)
(1.23754 0.00681607 0)
(1.23617 0.00682051 0)
(1.23477 0.0068165 0)
(1.23336 0.00680472 0)
(1.23194 0.00678585 0)
(1.2305 0.00676052 0)
(1.22905 0.00672939 0)
(1.22759 0.00669306 0)
(1.22611 0.00665214 0)
(1.22463 0.00660719 0)
(1.22314 0.00655877 0)
(1.22164 0.00650738 0)
(1.22013 0.00645353 0)
(1.21862 0.00639768 0)
(1.2171 0.00634027 0)
(1.21557 0.00628172 0)
(1.21404 0.00622242 0)
(1.21251 0.00616272 0)
(1.21096 0.00610297 0)
(1.20942 0.00604349 0)
(1.20787 0.00598458 0)
(1.20631 0.00592653 0)
(1.20476 0.0058696 0)
(1.20319 0.00581408 0)
(1.20163 0.00576024 0)
(1.20005 0.00570838 0)
(1.19848 0.00565879 0)
(1.1969 0.00561186 0)
(1.19531 0.00556798 0)
(1.19372 0.00552768 0)
(1.19212 0.00549147 0)
(1.19051 0.00546052 0)
(1.18889 0.00543453 0)
(1.18725 0.0054185 0)
(1.18565 0.00540345 0)
(1.18388 0.00542 0)
(1.18258 0.00539846 0)
(1.17976 0.00551123 0)
(1.25421 0.00642096 0)
(1.25317 0.00664121 0)
(1.25209 0.00684128 0)
(1.25097 0.00702178 0)
(1.24981 0.00718335 0)
(1.24862 0.00732669 0)
(1.2474 0.0074525 0)
(1.24615 0.00756152 0)
(1.24486 0.00765451 0)
(1.24355 0.00773225 0)
(1.24221 0.00779553 0)
(1.24085 0.00784515 0)
(1.23947 0.00788192 0)
(1.23806 0.00790664 0)
(1.23663 0.00792012 0)
(1.23519 0.00792316 0)
(1.23373 0.00791655 0)
(1.23225 0.00790107 0)
(1.23076 0.00787747 0)
(1.22925 0.00784651 0)
(1.22774 0.00780891 0)
(1.22621 0.00776536 0)
(1.22467 0.00771654 0)
(1.22312 0.00766311 0)
(1.22156 0.00760568 0)
(1.22 0.00754484 0)
(1.21843 0.00748115 0)
(1.21685 0.00741515 0)
(1.21527 0.00734734 0)
(1.21368 0.00727818 0)
(1.21209 0.00720811 0)
(1.21049 0.00713756 0)
(1.20889 0.0070669 0)
(1.20728 0.0069965 0)
(1.20568 0.00692669 0)
(1.20406 0.00685781 0)
(1.20245 0.00679016 0)
(1.20083 0.00672405 0)
(1.19921 0.00665979 0)
(1.19758 0.00659772 0)
(1.19595 0.00653818 0)
(1.19432 0.00648157 0)
(1.19268 0.00642834 0)
(1.19104 0.0063791 0)
(1.1894 0.00633438 0)
(1.18774 0.00629553 0)
(1.18609 0.00626214 0)
(1.18441 0.0062399 0)
(1.18277 0.00621874 0)
(1.18096 0.00623236 0)
(1.17963 0.00620564 0)
(1.17677 0.00632202 0)
(1.25414 0.0074116 0)
(1.25302 0.00765578 0)
(1.25186 0.00787732 0)
(1.25067 0.0080769 0)
(1.24943 0.00825526 0)
(1.24817 0.00841316 0)
(1.24687 0.00855141 0)
(1.24553 0.00867085 0)
(1.24417 0.00877232 0)
(1.24279 0.0088567 0)
(1.24137 0.00892488 0)
(1.23993 0.00897776 0)
(1.23847 0.00901624 0)
(1.23699 0.00904122 0)
(1.23549 0.00905361 0)
(1.23397 0.0090543 0)
(1.23244 0.00904417 0)
(1.23089 0.00902409 0)
(1.22932 0.00899491 0)
(1.22774 0.00895747 0)
(1.22615 0.00891257 0)
(1.22455 0.00886099 0)
(1.22294 0.00880349 0)
(1.22132 0.00874078 0)
(1.2197 0.00867357 0)
(1.21806 0.00860252 0)
(1.21642 0.00852824 0)
(1.21478 0.00845132 0)
(1.21313 0.00837234 0)
(1.21147 0.00829181 0)
(1.20981 0.00821022 0)
(1.20815 0.00812804 0)
(1.20648 0.00804569 0)
(1.20482 0.00796357 0)
(1.20315 0.00788207 0)
(1.20147 0.00780154 0)
(1.1998 0.00772234 0)
(1.19812 0.00764479 0)
(1.19644 0.00756926 0)
(1.19476 0.00749609 0)
(1.19307 0.00742567 0)
(1.19139 0.00735844 0)
(1.1897 0.00729488 0)
(1.18801 0.00723568 0)
(1.18631 0.00718136 0)
(1.18461 0.00713347 0)
(1.18291 0.00709146 0)
(1.18119 0.00706171 0)
(1.17952 0.00703298 0)
(1.17766 0.00704203 0)
(1.17632 0.00700858 0)
(1.17341 0.0071256 0)
(1.25391 0.00845453 0)
(1.2527 0.00872094 0)
(1.25146 0.00896228 0)
(1.25018 0.00917932 0)
(1.24886 0.00937288 0)
(1.24751 0.00954381 0)
(1.24612 0.00969303 0)
(1.24471 0.00982144 0)
(1.24326 0.00993 0)
(1.24179 0.0100197 0)
(1.24029 0.0100915 0)
(1.23877 0.0101463 0)
(1.23723 0.0101853 0)
(1.23567 0.0102094 0)
(1.23409 0.0102195 0)
(1.23249 0.0102167 0)
(1.23087 0.010202 0)
(1.22924 0.0101763 0)
(1.2276 0.0101405 0)
(1.22594 0.0100956 0)
(1.22427 0.0100424 0)
(1.22259 0.00998188 0)
(1.22091 0.00991476 0)
(1.21921 0.00984188 0)
(1.21751 0.00976399 0)
(1.21581 0.00968183 0)
(1.21409 0.00959608 0)
(1.21238 0.00950738 0)
(1.21065 0.00941636 0)
(1.20893 0.0093236 0)
(1.2072 0.00922962 0)
(1.20547 0.00913494 0)
(1.20374 0.00904002 0)
(1.202 0.00894532 0)
(1.20027 0.00885124 0)
(1.19853 0.00875818 0)
(1.19679 0.00866651 0)
(1.19505 0.00857662 0)
(1.19332 0.00848887 0)
(1.19158 0.00840366 0)
(1.18984 0.00832138 0)
(1.1881 0.00824253 0)
(1.18635 0.00816762 0)
(1.18461 0.00809736 0)
(1.18287 0.00803234 0)
(1.18112 0.00797422 0)
(1.17938 0.00792231 0)
(1.17761 0.00788369 0)
(1.1759 0.00784593 0)
(1.174 0.00784869 0)
(1.17264 0.00780701 0)
(1.16969 0.00792152 0)
(1.25348 0.00955433 0)
(1.25218 0.00984107 0)
(1.25084 0.0101004 0)
(1.24947 0.010333 0)
(1.24805 0.01054 0)
(1.24661 0.0107223 0)
(1.24513 0.0108808 0)
(1.24362 0.0110166 0)
(1.24209 0.0111306 0)
(1.24053 0.0112241 0)
(1.23894 0.011298 0)
(1.23733 0.0113534 0)
(1.2357 0.0113915 0)
(1.23405 0.0114133 0)
(1.23238 0.0114199 0)
(1.2307 0.0114124 0)
(1.229 0.0113918 0)
(1.22728 0.0113593 0)
(1.22556 0.0113157 0)
(1.22382 0.0112622 0)
(1.22207 0.0111997 0)
(1.22031 0.0111291 0)
(1.21854 0.0110513 0)
(1.21677 0.0109672 0)
(1.21499 0.0108776 0)
(1.21321 0.0107833 0)
(1.21142 0.0106851 0)
(1.20963 0.0105837 0)
(1.20783 0.0104796 0)
(1.20604 0.0103737 0)
(1.20424 0.0102664 0)
(1.20244 0.0101582 0)
(1.20064 0.0100498 0)
(1.19883 0.00994156 0)
(1.19703 0.00983396 0)
(1.19523 0.00972741 0)
(1.19343 0.00962233 0)
(1.19163 0.00951912 0)
(1.18983 0.00941818 0)
(1.18804 0.00931992 0)
(1.18624 0.00922478 0)
(1.18444 0.00913327 0)
(1.18265 0.00904593 0)
(1.18086 0.00896352 0)
(1.17906 0.00888663 0)
(1.17727 0.00881709 0)
(1.17549 0.008754 0)
(1.17368 0.00870513 0)
(1.17193 0.00865688 0)
(1.16999 0.00865159 0)
(1.16861 0.00860025 0)
(1.16562 0.00870892 0)
(1.25281 0.0107148 0)
(1.25141 0.0110197 0)
(1.24997 0.0112949 0)
(1.24849 0.0115413 0)
(1.24698 0.0117598 0)
(1.24543 0.0119514 0)
(1.24386 0.0121174 0)
(1.24225 0.0122587 0)
(1.24062 0.0123765 0)
(1.23896 0.012472 0)
(1.23728 0.0125463 0)
(1.23558 0.0126007 0)
(1.23386 0.0126363 0)
(1.23211 0.0126543 0)
(1.23035 0.0126559 0)
(1.22858 0.0126423 0)
(1.22679 0.0126145 0)
(1.22499 0.0125738 0)
(1.22317 0.0125211 0)
(1.22135 0.0124577 0)
(1.21952 0.0123846 0)
(1.21768 0.0123027 0)
(1.21583 0.0122131 0)
(1.21398 0.0121166 0)
(1.21212 0.0120142 0)
(1.21025 0.0119067 0)
(1.20839 0.011795 0)
(1.20652 0.0116797 0)
(1.20465 0.0115616 0)
(1.20278 0.0114414 0)
(1.20091 0.0113197 0)
(1.19904 0.0111972 0)
(1.19717 0.0110742 0)
(1.1953 0.0109514 0)
(1.19343 0.0108293 0)
(1.19157 0.0107083 0)
(1.18971 0.0105888 0)
(1.18785 0.0104712 0)
(1.18599 0.0103561 0)
(1.18413 0.0102438 0)
(1.18228 0.0101347 0)
(1.18043 0.0100295 0)
(1.17859 0.00992866 0)
(1.17675 0.009833 0)
(1.17491 0.00974309 0)
(1.17307 0.00966091 0)
(1.17124 0.00958537 0)
(1.16939 0.00952488 0)
(1.16762 0.00946469 0)
(1.16564 0.00944957 0)
(1.16424 0.00938726 0)
(1.16121 0.00948666 0)
(1.25185 0.0119387 0)
(1.25034 0.0122597 0)
(1.24879 0.0125485 0)
(1.24721 0.0128063 0)
(1.24559 0.0130341 0)
(1.24394 0.0132331 0)
(1.24226 0.0134044 0)
(1.24056 0.0135492 0)
(1.23882 0.0136689 0)
(1.23706 0.0137645 0)
(1.23528 0.0138375 0)
(1.23348 0.013889 0)
(1.23166 0.0139204 0)
(1.22983 0.013933 0)
(1.22797 0.0139279 0)
(1.2261 0.0139065 0)
(1.22422 0.01387 0)
(1.22233 0.0138196 0)
(1.22043 0.0137565 0)
(1.21852 0.0136818 0)
(1.2166 0.0135967 0)
(1.21467 0.0135022 0)
(1.21274 0.0133995 0)
(1.21081 0.0132894 0)
(1.20887 0.0131729 0)
(1.20693 0.0130511 0)
(1.20498 0.0129246 0)
(1.20304 0.0127943 0)
(1.2011 0.0126611 0)
(1.19915 0.0125256 0)
(1.19721 0.0123884 0)
(1.19527 0.0122503 0)
(1.19333 0.0121118 0)
(1.1914 0.0119734 0)
(1.18947 0.0118357 0)
(1.18754 0.0116992 0)
(1.18562 0.0115643 0)
(1.1837 0.0114314 0)
(1.18178 0.011301 0)
(1.17987 0.0111736 0)
(1.17797 0.0110496 0)
(1.17607 0.0109296 0)
(1.17417 0.0108142 0)
(1.17228 0.0107042 0)
(1.1704 0.0106001 0)
(1.16852 0.0105041 0)
(1.16666 0.0104149 0)
(1.16477 0.0103414 0)
(1.16297 0.0102679 0)
(1.16095 0.0102412 0)
(1.15954 0.0101667 0)
(1.15648 0.0102533 0)
(1.25057 0.0132283 0)
(1.24895 0.0135627 0)
(1.24729 0.0138627 0)
(1.24559 0.0141295 0)
(1.24386 0.0143643 0)
(1.2421 0.0145683 0)
(1.24031 0.0147427 0)
(1.2385 0.0148889 0)
(1.23666 0.0150082 0)
(1.2348 0.015102 0)
(1.23292 0.0151715 0)
(1.23101 0.0152183 0)
(1.22909 0.0152436 0)
(1.22716 0.0152488 0)
(1.22521 0.0152353 0)
(1.22325 0.0152045 0)
(1.22127 0.0151575 0)
(1.21929 0.0150959 0)
(1.2173 0.0150207 0)
(1.2153 0.0149332 0)
(1.21329 0.0148347 0)
(1.21128 0.0147262 0)
(1.20927 0.0146089 0)
(1.20725 0.0144839 0)
(1.20523 0.0143521 0)
(1.20321 0.0142146 0)
(1.20119 0.0140722 0)
(1.19917 0.0139258 0)
(1.19716 0.0137762 0)
(1.19514 0.0136242 0)
(1.19313 0.0134705 0)
(1.19112 0.0133157 0)
(1.18912 0.0131606 0)
(1.18712 0.0130056 0)
(1.18513 0.0128512 0)
(1.18314 0.0126981 0)
(1.18116 0.0125467 0)
(1.17918 0.0123975 0)
(1.17721 0.0122509 0)
(1.17525 0.0121073 0)
(1.1733 0.0119674 0)
(1.17135 0.0118316 0)
(1.16941 0.0117006 0)
(1.16748 0.0115751 0)
(1.16555 0.0114558 0)
(1.16364 0.0113449 0)
(1.16174 0.0112407 0)
(1.15982 0.011153 0)
(1.15799 0.0110649 0)
(1.15594 0.0110247 0)
(1.15452 0.0109371 0)
(1.15143 0.0110074 0)
(1.24894 0.0145847 0)
(1.24719 0.0149297 0)
(1.24541 0.0152383 0)
(1.24359 0.0155115 0)
(1.24175 0.0157506 0)
(1.23988 0.0159571 0)
(1.23798 0.0161322 0)
(1.23605 0.0162774 0)
(1.2341 0.016394 0)
(1.23214 0.0164836 0)
(1.23015 0.0165476 0)
(1.22814 0.0165875 0)
(1.22612 0.0166047 0)
(1.22409 0.0166006 0)
(1.22204 0.0165768 0)
(1.21998 0.0165346 0)
(1.21791 0.0164755 0)
(1.21584 0.0164008 0)
(1.21376 0.0163119 0)
(1.21167 0.0162101 0)
(1.20958 0.0160966 0)
(1.20748 0.0159726 0)
(1.20539 0.0158394 0)
(1.20329 0.015698 0)
(1.20119 0.0155495 0)
(1.1991 0.015395 0)
(1.19701 0.0152354 0)
(1.19491 0.0150716 0)
(1.19283 0.0149045 0)
(1.19075 0.0147348 0)
(1.18867 0.0145634 0)
(1.1866 0.0143909 0)
(1.18453 0.014218 0)
(1.18247 0.0140453 0)
(1.18042 0.0138733 0)
(1.17837 0.0137026 0)
(1.17634 0.0135337 0)
(1.17431 0.0133671 0)
(1.17229 0.0132033 0)
(1.17028 0.0130426 0)
(1.16828 0.0128857 0)
(1.16629 0.0127332 0)
(1.16431 0.0125855 0)
(1.16234 0.0124436 0)
(1.16038 0.012308 0)
(1.15843 0.0121809 0)
(1.1565 0.0120608 0)
(1.15455 0.0119575 0)
(1.1527 0.0118536 0)
(1.15062 0.0117984 0)
(1.1492 0.0116967 0)
(1.14609 0.0117471 0)
(1.2469 0.0160078 0)
(1.24503 0.0163607 0)
(1.24312 0.0166748 0)
(1.24119 0.0169516 0)
(1.23923 0.0171924 0)
(1.23724 0.0173987 0)
(1.23522 0.0175718 0)
(1.23318 0.0177134 0)
(1.23113 0.017825 0)
(1.22905 0.0179081 0)
(1.22696 0.0179642 0)
(1.22485 0.0179949 0)
(1.22272 0.0180018 0)
(1.22059 0.0179864 0)
(1.21845 0.0179502 0)
(1.21629 0.0178948 0)
(1.21413 0.0178216 0)
(1.21197 0.0177321 0)
(1.2098 0.0176277 0)
(1.20762 0.0175098 0)
(1.20545 0.0173797 0)
(1.20327 0.0172387 0)
(1.2011 0.017088 0)
(1.19892 0.0169289 0)
(1.19675 0.0167623 0)
(1.19458 0.0165895 0)
(1.19242 0.0164114 0)
(1.19026 0.0162289 0)
(1.1881 0.016043 0)
(1.18596 0.0158546 0)
(1.18382 0.0156643 0)
(1.18168 0.015473 0)
(1.17956 0.0152812 0)
(1.17744 0.0150898 0)
(1.17534 0.0148991 0)
(1.17324 0.0147098 0)
(1.17115 0.0145225 0)
(1.16908 0.0143375 0)
(1.16701 0.0141554 0)
(1.16496 0.0139768 0)
(1.16292 0.013802 0)
(1.16089 0.0136317 0)
(1.15887 0.0134664 0)
(1.15687 0.0133071 0)
(1.15488 0.0131542 0)
(1.1529 0.0130101 0)
(1.15094 0.0128729 0)
(1.14897 0.0127529 0)
(1.14711 0.0126322 0)
(1.14501 0.0125601 0)
(1.14359 0.0124437 0)
(1.14047 0.0124706 0)
(1.24443 0.0174971 0)
(1.24243 0.0178545 0)
(1.2404 0.0181712 0)
(1.23835 0.0184485 0)
(1.23626 0.018688 0)
(1.23415 0.0188912 0)
(1.23202 0.0190597 0)
(1.22987 0.0191951 0)
(1.2277 0.0192989 0)
(1.22552 0.0193729 0)
(1.22332 0.0194187 0)
(1.22111 0.0194379 0)
(1.21888 0.0194322 0)
(1.21665 0.0194033 0)
(1.21441 0.0193527 0)
(1.21217 0.019282 0)
(1.20992 0.0191928 0)
(1.20766 0.0190867 0)
(1.20541 0.018965 0)
(1.20315 0.0188293 0)
(1.20089 0.018681 0)
(1.19864 0.0185214 0)
(1.19639 0.0183517 0)
(1.19414 0.0181733 0)
(1.1919 0.0179873 0)
(1.18966 0.0177948 0)
(1.18743 0.0175968 0)
(1.1852 0.0173945 0)
(1.18299 0.0171887 0)
(1.18078 0.0169802 0)
(1.17858 0.01677 0)
(1.17639 0.0165587 0)
(1.17421 0.0163471 0)
(1.17205 0.0161358 0)
(1.16989 0.0159255 0)
(1.16775 0.0157167 0)
(1.16562 0.0155099 0)
(1.1635 0.0153057 0)
(1.16139 0.0151045 0)
(1.1593 0.0149069 0)
(1.15723 0.0147134 0)
(1.15517 0.0145244 0)
(1.15312 0.0143407 0)
(1.15109 0.0141631 0)
(1.14907 0.0139921 0)
(1.14707 0.0138299 0)
(1.1451 0.0136748 0)
(1.14311 0.0135368 0)
(1.14123 0.0133984 0)
(1.13912 0.0133078 0)
(1.1377 0.0131762 0)
(1.13458 0.0131762 0)
(1.2415 0.0190505 0)
(1.23937 0.0194092 0)
(1.23722 0.0197252 0)
(1.23504 0.0199999 0)
(1.23283 0.020235 0)
(1.2306 0.0204322 0)
(1.22836 0.020593 0)
(1.22609 0.0207193 0)
(1.22381 0.0208127 0)
(1.22152 0.020875 0)
(1.21922 0.0209079 0)
(1.21691 0.0209132 0)
(1.21458 0.0208927 0)
(1.21226 0.0208479 0)
(1.20992 0.0207807 0)
(1.20759 0.0206927 0)
(1.20525 0.0205855 0)
(1.20291 0.0204608 0)
(1.20057 0.0203201 0)
(1.19824 0.0201649 0)
(1.1959 0.0199967 0)
(1.19358 0.0198168 0)
(1.19125 0.0196267 0)
(1.18894 0.0194275 0)
(1.18663 0.0192207 0)
(1.18432 0.0190072 0)
(1.18203 0.0187882 0)
(1.17975 0.0185647 0)
(1.17747 0.0183377 0)
(1.17521 0.0181082 0)
(1.17296 0.0178769 0)
(1.17072 0.0176446 0)
(1.1685 0.0174122 0)
(1.16629 0.0171802 0)
(1.16409 0.0169492 0)
(1.16191 0.01672 0)
(1.15974 0.0164929 0)
(1.15758 0.0162686 0)
(1.15544 0.0160474 0)
(1.15332 0.0158301 0)
(1.15122 0.0156169 0)
(1.14913 0.0154086 0)
(1.14706 0.0152057 0)
(1.145 0.0150089 0)
(1.14297 0.0148189 0)
(1.14095 0.0146378 0)
(1.13897 0.0144639 0)
(1.13697 0.0143071 0)
(1.13509 0.0141501 0)
(1.13297 0.0140395 0)
(1.13155 0.0138925 0)
(1.12845 0.013862 0)
(1.23808 0.0206654 0)
(1.23582 0.0210219 0)
(1.23354 0.0213337 0)
(1.23123 0.0216025 0)
(1.22891 0.02183 0)
(1.22656 0.022018 0)
(1.2242 0.0221682 0)
(1.22183 0.0222825 0)
(1.21944 0.0223627 0)
(1.21705 0.0224106 0)
(1.21464 0.022428 0)
(1.21223 0.0224169 0)
(1.20981 0.0223791 0)
(1.20739 0.0223162 0)
(1.20497 0.0222302 0)
(1.20255 0.0221228 0)
(1.20013 0.0219957 0)
(1.19771 0.0218505 0)
(1.1953 0.0216889 0)
(1.19289 0.0215124 0)
(1.19048 0.0213227 0)
(1.18809 0.021121 0)
(1.1857 0.0209089 0)
(1.18332 0.0206876 0)
(1.18095 0.0204585 0)
(1.17859 0.0202227 0)
(1.17624 0.0199814 0)
(1.1739 0.0197357 0)
(1.17158 0.0194865 0)
(1.16927 0.0192347 0)
(1.16697 0.0189814 0)
(1.16469 0.0187272 0)
(1.16242 0.0184729 0)
(1.16017 0.0182192 0)
(1.15794 0.0179668 0)
(1.15572 0.0177163 0)
(1.15352 0.0174681 0)
(1.15134 0.0172229 0)
(1.14918 0.0169811 0)
(1.14703 0.0167432 0)
(1.1449 0.0165098 0)
(1.1428 0.0162813 0)
(1.14071 0.0160584 0)
(1.13864 0.0158418 0)
(1.13659 0.0156322 0)
(1.13457 0.0154314 0)
(1.13258 0.015238 0)
(1.13057 0.0150614 0)
(1.12869 0.0148852 0)
(1.12658 0.0147531 0)
(1.12517 0.0145906 0)
(1.12208 0.0145264 0)
(1.23415 0.0223381 0)
(1.23176 0.0226887 0)
(1.22935 0.0229928 0)
(1.22692 0.0232522 0)
(1.22448 0.0234688 0)
(1.22202 0.0236444 0)
(1.21955 0.0237809 0)
(1.21707 0.0238802 0)
(1.21458 0.0239443 0)
(1.21208 0.0239751 0)
(1.20958 0.0239745 0)
(1.20707 0.0239444 0)
(1.20457 0.0238869 0)
(1.20206 0.0238037 0)
(1.19955 0.0236967 0)
(1.19705 0.0235678 0)
(1.19455 0.0234187 0)
(1.19206 0.0232512 0)
(1.18958 0.0230669 0)
(1.1871 0.0228675 0)
(1.18463 0.0226546 0)
(1.18217 0.0224296 0)
(1.17972 0.022194 0)
(1.17728 0.0219493 0)
(1.17486 0.0216966 0)
(1.17245 0.0214373 0)
(1.17005 0.0211726 0)
(1.16767 0.0209034 0)
(1.1653 0.0206309 0)
(1.16295 0.020356 0)
(1.16062 0.0200796 0)
(1.1583 0.0198025 0)
(1.156 0.0195256 0)
(1.15372 0.0192495 0)
(1.15146 0.0189748 0)
(1.14922 0.0187022 0)
(1.14699 0.0184322 0)
(1.14479 0.0181654 0)
(1.1426 0.0179023 0)
(1.14044 0.0176432 0)
(1.1383 0.0173889 0)
(1.13618 0.0171397 0)
(1.13408 0.0168962 0)
(1.13201 0.0166592 0)
(1.12996 0.0164293 0)
(1.12793 0.0162082 0)
(1.12594 0.0159947 0)
(1.12393 0.0157975 0)
(1.12206 0.0156017 0)
(1.11995 0.0154466 0)
(1.11856 0.0152688 0)
(1.11551 0.0151677 0)
(1.22968 0.0240639 0)
(1.22717 0.0244048 0)
(1.22464 0.0246976 0)
(1.22209 0.0249442 0)
(1.21953 0.0251465 0)
(1.21696 0.0253064 0)
(1.21438 0.0254261 0)
(1.2118 0.0255074 0)
(1.20921 0.0255525 0)
(1.20662 0.0255634 0)
(1.20402 0.0255421 0)
(1.20143 0.0254907 0)
(1.19884 0.025411 0)
(1.19625 0.0253052 0)
(1.19367 0.0251751 0)
(1.19109 0.0250226 0)
(1.18852 0.0248497 0)
(1.18596 0.024658 0)
(1.18341 0.0244493 0)
(1.18087 0.0242253 0)
(1.17835 0.0239877 0)
(1.17583 0.023738 0)
(1.17333 0.0234776 0)
(1.17085 0.0232081 0)
(1.16838 0.0229307 0)
(1.16592 0.0226467 0)
(1.16348 0.0223573 0)
(1.16106 0.0220638 0)
(1.15866 0.021767 0)
(1.15628 0.021468 0)
(1.15391 0.0211677 0)
(1.15157 0.020867 0)
(1.14924 0.0205666 0)
(1.14694 0.0202673 0)
(1.14466 0.0199697 0)
(1.1424 0.0196744 0)
(1.14016 0.019382 0)
(1.13794 0.019093 0)
(1.13574 0.0188079 0)
(1.13357 0.0185272 0)
(1.13142 0.0182514 0)
(1.1293 0.0179809 0)
(1.1272 0.0177165 0)
(1.12513 0.0174585 0)
(1.12308 0.0172079 0)
(1.12105 0.0169659 0)
(1.11907 0.0167319 0)
(1.11708 0.0165132 0)
(1.11522 0.0162976 0)
(1.11313 0.0161182 0)
(1.11175 0.0159254 0)
(1.10875 0.0157843 0)
(1.22467 0.0258374 0)
(1.22203 0.0261648 0)
(1.21938 0.0264426 0)
(1.21672 0.0266728 0)
(1.21405 0.0268573 0)
(1.21138 0.0269984 0)
(1.2087 0.0270981 0)
(1.20602 0.0271585 0)
(1.20333 0.0271818 0)
(1.20065 0.0271701 0)
(1.19797 0.0271255 0)
(1.1953 0.0270502 0)
(1.19263 0.0269461 0)
(1.18997 0.0268155 0)
(1.18732 0.0266602 0)
(1.18467 0.0264822 0)
(1.18204 0.0262835 0)
(1.17942 0.0260659 0)
(1.17682 0.0258312 0)
(1.17422 0.0255811 0)
(1.17165 0.0253173 0)
(1.16909 0.0250414 0)
(1.16654 0.024755 0)
(1.16401 0.0244594 0)
(1.16151 0.0241562 0)
(1.15902 0.0238465 0)
(1.15655 0.0235316 0)
(1.1541 0.0232126 0)
(1.15167 0.0228907 0)
(1.14926 0.0225668 0)
(1.14687 0.0222419 0)
(1.14451 0.0219168 0)
(1.14217 0.0215923 0)
(1.13985 0.0212692 0)
(1.13755 0.0209481 0)
(1.13528 0.0206295 0)
(1.13304 0.0203142 0)
(1.13081 0.0200025 0)
(1.12861 0.019695 0)
(1.12644 0.0193922 0)
(1.12429 0.0190945 0)
(1.12217 0.0188024 0)
(1.12008 0.0185165 0)
(1.11801 0.0182372 0)
(1.11598 0.0179655 0)
(1.11396 0.0177022 0)
(1.112 0.0174474 0)
(1.11002 0.0172067 0)
(1.10819 0.0169711 0)
(1.10612 0.0167662 0)
(1.10476 0.0165589 0)
(1.10181 0.0163749 0)
(1.2191 0.0276524 0)
(1.21634 0.0279625 0)
(1.21358 0.0282217 0)
(1.21081 0.0284318 0)
(1.20804 0.0285953 0)
(1.20527 0.0287142 0)
(1.20249 0.0287908 0)
(1.19972 0.0288273 0)
(1.19695 0.028826 0)
(1.19419 0.0287891 0)
(1.19143 0.0287187 0)
(1.18868 0.0286171 0)
(1.18595 0.0284865 0)
(1.18322 0.0283289 0)
(1.18051 0.0281464 0)
(1.17781 0.0279411 0)
(1.17512 0.0277149 0)
(1.17245 0.0274697 0)
(1.16979 0.0272074 0)
(1.16716 0.0269297 0)
(1.16454 0.0266385 0)
(1.16194 0.0263352 0)
(1.15936 0.0260215 0)
(1.1568 0.0256989 0)
(1.15427 0.0253687 0)
(1.15175 0.0250323 0)
(1.14926 0.024691 0)
(1.14679 0.0243459 0)
(1.14434 0.0239981 0)
(1.14192 0.0236486 0)
(1.13952 0.0232984 0)
(1.13714 0.0229484 0)
(1.13479 0.0225992 0)
(1.13247 0.0222518 0)
(1.13017 0.0219066 0)
(1.1279 0.0215644 0)
(1.12565 0.0212257 0)
(1.12343 0.020891 0)
(1.12124 0.0205608 0)
(1.11907 0.0202355 0)
(1.11693 0.0199156 0)
(1.11482 0.0196015 0)
(1.11274 0.019294 0)
(1.11069 0.018993 0)
(1.10867 0.0186999 0)
(1.10668 0.018415 0)
(1.10474 0.0181392 0)
(1.10279 0.017876 0)
(1.10098 0.0176204 0)
(1.09894 0.0173889 0)
(1.09761 0.0171679 0)
(1.09473 0.0169383 0)
(1.21296 0.0295021 0)
(1.2101 0.0297911 0)
(1.20723 0.0300279 0)
(1.20436 0.0302147 0)
(1.20149 0.0303537 0)
(1.19863 0.0304473 0)
(1.19577 0.0304978 0)
(1.19292 0.0305076 0)
(1.19007 0.030479 0)
(1.18723 0.0304143 0)
(1.18441 0.0303157 0)
(1.1816 0.0301857 0)
(1.1788 0.0300263 0)
(1.17602 0.0298397 0)
(1.17325 0.0296282 0)
(1.1705 0.0293937 0)
(1.16777 0.0291384 0)
(1.16506 0.0288641 0)
(1.16236 0.0285728 0)
(1.15969 0.0282663 0)
(1.15704 0.0279463 0)
(1.15442 0.0276146 0)
(1.15181 0.0272726 0)
(1.14923 0.0269219 0)
(1.14667 0.026564 0)
(1.14414 0.0262001 0)
(1.14163 0.0258316 0)
(1.13915 0.0254596 0)
(1.1367 0.0250853 0)
(1.13426 0.0247097 0)
(1.13186 0.0243337 0)
(1.12948 0.0239582 0)
(1.12714 0.0235839 0)
(1.12481 0.0232117 0)
(1.12252 0.0228422 0)
(1.12025 0.022476 0)
(1.11802 0.0221136 0)
(1.11581 0.0217556 0)
(1.11363 0.0214024 0)
(1.11148 0.0210544 0)
(1.10936 0.0207122 0)
(1.10727 0.0203759 0)
(1.10521 0.0200465 0)
(1.10318 0.0197237 0)
(1.10119 0.0194093 0)
(1.09923 0.0191024 0)
(1.09731 0.0188056 0)
(1.09539 0.0185194 0)
(1.09362 0.0182441 0)
(1.09162 0.017985 0)
(1.09032 0.017751 0)
(1.08752 0.0174734 0)
(1.20627 0.0313792 0)
(1.2033 0.0316434 0)
(1.20033 0.0318542 0)
(1.19737 0.0320141 0)
(1.19442 0.0321255 0)
(1.19147 0.0321907 0)
(1.18854 0.0322123 0)
(1.18561 0.0321927 0)
(1.1827 0.0321342 0)
(1.1798 0.0320392 0)
(1.17691 0.0319103 0)
(1.17405 0.0317496 0)
(1.1712 0.0315594 0)
(1.16837 0.0313421 0)
(1.16556 0.0310998 0)
(1.16277 0.0308347 0)
(1.16 0.0305487 0)
(1.15726 0.030244 0)
(1.15454 0.0299225 0)
(1.15184 0.0295859 0)
(1.14917 0.0292361 0)
(1.14653 0.0288749 0)
(1.14391 0.0285037 0)
(1.14131 0.0281241 0)
(1.13875 0.0277377 0)
(1.13621 0.0273456 0)
(1.13369 0.0269494 0)
(1.13121 0.02655 0)
(1.12875 0.0261487 0)
(1.12633 0.0257464 0)
(1.12393 0.0253442 0)
(1.12156 0.0249428 0)
(1.11922 0.0245432 0)
(1.11691 0.024146 0)
(1.11463 0.0237518 0)
(1.11238 0.0233614 0)
(1.11016 0.0229752 0)
(1.10797 0.0225937 0)
(1.10581 0.0222174 0)
(1.10369 0.0218466 0)
(1.10159 0.021482 0)
(1.09953 0.0211235 0)
(1.0975 0.0207722 0)
(1.09551 0.0204275 0)
(1.09355 0.0200916 0)
(1.09162 0.0197627 0)
(1.08974 0.0194449 0)
(1.08786 0.0191354 0)
(1.08613 0.0188407 0)
(1.08417 0.0185531 0)
(1.08291 0.0183073 0)
(1.08019 0.0179792 0)
(1.19901 0.033276 0)
(1.19595 0.0335116 0)
(1.1929 0.0336931 0)
(1.18986 0.0338229 0)
(1.18683 0.0339035 0)
(1.18381 0.0339375 0)
(1.1808 0.0339274 0)
(1.17782 0.0338757 0)
(1.17484 0.0337849 0)
(1.17189 0.0336576 0)
(1.16896 0.033496 0)
(1.16605 0.0333028 0)
(1.16316 0.0330801 0)
(1.1603 0.0328303 0)
(1.15745 0.0325557 0)
(1.15464 0.0322584 0)
(1.15185 0.0319406 0)