/*--------------------------------*- C++ -*----------------------------------*\
  =========                 |
  \\      /  F ield         | OpenFOAM: The Open Source CFD Toolbox
   \\    /   O peration     | Website:  https://openfoam.org
    \\  /    A nd           | Version:  7
     \\/     M anipulation  |
\*---------------------------------------------------------------------------*/
FoamFile
{
    version     2.0;
    format      ascii;
    class       volScalarField;
    location    "5";
    object      p;
}
// * * * * * * * * * * * * * * * * * * * * * * * * * * * * * * * * * * * * * //

dimensions      [0 2 -2 0 0 0 0];

internalField   nonuniform List<scalar> 
656
(
0.00471126
0.00542351
0.00569454
0.0056292
0.00532525
0.00486841
0.00432922
0.0037621
0.00320608
0.0026867
0.00221865
0.00180823
0.00145596
0.00115779
0.000916453
0.00071804
0.000557745
0.000428984
0.000327893
0.000246992
0.000186789
0.000135364
0.000104372
6.56952e-05
6.18793e-05
1.37985e-05
5.40533e-05
0.00461268
0.00534194
0.00562776
0.00557506
0.00528173
0.00483367
0.00430166
0.00374035
0.003189
0.00267336
0.00220829
0.00180023
0.00144983
0.00115276
0.000912876
0.000715313
0.000555671
0.000427419
0.00032672
0.000246122
0.000186145
0.0001349
0.000104027
6.54717e-05
6.16828e-05
1.37475e-05
5.38718e-05
0.00441631
0.00517932
0.00549458
0.00546703
0.00519483
0.00476427
0.00424659
0.00369689
0.00315487
0.0026467
0.00218757
0.00178425
0.00143758
0.00114265
0.000905745
0.000709864
0.000551526
0.000424291
0.000324378
0.000244383
0.000184859
0.000133971
0.000103337
6.50252e-05
6.12905e-05
1.36455e-05
5.35098e-05
0.00412374
0.00493678
0.00529572
0.00530558
0.00506487
0.00466042
0.00416413
0.00363178
0.00310374
0.00260673
0.00215651
0.00176029
0.00141929
0.00112695
0.000895098
0.000701704
0.000545317
0.000419607
0.00032087
0.00024178
0.000182935
0.000132583
0.000102304
6.43573e-05
6.07038e-05
1.34928e-05
5.29693e-05
0.0037373
0.00461593
0.0050323
0.00509144
0.00489231
0.0045224
0.00405446
0.00354515
0.00303566
0.00255352
0.00211514
0.00172839
0.00139507
0.00110548
0.000880993
0.000690845
0.000537051
0.000413374
0.000316204
0.000238319
0.000180376
0.000130737
0.000100932
6.34698e-05
5.99249e-05
1.32895e-05
5.22537e-05
0.00326001
0.00421889
0.00470574
0.00482556
0.00467774
0.0043506
0.00391781
0.00343712
0.00295073
0.0024871
0.00206349
0.00168855
0.0013652
0.0011002
0.000863627
0.000677282
0.000526742
0.000405603
0.000310391
0.000234008
0.00017719
0.000128439
9.92246e-05
6.23656e-05
5.89566e-05
1.30361e-05
5.1367e-05
0.00269548
0.00374819
0.00431775
0.00450905
0.00442191
0.00414545
0.00375447
0.00330787
0.00284905
0.00240756
0.00200161
0.00164075
0.0013287
0.00106893
0.000842254
0.000661021
0.000514399
0.000396309
0.000303441
0.000228857
0.000173386
0.000125696
9.71869e-05
6.10479e-05
5.78023e-05
1.2733e-05
5.03145e-05
0.00204781
0.00320672
0.00387033
0.00414325
0.00412564
0.00390749
0.00356474
0.0031576
0.00273075
0.00231496
0.00192955
0.00158503
0.00128585
0.00103395
0.000817157
0.000642065
0.000500041
0.000385507
0.000295369
0.000222877
0.000168971
0.000122515
9.48248e-05
5.95207e-05
5.64662e-05
1.23807e-05
4.91023e-05
0.00132152
0.00259767
0.00336567
0.00372959
0.00378987
0.00363729
0.00334899
0.00298651
0.00259594
0.00220938
0.00184735
0.00152142
0.00123686
0.000995319
0.000788405
0.000620448
0.00048369
0.000373218
0.000286192
0.000216084
0.000163959
0.000118904
9.21453e-05
5.77885e-05
5.49531e-05
1.19799e-05
4.77372e-05
0.000521439
0.0019245
0.00280614
0.00326968
0.00341563
0.00333551
0.0031076
0.00279484
0.00244477
0.00209092
0.00175508
0.00144999
0.00118183
0.000952531
0.000755856
0.00059621
0.000465372
0.000359463
0.000275928
0.000208492
0.00015836
0.000114874
8.91561e-05
5.58565e-05
5.32683e-05
1.1531e-05
4.62273e-05
-0.000347352
0.00119089
0.00219431
0.00276524
0.00300405
0.00300285
0.00284101
0.00258285
0.00227741
0.00195968
0.00165283
0.00137081
0.00112084
0.000905477
0.000719546
0.000569416
0.000445117
0.000344268
0.0002646
0.000200118
0.00015219
0.000110436
8.58662e-05
5.37304e-05
5.14178e-05
1.1035e-05
4.45812e-05
-0.00127959
0.000400671
0.0015329
0.00221813
0.00255634
0.00264008
0.00254969
0.00235084
0.00209403
0.00181577
0.00154066
0.00128394
0.00105394
0.000854152
0.000685064
0.000540134
0.000422953
0.000327661
0.00025223
0.000190983
0.000145464
0.000105601
8.22851e-05
5.14165e-05
4.94081e-05
1.04924e-05
4.2808e-05
-0.00227028
-0.000442561
0.00082437
0.00162992
0.00207347
0.00224773
0.00223391
0.00209889
0.00189465
0.00165918
0.00141856
0.00118937
0.000981135
0.000798301
0.000641877
0.00050809
0.000398887
0.000309667
0.000238838
0.000181104
0.000138197
0.000100381
7.84221e-05
4.89209e-05
4.72458e-05
9.90396e-06
4.09179e-05
-0.00133593
7.04931e-05
0.00100159
0.0015558
0.00182582
0.00189346
0.00182674
0.00167898
0.00148967
0.00128634
0.00108698
0.000902333
0.000737914
0.000595541
0.000473356
0.000372899
0.0002903
0.000224439
0.000170494
0.000130401
9.47867e-05
7.42863e-05
4.62497e-05
4.49378e-05
9.27025e-06
3.89212e-05
-0.00227435
-0.000724784
0.000336128
0.00100561
0.00137603
0.00152964
0.00153536
0.00144778
0.00130781
0.00114446
0.000977109
0.000817823
0.000673248
0.00054627
0.000436494
0.000345092
0.000269623
0.000209093
0.000159197
0.000122108
8.88412e-05
6.98949e-05
4.34135e-05
4.24938e-05
8.59243e-06
3.68294e-05
-0.00324289
-0.00154785
-0.000354311
0.000433489
0.000907409
0.00114994
0.00123085
0.00120591
0.00111742
0.00099584
0.000861988
0.00072926
0.000605508
0.000494719
0.000397504
0.000315964
0.000247906
0.000193001
0.000147355
0.000113413
8.26058e-05
6.52878e-05
4.04355e-05
3.99301e-05
7.87452e-06
3.46551e-05
-0.00423416
-0.00239199
-0.00106395
-0.000155804
0.000423707
0.00075726
0.000915362
0.000954922
0.00091958
0.000841235
0.000742121
0.000636985
0.00053491
0.000441005
0.000356993
0.000285662
0.000225199
0.000176194
0.00013499
0.000104332
7.60931e-05
6.04741e-05
3.73228e-05
3.72532e-05
7.11918e-06
3.24086e-05
-0.00533863
-0.00334579
-0.00187689
-0.000839678
-0.000144115
0.000291864
0.000538728
0.000653844
0.000681704
0.000655345
0.000598312
0.00052673
0.000451047
0.000377676
0.000309702
0.000250389
0.00019919
0.000157031
0.000121023
9.41842e-05
6.88815e-05
5.51999e-05
3.39361e-05
3.43894e-05
6.3011e-06
3.00863e-05
-0.00669481
-0.00455155
-0.00293231
-0.0017485
-0.000913596
-0.000348537
1.48073e-05
0.000232317
0.000347917
0.000394932
0.000397879
0.000374322
0.000336385
0.000292236
0.000246736
0.000204212
0.000165556
0.000132799
0.000103698
8.18557e-05
6.02861e-05
4.90621e-05
3.00459e-05
3.1229e-05
5.35971e-06
2.76919e-05
-0.00763393
-0.00537514
-0.0036433
-0.00235284
-0.00141951
-0.000765826
-0.000324515
-3.99015e-05
0.000132267
0.000226056
0.000266991
0.000273794
0.000259773
0.000234257
0.000203224
0.000171673
0.000141313
0.000114866
9.04924e-05
7.21182e-05
5.32825e-05
4.39067e-05
2.66589e-05
2.8367e-05
4.43351e-06
2.53782e-05
-0.00618746
-0.00387736
-0.00216266
-0.000949192
-0.000139356
0.00036028
0.000633156
0.000749194
0.000763597
0.000717532
0.000639992
0.000550247
0.000460132
0.000376384
0.00030196
0.000238742
0.000185759
0.000143469
0.00010824
8.26037e-05
5.90406e-05
4.66017e-05
2.77314e-05
2.81441e-05
4.38745e-06
2.39273e-05
-0.00627539
-0.00392075
-0.00217024
-0.00093092
-0.000105059
0.000401983
0.000675549
0.000787719
0.000795716
0.00074235
0.000657764
0.000561906
0.000466902
0.000379526
0.000302628
0.000237813
0.000183927
0.000141195
0.000105887
8.03385e-05
5.70561e-05
4.47916e-05
2.64322e-05
2.67767e-05
4.00021e-06
2.25919e-05
-0.00680631
-0.00441781
-0.00262271
-0.00133214
-0.000452258
0.000108221
0.000432044
0.000589545
0.000637023
0.000617042
0.00056
0.000486408
0.000409111
0.000335639
0.000269575
0.000213077
0.000165554
0.00012762
9.59729e-05
7.3097e-05
5.19307e-05
4.10149e-05
2.40437e-05
2.47261e-05
3.43592e-06
2.10375e-05
-0.00728681
-0.00486829
-0.00303341
-0.00169706
-0.000768899
-0.000160633
0.000208189
0.000406373
0.000489405
0.000499634
0.000467667
0.000414496
0.000353576
0.000293086
0.000237238
0.000188662
0.000147266
0.000113996
8.59487e-05
6.57169e-05
4.66767e-05
3.71104e-05
2.15696e-05
2.25755e-05
2.85543e-06
1.9383e-05
-0.007719
-0.00527116
-0.00339881
-0.00202034
-0.00104854
-0.000397685
1.0805e-05
0.000244564
0.00035853
0.000394983
0.000384799
0.000349426
0.000302863
0.000253844
0.000207106
0.000165671
0.000129861
0.000100889
5.40533e-05
)
;

boundaryField
{
    inlet
    {
        type            zeroGradient;
    }
    outlet
    {
        type            fixedValue;
        value           uniform 0;
    }
    cylinder
    {
        type            zeroGradient;
    }
    top
    {
        type            symmetryPlane;
    }
    bottom
    {
        type            symmetryPlane;
    }
    defaultFaces
    {
        type            empty;
    }
    procBoundary11to7
    {
        type            processor;
        value           nonuniform List<scalar> 
28
(
0.00471127
0.00542352
0.00569454
0.0056292
0.00532525
0.00486841
0.00432922
0.0037621
0.00320608
0.0026867
0.00221865
0.00180823
0.00145596
0.00115779
0.000916453
0.00071804
0.000557745
0.000428984
0.000327893
0.000246992
0.000186789
0.000135364
0.000104372
6.56953e-05
6.18793e-05
1.37985e-05
5.38718e-05
1.37985e-05
)
;
    }
    procBoundary11to10
    {
        type            processor;
        value           nonuniform List<scalar> 
25
(
0.00345251
0.00333481
0.00310052
0.00275185
0.00229207
0.00172536
0.00105672
0.000291789
-0.000563259
-0.00150188
-0.00251725
-0.00360239
-0.00475065
-0.00331517
-0.00331517
-0.00440782
-0.00553219
-0.00668063
-0.00794281
-0.00944577
-0.0104997
-0.00917556
-0.00931424
-0.00986438
-0.0103615
)
;
    }
    procBoundary11to14
    {
        type            processor;
        value           uniform -0.0108113;
    }
    procBoundary11to15
    {
        type            processor;
        value           nonuniform List<scalar> 
27
(
7.62035e-05
5.84607e-05
4.14604e-05
3.31833e-05
1.90643e-05
2.03602e-05
2.26287e-06
1.76348e-05
-0.00815389
-0.0056779
-0.00376881
-0.00234857
-0.00133321
-0.000639617
-0.000191156
7.85861e-05
0.000223948
0.000287109
0.000299179
0.000282048
0.000250245
0.00021305
0.000175723
0.000141685
0.000111673
7.62035e-05
8.71707e-05
)
;
    }
}


// ************************************************************************* //
