/*--------------------------------*- C++ -*----------------------------------*\
  =========                 |
  \\      /  F ield         | OpenFOAM: The Open Source CFD Toolbox
   \\    /   O peration     | Website:  https://openfoam.org
    \\  /    A nd           | Version:  7
     \\/     M anipulation  |
\*---------------------------------------------------------------------------*/
FoamFile
{
    version     2.0;
    format      ascii;
    class       volScalarField;
    location    "15";
    object      p;
}
// * * * * * * * * * * * * * * * * * * * * * * * * * * * * * * * * * * * * * //

dimensions      [0 2 -2 0 0 0 0];

internalField   nonuniform List<scalar> 
42000
(
-0.401991
-0.404448
-0.398792
-0.391737
-0.382027
-0.371049
-0.358997
-0.346274
-0.333125
-0.319751
-0.306319
-0.292964
-0.27981
-0.266954
-0.254527
-0.242558
-0.231329
-0.220466
-0.211212
-0.201053
-0.402269
-0.404638
-0.398965
-0.391873
-0.382147
-0.371151
-0.359088
-0.346355
-0.333199
-0.319818
-0.306381
-0.29302
-0.27986
-0.266998
-0.254564
-0.242585
-0.231349
-0.220461
-0.211238
-0.200918
-0.402822
-0.40502
-0.399311
-0.392146
-0.382387
-0.371355
-0.359269
-0.346516
-0.333345
-0.319951
-0.306503
-0.293131
-0.279961
-0.267087
-0.254639
-0.24264
-0.23139
-0.220451
-0.211291
-0.20065
-0.403651
-0.40559
-0.399829
-0.392554
-0.382746
-0.37166
-0.359539
-0.346756
-0.333563
-0.32015
-0.306685
-0.293298
-0.280112
-0.267219
-0.25475
-0.242721
-0.231452
-0.220436
-0.21137
-0.200251
-0.404752
-0.406349
-0.400518
-0.393097
-0.383223
-0.372065
-0.359899
-0.347076
-0.333852
-0.320414
-0.306927
-0.293519
-0.280311
-0.267394
-0.254898
-0.24283
-0.231534
-0.220418
-0.211477
-0.199722
-0.406124
-0.407294
-0.401376
-0.393772
-0.383816
-0.372569
-0.360346
-0.347473
-0.334212
-0.320742
-0.307227
-0.293793
-0.280559
-0.267611
-0.255082
-0.242965
-0.231637
-0.220395
-0.211612
-0.199068
-0.407763
-0.408423
-0.4024
-0.394579
-0.384524
-0.37317
-0.360879
-0.347947
-0.334641
-0.321132
-0.307585
-0.29412
-0.280855
-0.26787
-0.255302
-0.243126
-0.23176
-0.220369
-0.211774
-0.198292
-0.409664
-0.409734
-0.403589
-0.395515
-0.385346
-0.373867
-0.361497
-0.348495
-0.335137
-0.321584
-0.307999
-0.294498
-0.281196
-0.268169
-0.255555
-0.243312
-0.231904
-0.22034
-0.211964
-0.1974
-0.411824
-0.411223
-0.404939
-0.396577
-0.386278
-0.374658
-0.362197
-0.349116
-0.335698
-0.322095
-0.308467
-0.294925
-0.281581
-0.268508
-0.255843
-0.243524
-0.232068
-0.220308
-0.212183
-0.196398
-0.414238
-0.412887
-0.406447
-0.397764
-0.387318
-0.37554
-0.362978
-0.349808
-0.336324
-0.322664
-0.308987
-0.295399
-0.28201
-0.268884
-0.256162
-0.24376
-0.232253
-0.220275
-0.21243
-0.195292
-0.416899
-0.414722
-0.40811
-0.399072
-0.388465
-0.376511
-0.363837
-0.350569
-0.337011
-0.323288
-0.309558
-0.295919
-0.282479
-0.269296
-0.256513
-0.244019
-0.232457
-0.220241
-0.212705
-0.194091
-0.419801
-0.416724
-0.409925
-0.400499
-0.389714
-0.377569
-0.364771
-0.351396
-0.337757
-0.323965
-0.310177
-0.296483
-0.282988
-0.269742
-0.256893
-0.244301
-0.232681
-0.220206
-0.213008
-0.192801
-0.422938
-0.418888
-0.411885
-0.402039
-0.391063
-0.37871
-0.365779
-0.352287
-0.33856
-0.324694
-0.310841
-0.297088
-0.283534
-0.270221
-0.257301
-0.244604
-0.232924
-0.220171
-0.213336
-0.191431
-0.426304
-0.421209
-0.413988
-0.403691
-0.392508
-0.379932
-0.366857
-0.353239
-0.339417
-0.32547
-0.311549
-0.297732
-0.284115
-0.270731
-0.257736
-0.244928
-0.233184
-0.220138
-0.21369
-0.189992
-0.429893
-0.42368
-0.416229
-0.40545
-0.394046
-0.381231
-0.368002
-0.35425
-0.340326
-0.326293
-0.312298
-0.298412
-0.284728
-0.271269
-0.258196
-0.245271
-0.233463
-0.220106
-0.214068
-0.188492
-0.433687
-0.426303
-0.418601
-0.407312
-0.395673
-0.382603
-0.36921
-0.355315
-0.341283
-0.327158
-0.313085
-0.299127
-0.285371
-0.271833
-0.258678
-0.245632
-0.233757
-0.220076
-0.214467
-0.186941
-0.437686
-0.429066
-0.421101
-0.409272
-0.397385
-0.384047
-0.37048
-0.356433
-0.342286
-0.328064
-0.313908
-0.299872
-0.286042
-0.272422
-0.259181
-0.246009
-0.234067
-0.220049
-0.214884
-0.185349
-0.441882
-0.431964
-0.423722
-0.411327
-0.399179
-0.385557
-0.371808
-0.357601
-0.343332
-0.329006
-0.314763
-0.300647
-0.286737
-0.273031
-0.259703
-0.2464
-0.23439
-0.220025
-0.215317
-0.183727
-0.446263
-0.43499
-0.426459
-0.413472
-0.401049
-0.387131
-0.373189
-0.358814
-0.344417
-0.329983
-0.315648
-0.301447
-0.287455
-0.27366
-0.260241
-0.246805
-0.234725
-0.220004
-0.215761
-0.182084
-0.45082
-0.438139
-0.429305
-0.415702
-0.402993
-0.388765
-0.374622
-0.36007
-0.34554
-0.330992
-0.31656
-0.30227
-0.288193
-0.274305
-0.260793
-0.247221
-0.23507
-0.219987
-0.216211
-0.18043
-0.455544
-0.441403
-0.432256
-0.418012
-0.405005
-0.390455
-0.376102
-0.361366
-0.346696
-0.332029
-0.317496
-0.303113
-0.288947
-0.274965
-0.261356
-0.247646
-0.235423
-0.219973
-0.216664
-0.178776
-0.460425
-0.444777
-0.435305
-0.420397
-0.407081
-0.392197
-0.377626
-0.362699
-0.347883
-0.333091
-0.318452
-0.303973
-0.289715
-0.275635
-0.261928
-0.248079
-0.23578
-0.219964
-0.217113
-0.17713
-0.465453
-0.448253
-0.438445
-0.422853
-0.409218
-0.393987
-0.379191
-0.364065
-0.349097
-0.334176
-0.319427
-0.304848
-0.290494
-0.276313
-0.262505
-0.248516
-0.23614
-0.219957
-0.217551
-0.175502
-0.470618
-0.451823
-0.441671
-0.425375
-0.411409
-0.395822
-0.380793
-0.365461
-0.350336
-0.335281
-0.320417
-0.305733
-0.29128
-0.276997
-0.263086
-0.248955
-0.2365
-0.219955
-0.217972
-0.1739
-0.475908
-0.455481
-0.444974
-0.427956
-0.413652
-0.397698
-0.382428
-0.366884
-0.351596
-0.336401
-0.321419
-0.306626
-0.292071
-0.277682
-0.263667
-0.249395
-0.236855
-0.219956
-0.218368
-0.172333
-0.481313
-0.459219
-0.44835
-0.430592
-0.415941
-0.399611
-0.384093
-0.368331
-0.352874
-0.337535
-0.322429
-0.307525
-0.292864
-0.278367
-0.264244
-0.249833
-0.237202
-0.21996
-0.218731
-0.170808
-0.486823
-0.46303
-0.45179
-0.433279
-0.418272
-0.401557
-0.385785
-0.369798
-0.354167
-0.338678
-0.323444
-0.308424
-0.293654
-0.279048
-0.264815
-0.250266
-0.237539
-0.219968
-0.21905
-0.169333
-0.492427
-0.466905
-0.455289
-0.436009
-0.420641
-0.403532
-0.3875
-0.371282
-0.355471
-0.339828
-0.324462
-0.309321
-0.294438
-0.27972
-0.265375
-0.250692
-0.237861
-0.219982
-0.219318
-0.167915
-0.498112
-0.470838
-0.458839
-0.438779
-0.423041
-0.405533
-0.389234
-0.37278
-0.356784
-0.340982
-0.325478
-0.310213
-0.295214
-0.280382
-0.265923
-0.251108
-0.238164
-0.220002
-0.219522
-0.166563
-0.503869
-0.474819
-0.462434
-0.441582
-0.42547
-0.407554
-0.390984
-0.374287
-0.358102
-0.342135
-0.326489
-0.311095
-0.295976
-0.281028
-0.266452
-0.251512
-0.238444
-0.220031
-0.21965
-0.165287
-0.509685
-0.478842
-0.466065
-0.444413
-0.427922
-0.409592
-0.392745
-0.375802
-0.359422
-0.343285
-0.327492
-0.311964
-0.296721
-0.281656
-0.266961
-0.251901
-0.238698
-0.220075
-0.21969
-0.1641
-0.51555
-0.482897
-0.469727
-0.447267
-0.430392
-0.411643
-0.394515
-0.377319
-0.360739
-0.344426
-0.328481
-0.312816
-0.297445
-0.28226
-0.267445
-0.252274
-0.238923
-0.220139
-0.219626
-0.163019
-0.521451
-0.486977
-0.473411
-0.450137
-0.432875
-0.413703
-0.396289
-0.378835
-0.36205
-0.345557
-0.329453
-0.313645
-0.298142
-0.282836
-0.267899
-0.252627
-0.239116
-0.220234
-0.219442
-0.16207
-0.527376
-0.491073
-0.47711
-0.453019
-0.435367
-0.415768
-0.398063
-0.380347
-0.36335
-0.346671
-0.330404
-0.314448
-0.298808
-0.28338
-0.26832
-0.252958
-0.239274
-0.220371
-0.21912
-0.161291
-0.533313
-0.495177
-0.480817
-0.455906
-0.437862
-0.417832
-0.399834
-0.38185
-0.364637
-0.347765
-0.331329
-0.315219
-0.299438
-0.283885
-0.268701
-0.253264
-0.239396
-0.220568
-0.218642
-0.160766
-0.539251
-0.49928
-0.484524
-0.458791
-0.440355
-0.419891
-0.401595
-0.383339
-0.365904
-0.348834
-0.332222
-0.315952
-0.300025
-0.284347
-0.269039
-0.253542
-0.239481
-0.220847
-0.217998
-0.160632
-0.545176
-0.503373
-0.488223
-0.46167
-0.44284
-0.42194
-0.403344
-0.384811
-0.367148
-0.349873
-0.333078
-0.316642
-0.300564
-0.284757
-0.269326
-0.253785
-0.23953
-0.221233
-0.217146
-0.160932
-0.55108
-0.507451
-0.49191
-0.464538
-0.445314
-0.423977
-0.405076
-0.386261
-0.368365
-0.350877
-0.333892
-0.317283
-0.301048
-0.28511
-0.269557
-0.253989
-0.239549
-0.221765
-0.215973
-0.16146
-0.556951
-0.511507
-0.495579
-0.467391
-0.447773
-0.425997
-0.406787
-0.387686
-0.369548
-0.351841
-0.334657
-0.317869
-0.301469
-0.285396
-0.269722
-0.254143
-0.239548
-0.222496
-0.214502
-0.163121
-0.562743
-0.515501
-0.499192
-0.470198
-0.450191
-0.427978
-0.40846
-0.389069
-0.370686
-0.352753
-0.335365
-0.318388
-0.30182
-0.285607
-0.269811
-0.254234
-0.239524
-0.223429
-0.213467
-0.172239
-0.568367
-0.519348
-0.502674
-0.472894
-0.452513
-0.429877
-0.410058
-0.390381
-0.371755
-0.353595
-0.335998
-0.318831
-0.302088
-0.285733
-0.269814
-0.254242
-0.239442
-0.224374
-0.213511
-0.198487
-0.574018
-0.523238
-0.506196
-0.475626
-0.454861
-0.43179
-0.411657
-0.391681
-0.372795
-0.354393
-0.336574
-0.319201
-0.302273
-0.285765
-0.269715
-0.254136
-0.239238
-0.225088
-0.212614
-0.209282
-0.579616
-0.527094
-0.509687
-0.478332
-0.457183
-0.433674
-0.41322
-0.392936
-0.373782
-0.355128
-0.337076
-0.319487
-0.302362
-0.285691
-0.269502
-0.253898
-0.238877
-0.225426
-0.21111
-0.213157
-0.585114
-0.53087
-0.513107
-0.480979
-0.459449
-0.435505
-0.414728
-0.394132
-0.374701
-0.355786
-0.337491
-0.319676
-0.302346
-0.285502
-0.269164
-0.25351
-0.238346
-0.225384
-0.209609
-0.214906
-0.590499
-0.534557
-0.516447
-0.48356
-0.461654
-0.437275
-0.416173
-0.39526
-0.375545
-0.35636
-0.337811
-0.319761
-0.302215
-0.285187
-0.268688
-0.252961
-0.23764
-0.224986
-0.208118
-0.21533
-0.59576
-0.538149
-0.519702
-0.486069
-0.463791
-0.438981
-0.417551
-0.396313
-0.376307
-0.356841
-0.338029
-0.319733
-0.301961
-0.284738
-0.268067
-0.25224
-0.236752
-0.224254
-0.206561
-0.214624
-0.600884
-0.541636
-0.522862
-0.488498
-0.465853
-0.440614
-0.418852
-0.397285
-0.376978
-0.357222
-0.338136
-0.319582
-0.301574
-0.284144
-0.26729
-0.251339
-0.235679
-0.22321
-0.204911
-0.213056
-0.605856
-0.545006
-0.525916
-0.490838
-0.467831
-0.442165
-0.420068
-0.398166
-0.377549
-0.357493
-0.338122
-0.3193
-0.301045
-0.283397
-0.26635
-0.250253
-0.234417
-0.221879
-0.203158
-0.210859
-0.610661
-0.548249
-0.528855
-0.493081
-0.469717
-0.443626
-0.421191
-0.398947
-0.378011
-0.357645
-0.337978
-0.318878
-0.300366
-0.28249
-0.265239
-0.248978
-0.232964
-0.220282
-0.201291
-0.208196
-0.615285
-0.551352
-0.531668
-0.495215
-0.4715
-0.444988
-0.422212
-0.399619
-0.378356
-0.357668
-0.337695
-0.318306
-0.299527
-0.281413
-0.263951
-0.247511
-0.23132
-0.218441
-0.199301
-0.205183
-0.619713
-0.554304
-0.534342
-0.497232
-0.473172
-0.446242
-0.42312
-0.400172
-0.378571
-0.357553
-0.337264
-0.317576
-0.298522
-0.280162
-0.262481
-0.245849
-0.229484
-0.216372
-0.197178
-0.201904
-0.623929
-0.557094
-0.536868
-0.49912
-0.474721
-0.447376
-0.423905
-0.400596
-0.378649
-0.35729
-0.336674
-0.316678
-0.297342
-0.278728
-0.260824
-0.243991
-0.227456
-0.214089
-0.194916
-0.198418
-0.627918
-0.559708
-0.539233
-0.500871
-0.476139
-0.448381
-0.424558
-0.40088
-0.378578
-0.356868
-0.335916
-0.315605
-0.295979
-0.277105
-0.258975
-0.241936
-0.225236
-0.211605
-0.192511
-0.19477
-0.631664
-0.562135
-0.541425
-0.502471
-0.477413
-0.449247
-0.425067
-0.401014
-0.378348
-0.356278
-0.334982
-0.314347
-0.294426
-0.275289
-0.25693
-0.239684
-0.222826
-0.20893
-0.189957
-0.19099
-0.635151
-0.564361
-0.543432
-0.503911
-0.478532
-0.449962
-0.425421
-0.400987
-0.377948
-0.35551
-0.333861
-0.312897
-0.292676
-0.273274
-0.254686
-0.237234
-0.220227
-0.206071
-0.187253
-0.187101
-0.638363
-0.566375
-0.545241
-0.505179
-0.479486
-0.450514
-0.425608
-0.400787
-0.377367
-0.354552
-0.332545
-0.311246
-0.290723
-0.271054
-0.252241
-0.234585
-0.217439
-0.203035
-0.184395
-0.183114
-0.641283
-0.568161
-0.54684
-0.506261
-0.480261
-0.450892
-0.425618
-0.400404
-0.376595
-0.353397
-0.331024
-0.309387
-0.288562
-0.268627
-0.249592
-0.231739
-0.214464
-0.199827
-0.181381
-0.179039
-0.643896
-0.569708
-0.548215
-0.507147
-0.480845
-0.451084
-0.425438
-0.399825
-0.375621
-0.352032
-0.32929
-0.307313
-0.286185
-0.265989
-0.246737
-0.228694
-0.211302
-0.196452
-0.178211
-0.17488
-0.646183
-0.571001
-0.549352
-0.507824
-0.481227
-0.451077
-0.425056
-0.399039
-0.374433
-0.35045
-0.327335
-0.305017
-0.283589
-0.263135
-0.243674
-0.225452
-0.207955
-0.192911
-0.174883
-0.170639
-0.648128
-0.572026
-0.550239
-0.508278
-0.481393
-0.450858
-0.424459
-0.398034
-0.373021
-0.348639
-0.32515
-0.302492
-0.280768
-0.260063
-0.240403
-0.222014
-0.204425
-0.189208
-0.171398
-0.166316
-0.649715
-0.572769
-0.55086
-0.508496
-0.481329
-0.450416
-0.423636
-0.396799
-0.371375
-0.346591
-0.322728
-0.299733
-0.277718
-0.256772
-0.236922
-0.218378
-0.200712
-0.185344
-0.167756
-0.16191
-0.650925
-0.573217
-0.551202
-0.508465
-0.481023
-0.449736
-0.422573
-0.395322
-0.369484
-0.344298
-0.320061
-0.296734
-0.274436
-0.253257
-0.233231
-0.214548
-0.196817
-0.181322
-0.163957
-0.157418
-0.651741
-0.573354
-0.551251
-0.508172
-0.480462
-0.448807
-0.421259
-0.393591
-0.367337
-0.341749
-0.317143
-0.29349
-0.270919
-0.24952
-0.22933
-0.210523
-0.192743
-0.177142
-0.160001
-0.152837
-0.652147
-0.573166
-0.550992
-0.507603
-0.479631
-0.447614
-0.419681
-0.391596
-0.364925
-0.338937
-0.313967
-0.289997
-0.267162
-0.245557
-0.225219
-0.206304
-0.188491
-0.172807
-0.155891
-0.148165
-0.652125
-0.572639
-0.55041
-0.506743
-0.478517
-0.446145
-0.417827
-0.389325
-0.362239
-0.335855
-0.310527
-0.28625
-0.263165
-0.241368
-0.220898
-0.201893
-0.184063
-0.168317
-0.151628
-0.143399
-0.651657
-0.571758
-0.549491
-0.505579
-0.477106
-0.444387
-0.415684
-0.386767
-0.359268
-0.332494
-0.306818
-0.282245
-0.258926
-0.236953
-0.216368
-0.197292
-0.17946
-0.163674
-0.147213
-0.138536
-0.650727
-0.570509
-0.548221
-0.504098
-0.475384
-0.442327
-0.413241
-0.383912
-0.356005
-0.328849
-0.302835
-0.277981
-0.254442
-0.232311
-0.21163
-0.192501
-0.174685
-0.15888
-0.142648
-0.133574
-0.649318
-0.568876
-0.546584
-0.502285
-0.473339
-0.439952
-0.410485
-0.38075
-0.352441
-0.324912
-0.298573
-0.273453
-0.249714
-0.227444
-0.206685
-0.187523
-0.169739
-0.153936
-0.137936
-0.128511
-0.647412
-0.566847
-0.544566
-0.500126
-0.470956
-0.43725
-0.407407
-0.377271
-0.348568
-0.320678
-0.294029
-0.268661
-0.24474
-0.222352
-0.201536
-0.182361
-0.164624
-0.148844
-0.133078
-0.123345
-0.644992
-0.564405
-0.542154
-0.497608
-0.468222
-0.434207
-0.403994
-0.373466
-0.344379
-0.316142
-0.2892
-0.263603
-0.23952
-0.217036
-0.196183
-0.177015
-0.159344
-0.143605
-0.128078
-0.118076
-0.642043
-0.561538
-0.539331
-0.494716
-0.465125
-0.430814
-0.400237
-0.369326
-0.339868
-0.311299
-0.284082
-0.258277
-0.234056
-0.211497
-0.190629
-0.171488
-0.1539
-0.138222
-0.122938
-0.112703
-0.638548
-0.558232
-0.536086
-0.491439
-0.461651
-0.427057
-0.396125
-0.364844
-0.335028
-0.306145
-0.278674
-0.252684
-0.228347
-0.205737
-0.184876
-0.165784
-0.148296
-0.132697
-0.117662
-0.107225
-0.63449
-0.554472
-0.532403
-0.487763
-0.457788
-0.422925
-0.391649
-0.360011
-0.329854
-0.300677
-0.272975
-0.246823
-0.222395
-0.199758
-0.178927
-0.159904
-0.142534
-0.127032
-0.112251
-0.101642
-0.629855
-0.550246
-0.528269
-0.483674
-0.453525
-0.418409
-0.3868
-0.354821
-0.324341
-0.294892
-0.266982
-0.240696
-0.216203
-0.193563
-0.172784
-0.153852
-0.136617
-0.12123
-0.106709
-0.0959557
-0.624626
-0.545541
-0.523672
-0.479162
-0.448849
-0.413498
-0.38157
-0.349268
-0.318486
-0.288789
-0.260697
-0.234302
-0.209771
-0.187154
-0.166451
-0.147631
-0.130548
-0.115294
-0.10104
-0.0901666
-0.618787
-0.540343
-0.518598
-0.474213
-0.44375
-0.408183
-0.375951
-0.343346
-0.312284
-0.282365
-0.254119
-0.227644
-0.203102
-0.180534
-0.159931
-0.141243
-0.12433
-0.109226
-0.0952463
-0.0842761
-0.612326
-0.534642
-0.513036
-0.468817
-0.438217
-0.402455
-0.369936
-0.337051
-0.305734
-0.27562
-0.24725
-0.220724
-0.196199
-0.173707
-0.153227
-0.134694
-0.117968
-0.10303
-0.0893321
-0.078286
-0.605242
-0.528438
-0.506983
-0.462969
-0.432246
-0.396308
-0.363522
-0.330379
-0.298833
-0.268554
-0.24009
-0.213543
-0.189065
-0.166676
-0.146344
-0.127985
-0.111464
-0.0967084
-0.0833006
-0.0721983
-0.597527
-0.521726
-0.500432
-0.456661
-0.425827
-0.389736
-0.356703
-0.323328
-0.291582
-0.261168
-0.232641
-0.206106
-0.181704
-0.159445
-0.139284
-0.121122
-0.104821
-0.090265
-0.0771557
-0.0660154
-0.589029
-0.514397
-0.493302
-0.449835
-0.418921
-0.382711
-0.34946
-0.315887
-0.283974
-0.25346
-0.224906
-0.198415
-0.17412
-0.152018
-0.132052
-0.114107
-0.0980448
-0.0837027
-0.0709004
-0.0597393
-0.57944
-0.506232
-0.485439
-0.442381
-0.411449
-0.375181
-0.341761
-0.308036
-0.276
-0.245428
-0.216885
-0.190473
-0.166316
-0.144399
-0.124652
-0.106944
-0.0911372
-0.0770247
-0.0645378
-0.0533721
-0.569609
-0.497808
-0.477247
-0.434581
-0.403607
-0.367276
-0.33369
-0.299829
-0.267692
-0.237091
-0.208588
-0.182287
-0.158298
-0.136593
-0.117089
-0.099639
-0.0841036
-0.0702361
-0.0580739
-0.0469192
-0.559239
-0.488908
-0.468568
-0.426321
-0.395311
-0.358939
-0.325211
-0.291244
-0.25904
-0.228444
-0.200018
-0.17386
-0.150071
-0.128605
-0.109367
-0.0921953
-0.0769481
-0.0633404
-0.0515121
-0.0403832
-0.548184
-0.479427
-0.459329
-0.417546
-0.386526
-0.350147
-0.316309
-0.282274
-0.250041
-0.219489
-0.191177
-0.165198
-0.141638
-0.120439
-0.101491
-0.0846177
-0.0696748
-0.0563417
-0.0448563
-0.0337673
-0.536441
-0.469365
-0.449526
-0.408254
-0.37725
-0.340899
-0.306986
-0.27292
-0.240698
-0.210231
-0.182071
-0.156305
-0.133007
-0.112102
-0.0934662
-0.076911
-0.0622884
-0.049244
-0.0381108
-0.0270756
-0.524018
-0.458727
-0.439163
-0.398447
-0.367483
-0.331197
-0.297243
-0.263187
-0.231016
-0.200674
-0.172704
-0.147187
-0.124181
-0.103597
-0.0852978
-0.0690798
-0.0547932
-0.0420517
-0.0312796
-0.0203117
-0.510915
-0.447511
-0.428236
-0.388122
-0.357224
-0.321039
-0.287082
-0.253078
-0.221
-0.190824
-0.163083
-0.137851
-0.115168
-0.0949319
-0.0769909
-0.0611293
-0.047194
-0.0347689
-0.0243678
-0.0134781
-0.497126
-0.435713
-0.416744
-0.377276
-0.346472
-0.310428
-0.276507
-0.242597
-0.210656
-0.180687
-0.153215
-0.128302
-0.105973
-0.0861113
-0.068551
-0.0530643
-0.0394953
-0.0274005
-0.0173826
-0.00657592
-0.482652
-0.423333
-0.404684
-0.365909
-0.335227
-0.299365
-0.26552
-0.231749
-0.199988
-0.17027
-0.143105
-0.118547
-0.0966036
-0.0771416
-0.0599836
-0.0448902
-0.0317021
-0.0199508
-0.0103281
0.000384458
-0.467491
-0.410369
-0.392055
-0.354021
-0.323492
-0.287853
-0.254126
-0.22054
-0.189004
-0.15958
-0.132763
-0.108594
-0.0870653
-0.068029
-0.0512946
-0.0366121
-0.0238193
-0.0124251
-0.00319017
0.00738648
-0.451646
-0.396821
-0.378859
-0.341612
-0.311268
-0.275896
-0.242331
-0.208976
-0.177711
-0.148625
-0.122193
-0.0984491
-0.0773654
-0.0587798
-0.0424898
-0.0282354
-0.0158519
-0.00482885
0.00401024
0.0144417
-0.435121
-0.382693
-0.365098
-0.328685
-0.298559
-0.2635
-0.230141
-0.197066
-0.166117
-0.137412
-0.111406
-0.0881207
-0.0675109
-0.0494006
-0.0335752
-0.0197662
-0.00780495
0.00283464
0.0112682
0.0215444
-0.417921
-0.367986
-0.350774
-0.315243
-0.28537
-0.25067
-0.217564
-0.184816
-0.154231
-0.125951
-0.10041
-0.0776164
-0.0575094
-0.0398981
-0.0245572
-0.0112096
0.000316076
0.0105604
0.0185805
0.0286885
-0.400052
-0.352705
-0.335891
-0.301292
-0.271707
-0.237413
-0.204607
-0.172236
-0.142062
-0.11425
-0.0892118
-0.0669445
-0.0473682
-0.0302794
-0.0154419
-0.00257162
0.00850579
0.0183434
0.025943
0.0358692
-0.381522
-0.336856
-0.320457
-0.286838
-0.257576
-0.223738
-0.191279
-0.159336
-0.129619
-0.102319
-0.0778221
-0.0561133
-0.0370952
-0.0205514
-0.00623586
0.00614188
0.0167588
0.0261785
0.033351
0.0430816
-0.36234
-0.320444
-0.304477
-0.271886
-0.242987
-0.209653
-0.177591
-0.146125
-0.116914
-0.0901679
-0.0662498
-0.0451316
-0.0266982
-0.0107214
0.00305434
0.0149249
0.0250695
0.0340604
0.0407999
0.0503207
-0.342518
-0.303478
-0.287959
-0.256446
-0.227948
-0.195169
-0.163554
-0.132615
-0.103956
-0.0778069
-0.0545046
-0.0340082
-0.0161854
-0.000796758
0.012422
0.0237712
0.0334323
0.041984
0.0482848
0.0575815
-0.322067
-0.285968
-0.270914
-0.240526
-0.21247
-0.180297
-0.149178
-0.118817
-0.0907564
-0.0652469
-0.0425965
-0.0227523
-0.00556522
0.00921492
0.0218602
0.0326745
0.0418414
0.0499439
0.0558012
0.0648589
-0.301003
-0.267924
-0.253351
-0.224138
-0.196564
-0.165048
-0.134476
-0.104744
-0.077328
-0.0524988
-0.0305358
-0.0113733
0.00515395
0.019306
0.0313619
0.0416286
0.0502911
0.0579347
0.063344
0.0721479
-0.27934
-0.249357
-0.235283
-0.207294
-0.180242
-0.149436
-0.119461
-0.0904082
-0.0636825
-0.0395743
-0.0183329
0.000119299
0.0159634
0.0294685
0.0409202
0.0506269
0.0587754
0.0659509
0.0709086
0.0794431
-0.257095
-0.230281
-0.216724
-0.190006
-0.163519
-0.133474
-0.104147
-0.0758228
-0.0498327
-0.0264849
-0.00599856
0.0117157
0.0268544
0.0396946
0.0505276
0.0596628
0.0672883
0.073987
0.07849
0.0867394
-0.234286
-0.21071
-0.197687
-0.172288
-0.146408
-0.117176
-0.0885483
-0.0610023
-0.0357917
-0.0132429
0.00645612
0.023406
0.0378178
0.0499762
0.060177
0.0687297
0.0758237
0.0820372
0.0860832
0.0940314
-0.210933
-0.190661
-0.178189
-0.154156
-0.128926
-0.10056
-0.0726801
-0.0459608
-0.021573
0.000139448
0.01902
0.0351801
0.0488447
0.060305
0.0698608
0.0778208
0.0843754
0.0900958
0.0936834
0.101313
-0.187056
-0.17015
-0.158246
-0.135627
-0.111089
-0.0836395
-0.0565583
-0.0307132
-0.00719035
0.0136495
0.0316816
0.0470276
0.0599257
0.0706726
0.0795715
0.0869292
0.0929373
0.098157
0.101285
0.10858
-0.162679
-0.149195
-0.137877
-0.116717
-0.0929145
-0.0664333
-0.0401993
-0.015275
0.00734198
0.0272743
0.0444293
0.0589382
0.0710515
0.0810708
0.0893014
0.0960478
0.101503
0.106215
0.108884
0.115825
-0.137825
-0.127815
-0.117102
-0.0974454
-0.0744209
-0.0489587
-0.02362
0.000337956
0.0220095
0.0410008
0.0572514
0.0709012
0.0822126
0.0914908
0.0990428
0.10517
0.110066
0.114263
0.116475
0.123042
-0.112518
-0.106032
-0.0959404
-0.0778319
-0.0556277
-0.0312342
-0.00683812
0.0161095
0.0367973
0.0548156
0.0701358
0.0829061
0.0933995
0.101924
0.108788
0.114288
0.118619
0.122296
0.124053
0.130224
-0.0867836
-0.0838678
-0.0744142
-0.0578969
-0.0365551
-0.0132789
0.0101284
0.0320229
0.0516905
0.0687051
0.0830706
0.0949421
0.104602
0.112362
0.118529
0.123395
0.127157
0.130306
0.131613
0.137365
-0.0606475
-0.0613465
-0.0525465
-0.0376618
-0.017224
0.00488713
0.027261
0.0480612
0.0666735
0.0826558
0.0960434
0.106998
0.115812
0.122796
0.128257
0.132483
0.135672
0.138288
0.139151
0.144455
-0.0341375
-0.0384924
-0.0303611
-0.0171492
0.00234374
0.0232436
0.0445407
0.0642072
0.081731
0.0966536
0.109042
0.119063
0.127018
0.133216
0.137966
0.141546
0.144158
0.146236
0.146661
0.151487
-0.00729114
-0.0153235
-0.00788279
0.00361747
0.0221256
0.0417695
0.0619481
0.0804433
0.0968471
0.110685
0.122054
0.131127
0.13821
0.143615
0.147646
0.150576
0.152609
0.154141
0.15414
0.158449
0.0198692
0.00812804
0.0148626
0.0246141
0.0420986
0.0604433
0.0794633
0.0967517
0.112006
0.124735
0.135067
0.143178
0.14938
0.153983
0.15729
0.159566
0.161016
0.161998
0.161583
0.165329
0.0473132
0.0318347
0.0378483
0.0458156
0.0622386
0.079243
0.0970663
0.113114
0.127191
0.13879
0.148068
0.155204
0.160516
0.164312
0.16689
0.168508
0.169374
0.169799
0.168988
0.172111
0.0750087
0.0557689
0.0610468
0.0671963
0.0825214
0.0981461
0.114737
0.129513
0.142387
0.152835
0.161045
0.167196
0.17161
0.174592
0.176437
0.177395
0.177675
0.177539
0.176352
0.178776
0.102925
0.0799023
0.0844298
0.0887298
0.102922
0.11713
0.132454
0.145929
0.157577
0.166857
0.173985
0.179141
0.182651
0.184815
0.185924
0.186219
0.185912
0.185209
0.183673
0.185297
0.131031
0.104206
0.107969
0.11039
0.123416
0.136171
0.150197
0.162343
0.172745
0.180841
0.186876
0.191029
0.193629
0.194972
0.195343
0.194974
0.19408
0.192803
0.190948
0.191641
0.159291
0.128647
0.131633
0.132147
0.143975
0.155247
0.167944
0.178738
0.187874
0.194772
0.199704
0.202848
0.204535
0.205055
0.204685
0.203653
0.20217
0.200317
0.198187
0.197775
0.187647
0.153175
0.155379
0.153967
0.164571
0.17433
0.185674
0.195094
0.202947
0.208636
0.212457
0.214588
0.215358
0.215054
0.213944
0.212249
0.210174
0.207748
0.205417
0.203676
0.216057
0.177752
0.179174
0.17582
0.185176
0.193398
0.203364
0.211392
0.217949
0.222418
0.225123
0.226237
0.22609
0.224961
0.223112
0.220754
0.218086
0.215096
0.212633
0.209199
0.244746
0.202505
0.20308
0.197733
0.205793
0.212441
0.221002
0.227617
0.232863
0.236105
0.237689
0.237784
0.23672
0.234767
0.232181
0.229163
0.2259
0.222354
0.219638
0.213748
0.274203
0.227725
0.227258
0.219786
0.226458
0.231468
0.238579
0.243754
0.247674
0.249681
0.250141
0.249217
0.247238
0.244464
0.241144
0.23747
0.233615
0.22952
0.226263
0.216448
0.302824
0.252447
0.251113
0.241623
0.246959
0.250357
0.256029
0.259767
0.262362
0.263132
0.262469
0.260529
0.257636
0.254045
0.249993
0.245667
0.241229
0.236607
0.233089
0.222187
0.33111
0.27698
0.274821
0.263338
0.267339
0.269122
0.273349
0.275645
0.276911
0.276445
0.274661
0.271706
0.267904
0.263499
0.258722
0.253749
0.248736
0.243602
0.239822
0.228796
0.359278
0.301439
0.298438
0.284952
0.2876
0.287753
0.290524
0.291371
0.291307
0.289606
0.286703
0.282738
0.278032
0.272819
0.267322
0.261709
0.256129
0.250492
0.246342
0.235272
0.387283
0.32578
0.321924
0.306432
0.307711
0.306226
0.307532
0.306928
0.305532
0.3026
0.298583
0.293615
0.288011
0.281998
0.275786
0.269539
0.263399
0.257269
0.252689
0.241523
0.415063
0.349951
0.345237
0.327741
0.327643
0.324514
0.324351
0.322296
0.319573
0.315413
0.310289
0.304325
0.297832
0.291025
0.284108
0.277233
0.270537
0.263922
0.258889
0.247625
0.44258
0.373914
0.36834
0.348849
0.347368
0.342593
0.34096
0.337457
0.333411
0.328033
0.32181
0.31486
0.307485
0.299894
0.292279
0.284783
0.277537
0.270442
0.264941
0.253593
0.469796
0.397635
0.391202
0.369725
0.366857
0.360439
0.357339
0.352394
0.347033
0.340445
0.333134
0.325207
0.316963
0.308596
0.300292
0.292184
0.284392
0.276823
0.270843
0.259415
0.496676
0.421081
0.413788
0.39034
0.386085
0.378029
0.373466
0.367087
0.360422
0.352636
0.344249
0.335358
0.326254
0.317124
0.30814
0.299428
0.291099
0.28306
0.276595
0.265084
0.523183
0.444215
0.436066
0.410663
0.405025
0.395339
0.389322
0.38152
0.373563
0.364593
0.355144
0.345302
0.335352
0.325469
0.315816
0.306509
0.297649
0.289147
0.282197
0.270599
0.549279
0.467004
0.458003
0.430666
0.42365
0.412346
0.404886
0.395676
0.386442
0.376303
0.365808
0.35503
0.344248
0.333625
0.323315
0.313423
0.30404
0.29508
0.287648
0.275958
0.574926
0.489412
0.479565
0.450318
0.441933
0.429027
0.420138
0.409537
0.399044
0.387754
0.376229
0.364532
0.352933
0.341584
0.330628
0.320162
0.310265
0.300855
0.292947
0.28116
0.600087
0.511407
0.500722
0.469591
0.45985
0.44536
0.43506
0.423087
0.411354
0.398933
0.386398
0.373798
0.361399
0.349338
0.337751
0.326721
0.316321
0.306468
0.298091
0.286204
0.624725
0.532953
0.52144
0.488457
0.477374
0.461322
0.449631
0.43631
0.423358
0.409828
0.396303
0.382821
0.369638
0.356882
0.344676
0.333096
0.322202
0.311915
0.303079
0.291088
0.648803
0.554019
0.541689
0.506888
0.494482
0.476893
0.463834
0.449189
0.435044
0.420428
0.405935
0.39159
0.377642
0.364207
0.351398
0.339281
0.327905
0.317192
0.307909
0.295811
0.672286
0.574571
0.561438
0.524855
0.511148
0.492051
0.477651
0.461709
0.446397
0.43072
0.415283
0.400097
0.385404
0.371308
0.357912
0.345271
0.333425
0.322298
0.312579
0.300371
0.695139
0.594579
0.580657
0.542334
0.527349
0.506776
0.491063
0.473854
0.457404
0.440694
0.424337
0.408334
0.392916
0.378178
0.364211
0.351061
0.338758
0.327227
0.317087
0.304767
0.717325
0.61401
0.599317
0.559296
0.543061
0.521048
0.504053
0.485611
0.468053
0.450339
0.433089
0.416292
0.400172
0.38481
0.37029
0.356647
0.343901
0.331978
0.321429
0.308997
0.738813
0.632835
0.617388
0.575718
0.558263
0.534846
0.516606
0.496965
0.478331
0.459643
0.441529
0.423964
0.407164
0.3912
0.376144
0.362024
0.34885
0.336547
0.325604
0.313059
0.759568
0.651023
0.634844
0.591574
0.572932
0.548154
0.528704
0.507902
0.488227
0.468598
0.449649
0.431342
0.413886
0.39734
0.381768
0.367188
0.3536
0.340931
0.329609
0.316952
0.77956
0.668546
0.651656
0.60684
0.587048
0.560952
0.540332
0.518408
0.49773
0.477193
0.457439
0.438419
0.420331
0.403226
0.387158
0.372134
0.358149
0.345127
0.333442
0.320673
0.798756
0.685376
0.667799
0.621493
0.60059
0.573223
0.551475
0.528472
0.506827
0.485419
0.464893
0.445187
0.426494
0.408853
0.392308
0.376859
0.362493
0.349132
0.337101
0.324221
0.817128
0.701487
0.683249
0.635512
0.613538
0.58495
0.562119
0.53808
0.51551
0.493267
0.472001
0.45164
0.432368
0.414214
0.397214
0.38136
0.366629
0.352945
0.340582
0.327595
0.834646
0.716853
0.697979
0.648874
0.625875
0.596117
0.57225
0.547221
0.523767
0.500727
0.478757
0.457771
0.437948
0.419305
0.401872
0.385631
0.370554
0.356561
0.343885
0.330792
0.851283
0.731448
0.711968
0.66156
0.637581
0.606709
0.581855
0.555884
0.53159
0.507793
0.485153
0.463575
0.443228
0.424122
0.406277
0.38967
0.374264
0.359978
0.347006
0.333811
0.867014
0.74525
0.725194
0.673549
0.648641
0.616712
0.590922
0.564058
0.538968
0.514456
0.491183
0.469045
0.448203
0.42866
0.410427
0.393473
0.377757
0.363195
0.349943
0.33665
0.881813
0.758236
0.737635
0.684825
0.659037
0.626111
0.599438
0.571733
0.545895
0.520708
0.49684
0.474175
0.452869
0.432915
0.414317
0.397038
0.38103
0.366208
0.352695
0.339308
0.895657
0.770386
0.749273
0.695369
0.668756
0.634894
0.607393
0.5789
0.55236
0.526544
0.502119
0.478961
0.457221
0.436882
0.417943
0.400361
0.38408
0.369016
0.355259
0.341783
0.908524
0.781679
0.760088
0.705166
0.677782
0.643048
0.614776
0.58555
0.558358
0.531955
0.507013
0.483399
0.461255
0.440559
0.421304
0.403439
0.386906
0.371616
0.357634
0.344074
0.920393
0.792097
0.770063
0.7142
0.686103
0.650563
0.621578
0.591675
0.563881
0.536937
0.511518
0.487482
0.464966
0.443942
0.424395
0.40627
0.389504
0.374006
0.359817
0.346179
0.931247
0.801623
0.779184
0.722458
0.693707
0.657428
0.62779
0.597267
0.568922
0.541484
0.515629
0.491207
0.468352
0.447027
0.427214
0.408851
0.391873
0.376186
0.361807
0.348097
0.941067
0.810242
0.787434
0.729926