/*--------------------------------*- C++ -*----------------------------------*\
  =========                 |
  \\      /  F ield         | OpenFOAM: The Open Source CFD Toolbox
   \\    /   O peration     | Website:  https://openfoam.org
    \\  /    A nd           | Version:  7
     \\/     M anipulation  |
\*---------------------------------------------------------------------------*/
FoamFile
{
    version     2.0;
    format      ascii;
    class       surfaceScalarField;
    location    "15";
    object      phi;
}
// * * * * * * * * * * * * * * * * * * * * * * * * * * * * * * * * * * * * * //

dimensions      [0 3 -1 0 0 0 0];

internalField   nonuniform List<scalar> 
83430
(
-1.86938e-06
1.86938e-06
2.40109e-12
-4.02578e-06
2.1564e-06
6.78289e-12
-4.7584e-06
7.32612e-07
1.10678e-11
-2.70728e-06
-2.05114e-06
1.52656e-11
2.98542e-06
-5.69272e-06
1.93612e-11
1.30161e-05
-1.00307e-05
2.33323e-11
2.7916e-05
-1.49e-05
2.7137e-11
4.81524e-05
-2.02364e-05
3.07219e-11
7.41452e-05
-2.59928e-05
3.40197e-11
0.0001063
-3.2155e-05
3.69713e-11
0.000145019
-3.87187e-05
3.94557e-11
0.000190706
-4.56875e-05
4.14172e-11
0.000243766
-5.30597e-05
4.34995e-11
0.000304584
-6.08186e-05
4.57015e-11
0.000373493
-6.89086e-05
4.71387e-11
0.000450718
-7.72254e-05
4.79533e-11
0.000536249
-8.55309e-05
4.80782e-11
0.000629827
-9.35775e-05
4.74776e-11
0.000730311
-0.000100484
4.60777e-11
-0.000106786
4.36946e-11
0.000837096
-1.85071e-06
3.72009e-06
-3.96082e-06
4.2665e-06
-4.62207e-06
1.39386e-06
-2.47594e-06
-4.19727e-06
3.33538e-06
-1.1504e-05
1.35088e-05
-2.02041e-05
2.85766e-05
-2.99678e-05
4.90071e-05
-4.06669e-05
7.52221e-05
-5.22078e-05
0.000107629
-6.45614e-05
0.00014663
-7.772e-05
0.000192633
-9.16902e-05
0.000246042
-0.000106469
0.000307247
-0.000122024
0.000376581
-0.000138243
0.000454275
-0.000154919
0.000540322
-0.000171578
0.000634469
-0.000187724
0.000735578
-0.000201594
-0.000214252
0.000843044
-1.81368e-06
5.53377e-06
-3.83125e-06
6.28407e-06
-4.34973e-06
1.91235e-06
-2.01356e-06
-6.53344e-06
4.03491e-06
-1.75525e-05
1.44935e-05
-3.06627e-05
2.98967e-05
-4.53709e-05
5.07152e-05
-6.14855e-05
7.73736e-05
-7.88662e-05
0.000110282
-9.74699e-05
0.000149847
-0.000117285
0.000196479
-0.000138322
0.000250586
-0.000160576
0.000312561
-0.000183999
0.000382744
-0.000208426
0.000461372
-0.000233547
0.000548448
-0.000258653
0.000643727
-0.000283003
0.000746082
-0.000303949
-0.000323074
0.000854903
-1.75838e-06
7.29214e-06
-3.63743e-06
8.16313e-06
-3.94214e-06
2.21706e-06
-1.32144e-06
-9.15415e-06
5.08204e-06
-2.3956e-05
1.59676e-05
-4.15482e-05
3.18725e-05
-6.12758e-05
5.32714e-05
-8.28844e-05
8.05931e-05
-0.000106188
0.000114252
-0.000131129
0.00015466
-0.000157693
0.000202232
-0.000185893
0.000257381
-0.000215726
0.000320507
-0.000247125
0.000391958
-0.000279876
0.00047198
-0.000313569
0.000560589
-0.000347262
0.000657557
-0.000379971
0.00076177
-0.000408161
-0.000433914
0.00087261
-1.68498e-06
8.97712e-06
-3.37993e-06
9.85808e-06
-3.40045e-06
2.23758e-06
-4.01436e-07
-1.21532e-05
6.47388e-06
-3.08313e-05
1.79268e-05
-5.30011e-05
3.44984e-05
-7.78474e-05
5.66682e-05
-0.000105054
8.48707e-05
-0.00013439
0.000119527
-0.000165785
0.000161053
-0.00019922
0.000209872
-0.000234712
0.000266403
-0.000272257
0.000331055
-0.000311777
0.000404184
-0.000353006
0.000486052
-0.000395437
0.000576691
-0.000437901
0.000675894
-0.000479174
0.000782562
-0.00051483
-0.000547423
0.000896071
-1.5937e-06
1.05708e-05
-3.05946e-06
1.13238e-05
-2.72614e-06
1.90426e-06
7.43741e-07
-1.5623e-05
8.20655e-06
-3.82941e-05
2.03656e-05
-6.51602e-05
3.77668e-05
-9.52486e-05
6.08957e-05
-0.000128183
9.01936e-05
-0.000163688
0.000126088
-0.00020168
0.000169005
-0.000242136
0.000219373
-0.00028508
0.00027762
-0.000330505
0.000344165
-0.000378322
0.000419376
-0.000428216
0.00050353
-0.000479592
0.000596683
-0.000531053
0.00069865
-0.000581142
0.000808356
-0.000624535
-0.000664228
0.000925161
-1.48482e-06
1.20556e-05
-2.67693e-06
1.25159e-05
-1.92108e-06
1.14842e-06
2.1111e-06
-1.96552e-05
1.02753e-05
-4.64583e-05
2.32772e-05
-7.81621e-05
4.16684e-05
-0.00011364
6.59413e-05
-0.000152456
9.65454e-05
-0.000194292
0.000133917
-0.000239052
0.00017849
-0.000286709
0.000230702
-0.000337291
0.000290992
-0.000390794
0.000359787
-0.000447117
0.000437471
-0.000505901
0.000524341
-0.000566462
0.000620474
-0.000627187
0.000725718
-0.000686385
0.000839019
-0.000737837
-0.000784932
0.000959723
-1.35865e-06
1.34143e-05
-2.23339e-06
1.33907e-05
-9.87466e-07
-9.75052e-08
3.69692e-06
-2.43396e-05
1.26744e-05
-5.54358e-05
2.66535e-05
-9.21412e-05
4.6192e-05
-0.000133178
7.17903e-05
-0.000178054
0.000103907
-0.000226409
0.000142988
-0.000278133
0.000189477
-0.000333198
0.000243821
-0.000391635
0.000306469
-0.000453443
0.000377862
-0.00051851
0.000458398
-0.000586437
0.000548395
-0.000656458
0.000647958
-0.000726749
0.000756966
-0.000795394
0.000874398
-0.000855268
-0.000910108
0.000999574
-1.21555e-06
1.46298e-05
-1.73008e-06
1.39052e-05
7.2185e-08
-1.89977e-06
5.49689e-06
-2.97643e-05
1.53974e-05
-6.53363e-05
3.04852e-05
-0.000107229
5.13248e-05
-0.000154018
7.84256e-05
-0.000205155
0.000112256
-0.000260239
0.000153272
-0.000319149
0.000201929
-0.000381854
0.000258684
-0.00044839
0.000323997
-0.000518757
0.000398322
-0.000592835
0.000482074
-0.000670188
0.000575591
-0.000749976
0.00067901
-0.000830169
0.000792246
-0.000908629
0.000914312
-0.000977334
-0.00104029
0.0010445
-1.05595e-06
1.56858e-05
-1.16835e-06
1.40176e-05
1.25502e-06
-4.32313e-06
7.50619e-06
-3.60155e-05
1.84369e-05
-7.6267e-05
3.47616e-05
-0.000123554
5.70523e-05
-0.000176309
8.58277e-05
-0.000233931
0.000121567
-0.000295979
0.000164738
-0.00036232
0.000215806
-0.000432922
0.00027524
-0.000507825
0.000343513
-0.000587029
0.00042109
-0.000670411
0.000508402
-0.000757501
0.000605813
-0.000847387
0.00071349
-0.000937846
0.000831387
-0.00102653
0.000958557
-0.0011045
-0.00117599
0.00109425
-8.80287e-07
1.65661e-05
-5.49724e-07
1.36871e-05
2.55789e-06
-7.43075e-06
9.71946e-06
-4.31771e-05
2.17847e-05
-8.83322e-05
3.9471e-05
-0.00014124
6.33584e-05
-0.000200196
9.39753e-05
-0.000264547
0.000131812
-0.000333816
0.000177349
-0.000407857
0.000231063
-0.000486636
0.000293434
-0.000570196
0.000364946
-0.000658541
0.000446078
-0.000751543
0.000537277
-0.000848701
0.000638932
-0.000949041
0.000751242
-0.00105016
0.0008742
-0.00114948
0.00100691
-0.00123721
-0.00131764
0.00114856
-6.89068e-07
1.72551e-05
1.24166e-07
1.28738e-05
3.97739e-06
-1.1284e-05
1.21309e-05
-5.13306e-05
2.54318e-05
-0.000101633
4.46007e-05
-0.000160409
7.02253e-05
-0.000225821
0.000102845
-0.000297167
0.000142961
-0.000373932
0.000191067
-0.000455963
0.00024765
-0.000543219
0.000313202
-0.000635748
0.000388219
-0.000733558
0.000473191
-0.000836515
0.000568584
-0.000944093
0.000674806
-0.00105526
0.000792092
-0.00116744
0.000920476
-0.00127787
0.00105911
-0.00137584
-0.00146567
0.00120713
-4.82822e-07
1.7738e-05
8.51452e-07
1.15395e-05
5.50983e-06
-1.59424e-05
1.47342e-05
-6.05549e-05
2.93687e-05
-0.000116268
5.01367e-05
-0.000181177
7.76341e-05
-0.000253318
0.000112411
-0.000331943
0.00015498
-0.000416502
0.000205847
-0.000506829
0.000265512
-0.000602883
0.000334477
-0.000704713
0.000413248
-0.000812329
0.000502327
-0.000925595
0.000602195
-0.00104396
0.000713281
-0.00116635
0.000835854
-0.00129002
0.00096999
-0.001412
0.00111489
-0.00152075
-0.00162042
0.00126965
-2.61999e-07
1.8e-05
1.63043e-06
9.64712e-06
7.15127e-06
-2.14632e-05
1.75227e-05
-7.09263e-05
3.3585e-05
-0.00013233
5.60642e-05
-0.000203656
8.55643e-05
-0.000282818
0.000122645
-0.000369024
0.000167834
-0.000461691
0.000221645
-0.000560641
0.000284591
-0.000665829
0.000357186
-0.000777307
0.000439943
-0.000895086
0.000533374
-0.00101903
0.000637974
-0.00114856
0.000754191
-0.00128257
0.000882328
-0.00141815
0.0010225
-0.00155217
0.00117397
-0.00167222
-0.0017822
0.00133575
-2.48374e-08
1.80248e-05
2.45906e-06
7.16323e-06
8.89756e-06
-2.79017e-05
2.04892e-05
-8.25179e-05
3.80698e-05
-0.000149911
6.23674e-05
-0.000227954
9.3994e-05
-0.000314445
0.00013352
-0.00040855
0.000181483
-0.000509654
0.000238411
-0.000617569
0.000304826
-0.000732244
0.00038125
-0.000853732
0.000468206
-0.000982042
0.000566214
-0.00111703
0.000675776
-0.00125812
0.00079736
-0.00140415
0.000931298
-0.00155209
0.00107774
-0.00169862
0.00123603
-0.0018305
-0.00195125
0.00140508
2.2138e-07
1.78034e-05
3.33517e-06
4.04944e-06
1.07444e-05
-3.53109e-05
2.36263e-05
-9.53998e-05
4.28116e-05
-0.000169096
6.90298e-05
-0.000254172
0.0001029
-0.000348315
0.000145004
-0.000450654
0.000195889
-0.000560539
0.000256094
-0.000677774
0.00032615
-0.000802301
0.000406589
-0.00093417
0.000497937
-0.00107339
0.00060072
-0.00121982
0.000715448
-0.00137285
0.000842601
-0.0015313
0.000982539
-0.00169203
0.00113545
-0.00185153
0.00130074
-0.0019958
-0.00212775
0.00147725
4.81961e-07
1.73215e-05
4.25672e-06
2.74676e-07
1.26871e-05
-4.37413e-05
2.69261e-05
-0.000109639
4.77983e-05
-0.000189968
7.60338e-05
-0.000282407
0.000112259
-0.000384541
0.000157064
-0.000495458
0.000211007
-0.000614483
0.000274638
-0.000741404
0.000348494
-0.000876158
0.000433114
-0.00101879
0.000529027
-0.0011693
0.00063676
-0.00132755
0.000756828
-0.00149292
0.000889716
-0.00166419
0.00103581
-0.00183813
0.00119533
-0.00201105
0.00136777
-0.00216823
-0.00231183
0.00155185
7.54744e-07
1.65667e-05
5.22149e-06
-4.19207e-06
1.47212e-05
-5.3241e-05
3.03808e-05
-0.000125298
5.30175e-05
-0.000212605
8.33614e-05
-0.000312751
0.000122045
-0.000423224
0.000169667
-0.00054308
0.000226795
-0.000671611
0.000293986
-0.000808595
0.000371786
-0.000953958
0.000460734
-0.00110774
0.000561363
-0.00126993
0.000674196
-0.00144038
0.000799745
-0.00161847
0.000938501
-0.00180295
0.00109087
-0.0019905
0.0012571
-0.00217728
0.00143674
-0.00234788
-0.00250354
0.00162845
1.03897e-06
1.55277e-05
6.2272e-06
-9.3803e-06
1.68418e-05
-6.38556e-05
3.39818e-05
-0.000142438
5.84561e-05
-0.000237079
9.09938e-05
-0.000345289
0.000132232
-0.000464463
0.000182777
-0.000593625
0.000243205
-0.000732039
0.000314079
-0.000879469
0.000395949
-0.00103583
0.000489355
-0.00120114
0.000594827
-0.0013754
0.000712881
-0.00155844
0.000844024
-0.00174961
0.000988742
-0.00194766
0.00114745
-0.00214921
0.00132042
-0.00235025
0.00150731
-0.00253476
-0.00270287
0.00170664
1.33395e-06
1.41938e-05
7.27153e-06
-1.53179e-05
1.90439e-05
-7.5628e-05
3.77206e-05
-0.000161115
6.41009e-05
-0.00026346
9.89115e-05
-0.000380099
0.000142794
-0.000508345
0.000196359
-0.00064719
0.00026019
-0.00079587
0.000334855
-0.000954134
0.000420905
-0.00112188
0.000518879
-0.00129912
0.000629297
-0.00148582
0.000752668
-0.00168181
0.000889483
-0.00188642
0.00104022
-0.0020984
0.0012053
-0.00231429
0.001385
-0.00252996
0.00157908
-0.00272884
-0.00290974
0.00178595
1.63904e-06
1.25548e-05
8.35215e-06
-2.2031e-05
2.13225e-05
-8.85984e-05
4.15884e-05
-0.000181381
6.99382e-05
-0.00029181
0.000107095
-0.000417256
0.000153702
-0.000554953
0.000210375
-0.000703863
0.000277701
-0.000863196
0.00035625
-0.00103268
0.000446574
-0.0012122
0.000549202
-0.00140175
0.000664648
-0.00160127
0.000793401
-0.00181056
0.000935934
-0.00202896
0.0010927
-0.00225517
0.00126414
-0.00248572
0.00145051
-0.00271633
0.00165168
-0.00293001
-0.00312401
0.00186595
1.95355e-06
1.06012e-05
9.46669e-06
-2.95441e-05
2.36726e-05
-0.000102804
4.55765e-05
-0.000203285
7.59541e-05
-0.000322187
0.000115523
-0.000456825
0.000164928
-0.000604357
0.000224786
-0.000763721
0.000295687
-0.000934097
0.000378199
-0.0011152
0.00047287
-0.00130687
0.000580222
-0.0015091
0.000700749
-0.0017218
0.000834921
-0.00194473
0.000983184
-0.00217722
0.00114597
-0.00241795
0.00132368
-0.00266344
0.00151661
-0.00290926
0.00172471
-0.0031381
-0.00334547
0.00194617
2.27683e-06
8.32438e-06
1.06128e-05
-3.78801e-05
2.60889e-05
-0.000118281
4.96756e-05
-0.000226871
8.21343e-05
-0.000354646
0.000124175
-0.000498866
0.000176442
-0.000656624
0.000239553
-0.000826832
0.000314095
-0.00100864
0.000400634
-0.00120173
0.00049971
-0.00140595
0.00061183
-0.00162122
0.000737469
-0.00184743
0.000877066
-0.00208433
0.00103104
-0.00233119
0.00119977
-0.00258668
0.00138367
-0.00284734
0.00158298
-0.00310857
0.00179778
-0.0033529
-0.00357384
0.00202615
2.60822e-06
5.71616e-06
1.1788e-05
-4.70598e-05
2.85663e-05
-0.000135059
5.38766e-05
-0.000252182
8.84644e-05
-0.000389234
0.000133031
-0.000543432
0.000188216
-0.00071181
0.000254635
-0.000893251
0.000332873
-0.00108688
0.000423487
-0.00129235
0.000527005
-0.00150947
0.000643916
-0.00173813
0.00077467
-0.00197819
0.00091967
-0.00222933
0.00107929
-0.00249081
0.00125388
-0.00276127
0.0014438
-0.00303726
0.00164928
-0.00331405
0.0018705
-0.00357412
-0.00380878
0.00210545
2.94709e-06
2.76907e-06
1.299e-05
-5.71027e-05
3.10996e-05
-0.000153168
5.81703e-05
-0.000279252
9.49299e-05
-0.000425993
0.000142068
-0.00059057
0.000200219
-0.000769961
0.000269993
-0.000963024
0.000351966
-0.00116885
0.000446687
-0.00138707
0.000554666
-0.00161744
0.000676369
-0.00185983
0.000812215
-0.00211403
0.000962566
-0.00237968
0.00112775
-0.002656
0.00130805
-0.00294156
0.0015038
-0.00323301
0.00171517
-0.00352543
0.00194249
-0.00380144
-0.00404991
0.00218361
3.29279e-06
-5.23717e-07
1.42163e-05
-6.80262e-05
3.36834e-05
-0.000172636
6.25474e-05
-0.000308116
0.000101516
-0.000464962
0.000151265
-0.00064032
0.000212421
-0.000831117
0.000285583
-0.00103619
0.000371319
-0.00125459
0.000470163
-0.00148591
0.000582602
-0.00172988
0.000709076
-0.00198631
0.000849964
-0.00225492
0.00100558
-0.0025353
0.0011762
-0.00282662
0.00136204
-0.0031274
0.00156338
-0.00343436
0.00178034
-0.00374239
0.00201337
-0.00403447
-0.00429674
0.00226021
3.6447e-06
-4.16842e-06
1.54647e-05
-7.98463e-05
3.63125e-05
-0.000193483
6.69985e-05
-0.000338802
0.000108208
-0.000506171
0.0001606
-0.000692712
0.00022479
-0.000895306
0.000301365
-0.00111276
0.000390878
-0.0013441
0.000493842
-0.00158888
0.000610722
-0.00184676
0.000741921
-0.00211751
0.000887777
-0.00240078
0.00104855
-0.00269608
0.00122445
-0.00300252
0.00141562
-0.00331857
0.00162228
-0.00364101
0.00184445
-0.00396457
0.00208276
-0.00427278
-0.00454879
0.0023348
4.00222e-06
-8.17064e-06
1.67328e-05
-9.25768e-05
3.89818e-05
-0.000215732
7.15142e-05
-0.000371335
0.00011499
-0.000549647
0.000170051
-0.000747773
0.000237295
-0.000962551
0.000317295
-0.00119276
0.000410585
-0.00143739
0.000517653
-0.00169595
0.000638933
-0.00196804
0.000774789
-0.00225336
0.00092551
-0.0025515
0.0010913
-0.00286187
0.00127229
-0.00318351
0.00146854
-0.00351481
0.0016802
-0.00385267
0.0019072
-0.00419157
0.00215031
-0.00451589
-0.00480547
0.00240699
4.36475e-06
-1.25354e-05
1.80182e-05
-0.00010623
4.16859e-05
-0.0002394
7.60851e-05
-0.000405734
0.000121849
-0.000595411
0.000179595
-0.000805519
0.000249905
-0.00103286
0.000333331
-0.00127619
0.000430383
-0.00153444
0.000541521
-0.00180708
0.00066714
-0.00209366
0.000807562
-0.00239378
0.00096302
-0.00270696
0.00113365
-0.0030325
0.00131951
-0.00336937
0.00152057
-0.00371587
0.00173688
-0.00406899
0.00196827
-0.00442296
0.00221568
-0.0047633
-0.00506617
0.00247638
4.73171e-06
-1.72671e-05
1.93187e-05
-0.000120817
4.44197e-05
-0.000264501
8.07019e-05
-0.000442016
0.000128768
-0.000643477
0.000189211
-0.000865962
0.000262589
-0.00110624
0.00034943
-0.00136303
0.000450216
-0.00163523
0.000565372
-0.00192224
0.000695251
-0.00222354
0.000840125
-0.00253866
0.00100017
-0.002867
0.00117544
-0.00320777
0.00136592
-0.00355985
0.00157147
-0.00392142
0.00179207
-0.00428959
0.00202738
-0.00465828
0.00227855
-0.00501446
-0.00533023
0.00254261
5.10255e-06
-2.23696e-05
2.06319e-05
-0.000136347
4.71779e-05
-0.000291047
8.53551e-05
-0.000480193
0.000135733
-0.000693854
0.000198875
-0.000929104
0.000275314
-0.00118268
0.000365548
-0.00145326
0.000470025
-0.0017397
0.000589131
-0.00204134
0.000723171
-0.00235758
0.000872359
-0.00268784
0.0010368
-0.00303144
0.00121649
-0.00338746
0.00141131
-0.00375467
0.00162102
-0.00413113
0.0018455
-0.00451406
0.00208426
-0.00489703
0.00233862
-0.00526883
-0.00559695
0.00260534
5.4767e-06
-2.78463e-05
2.19557e-05
-0.000152826
4.99555e-05
-0.000319047
9.00354e-05
-0.000520273
0.000142728
-0.000746547
0.000208565
-0.000994941
0.000288048
-0.00126216
0.000381641
-0.00154686
0.000489754
-0.00184782
0.000612725
-0.00216432
0.000750806
-0.00249566
0.000904148
-0.00284119
0.00107279
-0.00320008
0.00125664
-0.00357131
0.00145549
-0.00395353
0.001669
-0.00434464
0.00189694
-0.004742
0.00213864
-0.00513873
0.00239563
-0.00552582
-0.00586556
0.00266424
5.85365e-06
-3.37e-05
2.32877e-05
-0.00017026
5.27473e-05
-0.000348506
9.47333e-05
-0.000562259
0.000149739
-0.000801553
0.000218259
-0.00106346
0.000300759
-0.00134466
0.000397666
-0.00164376
0.000509343
-0.00195949
0.000636078
-0.00229105
0.000778061
-0.00263765
0.000935376
-0.0029985
0.00110798
-0.00337269
0.00129571
-0.00375903
0.00149827
-0.00415609
0.0017152
-0.00456157
0.00194615
-0.00497296
0.00219029
-0.00538287
0.00244932
-0.00578486
-0.00613528
0.00271905
6.23287e-06
-3.99329e-05
2.46259e-05
-0.000188653
5.55481e-05
-0.000379429
9.94396e-05
-0.000606151
0.00015675
-0.000858863
0.000227934
-0.00113464
0.000313417
-0.00143014
0.00041358
-0.00174393
0.000528737
-0.00207465
0.000659116
-0.00242143
0.000804844
-0.00278337
0.000965927
-0.00315958
0.00114225
-0.00354901
0.00133355
-0.00395034
0.00153945
-0.00436199
0.0017594
-0.00478151
0.00199292
-0.00520648
0.002239
-0.00562894
0.00249951
-0.00604537
-0.00640528
0.0027695
6.61383e-06
-4.65467e-05
2.59679e-05
-0.000208007
5.83529e-05
-0.000411814
0.000104145
-0.000651943
0.000163747
-0.000918465
0.000237567
-0.00120846
0.000325987
-0.00151856
0.000429338
-0.00184728
0.000547877
-0.00219319
0.000681767
-0.00255532
0.000831061
-0.00293267
0.000995689
-0.00332421
0.00117545
-0.00372877
0.00136999
-0.00414488
0.00157886
-0.00457085
0.00180139
-0.00500405
0.00203704
-0.00544212
0.00228458
-0.00587649
0.00254602
-0.0063068
-0.00667467
0.00281541
6.99604e-06
-5.35427e-05
2.73117e-05
-0.000228322
6.11566e-05
-0.000445659
0.00010884
-0.000699626
0.000170713
-0.000980338
0.000247136
-0.00128489
0.000338439
-0.00160987
0.000444897
-0.00195373
0.000566705
-0.002315
0.000703955
-0.00269257
0.000856622
-0.00308534
0.00102455
-0.00349214
0.00120745
-0.00391166
0.00140488
-0.00434232
0.00161631
-0.00478227
0.001841
-0.00522875
0.0020783
-0.00567942
0.00232689
-0.00612508
0.00258873
-0.00656864
-0.00694258
0.00285664
7.37897e-06
-6.09217e-05
2.86549e-05
-0.000249598
6.39542e-05
-0.000480958
0.000113515
-0.000749187
0.000177635
-0.00104446
0.000256618
-0.00136387
0.00035074
-0.00170399
0.000460215
-0.00206321
0.000585166
-0.00243995
0.00072561
-0.00283301
0.000881437
-0.00324116
0.0010524
-0.0036631
0.00123812
-0.00409738
0.00143807
-0.00454227
0.00165163
-0.00499583
0.00187802
-0.00545515
0.00211651
-0.00591791
0.00236578
-0.00637435
0.00262758
-0.00683044
-0.0072082
0.00289319
7.76211e-06
-6.86838e-05
2.99956e-05
-0.000271832
6.67404e-05
-0.000517703
0.000118161
-0.000800608
0.000184496
-0.00111079
0.000265991
-0.00144537
0.000362859
-0.00180086
0.000475247
-0.0021756
0.000603203
-0.00256791
0.00074666
-0.00297647
0.000905418
-0.00339992
0.00107913
-0.00383682
0.00126733
-0.00428558
0.00146941
-0.00474435
0.00168465
-0.00521107
0.00191227
-0.00568277
0.0021515
-0.00615714
0.00240116
-0.00662401
0.00266249
-0.00709176
-0.00747084
0.00292513
8.14489e-06
-7.68287e-05
3.13313e-05
-0.000295018
6.95104e-05
-0.000555882
0.000122769
-0.000853867
0.000191283
-0.00117931
0.000275232
-0.00152931
0.000374765
-0.00190039
0.000489952
-0.00229078
0.000620762
-0.00269872
0.000767036
-0.00312275
0.000928479
-0.00356136
0.00110465
-0.00401299
0.00129497
-0.0044759
0.00149875
-0.00494813
0.00171522
-0.00542754
0.00194357
-0.00591112
0.00218308
-0.00639665
0.002433
-0.00687393
0.00269352
-0.00735228
-0.00773083
0.00295351
8.5267e-06
-8.53554e-05
3.26599e-05
-0.000319152
7.22589e-05
-0.000595481
0.00012733
-0.000908938
0.00019798
-0.00124996
0.00028432
-0.00161565
0.000386425
-0.00200249
0.000504287
-0.00240865
0.000637786
-0.00283221
0.000786669
-0.00327163
0.000950537
-0.00372523
0.00112885
-0.0041913
0.00132092
-0.00466798
0.00152598
-0.00515318
0.00174318
-0.00564474
0.00197173
-0.00613967
0.00221102
-0.00663593
0.00246111
-0.00712402
0.00272193
-0.00761311
-0.00798941
0.00298051
8.83353e-06
-9.41889e-05
3.38281e-05
-0.000344146
7.47576e-05
-0.00063641
0.000131548
-0.000965728
0.000204238
-0.00132265
0.000292864
-0.00170428
0.000397426
-0.00210706
0.000517831
-0.00252905
0.000653864
-0.00296825
0.000805172
-0.00342294
0.00097125
-0.00389131
0.00115145
-0.0043715
0.00134498
-0.00486151
0.00155098
-0.00535918
0.00176854
-0.0058623
0.00199686
-0.006368
0.00223544
-0.00687451
0.00248514
-0.00737371
0.00274963
-0.0078776
-0.00830905
0.00306928
9.20593e-06
-0.000103395
3.51251e-05
-0.000370065
7.74334e-05
-0.000678719
0.000135968
-0.00102426
0.000210689
-0.00139737
0.000301556
-0.00179515
0.000408482
-0.00221398
0.000531282
-0.00265185
0.000669643
-0.00310661
0.000823105
-0.0035764
0.000991052
-0.00405926
0.00117272
-0.00455317
0.00136723
-0.00505602
0.00157361
-0.00556556
0.00179087
-0.00607956
0.00201821
-0.00659534
0.00225514
-0.00711144
0.00250288
-0.00762145
0.00276406
-0.00813878
-0.0086102
0.00306521
9.57562e-06
-0.00011297
3.6408e-05
-0.000396898
8.00719e-05
-0.000722382
0.000140311
-0.0010845
0.000217005
-0.00147406
0.000310026
-0.00188817
0.000419198
-0.00232316
0.000544238
-0.00277689
0.00068473
-0.0032471
0.000840101
-0.00373177
0.00100962
-0.00422878
0.00119241
-0.00473596
0.00138749
-0.00525109
0.00159377
-0.00577185
0.00181022
-0.00629601
0.00203595
-0.00682107
0.0022704
-0.00734589
0.00251462
-0.00786568
0.00276896
-0.00839312
-0.00889306
0.00305182
9.94197e-06
-0.000122912
3.76746e-05
-0.00042463
8.26679e-05
-0.000767376
0.000144569
-0.0011464
0.000223169
-0.00155266
0.000318251
-0.00198325
0.000429544
-0.00243445
0.000556661
-0.00290401
0.000699075
-0.00338951
0.000856099
-0.00388879
0.00102689
-0.00439956
0.00121044
-0.00491952
0.00140567
-0.00544632
0.00161141
-0.00597758
0.00182651
-0.00651111
0.00205001
-0.00704458
0.0022812
-0.00757708
0.00252075
-0.00810523
0.00276749
-0.00863985
-0.0091592
0.00303363
1.03044e-05
-0.000133217
3.89225e-05
-0.000453248
8.52164e-05
-0.00081367
0.000148731
-0.00120992
0.000229168
-0.0016331
0.000326211
-0.00208029
0.000439491
-0.00254773
0.000568512
-0.00303303
0.000712632
-0.00353363
0.000871044
-0.0040472
0.00104278
-0.0045713
0.00122674
-0.00510348
0.00142171
-0.00564129
0.00162643
-0.0061823
0.00183967
-0.00672435
0.00206037
-0.00726528
0.00228764
-0.00780435
0.00252171
-0.00833929
0.00276049
-0.00887863
-0.00941049
0.00301177
1.06622e-05
-0.000143879
4.01495e-05
-0.000482736
8.77121e-05
-0.000861232
0.000152789
-0.001275
0.000234985
-0.00171529
0.000333884
-0.00217919
0.00044901
-0.00266285
0.000579753
-0.00316377
0.000725353
-0.00367924
0.000884883
-0.00420673
0.00105725
-0.00474367
0.00124125
-0.00528747
0.00143554
-0.00583558
0.00163879
-0.00638555
0.00184967
-0.00693523
0.00206703
-0.00748265
0.00228981
-0.00802712
0.00251781
-0.00856729
0.00274848
-0.0091093
-0.00964855
0.00298655
1.10149e-05
-0.000154894
4.13534e-05
-0.000513074
9.01499e-05
-0.000910029
0.000156734
-0.00134158
0.000240608
-0.00179917
0.00034125
-0.00227984
0.000458072
-0.00277968
0.000590349
-0.00329605
0.000737197
-0.00382608
0.000897564
-0.0043671
0.00107024
-0.00491635
0.0012539
-0.00547113
0.00144712
-0.0060288
0.00164845
-0.00658689
0.0018565
-0.00714327
0.00207002
-0.00769617
0.0022878
-0.0082449
0.00250932
-0.0087888
0.00273185
-0.00933184
-0.00987471
0.00295801
1.13619e-05
-0.000166256
4.25318e-05
-0.000544244
9.25247e-05
-0.000960022
0.000160556
-0.00140961
0.000246021
-0.00188463
0.000348287
-0.0023821
0.000466651
-0.00289804
0.000600265
-0.00342966
0.000748121
-0.00397394
0.000909042
-0.00452802
0.0010817
-0.00508901
0.00126466
-0.00565408
0.00145639
-0.00622053
0.00165538
-0.00678587
0.00186014
-0.00734804
0.00206937
-0.00790539
0.00228174
-0.00845728
0.00249646
-0.00900353
0.00271087
-0.00954625
-0.01009
0.00292613
1.17027e-05
-0.000177959
4.36825e-05
-0.000576224
9.48313e-05
-0.00101117
0.000164245
-0.00147902
0.00025121
-0.0019716
0.000354976
-0.00248587
0.000474719
-0.00301778
0.000609468
-0.00356441
0.000758086
-0.00412256
0.000919274
-0.00468921
0.00109159
-0.00526133
0.00127347
-0.00583597
0.00146333
-0.00641038
0.00165956
-0.0069821
0.00186062
-0.00754911
0.00206514
-0.00810991
0.00227174
-0.00866388
0.00247944
-0.00921123
0.00268576
-0.00975257
-0.0102951
0.00289089
1.20366e-05
-0.000189995
4.48031e-05
-0.000608991
9.70645e-05
-0.00106343
0.000167793
-0.00154975
0.00025616
-0.00205996
0.000361296
-0.002591
0.000482251
-0.00313874
0.000617926
-0.00370009
0.000767057
-0.00427169
0.00092822
-0.00485037
0.00109986
-0.00543296
0.00128031
-0.00601643
0.00146791
-0.00659798
0.00166098
-0.00717517
0.00185795
-0.00774608
0.0020574
-0.00830936
0.00225792
-0.0088644
0.00245843
-0.00941174
0.00265669
-0.00995083
-0.0104907
0.00285229
1.2363e-05
-0.000202358
4.58914e-05
-0.000642519
9.92191e-05
-0.00111676
0.000171191
-0.00162173
0.000260859
-0.00214963
0.000367228
-0.00269737
0.000489221
-0.00326073
0.000625608
-0.00383647
0.000774998
-0.00442108
0.000935845
-0.00501122
0.00110648
-0.0056036
0.00128516
-0.00619511
0.00147012
-0.00678294
0.00165966
-0.00736472
0.00185218
-0.00793859
0.00204622
-0.00850339
0.00224039
-0.00905858
0.00243358
-0.00960492
0.00262382
-0.0101411
-0.0106772
0.00281033
1.26814e-05
-0.00021504
4.69449e-05
-0.000676782
0.00010129
-0.0011711
0.00017443
-0.00169487
0.000265292
-0.00224049
0.000372753
-0.00280483
0.000495605
-0.00338358
0.000632487
-0.00397335
0.00078188
-0.00457047
0.000942117
-0.00517146
0.00111143
-0.0057729
0.00128798
-0.00637166
0.00146996
-0.00696492
0.00165562
-0.00755038
0.00184334
-0.00812631
0.00203168
-0.00869173
0.00221929
-0.00924619
0.00240505
-0.00979068
0.00258731
-0.0103233
-0.010855
0.00276508
1.29912e-05
-0.000228031
4.79613e-05
-0.000711752
0.000103272
-0.00122642
0.0001775
-0.00176909
0.000269446
-0.00233244
0.000377853
-0.00291324
0.000501381
-0.00350711
0.000638537
-0.00411051
0.000787673
-0.00471961
0.000947009
-0.00533079
0.00111467
-0.00594057
0.00128877
-0.00654575
0.00146742
-0.00714357
0.00164887
-0.00773182
0.00183149
-0.00830893
0.00201387
-0.00887412
0.00219473
-0.00942705
0.00237299
-0.00996895
0.00254731
-0.0104976
-0.0110243
0.00271662
1.32916e-05
-0.000241322
4.89382e-05
-0.000747399
0.000105159
-0.00128264
0.000180393
-0.00184433
0.000273307
-0.00242535
0.00038251
-0.00302244
0.000506527
-0.00363113
0.000643731
-0.00424771
0.000792352
-0.00486823
0.000950499
-0.00548894
0.00111621
-0.00610628
0.00128752
-0.00671706
0.00146252
-0.00731858
0.00163945
-0.00790875
0.00181669
-0.00848618
0.00199289
-0.00905032
0.00216684
-0.009601
0.00233756
-0.0101397
0.00250397
-0.0106641
-0.0111853
0.00266503
1.35821e-05
-0.000254904
4.98731e-05
-0.00078369
0.000106948
-0.00133971
0.000183101
-0.00192048
0.000276864
-0.00251912
0.000386708
-0.00313229
0.000511023
-0.00375544
0.000648049
-0.00438474
0.000795895
-0.00501607
0.000952567
-0.00564561
0.00111602
-0.00626974
0.00128424
-0.00688528
0.00145529
-0.00748963
0.0016274
-0.00808086
0.00179903
-0.00865781
0.00196885
-0.00922014
0.00213577
-0.00976792
0.0022989
-0.0103028
0.00245745
-0.0108226
-0.0113384
0.00261046
1.38619e-05
-0.000268766
5.07638e-05
-0.000820592
0.000108632
-0.00139758
0.000185613
-0.00199746
0.000280103
-0.00261361
0.00039043
-0.00324261
0.000514849
-0.00387986
0.00065147
-0.00452136
0.000798284
-0.00516289
0.000953199
-0.00580053
0.0011141
-0.00643064
0.00127893
-0.0070501
0.00144573
-0.00765644
0.00161278
-0.00824791
0.00177856
-0.00882359
0.00194184
-0.00938341
0.00210163
-0.00992771
0.00225718
-0.0104583
0.00240792
-0.0109733
-0.0114835
0.00255302
1.41305e-05
-0.000282897
5.16077e-05
-0.000858069
0.000110206
-0.00145618
0.000187923
-0.00207518
0.000283012
-0.00270869
0.000393662
-0.00335326
0.000517988
-0.00400419
0.000653975
-0.00465735
0.000799502
-0.00530842
0.000952385
-0.00595341
0.00111045
-0.0065887
0.0012716
-0.00721125
0.0014339
-0.00781874
0.00159565
-0.00840965
0.00175539
-0.00898333
0.00191198
-0.00954001
0.00206457
-0.0100803
0.00221253
-0.0106063
0.00235552
-0.0111163
-0.0116208
0.00249286
1.43872e-05
-0.000297284
5.24025e-05
-0.000896084
0.000111666
-0.00151544
0.000190022
-0.00215354
0.000285581
-0.00280425
0.000396388
-0.00346407
0.000520425
-0.00412823
0.00065555
-0.00479247
0.000799536
-0.0054524
0.000950119
-0.00610399
0.00110507
-0.00674366
0.00126228
-0.00736847
0.00141983
-0.00797629
0.00157606
-0.00856588
0.00172959
-0.00913686
0.00187939
-0.00968981
0.00202473
-0.0102256
0.00216512
-0.0107467
0.00230042
-0.0112516
-0.0117505
0.00243012
1.46313e-05
-0.000311915
5.31457e-05
-0.000934599
0.000113006
-0.0015753
0.000191902
-0.00223243
0.000287797
-0.00290015
0.000398596
-0.00357487
0.000522144
-0.00425178
0.00065618
-0.00492651
0.000798378
-0.0055946
0.0009464
-0.00625202
0.00109798
-0.00689524
0.001251
-0.00752148
0.00140357
-0.00812885
0.00155408
-0.00871639
0.00170127
-0.00928405
0.00184419
-0.00983273
0.00198224
-0.0103637
0.00211509
-0.0108795
0.00224279
-0.0113793
-0.0118727
0.00236497
1.4862e-05
-0.000326777
5.3835e-05
-0.000973572
0.000114222
-0.00163569
0.000193555
-0.00231176
0.000289652
-0.00299625
0.000400273
-0.00368549
0.000523133
-0.00437464
0.000655855
-0.00505923
0.000796021
-0.00573476
0.00094123
-0.00639723
0.00108919
-0.00704319
0.00123778
-0.00767008
0.00138516
-0.00827624
0.0015298
-0.00886103
0.00167051
-0.00942477
0.00180649
-0.00996871
0.00193726
-0.0104945
0.00206261
-0.0110049
0.00218278
-0.0114995
-0.0119875
0.00229756
1.50788e-05
-0.000341856
5.44681e-05
-0.00101296
0.000115309
-0.00169653
0.000194974
-0.00239143
0.000291134
-0.00309241
0.000401408
-0.00379576
0.000523381
-0.00449661
0.000654567
-0.00519042
0.000792463
-0.00587266
0.000934616
-0.00653938
0.00107871
-0.00718729
0.00122267
-0.00781403
0.00136467
-0.00841824
0.00150329
-0.00899964
0.00163743
-0.00955891
0.00176642
-0.0100977
0.00188991
-0.0106179
0.00200783
-0.0111228
0.00212055
-0.0116122
-0.012095
0.00222805
1.5281e-05