/*--------------------------------*- C++ -*----------------------------------*\
  =========                 |
  \\      /  F ield         | OpenFOAM: The Open Source CFD Toolbox
   \\    /   O peration     | Website:  https://openfoam.org
    \\  /    A nd           | Version:  7
     \\/     M anipulation  |
\*---------------------------------------------------------------------------*/
FoamFile
{
    version     2.0;
    format      ascii;
    class       volVectorField;
    location    "15";
    object      U;
}
// * * * * * * * * * * * * * * * * * * * * * * * * * * * * * * * * * * * * * //

dimensions      [0 1 -1 0 0 0 0];

internalField   nonuniform List<vector> 
42000
(
(-0.000835196 0.00017243 1.07416e-21)
(-0.00274035 0.000174494 -3.51761e-21)
(-0.00403554 2.73993e-05 1.83124e-21)
(-0.00327471 -0.000207681 -1.04549e-22)
(-0.0004509 -0.000476704 -3.37732e-21)
(0.00452313 -0.000759069 4.03039e-21)
(0.0114669 -0.00103891 3.53464e-21)
(0.0202047 -0.00131003 2.37587e-21)
(0.0305382 -0.00156868 -1.85362e-21)
(0.0422841 -0.00181387 2.38298e-21)
(0.0552778 -0.00204546 1.00989e-21)
(0.0693739 -0.00226375 8.57159e-23)
(0.0844431 -0.00246871 -1.49384e-21)
(0.100369 -0.00265937 1.63444e-21)
(0.117027 -0.00283288 3.58113e-21)
(0.1343 -0.00298414 1.34483e-21)
(0.151985 -0.00310261 -2.73006e-21)
(0.16997 -0.00317823 -8.87417e-22)
(0.187684 -0.0031755 2.5281e-21)
(0.205301 -0.00312624 7.97964e-22)
(-0.000844594 0.000515402 3.0441e-21)
(-0.0027236 0.000519891 -1.51045e-21)
(-0.00396042 7.81177e-05 3.72147e-21)
(-0.00312607 -0.000627024 -1.72732e-21)
(-0.000217009 -0.00143356 1.26996e-20)
(0.00484851 -0.00227987 -1.55391e-22)
(0.0118886 -0.00311843 6.41037e-21)
(0.0207258 -0.00393073 -4.83094e-21)
(0.0311611 -0.00470551 6.29437e-21)
(0.0430107 -0.00543983 6.01489e-21)
(0.0561094 -0.00613327 -2.10838e-21)
(0.0703118 -0.00678677 4.91761e-21)
(0.0854881 -0.0074002 -1.00224e-20)
(0.101521 -0.00797074 -1.09682e-20)
(0.118287 -0.00848982 2.1919e-21)
(0.135669 -0.00894217 -4.50909e-21)
(0.153461 -0.00929628 3.58592e-21)
(0.171556 -0.00952179 -5.29448e-21)
(0.189362 -0.0095128 2.24707e-21)
(0.207123 -0.00936228 3.70338e-21)
(-0.00086312 0.000852772 -2.02946e-20)
(-0.00268959 0.0008545 -7.32955e-21)
(-0.00380957 0.000116438 -1.32426e-20)
(-0.00282818 -0.00105853 2.64687e-21)
(0.000251294 -0.00240101 -1.67694e-20)
(0.00549968 -0.00380897 -9.65063e-21)
(0.0127322 -0.00520337 -1.6906e-20)
(0.021768 -0.00655362 -8.59132e-21)
(0.0324068 -0.00784099 1.94597e-21)
(0.0444633 -0.00906067 -1.00193e-20)
(0.057772 -0.010212 -1.11518e-20)
(0.0721864 -0.0112965 2.35607e-21)
(0.0875765 -0.0123141 1.10091e-20)
(0.103825 -0.0132601 1.24782e-20)
(0.120806 -0.0141204 3.60007e-21)
(0.138404 -0.0148695 9.51178e-21)
(0.156408 -0.0154553 -1.33955e-20)
(0.174724 -0.0158266 -9.25364e-21)
(0.192711 -0.0158089 1.19518e-20)
(0.210762 -0.0155489 2.39645e-21)
(-0.000890243 0.00118088 1.31869e-20)
(-0.00263727 0.00117119 1.13359e-20)
(-0.0035818 0.000134132 1.45541e-20)
(-0.00237986 -0.00151027 2.27459e-20)
(0.000955059 -0.0033861 2.1034e-20)
(0.00647743 -0.00535185 1.2774e-21)
(0.0139983 -0.00729733 3.09805e-22)
(0.0233315 -0.00918014 2.0074e-20)
(0.0342747 -0.0109742 -8.54791e-21)
(0.0466411 -0.012673 1.13758e-20)
(0.0602638 -0.0142755 7.02174e-21)
(0.0749955 -0.0157842 -2.14201e-20)
(0.0907053 -0.0171987 -4.98819e-21)
(0.107275 -0.0185128 -2.3583e-20)
(0.124578 -0.0197069 -1.72101e-20)
(0.142499 -0.0207457 8.52676e-21)
(0.160821 -0.0215565 5.77486e-21)
(0.179465 -0.0220669 6.17763e-21)
(0.197722 -0.0220363 -1.77145e-20)
(0.216204 -0.0216535 -9.51143e-21)
(-0.000925174 0.00149614 -4.06221e-21)
(-0.00256507 0.00146296 1.16042e-20)
(-0.00327528 0.000123133 2.20596e-20)
(-0.00177931 -0.00199015 -2.29348e-20)
(0.00189585 -0.00439568 -4.0245e-20)
(0.00778298 -0.00691385 -7.46527e-21)
(0.0156875 -0.00940374 -2.98878e-21)
(0.0254163 -0.0118116 1.60607e-20)
(0.0367645 -0.0141042 -5.28219e-21)
(0.0495427 -0.0162733 -3.174e-20)
(0.0635826 -0.0183178 -2.92767e-20)
(0.0787357 -0.0202408 1.78382e-20)
(0.0948698 -0.0220423 1.12685e-20)
(0.111866 -0.0237142 3.35429e-20)
(0.129595 -0.025232 2.34614e-20)
(0.147944 -0.0265503 -1.65376e-20)
(0.166686 -0.0275771 -8.81601e-21)
(0.185766 -0.0282171 2.33951e-20)
(0.204379 -0.0281681 7.36547e-21)
(0.223431 -0.0276435 -2.80119e-21)
(-0.000966869 0.00179502 -3.1405e-21)
(-0.00247094 0.00172295 -3.8566e-20)
(-0.00288763 7.55745e-05 -4.98986e-20)
(-0.00102415 -0.00250585 -6.55546e-21)
(0.00307575 -0.00543641 2.55036e-20)
(0.00941791 -0.00850007 8.99651e-21)
(0.0178008 -0.0115258 1.02974e-20)
(0.0280226 -0.014449 -1.51826e-20)
(0.0398752 -0.0172296 2.67477e-20)
(0.0531661 -0.0198578 -1.02455e-20)
(0.0677253 -0.0223324 4.32619e-20)
(0.0834025 -0.0246574 -5.42809e-21)
(0.100064 -0.026833 -1.12862e-20)
(0.117589 -0.0288497 -2.16026e-21)
(0.135849 -0.030678 -1.30094e-20)
(0.154728 -0.0322631 -5.35895e-21)
(0.173991 -0.0334941 1.53421e-20)
(0.193609 -0.0342519 -1.50344e-20)
(0.212662 -0.0341773 1.68466e-20)
(0.232417 -0.033487 1.6037e-20)
(-0.00101404 0.0020741 2.00301e-20)
(-0.00235231 0.00194453 1.73024e-20)
(-0.00241588 -1.61593e-05 2.51807e-20)
(-0.00011144 -0.00306477 3.18105e-20)
(0.00449733 -0.00651463 4.22776e-20)
(0.0113842 -0.0101154 1.34074e-20)
(0.0203394 -0.0136665 -9.44984e-21)
(0.0311506 -0.0170933 5.79516e-21)
(0.043606 -0.020349 -1.39479e-20)
(0.0575092 -0.0234226 1.96215e-20)
(0.072688 -0.0263129 -2.44944e-20)
(0.0889902 -0.0290249 9.77993e-21)
(0.10628 -0.031559 1.11826e-20)
(0.124436 -0.0339045 7.19317e-21)
(0.143325 -0.0360275 -1.71618e-20)
(0.162834 -0.037864 1.76456e-20)
(0.182715 -0.039285 -1.55959e-20)
(0.202971 -0.040146 1.10503e-20)
(0.222546 -0.0400375 -7.78074e-21)
(0.243132 -0.0391526 -2.00186e-20)
(-0.00106515 0.00233007 -2.78015e-20)
(-0.00220615 0.0021213 1.36213e-20)
(-0.0018565 -0.00015938 -1.8496e-21)
(0.000962325 -0.00367399 -1.95412e-20)
(0.00616364 -0.00763638 -5.30199e-20)
(0.0136842 -0.0117642 3.96589e-20)
(0.0233046 -0.0158284 1.34604e-20)
(0.0348005 -0.019745 -2.29743e-21)
(0.0479555 -0.0234608 -3.73253e-21)
(0.0625689 -0.0269638 -1.75007e-20)
(0.0784659 -0.0302529 3.93513e-20)
(0.0954919 -0.033334 5.71532e-21)
(0.113509 -0.0362083 2.23297e-21)
(0.132393 -0.038864 -5.07008e-21)
(0.152009 -0.0412631 2.25496e-20)
(0.172245 -0.0433327 -1.40645e-23)
(0.192837 -0.0449273 2.91964e-21)
(0.213827 -0.0458747 -4.19703e-21)
(0.233999 -0.0457227 -2.41989e-20)
(0.255537 -0.0446097 1.45572e-20)
(-0.00111843 0.00255979 2.71169e-20)
(-0.00202895 0.00224714 5.44633e-20)
(-0.00120541 -0.000361042 -6.44026e-20)
(0.00220118 -0.00434019 -5.09988e-20)
(0.00807823 -0.00880727 6.27519e-20)
(0.0163206 -0.0134507 -4.67553e-20)
(0.0266981 -0.0180139 9.68847e-21)
(0.0389724 -0.0224044 -8.25914e-21)
(0.0529225 -0.026563 -4.41944e-20)
(0.0683421 -0.0304768 4.50632e-20)
(0.0850537 -0.0341452 -5.59965e-20)
(0.1029 -0.0375754 2.92603e-20)
(0.12174 -0.0407689 -2.18299e-21)
(0.141448 -0.0437134 4.03405e-20)
(0.161884 -0.0463674 -4.14366e-21)
(0.182939 -0.0486495 -2.31329e-20)
(0.204331 -0.0503989 -4.61753e-21)
(0.226146 -0.0514134 -1.03422e-20)
(0.246985 -0.0512076 -2.14077e-21)
(0.26959 -0.0498283 -1.05792e-20)
(-0.00117191 0.00276025 2.77426e-20)
(-0.00181676 0.00231626 -8.37215e-20)
(-0.000458025 -0.000627693 9.46305e-21)
(0.00360969 -0.00506962 9.6949e-20)
(0.010245 -0.0100325 -2.33635e-20)
(0.0192964 -0.0151785 -4.91601e-21)
(0.0305214 -0.0202247 1.12774e-20)
(0.0436667 -0.0250711 -8.80091e-21)
(0.0585051 -0.029653 4.16026e-20)
(0.0748249 -0.0339571 5.11801e-20)
(0.0924449 -0.0379831 9.27819e-20)
(0.111204 -0.0417394 6.31581e-21)
(0.13096 -0.0452288 -5.61427e-20)
(0.151583 -0.0484382 -1.68133e-20)
(0.17293 -0.0513233 -1.90748e-21)
(0.194892 -0.0537945 6.61437e-21)
(0.217168 -0.0556777 2.50658e-20)
(0.239892 -0.0567382 -1.57209e-20)
(0.261464 -0.0564672 3.71816e-20)
(0.285239 -0.0547799 2.71755e-20)
(-0.00122339 0.00292863 -7.75939e-20)
(-0.00156522 0.00232324 4.6325e-20)
(0.000390744 -0.000965423 2.17475e-20)
(0.0051929 -0.00586801 -4.22095e-20)
(0.0126685 -0.0113166 -7.10414e-22)
(0.022615 -0.0169507 -3.89592e-21)
(0.0347767 -0.0224621 -5.73981e-20)
(0.0488833 -0.0277446 -7.41342e-21)
(0.0647015 -0.0327282 -7.06855e-20)
(0.0820129 -0.0373995 -2.95596e-20)
(0.100632 -0.0417589 -2.52689e-20)
(0.120396 -0.0458164 -4.73348e-20)
(0.141156 -0.0495756 -1.67423e-20)
(0.162781 -0.0530235 -2.16898e-20)
(0.185123 -0.0561135 -3.75706e-21)
(0.208075 -0.0587484 2.96552e-20)
(0.231313 -0.0607424 9.36166e-21)
(0.255026 -0.0618255 2.05211e-20)
(0.27739 -0.0614774 -3.07593e-20)
(0.302428 -0.0594367 -1.62254e-20)
(-0.00127048 0.00306231 6.33048e-20)
(-0.00126955 0.00226306 -4.9527e-20)
(0.00134646 -0.00137983 -2.68953e-20)
(0.0069563 -0.00674056 -1.42262e-21)
(0.0153533 -0.0126638 -8.10086e-20)
(0.0262799 -0.0187701 -4.54867e-20)
(0.0394658 -0.0247271 4.81809e-20)
(0.0546225 -0.0304237 -1.68827e-20)
(0.0715094 -0.0357853 7.59152e-20)
(0.0899012 -0.0407987 -4.16529e-20)
(0.109608 -0.0454652 -7.75762e-20)
(0.130462 -0.0497963 2.38621e-20)
(0.152312 -0.0537971 1.61934e-20)
(0.175023 -0.0574547 -3.23359e-20)
(0.19844 -0.060721 -2.37471e-20)
(0.222458 -0.0634918 -2.88189e-20)
(0.246731 -0.0655717 -5.72107e-20)
(0.271503 -0.0666525 1.45103e-20)
(0.294713 -0.0662151 -4.87673e-20)
(0.321096 -0.0637725 3.91391e-20)
(-0.0013106 0.00315889 4.0336e-20)
(-0.000924591 0.0021311 8.91858e-20)
(0.00241511 -0.00187596 9.18099e-21)
(0.00890585 -0.00769185 -1.61151e-21)
(0.0183048 -0.0140775 1.04406e-19)
(0.0302951 -0.0206385 7.28859e-20)
(0.044591 -0.0270199 4.61537e-20)
(0.0608842 -0.0331068 9.64368e-20)
(0.0789264 -0.0388206 -1.86662e-20)
(0.0984844 -0.0441489 6.73015e-20)
(0.119364 -0.0490939 9.46664e-20)
(0.141391 -0.0536689 -6.94267e-20)
(0.164411 -0.0578808 -1.65264e-20)
(0.188285 -0.0617171 -2.05689e-21)
(0.212851 -0.0651291 5.20824e-20)
(0.238007 -0.0680058 2.98692e-20)
(0.263379 -0.070145 1.04819e-19)
(0.289275 -0.0711968 -5.52809e-20)
(0.313375 -0.0706577 3.6643e-20)
(0.341175 -0.0677626 -6.2602e-20)
(-0.00134101 0.00321612 -8.5384e-20)
(-0.000524877 0.00192329 -7.44848e-20)
(0.00360312 -0.00245829 -6.19291e-22)
(0.0110479 -0.00872583 3.31115e-20)
(0.0215282 -0.0155606 -1.0773e-19)
(0.0346646 -0.0225572 -3.79228e-20)
(0.0501544 -0.0293399 2.11956e-21)
(0.0676683 -0.0357916 -4.48822e-20)
(0.0869495 -0.0418299 7.08919e-20)
(0.107756 -0.0474438 -5.05894e-20)
(0.129889 -0.0526366 -8.21872e-20)
(0.153169 -0.0574239 4.57837e-20)
(0.177434 -0.0618142 -5.38023e-21)
(0.202544 -0.0657962 4.96597e-20)
(0.228328 -0.0693209 -6.74146e-20)
(0.254685 -0.0722718 3.40089e-20)
(0.281215 -0.0744422 -6.40264e-20)
(0.308289 -0.075437 1.71492e-20)
(0.333318 -0.0747839 -2.84185e-20)
(0.362589 -0.0713841 1.99358e-20)
(-0.00135873 0.00323186 4.46475e-21)
(-6.46279e-05 0.00163618 -2.72985e-20)
(0.00491725 -0.00313064 6.43416e-20)
(0.0133891 -0.00984576 -3.14915e-20)
(0.0250295 -0.0171151 8.76511e-20)
(0.0393927 -0.024527 2.86969e-20)
(0.0561584 -0.0316863 -7.5424e-20)
(0.0749746 -0.0384751 1.20796e-21)
(0.0955756 -0.0448084 -1.74769e-20)
(0.11771 -0.0506766 -9.25635e-20)
(0.141173 -0.0560847 7.80521e-20)
(0.165779 -0.0610505 -8.99429e-21)
(0.191362 -0.0655846 -4.07884e-21)
(0.217773 -0.0696772 -3.78096e-20)
(0.244837 -0.0732802 7.57624e-20)
(0.272453 -0.0762716 -6.11243e-20)
(0.30019 -0.0784437 -4.00116e-20)
(0.328489 -0.0793524 1.16626e-20)
(0.354476 -0.0785733 3.60761e-20)
(0.385261 -0.0746158 5.41216e-20)
(-0.00136068 0.00320457 1.79138e-20)
(0.000462345 0.00126649 -1.81622e-20)
(0.00636457 -0.00389623 2.56796e-20)
(0.0159365 -0.0110542 -1.01063e-19)
(0.0288147 -0.0187424 7.17493e-20)
(0.0444839 -0.0265476 -2.63552e-20)
(0.062605 -0.0340571 3.54008e-20)
(0.0828026 -0.0411539 3.37824e-20)
(0.104801 -0.0477506 -3.4818e-20)
(0.128339 -0.0538401 8.02355e-20)
(0.153205 -0.059429 -5.40791e-20)
(0.179206 -0.0645378 -2.41018e-20)
(0.206171 -0.0691794 -3.5453e-20)
(0.233945 -0.0733458 2.72106e-20)
(0.262343 -0.0769907 -5.88775e-21)
(0.291267 -0.0799876 6.04515e-20)
(0.320253 -0.0821305 3.28985e-20)
(0.349814 -0.0829231 6.39015e-21)
(0.376779 -0.0820067 -2.02419e-20)
(0.409106 -0.0774386 -8.35309e-21)
(-0.00134383 0.00313303 2.65854e-20)
(0.00106244 0.000811446 1.10975e-19)
(0.00795252 -0.00475756 -8.31815e-20)
(0.0186975 -0.0123528 1.05907e-19)
(0.0328899 -0.020443 -1.71715e-19)
(0.0499425 -0.0286182 -2.9828e-20)
(0.0694966 -0.0364499 -3.77636e-22)
(0.0911517 -0.0438236 -7.7005e-20)
(0.114622 -0.0506506 9.76208e-21)
(0.139635 -0.0569265 1.59291e-20)
(0.165971 -0.0626601 1.06838e-20)
(0.193433 -0.0678746 -4.40763e-20)
(0.221838 -0.0725857 2.98575e-20)
(0.251029 -0.0767875 -2.83715e-20)
(0.28081 -0.0804365 -1.37477e-19)
(0.311081 -0.0834025 7.71601e-21)
(0.341349 -0.0854846 -4.93728e-21)
(0.372198 -0.0861305 -4.1659e-20)
(0.400154 -0.085066 2.62704e-20)
(0.434034 -0.0798354 -2.61727e-20)
(-0.00130487 0.00301591 -1.9048e-20)
(0.00174218 0.00026912 -7.80236e-21)
(0.00968879 -0.00571641 8.23308e-21)
(0.0216794 -0.0137427 4.72649e-20)
(0.0372617 -0.0222167 8.57651e-20)
(0.0557734 -0.0307371 9.78815e-20)
(0.0768353 -0.0388613 -7.85208e-20)
(0.100021 -0.0464793 3.86034e-20)
(0.125033 -0.0535018 -4.85334e-20)
(0.151589 -0.0599276 -5.03083e-20)
(0.179459 -0.065768 -1.0765e-20)
(0.208439 -0.0710494 6.52335e-20)
(0.238339 -0.0757906 -4.79173e-21)
(0.268992 -0.0799881 -2.09638e-20)
(0.300195 -0.0836023 3.80018e-20)
(0.331848 -0.0864997 -8.06155e-20)
(0.36342 -0.0884887 7.5457e-21)
(0.395574 -0.0889569 3.57527e-20)
(0.424523 -0.0877348 -9.64117e-22)
(0.45995 -0.0817917 -2.76358e-20)
(-0.00124042 0.00285224 -3.9687e-20)
(0.00250833 -0.000361873 -5.3229e-20)
(0.0115812 -0.00677381 -8.82503e-21)
(0.0248902 -0.015224 -3.6453e-20)
(0.0419365 -0.0240624 -5.41329e-20)
(0.0619809 -0.0329017 -1.03644e-19)
(0.0846231 -0.0412873 9.12538e-20)
(0.109409 -0.0491154 -6.71897e-20)
(0.13603 -0.0562967 7.72417e-20)
(0.164191 -0.0628345 6.18079e-20)
(0.193654 -0.0687425 3.00608e-21)
(0.224204 -0.0740507 1.0413e-19)
(0.255645 -0.0787812 1.43839e-20)
(0.287801 -0.0829336 1.21885e-19)
(0.320458 -0.0864729 9.0127e-20)
(0.353515 -0.0892634 9.71357e-20)
(0.386406 -0.0911263 -8.4548e-21)
(0.419868 -0.0913858 5.2007e-21)
(0.449805 -0.0899977 -2.93683e-20)
(0.486758 -0.083295 2.68723e-20)
(-0.00114705 0.00264139 2.66682e-20)
(0.00336782 -0.00108238 -3.37488e-21)
(0.0136379 -0.00793007 -2.63647e-20)
(0.0283376 -0.0167959 -6.4744e-20)
(0.046921 -0.0259781 7.71266e-20)
(0.0685698 -0.0351085 3.98359e-20)
(0.0928617 -0.0437227 -1.22647e-19)
(0.119315 -0.0517251 3.98951e-20)
(0.147608 -0.0590275 -2.66227e-20)
(0.177431 -0.0656377 3.79179e-20)
(0.208539 -0.0715729 1.01819e-19)
(0.240707 -0.0768665 -1.06298e-19)
(0.273728 -0.0815446 5.19563e-20)
(0.307419 -0.0856102 -1.0734e-19)
(0.341554 -0.0890339 -3.70749e-20)
(0.376027 -0.0916784 -1.48056e-19)
(0.410242 -0.093382 -1.27042e-20)
(0.445006 -0.0934023 4.76004e-20)
(0.475914 -0.0918412 7.34511e-21)
(0.514354 -0.0843357 -8.24465e-21)
(-0.00102126 0.00238299 2.6411e-20)
(0.00432769 -0.00189265 1.23232e-19)
(0.015867 -0.0091847 1.24134e-19)
(0.0320296 -0.0184569 6.2019e-21)
(0.0522216 -0.0279608 3.91967e-20)
(0.0755444 -0.0373533 -7.93477e-20)
(0.101553 -0.0461619 1.41203e-19)
(0.129736 -0.0543014 9.38553e-21)
(0.159759 -0.0616853 -8.77412e-20)
(0.191298 -0.0683273 -4.96815e-20)
(0.224099 -0.0742479 -1.98525e-19)
(0.257924 -0.0794848 1.46135e-20)
(0.292558 -0.084068 -1.60515e-20)
(0.327808 -0.0880043 -7.20163e-20)
(0.363434 -0.0912713 -3.19432e-20)
(0.39933 -0.0937306 1.94548e-20)
(0.43486 -0.0952417 4.72316e-20)
(0.470908 -0.0949926 -4.20741e-20)
(0.502761 -0.0932531 -3.20174e-20)
(0.542635 -0.0849064 -6.17621e-20)
(-0.000859496 0.00207697 -6.09984e-20)
(0.00539507 -0.00279233 7.5566e-21)
(0.0182768 -0.0105364 -6.45347e-20)
(0.0359741 -0.0202045 -4.31504e-20)
(0.0578451 -0.0300068 -1.77646e-19)
(0.082909 -0.0396307 5.20261e-21)
(0.110697 -0.0485981 -3.23751e-20)
(0.14067 -0.056836 8.99668e-21)
(0.172476 -0.064261 6.23944e-20)
(0.20578 -0.0708928 -4.90812e-21)
(0.240314 -0.0767562 2.78149e-20)
(0.275831 -0.0818933 3.58496e-20)
(0.312103 -0.0863385 -4.17123e-21)
(0.348927 -0.090103 1.26148e-20)
(0.38605 -0.0931718 -5.72671e-20)
(0.423361 -0.0954066 1.62866e-20)
(0.460192 -0.0966923 -2.63526e-20)
(0.497494 -0.0961446 -5.10478e-20)
(0.530258 -0.0942232 1.67509e-20)
(0.571491 -0.0850026 5.89153e-20)
(-0.000658209 0.00172353 -4.33263e-20)
(0.00657712 -0.00378042 -1.87996e-19)
(0.0208755 -0.0119831 -1.08262e-19)
(0.0401792 -0.0220354 1.40418e-19)
(0.0637978 -0.0321113 5.86091e-20)
(0.0906677 -0.0419346 2.85731e-20)
(0.120297 -0.0510238 -5.32914e-20)
(0.152113 -0.0593202 -7.15401e-20)
(0.185753 -0.0667443 -9.06933e-20)
(0.220864 -0.0733231 1.19734e-19)
(0.257166 -0.0790859 5.50059e-20)
(0.294401 -0.0840796 3.99617e-20)
(0.332328 -0.0883435 -1.18922e-19)
(0.370733 -0.0918934 -4.14929e-20)
(0.409349 -0.0947229 1.11221e-19)
(0.448061 -0.0966944 2.33437e-20)
(0.486165 -0.0977221 4.29509e-22)
(0.524678 -0.0968479 5.99495e-20)
(0.558309 -0.0947427 5.65717e-20)
(0.600815 -0.0846222 1.09112e-21)
(-0.000413825 0.00132317 1.08032e-20)
(0.00788101 -0.00485534 9.51323e-20)
(0.0236714 -0.0135219 2.55575e-19)
(0.0446528 -0.0239453 -5.1794e-20)
(0.0700861 -0.0342686 1.62837e-19)
(0.0988243 -0.0442579 -2.02293e-20)
(0.130351 -0.0534305 -7.04799e-21)
(0.164063 -0.0617442 1.4196e-19)
(0.199581 -0.0691246 1.06711e-19)
(0.236535 -0.0756067 -8.50006e-20)
(0.274634 -0.0812249 -1.06108e-19)
(0.313606 -0.0860313 -2.76993e-20)
(0.353198 -0.0900706 2.41099e-20)
(0.393183 -0.0933635 -2.39041e-20)
(0.433279 -0.0959129 -9.31648e-20)
(0.473366 -0.0975829 7.65626e-21)
(0.512705 -0.0983211 4.10976e-20)
(0.552376 -0.0970939 -1.69998e-20)
(0.58682 -0.0948051 1.57997e-20)
(0.630495 -0.0837658 5.43399e-20)
(-0.000122783 0.000876643 -1.44305e-20)
(0.0093139 -0.00601485 -1.63121e-19)
(0.0266727 -0.0151492 -2.53368e-20)
(0.0494024 -0.025929 -5.49079e-20)
(0.0767158 -0.0364721 -2.28111e-19)
(0.107382 -0.0465925 -4.87838e-20)
(0.14086 -0.0558089 1.73696e-20)
(0.176514 -0.0640977 -9.64237e-20)
(0.213949 -0.0713905 1.33605e-19)
(0.252779 -0.0777315 5.22969e-20)
(0.292697 -0.0831607 1.08809e-19)
(0.333417 -0.087736 -2.75127e-20)
(0.374675 -0.0915076 1.59247e-19)
(0.416229 -0.0945017 7.7988e-21)
(0.457783 -0.0967312 1.06811e-19)
(0.499208 -0.0980626 3.54766e-20)
(0.539736 -0.0984806 -2.5288e-20)
(0.580498 -0.0968758 5.68349e-21)
(0.615696 -0.0944053 -4.07664e-20)
(0.660421 -0.0824365 -5.61845e-20)
(0.000218457 0.000385005 7.0167e-20)
(0.0108829 -0.00725613 1.89878e-19)
(0.0298874 -0.0168604 -2.22224e-19)
(0.0544358 -0.0279804 3.91276e-20)
(0.0836929 -0.0387141 1.90633e-19)
(0.116344 -0.0489295 1.92054e-19)
(0.151823 -0.0581487 9.91505e-20)
(0.189462 -0.0663693 -1.88262e-20)
(0.228848 -0.0735301 -1.68639e-19)
(0.269578 -0.0796851 -6.52463e-20)
(0.31133 -0.0848807 6.71024e-20)
(0.353804 -0.0891812 -9.37903e-20)
(0.396721 -0.0926427 -1.61054e-19)
(0.439825 -0.0952972 -1.32343e-20)
(0.482804 -0.0971682 -4.36689e-20)
(0.525521 -0.0981253 7.46194e-21)
(0.56718 -0.0981938 4.95792e-20)
(0.608955 -0.0961888 -8.04179e-20)
(0.64484 -0.0935407 -7.30973e-20)
(0.690481 -0.0806397 -2.63884e-20)
(0.00061339 -0.000150427 1.63668e-19)
(0.0125949 -0.00857573 -5.16604e-20)
(0.0333235 -0.0186502 4.10656e-21)
(0.0597601 -0.0300925 7.49745e-20)
(0.0910226 -0.0409862 4.68003e-20)
(0.125713 -0.051259 -2.79847e-20)
(0.163239 -0.0604391 -5.78095e-20)
(0.202901 -0.0685472 1.83063e-19)
(0.244267 -0.0755307 4.90248e-21)
(0.286915 -0.0814545 -1.02406e-19)
(0.330509 -0.0863722 -9.5264e-20)
(0.374734 -0.0903546 6.9916e-20)
(0.419293 -0.0934645 -1.7736e-20)
(0.463919 -0.09574 1.38836e-19)
(0.508283 -0.0972155 -1.64558e-20)
(0.552235 -0.0977646 -8.6358e-20)
(0.594959 -0.0974558 -4.84131e-20)
(0.637658 -0.0950303 2.0414e-20)
(0.674154 -0.0922102 1.47611e-20)
(0.720565 -0.0783831 -1.38674e-20)
(0.00106546 -0.000728066 -1.45906e-19)
(0.0144567 -0.00996958 2.60563e-20)
(0.0369885 -0.0205125 5.03888e-20)
(0.0653824 -0.0322574 -9.02871e-20)
(0.0987099 -0.0432789 -9.81473e-20)
(0.13549 -0.0535703 -1.04042e-19)
(0.175106 -0.0626681 -1.44165e-21)
(0.216823 -0.0706187 -4.31737e-20)
(0.260192 -0.0773792 -4.83924e-20)
(0.304772 -0.0830266 9.48901e-20)
(0.350209 -0.0876221 1.22997e-19)
(0.396172 -0.0912442 1.20272e-19)
(0.442351 -0.0939622 1.90412e-19)
(0.48846 -0.095821 -1.44808e-19)
(0.534158 -0.0968661 7.43323e-20)
(0.57928 -0.0969757 6.05582e-20)
(0.622992 -0.0962634 2.6886e-20)
(0.666517 -0.0933998 1.69007e-19)
(0.703545 -0.0904148 -2.4117e-20)
(0.750565 -0.0756764 8.36326e-20)
(0.00157804 -0.00134606 5.79973e-20)
(0.0164751 -0.011433 7.84278e-21)
(0.0408898 -0.0224405 4.1229e-20)
(0.0713091 -0.0344665 4.6183e-20)
(0.106759 -0.045582 1.62911e-20)
(0.145678 -0.0558517 4.32337e-20)
(0.187421 -0.0648231 -1.25704e-19)
(0.231222 -0.0725705 6.34839e-20)
(0.276611 -0.079062 2.85547e-20)
(0.323127 -0.0843878 -1.00606e-19)
(0.3704 -0.0886176 -6.66872e-21)
(0.418083 -0.091838 -6.34784e-20)
(0.465848 -0.0941257 -9.88254e-20)
(0.513395 -0.0955321 6.07913e-20)
(0.560367 -0.0961143 4.01599e-20)
(0.606584 -0.0957558 3.19594e-20)
(0.651201 -0.094616 1.02594e-20)
(0.695441 -0.0912995 -1.19085e-19)
(0.732918 -0.0881573 1.11007e-19)
(0.780374 -0.0725309 -5.23282e-20)
(0.00215441 -0.00200231 1.29247e-20)
(0.0186564 -0.0129609 -1.27498e-19)
(0.0450345 -0.0244265 -2.79282e-20)
(0.0775464 -0.0367101 -2.573e-20)
(0.115174 -0.0478842 -1.2018e-19)
(0.156275 -0.0580908 -6.59886e-21)
(0.20018 -0.0668908 1.70931e-19)
(0.246087 -0.0743887 2.0858e-20)
(0.293508 -0.080565 -1.42146e-20)
(0.341959 -0.0855244 1.26626e-19)
(0.391055 -0.0893458 -7.99825e-20)
(0.44043 -0.0921246 -1.06333e-19)
(0.489741 -0.0939453 9.27769e-21)
(0.538669 -0.0948664 -2.42833e-20)
(0.586846 -0.0949562 -1.72626e-19)
(0.634075 -0.0941041 -4.91222e-20)
(0.679505 -0.0925149 2.60637e-20)
(0.724341 -0.0887337 9.2592e-21)
(0.762182 -0.0854421 -7.40012e-20)
(0.80989 -0.0689596 4.20112e-20)
(0.00279777 -0.00269446 5.95488e-20)
(0.0210067 -0.0145474 2.1724e-19)
(0.0494291 -0.0264622 8.39782e-20)
(0.0840998 -0.0389778 2.43947e-20)
(0.123958 -0.0501735 -3.37831e-20)
(0.167283 -0.0602745 1.08469e-19)
(0.213379 -0.0688572 -1.25865e-19)
(0.26141 -0.0760589 -7.22287e-20)
(0.310867 -0.081874 8.75284e-21)
(0.361246 -0.0864226 -4.35408e-21)
(0.412143 -0.089794 1.63181e-20)
(0.463174 -0.0920931 -1.97046e-20)
(0.51398 -0.0934124 -5.00391e-20)
(0.564226 -0.0938183 9.40455e-20)
(0.613532 -0.0933895 1.77623e-19)
(0.66168 -0.0920221 6.74445e-20)
(0.707824 -0.0899639 -1.32337e-19)
(0.753131 -0.0857096 2.16772e-21)
(0.791251 -0.0822751 1.38366e-19)
(0.83901 -0.0649763 2.7486e-20)
(0.0035112 -0.00341991 -2.09783e-19)
(0.0235321 -0.0161861 -1.3645e-19)
(0.05408 -0.0285386 -8.45298e-21)
(0.0909743 -0.0412583 -3.25016e-20)
(0.133114 -0.0524372 1.11686e-20)
(0.1787 -0.0623887 -1.46628e-19)
(0.227011 -0.0707075 -1.93783e-19)
(0.277178 -0.0775662 -1.36738e-19)
(0.328671 -0.0829742 1.47334e-19)
(0.380962 -0.0870685 -1.41777e-19)
(0.433631 -0.0899497 5.10461e-20)
(0.486274 -0.0917329 1.2279e-19)
(0.538517 -0.0925194 4.88919e-20)
(0.590009 -0.0923834 -2.81664e-20)
(0.640357 -0.0914136 -1.38761e-19)
(0.689326 -0.0895136 1.02213e-19)
(0.736081 -0.0869695 2.34177e-19)
(0.781724 -0.0822374 -8.74279e-20)
(0.820043 -0.0786627 -1.46528e-19)
(0.867638 -0.0605959 -3.97094e-20)
(0.00429765 -0.00417586 2.2903e-19)
(0.026238 -0.0178702 3.84679e-20)
(0.0589928 -0.0306457 -4.44548e-20)
(0.0981743 -0.0435398 5.72891e-20)
(0.142642 -0.0546617 1.21081e-19)
(0.190523 -0.0644188 -6.54565e-21)
(0.241071 -0.0724267 4.16273e-19)
(0.29338 -0.0788952 1.08857e-19)
(0.3469 -0.0838507 -1.82449e-19)
(0.401082 -0.0874483 9.95449e-20)
(0.455485 -0.0898007 -1.73619e-20)
(0.509689 -0.0910343 -3.97078e-20)
(0.563302 -0.0912595 7.18527e-20)
(0.615959 -0.0905588 -4.16707e-20)
(0.667257 -0.0890301 1.91319e-20)
(0.716941 -0.0865849 2.11915e-20)
(0.764199 -0.0835411 -1.49852e-19)
(0.81004 -0.0783306 1.17106e-19)
(0.848484 -0.0746116 5.31666e-20)
(0.895678 -0.0558332 6.82635e-21)
(0.00515993 -0.00495926 -1.57268e-19)
(0.0291295 -0.0195923 -6.73537e-22)
(0.0641726 -0.0327733 3.90195e-21)
(0.105703 -0.0458095 -4.74572e-20)
(0.152544 -0.0568328 -8.09662e-20)
(0.202751 -0.0663495 1.17607e-19)
(0.255549 -0.0739988 -2.99461e-19)
(0.310001 -0.0800304 -6.33891e-20)
(0.365534 -0.0844887 2.02345e-19)
(0.421578 -0.0875484 1.86929e-19)
(0.477671 -0.0893354 -2.05664e-19)
(0.533375 -0.0899883 5.01579e-20)
(0.588284 -0.089627 -5.51175e-20)
(0.642017 -0.0883431 6.37141e-20)
(0.694165 -0.0862424 1.06772e-21)
(0.744453 -0.0832451 5.89299e-21)
(0.792103 -0.0796911 -5.02514e-20)
(0.838001 -0.0740067 -2.34429e-20)
(0.876506 -0.0701278 4.74172e-21)
(0.923038 -0.0507033 -3.40062e-20)
(0.00610071 -0.00576686 1.47678e-19)
(0.0322116 -0.0213446 -4.94817e-21)
(0.0696241 -0.0349104 7.17576e-20)
(0.113564 -0.0480541 2.28968e-20)
(0.16282 -0.0589355 -8.14213e-20)
(0.215377 -0.0681651 3.35097e-20)
(0.270436 -0.0754079 -7.75538e-20)
(0.327026 -0.0809559 2.40164e-20)
(0.384553 -0.0848731 -1.80219e-19)
(0.442421 -0.0873553 -2.39585e-19)
(0.500151 -0.0885427 8.35509e-20)
(0.557287 -0.0885866 -7.70097e-21)
(0.613409 -0.0876177 1.61881e-20)
(0.668122 -0.0857365 -3.47275e-20)
(0.721014 -0.083056 7.97387e-20)
(0.77179 -0.0795057 -2.03493e-19)
(0.81972 -0.0754354 1.46123e-19)
(0.865533 -0.0692877 -1.2446e-20)
(0.904055 -0.0652157 8.68406e-20)
(0.949628 -0.0452245 2.86601e-20)
(0.00712247 -0.0065952 -2.21006e-19)
(0.0354884 -0.0231188 -1.00323e-19)
(0.0753512 -0.0370452 -1.4864e-19)
(0.12176 -0.0502597 9.38128e-20)
(0.173469 -0.0609544 -2.32845e-20)
(0.228398 -0.0698492 2.12188e-20)
(0.285723 -0.0766375 1.61997e-19)
(0.344439 -0.0816557 3.59786e-20)
(0.403931 -0.0849892 1.23534e-20)
(0.46358 -0.0868561 3.51627e-20)
(0.522888 -0.087412 1.0266e-19)
(0.58138 -0.0868222 3.01952e-20)
(0.638624 -0.0852283 2.64953e-20)
(0.694214 -0.0827408 -2.56145e-20)
(0.747738 -0.0794784 -1.06024e-19)
(0.798882 -0.0753813 1.38554e-19)
(0.846978 -0.0707938 7.78741e-20)
(0.89257 -0.0642016 6.13894e-20)
(0.931086 -0.059879 -1.04359e-19)
(0.975365 -0.0394234 -3.74068e-20)
(0.00822751 -0.00744063 1.44712e-19)
(0.0389639 -0.0249061 1.75515e-19)
(0.081357 -0.0391657 5.54573e-21)
(0.13029 -0.0524117 1.34591e-20)
(0.184487 -0.0628735 2.25311e-19)
(0.241805 -0.0713852 -1.66886e-19)
(0.301396 -0.0776708 1.85145e-19)
(0.362222 -0.0821137 1.17859e-19)
(0.423645 -0.0848223 1.92354e-19)
(0.485024 -0.0860381 -4.96186e-20)
(0.545841 -0.0859335 -4.00217e-20)
(0.605606 -0.0846887 -3.61502e-21)
(0.663875 -0.0824569 3.21953e-20)
(0.720232 -0.0793591 -9.60195e-20)
(0.774269 -0.0755192 1.13646e-19)
(0.82566 -0.0708891 -7.51631e-20)
(0.873808 -0.0657903 2.65886e-20)
(0.919051 -0.0587839 -4.85589e-20)
(0.957567 -0.0541177 -1.02332e-19)
(1.00016 -0.0333149 3.69747e-20)
(0.00941808 -0.00829949 -7.28041e-20)
(0.0426416 -0.0266976 -1.00105e-19)
(0.0876443 -0.0412594 1.99119e-19)
(0.139156 -0.0544953 -1.05063e-19)
(0.195873 -0.0646766 -1.04411e-19)
(0.255593 -0.0727561 3.21475e-20)
(0.317443 -0.0784912 -1.04259e-19)
(0.380355 -0.0823143 -2.31597e-19)
(0.443668 -0.0843581 -1.49847e-19)
(0.506718 -0.0848896 1.4468e-21)
(0.56897 -0.0840985 -3.36889e-20)
(0.629918 -0.0821811 -1.37351e-19)
(0.689107 -0.079303 -1.43402e-19)
(0.746116 -0.0755965 1.72708e-19)
(0.800543 -0.0711898 -1.20598e-19)
(0.852055 -0.0660486 3.54414e-20)
(0.900144 -0.0604542 2.81279e-20)
(0.944924 -0.0530797 -1.06394e-19)
(0.983471 -0.0479114 4.74248e-20)
(1.02387 -0.0268372 4.13453e-20)
(0.0106964 -0.00916817 -8.57423e-20)
(0.0465247 -0.0284842 -7.37255e-20)
(0.094215 -0.0433136 -1.4141e-19)
(0.148356 -0.0564954 3.36178e-20)
(0.207621 -0.0663473 2.33484e-20)
(0.269751 -0.0739451 3.11251e-21)
(0.33385 -0.079082 1.55791e-19)
(0.398818 -0.0822417 4.21245e-20)
(0.463973 -0.083583 -6.68181e-20)
(0.528629 -0.0833993 8.43337e-20)
(0.592233 -0.0818991 -4.03238e-20)
(0.654266 -0.0792955 1.01681e-20)
(0.714264 -0.0757674 3.80574e-20)
(0.771803 -0.0714592 -8.94585e-20)
(0.826493 -0.0665034 7.28373e-20)
(0.878001 -0.0608818 -1.57686e-20)
(0.925918 -0.0548218 1.14456e-19)
(0.970154 -0.0471459 -2.33012e-20)
(1.00881 -0.0412175 1.56503e-19)
(1.04633 -0.0199646 -2.88211e-20)
(0.0120634 -0.0100418 1.8995e-19)
(0.0506146 -0.0302553 -5.03745e-20)
(0.101069 -0.0453142 1.61047e-19)
(0.15789 -0.0583954 1.34439e-19)
(0.219726 -0.0678677 3.21624e-20)
(0.284269 -0.0749341 1.27446e-20)
(0.350599 -0.0794258 -3.51659e-19)
(0.417587 -0.0818801 -8.28297e-20)
(0.484529 -0.0824833 -1.23051e-21)
(0.550719 -0.0815565 -1.69793e-19)
(0.615587 -0.0793282 1.05347e-19)
(0.678601 -0.0760292 5.5637e-20)
(0.739292 -0.0718523 8.76825e-20)
(0.797234 -0.0669548 2.8344e-21)
(0.852055 -0.0614744 -5.0814e-20)
(0.903431 -0.0554122 1.23798e-19)
(0.951062 -0.0489367 -2.82004e-19)
(0.994715 -0.0410538 -7.12624e-20)
(1.03369 -0.0340929 -1.51752e-19)
(1.06794 -0.0134765 7.25832e-22)
(0.0135157 -0.0109114 -1.84213e-19)
(0.054908 -0.0319958 3.80969e-20)
(0.108202 -0.0472423 -1.55726e-19)
(0.167748 -0.0601746 -1.30819e-19)
(0.232177 -0.0692166 -2.22406e-20)
(0.299131 -0.0757023 -2.10773e-20)
(0.36767 -0.0795032 3.53147e-19)
(0.436637 -0.0812122 7.40289e-20)
(0.505306 -0.0810445 1.8934e-19)
(0.572951 -0.0793504 1.80383e-19)
(0.638988 -0.0763792 -1.2292e-19)
(0.702873 -0.0723801 -4.25801e-20)
(0.764134 -0.0675606 -1.07544e-19)
(0.82235 -0.0620921 1.75583e-20)
(0.877166 -0.0561179 4.64187e-20)
(0.928276 -0.0496636 -9.14717e-20)
(0.975499 -0.0428439 1.15295e-19)
(1.01853 -0.0348899 5.45557e-20)
(1.05812 -0.0269376 1.41784e-19)
(1.0911 -0.00933096 2.77108e-21)
(0.0150535 -0.0117719 8.30893e-20)
(0.0594044 -0.0336946 -1.03154e-19)
(0.115612 -0.0490834 1.494e-19)
(0.177927 -0.0618164 -5.46298e-20)
(0.244963 -0.0703765 -5.45397e-21)
(0.314322 -0.0762323 6.74366e-21)
(0.385042 -0.0792979 -1.76558e-19)
(0.455939 -0.0802235 1.77226e-19)
(0.526268 -0.079255 -1.27434e-19)
(0.595284 -0.0767727 7.84771e-20)
(0.662389 -0.0730477 3.77435e-20)
(0.72703 -0.0683485 -6.60811e-21)
(0.788736 -0.0628977 -3.68194e-20)
(0.847091 -0.0568811 -1.4148e-20)
(0.901764 -0.0504495 -8.05632e-20)
(0.952472 -0.0436574 3.23958e-20)
(0.999143 -0.0365783 -1.13328e-19)
(1.04143 -0.0287354 -1.22499e-19)
(1.08118 -0.0204503 1.46578e-19)