/*--------------------------------*- C++ -*----------------------------------*\
  =========                 |
  \\      /  F ield         | OpenFOAM: The Open Source CFD Toolbox
   \\    /   O peration     | Website:  https://openfoam.org
    \\  /    A nd           | Version:  7
     \\/     M anipulation  |
\*---------------------------------------------------------------------------*/
FoamFile
{
    version     2.0;
    format      ascii;
    class       volVectorField;
    location    "35";
    object      U;
}
// * * * * * * * * * * * * * * * * * * * * * * * * * * * * * * * * * * * * * //

dimensions      [0 1 -1 0 0 0 0];

internalField   nonuniform List<vector> 
2625
(
(0.0854644 -0.00739743 -9.61137e-21)
(0.101491 -0.00796748 -1.0497e-20)
(0.11825 -0.00848602 2.09426e-21)
(0.135623 -0.00893776 -4.29532e-21)
(0.153406 -0.00929122 3.40909e-21)
(0.171492 -0.00951604 -5.02023e-21)
(0.189285 -0.0095064 2.12396e-21)
(0.207034 -0.00935525 3.49174e-21)
(0.087552 -0.0123095 1.05598e-20)
(0.103794 -0.0132547 1.19449e-20)
(0.120768 -0.014114 3.43992e-21)
(0.138357 -0.0148622 9.06266e-21)
(0.156352 -0.0154469 -1.2734e-20)
(0.174658 -0.015817 -8.77336e-21)
(0.192633 -0.0157982 1.13062e-20)
(0.210671 -0.0155372 2.26062e-21)
(0.0906795 -0.0171923 -4.78428e-21)
(0.107242 -0.0185052 -2.25717e-20)
(0.124538 -0.0196981 -1.64366e-20)
(0.14245 -0.0207354 8.12394e-21)
(0.160763 -0.0215448 5.48956e-21)
(0.179397 -0.0220536 5.85859e-21)
(0.197641 -0.0220214 -1.67579e-20)
(0.21611 -0.0216371 -8.97125e-21)
(0.0948424 -0.022034 1.08095e-20)
(0.111832 -0.0237045 3.21059e-20)
(0.129553 -0.0252206 2.24054e-20)
(0.147893 -0.0265371 -1.57606e-20)
(0.166626 -0.027562 -8.3819e-21)
(0.185694 -0.0282 2.21817e-20)
(0.204295 -0.028149 6.96937e-21)
(0.223333 -0.0276225 -2.63878e-21)
(0.100035 -0.0268228 -1.08231e-20)
(0.117553 -0.0288378 -2.06757e-21)
(0.135804 -0.0306641 -1.24257e-20)
(0.154674 -0.0322471 -5.1061e-21)
(0.173927 -0.0334757 1.4584e-20)
(0.193533 -0.034231 -1.42573e-20)
(0.212574 -0.034154 1.5939e-20)
(0.232315 -0.0334614 1.51225e-20)
(0.106248 -0.031547 1.07278e-20)
(0.124397 -0.0338904 6.88377e-21)
(0.143277 -0.0360111 -1.63931e-20)
(0.162777 -0.037845 1.6818e-20)
(0.182647 -0.0392633 -1.48233e-20)
(0.202891 -0.0401214 1.04778e-20)
(0.222453 -0.04001 -7.35792e-21)
(0.243024 -0.0391225 -1.88643e-20)
(0.113474 -0.0361944 2.1416e-21)
(0.132351 -0.0388478 -4.85066e-21)
(0.151958 -0.0412442 2.15357e-20)
(0.172184 -0.0433109 -1.42858e-23)
(0.192765 -0.0449024 2.77349e-21)
(0.213743 -0.0458463 -3.98153e-21)
(0.2339 -0.0456911 -2.28912e-20)
(0.255424 -0.0445751 1.37169e-20)
(0.121702 -0.0407532 -2.08887e-21)
(0.141402 -0.0436951 3.86203e-20)
(0.161829 -0.0463461 -3.95404e-21)
(0.182874 -0.0486249 -2.20405e-20)
(0.204254 -0.0503707 -4.38728e-21)
(0.226056 -0.0513814 -9.79971e-21)
(0.246881 -0.0511719 -2.02457e-21)
(0.269469 -0.0497894 -9.96052e-21)
(0.130919 -0.0452113 -5.38608e-20)
(0.151534 -0.0484177 -1.60965e-20)
(0.17287 -0.0512995 -1.82425e-21)
(0.194821 -0.0537671 6.30664e-21)
(0.217085 -0.0556463 2.38311e-20)
(0.239796 -0.0567026 -1.4905e-20)
(0.261353 -0.0564274 3.51804e-20)
(0.285111 -0.0547365 2.55933e-20)
(0.162728 -0.0530009 -2.07632e-20)
(0.185059 -0.0560873 -3.58432e-21)
(0.207999 -0.0587182 2.82723e-20)
(0.231225 -0.0607078 8.90405e-21)
(0.254923 -0.0617864 1.94495e-20)
(0.277273 -0.0614337 -2.91062e-20)
(0.302293 -0.059389 -1.52736e-20)
(0.174965 -0.0574301 -3.09635e-20)
(0.198371 -0.0606924 -2.26842e-20)
(0.222377 -0.0634589 -2.74659e-20)
(0.246636 -0.065534 -5.43961e-20)
(0.271393 -0.0666098 1.37551e-20)
(0.294588 -0.0661674 -4.61396e-20)
(0.320953 -0.0637205 3.68339e-20)
(0.188222 -0.0616904 -1.96862e-21)
(0.212777 -0.0650981 4.97638e-20)
(0.23792 -0.0679701 2.84718e-20)
(0.263278 -0.0701043 9.96658e-20)
(0.289158 -0.0711507 -5.24053e-20)
(0.313243 -0.0706062 3.4678e-20)
(0.341024 -0.0677065 -5.88708e-20)
(0.202476 -0.0657674 4.75499e-20)
(0.228248 -0.0692876 -6.4416e-20)
(0.254593 -0.0722335 3.24227e-20)
(0.281108 -0.0743984 -6.08671e-20)
(0.308166 -0.0753875 1.62709e-20)
(0.333178 -0.0747285 -2.68959e-20)
(0.36243 -0.0713239 1.87464e-20)
(0.217701 -0.0696464 -3.62096e-20)
(0.244752 -0.0732445 7.24024e-20)
(0.272354 -0.0762307 -5.82545e-20)
(0.300076 -0.0783969 -3.80507e-20)
(0.328359 -0.0792995 1.10442e-20)
(0.354329 -0.0785141 3.41554e-20)
(0.385094 -0.0745515 5.08455e-20)
(0.233867 -0.0733129 2.60622e-20)
(0.262253 -0.0769527 -5.61432e-21)
(0.291162 -0.0799441 5.76431e-20)
(0.320132 -0.0820809 3.12738e-20)
(0.349676 -0.082867 6.04491e-21)
(0.376625 -0.0819438 -1.91439e-20)
(0.408931 -0.0773703 -7.85638e-21)
(0.250946 -0.0767526 -2.71726e-20)
(0.280714 -0.0803963 -1.31388e-19)
(0.310971 -0.0833564 7.36426e-21)
(0.341222 -0.0854321 -4.69806e-21)
(0.372054 -0.0860711 -3.94844e-20)
(0.399993 -0.0849995 2.48857e-20)
(0.433852 -0.0797632 -2.45802e-20)
(0.268905 -0.0799513 -2.00845e-20)
(0.300094 -0.0835599 3.63114e-20)
(0.331731 -0.0864511 -7.68691e-20)
(0.363287 -0.0884334 7.17586e-21)
(0.395423 -0.0888944 3.38888e-20)
(0.424355 -0.0876647 -9.34698e-22)
(0.459761 -0.0817155 -2.59914e-20)
(0.287709 -0.0828948 1.16773e-19)
(0.320351 -0.0864284 8.61574e-20)
(0.353392 -0.0892124 9.26237e-20)
(0.386267 -0.0910682 -8.04513e-21)
(0.419711 -0.0913203 4.93388e-21)
(0.44963 -0.0899242 -2.78212e-20)
(0.486562 -0.083215 2.51707e-20)
(0.307322 -0.0855695 -1.02848e-19)
(0.341441 -0.0889872 -3.54579e-20)
(0.375899 -0.091625 -1.41189e-19)
(0.410096 -0.0933213 -1.20764e-20)
(0.444843 -0.0933337 4.51231e-20)
(0.475732 -0.0917643 6.96088e-21)
(0.514153 -0.0842519 -7.71031e-21)
(0.363316 -0.0912225 -3.05509e-20)
(0.399196 -0.0936749 1.85535e-20)
(0.434709 -0.0951783 4.49348e-20)
(0.47074 -0.0949211 -3.98802e-20)
(0.502575 -0.0931729 -3.03052e-20)
(0.542428 -0.0848189 -5.78574e-20)
(0.385927 -0.0931209 -5.47491e-20)
(0.423222 -0.0953486 1.55391e-20)
(0.460036 -0.0966264 -2.50599e-20)
(0.49732 -0.0960703 -4.8381e-20)
(0.530066 -0.0941398 1.58618e-20)
(0.571281 -0.0849115 5.50776e-20)
(0.409222 -0.09467 1.06337e-19)
(0.447917 -0.0966341 2.22654e-20)
(0.486004 -0.0976538 4.12934e-22)
(0.5245 -0.0967709 5.68248e-20)
(0.558113 -0.0946562 5.36102e-20)
(0.600601 -0.0845275 1.05449e-21)
(0.433147 -0.095858 -8.91039e-20)
(0.473217 -0.0975205 7.30185e-21)
(0.51254 -0.0982504 3.91088e-20)
(0.552193 -0.0970142 -1.61107e-20)
(0.586621 -0.0947155 1.5e-20)
(0.630278 -0.0836676 5.08553e-20)
(0.457647 -0.0966744 1.02176e-19)
(0.499055 -0.0979981 3.38639e-20)
(0.539567 -0.0984076 -2.40565e-20)
(0.580312 -0.0967935 5.38334e-21)
(0.615493 -0.0943129 -3.8636e-20)
(0.660202 -0.0823348 -5.25195e-20)
(0.482664 -0.0971096 -4.17545e-20)
(0.525364 -0.0980588 7.14479e-21)
(0.567008 -0.0981186 4.71917e-20)
(0.608766 -0.096104 -7.62206e-20)
(0.644635 -0.0934455 -6.93263e-20)
(0.690261 -0.0805347 -2.4554e-20)
(0.552075 -0.0976961 -8.24107e-20)
(0.594783 -0.0973784 -4.60806e-20)
(0.637467 -0.0949431 1.93481e-20)
(0.673948 -0.0921123 1.40324e-20)
(0.720345 -0.0782748 -1.29631e-20)
(0.579117 -0.0969053 5.77877e-20)
(0.622815 -0.096184 2.55915e-20)
(0.666324 -0.0933104 1.60194e-19)
(0.703338 -0.0903144 -2.28507e-20)
(0.750346 -0.0755649 7.80725e-20)
(0.606419 -0.0956836 3.05004e-20)
(0.651021 -0.0945345 9.73018e-21)
(0.695247 -0.0912078 -1.12899e-19)
(0.73271 -0.0880545 1.05199e-19)
(0.780157 -0.0724163 -4.86325e-20)
(0.633908 -0.0940301 -4.6871e-20)
(0.679324 -0.0924315 2.48094e-20)
(0.724148 -0.0886399 8.77888e-21)
(0.761976 -0.0853371 -7.01287e-20)
(0.809675 -0.068842 3.92047e-20)
(0.661512 -0.0919464 6.43804e-20)
(0.707643 -0.0898787 -1.25983e-19)
(0.752938 -0.0856138 2.04178e-21)
(0.791046 -0.0821679 1.31205e-19)
(0.838798 -0.0648559 2.58388e-20)
(0.7359 -0.0868826 2.22914e-19)
(0.781532 -0.0821397 -8.28716e-20)
(0.819841 -0.0785536 -1.38889e-19)
(0.86743 -0.0604728 -3.70212e-20)
(0.764019 -0.0834526 -1.42659e-19)
(0.80985 -0.0782311 1.10998e-19)
(0.848285 -0.0745007 5.03709e-20)
(0.895475 -0.0557076 6.1609e-21)
(0.791924 -0.079601 -4.78607e-20)
(0.837813 -0.0739055 -2.22293e-20)
(0.876311 -0.0700151 4.43819e-21)
(0.922841 -0.0505753 -3.17092e-20)
(0.819542 -0.0753438 1.39125e-19)
(0.865349 -0.0691849 -1.17913e-20)
(0.903864 -0.0651013 8.23165e-20)
(0.949437 -0.0450942 2.64887e-20)
(0.892389 -0.0640973 5.8226e-20)
(0.9309 -0.0597632 -9.88222e-20)
(0.97518 -0.0392911 -3.46811e-20)
(0.918875 -0.0586782 -4.6008e-20)
(0.957387 -0.0540004 -9.68338e-20)
(0.999982 -0.0331807 3.43767e-20)
(0.944752 -0.0529726 -1.00908e-19)
(0.983297 -0.0477928 4.49664e-20)
(1.0237 -0.0267013 3.83736e-20)
(1.00864 -0.0410977 1.48076e-19)
(1.04617 -0.0198271 -2.67477e-20)
(1.03353 -0.0339718 -1.43626e-19)
(1.06778 -0.0133379 8.15661e-22)
(1.05796 -0.0268154 1.34136e-19)
(1.09095 -0.00919263 2.73336e-21)
(1.11293 -0.00809816 3.15756e-20)
(1.13309 -0.00619806 -5.11195e-20)
(0.31908 -0.00205543 1.16423e-22)
(0.326175 -0.00202971 -1.68296e-22)
(0.333285 -0.00200472 -2.69523e-23)
(0.340412 -0.00198021 1.4268e-22)
(0.347555 -0.00195597 -1.17437e-22)
(0.354715 -0.00193183 4.79171e-23)
(0.36189 -0.00190763 7.47487e-23)
(0.369079 -0.00188328 -6.69245e-23)
(0.37628 -0.00185868 4.12094e-23)
(0.383491 -0.00183378 -2.57764e-23)
(0.390709 -0.00180852 -5.88945e-23)
(0.397931 -0.00178289 6.49271e-23)
(0.405156 -0.00175686 3.02648e-24)
(0.412378 -0.00173045 -4.86144e-23)
(0.419596 -0.00170366 2.64338e-23)
(0.426806 -0.0016765 1.10609e-22)
(0.434004 -0.00164901 -7.82832e-23)
(0.441188 -0.00162121 4.73864e-23)
(0.448354 -0.00159313 -9.11375e-23)
(0.455499 -0.00156481 1.26222e-22)
(0.46262 -0.0015363 -2.81888e-23)
(0.469714 -0.00150763 3.37801e-23)
(0.476777 -0.00147883 8.27919e-25)
(0.483808 -0.00144996 -6.58274e-23)
(0.490802 -0.00142105 -1.45396e-23)
(0.497758 -0.00139214 1.12148e-23)
(0.504673 -0.00136326 -3.04145e-23)
(0.511545 -0.00133446 1.30012e-23)
(0.51837 -0.00130577 3.03911e-23)
(0.525148 -0.00127723 -8.00461e-23)
(0.531876 -0.00124885 1.57002e-23)
(0.219087 -0.00861319 3.95982e-22)
(0.226956 -0.00821275 -1.39899e-21)
(0.234616 -0.00789092 1.68485e-21)
(0.24212 -0.00761752 -1.25529e-21)
(0.249487 -0.00738548 -5.8682e-22)
(0.256749 -0.00718734 6.92752e-22)
(0.263934 -0.00701621 -7.7822e-22)
(0.271062 -0.00686688 7.91104e-22)
(0.27815 -0.00673515 3.64437e-22)
(0.285211 -0.00661759 5.3773e-22)
(0.292257 -0.00651141 -4.35052e-22)
(0.299297 -0.00641431 -6.87631e-22)
(0.306339 -0.00632437 7.13264e-22)
(0.313386 -0.00624 -8.78345e-22)
(0.320445 -0.00615987 2.40219e-22)
(0.327517 -0.00608288 2.60895e-22)
(0.334605 -0.0060081 -2.20634e-22)
(0.341709 -0.00593474 -2.44857e-22)
(0.348831 -0.00586218 3.00344e-22)
(0.355969 -0.00578988 3.26241e-22)
(0.363123 -0.00571743 -5.64906e-22)
(0.370291 -0.0056445 2.29495e-22)
(0.377471 -0.00557082 -1.29115e-22)
(0.384661 -0.00549622 -1.96438e-22)
(0.391859 -0.00542056 2.38412e-22)
(0.399061 -0.00534377 2.12316e-22)
(0.406265 -0.00526581 -1.00131e-22)
(0.413467 -0.00518667 -1.04506e-22)
(0.420665 -0.00510639 3.2717e-22)
(0.427855 -0.00502503 -1.47028e-22)
(0.435034 -0.00494264 1.9391e-22)
(0.442198 -0.00485934 -6.00261e-22)
(0.449344 -0.00477521 2.35475e-22)
(0.45647 -0.00469036 -2.2836e-22)
(0.463572 -0.00460492 2.74468e-22)
(0.470646 -0.004519 -6.96647e-23)
(0.477691 -0.00443272 2.83766e-22)
(0.484703 -0.00434619 -1.12766e-22)
(0.491679 -0.00425956 9.01019e-23)
(0.498616 -0.00417291 -1.92712e-22)
(0.505513 -0.00408639 3.60694e-23)
(0.512367 -0.00400008 -1.66224e-22)
(0.519175 -0.0039141 -2.03375e-23)
(0.525935 -0.00382855 2.91836e-22)
(0.532645 -0.00374353 -1.74926e-22)
(0.222701 -0.0143048 1.76116e-21)
(0.230457 -0.0136438 -9.99852e-22)
(0.238027 -0.0131119 2.33851e-21)
(0.245455 -0.0126594 -1.77159e-21)
(0.252751 -0.0122753 -6.63368e-23)
(0.259947 -0.0119472 -1.67612e-22)
(0.26707 -0.0116638 -1.77007e-21)
(0.274139 -0.0114165 2.70502e-22)
(0.281171 -0.0111982 2.03857e-21)
(0.288179 -0.0110035 -1.14949e-21)
(0.295174 -0.0108275 1.70876e-23)
(0.302164 -0.0106666 7.51699e-22)
(0.309157 -0.0105176 8.85913e-22)
(0.316157 -0.0103777 -1.06667e-21)
(0.323169 -0.0102449 6.69181e-22)
(0.330196 -0.0101172 6.1299e-22)
(0.33724 -0.00999314 -5.09978e-22)
(0.3443 -0.00987143 -2.82487e-22)
(0.351379 -0.009751 -3.18585e-22)
(0.358474 -0.00963098 7.59136e-23)
(0.365586 -0.00951068 -8.262e-22)
(0.372712 -0.00938955 1.56396e-21)
(0.37985 -0.00926717 -2.29719e-22)
(0.386999 -0.00914322 -7.83199e-22)
(0.394156 -0.0090175 4.31805e-22)
(0.401317 -0.00888987 -9.67475e-22)
(0.40848 -0.00876029 8.28339e-22)
(0.415642 -0.00862875 2.52696e-22)
(0.4228 -0.0084953 -2.26202e-22)
(0.42995 -0.00836003 -2.5935e-23)
(0.437089 -0.00822307 -2.51641e-22)
(0.444214 -0.00808456 3.6117e-22)
(0.451321 -0.00794468 -3.24117e-23)
(0.458408 -0.00780361 2.63236e-22)
(0.465471 -0.00766153 -1.81687e-22)
(0.472508 -0.00751866 -3.36429e-22)
(0.479515 -0.00737518 2.59327e-22)
(0.486489 -0.0072313 -3.46095e-22)
(0.493428 -0.00708723 6.6569e-23)
(0.500329 -0.00694314 1.75831e-22)
(0.50719 -0.00679925 -6.09773e-23)
(0.514008 -0.00665572 -2.69044e-22)
(0.520781 -0.00651273 2.99521e-22)
(0.527506 -0.00637045 -1.32354e-22)
(0.534182 -0.00622905 -1.27675e-22)
(0.228107 -0.0199209 6.2285e-22)
(0.235693 -0.0190089 -9.222e-22)
(0.243128 -0.0182734 -2.24002e-21)
(0.250443 -0.0176467 -6.94617e-22)
(0.257632 -0.0171145 3.1274e-21)
(0.26473 -0.0166597 -2.54518e-21)
(0.27176 -0.0162667 2.07917e-21)
(0.278742 -0.0159236 2.61828e-22)
(0.28569 -0.0156208 -2.14398e-22)
(0.292618 -0.0153506 1.26901e-22)
(0.299536 -0.0151065 -2.01997e-21)
(0.306451 -0.0148831 1.78303e-21)
(0.313372 -0.0146762 -3.82082e-22)
(0.320301 -0.014482 1.11952e-21)
(0.327245 -0.0142975 -9.03925e-22)
(0.334204 -0.0141201 -2.30488e-22)
(0.341181 -0.0139477 3.90262e-22)
(0.348176 -0.0137784 2.69081e-22)
(0.35519 -0.0136109 -1.61787e-21)
(0.362221 -0.0134439 5.82112e-22)
(0.369269 -0.0132764 8.52317e-22)
(0.376333 -0.0131077 -2.72097e-22)
(0.383409 -0.0129372 -7.84302e-23)
(0.390496 -0.0127645 -2.17668e-22)
(0.397591 -0.0125893 4.67596e-22)
(0.404691 -0.0124114 -4.1129e-22)
(0.411793 -0.0122307 3.42284e-22)
(0.418895 -0.0120473 -9.19849e-23)
(0.425993 -0.0118612 -4.06901e-23)
(0.433083 -0.0116725 2.16018e-23)
(0.440163 -0.0114815 3.2895e-22)
(0.447229 -0.0112883 -2.45448e-22)
(0.454278 -0.0110932 -6.81379e-22)
(0.461307 -0.0108964 8.83674e-22)
(0.468313 -0.0106982 -8.00392e-22)
(0.475293 -0.0104988 7.36288e-22)
(0.482243 -0.0102987 -4.70731e-22)
(0.489161 -0.0100979 7.76228e-22)
(0.496045 -0.00989688 -6.57058e-22)
(0.502892 -0.00969584 3.02244e-22)
(0.509699 -0.00949505 2.80026e-22)
(0.516463 -0.00929476 -2.73915e-22)
(0.523183 -0.00909523 1.98562e-22)
(0.529857 -0.00889669 -1.14841e-22)
(0.536482 -0.00869935 3.73059e-22)
(0.235284 -0.0254315 1.57589e-21)
(0.242646 -0.0242817 -5.34793e-21)
(0.249902 -0.0233518 2.11581e-21)
(0.257067 -0.0225576 5.55379e-22)
(0.264116 -0.0218828 -2.49695e-21)
(0.271082 -0.0213058 1.02527e-21)
(0.277989 -0.020807 4.17691e-22)
(0.284854 -0.0203714 -1.34608e-22)
(0.291692 -0.0199869 1.1946e-21)
(0.298513 -0.0196436 1.10367e-21)
(0.305329 -0.0193335 8.1747e-22)
(0.312145 -0.0190497 -2.80215e-21)
(0.318969 -0.0187866 -2.99162e-22)
(0.325805 -0.0185397 -1.42269e-21)
(0.332657 -0.018305 1.85521e-21)
(0.339526 -0.0180792 -8.38953e-23)
(0.346415 -0.0178597 1.39785e-21)
(0.353323 -0.017644 -1.31456e-21)
(0.360251 -0.0174305 -6.8944e-22)
(0.367197 -0.0172174 5.15451e-22)
(0.374161 -0.0170037 -5.87697e-22)
(0.381141 -0.0167884 5.53993e-22)
(0.388135 -0.0165706 1.74085e-22)
(0.395139 -0.01635 -2.58864e-22)
(0.402153 -0.016126 2.22835e-22)
(0.409172 -0.0158986 3.42656e-22)
(0.416194 -0.0156676 1.27247e-22)
(0.423215 -0.015433 2.39368e-22)
(0.430233 -0.015195 -6.84066e-22)
(0.437244 -0.0149537 -7.21389e-23)
(0.444245 -0.0147093 -3.34687e-22)
(0.451233 -0.0144621 2.9246e-22)
(0.458205 -0.0142124 7.91369e-22)
(0.465157 -0.0139606 -1.1728e-21)
(0.472087 -0.0137069 7.03704e-22)
(0.478991 -0.0134518 -2.3763e-23)
(0.485866 -0.0131957 -8.37975e-23)
(0.492711 -0.0129387 2.05295e-24)
(0.499521 -0.0126814 3.53772e-22)
(0.506295 -0.0124241 -5.50529e-22)
(0.51303 -0.0121671 4.64466e-22)
(0.519724 -0.0119107 -1.98916e-22)
(0.526374 -0.0116553 6.71974e-23)
(0.532979 -0.0114011 -1.14653e-22)
(0.539536 -0.0111484 2.33476e-22)
(0.244208 -0.0308072 -1.46841e-21)
(0.251292 -0.0294365 8.69617e-22)
(0.258326 -0.0283238 -2.66809e-21)
(0.265305 -0.0273706 4.6172e-22)
(0.272178 -0.0265603 3.18946e-21)
(0.278981 -0.025867 -3.20194e-21)
(0.285735 -0.0252672 -4.06078e-22)
(0.292456 -0.0247432 2.19487e-21)
(0.299155 -0.0242806 7.91711e-23)
(0.305845 -0.0238674 -8.84454e-22)
(0.312533 -0.023494 4.41889e-21)
(0.319226 -0.0231523 -4.39051e-21)
(0.32593 -0.0228354 2.72587e-21)
(0.33265 -0.0225378 -2.3464e-21)
(0.339388 -0.0222548 3.95954e-22)
(0.346145 -0.0219824 -9.42327e-22)
(0.352924 -0.0217173 2.95474e-21)
(0.359724 -0.0214567 4.86115e-22)
(0.366545 -0.0211985 -2.19436e-21)
(0.373386 -0.0209407 7.94816e-22)
(0.380245 -0.0206819 -2.86995e-22)
(0.387121 -0.020421 -2.26812e-21)
(0.394012 -0.0201571 2.82996e-21)
(0.400914 -0.0198896 -2.09823e-21)
(0.407826 -0.0196179 6.11855e-22)
(0.414744 -0.019342 9.26608e-23)
(0.421666 -0.0190616 -4.06032e-22)
(0.428587 -0.0187768 1.76429e-22)
(0.435506 -0.0184878 1.65789e-22)
(0.442419 -0.0181947 1.25491e-22)
(0.449322 -0.0178979 1.38603e-21)
(0.456213 -0.0175976 -8.11844e-22)
(0.463088 -0.0172943 -4.31867e-22)
(0.469945 -0.0169883 6.39699e-22)
(0.47678 -0.0166801 -6.02903e-22)
(0.48359 -0.0163701 -6.69625e-22)
(0.490372 -0.0160588 1.23866e-21)
(0.497125 -0.0157466 -1.23427e-21)
(0.503844 -0.0154339 2.28095e-22)
(0.510528 -0.0151211 4.04736e-22)
(0.517174 -0.0148087 2.37424e-22)
(0.52378 -0.014497 -3.65656e-22)
(0.530343 -0.0141866 1.07979e-22)
(0.536862 -0.0138776 -1.26615e-22)
(0.543334 -0.0135704 -1.12865e-22)
(0.254845 -0.0360192 4.01035e-22)
(0.2616 -0.0344476 2.21883e-21)
(0.268372 -0.0331663 -2.5298e-21)
(0.275128 -0.0320645 2.90699e-21)
(0.281793 -0.0311272 -1.26527e-21)
(0.288401 -0.0303247 -2.9965e-22)
(0.294972 -0.0296299 -1.55076e-21)
(0.30152 -0.0290226 -1.16723e-21)
(0.308055 -0.0284863 -6.05029e-22)
(0.314587 -0.0280071 -4.06873e-22)
(0.321123 -0.0275739 1.74799e-21)
(0.32767 -0.0271773 -1.33761e-21)
(0.334232 -0.0268094 3.64142e-21)
(0.340812 -0.0264636 -3.57008e-22)
(0.347414 -0.0261345 -1.84545e-21)
(0.354038 -0.0258176 -1.58505e-21)
(0.360686 -0.0255088 2.16936e-21)
(0.367357 -0.0252051 -2.28831e-21)
(0.37405 -0.0249038 3.19096e-22)
(0.380765 -0.0246029 3.61705e-22)
(0.3875 -0.0243005 9.03133e-22)
(0.394252 -0.0239955 -5.97025e-22)
(0.40102 -0.0236867 -6.0974e-22)
(0.407801 -0.0233735 1.2717e-21)
(0.414591 -0.0230554 -2.21739e-22)
(0.421389 -0.0227321 7.079e-22)
(0.428191 -0.0224035 -8.48508e-22)
(0.434994 -0.0220697 1.67569e-21)
(0.441794 -0.0217308 2.35381e-22)
(0.44859 -0.0213871 -2.52179e-21)
(0.455376 -0.0210389 8.06359e-22)
(0.462151 -0.0206867 2.52715e-22)
(0.468912 -0.0203308 -4.84638e-22)
(0.475654 -0.0199718 2.88392e-22)
(0.482376 -0.0196101 -8.80452e-22)
(0.489074 -0.0192463 4.32752e-22)
(0.495746 -0.0188809 6.71019e-22)
(0.502389 -0.0185144 -9.71722e-22)
(0.508999 -0.0181473 9.42488e-22)
(0.515576 -0.0177802 -6.36474e-22)
(0.522116 -0.0174134 1.84134e-22)
(0.528617 -0.0170476 7.40327e-22)
(0.535077 -0.016683 -8.94296e-23)
(0.541494 -0.0163202 -3.82774e-22)
(0.547865 -0.0159595 -5.54559e-22)
(0.267159 -0.0410391 -1.46093e-21)
(0.273536 -0.0392899 1.17246e-21)
(0.280004 -0.0378564 2.04694e-21)
(0.286503 -0.0366182 1.01835e-21)
(0.292926 -0.0355641 -4.1315e-21)
(0.299308 -0.0346608 7.99517e-22)
(0.305669 -0.0338781 -4.2808e-22)
(0.312017 -0.0331935 1.56933e-21)
(0.318361 -0.0325886 -1.5117e-21)
(0.32471 -0.032048 5.16367e-21)
(0.331071 -0.0315591 -4.25901e-21)
(0.337447 -0.0311112 2.29619e-21)
(0.343844 -0.0306955 4.58269e-22)
(0.350264 -0.0303045 4.02394e-22)
(0.356709 -0.0299321 -2.32157e-21)
(0.363179 -0.029573 2.03788e-21)
(0.369675 -0.0292229 -6.79909e-22)
(0.376196 -0.0288781 -7.94915e-23)
(0.382743 -0.0285358 4.01338e-22)
(0.389312 -0.0281935 -1.84341e-21)
(0.395902 -0.0278492 -4.68802e-22)
(0.402511 -0.0275016 1.57284e-21)
(0.409136 -0.0271496 2.56833e-22)
(0.415776 -0.0267922 -1.68263e-21)
(0.422426 -0.026429 -2.58894e-22)
(0.429084 -0.0260598 1.46984e-21)
(0.435748 -0.0256844 -7.6734e-22)
(0.442413 -0.0253028 -2.86123e-22)
(0.449076 -0.0249154 1.28582e-21)
(0.455736 -0.0245224 7.02633e-22)
(0.462387 -0.0241242 -5.48541e-22)
(0.469028 -0.0237212 4.93182e-23)
(0.475656 -0.0233141 8.60261e-22)
(0.482266 -0.0229033 -4.70449e-22)
(0.488857 -0.0224895 -9.96989e-23)
(0.495426 -0.0220731 -1.13446e-21)
(0.501969 -0.0216549 9.06004e-22)
(0.508485 -0.0212354 -1.44417e-21)
(0.51497 -0.0208152 5.74135e-22)
(0.521423 -0.0203949 3.8353e-23)
(0.52784 -0.019975 4.23171e-22)
(0.53422 -0.0195561 -1.02788e-21)
(0.54056 -0.0191386 1.22715e-21)
(0.546859 -0.0187232 -1.4364e-23)
(0.553114 -0.0183101 -1.22716e-22)
(0.281102 -0.0458394 2.3731e-23)
(0.287056 -0.0439388 -6.65256e-21)
(0.293181 -0.0423718 -4.25974e-21)
(0.29939 -0.0410111 8.30003e-21)
(0.30554 -0.039852 1.71577e-21)
(0.311667 -0.0388575 -1.15473e-20)
(0.317788 -0.037995 7.92852e-21)
(0.323909 -0.03724 3.31695e-23)
(0.330038 -0.0365726 -1.47647e-21)
(0.33618 -0.0359759 2.19864e-21)
(0.342342 -0.0354359 -2.19081e-21)
(0.348526 -0.0349409 2.14387e-21)
(0.354736 -0.0344812 7.09238e-22)
(0.360974 -0.0340484 -1.83252e-21)
(0.36724 -0.0336358 -2.44556e-21)
(0.373536 -0.0332374 3.53519e-21)
(0.37986 -0.0328485 -2.77413e-21)
(0.386213 -0.032465 3.05261e-21)
(0.392592 -0.0320838 -5.60981e-22)
(0.398996 -0.0317022 1.12007e-21)
(0.405422 -0.031318 -2.11929e-21)
(0.411869 -0.0309297 8.11651e-22)
(0.418333 -0.0305361 -4.04019e-22)
(0.424812 -0.0301363 8.74281e-22)
(0.431304 -0.0297297 -6.62064e-22)
(0.437804 -0.0293161 -1.34556e-21)
(0.44431 -0.0288954 2.10392e-21)
(0.450819 -0.0284677 -1.87333e-21)
(0.457328 -0.0280333 4.12969e-22)
(0.463833 -0.0275925 -2.55253e-22)
(0.470332 -0.0271457 1.06081e-21)
(0.476821 -0.0266936 2.37462e-22)
(0.483298 -0.0262367 4.51152e-22)
(0.489759 -0.0257756 -1.30174e-21)
(0.496202 -0.025311 -1.90388e-22)
(0.502624 -0.0248436 1.48378e-23)
(0.509022 -0.024374 2.81166e-22)
(0.515394 -0.0239029 3.91734e-22)
(0.521737 -0.023431 2.14283e-22)
(0.528049 -0.0229589 -6.72711e-22)
(0.534327 -0.0224872 8.36147e-22)
(0.54057 -0.0220166 -1.06653e-21)
(0.546775 -0.0215477 -1.49573e-22)
(0.55294 -0.0210809 1.29406e-21)
(0.559063 -0.0206168 -2.92701e-22)
(0.296626 -0.0503936 -1.52133e-20)
(0.302112 -0.0483706 -2.13416e-21)
(0.307859 -0.0466906 9.50207e-21)
(0.313745 -0.0452232 1.3982e-21)
(0.319591 -0.0439719 -2.81959e-21)
(0.325434 -0.0428973 4.48771e-22)
(0.331288 -0.0419641 4.64222e-21)
(0.337157 -0.0411468 -4.04056e-21)
(0.343046 -0.0404237 -3.0755e-22)
(0.348958 -0.0397769 4.82914e-22)
(0.354898 -0.0391912 -5.89352e-21)
(0.360868 -0.0386539 5.03069e-21)
(0.36687 -0.0381543 -4.43598e-21)
(0.372905 -0.0376836 3.26998e-21)
(0.378974 -0.0372341 4.75166e-21)
(0.385075 -0.0367996 -3.5234e-21)
(0.391208 -0.0363748 2.16905e-21)
(0.397372 -0.0359554 -7.6451e-22)
(0.403565 -0.0355377 -9.84274e-22)
(0.409785 -0.0351191 3.81868e-22)
(0.416029 -0.0346972 -4.99215e-21)
(0.422295 -0.0342702 3.45892e-21)
(0.42858 -0.033837 -1.40078e-21)
(0.43488 -0.0333966 2.20613e-21)
(0.441194 -0.0329485 -7.62133e-22)
(0.447519 -0.0324924 -6.3063e-22)
(0.45385 -0.0320282 1.18729e-21)
(0.460185 -0.0315561 -1.9091e-21)
(0.466521 -0.0310764 1.33188e-21)
(0.472854 -0.0305895 -9.6183e-22)
(0.479182 -0.0300959 1.58309e-21)
(0.485503 -0.0295962 -1.45516e-21)
(0.491811 -0.0290912 1.15477e-21)
(0.498106 -0.0285815 7.89616e-22)
(0.504385 -0.0280678 -1.21364e-21)
(0.510643 -0.0275509 9.28794e-22)
(0.51688 -0.0270315 -1.01188e-22)
(0.523092 -0.0265105 -2.95758e-22)
(0.529277 -0.0259884 5.79918e-22)
(0.535432 -0.0254661 -1.85128e-22)
(0.541556 -0.0249443 -8.17049e-22)
(0.547646 -0.0244235 6.55786e-22)
(0.5537 -0.0239045 -2.96058e-22)
(0.559717 -0.0233879 5.43927e-22)
(0.565694 -0.0228742 3.05393e-22)
(0.313672 -0.0546763 7.51952e-21)
(0.318652 -0.0525619 2.34231e-22)
(0.323985 -0.0507917 -7.85212e-21)
(0.329518 -0.0492347 2.71974e-21)
(0.335031 -0.0479059 -6.93071e-22)
(0.340562 -0.0467633 5.3874e-21)
(0.346124 -0.0457698 -7.80269e-21)
(0.351716 -0.0448989 1.20578e-20)
(0.35734 -0.0441279 -3.3033e-21)
(0.363 -0.0434376 -6.33796e-21)
(0.368697 -0.0428121 9.38561e-21)
(0.374432 -0.0422377 -1.54054e-22)
(0.380206 -0.0417031 -9.5408e-21)
(0.386019 -0.0411987 4.98327e-21)
(0.39187 -0.0407162 -3.03691e-21)
(0.397758 -0.0402491 -1.81059e-21)
(0.403681 -0.0397916 4.11798e-22)
(0.409638 -0.039339 7.09945e-21)
(0.415626 -0.0388877 -7.59865e-21)
(0.421644 -0.0384346 4.1674e-21)
(0.427687 -0.0379773 8.71499e-22)
(0.433754 -0.0375141 8.89788e-22)
(0.439841 -0.0370435 -1.68853e-21)
(0.445946 -0.0365646 1.74806e-22)
(0.452065 -0.036077 -3.59246e-22)
(0.458196 -0.0355804 1.25575e-21)
(0.464334 -0.0350746 -3.71629e-21)
(0.470478 -0.03456 1.6341e-21)
(0.476624 -0.0340369 1.51122e-21)
(0.482769 -0.0335058 -1.25871e-21)
(0.48891 -0.0329672 8.01865e-22)
(0.495045 -0.0324219 -2.00532e-21)
(0.501169 -0.0318706 -3.54689e-22)
(0.507282 -0.0313141 1.3068e-21)
(0.513379 -0.0307531 -4.61661e-23)
(0.519458 -0.0301886 4.22756e-22)
(0.525517 -0.0296212 -1.0016e-21)
(0.531554 -0.029052 1.16606e-21)
(0.537565 -0.0284816 -2.62559e-22)
(0.543549 -0.0279108 -1.98091e-23)
(0.549503 -0.0273404 1.04771e-21)
(0.555426 -0.0267712 -1.37615e-21)
(0.561315 -0.0262038 1.62872e-22)
(0.567169 -0.025639 8.73218e-22)
(0.572985 -0.0250773 -4.1535e-22)
(0.332178 -0.0586632 -1.1788e-20)
(0.336615 -0.0564907 1.36871e-20)
(0.341502 -0.0546546 -1.49712e-20)
(0.346654 -0.0530268 7.21993e-21)
(0.351806 -0.0516364 7.94756e-21)
(0.356998 -0.0504391 -8.56682e-22)
(0.362243 -0.0493967 2.59049e-21)
(0.367535 -0.0484819 -1.6815e-21)
(0.372873 -0.0476714 -2.11905e-21)
(0.378259 -0.0469452 6.63646e-22)
(0.383692 -0.0462864 -8.71452e-21)
(0.389173 -0.0456808 8.44924e-21)
(0.394699 -0.0451163 -2.47017e-21)
(0.40027 -0.0445828 1.35981e-21)
(0.405885 -0.0440716 -1.03865e-21)
(0.411541 -0.0435756 -1.65656e-21)
(0.417237 -0.0430888 -1.32538e-21)
(0.422969 -0.0426064 -1.6641e-21)
(0.428735 -0.0421244 -5.86054e-22)
(0.434532 -0.0416396 -7.67301e-22)
(0.440358 -0.0411496 3.81871e-21)
(0.446208 -0.0406524 -4.08859e-21)
(0.452081 -0.0401468 5.4922e-21)
(0.457973 -0.0396319 -2.16229e-21)
(0.46388 -0.039107 6.64535e-22)
(0.4698 -0.038572 1.89641e-21)
(0.475729 -0.0380268 -3.37567e-21)
(0.481665 -0.0374719 2.96335e-21)
(0.487605 -0.0369075 -1.84823e-21)
(0.493545 -0.0363342 -2.46781e-22)
(0.499483 -0.0357527 1.69263e-21)
(0.505415 -0.0351638 -2.04604e-21)
(0.51134 -0.0345682 -5.1177e-22)
(0.517254 -0.0339669 1.73289e-21)
(0.523154 -0.0333606 -5.78402e-22)
(0.529039 -0.0327504 8.52878e-22)
(0.534906 -0.0321371 -1.35691e-21)
(0.540752 -0.0315215 2.50156e-22)
(0.546575 -0.0309046 2.16842e-21)
(0.552373 -0.0302873 -1.79564e-21)
(0.558143 -0.0296703 1.44862e-21)
(0.563884 -0.0290545 -1.14252e-21)
(0.569594 -0.0284405 -1.12699e-22)
(0.575271 -0.0278293 2.94616e-22)
(0.580913 -0.0272214 2.28938e-22)
(0.352073 -0.0623316 1.31267e-20)
(0.355937 -0.0601358 -7.11616e-21)
(0.360349 -0.0582598 -3.43277e-21)
(0.365092 -0.0565812 2.75234e-21)
(0.369857 -0.0551464 7.92062e-21)
(0.374687 -0.0539091 -1.01145e-20)
(0.379591 -0.0528301 5.56127e-21)
(0.384561 -0.0518821 -7.34958e-22)
(0.389592 -0.0510414 1.50874e-23)
(0.394684 -0.0502874 -5.06866e-21)
(0.399834 -0.0496025 4.84368e-21)
(0.40504 -0.0489719 -6.1326e-22)
(0.410301 -0.0483832 -1.33982e-21)
(0.415613 -0.0478256 -4.25174e-21)
(0.420974 -0.0472902 4.53152e-21)
(0.426381 -0.0467694 -9.45811e-22)
(0.431831 -0.0462572 1.68212e-21)
(0.437321 -0.0457483 -8.95619e-22)
(0.442848 -0.0452388 -1.11619e-21)
(0.448408 -0.0447253 5.77957e-22)
(0.453999 -0.0442053 3.05976e-21)
(0.459617 -0.043677 3.01332e-22)
(0.465258 -0.0431389 -2.18188e-21)
(0.47092 -0.0425903 4.31542e-21)
(0.476599 -0.0420306 -7.35989e-21)
(0.482292 -0.0414596 1.52128e-21)
(0.487997 -0.0408774 1.87475e-21)
(0.493709 -0.0402844 -1.42365e-21)
(0.499426 -0.0396809 2.4697e-21)
(0.505146 -0.0390678 -1.56754e-21)
(0.510865 -0.0384456 9.51609e-22)
(0.51658 -0.0378153 -6.14703e-22)
(0.52229 -0.0371776 -8.1776e-24)
(0.52799 -0.0365337 2.30911e-22)
(0.53368 -0.0358843 -1.02307e-21)
(0.539355 -0.0352305 8.75302e-22)
(0.545015 -0.0345733 -1.35814e-21)
(0.550656 -0.0339135 3.55108e-21)
(0.556277 -0.0332523 -2.07091e-21)
(0.561875 -0.0325904 2.6758e-22)
(0.567448 -0.0319288 -1.61604e-21)
(0.572994 -0.0312683 2.01113e-21)
(0.578511 -0.0306098 3.1115e-22)
(0.583998 -0.0299541 -1.82328e-21)
(0.589453 -0.0293019 -2.13739e-22)
(0.373284 -0.0656603 4.44101e-21)
(0.376547 -0.0634774 -1.63363e-21)
(0.380458 -0.0615887 -4.2789e-21)
(0.384767 -0.0598808 -1.23122e-21)
(0.389122 -0.05842 2.26521e-21)
(0.393567 -0.0571583 4.40405e-21)
(0.398109 -0.0560561 -7.58744e-21)
(0.402735 -0.0550866 7.14705e-21)
(0.40744 -0.0542257 -7.8465e-21)
(0.412218 -0.0534526 1.01872e-20)
(0.417067 -0.0527493 -3.28009e-21)
(0.421982 -0.0521006 -8.03424e-21)
(0.426959 -0.0514937 1.08631e-21)
(0.431995 -0.0509174 7.12747e-21)
(0.437085 -0.0503625 -6.80327e-21)
(0.442227 -0.0498214 8.72743e-21)
(0.447415 -0.0492876 -5.04682e-21)
(0.452647 -0.048756 3.05925e-21)
(0.457919 -0.0482223 -5.50799e-21)
(0.463226 -0.0476833 3.88643e-21)
(0.468566 -0.0471364 -1.64243e-21)
(0.473935 -0.0465798 -2.26434e-21)
(0.47933 -0.046012 5.2487e-21)
(0.484746 -0.0454324 -2.02941e-21)
(0.490181 -0.0448405 -1.77521e-22)
(0.495632 -0.0442361 -5.20707e-22)
(0.501096 -0.0436193 -1.86031e-23)
(0.50657 -0.0429907 -1.4112e-21)
(0.51205 -0.0423507 -4.75017e-22)
(0.517534 -0.0417 -4.28709e-22)
(0.523019 -0.0410396 4.30882e-21)
(0.528503 -0.0403702 6.10244e-22)
(0.533983 -0.0396929 -4.37348e-21)
(0.539456 -0.0390086 -4.09569e-22)
(0.54492 -0.0383184 -1.66356e-22)
(0.550373 -0.0376234 9.81577e-22)
(0.555812 -0.0369245 4.39125e-22)
(0.561235 -0.0362228 7.62104e-22)
(0.56664 -0.0355194 8.12256e-22)
(0.572025 -0.0348152 -2.75305e-21)
(0.577387 -0.0341111 3.22051e-21)
(0.582726 -0.0334081 -1.05899e-21)
(0.588038 -0.0327072 -2.23977e-22)
(0.593323 -0.032009 -5.59145e-23)
(0.598579 -0.0313145 9.0012e-22)
(0.39573 -0.0686299 -2.85394e-21)
(0.39837 -0.0664969 -2.15953e-21)