/*--------------------------------*- C++ -*----------------------------------*\
  =========                 |
  \\      /  F ield         | OpenFOAM: The Open Source CFD Toolbox
   \\    /   O peration     | Website:  https://openfoam.org
    \\  /    A nd           | Version:  7
     \\/     M anipulation  |
\*---------------------------------------------------------------------------*/
FoamFile
{
    version     2.0;
    format      ascii;
    class       surfaceScalarField;
    location    "15";
    object      phi;
}
// * * * * * * * * * * * * * * * * * * * * * * * * * * * * * * * * * * * * * //

dimensions      [0 3 -1 0 0 0 0];

internalField   nonuniform List<scalar> 
1256
(
-0.00184989
0.00372912
-0.00271801
0.00371096
-0.00243195
0.00369674
-0.00213907
0.00368658
-0.00183972
-0.00153427
0.00393934
-0.0029684
0.00391488
-0.00269355
0.00389459
-0.00241165
0.00387854
-0.00212303
0.00386683
-0.00182801
-0.00152698
0.00416905
-0.00320006
0.00413752
-0.00293687
0.00411037
-0.00266641
0.0040877
-0.00238898
0.00406959
-0.00210491
0.00405612
-0.00181454
-0.00151822
0.00442059
-0.00341176
0.0043812
-0.00316067
0.00434641
-0.00290208
0.0043163
-0.0026363
0.00429099
-0.00236366
0.00427055
-0.00208448
0.00425507
-0.00179907
-0.00150779
0.00469623
-0.00360236
0.00464822
-0.00336376
0.00460498
-0.00311743
0.00456662
-0.00286372
0.00453328
-0.00260295
0.00450504
-0.00233542
0.00448201
-0.00206145
0.00446428
-0.00178134
-0.00149545
0.00499778
-0.00377134
0.00494053
-0.00354511
0.00488813
-0.00331136
0.00484078
-0.00307008
0.00479861
-0.00282156
0.00476176
-0.0025661
0.00473034
-0.00230401
0.00470447
-0.00203558
0.00468425
-0.00176112
-0.00148096
0.00532691
-0.00391658
0.00525988
-0.00370432
0.00519777
-0.003483
0.00514076
-0.00325435
0.00508906
-0.00301839
0.00504284
-0.00277534
0.00500225
-0.0025255
0.00496741
-0.00226917
0.00493846
-0.00200663
0.00491551
-0.00173817
-0.00146411
0.0056854
-0.00403791
-0.00576689
0.00560805
-0.00383922
0.00553566
-0.00363193
0.00546845
-0.00341578
0.00540659
-0.00319249
0.00535032
-0.00296212
0.00529982
-0.00272483
0.00525525
-0.00248094
0.00521677
-0.00223069
0.00518452
-0.00197437
0.00515862
-0.00171227
-0.00144469
0.0059869
-0.00395024
-0.00607457
0.00590369
-0.00375601
0.00582566
-0.0035539
0.00575309
-0.00334321
0.00568614
-0.00312554
0.00562506
-0.00290104
0.00557004
-0.00266982
0.00552128
-0.00243217
0.00547894
-0.00218835
0.00544317
-0.00193861
0.00541413
-0.00168323
-0.00142249
0.00630382
-0.00385602
-0.00639804
0.00621443
-0.00366662
0.00613047
-0.00346994
0.00605225
-0.00326499
0.00597995
-0.00305325
0.00591382
-0.0028349
0.00585406
-0.00261007
0.00580089
-0.002379
0.00575447
-0.00214194
0.00571499
-0.00189913
0.0056826
-0.00165083
-0.00139733
0.00663683
-0.00375488
-0.00673797
0.00654091
-0.00357069
0.00645069
-0.00337972
0.00636653
-0.00318083
0.00628861
-0.00297532
0.00621717
-0.00276346
0.00615244
-0.00254534
0.00609463
-0.00232119
0.00604393
-0.00209124
0.00600054
-0.00185573
0.00596461
-0.0016149
-0.00136903
0.00698661
-0.00364644
-0.00709506
0.00688379
-0.00346787
0.00678698
-0.00328291
0.00669656
-0.00309041
0.00661272
-0.00289149
0.00653571
-0.00268645
0.00646576
-0.00247539
0.00640309
-0.00225852
0.0063479
-0.00203605
0.00630039
-0.00180822
0.00626074
-0.00157525
-0.00133741
0.00735386
-0.00353029
-0.00747001
0.00724376
-0.00335777
0.00714001
-0.00317916
0.007043
-0.0029934
0.00695295
-0.00280143
0.00687008
-0.00260359
0.00679466
-0.00239996
0.00672689
-0.00219075
0.006667
-0.00197616
0.00661518
-0.0017564
0.00657163
-0.00153171
-0.00130231
0.00773932
-0.00340605
-0.00786356
0.00762154
-0.00323999
0.0075105
-0.00306811
0.00740656
-0.00288947
0.00730997
-0.00270484
0.00722097
-0.00251458
0.0071398
-0.00231879
0.00706669
-0.00211764
0.00700187
-0.00191133
0.00694554
-0.00170007
0.00689791
-0.00148407
-0.00126356
0.00814374
-0.00327331
-0.00827648
0.0080179
-0.00311416
0.00789918
-0.00294939
0.00778798
-0.00277827
0.00768453
-0.0026014
0.00758909
-0.00241914
0.0075019
-0.0022316
0.00742319
-0.00203894
0.00735321
-0.00184135
0.00729216
-0.00163903
0.00724026
-0.00143217
-0.001221
0.00856791
-0.00313167
-0.00870955
0.00843361
-0.00297986
0.00830685
-0.00282264
0.00818802
-0.00265944
0.00807739
-0.00249076
0.00797519
-0.00231694
0.00788169
-0.0021381
0.00779713
-0.00195438
0.00772175
-0.00176597
0.00765577
-0.00157304
0.0075994
-0.0013758
-0.00117445
0.00901265
-0.00298072
-0.00916359
0.00886949
-0.0028367
0.00873432
-0.00268746
0.00860751
-0.00253263
0.00848934
-0.0023726
0.00838008
-0.00220768
0.00827998
-0.002038
0.00818929
-0.0018637
0.00810827
-0.00168494
0.00803713
-0.0015019
0.00797609
-0.00131477
-0.00112374
0.00947881
-0.00282006
-0.00963946
0.0093264
-0.00268429
0.00918243
-0.00254349
0.00904728
-0.00239748
0.00892124
-0.00224656
0.00880459
-0.00209103
0.0086976
-0.001931
0.00860051
-0.00176661
0.00851358
-0.00159801
0.00843705
-0.00142537
0.00837115
-0.00124887
-0.00106869
0.00996728
-0.0026493
-0.010138
0.00980522
-0.00252223
0.00965208
-0.00239035
0.00950823
-0.00225363
0.00937398
-0.00211232
0.00924962
-0.00196667
0.00913542
-0.0018168
0.00903165
-0.00166284
0.00893856
-0.00150493
0.00885641
-0.00134322
0.00878543
-0.00117789
-0.00100911
0.010479
-0.00246803
-0.0106603
0.0103069
-0.00235013
0.0101442
-0.00222766
0.00999129
-0.00210072
0.00984849
-0.00196952
0.0097161
-0.00183427
0.00959439
-0.00169509
0.00948365
-0.00155209
0.00938414
-0.00140542
0.00929612
-0.00125521
0.00921985
-0.00110162
-0.000944807
0.0110149
-0.00227586
-0.0112071
0.0108324
-0.00216761
0.0106598
-0.00205505
0.0104974
-0.00193841
0.0103458
-0.00181784
0.010205
-0.00169352
0.0100755
-0.00156557
0.00995748
-0.0014341
0.00985129
-0.00129922
0.00975716
-0.00116109
0.00967537
-0.00101982
-0.00087559
0.011576
-0.00207242
-0.0117795
0.0113827
-0.0019743
0.0111998
-0.00187217
0.0110277
-0.00176633
0.0108668
-0.00165692
0.0107174
-0.00154408
0.0105797
-0.00142793
0.0104542
-0.00130855
0.010341
-0.00118608
0.0102406
-0.00106061
0.010153
-0.000932295
0.0121634
-0.00185735
-0.0123785
0.0119589
-0.00176983
0.0117654
-0.00167864
0.0115832
-0.00158414
0.0114127
-0.00148643
0.0112543
-0.00138564
0.0111082
-0.00128186
0.0109749
-0.00117519
0.0108545
-0.00106571
0.0107474
-0.000953545
-0.000838807
0.0127782
-0.00163028
-0.0130052
0.0125622
-0.00155385
0.0123577
-0.00147414
0.0121651
-0.00139152
0.0119847
-0.00130607
0.011817
-0.0012179
0.0116622
-0.00112708
0.0115207
-0.00103371
0.0113929
-0.000937863
0.0112789
-0.000839639
-0.00073914
0.0134214
-0.0013909
-0.0136608
0.0131936
-0.00132605
0.0129778
-0.00125834
0.0127745
-0.00118813
0.0125839
-0.00111551
0.0124065
-0.00104054
0.0122427
-0.000963298
0.0120929
-0.000883852
0.0119573
-0.000802278
0.0118363
-0.000718657
-0.000633077
0.0140944
-0.0011389
-0.0143464
0.0138545
-0.0010861
0.0136271
-0.00103092
0.0134126
-0.00097369
0.0132116
-0.000914456
0.0130243
-0.000853283
0.0128512
-0.000790227
0.0126927
-0.000725347
0.0125492
-0.000658705
0.0124209
-0.000590367
-0.000520407
0.0147983
-0.00087401
-0.0150632
0.014546
-0.00083375
0.0143067
-0.000791621
0.0140809
-0.000747903
0.0138691
-0.000702631
0.0136716
-0.00065585
0.013489
-0.000607605
0.0133216
-0.00055794
0.0131698
-0.000506903
0.013034
-0.000454546
-0.000400928
0.0155343
-0.000596005
-0.0158123
0.0152693
-0.000568747
0.0150179
-0.000540184
0.0147805
-0.000510518
0.0145577
-0.000479775
0.0143498
-0.000447985
0.0141574
-0.000415179
0.0139808
-0.000381387
0.0138206
-0.000346644
0.013677
-0.000310986
-0.000274454
0.0163037
-0.000304712
-0.016595
0.0160258
-0.000290897
0.015762
-0.000276387
0.0155128
-0.000261298
0.0152787
-0.000245645
0.0150601
-0.000229444
0.0148577
-0.000212711
0.0146717
-0.000195465
0.0145028
-0.000177723
0.0143513
-0.000159505
-0.000140834
0.0171073
-0.017412
0.0168164
0.0165401
0.0162788
0.0160331
0.0158037
0.015591
0.0153955
0.0152178
0.0150583
0.00571281
0.00197036
0.00193468
0.00580687
0.00011217
0.00580584
0.000302324
0.00580461
0.000477398
0.00580367
0.000649463
0.0058037
0.000824435
0.00580559
0.00100175
0.00581044
0.00117771
0.0058194
0.00134734
0.00583384
0.00150407
0.00585481
0.00164277
0.00588348
0.00175642
0.00592021
0.00184349
0.0059653
0.00189554
0.00601772
0.00191793
0.00187783
0.00609146
0.000112334
0.00609106
0.000302722
0.00609083
0.000477626
0.00609127
0.000649022
0.00609311
0.000822597
0.00609724
0.000997622
0.00610478
0.00117017
0.00611691
0.00133522
0.0061349
0.00148608
0.00615979
0.00161789
0.0061925
0.0017237
0.00623337
0.00180261
0.00628226
0.00184665
0.00633832
0.00186187
0.00181812
0.00639
0.000112223
0.00639033
0.000302397
0.00639125
0.000476702
0.00639328
0.000647
0.00639715
0.000818721
0.0064038
0.000990973
0.00641434
0.00115963
0.00642993
0.00131962
0.00645177
0.00146424
0.00648081
0.00158885
0.00651777
0.00168674
0.0065629
0.00175749
0.00661566
0.00179389
0.00667531
0.00180222
0.00175546
0.00670319
0.0001118
0.00670434
0.000301247
0.00670658
0.000474465
0.0067104
0.000643184
0.00671657
0.000812552
0.00672602
0.000981517
0.00673987
0.00114578
0.00675923
0.00130026
0.00678521
0.00143826
0.00681865
0.00155541
0.00686004
0.00164534
0.00690952
0.00170801
0.00696622
0.00173718
0.00702942
0.00173902
0.00168982
0.00703174
0.000111023
0.00703383
0.00029916
0.00703755
0.000470745
0.00704338
0.000637352
0.00705211
0.000803821
0.00706468
0.000968954
0.00708215
0.00112831
0.0071056
0.00127681
0.00713599
0.00140787
0.00717406
0.00151734
0.00722006
0.00159934
0.00727398
0.0016541
0.00733468
0.00167648
0.0074014
0.0016723
0.00162121
0.00737641
0.00010985
0.00737955
0.000296019
0.00738493
0.000465361
0.00739302
0.000629265
0.00740459
0.000792248
0.00742057
0.000952971
0.00744199
0.00110689
0.00746984
0.00124897
0.00750494
0.00137277
0.00754786
0.00147441
0.00759863
0.00154858
0.00765706
0.00159567
0.0077218
0.00161174
0.00779199
0.00160212
0.00154963
0.00773797
0.000108234
0.00774229
0.000291699
0.00774953
0.00045812
0.00776012
0.000618677
0.00777483
0.00077754
0.00779455
0.000933249
0.00782024
0.0010812
0.0078528
0.00121641
0.00789287
0.0013327
0.00794086
0.00142642
0.00799654
0.00149289
0.00805955
0.00153267
0.00812836
0.00154293
0.00820198
0.0015285
0.00147513
0.00811727
0.000106127
0.0081229
0.000286068
0.00813219
0.000448824
0.00814554
0.000605329
0.00816368
0.000759399
0.00818747
0.000909464
0.00821776
0.00105091
0.00825533
0.00117884
0.00830063
0.00128739
0.00835388
0.00137317
0.00841461
0.00143216
0.00848225
0.00146503
0.00855515
0.00147004
0.00863216
0.00145149
0.00139775
0.00851516
0.000103479
0.00852224
0.000278991
0.0085338
0.000437265
0.00855017
0.000588959
0.00857205
0.000737519
0.00860022
0.000881292
0.00863543
0.00101569
0.00867831
0.00113597
0.00872909
0.0012366
0.00878778
0.00131448
0.00885368
0.00136626
0.00892599
0.00139271
0.00900299
0.00139304
0.00908337
0.0013711
0.00131753
0.00893256
0.000100238
0.00894123
0.000270325
0.00895526
0.000423232
0.00897492
0.000569298
0.00900084
0.000711596
0.00903373
0.00084841
0.00907418
0.000975243
0.00912263
0.00108751
0.00917913
0.0011801
0.00924342
0.0012502
0.00931458
0.0012951
0.00939162
0.00131568
0.00947271
0.00131195
0.00955644
0.00128738
0.0012345
0.00937043
9.63515e-05
0.00938082
0.000259928
0.00939754
0.000406514
0.00942076
0.00054608
0.00945103
0.000681327
0.00948893
0.000810504
0.00953492
0.000929254
0.00958923
0.00103321
0.00965165
0.00111768
0.00972168
0.00118017
0.0097982
0.00121858
0.00987999
0.00123388
0.00996519
0.00122675
0.0100523
0.00120032
0.00114871
0.00982975
9.17678e-05
0.00984202
0.000247658
0.00986163
0.000386899
0.00988867
0.000519041
0.00992358
0.000646418
0.00996681
0.000767273
0.0100186
0.000877443
0.010079
0.000972803
0.0101476
0.00104915
0.0102235
0.00110426
0.0103054
0.00113663
0.010392
0.0011473
0.0104813
0.00113744
0.0105717
0.00110992
0.00106016
0.0103116
8.64362e-05
0.0103259
0.000233375
0.0103486
0.000364184
0.0103797
0.000487929
0.0104195
0.000606591
0.0104684
0.000718436
0.0105262
0.000819545
0.010593
0.000906083
0.0106678
0.000974323
0.0107497
0.00102237
0.0108371
0.00104918
0.0109286
0.00105589
0.011022
0.00104401
0.0111157
0.00101617
0.00096884
0.010817
8.03091e-05
0.0108334
0.000216949
0.0108594
0.000338178
0.0108949
0.000452511
0.0109399
0.000561587
0.0109946
0.000663735
0.0110588
0.000755325
0.011132
0.000832848
0.0112133
0.000893061
0.0113013
0.000934371
0.0113943
0.000956156
0.0114906
0.000959606
0.0115882
0.000946417
0.0116853
0.000919017
0.000874715
0.0113472
7.33442e-05
0.0113659
0.000198261
0.0113954
0.00030871
0.0114353
0.000412576
0.0114857
0.000511182
0.0115465
0.000602947
0.0116172
0.000684579
0.0116971
0.00075293
0.011785
0.00080523
0.0118792
0.000840183
0.0119778
0.000857497
0.012079
0.000858382
0.0121809
0.000844611
0.0122815
0.000818395
0.000777708
0.0119033
6.55061e-05
0.0119244
0.000177209
0.0119575
0.000275636
0.0120021
0.000367953
0.0120581
0.000455188
0.0121251
0.000535889
0.0122026
0.000607143
0.0122893
0.00066619
0.0123838
0.000710721
0.0124843
0.000739713
0.0125887
0.000753123
0.0126949
0.000752139
0.012801
0.0007385
0.0129052
0.00071419
0.000677701
0.0124867
5.67696e-05
0.0125102
0.000153718
0.012547
0.00023885
0.0125964
0.000318514
0.0126581
0.00039347
0.0127316
0.00046243
0.0128158
0.000522897
0.0129095
0.000572525
0.0130108
0.000609442
0.0131176
0.000632874
0.0132278
0.000642944
0.0133392
0.000640766
0.0134497
0.000627957
0.0135577
0.000606242
0.000574523
0.0130986
4.71227e-05
0.0131245
0.000127747
0.0131651
0.000198298
0.0132194
0.000264194
0.0132869
0.00032596
0.0133669
0.000382505
0.013458
0.000431778
0.0135586
0.000471871
0.0136667
0.000501324
0.01378
0.000519578
0.0138961
0.000526846
0.0140128
0.000524117
0.0141279
0.000512799
0.0142398
0.000494334
0.00046794
0.0137404
3.65712e-05
0.0137688
9.9299e-05
0.0138131
0.000153988
0.0138723
0.000205007
0.0139456
0.000252672
0.014032
0.000296124
0.01413
0.00033379
0.0142376
0.000364212
0.0143526
0.00038632
0.0144725
0.000399735
0.0145946
0.000404691
0.0147167
0.000401998
0.0148368
0.000392785
0.0149529
0.00037818
0.000357643
0.0144135
2.51428e-05
0.0144444
6.84321e-05
0.0144924
0.000106013
0.0145563
0.000141063
0.0146352
0.000173723
0.014728
0.000203399
0.0148327
0.000229017
0.0149474
0.000249589
0.0150693
0.000264411
0.0151958
0.000273252
0.0153241
0.000276308
0.015452
0.000274159
0.0155772
0.000267599
0.0156979
0.000257406
0.000243238
0.0151195
1.28928e-05
0.0151527
3.52785e-05
0.0152041
5.4566e-05
0.0152726
7.25967e-05
0.0153569
8.93637e-05
0.0154558
0.000104563
0.0155672
0.000117649
0.0156886
0.000128117
0.0158174
0.000135616
0.0159506
0.000140036
0.0160855
0.000141492
0.0162193
0.000140288
0.0163501
0.000136839
0.0164759
0.000131541
0.000124221
0.0158599
0.0158952
0.0159497
0.0160223
0.0161117
0.0162162
0.0163339
0.016462
0.0165976
0.0167377
0.0168792
0.0170194
0.0171563
0.0172878
)
;

boundaryField
{
    inlet
    {
        type            calculated;
        value           nonuniform List<scalar> 
22
(
-0.00580727
-0.00609162
-0.00638989
-0.00670277
-0.00703097
-0.00737523
-0.00773636
-0.00811516
-0.00851251
-0.00892932
-0.00936654
-0.00982516
-0.0103062
-0.0108109
-0.0113402
-0.0118955
-0.012478
-0.0130889
-0.0137298
-0.0144021
-0.0151073
-0.015847
)
;
    }
    outlet
    {
        type            calculated;
        value           nonuniform 0();
    }
    cylinder
    {
        type            calculated;
        value           nonuniform 0();
    }
    top
    {
        type            symmetryPlane;
        value           uniform 0;
    }
    bottom
    {
        type            symmetryPlane;
        value           nonuniform 0();
    }
    defaultFaces
    {
        type            empty;
        value           nonuniform 0();
    }
    procBoundary12to8
    {
        type            processor;
        value           nonuniform List<scalar> 
34
(
-0.02319
0.00215328
0.00245012
0.00274004
-0.00375115
0.00299693
-0.00396787
0.00323586
-0.00420485
0.00345563
-0.00446445
0.00365499
-0.00474885
0.00383327
-0.0050597
0.00398838
-0.00539871
0.0041194
-0.00201912
-0.00198876
-0.000111765
-0.000301298
-0.000476166
-0.000648518
-0.000824474
-0.00100364
-0.00118255
-0.00135631
-0.0015185
-0.00166375
-0.00178508
-0.00188022
-0.00566405
-0.00194062
)
;
    }
    procBoundary12to9
    {
        type            processor;
        value           nonuniform List<scalar> 8(0.0236094 0.00154032 0.00143052 0.00368053 0.00385954 0.00404736 0.00424464 0.00445194);
    }
    procBoundary12to13
    {
        type            processor;
        value           nonuniform List<scalar> 
26
(
0.00466976
0.00489866
0.0051392
0.00539193
0.00565744
0.0059363
0.00622913
0.00653653
0.00685916
0.0071977
0.00755285
0.00792538
0.0083161
0.00872585
0.00915555
0.00960616
0.0100787
-0.000801261
0.010654
0.0111793
0.0117303
0.0123082
0.0129145
0.0135505
0.0142177
0.0149174
)
;
    }
}


// ************************************************************************* //
