# Probe 0 (2 -0.5 0)
# Probe 1 (2 0.5 0)
#       Probe             0             1
#        Time
        0.005      -10.3158      -10.3158
         0.01      0.355947      0.355947
        0.015     0.0175171      0.017517
         0.02     0.0115659     0.0115658
        0.025     0.0103356     0.0103356
         0.03      0.010437      0.010437
        0.035     0.0109482     0.0109482
         0.04     0.0115146     0.0115146
        0.045     0.0120318     0.0120319
         0.05     0.0124538     0.0124538
        0.055     0.0127974     0.0127974
         0.06     0.0130643     0.0130643
        0.065     0.0132763     0.0132763
         0.07     0.0134473     0.0134473
        0.075     0.0135776     0.0135776
         0.08     0.0136932     0.0136932
        0.085     0.0137908     0.0137908
         0.09     0.0138821     0.0138821
        0.095     0.0139602     0.0139602
          0.1     0.0140367     0.0140367
        0.105     0.0141013     0.0141013
         0.11     0.0141717     0.0141717
        0.115     0.0142394     0.0142394
         0.12      0.014308      0.014308
        0.125     0.0143811     0.0143811
         0.13     0.0144498     0.0144498
        0.135     0.0145171     0.0145171
         0.14     0.0145878     0.0145878
        0.145     0.0146586     0.0146586
         0.15     0.0147315     0.0147315
        0.155     0.0148115     0.0148115
         0.16     0.0148829     0.0148829
        0.165     0.0149563     0.0149563
         0.17     0.0150274     0.0150274
        0.175      0.015095      0.015095
         0.18     0.0151679     0.0151679
        0.185     0.0152431     0.0152431
         0.19     0.0153145     0.0153145
        0.195     0.0153863     0.0153863
          0.2     0.0154583     0.0154583
        0.205     0.0155331     0.0155331
         0.21      0.015602      0.015602
        0.215     0.0156734     0.0156734
         0.22     0.0157397     0.0157397
        0.225      0.015807      0.015807
         0.23     0.0158704     0.0158704
        0.235     0.0159332     0.0159333
         0.24     0.0159994     0.0159994
        0.245     0.0160636     0.0160636
         0.25     0.0161275     0.0161275
        0.255     0.0161917     0.0161918
         0.26     0.0162579     0.0162579
        0.265     0.0163166     0.0163166
         0.27     0.0163721     0.0163721
        0.275     0.0164311     0.0164311
         0.28     0.0164904     0.0164904
        0.285     0.0165497     0.0165497
         0.29     0.0166071     0.0166071
        0.295     0.0166649     0.0166649
          0.3     0.0167247     0.0167247
        0.305     0.0167734     0.0167735
         0.31      0.016833      0.016833
        0.315     0.0168894     0.0168894
         0.32     0.0169383     0.0169383
        0.325     0.0169877     0.0169878
         0.33      0.017041      0.017041
        0.335     0.0170945     0.0170945
         0.34     0.0171447     0.0171447
        0.345     0.0171913     0.0171913
         0.35     0.0172439     0.0172439
        0.355     0.0172987     0.0172987
         0.36     0.0173519     0.0173519
        0.365     0.0173941     0.0173941
         0.37     0.0174305     0.0174305
        0.375     0.0174733     0.0174733
         0.38     0.0175222     0.0175222
        0.385     0.0175633     0.0175633
         0.39     0.0176133     0.0176133
        0.395      0.017654      0.017654
          0.4     0.0176995     0.0176995
        0.405      0.017746     0.0177461
         0.41     0.0177901     0.0177901
        0.415     0.0178363     0.0178364
         0.42     0.0178808     0.0178808
        0.425     0.0179258     0.0179258
         0.43     0.0179723     0.0179723
        0.435     0.0180181     0.0180181
         0.44      0.018062      0.018062
        0.445     0.0181066     0.0181067
         0.45     0.0181529     0.0181529
        0.455      0.018192      0.018192
         0.46     0.0182408     0.0182408
        0.465     0.0182875     0.0182875
         0.47     0.0183205     0.0183206
        0.475     0.0183633     0.0183633
         0.48     0.0184055     0.0184055
        0.485     0.0184489     0.0184489
         0.49     0.0184919     0.0184919
        0.495     0.0185361     0.0185361
          0.5     0.0185772     0.0185772
        0.505     0.0186131     0.0186131
         0.51     0.0186556     0.0186556
        0.515     0.0186995     0.0186995
         0.52     0.0187439     0.0187439
        0.525     0.0187873     0.0187873
         0.53     0.0188318     0.0188318
        0.535     0.0188739     0.0188739
         0.54     0.0189326     0.0189326
        0.545      0.018972      0.018972
         0.55     0.0189913     0.0189913
        0.555     0.0190182     0.0190182
         0.56     0.0190509     0.0190509
        0.565     0.0190967     0.0190967
         0.57     0.0191268     0.0191268
        0.575     0.0191682     0.0191682
         0.58     0.0192168     0.0192169
        0.585     0.0192579     0.0192579
         0.59     0.0192918     0.0192919
        0.595     0.0193368     0.0193368
          0.6     0.0193833     0.0193833
        0.605     0.0194345     0.0194345
         0.61     0.0194658     0.0194658
        0.615     0.0195102     0.0195102
         0.62     0.0195611     0.0195611
        0.625     0.0195948     0.0195948
         0.63     0.0196363     0.0196363
        0.635     0.0196819     0.0196819
         0.64     0.0197257     0.0197257
        0.645     0.0197619     0.0197619
         0.65     0.0198076     0.0198076
        0.655     0.0198537     0.0198537
         0.66     0.0199005     0.0199005
        0.665     0.0199456     0.0199456
         0.67     0.0199883     0.0199883
        0.675     0.0200355     0.0200355
         0.68     0.0200876     0.0200876
        0.685     0.0201279     0.0201279
         0.69     0.0201749     0.0201749
        0.695     0.0202228     0.0202228
          0.7     0.0202782     0.0202782
        0.705     0.0203517     0.0203517
         0.71     0.0203887     0.0203887
        0.715     0.0204023     0.0204023
         0.72     0.0204573     0.0204573
        0.725     0.0204987     0.0204987
         0.73     0.0205257     0.0205257
        0.735     0.0205808     0.0205808
         0.74     0.0206479     0.0206479
        0.745     0.0206719     0.0206719
         0.75     0.0207154     0.0207154
        0.755     0.0207688     0.0207688
         0.76     0.0208245     0.0208245
        0.765      0.020885      0.020885
         0.77     0.0209378     0.0209378
        0.775     0.0209637     0.0209637
         0.78     0.0210184     0.0210184
        0.785     0.0210733     0.0210733
         0.79     0.0211281     0.0211281
        0.795     0.0211839     0.0211839
          0.8     0.0212419     0.0212419
        0.805     0.0213093     0.0213093
         0.81     0.0213428     0.0213428
        0.815     0.0213882     0.0213882
         0.82     0.0214439     0.0214439
        0.825     0.0214997     0.0214997
         0.83     0.0215577     0.0215577
        0.835     0.0216101     0.0216101
         0.84     0.0216662     0.0216662
        0.845     0.0217252     0.0217252
         0.85     0.0217882     0.0217882
        0.855     0.0218518     0.0218518
         0.86     0.0219157     0.0219158
        0.865     0.0219652     0.0219652
         0.87     0.0220543     0.0220543
        0.875     0.0220901     0.0220901
         0.88     0.0221325     0.0221325
        0.885     0.0221622     0.0221622
         0.89     0.0222315     0.0222315
        0.895     0.0223071     0.0223071
          0.9     0.0223242     0.0223242
        0.905     0.0223866     0.0223866
         0.91     0.0224512     0.0224513
        0.915     0.0225208     0.0225209
         0.92     0.0226059     0.0226059
        0.925     0.0226209     0.0226209
         0.93     0.0226837     0.0226837
        0.935      0.022757     0.0227571
         0.94     0.0227996     0.0227996
        0.945     0.0228612     0.0228613
         0.95     0.0229276     0.0229276
        0.955     0.0229993     0.0229993
         0.96      0.023082      0.023082
        0.965     0.0231062     0.0231063
         0.97     0.0231657     0.0231657
        0.975     0.0232316     0.0232316
         0.98     0.0232999     0.0232999
        0.985     0.0233637     0.0233637
         0.99     0.0234299     0.0234299
        0.995     0.0234967     0.0234967
            1     0.0235639     0.0235639
        1.005     0.0236315     0.0236315
         1.01     0.0237022     0.0237022
        1.015     0.0237806     0.0237806
         1.02     0.0238441     0.0238441
        1.025     0.0238835     0.0238835
         1.03     0.0239563     0.0239563
        1.035     0.0240381     0.0240381
         1.04     0.0241377     0.0241377
        1.045     0.0241583     0.0241583
         1.05     0.0242608     0.0242608
        1.055     0.0242693     0.0242693
         1.06     0.0243407     0.0243407
        1.065     0.0244143     0.0244143
         1.07     0.0244965     0.0244965
        1.075     0.0245837     0.0245837
         1.08     0.0246018     0.0246018
        1.085     0.0246734     0.0246735
         1.09     0.0247475     0.0247475
        1.095     0.0248234     0.0248234
          1.1       0.02491       0.02491
        1.105     0.0249588     0.0249588
         1.11     0.0250561     0.0250561
        1.115     0.0250753     0.0250753
         1.12     0.0251441     0.0251442
        1.125     0.0252159     0.0252159
         1.13     0.0252861     0.0252861
        1.135      0.025359      0.025359
         1.14      0.025431      0.025431
        1.145     0.0255036     0.0255036
         1.15     0.0255769     0.0255769
        1.155     0.0256527     0.0256527
         1.16     0.0257304     0.0257304
        1.165     0.0258186     0.0258186
         1.17     0.0258882     0.0258882
        1.175     0.0259183     0.0259183
         1.18     0.0259919     0.0259919
        1.185     0.0260665     0.0260665
         1.19     0.0261407     0.0261407
        1.195     0.0262149     0.0262149
          1.2     0.0262899     0.0262899
        1.205     0.0263647     0.0263647
         1.21     0.0264418     0.0264418
        1.215     0.0265339     0.0265339
         1.22     0.0266142     0.0266142
        1.225      0.026662      0.026662
         1.23       0.02676       0.02676
        1.235     0.0268123     0.0268123
         1.24     0.0268483     0.0268483
        1.245     0.0269294     0.0269294
         1.25     0.0270295     0.0270295
        1.255      0.027059      0.027059
         1.26     0.0271335     0.0271335
        1.265     0.0272444     0.0272444
         1.27     0.0272491     0.0272491
        1.275     0.0273236     0.0273236
         1.28     0.0273977     0.0273977
        1.285     0.0274722     0.0274722
         1.29     0.0275477     0.0275477
        1.295     0.0276218     0.0276218
          1.3     0.0276966     0.0276966
        1.305     0.0277697     0.0277697
         1.31     0.0278513     0.0278513
        1.315     0.0279569     0.0279569
         1.32     0.0279842     0.0279842
        1.325     0.0280378     0.0280378
         1.33     0.0281103     0.0281103
        1.335     0.0281855     0.0281855
         1.34     0.0282483     0.0282483
        1.345     0.0283242     0.0283242
         1.35     0.0283908     0.0283908
        1.355      0.028467      0.028467
         1.36     0.0285383     0.0285383
        1.365     0.0286111     0.0286111
         1.37      0.028686      0.028686
        1.375     0.0287652     0.0287652
         1.38     0.0288468     0.0288468
        1.385     0.0288806     0.0288806
         1.39     0.0289582     0.0289582
        1.395     0.0290642     0.0290642
          1.4     0.0290786     0.0290786
        1.405     0.0291542     0.0291542
         1.41     0.0292115     0.0292115
        1.415      0.029266      0.029266
         1.42     0.0293412     0.0293412
        1.425     0.0294283     0.0294283
         1.43     0.0294865     0.0294865
        1.435     0.0295295     0.0295295
         1.44     0.0295946     0.0295946
        1.445     0.0296612     0.0296612
         1.45     0.0297282     0.0297282
        1.455     0.0297954     0.0297955
         1.46     0.0298637     0.0298637
        1.465     0.0299366     0.0299366
         1.47     0.0300552     0.0300552
        1.475      0.030037     0.0300371
         1.48     0.0300998     0.0300998
        1.485     0.0301636     0.0301636
         1.49     0.0302251     0.0302251
        1.495     0.0302884     0.0302884
          1.5     0.0303521     0.0303521
        1.505      0.030417      0.030417
         1.51     0.0304839     0.0304839
        1.515     0.0305623     0.0305623
         1.52     0.0306089     0.0306089
        1.525     0.0306268     0.0306268
         1.53     0.0306896     0.0306896
        1.535     0.0307567     0.0307567
         1.54     0.0308454     0.0308454
        1.545     0.0308723     0.0308723
         1.55     0.0308986     0.0308986
        1.555      0.030954      0.030954
         1.56     0.0310104     0.0310104
        1.565     0.0310661     0.0310661
         1.57     0.0311206     0.0311206
        1.575     0.0311766     0.0311766
         1.58      0.031231      0.031231
        1.585     0.0312803     0.0312803
         1.59     0.0313347     0.0313347
        1.595     0.0313938     0.0313938
          1.6     0.0314498     0.0314498
        1.605     0.0314788     0.0314788
         1.61     0.0315761     0.0315761
        1.615     0.0315633     0.0315633
         1.62      0.031611      0.031611
        1.625       0.03166       0.03166
         1.63     0.0317121     0.0317121
        1.635     0.0317821     0.0317821
         1.64     0.0318089     0.0318089
        1.645     0.0318505     0.0318505
         1.65     0.0319072     0.0319072
        1.655     0.0319531     0.0319531
         1.66     0.0319295     0.0319295
        1.665      0.031971      0.031971
         1.67     0.0320125     0.0320125
        1.675      0.032054      0.032054
         1.68     0.0320967     0.0320967
        1.685     0.0321381     0.0321381
         1.69     0.0321824     0.0321824
        1.695     0.0322774     0.0322774
          1.7     0.0322275     0.0322275
        1.705      0.032264      0.032264
         1.71     0.0323051     0.0323051
        1.715      0.032341      0.032341
         1.72     0.0323353     0.0323353
        1.725     0.0323656     0.0323656
         1.73     0.0323937     0.0323937
        1.735      0.032422      0.032422
         1.74     0.0324503     0.0324503
        1.745     0.0324777     0.0324777
         1.75     0.0325039     0.0325039
        1.755     0.0325256     0.0325256
         1.76     0.0325526     0.0325526
        1.765     0.0325763     0.0325763
         1.77     0.0325986     0.0325986
        1.775     0.0326217     0.0326217
         1.78     0.0326537     0.0326537
        1.785     0.0326702     0.0326702
         1.79      0.032719      0.032719
        1.795      0.032712      0.032712
          1.8     0.0326838     0.0326838
        1.805     0.0326902     0.0326902
         1.81     0.0327148     0.0327148
        1.815       0.03273       0.03273
         1.82     0.0327487     0.0327487
        1.825     0.0327819     0.0327819
         1.83     0.0327822     0.0327822
        1.835     0.0327301     0.0327301
         1.84     0.0327359     0.0327359
        1.845     0.0327463     0.0327463
         1.85      0.032748      0.032748
        1.855     0.0327527     0.0327527
         1.86     0.0327612     0.0327612
        1.865     0.0327975     0.0327975
         1.87     0.0327484     0.0327484
        1.875     0.0327461     0.0327461
         1.88     0.0327447     0.0327447
        1.885      0.032741      0.032741
         1.89     0.0327359     0.0327359
        1.895     0.0327298     0.0327298
          1.9     0.0327242     0.0327242
        1.905     0.0327158     0.0327158
         1.91     0.0327063     0.0327063
        1.915     0.0326966     0.0326966
         1.92     0.0326852     0.0326852
        1.925     0.0326742     0.0326742
         1.93     0.0326652     0.0326652
        1.935     0.0326579     0.0326579
         1.94     0.0326918     0.0326918
        1.945     0.0326675     0.0326675
         1.95     0.0325496     0.0325496
        1.955     0.0325154     0.0325154
         1.96     0.0324833     0.0324833
        1.965     0.0324672     0.0324672
         1.97     0.0324419     0.0324419
        1.975     0.0324135     0.0324135
         1.98     0.0323843     0.0323843
        1.985     0.0323597     0.0323597
         1.99     0.0323225     0.0323225
        1.995     0.0322907     0.0322907
            2     0.0322581     0.0322581
        2.005     0.0322225     0.0322225
         2.01     0.0321857     0.0321857
        2.015     0.0321479     0.0321479
         2.02     0.0321101     0.0321101
        2.025     0.0320716     0.0320716
         2.03     0.0320354     0.0320354
        2.035     0.0319837     0.0319837
         2.04     0.0319386     0.0319386
        2.045     0.0318913     0.0318913
         2.05     0.0318456     0.0318456
        2.055     0.0317991     0.0317991
         2.06     0.0317533     0.0317533
        2.065     0.0317113     0.0317113
         2.07     0.0316924     0.0316924
        2.075     0.0316212     0.0316211
         2.08      0.031518      0.031518
        2.085     0.0314465     0.0314465
         2.09     0.0313875     0.0313875
        2.095      0.031328      0.031328
          2.1     0.0312676     0.0312676
        2.105     0.0312068     0.0312068
         2.11     0.0311595     0.0311595
        2.115      0.031077      0.031077
         2.12     0.0310101     0.0310101
        2.125     0.0309462     0.0309462
         2.13     0.0308843     0.0308843
        2.135     0.0308156     0.0308156
         2.14     0.0307135     0.0307135
        2.145      0.030629      0.030629
         2.15     0.0305415     0.0305415
        2.155     0.0304663     0.0304663
         2.16     0.0303891     0.0303891
        2.165     0.0303107     0.0303107
         2.17     0.0302307     0.0302307
        2.175       0.03015       0.03015
         2.18     0.0300684     0.0300684
        2.185     0.0299865     0.0299865
         2.19     0.0299075     0.0299075
        2.195     0.0298403     0.0298403
          2.2     0.0297291     0.0297291
        2.205      0.029588      0.029588
         2.21     0.0295144     0.0295144
        2.215     0.0294618     0.0294618
         2.22     0.0292929     0.0292929
        2.225     0.0291958     0.0291958
         2.23     0.0290936     0.0290936
        2.235     0.0289931     0.0289931
         2.24     0.0288912     0.0288912
        2.245      0.028788      0.028788
         2.25     0.0286834     0.0286834
        2.255     0.0285774     0.0285774
         2.26     0.0284707     0.0284707
        2.265     0.0283628     0.0283628
         2.27     0.0282551     0.0282551
        2.275     0.0281501     0.0281501
         2.28     0.0280615     0.0280615
        2.285     0.0279399     0.0279399
         2.29     0.0277393     0.0277393
        2.295     0.0276193     0.0276193
          2.3     0.0274997     0.0274997
        2.305     0.0273739      0.027374
         2.31     0.0272484     0.0272484
        2.315     0.0271268     0.0271268
         2.32     0.0270034     0.0270034
        2.325     0.0268729     0.0268729
         2.33     0.0267433     0.0267433
        2.335     0.0266153     0.0266153
         2.34      0.026476      0.026476
        2.345     0.0263384     0.0263384
         2.35     0.0262003     0.0262003
        2.355     0.0260619     0.0260619
         2.36     0.0259226     0.0259226
        2.365     0.0257823     0.0257823
         2.37     0.0256415     0.0256415
        2.375      0.025502      0.025502
         2.38     0.0253786     0.0253786
        2.385     0.0252449     0.0252449
         2.39     0.0251031     0.0251031
        2.395     0.0248561     0.0248561
          2.4     0.0247026     0.0247026
        2.405     0.0245478     0.0245478
         2.41     0.0243913     0.0243913
        2.415     0.0242332     0.0242332
         2.42     0.0240733     0.0240733
        2.425     0.0239131     0.0239131
         2.43     0.0237515     0.0237515
        2.435     0.0235887     0.0235887
         2.44     0.0234303     0.0234303
        2.445     0.0232486     0.0232486
         2.45     0.0230773     0.0230773
        2.455     0.0229045     0.0229045
         2.46     0.0227322     0.0227322
        2.465     0.0225569     0.0225569
         2.47     0.0223797     0.0223797
        2.475     0.0222018     0.0222018
         2.48     0.0220228     0.0220228
        2.485     0.0218421     0.0218421
         2.49     0.0216599     0.0216599
        2.495     0.0214765     0.0214765
          2.5     0.0212925     0.0212925
        2.505     0.0211093     0.0211093
         2.51     0.0209346     0.0209346
        2.515     0.0208201     0.0208201
         2.52     0.0205118     0.0205118
        2.525     0.0203169     0.0203169
         2.53     0.0201208     0.0201208
        2.535      0.019923      0.019923
         2.54     0.0197236     0.0197236
        2.545     0.0195227     0.0195227
         2.55     0.0193205     0.0193205
        2.555     0.0191164     0.0191164
         2.56     0.0189081     0.0189081
        2.565     0.0187007     0.0187007
         2.57     0.0184912     0.0184912
        2.575     0.0182792     0.0182792
         2.58     0.0180633     0.0180633
        2.585     0.0178486     0.0178486
         2.59      0.017635      0.017635
        2.595     0.0173804     0.0173804
          2.6     0.0172111     0.0172111
        2.605     0.0170018     0.0170018
         2.61     0.0167613     0.0167613
        2.615     0.0165387     0.0165387
         2.62     0.0163162     0.0163162
        2.625     0.0160903     0.0160903
         2.63     0.0158632     0.0158632
        2.635     0.0156354     0.0156354
         2.64     0.0154082     0.0154082
        2.645     0.0151847     0.0151847
         2.65     0.0149718     0.0149718
        2.655     0.0146816     0.0146816
         2.66     0.0144172     0.0144172
        2.665     0.0141883     0.0141883
         2.67     0.0139677     0.0139677
        2.675     0.0137544     0.0137544
         2.68     0.0134108     0.0134108
        2.685      0.013156      0.013156
         2.69     0.0129104     0.0129104
        2.695     0.0126641     0.0126641
          2.7     0.0124149     0.0124149
        2.705     0.0121608     0.0121608
         2.71     0.0119087     0.0119087
        2.715     0.0116555     0.0116555
         2.72     0.0114053     0.0114053
        2.725     0.0111542     0.0111542
         2.73     0.0108846     0.0108846
        2.735     0.0106105     0.0106106
         2.74     0.0103737     0.0103737
        2.745     0.0101548     0.0101548
         2.75    0.00975238    0.00975239
        2.755    0.00948025    0.00948026
         2.76    0.00920863    0.00920864
        2.765    0.00893563    0.00893564
         2.77    0.00866151    0.00866152
        2.775    0.00838323    0.00838324
         2.78    0.00810386    0.00810387
        2.785    0.00782311    0.00782313
         2.79    0.00754133    0.00754134
        2.795    0.00725822    0.00725823
          2.8    0.00697474    0.00697475
        2.805    0.00669375    0.00669377
         2.81    0.00639028    0.00639029
        2.815    0.00609528    0.00609529
         2.82    0.00580146    0.00580147
        2.825    0.00550672    0.00550674
         2.83    0.00521102    0.00521104
        2.835    0.00491437    0.00491439
         2.84    0.00461741    0.00461742
        2.845    0.00433233    0.00433234
         2.85    0.00409022    0.00409023
        2.855    0.00368456    0.00368458
         2.86     0.0033762    0.00337621
        2.865    0.00306635    0.00306637
         2.87    0.00275437    0.00275438
        2.875    0.00243716    0.00243717
         2.88    0.00212666    0.00212668
        2.885    0.00182288     0.0018229
         2.89    0.00148273    0.00148274
        2.895    0.00112829    0.00112831
          2.9    0.00085034   0.000850358
        2.905   0.000527247   0.000527264
         2.91   0.000201868   0.000201887
        2.915  -0.000125531  -0.000125512
         2.92  -0.000455015  -0.000454997
        2.925   -0.00078594  -0.000785921
         2.93   -0.00111886   -0.00111884
        2.935   -0.00145355   -0.00145353
         2.94   -0.00179028   -0.00179026
        2.945   -0.00212832    -0.0021283
         2.95   -0.00246814   -0.00246812
        2.955   -0.00280991   -0.00280989
         2.96   -0.00315346   -0.00315344
        2.965   -0.00349835   -0.00349833
         2.97   -0.00384509   -0.00384507
        2.975   -0.00419336   -0.00419334
         2.98   -0.00454275   -0.00454272
        2.985   -0.00489137   -0.00489135
         2.99   -0.00523753   -0.00523751
        2.995     -0.005612   -0.00561198
            3   -0.00596974   -0.00596972
        3.005   -0.00632878   -0.00632875
         3.01    -0.0066899   -0.00668987
        3.015   -0.00705271   -0.00705268
         3.02   -0.00741717   -0.00741715
        3.025   -0.00778344   -0.00778342
         3.03   -0.00815147   -0.00815144
        3.035   -0.00852124   -0.00852121
         3.04   -0.00889271   -0.00889268
        3.045    -0.0092656   -0.00926557
         3.05    -0.0096401   -0.00964007
        3.055    -0.0100165    -0.0100165
         3.06    -0.0103946    -0.0103946
        3.065    -0.0107754    -0.0107754
         3.07    -0.0111577    -0.0111576
        3.075    -0.0115407    -0.0115407
         3.08    -0.0119251    -0.0119251
        3.085    -0.0123119    -0.0123119
         3.09     -0.012701     -0.012701
        3.095    -0.0130915    -0.0130914
          3.1    -0.0134828    -0.0134828
        3.105    -0.0138799    -0.0138798
         3.11    -0.0142651    -0.0142651
        3.115     -0.014656     -0.014656
         3.12    -0.0150461    -0.0150461
        3.125    -0.0154327    -0.0154327
         3.13    -0.0158393    -0.0158392
        3.135    -0.0162137    -0.0162137
         3.14    -0.0166071    -0.0166071
        3.145    -0.0170869    -0.0170868
         3.15    -0.0174666    -0.0174665
        3.155    -0.0180046    -0.0180046
         3.16     -0.018416    -0.0184159
        3.165    -0.0188272    -0.0188271
         3.17    -0.0192401      -0.01924
        3.175    -0.0196539    -0.0196538
         3.18    -0.0200684    -0.0200684
        3.185    -0.0204965    -0.0204965
         3.19    -0.0209185    -0.0209184
        3.195    -0.0213396    -0.0213396
          3.2    -0.0217679    -0.0217678
        3.205    -0.0221945    -0.0221944
         3.21    -0.0226196    -0.0226196
        3.215    -0.0230384    -0.0230383
         3.22    -0.0234529    -0.0234529
        3.225    -0.0239346    -0.0239346
         3.23    -0.0243693    -0.0243693
        3.235    -0.0248026    -0.0248026
         3.24    -0.0252291    -0.0252291
        3.245    -0.0256846    -0.0256845
         3.25    -0.0261757    -0.0261757
        3.255    -0.0266212    -0.0266211
         3.26    -0.0270671    -0.0270671
        3.265    -0.0275148    -0.0275148
         3.27    -0.0279736    -0.0279736
        3.275    -0.0284263    -0.0284262
         3.28    -0.0288807    -0.0288806
        3.285    -0.0293368    -0.0293368
         3.29    -0.0297951    -0.0297951
        3.295    -0.0302552    -0.0302551
          3.3    -0.0307172    -0.0307172
        3.305     -0.031181    -0.0311809
         3.31    -0.0316466    -0.0316466
        3.315    -0.0321141     -0.032114
         3.32    -0.0325835    -0.0325834
        3.325    -0.0330544    -0.0330544
         3.33    -0.0335276    -0.0335275
        3.335    -0.0340026    -0.0340026
         3.34    -0.0344797    -0.0344796
        3.345    -0.0349598    -0.0349597
         3.35    -0.0354739    -0.0354738
        3.355    -0.0359154    -0.0359153
         3.36    -0.0363984    -0.0363983
        3.365    -0.0368825    -0.0368825
         3.37    -0.0373667    -0.0373666
        3.375    -0.0378448    -0.0378448
         3.38    -0.0383528    -0.0383527
        3.385    -0.0388476    -0.0388475
         3.39    -0.0393417    -0.0393416
        3.395    -0.0398367    -0.0398366
          3.4    -0.0403333    -0.0403332
        3.405    -0.0408321    -0.0408321
         3.41    -0.0413328    -0.0413327
        3.415    -0.0418354    -0.0418353
         3.42    -0.0423408    -0.0423407
        3.425    -0.0428494    -0.0428494
         3.43    -0.0433483    -0.0433482
        3.435    -0.0438566    -0.0438566
         3.44     -0.044367    -0.0443669
        3.445     -0.044879    -0.0448789
         3.45    -0.0453928    -0.0453927
        3.455     -0.045908     -0.045908
         3.46    -0.0464246    -0.0464245
        3.465     -0.046943     -0.046943
         3.47    -0.0474633    -0.0474632
        3.475    -0.0479851     -0.047985
         3.48    -0.0485083    -0.0485082
        3.485    -0.0490331    -0.0490331
         3.49    -0.0495599    -0.0495598
        3.495    -0.0500886    -0.0500885
          3.5      -0.05062    -0.0506199
        3.505    -0.0511572    -0.0511572
         3.51    -0.0516771     -0.051677
        3.515    -0.0522097    -0.0522096
         3.52    -0.0527431     -0.052743
        3.525    -0.0532716    -0.0532715
         3.53    -0.0538221     -0.053822
        3.535    -0.0543688    -0.0543688
         3.54    -0.0549107    -0.0549107
        3.545    -0.0554539    -0.0554538
         3.55    -0.0559986    -0.0559986
        3.555    -0.0565446    -0.0565445