# Probe 0 (2 -0.5 0)
# Probe 1 (2 0.5 0)
#       Probe             0             1
#        Time
        0.005             (0.958581 0.0298833 3.43604e-18)             (0.958581 -0.0298833 -2.7013e-18)
         0.01             (0.956774 0.0288751 -1.27765e-19)             (0.956774 -0.0288751 9.46609e-20)
        0.015             (0.956543 0.0290691 -6.02562e-21)             (0.956543 -0.0290691 4.77594e-21)
         0.02             (0.956317 0.0292653 -4.02473e-21)             (0.956317 -0.0292653 3.13238e-21)
        0.025             (0.956097 0.0294603 -3.59928e-21)             (0.956097 -0.0294603 2.7771e-21)
         0.03             (0.955885 0.0296526 -3.62461e-21)             (0.955885 -0.0296526 2.78427e-21)
        0.035             (0.955678 0.0298421 -3.79058e-21)             (0.955678 -0.0298421 2.90429e-21)
         0.04             (0.955476 0.0300289 -3.9774e-21)             (0.955476 -0.0300289 3.04115e-21)
        0.045             (0.955277 0.0302133 -4.14943e-21)             (0.955277 -0.0302133 3.16608e-21)
         0.05             (0.955082 0.0303954 -4.29082e-21)             (0.955082 -0.0303954 3.26633e-21)
        0.055             (0.954889 0.0305756 -4.40683e-21)             (0.954889 -0.0305756 3.34628e-21)
         0.06             (0.954698 0.0307541 -4.49782e-21)             (0.954698 -0.0307541 3.40636e-21)
        0.065             (0.954509 0.030931 -4.57092e-21)             (0.954509 -0.030931 3.45229e-21)
         0.07             (0.954322 0.0311066 -4.63065e-21)             (0.954322 -0.0311066 3.48776e-21)
        0.075             (0.954135 0.031281 -4.67706e-21)             (0.954135 -0.031281 3.51289e-21)
         0.08             (0.953949 0.0314543 -4.71871e-21)             (0.953949 -0.0314543 3.53443e-21)
        0.085             (0.953764 0.0316266 -4.75448e-21)             (0.953764 -0.0316266 3.55156e-21)
         0.09             (0.95358 0.0317979 -4.78822e-21)             (0.95358 -0.0317979 3.56731e-21)
        0.095             (0.953396 0.0319685 -4.81761e-21)             (0.953396 -0.0319685 3.57993e-21)
          0.1             (0.953213 0.0321382 -4.84644e-21)             (0.953213 -0.0321382 3.59233e-21)
        0.105             (0.95303 0.0323073 -4.87134e-21)             (0.95303 -0.0323073 3.60188e-21)
         0.11             (0.952847 0.0324756 -4.89817e-21)             (0.952847 -0.0324756 3.61317e-21)
        0.115             (0.952664 0.0326434 -4.92405e-21)             (0.952664 -0.0326434 3.62398e-21)
         0.12             (0.952482 0.0328107 -4.95016e-21)             (0.952482 -0.0328107 3.63517e-21)
        0.125             (0.9523 0.0329774 -4.97778e-21)             (0.9523 -0.0329774 3.64778e-21)
         0.13             (0.952118 0.0331436 -5.00381e-21)             (0.952118 -0.0331436 3.65939e-21)
        0.135             (0.951936 0.0333093 -5.02938e-21)             (0.951936 -0.0333093 3.67082e-21)
         0.14             (0.951754 0.0334747 -5.05601e-21)             (0.951754 -0.0334747 3.68328e-21)
        0.145             (0.951572 0.0336397 -5.08269e-21)             (0.951572 -0.0336397 3.69595e-21)
         0.15             (0.951391 0.0338044 -5.10992e-21)             (0.951391 -0.0338044 3.70929e-21)
        0.155             (0.951209 0.0339687 -5.13945e-21)             (0.951209 -0.0339687 3.7246e-21)
         0.16             (0.951028 0.0341327 -5.16603e-21)             (0.951028 -0.0341327 3.7378e-21)
        0.165             (0.950846 0.0342965 -5.19324e-21)             (0.950846 -0.0342965 3.75166e-21)
         0.17             (0.950665 0.0344601 -5.21962e-21)             (0.950665 -0.0344601 3.76504e-21)
        0.175             (0.950483 0.0346235 -5.24479e-21)             (0.950483 -0.0346235 3.77762e-21)
         0.18             (0.950302 0.0347868 -5.27165e-21)             (0.950302 -0.0347868 3.79168e-21)
        0.185             (0.95012 0.03495 -5.29926e-21)             (0.95012 -0.03495 3.80646e-21)
         0.19             (0.949939 0.035113 -5.32552e-21)             (0.949939 -0.035113 3.82034e-21)
        0.195             (0.949757 0.035276 -5.35185e-21)             (0.949757 -0.035276 3.83443e-21)
          0.2             (0.949576 0.0354389 -5.37821e-21)             (0.949576 -0.0354389 3.84868e-21)
        0.205             (0.949394 0.0356018 -5.40543e-21)             (0.949394 -0.0356018 3.86374e-21)
         0.21             (0.949212 0.0357648 -5.43068e-21)             (0.949212 -0.0357648 3.87735e-21)
        0.215             (0.94903 0.0359277 -5.4567e-21)             (0.94903 -0.0359277 3.89169e-21)
         0.22             (0.948848 0.0360908 -5.48098e-21)             (0.948848 -0.0360908 3.90479e-21)
        0.225             (0.948666 0.0362539 -5.50558e-21)             (0.948666 -0.0362539 3.91823e-21)
         0.23             (0.948484 0.0364171 -5.52883e-21)             (0.948484 -0.0364171 3.93072e-21)
        0.235             (0.948302 0.0365806 -5.55183e-21)             (0.948302 -0.0365806 3.94315e-21)
         0.24             (0.948119 0.0367441 -5.57589e-21)             (0.948119 -0.0367441 3.95651e-21)
        0.245             (0.947936 0.0369079 -5.59926e-21)             (0.947936 -0.0369079 3.96944e-21)
         0.25             (0.947754 0.0370719 -5.62248e-21)             (0.947754 -0.0370719 3.98236e-21)
        0.255             (0.94757 0.0372361 -5.64583e-21)             (0.94757 -0.0372361 3.99544e-21)
         0.26             (0.947387 0.0374006 -5.66982e-21)             (0.947387 -0.0374006 4.0091e-21)
        0.265             (0.947204 0.0375654 -5.69123e-21)             (0.947204 -0.0375654 4.02082e-21)
         0.27             (0.94702 0.0377305 -5.71157e-21)             (0.94702 -0.0377305 4.03177e-21)
        0.275             (0.946836 0.0378959 -5.73303e-21)             (0.946836 -0.0378959 4.04368e-21)
         0.28             (0.946652 0.0380617 -5.75459e-21)             (0.946652 -0.0380617 4.05573e-21)
        0.285             (0.946467 0.0382278 -5.77615e-21)             (0.946467 -0.0382278 4.06783e-21)
         0.29             (0.946283 0.0383943 -5.79703e-21)             (0.946283 -0.0383943 4.07948e-21)
        0.295             (0.946098 0.0385612 -5.81802e-21)             (0.946098 -0.0385612 4.09124e-21)
          0.3             (0.945912 0.0387285 -5.83968e-21)             (0.945912 -0.0387285 4.1036e-21)
        0.305             (0.945727 0.0388963 -5.85767e-21)             (0.945727 -0.0388963 4.1131e-21)
         0.31             (0.945541 0.0390645 -5.87921e-21)             (0.945541 -0.0390645 4.12546e-21)
        0.315             (0.945355 0.0392332 -5.89965e-21)             (0.945355 -0.0392332 4.13703e-21)
         0.32             (0.945168 0.0394024 -5.9176e-21)             (0.945168 -0.0394024 4.14665e-21)
        0.325             (0.944981 0.0395721 -5.93575e-21)             (0.944981 -0.0395721 4.15647e-21)
         0.33             (0.944794 0.0397423 -5.95512e-21)             (0.944794 -0.0397423 4.1673e-21)
        0.335             (0.944607 0.039913 -5.97459e-21)             (0.944607 -0.039913 4.17824e-21)
         0.34             (0.944419 0.0400844 -5.99293e-21)             (0.944419 -0.0400844 4.18834e-21)
        0.345             (0.944231 0.0402562 -6.01007e-21)             (0.944231 -0.0402562 4.19752e-21)
         0.35             (0.944042 0.0404287 -6.02925e-21)             (0.944042 -0.0404287 4.2083e-21)
        0.355             (0.943853 0.0406018 -6.04914e-21)             (0.943853 -0.0406018 4.21964e-21)
         0.36             (0.943664 0.0407754 -6.06851e-21)             (0.943664 -0.0407754 4.23061e-21)
        0.365             (0.943474 0.0409497 -6.08411e-21)             (0.943474 -0.0409497 4.23881e-21)
         0.37             (0.943284 0.0411247 -6.09774e-21)             (0.943284 -0.0411247 4.24555e-21)
        0.375             (0.943094 0.0413004 -6.1135e-21)             (0.943094 -0.0413004 4.25398e-21)
         0.38             (0.942903 0.0414768 -6.13135e-21)             (0.942903 -0.0414768 4.26395e-21)
        0.385             (0.942711 0.0416539 -6.14667e-21)             (0.942711 -0.0416539 4.2719e-21)
         0.39             (0.94252 0.0418317 -6.16495e-21)             (0.94252 -0.0418317 4.28217e-21)
        0.395             (0.942328 0.0420102 -6.1801e-21)             (0.942328 -0.0420102 4.29001e-21)
          0.4             (0.942135 0.0421895 -6.19688e-21)             (0.942135 -0.0421895 4.29914e-21)
        0.405             (0.941942 0.0423694 -6.21396e-21)             (0.941942 -0.0423694 4.30855e-21)
         0.41             (0.941748 0.0425502 -6.23024e-21)             (0.941748 -0.0425502 4.31731e-21)
        0.415             (0.941554 0.0427317 -6.2473e-21)             (0.941554 -0.0427317 4.32668e-21)
         0.42             (0.94136 0.042914 -6.2637e-21)             (0.94136 -0.042914 4.33558e-21)
        0.425             (0.941165 0.0430971 -6.28031e-21)             (0.941165 -0.0430971 4.34465e-21)
         0.43             (0.94097 0.0432809 -6.29741e-21)             (0.94097 -0.0432809 4.35409e-21)
        0.435             (0.940774 0.0434656 -6.31429e-21)             (0.940774 -0.0434656 4.36335e-21)
         0.44             (0.940578 0.0436512 -6.33059e-21)             (0.940578 -0.0436512 4.37219e-21)
        0.445             (0.940381 0.0438375 -6.34711e-21)             (0.940381 -0.0438375 4.3812e-21)
         0.45             (0.940184 0.0440247 -6.36414e-21)             (0.940184 -0.0440247 4.39063e-21)
        0.455             (0.939986 0.0442128 -6.37886e-21)             (0.939986 -0.0442128 4.39818e-21)
         0.46             (0.939788 0.0444018 -6.39678e-21)             (0.939788 -0.0444018 4.40828e-21)
        0.465             (0.93959 0.0445916 -6.41403e-21)             (0.93959 -0.0445916 4.41784e-21)
         0.47             (0.93939 0.0447824 -6.42674e-21)             (0.93939 -0.0447824 4.42386e-21)
        0.475             (0.939191 0.044974 -6.44265e-21)             (0.939191 -0.044974 4.43239e-21)
         0.48             (0.938991 0.0451666 -6.4584e-21)             (0.938991 -0.0451666 4.4408e-21)
        0.485             (0.93879 0.0453602 -6.47458e-21)             (0.93879 -0.0453602 4.44952e-21)
         0.49             (0.938589 0.0455547 -6.49061e-21)             (0.938589 -0.0455547 4.45813e-21)
        0.495             (0.938387 0.0457501 -6.50706e-21)             (0.938387 -0.0457501 4.46707e-21)
          0.5             (0.938185 0.0459465 -6.52249e-21)             (0.938185 -0.0459465 4.47519e-21)
        0.505             (0.937982 0.0461439 -6.53622e-21)             (0.937982 -0.0461439 4.48197e-21)
         0.51             (0.937779 0.0463423 -6.55214e-21)             (0.937779 -0.0463423 4.49046e-21)
        0.515             (0.937575 0.0465417 -6.56855e-21)             (0.937575 -0.0465417 4.49931e-21)
         0.52             (0.93737 0.0467422 -6.58514e-21)             (0.93737 -0.0467422 4.50829e-21)
        0.525             (0.937165 0.0469436 -6.60141e-21)             (0.937165 -0.0469436 4.51702e-21)
         0.53             (0.93696 0.0471461 -6.61808e-21)             (0.93696 -0.0471461 4.52602e-21)
        0.535             (0.936754 0.0473496 -6.63404e-21)             (0.936754 -0.0473496 4.53435e-21)
         0.54             (0.936548 0.047554 -6.65556e-21)             (0.936548 -0.047554 4.54691e-21)
        0.545             (0.93634 0.0477596 -6.67053e-21)             (0.93634 -0.0477596 4.55463e-21)
         0.55             (0.936133 0.0479664 -6.67865e-21)             (0.936133 -0.0479664 4.55727e-21)
        0.555             (0.935924 0.0481743 -6.68939e-21)             (0.935924 -0.0481743 4.56183e-21)
         0.56             (0.935715 0.0483834 -6.70213e-21)             (0.935715 -0.0483834 4.5678e-21)
        0.565             (0.935506 0.0485936 -6.71938e-21)             (0.935506 -0.0485936 4.5771e-21)
         0.57             (0.935296 0.048805 -6.73127e-21)             (0.935296 -0.048805 4.58246e-21)
        0.575             (0.935085 0.0490175 -6.747e-21)             (0.935085 -0.0490175 4.59061e-21)
         0.58             (0.934874 0.0492312 -6.76527e-21)             (0.934874 -0.0492312 4.60061e-21)
        0.585             (0.934662 0.049446 -6.78093e-21)             (0.934662 -0.049446 4.60873e-21)
         0.59             (0.934449 0.049662 -6.79421e-21)             (0.934449 -0.0496621 4.61501e-21)
        0.595             (0.934236 0.0498793 -6.81124e-21)             (0.934236 -0.0498793 4.62406e-21)
          0.6             (0.934023 0.0500977 -6.82882e-21)             (0.934023 -0.0500977 4.63351e-21)
        0.605             (0.933808 0.0503172 -6.84797e-21)             (0.933808 -0.0503172 4.64414e-21)
         0.61             (0.933594 0.0505381 -6.86043e-21)             (0.933594 -0.0505381 4.64971e-21)
        0.615             (0.933378 0.0507601 -6.87737e-21)             (0.933378 -0.0507601 4.65866e-21)
         0.62             (0.933162 0.0509834 -6.8965e-21)             (0.933162 -0.0509834 4.66926e-21)
        0.625             (0.932945 0.051208 -6.9099e-21)             (0.932945 -0.051208 4.67528e-21)
         0.63             (0.932728 0.0514338 -6.92597e-21)             (0.932728 -0.0514338 4.68337e-21)
        0.635             (0.93251 0.0516609 -6.94338e-21)             (0.93251 -0.0516609 4.6925e-21)
         0.64             (0.932292 0.0518892 -6.96019e-21)             (0.932292 -0.0518892 4.7012e-21)
        0.645             (0.932073 0.0521189 -6.97446e-21)             (0.932073 -0.0521189 4.70795e-21)
         0.65             (0.931853 0.0523499 -6.99198e-21)             (0.931853 -0.0523499 4.71712e-21)
        0.655             (0.931633 0.0525822 -7.00962e-21)             (0.931633 -0.0525822 4.72635e-21)
         0.66             (0.931412 0.0528159 -7.02754e-21)             (0.931412 -0.0528159 4.73577e-21)
        0.665             (0.93119 0.0530508 -7.04492e-21)             (0.93119 -0.0530508 4.74475e-21)
         0.67             (0.930968 0.0532871 -7.06151e-21)             (0.930968 -0.0532871 4.75305e-21)
        0.675             (0.930745 0.0535248 -7.07963e-21)             (0.930745 -0.0535248 4.76253e-21)
         0.68             (0.930522 0.0537638 -7.09946e-21)             (0.930522 -0.0537638 4.77326e-21)
        0.685             (0.930298 0.0540042 -7.11529e-21)             (0.930298 -0.0540042 4.78096e-21)
         0.69             (0.930073 0.054246 -7.13343e-21)             (0.930073 -0.054246 4.79034e-21)
        0.695             (0.929848 0.0544892 -7.15187e-21)             (0.929848 -0.0544892 4.7999e-21)
          0.7             (0.929622 0.0547338 -7.17295e-21)             (0.929622 -0.0547338 4.81139e-21)
        0.705             (0.929396 0.0549796 -7.20023e-21)             (0.929396 -0.0549796 4.82742e-21)
         0.71             (0.929169 0.055227 -7.21498e-21)             (0.929169 -0.055227 4.83426e-21)
        0.715             (0.928941 0.055476 -7.22181e-21)             (0.928941 -0.055476 4.83526e-21)
         0.72             (0.928713 0.0557264 -7.24279e-21)             (0.928713 -0.0557264 4.84661e-21)
        0.725             (0.928484 0.0559783 -7.25921e-21)             (0.928484 -0.0559783 4.85443e-21)
         0.73             (0.928254 0.0562318 -7.2707e-21)             (0.928254 -0.0562318 4.85869e-21)
        0.735             (0.928024 0.0564868 -7.2918e-21)             (0.928024 -0.0564868 4.87e-21)
         0.74             (0.927793 0.0567432 -7.31701e-21)             (0.927793 -0.0567432 4.88431e-21)
        0.745             (0.927561 0.0570012 -7.32756e-21)             (0.927561 -0.0570013 4.88777e-21)
         0.75             (0.927329 0.0572609 -7.34479e-21)             (0.927329 -0.0572609 4.89608e-21)
        0.755             (0.927096 0.057522 -7.36544e-21)             (0.927096 -0.057522 4.9069e-21)
         0.76             (0.926863 0.0577846 -7.38689e-21)             (0.926863 -0.0577846 4.91831e-21)
        0.765             (0.926629 0.0580488 -7.40997e-21)             (0.926629 -0.0580488 4.9309e-21)
         0.77             (0.926394 0.0583146 -7.43048e-21)             (0.926394 -0.0583146 4.94149e-21)
        0.775             (0.926159 0.058582 -7.44188e-21)             (0.926159 -0.058582 4.94526e-21)
         0.78             (0.925923 0.058851 -7.46306e-21)             (0.925923 -0.058851 4.95632e-21)
        0.785             (0.925686 0.0591217 -7.4844e-21)             (0.925686 -0.0591217 4.96745e-21)
         0.79             (0.925449 0.0593939 -7.50569e-21)             (0.925449 -0.0593939 4.97849e-21)
        0.795             (0.925211 0.0596678 -7.52736e-21)             (0.925211 -0.0596678 4.98979e-21)
          0.8             (0.924973 0.0599433 -7.54981e-21)             (0.924973 -0.0599433 5.00162e-21)
        0.805             (0.924734 0.0602204 -7.57546e-21)             (0.924734 -0.0602204 5.0158e-21)
         0.81             (0.924494 0.0604992 -7.58962e-21)             (0.924494 -0.0604992 5.02143e-21)
        0.815             (0.924254 0.0607798 -7.6079e-21)             (0.924254 -0.0607798 5.02992e-21)
         0.82             (0.924013 0.061062 -7.62967e-21)             (0.924013 -0.0610621 5.04109e-21)
        0.825             (0.923771 0.061346 -7.65149e-21)             (0.923771 -0.061346 5.05224e-21)
         0.83             (0.923529 0.0616317 -7.67408e-21)             (0.923529 -0.0616317 5.06397e-21)
        0.835             (0.923287 0.0619191 -7.69484e-21)             (0.923287 -0.0619191 5.07416e-21)
         0.84             (0.923043 0.0622082 -7.7169e-21)             (0.923043 -0.0622082 5.08534e-21)
        0.845             (0.922799 0.0624991 -7.73993e-21)             (0.922799 -0.0624991 5.09721e-21)
         0.85             (0.922555 0.0627917 -7.76433e-21)             (0.922555 -0.0627917 5.11009e-21)
        0.855             (0.92231 0.0630861 -7.78901e-21)             (0.92231 -0.0630861 5.12312e-21)
         0.86             (0.922064 0.0633822 -7.81384e-21)             (0.922064 -0.0633822 5.13614e-21)
        0.865             (0.921818 0.0636801 -7.83382e-21)             (0.921818 -0.0636801 5.14544e-21)
         0.87             (0.921571 0.0639797 -7.86736e-21)             (0.921571 -0.0639797 5.16473e-21)
        0.875             (0.921324 0.0642812 -7.88256e-21)             (0.921324 -0.0642812 5.1707e-21)
         0.88             (0.921076 0.0645847 -7.90013e-21)             (0.921076 -0.0645847 5.1783e-21)
        0.885             (0.920827 0.0648901 -7.91334e-21)             (0.920827 -0.0648902 5.1827e-21)
         0.89             (0.920578 0.0651974 -7.94019e-21)             (0.920578 -0.0651974 5.19693e-21)
        0.895             (0.920329 0.0655065 -7.96925e-21)             (0.920329 -0.0655065 5.21276e-21)
          0.9             (0.920078 0.0658177 -7.97826e-21)             (0.920078 -0.0658177 5.21393e-21)
        0.905             (0.919827 0.0661308 -8.00281e-21)             (0.919827 -0.0661309 5.22636e-21)
         0.91             (0.919576 0.0664458 -8.0282e-21)             (0.919576 -0.0664458 5.23937e-21)
        0.915             (0.919323 0.0667627 -8.05528e-21)             (0.919323 -0.0667627 5.25359e-21)
         0.92             (0.919071 0.0670814 -8.08773e-21)             (0.919071 -0.0670814 5.2716e-21)
        0.925             (0.918818 0.0674023 -8.09623e-21)             (0.918818 -0.0674023 5.27207e-21)
         0.93             (0.918564 0.0677251 -8.12108e-21)             (0.918564 -0.0677251 5.28454e-21)
        0.935             (0.91831 0.0680499 -8.14955e-21)             (0.91831 -0.0680499 5.29965e-21)
         0.94             (0.918055 0.0683768 -8.16771e-21)             (0.918055 -0.0683768 5.30678e-21)
        0.945             (0.917799 0.0687056 -8.1923e-21)             (0.917799 -0.0687056 5.31878e-21)
         0.95             (0.917543 0.0690364 -8.21853e-21)             (0.917543 -0.0690364 5.332e-21)
        0.955             (0.917287 0.0693693 -8.2466e-21)             (0.917287 -0.0693693 5.34654e-21)
         0.96             (0.91703 0.069704 -8.2785e-21)             (0.91703 -0.069704 5.36377e-21)
        0.965             (0.916772 0.070041 -8.29045e-21)             (0.916772 -0.070041 5.36631e-21)
         0.97             (0.916514 0.0703801 -8.31448e-21)             (0.916514 -0.0703801 5.37771e-21)
        0.975             (0.916256 0.0707213 -8.34072e-21)             (0.916256 -0.0707213 5.39065e-21)
         0.98             (0.915997 0.0710645 -8.36784e-21)             (0.915997 -0.0710645 5.40419e-21)
        0.985             (0.915737 0.0714098 -8.39343e-21)             (0.915737 -0.0714099 5.41655e-21)
         0.99             (0.915477 0.0717573 -8.41989e-21)             (0.915477 -0.0717573 5.4295e-21)
        0.995             (0.915217 0.0721068 -8.44657e-21)             (0.915217 -0.0721069 5.44254e-21)
            1             (0.914956 0.0724585 -8.47345e-21)             (0.914956 -0.0724585 5.45568e-21)
        1.005             (0.914694 0.0728123 -8.50049e-21)             (0.914694 -0.0728123 5.46887e-21)
         1.01             (0.914432 0.0731683 -8.52864e-21)             (0.914432 -0.0731683 5.48283e-21)
        1.015             (0.91417 0.0735263 -8.55942e-21)             (0.91417 -0.0735263 5.49868e-21)
         1.02             (0.913907 0.0738866 -8.58518e-21)             (0.913907 -0.0738866 5.51075e-21)
        1.025             (0.913644 0.0742491 -8.60277e-21)             (0.913644 -0.0742491 5.51669e-21)
         1.03             (0.91338 0.0746138 -8.6318e-21)             (0.91338 -0.0746139 5.53103e-21)
        1.035             (0.913116 0.0749807 -8.66392e-21)             (0.913116 -0.0749807 5.54758e-21)
         1.04             (0.912852 0.0753496 -8.70233e-21)             (0.912852 -0.0753496 5.56841e-21)
        1.045             (0.912587 0.075721 -8.71342e-21)             (0.912587 -0.075721 5.56972e-21)
         1.05             (0.912322 0.0760944 -8.75285e-21)             (0.912322 -0.0760944 5.59129e-21)
        1.055             (0.912056 0.0764704 -8.75988e-21)             (0.912056 -0.0764704 5.58956e-21)
         1.06             (0.911789 0.0768487 -8.78864e-21)             (0.911789 -0.0768487 5.60334e-21)
        1.065             (0.911523 0.0772292 -8.8182e-21)             (0.911523 -0.0772292 5.61764e-21)
         1.07             (0.911256 0.077612 -8.85079e-21)             (0.911256 -0.077612 5.63405e-21)
        1.075             (0.910988 0.0779969 -8.88509e-21)             (0.910988 -0.0779969 5.65165e-21)
         1.08             (0.910721 0.0783844 -8.89565e-21)             (0.910721 -0.0783844 5.65208e-21)
        1.085             (0.910452 0.0787742 -8.9247e-21)             (0.910452 -0.0787742 5.66577e-21)
         1.09             (0.910184 0.0791663 -8.9546e-21)             (0.910184 -0.0791663 5.68004e-21)
        1.095             (0.909915 0.0795607 -8.98517e-21)             (0.909915 -0.0795608 5.69469e-21)
          1.1             (0.909646 0.0799574 -9.01946e-21)             (0.909646 -0.0799574 5.71206e-21)
        1.105             (0.909376 0.0803565 -9.04094e-21)             (0.909376 -0.0803565 5.71978e-21)
         1.11             (0.909107 0.0807578 -9.07903e-21)             (0.909107 -0.0807578 5.73964e-21)
        1.115             (0.908836 0.0811617 -9.09029e-21)             (0.908836 -0.0811618 5.74008e-21)
         1.12             (0.908566 0.0815681 -9.11864e-21)             (0.908566 -0.0815681 5.75284e-21)
        1.125             (0.908295 0.0819768 -9.14809e-21)             (0.908295 -0.0819768 5.76625e-21)
         1.13             (0.908024 0.0823879 -9.17704e-21)             (0.908024 -0.0823879 5.7792e-21)
        1.135             (0.907752 0.0828013 -9.20693e-21)             (0.907753 -0.0828013 5.79284e-21)
         1.14             (0.907481 0.0832172 -9.23656e-21)             (0.907481 -0.0832172 5.8062e-21)
        1.145             (0.907209 0.0836354 -9.26645e-21)             (0.907209 -0.0836354 5.81969e-21)
         1.15             (0.906937 0.084056 -9.29661e-21)             (0.906937 -0.0840561 5.8333e-21)
        1.155             (0.906664 0.0844791 -9.3277e-21)             (0.906664 -0.0844791 5.84756e-21)
         1.16             (0.906392 0.0849045 -9.35947e-21)             (0.906392 -0.0849045 5.86222e-21)
        1.165             (0.906119 0.0853322 -9.39485e-21)             (0.906119 -0.0853322 5.87946e-21)
         1.17             (0.905846 0.0857624 -9.42394e-21)             (0.905846 -0.0857624 5.892e-21)
        1.175             (0.905573 0.0861952 -9.4395e-21)             (0.905573 -0.0861953 5.89461e-21)
         1.18             (0.9053 0.0866305 -9.47006e-21)             (0.9053 -0.0866305 5.9081e-21)
        1.185             (0.905026 0.0870682 -9.50101e-21)             (0.905026 -0.0870682 5.9218e-21)
         1.19             (0.904752 0.0875083 -9.53184e-21)             (0.904752 -0.0875084 5.93533e-21)
        1.195             (0.904478 0.0879509 -9.56271e-21)             (0.904478 -0.0879509 5.94882e-21)
          1.2             (0.904204 0.0883959 -9.59392e-21)             (0.904204 -0.0883959 5.96248e-21)
        1.205             (0.90393 0.0888433 -9.62514e-21)             (0.90393 -0.0888433 5.97604e-21)
         1.21             (0.903655 0.0892931 -9.65718e-21)             (0.903655 -0.0892931 5.99009e-21)
        1.215             (0.903381 0.0897453 -9.69447e-21)             (0.903381 -0.0897453 6.00783e-21)
         1.22             (0.903107 0.0901998 -9.72769e-21)             (0.903107 -0.0901998 6.02265e-21)
        1.225             (0.902832 0.090657 -9.74961e-21)             (0.902832 -0.090657 6.02949e-21)
         1.23             (0.902557 0.0911165 -9.78903e-21)             (0.902557 -0.0911165 6.04858e-21)
        1.235             (0.902283 0.0915785 -9.8129e-21)             (0.902283 -0.0915785 6.05619e-21)
         1.24             (0.902008 0.0920432 -9.83097e-21)             (0.902008 -0.0920432 6.05999e-21)
        1.245             (0.901733 0.0925103 -9.86467e-21)             (0.901733 -0.0925103 6.07485e-21)
         1.25             (0.901458 0.0929797 -9.90494e-21)             (0.901458 -0.0929798 6.09442e-21)
        1.255             (0.901183 0.0934518 -9.9212e-21)             (0.901183 -0.0934518 6.09612e-21)
         1.26             (0.900908 0.0939263 -9.95284e-21)             (0.900908 -0.0939263 6.10911e-21)
        1.265             (0.900633 0.094403 -9.99713e-21)             (0.900633 -0.094403 6.13108e-21)
         1.27             (0.900357 0.0948826 -1.00046e-20)             (0.900357 -0.0948826 6.12685e-21)
        1.275             (0.900082 0.0953645 -1.00364e-20)             (0.900082 -0.0953646 6.13979e-21)
         1.28             (0.899807 0.095849 -1.00681e-20)             (0.899807 -0.095849 6.15256e-21)
        1.285             (0.899532 0.0963358 -1.01e-20)             (0.899532 -0.0963358 6.16541e-21)
         1.29             (0.899257 0.096825 -1.01322e-20)             (0.899257 -0.096825 6.17844e-21)
        1.295             (0.898982 0.0973166 -1.01641e-20)             (0.898982 -0.0973166 6.19111e-21)
          1.3             (0.898707 0.0978106 -1.01962e-20)             (0.898707 -0.0978107 6.20388e-21)
        1.305             (0.898432 0.098307 -1.02278e-20)             (0.898432 -0.0983071 6.21617e-21)
         1.31             (0.898157 0.0988058 -1.02624e-20)             (0.898157 -0.0988058 6.23056e-21)
        1.315             (0.897883 0.0993067 -1.03054e-20)             (0.897883 -0.0993067 6.25087e-21)
         1.32             (0.897608 0.0998102 -1.03213e-20)             (0.897608 -0.0998102 6.25172e-21)
        1.325             (0.897334 0.100316 -1.03464e-20)             (0.897334 -0.100316 6.25906e-21)
         1.33             (0.897059 0.100825 -1.0378e-20)             (0.897059 -0.100825 6.27103e-21)
        1.335             (0.896785 0.101335 -1.04106e-20)             (0.896785 -0.101335 6.28366e-21)
         1.34             (0.896511 0.101848 -1.04391e-20)             (0.896511 -0.101849 6.29296e-21)
        1.345             (0.896237 0.102364 -1.04722e-20)             (0.896237 -0.102364 6.30561e-21)
         1.35             (0.895964 0.102882 -1.0502e-20)             (0.895964 -0.102882 6.31594e-21)
        1.355             (0.89569 0.103402 -1.05352e-20)             (0.89569 -0.103402 6.32864e-21)
         1.36             (0.895417 0.103924 -1.05667e-20)             (0.895417 -0.103924 6.34002e-21)
        1.365             (0.895144 0.104448 -1.05989e-20)             (0.895144 -0.104448 6.35176e-21)
         1.37             (0.894872 0.104975 -1.06318e-20)             (0.894872 -0.104975 6.364e-21)
        1.375             (0.894599 0.105504 -1.06662e-20)             (0.894599 -0.105504 6.37726e-21)
         1.38             (0.894327 0.106035 -1.07016e-20)             (0.894327 -0.106035 6.3911e-21)
        1.385             (0.894055 0.106569 -1.07207e-20)             (0.894055 -0.106569 6.39279e-21)
         1.39             (0.893783 0.107105 -1.07547e-20)             (0.893783 -0.107105 6.40547e-21)
        1.395             (0.893512 0.107642 -1.07987e-20)             (0.893512 -0.107642 6.4252e-21)
          1.4             (0.893241 0.108183 -1.08111e-20)             (0.893241 -0.108183 6.42206e-21)
        1.405             (0.89297 0.108725 -1.08448e-20)             (0.89297 -0.108725 6.434e-21)
         1.41             (0.8927 0.109269 -1.0872e-20)             (0.8927 -0.109269 6.44155e-21)
        1.415             (0.892429 0.109816 -1.08984e-20)             (0.892429 -0.109816 6.44835e-21)
         1.42             (0.89216 0.110365 -1.0932e-20)             (0.89216 -0.110365 6.46023e-21)