/*--------------------------------*- C++ -*----------------------------------*\
  =========                 |
  \\      /  F ield         | OpenFOAM: The Open Source CFD Toolbox
   \\    /   O peration     | Website:  https://openfoam.org
    \\  /    A nd           | Version:  7
     \\/     M anipulation  |
\*---------------------------------------------------------------------------*/
FoamFile
{
    version     2.0;
    format      ascii;
    class       surfaceScalarField;
    location    "5";
    object      phi;
}
// * * * * * * * * * * * * * * * * * * * * * * * * * * * * * * * * * * * * * //

dimensions      [0 3 -1 0 0 0 0];

internalField   nonuniform List<scalar> 
11850
(
-0.000113543
0.000113543
-2.96347e-11
-0.000314861
0.000201318
-5.13418e-11
-0.000567834
0.000252972
-5.74612e-11
-0.000857312
0.000289478
-5.5311e-11
-0.00117829
0.000320982
-4.5394e-11
-0.00152476
0.000346466
-2.77433e-11
0.000362422
-5.31829e-12
-0.000109125
0.000222668
-0.000303744
0.000395937
-0.000548072
0.0004973
-0.00082621
0.000567616
-0.00113213
0.000626903
-0.0014589
0.000673237
0.000699684
-0.000100591
0.000323259
-0.000282164
0.00057751
-0.00050965
0.000724786
-0.000765786
0.000823752
-0.00104265
0.000903771
-0.00133168
0.000962263
0.000989108
-8.8474e-05
0.000411733
-0.000251309
0.000740345
-0.000454603
0.00092808
-0.000679349
0.0010485
-0.000915144
0.00113957
-0.00115136
0.00119848
0.00121242
-7.35237e-05
0.000485257
-0.000212867
0.000879688
-0.000385804
0.00110102
-0.000571511
0.00123421
-0.000756844
0.0013249
-0.000929078
0.00137072
0.00135689
-5.66585e-05
0.000541915
-0.000168923
0.000991953
-0.000306785
0.00123888
-0.000447844
0.00137526
-0.00057632
0.00145337
-0.00067767
0.00147207
-0.000736444
0.00141567
0.00126474
-3.8901e-05
0.000580816
-0.000121834
0.00107489
-0.000221525
0.00133857
-0.000314515
0.00146826
-0.000382832
0.00152169
-0.000410668
0.0014999
-0.000382528
0.00138753
0.00116606
-2.13067e-05
0.000602123
-7.40866e-05
0.00112767
-0.000134231
0.00139871
-0.000177939
0.00151196
-0.000185754
0.0015295
-0.000141401
0.00145555
-3.05046e-05
0.00127663
0.000974756
-4.88885e-06
0.000607012
-2.81318e-05
0.00115091
-4.91202e-05
0.0014197
-4.44415e-05
0.00150729
5.55206e-06
0.00147951
0.000118162
0.00134294
0.00030573
0.00108906
0.000702043
9.45924e-06
0.000597553
1.3684e-05
0.00114668
2.99173e-05
0.00140347
8.02305e-05
0.00145697
0.000184376
0.00137537
0.00035769
0.00116963
0.000611812
0.000834943
0.000358934
2.1021e-05
0.000576532
4.94248e-05
0.00111828
9.94716e-05
0.00135342
0.000190991
0.00136545
0.000342861
0.0012235
0.000569307
0.000943181
0.000880861
0.000523389
-4.59258e-05
2.93285e-05
0.000547203
7.7763e-05
0.00106985
0.000156858
0.00127433
0.000284167
0.00123814
0.00047723
0.00103043
0.000749557
0.000670854
0.0011122
0.000160747
0.0015765
-0.000510226
-0.00135778
3.41837e-05
0.00051302
9.78766e-05
0.00100615
0.000200671
0.00117153
0.000358037
0.00108078
0.000586546
0.000801923
0.00090033
0.00035707
0.00131378
-0.000252704
0.00184289
-0.00103933
-0.00201835
3.56831e-05
0.000477336
0.000109773
0.000932063
0.000230928
0.00105038
0.000413376
0.00089833
0.000674073
0.000541226
0.00103005
1.0904e-06
0.00150129
-0.000723939
0.00210699
-0.00164504
-0.00276689
3.42132e-05
0.000443123
0.000114298
0.000851978
0.000249329
0.000915346
0.000453938
0.000693722
0.000747577
0.000247586
0.00115331
-0.000404646
0.00169495
-0.00126557
0.00238767
-0.00233776
-0.00359627
3.04219e-05
0.000412701
0.000113115
0.000769285
0.000259294
0.000769166
0.000486452
0.000466565
0.000819412
-8.53738e-05
0.00128708
-0.000872311
0.00191199
-0.00189048
0.00269017
-0.00311595
0.00357235
-0.00447845
-0.00586368
2.51652e-05
0.000387536
0.000108582
0.000685868
0.00026573
0.000612019
0.00051993
0.000212365
0.000903184
-0.000468628
0.00144649
-0.00141562
0.00215828
-0.00260227
0.00300126
-0.00395892
0.00389208
-0.00536928
-0.00670418
1.94278e-05
0.000368108
0.000103518
0.000601778
0.000274454
0.000441082
0.000564167
-7.73476e-05
0.00101089
-0.00091535
0.00163792
-0.00204265
0.0024241
-0.00338845
0.00329434
-0.00482917
0.00414741
-0.00622235
0.00489926
-0.00745603
-0.00847495
1.42159e-05
0.000353892
0.000100862
0.000515132
0.000291355
0.000250589
0.000627725
-0.000413718
0.00114886
-0.00143649
0.00185568
-0.00274947
0.00268736
-0.00422013
0.00354143
-0.00568323
0.00432164
-0.00700257
0.00497228
-0.00810667
-0.00898562
1.04319e-05
0.000343461
0.000103299
0.000422265
0.000321452
3.24361e-05
0.0007159
-0.000808166
0.00131517
-0.00203576
0.0020834
-0.00351769
0.00292262
-0.00505935
0.00372365
-0.00648427
0.00441287
-0.00769178
0.00496499
-0.00865879
0.00539159
-0.00941221
-0.01
8.94376e-06
0.000334517
0.000113006
0.000318202
0.000367845
-0.000222403
0.000828497
-0.00126882
0.00149841
-0.00270567
0.00229809
-0.00431738
0.00310788
-0.00586914
0.00383228
-0.00720867
0.00442705
-0.00828655
0.00489181
-0.00912355
0.00525119
-0.00977159
-0.0102865
9.77329e-06
0.000324744
0.000131084
0.000196892
0.000432061
-0.000523379
0.000962147
-0.0017989
0.00168544
-0.00342897
0.00248403
-0.00511596
0.00323745
-0.00662256
0.00387596
-0.00784717
0.00438269
-0.00879328
0.00477442
-0.00951528
0.0050817
-0.0100789
0.0053353
-0.01054
-0.0109381
1.33085e-05
0.000311435
0.000158221
5.19787e-05
0.000512853
-0.000878011
0.00110764
-0.00239369
0.00185937
-0.0041807
0.00262768
-0.00588427
0.00330892
-0.0073038
0.00386195
-0.0084002
0.00429134
-0.00922267
0.00462392
-0.00984786
0.00489128
-0.0103462
0.00512037
-0.0107691
-0.0111485
1.95326e-05
0.000291902
0.000194252
-0.000122741
0.00060689
-0.00129065
0.0012541
-0.0030409
0.00200743
-0.00493402
0.00272428
-0.00660113
0.00332738
-0.0079069
0.00380119
-0.00887402
0.00416515
-0.00958663
0.00445065
-0.0101334
0.00468727
-0.0105829
0.00489734
-0.0109792
0.00509578
-0.0113469
-0.0116984
2.82937e-05
0.000263609
0.000238439
-0.000332886
0.000709135
-0.00176135
0.00139082
-0.00372259
0.00212186
-0.00566506
0.00277475
-0.00725401
0.00330058
-0.00843273
0.00370416
-0.0092776
0.00401399
-0.00989646
0.00426213
-0.0103815
0.00447455
-0.0107953
0.00466895
-0.0111736
0.00485646
-0.0115344
0.00504403
-0.011886
-0.0122323
3.94059e-05
0.000224203
0.000289531
-0.000583011
0.000813578
-0.00228539
0.00150917
-0.00441818
0.00219978
-0.00635567
0.00278334
-0.00783758
0.00323685
-0.00888624
0.00357987
-0.00962062
0.00384539
-0.010162
0.0040636
-0.0105997
0.00425619
-0.0109879
0.00443677
-0.0113542
0.00461354
-0.0117112
0.00479169
-0.0120642
0.00497508
-0.0124157
-0.0127683
5.27464e-05
0.000171456
0.000345801
-0.000876066
0.000914064
-0.00285366
0.00160356
-0.00510768
0.00224184
-0.00699395
0.00275581
-0.00835155
0.00314398
-0.0092744
0.00343566
-0.0099123
0.0036649
-0.0103912
0.00385855
-0.0107934
0.00403407
-0.0111634
0.00420169
-0.0115218
0.00436744
-0.0118769
0.00453528
-0.012232
0.00470831
-0.0125887
0.00488901
-0.012949
-0.0133137
6.8288e-05
0.000103168
0.000405121
-0.0012129
0.00100503
-0.00345357
0.00167144
-0.00577408
0.00225089
-0.00757341
0.00269826
-0.00879892
0.00302873
-0.00960487
0.00327721
-0.0101608
0.00347642
-0.0105904
0.00364926
-0.0109662
0.00380933
-0.0113234
0.00396422
-0.0116767
0.00411841
-0.0120311
0.00427502
-0.0123886
0.00443663
-0.0127503
0.0046054
-0.0131177
0.00478381
-0.0134922
-0.0138779
8.60343e-05
1.71341e-05
0.000465133
-0.001592
0.00108213
-0.00407057
0.0017126
-0.00640455
0.00223085
-0.00809165
0.00261644
-0.0091845
0.00289668
-0.00988512
0.00310881
-0.0103729
0.0032827
-0.0107643
0.00343718
-0.0111207
0.00358264
-0.0114689
0.00372466
-0.0118187
0.00386664
-0.0121731
0.00401113
-0.0125331
0.0041603
-0.0128995
0.00431612
-0.0132736
0.00448064
-0.0136567
0.00465457
-0.0140519
0.00484176
-0.0144545
-0.0148911
0.000105883
-8.87487e-05
0.000523417
-0.00200953
0.00114256
-0.00468972
0.00172845
-0.00699043
0.00218597
-0.00854918
0.00251545
-0.00951398
0.00275231
-0.010122
0.0029336
-0.0105542
0.00308556
-0.0109163
0.00322324
-0.0112584
0.00335442
-0.0116001
0.00348323
-0.0119475
0.00361233
-0.0123022
0.00374385
-0.0126646
0.00387968
-0.0130354
0.00402157
-0.0134155
0.00417124
-0.0138063
0.00432954
-0.0142102
0.00449948
-0.0146245
-0.0150694
0.00467773
0.000127502
-0.00021625
0.000577622
-0.00245965
0.00118508
-0.00529718
0.00172124
-0.00752659
0.00212045
-0.00894839
0.00239966
-0.00979318
0.00259908
-0.0103214
0.00275384
-0.010709
0.00288623
-0.0110487
0.00300801
-0.0113801
0.00312493
-0.011717
0.0032401
-0.0120627
0.00335568
-0.0124178
0.00347346
-0.0127824
0.00359511
-0.013157
0.0037222
-0.0135425
0.00385619
-0.0139403
0.00399792
-0.0143519
0.00414992
-0.0147765
-0.0152287
0.00430926
0.000150289
-0.00036654
0.000625573
-0.00293494
0.0012097
-0.00588131
0.00169369
-0.00801058
0.00203812
-0.00929282
0.00227268
-0.0100277
0.00243967
-0.0104884
0.00257114
-0.0108404
0.00268555
-0.0111631
0.00279188
-0.0114865
0.00289438
-0.0118195
0.00299546
-0.0121638
0.00309689
-0.0125192
0.00320024
-0.0128857
0.00330698
-0.0132638
0.00341849
-0.0136541
0.00353601
-0.0140579
0.00366041
-0.0144763
0.00379368
-0.0149097
-0.0153685
0.00393351
0.000173461
-0.000540001
0.000665425
-0.0034269
0.00121729
-0.00643317
0.0016486
-0.00844189
0.00194238
-0.00958661
0.00213744
-0.0102228
0.00227606
-0.010627
0.00238664
-0.010951
0.00248407
-0.0112605
0.00257512
-0.0115775
0.00266296
-0.0119073
0.00274949
-0.0122503
0.00283621
-0.0126059
0.00292451
-0.012974
0.00301567
-0.0133549
0.00311092
-0.0137493
0.0032113
-0.0141582
0.00331764
-0.0145826
0.00343153
-0.0150236
-0.0154881
0.00355108
0.00019618
-0.000736181
0.000695819
-0.00392654
0.0012092
-0.00694655
0.00158872
-0.00882142
0.00183615
-0.00983403
0.00199624
-0.0103829
0.00210974
-0.0107405
0.00220113
-0.0110424
0.00228218
-0.0113415
0.00235796
-0.0116533
0.00243085
-0.0119802
0.0025024
-0.0123219
0.00257392
-0.0126774
0.00264661
-0.0130467
0.00272161
-0.0134299
0.00279997
-0.0138277
0.0028826
-0.0142409
0.00297028
-0.0146703
0.0030642
-0.0151175
-0.0155868
0.00316293
0.000217652
-0.000953833
0.000715987
-0.00442487
0.00118704
-0.0074176
0.00151661
-0.00915099
0.00172188
-0.0100393
0.00185093
-0.0105119
0.0019418
-0.0108314
0.00201518
-0.0111158
0.00208019
-0.0114066
0.0021406
-0.0117137
0.00219825
-0.0120379
0.00225444
-0.0123781
0.0023103
-0.0127333
0.00236689
-0.0131033
0.00242521
-0.0134882
0.00248617
-0.0138886
0.00255052
-0.0143052
0.00261899
-0.0147388
0.00269244
-0.015191
-0.0156641
0.00276976
0.000237163
-0.001191
0.000725741
-0.00491345
0.00115252
-0.00784438
0.00143457
-0.00943304
0.00160161
-0.0102063
0.0017029
-0.0106132
0.00177306
-0.0109015
0.00182921
-0.0111719
0.00187834
-0.0114557
0.00192323
-0.0117586
0.00196537
-0.01208
0.00200585
-0.0124185
0.00204566
-0.0127731
0.00208574
-0.0131434
0.00212694
-0.0135294
0.00217003
-0.0139317
0.00221566
-0.0143508
0.00226445
-0.0147876
0.00231701
-0.0152435
-0.0157196
0.00237249
0.00025407
-0.00144507
0.000725376
-0.00538476
0.00110731
-0.00822631
0.00134465
-0.00967038
0.00147703
-0.0103387
0.00155325
-0.0106894
0.00160413
-0.0109524
0.00164356
-0.0112114
0.00167684
-0.011489
0.00170607
-0.0117878
0.00173243
-0.0121064
0.0017569
-0.012443
0.00178033
-0.0127965
0.00180352
-0.0131666
0.00182723
-0.0135531
0.00185208
-0.0139565
0.00187861
-0.0143774
0.00190735
-0.0148163
0.00193866
-0.0152749
-0.0157528
0.00197188
0.000267797
-0.00171286
0.000715526
-0.00583249
0.00105301
-0.0085638
0.0012486
-0.00986597
0.00134951
-0.0104396
0.00140282
-0.0107427
0.00143545
-0.0109851
0.00145848
-0.0112344
0.00147589
-0.0115064
0.0014893
-0.0118012
0.00149968
-0.0121168
0.00150788
-0.0124512
0.00151464
-0.0128033
0.00152066
-0.0131726
0.00152656
-0.013559
0.00153286
-0.0139628
0.00153998
-0.0143845
0.00154837
-0.0148247
0.00155819
-0.0152847
-0.0157635
0.00156887
0.000277864
-0.00199073
0.000697086
-0.00625171
0.000991131
-0.00885784
0.00114794
-0.0100228
0.00122015
-0.0105118
0.00125228
-0.0107749
0.00126739
-0.0110002
0.00127421
-0.0112412
0.00127572
-0.0115079
0.00127317
-0.0117987
0.00126738
-0.012111
0.0012591
-0.0124429
0.00124896
-0.0127932
0.00123756
-0.0131612
0.0012254
-0.0135469
0.0012129
-0.0139504
0.00120039
-0.014372
0.00118819
-0.0148125
0.00117635
-0.0152728
-0.0157514
0.00116426
0.000283936
-0.00227466
0.00067124
-0.00663901
0.000923066
-0.00910967
0.00104393
-0.0101436
0.00108984
-0.0105578
0.00110212
-0.0107872
0.00110025
-0.0109983
0.00109096
-0.0112319
0.00107651
-0.0114934
0.00105789
-0.0117801
0.00103579
-0.0120889
0.00101085
-0.012418
0.00098364
-0.012766
0.000954626
-0.0131322
0.000924219
-0.0135165
0.000892753
-0.0139189
0.000860447
-0.0143397
0.000827506
-0.0147796
0.000793797
-0.0152391
-0.0157166
0.000759009
0.000284137
-0.0025588
0.000636128
-0.006991
0.00084687
-0.00932041
0.000934457
-0.0102312
0.000956243
-0.0105795
0.000949893
-0.0107808
0.000931567
-0.01098
0.000906405
-0.0112068
0.000876107
-0.0114631
0.00084148
-0.0117454
0.000803112
-0.0120505
0.000761552
-0.0123764
0.000717279
-0.0127217
0.000670672
-0.0130856
0.000622052
-0.0134679
0.000571631
-0.0138685
0.000519595
-0.0142877
0.000466068
-0.014726
0.00041039
-0.0151834
-0.0156596
0.000353327
0.000281683
-0.00284048
0.000598141
-0.00730746
0.000769997
-0.00949227
0.000826797
-0.010288
0.000826056
-0.0105788
0.000801712
-0.0107565
0.00076702
-0.0109453
0.000725856
-0.0111656
0.00067953
-0.0114168
0.000628678
-0.0116946
0.000573819
-0.0119957
0.000515401
-0.012318
0.000453808
-0.0126601
0.000389355
-0.0130211
0.000322308
-0.0134008
0.000252677
-0.0137988
0.000180646
-0.0142156
0.000106191
-0.0146516
2.99854e-05
-0.0151072
-0.0155787
-5.09234e-05
0.000275251
-0.00311573
0.000555563
-0.00758777
0.000690352
-0.00962706
0.000718522
-0.0103162
0.000696655
-0.0105569
0.000654922
-0.0107147
0.000604047
-0.0108944
0.000546916
-0.0111085
0.000484555
-0.0113545
0.000417469
-0.0116275
0.000346047
-0.0119242
0.000270745
-0.0122427
0.000191751
-0.0125811
0.00010937
-0.0129388
2.3712e-05
-0.0133151
-6.48894e-05
-0.0137102
-0.000156729
-0.0141238
-0.000251615
-0.0145567
-0.000350399
-0.0150085
-0.015476
-0.000453095
0.00026517
-0.00338091
0.000509217
-0.00783182
0.000608778
-0.00972662
0.000610255
-0.0103177
0.000568423
-0.0105151
0.000509775
-0.0106561
0.00044286
-0.0108275
0.000369814
-0.0110354
0.000291381
-0.011276
0.000208142
-0.0115443
0.000120003
-0.0118361
2.76185e-05
-0.0121503
-6.84769e-05
-0.012485
-0.000168506
-0.0128387
-0.000272393
-0.0132113
-0.000380249
-0.0136024
-0.000491852
-0.0140122
-0.000607417
-0.0144411
-0.000727777
-0.0148881
-0.0153511
-0.000852696
0.000251845
-0.00363275
0.000459877
-0.00803985
0.000526028
-0.00979277
0.000502513
-0.0102942
0.000441658
-0.0104542
0.000366464
-0.0105809
0.00028362
-0.0107446
0.00019472
-0.0109465
0.00010009
-0.0111814
-8.75093e-08
-0.0114441
-0.000103792
-0.0117324
-0.00021259
-0.0120415
-0.00032612
-0.0123715
-0.000444041
-0.0127208
-0.000566365
-0.0130889
-0.00069318
-0.0134756
-0.00082447
-0.0138809
-0.000960532
-0.0143051
-0.00110197
-0.0147467
-0.0152041
-0.0012489
0.000235723
-0.00386847
0.000408253
-0.00821238
0.000442743
-0.00982726
0.00039572
-0.0102471
0.000316618
-0.0103751
0.000225154
-0.0104894
0.000126427
-0.0106459
2.13452e-05
-0.0108414
-8.86262e-05
-0.0110714
-0.000203879
-0.0113288
-0.000324815
-0.0116115
-0.000450534
-0.0119158
-0.000581263
-0.0122407
-0.000716901
-0.0125852
-0.000857488
-0.0129483
-0.00100312
-0.0133299
-0.00115391
-0.0137301
-0.00131018
-0.0141488
-0.00147243
-0.0145844
-0.0150356
-0.00164095
0.000217266
-0.00408574
0.000354987
-0.0083501
0.000359448
-0.00983172
0.000290224
-0.0101779
0.000193498
-0.0102784
8.58663e-05
-0.0103818
-2.87118e-05
-0.0105313
-0.000148524
-0.0107216
-0.000274537
-0.0109454
-0.000406037
-0.0111973
-0.0005432
-0.0114743
-0.000685653
-0.0117733
-0.000833443
-0.012093
-0.000986626
-0.012432
-0.00114528
-0.0127897
-0.00130954
-0.0131657
-0.00147959
-0.01356
-0.00165576
-0.0139726
-0.00183849
-0.0144017
-0.014846
-0.00202815
0.000196921
-0.00428266
0.00030066
-0.00845384
0.0002766
-0.00980766
0.000186318
-0.0100876
7.22568e-05
-0.0101644
-5.09448e-05
-0.0102586
-0.000180304
-0.010402
-0.000316096
-0.0105858
-0.000457824
-0.0108037
-0.000605318
-0.0110498
-0.000758594
-0.011321
-0.000917568
-0.0116144
-0.00108227
-0.0119283
-0.0012528
-0.0122614
-0.0014293
-0.0126132
-0.00161195
-0.012983
-0.00180097
-0.013371
-0.0019967
-0.0137769
-0.00219953
-0.0141988
-0.0146356
-0.00240984
0.000175107
-0.00445777
0.00024579
-0.00852453
0.00019458
-0.00975645
8.42045e-05
-0.00997725
-4.65005e-05
-0.0100337
-0.000184678
-0.0101204
-0.000329645
-0.010257
-0.0004809
-0.0104346
-0.000638169
-0.0106464
-0.000801425
-0.0108866
-0.000970681
-0.0111518
-0.00114597
-0.0114391
-0.00132737
-0.0117469
-0.00151503
-0.0120738
-0.00170912
-0.0124191
-0.00190986
-0.0127823
-0.00211752
-0.0131634
-0.00233245
-0.013562
-0.00255496
-0.0139763
-0.0144052
-0.00278543
0.000152219
-0.00460999
0.00019083
-0.00856314
0.000113703
-0.00967932
-1.6244e-05
-0.00984731
-0.000161984
-0.00988791
-0.000315952
-0.00996644
-0.000476196
-0.0100968
-0.000642691
-0.0102681
-0.000815316
-0.0104738
-0.000994122
-0.0107078
-0.00117916
-0.0109667
-0.00137055
-0.0112477
-0.00156841
-0.011549
-0.00177293
-0.0118693
-0.00198431
-0.0122077
-0.00220282
-0.0125638
-0.00242876
-0.0129374
-0.00266249
-0.0133282
-0.00290424
-0.0137346
-0.0141551
-0.00315434
0.000128627
-0.00473861
0.000136196
-0.00857071
3.39313e-05
-0.00957706
-0.000113192
-0.00970018
-0.000275234
-0.00972587
-0.000444446
-0.00979723
-0.000619747
-0.00992147
-0.000801273
-0.0100866
-0.000989039
-0.010286
-0.00118316
-0.0105137
-0.00138376
-0.0107661
-0.001591
-0.0110405
-0.00180505
-0.011335
-0.00202613
-0.0116482
-0.00225449
-0.0119793
-0.00249041
-0.0123279
-0.00273424
-0.0126936
-0.00298635
-0.0130761
-0.00324688
-0.0134741
-0.0138859
-0.00351606
0.000104665
-0.00484328
8.23774e-05
-0.00854842
-4.35008e-05
-0.00945118
-0.000208324
-0.00953536
-0.000385837
-0.00954836
-0.000570002
-0.00961307
-0.000760123
-0.00973135
-0.000956453
-0.00989023
-0.00115912
-0.0100834
-0.00136831
-0.0103045
-0.00158421
-0.0105502
-0.00180702
-0.0108176
-0.00203697
-0.011105
-0.0022743
-0.0114109
-0.00251928
-0.0117344
-0.00277223
-0.0120749
-0.00303353
-0.0124323
-0.00330358
-0.0128061
-0.00358242
-0.0131952
-0.0135982
-0.00387013
8.0596e-05
-0.00492387
3.02225e-05
-0.00849804
-0.000118427
-0.00930253
-0.000300991
-0.0093528
-0.000493645
-0.0093557
-0.00069248
-0.00941423
-0.000897165
-0.00952666
-0.00110804
-0.00967935
-0.00132535
-0.00986605
-0.00154934
-0.0100805
-0.00178025
-0.0103193
-0.00201833
-0.0105796
-0.00226386
-0.0108595
-0.0025171
-0.0111576
-0.00277834
-0.0114731
-0.00304791
-0.0118053
-0.00332625
-0.0121539
-0.0036138
-0.0125185
-0.00391045
-0.0128986
-0.0132925
-0.00421611
5.6616e-05
-0.00498049
-2.2035e-05
-0.00841939
-0.000191697
-0.00913287
-0.000391045
-0.00915345
-0.000598534
-0.00914821
-0.00081175
-0.00920102
-0.00103072
-0.0093077
-0.00125587
-0.0094542
-0.00148752
-0.0096344
-0.00172601
-0.00984198
-0.00197162
-0.0100737
-0.00222466
-0.0103265
-0.00248542
-0.0105987
-0.00275421
-0.0108888
-0.00303133
-0.011196
-0.00331712
-0.0115196
-0.00361208
-0.011859
-0.00391665
-0.012214
-0.00423061
-0.0125846
-0.0129695
-0.00455361
3.30874e-05
-0.00501358
-7.51438e-05
-0.00831116
-0.000263124
-0.00894489
-0.000478362
-0.00893821
-0.000700378
-0.0089262
-0.000927685
-0.00897371
-0.00116064
-0.00907474
-0.00139975
-0.00921508
-0.00164544
-0.00938871
-0.0018981
-0.00958932
-0.00215808
-0.00981372
-0.00242573
-0.0100589
-0.00270137
-0.0103231
-0.00298534
-0.0106049
-0.00327794
-0.0109034
-0.00357954
-0.011218
-0.00389068
-0.0115479
-0.00421185
-0.0118928
-0.00454259
-0.0122539
-0.0126299
-0.00488226
1.0896e-05
-0.00502447
-0.000125374
-0.00817489
-0.000332428
-0.00873783
-0.000562882
-0.00870776
-0.000799071
-0.00869001
-0.00104016
-0.00873262
-0.00128677
-0.00882813
-0.00153953
-0.00896233
-0.00179892
-0.00912932
-0.00206541
-0.00932283
-0.00233941
-0.00953973
-0.00262129
-0.00977698
-0.00291144
-0.0100329
-0.00321019
-0.0103061
-0.00351786
-0.0105957
-0.00383485
-0.010901
-0.00416174
-0.011221
-0.00449907
-0.0115555
-0.00484619
-0.0119067
-0.0122743
-0.00520177
-1.30984e-05
-0.00501138
-0.000173697
-0.00801429
-0.000399406
-0.00851212
-0.000644548
-0.00846261
-0.000894521
-0.00844004
-0.00114907
-0.00847807
-0.00140899
-0.00856821
-0.00167504
-0.00869628
-0.00194777
-0.00885659
-0.00222773
-0.00904287
-0.00251536
-0.0092521
-0.00281111
-0.00948123
-0.00311536
-0.00972869
-0.00342848
-0.00999298
-0.00375082
-0.0102734
-0.00408277
-0.010569
-0.00442492
-0.0108788
-0.00477788
-0.0112025
-0.005141
-0.0115436
-0.0119033
-0.00551201
-3.82955e-05
-0.00497308
-0.000220397
-0.00783219
-0.000463893
-0.00826863
-0.000723275
-0.00820323
-0.000986644
-0.00817667
-0.00125428
-0.00821044
-0.00152716
-0.00829533
-0.00180612
-0.00841732
-0.00209182
-0.00857089
-0.00238485
-0.00874984
-0.00268573
-0.00895122
-0.00299493
-0.00917204
-0.00331287
-0.00941074
-0.00363996
-0.0096659
-0.00397655
-0.00993679
-0.00432308
-0.0102225
-0.00468006
-0.0105218
-0.00504803
-0.0108345
-0.00542667
-0.011165
-0.0115167
-0.00581327
-6.16904e-05
-0.00491139
-0.000265389
-0.00762849
-0.000525816
-0.0080082
-0.000798991
-0.00793006
-0.00107536
-0.0079003
-0.0013557
-0.0079301
-0.00164114
-0.00800989
-0.00193262
-0.00812584
-0.00223089
-0.00827263
-0.00253659
-0.00844413
-0.00285029
-0.00863751
-0.00317252
-0.00884981
-0.00350373
-0.00907953
-0.00384435
-0.00932528
-0.00419481
-0.00958633
-0.00455559
-0.0098617
-0.00492714
-0.0101503
-0.00530988
-0.0104518
-0.00570338
-0.0107715
-0.0111164
-0.00610362
-8.39076e-05
-0.00482748
-0.000308599
-0.0074038
-0.000585146
-0.00773165
-0.000871634
-0.00764357
-0.00116059
-0.00761134
-0.00145322
-0.00763746
-0.00175082
-0.00771229
-0.00205441
-0.00782225
-0.00236481
-0.00796223
-0.00268276
-0.00812619
-0.00300886
-0.00831141
-0.00334367
-0.00851499
-0.00368769
-0.00873551
-0.00404139
-0.00897158
-0.00440528
-0.00922244
-0.00477998
-0.00948701
-0.00516586
-0.00976442
-0.00556317
-0.0100545
-0.005973
-0.0103617
-0.0107124
-0.00637703
-0.0001084
-0.00471908
-0.000353767
-0.00715843
-0.000645437
-0.00743998
-0.000944474
-0.00734453
-0.00124537
-0.00731045
-0.00154969
-0.00733314
-0.00185884
-0.00740313
-0.00217395
-0.00750714
-0.00249593
-0.00764026
-0.00282553
-0.00779658
-0.00316344
-0.0079735
-0.00351025
-0.00816818
-0.00386649
-0.00837927
-0.00423268
-0.00860539
-0.00460941
-0.00884571
-0.00499731
-0.00909911
-0.00539667
-0.00936506
-0.00580611
-0.00964505
-0.00622339
-0.00994436
-0.0102587
-0.00667712
-0.000128497
-0.00459059
-0.000393042
-0.00689389
-0.000699202
-0.00713382
-0.00101055
-0.00703319
-0.00132316
-0.00699783
-0.00163892
-0.00701738
-0.00195936
-0.00708269
-0.0022857
-0.0071808
-0.00261893
-0.00730703
-0.00295989
-0.00745563
-0.00330928
-0.00762411
-0.00366774
-0.00780972
-0.00403586
-0.00801116
-0.0044142
-0.00822705
-0.00480338
-0.00845653
-0.00520386
-0.00869863
-0.00561546
-0.00895345
-0.00603787
-0.00922264
-0.00647546
-0.00950677
-0.00979621
-0.00693792
-0.000147669
-0.00444292
-0.000430389
-0.00661117
-0.000750289
-0.00681392
-0.00107341
-0.00671006
-0.00139727
-0.00667398
-0.00172399
-0.00669067
-0.00205525
-0.00675143
-0.00239235
-0.00684369
-0.00273636
-0.00696301
-0.00308817
-0.00710382
-0.00344855
-0.00726373
-0.00381818
-0.00744009
-0.00419767
-0.00763166
-0.00458766
-0.00783706
-0.00498877
-0.00805542
-0.0054014
-0.008286
-0.00582564
-0.00852921
-0.00626242
-0.00878585
-0.00671542
-0.00905377
-0.00932626
-0.00718538
-0.000165877
-0.00427704
-0.000465758
-0.00631129
-0.000798647
-0.00648104
-0.001133
-0.0063757
-0.00146761
-0.00633937
-0.00180479
-0.00635348
-0.00214638
-0.00640985
-0.00249375
-0.00649632
-0.00284805
-0.00660872
-0.00321022
-0.00674165
-0.00358108
-0.00689287
-0.00396136
-0.00705982
-0.00435171
-0.00724131
-0.00475279
-0.00743598
-0.00516518
-0.00764304
-0.00558926
-0.00786192
-0.00602549
-0.00809298
-0.00647533
-0.00833601
-0.00694103
-0.00858808
-0.00884586
-0.00742143
-0.000183094
-0.00409395
-0.000499126
-0.00599526
-0.000844258
-0.0061359
-0.00118929
-0.00603068
-0.00153411
-0.00599455
-0.00188126
-0.00600634
-0.00223266
-0.00605844
-0.00258979
-0.00613919
-0.00295386
-0.00624464
-0.00332588
-0.00636963
-0.00370671
-0.00651204
-0.00409711
-0.00666942
-0.00449779
-0.00684063
-0.00490943
-0.00702434
-0.0053326
-0.00721986
-0.00576779
-0.00742673
-0.00621568
-0.0076451
-0.00667757
-0.00787412
-0.0071546
-0.00811105
-0.00835451
-0.00764595
-0.000199291
-0.00389466
-0.000530469
-0.00566408
-0.0008871
-0.00577927
-0.00124223
-0.00567555
-0.00159674
-0.00564004
-0.00195331
-0.00564977
-0.002314
-0.00569775
-0.00268037
-0.00577283
-0.00305369
-0.00587132
-0.00343502
-0.0059883
-0.00382528
-0.00612179
-0.00422526
-0.00626944
-0.0046357
-0.00643018
-0.00505731
-0.00660274
-0.00549066
-0.0067865
-0.00593636
-0.00698104
-0.00639518
-0.00718627
-0.00686823
-0.00740107
-0.00735615
-0.00762313
-0.00785209
-0.00785857
-0.000214439
-0.00368022
-0.000559769
-0.00531875
-0.000927156
-0.00541188
-0.00129179
-0.00531092
-0.00165543
-0.0052764
-0.00202088
-0.00528432
-0.00239032
-0.00532831
-0.00276538
-0.00539777
-0.00314741
-0.00548929
-0.00353751
-0.00559819
-0.00393664
-0.00572266
-0.00434565
-0.00586044
-0.0047653
-0.00601053
-0.0051963
-0.00617173
-0.0056393
-0.0063435
-0.00609494
-0.0065254
-0.00656402
-0.00671719
-0.00704745
-0.00691764
-0.00754575
-0.00712483
-0.00733896
-0.00805888
-0.000228514
-0.0034517
-0.000587009
-0.00496025
-0.000964412
-0.00503448
-0.00133794
-0.00493738
-0.00171013
-0.00490421
-0.0020839
-0.00491055
-0.00246153
-0.00495067
-0.00284473
-0.00501457
-0.00323491
-0.00509911
-0.00363322
-0.00519988
-0.00404066
-0.00531521
-0.00445812
-0.00544298
-0.00488639
-0.00558226
-0.0053262
-0.00573192
-0.00577824
-0.00589146
-0.0062432
-0.00606044
-0.00672187
-0.00623852
-0.00721504
-0.00642448
-0.00772321
-0.00661665
-0.00681564
-0.00824654
-0.000241493
-0.00321021
-0.000612178
-0.00458957
-0.000998854
-0.00464781
-0.00138067
-0.00455557
-0.00176081
-0.00452407
-0.00214231
-0.00452906
-0.00252756
-0.00456542
-0.00291833
-0.0046238
-0.00331609
-0.00470135
-0.00372204
-0.00479394
-0.00413721
-0.00490003
-0.00456253
-0.00501766
-0.00499882
-0.00514597
-0.00544685
-0.00528389
-0.00590733
-0.00543099
-0.00638097
-0.0055868
-0.00686855
-0.00575094
-0.00737081
-0.00592222
-0.00788827
-0.00609919
-0.0062827
-0.00842121
-0.000253351
-0.00295686
-0.000635265
-0.00420765
-0.00103047
-0.0042526
-0.00141993
-0.00416612
-0.00180742
-0.00413657
-0.00219606
-0.00414042
-0.00258835
-0.00417313
-0.0029861
-0.00422605
-0.00339086
-0.00429659
-0.00380385
-0.00438095
-0.00422617
-0.00447772
-0.00465875
-0.00458508
-0.00510246
-0.00470226
-0.00555808
-0.00482827
-0.00602636
-0.0049627
-0.00650804
-0.00510512
-0.00700387
-0.00525511
-0.00751456
-0.00541152
-0.00804067
-0.00557309
-0.00574083
-0.00858254
-0.000264154
-0.0026927
-0.000656273
-0.00381554
-0.00105926
-0.00384961
-0.00145571
-0.00376968
-0.00184993
-0.00374235
-0.0022451
-0.00374525
-0.00264382
-0.00377441
-0.00304796
-0.00382191
-0.00345912
-0.00388543
-0.00387856
-0.0039615
-0.00430742
-0.00404886
-0.00474665
-0.00414585
-0.00519715
-0.00425175
-0.00565974
-0.00436568
-0.00613518
-0.00448726
-0.00662423
-0.00461608
-0.00712763
-0.00475171
-0.00764608
-0.00489307
-0.00818014
-0.00503903
-0.00519074
-0.00873022
-0.000273989
-0.00241871
-0.000675208
-0.00341432
-0.00108521
-0.0034396
-0.00148798
-0.00336691
-0.00188829
-0.00334204
-0.00228937
-0.00334416
-0.00269392
-0.00336986
-0.00310385
-0.00341198
-0.0035208
-0.00346848
-0.00394608
-0.00353622
-0.00438085
-0.00361409
-0.00482611
-0.00370059
-0.00528278
-0.00379509
-0.00575168
-0.00389678
-0.00623362
-0.00400533
-0.00672935
-0.00412035
-0.00723963
-0.00424143
-0.00776515
-0.00436755
-0.00830644
-0.00449774
-0.00463316
-0.00886403
-0.000282801
-0.00213591
-0.000692066
-0.00300505
-0.00110832
-0.00302335
-0.00151673
-0.0029585
-0.00192248
-0.00293629
-0.00232885
-0.0029378
-0.0027386
-0.00296011
-0.00315369
-0.00299689
-0.00357582
-0.00304635
-0.00400632
-0.00310572
-0.00444639
-0.00317403
-0.00489704
-0.00324994
-0.00535922
-0.00333291
-0.00583377
-0.00342222
-0.00632153
-0.00351757
-0.00682325
-0.00361862
-0.0073397
-0.00372499
-0.00787154
-0.00383571
-0.00841932
-0.00394996
-0.00406892
-0.00898356
-0.00029056
-0.00184535
-0.000706842
-0.00258877
-0.00112856
-0.00260163
-0.00154194
-0.00254512
-0.00195247
-0.00252576
-0.00236348
-0.00252679
-0.0027778
-0.00254579
-0.00319744
-0.00257725
-0.00362412
-0.00261967
-0.00405921
-0.00267063
-0.00450393
-0.00272931
-0.00495932
-0.00279455
-0.00542635
-0.00286588
-0.00590589
-0.00294268
-0.00639877
-0.00302469
-0.00690578
-0.00311161
-0.00742768
-0.00320309
-0.00796512
-0.00329827
-0.00851864
-0.00339643
-0.00349871
-0.00908886
-0.000297244
-0.00154811
-0.00071953
-0.00216648
-0.00114595
-0.00217521
-0.00156359
-0.00212748
-0.00197823
-0.00211112
-0.00239324
-0.00211179
-0.00281149
-0.00212753
-0.00323504
-0.00215371
-0.00366564
-0.00218907
-0.00410467
-0.00223159
-0.0045534
-0.00228058
-0.00501288
-0.00233507
-0.00548409
-0.00239467
-0.00596792
-0.00245884
-0.00646523
-0.00252739
-0.00697679
-0.00260004
-0.00750339
-0.0026765
-0.00804564
-0.00275602
-0.00860406
-0.00283801
-0.00292347
-0.0091793
-0.000302839
-0.00124527
-0.000730126
-0.0017392
-0.00116046
-0.00174487
-0.00158167
-0.00170627
-0.00199975
-0.00169303
-0.00241809
-0.00169345
-0.00283964
-0.00170598
-0.00326645
-0.0017269
-0.00370032
-0.0017552
-0.00414266
-0.00178925
-0.00459474
-0.0018285
-0.00505763
-0.00187218
-0.00553235
-0.00191995
-0.00601978
-0.00197141
-0.00652078
-0.00202638
-0.00703618
-0.00208465
-0.00756671
-0.00214596
-0.00811302
-0.00220971
-0.00867562
-0.00227542
-0.00234394
-0.00925515
-0.000307336
-0.000937935
-0.000738625
-0.00130791
-0.0011721
-0.0013114
-0.00159616
-0.00128221
-0.002017
-0.00127219
-0.00243802
-0.00127243
-0.0028622
-0.0012818
-0.00329163
-0.00129747
-0.00372813
-0.0013187
-0.00417312
-0.00134426
-0.00462789
-0.00137374
-0.00509353
-0.00140654
-0.00557105
-0.00144243
-0.00606137
-0.0014811
-0.00656535
-0.0015224
-0.00708381
-0.00156619
-0.00761752
-0.00161225
-0.00816708
-0.00166014
-0.008733
-0.0017095