/*--------------------------------*- C++ -*----------------------------------*\
  =========                 |
  \\      /  F ield         | OpenFOAM: The Open Source CFD Toolbox
   \\    /   O peration     | Website:  https://openfoam.org
    \\  /    A nd           | Version:  7
     \\/     M anipulation  |
\*---------------------------------------------------------------------------*/
FoamFile
{
    version     2.0;
    format      ascii;
    class       volVectorField;
    location    "5";
    object      U;
}
// * * * * * * * * * * * * * * * * * * * * * * * * * * * * * * * * * * * * * //

dimensions      [0 1 -1 0 0 0 0];

internalField   nonuniform List<vector> 
6050
(
(-0.0217085 0.00785249 -2.39495e-20)
(-0.0849879 0.0124622 -2.90129e-20)
(-0.16706 0.0138334 3.66054e-21)
(-0.241436 0.0141516 -9.62712e-21)
(-0.312954 0.0140737 4.88483e-20)
(-0.378502 0.0136367 1.61091e-20)
(-0.437738 0.0126847 -2.3296e-20)
(-0.0219899 0.0232525 1.13255e-21)
(-0.0839215 0.0370349 -1.8439e-20)
(-0.163739 0.0411747 -3.88493e-20)
(-0.235563 0.0421257 3.22069e-20)
(-0.303962 0.0418666 2.14263e-20)
(-0.365761 0.0405257 3.55668e-21)
(-0.420526 0.0376501 6.77492e-20)
(-0.0225285 0.0377618 -6.93589e-21)
(-0.0818495 0.0605738 -2.66164e-20)
(-0.157266 0.067558 3.78555e-20)
(-0.224109 0.0691364 3.01992e-20)
(-0.286453 0.0686275 -1.06215e-19)
(-0.341017 0.0663005 1.46567e-20)
(-0.387226 0.0614487 -1.13779e-19)
(-0.023279 0.0508488 3.46305e-20)
(-0.0788893 0.0824325 1.4001e-19)
(-0.147965 0.0923714 -4.61551e-20)
(-0.207635 0.0945731 -9.71075e-20)
(-0.261324 0.0937138 -5.87575e-20)
(-0.305656 0.0902817 8.47669e-20)
(-0.339917 0.083387 1.10141e-19)
(-0.0241805 0.0620646 -9.5337e-20)
(-0.075208 0.102021 -2.71449e-20)
(-0.136296 0.115036 8.28638e-20)
(-0.186927 0.117862 4.41739e-20)
(-0.229814 0.116536 2.27136e-19)
(-0.261555 0.111863 -2.20217e-19)
(-0.281357 0.102865 -1.29337e-19)
(-0.0251633 0.071069 6.19937e-20)
(-0.0710116 0.118829 5.5603e-21)
(-0.122825 0.13502 -1.55712e-19)
(-0.162942 0.138477 -7.89748e-20)
(-0.193405 0.136569 -2.6863e-19)
(-0.210912 0.130523 -9.39768e-21)
(-0.214692 0.119385 -1.38446e-20)
(-0.203328 0.102118 -2.62181e-20)
(-0.0261568 0.0776492 -1.61502e-19)
(-0.0665318 0.132443 -2.85751e-19)
(-0.108191 0.151848 1.03549e-19)
(-0.136751 0.155942 -3.04567e-20)
(-0.153718 0.153352 2.42784e-19)
(-0.156071 0.145826 2.44496e-19)
(-0.143191 0.132546 -8.76534e-20)
(-0.114239 0.112563 1.26219e-19)
(-0.0270983 0.0817296 1.19245e-19)
(-0.0620111 0.142565 1.31466e-19)
(-0.0930691 0.165115 9.28491e-20)
(-0.109474 0.169837 3.37789e-19)
(-0.112418 0.166491 -7.7259e-20)
(-0.0993677 0.157413 1.23077e-19)
(-0.0700184 0.142046 1.67524e-19)
(-0.0241865 0.119538 -2.16561e-19)
(-0.0279408 0.0833729 -5.99215e-20)
(-0.0576858 0.149027 3.442e-20)
(-0.07813 0.174499 -2.81504e-19)
(-0.0822212 0.1798 -1.65515e-19)
(-0.0711253 0.175664 -1.36997e-19)
(-0.0429846 0.164961 -7.90784e-20)
(0.00197657 0.147591 -4.05848e-19)
(0.0633214 0.122801 7.53807e-20)
(-0.0286598 0.0827706 2.27427e-19)
(-0.0537701 0.151806 2.5842e-19)
(-0.0639906 0.179778 6.82263e-20)
(-0.0560184 0.185538 2.86032e-19)
(-0.0313131 0.180564 8.32297e-20)
(0.0111404 0.168226 1.91422e-19)
(0.0705172 0.148948 2.23782e-19)
(0.145789 0.122183 2.14297e-19)
(-0.0292571 0.0802254 -1.42944e-19)
(-0.0504405 0.151031 -2.34815e-19)
(-0.0511667 0.180843 4.11668e-19)
(-0.0317416 0.186849 -4.28847e-19)
(0.00583456 0.180958 -3.14934e-19)
(0.0615638 0.167058 -1.43006e-19)
(0.13412 0.146013 -6.422e-20)
(0.222173 0.117563 -3.64003e-19)
(-0.0297628 0.0761235 1.3442e-19)
(-0.0478162 0.146969 1.04062e-19)
(-0.0400215 0.177746 -4.76714e-19)
(-0.0099987 0.183663 -1.61722e-19)
(0.0395461 0.17677 1.78724e-19)
(0.107592 0.161392 -9.89412e-20)
(0.192569 0.1388 2.69452e-19)
(0.293395 0.1091 2.70837e-19)
(0.409579 0.072205 -3.6427e-19)
(-0.0302341 0.0709 -4.30994e-19)
(-0.0459397 0.140024 -4.09611e-19)
(-0.0307057 0.170716 3.04332e-19)
(0.00899135 0.176085 1.9544e-19)
(0.0697124 0.168087 1.06187e-19)
(0.149637 0.151366 -9.10068e-20)
(0.247425 0.12762 -1.67868e-19)
(0.362796 0.0973207 8.88427e-20)
(0.496079 0.0604906 1.43454e-20)
(-0.0307471 0.065003 6.68189e-20)
(-0.044764 0.130711 4.30025e-19)
(-0.0230929 0.160162 -1.34108e-19)
(0.0255347 0.164437 -1.73004e-20)
(0.0971358 0.155249 -1.37025e-19)
(0.189601 0.13742 -5.37273e-20)
(0.302272 0.113233 5.02888e-20)
(0.435782 0.0833647 1.65311e-19)
(0.589614 0.0481168 4.96238e-20)
(-0.0313838 0.0588557 3.76107e-19)
(-0.0441355 0.119618 -1.06315e-19)
(-0.0167264 0.146667 -2.69559e-19)
(0.0405911 0.149301 3.60158e-19)
(0.123717 0.138938 3.25514e-19)
(0.230908 0.120619 2.39998e-19)
(0.36238 0.0970528 2.28841e-19)
(0.518158 0.0691913 -8.51467e-20)
(0.693492 0.0373894 1.53977e-19)
(-0.0322139 0.0528235 -1.18444e-19)
(-0.0437786 0.107365 6.38643e-20)
(-0.0107846 0.130966 1.57069e-19)
(0.0558511 0.131525 -4.36997e-19)
(0.15257 0.120261 -7.59832e-20)
(0.278326 0.102467 -3.84848e-19)
(0.433269 0.0810844 1.61488e-19)
(0.613453 0.0571536 -3.9962e-19)
(0.805939 0.0303939 1.56083e-19)
(0.989083 0.000187158 -3.8007e-19)
(-0.0332749 0.0471875 3.6478e-21)
(-0.0432846 0.0945461 2.82077e-19)
(-0.00408129 0.113893 -7.28726e-20)
(0.073686 0.112184 -2.47444e-20)
(0.187621 0.100656 8.4042e-20)
(0.336927 0.0848316 2.97584e-19)
(0.518642 0.067646 -1.50372e-19)
(0.720541 0.0492667 -1.36359e-19)
(0.920095 0.0281515 8.88828e-20)
(1.09214 0.00302092 2.09975e-19)
(-0.0345528 0.0421275 -3.13965e-20)
(-0.0421137 0.08169 -2.81838e-20)
(0.00488024 0.0963126 3.13121e-19)
(0.0969452 0.0925071 1.60775e-19)
(0.232987 0.0818562 -1.47475e-19)
(0.41033 0.0699191 4.20489e-20)
(0.618238 0.0586925 4.93127e-20)
(0.833354 0.0464559 4.46839e-19)
(1.02701 0.0303574 -3.84549e-19)
(1.17763 0.00911318 -5.38723e-19)
(1.27746 -0.0160763 -5.20012e-19)
(-0.0359694 0.0377171 2.70204e-20)
(-0.0396136 0.0692141 -3.55543e-19)
(0.0177933 0.0790453 9.19254e-20)
(0.128586 0.0737853 -3.09687e-19)
(0.291993 0.0656774 3.96923e-19)
(0.499238 0.0595874 -2.74559e-19)
(0.727306 0.0551494 1.17674e-20)
(0.943273 0.0483556 -2.70501e-20)
(1.11945 0.0358548 -2.91235e-19)
(1.24322 0.0171699 7.27558e-19)
(1.3164 -0.00568787 3.05068e-19)
(-0.0373768 0.0339278 -1.9261e-19)
(-0.0350574 0.0574006 2.44738e-19)
(0.0363866 0.0628041 -2.12283e-19)
(0.1712 0.0572801 -2.30955e-19)
(0.36613 0.0537504 -4.33048e-19)
(0.600667 0.0548525 1.73654e-19)
(0.838183 0.0567191 -1.22779e-19)
(1.04256 0.0537812 -3.63755e-19)
(1.19389 0.0433494 3.20522e-19)
(1.29006 0.0261707 -2.57909e-19)
(1.3401 0.00493736 3.53368e-19)
(1.35692 -0.017375 3.89644e-19)
(-0.0385593 0.0306442 1.00078e-18)
(-0.0276909 0.0463928 -2.48819e-19)
(0.0622493 0.0481793 2.162e-19)
(0.226507 0.0441615 2.63479e-19)
(0.454333 0.0471859 4.07784e-19)
(0.708626 0.055648 -2.19512e-19)
(0.943107 0.0622662 1.32185e-19)
(1.12657 0.0614109 -1.76463e-19)
(1.25029 0.0518402 -3.27871e-19)
(1.32115 0.0354702 1.65633e-19)
(1.35248 0.0154067 -2.98504e-19)
(1.35776 -0.00546558 -1.84708e-19)
(-0.0392718 0.0277156 -7.02507e-19)
(-0.0167717 0.0362178 2.97628e-19)
(0.0967082 0.0356508 -3.07933e-20)
(0.294943 0.0353868 -1.50432e-19)
(0.552938 0.04626 -4.53593e-19)
(0.815996 0.0610041 3.25175e-19)
(1.03641 0.0704306 -2.99314e-19)
(1.19385 0.0702024 1.36701e-19)
(1.29064 0.0607025 1.69204e-19)
(1.33995 0.0447302 -6.9125e-19)
(1.35693 0.0255586 1.28926e-19)
(1.35425 0.0058724 2.0611e-20)
(1.3407 -0.0125017 2.60714e-19)
(-0.0392569 0.0249659 -5.09206e-20)
(-0.00159286 0.0267965 -4.47566e-19)
(0.140729 0.025643 2.43955e-19)
(0.375427 0.0315533 1.60653e-19)
(0.656651 0.0504262 -1.3082e-19)
(0.916759 0.0696256 -4.11132e-19)
(1.11542 0.0801102 2.81465e-19)
(1.24538 0.0794938 -7.05095e-20)
(1.31789 0.0695916 5.55259e-20)
(1.34973 0.0537832 4.28688e-19)
(1.35614 0.0353273 -2.21682e-19)
(1.34817 0.0166439 -1.96975e-19)
(1.33276 -0.00073583 -1.76574e-19)
(-0.0382427 0.0222086 -2.16051e-20)
(0.0185033 0.0180332 2.6215e-19)
(0.194772 0.0186409 -4.5682e-19)
(0.465317 0.0327826 9.0477e-20)
(0.759817 0.0586571 3.14204e-19)
(1.00691 0.0803624 6.06503e-20)
(1.17968 0.0905673 9.50008e-20)
(1.28317 0.0889123 1.74456e-19)
(1.33489 0.0783509 -1.9121e-19)
(1.35312 0.062589 -1.40726e-19)
(1.35201 0.044737 2.593e-19)
(1.3407 0.0269157 4.63699e-19)
(1.32443 0.0103863 4.76714e-20)
(1.30592 -0.00420645 -1.68208e-19)
(-0.0359539 0.0192779 5.2509e-20)
(0.0441351 0.00990801 4.92566e-19)
(0.258648 0.0151816 -1.48986e-19)
(0.560835 0.0386648 4.06502e-19)
(0.857704 0.0698329 -3.33515e-19)
(1.08455 0.0923581 3.95468e-19)
(1.23015 0.101339 -3.23526e-19)
(1.30961 0.0982595 2.09074e-19)
(1.34422 0.086926 -1.31734e-19)
(1.35217 0.0711612 1.54582e-20)
(1.34587 0.0538322 -1.53652e-19)
(1.33257 0.0367512 -2.59235e-19)
(1.31605 0.0209409 -1.22022e-19)
(1.29815 0.00692016 8.24148e-20)
(1.27981 -0.0050401 2.58025e-20)
(-0.0321143 0.0160509 -4.75159e-19)
(0.0758769 0.00257549 -4.44204e-19)
(0.331388 0.0157207 3.4179e-19)
(0.657817 0.0484273 -2.01149e-20)
(0.947104 0.0830137 4.7465e-19)
(1.14937 0.105039 -2.87335e-19)
(1.26849 0.112159 1.25878e-19)
(1.32702 0.107455 -1.61979e-19)
(1.34797 0.0953273 3.0201e-19)
(1.34836 0.0795441 -1.16005e-19)
(1.3386 0.0626684 1.11529e-19)
(1.32418 0.0462139 -7.604e-21)
(1.30776 0.0310004 8.382e-20)
(1.29054 0.0174432 -1.08e-20)
(1.27314 0.00574234 1.16258e-19)
(1.25596 -0.00412413 2.40412e-20)
(-0.0264373 0.0124614 6.8254e-19)
(0.114206 -0.00355694 -4.30903e-19)
(0.411217 0.0204462 1.0892e-19)
(0.75247 0.0612125 -4.2605e-19)
(1.02629 0.0975111 -2.98684e-19)
(1.20204 0.118035 3.26548e-20)
(1.29659 0.122885 5.85541e-20)
(1.33745 0.116485 -1.61351e-19)
(1.34777 0.103593 2.9327e-20)
(1.34274 0.0877863 2.25146e-19)
(1.33073 0.0712932 -1.61895e-19)
(1.31576 0.0553543 -9.25765e-20)
(1.29962 0.0406216 -4.90441e-20)
(1.28308 0.0274255 -4.19924e-20)
(1.26655 0.0159235 -5.06809e-20)
(1.25031 0.00611329 9.59218e-20)
(1.2346 -0.00184637 -4.45324e-20)
(-0.0186122 0.00851156 -1.62277e-19)
(0.159392 -0.00782051 4.00121e-19)
(0.495731 0.0291887 2.36996e-19)
(0.84186 0.0762758 -2.66599e-19)
(1.09467 0.112846 3.27685e-19)
(1.24372 0.131117 -1.91881e-21)
(1.31626 0.133457 2.91721e-19)
(1.3426 0.125377 1.89333e-19)
(1.34484 0.111772 1.64996e-19)
(1.336 0.0959319 -1.5666e-19)
(1.32258 0.0797454 1.07547e-19)
(1.30741 0.064213 1.10932e-19)
(1.29163 0.0498512 1.78678e-19)
(1.27574 0.0369241 -9.12905e-20)
(1.26 0.0255541 -1.43437e-22)
(1.24462 0.0157631 -8.02602e-20)
(1.22977 0.00759627 4.06059e-21)
(1.21564 0.000497227 -3.07079e-20)
(-0.00829617 0.00428507 -1.47893e-19)
(0.211358 -0.00938849 -1.61677e-19)
(0.582233 0.0415035 -7.92571e-21)
(0.924035 0.0930457 2.52764e-19)
(1.15242 0.128687 -2.45122e-19)
(1.27581 0.144149 -2.64831e-19)
(1.32919 0.143866 9.96032e-20)
(1.34384 0.134173 -1.17628e-19)
(1.34006 0.11991 -7.48939e-20)
(1.3286 0.104014 2.85903e-20)
(1.31432 0.0880517 -2.41707e-19)
(1.29915 0.0728193 2.17839e-19)
(1.28378 0.0587257 -2.01966e-20)
(1.26849 0.0459816 -4.47684e-20)
(1.25347 0.0346871 3.91581e-20)
(1.23886 0.0248609 -5.64925e-20)
(1.22482 0.0165055 -4.72259e-20)
(1.21146 0.00925892 -2.10003e-21)
(1.19884 0.00429549 -3.24247e-20)
(1.18714 -0.00297251 5.81901e-20)
(0.00487913 -3.8093e-05 1.70178e-19)
(0.269577 -0.00747516 2.93509e-19)
(0.668096 0.056844 -3.93195e-19)
(0.997912 0.111104 -1.4454e-19)
(1.20018 0.144803 -6.5031e-20)
(1.29971 0.157058 3.7058e-19)
(1.33678 0.154136 -9.86515e-20)
(1.34222 0.14292 -5.97914e-20)
(1.33401 0.128043 -8.27272e-20)
(1.32079 0.112055 9.88122e-20)
(1.30604 0.096229 3.64804e-20)
(1.29098 0.0811941 -4.10455e-20)
(1.27601 0.0672734 -1.06383e-19)
(1.26129 0.0546349 1.04334e-20)
(1.24692 0.0433584 -4.20455e-20)
(1.23303 0.0334607 7.35009e-20)
(1.21971 0.0249059 1.73144e-20)
(1.20708 0.0174935 1.66623e-20)
(1.19514 0.0119781 2.13919e-20)
(1.18411 0.00470951 -6.23902e-20)
(0.021265 -0.0041628 -3.19997e-19)
(0.333057 -0.00154069 -1.84547e-20)
(0.751045 0.074697 -5.99923e-20)
(1.06306 0.130146 1.70834e-19)
(1.23883 0.161039 -5.8384e-20)
(1.31676 0.169817 -1.62383e-19)
(1.3402 0.164302 -2.25794e-19)
(1.3385 0.151661 1.57267e-19)
(1.32711 0.136194 -1.81605e-19)
(1.31272 0.120063 8.89832e-20)
(1.29773 0.104285 5.17261e-20)
(1.28286 0.0893509 -2.56156e-20)
(1.26829 0.0755156 6.00704e-20)
(1.2541 0.0629119 6.49601e-20)
(1.24035 0.051603 -1.34988e-19)
(1.22711 0.0415938 9.64552e-20)
(1.21446 0.0328388 7.02999e-21)
(1.20248 0.0252339 1.49726e-20)
(1.19118 0.0191941 7.08763e-20)
(1.18076 0.011933 1.67303e-20)
(0.0411384 -0.00767835 9.52573e-20)
(0.400432 0.00859797 -3.808e-19)
(0.829306 0.0946281 3.5547e-19)
(1.11951 0.149934 1.59745e-19)
(1.26936 0.177288 -1.18069e-19)
(1.32812 0.182424 -1.92844e-19)
(1.34038 0.174404 6.98264e-21)
(1.33324 0.160426 -3.71428e-20)
(1.31961 0.144374 3.11618e-19)
(1.30448 0.12804 -1.40226e-19)
(1.28941 0.112221 -1.58373e-20)
(1.27476 0.0972971 3.52971e-20)
(1.26059 0.0834677 -2.16061e-20)
(1.24689 0.070835 -4.27261e-20)
(1.23371 0.0594457 1.1585e-19)
(1.22108 0.0492938 -9.23809e-20)
(1.20905 0.0403291 1.00001e-20)
(1.19769 0.0325057 -4.86354e-20)
(1.18698 0.0259867 -4.86845e-20)
(1.17711 0.018704 -1.48674e-20)
(0.064651 -0.0100848 -6.79939e-20)
(0.470124 0.0227985 1.5924e-19)
(0.901632 0.116274 -1.43811e-19)
(1.16754 0.170273 -1.47369e-19)
(1.29274 0.193481 2.41893e-19)
(1.33481 0.194895 2.5456e-19)
(1.33807 0.184477 1.22046e-19)
(1.32685 0.169233 -2.08786e-21)
(1.31166 0.152582 -3.0549e-19)
(1.29608 0.135979 2.56517e-20)
(1.28104 0.120033 9.69682e-21)
(1.26664 0.105035 6.24774e-20)
(1.25286 0.0911402 9.89574e-20)
(1.23964 0.078421 -5.69832e-21)
(1.22699 0.0669087 -2.14779e-20)
(1.21493 0.0565843 8.23989e-20)
(1.20349 0.0474011 -5.24507e-20)
(1.19269 0.0393371 6.10811e-20)
(1.18254 0.0323672 -5.29268e-21)
(1.17319 0.0250493 5.79702e-20)
(0.0917859 -0.0108456 1.191e-19)
(0.540509 0.040714 6.22042e-20)
(0.967256 0.139327 -1.40518e-19)
(1.20763 0.190989 -1.72225e-19)
(1.30992 0.209572 -1.24048e-20)
(1.33768 0.20725 -2.80456e-20)
(1.33379 0.194546 1.35669e-19)
(1.31958 0.178087 9.38266e-20)
(1.30334 0.160809 9.98782e-20)
(1.28753 0.143865 -3.5396e-20)
(1.27258 0.127711 4.60056e-20)
(1.25847 0.112565 -4.15933e-20)
(1.24507 0.0985391 -8.21753e-20)
(1.23231 0.0856822 9.981e-21)
(1.22017 0.0740082 2.01887e-20)
(1.20865 0.0634866 2.28912e-20)
(1.19775 0.0540738 2.95119e-20)
(1.18749 0.0457477 -1.71686e-20)
(1.17788 0.0383622 3.19989e-20)
(1.169 0.0309892 -6.96088e-20)
(0.122342 -0.00946075 1.56485e-19)
(0.610038 0.061919 -1.4148e-20)
(1.0258 0.163525 1.9711e-19)
(1.24035 0.211923 1.19012e-19)
(1.32174 0.225533 5.24981e-20)
(1.33742 0.219512 -1.2823e-19)
(1.32796 0.204624 -1.20733e-19)
(1.31161 0.186982 -3.31276e-20)
(1.2947 0.169036 -8.76771e-21)
(1.2788 0.15168 -8.56097e-21)
(1.26402 0.135243 -1.11115e-19)
(1.2502 0.119879 2.36569e-20)
(1.23719 0.105667 4.15853e-20)
(1.22488 0.0926266 1.3784e-21)
(1.21324 0.0807573 4.73994e-21)
(1.20223 0.0700168 -1.22832e-20)
(1.19186 0.0603631 -2.77909e-20)
(1.1821 0.0517589 -2.2044e-20)
(1.17299 0.0439865 -4.40808e-20)
(1.16456 0.0365397 6.2762e-21)
(0.155946 -0.00553655 -9.61297e-20)
(0.677326 0.0859847 5.94202e-20)
(1.07719 0.188643 -2.44725e-20)
(1.26629 0.232937 5.76499e-21)
(1.32894 0.241341 -2.16646e-19)
(1.3346 0.231693 5.33678e-20)
(1.32088 0.214714 3.3999e-20)
(1.30303 0.195899 -2.30227e-20)
(1.28573 0.177238 8.2129e-20)
(1.26986 0.159401 -1.19735e-21)
(1.2553 0.142613 3.48126e-20)
(1.24181 0.126972 3.97306e-20)
(1.22919 0.112522 -2.66157e-20)
(1.21734 0.0992592 -3.04326e-20)
(1.20618 0.0871653 -1.60236e-20)
(1.19567 0.0761876 -1.64805e-20)
(1.18579 0.066282 1.43384e-20)
(1.17653 0.0573872 1.57721e-20)
(1.16789 0.0492584 2.41045e-20)
(1.15987 0.0417197 2.67056e-20)
(0.192081 0.00117105 -4.45796e-20)
(0.741194 0.112503 -8.96816e-21)
(1.12153 0.214477 -7.90968e-20)
(1.28606 0.253906 7.26084e-20)
(1.33218 0.256976 1.55319e-19)
(1.32965 0.243801 8.41233e-20)
(1.31274 0.224803 -3.76642e-20)
(1.2939 0.204813 -2.15532e-20)
(1.27644 0.185385 -4.84146e-20)
(1.2607 0.167004 4.61169e-20)
(1.2464 0.149803 -1.69654e-21)
(1.23326 0.133832 -2.18539e-20)
(1.22106 0.119101 -2.50881e-20)
(1.20966 0.105581 -2.33241e-20)
(1.19897 0.0932383 4.71683e-20)
(1.18895 0.0820085 -1.56895e-20)
(1.17956 0.0718412 -1.62806e-20)
(1.17076 0.0626488 -2.68943e-21)
(1.16258 0.0541908 -2.5909e-21)
(1.15495 0.0465407 -1.49024e-20)
(0.230127 0.0107499 -4.37179e-21)
(0.800695 0.141082 -5.90767e-20)
(1.15905 0.240841 2.68434e-20)
(1.30026 0.274728 -9.51673e-20)
(1.33199 0.272416 -6.59869e-20)
(1.32289 0.255829 9.69462e-21)
(1.30368 0.234869 -1.02921e-21)
(1.28426 0.213687 4.2333e-21)
(1.2668 0.193441 1.3154e-20)
(1.25128 0.174459 2.2858e-20)
(1.2373 0.156793 -3.0783e-20)
(1.22455 0.140446 1.26395e-20)
(1.21277 0.125398 2.16082e-20)
(1.20183 0.111593 -4.69187e-21)
(1.19162 0.0989801 -1.98713e-20)
(1.18208 0.0874863 1.08268e-20)
(1.17315 0.0770497 1.19084e-20)
(1.16482 0.0675569 1.16928e-20)
(1.15707 0.0587956 -5.66139e-21)
(1.14982 0.0510173 1.95573e-21)
(0.269398 0.0231584 4.92702e-20)
(0.855118 0.171339 -6.83851e-20)
(1.19007 0.267549 -9.23274e-21)
(1.30946 0.295313 3.88427e-20)
(1.32885 0.287635 6.22078e-20)
(1.31459 0.267758 -1.89249e-20)
(1.2938 0.244877 -5.3579e-20)
(1.27411 0.222482 5.25894e-20)
(1.2568 0.20137 -1.39981e-20)
(1.24158 0.181737 -1.58828e-20)
(1.22797 0.16356 1.42057e-20)
(1.21564 0.1468 -6.88441e-21)
(1.20432 0.131404 -1.98496e-21)
(1.19385 0.117289 5.06196e-21)
(1.18412 0.104392 7.10533e-21)
(1.17505 0.0926258 8.85726e-21)
(1.16659 0.0819147 -1.52405e-20)
(1.1587 0.0721227 -3.61458e-21)
(1.15137 0.0630809 -8.48645e-22)
(1.14447 0.055159 4.10541e-21)
(0.309144 0.038267 -2.70165e-20)
(0.903977 0.202908 4.74896e-20)
(1.21489 0.294421 -5.82953e-21)
(1.31415 0.315585 -1.24823e-20)
(1.32312 0.302604 -4.04684e-20)
(1.30494 0.279557 1.88191e-20)
(1.28316 0.254788 1.22605e-20)
(1.26345 0.231153 -1.34222e-20)
(1.24643 0.209132 -2.15456e-21)
(1.23158 0.188805 6.23288e-21)
(1.2184 0.17008 -6.58379e-21)
(1.20652 0.152876 3.26699e-21)
(1.19568 0.137108 -6.89372e-21)
(1.1857 0.122667 3.86767e-21)
(1.17646 0.109474 7.77375e-22)
(1.16787 0.0974301 -3.29579e-21)
(1.15986 0.086442 1.84626e-21)
(1.15241 0.0763548 -2.71557e-21)
(1.1455 0.0670538 8.53391e-22)
(1.13893 0.0589784 2.91515e-21)
(0.348548 0.0558872 -1.93108e-20)
(0.946974 0.235434 4.13659e-20)
(1.23385 0.32127 -4.28343e-21)
(1.31481 0.335467 -1.59881e-20)
(1.31513 0.317285 -3.7169e-20)
(1.29407 0.291187 1.85406e-20)
(1.27178 0.264551 1.19519e-20)
(1.25228 0.239652 -1.06081e-20)
(1.23566 0.216684 -1.34438e-22)
(1.22126 0.195631 4.84555e-21)
(1.20856 0.17633 -4.23541e-21)
(1.19719 0.158658 -1.13372e-21)
(1.18686 0.1425 -2.42172e-21)
(1.17738 0.12772 1.38144e-21)
(1.16864 0.114224 8.73244e-22)
(1.16053 0.1019 -3.34336e-21)
(1.15298 0.0906352 3.57222e-21)
(1.14598 0.08026 -3.33774e-21)
(1.13946 0.0707214 -7.7025e-22)
(1.13321 0.0624845 1.92602e-21)
(0.386826 0.0757624 5.58877e-20)
(0.983865 0.268542 -5.57577e-20)
(1.2472 0.34789 -3.95585e-20)
(1.31178 0.354884 5.10554e-20)
(1.3051 0.331643 5.77272e-20)
(1.28207 0.302606 -2.33541e-20)
(1.25969 0.27412 -3.8375e-20)
(1.24058 0.247935 4.15454e-20)
(1.22447 0.223992 -1.14681e-20)
(1.21061 0.202186 -1.31548e-20)
(1.19845 0.182287 1.00922e-20)
(1.18763 0.16413 -1.91838e-21)
(1.17784 0.14757 -4.53616e-21)
(1.16889 0.132443 1.41434e-21)
(1.16066 0.11864 6.53802e-21)
(1.15304 0.106038 7.35705e-21)
(1.14596 0.0944984 -8.86737e-21)
(1.13939 0.0838426 -2.25102e-21)
(1.13328 0.0740969 -1.41111e-21)
(1.12731 0.0656937 2.78354e-21)
(0.423469 0.0976805 2.4813e-20)
(1.01483 0.301988 -8.80993e-20)
(1.25542 0.374144 2.4437e-20)
(1.30548 0.373768 -6.32435e-20)
(1.29325 0.345614 -7.32402e-20)
(1.26902 0.313741 1.1792e-20)
(1.24689 0.283421 4.57576e-21)
(1.22834 0.255936 -4.53536e-21)
(1.21285 0.230998 1.52534e-20)
(1.19961 0.208428 -5.36571e-22)
(1.18806 0.187918 -9.51474e-21)
(1.17783 0.169263 1.9837e-21)
(1.16862 0.152297 1.79477e-20)
(1.16023 0.136822 -1.41964e-21)
(1.15252 0.122714 -5.74569e-21)
(1.1454 0.10984 -3.21622e-21)
(1.13879 0.0980309 1.33692e-20)
(1.13268 0.0871027 5.46827e-21)
(1.12695 0.0771921 -3.00362e-21)
(1.12126 0.0686259 -3.40822e-21)
(0.457878 0.121408 -5.51062e-20)
(1.0399 0.335493 -1.02998e-20)
(1.2588 0.399851 -7.59739e-20)
(1.29619 0.392033 8.46323e-20)
(1.27975 0.359138 1.04643e-19)
(1.25497 0.324528 4.04476e-20)
(1.23338 0.292395 -7.38783e-21)
(1.21556 0.263605 8.28223e-21)
(1.2008 0.237661 -4.16493e-20)
(1.18826 0.214321 2.93124e-20)
(1.17739 0.193199 -8.81191e-21)
(1.1678 0.174039 -6.55165e-21)
(1.15921 0.15667 -1.7311e-20)
(1.1514 0.140853 -5.15688e-21)
(1.14425 0.126445 7.61522e-21)
(1.13764 0.113305 -4.63484e-21)
(1.13151 0.101235 -5.89277e-21)
(1.12585 0.0900621 1.61843e-21)
(1.12047 0.0800055 -9.18364e-22)
(1.11511 0.0712738 -7.60698e-21)
(0.48951 0.146686 -8.12086e-20)
(1.0592 0.368788 1.55675e-20)
(1.25768 0.424845 3.67878e-20)
(1.28418 0.409596 -3.99713e-20)
(1.26472 0.372144 -1.43605e-19)
(1.23995 0.334895 1.20988e-20)
(1.21918 0.300974 5.10965e-20)
(1.20223 0.270882 -1.87598e-20)
(1.18832 0.243936 3.98689e-20)
(1.17655 0.219819 -1.03572e-20)
(1.16646 0.198097 2.56617e-20)
(1.15756 0.17844 3.42244e-21)
(1.14961 0.160669 4.01635e-22)
(1.14241 0.144523 -1.39731e-20)
(1.13582 0.129829 -6.29833e-21)
(1.12974 0.116432 -2.79595e-21)
(1.12411 0.104113 2.54621e-21)
(1.11891 0.0927228 3.91502e-21)
(1.11389 0.0825445 6.52843e-21)
(1.10884 0.0736518 1.04233e-20)
(0.517915 0.173226 1.03578e-19)
(1.07288 0.401612 3.79965e-20)
(1.25235 0.448961 1.24581e-19)
(1.26969 0.426367 6.03603e-20)
(1.24826 0.384554 4.70801e-20)
(1.22401 0.344765 -6.09786e-20)
(1.20428 0.309086 -5.44025e-20)
(1.18837 0.277708 -1.81415e-20)
(1.17543 0.249781 -9.96328e-21)
(1.16453 0.224886 -2.11625e-20)
(1.15526 0.202569 -3.21253e-20)
(1.14709 0.182455 -4.65602e-22)
(1.13983 0.164288 1.41877e-20)
(1.13327 0.147821 2.60999e-20)
(1.12727 0.132858 -2.48408e-20)
(1.12173 0.119219 5.42154e-21)
(1.11661 0.10667 -6.13785e-21)
(1.11186 0.0950922 -2.40629e-21)
(1.10721 0.0848127 -1.20458e-20)
(1.10249 0.0757659 -2.5737e-21)
(0.542725 0.200717 2.27306e-19)
(1.08113 0.433705 -2.10275e-20)
(1.24312 0.472039 -9.77446e-20)
(1.25292 0.442252 -1.33266e-19)
(1.23046 0.396282 -2.89139e-20)
(1.20717 0.354056 -1.30802e-22)
(1.18872 0.31666 7.33697e-20)
(1.17401 0.284021 5.86182e-20)
(1.16213 0.255134 3.87269e-20)
(1.1522 0.229507 -1.55321e-20)
(1.14377 0.206605 1.13639e-20)
(1.1364 0.186042 -1.04349e-20)
(1.12987 0.167506 -1.86328e-20)
(1.12398 0.150739 6.57074e-21)
(1.11859 0.135525 -2.08364e-21)
(1.11361 0.121664 5.47301e-21)
(1.10902 0.108908 7.1691e-21)
(1.10474 0.0971721 -1.27327e-21)
(1.10046 0.0868164 7.52836e-21)
(1.09607 0.0776266 -4.54932e-21)
(0.563657 0.228822 -1.43279e-19)
(1.08414 0.464812 1.68158e-19)
(1.23025 0.493921 -7.38367e-20)
(1.23404 0.457154 -3.50757e-20)
(1.2114 0.407233 1.0922e-19)
(1.18949 0.362682 1.05483e-19)
(1.17254 0.323622 3.55616e-20)
(1.15915 0.289769 -2.67242e-20)
(1.14842 0.259964 -5.67391e-20)
(1.13953 0.233627 -1.07602e-21)
(1.13203 0.210174 6.25028e-21)
(1.12551 0.189187 1.37984e-20)
(1.11975 0.170308 1.21155e-20)
(1.11455 0.153264 -3.75355e-21)
(1.1098 0.137824 7.47644e-21)
(1.1054 0.123765 2.13922e-21)
(1.10135 0.11083 -3.04136e-21)
(1.09755 0.0989665 4.36493e-21)
(1.09364 0.0885582 2.97646e-21)
(1.08961 0.0792418 2.01995e-21)
(0.580515 0.257189 2.29923e-20)
(1.08215 0.494675 -2.9977e-19)
(1.21401 0.514449 1.84563e-19)
(1.21321 0.47097 1.12426e-19)
(1.19118 0.417312 -1.10676e-20)
(1.17104 0.37055 -9.07084e-20)
(1.15575 0.329915 -7.20071e-21)
(1.14379 0.294896 -1.89875e-20)
(1.13433 0.264218 5.97996e-20)
(1.12656 0.237216 -5.04866e-21)
(1.12005 0.213249 -1.04889e-20)
(1.11443 0.191867 3.23306e-21)
(1.10948 0.172677 -3.13859e-21)
(1.10501 0.155387 -2.00395e-21)
(1.10092 0.139748 8.05681e-21)
(1.09712 0.125519 -1.02301e-20)
(1.09362 0.112435 1.6384e-21)
(1.0903 0.100476 -1.72681e-21)
(1.08679 0.0900414 -3.57427e-22)
(1.08313 0.0806186 2.48683e-22)
(0.59318 0.285455 -2.87565e-19)
(1.07539 0.523042 2.8728e-20)
(1.19462 0.533458 -6.2449e-20)
(1.19061 0.483586 8.13158e-20)
(1.16995 0.426432 -1.54633e-20)
(1.1518 0.377578 -6.46155e-20)
(1.13835 0.335466 -6.42284e-20)
(1.12796 0.299349 1.35101e-20)
(1.11988 0.267852 -1.27635e-20)
(1.11331 0.240236 1.13519e-20)
(1.10786 0.2158 1.47736e-20)
(1.10319 0.194062 -9.69791e-21)
(1.09908 0.174598 -1.28203e-21)
(1.09537 0.157095 5.93195e-21)
(1.09196 0.14129 -6.60202e-21)
(1.08879 0.126924 1.66559e-21)
(1.08585 0.113724 7.24985e-22)
(1.08302 0.101703 -2.09294e-21)
(1.07992 0.0912663 -1.51008e-21)
(1.07664 0.0817622 -5.27072e-21)
(0.601612 0.313256 1.30476e-19)
(1.06412 0.549677 2.7164e-19)
(1.1723 0.55077 -2.67148e-19)
(1.16646 0.494897 1.56123e-20)
(1.14771 0.434493 -6.35922e-20)
(1.13181 0.38369 1.28845e-19)
(1.12039 0.340202 -3.87871e-20)
(1.11171 0.303072 -2.10246e-21)
(1.1051 0.270824 -1.14452e-20)
(1.09981 0.242653 1.39581e-20)
(1.09548 0.217801 -2.7489e-21)
(1.0918 0.195751 -5.72452e-21)
(1.08857 0.176054 5.23295e-22)
(1.08565 0.158378 -2.26436e-21)
(1.08295 0.142443 2.43754e-21)
(1.08041 0.127974 -5.52705e-21)
(1.07805 0.114696 2.56207e-22)
(1.07572 0.102645 -2.09138e-21)
(1.07303 0.0922326 -2.7288e-21)
(1.07017 0.0826764 5.87077e-21)
(0.605843 0.340229 -1.01773e-19)
(1.04866 0.574371 -9.64053e-20)
(1.14728 0.566213 4.26385e-20)
(1.14087 0.504768 1.01853e-20)
(1.12452 0.441406 -9.66977e-21)
(1.11114 0.388803 -8.6744e-20)
(1.10191 0.344058 2.93437e-20)
(1.09506 0.306012 -2.52116e-20)
(1.09002 0.273094 8.16937e-22)
(1.08608 0.244435 -4.91274e-21)
(1.08294 0.219225 9.96571e-22)
(1.08029 0.196917 -1.52689e-21)
(1.07798 0.177033 3.61078e-21)
(1.07588 0.159225 1.66216e-21)
(1.0739 0.143198 -9.98012e-22)
(1.07202 0.128666 -2.22438e-21)
(1.07025 0.115348 3.39936e-21)
(1.06843 0.103301 4.48534e-21)
(1.06617 0.0929378 7.92038e-21)
(1.06373 0.0833643 4.2707e-21)
(0.605977 0.36601 -2.37699e-19)
(1.0293 0.596919 3.42538e-19)
(1.11982 0.57966 1.11745e-19)
(1.11391 0.513039 -7.94762e-20)
(1.10048 0.447078 6.16167e-20)
(1.08986 0.392843 1.91369e-20)
(1.08298 0.346971 2.16805e-20)
(1.07807 0.30812 1.68299e-21)
(1.07469 0.274621 7.75044e-21)
(1.07217 0.245551 -2.74987e-21)
(1.07026 0.220049 -7.73261e-22)
(1.06869 0.197539 -5.21938e-21)
(1.06733 0.177518 -1.88252e-20)
(1.06607 0.159624 8.26253e-21)
(1.06484 0.143548 4.05456e-21)
(1.06363 0.128993 7.19195e-21)
(1.06245 0.115676 -9.758e-21)
(1.06115 0.103664 5.01722e-22)
(1.05934 0.0933771 8.60392e-21)
(1.05736 0.0838289 2.67537e-20)
(0.602182 0.390255 5.34404e-19)
(1.00623 0.617032 -2.71098e-19)
(1.09024 0.591035 3.37497e-20)
(1.08576 0.519595 -1.04529e-19)
(1.07568 0.451404 -3.61706e-20)
(1.06802 0.395739 3.92769e-22)
(1.06364 0.348884 -5.8169e-21)
(1.06078 0.309351 -5.88591e-21)
(1.05915 0.275372 -9.56455e-22)
(1.05811 0.245974 -2.35065e-20)
(1.05748 0.220251 1.47404e-20)
(1.05702 0.197601 1.72506e-21)
(1.05665 0.177498 8.61453e-21)
(1.05625 0.159566 -1.39115e-20)
(1.05579 0.143484 1.75373e-20)
(1.05526 0.12895 6.37522e-21)
(1.05469 0.115673 -9.43931e-21)
(1.05392 0.103726 -1.70924e-21)
(1.05257 0.093539 -3.1295e-20)
(1.05107 0.0840705 -1.53257e-20)
(0.594674 0.412708 -2.58428e-19)
(0.979505 0.634343 -2.7685e-19)
(1.05888 0.600245 9.00614e-20)
(1.05659 0.524374 4.7636e-20)
(1.05022 0.454293 5.59116e-20)
(1.04572 0.397421 -8.19931e-21)
(1.04396 0.349744 -1.10492e-20)
(1.04325 0.309662 1.84193e-20)
(1.04344 0.275312 -3.70441e-20)
(1.04393 0.245678 8.30918e-21)
(1.04463 0.219812 -1.37799e-20)
(1.04532 0.197087 5.34556e-21)
(1.04596 0.176961 -3.10896e-20)
(1.04644 0.159042 1.26358e-20)
(1.04677 0.142999 -2.6395e-20)
(1.04694 0.128529 1.17939e-20)
(1.04698 0.115335 5.64967e-21)
(1.04673 0.103474 1.72407e-20)
(1.04586 0.0934025 2.7281e-20)
(1.04487 0.0840801 -3.96646e-21)
(0.583663 0.433199 8.78357e-20)
(0.949448 0.648604 2.76087e-19)
(1.02597 0.607089 -6.90675e-20)
(1.02654 0.527331 7.13133e-20)
(1.02421 0.455666 -2.11454e-20)
(1.02303 0.397826 -8.61426e-21)
(1.02402 0.349505 2.6772e-20)
(1.02555 0.309016 -2.35835e-20)
(1.02761 0.274412 -1.31568e-22)
(1.0297 0.24464 6.71964e-21)
(1.03176 0.218713 2.10943e-22)
(1.03363 0.195985 5.55945e-20)
(1.03529 0.175896 2.79659e-20)
(1.03668 0.158042 -1.4487e-20)
(1.03781 0.142088 1.67286e-20)
(1.03869 0.127729 -1.18438e-20)
(1.03934 0.11466 -4.40357e-22)
(1.03962 0.102903 -6.48109e-20)
(1.03924 0.092943 -2.9136e-20)
(1.03879 0.0838335 -2.36158e-20)
(0.569259 0.451462 1.93877e-20)
(0.916657 0.659799 8.58878e-20)
(0.991732 0.611361 -6.92092e-20)
(0.995789 0.528383 -7.99182e-21)
(0.997761 0.455457 -1.64191e-20)
(1.00005 0.396899 -1.34265e-20)
(1.00388 0.348123 -2.0365e-20)
(1.00772 0.30738 -1.42478e-20)
(1.01173 0.272648 -1.50106e-20)
(1.01544 0.24284 2.89166e-20)
(1.0189 0.216939 -2.78162e-20)
(1.02197 0.194282 -8.73402e-20)
(1.02468 0.174293 -2.08957e-20)
(1.02699 0.156561 -1.0217e-20)
(1.02894 0.140743 3.13695e-20)
(1.03054 0.126543 -5.3501e-21)
(1.0318 0.113647 6.52004e-21)
(1.03261 0.102016 -1.19921e-20)
(1.03276 0.0921582 4.3834e-20)
(1.03287 0.0833246 -2.83725e-20)
(0.551536 0.467047 4.46327e-20)
(0.881653 0.667872 -1.69208e-19)
(0.956384 0.612972 2.72247e-20)
(0.964487 0.527452 -1.37887e-20)
(0.970992 0.453609 5.45613e-21)
(0.976868 0.394589 7.01168e-20)
(0.983632 0.345562 -6.26649e-20)
(0.989845 0.304727 -1.69017e-20)
(0.995836 0.269999 3.5725e-21)
(1.00121 0.240264 -1.08275e-19)
(1.0061 0.21448 1.90174e-20)
(1.01038 0.19197 6.99316e-20)
(1.01415 0.172147 6.9539e-20)
(1.0174 0.15459 1.7376e-20)
(1.02018 0.138958 -2.61751e-20)
(1.02249 0.124965 -1.03562e-20)
(1.02435 0.112288 3.13285e-20)
(1.02574 0.100814 3.57991e-21)
(1.02653 0.0910738 4.88356e-21)
(1.02728 0.0826556 4.77531e-20)
(0.530837 0.479627 -2.15947e-19)
(0.844783 0.672661 7.62811e-20)
(0.920162 0.611883 4.25424e-21)
(0.932803 0.524464 -3.00764e-21)
(0.944027 0.450072 5.43513e-20)
(0.953587 0.390859 -3.33593e-20)
(0.963354 0.341794 4.47851e-20)
(0.971989 0.301034 -3.25173e-20)
(0.980002 0.266447 -5.29148e-20)
(0.987066 0.236898 1.68108e-19)
(0.993388 0.211325 4.29506e-21)
(0.99891 0.189042 -9.83416e-21)
(1.00375 0.169451 -3.10094e-20)
(1.00794 0.152128 -2.66727e-21)
(1.01154 0.136729 -2.26462e-21)
(1.01456 0.122983 2.00203e-20)
(1.01703 0.110559 -1.71579e-20)
(1.01906 0.0992561 -1.56999e-20)
(1.02071 0.0896373 3.41032e-21)