/*--------------------------------*- C++ -*----------------------------------*\
  =========                 |
  \\      /  F ield         | OpenFOAM: The Open Source CFD Toolbox
   \\    /   O peration     | Website:  https://openfoam.org
    \\  /    A nd           | Version:  7
     \\/     M anipulation  |
\*---------------------------------------------------------------------------*/
FoamFile
{
    version     2.0;
    format      ascii;
    class       volScalarField;
    location    "5";
    object      p;
}
// * * * * * * * * * * * * * * * * * * * * * * * * * * * * * * * * * * * * * //

dimensions      [0 2 -2 0 0 0 0];

internalField   nonuniform List<scalar> 
42000
(
-0.416611
-0.416267
-0.405896
-0.391124
-0.373859
-0.353473
-0.332344
-0.309686
-0.286878
-0.263552
-0.24048
-0.217361
-0.194964
-0.172432
-0.151556
-0.129404
-0.111452
-0.0885418
-0.0763253
-0.0511757
-0.416901
-0.416441
-0.40606
-0.391241
-0.373967
-0.353563
-0.33243
-0.309767
-0.286959
-0.263636
-0.240569
-0.217457
-0.19507
-0.17255
-0.151693
-0.12955
-0.111637
-0.0887017
-0.0766098
-0.0512343
-0.417482
-0.41679
-0.406387
-0.391475
-0.374183
-0.353743
-0.332602
-0.309929
-0.287122
-0.263803
-0.240746
-0.217648
-0.195282
-0.172783
-0.151964
-0.12984
-0.112004
-0.0890188
-0.0771724
-0.0513513
-0.418351
-0.417311
-0.406876
-0.391825
-0.374506
-0.354013
-0.332859
-0.310171
-0.287366
-0.264052
-0.24101
-0.217933
-0.195598
-0.173132
-0.152366
-0.13027
-0.112548
-0.0894884
-0.0780011
-0.0515264
-0.419507
-0.418005
-0.407526
-0.392291
-0.374935
-0.354371
-0.3332
-0.310491
-0.287688
-0.264381
-0.24136
-0.21831
-0.196015
-0.173591
-0.152896
-0.130834
-0.113259
-0.0901034
-0.0790783
-0.0517593
-0.420945
-0.418868
-0.408336
-0.39287
-0.375468
-0.354815
-0.333623
-0.310889
-0.288088
-0.26479
-0.241793
-0.218775
-0.196529
-0.174156
-0.153546
-0.131527
-0.114127
-0.0908547
-0.0803814
-0.0520496
-0.422664
-0.4199
-0.409303
-0.393561
-0.376105
-0.355345
-0.334127
-0.311362
-0.288564
-0.265275
-0.242306
-0.219326
-0.197136
-0.174822
-0.154309
-0.132338
-0.115138
-0.0917314
-0.0818837
-0.0523967
-0.424657
-0.421096
-0.410424
-0.394362
-0.376842
-0.355958
-0.33471
-0.311909
-0.289112
-0.265833
-0.242895
-0.219958
-0.197831
-0.175582
-0.155178
-0.133259
-0.116277
-0.0927211
-0.0835556
-0.0528002
-0.426921
-0.422455
-0.411697
-0.395271
-0.377678
-0.356653
-0.33537
-0.312526
-0.289731
-0.266462
-0.243558
-0.220667
-0.198608
-0.17643
-0.156141
-0.134279
-0.117528
-0.0938102
-0.0853649
-0.0532595
-0.429449
-0.423973
-0.413119
-0.396285
-0.37861
-0.357426
-0.336103
-0.313212
-0.290417
-0.267158
-0.24429
-0.221447
-0.19946
-0.177357
-0.157189
-0.135384
-0.118872
-0.0949844
-0.0872785
-0.0537743
-0.432235
-0.425647
-0.414685
-0.397402
-0.379634
-0.358275
-0.336907
-0.313962
-0.291166
-0.267917
-0.245086
-0.222293
-0.200381
-0.178355
-0.15831
-0.136564
-0.120291
-0.0962286
-0.0892628
-0.0543438
-0.435272
-0.427472
-0.416392
-0.398618
-0.380749
-0.359197
-0.337779
-0.314774
-0.291976
-0.268734
-0.245941
-0.223199
-0.201362
-0.179415
-0.159492
-0.137804
-0.121766
-0.0975277
-0.0912849
-0.0549675
-0.438553
-0.429443
-0.418236
-0.399929
-0.381951
-0.360189
-0.338716
-0.315645
-0.292841
-0.269606
-0.246849
-0.224158
-0.202396
-0.180527
-0.160723
-0.139092
-0.123278
-0.0988664
-0.0933132
-0.0556445
-0.442073
-0.431554
-0.420211
-0.401333
-0.383235
-0.361248
-0.339714
-0.31657
-0.293759
-0.270527
-0.247806
-0.225164
-0.203475
-0.18168
-0.16199
-0.140413
-0.124807
-0.10023
-0.0953183
-0.0563738
-0.445828
-0.433796
-0.422314
-0.402826
-0.3846
-0.36237
-0.34077
-0.317546
-0.294724
-0.271493
-0.248805
-0.22621
-0.204589
-0.182866
-0.163281
-0.141753
-0.126337
-0.101604
-0.0972732
-0.0571541
-0.449779
-0.436186
-0.424538
-0.404403
-0.38604
-0.363552
-0.34188
-0.318569
-0.295733
-0.272498
-0.24984
-0.227288
-0.205731
-0.184074
-0.164583
-0.1431
-0.127849
-0.102975
-0.0991537
-0.0579834
-0.453946
-0.438699
-0.426879
-0.406062
-0.387552
-0.36479
-0.343041
-0.319635
-0.296781
-0.273538
-0.250904
-0.228391
-0.20689
-0.185292
-0.165884
-0.144441
-0.129327
-0.104329
-0.100939
-0.0588593
-0.458316
-0.441329
-0.429332
-0.407797
-0.389133
-0.366081
-0.344247
-0.32074
-0.297863
-0.274606
-0.251992
-0.22951
-0.208058
-0.186512
-0.167171
-0.145762
-0.130756
-0.105655
-0.102612
-0.0597789
-0.462875
-0.444075
-0.431891
-0.409605
-0.390777
-0.367421
-0.345497
-0.32188
-0.298974
-0.275697
-0.253097
-0.23064
-0.209225
-0.187722
-0.168432
-0.147051
-0.132123
-0.106943
-0.104158
-0.0607384
-0.467613
-0.446929
-0.434549
-0.411482
-0.392481
-0.368807
-0.346785
-0.32305
-0.300109
-0.276806
-0.254212
-0.23177
-0.210383
-0.188912
-0.169656
-0.148297
-0.133415
-0.108181
-0.105566
-0.0617335
-0.472519
-0.449886
-0.437302
-0.413423
-0.394242
-0.370233
-0.348108
-0.324247
-0.301264
-0.277927
-0.25533
-0.232895
-0.211523
-0.190073
-0.170832
-0.14949
-0.134621
-0.109362
-0.106828
-0.062759
-0.477583
-0.452939
-0.440143
-0.415424
-0.396053
-0.371698
-0.349462
-0.325465
-0.302434
-0.279054
-0.256444
-0.234005
-0.212634
-0.191194
-0.17195
-0.150619
-0.135731
-0.110478
-0.107938
-0.0638091
-0.482793
-0.456081
-0.443066
-0.41748
-0.397913
-0.373197
-0.350842
-0.326701
-0.303613
-0.28018
-0.257548
-0.235093
-0.213709
-0.192265
-0.172999
-0.151674
-0.136738
-0.111522
-0.108895
-0.0648775
-0.488139
-0.459307
-0.446065
-0.419587
-0.399816
-0.374726
-0.352245
-0.32795
-0.304797
-0.281301
-0.258634
-0.236151
-0.214739
-0.193278
-0.173971
-0.152648
-0.137635
-0.112489
-0.109697
-0.0659572
-0.493609
-0.46261
-0.449134
-0.421741
-0.401757
-0.376281
-0.353667
-0.329208
-0.305979
-0.28241
-0.259695
-0.23717
-0.215714
-0.194224
-0.174856
-0.153533
-0.138415
-0.113373
-0.110346
-0.067041
-0.499192
-0.465981
-0.452267
-0.423938
-0.403734
-0.377859
-0.355103
-0.33047
-0.307156
-0.2835
-0.260725
-0.238143
-0.216628
-0.195095
-0.175649
-0.154322
-0.139075
-0.114173
-0.110845
-0.0681214
-0.504876
-0.469416
-0.455456
-0.426172
-0.405742
-0.379456
-0.35655
-0.331732
-0.30832
-0.284566
-0.261716
-0.239063
-0.21747
-0.195881
-0.17634
-0.155009
-0.139611
-0.114884
-0.111198
-0.0691907
-0.51065
-0.472905
-0.458697
-0.428439
-0.407776
-0.381068
-0.358003
-0.332988
-0.309468
-0.285601
-0.26266
-0.239921
-0.218235
-0.196577
-0.176925
-0.15559
-0.140022
-0.115505
-0.111408
-0.0702413
-0.516501
-0.476444
-0.461982
-0.430735
-0.409832
-0.382691
-0.359458
-0.334234
-0.310593
-0.286599
-0.263552
-0.240709
-0.218913
-0.197174
-0.177396
-0.156059
-0.140305
-0.116035
-0.111482
-0.0712657
-0.522418
-0.480023
-0.465304
-0.433056
-0.411906
-0.384322
-0.36091
-0.335466
-0.31169
-0.287553
-0.264383
-0.241421
-0.219499
-0.197666
-0.17775
-0.156413
-0.14046
-0.116473
-0.111425
-0.0722569
-0.528389
-0.483637
-0.468658
-0.435396
-0.413993
-0.385955
-0.362355
-0.336678
-0.312752
-0.288456
-0.265147
-0.242049
-0.219984
-0.198046
-0.177982
-0.156649
-0.140487
-0.116819
-0.111241
-0.073208
-0.534403
-0.487278
-0.472037
-0.437751
-0.41609
-0.387587
-0.363789
-0.337864
-0.313774
-0.289303
-0.265835
-0.242585
-0.220362
-0.19831
-0.178089
-0.156765
-0.140386
-0.117074
-0.110934
-0.0741129
-0.540446
-0.490938
-0.475433
-0.440116
-0.418191
-0.389214
-0.365206
-0.33902
-0.31475
-0.290085
-0.266442
-0.243022
-0.220627
-0.198452
-0.178066
-0.156759
-0.140158
-0.117239
-0.110507
-0.074966
-0.546507
-0.494609
-0.478841
-0.442487
-0.420291
-0.390831
-0.366601
-0.34014
-0.315673
-0.290796
-0.26696
-0.243355
-0.220774
-0.198468
-0.177913
-0.156629
-0.139805
-0.117314
-0.109962
-0.0757644
-0.552575
-0.498285
-0.482252
-0.444858
-0.422386
-0.392433
-0.36797
-0.341217
-0.316536
-0.29143
-0.267382
-0.243576
-0.220797
-0.198353
-0.177626
-0.156374
-0.139329
-0.117303
-0.109298
-0.0765115
-0.558636
-0.501957
-0.485661
-0.447224
-0.42447
-0.394016
-0.369306
-0.342247
-0.317333
-0.291979
-0.267702
-0.243678
-0.22069
-0.198103
-0.177206
-0.155994
-0.13873
-0.117206
-0.108513
-0.0772128
-0.564678
-0.505618
-0.48906
-0.449579
-0.426539
-0.395574
-0.370604
-0.343222
-0.318057
-0.292435
-0.267911
-0.243657
-0.220449
-0.197716
-0.176649
-0.155488
-0.138013
-0.117027
-0.107597
-0.0778437
-0.570688
-0.509259
-0.492441
-0.45192
-0.428587
-0.397102
-0.371858
-0.344136
-0.3187
-0.292793
-0.268004
-0.243505
-0.220071
-0.197188
-0.175957
-0.154856
-0.137179
-0.116768
-0.106517
-0.0783525
-0.576655
-0.512873
-0.495797
-0.454238
-0.430607
-0.398594
-0.373062
-0.344982
-0.319257
-0.293044
-0.267974
-0.243218
-0.21955
-0.196518
-0.175129
-0.154097
-0.136233
-0.116431
-0.105234
-0.0789517
-0.582567
-0.516451
-0.499121
-0.45653
-0.432595
-0.400045
-0.374208
-0.345754
-0.319718
-0.293181
-0.267814
-0.24279
-0.218884
-0.195704
-0.174165
-0.153211
-0.135179
-0.116011
-0.103781
-0.0806521
-0.588412
-0.519988
-0.502408
-0.45879
-0.434545
-0.401449
-0.375292
-0.346443
-0.320078
-0.293199
-0.267519
-0.242217
-0.21807
-0.194743
-0.173066
-0.152198
-0.134023
-0.11549
-0.102341
-0.0843324
-0.594172
-0.523469
-0.505643
-0.461009
-0.436448
-0.402796
-0.376303
-0.347043
-0.320328
-0.293088
-0.267082
-0.241494
-0.217106
-0.193635
-0.171832
-0.151057
-0.132767
-0.114851
-0.10087
-0.0861272
-0.599835
-0.526887
-0.50882
-0.463179
-0.438296
-0.404082
-0.377234
-0.347545
-0.32046
-0.292843
-0.266499
-0.240618
-0.215988
-0.19238
-0.170464
-0.149788
-0.131414
-0.11408
-0.0994348
-0.0869837
-0.605389
-0.530234
-0.511932
-0.465296
-0.440084
-0.405298
-0.378079
-0.347941
-0.320467
-0.292456
-0.265762
-0.239584
-0.214715
-0.190975
-0.168962
-0.148392
-0.129966
-0.113174
-0.0980268
-0.0874452
-0.61082
-0.5335
-0.514969
-0.467352
-0.441804
-0.406436
-0.378828
-0.348223
-0.32034
-0.291921
-0.264867
-0.238389
-0.213286
-0.189423
-0.167327
-0.146869
-0.128424
-0.112134
-0.0966298
-0.0875822
-0.616115
-0.536676
-0.517922
-0.469338
-0.443446
-0.40749
-0.379474
-0.348383
-0.320073
-0.291231
-0.26381
-0.23703
-0.211699
-0.187721
-0.165561
-0.145219
-0.126787
-0.110959
-0.0952295
-0.0874162
-0.621259
-0.539753
-0.520781
-0.471246
-0.445004
-0.408449
-0.380006
-0.348412
-0.319657
-0.29038
-0.262586
-0.235504
-0.209954
-0.185871
-0.163663
-0.143443
-0.125055
-0.109652
-0.0938132
-0.0869828
-0.626238
-0.542719
-0.523537
-0.473068
-0.446467
-0.409305
-0.380417
-0.348302
-0.319085
-0.289362
-0.26119
-0.233811
-0.208049
-0.183873
-0.161635
-0.141542
-0.123227
-0.108214
-0.0923681
-0.0863142
-0.631038
-0.545565
-0.526179
-0.474795
-0.447826
-0.410049
-0.380697
-0.348043
-0.318349
-0.288171
-0.259619
-0.231946
-0.205985
-0.181728
-0.159477
-0.139517
-0.121301
-0.106647
-0.0908816
-0.0854357
-0.635644
-0.548279
-0.528697
-0.476417
-0.449071
-0.410671
-0.380835
-0.347627
-0.317441
-0.286802
-0.257869
-0.22991
-0.203762
-0.179436
-0.15719
-0.137368
-0.119277
-0.104952
-0.089342
-0.0843668
-0.640039
-0.550852
-0.53108
-0.477925
-0.450193
-0.41116
-0.380823
-0.347046
-0.316355
-0.285248
-0.255938
-0.2277
-0.201379
-0.176998
-0.154775
-0.135096
-0.117152
-0.103132
-0.0877383
-0.083123
-0.644211
-0.553271
-0.533316
-0.479308
-0.45118
-0.411508
-0.38065
-0.34629
-0.315083
-0.283506
-0.253822
-0.225316
-0.198837
-0.174416
-0.152233
-0.132702
-0.114925
-0.101188
-0.0860608
-0.0817159
-0.648142
-0.555524
-0.535394
-0.480556
-0.452022
-0.411702
-0.380306
-0.345351
-0.313619
-0.28157
-0.251519
-0.222757
-0.196137
-0.171691
-0.149564
-0.130186
-0.112594
-0.0991218
-0.0843004
-0.0801546
-0.651817
-0.557602
-0.537301
-0.481657
-0.452707
-0.411733
-0.379781
-0.344219
-0.311955
-0.279438
-0.249027
-0.220024
-0.193279
-0.168823
-0.146768
-0.12755
-0.110158
-0.0969334
-0.0824494
-0.078446
-0.655219
-0.55949
-0.539027
-0.482601
-0.453223
-0.411589
-0.379065
-0.342888
-0.310086
-0.277103
-0.246345
-0.217115
-0.190264
-0.165813
-0.143848
-0.124795
-0.107615
-0.0946243
-0.0805007
-0.0765951
-0.658334
-0.561177
-0.540557
-0.483376
-0.45356
-0.411259
-0.378149
-0.341348
-0.308006
-0.274564
-0.24347
-0.214032
-0.187093
-0.162665
-0.140803
-0.12192
-0.104964
-0.092195
-0.0784482
-0.0746056
-0.661143
-0.56265
-0.541879
-0.48397
-0.453703
-0.410732
-0.377021
-0.339592
-0.305709
-0.271817
-0.240402
-0.210774
-0.183768
-0.159377
-0.137634
-0.118926
-0.102204
-0.0896463
-0.0762865
-0.07248
-0.663632
-0.563896
-0.542979
-0.48437
-0.453643
-0.409996
-0.375672
-0.337612
-0.30319
-0.268859
-0.237141
-0.207342
-0.180289
-0.155953
-0.134342
-0.115815
-0.0993333
-0.0869787
-0.074011
-0.0702202
-0.665782
-0.564903
-0.543845
-0.484563
-0.453364
-0.409041
-0.374092
-0.335401
-0.300444
-0.265689
-0.233686
-0.203738
-0.176658
-0.152393
-0.130929
-0.112588
-0.0963519
-0.0841927
-0.0716179
-0.0678273
-0.667576
-0.565656
-0.544463
-0.484538
-0.452856
-0.407854
-0.372271
-0.33295
-0.297467
-0.262304
-0.230037
-0.199962
-0.172876
-0.148699
-0.127394
-0.109244
-0.093259
-0.0812888
-0.0691039
-0.0653022
-0.668999
-0.566143
-0.544818
-0.484281
-0.452105
-0.406425
-0.370201
-0.330255
-0.294255
-0.258702
-0.226193
-0.196016
-0.168945
-0.144872
-0.123739
-0.105786
-0.0900545
-0.0782677
-0.0664665
-0.0626453
-0.670033
-0.566349
-0.544896
-0.483779
-0.451099
-0.404743
-0.367872
-0.327309
-0.290804
-0.254883
-0.222157
-0.191901
-0.164868
-0.140915
-0.119965
-0.102213
-0.0867382
-0.0751298
-0.0637038
-0.0598571
-0.67066
-0.566261
-0.544683
-0.483018
-0.449824
-0.402796
-0.365276
-0.324105
-0.287112
-0.250846
-0.217928
-0.187619
-0.160644
-0.136828
-0.116073
-0.0985276
-0.0833104
-0.0718761
-0.0608145
-0.0569381
-0.670864
-0.565865
-0.544165
-0.481986
-0.448268
-0.400573
-0.362404
-0.320639
-0.283175
-0.246591
-0.213508
-0.183171
-0.156277
-0.132614
-0.112065
-0.0947305
-0.0797716
-0.0685075
-0.0577981
-0.0538887
-0.670628
-0.565147
-0.543328
-0.480668
-0.446419
-0.398066
-0.359248
-0.316905
-0.278992
-0.242117
-0.208897
-0.17856
-0.151769
-0.128275
-0.107942
-0.0908231
-0.0761227
-0.0650249
-0.0546545
-0.0507097
-0.669934
-0.564092
-0.542156
-0.479052
-0.444264
-0.395262
-0.355802
-0.3129
-0.274561
-0.237425
-0.204098
-0.173787
-0.147121
-0.123812
-0.103706
-0.086807
-0.0723646
-0.0614297
-0.0513839
-0.0474003
-0.668767
-0.562688
-0.540635
-0.477124
-0.441791
-0.392153
-0.352058
-0.308619
-0.26988
-0.232515
-0.199112
-0.168855
-0.142335
-0.119227
-0.0993579
-0.0826838
-0.0684988
-0.0577235
-0.0479871
-0.043962
-0.667109
-0.560919
-0.538751
-0.474871
-0.438988
-0.388729
-0.348009
-0.30406
-0.26495
-0.227388
-0.193941
-0.163765
-0.137414
-0.114522
-0.0948999
-0.0784552
-0.0645267
-0.0539079
-0.0444657
-0.0403962
-0.664944
-0.558773
-0.53649
-0.472281
-0.435843
-0.384981
-0.343651
-0.299218
-0.259768
-0.222047
-0.188587
-0.158522
-0.13236
-0.1097
-0.0903341
-0.0741233
-0.0604504
-0.0499849
-0.0408218
-0.0367044
-0.662257
-0.556235
-0.533837
-0.469339
-0.432346
-0.380902
-0.338977
-0.294093
-0.254337
-0.216492
-0.183053
-0.153126
-0.127176
-0.104763
-0.0856624
-0.0696901
-0.056272
-0.0459568
-0.0370579
-0.0328884
-0.659031
-0.553291
-0.530779
-0.466034
-0.428486
-0.376483
-0.333983
-0.288682
-0.248656
-0.210725
-0.177341
-0.14758
-0.121864
-0.099713
-0.0808872
-0.0651581
-0.0519939
-0.0418263
-0.0331775
-0.0289506
-0.655252
-0.549929
-0.527302
-0.462354
-0.424252
-0.371717
-0.328665
-0.282985
-0.242725
-0.204749
-0.171454
-0.141888
-0.116427
-0.0945527
-0.0760109
-0.0605297
-0.0476188
-0.037596
-0.0291841
-0.0248937
-0.650904
-0.546135
-0.523393
-0.458287
-0.419634
-0.366597
-0.323019
-0.277
-0.236547
-0.198565
-0.165394
-0.136053
-0.110867
-0.0892848
-0.071036
-0.0558076
-0.0431497
-0.0332692
-0.025082
-0.020721
-0.645974
-0.541896
-0.519039
-0.453821
-0.414625
-0.361118
-0.317044
-0.270727
-0.230124
-0.192178
-0.159166
-0.130076
-0.105188
-0.0839119
-0.0659652
-0.0509946
-0.0385897
-0.0288492
-0.020876
-0.016436
-0.640448
-0.537201
-0.514227
-0.448947
-0.409215
-0.355274
-0.310736
-0.264167
-0.223456
-0.185589
-0.152771
-0.123962
-0.0993911
-0.0784368
-0.0608014
-0.0460937
-0.0339423
-0.0243398
-0.0165711
-0.0120428
-0.634313
-0.532037
-0.508946
-0.443653
-0.403397
-0.349062
-0.304094
-0.257322
-0.216548
-0.178802
-0.146214
-0.117714
-0.0934808
-0.0728625
-0.0555474
-0.0411081
-0.029211
-0.0197448
-0.0121728
-0.00754606
-0.627556
-0.526392
-0.503185
-0.437931
-0.397163
-0.342476
-0.297117
-0.250191
-0.209401
-0.171821
-0.139498
-0.111334
-0.08746
-0.0671919
-0.0502065
-0.0360412
-0.0243997
-0.0150685
-0.00768699
-0.00295075
-0.620166
-0.520256
-0.496932
-0.431771
-0.390508
-0.335514
-0.289806
-0.242778
-0.202019
-0.164648
-0.132626
-0.104827
-0.0813317
-0.0614284
-0.0447819
-0.0308963
-0.0195124
-0.0103153
-0.00311969
0.00173764
-0.612133
-0.513617
-0.490177
-0.425164
-0.383426
-0.328174
-0.28216
-0.235085
-0.194406
-0.157289
-0.125603
-0.0981962
-0.0750993
-0.0555751
-0.0392768
-0.0256771
-0.0145531
-0.00548985
0.00152277
0.00651321
-0.603448
-0.506469
-0.482913
-0.418106
-0.375913
-0.320454
-0.274181
-0.227115
-0.186565
-0.149747
-0.118431
-0.0914447
-0.0687661
-0.0496352
-0.0336947
-0.0203873
-0.00952604
-0.000596888
0.00623395
0.0113697
-0.594106
-0.498805
-0.475134
-0.41059
-0.367967
-0.312356
-0.265873
-0.218872
-0.178501
-0.142026
-0.111117
-0.0845763
-0.0623357
-0.0436122
-0.028039
-0.0150306
-0.00443552
0.00435865
0.0110072
0.0163004
-0.584089
-0.490607
-0.466824
-0.402606
-0.35958
-0.303875
-0.257234
-0.210359
-0.170218
-0.134131
-0.103662
-0.0775953
-0.0558118
-0.03751
-0.0223138
-0.0096113
0.000713782
0.00937166
0.0158354
0.0212984
-0.573393
-0.481872
-0.45798
-0.39415
-0.350751
-0.295013
-0.248269
-0.20158
-0.16172
-0.126067
-0.096073
-0.0705056
-0.0491982
-0.031332
-0.0165225
-0.00413326
0.00591739
0.0144372
0.0207116
0.0263564
-0.562013
-0.472593
-0.448595
-0.385219
-0.341482
-0.285774
-0.238982
-0.19254
-0.153015
-0.117839
-0.0883531
-0.0633111
-0.0424986
-0.025082
-0.0106691
0.00139972
0.0111704
0.0195489
0.0256306
0.0314665
-0.549947
-0.462766
-0.438667
-0.375811
-0.331771
-0.276159
-0.229377
-0.183246
-0.144105
-0.109451
-0.0805074
-0.0560162
-0.035717
-0.0187639
-0.0047572
0.00698363
0.0164683
0.0247014
0.0305854
0.0366211
-0.537189
-0.452385
-0.428191
-0.365924
-0.32162
-0.266171
-0.21946
-0.173701
-0.134998
-0.100909
-0.0725405
-0.048625
-0.0288574
-0.0123811
0.00120896
0.0126123
0.0218078
0.0298898
0.0355691
0.0418123
-0.523737
-0.441447
-0.417163
-0.355555
-0.31103
-0.255815
-0.209236
-0.163914
-0.1257
-0.0922189
-0.0644572
-0.0411421
-0.0219237
-0.00593767
0.00722476
0.0182835
0.027183
0.0351086
0.0405755
0.0470321
-0.509591
-0.429948
-0.405583
-0.344706
-0.300003
-0.245095
-0.198711
-0.153889
-0.116216
-0.0833857
-0.0562626
-0.0335717
-0.0149202
0.000561057
0.0132878
0.0239924
0.0325894
0.0403524
0.0455987
0.0522724
-0.494751
-0.417887
-0.393449
-0.333377
-0.288544
-0.234017
-0.187891
-0.143634
-0.106553
-0.0744153
-0.0479618
-0.0259186
-0.00785122
0.00711243
0.019393
0.0297348
0.0380226
0.0456158
0.0506328
0.0575249
-0.479217
-0.405262
-0.380763
-0.321571
-0.276657
-0.222587
-0.176785
-0.133157
-0.0967172
-0.0653137
-0.03956
-0.0181874
-0.000720875
0.0137121
0.0255362
0.0355063
0.043478
0.0508935
0.0556723
0.0627817
-0.462994
-0.392075
-0.367526
-0.30929
-0.264348
-0.210812
-0.165399
-0.122464
-0.0867164
-0.0560868
-0.0310624
-0.0103829
0.00646644
0.0203557
0.0317134
0.0413028
0.0489514
0.0561804
0.0607119
0.0680346
-0.446084
-0.378327
-0.353741
-0.296538
-0.251623
-0.198699
-0.153742
-0.111563
-0.0765572
-0.0467408
-0.0224748
-0.00250985
0.0137062
0.027039
0.0379206
0.0471199
0.0544382
0.0614712
0.0657467
0.0732759
-0.428495
-0.364021
-0.339411
-0.283322
-0.238489
-0.186258
-0.141823
-0.100463
-0.0662471
-0.0372826
-0.0138023
0.00542685
0.020994
0.033758
0.0441535
0.0529535
0.0599343
0.0667611
0.0707721
0.0784976
-0.410233
-0.34916
-0.324544
-0.269647
-0.224956
-0.173497
-0.12965
-0.0891724
-0.0557937
-0.0277182
-0.0050508
0.0134222
0.0283253
0.0405082
0.0504082
0.0587995
0.0654355
0.0720454
0.0757836
0.0836925
-0.391306
-0.33375
-0.309144
-0.25552
-0.211032
-0.160426
-0.117235
-0.0776997
-0.0452046
-0.0180545
0.00377396
0.021471
0.0356954
0.0472854
0.0566804
0.0646538
0.0709378
0.0773193
0.0807774
0.0888533
-0.371724
-0.317796
-0.293221
-0.240952
-0.196727
-0.147055
-0.104586
-0.0660543
-0.0344878
-0.00829807
0.0126661
0.0295683
0.0430998
0.0540853
0.0629661
0.0705123
0.0764371
0.0825785
0.0857496
0.0939732
-0.351499
-0.301308
-0.276782
-0.22595
-0.182053
-0.133396
-0.0917149
-0.0542453
-0.0236514
0.00154402
0.0216198
0.0377087
0.0505337
0.0609037
0.0692613
0.0763711
0.0819298
0.0878187
0.0906969
0.0990457
-0.330644
-0.284294
-0.259839
-0.210525
-0.167021
-0.119459
-0.078632
-0.0422826
-0.0127038
0.0114648
0.0306288
0.0458871
0.0579925
0.0677361
0.0755618
0.0822262
0.087412
0.093036
0.0956161
0.104065
-0.309172
-0.266763
-0.242404
-0.194691
-0.151644
-0.105258
-0.0653489
-0.0301758
-0.00165338
0.021457
0.0396871
0.054098
0.0654712
0.0745782
0.0818637
0.0880738
0.0928802
0.0982263
0.100504
0.109025
-0.287101
-0.248728
-0.224488
-0.178458
-0.135936
-0.0908047
-0.0518771
-0.0179352
0.00949122
0.0315135
0.0487885
0.0623361
0.0729653
0.0814257
0.088163
0.0939103
0.0983309
0.103386
0.105359
0.113921
-0.264445
-0.230202
-0.206107
-0.161841
-0.119913
-0.0761113
-0.0382288
-0.00557108
0.0207212
0.0416268
0.0579266
0.0705959
0.0804698
0.0882742
0.0944557
0.0997318
0.103761
0.108512
0.110178
0.118748
-0.241226
-0.211197
-0.187275
-0.144855
-0.103583
-0.0611962
-0.0244165
0.00690598
0.0320276
0.0517894
0.0670951
0.0788718
0.0879798
0.0951195
0.100738
0.105535
0.109167
0.113601
0.11496
0.123503
-0.217461
-0.19173
-0.168008
-0.127515
-0.0869689
-0.0460696
-0.0104528
0.0194852
0.0434015
0.0619938
0.0762875
0.0871585
0.0954905
0.101957
0.107006
0.111316
0.114545
0.11865
0.119701
0.128181
-0.193174
-0.171818
-0.148329
-0.109834
-0.070085
-0.0307466
0.00364919
0.0321557
0.0548335
0.0722323
0.0854972
0.0954501
0.102997
0.108783
0.113255
0.117071
0.119893
0.123655
0.124401
0.132779
-0.168385
-0.151477
-0.12826
-0.0918285
-0.0529481
-0.0152429
0.0178762
0.0449063
0.0663144
0.0824971
0.0947178
0.103741
0.110494
0.115593
0.119483
0.122798
0.125209
0.128615
0.129059
0.137294
-0.143121
-0.130729
-0.10779
-0.0735381
-0.0355761
0.00042593
0.0322147
0.0577257
0.0778347
0.0927803
0.103942
0.112026
0.117978
0.122382
0.125684
0.128493
0.130488
0.133527
0.133672
0.141724
-0.117406
-0.109596
-0.0869679
-0.05496
-0.0179871
0.0162439
0.0466509
0.0706024
0.0893849
0.103074
0.113165
0.120298
0.125442
0.129146
0.131856
0.134152
0.135728
0.138387
0.13824
0.146067
-0.0912643
-0.0880862
-0.0658222
-0.036117
-0.000200125
0.0321948
0.0611708
0.083525
0.100955
0.11337
0.122377
0.128553
0.132883
0.135881
0.137995
0.139773
0.140928
0.143196
0.142763
0.150321
-0.0647232
-0.0662379
-0.0443621
-0.0170323
0.0177654
0.048262
0.0757601
0.0964817
0.112536
0.123661
0.131574
0.136785
0.140294
0.142582
0.144096
0.145352
0.146083
0.147949
0.147238
0.154485
-0.0378205
-0.0440651
-0.0226127
0.00227256
0.0358897
0.0644286
0.0904045
0.109461
0.124118
0.133938
0.140748
0.144986
0.147671
0.149246
0.150157
0.150886
0.151192
0.152645
0.151668
0.158556
-0.0105822
-0.0215944
-0.000600306
0.0217757
0.0541524
0.0806774
0.105089
0.12245
0.13569
0.144193
0.149892
0.153153
0.15501
0.155868
0.156174
0.156373
0.156252
0.157283
0.156049
0.162534
0.0169631
0.0011468
0.0216492
0.0414544
0.0725328
0.0969909
0.1198
0.135437
0.147244
0.154418
0.158999
0.161279
0.162305
0.162444
0.162142
0.161809
0.161261
0.16186
0.160384
0.166418
0.0447822
0.0241322
0.0441094
0.0612854
0.0910099
0.113352
0.134522
0.148411
0.158768
0.164604
0.168062
0.169357
0.16955
0.16897
0.168059
0.167191
0.166216
0.166376
0.164673
0.170207
0.0728414
0.0473347
0.0667531
0.0812449
0.109562
0.129741
0.14924
0.161359
0.170253
0.174744
0.177074
0.177383
0.176742
0.175441
0.173921
0.172517
0.171116
0.170827
0.168916
0.173898
0.101106
0.070726
0.0895523
0.101309
0.128168
0.146143
0.163939
0.174269
0.181689
0.184829
0.186029
0.185351
0.183875
0.181853
0.179724
0.177784
0.175957
0.175213
0.173115
0.17749
0.129541
0.0942769
0.112478
0.121452
0.146806
0.162537
0.178603
0.187128
0.193066
0.19485
0.19492
0.193253
0.190945
0.188202
0.185464
0.182989
0.180737
0.179533
0.17727
0.180979
0.158111
0.117957
0.135502
0.141649
0.165453
0.178906
0.193219
0.199924
0.204373
0.2048
0.203739
0.201086
0.197945
0.194484
0.191139
0.188129
0.185454
0.183785
0.181386
0.184375
0.186779
0.141737
0.158594
0.161876
0.184086
0.195232
0.20777
0.212646
0.2156
0.21467
0.212479
0.208842
0.204872
0.200695
0.196744
0.193201
0.190105
0.187967
0.185481
0.187699
0.215509
0.165586
0.181724
0.182106
0.202685
0.211495
0.222242
0.22528
0.226738
0.224451
0.221133
0.216516
0.21172
0.20683
0.202277
0.198203
0.194687
0.192082
0.189578
0.190888
0.244255
0.189467
0.20486
0.202312
0.221225
0.227679
0.236619
0.237815
0.237776
0.234136
0.229696
0.224103
0.218485
0.212886
0.207733
0.203132
0.199196
0.19613
0.193648
0.193587
0.272963
0.21334
0.227965
0.222466
0.239683
0.243763
0.250886
0.250238
0.248705
0.243716
0.238158
0.231595
0.225161
0.218858
0.213109
0.207984
0.20363
0.200112
0.197569
0.195454
0.301639
0.237196
0.251022
0.242548
0.258039
0.259731
0.265028
0.262537
0.259513
0.253183
0.246515
0.238988
0.231744
0.224743
0.218403
0.212758
0.207986
0.204021
0.20143
0.197946
0.330229
0.260992
0.273993
0.262528
0.276269
0.275563
0.27903
0.2747
0.270192
0.262528
0.254758
0.246276
0.238229
0.230535
0.223609
0.217451
0.212261
0.207856
0.205156
0.200818
0.358685
0.284692
0.296846
0.28238
0.29435
0.291241
0.292877
0.286714
0.280731
0.271744
0.262882
0.253454
0.244611
0.236233
0.228726
0.222058
0.216452
0.211618
0.208743
0.203731
0.386967
0.308262
0.319549
0.302076
0.312259
0.306748
0.306555
0.298569
0.29112
0.280822
0.270878
0.260515
0.250886
0.24183
0.233749
0.226579
0.220557
0.215306
0.212209
0.206624
0.415038
0.331669
0.342069
0.321591
0.329974
0.322064
0.320048
0.310252
0.30135
0.289755
0.278742
0.267453
0.257048
0.247324
0.238676
0.23101
0.224575
0.218918
0.215566
0.209502
0.442856
0.354878
0.364376
0.340898
0.347473
0.337173
0.333341
0.321751
0.311411
0.298533
0.286465
0.274265
0.263094
0.252711
0.243503
0.235349
0.228504
0.222453
0.218819
0.212358
0.470382
0.377855
0.386437
0.359971
0.364733
0.352056
0.346421
0.333054
0.321294
0.307151
0.294042
0.280943
0.269018
0.257987
0.248227
0.239593
0.232341
0.225908
0.221973
0.215181
0.497576
0.400568
0.408221
0.378784
0.381733
0.366696
0.359274
0.344151
0.330989
0.315599
0.301466
0.287483
0.274817
0.263148
0.252846
0.24374
0.236085
0.229282
0.225031
0.21796
0.524397
0.422981
0.429697
0.397311
0.398451
0.381076
0.371884
0.35503
0.340486
0.32387
0.308731
0.293879
0.280485
0.26819
0.257356
0.247788
0.239735
0.232574
0.227997
0.220692
0.550808
0.445061
0.450833
0.415526
0.414865
0.395178
0.384239
0.365679
0.349778
0.331957
0.31583
0.300127
0.286018
0.27311
0.261754
0.251733
0.243289
0.235781
0.230872
0.223368
0.576768
0.466775
0.471599
0.433404
0.430955
0.408986
0.396324
0.376088
0.358854
0.339852
0.322757
0.30622
0.291413
0.277904
0.266037
0.255573
0.246746
0.238902
0.233659
0.225986
0.602239
0.48809
0.491964
0.45092
0.446699
0.422484
0.408127
0.386246
0.367705
0.347549
0.329507
0.312154
0.296664
0.282569
0.270203
0.259307
0.250103
0.241934
0.236358
0.22854
0.627183
0.508972
0.511898
0.46805
0.462078
0.435655
0.419634
0.396143
0.376324
0.355039
0.336073
0.317925
0.301768
0.287102
0.274248
0.262931
0.25336
0.244877
0.238971
0.231028
0.651562
0.52939
0.531372
0.484771
0.477072
0.448483
0.430832
0.405768
0.384702
0.362316
0.342449
0.323526
0.306721
0.291498
0.27817
0.266444
0.256514
0.247729
0.241497
0.233446
0.67534
0.549312
0.550357
0.501057
0.49166
0.460954
0.44171
0.415111
0.392831
0.369373
0.34863
0.328954
0.311519
0.295755
0.281966
0.269843
0.259564
0.250488
0.243938
0.235791
0.698479
0.568707
0.568825
0.516887
0.505825
0.473052
0.452254
0.424163
0.400701
0.376203
0.35461
0.334204
0.316157
0.299869
0.285633
0.273126
0.262509
0.253152
0.246292
0.238062
0.720945
0.587544
0.586748
0.532238
0.519547
0.484762
0.462454
0.432914
0.408307
0.382801
0.360385
0.339271
0.320632
0.303837
0.28917
0.27629
0.265346
0.255721
0.248559
0.240255
0.742704
0.605794
0.604099
0.547089
0.532809
0.496071
0.472297
0.441354
0.415639
0.389159
0.365948
0.344151
0.324941
0.307657
0.292573
0.279335
0.268075
0.258191
0.250739
0.242369
0.763721
0.623428
0.620853
0.561418
0.545594
0.506965
0.481772
0.449475
0.422691
0.395272
0.371295
0.34884
0.32908
0.311324
0.295839
0.282257
0.270693
0.260562
0.252831
0.244401
0.783964
0.640419
0.636983
0.575205
0.557885
0.51743
0.49087
0.457268
0.429456
0.401134
0.37642
0.353333
0.333046
0.314838
0.298967
0.285054
0.273199
0.262832
0.254833
0.246351
0.803402
0.656738
0.652466
0.58843
0.569665
0.527454
0.499579
0.464726
0.435927
0.40674
0.38132
0.357628
0.336834
0.318193
0.301954
0.287725
0.275591
0.265
0.256746
0.248215
0.822005
0.672359
0.667279
0.601074
0.580919
0.537025
0.507889
0.471839
0.442097
0.412083
0.385989
0.361719
0.340443
0.321389
0.304798
0.290268
0.277868
0.267064
0.258568
0.249993
0.839742
0.687259
0.681397
0.61312
0.591633
0.546131
0.515792
0.4786
0.44796
0.417159
0.390424
0.365604
0.343869
0.324422
0.307497
0.292681
0.280028
0.269023
0.260297
0.251682
0.856587
0.701412
0.694802
0.62455
0.601792
0.55476
0.523278
0.485002
0.45351
0.421962
0.39462
0.369279
0.347109
0.32729
0.310048
0.294961
0.28207
0.270874
0.261933
0.253281
0.872512
0.714795
0.707471
0.635348
0.611382
0.562903
0.530339
0.491039
0.458741
0.426489
0.398573
0.372741
0.35016
0.32999
0.31245
0.297108
0.283992
0.272618
0.263474
0.254788
0.887494
0.727388
0.719385
0.645498
0.620392
0.570549
0.536966
0.496703
0.463649
0.430735
0.402279
0.375986
0.35302
0.332521
0.3147
0.29912
0.285793
0.274252
0.264919
0.256203
0.901507
0.73917
0.730527
0.654985
0.62881
0.577689
0.543153
0.501989
0.468227
0.434695
0.405736
0.379012
0.355686
0.33488
0.316798
0.300995
0.287471
0.275775
0.266268
0.257523
0.91453
0.750121
0.740878
0.663797
0.636623
0.584314
0.548891
0.50689
0.472472
0.438366
0.40894
0.381816
0.358157
0.337066
0.318741
0.302731
0.289026
0.277186
0.267517
0.258748
0.926543
0.760224
0.750425
0.671919
0.643823
0.590416
0.554175
0.511403
0.476379
0.441743
0.411888
0.384395
0.360429
0.339075
0.320528
0.304328
0.290455
0.278484
0.268668
0.259875
0.937525
0.769461
0.75915
0.679341
0.650399
0.595987
0.558998
0.51552
0.479944
0.444825
0.414576