/*--------------------------------*- C++ -*----------------------------------*\
  =========                 |
  \\      /  F ield         | OpenFOAM: The Open Source CFD Toolbox
   \\    /   O peration     | Website:  https://openfoam.org
    \\  /    A nd           | Version:  7
     \\/     M anipulation  |
\*---------------------------------------------------------------------------*/
FoamFile
{
    version     2.0;
    format      ascii;
    class       volVectorField;
    location    "5";
    object      U;
}
// * * * * * * * * * * * * * * * * * * * * * * * * * * * * * * * * * * * * * //

dimensions      [0 1 -1 0 0 0 0];

internalField   nonuniform List<vector> 
42000
(
(-0.00186132 0.000237582 -6.46061e-21)
(-0.00462908 0.000133446 2.2376e-21)
(-0.00509059 -0.000153789 -8.34956e-22)
(-0.00093025 -0.00055547 -4.29896e-21)
(0.00766601 -0.000966269 -1.00741e-21)
(0.0204748 -0.00137991 4.46628e-21)
(0.0371616 -0.00176778 5.58847e-21)
(0.0571916 -0.00213559 -4.67473e-21)
(0.0802871 -0.00247889 6.42697e-21)
(0.106072 -0.00280505 -1.79075e-21)
(0.134353 -0.0031177 -1.06014e-21)
(0.164994 -0.00342428 -1.99203e-22)
(0.197841 -0.00373167 -3.88088e-21)
(0.233107 -0.00404771 -3.37362e-21)
(0.270431 -0.00437894 8.84496e-22)
(0.310839 -0.00473831 2.5966e-21)
(0.352844 -0.00510993 -1.40602e-21)
(0.399769 -0.00556398 -2.74874e-21)
(0.446576 -0.00588803 -2.48418e-22)
(0.501169 -0.00666257 -9.13193e-22)
(-0.00187147 0.00071036 -6.29728e-21)
(-0.00458342 0.000395743 -1.22057e-20)
(-0.0049401 -0.000466814 -4.22978e-21)
(-0.000652323 -0.00167217 3.05671e-21)
(0.00809041 -0.0029045 -8.11687e-21)
(0.0210573 -0.00414523 -1.60358e-21)
(0.0379142 -0.00530848 2.1465e-21)
(0.0581247 -0.00641151 -9.0034e-21)
(0.0814121 -0.0074409 -3.8767e-21)
(0.1074 -0.00841869 3.76365e-21)
(0.135896 -0.00935574 -7.927e-21)
(0.166765 -0.0102742 -3.8397e-21)
(0.199848 -0.0111947 3.34945e-21)
(0.235362 -0.0121403 1.03565e-20)
(0.272937 -0.0131308 6.39109e-21)
(0.313602 -0.0142039 -7.79218e-22)
(0.35584 -0.0153137 2.68691e-21)
(0.403018 -0.0166655 7.85778e-21)
(0.449933 -0.0176336 -1.67655e-22)
(0.504856 -0.0199296 -4.37126e-22)
(-0.00189142 0.00117539 2.36781e-21)
(-0.00449146 0.000644931 6.7657e-21)
(-0.00463847 -0.00079325 -7.81814e-21)
(-9.59395e-05 -0.00280017 1.1198e-20)
(0.00893951 -0.00485032 2.12202e-20)
(0.0222222 -0.00691362 -1.6816e-20)
(0.0394188 -0.00884709 -2.19785e-21)
(0.0599897 -0.0106797 2.10215e-21)
(0.08366 -0.012389 -6.16156e-21)
(0.110054 -0.0140117 -1.88966e-20)
(0.138978 -0.0155657 -1.05835e-20)
(0.170298 -0.0170876 -3.87152e-21)
(0.203854 -0.0186116 9.62534e-21)
(0.239859 -0.0201754 -1.27914e-21)
(0.277931 -0.0218124 5.30323e-21)
(0.319105 -0.0235826 5.36269e-21)
(0.361802 -0.0254139 -5.76454e-21)
(0.409481 -0.0276341 -6.39134e-21)
(0.456606 -0.0292358 1.92799e-21)
(0.512174 -0.0329756 6.2661e-21)
(-0.00192044 0.00162757 -2.60898e-20)
(-0.00435199 0.000872367 -8.19999e-21)
(-0.00418453 -0.00114192 4.10679e-20)
(0.000739778 -0.00394686 -1.36947e-20)
(0.0102136 -0.00680865 -3.49184e-20)
(0.023969 -0.00968701 3.80363e-20)
(0.0416739 -0.0123821 -2.59282e-20)
(0.0627836 -0.0149349 -9.78115e-21)
(0.087026 -0.0173138 6.07024e-21)
(0.114025 -0.0195702 1.52029e-20)
(0.143588 -0.0217287 1.61385e-20)
(0.17558 -0.0238402 -1.02899e-20)
(0.209838 -0.0259519 9.86703e-21)
(0.246572 -0.0281153 -2.19273e-20)
(0.285379 -0.0303776 -6.52336e-21)
(0.327303 -0.0328172 -4.81351e-21)
(0.370675 -0.0353426 9.59745e-21)
(0.419083 -0.038383 1.52795e-21)
(0.466511 -0.0406014 -4.90712e-21)
(0.523012 -0.0456588 -5.22673e-21)
(-0.00195747 0.00206187 3.61702e-20)
(-0.0041632 0.00106956 -2.19496e-20)
(-0.00357651 -0.00152149 -5.39655e-20)
(0.00185614 -0.00511947 4.19239e-20)
(0.0119132 -0.00878426 2.6167e-20)
(0.0262971 -0.0124672 -3.00218e-20)
(0.0446772 -0.0159119 2.90712e-20)
(0.0665021 -0.0191717 -1.62434e-20)
(0.0915029 -0.022206 1.7638e-20)
(0.119302 -0.0250804 5.60577e-21)
(0.14971 -0.0278262 -9.24371e-22)
(0.182589 -0.0305078 1.34615e-20)
(0.217771 -0.0331853 -1.716e-20)
(0.255461 -0.0359225 1.15427e-20)
(0.29523 -0.0387808 1.7427e-21)
(0.338129 -0.041852 -5.15829e-21)
(0.382373 -0.045034 4.50269e-21)
(0.431718 -0.0488286 -1.09608e-20)
(0.479525 -0.0516406 -3.74021e-21)
(0.537204 -0.0578453 2.78871e-21)
(-0.00200109 0.00247338 2.07084e-20)
(-0.00392269 0.00122821 2.81098e-20)
(-0.00281207 -0.00194039 6.15018e-20)
(0.00325489 -0.00632497 -7.77571e-20)
(0.0140389 -0.0107817 -7.43552e-20)
(0.0292055 -0.0152557 6.78131e-20)
(0.0484258 -0.0194345 -4.67573e-21)
(0.0711393 -0.0233846 5.25958e-20)
(0.0970813 -0.0270559 -3.17848e-20)
(0.125873 -0.0305283 4.60417e-20)
(0.157325 -0.0338394 1.61218e-20)
(0.191297 -0.0370665 -9.84306e-21)
(0.227614 -0.0402819 -2.20851e-20)
(0.266473 -0.0435602 -1.29214e-21)
(0.307414 -0.0469776 -3.21992e-20)
(0.351494 -0.0506329 -4.57611e-21)
(0.396788 -0.0544245 6.60788e-21)
(0.447246 -0.0588915 7.14208e-21)
(0.495486 -0.0622685 1.23754e-20)
(0.554539 -0.0694125 -2.42654e-21)
(-0.00204954 0.00285734 -6.0493e-20)
(-0.00362748 0.00134031 -1.58381e-20)
(-0.00188829 -0.00240672 -4.59016e-21)
(0.00493818 -0.00757004 4.69568e-20)
(0.0165916 -0.0128051 9.16329e-20)
(0.0326931 -0.0180538 -4.7454e-20)
(0.0529157 -0.0229479 -3.34662e-20)
(0.076688 -0.0275678 1.3116e-20)
(0.103749 -0.0318538 5.91042e-20)
(0.133718 -0.0359 -5.00224e-20)
(0.166406 -0.0397497 -3.75172e-20)
(0.201668 -0.0434924 -2.51466e-20)
(0.239318 -0.0472123 3.40269e-20)
(0.279545 -0.0509925 2.89453e-20)
(0.321849 -0.054925 4.17041e-20)
(0.367292 -0.059108 3.46299e-20)
(0.413784 -0.0634538 -2.54281e-20)
(0.465498 -0.0684974 1.27272e-20)
(0.514203 -0.072406 -7.69972e-21)
(0.574761 -0.0802509 -1.31246e-21)
(-0.00210074 0.00320916 1.10521e-20)
(-0.00327404 0.00139815 3.24607e-20)
(-0.000801729 -0.0029282 -6.94906e-20)
(0.00690858 -0.00886097 -3.16208e-21)
(0.019572 -0.0148584 -2.36871e-20)
(0.0367585 -0.0208624 -7.63429e-20)
(0.0581425 -0.0264497 5.39206e-20)
(0.0831396 -0.0317153 3.12439e-21)
(0.111493 -0.0365897 -7.32822e-20)
(0.142817 -0.0411813 -6.22738e-21)
(0.176923 -0.0455384 1.59156e-20)
(0.213659 -0.049762 5.08439e-20)
(0.252827 -0.0539475 -2.41862e-20)
(0.294603 -0.0581845 -2.18918e-20)
(0.338437 -0.0625816 -1.88249e-20)
(0.385396 -0.0672283 -1.39461e-20)
(0.433206 -0.0720653 2.63751e-20)
(0.486278 -0.0775783 -5.16811e-21)
(0.535455 -0.0819807 -1.88636e-20)
(0.597582 -0.0902663 1.2628e-20)
(-0.0021523 0.00352447 3.53458e-20)
(-0.00285828 0.00139439 -2.99339e-20)
(0.000451596 -0.00351214 -3.50299e-20)
(0.00916905 -0.0102036 -2.60065e-20)
(0.0229813 -0.016945 -1.59654e-21)
(0.0414001 -0.023682 3.25055e-20)
(0.0641011 -0.029937 -1.54326e-20)
(0.0904841 -0.0358206 -9.83846e-20)
(0.120296 -0.0412535 7.17899e-20)
(0.153146 -0.046358 7.1727e-20)
(0.188841 -0.0511869 1.19266e-20)
(0.227224 -0.0558521 -3.10394e-20)
(0.268077 -0.0604594 -1.09882e-20)
(0.311559 -0.0651025 -6.50816e-21)
(0.357067 -0.069908 -2.24607e-20)
(0.405665 -0.0749474 -2.87863e-20)
(0.454881 -0.0802066 -3.07132e-20)
(0.509368 -0.086073 3.38926e-21)
(0.558995 -0.0909276 8.76717e-21)
(0.622683 -0.0993812 -1.85541e-20)
(-0.00220151 0.00379913 2.13442e-20)
(-0.00237561 0.00132212 8.66174e-20)
(0.00187618 -0.00416536 1.2918e-19)
(0.0117229 -0.0116032 8.3447e-20)
(0.0268207 -0.0190677 3.39705e-21)
(0.0466161 -0.0265125 2.46922e-20)
(0.0707854 -0.0334066 3.41837e-20)
(0.0987102 -0.0398771 -1.98181e-20)
(0.13014 -0.0458348 -9.20449e-20)
(0.164677 -0.0514157 -9.11918e-20)
(0.202123 -0.0566769 -2.45073e-21)
(0.242308 -0.0617399 7.40205e-20)
(0.284995 -0.0667205 -1.57436e-20)
(0.330319 -0.0717142 8.14973e-21)
(0.377618 -0.0768667 -2.02228e-20)
(0.427944 -0.0822228 4.416e-20)
(0.478616 -0.08783 1.21667e-20)
(0.534531 -0.0939277 -2.40323e-21)
(0.584559 -0.0991899 3.05842e-20)
(0.649723 -0.107536 4.99482e-21)
(-0.00224541 0.00402924 -3.75335e-20)
(-0.00182093 0.00117489 -9.70359e-20)
(0.00347699 -0.00489415 -2.59069e-20)
(0.0145739 -0.0130646 -1.12605e-19)
(0.0310915 -0.0212289 2.80605e-20)
(0.0524044 -0.0293535 -6.2868e-20)
(0.0781889 -0.0368547 -6.79999e-20)
(0.107806 -0.0438777 2.72095e-20)
(0.141005 -0.0503227 3.43104e-20)
(0.177379 -0.0563399 -1.77816e-20)
(0.216724 -0.0619898 -8.67328e-20)
(0.258852 -0.0674029 -9.61879e-20)
(0.303502 -0.0727042 4.53821e-20)
(0.35078 -0.0779889 -1.13914e-20)
(0.399955 -0.0834229 -7.16512e-21)
(0.452064 -0.0890154 -6.95994e-20)
(0.50421 -0.0948929 -6.89148e-22)
(0.561519 -0.101097 -1.34939e-20)
(0.611869 -0.106719 3.28469e-21)
(0.678353 -0.114687 -3.01989e-21)
(-0.00228074 0.00421123 -9.43976e-20)
(-0.0011887 0.000946783 -3.59954e-20)
(0.00525947 -0.00570415 3.91288e-20)
(0.0177259 -0.0145919 8.20185e-20)
(0.035795 -0.0234304 -7.38497e-20)
(0.0587628 -0.0322039 9.87182e-20)
(0.0863044 -0.0402772 1.26941e-19)
(0.117756 -0.0478146 3.1914e-20)
(0.152869 -0.0547063 -1.70934e-20)
(0.191221 -0.0611161 1.26756e-19)
(0.232598 -0.0671075 1.62372e-19)
(0.276793 -0.0728192 1.18958e-19)
(0.323513 -0.078385 -4.72387e-20)
(0.372829 -0.0838975 -8.47625e-22)
(0.423939 -0.0895442 1.05157e-20)
(0.47785 -0.0952901 6.30753e-20)
(0.531446 -0.101358 1.01882e-20)
(0.590068 -0.107543 1.58454e-20)
(0.640639 -0.113476 -2.97075e-20)
(0.708215 -0.120811 1.4907e-20)
(-0.00230403 0.00434183 8.69213e-20)
(-0.000472929 0.000632402 5.81404e-20)
(0.00722949 -0.00660036 -9.48644e-20)
(0.0211834 -0.0161884 -4.59884e-20)
(0.0409328 -0.025673 5.6652e-20)
(0.0656888 -0.0350619 -5.85355e-20)
(0.095124 -0.0436691 -2.5191e-20)
(0.128547 -0.05168 2.42723e-20)
(0.165707 -0.0589742 3.11877e-20)
(0.206166 -0.0657294 -3.52711e-20)
(0.249694 -0.0720117 -5.27752e-20)
(0.296061 -0.0779674 -6.28022e-20)
(0.344936 -0.0837384 2.58676e-20)
(0.39635 -0.0894127 -1.42814e-20)
(0.449419 -0.095201 3.28535e-20)
(0.505114 -0.101016 -7.95825e-21)
(0.560104 -0.107194 -7.76741e-21)
(0.619915 -0.113238 -1.57097e-20)
(0.670577 -0.11943 2.37461e-20)
(0.738956 -0.1259 -2.44066e-20)
(-0.0023115 0.00441786 -7.97188e-20)
(0.000332725 0.000227166 9.94658e-20)
(0.00939329 -0.00758707 2.82092e-20)
(0.0249509 -0.0178569 3.6813e-20)
(0.0465065 -0.0279573 1.29943e-19)
(0.0731796 -0.0379251 -6.18902e-20)
(0.104639 -0.0470251 -1.57279e-19)
(0.140163 -0.0554652 2.98827e-21)
(0.179495 -0.0631146 -5.62066e-21)
(0.222176 -0.0701649 -1.17802e-19)
(0.26796 -0.0766846 -6.20243e-20)
(0.316583 -0.0828266 -4.15578e-20)
(0.367677 -0.088741 -1.69668e-20)
(0.421219 -0.0945091 2.45892e-21)
(0.476242 -0.100367 -6.3973e-20)
(0.533667 -0.106167 6.12885e-22)
(0.589958 -0.112374 -3.83722e-21)
(0.65079 -0.118162 3.80479e-20)
(0.701394 -0.12456 -6.60161e-21)
(0.770232 -0.12996 2.5302e-20)
(-0.00229903 0.00443615 4.75854e-20)
(0.0012349 -0.000272522 -7.35179e-20)
(0.0117575 -0.00866781 9.81972e-21)
(0.0290333 -0.0195992 -1.62027e-19)
(0.0525175 -0.0302826 -1.21369e-19)
(0.0812322 -0.0407903 1.37084e-19)
(0.114841 -0.0503391 -2.25616e-20)
(0.152586 -0.0591612 8.83248e-20)
(0.194204 -0.0671154 1.43365e-20)
(0.239211 -0.0744077 1.0566e-19)
(0.287338 -0.0811084 7.70217e-20)
(0.338284 -0.0873768 -1.7921e-20)
(0.391634 -0.0933707 3.11918e-20)
(0.447306 -0.0991637 9.56023e-20)
(0.504247 -0.105018 1.96405e-20)
(0.563314 -0.110721 3.60289e-22)
(0.62078 -0.116879 2.58813e-20)
(0.682429 -0.122303 -5.19246e-20)
(0.732806 -0.128852 3.53227e-20)
(0.801715 -0.133013 -2.18274e-20)
(-0.00226253 0.00439512 5.67512e-20)
(0.00224094 -0.000870676 2.91673e-20)
(0.0143288 -0.00984536 -2.79302e-20)
(0.0334357 -0.0214165 1.95083e-19)
(0.0589675 -0.0326477 -1.07351e-19)
(0.0898434 -0.0436536 -1.03488e-19)
(0.125719 -0.0536042 7.14776e-20)
(0.165798 -0.0627584 -1.04015e-20)
(0.209805 -0.0709642 6.5063e-20)
(0.257228 -0.0784427 -6.99565e-20)
(0.307769 -0.0852656 2.70926e-20)
(0.361084 -0.0915986 3.56852e-20)
(0.416704 -0.097607 1.20173e-19)
(0.474482 -0.103356 -8.38411e-20)
(0.533273 -0.109134 -5.22671e-20)
(0.593861 -0.114661 -4.52177e-20)
(0.652343 -0.120695 -2.2662e-20)
(0.71457 -0.125659 6.90057e-20)
(0.764537 -0.132304 -4.92514e-20)
(0.833099 -0.135094 -2.67676e-21)
(-0.00219808 0.00429354 -9.88828e-20)
(0.00335833 -0.00157072 -4.74098e-20)
(0.0171147 -0.0111216 1.04514e-19)
(0.0381633 -0.0233088 -2.58375e-20)
(0.0658581 -0.0350505 1.04613e-19)
(0.0990097 -0.0465102 1.4763e-19)
(0.137263 -0.0568132 -6.25712e-20)
(0.179779 -0.0662465 -7.02634e-20)
(0.226268 -0.0746482 -2.03256e-19)
(0.276182 -0.0822547 1.47188e-19)
(0.32919 -0.0891391 -1.83358e-20)
(0.384899 -0.0954735 -1.03639e-20)
(0.44278 -0.101431 -7.34016e-20)
(0.502611 -0.107066 4.3156e-20)
(0.563156 -0.112699 3.93347e-20)
(0.625111 -0.117974 2.52863e-20)
(0.684425 -0.123814 8.96947e-21)
(0.746963 -0.128233 -4.57287e-20)
(0.796324 -0.134921 -3.50727e-21)
(0.8641 -0.136247 2.65488e-20)
(-0.00210118 0.00412938 -4.50973e-20)
(0.00459451 -0.00237425 -3.47531e-20)
(0.0201225 -0.0124976 -1.31062e-19)
(0.0432214 -0.0252754 -1.81248e-20)
(0.0731908 -0.037488 7.97171e-20)
(0.108727 -0.0493547 -1.21299e-19)
(0.149463 -0.0599577 1.9301e-20)
(0.19451 -0.0696148 7.74693e-20)
(0.243561 -0.0781543 1.51918e-19)
(0.296027 -0.0858284 -1.50147e-19)
(0.351539 -0.0927122 -5.15576e-20)
(0.409645 -0.098984 7.32457e-20)
(0.469753 -0.104824 1.66237e-20)
(0.531558 -0.11028 2.02476e-20)
(0.593731 -0.115699 3.33811e-20)
(0.656873 -0.120653 -2.57346e-21)
(0.716808 -0.126234 -3.47665e-20)
(0.779368 -0.130039 -1.36328e-20)
(0.827921 -0.136716 -1.25126e-20)
(0.894466 -0.136524 -3.89557e-21)
(-0.00196726 0.00390135 2.21642e-19)
(0.00595725 -0.00328239 -7.11236e-20)
(0.0233599 -0.0139735 1.71675e-19)
(0.0486156 -0.0273146 -8.34887e-21)
(0.0809671 -0.039956 -9.14703e-20)
(0.118991 -0.0521806 2.13085e-21)
(0.162305 -0.0630289 6.36512e-20)
(0.209969 -0.072852 -1.1107e-20)
(0.26165 -0.0814689 -1.08389e-19)
(0.316715 -0.0891489 1.09564e-20)
(0.374747 -0.0959686 -2.01564e-21)
(0.435235 -0.102113 -6.76111e-21)
(0.497512 -0.107772 -1.85737e-19)
(0.561186 -0.112982 -4.31222e-20)
(0.624836 -0.118125 -4.17282e-20)
(0.688957 -0.122694 2.70576e-20)
(0.749282 -0.127958 -1.25104e-20)
(0.811561 -0.131096 5.2988e-20)
(0.859097 -0.13771 2.58391e-20)
(0.923975 -0.135987 -2.11253e-20)
(-0.00179169 0.00360871 -1.38865e-19)
(0.00745454 -0.00429566 2.15855e-19)
(0.0268347 -0.0155485 -2.08652e-19)
(0.0543513 -0.0294238 1.4219e-22)
(0.0891882 -0.0424498 -2.04712e-20)
(0.129798 -0.0549805 -8.59656e-20)
(0.175779 -0.066017 1.31579e-21)
(0.226133 -0.0759463 9.60794e-20)
(0.280501 -0.0845785 1.96051e-19)
(0.338194 -0.092201 -1.02006e-19)
(0.398749 -0.0988926 6.50759e-20)
(0.461579 -0.104847 -2.87337e-20)
(0.525945 -0.110261 1.28016e-19)
(0.591358 -0.115164 -1.63714e-20)
(0.65631 -0.11997 -2.02916e-20)
(0.721181 -0.124101 -5.68963e-20)
(0.781649 -0.128996 3.30548e-20)
(0.843331 -0.13143 -2.47764e-20)
(0.889643 -0.137934 -5.35949e-20)
(0.952434 -0.1347 3.49926e-20)
(-0.00156982 0.00325116 -5.76357e-20)
(0.0090945 -0.00541385 -2.56922e-19)
(0.0305546 -0.0172209 1.90507e-19)
(0.060434 -0.0315994 1.4939e-19)
(0.0978552 -0.0449635 1.23292e-19)
(0.141142 -0.0577463 1.17418e-19)
(0.189871 -0.0689118 2.08633e-19)
(0.24298 -0.0788853 -2.77547e-19)
(0.300077 -0.0874691 -1.58589e-19)
(0.360415 -0.0949697 4.29268e-20)
(0.423472 -0.101469 -2.69029e-20)
(0.488587 -0.107169 -9.20735e-20)
(0.554939 -0.112278 -6.75689e-20)
(0.621938 -0.116816 3.03162e-21)
(0.687995 -0.121233 5.45876e-20)
(0.753368 -0.124879 3.57023e-20)
(0.813719 -0.129362 2.08924e-20)
(0.874488 -0.131072 -2.82607e-20)
(0.919374 -0.137422 5.86532e-20)
(0.979686 -0.132732 -3.26516e-20)
(-0.00129694 0.00282875 1.48944e-19)
(0.0108853 -0.00663591 1.92582e-19)
(0.0345275 -0.0189881 -7.76028e-20)
(0.0668691 -0.0338366 -1.78313e-19)
(0.106969 -0.0474902 -1.30116e-19)
(0.153018 -0.060469 -7.45683e-20)
(0.204566 -0.0717019 -1.74556e-19)
(0.260484 -0.081656 5.13665e-20)
(0.32034 -0.0901264 6.18516e-20)
(0.383323 -0.0974405 -3.06784e-20)
(0.448847 -0.103684 2.80211e-20)
(0.516168 -0.109069 1.37779e-21)
(0.584381 -0.113814 1.44025e-19)
(0.652793 -0.117935 -6.21293e-20)
(0.719738 -0.121914 -2.69913e-20)
(0.785351 -0.125039 2.63434e-21)
(0.845317 -0.129077 -2.45529e-20)
(0.904859 -0.130057 7.38703e-21)
(0.948124 -0.136217 2.43279e-20)
(1.0056 -0.130153 -6.77961e-22)
(-0.000968307 0.00234196 -1.73761e-19)
(0.0128351 -0.00796004 -1.53801e-19)
(0.0387614 -0.0208465 -2.03364e-19)
(0.0736617 -0.0361298 2.48829e-20)
(0.11653 -0.0500221 7.0761e-20)
(0.16542 -0.0631385 4.04246e-20)
(0.21985 -0.0743757 -1.24549e-19)
(0.27862 -0.0842451 1.14913e-19)
(0.341252 -0.0925363 -1.32581e-19)
(0.406864 -0.0995989 6.2361e-20)
(0.474801 -0.105524 5.6307e-20)
(0.544229 -0.110535 1.53346e-19)
(0.614159 -0.114861 2.38151e-20)
(0.683791 -0.118519 5.99639e-20)
(0.751392 -0.12202 -2.88926e-20)
(0.81697 -0.124596 9.36454e-20)
(0.876281 -0.128166 2.34621e-20)
(0.934291 -0.128428 -3.65324e-20)
(0.975753 -0.134366 -9.05992e-21)
(1.03009 -0.127032 -9.40825e-21)
(-0.000579209 0.00179166 7.72006e-20)
(0.0149522 -0.00938361 -1.35652e-20)
(0.0432639 -0.0227914 6.3934e-20)
(0.0808171 -0.0384724 -5.28499e-20)
(0.126538 -0.0525503 3.39439e-20)
(0.178341 -0.0657442 1.68421e-19)
(0.235708 -0.0769205 -1.07916e-19)
(0.297362 -0.0866389 -2.97915e-20)
(0.362773 -0.0946845 1.97565e-19)
(0.430983 -0.101431 -8.80025e-20)
(0.50126 -0.106976 2.48208e-20)
(0.57268 -0.111557 2.80763e-20)
(0.644162 -0.115415 -1.81411e-19)
(0.714803 -0.118569 5.64431e-20)
(0.782814 -0.12156 -2.68127e-20)
(0.848079 -0.123571 -1.91037e-20)
(0.906464 -0.126657 -3.26715e-20)
(0.962652 -0.126226 3.08188e-20)
(1.00214 -0.131919 -2.52011e-20)
(1.05307 -0.12344 2.55046e-20)
(-0.000124949 0.00117911 1.20896e-19)
(0.0172445 -0.0109032 2.93798e-19)
(0.0480428 -0.0248174 1.66723e-19)
(0.0883399 -0.0408565 -2.78176e-21)
(0.136994 -0.055065 -1.26399e-19)
(0.191774 -0.0682742 -7.04242e-20)
(0.252124 -0.0793233 1.89131e-19)
(0.316682 -0.0888233 -7.42571e-21)
(0.384862 -0.0965566 9.82921e-22)
(0.455622 -0.102924 1.59452e-19)
(0.528151 -0.108029 -9.06199e-20)
(0.601426 -0.112127 -9.98643e-20)
(0.67428 -0.115473 1.5519e-19)
(0.745706 -0.118088 5.65203e-20)
(0.81387 -0.120545 1.19918e-19)
(0.878541 -0.121986 -1.37769e-19)
(0.935735 -0.124583 -7.73702e-21)
(0.98983 -0.1235 4.43909e-20)
(1.0272 -0.128931 5.59494e-20)
(1.07451 -0.119444 -1.68201e-21)
(0.000399117 0.000505958 1.09919e-19)
(0.0197201 -0.0125147 -1.16389e-19)
(0.0531053 -0.0269179 -1.01227e-19)
(0.0962347 -0.0432735 9.65959e-20)
(0.147896 -0.0575556 1.68633e-19)
(0.20571 -0.0707161 4.85035e-20)
(0.269079 -0.0815702 7.42724e-20)
(0.33655 -0.0907839 -1.30864e-19)
(0.407475 -0.0981385 8.6217e-20)
(0.480723 -0.104064 -1.6794e-19)
(0.555398 -0.108674 -1.93042e-19)
(0.630377 -0.112241 -4.17982e-21)
(0.704406 -0.115036 -3.9426e-20)
(0.776379 -0.117086 -1.30846e-19)
(0.844434 -0.118993 -5.75447e-20)
(0.90823 -0.119868 9.04981e-20)
(0.96398 -0.12198 7.45849e-20)
(1.01573 -0.120297 -4.21381e-20)
(1.05087 -0.125459 -4.37557e-21)
(1.09439 -0.115107 -2.27201e-20)
(0.000997557 -0.000225772 -1.17643e-19)
(0.0223869 -0.0142131 -1.50352e-19)
(0.0584586 -0.0290855 8.17225e-20)
(0.104505 -0.0457136 9.72903e-20)
(0.159243 -0.0600104 -5.78844e-20)
(0.220142 -0.0730567 -1.64923e-19)
(0.286556 -0.083647 -1.68491e-20)
(0.356937 -0.092506 -4.63102e-20)
(0.43057 -0.0994164 -3.17398e-19)
(0.506228 -0.104839 1.27289e-19)
(0.582927 -0.108901 2.59468e-19)
(0.659441 -0.111893 3.76083e-20)
(0.734435 -0.114104 -5.96139e-20)
(0.806709 -0.115572 2.42566e-20)
(0.874387 -0.116922 -1.34757e-19)
(0.937034 -0.117246 -3.21019e-20)
(0.991099 -0.118888 -8.28911e-21)
(1.04029 -0.116666 4.73609e-22)
(1.07308 -0.121558 -2.61506e-20)
(1.11272 -0.110492 -1.5341e-21)
(0.00167484 -0.00101368 -3.14568e-19)
(0.0252524 -0.0159928 1.91456e-19)
(0.0641097 -0.0313119 -1.37338e-19)
(0.113156 -0.0481663 -2.85097e-19)
(0.171033 -0.0624168 -9.66351e-20)
(0.23506 -0.075282 4.20611e-20)
(0.304535 -0.0855388 -8.92831e-21)
(0.377812 -0.0939751 1.52125e-19)
(0.454101 -0.100377 2.1048e-19)
(0.532076 -0.105239 2.05243e-19)
(0.610661 -0.108702 -7.42085e-20)
(0.688529 -0.111082 -1.26449e-19)
(0.764266 -0.112684 2.0908e-20)
(0.836586 -0.11356 -5.65765e-20)
(0.903622 -0.114356 5.21324e-20)
(0.964855 -0.114154 3.26826e-20)
(1.01701 -0.115348 -2.09064e-20)
(1.06345 -0.112658 -2.20589e-21)
(1.09382 -0.117286 -4.25917e-20)
(1.1295 -0.105654 3.91736e-20)
(0.00243534 -0.001855 1.12741e-19)
(0.0283239 -0.0178472 -4.11447e-20)
(0.0700648 -0.0335878 2.56586e-20)
(0.122188 -0.0506199 2.43834e-19)
(0.183264 -0.0647613 7.33212e-20)
(0.250452 -0.0773773 -2.96353e-19)
(0.322996 -0.0872307 1.62761e-19)
(0.399143 -0.0951763 -1.50369e-19)
(0.478023 -0.101006 -4.56592e-20)
(0.558208 -0.105253 -8.90016e-20)
(0.638526 -0.108074 6.9536e-20)
(0.717552 -0.109809 -9.86811e-20)
(0.793799 -0.110784 -8.70417e-20)
(0.865908 -0.111066 1.22362e-19)
(0.93204 -0.11132 1.683e-19)
(0.991607 -0.110626 1.01252e-20)
(1.04165 -0.111402 6.41066e-20)
(1.08518 -0.108323 6.10401e-20)
(1.11307 -0.112699 -2.42184e-20)
(1.14479 -0.100645 -8.70207e-20)
(0.00328326 -0.00274663 -3.48213e-21)
(0.0316086 -0.0197692 8.90266e-20)
(0.07633 -0.035903 1.72166e-19)
(0.131606 -0.0530618 -8.93438e-20)
(0.19593 -0.0670298 -3.02416e-19)
(0.266307 -0.0793273 1.51196e-19)
(0.341916 -0.088707 -3.41963e-19)
(0.420895 -0.0960952 2.04567e-19)
(0.502288 -0.101293 9.25561e-20)
(0.584561 -0.104873 -1.22907e-20)
(0.666447 -0.107011 -9.55737e-20)
(0.746424 -0.108076 2.01362e-20)
(0.822942 -0.108413 1.39422e-19)
(0.894582 -0.10811 -1.2206e-19)
(0.95955 -0.107841 -9.03554e-21)
(1.01722 -0.106699 -5.80173e-20)
(1.06496 -0.107094 -1.56749e-19)
(1.10545 -0.103709 -9.08387e-20)
(1.13086 -0.107849 2.65588e-20)
(1.15863 -0.0955141 8.63646e-20)
(0.00422267 -0.00368514 2.18508e-19)
(0.035113 -0.0217509 -2.48189e-20)
(0.0829107 -0.0382466 -1.20908e-19)
(0.141411 -0.0554788 -1.70547e-19)
(0.20903 -0.0692074 1.45595e-19)
(0.282614 -0.0811163 -1.59358e-19)
(0.361274 -0.0899523 1.47283e-19)
(0.443034 -0.0967173 -4.52088e-20)
(0.526848 -0.101224 -1.921e-19)
(0.611074 -0.10409 -9.06754e-21)
(0.694349 -0.105511 1.02233e-19)
(0.77506 -0.105888 2.08494e-19)
(0.851605 -0.105585 -9.19902e-20)
(0.922518 -0.104712 1.53073e-19)
(0.986077 -0.103949 2.59247e-21)
(1.04163 -0.10241 9.45647e-20)
(1.08691 -0.102467 -9.23178e-20)
(1.12427 -0.0988655 1.00268e-20)
(1.1472 -0.102788 6.68962e-20)
(1.17107 -0.0903038 -1.08576e-20)
(0.00525747 -0.00466674 -1.85479e-19)
(0.0388435 -0.0237839 -1.00506e-19)
(0.0898117 -0.0406067 -9.32487e-20)
(0.151603 -0.0578566 3.36954e-19)
(0.222556 -0.0712784 1.79295e-19)
(0.299357 -0.0827281 2.10881e-19)
(0.381044 -0.0909506 9.68825e-20)
(0.465523 -0.0970286 3.84748e-20)
(0.551655 -0.10079 1.34718e-19)
(0.637685 -0.102899 -3.62528e-19)
(0.72216 -0.103574 -1.18909e-20)
(0.80338 -0.103252 -4.76765e-20)
(0.879703 -0.102315 1.80255e-19)
(0.949638 -0.100897 2.54544e-21)
(1.01155 -0.0996775 3.61805e-20)
(1.06479 -0.0977976 -9.28097e-20)
(1.10749 -0.097565 3.62682e-20)
(1.14165 -0.0938374 1.0687e-19)
(1.16214 -0.0975605 5.01356e-21)
(1.18217 -0.0850535 -3.51211e-20)
(0.00639137 -0.00568738 -1.72664e-19)
(0.0428058 -0.0258589 4.7453e-20)
(0.0970373 -0.0429708 2.31487e-20)
(0.162182 -0.0601804 -1.1695e-19)
(0.236502 -0.0732266 -1.22412e-19)
(0.316522 -0.084146 -5.99165e-20)
(0.401202 -0.0916864 1.34622e-19)
(0.488327 -0.0970155 6.84002e-20)
(0.576659 -0.0999796 -6.14211e-20)
(0.664333 -0.101294 1.8055e-19)
(0.749807 -0.101203 1.03026e-19)
(0.831305 -0.100177 -8.87584e-21)
(0.907159 -0.0986204 -1.10069e-19)
(0.975869 -0.0966909 -1.51773e-19)
(1.03592 -0.0950583 -9.07529e-20)
(1.08667 -0.0929011 3.01009e-20)
(1.12667 -0.0924307 -9.17878e-22)
(1.15762 -0.0886691 -6.12804e-20)
(1.17573 -0.0922096 -8.17504e-20)
(1.19201 -0.0797994 4.81819e-20)
(0.00762784 -0.0067427 -7.19215e-21)
(0.0470054 -0.0279661 1.81937e-21)
(0.104591 -0.0453256 1.68993e-19)
(0.173148 -0.0624344 -2.20056e-19)
(0.250861 -0.0750352 1.27959e-19)
(0.334093 -0.0853533 1.605e-19)
(0.421721 -0.092144 -8.82095e-20)
(0.511405 -0.0966651 4.2187e-20)
(0.601808 -0.0987848 -5.65419e-20)
(0.690955 -0.0992722 -1.09354e-20)
(0.777219 -0.0984003 4.06717e-20)
(0.85876 -0.0966759 7.10336e-20)
(0.933898 -0.0945214 -1.10122e-20)
(1.00115 -0.0921202 1.23504e-19)
(1.05913 -0.0901258 8.21494e-20)
(1.10725 -0.0877588 3.54661e-20)
(1.14448 -0.0871052 -9.55476e-21)
(1.1722 -0.0834021 2.2565e-20)
(1.18802 -0.0867713 -1.1926e-20)
(1.20066 -0.0745757 -1.0698e-19)
(0.00897017 -0.00782804 4.69239e-19)
(0.051447 -0.0300953 -1.31315e-19)
(0.112476 -0.0476572 -2.71436e-19)
(0.1845 -0.0646026 2.28152e-19)
(0.265623 -0.076687 -1.08288e-19)
(0.352051 -0.086333 -3.31987e-20)
(0.442572 -0.0923081 2.951e-20)
(0.534719 -0.095965 2.40643e-20)
(0.627052 -0.0971978 3.67998e-20)
(0.71749 -0.0968324 -7.98152e-20)
(0.804329 -0.095172 -1.11362e-20)
(0.885674 -0.0927613 -2.62866e-19)
(0.959856 -0.0900395 -5.69941e-20)
(1.02542 -0.0872142 -4.81269e-20)
(1.08115 -0.0849148 -1.64456e-20)
(1.12652 -0.0824088 2.50152e-20)
(1.16092 -0.0816279 -6.38985e-21)
(1.18546 -0.0780751 8.28624e-21)
(1.19908 -0.0812761 -5.09048e-20)
(1.20816 -0.0694177 9.84182e-20)
(0.0104214 -0.00893851 -3.86741e-19)
(0.0561349 -0.0322355 3.62373e-20)
(0.120693 -0.049951 1.66758e-19)
(0.196233 -0.0666681 -1.56995e-19)
(0.28078 -0.0781644 -1.39746e-19)
(0.370379 -0.0870681 -2.00761e-19)
(0.463727 -0.0921636 -8.86856e-20)
(0.558227 -0.094904 -2.14647e-19)
(0.652339 -0.0952121 -2.01987e-20)
(0.743877 -0.0939747 7.1059e-20)
(0.831069 -0.0915259 -2.05318e-19)
(0.911982 -0.0884491 9.19636e-20)
(0.98497 -0.0851983 -3.92492e-20)
(1.04865 -0.0820028 -9.25214e-20)
(1.10195 -0.0794602 -1.17042e-19)
(1.14447 -0.0768877 1.0964e-20)
(1.17602 -0.0760362 4.33183e-20)
(1.19743 -0.0727237 -1.13971e-20)
(1.20898 -0.0757488 1.02519e-19)
(1.21459 -0.0643651 -4.49882e-20)
(0.0119842 -0.010069 3.31754e-19)
(0.0610726 -0.0343753 8.31834e-20)
(0.129244 -0.052192 1.53904e-19)
(0.208344 -0.0686137 1.26944e-19)
(0.29632 -0.0794498 3.69923e-19)
(0.389055 -0.0875416 1.68016e-19)
(0.485154 -0.0916963 -3.2081e-20)
(0.581889 -0.0934714 8.73249e-20)
(0.677617 -0.0928232 -1.03167e-19)
(0.770057 -0.0907011 1.82426e-19)
(0.857376 -0.0874718 9.22748e-20)
(0.93762 -0.083757 2.05877e-20)
(1.00919 -0.0800225 1.55411e-19)
(1.07078 -0.0765165 2.9222e-20)
(1.12153 -0.0737965 9.19969e-20)
(1.16113 -0.0712309 -1.3924e-19)
(1.18982 -0.0703655 -1.04899e-19)
(1.20819 -0.0673801 1.03497e-21)
(1.2178 -0.0702069 5.64666e-20)
(1.22 -0.059458 7.50043e-20)
(0.0136612 -0.0112141 -4.20597e-19)
(0.0662632 -0.0365029 1.20558e-20)
(0.138129 -0.0543644 -1.86161e-19)
(0.220828 -0.0704217 1.67611e-20)
(0.312229 -0.0805252 -4.65881e-19)
(0.408058 -0.0877368 2.29687e-20)
(0.506821 -0.0908921 3.00834e-20)
(0.605661 -0.0916581 -2.11589e-20)
(0.702835 -0.0900275 6.46543e-20)
(0.79597 -0.0870154 -1.7405e-20)
(0.883188 -0.0830214 4.77499e-20)
(0.962532 -0.0787044 2.55305e-20)
(1.03247 -0.0745382 -4.03828e-20)
(1.0918 -0.0707864 -1.26762e-20)
(1.13986 -0.0679577 -4.71063e-20)
(1.17651 -0.0654716 1.42803e-19)
(1.20236 -0.0646484 5.41733e-20)
(1.2178 -0.0620731 5.30073e-20)
(1.2256 -0.0646559 -3.73153e-20)
(1.22441 -0.0547313 -5.90481e-20)
(0.0154546 -0.0123682 3.3275e-19)
(0.0717089 -0.0386061 -2.01782e-19)
(0.147346 -0.0564523 1.79717e-20)
(0.233679 -0.0720743 -2.0821e-19)
(0.328494 -0.0813725 5.24975e-19)
(0.427365 -0.0876375 1.85461e-19)
(0.528695 -0.0897381 -2.92738e-19)
(0.6295 -0.089456 -6.82426e-20)
(0.727939 -0.0868235 1.11291e-21)
(0.821559 -0.0829233 1.28042e-20)
(0.908448 -0.0781883 -1.22192e-19)
(0.986665 -0.0733122 4.66678e-20)
(1.05476 -0.0687726 1.20271e-19)
(1.11167 -0.0648434 1.79188e-19)
(1.15696 -0.0619767 5.03761e-20)
(1.19064 -0.0596413 -4.6195e-20)
(1.21368 -0.0589158 -1.88212e-20)
(1.22634 -0.0568265 -6.96448e-20)
(1.23243 -0.0590843 1.19045e-20)
(1.22784 -0.0502849 -1.12453e-20)
(0.0173663 -0.0135256 9.00853e-20)
(0.0774113 -0.0406723 3.15875e-19)
(0.156895 -0.0584393 -1.00249e-19)
(0.246888 -0.0735532 9.44538e-20)
(0.3451 -0.081974 -2.03047e-19)
(0.446951 -0.0872275 -7.09091e-20)
(0.550741 -0.0882222 2.06403e-19)
(0.653362 -0.0868582 1.72668e-20)
(0.752879 -0.0832111 9.1152e-20)
(0.846769 -0.0784325 -4.21163e-20)
(0.933101 -0.0729876 6.94023e-20)
(1.00997 -0.0676025 -3.60808e-20)
(1.07604 -0.0627533 -5.34798e-20)
(1.1304 -0.0587181 -1.85047e-19)
(1.17284 -0.0558854 -9.89536e-20)
(1.20355 -0.0537689 -4.05196e-20)
(1.22384 -0.0531962 6.49869e-21)
(1.23389 -0.0516569 5.13622e-20)
(1.23836 -0.0534882 -9.89418e-21)
(1.23048 -0.0465108 1.04499e-20)
(0.019398 -0.0146805 -3.94368e-19)
(0.0833715 -0.0426886 -5.98024e-20)
(0.166772 -0.060309 9.80558e-20)
(0.260447 -0.0748405 -9.96194e-20)
(0.362029 -0.082312 -1.24866e-19)
(0.46679 -0.0864918 -2.35725e-19)
(0.572925 -0.0863332 -2.18404e-19)
(0.677203 -0.0838593 1.96032e-19)
(0.777604 -0.079192 6.68627e-20)
(0.871545 -0.0735523 -2.14925e-19)
(0.957097 -0.0674363 -5.5105e-20)
(1.03241 -0.0615987 -1.57712e-19)
(1.09629 -0.0565082 -7.47041e-20)
(1.14798 -0.0524406 1.80349e-19)
(1.18752 -0.0497139 9.62313e-20)
(1.21529 -0.0478809 -8.36589e-20)
(1.23291 -0.0475161 -6.40743e-21)
(1.24051 -0.0465725 -4.91323e-20)
(1.24343 -0.0479449 6.87592e-20)
(1.23281 -0.0439989 -8.1786e-21)
(0.0215512 -0.0158268 2.70952e-19)
(0.0895893 -0.044642 -5.15109e-20)
(0.176973 -0.0620445 2.15372e-19)
(0.274345 -0.0759179 2.13708e-19)
(0.379264 -0.0823692 1.7964e-19)
(0.486854 -0.0854156 1.09826e-19)
(0.595208 -0.084061 2.93042e-19)
(0.700977 -0.0804557 -1.33481e-19)
(0.802062 -0.0747696 -1.31121e-20)
(0.895837 -0.0682938 2.64362e-19)
(0.980389 -0.0615528 1.18681e-19)
(1.05395 -0.055325 2.9623e-19)
(1.11547 -0.0500654 1.70424e-20)
(1.1644 -0.0460401 -1.64283e-19)
(1.20101 -0.0434903 -5.4447e-20)
(1.22589 -0.0420014 1.66237e-19)
(1.24092 -0.0418985 2.27436e-20)
(1.24628 -0.0415799 6.35366e-20)
(1.24764 -0.0426064 -8.22175e-21)
(1.23604 -0.0411562 1.01132e-20)
(0.0238265 -0.0169582 -1.97155e-19)
(0.096064 -0.0465189 -9.07066e-21)
(0.187493 -0.0636286 -2.84567e-19)
(0.288572 -0.076767 -2.27426e-20)
(0.396784 -0.0821284 1.17235e-19)
(0.507116 -0.0839849 -1.04913e-20)
(0.617554 -0.0813969 -4.51084e-20)
(0.72464 -0.0766448 -1.78133e-19)
(0.826205 -0.0699491 -4.55083e-20)
(0.919594 -0.0626699 -2.71683e-19)
(1.00293 -0.0553568 -3.72638e-20)
(1.07456 -0.0488064 -2.03198e-19)
(1.13359 -0.0434528 3.16301e-20)