-0.428313 	0.428313 	-1.20458e-17 	0.373001 	0.339851 	-1.36652e-19
-0.482588 	0.482588 	-2.13987e-17 	0.540455 	0.442814 	3.8543e-20
-0.540971 	0.540971 	-2.23748e-17 	0.661517 	0.486956 	-5.63021e-20
-0.603773 	0.603773 	-1.48542e-17 	0.752361 	0.489305 	1.3586e-19
-0.671328 	0.671328 	-4.51151e-18 	0.816968 	0.465619 	3.82589e-20
