0.377883 	0.377883 	6.34489e-18 	0.0187884 	-0.0142222 	-3.87793e-19
0.428313 	0.428313 	1.3309e-17 	0.0810455 	-0.0413585 	-5.88541e-20
0.482588 	0.482588 	1.69586e-17 	0.162187 	-0.0581696 	9.64842e-20
0.540971 	0.540971 	2.40461e-17 	0.253282 	-0.0717588 	-9.80056e-20
0.603773 	0.603773 	3.4593e-17 	0.35201 	-0.0781801 	-1.22858e-19
0.671328 	0.671328 	1.9913e-17 	0.453809 	-0.0811022 	-2.32015e-19
