/*--------------------------------*- C++ -*----------------------------------*\
  =========                 |
  \\      /  F ield         | OpenFOAM: The Open Source CFD Toolbox
   \\    /   O peration     | Website:  https://openfoam.org
    \\  /    A nd           | Version:  7
     \\/     M anipulation  |
\*---------------------------------------------------------------------------*/
FoamFile
{
    version     2.0;
    format      ascii;
    class       surfaceScalarField;
    location    "15";
    object      phi;
}
// * * * * * * * * * * * * * * * * * * * * * * * * * * * * * * * * * * * * * //

dimensions      [0 3 -1 0 0 0 0];

internalField   nonuniform List<scalar> 
5144
(
0.00216467
0.000392307
0.00215953
0.000404697
0.00215429
0.000417815
0.00214896
0.000431666
0.00214351
0.000446231
0.00213796
0.000461498
0.00213228
0.000477408
0.00212648
0.000493935
0.00212055
0.00051095
0.00211449
0.000528429
0.0021083
0.000546115
0.00210197
0.000564049
0.00209552
0.000581722
0.00208894
0.000599406
0.00208226
0.000616053
0.00207545
0.000632592
0.00206857
0.000646765
0.00206158
0.000661195
0.00205459
0.00067084
0.0020475
0.000682454
0.00204052
0.000684549
0.0020334
0.000693648
0.0020266
0.000683426
0.00201955
0.000692871
0.00201317
0.000662326
0.00200619
0.000679959
0.000618254
0.00224322
0.000251935
0.00223895
0.000254727
0.00223468
0.000257624
0.0022304
0.000260645
0.00222612
0.000263811
0.00222182
0.000267142
0.00221752
0.00027066
0.00221321
0.000274388
0.00220888
0.00027835
0.00220455
0.000282571
0.00220019
0.000287078
0.00219582
0.000291897
0.00219142
0.000297059
0.00218701
0.000302592
0.00218256
0.000308529
0.00217809
0.000314901
0.00217358
0.000321741
0.00216904
0.000329083
0.00216445
0.000336961
0.00215981
0.000345408
0.00215512
0.000354457
0.00215038
0.000364139
0.00214556
0.000374485
0.00214068
0.00038552
0.00213573
0.000397265
0.00213069
0.000409737
0.00212556
0.000422945
0.00212033
0.000436892
0.002115
0.000451559
0.00210957
0.000466934
0.00210402
0.000482958
0.00209835
0.000499604
0.00209256
0.00051674
0.00208664
0.000534345
0.0020806
0.000552156
0.00207443
0.000570218
0.00206814
0.000588011
0.00206173
0.000605819
0.00205521
0.000622567
0.00204859
0.000639221
0.00204189
0.00065346
0.00203509
0.000667991
0.0020283
0.000677639
0.0020214
0.000689348
0.00201462
0.000691335
0.00200771
0.000700557
0.0020011
0.000690028
0.00199425
0.000699723
0.00198807
0.000668503
0.00198129
0.000686739
0.000623888
0.00221316
0.000256161
0.00220893
0.000258956
0.0022047
0.000261857
0.00220046
0.000264883
0.00219622
0.000268055
0.00219197
0.000271392
0.00218771
0.000274918
0.00218344
0.000278655
0.00217917
0.000282627
0.00217488
0.000286859
0.00217058
0.00029138
0.00216626
0.000296215
0.00216192
0.000301395
0.00215756
0.00030695
0.00215318
0.00031291
0.00214877
0.00031931
0.00214433
0.000326181
0.00213986
0.000333559
0.00213534
0.000341476
0.00213078
0.000349967
0.00212618
0.000359065
0.00212151
0.000368802
0.00211679
0.000379208
0.002112
0.000390309
0.00210714
0.000402126
0.0021022
0.000414677
0.00209718
0.00042797
0.00209206
0.000442007
0.00208685
0.000456772
0.00208153
0.00047225
0.00207611
0.000488383
0.00207057
0.000505141
0.00206491
0.000522394
0.00205914
0.000540119
0.00205325
0.000558049
0.00204723
0.000576233
0.0020411
0.00059414
0.00203486
0.000612066
0.00202851
0.000628911
0.00202206
0.000645672
0.00201555
0.000659974
0.00200894
0.000674601
0.00200233
0.000684249
0.00199563
0.000696047
0.00198904
0.000697926
0.00198233
0.000707266
0.00197592
0.000696436
0.00196927
0.000706374
0.00196329
0.000674486
0.0019567
0.000693325
0.000629344
0.00218345
0.00026035
0.00217926
0.000263148
0.00217507
0.000266052
0.00217087
0.000269081
0.00216667
0.000272256
0.00216246
0.000275599
0.00215825
0.00027913
0.00215403
0.000282874
0.0021498
0.000286854
0.00214557
0.000291097
0.00214132
0.000295628
0.00213705
0.000300478
0.00213278
0.000305674
0.00212848
0.000311247
0.00212416
0.000317229
0.00211981
0.000323654
0.00211544
0.000330554
0.00211104
0.000337963
0.0021066
0.000345917
0.00210212
0.000354449
0.00209759
0.000363593
0.00209301
0.000373381
0.00208837
0.000383843
0.00208368
0.000395006
0.00207891
0.000406892
0.00207407
0.000419517
0.00206915
0.00043289
0.00206414
0.000447014
0.00205904
0.000461871
0.00205385
0.000477447
0.00204855
0.000493682
0.00204314
0.000510549
0.00203762
0.000527912
0.00203199
0.000545752
0.00202624
0.000563795
0.00202038
0.000582096
0.00201441
0.00060011
0.00200833
0.000618149
0.00200215
0.000635085
0.00199587
0.00065195
0.00198954
0.000666309
0.00198311
0.000681026
0.00197669
0.000690672
0.00197018
0.000702555
0.00196378
0.000704327
0.00195727
0.000713779
0.00195106
0.000702652
0.0019446
0.000712826
0.00193881
0.00068028
0.00193241
0.00069972
0.000634626
0.00215409
0.000264504
0.00214994
0.000267302
0.00214578
0.000270207
0.00214163
0.000273238
0.00213747
0.000276415
0.0021333
0.000279761
0.00212914
0.000283296
0.00212497
0.000287045
0.00212079
0.000291031
0.00211661
0.000295282
0.00211241
0.000299823
0.0021082
0.000304684
0.00210398
0.000309894
0.00209975
0.000315484
0.00209549
0.000321486
0.00209121
0.000327932
0.00208691
0.000334858
0.00208257
0.000342297
0.00207821
0.000350284
0.0020738
0.000358854
0.00206935
0.00036804
0.00206486
0.000377876
0.00206031
0.000388391
0.00205571
0.000399612
0.00205104
0.000411562
0.00204629
0.000424258
0.00204148
0.000437706
0.00203658
0.000451912
0.00203159
0.000466857
0.00202652
0.000482526
0.00202134
0.000498859
0.00201606
0.000515829
0.00201068
0.000533297
0.00200518
0.000551245
0.00199958
0.000569396
0.00199387
0.000587808
0.00198805
0.000605925
0.00198213
0.00062407
0.00197612
0.000641093
0.00197002
0.000658055
0.00196386
0.000672468
0.00195762
0.00068727
0.00195138
0.000696911
0.00194506
0.000708874
0.00193885
0.000710539
0.00193253
0.000720098
0.0019265
0.00070868
0.00192024
0.000719082
0.00191464
0.000685888
0.00190843
0.000705927
0.000639736
0.00212507
0.000268619
0.00212096
0.000271417
0.00211684
0.000274321
0.00211273
0.000277352
0.00210861
0.00028053
0.0021045
0.000283877
0.00210038
0.000287415
0.00209625
0.000291167
0.00209213
0.000295158
0.00208799
0.000299415
0.00208385
0.000303964
0.0020797
0.000308835
0.00207554
0.000314056
0.00207137
0.00031966
0.00206717
0.000325679
0.00206296
0.000332145
0.00205872
0.000339093
0.00205446
0.000346559
0.00205017
0.000354577
0.00204584
0.000363181
0.00204147
0.000372407
0.00203706
0.000382287
0.0020326
0.000392851
0.00202809
0.000404128
0.00202351
0.000416137
0.00201887
0.000428899
0.00201416
0.00044242
0.00200937
0.000456703
0.00200449
0.00047173
0.00199953
0.000487488
0.00199448
0.000503914
0.00198932
0.000520981
0.00198407
0.000538549
0.00197872
0.000556601
0.00197326
0.000574854
0.0019677
0.000593371
0.00196203
0.000611585
0.00195627
0.000629832
0.00195043
0.000646937
0.00194449
0.00066399
0.00193851
0.000678454
0.00193244
0.000693335
0.00192638
0.000702969
0.00192025
0.000715007
0.00191422
0.000716567
0.0019081
0.000726226
0.00190225
0.000714523
0.00189619
0.000725147
0.00189076
0.000691313
0.00188474
0.000711951
0.000644679
0.0020964
0.000272696
0.00209232
0.000275492
0.00208825
0.000278394
0.00208418
0.000281424
0.0020801
0.000284601
0.00207603
0.000287948
0.00207196
0.000291486
0.00206789
0.00029524
0.00206381
0.000299234
0.00205973
0.000303495
0.00205565
0.00030805
0.00205155
0.000312928
0.00204745
0.000318159
0.00204334
0.000323775
0.00203921
0.000329808
0.00203506
0.000336292
0.00203089
0.000343261
0.0020267
0.00035075
0.00202248
0.000358796
0.00201823
0.000367432
0.00201394
0.000376694
0.00200962
0.000386615
0.00200524
0.000397225
0.00200082
0.000408553
0.00199634
0.000420619
0.00199179
0.000433443
0.00198718
0.00044703
0.0019825
0.000461387
0.00197774
0.000476492
0.00197289
0.000492334
0.00196796
0.000508847
0.00196293
0.000526007
0.00195781
0.00054367
0.00195259
0.00056182
0.00194727
0.00058017
0.00194186
0.000598787
0.00193635
0.000617094
0.00193074
0.000635436
0.00192506
0.000652618
0.00191929
0.000669758
0.00191348
0.000684268
0.00190759
0.000699224
0.00190171
0.00070885
0.00189576
0.000720958
0.00188991
0.000722413
0.00188397
0.000732167
0.00187831
0.000720185
0.00187244
0.000731022
0.00186719
0.000696558
0.00186135
0.000717794
0.000649459
0.00206806
0.000276734
0.00206402
0.000279526
0.00205999
0.000282425
0.00205596
0.000285452
0.00205194
0.000288627
0.00204791
0.000291972
0.00204389
0.00029551
0.00203987
0.000299263
0.00203584
0.000303259
0.00203182
0.000307522
0.00202779
0.000312081
0.00202375
0.000316964
0.00201971
0.000322203
0.00201565
0.000327829
0.00201159
0.000333874
0.00200751
0.000340373
0.00200341
0.00034736
0.00199929
0.000354871
0.00199514
0.000362941
0.00199097
0.000371606
0.00198676
0.000380902
0.00198252
0.00039086
0.00197823
0.000401513
0.00197389
0.000412888
0.00196951
0.000425006
0.00196506
0.000437888
0.00196055
0.000451539
0.00195597
0.000465965
0.00195132
0.000481144
0.00194659
0.000497065
0.00194178
0.000513661
0.00193687
0.000530908
0.00193188
0.000548661
0.0019268
0.000566904
0.00192162
0.000585347
0.00191635
0.000604058
0.00191099
0.000622452
0.00190554
0.000640886
0.00190002
0.00065814
0.00189442
0.000675362
0.00188877
0.000689914
0.00188305
0.000704941
0.00187735
0.000714556
0.00187158
0.000726728
0.00186591
0.00072808
0.00186015
0.000737924
0.00185467
0.000725669
0.00184898
0.00073671
0.00184391
0.000701627
0.00183824
0.00072346
0.000654079
0.00204006
0.000280732
0.00203607
0.000283519
0.00203208
0.000286414
0.00202809
0.000289436
0.00202411
0.000292608
0.00202014
0.000295949
0.00201616
0.000299484
0.00201219
0.000303236
0.00200822
0.000307231
0.00200424
0.000311495
0.00200027
0.000316056
0.00199629
0.000320943
0.00199231
0.000326187
0.00198831
0.000331821
0.00198431
0.000337876
0.0019803
0.000344387
0.00197627
0.00035139
0.00197222
0.00035892
0.00196815
0.000367012
0.00196405
0.000375704
0.00195992
0.000385029
0.00195576
0.000395022
0.00195156
0.000405714
0.00194731
0.000417133
0.00194302
0.000429301
0.00193867
0.000442237
0.00193426
0.000455948
0.00192979
0.000470438
0.00192525
0.000485687
0.00192063
0.000501682
0.00191593
0.000518357
0.00191115
0.000535687
0.00190629
0.000553525
0.00190134
0.000571856
0.0018963
0.000590386
0.00189117
0.000609186
0.00188596
0.000627663
0.00188066
0.000646182
0.0018753
0.000663506
0.00186986
0.000680802
0.00186438
0.000695396
0.00185883
0.000710484
0.0018533
0.000720093
0.00184771
0.000732317
0.00184221
0.000733581
0.00183664
0.000743488
0.00183132
0.000730996
0.00182584
0.00074219
0.0018209
0.000706561
0.00181547
0.000728897
0.000658582
0.00607124
0.000277827
0.00607429
0.000280469
0.00607749
0.000283221
0.00608082
0.000286103
0.00608429
0.000289135
0.0060879
0.000292341
0.00609164
0.000295742
0.00609552
0.000299363
0.00609952
0.000303228
0.00610365
0.000307367
0.0061079
0.000311805
0.00611227
0.000316574
0.00611675
0.000321703
0.00612135
0.000327225
0.00612605
0.000333174
0.00613085
0.000339584
0.00613575
0.000346491
0.00614074
0.00035393
0.00614581
0.000361939
0.00615096
0.000370553
0.00615619
0.000379807
0.00616147
0.000389736
0.00616682
0.000400371
0.00617221
0.00041174
0.00617764
0.000423865
0.00618312
0.000436764
0.00618862
0.000450444
0.00619415
0.000464908
0.0061997
0.000480135
0.00620527
0.00049611
0.00621086
0.000512768
0.00621648
0.000530075
0.00622211
0.000547892
0.00622778
0.000566186
0.00623348
0.000584684
0.00623925
0.000603415
0.00624507
0.000621842
0.00625102
0.000640234
0.00625704
0.00065749
0.00626328
0.00067456
0.00626959
0.000689087
0.00627629
0.00070378
0.006283
0.000713383
0.00629041
0.000724912
0.00629761
0.000726379
0.00630606
0.000735041
0.00631378
0.000723276
0.00632377
0.000732199
0.00633195
0.000698384
0.00634417
0.000716674
0.000648718
0.00609627
0.00027602
0.00609822
0.000278515
0.00610032
0.000281121
0.00610257
0.00028386
0.00610495
0.000286751
0.00610747
0.000289817
0.00611014
0.00029308
0.00611293
0.000296566
0.00611586
0.000300299
0.00611892
0.000304307
0.00612211
0.000308618
0.00612542
0.000313263
0.00612885
0.000318271
0.0061324
0.000323676
0.00613606
0.000329511
0.00613984
0.000335813
0.00614371
0.000342615
0.00614769
0.000349955
0.00615176
0.00035787
0.00615591
0.000366395
0.00616015
0.000375567
0.00616447
0.00038542
0.00616886
0.000395984
0.00617331
0.000407287
0.00617782
0.000419353
0.00618239
0.000432198
0.006187
0.000445829
0.00619167
0.000460246
0.00619637
0.000475431
0.00620112
0.000491362
0.00620591
0.000507978
0.00621075
0.000525236
0.00621563
0.000543006
0.00622059
0.000561234
0.0062256
0.000579672
0.00623071
0.000598303
0.0062359
0.000616652
0.00624125
0.000634883
0.0062467
0.000652045
0.0062524
0.000668853
0.00625819
0.000683297
0.00626442
0.000697549
0.00627065
0.000707155
0.00627764
0.000717919
0.00628437
0.000719657
0.00629247
0.000726935
0.00629966
0.000716094
0.00630942
0.000722434
0.0063169
0.000690902
0.00632912
0.000704461
0.00063968
0.00611595
0.000275245
0.00611688
0.000277589
0.00611795
0.000280047
0.00611918
0.000282638
0.00612054
0.000285384
0.00612205
0.000288306
0.00612371
0.000291427
0.0061255
0.000294773
0.00612743
0.000298368
0.0061295
0.00030224
0.0061317
0.000306417
0.00613403
0.00031093
0.0061365
0.00031581
0.00613908
0.00032109
0.00614179
0.000326804
0.00614461
0.000332987
0.00614755
0.000339675
0.0061506
0.000346905
0.00615376
0.000354714
0.00615702
0.000363139
0.00616037
0.000372215
0.00616381
0.000381977
0.00616734
0.000392455
0.00617095
0.000403677
0.00617464
0.000415665
0.0061784
0.000428437
0.00618223
0.000441998
0.00618613
0.000456347
0.00619009
0.000471466
0.00619413
0.000487329
0.00619823
0.000503877
0.0062024
0.00052106
0.00620665
0.000538754
0.006211
0.000556888
0.00621544
0.000575234
0.00622001
0.000593737
0.00622468
0.000611972
0.00622955
0.000630018
0.00623455
0.000647048
0.00623982
0.000663577
0.00624523
0.000677892
0.00625107
0.000691707
0.00625697
0.000701253
0.0062636
0.000711296
0.00627005
0.000713202
0.00627777
0.000719218
0.00628475
0.000709112
0.00629403
0.000713151
0.00630143
0.000683501
0.0063129
0.000692992
0.000630825
0.00613013
0.000273325
0.00612996
0.000275418
0.00612994
0.000277607
0.00613008
0.000279911
0.00613037
0.00028235
0.0061308
0.000284946
0.00613139
0.000287718
0.00613213
0.000290692
0.00613301
0.000293891
0.00613403
0.000297342
0.0061352
0.000301071
0.00613651
0.000305108
0.00613796
0.000309482
0.00613955
0.000314225
0.00614126
0.000319371
0.00614311
0.000324954
0.00614509
0.000331009
0.00614719
0.000337572
0.00614942
0.000344681
0.00615176
0.000352372
0.00615422
0.000360683
0.00615678
0.000369649
0.00615945
0.000379304
0.00616223
0.00038968
0.0061651
0.000400803
0.00616807
0.000412696
0.00617114
0.000425374
0.00617429
0.000438843
0.00617754
0.000453102
0.00618087
0.00046813
0.0061843
0.0004839
0.00618782
0.000500354
0.00619145
0.000517434
0.00619518
0.000535021
0.00619904
0.000553033
0.00620302
0.000571254
0.00620715
0.000589601
0.00621144
0.000607687
0.00621593
0.000625523
0.0062206
0.000642382
0.00622556
0.000658617
0.00623069
0.000672758
0.00623626
0.000686139
0.00624195
0.000695566
0.00624831
0.000704929
0.00625461
0.000706909
0.00626204
0.000711782
0.00626892
0.000702234
0.00627783
0.000704241
0.00628522
0.000676114
0.00629609
0.000682125
0.000622082
0.00613912
0.000274512
0.00613809
0.000276443
0.00613723
0.000278473
0.00613652
0.000280619
0.00613597
0.000282901
0.00613558
0.00028534
0.00613534
0.000287957
0.00613525
0.000290777
0.00613532
0.000293823
0.00613554
0.000297123
0.00613591
0.000300701
0.00613643
0.000304589
0.00613709
0.000308816
0.0061379
0.000313415
0.00613886
0.000318417
0.00613995
0.000323859
0.00614119
0.000329775
0.00614256
0.000336202
0.00614406
0.000343177
0.0061457
0.000350738
0.00614746
0.00035892
0.00614935
0.000367761
0.00615136
0.000377294
0.00615349
0.000387549
0.00615574
0.000398555
0.0061581
0.000410332
0.00616058
0.000422896
0.00616317
0.000436252
0.00616587
0.000450396
0.0061687
0.000465309
0.00617164
0.00048096
0.0061747
0.000497291
0.00617789
0.00051424
0.00618122
0.000531692
0.0061847
0.000549552
0.00618834
0.000567616
0.00619216
0.000585777
0.00619617
0.000603681
0.00620041
0.000621281
0.00620486
0.000637932
0.00620962
0.000653855
0.0062146
0.00066778
0.00622001
0.000680729
0.00622559
0.000689984
0.00623182
0.000698705
0.00623805
0.000700675
0.00624532
0.000704513
0.00625219
0.000695367
0.00626084
0.00069559
0.00626828
0.000668672
0.00627869
0.00067172
0.000613383
0.00614202
0.000276456
0.00614024
0.000278221
0.00613863
0.000280085
0.00613718
0.000282067
0.0061359
0.000284186
0.00613477
0.000286463
0.00613381
0.000288919
0.00613301
0.000291578
0.00613237
0.000294464
0.00613189
0.000297604
0.00613156
0.000301025
0.0061314
0.000304756
0.00613139
0.000308827
0.00613153
0.000313271
0.00613183
0.00031812
0.00613228
0.00032341
0.00613287
0.000329176
0.00613362
0.000335455
0.00613451
0.000342283
0.00613555
0.000349699
0.00613673
0.000357739
0.00613806
0.000366439
0.00613952
0.000375833
0.00614112
0.000385951
0.00614285
0.00039682
0.00614472
0.000408461
0.00614673
0.00042089
0.00614887
0.000434109
0.00615115
0.000448115
0.00615357
0.000462887
0.00615614
0.000478392
0.00615886
0.000494573
0.00616174
0.000511362
0.00616478
0.000528648
0.00616801
0.000546325
0.00617143
0.0005642
0.00617506
0.000582146
0.0061789
0.000599834
0.00618301
0.000617172
0.00618736
0.000633581
0.00619204
0.000649174
0.00619698
0.000662846
0.00620235
0.000675361
0.00620793
0.000684396
0.00621413
0.000692507
0.00622041
0.000694397
0.00622763
0.000697295
0.00623457
0.000688422
0.00624308
0.00068708
0.00625064
0.000661115
0.00626072
0.000661638
0.000604667
0.00613873
0.000279048
0.00613631
0.000280642
0.00613406
0.000282336
0.00613198
0.000284148
0.00613007
0.000286097
0.00612832
0.000288205
0.00612675
0.000290493
0.00612534
0.000292984
0.0061241
0.000295703
0.00612303
0.000298677
0.00612213
0.000301931
0.00612139
0.000305496
0.00612081
0.000309403
0.0061204
0.000313682
0.00612015
0.000318368
0.00612007
0.000323495
0.00612014
0.000329099
0.00612038
0.000335217
0.00612078
0.000341887
0.00612133
0.000349144
0.00612205
0.000357026
0.00612292
0.000365569
0.00612394
0.000374807
0.00612512
0.000384769
0.00612646
0.000395482
0.00612796
0.000406967
0.00612961
0.000419237
0.00613142
0.000432297
0.0061334
0.00044614
0.00613554
0.000460745
0.00613785
0.000476077
0.00614035
0.000492079
0.00614303
0.00050868
0.00614591
0.000525768
0.006149
0.000543234
0.00615231
0.000560888
0.00615587
0.00057859
0.00615968
0.000596029
0.00616377
0.000613078
0.00616814
0.000629212
0.00617286
0.000644456
0.00617786
0.000657841
0.0061833
0.00066992
0.006189
0.000678696
0.00619529
0.000686223
0.00620171
0.000687976
0.00620899
0.000690016
0.0062161
0.000681312
0.00622458
0.000678593
0.00623232
0.000653376
0.00624221
0.000651746
0.000595874
0.0061323
0.00028084
0.00612917
0.000282174
0.00612622
0.00028359
0.00612345
0.000285107
0.00612086
0.000286743
0.00611844
0.000288517
0.00611619
0.00029045
0.00611412
0.000292563
0.00611223
0.000294879
0.00611051
0.000297424
0.00610896
0.000300222
0.00610759
0.000303303
0.00610639
0.000306694
0.00610537
0.000310426
0.00610452
0.000314531
0.00610384
0.000319043
0.00610334
0.000323997
0.00610301
0.000329428
0.00610286
0.000335373
0.00610288
0.000341869
0.00610307
0.000348954
0.00610343
0.000356663
0.00610396
0.000365033
0.00610467
0.000374097
0.00610556
0.000383885
0.00610662
0.000394423
0.00610785
0.00040573
0.00610927
0.00041782
0.00611087
0.000430697
0.00611266
0.000444352
0.00611464
0.000458764
0.00611682
0.000473897
0.00611921
0.000489691
0.00612181
0.000506074
0.00612465
0.000522935
0.00612772
0.000540159
0.00613105
0.000557561
0.00613465
0.000574988
0.00613853
0.000592147
0.00614273
0.000608881
0.00614723
0.000624709
0.0061521
0.000639586
0.00615729
0.000652653
0.00616292
0.000664291
0.00616884
0.000672775
0.00617532
0.000679742
0.00618199
0.00068131
0.00618944
0.000682567
0.0061968
0.000673948
0.00620538
0.000670018
0.00621337
0.000645388
0.00622319
0.000641919
0.000586941
0.00611684
0.000284558
0.00611331
0.000285708
0.00610996
0.000286942
0.00610679
0.000288277
0.0061038
0.000289731
0.00610099
0.000291324
0.00609837
0.000293075
0.00609592
0.000295006
0.00609366
0.000297141
0.00609158
0.000299504
0.00608969
0.00030212
0.00608797
0.000305018
0.00608644
0.000308226
0.00608509
0.000311776
0.00608392
0.000315698
0.00608294
0.000320026
0.00608214
0.000324796
0.00608153
0.000330042
0.0060811
0.000335802
0.00608085
0.000342112
0.0060808
0.00034901
0.00608093
0.000356531
0.00608125
0.000364712
0.00608176
0.000373585
0.00608247
0.00038318
0.00608337
0.000393522
0.00608447
0.000404632
0.00608577
0.00041652
0.00608728
0.000429189
0.006089
0.000442632
0.00609093
0.000456825
0.0060931
0.00047173
0.0060955
0.000487289
0.00609815
0.000503425
0.00610106
0.000520029
0.00610424
0.00053698
0.0061077
0.0005541
0.00611146
0.000571223
0.00611554
0.000588071
0.00611995
0.000604465
0.0061247
0.000619958
0.00612984
0.000634449
0.00613532
0.000647171
0.00614125
0.000658363
0.0061475
0.000666526
0.00615429
0.000672953
0.0061613
0.0006743
0.00616903
0.000674839
0.00617673
0.000666241
0.0061855
0.000661249
0.00619381
0.00063708
0.00620369
0.000632043
0.000577806
0.00609495
0.000288559
0.00609113
0.000289521
0.00608751
0.000290568
0.00608407
0.000291716
0.00608082
0.000292983
0.00607775
0.000294388
0.00607488
0.000295952
0.00607219
0.000297696
0.00606969
0.000299642
0.00606737
0.000301817
0.00606525
0.000304244
0.00606332
0.000306952
0.00606157
0.00030997
0.00606002
0.000313328
0.00605866
0.000317057
0.00605749
0.000321192
0.00605652
0.000325767
0.00605575
0.000330818
0.00605517
0.00033638
0.00605479
0.000342492
0.00605461
0.000349189
0.00605463
0.000356508
0.00605486
0.000364484
0.00605529
0.00037315
0.00605594
0.000382534
0.0060568
0.000392661
0.00605788
0.000403551
0.00605919
0.000415215
0.00606072
0.000427655
0.00606249
0.00044086
0.00606451
0.000454808
0.00606678
0.00046946
0.00606932
0.000484754
0.00607212
0.000500615
0.00607522
0.000516932
0.00607862
0.000533582
0.00608233
0.000550388
0.00608637
0.00056718
0.00609076
0.000583688
0.00609551
0.000599715
0.00610062
0.000614846
0.00610614
0.000628933
0.00611202
0.000641285
0.00611836
0.000652027
0.00612504
0.000659847
0.00613224
0.000665751
0.00613969
0.00066685
0.0061478
0.00066673
0.00615593
0.000658105
0.006165
0.000652181
0.0061737
0.00062838
0.00618374
0.000622008
0.000568405
0.00606664
0.000292707
0.00606269
0.000293477
0.00605892
0.000294332
0.00605535
0.000295288
0.00605197
0.000296364
0.00604878
0.000297577
0.00604578
0.000298948
0.00604298
0.000300499
0.00604037
0.000302252
0.00603795
0.000304232
0.00603573
0.000306464
0.00603371
0.000308976
0.00603188
0.000311796
0.00603026
0.000314954
0.00602883
0.000318484
0.00602761
0.000322416
0.00602659
0.000326787
0.00602577
0.000331632
0.00602517
0.000336986
0.00602477
0.000342886
0.00602459
0.00034937
0.00602463
0.000356472
0.00602489
0.000364228
0.00602537
0.000372669
0.00602608
0.000381825
0.00602702
0.000391719
0.0060282
0.000402369
0.00602963
0.000413787
0.00603131
0.000425974
0.00603325
0.000438918
0.00603546
0.000452596
0.00603796
0.000466967
0.00604074
0.00048197
0.00604383
0.000497528
0.00604723
0.000513529
0.00605096
0.000529848
0.00605504
0.000546312
0.00605948
0.000562744
0.00606428
0.000578884
0.00606948
0.000594521
0.00607506
0.000609264
0.00608106
0.00062293
0.00608746
0.00063489
0.00609431
0.000645177
0.00610152
0.000652635
0.00610923
0.000658035
0.00611722
0.000658866
0.00612581
0.000658142
0.00613446
0.000649456
0.00614392
0.000642717
0.00615308
0.000619216
0.00616338
0.000611713
0.000558678
0.00603617
0.000296354
0.00603202
0.00029686
0.00602806
0.000297435
0.00602429
0.000298095
0.00602073
0.000298856
0.00601735
0.000299737
0.00601418
0.000300754
0.0060112
0.000301929
0.00600841
0.000303283
0.00600583
0.000304838
0.00600344
0.000306618
0.00600126
0.000308649
0.00599927
0.000310959
0.00599749
0.000313575
0.00599592
0.000316527
0.00599456
0.000319848
0.0059934
0.000323571
0.00599246
0.000327729
0.00599174
0.000332357
0.00599123
0.000337493
0.00599094
0.000343171
0.00599088
0.000349429
0.00599106
0.000356301
0.00599146
0.000363822
0.00599211
0.000372023
0.005993
0.000380933
0.00599414
0.000390575
0.00599554
0.000400967
0.00599721
0.000412118
0.00599916
0.000424029
0.00600139
0.000436689
0.00600391
0.000450071
0.00600674
0.000464136
0.00600989
0.000478822
0.00601337
0.000494048
0.00601719
0.000509705
0.00602138
0.000525666
0.00602593
0.000541759
0.00603087
0.000557805
0.0060362
0.00057355
0.00604195
0.000588774
0.00604811
0.000603105
0.0060547
0.000616334
0.00606171
0.000627884
0.00606918
0.000637712
0.00607702
0.000644793
0.00608535
0.000649707
0.00609396
0.000650255
0.00610312
0.000648979
0.00611237
0.000640209
0.00612232
0.000632764
0.00613201
0.00060952
0.00614266
0.000601062
0.000548563
0.0059952
0.000300565
0.00599119
0.000300873
0.00598738
0.000301251
0.00598376
0.000301714
0.00598033
0.000302278
0.00597711
0.000302961
0.00597408
0.00030378
0.00597126
0.000304756
0.00596863
0.000305909
0.00596621
0.000307262
0.00596398
0.00030884
0.00596197
0.000310666
0.00596016
0.000312768
0.00595856
0.000315175
0.00595717
0.000317916
0.00595599
0.000321023
0.00595504
0.000324528
0.0059543
0.000328465
0.00595379
0.00033287
0.0059535
0.000337777
0.00595345
0.000343223
0.00595364
0.000349244
0.00595406
0.000355873
0.00595474
0.000363146
0.00595567
0.000371093
0.00595686
0.000379741
0.00595832
0.000389114
0.00596006
0.000399227
0.00596209
0.000410092
0.00596441
0.000421706
0.00596704
0.000434058
0.00596999
0.000447122
0.00597328
0.000460855
0.0059769
0.000475197
0.00598088
0.000490065
0.00598524
0.000505352
0.00598998
0.000520927
0.00599511
0.000536623
0.00600066
0.000552256
0.00600663
0.000567581
0.00601304
0.000582369
0.00601987
0.000596268
0.00602716
0.000609045
0.00603488
0.000620167
0.00604306
0.000629535
0.00605162
0.000636229
0.00606065
0.000640672
0.00606998
0.000640932
0.0060798
0.000639152
0.00608973
0.000630288
0.00610026
0.000622234
0.00611055
0.000599223
0.00612165
0.000589969
0.000538001
0.00594808
0.000304488
0.00594436
0.000304599
0.00594083
0.000304779
0.0059375
0.000305045
0.00593437
0.000305411
0.00593143
0.000305895
0.0059287
0.000306514
0.00592616
0.000307289
0.00592383
0.000308241
0.0059217
0.000309391
0.00591978
0.000310762
0.00591807
0.000312381
0.00591656
0.000314273
0.00591527
0.000316467
0.00591419
0.000318992
0.00591334
0.00032188
0.0059127
0.000325162
0.0059123
0.000328873
0.00591212
0.000333046
0.00591218
0.000337717
0.00591248
0.000342921
0.00591303
0.000348694
0.00591383
0.00035507
0.0059149
0.000362082
0.00591623
0.00036976
0.00591784
0.000378132
0.00591974
0.000387218
0.00592193
0.000397037
0.00592442
0.000407595
0.00592724
0.000418892
0.00593038
0.000430915
0.00593387
0.000443636
0.00593771
0.000457014
0.00594192
0.000470987
0.00594651
0.000485472
0.0059515
0.000500362
0.0059569
0.000515526
0.00596272
0.000530799
0.00596899
0.000545995
0.00597569
0.000560876
0.00598285
0.000575209
0.00599046
0.000588654
0.00599854
0.000600967
0.00600706
0.000611648
0.00601604
0.000620553
0.00602542
0.000626854
0.00603525
0.000630844
0.00604536
0.000630814
0.00605594
0.000628576
0.00606661
0.000619618
0.0060778
0.000611046
0.00608876
0.000588261
0.00610038
0.000578349
0.000526938
0.00589504
0.000307974
0.00589175
0.000307888
0.00588866
0.000307873
0.00588576
0.000307941
0.00588306
0.00030811
0.00588056
0.000308396
0.00587826
0.000308817
0.00587615
0.000309392
0.00587425
0.000310141
0.00587256
0.000311087
0.00587107
0.000312252
0.00586979
0.000313662
0.00586872
0.000315343
0.00586786
0.000317322
0.00586723
0.000319628
0.00586681
0.000322293
0.00586663
0.000325349
0.00586667
0.000328827
0.00586695
0.000332763
0.00586748
0.000337192
0.00586825
0.000342146
0.00586929
0.000347663
0.00587058
0.000353775
0.00587215
0.000360515
0.005874
0.000367912
0.00587613
0.000375993
0.00587857
0.000384779
0.00588133
0.000394285
0.0058844
0.000404519
0.00588781
0.000415479
0.00589158
0.000427152
0.0058957
0.00043951
0.00590021
0.00045251
0.0059051
0.000466089
0.00591041
0.000480167
0.00591614
0.000494635
0.0059223
0.000509364
0.00592891
0.000524189
0.00593598
0.000538926
0.00594351
0.000553341
0.00595152
0.000567199
0.00596
0.000580174
0.00596896
0.000592009
0.00597837
0.000602239
0.00598824
0.000610681
0.00599851
0.000616585
0.00600922
0.000620139
0.00602021
0.000619824
0.00603161
0.000617174
0.0060431
0.000608129
0.00605502
0.000599124
0.00606671
0.000576572
0.00607893
0.00056613
0.00051532
0.00583927
0.000311207
0.00583637
0.000310872
0.00583366
0.000310594
0.00583115
0.000310385
0.00582883
0.00031026
0.00582671
0.000310235
0.00582478
0.000310325
0.00582305
0.000310549
0.00582151
0.000310926
0.00582018
0.000311475
0.00581905
0.000312218
0.00581812
0.000313178
0.0058174
0.00031438
0.0058169
0.000315849
0.0058166
0.000317613
0.00581653
0.0003197
0.00581669
0.000322141
0.00581707
0.000324966
0.00581769
0.00032821
0.00581854
0.000331905
0.00581965
0.000336085
0.00582101
0.000340784
0.00582264
0.000346037
0.00582454
0.000351877
0.00582672
0.000358335
0.00582919
0.00036544
0.00583197
0.000373217
0.00583506
0.000381688
0.00583847
0.000390867
0.00584223
0.00040076
0.00584635
0.000411366
0.00585083
0.000422669
0.0058557
0.000434642
0.00586097
0.000447242
0.00586665
0.000460407
0.00587276
0.000474054
0.00587932
0.000488077
0.00588634
0.000502347
0.00589382
0.000516702
0.00590179
0.000530958
0.00591025
0.000544886
0.00591919
0.000558252
0.00592863
0.000570741
0.00593855
0.000582089
0.00594893
0.000591859
0.00595977
0.000599839
0.00597101
0.000605346
0.00598266
0.000608484
0.0059946
0.000607891
0.0060069
0.000604873
0.00601927
0.000595756
0.006032
0.000586398
0.00604447
0.0005641
0.00605736
0.000553241
0.000503099
0.0057746
0.00031356
0.00577243
0.000313037
0.00577046
0.000312571
0.00576867
0.000312174
0.00576707
0.000311861
0.00576566
0.000311646
0.00576444
0.000311545
0.00576341
0.000311577
0.00576257
0.000311759
0.00576194
0.000312112
0.0057615
0.000312656
0.00576126
0.000313414
0.00576124
0.00031441
0.00576141
0.000315669
0.00576181
0.000317219
0.00576242
0.000319087
0.00576326
0.000321304
0.00576433
0.000323899
0.00576563
0.000326906
0.00576718