/*--------------------------------*- C++ -*----------------------------------*\
  =========                 |
  \\      /  F ield         | OpenFOAM: The Open Source CFD Toolbox
   \\    /   O peration     | Website:  https://openfoam.org
    \\  /    A nd           | Version:  7
     \\/     M anipulation  |
\*---------------------------------------------------------------------------*/
FoamFile
{
    version     2.0;
    format      ascii;
    class       volVectorField;
    location    "15";
    object      U;
}
// * * * * * * * * * * * * * * * * * * * * * * * * * * * * * * * * * * * * * //

dimensions      [0 1 -1 0 0 0 0];

internalField   nonuniform List<vector> 
2625
(
(1.12047 0.024269 0)
(1.11784 0.0246896 0)
(1.11516 0.0251377 0)
(1.11242 0.0256121 0)
(1.10964 0.0261103 0)
(1.1068 0.0266302 0)
(1.10389 0.0271674 0)
(1.10093 0.0277191 0)
(1.09789 0.0282773 0)
(1.0948 0.0288399 0)
(1.09162 0.0293927 0)
(1.08839 0.0299376 0)
(1.08508 0.0304483 0)
(1.08173 0.0309394 0)
(1.07827 0.0313583 0)
(1.07481 0.031754 0)
(1.07123 0.0320161 0)
(1.06771 0.0322764 0)
(1.06399 0.0322942 0)
(1.0605 0.032397 0)
(1.05663 0.0320476 0)
(1.05333 0.0320212 0)
(1.04921 0.0311154 0)
(1.04639 0.0311031 0)
(1.04177 0.0293269 0)
(1.04001 0.0296793 0)
(1.03426 0.0266222 0)
(1.17459 0.0217656 0)
(1.17236 0.0217026 0)
(1.17012 0.021646 0)
(1.16789 0.0215973 0)
(1.16565 0.0215575 0)
(1.1634 0.0215281 0)
(1.16116 0.0215102 0)
(1.1589 0.0215052 0)
(1.15664 0.0215144 0)
(1.15438 0.0215389 0)
(1.1521 0.0215802 0)
(1.14982 0.0216395 0)
(1.14753 0.021718 0)
(1.14523 0.0218171 0)
(1.14291 0.021938 0)
(1.14058 0.0220819 0)
(1.13823 0.0222501 0)
(1.13586 0.0224437 0)
(1.13347 0.0226636 0)
(1.13106 0.022911 0)
(1.12862 0.0231866 0)
(1.12615 0.0234911 0)
(1.12365 0.0238248 0)
(1.12112 0.0241881 0)
(1.11855 0.0245807 0)
(1.11593 0.0250022 0)
(1.11327 0.0254515 0)
(1.11057 0.0259274 0)
(1.1078 0.0264273 0)
(1.10499 0.0269493 0)
(1.10212 0.0274887 0)
(1.09918 0.0280428 0)
(1.09619 0.0286034 0)
(1.09313 0.0291686 0)
(1.08999 0.0297237 0)
(1.08681 0.0302711 0)
(1.08354 0.0307835 0)
(1.08023 0.0312765 0)
(1.07683 0.0316962 0)
(1.07341 0.0320931 0)
(1.06988 0.0323538 0)
(1.06642 0.0326146 0)
(1.06276 0.0326279 0)
(1.05933 0.0327307 0)
(1.05552 0.0323716 0)
(1.05227 0.0323465 0)
(1.04823 0.031422 0)
(1.04545 0.0314169 0)
(1.04092 0.029606 0)
(1.03919 0.0299811 0)
(1.03355 0.0268699 0)
(1.17255 0.0221353 0)
(1.17031 0.0220675 0)
(1.16807 0.0220063 0)
(1.16583 0.021953 0)
(1.16359 0.0219088 0)
(1.16134 0.0218751 0)
(1.15909 0.0218531 0)
(1.15683 0.0218441 0)
(1.15457 0.0218494 0)
(1.1523 0.0218703 0)
(1.15003 0.0219081 0)
(1.14775 0.021964 0)
(1.14546 0.0220395 0)
(1.14316 0.0221357 0)
(1.14085 0.022254 0)
(1.13852 0.0223956 0)
(1.13618 0.0225617 0)
(1.13382 0.0227534 0)
(1.13144 0.0229719 0)
(1.12904 0.023218 0)
(1.12662 0.0234927 0)
(1.12416 0.0237966 0)
(1.12168 0.0241301 0)
(1.11916 0.0244934 0)
(1.11661 0.0248864 0)
(1.11402 0.0253086 0)
(1.11138 0.0257589 0)
(1.1087 0.0262361 0)
(1.10596 0.0267376 0)
(1.10318 0.0272615 0)
(1.10033 0.0278028 0)
(1.09743 0.0283591 0)
(1.09447 0.0289219 0)
(1.09145 0.0294894 0)
(1.08836 0.0300467 0)
(1.08521 0.0305962 0)
(1.08199 0.0311103 0)
(1.07873 0.031605 0)
(1.07537 0.0320252 0)
(1.07201 0.0324231 0)
(1.06854 0.0326825 0)
(1.06513 0.0329435 0)
(1.06153 0.0329523 0)
(1.05815 0.033055 0)
(1.05441 0.0326863 0)
(1.05121 0.0326625 0)
(1.04725 0.0317196 0)
(1.04452 0.0317215 0)
(1.04008 0.0298765 0)
(1.03837 0.0302743 0)
(1.03284 0.0271098 0)
(1.17049 0.0225019 0)
(1.16824 0.0224293 0)
(1.166 0.0223634 0)
(1.16375 0.0223054 0)
(1.1615 0.0222567 0)
(1.15925 0.0222186 0)
(1.15699 0.0221923 0)
(1.15474 0.0221792 0)
(1.15248 0.0221806 0)
(1.15021 0.0221977 0)
(1.14794 0.0222319 0)
(1.14566 0.0222845 0)
(1.14337 0.0223568 0)
(1.14107 0.0224501 0)
(1.13877 0.0225656 0)
(1.13645 0.0227047 0)
(1.13411 0.0228686 0)
(1.13177 0.0230583 0)
(1.1294 0.0232751 0)
(1.12701 0.0235199 0)
(1.1246 0.0237935 0)
(1.12216 0.0240966 0)
(1.11969 0.0244297 0)
(1.11719 0.0247929 0)
(1.11466 0.0251861 0)
(1.11209 0.0256088 0)
(1.10948 0.0260599 0)
(1.10682 0.0265382 0)
(1.10411 0.0270412 0)
(1.10136 0.0275666 0)
(1.09854 0.0281098 0)
(1.09568 0.028668 0)
(1.09275 0.0292329 0)
(1.08977 0.0298025 0)
(1.08672 0.0303616 0)
(1.08361 0.0309132 0)
(1.08044 0.0314287 0)
(1.07722 0.031925 0)
(1.07392 0.0323455 0)
(1.07061 0.0327443 0)
(1.06719 0.0330022 0)
(1.06383 0.0332633 0)
(1.06029 0.0332676 0)
(1.05697 0.0333701 0)
(1.0533 0.0329919 0)
(1.05015 0.0329692 0)
(1.04626 0.0320084 0)
(1.04358 0.0320171 0)
(1.03923 0.0301385 0)
(1.03755 0.030559 0)
(1.03213 0.0273421 0)
(1.1684 0.0228654 0)
(1.16615 0.0227878 0)
(1.1639 0.0227171 0)
(1.16164 0.0226544 0)
(1.15939 0.0226011 0)
(1.15714 0.0225585 0)
(1.15488 0.0225279 0)
(1.15262 0.0225106 0)
(1.15036 0.022508 0)
(1.14809 0.0225212 0)
(1.14582 0.0225517 0)
(1.14355 0.0226008 0)
(1.14126 0.0226698 0)
(1.13897 0.02276 0)
(1.13667 0.0228727 0)
(1.13436 0.0230092 0)
(1.13204 0.0231707 0)
(1.1297 0.0233584 0)
(1.12734 0.0235734 0)
(1.12496 0.0238166 0)
(1.12256 0.024089 0)
(1.12014 0.0243912 0)
(1.11769 0.0247237 0)
(1.11521 0.0250866 0)
(1.1127 0.0254799 0)
(1.11015 0.0259029 0)
(1.10756 0.0263547 0)
(1.10493 0.0268339 0)
(1.10225 0.0273381 0)
(1.09953 0.0278649 0)
(1.09675 0.0284097 0)
(1.09392 0.0289697 0)
(1.09103 0.0295363 0)
(1.08808 0.0301078 0)
(1.08507 0.0306688 0)
(1.08201 0.0312221 0)
(1.07888 0.0317388 0)
(1.07571 0.0322365 0)
(1.07246 0.0326573 0)
(1.0692 0.0330567 0)
(1.06584 0.0333131 0)
(1.06254 0.0335741 0)
(1.05906 0.033574 0)
(1.05579 0.0336761 0)
(1.05219 0.0332887 0)
(1.04909 0.0332669 0)
(1.04528 0.0322885 0)
(1.04264 0.0323037 0)
(1.03839 0.0303922 0)
(1.03673 0.0308354 0)
(1.03142 0.0275669 0)
(1.16628 0.0232258 0)
(1.16403 0.0231432 0)
(1.16177 0.0230675 0)
(1.15952 0.0230001 0)
(1.15726 0.0229421 0)
(1.155 0.0228949 0)
(1.15275 0.0228599 0)
(1.15049 0.0228383 0)
(1.14822 0.0228315 0)
(1.14596 0.0228408 0)
(1.14369 0.0228675 0)
(1.14142 0.022913 0)
(1.13914 0.0229786 0)
(1.13686 0.0230656 0)
(1.13456 0.0231754 0)
(1.13226 0.0233091 0)
(1.12994 0.0234682 0)
(1.12761 0.0236537 0)
(1.12527 0.0238667 0)
(1.1229 0.0241083 0)
(1.12052 0.0243793 0)
(1.11812 0.0246805 0)
(1.11568 0.0250122 0)
(1.11322 0.0253747 0)
(1.11073 0.0257678 0)
(1.10821 0.026191 0)
(1.10564 0.0266433 0)
(1.10304 0.0271232 0)
(1.10039 0.0276283 0)
(1.09769 0.0281564 0)
(1.09495 0.0287026 0)
(1.09215 0.0292642 0)
(1.0893 0.0298324 0)
(1.08639 0.0304056 0)
(1.08342 0.0309681 0)
(1.08041 0.031523 0)
(1.07732 0.0320408 0)
(1.0742 0.0325397 0)
(1.071 0.0329606 0)
(1.06779 0.0333606 0)
(1.06449 0.0336153 0)
(1.06124 0.0338762 0)
(1.05782 0.0338715 0)
(1.05461 0.0339732 0)
(1.05108 0.0335766 0)
(1.04804 0.0335556 0)
(1.0443 0.0325601 0)
(1.0417 0.0325816 0)
(1.03755 0.0306376 0)
(1.03591 0.0311036 0)
(1.03071 0.0277843 0)
(1.16415 0.0235833 0)
(1.16189 0.0234957 0)
(1.15962 0.023415 0)
(1.15737 0.0233426 0)
(1.15511 0.0232798 0)
(1.15285 0.023228 0)
(1.15059 0.0231884 0)
(1.14833 0.0231624 0)
(1.14607 0.0231514 0)
(1.14381 0.0231566 0)
(1.14154 0.0231794 0)
(1.13928 0.0232212 0)
(1.137 0.0232833 0)
(1.13472 0.0233669 0)
(1.13244 0.0234736 0)
(1.13014 0.0236045 0)
(1.12784 0.0237609 0)
(1.12552 0.023944 0)
(1.12318 0.024155 0)
(1.12084 0.0243948 0)
(1.11847 0.0246643 0)
(1.11608 0.0249642 0)
(1.11367 0.025295 0)
(1.11123 0.0256569 0)
(1.10876 0.0260497 0)
(1.10625 0.0264729 0)
(1.10371 0.0269254 0)
(1.10114 0.027406 0)
(1.09852 0.0279119 0)
(1.09585 0.028441 0)
(1.09314 0.0289883 0)
(1.09038 0.0295513 0)
(1.08756 0.030121 0)
(1.0847 0.0306957 0)
(1.08177 0.0312596 0)
(1.0788 0.0318159 0)
(1.07576 0.0323346 0)
(1.07269 0.0328346 0)
(1.06954 0.0332554 0)
(1.06639 0.0336558 0)
(1.06313 0.0339088 0)
(1.05994 0.0341695 0)
(1.05659 0.0341603 0)
(1.05343 0.0342615 0)
(1.04997 0.0338559 0)
(1.04698 0.0338358 0)
(1.04333 0.0328231 0)
(1.04077 0.0328512 0)
(1.0367 0.0308746 0)
(1.0351 0.0313645 0)
(1.03 0.0279943 0)
(1.16199 0.0239369 0)
(1.15972 0.023844 0)
(1.15746 0.0237582 0)
(1.1552 0.0236808 0)
(1.15293 0.0236132 0)
(1.15068 0.0235566 0)
(1.14842 0.0235124 0)
(1.14616 0.023482 0)
(1.1439 0.0234666 0)
(1.14164 0.0234676 0)
(1.13938 0.0234864 0)
(1.13712 0.0235244 0)
(1.13485 0.0235828 0)
(1.13258 0.0236631 0)
(1.1303 0.0237665 0)
(1.12801 0.0238945 0)
(1.12572 0.0240481 0)
(1.12341 0.0242288 0)
(1.12109 0.0244375 0)
(1.11876 0.0246754 0)
(1.1164 0.0249432 0)
(1.11403 0.0252418 0)
(1.11164 0.0255715 0)
(1.10922 0.0259326 0)
(1.10677 0.0263249 0)
(1.10429 0.026748 0)
(1.10178 0.0272006 0)
(1.09923 0.0276816 0)
(1.09664 0.0281881 0)
(1.09401 0.0287181 0)
(1.09133 0.0292665 0)
(1.0886 0.0298307 0)
(1.08583 0.0304017 0)
(1.083 0.0309778 0)
(1.08012 0.0315429 0)
(1.07719 0.0321006 0)
(1.0742 0.0326201 0)
(1.07117 0.033121 0)
(1.06808 0.0335417 0)
(1.06498 0.0339425 0)
(1.06178 0.0341937 0)
(1.05864 0.0344541 0)
(1.05535 0.0344404 0)
(1.05225 0.0345413 0)
(1.04886 0.0341265 0)
(1.04592 0.0341075 0)
(1.04235 0.0330777 0)
(1.03983 0.0331129 0)
(1.03586 0.0311031 0)
(1.03428 0.0316185 0)
(1.02929 0.0281968 0)
(1.1598 0.0242811 0)
(1.15753 0.0241833 0)
(1.15527 0.0240926 0)
(1.153 0.0240105 0)
(1.15074 0.0239382 0)
(1.14848 0.0238771 0)
(1.14623 0.0238285 0)
(1.14397 0.0237937 0)
(1.14171 0.0237742 0)
(1.13946 0.0237713 0)
(1.1372 0.0237863 0)
(1.13494 0.0238206 0)
(1.13268 0.0238755 0)
(1.13041 0.0239525 0)
(1.12815 0.0240529 0)
(1.12587 0.024178 0)
(1.12358 0.0243291 0)
(1.12129 0.0245073 0)
(1.11899 0.024714 0)
(1.11667 0.02495 0)
(1.11433 0.0252162 0)
(1.11198 0.0255135 0)
(1.1096 0.0258421 0)
(1.1072 0.0262025 0)
(1.10478 0.0265944 0)
(1.10233 0.0270172 0)
(1.09984 0.02747 0)
(1.09732 0.0279513 0)
(1.09476 0.0284584 0)
(1.09216 0.0289892 0)
(1.08951 0.0295385 0)
(1.08682 0.0301038 0)
(1.08409 0.0306759 0)
(1.0813 0.0312532 0)
(1.07846 0.0318193 0)
(1.07558 0.0323781 0)
(1.07263 0.0328982 0)
(1.06966 0.0333998 0)
(1.06661 0.0338203 0)
(1.06357 0.0342211 0)
(1.06043 0.0344706 0)
(1.05735 0.0347303 0)
(1.05412 0.0347125 0)
(1.05107 0.0348121 0)
(1.04775 0.0343894 0)
(1.04486 0.0343697 0)
(1.04137 0.0333253 0)
(1.0389 0.0333641 0)
(1.03502 0.0313264 0)
(1.03347 0.0318607 0)
(1.02859 0.0283948 0)
(1.1549 0.0250272 -6.63252e-22)
(1.15263 0.0249186 1.55103e-21)
(1.15036 0.0248174 -2.59517e-21)
(1.1481 0.024725 -2.14606e-21)
(1.14584 0.0246428 4.85044e-21)
(1.14359 0.0245721 -1.15254e-21)
(1.14134 0.0245142 8.11444e-23)
(1.13909 0.0244705 -8.72682e-22)
(1.13684 0.0244424 1.10488e-21)
(1.1346 0.0244312 -9.32643e-22)
(1.13236 0.0244384 1.56791e-21)
(1.13012 0.0244652 -9.69099e-23)
(1.12787 0.0245132 3.97589e-22)
(1.12563 0.0245836 -2.09129e-21)
(1.12338 0.0246778 1.13973e-22)
(1.12113 0.0247973 1.76162e-21)
(1.11888 0.0249431 -1.68071e-21)
(1.11661 0.0251167 6.69201e-22)
(1.11434 0.0253192 -4.22841e-22)
(1.11206 0.0255516 -6.97235e-22)
(1.10976 0.0258148 1.3611e-22)
(1.10745 0.0261096 8.47826e-22)
(1.10512 0.0264363 -4.00195e-22)
(1.10277 0.0267953 7.53226e-22)
(1.1004 0.0271863 -8.35635e-22)
(1.098 0.0276089 -7.3115e-22)
(1.09557 0.0280618 1.11655e-21)
(1.09311 0.0285437 -4.94339e-23)
(1.09062 0.0290519 -2.39834e-22)
(1.08809 0.0295841 1.02843e-22)
(1.08552 0.0301351 3.75962e-22)
(1.08291 0.0307022 -1.3534e-22)
(1.08025 0.0312763 -6.61953e-23)
(1.07756 0.0318555 3.77412e-23)
(1.07481 0.0324234 7.96767e-24)
(1.07202 0.0329834 6.03381e-23)
(1.06918 0.0335046 -1.79434e-22)
(1.06631 0.0340062 1.80393e-22)
(1.06338 0.0344263 -1.92919e-22)
(1.06045 0.034825 -4.09823e-23)
(1.05743 0.0350721 4.54431e-23)
(1.05447 0.0353265 2.95743e-23)
(1.05138 0.0353038 7.43604e-23)
(1.04845 0.0353939 -3.64207e-23)
(1.04527 0.0349633 -3.02921e-23)
(1.0425 0.034929 5.28259e-23)
(1.03918 0.0338728 -2.61032e-23)
(1.0368 0.0338925 1.47134e-23)
(1.03314 0.0318342 -6.6196e-24)
(1.03164 0.0323554 8.01941e-25)
(1.02699 0.028848 -1.55503e-24)
(1.1465 0.0260719 8.4155e-22)
(1.14424 0.0259509 -1.69235e-21)
(1.14199 0.0258379 3.57108e-21)
(1.13975 0.0257343 -4.12431e-21)
(1.13751 0.0256414 5.17524e-21)
(1.13528 0.0255606 -2.00271e-21)
(1.13305 0.0254931 2.83812e-21)
(1.13084 0.0254403 -2.93297e-21)
(1.12862 0.0254037 1.0396e-21)
(1.12642 0.0253845 1.34113e-21)
(1.12421 0.0253841 -1.08877e-21)
(1.12201 0.025404 -5.0018e-22)
(1.11982 0.0254455 1.69816e-21)
(1.11762 0.0255101 -2.59745e-21)
(1.11543 0.025599 -1.97721e-22)
(1.11323 0.0257137 2.31525e-21)
(1.11104 0.0258555 -2.12493e-21)
(1.10884 0.0260255 1.85227e-22)
(1.10663 0.026225 1.88844e-21)
(1.10442 0.026455 -7.55631e-22)
(1.1022 0.0267164 -3.14591e-22)
(1.09997 0.0270099 -1.46404e-21)
(1.09773 0.0273359 2.01771e-21)
(1.09547 0.0276946 -8.93445e-22)
(1.09319 0.0280858 -1.44262e-21)
(1.09089 0.028509 1.82803e-21)
(1.08857 0.0289629 -5.765e-22)
(1.08623 0.029446 2.76163e-22)
(1.08385 0.0299555 -3.25625e-22)
(1.08144 0.030489 -9.70029e-23)
(1.079 0.0310414 3.59496e-22)
(1.07653 0.0316094 8.08498e-24)
(1.07402 0.0321844 -1.07896e-22)
(1.07147 0.0327632 2.80534e-23)
(1.06888 0.0333311 -1.41499e-22)
(1.06625 0.0338885 2.34658e-22)
(1.06358 0.0344085 -3.12752e-22)
(1.06089 0.0349037 3.13178e-22)
(1.05815 0.0353218 -1.39551e-22)
(1.0554 0.0357081 -4.45887e-23)
(1.05259 0.0359538 -4.02317e-23)
(1.04982 0.0361859 4.61562e-23)
(1.04695 0.0361666 1.87691e-23)
(1.04422 0.036217 -6.02797e-24)
(1.04128 0.0358042 1.022e-23)
(1.0387 0.0356983 1.73592e-23)
(1.03565 0.0346935 -1.53056e-23)
(1.03342 0.0345823 -1.1224e-23)
(1.03009 0.0326434 3.89273e-24)
(1.02868 0.0329291 -1.08024e-24)
(1.02442 0.0295765 2.63908e-24)
(1.1375 0.0270765 6.68153e-23)
(1.13527 0.0269424 -5.00419e-21)
(1.13304 0.0268168 9.33118e-22)
(1.13082 0.0267012 3.49984e-22)
(1.12861 0.0265968 -1.36075e-21)
(1.12642 0.0265049 4.83444e-22)
(1.12423 0.026427 3.59174e-21)
(1.12205 0.0263642 -4.36457e-21)
(1.11988 0.0263181 1.60949e-21)
(1.11771 0.02629 1.54939e-21)
(1.11556 0.0262812 -3.88845e-21)
(1.11341 0.0262932 1.26877e-21)
(1.11127 0.0263274 2.49126e-21)
(1.10913 0.0263852 8.09078e-22)
(1.107 0.0264679 -2.30948e-21)
(1.10487 0.0265769 -1.26295e-21)
(1.10274 0.0267136 3.0583e-21)
(1.10062 0.0268791 -2.86782e-21)
(1.09849 0.0270747 7.29954e-22)
(1.09636 0.0273014 1.07085e-21)
(1.09423 0.02756 -6.7157e-22)
(1.09209 0.0278513 8.0432e-22)
(1.08994 0.0281757 -1.1756e-21)
(1.08778 0.0285332 -8.26189e-22)
(1.08561 0.0289238 1.69057e-21)
(1.08342 0.0293467 -4.399e-22)
(1.08122 0.0298007 -1.87147e-22)
(1.07899 0.0302841 -1.38953e-22)
(1.07674 0.0307942 8.08011e-22)
(1.07447 0.0313283 -2.52004e-22)
(1.07217 0.0318814 -2.77643e-22)
(1.06984 0.0324497 6.13103e-22)
(1.06749 0.0330249 -3.27295e-22)
(1.0651 0.033603 -6.16288e-23)
(1.06267 0.0341703 7.62789e-24)
(1.06022 0.034725 -1.78237e-22)
(1.05774 0.0352433 1.42665e-22)
(1.05523 0.0357324 -8.77922e-23)
(1.05269 0.0361478 -3.18296e-23)
(1.05014 0.0365226 9.15938e-23)
(1.04754 0.0367659 3.23922e-23)
(1.04498 0.0369776 -4.40374e-23)
(1.04234 0.0369601 7.27834e-23)
(1.03982 0.0369742 -7.07226e-23)
(1.03714 0.0365759 3.70805e-23)
(1.03476 0.0364048 -1.49615e-23)
(1.03199 0.0354448 3.0826e-24)
(1.02993 0.0352139 1.00528e-23)
(1.02692 0.033381 8.694e-24)
(1.02561 0.0334533 -4.8137e-25)
(1.02176 0.0302417 -1.12473e-23)
(1.13012 0.0282386 -1.83076e-23)
(1.1279 0.0280815 -1.79249e-21)
(1.12569 0.0279322 1.13622e-21)
(1.1235 0.027792 -3.58593e-22)
(1.12132 0.0276622 1.50057e-21)
(1.11915 0.0275442 -9.07772e-22)
(1.11699 0.0274393 2.82492e-21)
(1.11485 0.0273488 6.76464e-23)
(1.11272 0.0272741 -8.11775e-23)
(1.1106 0.0272165 -2.00979e-21)
(1.10849 0.0271774 2.12373e-21)
(1.10639 0.0271582 1.65605e-22)
(1.1043 0.0271603 -2.57399e-21)
(1.10222 0.0271852 1.56831e-21)
(1.10015 0.0272342 -2.33188e-23)
(1.09809 0.0273088 -5.69483e-23)
(1.09604 0.0274102 -3.04741e-22)
(1.09399 0.0275399 -3.75058e-22)
(1.09195 0.027699 2.20005e-21)
(1.08991 0.0278887 -1.21257e-21)
(1.08787 0.0281102 -9.22028e-22)
(1.08583 0.0283642 2.13636e-21)
(1.08379 0.0286514 -1.52267e-21)
(1.08175 0.0289722 1.27361e-21)
(1.0797 0.0293268 -2.00883e-22)
(1.07765 0.0297149 4.16894e-22)
(1.07558 0.0301357 -6.90559e-22)
(1.0735 0.0305881 -1.34296e-21)
(1.07141 0.0310701 1.39376e-21)
(1.0693 0.0315792 -8.88835e-23)
(1.06717 0.0321122 -3.81878e-22)
(1.06503 0.0326644 -3.89655e-22)
(1.06286 0.0332314 1.27233e-22)
(1.06066 0.0338054 -1.60862e-22)
(1.05845 0.0343814 3.54571e-22)
(1.0562 0.0349468 -8.80978e-23)
(1.05394 0.0354976 -2.302e-22)
(1.05165 0.0360128 6.00054e-23)
(1.04934 0.0364953 2.16498e-22)
(1.047 0.0369065 -6.55691e-23)
(1.04467 0.0372702 -2.10644e-23)
(1.04229 0.0375091 -5.31275e-24)
(1.03996 0.0377022 6.31699e-23)
(1.03756 0.0376829 3.87138e-23)
(1.03526 0.0376658 -3.75116e-23)
(1.03284 0.0372749 3.22286e-23)
(1.03067 0.0370494 1.00902e-23)
(1.02819 0.0361199 -9.46676e-24)
(1.02632 0.0357916 2.17193e-24)
(1.02364 0.0340343 -9.73576e-24)
(1.02245 0.0339407 1.74043e-24)
(1.01903 0.0308292 1.08453e-23)
(1.11986 0.0292506 6.46527e-21)
(1.11768 0.0290763 -6.88035e-21)
(1.11551 0.0289103 3.17668e-21)
(1.11336 0.0287541 9.58891e-22)
(1.11122 0.0286088 -3.0669e-21)
(1.1091 0.0284758 1.58016e-21)
(1.107 0.0283564 -3.33328e-22)
(1.10491 0.028252 2.02844e-21)
(1.10284 0.0281639 -1.63605e-22)
(1.10078 0.0280934 -1.32104e-21)
(1.09873 0.028042 1.32875e-21)
(1.0967 0.028011 -1.76825e-21)
(1.09468 0.0280019 1.97635e-22)
(1.09268 0.028016 9.50225e-23)
(1.09069 0.0280549 1.58591e-21)
(1.08871 0.0281198 -2.05399e-21)
(1.08674 0.0282122 6.88713e-22)
(1.08478 0.0283334 5.11395e-22)
(1.08283 0.0284847 -2.6463e-22)
(1.08089 0.0286671 -1.71811e-21)
(1.07895 0.0288819 6.96961e-22)
(1.07702 0.0291297 1.04552e-21)
(1.07509 0.0294113 -4.90701e-22)
(1.07317 0.0297271 4.79779e-22)
(1.07124 0.0300771 -1.29534e-21)
(1.06931 0.0304611 5.64674e-22)
(1.06738 0.0308783 -5.18276e-22)
(1.06543 0.0313273 1.21871e-21)
(1.06349 0.0318063 -5.88816e-22)
(1.06153 0.0323125 5.11554e-22)
(1.05956 0.0328427 -3.50486e-22)
(1.05757 0.0333922 -1.80306e-22)
(1.05557 0.0339563 4.00184e-22)
(1.05355 0.0345273 -1.37246e-22)
(1.05152 0.0350996 -2.31484e-22)
(1.04947 0.0356612 1.50177e-22)
(1.0474 0.0362068 3.28648e-22)
(1.04532 0.0367171 -1.00404e-24)
(1.04322 0.0371919 -3.81596e-22)
(1.04111 0.0375969 1.26433e-22)
(1.03899 0.037949 -1.5647e-24)
(1.03686 0.0381814 -1.0309e-23)
(1.03475 0.0383565 3.48465e-23)
(1.0326 0.0383327 9.77259e-24)
(1.03055 0.0382869 1.4807e-23)
(1.02839 0.0378992 3.33547e-23)
(1.02646 0.0376256 -1.75809e-23)
(1.02426 0.0367182 -2.40533e-23)
(1.02259 0.0363062 5.52766e-24)
(1.02025 0.0346075 -6.68076e-24)
(1.01919 0.0343765 4.95197e-26)
(1.0162 0.0313418 2.29839e-24)
(1.10896 0.0302422 1.16727e-21)
(1.10683 0.0300494 -1.94968e-21)
(1.10471 0.0298656 -2.31256e-22)
(1.10261 0.0296921 2.26968e-21)
(1.10053 0.0295301 2.53728e-21)
(1.09847 0.029381 -4.2104e-22)
(1.09643 0.029246 -9.45703e-22)
(1.09441 0.0291265 -2.1609e-22)
(1.0924 0.0290238 -8.74911e-22)
(1.09041 0.0289393 1.92634e-21)
(1.08845 0.0288743 -5.09494e-22)
(1.08649 0.0288304 -2.70596e-21)
(1.08456 0.0288089 1.18316e-21)
(1.08264 0.0288111 -1.47105e-21)
(1.08074 0.0288386 2.4383e-21)
(1.07885 0.0288928 -1.49548e-21)
(1.07698 0.028975 1.03282e-21)
(1.07512 0.0290865 -2.13387e-21)
(1.07327 0.0292286 2.04682e-21)
(1.07144 0.0294025 4.91445e-24)
(1.06962 0.0296092 1.65683e-22)
(1.0678 0.0298496 3.18511e-23)
(1.06599 0.0301243 -1.41372e-21)
(1.06419 0.0304336 -3.93126e-22)
(1.0624 0.0307777 1.78955e-21)
(1.0606 0.0311561 -7.9654e-22)
(1.05881 0.0315681 1.19632e-21)
(1.05702 0.0320123 -4.85666e-22)
(1.05523 0.0324867 -4.51867e-22)
(1.05343 0.0329885 3.20965e-22)
(1.05163 0.0335144 -2.56645e-22)
(1.04981 0.0340595 2.37847e-23)
(1.048 0.034619 9.51859e-24)
(1.04617 0.0351854 -2.96559e-22)
(1.04433 0.0357524 4.61847e-22)
(1.04248 0.0363086 -4.3352e-22)
(1.04062 0.0368475 -2.25112e-22)
(1.03875 0.0373512 3.66956e-22)
(1.03688 0.037817 -1.89417e-22)
(1.035 0.0382145 1.2711e-22)
(1.03312 0.0385541 -2.3428e-22)
(1.03123 0.0387784 2.20884e-22)
(1.02937 0.0389358 -2.06066e-23)
(1.02748 0.0389055 -2.74795e-23)
(1.02568 0.0388329 -1.83836e-23)
(1.0238 0.0384453 1.04099e-23)
(1.02211 0.0381283 -2.91744e-23)
(1.02021 0.0372376 1.51934e-24)
(1.01876 0.036752 -8.53604e-24)
(1.01676 0.0351008 1.59349e-23)
(1.01584 0.034752 -1.52221e-24)
(1.0133 0.0317799 -1.14687e-23)
(1.09741 0.0312063 -4.34298e-21)
(1.09534 0.0309939 3.34605e-21)
(1.09328 0.0307911 -2.84109e-21)
(1.09125 0.0305992 1.0929e-21)
(1.08924 0.0304193 2.49029e-22)
(1.08725 0.0302529 1.01539e-21)
(1.08529 0.0301011 -2.89128e-21)
(1.08334 0.0299654 2.61959e-21)
(1.08142 0.029847 1.40493e-21)
(1.07951 0.0297474 -1.08132e-21)
(1.07763 0.0296678 -1.50763e-21)
(1.07577 0.0296098 2.60378e-22)
(1.07393 0.0295747 -4.82679e-22)
(1.07211 0.0295639 2.0557e-21)
(1.0703 0.029579 -2.66402e-21)
(1.06852 0.0296212 2.5424e-21)
(1.06675 0.029692 -1.82796e-21)
(1.06501 0.0297926 2.65282e-21)
(1.06328 0.0299244 -8.15729e-22)
(1.06156 0.0300885 -6.29622e-22)
(1.05986 0.030286 6.63404e-22)
(1.05817 0.0305176 7.29138e-22)
(1.0565 0.030784 -1.41454e-21)
(1.05484 0.0310856 7.14226e-22)
(1.05319 0.0314223 -1.1006e-21)
(1.05154 0.0317937 1.48066e-21)
(1.0499 0.0321991 -1.19958e-21)
(1.04827 0.032637 1.83432e-22)
(1.04664 0.0331053 -4.0794e-23)
(1.04502 0.0336012 -1.45034e-22)
(1.04339 0.0341212 8.52917e-23)
(1.04176 0.0346605 6.07198e-22)
(1.04014 0.0352139 -5.34465e-22)
(1.03851 0.0357741 -2.67966e-23)
(1.03688 0.0363342 4.82192e-22)
(1.03524 0.0368834 -3.65614e-22)
(1.0336 0.0374143 3.66456e-22)
(1.03196 0.03791 -1.54178e-22)
(1.03033 0.0383658 8.96e-23)
(1.02869 0.0387542 -1.84288e-23)
(1.02706 0.0390808 -6.69268e-23)
(1.02542 0.0392957 4.6597e-23)
(1.02383 0.0394355 -1.08206e-22)
(1.02221 0.0393973 4.29156e-23)
(1.02067 0.0392995 5.3761e-24)
(1.01907 0.0389097 5.23697e-24)
(1.01764 0.0385537 -1.65457e-23)
(1.01604 0.0376751 2.7256e-23)
(1.01482 0.0371251 -2.89509e-24)
(1.01317 0.0355125 -1.04822e-23)
(1.01239 0.0350629 2.79024e-24)
(1.01032 0.0321419 2.37352e-23)
(1.08723 0.0323779 3.695e-21)
(1.08521 0.0321358 2.85891e-21)
(1.08321 0.0319027 -2.39877e-21)
(1.08123 0.0316798 -1.14381e-22)
(1.07928 0.0314684 3.43211e-22)
(1.07735 0.0312696 -1.85535e-21)
(1.07545 0.0310848 1.49958e-21)
(1.07357 0.0309153 -7.19118e-22)
(1.07172 0.0307623 3.07029e-22)
(1.06988 0.0306272 -1.43214e-21)
(1.06808 0.0305114 2.305e-21)
(1.06629 0.0304162 -1.85213e-21)
(1.06453 0.030343 1.95221e-22)
(1.0628 0.0302933 1.10164e-21)
(1.06108 0.0302685 -1.27505e-21)
(1.05939 0.03027 1.03006e-21)
(1.05773 0.0302991 2.08158e-22)
(1.05608 0.0303574 -4.54908e-22)
(1.05446 0.0304461 -3.40426e-22)
(1.05285 0.0305664 1.38391e-21)
(1.05127 0.0307196 -2.6942e-22)
(1.0497 0.0309066 -1.32171e-21)
(1.04816 0.0311282 1.01184e-21)
(1.04663 0.0313851 -1.30112e-21)
(1.04511 0.0316776 1.59966e-21)
(1.04361 0.0320056 -3.85e-22)
(1.04213 0.0323688 -1.11105e-21)
(1.04066 0.0327662 5.43937e-23)
(1.03919 0.0331963 5.75705e-22)
(1.03774 0.0336571 -1.21593e-22)
(1.0363 0.0341456 -4.08484e-22)
(1.03486 0.0346582 3.96974e-22)
(1.03343 0.0351901 -1.14102e-22)
(1.03201 0.0357359 -2.29582e-22)
(1.03059 0.0362883 -3.07356e-23)
(1.02918 0.0368402 1.14362e-22)
(1.02777 0.037381 -3.11265e-22)
(1.02636 0.0379024 -9.19831e-24)
(1.02496 0.0383888 2.30808e-22)
(1.02357 0.0388335 -7.8402e-23)
(1.02218 0.0392116 9.19022e-23)
(1.02081 0.0395247 -1.52275e-22)
(1.01945 0.0397289 1.36014e-22)
(1.01812 0.0398515 -5.53504e-23)
(1.01678 0.039804 3.85316e-23)
(1.01551 0.0396827 3.68918e-23)
(1.01421 0.0392888 -5.25917e-23)
(1.01305 0.0388979 2.94581e-23)
(1.01177 0.0380279 -4.99852e-24)
(1.01079 0.0374218 -1.29739e-23)
(1.00948 0.0358405 -1.5936e-24)
(1.00887 0.0353053 1.95593e-24)
(1.00726 0.0324263 -1.69853e-23)
(1.0743 0.0332865 2.20483e-21)
(1.07236 0.0330222 -1.13231e-21)
(1.07045 0.0327675 -2.45518e-21)
(1.06856 0.0325236 9.31792e-22)
(1.06671 0.0322918 1.13986e-21)
(1.06487 0.0320733 -6.44644e-22)
(1.06307 0.0318692 -2.14069e-21)
(1.06129 0.031681 1.59575e-21)
(1.05954 0.0315099 2.0395e-22)
(1.05781 0.0313572 1.92313e-21)
(1.05612 0.0312243 -9.56334e-22)
(1.05444 0.0311126 1.95419e-21)
(1.0528 0.0310234 2.20402e-22)
(1.05118 0.0309582 -3.04486e-21)
(1.04959 0.0309183 3.91422e-22)
(1.04802 0.0309053 2.15834e-21)
(1.04648 0.0309205 -1.37234e-21)
(1.04497 0.0309653 2.06974e-22)
(1.04348 0.031041 -1.04201e-21)
(1.04201 0.0311489 9.49244e-23)
(1.04057 0.03129 5.26832e-22)
(1.03915 0.0314654 6.24807e-23)
(1.03776 0.0316759 -7.20174e-22)
(1.03638 0.0319221 -7.67565e-22)
(1.03503 0.0322043 4.36546e-22)
(1.0337 0.0325224 1.07643e-21)
(1.03238 0.032876 -3.10315e-22)
(1.03108 0.0332641 4.69093e-22)
(1.0298 0.0336851 -5.42813e-22)
(1.02854 0.034137 2.44416e-23)
(1.02729 0.0346167 3.28865e-22)
(1.02606 0.0351204 -4.7885e-24)
(1.02483 0.0356435 6.96295e-23)
(1.02362 0.0361802 -1.01757e-22)
(1.02243 0.0367234 -3.4609e-23)
(1.02124 0.0372657 3.95758e-22)
(1.02007 0.0377966 2.48336e-23)
(1.0189 0.0383075 5.27498e-23)
(1.01775 0.0387832 -2.19201e-22)
(1.01662 0.0392158 2.28645e-22)
(1.0155 0.0395825 -4.82698e-23)
(1.0144 0.0398815 -9.27257e-23)
(1.01331 0.0400742 -5.58944e-23)
(1.01226 0.0401797 -9.04406e-23)
(1.01121 0.040122 -7.62676e-23)
(1.01023 0.0399788 -6.8197e-23)
(1.00923 0.0395795 9.5136e-23)
(1.00835 0.0391574 -2.93934e-23)
(1.00738 0.0382932 -5.28591e-23)
(1.00666 0.0376387 1.62065e-23)
(1.0057 0.0360829 -7.47206e-24)
(1.00526 0.0354754 -1.43894e-25)
(1.00414 0.0326316 6.00873e-24)
(1.06071 0.034144 3.056e-21)
(1.05887 0.0338567 6.33799e-22)
(1.05707 0.0335797 -5.83324e-21)
(1.05529 0.0333141 3.05609e-21)
(1.05354 0.0330612 -2.07408e-21)
(1.05181 0.0328222 3.26604e-21)
(1.05012 0.0325982 2.01411e-22)
(1.04846 0.0323906 -2.66038e-21)
(1.04682 0.0322007 2.44798e-21)
(1.04522 0.0320297 -3.29122e-21)
(1.04364 0.031879 2.12205e-21)
(1.0421 0.03175 -6.30011e-23)
(1.04058 0.031644 1.91861e-21)
(1.03909 0.0315625 -9.21702e-22)
(1.03763 0.0315069 -1.29242e-21)
(1.03621 0.0314786 2.11464e-22)
(1.03481 0.031479 8.9435e-22)
(1.03343 0.0315095 -8.09047e-22)
(1.03209 0.0315713 -1.19453e-21)
(1.03078 0.0316657 1.93117e-21)
(1.02949 0.0317939 1.909e-22)
(1.02823 0.0319568 -8.99242e-22)
(1.027 0.0321552 -1.0813e-22)
(1.02579 0.0323896 5.26942e-22)
(1.02461 0.0326604 -6.89455e-22)
(1.02345 0.0329674 7.99613e-22)
(1.02232 0.0333102 -8.28879e-22)
(1.02121 0.0336877 2.16919e-22)
(1.02012 0.0340984 -1.19343e-22)
(1.01905 0.03454 1.0695e-22)
(1.01801 0.0350095 3.71486e-22)
(1.01699 0.0355031 -5.33859e-22)
(1.01598 0.0360159 8.73493e-23)
(1.015 0.0365422 1.44698e-22)
(1.01403 0.0370748 8.72167e-23)
(1.01308 0.0376062 1.91829e-23)
(1.01215 0.038126 3.20512e-23)
(1.01125 0.038625 -3.07288e-24)
(1.01036 0.0390889 -2.40133e-22)
(1.00949 0.0395085 4.00932e-23)
(1.00864 0.0398628 -5.7775e-24)
(1.00782 0.0401473 1.02438e-22)
(1.00702 0.0403275 6.39595e-23)
(1.00626 0.0404164 -2.80292e-23)
(1.00551 0.0403478 8.80833e-23)
(1.00483 0.0401841 4.72291e-23)
(1.00413 0.0397786 1.40976e-23)
(1.00355 0.0393287 1.07483e-23)
(1.0029 0.0384685 6.50747e-24)
(1.00245 0.0377723 -4.48765e-24)
(1.00185 0.0362381 2.57641e-23)
(1.00159 0.0355696 -1.37926e-24)
(1.00096 0.0327563 -7.28313e-24)
(1.04648 0.0349407 3.15834e-22)
(1.04476 0.0346299 -6.92246e-22)
(1.04307 0.0343301 -1.63016e-21)
(1.04141 0.0340424 3.20951e-21)
(1.03979 0.0337679 -2.06054e-21)
(1.03819 0.0335079 1.30465e-21)
(1.03663 0.0332635 -1.34723e-22)
(1.03509 0.0330361 -9.99796e-22)
(1.03359 0.0328268 -9.22739e-22)
(1.03212 0.032637 2.56949e-21)
(1.03068 0.032468 1.47964e-21)
(1.02927 0.0323211 -6.28531e-22)
(1.0279 0.0321978 -1.35393e-21)
(1.02655 0.0320995 -7.09666e-22)
(1.02524 0.0320275 -1.12753e-21)
(1.02396 0.0319833 2.35139e-21)
(1.02271 0.0319682 1.07302e-21)
(1.0215 0.0319836 -7.41058e-22)
(1.02031 0.0320309 -5.78188e-22)
(1.01916 0.0321111 -3.03544e-22)
(1.01804 0.0322255 6.94165e-22)
(1.01695 0.032375 7.53103e-23)
(1.01589 0.0325603 -8.78242e-22)
(1.01486 0.032782 1.67171e-21)
(1.01386 0.0330404 -1.84436e-21)
(1.0129 0.0333353 9.80107e-22)
(1.01195 0.0336662 -4.29848e-22)
(1.01104 0.034032 3.13587e-22)
(1.01016 0.0344311 3.24619e-22)
(1.0093 0.0348612 -6.63127e-22)
(1.00847 0.0353193 -1.32212e-22)
(1.00767 0.0358014 1.68701e-22)
(1.0069 0.0363027 -4.48756e-23)
(1.00615 0.0368173 -3.13828e-22)
(1.00542 0.0373381 -2.32204e-23)
(1.00472 0.0378572 5.97956e-22)
(1.00405 0.0383646 -7.74303e-23)
(1.00341 0.0388507 -2.31242e-22)
(1.00279 0.0393017 2.70354e-22)
(1.0022 0.0397076 -4.06458e-23)
(1.00163 0.0400485 -1.21482e-22)
(1.0011 0.0403182 7.68297e-23)
(1.0006 0.0404854 -3.23728e-23)
(1.00014 0.0405579 -1.33621e-24)
(0.999699 0.040478 4.64502e-23)
(0.999318 0.0402953 -4.73598e-23)
(0.998941 0.039883 1.15445e-23)
(0.998654 0.0394087 -9.0772e-24)
(0.998341 0.0385513 -2.03983e-23)
(0.998161 0.0378197 1.26392e-23)
(0.997924 0.0363042 -1.76054e-23)
(0.997853 0.0355849 1.97828e-24)
(0.997716 0.0327993 7.75561e-25)
(1.03325 0.0360118 -3.40545e-21)
(1.03163 0.0356669 -2.41426e-22)
(1.03005 0.0353324 4.99082e-21)
(1.02849 0.0350096 -3.71701e-21)
(1.02697 0.0346995 4.01467e-21)
(1.02548 0.0344032 -1.14624e-21)
(1.02403 0.0341219 -9.18824e-22)
(1.0226 0.0338568 2.10109e-21)
(1.02121 0.0336092 -1.11039e-21)
(1.01986 0.0333803 5.5077e-22)
(1.01853 0.0331714 1.38923e-22)
(1.01725 0.0329837 -8.87218e-22)
(1.01599 0.0328187 1.48772e-21)
(1.01477 0.0326778 -3.69614e-21)
(1.01358 0.0325622 1.26268e-21)
(1.01243 0.0324734 2.80097e-21)
(1.01132 0.0324128 -3.32976e-21)
(1.01023 0.0323818 2.32114e-21)
(1.00919 0.0323816 -2.2475e-21)
(1.00817 0.0324137 1.58765e-22)
(1.0072 0.0324791 -5.20128e-22)
(1.00625 0.032579 1.65903e-21)
(1.00534 0.0327144 1.40893e-21)
(1.00447 0.0328859 -5.6497e-22)
(1.00363 0.0330941 -7.61374e-22)
(1.00283 0.0333392 1.24404e-22)
(1.00206 0.033621 -2.41989e-22)
(1.00132 0.033939 4.23383e-22)
(1.00061 0.0342921 -2.95455e-22)
(0.999945 0.0346785 -3.68442e-22)
(0.999308 0.035096 5.53701e-22)
(0.998705 0.0355415 9.9712e-23)
(0.998134 0.0360109 -3.65038e-22)
(0.997596 0.0364994 1.19286e-22)
(0.99709 0.0370011 -5.2926e-22)
(0.996618 0.0375088 4.2073e-22)
(0.996178 0.0380146 -7.61057e-23)
(0.995771 0.0385085 -9.50749e-23)
(0.995399 0.0389807 -9.11429e-23)
(0.99506 0.0394178 1.53179e-22)
(0.994756 0.0398091 -1.92727e-22)
(0.994487 0.0401361 -1.30543e-22)
(0.994256 0.0403906 3.92161e-24)