/*--------------------------------*- C++ -*----------------------------------*\
  =========                 |
  \\      /  F ield         | OpenFOAM: The Open Source CFD Toolbox
   \\    /   O peration     | Website:  https://openfoam.org
    \\  /    A nd           | Version:  7
     \\/     M anipulation  |
\*---------------------------------------------------------------------------*/
FoamFile
{
    version     2.0;
    format      ascii;
    class       volVectorField;
    location    "15";
    object      U;
}
// * * * * * * * * * * * * * * * * * * * * * * * * * * * * * * * * * * * * * //

dimensions      [0 1 -1 0 0 0 0];

internalField   nonuniform List<vector> 
656
(
(0.159925 0.0168527 1.47627e-20)
(0.321131 0.0179325 -8.48755e-20)
(0.159925 -0.0168527 -1.47627e-20)
(0.321131 -0.0179325 8.48755e-20)
(0.450912 -0.0166111 6.86505e-20)
(0.564242 -0.014322 1.87172e-20)
(0.651303 -0.0120464 -1.07175e-20)
(0.72176 -0.0100276 5.66151e-20)
(0.777087 -0.0083638 8.42575e-21)
(0.821799 -0.00700163 1.75708e-20)
(0.857876 -0.00589324 -1.3893e-20)
(0.162228 -0.0504413 4.78686e-20)
(0.323445 -0.0536943 6.98483e-20)
(0.452998 -0.0497505 -1.04305e-19)
(0.566005 -0.0429036 -4.70854e-20)
(0.652779 -0.0360912 1.77329e-20)
(0.722991 -0.0300453 -5.98002e-20)
(0.778124 -0.025061 7.53283e-20)
(0.82268 -0.0209797 1.10441e-21)
(0.858645 -0.0176576 2.54285e-20)
(0.166813 -0.0836885 -1.22543e-19)
(0.328056 -0.0891508 -1.35666e-19)
(0.457157 -0.0826457 3.08451e-19)
(0.569523 -0.0713003 9.8687e-20)
(0.655725 -0.059994 -2.24629e-19)
(0.72545 -0.0499512 -2.38962e-20)
(0.780197 -0.0416673 -1.87826e-19)
(0.824439 -0.0348818 -8.18531e-20)
(0.860182 -0.0293547 -2.08147e-20)
(0.173638 -0.116372 2.03878e-19)
(0.334929 -0.124102 2.31896e-19)
(0.463364 -0.115136 -3.53926e-19)
(0.574776 -0.0993907 -2.61045e-20)
(0.660127 -0.0836612 1.56241e-20)
(0.729125 -0.0696718 -2.63187e-19)
(0.783295 -0.0581226 -2.02812e-20)
(0.82707 -0.0486576 3.59849e-20)
(0.862482 -0.0409397 -1.92998e-19)
(0.182644 -0.148274 1.82946e-20)
(0.344013 -0.15835 1.181e-19)
(0.471579 -0.147064 2.92867e-20)
(0.581737 -0.127054 -3.73078e-19)
(0.665965 -0.107 5.69863e-19)
(0.734001 -0.0891344 3.77738e-19)
(0.787409 -0.0743678 -1.71041e-19)
(0.830565 -0.0622578 -1.25221e-19)
(0.865539 -0.0523686 1.31255e-19)
(0.193748 -0.179183 -1.95151e-19)
(0.355241 -0.191703 -8.33921e-19)
(0.48175 -0.178273 -1.78311e-19)
(0.590369 -0.154173 -2.81287e-19)
(0.673213 -0.129921 -5.35551e-19)
(0.740059 -0.108268 1.90618e-19)
(0.792523 -0.0903449 4.48838e-19)
(0.834911 -0.075634 -4.99614e-20)
(0.869345 -0.063598 -2.69281e-19)
(0.206853 -0.208893 9.92986e-21)
(0.368526 -0.223974 7.34373e-19)
(0.493815 -0.208613 -2.14862e-19)
(0.600626 -0.180632 2.55903e-19)
(0.681835 -0.152333 -3.85887e-20)
(0.747273 -0.127002 -1.28655e-19)
(0.798618 -0.105997 -1.80964e-20)
(0.840096 -0.0887391 5.93382e-19)
(0.873891 -0.0745854 4.26605e-19)
(0.221841 -0.237212 5.807e-19)
(0.383771 -0.254983 -7.51701e-19)
(0.507697 -0.237935 1.81154e-20)
(0.612454 -0.206318 3.28176e-19)
(0.691793 -0.174152 6.82748e-19)
(0.755615 -0.14527 -8.50211e-19)
(0.805672 -0.121271 3.9386e-19)
(0.846102 -0.101528 -2.93115e-19)
(0.879163 -0.0852897 -3.97865e-20)
(0.400859 -0.284557 5.41381e-19)
(0.523307 -0.266099 6.5392e-19)
(0.62579 -0.231122 -1.66776e-19)
(0.703041 -0.195293 -1.65817e-19)
(0.765049 -0.163006 7.0293e-19)
(0.813659 -0.136112 -5.16503e-19)
(0.852909 -0.113956 1.80632e-19)
(0.885148 -0.0956708 -3.49235e-19)
(0.419661 -0.312535 4.56531e-19)
(0.540548 -0.29297 -1.65384e-20)
(0.640561 -0.254941 2.13657e-20)
(0.715526 -0.215677 -2.83399e-19)
(0.775537 -0.180149 -6.60647e-20)
(0.822549 -0.150472 -5.38774e-19)
(0.860496 -0.125984 -1.83303e-19)
(0.89183 -0.105691 3.60761e-19)
(0.440034 -0.338764 -4.92501e-19)
(0.559307 -0.318419 2.84893e-19)
(0.656688 -0.277675 9.05899e-20)
(0.72919 -0.235227 3.79918e-20)
(0.787035 -0.196638 -1.9581e-20)
(0.83231 -0.164302 9.33365e-19)
(0.868836 -0.137571 -4.72935e-20)
(0.899188 -0.115313 -7.82785e-20)
(0.461822 -0.363104 3.65342e-19)
(0.579465 -0.342327 -8.82193e-19)
(0.674083 -0.29923 8.00451e-19)
(0.743968 -0.253871 3.38207e-19)
(0.799496 -0.212418 -4.26823e-19)
(0.842905 -0.177559 -4.37314e-19)
(0.877903 -0.148682 2.59787e-19)
(0.907201 -0.124505 3.05323e-19)
(0.484856 -0.385425 -6.61832e-19)
(0.600891 -0.36458 1.14986e-19)
(0.692653 -0.319516 -6.02641e-19)
(0.759792 -0.271539 -1.04042e-18)
(0.812868 -0.227435 5.31648e-19)
(0.854295 -0.1902 -1.14045e-19)
(0.887667 -0.159285 -5.03679e-19)
(0.915844 -0.133234 -3.64919e-19)
(0.508957 -0.405612 4.2401e-19)
(0.623444 -0.385076 4.6075e-19)
(0.712293 -0.338452 5.18865e-20)
(0.776587 -0.288168 8.8007e-19)
(0.827095 -0.241642 -2.65971e-19)
(0.866436 -0.202188 3.16373e-19)
(0.898094 -0.169349 3.47449e-19)
(0.925084 -0.141474 7.69972e-20)
(0.533938 -0.423563 3.75989e-19)
(0.646975 -0.403722 -3.99691e-19)
(0.732896 -0.35596 -7.50056e-19)
(0.794272 -0.3037 6.16871e-20)
(0.842118 -0.254993 7.07485e-19)
(0.879282 -0.213488 -3.24953e-19)
(0.909149 -0.178847 -6.43181e-19)
(0.934888 -0.149201 -1.30095e-19)
(0.5596 -0.439192 -1.19042e-19)
(0.671328 -0.420433 2.86375e-19)
(0.754345 -0.371971 5.53793e-19)
(0.812763 -0.318078 -8.82539e-19)
(0.857873 -0.267446 -5.07488e-19)
(0.892785 -0.224069 2.38973e-19)
(0.920795 -0.187757 4.22221e-19)
(0.945213 -0.156398 2.21721e-19)
(0.696336 -0.435136 -5.71641e-20)
(0.776518 -0.386423 9.15287e-20)
(0.83197 -0.331255 -7.71599e-20)
(0.874294 -0.278964 -2.14871e-19)
(0.906893 -0.233902 -4.02338e-19)
(0.932995 -0.196057 2.32664e-19)
(0.956008 -0.163048 1.46672e-19)
(0.72183 -0.44777 4.28529e-19)
(0.799289 -0.399258 8.98938e-20)
(0.851801 -0.343185 6.59181e-19)
(0.891313 -0.289513 8.79493e-20)
(0.921554 -0.242964 2.28829e-19)
(0.94571 -0.203721 -6.10623e-19)
(0.967212 -0.169102 1.70496e-19)
(0.747632 -0.458284 -6.63966e-19)
(0.822523 -0.41043 6.67922e-20)
(0.872157 -0.353829 -5.63479e-19)
(0.908857 -0.299063 1.55938e-19)
(0.936716 -0.251228 -5.61171e-20)
(0.958904 -0.210699 -3.02421e-19)
(0.978708 -0.174514 -8.27748e-19)
(0.773558 -0.466638 2.24288e-19)
(0.846084 -0.419897 -2.08875e-19)
(0.892937 -0.363153 2.05455e-19)
(0.926854 -0.30759 -1.30896e-19)
(0.952335 -0.258672 -1.68121e-19)
(0.972577 -0.21694 6.97193e-19)
(0.990324 -0.179466 3.86331e-19)
(0.869826 -0.427626 1.74007e-19)
(0.914036 -0.37113 3.07628e-19)
(0.945229 -0.315073 5.78673e-19)
(0.968371 -0.265285 2.19893e-19)
(0.986873 -0.222517 -8.01624e-19)
(1.00305 -0.184688 1.51586e-19)
(0.893605 -0.433592 -4.97741e-19)
(0.935343 -0.377736 -3.27703e-20)
(0.963899 -0.321499 -5.61484e-19)
(0.984732 -0.271089 1.03792e-19)
(1.00157 -0.227566 2.76687e-19)
(1.01582 -0.189965 2.5135e-19)
(0.917267 -0.437777 3.48098e-19)
(0.956746 -0.382952 2.16834e-20)
(0.982777 -0.326852 -8.08088e-20)
(1.00133 -0.276076 -1.28755e-19)
(1.01643 -0.231992 4.08746e-19)
(1.02873 -0.194597 -9.49468e-20)
(0.978127 -0.386765 9.45585e-21)
(1.00177 -0.331122 1.15625e-19)
(1.01808 -0.280226 2.89456e-19)
(1.03136 -0.235742 -6.30146e-19)
(1.0417 -0.198498 -1.6897e-19)
(0.999365 -0.389166 -2.64359e-19)
(1.02079 -0.334297 2.41289e-20)
(1.03492 -0.283526 7.7934e-20)
(1.04631 -0.238808 2.21088e-19)
(1.0547 -0.201701 2.70644e-19)
(1.02034 -0.390152 2.20298e-19)
(1.03974 -0.336373 -6.83694e-20)
(1.05179 -0.285967 -8.39878e-20)
(1.06126 -0.241189 3.31951e-19)
(1.06775 -0.204224 -3.24926e-19)
(1.05853 -0.337344 -5.36292e-20)
(1.0686 -0.287545 -1.34078e-19)
(1.07615 -0.24288 -1.92466e-19)
(1.08082 -0.206083 2.77617e-19)
(1.07705 -0.337212 1.91637e-19)
(1.08529 -0.288256 3.10839e-20)
(1.09097 -0.243882 1.89161e-19)
(1.09389 -0.207294 -1.72368e-19)
(1.10179 -0.2881 8.2118e-20)
(1.10567 -0.244195 1.47249e-20)
(1.10693 -0.207874 1.38584e-19)
(1.12021 -0.243825 -2.0487e-19)
(1.11992 -0.207839 -1.99885e-19)
(0.99996 -0.00181654 6.07338e-21)
(0.999292 -0.00543881 1.3045e-21)
(0.998051 -0.00955353 -6.00599e-21)
(0.996391 -0.0144894 1.1766e-20)
(0.994348 -0.0205564 -2.86175e-21)
(0.992055 -0.0279833 2.99064e-20)
(0.989626 -0.0369671 -7.58187e-20)
(0.987293 -0.0476329 7.60162e-20)
(0.985238 -0.0600907 2.95331e-20)
(0.983849 -0.0742907 -4.96644e-20)
(0.983266 -0.0902763 -1.76266e-20)
(0.984147 -0.107612 9.96655e-22)
(0.986096 -0.126485 6.75129e-20)
(0.990504 -0.145081 -1.03053e-20)
(0.99377 -0.164491 -8.09007e-21)
(0.999953 -0.00174366 3.08887e-21)
(0.999216 -0.00522283 -1.12779e-20)
(0.997838 -0.00917088 9.36458e-21)
(0.995982 -0.0138974 -3.23793e-20)
(0.993672 -0.0196938 9.01548e-21)
(0.991029 -0.0267791 2.87519e-20)
(0.988153 -0.0353445 -4.61515e-20)
(0.985255 -0.0455126 -6.94364e-21)
(0.982507 -0.0574048 7.82353e-20)
(0.980267 -0.0709834 -3.67666e-20)
(0.978695 -0.0863306 -4.33939e-20)
(0.978363 -0.103054 -3.37722e-20)
(0.979016 -0.121384 -3.18605e-20)
(0.981534 -0.13959 1.34219e-19)
(0.983196 -0.158141 -4.34787e-20)
(0.999949 -0.00166656 8.07745e-21)
(0.999148 -0.00499424 4.94262e-21)
(0.997645 -0.00876346 -8.49484e-21)
(0.995607 -0.0132721 3.10114e-22)
(0.99305 -0.0187852 -1.61451e-20)
(0.990083 -0.0255184 5.40924e-21)
(0.98679 -0.0336574 4.67243e-20)
(0.983363 -0.0433262 -7.02598e-20)
(0.979959 -0.054657 1.0769e-20)
(0.976904 -0.0676331 6.88072e-20)
(0.974362 -0.0823621 -2.23345e-20)
(0.972831 -0.098518 -1.1052e-19)
(0.972145 -0.116291 1.64617e-19)
(0.972925 -0.134139 1.17236e-20)
(0.972976 -0.152087 -8.17799e-20)
(0.999946 -0.001587 -2.89708e-20)
(0.999089 -0.00475998 -2.19812e-20)
(0.997468 -0.00835029 1.59534e-20)
(0.995262 -0.012634 9.22623e-21)
(0.992475 -0.0178742 8.82533e-24)
(0.989205 -0.0242664 2.90361e-20)
(0.985522 -0.0319957 -3.12227e-20)
(0.981596 -0.0411883 5.78817e-20)
(0.977569 -0.0519857 -6.43846e-20)
(0.973733 -0.0643903 4.36328e-20)
(0.970247 -0.0785257 -2.62405e-20)
(0.967547 -0.0941233 5.56278e-20)
(0.965528 -0.111324 -1.43353e-20)
(0.964671 -0.12877 -3.8006e-20)
(0.963183 -0.146178 1.2538e-19)
(0.999944 -0.00150441 7.28755e-21)
(0.999035 -0.00451695 -4.1841e-21)
(0.997307 -0.00792539 -3.3596e-21)
(0.994944 -0.0119557 1.44475e-20)
(0.991943 -0.0169393 -5.53766e-20)
(0.98839 -0.0229875 -7.34448e-21)
(0.984343 -0.0303017 -1.92285e-21)
(0.979948 -0.0390099 7.09077e-20)
(0.975332 -0.0492588 1.35309e-20)
(0.970753 -0.0610668 8.93575e-21)
(0.966362 -0.0745655 -9.77843e-21)
(0.962537 -0.089539 -5.93872e-20)
(0.959221 -0.106085 -5.26138e-20)
(0.956817 -0.123019 8.31785e-20)
(0.953845 -0.139835 -7.33075e-20)
(0.999942 -0.00141885 -7.76047e-22)
(0.998987 -0.00426476 3.44881e-20)
(0.997164 -0.00748295 1.89653e-20)
(0.994652 -0.0112807 -3.70874e-20)
(0.991447 -0.0159753 3.37883e-20)
(0.987636 -0.0216704 -3.42108e-20)
(0.983249 -0.0285584 2.71231e-20)
(0.978417 -0.0367669 -4.16704e-20)
(0.973248 -0.0464447 8.246e-20)
(0.967967 -0.0576242 -3.05761e-20)
(0.962717 -0.0704399 -7.02444e-21)
(0.957821 -0.0847253 -4.28453e-20)
(0.953262 -0.100545 9.16441e-20)
(0.949389 -0.116871 -7.7432e-20)
(0.944974 -0.133051 3.93749e-20)
(0.999941 -0.00133065 -1.1904e-21)
(0.998944 -0.00400432 -1.35436e-20)
(0.997031 -0.00702638 -2.76635e-20)
(0.994384 -0.010612 -3.30665e-20)
(0.990995 -0.0149798 2.02777e-20)
(0.986941 -0.0203189 -2.05627e-21)
(0.982239 -0.0267719 -5.11311e-21)
(0.976998 -0.0344687 2.82822e-20)
(0.971313 -0.0435576 -4.10652e-21)
(0.965374 -0.054083 -5.64095e-21)
(0.959314 -0.0661789 -3.68242e-20)
(0.953409 -0.0797231 -3.95912e-20)
(0.947667 -0.0947547 -1.59017e-20)
(0.942404 -0.110386 3.02935e-20)
(0.936598 -0.12587 1.28665e-19)
(0.999941 -0.00124016 -8.2774e-21)
(0.998905 -0.00373648 -6.28763e-21)
(0.996908 -0.00655681 1.62065e-20)
(0.994141 -0.0099032 1.98016e-20)
(0.990581 -0.0139591 1.769e-20)
(0.9863 -0.0189372 2.04193e-20)
(0.981308 -0.0249474 1.36404e-20)
(0.97569 -0.0321219 1.84553e-20)
(0.969524 -0.0406062 -5.43315e-20)
(0.962973 -0.0504542 4.57017e-20)
(0.956154 -0.0617966 8.54522e-20)
(0.949304 -0.0745492 -2.66706e-20)
(0.942449 -0.0887333 4.70426e-20)
(0.935878 -0.103584 1.43505e-21)
(0.928741 -0.118301 3.65541e-21)
(0.999941 -0.00114762 -1.67871e-20)
(0.99887 -0.00346182 3.59449e-20)
(0.996798 -0.00607514 2.87831e-20)
(0.99392 -0.00917144 -1.77982e-20)
(0.990203 -0.0129282 -1.6074e-20)
(0.985714 -0.0175276 4.93137e-21)
(0.980456 -0.0230873 -3.43085e-20)
(0.974488 -0.0297292 -2.64141e-20)
(0.967879 -0.0375937 5.90842e-21)
(0.960762 -0.0467416 9.04541e-20)
(0.953239 -0.0572982 -9.00984e-20)
(0.945511 -0.0692109 -4.93588e-20)
(0.937617 -0.0824896 3.90375e-20)
(0.929822 -0.0964773 1.37881e-19)
(0.921428 -0.110351 -9.1459e-20)
(0.999941 -0.00105329 1.2826e-20)
(0.998839 -0.00318096 -3.87828e-20)
(0.996698 -0.00558266 -6.9294e-20)
(0.993719 -0.00842539 2.3787e-20)
(0.989861 -0.0118817 3.09169e-20)
(0.985182 -0.0160896 1.2697e-20)
(0.979679 -0.0211936 -4.77906e-20)
(0.973392 -0.0272932 1.78127e-20)
(0.966377 -0.0345235 -2.44776e-20)
(0.958739 -0.0429499 9.26832e-21)
(0.950567 -0.0526905 -3.39711e-20)
(0.942031 -0.0637184 -5.33117e-21)
(0.933176 -0.0760371 1.50942e-20)
(0.924246 -0.0890838 -2.86945e-20)
(0.914674 -0.10204 4.07228e-20)
(0.999941 -0.000957368 2.66292e-20)
(0.998811 -0.00289448 1.35371e-20)
(0.996609 -0.00508042 6.82322e-20)
(0.993538 -0.00766572 -5.98029e-21)
(0.989553 -0.0108099 -5.08339e-20)
(0.984702 -0.0146201 8.76484e-21)
(0.978975 -0.0192683 7.70964e-21)
(0.9724 -0.024817 -1.27045e-20)
(0.965014 -0.0314 2.59811e-20)
(0.956903 -0.039085 1.68706e-20)
(0.94814 -0.0479821 -6.55459e-21)
(0.938866 -0.0580842 3.69149e-20)
(0.929131 -0.0693916 -6.15901e-20)
(0.919156 -0.0814247 1.14859e-19)
(0.908496 -0.0933896 -1.80351e-19)
(0.999942 -0.000860059 1.95946e-21)
(0.998787 -0.002603 6.21958e-21)
(0.99653 -0.00456934 -5.01048e-20)
(0.993376 -0.00689315 -3.66592e-21)
(0.989279 -0.00971862 1.27562e-20)
(0.984273 -0.0131273 -6.1918e-20)
(0.978343 -0.0173149 6.18942e-20)
(0.971509 -0.0223044 -2.92823e-20)
(0.963791 -0.0282279 5.16923e-21)
(0.955253 -0.0351534 -6.29188e-20)
(0.945957 -0.0431819 6.3076e-20)
(0.936016 -0.0523208 -2.89606e-20)
(0.925483 -0.0625697 -5.21829e-22)
(0.914559 -0.0735222 1.12725e-20)
(0.902905 -0.0844268 4.9802e-21)
(0.999942 -0.000761546 6.12186e-21)
(0.998766 -0.00230706 -8.44317e-21)
(0.99646 -0.00405032 1.88033e-20)
(0.993234 -0.00610915 1.93601e-20)
(0.98904 -0.00861193 -2.12023e-20)
(0.983893 -0.0116345 3.67763e-20)
(0.977782 -0.0153376 -1.02524e-20)
(0.97072 -0.0197589 4.56255e-20)
(0.962705 -0.0250118 -2.97283e-20)
(0.953788 -0.0311615 -1.12631e-21)
(0.944016 -0.0382989 4.77632e-20)
(0.933482 -0.0464413 -7.49681e-20)
(0.922235 -0.0555887 2.21294e-20)
(0.910459 -0.0653997 -3.07891e-20)
(0.897911 -0.0751798 -3.56598e-21)
(0.999943 -0.000661998 -2.20923e-20)
(0.998747 -0.00200724 2.0015e-20)
(0.9964 -0.00352433 5.48175e-21)
(0.99311 -0.00531516 -3.048e-20)
(0.988829 -0.007492 1.59814e-20)
(0.983563 -0.0101321 -1.16456e-21)
(0.977296 -0.013338 -2.37001e-20)
(0.970031 -0.0171842 4.02607e-20)
(0.961757 -0.0217568 6.12834e-21)
(0.952508 -0.027116 -1.2642e-20)
(0.942319 -0.0333425 -2.08741e-22)
(0.931264 -0.0404589 -4.19215e-20)
(0.919389 -0.0484661 3.28225e-20)
(0.906862 -0.0570813 3.14416e-20)
(0.893523 -0.0656786 4.13906e-20)
(0.999944 -0.000561577 1.70557e-20)
(0.998732 -0.00170406 -1.92294e-20)
(0.996349 -0.00299231 2.03211e-20)
(0.993005 -0.00451245 8.66363e-21)
(0.988648 -0.00635979 -8.44827e-21)
(0.983281 -0.00860305 1.07167e-20)
(0.97688 -0.0113183 -5.98915e-21)
(0.969441 -0.014584 1.69093e-20)
(0.960945 -0.0184677 -1.94161e-20)
(0.951411 -0.0230239 5.65432e-21)
(0.940864 -0.0283221 9.64384e-21)
(0.929361 -0.0343868 2.32185e-20)
(0.916947 -0.0412202 -5.63492e-20)
(0.903771 -0.0485919 -3.22604e-20)
(0.88975 -0.0559552 -9.41137e-21)
(0.999944 -0.000460431 2.05777e-21)
(0.998719 -0.00139805 -8.62594e-21)
(0.996307 -0.00245518 -1.10608e-20)
(0.992917 -0.00370226 4.89463e-21)
(0.988498 -0.0052172 -1.00797e-20)
(0.983047 -0.00705748 -1.23272e-20)
(0.976535 -0.00928217 3.59973e-21)
(0.96895 -0.0119621 -4.72429e-21)
(0.960269 -0.0151497 2.29102e-20)
(0.950498 -0.0188922 -2.19642e-20)
(0.939652 -0.0232472 -2.608e-20)
(0.927776 -0.0282388 3.56516e-20)
(0.914909 -0.0338694 -3.66232e-20)
(0.901191 -0.0399569 1.5706e-20)
(0.886595 -0.0460422 1.45823e-20)
(0.999945 -0.000358704 -1.93452e-20)
(0.998709 -0.00108975 1.41172e-20)
(0.996273 -0.0019139 -3.20253e-21)
(0.992848 -0.00288592 5.37533e-21)
(0.988378 -0.00406633 1.25015e-20)
(0.982861 -0.00550076 2.74692e-21)
(0.976259 -0.00723276 1.10608e-20)
(0.968557 -0.00932239 1.246e-21)
(0.959728 -0.0118078 -3.1242e-20)
(0.949767 -0.0147278 1.4559e-20)
(0.938682 -0.0181276 2.32472e-20)
(0.926507 -0.0220284 6.41414e-21)
(0.913278 -0.0264325 1.83904e-20)
(0.899122 -0.0312022 -3.74984e-20)
(0.884066 -0.0359733 4.96834e-20)
(0.999945 -0.000256531 5.43402e-22)
(0.998702 -0.000779663 8.16213e-22)
(0.996248 -0.00136937 4.44006e-21)
(0.992796 -0.00206479 1.3637e-20)
(0.988288 -0.00290908 -1.27426e-20)
(0.982722 -0.00393536 8.92903e-21)
(0.976053 -0.0051732 -2.17789e-21)
(0.968263 -0.00666874 4.16495e-22)
(0.959323 -0.00844741 1.64635e-21)
(0.949219 -0.010538 9.28241e-22)
(0.937955 -0.0129732 8.73768e-21)
(0.925555 -0.0157693 -3.50699e-20)
(0.912053 -0.0189284 2.0367e-20)
(0.897569 -0.0223542 -2.49721e-20)
(0.882165 -0.0257825 4.51988e-20)
(0.999946 -0.000154044 5.31112e-21)
(0.998697 -0.000468304 -2.22426e-21)
(0.996231 -0.000822543 -7.02245e-21)
(0.992761 -0.00124024 -6.61104e-21)
(0.988229 -0.00174726 5.05042e-21)
(0.982629 -0.00236369 2.69557e-22)
(0.975916 -0.00310661 -5.07922e-21)
(0.968067 -0.00400517 3.57276e-21)
(0.959052 -0.00507372 -9.86188e-22)
(0.948854 -0.00633005 1.7982e-21)
(0.93747 -0.00779386 1.83258e-21)
(0.92492 -0.00947541 1.17034e-20)
(0.911237 -0.0113762 2.6572e-21)
(0.896532 -0.0134392 -5.23893e-21)
(0.880896 -0.0155044 1.40524e-22)
(0.999946 -5.13683e-05 -1.95322e-22)
(0.998694 -0.000156184 2.8268e-21)
(0.996223 -0.000274331 -1.11708e-21)
(0.992744 -0.000413634 1.16166e-21)
(0.988199 -0.000582712 7.49793e-22)
(0.982583 -0.000788291 -1.94515e-21)
(0.975847 -0.00103595 2.09776e-21)
(0.967969 -0.00133568 -7.02985e-22)
(0.958917 -0.00169207 -8.60716e-22)
(0.948672 -0.00211116 -2.44441e-21)
(0.937227 -0.00259953 3.34514e-21)
(0.924602 -0.00316068 -3.36017e-21)
(0.910828 -0.00379515 -4.38262e-21)
(0.896013 -0.00448404 -6.67318e-22)
(0.880261 -0.00517377 7.70715e-22)
(0.998663 -0.0219114 0)
(0.998476 -0.0294754 0)
(0.998615 -0.0383856 0)
(0.999331 -0.0486674 0)
(1.00078 -0.0602428 0)
(1.00333 -0.0729854 0)
(1.00696 -0.0866052 0)
(1.01229 -0.100887 0)
(1.01854 -0.115179 0)
(1.02756 -0.12933 0)
(1.03506 -0.140406 0)
(0.999989 -0.00198261 0)
(0.999722 -0.00590381 0)
(0.999235 -0.0103137 0)
(0.99865 -0.0155343 0)
(0.998034 -0.0218516 0)
(0.997546 -0.0294461 0)
(0.997327 -0.0384283 0)
(0.997633 -0.0488385 0)
(0.998626 -0.0606234 0)
(1.00069 -0.0736667 0)
(1.00382 -0.0877125 0)
(1.00871 -0.102525 0)
(1.01452 -0.117503 0)
(1.02333 -0.132375 0)
(1.03046 -0.144185 0)
(0.999986 -0.001967 0)
(0.999653 -0.00585969 0)
(0.999043 -0.0102445 0)
(0.998282 -0.0154465 0)
(0.997435 -0.0217581 0)
(0.99666 -0.0293691 0)
(0.996096 -0.0384055 0)
(0.996001 -0.0489221 0)
(0.996546 -0.0608907 0)
(0.998129 -0.0742054 0)
(1.00076 -0.0886489 0)
(1.00517 -0.10396 0)
(1.01051 -0.119614 0)
(1.01907 -0.135181 0)
(1.02579 -0.147784 0)
(0.999982 -0.00194885 0)
(0.999588 -0.00580849 0)
(0.99886 -0.0101627 0)
(0.997934 -0.0153389 0)
(0.996868 -0.0216352 0)
(0.995819 -0.0292502 0)
(0.994924 -0.0383242 0)
(0.994441 -0.0489263 0)
(0.994546 -0.0610534 0)
(0.995648 -0.0746098 0)
(0.997772 -0.0894202 0)
(1.00168 -0.105196 0)
(1.00653 -0.12151 0)
(1.01476 -0.137735 0)
(1.02106 -0.15121 0)
(0.999978 -0.00192859 0)
(0.999526 -0.00575148 0)
(0.998689 -0.0100704 0)
(0.997606 -0.0152149 0)
(0.996333 -0.0214875 0)
(0.995023 -0.0290951 0)
(0.993811 -0.0381916 0)
(0.992954 -0.0488595 0)
(0.99263 -0.0611207 0)
(0.993256 -0.0748898 0)
(0.994873 -0.0900354 0)
(0.998261 -0.10624 0)
(1.0026 -0.123191 0)
(1.01042 -0.140034 0)
(1.01627 -0.154485 0)
(0.999974 -0.00190679 0)
(0.999467 -0.00569041 0)
(0.998527 -0.00997075 0)
(0.997297 -0.0150793 0)
(0.995829 -0.0213223 0)
(0.994273 -0.0289143 0)
(0.992759 -0.0380223 0)
(0.991542 -0.0487419 0)
(0.990803 -0.0611195 0)
(0.990957 -0.0750803 0)
(0.992069 -0.0905377 0)
(0.994915 -0.107146 0)
(0.998738 -0.124716 0)
(1.00604 -0.142152 0)
(1.0114 -0.157757 0)
(0.99997 -0.001884 0)
(0.999412 -0.0056271 0)
(0.998375 -0.00986736 0)
(0.997008 -0.0149382 0)
(0.995357 -0.0211493 0)
(0.993568 -0.0287229 0)
(0.991768 -0.0378386 0)
(0.990205 -0.0486053 0)
(0.989063 -0.0610931 0)
(0.988754 -0.0752394 0)
(0.989364 -0.0910013 0)
(0.991649 -0.108007 0)
(0.994937 -0.12619 0)
(1.00159 -0.144217 0)
(1.00647 -0.161284 0)
(0.999966 -0.00185929 0)
(0.99936 -0.00555863 0)
(0.998234 -0.00975507 0)
(0.996738 -0.014783 0)
(0.994915 -0.020955 0)
(0.992907 -0.0284993 0)
(0.990834 -0.0376067 0)
(0.98894 -0.0483975 0)
(0.987408 -0.0609635 0)
(0.986644 -0.0752522 0)
(0.986754 -0.0912617 0)
(0.988463 -0.108594 0)
(0.991202 -0.127295 0)
(0.99703 -0.145808 0)
(1.0015 -0.164441 0)
(1.04041 -0.147193 -4.34294e-20)
(1.03605 -0.151125 -2.05448e-19)
(1.04595 -0.153022 3.61414e-20)
(1.03169 -0.154905 1.03474e-19)
(1.04201 -0.157102 9.20763e-20)
(1.05132 -0.159184 1.78436e-19)
(1.02736 -0.158565 1.717e-19)
(1.03809 -0.161131 -1.07615e-19)
(1.04778 -0.163545 -1.01753e-21)
(1.05776 -0.165656 6.29402e-20)
(1.02314 -0.162141 -1.868e-19)
(1.03428 -0.165135 -1.12827e-20)
(1.0444 -0.167905 -8.61824e-20)
(1.05483 -0.170329 -6.03052e-20)
(1.06552 -0.172399 1.93015e-19)
(1.01918 -0.165685 2.73704e-19)
(1.03071 -0.169129 5.59026e-20)
(1.0413 -0.172272 5.76866e-20)
(1.05219 -0.175017 3.77519e-20)
(1.0633 -0.177349 -9.47578e-20)
(1.07456 -0.179232 -1.18012e-19)
(1.01535 -0.169654 4.29681e-21)
(1.02717 -0.17357 1.08761e-20)
(1.03829 -0.17706 -2.15232e-19)
(1.04967 -0.180072 1.50208e-19)
(1.06124 -0.182603 3.82607e-20)
(1.07293 -0.184626 5.19186e-20)
(1.08471 -0.186137 -4.56215e-20)
)
;

boundaryField
{
    inlet
    {
        type            uniformFixedValue;
        uniformValue    constant (1 0 0);
        value           uniform (1 0 0);
    }
    outlet
    {
        type            pressureInletOutletVelocity;
        value           nonuniform 0();
    }
    cylinder
    {
        type            fixedValue;
        value           nonuniform 0();
    }
    top
    {
        type            symmetryPlane;
    }
    bottom
    {
        type            symmetryPlane;
    }
    defaultFaces
    {
        type            empty;
    }
    procBoundary4to0
    {
        type            processor;
        value           nonuniform List<vector> 
35
(
(1.09656 -0.187137 1.37847e-19)
(1.10846 -0.187633 6.78644e-20)
(1.13282 -0.207205 -6.46712e-22)
(1.12035 -0.187632 1.96082e-20)
(0.999324 -0.0219322 0)
(0.999449 -0.0294502 0)
(0.999957 -0.0382691 0)
(1.00109 -0.048399 0)
(1.003 -0.0597386 0)
(1.00603 -0.0721507 0)
(1.01014 -0.0853176 0)
(1.0159 -0.0990395 0)
(1.02256 -0.11264 0)
(1.03174 -0.126046 0)
(1.03958 -0.136437 0)
(0.999993 -0.00199526 0)
(0.999794 -0.00593956 0)
(0.999438 -0.010368 0)
(0.999037 -0.0155991 0)
(0.999037 -0.0155991 0)
(1.04474 -0.143091 7.69634e-22)
(1.04474 -0.143091 7.69634e-22)
(1.04989 -0.148839 1.62117e-20)
(1.04989 -0.148839 1.62117e-20)
(1.05493 -0.154806 4.74109e-20)
(1.05493 -0.154806 4.74109e-20)
(1.06087 -0.161001 5.95466e-20)
(1.06087 -0.161001 5.95466e-20)
(1.06801 -0.167457 1.9321e-19)
(1.06801 -0.167457 1.9321e-19)
(1.07636 -0.17408 -2.15286e-19)
(1.07636 -0.17408 -2.15286e-19)
(1.08595 -0.180655 -5.30539e-20)
(1.08595 -0.180655 -5.30539e-20)
(1.09656 -0.187137 1.37847e-19)
)
;
    }
    procBoundary4to5
    {
        type            processor;
        value           nonuniform List<vector> 
38
(
(0.0372886 -0.00980869 1.3286e-20)
(0.0387141 -0.0293444 2.14261e-20)
(0.0415494 -0.0486425 1.43035e-19)
(0.0457642 -0.0675509 -1.39463e-19)
(0.051313 -0.0859209 5.89677e-19)
(0.0581368 -0.103609 -1.01524e-18)
(0.0661625 -0.120479 3.14799e-19)
(0.0753048 -0.136402 3.51599e-19)
(0.238577 -0.263954 1.26674e-19)
(0.238577 -0.263954 1.26674e-19)
(0.256912 -0.288951 9.01307e-20)
(0.27668 -0.312044 6.61869e-19)
(0.297703 -0.333091 -9.6458e-19)
(0.319791 -0.351968 1.68095e-19)
(0.342742 -0.368567 6.43275e-19)
(0.366348 -0.382797 3.03193e-20)
(0.390392 -0.394587 -8.42663e-20)
(0.585739 -0.452426 3.27773e-19)
(0.585739 -0.452426 3.27773e-19)
(0.612144 -0.463211 2.42544e-19)
(0.6386 -0.471507 -5.84921e-19)
(0.664888 -0.47729 4.00601e-20)
(0.799418 -0.472802 -6.2893e-20)
(0.799418 -0.472802 -6.2893e-20)
(0.825021 -0.476762 -3.259e-20)
(0.850177 -0.478518 -1.64516e-19)
(0.94066 -0.440173 -4.26999e-20)
(0.94066 -0.440173 -4.26999e-20)
(0.963625 -0.440779 8.67336e-20)
(0.986004 -0.439602 -2.21402e-19)
(1.04092 -0.389723 -6.81216e-20)
(1.04092 -0.389723 -6.81216e-20)
(1.06098 -0.387886 1.65846e-19)
(1.09523 -0.335979 4.05215e-20)
(1.09523 -0.335979 4.05215e-20)
(1.11804 -0.287082 2.154e-20)
(1.11804 -0.287082 2.154e-20)
(1.13456 -0.242779 -2.30816e-20)
)
;
    }
    procBoundary4to8
    {
        type            processor;
        value           nonuniform List<vector> 
25
(
(0.162228 0.0504413 3.80014e-20)
(0.323445 0.0536943 6.99787e-20)
(0.450912 0.0166111 6.42177e-20)
(0.450912 0.0166111 6.42177e-20)
(0.564242 0.014322 2.99006e-20)
(0.651303 0.0120464 -1.92254e-20)
(0.72176 0.0100276 5.8441e-20)
(0.777087 0.00836381 6.83541e-21)
(0.821799 0.00700163 2.49608e-20)
(0.857876 0.00589324 -2.24374e-20)
(0.999946 5.13684e-05 -5.99352e-23)
(0.998694 0.000156184 2.33002e-21)
(0.996223 0.000274331 -6.15683e-22)
(0.992744 0.000413634 1.51048e-21)
(0.988199 0.000582713 -1.17335e-21)
(0.982583 0.000788293 2.90941e-22)
(0.975847 0.00103596 1.17212e-21)
(0.967969 0.00133568 -1.24719e-21)
(0.958917 0.00169208 9.43892e-22)
(0.948672 0.00211116 -1.24077e-21)
(0.937227 0.00259954 -3.30094e-21)
(0.924602 0.00316069 7.6562e-22)
(0.910828 0.00379516 7.87684e-22)
(0.896013 0.00448404 8.24735e-23)
(0.880261 0.00517377 -3.17382e-22)
)
;
    }
    procBoundary4to9
    {
        type            processor;
        value           uniform (0.0372886 0.00980869 1.06745e-20);
    }
}


// ************************************************************************* //
