0 	0.517293 	0 	-0.592264
0 	0.55252 	0 	-0.539292
0 	0.589056 	0 	-0.517583
0 	0.62695 	0 	-0.48756
0 	0.666252 	-1.73472e-18 	-0.462229
0 	0.707014 	-3.46945e-18 	-0.435969
0 	0.749291 	-2.08167e-18 	-0.410152
0 	0.793139 	-6.93889e-19 	-0.384123
0 	0.838615 	-6.93889e-19 	-0.358084
0 	0.885781 	2.42861e-18 	-0.332106
0 	0.9347 	6.93889e-18 	-0.306378
