/*--------------------------------*- C++ -*----------------------------------*\
  =========                 |
  \\      /  F ield         | OpenFOAM: The Open Source CFD Toolbox
   \\    /   O peration     | Website:  https://openfoam.org
    \\  /    A nd           | Version:  7
     \\/     M anipulation  |
\*---------------------------------------------------------------------------*/
FoamFile
{
    version     2.0;
    format      ascii;
    class       volScalarField;
    location    "5";
    object      p;
}
// * * * * * * * * * * * * * * * * * * * * * * * * * * * * * * * * * * * * * //

dimensions      [0 2 -2 0 0 0 0];

internalField   nonuniform List<scalar> 
21000
(
-0.151559
-0.129406
-0.111454
-0.0885441
-0.0763276
-0.0511779
-0.151695
-0.129552
-0.111639
-0.0887039
-0.0766121
-0.0512366
-0.151966
-0.129842
-0.112006
-0.089021
-0.0771748
-0.0513536
-0.152368
-0.130272
-0.11255
-0.0894906
-0.0780035
-0.0515287
-0.152898
-0.130836
-0.113261
-0.0901056
-0.0790806
-0.0517616
-0.153548
-0.131529
-0.114129
-0.0908569
-0.0803837
-0.0520518
-0.154312
-0.13234
-0.11514
-0.0917336
-0.0818861
-0.0523989
-0.15518
-0.133261
-0.116279
-0.0927233
-0.0835579
-0.0528024
-0.156143
-0.134281
-0.11753
-0.0938124
-0.0853672
-0.0532617
-0.135386
-0.118874
-0.0949865
-0.0872808
-0.0537764
-0.136566
-0.120293
-0.0962307
-0.0892651
-0.0543459
-0.137806
-0.121768
-0.0975297
-0.0912871
-0.0549695
-0.139094
-0.12328
-0.0988684
-0.0933154
-0.0556465
-0.140415
-0.124809
-0.100232
-0.0953205
-0.0563758
-0.141755
-0.126339
-0.101606
-0.0972753
-0.057156
-0.143102
-0.127851
-0.102976
-0.0991558
-0.0579852
-0.144443
-0.129329
-0.104331
-0.100941
-0.0588611
-0.145763
-0.130758
-0.105657
-0.102614
-0.0597806
-0.147053
-0.132125
-0.106945
-0.10416
-0.0607401
-0.148299
-0.133417
-0.108183
-0.105568
-0.0617351
-0.149492
-0.134623
-0.109364
-0.106829
-0.0627605
-0.15062
-0.135733
-0.11048
-0.10794
-0.0638105
-0.13674
-0.111523
-0.108897
-0.0648788
-0.137636
-0.11249
-0.109699
-0.0659585
-0.138417
-0.113375
-0.110348
-0.0670423
-0.139077
-0.114174
-0.110847
-0.0681226
-0.139613
-0.114886
-0.111199
-0.0691918
-0.140023
-0.115507
-0.11141
-0.0702424
-0.140306
-0.116037
-0.111484
-0.0712668
-0.140461
-0.116475
-0.111427
-0.0722578
-0.116821
-0.111243
-0.073209
-0.117075
-0.110936
-0.0741138
-0.11724
-0.110509
-0.0749669
-0.117315
-0.109964
-0.0757652
-0.117304
-0.1093
-0.0765123
-0.117207
-0.108515
-0.0772136
-0.107599
-0.0778445
-0.106519
-0.0783533
-0.105236
-0.0789525
-0.103783
-0.0806529
-0.0843331
-0.0861277
-0.0869841
-0.0874455
-0.0875378
-0.0870685
-0.0862085
-0.08442
-0.103725
-0.0806985
-0.105188
-0.0789756
-0.10648
-0.0783712
-0.107566
-0.0778612
-0.117217
-0.108488
-0.0772288
-0.117312
-0.109277
-0.0765259
-0.117323
-0.109944
-0.0757773
-0.117246
-0.110491
-0.0749777
-0.117081
-0.11092
-0.0741233
-0.116825
-0.111229
-0.0732172
-0.140453
-0.116478
-0.111415
-0.0722649
-0.140299
-0.11604
-0.111473
-0.0712727
-0.140016
-0.115509
-0.1114
-0.0702472
-0.139607
-0.114888
-0.111191
-0.0691957
-0.139071
-0.114176
-0.110839
-0.0681256
-0.138411
-0.113376
-0.110341
-0.0670445
-0.137631
-0.112491
-0.109692
-0.06596
-0.151676
-0.136735
-0.111524
-0.108891
-0.0648796
-0.150621
-0.135729
-0.11048
-0.107934
-0.0638107
-0.149492
-0.134619
-0.109364
-0.106824
-0.0627601
-0.148299
-0.133413
-0.108183
-0.105563
-0.0617343
-0.147053
-0.132122
-0.106944
-0.104155
-0.0607389
-0.145764
-0.130755
-0.105657
-0.10261
-0.0597791
-0.144443
-0.129326
-0.10433
-0.100937
-0.0588593
-0.143102
-0.127848
-0.102976
-0.0991521
-0.0579832
-0.141755
-0.126336
-0.101605
-0.0972719
-0.0571539
-0.140414
-0.124807
-0.100231
-0.0953173
-0.0563736
-0.139094
-0.123278
-0.0988674
-0.0933125
-0.0556443
-0.137806
-0.121766
-0.0975287
-0.0912845
-0.0549673
-0.136566
-0.120292
-0.0962297
-0.0892627
-0.0543437
-0.135386
-0.118873
-0.0949856
-0.0872786
-0.0537743
-0.156143
-0.134281
-0.117529
-0.0938115
-0.0853653
-0.0532598
-0.15518
-0.133261
-0.116278
-0.0927225
-0.0835562
-0.0528006
-0.154312
-0.13234
-0.115139
-0.0917329
-0.0818846
-0.0523973
-0.153548
-0.131529
-0.114128
-0.0908563
-0.0803825
-0.0520504
-0.152898
-0.130836
-0.113261
-0.0901051
-0.0790797
-0.0517604
-0.152368
-0.130272
-0.112549
-0.0894902
-0.0780027
-0.0515278
-0.151966
-0.129842
-0.112006
-0.0890207
-0.0771742
-0.0513529
-0.151695
-0.129552
-0.111639
-0.0887037
-0.0766118
-0.0512362
-0.151559
-0.129406
-0.111454
-0.088544
-0.0763275
-0.0511778
-0.0483956
-0.0464149
-0.043981
-0.0416225
-0.0393211
-0.037031
-0.0347567
-0.0325096
-0.0302961
-0.0281213
-0.0259905
-0.0239088
-0.0218809
-0.0199116
-0.018005
-0.0161652
-0.014396
-0.0127007
-0.0110826
-0.00954426
-0.00808814
-0.00671616
-0.00542986
-0.0042303
-0.00311805
-0.00209324
-0.00115545
-0.000303802
0.000463115
0.00114718
0.00175076
0.00227664
0.00272806
0.00310859
0.00342216
0.00367297
0.00386544
0.00400415
0.00409378
0.00413907
0.00414474
0.00411541
0.00405561
0.00396968
0.00386174
0.00373568
0.00359511
0.00344333
0.00328338
0.00311794
0.00294941
0.00277989
0.00261118
0.00244482
0.00228209
0.00212402
0.00197145
0.00182501
0.00168517
0.00155223
0.00142639
0.00130772
0.00119624
0.00109189
0.000995006
0.000904892
0.000821289
0.000743914
0.000672482
0.000606707
0.00054629
0.000490929
0.00044032
0.000394158
0.000352148
0.000314
0.000279433
0.000248178
0.000219978
0.000194589
0.000171778
0.000151325
0.000133025
0.000116685
0.000102123
8.91706e-05
7.76715e-05
6.74812e-05
5.84624e-05
5.04987e-05
4.34575e-05
3.72784e-05
3.17576e-05
2.70605e-05
2.25125e-05
1.94048e-05
1.45628e-05
1.48956e-05
4.87448e-06
1.83631e-05
-0.0487502
-0.0467687
-0.0443009
-0.0419198
-0.0396024
-0.0372977
-0.0350099
-0.0327505
-0.0305257
-0.0283406
-0.0262001
-0.0241093
-0.0220728
-0.0200952
-0.0181807
-0.0163332
-0.0145566
-0.0128541
-0.0112288
-0.00968361
-0.00822073
-0.00684214
-0.00554935
-0.00434344
-0.003225
-0.00219414
-0.00125046
-0.000393084
0.000379385
0.00106882
0.00167757
0.00220843
0.00266462
0.00304971
0.00336762
0.00362256
0.00381892
0.00396131
0.00405441
0.00410295
0.00411164
0.00408514
0.00402796
0.00394446
0.00383877
0.00371479
0.00357612
0.0034261
0.00326775
0.00310378
0.00293659
0.0027683
0.0026007
0.00243536
0.00227355
0.00211632
0.00196451
0.00181876
0.00167954
0.00154716
0.0014218
0.00130354
0.0011924
0.00108838
0.000991901
0.000902175
0.0008189
0.000741801
0.000670606
0.000605037
0.000544804
0.000489607
0.000439145
0.000393116
0.000351224
0.000313182
0.00027871
0.000247541
0.000219418
0.000194097
0.000171346
0.000150948
0.000132696
0.000116398
0.000101873
8.89545e-05
7.74846e-05
6.732e-05
5.83238e-05
5.03798e-05
4.33559e-05
3.71918e-05
3.16842e-05
2.69982e-05
2.24608e-05
1.93602e-05
1.4529e-05
1.48602e-05
4.86304e-06
1.83148e-05
-0.0494512
-0.0474683
-0.0449341
-0.0425085
-0.0401597
-0.0378262
-0.0355117
-0.033228
-0.0309812
-0.0287755
-0.0266159
-0.0245071
-0.0224535
-0.0204596
-0.0185294
-0.0166668
-0.0148754
-0.0131586
-0.0115194
-0.0099605
-0.00848423
-0.00709253
-0.00578691
-0.00456843
-0.00343771
-0.00239486
-0.00143951
-0.000570782
0.000212696
0.000912781
0.0015318
0.00207255
0.0025382
0.00293235
0.00325889
0.00352202
0.00372614
0.00387585
0.00397583
0.00403082
0.00404556
0.00402468
0.00397273
0.00389408
0.00379287
0.00367302
0.00353816
0.00339163
0.00323648
0.00307544
0.00291093
0.00274508
0.00257971
0.0024164
0.00225643
0.00210088
0.00195059
0.00180622
0.00166824
0.00153699
0.00141263
0.00129524
0.00118483
0.00108143
0.000985782
0.000896789
0.000814128
0.000737553
0.000666818
0.000601658
0.000541792
0.000486925
0.00043676
0.000390997
0.000349346
0.000311519
0.000277241
0.000246244
0.000218276
0.000193093
0.000170465
0.000150176
0.000132022
0.00011581
0.000101362
8.85101e-05
7.70997e-05
6.69876e-05
5.80375e-05
5.0134e-05
4.31455e-05
3.70123e-05
3.1532e-05
2.6869e-05
2.23535e-05
1.92678e-05
1.44592e-05
1.4788e-05
4.83911e-06
1.82191e-05
-0.0504825
-0.0484984
-0.0458674
-0.043377
-0.0409823
-0.0386068
-0.0362533
-0.0339341
-0.0316548
-0.0294191
-0.0272314
-0.0250961
-0.0230174
-0.0209995
-0.0190462
-0.0171613
-0.0153482
-0.0136103
-0.0119505
-0.0103715
-0.00887545
-0.0074644
-0.00613983
-0.00490281
-0.00375394
-0.00269338
-0.00172075
-0.000835229
-3.54544e-05
0.000680403
0.00131465
0.00187004
0.00234975
0.00275733
0.00309668
0.00337198
0.00358764
0.00374823
0.00385846
0.00392306
0.00394678
0.00393429
0.00389014
0.00381871
0.00372419
0.0036105
0.00348132
0.00334001
0.00318965
0.00303299
0.00287248
0.00271028
0.00254825
0.00238797
0.00223076
0.00207771
0.0019297
0.0017874
0.0016513
0.00152174
0.0013989
0.00128284
0.00117353
0.00107101
0.000976662
0.000888755
0.000806986
0.00073118
0.000661125
0.000596576
0.000537259
0.000482887
0.000433167
0.000387807
0.000346516
0.000309013
0.000275025
0.000244289
0.000216553
0.000191578
0.000169135
0.000149011
0.000131003
0.000114921
0.000100588
8.78383e-05
7.65177e-05
6.64847e-05
5.76042e-05
4.97617e-05
4.28268e-05
3.67402e-05
3.13012e-05
2.66732e-05
2.21908e-05
1.9128e-05
1.43535e-05
1.46793e-05
4.80277e-06
1.80761e-05
-0.0518207
-0.0498364
-0.0470817
-0.0445084
-0.042055
-0.0396256
-0.0372218
-0.0348568
-0.0325355
-0.030261
-0.0280369
-0.0258673
-0.0237561
-0.021707
-0.0197237
-0.0178098
-0.0159687
-0.0142033
-0.0125167
-0.0109114
-0.0093897
-0.00795344
-0.00660416
-0.00534293
-0.00417038
-0.00308667
-0.00209147
-0.00118397
-0.000362863
0.000373657
0.00102786
0.00160247
0.00210063
0.00252587
0.00288206
0.00317338
0.00340422
0.00357916
0.00370289
0.00378018
0.00381576
0.00381435
0.0037805
0.00371863
0.00363296
0.00352744
0.00340579
0.0032714
0.00312738
0.00297653
0.00282133
0.00266398
0.00250637
0.00235012
0.00219658
0.00204686
0.00190188
0.00176234
0.00162874
0.00150144
0.00138065
0.00126638
0.00115854
0.00105701
0.000964572
0.000878105
0.000797494
0.000722693
0.000653535
0.000589795
0.000531209
0.000477497
0.000428372
0.000383547
0.000342738
0.000305668
0.000272068
0.000241679
0.000214253
0.000189555
0.000167359
0.000147455
0.000129642
0.000113734
9.95543e-05
8.69404e-05
7.57396e-05
6.58122e-05
5.70246e-05
4.92636e-05
4.24004e-05
3.63763e-05
3.09925e-05
2.64113e-05
2.19732e-05
1.8941e-05
1.42121e-05
1.45342e-05
4.75416e-06
1.78864e-05
-0.0534359
-0.0514535
-0.0485524
-0.0458809
-0.043358
-0.0408645
-0.0384006
-0.0359808
-0.0336092
-0.031288
-0.0290202
-0.0268093
-0.0246588
-0.0225722
-0.0205527
-0.0186038
-0.0167285
-0.01493
-0.0132109
-0.0115738
-0.0100209
-0.00855409
-0.0071748
-0.00588414
-0.00468277
-0.00357087
-0.00254815
-0.00161384
-0.000766678
-4.90134e-06
0.000673715
0.00127186
0.00179263
0.00223953
0.00261641
0.00292742
0.00317693
0.00336953
0.00350991
0.00360284
0.00365308
0.00366535
0.00364424
0.0035942
0.00351949
0.00342409
0.00331177
0.00318596
0.00304981
0.00290618
0.00275759
0.00260627
0.00245416
0.00230292
0.00215394
0.00200838
0.00186718
0.00173106
0.00160058
0.00147613
0.00135791
0.00124593
0.00113993
0.00103925
0.000949592
0.000864894
0.000785675
0.000712104
0.000644057
0.000581323
0.000523649
0.000470762
0.00042238
0.000378224
0.000338017
0.000301487
0.000268371
0.000238416
0.000211378
0.000187026
0.00016514
0.00014551
0.000127942
0.00011225
9.82622e-05
8.58179e-05
7.47669e-05
6.49714e-05
5.63e-05
4.86409e-05
4.18672e-05
3.59211e-05
3.06064e-05
2.60838e-05
2.17012e-05
1.87074e-05
1.40356e-05
1.43532e-05
4.69348e-06
1.76504e-05
-0.0552927
-0.0533155
-0.0502502
-0.0474687
-0.0448678
-0.0423018
-0.0397699
-0.0372878
-0.0348589
-0.0324844
-0.0301665
-0.0279083
-0.0257128
-0.0235829
-0.0215218
-0.0195326
-0.0176181
-0.0157813
-0.0140248
-0.0123509
-0.010762
-0.0092597
-0.00784562
-0.00652082
-0.00528598
-0.00414131
-0.00308656
-0.00212102
-0.00124347
-0.000452198
0.000254962
0.000880646
0.00142792
0.00190023
0.00230141
0.00263556
0.00290706
0.00312047
0.00328049
0.00339188
0.00345944
0.00348789
0.00348187
0.00344586
0.00338414
0.00330077
0.00319953
0.00308392
0.00295715
0.00282211
0.00268139
0.00253726
0.00239171
0.00224645
0.00210292
0.00196232
0.00182562
0.00169361
0.00156687
0.00144582
0.00133072
0.00122159
0.00111791
0.00101714
0.000931914
0.000849192
0.000771552
0.000699423
0.000632698
0.00057117
0.000514588
0.000462688
0.000415198
0.000371845
0.000332359
0.000296477
0.000263942
0.000234507
0.000207934
0.000183997
0.00016248
0.00014318
0.000125904
0.000110472
9.67139e-05
8.44729e-05
7.36015e-05
6.39641e-05
5.54318e-05
4.78948e-05
4.12283e-05
3.53758e-05
3.01439e-05
2.56915e-05
2.13754e-05
1.84275e-05
1.38243e-05
1.41367e-05
4.62097e-06
1.73689e-05
-0.0573514
-0.0553837
-0.0521421
-0.0492424
-0.0465575
-0.0439132
-0.0413072
-0.038757
-0.0362654
-0.0338323
-0.0314593
-0.0291488
-0.0269034
-0.0247257
-0.0226185
-0.0205845
-0.0186264
-0.0167469
-0.0149486
-0.0132338
-0.0116046
-0.0100627
-0.00860966
-0.0072466
-0.00597418
-0.00479268
-0.00370189
-0.00270115
-0.0017893
-0.000964704
-0.000225247
0.000431644
0.00100898
0.00151017
0.00193898
0.0022995
0.00259607
0.00283324
0.00301571
0.00314825
0.00323566
0.00328269
0.003294
0.00327411
0.00322736
0.00315783
0.00306938
0.00296555
0.00284961
0.00272451
0.00259289
0.00245708
0.00231914
0.00218081
0.0020436
0.00190875
0.00177729
0.00165004
0.00152763
0.00141055
0.00129911
0.00119345
0.00109302
0.000989649
0.000912021
0.000831081
0.000755137
0.000684661
0.00061947
0.000559344
0.000504036
0.000453287
0.000406835
0.000364416
0.000325771
0.000290643
0.000258785
0.000229955
0.000203924
0.000180471
0.000159385
0.000140468
0.000123533
0.000108402
9.49123e-05
8.2908e-05
7.22454e-05
6.2792e-05
5.44216e-05
4.70268e-05
4.04852e-05
3.47415e-05
2.9606e-05
2.52351e-05
2.09966e-05
1.81021e-05
1.35787e-05
1.38851e-05
4.5369e-06
1.70425e-05
-0.0595693
-0.0576167
-0.0541921
-0.0511701
-0.0483982
-0.0456719
-0.042988
-0.0403659
-0.0378076
-0.035312
-0.0328801
-0.0305138
-0.0282149
-0.0259858
-0.0238288
-0.0217464
-0.0197412
-0.0178157
-0.0159721
-0.0142128
-0.0125398
-0.0109548
-0.00945929
-0.00805445
-0.00674096
-0.00551912
-0.00438881
-0.00334941
-0.00239983
-0.00153852
-0.000763418
-7.20335e-05
0.000538581
0.00107178
0.00153127
0.00192112
0.00224561
0.0025093
0.00271685
0.00287303
0.00298267
0.00305053
0.0030813
0.00307955
0.00304963
0.00299571
0.00292168
0.00283116
0.00272746
0.00261359
0.00249227
0.0023659
0.00223657
0.00210611
0.00197607
0.00184775
0.00172224
0.0016004
0.00148293
0.00137035
0.00126308
0.00116152
0.00106676
0.000987364
0.000891289
0.000810535
0.000736422
0.00066782
0.000604381
0.000545857
0.000492002
0.000442568
0.0003973
0.000355948
0.000318262
0.000283995
0.000252908
0.000224769
0.000199355
0.000176453
0.000155858
0.000137378
0.000120831
0.000106046
9.28606e-05
8.11258e-05
7.07012e-05
6.14575e-05
5.32716e-05
4.60387e-05
3.96392e-05
3.40195e-05
2.89938e-05
2.47158e-05
2.05657e-05
1.77319e-05
1.32997e-05
1.3599e-05
4.4416e-06
1.66723e-05
-0.0619024
-0.0599708
-0.0563627
-0.0532182
-0.050359
-0.0475498
-0.0447863
-0.0420903
-0.0394633
-0.0369031
-0.03441
-0.0319852
-0.0296304
-0.0273473
-0.0251381
-0.0230048
-0.0209499
-0.0189756
-0.0170841
-0.0152776
-0.013558
-0.0119271
-0.0103864
-0.00893691
-0.00757946
-0.00631439
-0.00514163
-0.00406063
-0.0030704
-0.00216944
-0.00135579
-0.000627026
1.97143e-05
0.000587716
0.00108064
0.00150247
0.00185749
0.00215019
0.00238524
0.0025674
0.00270148
0.00279229
0.00284453
0.0028628
0.00285151
0.00281487
0.00275683
0.00268107
0.00259096
0.0024896
0.00237975
0.00226388
0.00214416
0.00202247
0.00190044
0.00177942
0.00166055
0.00154476
0.00143279
0.00132524
0.00122259
0.00112532
0.00103436
0.000952067
0.000865203
0.000787154
0.000715353
0.000648902
0.000587443
0.000530722
0.000478502
0.000430543
0.000386606
0.000346451
0.000309841
0.00027654
0.000246319
0.000218955
0.000194234
0.00017195
0.000151906
0.000133917
0.000117805
0.000103405
9.05622e-05
7.91297e-05
6.89719e-05
5.99631e-05
5.1984e-05
4.49324e-05
3.86923e-05
3.32114e-05
2.83087e-05
2.41347e-05
2.00836e-05
1.73178e-05
1.29878e-05
1.32792e-05
4.33545e-06
1.62592e-05
-0.0643062
-0.062402
-0.0586155
-0.0553524
-0.0524086
-0.0495178
-0.0466754
-0.0439058
-0.0412098
-0.0385842
-0.0360289
-0.0335447
-0.0311327
-0.0287943
-0.0265313
-0.0243455
-0.0222392
-0.0202143
-0.0182731
-0.0164175
-0.0146494
-0.0129706
-0.0113825
-0.00988621
-0.00848256
-0.00717197
-0.00595441
-0.00482943
-0.00379611
-0.00285305
-0.00199839
-0.00122979
-0.000544461
6.07884e-05
0.00058955
0.00104575
0.00143362
0.00175761
0.00202235
0.00223261
0.00239319
0.0025089
0.00258448
0.00262455
0.00263358
0.00261581
0.00257525
0.00251564
0.00244044
0.00235278
0.00225553
0.0021512
0.00204205
0.00193003
0.00181682
0.00170384
0.0015923
0.00148318
0.00137729
0.00127527
0.00117765
0.00108491
0.000997606
0.000916192
0.000835541
0.000760984
0.000691928
0.000627916
0.000568669
0.000513954
0.000463547
0.000417226
0.000374764
0.000335937
0.000300519
0.000268289
0.000239027
0.000212522
0.000188568
0.000166968
0.000147535
0.000130088
0.000114458
0.000100486
8.80214e-05
7.69233e-05
6.70606e-05
5.83117e-05
5.05612e-05
4.37101e-05
3.76463e-05
3.23188e-05
2.75522e-05
2.34929e-05
1.95516e-05
1.68605e-05
1.2644e-05
1.29262e-05
4.21887e-06
1.58044e-05
-0.0667374
-0.0648672
-0.0609126
-0.0575386
-0.0545156
-0.0515471
-0.0486287
-0.0457875
-0.0430238
-0.040334
-0.037717
-0.0351736
-0.0327043
-0.0303103
-0.0279931
-0.0257543
-0.0235958
-0.0215196
-0.0195276
-0.0176218
-0.015804
-0.014076
-0.012439
-0.0108944
-0.00944299
-0.00808517
-0.00682105
-0.00565024
-0.00457193
-0.00358482
-0.00268713
-0.00187665
-0.00115067
-0.00050609
6.05935e-05
0.000553238
0.000976002
0.0013333
0.00162972
0.00187001
0.00205896
0.00220138
0.00230203
0.00236556
0.00239647
0.00239906
0.00237739
0.00233527
0.00227621
0.00220343
0.00211986
0.00202808
0.00193043
0.00182893
0.00172533
0.00162113
0.00151758
0.00141575
0.00131648
0.00122049
0.00112832
0.00104046
0.000957231
0.000878718
0.00080296
0.000732157
0.00066618
0.00060488
0.000548078
0.000495571
0.000447157
0.000402632
0.000361789
0.000324418
0.000290309
0.000259252
0.000231042
0.000205478
0.000182365
0.000161516
0.000142751
0.000125899
0.000110797
9.7293e-05
8.52425e-05
7.45106e-05
6.49709e-05
5.65065e-05
4.90062e-05
4.23745e-05
3.65034e-05
3.13436e-05
2.67259e-05
2.27921e-05
1.89708e-05
1.63613e-05
1.22691e-05
1.25409e-05
4.09233e-06
1.53091e-05
-0.069155
-0.0673249
-0.0632175
-0.0597436
-0.0566492
-0.0536092
-0.0506198
-0.047711
-0.044883
-0.0421312
-0.0394547
-0.0368535
-0.0343281
-0.0318794
-0.0295086
-0.0272171
-0.0250066
-0.022879
-0.0208361
-0.0188798
-0.0170119
-0.0152339
-0.0135475
-0.0119537
-0.0104535
-0.00904733
-0.00773544
-0.0065175
-0.00539279
-0.00436014
-0.00341787
-0.00256387
-0.00179556
-0.00110994
-0.000503582
2.72707e-05
0.000486707
0.000879075
0.00120893
0.00148097
0.00169997
0.00187074
0.00199805
0.00208657
0.00214084
0.00216519
0.00216375
0.00214037
0.00209864
0.00204185
0.00197298
0.00189473
0.00180948
0.00171934
0.00162612
0.0015314
0.0014365
0.00134254
0.00125045
0.00116097
0.0010747
0.000992115
0.000913482
0.000838914
0.000767673
0.00070078
0.000638153
0.000579824
0.000525692
0.000475591
0.000429347
0.000386778
0.000347696
0.000311909
0.000279222
0.000249441
0.000222375
0.000197834
0.000175635
0.000155601
0.000137562
0.000121355
0.000106827
9.38312e-05
8.22304e-05
7.18959e-05
6.27067e-05
5.45509e-05
4.73219e-05
4.09281e-05
3.52659e-05
3.02879e-05
2.58316e-05
2.20335e-05
1.83426e-05
1.58211e-05
1.18641e-05
1.21242e-05
3.95636e-06
1.47746e-05
-0.0715213
-0.0697368
-0.0654957
-0.0619362
-0.0587804
-0.0556771
-0.0526237
-0.049653
-0.0467654
-0.0439558
-0.0412229
-0.0385667
-0.0359875
-0.033486
-0.0310631
-0.0287202
-0.0264588
-0.0242807
-0.0221875
-0.0201811
-0.0182632
-0.0164355
-0.0146994
-0.0130562
-0.0115068
-0.0100519
-0.00869152
-0.00742566
-0.00625365
-0.00517443
-0.00418645
-0.00328772
-0.00247579
-0.00174774
-0.0011003
-0.000529769
-3.21642e-05
0.000396794
0.000761599
0.00106691
0.00131747
0.00151807
0.00167349
0.00178841
0.00186738
0.0019148
0.00193482
0.00193137
0.00190809
0.00186834
0.00181518
0.00175138
0.0016794
0.00160141
0.00151932
0.00143477
0.00134915
0.00126366
0.00117927
0.00109678
0.00101686
0.000939978
0.000866436
0.000796441
0.000729739
0.000666927
0.000607893
0.000552777
0.000501535
0.000454038
0.000410139
0.000369683
0.000332503
0.000298425
0.000267273
0.00023887
0.000213037
0.000189599
0.000168387
0.000149232
0.000131976
0.000116466
0.000102555
9.01067e-05
7.89905e-05
6.90839e-05
6.02722e-05
5.24486e-05
4.55117e-05
3.93738e-05
3.39366e-05
2.9154e-05
2.48713e-05
2.1219e-05
1.76686e-05
1.52411e-05
1.14302e-05
1.16769e-05
3.81151e-06
1.42022e-05
-0.0738029
-0.0720683
-0.067716
-0.0640874
-0.0608821
-0.0577254
-0.0546166
-0.0515915
-0.0486505
-0.0457883
-0.0430036
-0.0402964
-0.0376668
-0.0351153
-0.0326429
-0.0302507
-0.0279403
-0.0257131
-0.023571
-0.0215156
-0.0195487
-0.017672
-0.0158868
-0.0141945
-0.0125961
-0.0110923
-0.00968341
-0.00836931
-0.00714955
-0.00602318
-0.00498878
-0.0040445
-0.003188
-0.00241652
-0.00172687
-0.0011155
-0.000578498
-0.00011168
0.000289377
0.00062927
0.000912711
0.00114446
0.00132929
0.00147187
0.0015768
0.00164848
0.00169113
0.00170871
0.00170494
0.00168323
0.00164673
0.00159826
0.00154038
0.00147532
0.00140508
0.00133137
0.00125565
0.00117919
0.00110302
0.00102802
0.000954873
0.000884128
0.000816119
0.000751154
0.000689178
0.000630653
0.000575444
0.000523774
0.000475636
0.000430934
0.000389555
0.000351367
0.000316226
0.000283983
0.000254478
0.000227551
0.000203041
0.000180787
0.000160631
0.000142419
0.000126002
0.000111237
9.7988e-05
8.61259e-05
7.55283e-05
6.60797e-05
5.76719e-05
5.02037e-05
4.35792e-05
3.77148e-05
3.25179e-05
2.79441e-05
2.38471e-05
2.03503e-05
1.69501e-05
1.46227e-05
1.09685e-05
1.12001e-05
3.65842e-06
1.35936e-05
-0.0759709
-0.0742891
-0.0698506
-0.0661714
-0.0629299
-0.0597312
-0.0565769
-0.0535061
-0.0505193
-0.0476111
-0.0447802
-0.0420268
-0.0393511
-0.0367535
-0.0342349
-0.0317965
-0.0294395
-0.0271657
-0.0249766
-0.022874
-0.0208596
-0.0189351
-0.0171019
-0.0153615
-0.0137148
-0.0121626
-0.0107054
-0.00934325
-0.00807572
-0.00690202
-0.00582088
-0.00483059
-0.00392894
-0.00311332
-0.00238068
-0.00172756
-0.00115019
-0.000644485
-0.000206095
0.000169501
0.000486964
0.000751019
0.000966403
0.00113781
0.00126982
0.00136687
0.00143321
0.00147286
0.00148958
0.00148686
0.00146791
0.00143562
0.00139263
0.00134126
0.00128356
0.00122133
0.00115612
0.00108924
0.00102181
0.000954752
0.000888826
0.000824627
0.000762556
0.000703009
0.000646039
0.000592008
0.000540846
0.000492848
0.000448024
0.000406308
0.000367617
0.000331849
0.000298887
0.0002686
0.000240852
0.0002155
0.000192401
0.000171409
0.000152379
0.000135171
0.000119648
0.000105677
9.31333e-05
8.18955e-05
7.18499e-05
6.28888e-05
5.49107e-05
4.78204e-05
4.1528e-05
3.59544e-05
3.1013e-05
2.66608e-05
2.27612e-05
1.94291e-05
1.61891e-05
1.39671e-05
1.04803e-05
1.06946e-05
3.49774e-06
1.295e-05
-0.0780015
-0.0763741
-0.0718757
-0.0681656
-0.0649021
-0.0616738
-0.0584854
-0.0553787
-0.0523546
-0.0494079
-0.0465375
-0.0437438
-0.0410272
-0.038388
-0.0358273
-0.0333462
-0.030946
-0.0286284
-0.026395
-0.0242475
-0.0221877
-0.0202172
-0.0183376
-0.0165503
-0.0148564
-0.0132569
-0.0117522
-0.0103425
-0.00902756
-0.00780674
-0.00667891
-0.00564248
-0.00469543
-0.00383528
-0.00305912
-0.00236364
-0.00174519
-0.00119978
-0.000723188
-0.000310961
4.14911e-05
0.000338846
0.000585807
0.000787049
0.000947158
0.00107059
0.00116161
0.00122428
0.00126242
0.00127958
0.00127902
0.00126372
0.00123638
0.0011994
0.00115492
0.0011048
0.00105066
0.000993907
0.000935711
0.000877067
0.000818788
0.000761533
0.000705776
0.000652008
0.000600371
0.00055103
0.000504135
0.000460033
0.000418729
0.000380185
0.000344351
0.000311154
0.000280504
0.000252295
0.000226412
0.000202733
0.000181131
0.000161477
0.000143643
0.0001275
0.000112925
9.97964e-05
8.79991e-05
7.74226e-05
6.79617e-05
5.95167e-05
5.19936e-05
4.53032e-05
3.93623e-05
3.40961e-05
2.94249e-05
2.53067e-05
2.16159e-05
1.84576e-05
1.53872e-05
1.32757e-05
9.96692e-06
1.01615e-05
3.33022e-06
1.22732e-05
-0.0798763
-0.078303
-0.073772
-0.0700513
-0.0667806
-0.0635358
-0.0603252
-0.0571933
-0.0541414
-0.0511644
-0.0482619
-0.0454345
-0.0426828
-0.0400074
-0.0374093
-0.0348897
-0.0324502
-0.0300922
-0.0278176
-0.025628
-0.0235253
-0.0215111
-0.0195871
-0.0177548
-0.0160154
-0.0143697
-0.0128186
-0.0113624
-0.0100008
-0.00873337
-0.0075592
-0.00647685
-0.00548443
-0.00457962
-0.00375969
-0.00302148
-0.00236145
-0.00177576
-0.00126029
-0.000810695
-0.000422453
-9.09533e-05
0.000188463
0.00042044
0.000609556
0.000760266
0.000876865
0.000963444
0.00102386
0.00106172
0.00108035
0.0010828
0.00107184
0.00104994
0.00101931
0.000981905
0.000939414
0.000893304
0.000844829
0.000795045
0.000744832
0.000694908
0.000645822
0.000598142
0.000552053
0.000507707
0.000465344
0.000425365
0.000387784
0.000352594
0.000319782
0.000289305
0.0002611
0.000235087
0.000211176
0.000189265
0.000169246
0.000151007
0.000134435
0.000119417
0.000105843
9.3603e-05
8.25937e-05
7.27148e-05
6.38705e-05
5.59697e-05
4.89261e-05
4.2657e-05
3.70862e-05
3.21436e-05
2.77569e-05
2.38848e-05
2.04139e-05
1.74377e-05
1.45464e-05
1.25499e-05
9.42978e-06
9.60183e-06
3.15664e-06
1.15646e-05
-0.081582
-0.0800608
-0.0755243
-0.0718134
-0.0685503
-0.0653024
-0.0620821
-0.0589362
-0.0558664
-0.0528682
-0.0499416
-0.0470877
-0.0443073
-0.0416014
-0.0389712
-0.036418
-0.0339434
-0.0315491
-0.0292368
-0.0270084
-0.0248657
-0.0228105
-0.0208445
-0.0189693
-0.0171861
-0.0154961
-0.0139001
-0.0123985
-0.0109913
-0.00967816
-0.00845831
-0.0073305
-0.00629301
-0.00534371
-0.00448
-0.0036989
-0.00299703
-0.00237068
-0.00181585
-0.00132831
-0.000903633
-0.00053729
-0.000224675
3.88172e-05
0.00025774
0.000436544
0.000579534
0.000690826
0.000774314
0.000833651
0.000872223
0.000893141
0.000899238
0.000893069
0.000876916
0.000852802
0.000822497
0.000787541
0.000749258
0.000708773
0.000667031
0.000624815
0.000582743
0.000541399
0.000501198
0.000462002
0.000424503
0.000388882
0.000355222
0.000323568
0.000293939
0.000266326
0.000240696
0.000216998
0.000195164
0.000175115
0.000156762
0.000140012
0.000124769
0.000110935
9.84125e-05
8.7107e-05
7.6926e-05
6.778e-05
5.95833e-05
5.2254e-05
4.57137e-05
3.98868e-05
3.47043e-05
3.01008e-05
2.60124e-05
2.23979e-05
1.91576e-05
1.63716e-05
1.36687e-05
1.17914e-05
8.87041e-06
9.01667e-06
2.97789e-06
1.08257e-05
-0.0831101
-0.0816377
-0.0771219
-0.0734406
-0.0701996
-0.0669621
-0.0637446
-0.0605962
-0.0575188
-0.0545087
-0.0515664
-0.0486937
-0.0458916
-0.0431615
-0.0405049
-0.0379232
-0.0354182
-0.0329918
-0.0306458
-0.0283821
-0.0262027
-0.0241095
-0.0221042
-0.0201885
-0.0183639
-0.0166315
-0.0149923
-0.0134469
-0.0119954
-0.0106376
-0.009373
-0.00820045
-0.00711845
-0.00612501
-0.00521775
-0.00439382
-0.00365003
-0.00298282
-0.00238833
-0.00186244
-0.00140084
-0.000999094
-0.000652661
-0.000356991
-0.000107565
0.000100052
0.000270164
0.000406902
0.000514191
0.000595721
0.000654931
0.000694993
0.000718803
0.000728986
0.000727897
0.000717633
0.000700038
0.000676727
0.000649095
0.000618337
0.000585462
0.000551318
0.000516576
0.000481839
0.000447673
0.00041396
0.000381647
0.000350626
0.00032108
0.000293135
0.000266849
0.000242244
0.000219318
0.000198049
0.000178395
0.0001603
0.000143695
0.000128507
0.000114658
0.000102064
9.06453e-05
8.03188e-05
7.10051e-05
6.26265e-05
5.51076e-05
4.83762e-05
4.23625e-05
3.69978e-05
3.22212e-05
2.79719e-05
2.41951e-05
2.08491e-05
1.78499e-05
1.52616e-05
1.27561e-05
1.10015e-05
8.29043e-06
8.40705e-06
2.79491e-06
1.00582e-05
-0.0844569
-0.0830284
-0.0785581
-0.0749252
-0.0717203
-0.068506
-0.0653039
-0.0621644
-0.05909
-0.0560774
-0.0531282
-0.0502444
-0.0474279
-0.0446802
-0.0420031
-0.0393984
-0.0368681
-0.0344142
-0.0320386
-0.0297435
-0.027531
-0.0254029
-0.0233613
-0.0214079
-0.0195443
-0.0177717
-0.0160913
-0.0145038
-0.0130095
-0.0116085
-0.0103003
-0.00908393
-0.00795816
-0.00692117
-0.00597076
-0.00510427
-0.00431867
-0.00361057
-0.00297626
-0.00241177
-0.00191291
-0.00147532
-0.00109457
-0.000766172
-0.000485645
-0.000248586
-5.07008e-05
0.000112146
0.000243901
0.000348287
0.000428786
0.000488625
0.000530762
0.000557887
0.000572426
0.000576546
0.000572168
0.000560977
0.000544441
0.000523823
0.000500202
0.000474488
0.000447415
0.000419565
0.000391504
0.000363809
0.000336885
0.000310636
0.000285393
0.000261331
0.000238542
0.000217085
0.000196989
0.000178262
0.00016089
0.000144838
0.000130063
0.000116509
0.000104116
9.28194e-05
8.25531e-05
7.32489e-05
6.48407e-05
5.72629e-05
5.04511e-05
4.43432e-05
3.88786e-05
3.39955e-05
2.96416e-05
2.57609e-05
2.23086e-05
1.92416e-05
1.64935e-05
1.41099e-05
1.18108e-05
1.01819e-05
7.69153e-06
7.77399e-06
2.60874e-06
9.26334e-06
-0.0856226
-0.0842319
-0.0798301
-0.0762631
-0.0731071
-0.0699286
-0.0667538
-0.0636344
-0.0605732
-0.0575678
-0.0546203
-0.0517336
-0.0489099
-0.0461513
-0.04346
-0.040838
-0.0382875
-0.0358109
-0.0334102
-0.0310878
-0.0288458
-0.0266864
-0.0246116
-0.0226234
-0.0207233
-0.018913
-0.0171936
-0.0155659
-0.0140307
-0.0125879
-0.0112373
-0.00997834
-0.00880974
-0.00772996
-0.00673698
-0.00582835
-0.00500121
-0.00425236
-0.00357824
-0.00297503
-0.00243868
-0.00196496
-0.00154951
-0.00118793
-0.000875796
-0.000608753
-0.000382522
-0.000192973
-3.6149e-05
9.17e-05
0.000194093
0.000274303
0.000335344
0.00037997
0.000410674
0.000429692
0.000439016
0.000440404
0.000435394
0.000425322
0.000411332
0.000394399
0.000375321
0.000354719
0.000333247
0.000311691
0.000290248
0.000268952
0.000248197
0.000228187
0.00020905
0.000190878
0.000173735
0.000157661
0.000142669
0.00012875
0.000115883
0.000104032
9.31586e-05
8.32139e-05
7.41482e-05
6.59085e-05
5.84428e-05
5.16983e-05
4.56217e-05
4.01624e-05
3.52685e-05
3.08855e-05
2.69708e-05
2.34724e-05
2.03568e-05
1.75786e-05
1.50916e-05
1.2919e-05
1.08353e-05
9.33407e-06
7.07554e-06
7.1185e-06
2.42054e-06
8.44263e-06
-0.0866113
-0.0852512
-0.0809386
-0.0774532
-0.0743578
-0.0712264
-0.0680904
-0.0650018
-0.0619639
-0.0589748
-0.0560378
-0.0531562
-0.0503327
-0.0475701
-0.0448707
-0.0422372
-0.039672
-0.0371775
-0.0347563
-0.0324108
-0.0301433
-0.0279561
-0.0258514
-0.0238313
-0.0218977
-0.0200521
-0.018296
-0.0166303
-0.0150559
-0.0135731
-0.0121817
-0.0108813