/*--------------------------------*- C++ -*----------------------------------*\
  =========                 |
  \\      /  F ield         | OpenFOAM: The Open Source CFD Toolbox
   \\    /   O peration     | Website:  https://openfoam.org
    \\  /    A nd           | Version:  7
     \\/     M anipulation  |
\*---------------------------------------------------------------------------*/
FoamFile
{
    version     2.0;
    format      ascii;
    class       surfaceScalarField;
    location    "5";
    object      phi;
}
// * * * * * * * * * * * * * * * * * * * * * * * * * * * * * * * * * * * * * //

dimensions      [0 3 -1 0 0 0 0];

internalField   nonuniform List<scalar> 
41682
(
0.00131038
-0.000268987
-1.71794e-07
0.00163097
-0.000320403
-1.89274e-07
0.00201047
-0.000379289
-2.07156e-07
0.0024621
-0.000451413
-2.15877e-07
0.00298793
-0.000525611
-2.22045e-07
-0.000637189
-2.16854e-07
0.00362533
0.00132014
-0.00053983
0.00164261
-0.000642865
0.00202414
-0.000760825
0.00247781
-0.000905086
0.0030058
-0.0010536
-0.00127595
0.00364456
0.00133958
-0.000814018
0.00166574
-0.00096903
0.00205131
-0.00114639
0.00250902
-0.00136279
0.00304125
-0.00158583
-0.00191737
0.00368268
0.00136849
-0.00109315
0.00170012
-0.00130066
0.00209163
-0.00153791
0.00255527
-0.00182643
0.0030937
-0.00212426
-0.00256266
0.00373899
0.00140658
-0.00137877
0.00174535
-0.00163943
0.00214458
-0.00193713
0.00261587
-0.00229771
0.00316228
-0.00267067
-0.00321287
0.00381248
0.00145349
-0.00167229
0.00180092
-0.00198686
0.00220948
-0.00234569
0.00268996
-0.00277819
0.00324587
-0.00322658
-0.00386885
0.00390186
0.00150874
-0.00197501
0.00186621
-0.00234434
0.00228552
-0.002765
0.00277649
-0.00326917
0.00334315
-0.00379324
-0.00453127
0.00400556
0.0015718
-0.0022881
0.00194051
-0.00271305
0.00237175
-0.00319624
0.00287426
-0.00377168
0.00345259
-0.00437157
-0.0052005
0.00412182
0.00164206
0.00202301
-0.003094
0.00246712
-0.00364034
0.00298193
-0.00428649
0.0035725
-0.00496214
-0.00587667
0.00424868
0.00211284
-0.00348797
0.0025705
-0.004098
0.00309807
-0.00481405
0.00370111
-0.00556518
-0.00655965
0.00438409
0.00220907
-0.00389552
0.00268068
-0.00456961
0.00322117
-0.00535454
0.00383654
-0.00618055
-0.00724901
0.0045259
0.00231071
-0.00431699
0.00279641
-0.00505531
0.00334969
-0.00590782
0.00397689
-0.00680775
-0.00794408
0.00467196
0.00241676
-0.00475247
0.00291641
-0.00555496
0.00348205
-0.00647346
0.00412028
-0.00744598
-0.00864394
0.00482014
0.00252618
-0.00520185
0.00303939
-0.00606817
0.00361671
-0.00705079
0.00426484
-0.00809411
-0.00934746
0.00496836
0.00263796
-0.00566479
0.00316408
-0.00659429
0.00375214
-0.00763885
0.0044088
-0.00875077
-0.0100533
0.00511467
0.00275107
-0.00614076
0.00328923
-0.00713245
0.00388688
-0.0082365
0.00455048
-0.00941436
-0.0107601
0.00525725
0.00286452
-0.00662901
0.00341365
-0.00768158
0.00401954
-0.0088424
0.00468831
-0.0100831
-0.0114662
0.00539442
0.00297732
-0.00712863
0.00353617
-0.00824042
0.00414881
-0.00945504
0.00482088
-0.0107552
-0.0121701
0.00552472
0.00308857
-0.00763856
0.00365574
-0.00880759
0.00427351
-0.0100728
0.00494691
-0.0114286
-0.01287
0.00564685
0.00319737
-0.00815761
0.00377134
-0.00938155
0.00439253
-0.010694
0.00506529
-0.0121014
-0.0135644
0.00575972
0.00330291
-0.00868445
0.00388206
-0.0099607
0.00450492
-0.0113169
0.00517509
-0.0127715
-0.0142518
0.00586246
0.00340442
0.00398708
-0.0105434
0.00460984
-0.0119396
0.00527553
-0.0134372
-0.0149306
0.00595436
0.00408567
-0.0111278
0.00470657
-0.0125605
0.00536598
-0.0140966
-0.0155996
0.00603494
0.00417719
-0.0117124
0.00479453
-0.0131779
0.005446
-0.0147481
-0.0162574
0.00610385
0.00426113
-0.0122954
0.00487326
-0.01379
0.00551526
-0.0153901
-0.0169031
0.00616095
0.00433703
-0.0128752
0.0049424
-0.0143954
0.0055736
-0.0160213
-0.0175357
0.0062062
0.00440457
-0.0134502
0.00500175
-0.0149925
0.00562097
-0.0166405
-0.0181545
0.00623971
0.00446348
-0.0140189
0.00505117
-0.0155802
0.00565743
-0.0172468
-0.0187587
0.00626168
0.00451362
-0.0145801
0.00509064
-0.0161573
0.00568314
-0.0178393
-0.019348
0.00627243
0.00455489
0.00512024
-0.0167226
0.00569833
-0.0184174
-0.019922
0.0062723
0.00514012
-0.0172754
0.00570333
-0.0189806
-0.0204804
0.00626173
0.00515048
-0.017815
0.0056985
-0.0195286
-0.0210231
0.00624118
0.00515162
-0.0183408
0.00568423
-0.0200612
-0.0215499
0.00621112
0.00514386
-0.0188524
0.00566095
-0.0205783
-0.022061
0.00617205
0.00512757
-0.0193496
0.00562908
-0.0210798
-0.0225564
0.00612448
0.00510314
0.00558906
-0.0215657
-0.0230363
0.00606896
0.00554126
-0.022036
-0.0235012
0.00600612
0.00548598
-0.0224904
-0.0239518
0.00593661
0.00542343
-0.0229285
-0.0243902
0.00586183
0.00535403
-0.0248226
0.00578646
-0.0252853
0.00574363
-0.0257313
0.00564824
-0.0261593
0.00554747
0.0054435
0.0261591
0.00544335
0.0257311
0.0055473
0.0252851
0.00564798
0.0248219
0.00574391
0.00535372
0.0229291
0.0243896
0.00578606
0.00542321
0.0224911
0.0239514
0.00586142
0.0054858
0.0220368
0.0235009
0.00593624
0.00554111
0.0215666
0.0230362
0.0060058
0.00510303
0.0193499
0.00558894
0.0210806
0.0225565
0.00606869
0.00512747
0.0188528
0.00562898
0.0205791
0.0220612
0.00612425
0.00514377
0.0183412
0.00566086
0.020062
0.0215502
0.00617186
0.00515155
0.0178154
0.00568416
0.0195294
0.0210234
0.00621097
0.00515042
0.0172759
0.00569845
0.0189814
0.0204808
0.00624106
0.00514007
0.0167231
0.0057033
0.0184182
0.0199225
0.00626165
0.00455487
0.0145806
0.0051202
0.0161577
0.00569831
0.0178401
0.0193485
0.00627224
0.00451361
0.0140195
0.00509062
0.0155807
0.00568312
0.0172476
0.0187593
0.00627239
0.00446348
0.0134508
0.00505115
0.014993
0.00565743
0.0166413
0.018155
0.00626166
0.00440458
0.0128757
0.00500174
0.0143959
0.00562098
0.016022
0.0175363
0.00623971
0.00433705
0.012296
0.00494241
0.0137905
0.00557363
0.0153908
0.0169037
0.00620621
0.00426115
0.011713
0.00487327
0.0131784
0.00551529
0.0147488
0.016258
0.00616098
0.00417723
0.0111284
0.00479456
0.0125611
0.00544604
0.0140973
0.0156002
0.0061039
0.00350123
0.00921817
0.0040857
0.0105439
0.00470661
0.0119402
0.00536603
0.0134379
0.0149312
0.00603499
0.00340446
0.00868493
0.00398712
0.00996126
0.00460988
0.0113174
0.00527558
0.0127722
0.0142524
0.00595442
0.00330296
0.00815809
0.00388211
0.0093821
0.00450497
0.0106945
0.00517516
0.012102
0.013565
0.00586253
0.00319742
0.00763904
0.00377139
0.00880814
0.00439259
0.0100733
0.00506537
0.0114292
0.0128706
0.0057598
0.00308862
0.00712911
0.0036558
0.00824096
0.00427357
0.00945557
0.00494698
0.0107558
0.0121706
0.00564693
0.00297738
0.00662948
0.00353624
0.00768211
0.00414888
0.00884292
0.00482096
0.0100837
0.0114668
0.00552481
0.00286457
0.00614122
0.00341371
0.00713297
0.00401961
0.00823702
0.0046884
0.00941495
0.0107606
0.00539452
0.00275113
0.00566525
0.0032893
0.0065948
0.00388696
0.00763936
0.00455057
0.00875134
0.0100539
0.00525735
0.00263802
0.0052023
0.00316415
0.00606867
0.00375222
0.00705129
0.00440889
0.00809466
0.00934799
0.00511478
0.00252624
0.00475291
0.00303946
0.00555546
0.00361679
0.00647396
0.00426493
0.00744652
0.00864445
0.00496846
0.00241681
0.00431742
0.00291648
0.00505579
0.00348213
0.00590831
0.00412037
0.00680828
0.00794458
0.00482024
0.00231077
0.00389595
0.00279648
0.00457009
0.00334976
0.00535503
0.00397698
0.00618107
0.0072495
0.00467206
0.00220912
0.0034884
0.00268075
0.00409846
0.00322124
0.00481453
0.00383662
0.00556569
0.00656013
0.00452599
0.0021129
0.00309442
0.00257056
0.0036408
0.00309814
0.00428695
0.00370119
0.00496264
0.00587715
0.00438417
0.00164211
0.00228847
0.00202306
0.00271346
0.00246718
0.00319668
0.00298199
0.00377214
0.00357258
0.00437205
0.00520096
0.00424876
0.00157183
0.00197537
0.00194056
0.00234474
0.0023718
0.00276544
0.00287432
0.00326962
0.00345265
0.00379371
0.00453172
0.00412189
0.00150877
0.00167265
0.00186625
0.00198726
0.00228556
0.00234613
0.00277654
0.00277864
0.00334321
0.00322705
0.00386931
0.00400563
0.00145352
0.00137912
0.00180096
0.00163982
0.00220952
0.00193756
0.00269001
0.00229816
0.00324592
0.00267113
0.00321331
0.00390192
0.00140661
0.00109351
0.00174538
0.00130105
0.00214461
0.00153833
0.00261591
0.00182687
0.00316232
0.00212472
0.0025631
0.00381253
0.00136851
0.000814365
0.00170015
0.000969412
0.00209166
0.00114681
0.0025553
0.00136323
0.00309373
0.00158628
0.00191781
0.00373902
0.00133959
0.000540176
0.00166576
0.000643245
0.00205133
0.000761242
0.00250905
0.000905519
0.00304128
0.00105404
0.00127639
0.00368271
0.00132015
0.000269331
0.00164262
0.000320782
0.00202415
0.000379704
0.00247783
0.000451845
0.00300582
0.000526056
0.000637623
0.00364458
0.00131038
0.00163097
0.00201047
0.0024621
0.00298793
0.00362534
0.00369098
-6.56109e-05
-3.79388e-08
0.00375659
-6.55718e-05
-3.71274e-08
0.00382228
-6.56515e-05
-3.62255e-08
0.00388812
-6.5802e-05
-3.52259e-08
0.00395415
-6.59977e-05
-3.41226e-08
0.00402041
-6.6228e-05
-3.29109e-08
0.00408692
-6.64818e-05
-3.15862e-08
0.0041537
-6.67477e-05
-3.01441e-08
0.00422074
-6.70147e-05
-2.85807e-08
0.00428804
-6.72732e-05
-2.68925e-08
0.00435558
-6.75136e-05
-2.50767e-08
0.00442333
-6.77273e-05
-2.31307e-08
0.00449126
-6.79056e-05
-2.10529e-08
0.00455932
-6.80405e-05
-1.88422e-08
0.00462746
-6.81239e-05
-1.64985e-08
0.00469562
-6.81485e-05
-1.40225e-08
0.00476374
-6.81068e-05
-1.14161e-08
0.00483174
-6.7992e-05
-8.68201e-09
0.00489954
-6.77974e-05
-5.82451e-09
0.00496706
-6.75168e-05
-2.84903e-09
0.00503421
-6.71443e-05
2.37624e-10
0.00510088
-6.66747e-05
3.42712e-09
0.00516698
-6.61033e-05
6.70965e-09
0.00523239
-6.54257e-05
1.00739e-08
0.00529702
-6.46388e-05
1.35069e-08
0.00536074
-6.37398e-05
1.69942e-08
0.00542345
-6.27269e-05
2.05201e-08
0.00548502
-6.15993e-05
2.40673e-08
0.00554535
-6.03572e-05
2.76172e-08
0.00560432
-5.90018e-05
3.11504e-08
0.00566182
-5.75353e-05
3.46463e-08
0.00571775
-5.59612e-05
3.8084e-08
0.00577199
-5.42841e-05
4.14418e-08
0.00582445
-5.25098e-05
4.46981e-08
0.00587505
-5.06451e-05
4.78316e-08
0.0059237
-4.8698e-05
5.08212e-08
0.00597032
-4.66775e-05
5.36469e-08
0.00601486
-4.45934e-05
5.62897e-08
0.00605726
-4.24564e-05
5.87321e-08
0.00609747
-4.02779e-05
6.09586e-08
0.00613548
-3.80697e-05
6.29554e-08
0.00617126
-3.58439e-05
6.47114e-08
0.00620481
-3.36128e-05
6.62178e-08
0.00623613
-3.13885e-05
6.74685e-08
0.00626524
-2.9183e-05
6.84605e-08
0.00629218
-2.70075e-05
6.91937e-08
0.00631698
-2.4873e-05
6.96708e-08
0.0063397
-2.2789e-05
6.98975e-08
0.0063604
-2.07646e-05
6.98825e-08
0.00637913
-1.88074e-05
6.96372e-08
0.00639599
-1.69239e-05
6.91753e-08
0.00641104
-1.51193e-05
6.85129e-08
0.00642437
-1.33974e-05
6.76682e-08
0.00643606
-1.17608e-05
6.66606e-08
0.00644621
-1.0211e-05
6.55108e-08
0.00645489
-8.748e-06
6.42401e-08
0.0064622
-7.37107e-06
6.28698e-08
0.00646822
-6.07841e-06
6.14209e-08
0.00647303
-4.86749e-06
5.9913e-08
0.0064767
-3.73512e-06
5.83644e-08
0.00647932
-2.67767e-06
5.67909e-08
0.00648096
-1.69116e-06
5.52059e-08
0.00648168
-7.71409e-07
5.36218e-08
0.00648154
8.59669e-08
5.20097e-08
0.0064806
8.84392e-07
5.05226e-08
0.00647893
1.6288e-06
4.90354e-08
0.00647656
2.32292e-06
4.75685e-08
0.00647354
2.97048e-06
4.61265e-08
0.00646992
3.57496e-06
4.47103e-08
0.00646574
4.13964e-06
4.33189e-08
0.00646103
4.66756e-06
4.19501e-08
0.00645583
5.16156e-06
4.06011e-08
0.00645016
5.62427e-06
3.92684e-08
0.00644407
6.05815e-06
3.79492e-08
0.00643756
6.46548e-06
3.66409e-08
0.00643068
6.84844e-06
3.53414e-08
0.00642344
7.20904e-06
3.40496e-08
0.00641585
7.54919e-06
3.27649e-08
0.00640795
7.8707e-06
3.14875e-08
0.00639975
8.17527e-06
3.0218e-08
0.00639125
8.4645e-06
2.89576e-08
0.00638249
8.73989e-06
2.77078e-08
0.00637346
9.00286e-06
2.64702e-08
0.00636418
9.25473e-06
2.52466e-08
0.00635466
9.49671e-06
2.40388e-08
0.0063449
9.72996e-06
2.28483e-08
0.00633493
9.95552e-06
2.16765e-08
0.00632473
1.01744e-05
2.05246e-08
0.00631432
1.03874e-05
1.93936e-08
0.00630371
1.05955e-05
1.82839e-08
0.00629289
1.07993e-05
1.71961e-08
0.00628188
1.09996e-05
1.613e-08
0.00627067
1.11969e-05
1.50859e-08
0.00625926
1.1392e-05
1.40624e-08
0.00624766
1.15852e-05
1.30609e-08
0.00623587
1.17772e-05
1.2076e-08
0.00622389
1.19681e-05
1.11161e-08
0.00621172
1.2159e-05
1.01582e-08
0.00619937
1.23485e-05
9.24864e-09
1.25414e-05
8.25405e-09
0.00370952
-0.000130565
0.00377445
-0.000130505
0.00383948
-0.000130684
0.00390468
-0.000130999
0.00397009
-0.000131402
0.00403573
-0.000131872
0.00410164
-0.000132388
0.00416781
-0.000132926
0.00423426
-0.000133465
0.00430098
-0.000133987
0.00436794
-0.000134473
0.00443511
-0.000134904
0.00450247
-0.000135265
0.00456997
-0.00013554
0.00463756
-0.000135711
0.00470518
-0.000135765
0.00477276
-0.000135687
0.00484023
-0.000135463
0.00490751
-0.00013508
0.00497452
-0.000134525
0.00504116
-0.000133788
0.00510734
-0.000132856
0.00517296
-0.000131722
0.00523791
-0.000130375
0.00530208
-0.000128811
0.00536537
-0.000127023
0.00542765
-0.000125008
0.00548881
-0.000122765
0.00554875
-0.000120293
0.00560734
-0.000117594
0.00566448
-0.000114674
0.00572006
-0.000111539
0.00577397
-0.000108199
0.00582613
-0.000104665
0.00587643
-0.00010095
0.00592481
-9.70702e-05
0.00597117
-9.30439e-05
0.00601547
-8.88906e-05
0.00605764
-8.46315e-05
0.00609766
-8.02893e-05
0.00613547
-7.58875e-05
0.00617108
-7.14503e-05
0.00620447
-6.70022e-05
0.00623565
-6.25675e-05
0.00626464
-5.81699e-05
0.00629146
-5.38321e-05
0.00631616
-4.95755e-05
0.00633879
-4.54196e-05
0.00635941
-4.13823e-05
0.00637808
-3.74788e-05
0.00639488
-3.37221e-05
0.00640988
-3.01226e-05
0.00642317
-2.66879e-05
0.00643484
-2.34234e-05
0.00644496
-2.03317e-05
0.00645362
-1.74132e-05
0.00646092
-1.46664e-05
0.00646693
-1.20875e-05
0.00647173
-9.67169e-06
0.00647541
-7.41253e-06
0.00647803
-5.30281e-06
0.00647968
-3.3346e-06
0.00648041
-1.49955e-06
0.00648028
2.11027e-07
0.00647936
1.80405e-06
0.0064777
3.28929e-06
0.00647535
4.67417e-06
0.00647235
5.96612e-06
0.00646876
7.17208e-06
0.0064646
8.29861e-06
0.00645991
9.35174e-06
0.00645474
1.03372e-05
0.0064491
1.12601e-05
0.00644303
1.21254e-05
0.00643656
1.29378e-05
0.00642971
1.37014e-05
0.0064225
1.44204e-05
0.00641495
1.50985e-05
0.00640708
1.57394e-05
0.00639891
1.63464e-05
0.00639045
1.69228e-05
0.00638172
1.74716e-05
0.00637273
1.79955e-05
0.00636348
1.84973e-05
0.006354
1.89793e-05
0.00634429
1.94439e-05
0.00633435
1.98931e-05
0.00632419
2.0329e-05
0.00631383
2.07532e-05
0.00630326
2.11675e-05
0.00629248
2.15734e-05
0.00628151
2.19722e-05
0.00627034
2.23652e-05
0.00625898
2.27536e-05
0.00624743
2.31383e-05
0.00623568
2.35206e-05
0.00622375
2.39007e-05
0.00621163
2.42809e-05
0.00619932
2.46583e-05
2.50424e-05
0.00374626
-0.000194143
0.00380985
-0.000194102
0.00387359
-0.000194417
0.00393752
-0.000194929
0.00400168
-0.000195563
0.0040661
-0.000196294
0.0041308
-0.000197089
0.00419579
-0.000197915
0.00426106
-0.000198741
0.00432662
-0.00019954
0.00439243
-0.000200283
0.00445847
-0.000200945
0.0045247
-0.000201502
0.00459109
-0.000201928
0.00465758
-0.000202201
0.00472412
-0.000202299
0.00479063
-0.0002022
0.00485705
-0.000201883
0.0049233
-0.00020133
0.00498929
-0.00020052
0.00505494
-0.000199437
0.00512015
-0.000198066
0.00518482
-0.000196391
0.00524885
-0.000194401
0.00531212
-0.000192085
0.00537454
-0.000189436
0.00543597
-0.000186447
0.00549633
-0.000183117
0.00555548
-0.000179445
0.00561332
-0.000175436
0.00566974
-0.000171095
0.00572463
-0.000166433
0.0057779
-0.000161463
0.00582944
-0.000156203
0.00587916
-0.000150673
0.00592699
-0.000144896
0.00597284
-0.000138899
0.00601666
-0.000132711
0.00605839
-0.000126364
0.006098
-0.000119892
0.00613544
-0.00011333
0.0061707
-0.000106713
0.00620378
-0.00010008
0.00623468
-9.34645e-05
0.00626341
-8.69034e-05
0.00629001
-8.04305e-05
0.00631451
-7.40777e-05
0.00633697
-6.78743e-05
0.00635743
-6.18468e-05
0.00637597
-5.60182e-05
0.00639266
-5.04079e-05
0.00640756
-4.50315e-05
0.00642078
-3.99006e-05
0.00643238
-3.50232e-05
0.00644245
-3.04034e-05
0.00645108
-2.60418e-05
0.00645835
-2.19361e-05
0.00646434
-1.80811e-05
0.00646914
-1.44693e-05
0.00647282
-1.10914e-05
0.00647545
-7.93663e-06
0.00647711
-4.99314e-06
0.00647786
-2.24853e-06
0.00647776
3.10155e-07
0.00647687
2.69311e-06
0.00647525
4.91498e-06
0.00647293
6.98687e-06
0.00646998
8.91975e-06
0.00646643
1.07241e-05
0.00646232
1.24095e-05
0.00645768
1.39852e-05
0.00645256
1.54596e-05
0.00644698
1.68404e-05
0.00644097
1.8135e-05
0.00643456
1.93503e-05
0.00642777
2.04926e-05
0.00642062
2.15681e-05
0.00641313
2.25824e-05
0.00640533
2.3541e-05
0.00639723
2.44488e-05
0.00638884
2.53108e-05
0.00638018
2.61314e-05
0.00637126
2.69147e-05
0.0063621
2.76649e-05
0.00635269
2.83855e-05
0.00634305
2.908e-05
0.0063332
2.97515e-05
0.00632312
3.04029e-05
0.00631284
3.1037e-05
0.00630235
3.16562e-05
0.00629166
3.22627e-05
0.00628077
3.28586e-05
0.00626969
3.34459e-05
0.00625842
3.40263e-05
0.00624696
3.46012e-05
0.0062353
3.51724e-05
0.00622347
3.57403e-05
0.00621144
3.63083e-05
0.00619922
3.68722e-05
3.74461e-05
0.00380054
-0.000255694
0.00386216
-0.000255727
0.00392398
-0.000256233
0.00398603
-0.000256986
0.00404836
-0.000257889
0.00411098
-0.00025891
0.0041739
-0.00026001
0.00423713
-0.000261147
0.00430067
-0.000262282
0.00436451
-0.000263376
0.00442862
-0.000264396
0.00449298
-0.000265307
0.00455756
-0.000266077
0.0046223
-0.000266675
0.00468717
-0.00026707
0.0047521
-0.000267233
0.00481704
-0.000267136
0.00488191
-0.000266751
0.00494663
-0.000266052
0.00501113
-0.000265016
0.00507531
-0.000263618
0.00513908
-0.000261838
0.00520234
-0.000259657
0.005265
-0.000257059
0.00532695
-0.00025403
0.00538807
-0.000250559
0.00544826
-0.000246638
0.00550741
-0.000242265
0.0055654
-0.000237439
0.00562213
-0.000232165
0.00567749
-0.000226452
0.00573137
-0.000220312
0.00578367
-0.000213764
0.0058343
-0.000206829
0.00588316
-0.000199535
0.00593017
-0.000191912
0.00597527
-0.000183996
0.00601839
-0.000175825
0.00605946
-0.000167441
0.00609846
-0.000158889
0.00613534
-0.000150215
0.0061701
-0.000141467
0.00620271
-0.000132694
0.00623319
-0.000123943
0.00626155
-0.000115261
0.00628781
-0.000106693
0.00631202
-9.82826e-05
0.00633421
-9.00677e-05
0.00635445
-8.20838e-05
0.00637279
-7.43616e-05
0.00638931
-6.69268e-05
0.00640408
-5.98004e-05
0.00641718
-5.2998e-05
0.00642868
-4.65301e-05
0.00643868
-4.04025e-05
0.00644726
-3.46162e-05
0.00645449
-2.91683e-05
0.00646046
-2.40521e-05
0.00646525
-1.92577e-05
0.00646893
-1.4773e-05
0.00647158
-1.05838e-05
0.00647326
-6.67462e-06
0.00647404
-3.02905e-06
0.00647398
3.7021e-07
0.00647314
3.53605e-06
0.00647156
6.48834e-06
0.00646931
9.2416e-06
0.00646642
1.18103e-05
0.00646293
1.42083e-05
0.00645889
1.64484e-05
0.00645434
1.85426e-05
0.00644929
2.05021e-05
0.0064438
2.23374e-05
0.00643787
2.4058e-05
0.00643155
2.56732e-05
0.00642485
2.71913e-05
0.0064178
2.86205e-05
0.00641041
2.99683e-05
0.00640271
3.1242e-05
0.00639471
3.24482e-05
0.00638643
3.35933e-05
0.00637788
3.46833e-05
0.00636907
3.57239e-05
0.00636001
3.67202e-05
0.00635072
3.76772e-05
0.0063412
3.85994e-05
0.00633146
3.9491e-05
0.00632151
4.0356e-05
0.00631135
4.11978e-05
0.00630099
4.20197e-05
0.00629042
4.28248e-05
0.00627967
4.36159e-05
0.00626872
4.43953e-05
0.00625758
4.51656e-05
0.00624625
4.59285e-05
0.00623474
4.66866e-05
0.00622304
4.74402e-05
0.00621115
4.81941e-05
0.00619908
4.89423e-05
4.97038e-05
0.00387139
-0.000314606
0.00393045
-0.000314783
0.00398977
-0.00031555
0.00404938
-0.000316601
0.00410931
-0.000317818
0.00416957
-0.000319169
0.00423017
-0.000320609
0.00429111
-0.000322087
0.00435238
-0.000323556
0.00441398
-0.000324971
0.00447587
-0.000326291
0.00453804
-0.000327475
0.00460045
-0.000328483
0.00466305
-0.000329278
0.0047258
-0.000329821
0.00478865
-0.000330077
0.00485152
-0.000330011
0.00491436
-0.000329589
0.00497709
-0.00032878
0.00503962
-0.000327552
0.00510188
-0.000325878
0.00516378
-0.000323731
0.00522521
-0.000321088
0.00528608
-0.000317929
0.00534628
-0.000314235
0.00540572
-0.000309994
0.00546428
-0.000305197
0.00552185
-0.000299838
0.00557833
-0.000293917
0.0056336
-0.00028744
0.00568757
-0.000280416
0.00574012
-0.000272863
0.00579115
-0.000264801
0.00584058
-0.000256259
0.00588832
-0.000247268
0.00593427
-0.000237867
0.00597837
-0.000228099
0.00602056
-0.000218012
0.00606078
-0.000207658
0.00609898
-0.000197091
0.00613513
-0.00018637
0.00616922
-0.000175553
0.00620123
-0.0001647
0.00623116
-0.000153871
0.00625902
-0.000143124
0.00628484
-0.000132515
0.00630866
-0.000122097
0.00633051
-0.000111918
0.00635044
-0.000102022
0.00636853
-9.24477e-05
0.00638483
-8.32268e-05
0.00639942
-7.43857e-05
0.00641236
-6.5944e-05
0.00642375
-5.79152e-05
0.00643365
-5.03066e-05
0.00644216
-4.31199e-05
0.00644934
-3.63517e-05
0.00645528
-2.99939e-05
0.00646006
-2.40346e-05
0.00646374
-1.84589e-05
0.00646641
-1.32495e-05
0.00646812
-8.38723e-06
0.00646894
-3.85202e-06
0.00646894
3.77834e-07
0.00646816
4.31723e-06
0.00646665
7.9917e-06
0.00646447
1.14188e-05
0.00646167
1.46166e-05
0.00645827
1.7602e-05
0.00645433
2.0391e-05
0.00644988
2.29984e-05
0.00644494
2.54382e-05
0.00643955
2.77233e-05
0.00643375
2.98656e-05
0.00642754
3.18765e-05
0.00642097
3.37665e-05
0.00641404
3.55457e-05
0.00640679
3.72236e-05
0.00639922
3.88089e-05
0.00639136
4.03101e-05
0.00638322
4.17352e-05
0.00637481
4.30915e-05
0.00636615
4.43862e-05
0.00635724
4.56258e-05
0.0063481
4.68162e-05
0.00633874
4.79633e-05
0.00632916
4.90722e-05
0.00631937
5.01478e-05
0.00630937
5.11945e-05
0.00629917
5.22165e-05
0.00628878
5.32174e-05
0.00627819
5.42008e-05
0.00626742
5.51697e-05
0.00625646
5.61271e-05
0.00624531
5.70754e-05
0.00623398
5.80175e-05
0.00622247
5.89541e-05
0.00621077
5.98909e-05
0.00619889
6.08206e-05
6.1767e-05
0.00395757
-0.000370321
0.00401352
-0.000370724
0.0040698
-0.000371834
0.00412645
-0.000373249
0.00418347
-0.000374836
0.00424086
-0.000376563
0.00429863
-0.000378383
0.00435678
-0.000380237
0.0044153
-0.000382073
0.00447417
-0.00038384
0.00453337
-0.00038549
0.00459287
-0.000386975
0.00465264
-0.000388251
0.00471263
-0.000389271
0.0047728
-0.000389994
0.0048331
-0.000390376
0.00489347
-0.000390376
0.00495383
-0.000389956
0.00501413
-0.000389076
0.00507428
-0.000387702
0.0051342
-0.000385798
0.0051938
-0.000383335
0.005253
-0.000380283
0.00531169
-0.000376618
0.00536977
-0.00037232
0.00542715
-0.000367373
0.00548372
-0.000361763
0.00553937
-0.000355487
0.00559399
-0.000348543
0.00564749
-0.000340936
0.00569975
-0.000332679
0.00575068
-0.000323791
0.00580017
-0.000314295
0.00584814
-0.000304226
0.00589449
-0.00029362
0.00593915
-0.000282523
0.00598204
-0.000270986
0.00602309
-0.000259065
0.00606225
-0.000246822
0.00609948
-0.00023432
0.00613474
-0.00022163
0.00616801
-0.00020882
0.00619927
-0.000195962
0.00622852
-0.000183126
0.00625578
-0.000170383
0.00628106
-0.000157797
0.0063044
-0.000145433
0.00632583
-0.000133348
0.0063454
-0.000121595
0.00636317
-0.000110219
0.00637921
-9.92585e-05
0.00639357
-8.8746e-05
0.00640633
-7.87049e-05
0.00641756
-6.91514e-05
0.00642735
-6.00949e-05
0.00643577
-5.15377e-05
0.00644289
-4.34761e-05
0.0064488
-3.5901e-05
0.00645356
-2.87985e-05
0.00645726
-2.21514e-05
0.00645995
-1.59392e-05
0.0064617
-1.01396e-05
0.00646258
-4.72879e-06
0.00646263
3.19458e-07
0.00646193
5.02071e-06
0.00646052
9.4072e-06
0.00645843
1.3499e-05
0.00645573
1.73173e-05
0.00645245
2.08823e-05
0.00644863
2.42131e-05
0.0064443
2.73272e-05
0.0064395
3.02411e-05
0.00643425
3.29702e-05
0.00642859
3.55288e-05
0.00642254
3.79304e-05
0.00641612
4.01875e-05
0.00640935
4.23121e-05
0.00640226
4.43154e-05
0.00639486
4.62081e-05
0.00638717
4.80002e-05
0.0063792
4.97013e-05
0.00637097
5.13201e-05
0.00636249
5.28651e-05
0.00635378
5.43442e-05
0.00634483
5.57644e-05
0.00633566
5.71328e-05
0.00632627
5.84555e-05
0.00631668
5.97382e-05
0.00630689
6.09864e-05
0.0062969
6.22049e-05
0.00628672
6.33982e-05
0.00627635
6.45705e-05
0.0062658
6.57254e-05
0.00625506
6.68666e-05
0.00624414
6.79966e-05
0.00623304
6.91194e-05
0.00622175
7.02354e-05
0.00621029
7.13518e-05
0.00619865
7.24595e-05
7.35871e-05
0.00405759
-0.000422346
0.00410993
-0.000423064
0.0041627
-0.000424605
0.00421591
-0.000426461
0.00426955
-0.000428478
0.00432362
-0.000430633
0.00437812
-0.000432879
0.00443303
-0.00043515
0.00448835
-0.00043739
0.00454405
-0.000439543
0.00460012
-0.000441556
0.00465652
-0.000443376
0.00471322
-0.000444952
0.00477018
-0.000446234
0.00482736
-0.000447172
0.0048847
-0.000447718
0.00494215
-0.000447826
0.00499965
-0.00044745
0.00505712
-0.000446547
0.00511449
-0.000445076
0.00517169
-0.000442996
0.00522863
-0.000440273
0.00528522
-0.000436874
0.00534137
-0.000432769
0.00539699
-0.000427936
0.00545197
-0.000422354
0.00550621
-0.000416009
0.00555962
-0.000408895
0.00561209
-0.00040101
0.00566351
-0.00039236
0.00571379
-0.000382957
0.00576282
-0.000372824
0.00581052
-0.000361987
0.00585677
-0.000350485
0.00590151
-0.000338359
0.00594465
-0.000325662
0.00598612
-0.000312451
0.00602584
-0.000298792
0.00606378
-0.000284753
0.00609987
-0.000270411
0.00613408
-0.000255842
0.00616639
-0.000241129
0.00619678
-0.000226352
0.00622524
-0.000211593
0.00625179
-0.000196932
0.00627644
-0.000182446
0.00629922
-0.000168208
0.00632015
-0.000154285
0.0063393
-0.000140738
0.0063567
-0.00012762
0.00637242
-0.000114976
0.00638651
-0.000102843
0.00639906
-9.12493e-05
0.00641012
-8.0214e-05
0.00641977
-6.97485e-05
0.00642809
-5.98559e-05
0.00643515
-5.05328e-05
0.00644102
-4.17689e-05
0.00644577
-3.3549e-05
0.00644947
-2.58534e-05
0.00645219
-1.86591e-05
0.00645399
-1.19407e-05
0.00645493
-5.67118e-06
0.00645507
1.81246e-07
0.00645446
5.63022e-06
0.00645315
1.07167e-05
0.00645119
1.54621e-05
0.00644862
1.98909e-05
0.00644547
2.40264e-05
0.00644179
2.78904e-05
0.00643762
3.15033e-05
0.00643297
3.48841e-05
0.00642789
3.80504e-05
0.0064224
4.10188e-05
0.00641653
4.38049e-05
0.00641029
4.64232e-05
0.00640372
4.88877e-05
0.00639682
5.12112e-05
0.00638962
5.34062e-05
0.00638214
5.54844e-05
0.00637439
5.74566e-05
0.00636637
5.93332e-05
0.00635811
6.11241e-05
0.00634962
6.28381e-05
0.0063409
6.44839e-05
0.00633196
6.60692e-05
0.00632282
6.76014e-05
0.00631347
6.90871e-05
0.00630392
7.05326e-05
0.00629418
7.19435e-05
0.00628426
7.33251e-05
0.00627415
7.46821e-05
0.00626385
7.60189e-05
0.00625338
7.73396e-05
0.00624273
7.86474e-05
0.0062319
7.99467e-05
0.0062209
8.1238e-05
0.00620972
8.25296e-05
0.00619837
8.38112e-05
8.51157e-05
0.00416973
-0.000470258
0.00421805
-0.000471384
0.00426689
-0.000473451
0.00431626
-0.000475825
0.00436612
-0.000478338
0.00441647
-0.000480979
0.00446729
-0.000483699
0.00451857
-0.000486433
0.0045703
-0.000489118
0.00462245
-0.000491695
0.004675
-0.000494108
0.00472792
-0.000496299
0.00478118
-0.000498212
0.00483474
-0.000499793
0.00488856
-0.000500986
0.00494258
-0.000501739
0.00499675
-0.000502
0.00505102
-0.000501717
0.00510531
-0.000500843
0.00515957
-0.000499329
0.00521371
-0.000497134
0.00526765
-0.000494215
0.00532131
-0.000490536
0.0053746
-0.000486063
0.00542744
-0.00048077
0.00547972
-0.000474635
0.00553135
-0.00046764
0.00558223
-0.000459776
0.00563226
-0.000451042
0.00568135
-0.000441444
0.00572938
-0.000430995
0.00577628
-0.000419718
0.00582194
-0.000407645
0.00586627
-0.000394814
0.00590918
-0.000381275
0.00595061
-0.000367085
0.00599046
-0.000352308
0.00602869
-0.000337018
0.00606523
-0.000321291
0.00610003
-0.000305212
0.00613305
-0.000288868
0.00616427
-0.000272351
0.00619368
-0.000255753
0.00622125
-0.000239165
0.00624699
-0.000222677
0.00627092
-0.000206377
0.00629306
-0.000190348
0.00631344
-0.000174664
0.0063321
-0.000159396
0.00634908
-0.000144603
0.00636444
-0.000130338
0.00637824
-0.000116642
0.00639054
-0.000103549
0.00640141
-9.10807e-05
0.00641091
-7.92504e-05
0.00641912
-6.80628e-05
0.0064261
-5.75143e-05
0.00643193
-4.75945e-05
0.00643666
-3.82866e-05
0.00644038
-2.9569e-05
0.00644314
-2.14163e-05
0.006445
-1.38004e-05
0.00644602
-6.69163e-06
0.00644625
-5.08486e-08
0.00644575
6.12899e-06
0.00644456
1.1902e-05
0.00644274
1.72883e-05
0.00644031
2.23159e-05
0.00643733
2.70112e-05
0.00643382
3.13987e-05
0.00642982
3.55012e-05
0.00642537
3.93403e-05
0.00642048
4.29358e-05
0.00641519
4.63065e-05
0.00640953
4.94701e-05
0.00640351
5.2443e-05
0.00639715
5.52408e-05
0.00639049
5.78785e-05
0.00638352
6.03699e-05
0.00637628
6.27282e-05
0.00636877
6.49661e-05
0.00636101
6.70951e-05
0.00635301
6.91265e-05
0.00634477
7.10704e-05
0.00633632
7.29365e-05
0.00632766
7.47338e-05
0.00631879
7.64705e-05
0.00630972
7.81543e-05
0.00630046
7.97922e-05
0.00629101
8.13907e-05
0.00628138
8.29558e-05
0.00627157
8.44928e-05
0.00626158
8.60066e-05
0.00625142
8.75021e-05
0.00624109
8.89829e-05
0.00623058
9.04538e-05
0.0062199
9.19155e-05
0.00620905
9.33775e-05
0.00619804
9.4828e-05
9.63046e-05
0.00429213
-0.000513711
0.00433609
-0.000515338
0.00438066
-0.000518027
0.00442584
-0.000521
0.00447158
-0.000524077
0.00451786
-0.000527262
0.00456467
-0.00053051
0.00461199
-0.000533752
0.00465979
-0.000536925
0.00470807
-0.000539967
0.00475678
-0.000542819
0.0048059
-0.000545421
0.0048554
-0.000547711
0.00490524
-0.000549632
0.00495537
-0.000551123
0.00500576
-0.000552128
0.00505635
-0.000552589
0.00510709
-0.000552451
0.0051579
-0.000551661
0.00520874
-0.000550166
0.00525953
-0.000547918
0.00531018
-0.000544872
0.00536063
-0.000540986
0.00541079
-0.000536224
0.00546058
-0.000530555
0.00550989
-0.000523952
0.00555865
-0.000516398
0.00560676
-0.000507882
0.00565412
-0.0004984
0.00570063
-0.000487958
0.00574621
-0.00047657
0.00579075
-0.00046426
0.00583416
-0.000451061
0.00587637
-0.000437018
0.00591727
-0.000422183
0.00595681
-0.000406617
0.00599489
-0.000390392
0.00603146
-0.000373588
0.00606646
-0.000356289
0.00609984
-0.000338589
0.00613155
-0.000320584
0.00616157
-0.000302374
0.00618988
-0.000284061
0.00621647
-0.000265748
0.00624132
-0.000247533
0.00626446
-0.000229515
0.0062859
-0.000211784
0.00630566
-0.000194425
0.00632378
-0.000177515
0.0063403
-0.000161123
0.00635527
-0.000145307
0.00636874
-0.000130113
0.00638077
-0.00011558
0.00639142
-0.000101732
0.00640075
-8.85864e-05
0.00640884
-7.61485e-05
0.00641574
-6.44153e-05
0.00642152
-5.33761e-05
0.00642625
-4.30131e-05
0.00642998
-3.33031e-05
0.00643279
-2.42185e-05
0.00643471
-1.57289e-05
0.00643582
-7.80158e-06
0.00643617
-3.94901e-07