/*--------------------------------*- C++ -*----------------------------------*\
  =========                 |
  \\      /  F ield         | OpenFOAM: The Open Source CFD Toolbox
   \\    /   O peration     | Website:  https://openfoam.org
    \\  /    A nd           | Version:  7
     \\/     M anipulation  |
\*---------------------------------------------------------------------------*/
FoamFile
{
    version     2.0;
    format      ascii;
    class       volVectorField;
    location    "5";
    object      U;
}
// * * * * * * * * * * * * * * * * * * * * * * * * * * * * * * * * * * * * * //

dimensions      [0 1 -1 0 0 0 0];

internalField   nonuniform List<vector> 
21000
(
(0.270436 -0.00437863 8.84509e-22)
(0.310844 -0.00473807 2.59664e-21)
(0.352849 -0.00510978 -1.3397e-21)
(0.399773 -0.00556392 -2.74881e-21)
(0.44658 -0.00588807 -2.48425e-22)
(0.501172 -0.00666269 -9.13234e-22)
(0.272942 -0.0131304 4.66847e-21)
(0.313607 -0.0142036 -5.94087e-21)
(0.355844 -0.0153135 2.68696e-21)
(0.403022 -0.0166654 7.85798e-21)
(0.449937 -0.0176336 -1.6766e-22)
(0.504859 -0.0199296 -4.37146e-22)
(0.277936 -0.0218121 5.3033e-21)
(0.31911 -0.0235822 5.36278e-21)
(0.361806 -0.0254136 -5.76466e-21)
(0.409485 -0.0276339 -6.39151e-21)
(0.45661 -0.0292357 1.92805e-21)
(0.512177 -0.0329755 6.26638e-21)
(0.285384 -0.0303772 -6.52346e-21)
(0.327308 -0.0328168 -4.8136e-21)
(0.370679 -0.0353423 9.59765e-21)
(0.419087 -0.0383826 1.52799e-21)
(0.466515 -0.0406011 -4.90727e-21)
(0.523015 -0.0456585 -5.22696e-21)
(0.295235 -0.0387804 1.74272e-21)
(0.338134 -0.0418515 -5.15838e-21)
(0.382378 -0.0450336 4.50277e-21)
(0.431722 -0.0488281 -1.09611e-20)
(0.479528 -0.0516402 -3.74032e-21)
(0.537207 -0.057845 2.78883e-21)
(0.307419 -0.0469772 -3.21997e-20)
(0.351499 -0.0506324 -4.57619e-21)
(0.396792 -0.054424 6.608e-21)
(0.44725 -0.058891 7.14226e-21)
(0.49549 -0.062268 1.23758e-20)
(0.554542 -0.069412 -2.42665e-21)
(0.321854 -0.0549245 4.17047e-20)
(0.367297 -0.0591075 3.46305e-20)
(0.413788 -0.0634532 -2.54286e-20)
(0.465502 -0.0684968 1.27275e-20)
(0.514207 -0.0724054 -7.69994e-21)
(0.574765 -0.0802503 -1.31252e-21)
(0.338442 -0.0625811 -1.88252e-20)
(0.385401 -0.0672276 -1.39463e-20)
(0.433211 -0.0720646 2.63756e-20)
(0.486282 -0.0775777 -5.16824e-21)
(0.535459 -0.0819799 -1.88641e-20)
(0.597586 -0.0902655 1.26285e-20)
(0.357072 -0.0699074 -2.2461e-20)
(0.40567 -0.0749468 -2.87867e-20)
(0.454885 -0.0802058 -3.07137e-20)
(0.509372 -0.0860722 3.38933e-21)
(0.558998 -0.0909267 8.76742e-21)
(0.622686 -0.0993803 -1.85549e-20)
(0.427949 -0.0822221 4.41607e-20)
(0.478621 -0.0878291 1.2167e-20)
(0.534536 -0.0939268 -2.40329e-21)
(0.584563 -0.099189 3.0585e-20)
(0.649727 -0.107535 4.99503e-21)
(0.45207 -0.0890146 -6.96005e-20)
(0.504214 -0.094892 -6.8916e-22)
(0.561523 -0.101096 -1.34942e-20)
(0.611873 -0.106718 3.28475e-21)
(0.678357 -0.114686 -3.02001e-21)
(0.477855 -0.0952893 6.30762e-20)
(0.531451 -0.101357 1.01883e-20)
(0.590073 -0.107542 1.58457e-20)
(0.640643 -0.113475 -2.97082e-20)
(0.708219 -0.12081 1.49076e-20)
(0.505119 -0.101015 -7.95838e-21)
(0.560109 -0.107193 -7.76755e-21)
(0.61992 -0.113237 -1.571e-20)
(0.670581 -0.119429 2.37466e-20)
(0.73896 -0.125898 -2.44075e-20)
(0.533672 -0.106166 6.12886e-22)
(0.589963 -0.112373 -3.83728e-21)
(0.650795 -0.118161 3.80486e-20)
(0.701399 -0.124558 -6.60176e-21)
(0.770236 -0.129958 2.53029e-20)
(0.56332 -0.11072 3.60286e-22)
(0.620785 -0.116878 2.58817e-20)
(0.682434 -0.122302 -5.19255e-20)
(0.732811 -0.128851 3.53234e-20)
(0.80172 -0.133011 -2.18281e-20)
(0.593866 -0.11466 -4.52183e-20)
(0.652349 -0.120694 -2.26623e-20)
(0.714575 -0.125657 6.90069e-20)
(0.764542 -0.132302 -4.92525e-20)
(0.833103 -0.135092 -2.67683e-21)
(0.625117 -0.117973 2.52866e-20)
(0.684431 -0.123813 8.96961e-21)
(0.746968 -0.128231 -4.57295e-20)
(0.796329 -0.134919 -3.50734e-21)
(0.864105 -0.136244 2.65495e-20)
(0.656879 -0.120651 -2.5735e-21)
(0.716814 -0.126232 -3.4767e-20)
(0.779374 -0.130038 -1.36331e-20)
(0.827926 -0.136713 -1.25128e-20)
(0.894471 -0.136522 -3.8957e-21)
(0.688963 -0.122693 2.7058e-20)
(0.749288 -0.127956 -1.25106e-20)
(0.811567 -0.131094 5.29888e-20)
(0.859102 -0.137708 2.58396e-20)
(0.92398 -0.135985 -2.11259e-20)
(0.721187 -0.1241 -5.6897e-20)
(0.781655 -0.128994 3.30553e-20)
(0.843337 -0.131428 -2.47768e-20)
(0.889649 -0.137931 -5.35959e-20)
(0.952439 -0.134698 3.49935e-20)
(0.753374 -0.124877 3.57028e-20)
(0.813725 -0.12936 2.08927e-20)
(0.874494 -0.13107 -2.82611e-20)
(0.91938 -0.13742 5.86542e-20)
(0.979691 -0.132729 -3.26524e-20)
(0.785357 -0.125037 2.63437e-21)
(0.845323 -0.129076 -2.45533e-20)
(0.904865 -0.130055 7.38714e-21)
(0.94813 -0.136214 2.43283e-20)
(1.00561 -0.13015 -6.77966e-22)
(0.876287 -0.128164 2.34624e-20)
(0.934297 -0.128425 -3.65329e-20)
(0.975759 -0.134363 -9.06008e-21)
(1.03009 -0.127029 -9.40843e-21)
(0.906471 -0.126655 -3.26719e-20)
(0.962659 -0.126224 3.08193e-20)
(1.00215 -0.131916 -2.52015e-20)
(1.05308 -0.123437 2.55051e-20)
(0.935742 -0.124581 -7.73711e-21)
(0.989837 -0.123498 4.43914e-20)
(1.02721 -0.128928 5.59503e-20)
(1.07452 -0.11944 -1.68204e-21)
(0.963987 -0.121978 7.45858e-20)
(1.01574 -0.120294 -4.21386e-20)
(1.05087 -0.125455 -4.37565e-21)
(1.0944 -0.115103 -2.27205e-20)
(0.991106 -0.118886 -8.28922e-21)
(1.0403 -0.116663 4.73615e-22)
(1.07309 -0.121555 -2.6151e-20)
(1.11272 -0.110488 -1.53413e-21)
(1.01702 -0.115346 -2.09066e-20)
(1.06346 -0.112656 -2.20591e-21)
(1.09382 -0.117283 -4.25924e-20)
(1.12951 -0.105649 3.91742e-20)
(1.04165 -0.1114 6.41074e-20)
(1.08518 -0.10832 6.10408e-20)
(1.11308 -0.112695 -2.42188e-20)
(1.1448 -0.100641 -8.7022e-20)
(1.06497 -0.107092 -1.56751e-19)
(1.10546 -0.103707 -9.08397e-20)
(1.13087 -0.107846 2.65592e-20)
(1.15863 -0.0955096 8.63658e-20)
(1.12428 -0.0988628 1.00269e-20)
(1.14721 -0.102784 6.68972e-20)
(1.17107 -0.0902991 -1.08578e-20)
(1.14166 -0.0938347 1.06872e-19)
(1.16215 -0.097557 5.01365e-21)
(1.18218 -0.0850488 -3.51216e-20)
(1.15762 -0.0886664 -6.1281e-20)
(1.17574 -0.0922061 -8.17517e-20)
(1.19202 -0.0797945 4.81825e-20)
(1.17221 -0.0833994 2.25653e-20)
(1.18803 -0.0867677 -1.19262e-20)
(1.20067 -0.0745707 -1.06981e-19)
(1.18546 -0.0780724 8.28632e-21)
(1.19909 -0.0812726 -5.09056e-20)
(1.20817 -0.0694126 9.84193e-20)
(1.19744 -0.0727211 -1.13972e-20)
(1.20899 -0.0757453 1.02521e-19)
(1.2146 -0.06436 -4.49887e-20)
(1.21781 -0.0702036 5.64676e-20)
(1.22001 -0.0594529 7.50052e-20)
(1.22561 -0.0646527 -3.73159e-20)
(1.22442 -0.0547262 -5.90487e-20)
(1.23244 -0.0590813 1.19048e-20)
(1.22786 -0.05028 -1.12455e-20)
(1.23837 -0.0534854 -9.89436e-21)
(1.23049 -0.046506 1.045e-20)
(1.23282 -0.0439942 -8.17861e-21)
(1.23605 -0.0411517 1.01133e-20)
(1.239 -0.0379874 7.06819e-20)
(1.2415 -0.0345782 9.52719e-21)
(1.24143 0.0346569 -1.14586e-19)
(1.23892 0.038065 6.03803e-20)
(1.23597 0.041219 7.60974e-21)
(1.2327 0.0440904 -1.34839e-20)
(1.23839 0.0534993 -7.09332e-20)
(1.2304 0.0465613 8.42384e-21)
(1.23246 0.0591016 1.5081e-20)
(1.22778 0.0503187 -6.05502e-21)
(1.22562 0.0646774 -5.54145e-20)
(1.22436 0.0547575 -5.86235e-20)
(1.21783 0.0702309 5.85363e-20)
(1.21997 0.05948 5.89935e-20)
(1.19743 0.0727474 -5.0666e-20)
(1.20901 0.0757742 1.08953e-19)
(1.21457 0.0643844 -6.35414e-20)
(1.18546 0.0780976 6.668e-21)
(1.1991 0.0813022 -4.81386e-20)
(1.20815 0.0694353 9.78677e-20)
(1.1722 0.0834234 2.39713e-20)
(1.18804 0.0867975 -6.01421e-21)
(1.20065 0.0745923 -9.7701e-20)
(1.15762 0.0886894 -6.37858e-20)
(1.17575 0.0922356 -8.42708e-20)
(1.19202 0.0798154 4.39337e-20)
(1.14166 0.0938568 9.65547e-20)
(1.16217 0.0975859 1.0002e-20)
(1.18218 0.085069 -2.68186e-20)
(1.12428 0.0988841 4.13674e-21)
(1.14723 0.102812 6.79396e-20)
(1.17107 0.0903189 1.34342e-21)
(1.06498 0.107112 -1.6464e-20)
(1.10546 0.103727 -8.76954e-20)
(1.13088 0.107873 3.48061e-20)
(1.15864 0.095529 8.20349e-20)
(1.04167 0.111421 6.95352e-20)
(1.08519 0.10834 5.5982e-20)
(1.1131 0.112722 -2.70032e-20)
(1.1448 0.10066 -8.28148e-20)
(1.01703 0.115366 -3.51508e-20)
(1.06347 0.112675 1.52531e-21)
(1.09384 0.117308 -4.45334e-20)
(1.12952 0.105668 4.58641e-20)
(0.991121 0.118907 -2.35185e-21)
(1.04031 0.116683 3.69485e-21)
(1.0731 0.121579 -3.13966e-20)
(1.11273 0.110506 6.19127e-21)
(0.964003 0.121998 8.2242e-20)
(1.01575 0.120313 -4.97142e-20)
(1.05089 0.125479 -7.23216e-21)
(1.09441 0.115121 -1.53525e-20)
(0.935759 0.124601 -1.55492e-20)
(0.989849 0.123516 4.07798e-20)
(1.02723 0.128951 5.49507e-20)
(1.07453 0.119457 1.71401e-21)
(0.906489 0.126674 -2.5636e-20)
(0.962672 0.126242 3.67548e-20)
(1.00217 0.131938 -2.96497e-20)
(1.05309 0.123453 2.51741e-20)
(0.816994 0.124613 -8.76276e-20)
(0.876306 0.128183 2.83997e-20)
(0.934312 0.128443 -4.15822e-20)
(0.975777 0.134384 -1.03188e-20)
(1.03011 0.127045 -1.00715e-20)
(0.785375 0.125055 1.18963e-20)
(0.845342 0.129095 -3.18463e-20)
(0.904881 0.130073 1.62287e-20)
(0.948148 0.136235 2.10981e-20)
(1.00562 0.130165 -5.76727e-21)
(0.753392 0.124895 3.10056e-20)
(0.813744 0.129379 2.96363e-20)
(0.874511 0.131087 -2.94479e-20)
(0.919399 0.137439 5.95213e-20)
(0.979709 0.132745 -3.19374e-20)
(0.721205 0.124117 -6.36009e-20)
(0.781674 0.129013 3.38741e-20)
(0.843355 0.131445 -2.93822e-20)
(0.889668 0.13795 -4.68397e-20)
(0.952458 0.134713 3.16179e-20)
(0.688982 0.122711 3.07796e-20)
(0.749308 0.127975 -8.42051e-21)
(0.811585 0.131111 4.86212e-20)
(0.859122 0.137726 2.73076e-20)
(0.923999 0.135999 -2.28097e-20)
(0.656897 0.120669 -1.81347e-21)
(0.716833 0.126251 -3.57178e-20)
(0.779393 0.130054 -1.35786e-20)
(0.827945 0.136732 -1.25801e-20)
(0.894491 0.136536 -4.31607e-21)
(0.625135 0.11799 3.17865e-20)
(0.68445 0.123831 8.48916e-21)
(0.746987 0.128248 -4.30954e-20)
(0.796349 0.134937 -3.21961e-21)
(0.864125 0.136259 2.45827e-20)
(0.593885 0.114677 -3.75996e-20)
(0.652368 0.120713 -2.45652e-20)
(0.714594 0.125674 6.21563e-20)
(0.764561 0.13232 -4.89276e-20)
(0.833123 0.135106 -1.01938e-22)
(0.563338 0.110738 4.25823e-21)
(0.620804 0.116897 2.32426e-20)
(0.682452 0.122319 -5.1359e-20)
(0.73283 0.128868 3.05339e-20)
(0.801739 0.133026 -1.902e-20)
(0.53369 0.106184 3.63386e-21)
(0.589981 0.112391 -1.7477e-21)
(0.650813 0.118178 3.35398e-20)
(0.701418 0.124576 -1.05719e-20)
(0.770256 0.129972 2.77631e-20)
(0.505136 0.101033 -4.39931e-21)
(0.560127 0.107211 -1.2787e-20)
(0.619937 0.113254 -1.44403e-20)
(0.670599 0.119446 2.41341e-20)
(0.738979 0.125913 -2.2834e-20)
(0.477871 0.0953073 6.32463e-20)
(0.531468 0.101375 1.21406e-20)
(0.59009 0.107559 1.45156e-20)
(0.64066 0.113492 -3.00502e-20)
(0.708237 0.120824 1.53927e-20)
(0.452084 0.0890327 -6.81097e-20)
(0.50423 0.0949104 -1.06084e-21)
(0.561539 0.101113 -1.29692e-20)
(0.61189 0.106735 3.1885e-21)
(0.678374 0.114701 -4.33626e-21)
(0.427963 0.0822402 4.74856e-20)
(0.478636 0.0878476 1.16457e-20)
(0.534551 0.0939442 -1.75354e-21)
(0.584578 0.0992059 3.00061e-20)
(0.649743 0.107549 4.25487e-21)
(0.357085 0.0699252 3.16193e-20)
(0.405683 0.0749649 -2.69386e-20)
(0.454899 0.0802243 -3.10525e-20)
(0.509386 0.0860897 4.7979e-21)
(0.559013 0.0909437 6.19404e-21)
(0.622701 0.0993951 -1.79435e-20)
(0.338453 0.062599 -2.45438e-20)
(0.385412 0.0672458 -1.20742e-20)
(0.433223 0.0720831 2.70747e-20)
(0.486295 0.0775953 -4.33623e-21)
(0.535471 0.081997 -2.12962e-20)
(0.597599 0.0902805 1.31288e-20)
(0.321864 0.0549424 4.32057e-20)
(0.367307 0.0591257 3.06863e-20)
(0.413799 0.0634718 -2.19446e-20)
(0.465513 0.0685146 1.12791e-20)
(0.514219 0.0724225 -6.50669e-21)
(0.574777 0.0802654 -1.78711e-21)
(0.307427 0.0469951 -3.00648e-20)
(0.351508 0.0506507 -3.81487e-21)
(0.396801 0.0544426 3.29952e-21)
(0.44726 0.0589088 7.9572e-21)
(0.4955 0.0622852 1.26146e-20)
(0.554552 0.0694273 -3.1821e-21)
(0.295241 0.0387983 2.1116e-21)
(0.338141 0.0418699 -3.66624e-21)
(0.382385 0.0450522 3.77855e-21)
(0.43173 0.0488461 -1.04815e-20)
(0.479536 0.0516574 -3.63293e-21)
(0.537216 0.0578604 2.49187e-21)
(0.28539 0.0303952 -6.40526e-21)
(0.327313 0.0328352 -5.53822e-21)
(0.370685 0.035361 9.49979e-21)
(0.419093 0.0384007 1.20804e-21)
(0.466521 0.0406184 -4.19442e-21)
(0.523022 0.0456741 -5.57109e-21)
(0.27794 0.0218301 4.40549e-21)
(0.319114 0.0236006 6.36964e-21)
(0.361811 0.0254323 -5.39391e-21)
(0.409489 0.027652 -7.35297e-21)
(0.456615 0.029253 2.39745e-21)
(0.512182 0.0329912 6.33428e-21)
(0.272944 0.0131484 4.53904e-21)
(0.313609 0.014222 -5.75176e-21)
(0.355847 0.0153322 2.70798e-21)
(0.403025 0.0166835 8.07443e-21)
(0.44994 0.0176509 -2.39952e-22)
(0.504862 0.0199454 -1.81073e-22)
(0.270437 0.00439662 8.38201e-22)
(0.310845 0.0047565 2.565e-21)
(0.35285 0.00512853 -1.35161e-21)
(0.399774 0.00558208 -2.60884e-21)
(0.446581 0.00590544 -4.26156e-22)
(0.501173 0.00667846 -8.24045e-22)
(0.532583 -0.00635717 3.31605e-22)
(0.542401 -0.00627039 -1.71835e-22)
(0.552176 -0.00619565 -1.07432e-24)
(0.562016 -0.00612798 2.45271e-23)
(0.571904 -0.00606528 -1.86765e-23)
(0.581835 -0.00600639 -7.5694e-23)
(0.591814 -0.00595018 5.8756e-23)
(0.601845 -0.00589553 1.22172e-22)
(0.611931 -0.00584151 -8.67691e-23)
(0.622069 -0.00578728 1.36167e-23)
(0.632259 -0.0057321 -1.93996e-23)
(0.642498 -0.00567531 5.14465e-23)
(0.652782 -0.0056163 -3.70066e-23)
(0.663105 -0.00555456 6.54589e-23)
(0.67346 -0.00548959 -7.77774e-23)
(0.68384 -0.00542098 1.68286e-23)
(0.694236 -0.00534836 3.31598e-23)
(0.704638 -0.00527139 -2.93753e-23)
(0.715035 -0.0051898 2.80006e-23)
(0.725416 -0.00510336 -3.77177e-23)
(0.735766 -0.00501189 2.40198e-24)
(0.746074 -0.00491526 1.89188e-23)
(0.756323 -0.00481339 -2.45483e-23)
(0.7665 -0.00470626 1.48639e-23)
(0.776589 -0.0045939 -9.88775e-24)
(0.786573 -0.00447641 5.00765e-24)
(0.796435 -0.00435392 8.0879e-25)
(0.80616 -0.00422665 -1.47405e-24)
(0.815729 -0.00409485 1.73944e-24)
(0.825127 -0.00395885 -3.24757e-24)
(0.834337 -0.00381903 -1.37701e-24)
(0.843342 -0.00367582 1.92674e-24)
(0.852126 -0.00352971 -5.06041e-24)
(0.860676 -0.00338122 -3.29049e-24)
(0.868976 -0.00323093 1.1847e-23)
(0.877014 -0.00307945 -2.54361e-25)
(0.884777 -0.00292741 -6.87471e-24)
(0.892256 -0.00277545 -3.9703e-24)
(0.899442 -0.00262426 6.7541e-24)
(0.906327 -0.00247448 -7.00904e-25)
(0.912905 -0.00232678 8.12241e-24)
(0.919172 -0.00218179 -1.67497e-23)
(0.925127 -0.00204011 1.61672e-23)
(0.93077 -0.00190232 -1.7687e-23)
(0.936101 -0.00176892 9.573e-24)
(0.941125 -0.00164038 4.22094e-24)
(0.945845 -0.0015171 3.35795e-25)
(0.950269 -0.00139941 -1.87668e-25)
(0.954404 -0.00128757 -5.57253e-24)
(0.958259 -0.00118177 2.09773e-24)
(0.961846 -0.00108211 -5.09525e-24)
(0.965174 -0.000988644 2.81171e-24)
(0.968256 -0.000901345 2.4133e-24)
(0.971104 -0.000820126 -3.1881e-24)
(0.973731 -0.000744842 2.74677e-24)
(0.97615 -0.000675302 -1.08852e-24)
(0.978372 -0.000611274 1.34621e-24)
(0.980412 -0.000552494 -1.65947e-24)
(0.982281 -0.000498675 3.1143e-24)
(0.983992 -0.000449515 -1.69198e-25)
(0.985555 -0.000404703 -2.55012e-24)
(0.986982 -0.000363928 1.77682e-24)
(0.988283 -0.000326884 2.116e-25)
(0.989467 -0.000293275 -5.1028e-25)
(0.990545 -0.000262827 -5.23657e-25)
(0.991524 -0.000235265 5.21601e-25)
(0.992412 -0.00021034 -7.95238e-26)
(0.993217 -0.000187823 4.89956e-25)
(0.993945 -0.000167501 9.40729e-26)
(0.994603 -0.000149178 -8.25307e-25)
(0.995197 -0.000132678 -1.37974e-25)
(0.995732 -0.000117836 2.99164e-27)
(0.996213 -0.000104504 4.22691e-25)
(0.996645 -9.25449e-05 -6.25412e-26)
(0.997033 -8.18338e-05 5.17219e-26)
(0.99738 -7.22557e-05 -1.51467e-25)
(0.99769 -6.37046e-05 7.14822e-26)
(0.997966 -5.60833e-05 -1.05686e-25)
(0.998213 -4.93019e-05 2.79318e-26)
(0.998432 -4.32782e-05 -1.48123e-25)
(0.998627 -3.79363e-05 -1.42133e-25)
(0.998799 -3.32069e-05 7.69253e-26)
(0.998952 -2.90264e-05 -6.50891e-26)
(0.999086 -2.53371e-05 4.50527e-26)
(0.999205 -2.20862e-05 -6.91788e-26)
(0.99931 -1.92261e-05 8.03291e-26)
(0.999402 -1.67135e-05 1.99452e-26)
(0.999482 -1.45096e-05 3.92234e-27)
(0.999553 -1.25793e-05 -9.37469e-27)
(0.999615 -1.08911e-05 1.70943e-27)
(0.999669 -9.4169e-06 -2.24129e-26)
(0.999716 -8.13125e-06 -1.62225e-27)
(0.999756 -7.01196e-06 8.39793e-27)
(0.999792 -6.03825e-06 2.721e-28)
(0.999823 -5.19392e-06 1.1839e-26)
(0.999849 -4.45934e-06 8.53708e-28)
(0.999872 -3.82912e-06 9.5253e-27)
(0.999893 -3.27114e-06 6.66437e-27)
(0.999906 -2.81911e-06 -1.77162e-27)
(0.99993 -2.35675e-06 4.61956e-27)
(0.536038 -0.0190199 1.92108e-22)
(0.545752 -0.0187622 -5.47736e-23)
(0.555422 -0.0185401 5.68393e-26)
(0.565164 -0.0183387 3.71391e-22)
(0.574958 -0.0181519 2.29337e-22)
(0.584795 -0.0179763 -6.57135e-22)
(0.594682 -0.0178085 8.89034e-23)
(0.604623 -0.0176452 8.64461e-22)
(0.614618 -0.0174837 -4.98176e-22)
(0.624668 -0.0173215 1.5765e-22)
(0.63477 -0.0171564 -1.43762e-22)
(0.644922 -0.0169864 3.96986e-23)
(0.655119 -0.0168097 8.43842e-23)
(0.665356 -0.0166247 -1.82571e-22)
(0.675626 -0.0164301 1.36312e-22)
(0.685921 -0.0162246 2.64636e-23)
(0.696233 -0.016007 -3.95461e-23)
(0.706552 -0.0157763 -1.53587e-22)
(0.716867 -0.0155318 1.94723e-22)
(0.727166 -0.0152728 -1.03664e-22)
(0.737436 -0.0149987 7.32579e-23)
(0.747664 -0.0147091 -5.08756e-23)
(0.757835 -0.0144039 1.96057e-23)
(0.767935 -0.0140829 -1.65594e-23)
(0.777948 -0.0137462 1.07453e-23)
(0.787858 -0.0133941 -1.1008e-24)
(0.797648 -0.0130271 1.94639e-24)
(0.807302 -0.0126458 1.36776e-24)
(0.816802 -0.0122509 -4.69009e-25)
(0.826134 -0.0118435 -2.07407e-24)
(0.835278 -0.0114246 4.10217e-24)
(0.844221 -0.0109956 -9.43778e-24)
(0.852945 -0.0105579 3.27865e-24)
(0.861436 -0.0101131 4.21894e-24)
(0.869681 -0.00966292 8.80448e-25)
(0.877665 -0.00920919 -4.48708e-24)
(0.885378 -0.00875381 7.96487e-24)
(0.892809 -0.00829872 1.21179e-23)
(0.899949 -0.00784592 6.5049e-24)
(0.90679 -0.0073974 9.05921e-24)
(0.913328 -0.00695512 -1.16186e-23)
(0.919558 -0.00652097 -7.31865e-24)
(0.925477 -0.00609678 2.16039e-23)
(0.931087 -0.00568423 -1.98135e-23)
(0.936388 -0.00528488 -5.45902e-24)
(0.941383 -0.00490011 1.23074e-23)
(0.946077 -0.00453111 -5.11716e-24)
(0.950477 -0.00417887 -1.89979e-23)
(0.954591 -0.00384416 5.98519e-24)
(0.958427 -0.00352755 -3.04355e-24)
(0.961995 -0.00322938 1.19996e-23)
(0.965307 -0.00294975 -1.15472e-23)
(0.968375 -0.00268861 5.53586e-24)
(0.97121 -0.00244568 4.69685e-24)
(0.973825 -0.00222054 -2.44426e-25)
(0.976233 -0.0020126 -1.06604e-25)
(0.978446 -0.00182117 1.98825e-24)
(0.980478 -0.00164546 -7.11542e-24)
(0.982339 -0.00148461 1.73202e-24)
(0.984043 -0.0013377 5.1092e-24)
(0.985601 -0.00120381 -1.06606e-24)
(0.987022 -0.001082 -6.79193e-24)
(0.988319 -0.000971359 -7.91577e-26)
(0.989499 -0.000870997 2.01011e-24)
(0.990573 -0.000780087 2.66678e-24)
(0.991549 -0.000697813 -5.56107e-25)
(0.992434 -0.000623429 1.3961e-24)
(0.993236 -0.000556247 -9.16048e-25)
(0.993962 -0.000495631 -6.56142e-25)
(0.994618 -0.000440998 1.10131e-24)
(0.99521 -0.000391815 -6.35867e-25)
(0.995743 -0.000347595 1.08383e-25)
(0.996223 -0.000307891 4.57406e-25)
(0.996654 -0.000272294 -7.99721e-26)
(0.997041 -0.000240431 -5.38302e-25)
(0.997387 -0.000211956 -2.12377e-25)
(0.997696 -0.000186554 -4.25695e-25)
(0.997972 -0.000163932 3.93637e-25)
(0.998218 -0.000143822 4.73341e-26)
(0.998436 -0.000125977 1.19616e-25)
(0.99863 -0.00011017 -1.92181e-25)
(0.998802 -9.61921e-05 3.60313e-25)
(0.998954 -8.38539e-05 -7.74538e-26)
(0.999089 -7.29816e-05 -1.98184e-25)
(0.999207 -6.34174e-05 2.415e-25)
(0.999312 -5.50182e-05 -2.25296e-26)
(0.999403 -4.76547e-05 -9.21005e-26)
(0.999484 -4.121e-05 -3.77542e-26)
(0.999554 -3.55792e-05 -5.43964e-27)
(0.999616 -3.06681e-05 1.00849e-26)
(0.99967 -2.63923e-05 -8.66771e-27)
(0.999716 -2.26759e-05 -3.77803e-27)
(0.999757 -1.94526e-05 -1.19631e-26)
(0.999793 -1.66602e-05 1.35808e-26)
(0.999823 -1.42503e-05 -3.19368e-27)
(0.99985 -1.21646e-05 -1.24084e-26)
(0.999872 -1.03864e-05 6.3926e-28)
(0.999894 -8.82169e-06 -5.87314e-27)
(0.999907 -7.56722e-06 2.77888e-27)
(0.99993 -6.2871e-06 -1.69061e-26)
(0.542896 -0.0314862 2.9476e-22)
(0.552404 -0.0310667 8.18696e-22)
(0.561867 -0.0307052 -9.00827e-22)
(0.571415 -0.0303765 5.59636e-22)
(0.581021 -0.030071 -5.63187e-22)
(0.590673 -0.0297835 -8.79235e-23)
(0.600377 -0.0295085 2.24045e-23)
(0.610138 -0.0292407 4.32421e-22)
(0.619956 -0.0289754 -1.10786e-22)
(0.62983 -0.0287088 9.82981e-23)
(0.639758 -0.0284371 -1.88957e-22)
(0.649736 -0.0281571 9.72152e-23)
(0.659761 -0.027866 -1.68154e-22)
(0.669828 -0.027561 -1.0898e-22)
(0.679928 -0.02724 2.91094e-22)
(0.690056 -0.0269008 4.22238e-23)
(0.700201 -0.0265415 -2.38018e-22)
(0.710355 -0.0261606 2.6388e-22)
(0.720506 -0.0257566 -2.90695e-22)
(0.730643 -0.0253285 1.19544e-22)
(0.740754 -0.0248753 9.5449e-23)
(0.750824 -0.0243965 -8.60114e-23)
(0.76084 -0.0238916 2.00795e-23)
(0.770788 -0.0233605 1.26085e-23)
(0.78065 -0.0228033 -2.332e-23)
(0.790413 -0.0222206 8.47702e-24)
(0.80006 -0.021613 2.69246e-25)
(0.809573 -0.0209815 -7.14818e-25)
(0.818937 -0.0203276 9.28938e-26)
(0.828135 -0.0196527 -8.67799e-24)
(0.837151 -0.0189587 7.64156e-24)
(0.845969 -0.0182479 9.85109e-24)
(0.854573 -0.0175225 1.73776e-23)
(0.862949 -0.0167853 -4.40351e-23)
(0.871083 -0.0160391 6.20638e-24)
(0.878961 -0.0152869 3.56988e-24)
(0.886573 -0.0145318 1.23106e-23)
(0.893908 -0.0137771 8.76081e-24)
(0.900958 -0.0130262 -4.11157e-23)
(0.907713 -0.0122822 2.44662e-23)
(0.914171 -0.0115485 -1.27902e-23)
(0.920325 -0.0108283 -1.34252e-23)
(0.926174 -0.0101244 9.4575e-24)
(0.931718 -0.00943985 2.08994e-23)
(0.936958 -0.00877709 -8.19822e-24)
(0.941897 -0.00813846 -1.44581e-23)
(0.94654 -0.00752595 -9.06277e-24)
(0.950893 -0.0069412 3.28035e-23)
(0.954963 -0.00638551 -1.72047e-23)
(0.95876 -0.00585981 2.1344e-23)
(0.962293 -0.00536467 -3.07002e-23)
(0.965573 -0.0049003 1.46347e-23)
(0.968611 -0.00446658 4.18799e-24)
(0.97142 -0.00406307 -9.56974e-24)
(0.974012 -0.00368908 -2.74406e-24)
(0.976399 -0.00334364 1.02918e-23)
(0.978593 -0.0030256 1.68877e-23)
(0.980608 -0.00273365 -1.81565e-24)
(0.982455 -0.00246636 -1.31262e-23)
(0.984146 -0.00222224 1.03861e-23)
(0.985692 -0.00199973 2.04118e-24)
(0.987103 -0.00179729 -2.86607e-24)
(0.98839 -0.00161341 -2.84906e-24)
(0.989562 -0.0014466 -7.04206e-25)
(0.990629 -0.00129549 -2.9953e-24)
(0.991598 -0.00115874 -1.49536e-25)
(0.992478 -0.00103509 3.18206e-24)
(0.993275 -0.00092342 4.38949e-25)
(0.993996 -0.000822662 7.98004e-25)
(0.994648 -0.000731852 1.08452e-24)
(0.995237 -0.000650104 -1.46002e-24)
(0.995767 -0.000576607 -8.24425e-25)
(0.996244 -0.00051062 1.35573e-24)
(0.996673 -0.000451465 -1.69519e-24)
(0.997057 -0.000398519 1.19998e-24)
(0.997401 -0.000351209 -7.37137e-25)
(0.997708 -0.000309009 4.67507e-25)
(0.997983 -0.000271435 -4.70638e-25)
(0.998227 -0.000238038 -5.00437e-25)
(0.998444 -0.000208409 4.09619e-25)
(0.998637 -0.000182169 8.1535e-26)
(0.998808 -0.000158972 4.64676e-27)
(0.99896 -0.000138501 -3.00116e-25)
(0.999094 -0.000120469 2.39848e-25)
(0.999211 -0.000104611 -3.44577e-25)
(0.999315 -9.06901e-05 1.20435e-25)
(0.999406 -7.84908e-05 -1.17655e-25)
(0.999486 -6.78189e-05 1.29464e-25)
(0.999557 -5.84995e-05 8.82036e-27)
(0.999618 -5.03759e-05 1.02396e-26)
(0.999671 -4.33076e-05 1.38728e-25)
(0.999718 -3.71686e-05 -1.13111e-26)
(0.999758 -3.18482e-05 7.56479e-26)
(0.999794 -2.72433e-05 7.23519e-27)
(0.999824 -2.32731e-05 -2.05088e-26)
(0.999851 -1.9841e-05 5.03852e-26)
(0.999873 -1.69189e-05 -3.00715e-27)
(0.999894 -1.43509e-05 -2.18546e-26)
(0.999907 -1.2297e-05 -1.09944e-27)
(0.99993 -1.0202e-05 1.41238e-26)
(0.553053 -0.0436295 -9.74858e-22)
(0.562258 -0.0430632 1.36301e-21)
(0.571416 -0.042575 -3.54076e-22)
(0.580678 -0.0421294 6.44978e-22)
(0.590005 -0.0417143 -1.66114e-21)
(0.599384 -0.0413229 8.13671e-22)
(0.608819 -0.0409479 6.54273e-22)
(0.618314 -0.040582 3.91661e-22)
(0.627869 -0.0402191 -8.57254e-22)
(0.637482 -0.0398538 -5.1222e-22)
(0.647152 -0.039481 5.69591e-22)
(0.656875 -0.0390966 3.0688e-22)
(0.666646 -0.0386963 -6.2446e-22)
(0.67646 -0.0382768 2.75518e-22)
(0.68631 -0.0378346 -1.21449e-22)
(0.696189 -0.0373671 2.20299e-23)
(0.706088 -0.0368716 2.3908e-23)
(0.715997 -0.036346 2.52658e-22)
(0.725906 -0.0357882 -2.04374e-22)
(0.735804 -0.0351967 2.29115e-22)
(0.745678 -0.0345704 -2.04765e-22)
(0.755515 -0.0339082 2.31213e-23)
(0.765302 -0.0332098 -1.1897e-23)
(0.775023 -0.0324748 -1.18186e-23)
(0.784663 -0.0317034 -1.70853e-23)
(0.794208 -0.0308964 -1.15566e-23)
(0.803642 -0.0300547 7.81104e-24)
(0.812947 -0.0291797 -2.11148e-23)
(0.822109 -0.0282732 8.59851e-24)
(0.83111 -0.0273374 1.34602e-23)
(0.839935 -0.0263749 -1.71782e-23)
(0.848568 -0.0253888 -1.54524e-23)
(0.856994 -0.0243823 5.52052e-23)
(0.865199 -0.0233591 -2.65889e-23)
(0.873168 -0.0223231 -1.1163e-23)
(0.88089 -0.0212786 1.8178e-23)
(0.888352 -0.0202298 -6.09193e-23)
(0.895545 -0.0191815 4.48272e-23)
(0.902459 -0.018138 1.77358e-23)
(0.909088 -0.0171041 -2.7061e-23)
(0.915425 -0.0160842 2.57281e-23)
(0.921467 -0.0150828 -6.01666e-23)
(0.927212 -0.0141041 -2.62208e-24)
(0.932659 -0.013152 2.64503e-23)
(0.937808 -0.01223 3.34066e-25)
(0.942664 -0.0113414 4.13397e-23)
(0.94723 -0.0104891 -2.32688e-23)
(0.951513 -0.00967518 1.29675e-23)
(0.955519 -0.0089016 8.37261e-25)
(0.959257 -0.00816965 -2.06813e-23)
(0.962737 -0.00748011 1.85733e-23)
(0.965969 -0.00683332 -1.18143e-23)
(0.968964 -0.00622912 -6.48378e-24)
(0.971734 -0.00566692 1.73199e-23)
(0.974291 -0.00514574 -1.46232e-23)
(0.976646 -0.00466428 -5.00115e-24)
(0.978813 -0.00422094 1.10498e-23)
(0.980803 -0.0038139 -3.52613e-25)
(0.982628 -0.0034412 -1.14364e-23)
(0.984299 -0.00310074 1.60068e-23)
(0.985827 -0.00279038 -1.37843e-24)
(0.987223 -0.00250799 -1.15659e-23)
(0.988497 -0.00225144 -4.67186e-25)
(0.989657 -0.00201867 2.8297e-25)
(0.990713 -0.00180782 2.85214e-24)
(0.991672 -0.00161696 2.9626e-25)
(0.992543 -0.00144439 -2.41915e-25)
(0.993333 -0.00128852 -1.57021e-24)
(0.994047 -0.00114787 -4.01197e-25)
(0.994694 -0.0010211 -2.72718e-24)
(0.995277 -0.000906981 2.95507e-24)
(0.995802 -0.000804377 4.68161e-25)
(0.996275 -0.000712257 7.80664e-25)
(0.9967 -0.000629674 -2.03733e-24)
(0.997081 -0.00055576 8.88205e-25)
(0.997422 -0.000489717 1.36806e-24)
(0.997727 -0.00043081 -6.42329e-25)
(0.997999 -0.000378361 1.23869e-24)
(0.998241 -0.000331748 -7.82032e-25)
(0.998457 -0.000290396 -1.21876e-25)
(0.998648 -0.000253778 5.78667e-25)
(0.998818 -0.00022141 -2.13625e-25)
(0.998968 -0.00019285 3.43624e-25)
(0.999101 -0.000167694 -1.30269e-25)
(0.999218 -0.000145575 4.47875e-25)
(0.999321 -0.000126162 -6.11678e-26)
(0.999411 -0.000109153 1.22153e-25)
(0.99949 -9.42759e-05 -2.2827e-25)
(0.99956 -8.12877e-05 1.37451e-25)
(0.999621 -6.99689e-05 -1.3293e-26)
(0.999674 -6.01234e-05 -2.89338e-26)
(0.99972 -5.1575e-05 -1.01907e-26)
(0.99976 -4.41692e-05 -6.19321e-27)
(0.999795 -3.77619e-05 3.81632e-26)
(0.999825 -3.22404e-05 1.84221e-26)
(0.999852 -2.74696e-05 -3.72673e-26)
(0.999874 -2.34102e-05 1.98798e-26)
(0.999895 -1.98449e-05 3.96547e-26)
(0.999908 -1.69965e-05 2.77396e-27)
(0.999931 -1.40912e-05 2.96315e-26)
(0.566357 -0.0553297 2.26206e-22)
(0.575167 -0.0546367 5.06088e-22)
(0.583929 -0.0540391 1.37875e-21)
(0.592817 -0.0534908 -1.75373e-21)
(0.601781 -0.0529783 7.82675e-22)
(0.610803 -0.052494 -1.80686e-22)
(0.619887 -0.0520287 1.03782e-22)
(0.629034 -0.0515737 -3.55028e-22)
(0.638246 -0.0511216 2.68853e-22)
(0.647519 -0.0506655 5.18029e-22)
(0.656852 -0.0501994 -2.48732e-22)
(0.66624 -0.0497178 -4.81833e-23)
(0.675679 -0.0492158 -9.16999e-22)
(0.685163 -0.0486889 2.43218e-22)
(0.694685 -0.048133 3.63384e-22)
(0.704239 -0.0475445 9.55399e-23)
(0.713816 -0.0469203 -1.92897e-22)
(0.723406 -0.0462575 -2.03472e-22)
(0.732998 -0.0455536 2.59297e-22)
(0.742583 -0.0448068 1.39751e-22)
(0.752147 -0.0440153 -2.80269e-22)
(0.761679 -0.0431781 2.4593e-22)
(0.771164 -0.0422944 5.39972e-23)
(0.780589 -0.041364 -1.56363e-22)
(0.789939 -0.0403872 7.78743e-23)
(0.799199 -0.0393647 6.47436e-24)
(0.808353 -0.0382977 -2.83502e-23)
(0.817386 -0.0371881 -4.04184e-23)
(0.826282 -0.036038 1.29827e-23)
(0.835025 -0.0348504 -1.39292e-24)
(0.843599 -0.0336284 -8.0561e-25)
(0.85199 -0.032376 -3.88531e-23)
(0.860183 -0.0310972 6.93106e-23)
(0.868162 -0.0297968 -2.32956e-23)
(0.875916 -0.0284798 -4.88265e-23)
(0.883431 -0.0271514 -2.19361e-23)
(0.890697 -0.0258174 1.363e-22)
(0.897702 -0.0244834 -7.95143e-23)
(0.90444 -0.0231553 -3.75519e-23)
(0.910901 -0.0218389 1.22881e-22)
(0.917081 -0.0205401 -5.28041e-23)
(0.922976 -0.0192645 1.57923e-24)
(0.928583 -0.0180174 -2.50633e-23)
(0.933901 -0.0168039 -3.89527e-23)
(0.938932 -0.0156285 7.57022e-23)
(0.943678 -0.0144954 -2.04258e-23)
(0.948143 -0.0134082 2.60287e-23)
(0.952332 -0.0123699 -2.67124e-23)
(0.956254 -0.0113827 5.42728e-24)
(0.959915 -0.0104484 -2.51248e-23)
(0.963324 -0.00956804 1.88728e-23)
(0.966493 -0.00874205 2.60583e-25)
(0.969431 -0.00797027 8.12639e-25)
(0.97215 -0.00725196 -2.89508e-23)
(0.97466 -0.00658592 7.18151e-24)
(0.976975 -0.00597048 1.55644e-23)
(0.979105 -0.00540365 -1.58366e-23)
(0.981062 -0.00488313 1.16992e-23)
(0.982858 -0.0044064 -7.43211e-24)
(0.984503 -0.00397083 -5.20544e-24)
(0.986008 -0.00357369 6.11191e-24)
(0.987383 -0.00321227 1.76116e-24)
(0.988638 -0.00288386 -1.45667e-23)
(0.989782 -0.00258585 1.31528e-23)
(0.990824 -0.00231586 -1.09667e-23)
(0.99177 -0.00207143 3.57768e-24)
(0.99263 -0.00185039 3.75354e-24)
(0.99341 -0.00165072 3.817e-24)
(0.994115 -0.00147053 -3.43859e-24)
(0.994754 -0.00130812 -2.77665e-24)
(0.99533 -0.00116189 4.18148e-24)
(0.995849 -0.00103042 -1.13754e-24)
(0.996316 -0.00091237 4.39318e-26)
(0.996736 -0.000806542 -2.01432e-25)
(0.997113 -0.000711821 -9.85463e-25)
(0.99745 -0.000627187 1.48149e-24)
(0.997751 -0.000551697 -1.9262e-24)
(0.99802 -0.000484485 2.60524e-24)
(0.99826 -0.000424753 -1.27744e-24)
(0.998473 -0.000371764 5.51292e-25)
(0.998663 -0.000324843 3.82896e-26)
(0.99883 -0.000283371 1.85463e-26)
(0.998979 -0.00024678 -2.9774e-26)
(0.99911 -0.000214554 -3.00313e-25)
(0.999226 -0.000186221 2.18247e-25)
(0.999328 -0.000161355 3.60246e-26)
(0.999417 -0.000139571 -2.15604e-25)
(0.999496 -0.000120521 2.84554e-25)
(0.999565 -0.000103892 -5.71991e-26)
(0.999625 -8.94018e-05 1.01799e-26)
(0.999677 -7.68004e-05 -7.22562e-26)
(0.999723 -6.58611e-05 -6.04045e-26)
(0.999763 -5.63862e-05 -3.076e-26)
(0.999797 -4.81908e-05 1.72861e-26)