/*--------------------------------*- C++ -*----------------------------------*\
  =========                 |
  \\      /  F ield         | OpenFOAM: The Open Source CFD Toolbox
   \\    /   O peration     | Website:  https://openfoam.org
    \\  /    A nd           | Version:  7
     \\/     M anipulation  |
\*---------------------------------------------------------------------------*/
FoamFile
{
    version     2.0;
    format      ascii;
    class       volScalarField;
    location    "5";
    object      p;
}
// * * * * * * * * * * * * * * * * * * * * * * * * * * * * * * * * * * * * * //

dimensions      [0 2 -2 0 0 0 0];

internalField   nonuniform List<scalar> 
6050
(
-0.458284
-0.472496
-0.478655
-0.473302
-0.453345
-0.416967
-0.364852
-0.29981
-0.227473
-0.155278
-0.0883349
-0.0343285
0.00904398
-0.460199
-0.474996
-0.481928
-0.477543
-0.45872
-0.423603
-0.372382
-0.307872
-0.235594
-0.163158
-0.0953406
-0.0410791
0.00299046
-0.463658
-0.479484
-0.487771
-0.485091
-0.468262
-0.435203
-0.38567
-0.32217
-0.250067
-0.177282
-0.10837
-0.0532535
-0.00842015
-0.468001
-0.485063
-0.494979
-0.494345
-0.479893
-0.449387
-0.40202
-0.339824
-0.267899
-0.194853
-0.125512
-0.0692824
-0.0238575
-0.472417
-0.490658
-0.502151
-0.503533
-0.491563
-0.46356
-0.41839
-0.357449
-0.286312
-0.213397
-0.144152
-0.0872119
-0.0415613
-0.495223
-0.507977
-0.511016
-0.50111
-0.475273
-0.432055
-0.372721
-0.302685
-0.230459
-0.162062
-0.10517
-0.0597754
-0.497926
-0.511477
-0.515679
-0.507207
-0.483036
-0.441446
-0.383692
-0.315168
-0.244368
-0.177626
-0.121679
-0.0770931
-0.498286
-0.512087
-0.516834
-0.509231
-0.486126
-0.44573
-0.389513
-0.322897
-0.254301
-0.189999
-0.135847
-0.0926116
-0.496104
-0.509684
-0.51449
-0.507138
-0.484483
-0.44484
-0.390121
-0.325809
-0.260158
-0.198998
-0.147345
-0.105904
-0.491545
-0.504577
-0.50897
-0.501276
-0.478468
-0.439186
-0.385983
-0.324396
-0.262342
-0.204877
-0.156234
-0.116897
-0.48502
-0.497216
-0.500759
-0.492144
-0.468624
-0.429447
-0.377903
-0.319492
-0.261544
-0.208131
-0.1628
-0.125727
-0.488109
-0.490326
-0.480223
-0.455556
-0.416459
-0.366877
-0.312077
-0.258555
-0.209323
-0.167412
-0.132634
-0.477665
-0.478024
-0.465939
-0.439935
-0.401169
-0.353956
-0.3031
-0.254096
-0.208975
-0.170438
-0.137885
-0.46613
-0.464105
-0.449745
-0.422535
-0.384558
-0.340103
-0.293346
-0.248735
-0.207507
-0.172202
-0.141742
-0.453627
-0.448822
-0.432187
-0.404188
-0.367519
-0.326076
-0.283376
-0.242859
-0.20523
-0.172961
-0.144433
-0.432518
-0.413907
-0.385681
-0.350744
-0.312389
-0.273533
-0.236701
-0.202361
-0.172894
-0.146121
-0.415635
-0.395544
-0.367635
-0.334682
-0.299333
-0.263994
-0.230395
-0.19905
-0.172075
-0.14686
-0.377633
-0.350457
-0.319569
-0.287038
-0.254829
-0.224036
-0.195407
-0.170476
-0.14665
-0.360541
-0.334357
-0.305482
-0.275526
-0.246055
-0.217724
-0.191518
-0.168051
-0.145618
-0.31939
-0.292401
-0.264749
-0.237659
-0.211546
-0.187449
-0.164982
-0.144283
-0.305513
-0.280241
-0.254626
-0.229609
-0.205518
-0.183254
-0.161972
-0.142982
-0.268892
-0.245063
-0.221869
-0.199584
-0.178903
-0.159252
-0.141975
-0.258242
-0.235977
-0.214389
-0.193698
-0.174513
-0.156337
-0.140305
-0.227289
-0.207114
-0.187851
-0.169985
-0.153117
-0.138268
-0.199999
-0.182
-0.165324
-0.149622
-0.135754
-0.176127
-0.160506
-0.145831
-0.132877
-0.155529
-0.141784
-0.129643
-0.137487
-0.126093
-0.137487
-0.126093
-0.155529
-0.141784
-0.129643
-0.176127
-0.160506
-0.145831
-0.132877
-0.199999
-0.182
-0.165324
-0.149622
-0.135754
-0.227289
-0.207114
-0.187851
-0.169985
-0.153117
-0.138268
-0.258242
-0.235977
-0.214389
-0.193698
-0.174513
-0.156337
-0.140305
-0.268892
-0.245063
-0.221869
-0.199584
-0.178903
-0.159252
-0.141975
-0.305513
-0.280241
-0.254626
-0.229609
-0.205518
-0.183254
-0.161972
-0.142982
-0.31939
-0.292401
-0.264749
-0.237659
-0.211546
-0.187449
-0.164982
-0.144283
-0.360541
-0.334357
-0.305482
-0.275526
-0.246055
-0.217724
-0.191518
-0.168051
-0.145618
-0.377633
-0.350457
-0.319569
-0.287038
-0.254829
-0.224036
-0.195407
-0.170476
-0.14665
-0.415635
-0.395544
-0.367635
-0.334682
-0.299333
-0.263994
-0.230395
-0.19905
-0.172075
-0.14686
-0.432518
-0.413907
-0.385681
-0.350744
-0.312389
-0.273533
-0.236701
-0.202361
-0.172894
-0.146121
-0.453627
-0.448822
-0.432187
-0.404188
-0.367519
-0.326076
-0.283376
-0.242859
-0.20523
-0.172961
-0.144433
-0.46613
-0.464105
-0.449745
-0.422535
-0.384558
-0.340103
-0.293346
-0.248735
-0.207507
-0.172202
-0.141742
-0.477665
-0.478024
-0.465939
-0.439935
-0.401169
-0.353956
-0.3031
-0.254096
-0.208975
-0.170438
-0.137885
-0.488109
-0.490326
-0.480223
-0.455556
-0.416459
-0.366877
-0.312077
-0.258555
-0.209323
-0.167412
-0.132634
-0.48502
-0.497216
-0.500759
-0.492144
-0.468624
-0.429447
-0.377903
-0.319492
-0.261544
-0.208131
-0.1628
-0.125727
-0.491545
-0.504577
-0.50897
-0.501276
-0.478468
-0.439186
-0.385983
-0.324396
-0.262342
-0.204877
-0.156234
-0.116897
-0.496104
-0.509684
-0.51449
-0.507138
-0.484483
-0.44484
-0.390121
-0.325809
-0.260158
-0.198998
-0.147345
-0.105904
-0.498286
-0.512087
-0.516834
-0.509231
-0.486126
-0.44573
-0.389513
-0.322897
-0.254301
-0.189999
-0.135847
-0.0926116
-0.497926
-0.511477
-0.515679
-0.507207
-0.483036
-0.441446
-0.383692
-0.315168
-0.244368
-0.177626
-0.121679
-0.0770932
-0.495223
-0.507977
-0.511016
-0.50111
-0.475273
-0.432055
-0.372721
-0.302685
-0.230459
-0.162062
-0.10517
-0.0597754
-0.472417
-0.490658
-0.502151
-0.503533
-0.491563
-0.46356
-0.41839
-0.357449
-0.286312
-0.213397
-0.144152
-0.0872119
-0.0415613
-0.468001
-0.485063
-0.494979
-0.494345
-0.479893
-0.449387
-0.40202
-0.339824
-0.267899
-0.194853
-0.125512
-0.0692824
-0.0238575
-0.463658
-0.479484
-0.487771
-0.485091
-0.468262
-0.435203
-0.38567
-0.32217
-0.250067
-0.177282
-0.10837
-0.0532535
-0.00842016
-0.460199
-0.474996
-0.481928
-0.477543
-0.45872
-0.423603
-0.372382
-0.307872
-0.235594
-0.163158
-0.0953406
-0.0410791
0.00299046
-0.458284
-0.472496
-0.478655
-0.473302
-0.453345
-0.416967
-0.364852
-0.29981
-0.227473
-0.155278
-0.0883349
-0.0343285
0.00904398
0.0306645
0.0434681
0.053114
0.0597872
0.0638074
0.065638
0.0657432
0.0645164
0.062288
0.0593359
0.0558958
0.0521621
0.0482867
0.0443835
0.0405351
0.0367993
0.0332155
0.0298098
0.0265998
0.0235988
0.0208173
0.0182636
0.0159419
0.0138517
0.0119863
0.010334
0.00887908
0.00760358
0.00648981
0.00552187
0.00468073
0.00396067
0.00333816
0.00280138
0.00234053
0.0019463
0.00161036
0.00132542
0.00108469
0.000882386
0.000712879
0.000571731
0.000454157
0.000356988
0.000275878
0.000208955
0.000151752
0.000103858
5.98307e-05
2.11488e-05
0.0252668
0.0386172
0.0489371
0.0561723
0.0606369
0.0628553
0.0633199
0.0624163
0.0604675
0.0577594
0.0545347
0.0509911
0.047283
0.0435271
0.0398083
0.036187
0.0327045
0.0293878
0.0262555
0.0233213
0.0205961
0.0180888
0.0158046
0.0137441
0.011902
0.0102676
0.00882648
0.00756163
0.00645593
0.005494
0.00465757
0.00394216
0.00332323
0.00278916
0.00233048
0.00193803
0.00160357
0.00131985
0.00108014
0.000878684
0.000709882
0.000569319
0.000452233
0.000355469
0.000274699
0.000208059
0.000151101
0.000103413
5.95768e-05
2.10582e-05
0.0146507
0.0290476
0.0407079
0.0490234
0.0543464
0.0573324
0.0585104
0.0582596
0.0568792
0.0546641
0.051873
0.048711
0.0453368
0.0418718
0.038407
0.035008
0.0317202
0.0285738
0.0255895
0.0227823
0.0201646
0.0177464
0.0155346
0.0135318
0.0117349
0.0101357
0.00872184
0.00747806
0.00638841
0.00543842
0.00461121
0.00390521
0.00329341
0.00276474
0.00231039
0.00192151
0.00158999
0.00130872
0.00107105
0.000871286
0.000703892
0.000564499
0.000448388
0.000352433
0.000272344
0.000206269
0.000149801
0.000102523
5.90694e-05
2.08772e-05
-0.000283669
0.0154472
0.0288926
0.0386775
0.0452029
0.0492888
0.0514985
0.052191
0.0516577
0.0501786
0.0480303
0.0454322
0.0425496
0.0395103
0.0364137
0.0333335
0.0303222
0.0274155
0.0246383
0.0220088
0.0195417
0.017249
0.0151399
0.0132197
0.0114882
0.00994017
0.00856624
0.00735356
0.00628779
0.00535557
0.00454158
0.00385003
0.0032488
0.00272815
0.00228029
0.00189675
0.00156965
0.00129205
0.00105743
0.0008602
0.000694919
0.000557279
0.00044263
0.000347886
0.000268816
0.000203588
0.000147853
0.000101191
5.83095e-05
2.06059e-05
-0.017877
-0.000904162
0.0144289
0.0258632
0.0337967
0.0392047
0.0426705
0.0445176
0.0450425
0.0445113
0.0431875
0.0413071
0.0390494
0.0365513
0.0339208
0.0312415
0.0285748
0.0259647
0.0234424
0.0210312
0.0187493
0.0166118
0.0146307
0.0128142
0.0111658
0.00968344
0.00836111
0.00718902
0.0061548
0.00524613
0.00444866
0.00377697
0.00318953
0.00267946
0.0022402
0.00186376
0.00154255
0.00126984
0.00103929
0.000845442
0.000682974
0.00054767
0.000434967
0.000341837
0.000264123
0.000200022
0.000145263
9.94179e-05
5.72984e-05
2.02449e-05
-0.0362776
-0.0184421
-0.00147727
0.0115411
0.0209194
0.0277335
0.0325605
0.0356764
0.0373615
0.0379143
0.037558
0.0365138
0.0349795
0.0331089
0.0310203
0.0288064
0.0265385
0.0242698
0.0220399
0.0198785
0.0178089
0.0158501
0.0140174
0.0123225
0.0107721
0.00936823
0.00810813
0.0069855
0.00599039
0.00511122
0.00433227
0.00368667
0.00311572
0.00261874
0.00219017
0.00182259
0.00150873
0.00124212
0.00101665
0.000827031
0.000668077
0.000535688
0.000425415
0.000334296
0.000258274
0.000195578
0.000142035
9.72087e-05
5.6038e-05
1.97947e-05
-0.0539732
-0.0357343
-0.0176469
-0.00332794
0.00737321
0.0155434
0.021721
0.0261224
0.0290008
0.0306561
0.0313401
0.0312195
0.0304792
0.0292932
0.0277974
0.0260948
0.0242655
0.0223722
0.0204633
0.0185761
0.0167398
0.014978
0.0133101
0.0117512
0.0103117
0.00899737
0.00780905
0.00674406
0.00579563
0.00495351
0.00417543
0.0035795
0.00302747
0.00254604
0.00213025
0.00177326
0.0014682
0.00120892
0.000989549
0.000804991
0.000650248
0.000521353
0.000413989
0.00032528
0.000251282
0.000190265
0.000138176
9.45676e-05
5.45306e-05
1.9256e-05
-0.0699813
-0.0517531
-0.0331453
-0.017943
-0.00615949
0.0032105
0.0106307
0.0162541
0.0202949
0.0230327
0.024721
0.0255526
0.0256582
0.025198
0.0243262
0.0231632
0.0217994
0.0203058
0.0187392
0.0171446
0.0155577
0.0140074
0.0125174
0.0111064
0.00978869
0.00857358
0.00746557
0.00646561
0.00557119
0.00478125
0.00414096
0.00346185
0.00292484
0.00246143
0.00206046
0.0017158
0.00142102
0.00117028
0.000958009
0.000779353
0.000629515
0.000504689
0.000400711
0.000314805
0.00024316
0.000184096
0.000133695
9.15001e-05
5.27791e-05
1.86298e-05
-0.0838442
-0.0659448
-0.047373
-0.0317392
-0.0191775
-0.00883087
-0.000341959
0.00637779
0.0114999
0.0152689
0.0179156
0.0196349
0.0205887
0.020886
0.0206637
0.0200576
0.0191752
0.0180974
0.0168884
0.0156003
0.0142754
0.0129481
0.0116465
0.0103934
0.00920672
0.00809936
0.00707933
0.00615099
0.00531542
0.00457144
0.00392278
0.00331539
0.00280681
0.00236478
0.00198086
0.00165027
0.00136721
0.00112623
0.000922072
0.000750151
0.00060591
0.000485723
0.000385606
0.000302892
0.000233926
0.000177083
0.0001286
8.80128e-05
5.07869e-05
1.79172e-05
-0.095487
-0.0781371
-0.060039
-0.044386
-0.0313621
-0.0202911
-0.0109409
-0.00328738
0.00279732
0.00751622
0.011066
0.013623
0.0153505
0.016393
0.0168414
0.0168104
0.0164202
0.0157678
0.0149268
0.0139558
0.0129028
0.0118077
0.0107034
0.00961667
0.00856905
0.00757698
0.00665184
0.00580115
0.00502891
0.0043339
0.00371344
0.00315071
0.00267391
0.00225604
0.00189146
0.00157672
0.00130683
0.00107682
0.000881779
0.000717424
0.000579467
0.000464488
0.0003687
0.000289565
0.000223599
0.000169242
0.000122904
8.41133e-05
4.85579e-05
1.71196e-05
-0.105048
-0.0883918
-0.0710752
-0.0557388
-0.0425438
-0.0309994
-0.0210045
-0.0125945
-0.00568624
-0.000121612
0.004258
0.00760278
0.0100613
0.0117759
0.0128746
0.0134345
0.0135519
0.0133333
0.0128671
0.0122205
0.0114474
0.0105924
0.00969294
0.0087799
0.00787846
0.00700845
0.00618452
0.00541711
0.00471301
0.0040732
0.00349587
0.00296179
0.00252612
0.00213538
0.0017924
0.00149522
0.00123992
0.0010221
0.000837181
0.000681218
0.000550228
0.00044102
0.000350025
0.000274849
0.000212201
0.00016059
0.00011662
7.98104e-05
4.60968e-05
1.62386e-05
-0.112755
-0.0968796
-0.0805433
-0.0657759
-0.0526577
-0.040871
-0.0304396
-0.0214512
-0.0138648
-0.00757016
-0.00244801
0.00162317
0.00477117
0.00712549
0.00880926
0.00993584
0.0105734
0.0108028
0.010719
0.0104026
0.00991536
0.00930697
0.008619
0.00788625
0.00713741
0.00639562
0.00567872
0.00499995
0.00436882
0.00378997
0.00326559
0.00281387
0.00236619
0.00200275
0.00168367
0.00140581
0.00116655
0.000962143
0.000788331
0.000641581
0.000518238
0.000415358
0.000329616
0.000258777
0.000199756
0.000151148
0.00010976
7.51141e-05
4.34086e-05
1.52762e-05
-0.11885
-0.103806
-0.0885658
-0.0745441
-0.0617023
-0.0498766
-0.0391999
-0.0298016
-0.0216814
-0.0147757
-0.00900535
-0.00427873
-0.000490853
0.00247004
0.00471616
0.00635485
0.00748698
0.00817488
0.00848708
0.00850829
0.00831212
0.00795567
0.00748499
0.00693844
0.00634807
0.00574019
0.0051357
0.00455066
0.00399718
0.00348314
0.00301196
0.0025827
0.00218455
0.00185748
0.00156517
0.00130853
0.00108676
0.000897
0.000735289
0.000598569
0.000483547
0.000387549
0.000307513
0.000241379
0.000186293
0.000140936
0.000102343
7.00355e-05
4.04991e-05
1.42349e-05
-0.123574
-0.109381
-0.0952877
-0.0821204
-0.0697098
-0.0580202
-0.0472679
-0.0376144
-0.0290979
-0.0216989
-0.0153768
-0.0100705
-0.00569967
-0.00217155
0.000611163
0.00274681
0.00433021
0.0054512
0.00616818
0.00653981
0.00664211
0.00654253
0.00629407
0.00593903
0.00551251
0.00504379
0.00455669
0.00407014
0.00359878
0.00315285
0.00273786
0.00235665
0.00201976
0.00170283
0.00143743
0.0012036
0.0010006
0.000826714
0.000678097
0.000552231
0.000446208
0.000357638
0.000283756
0.000222694
0.000171841
0.000129979
9.43846e-05
6.4587e-05
3.73746e-05
1.31173e-05
-0.127161
-0.113822
-0.100864
-0.0885941
-0.0767287
-0.0653241
-0.0546441
-0.0448741
-0.0360895
-0.0283107
-0.0215324
-0.015724
-0.0108308
-0.00678059
-0.00349205
-0.000879168
0.00114553
0.0026665
0.00376407
0.00449347
0.00490602
0.00507043
0.00504904
0.00489026
0.00463259
0.00430799
0.00394306
0.00355944
0.0031743
0.00280022
0.00244562
0.00211646
0.00181063
0.00153799
0.00129915
0.0010909
0.000908323
0.000751431
0.000616805
0.000502615
0.00040627
0.000325672
0.000258388
0.000202758
0.000156431
0.000118303
8.59043e-05
5.87818e-05
3.40418e-05
1.19268e-05
-0.129843
-0.117356
-0.105457
-0.0940593
-0.0828164
-0.0718215
-0.0613397
-0.0515758
-0.0426409
-0.0345895
-0.0274477
-0.0212147
-0.0158614
-0.0113376
-0.00757914
-0.00451312
-0.00206227
-0.000147988
0.00130573
0.00237082
0.00309984
0.00353867
0.00375107
0.00379319
0.00370882
0.00353303
0.00329496
0.00301877
0.00272408
0.00242591
0.00213492
0.00185813
0.00159915
0.00136116
0.00115115
0.000968055
0.000809378
0.000671449
0.000551638
0.000449845
0.000363819
0.000291708
0.000231457
0.000181614
0.000140101
0.000105937
7.69244e-05
5.26356e-05
3.05087e-05
1.0667e-05
-0.131799
-0.120233
-0.10924
-0.0986098
-0.0880287
-0.0775413
-0.0673621
-0.0577133
-0.0487371
-0.0405148
-0.0331009
-0.0265217
-0.0207731
-0.0158269
-0.0116373
-0.00814616
-0.00528703
-0.0029898
-0.00118319
0.000201426
0.00122901
0.00194759
0.00240316
0.00265244
0.00274544
0.00272189
0.0026141
0.00244887
0.0022482
0.00202939
0.00180516
0.00158436
0.00137332
0.00117466
0.000997728
0.000840478
0.00070116
0.000585751
0.000482371
0.000393964
0.000318961
0.000255844
0.000203043
0.000159328
0.000122904
9.29236e-05
6.74761e-05
4.61701e-05
2.67873e-05
9.34433e-06
-0.13318
-0.122677
-0.112449
-0.102427
-0.0925043
-0.0825824
-0.0727829
-0.0633365
-0.0544059
-0.0460955
-0.0384862
-0.0316289
-0.025543
-0.0202221
-0.0156395
-0.0117525
-0.00850685
-0.00584162
-0.00369245
-0.00199382
-0.000683038
0.00030104
0.00100423
0.00147009
0.00174848
0.00188285
0.00190941
0.0018582
0.00175404
0.00161671
0.00146124
0.00129858
0.00113625
0.000980431
0.000835839
0.00070876
0.000595906
0.000493791
0.000407531
0.000334375
0.000271497
0.000218068
0.00017319
0.000135941
0.000104873
7.92896e-05
5.75799e-05
3.94003e-05
2.2887e-05
7.96701e-06
-0.13404
-0.124586
-0.114902
-0.105402
-0.0960949
-0.0867512
-0.0774127
-0.0682802
-0.0595053
-0.05121
-0.0435014
-0.0364542
-0.0301102
-0.0244838
-0.0195663
-0.0153303
-0.0117343
-0.00872719
-0.00625182
-0.00424821
-0.00265666
-0.00142059
-0.000486492
0.000194607
0.000666355
0.000970396
0.00114371
0.00121828
0.00122097
0.00117366
0.00109371
0.000994247
0.000884957
0.000773427
0.000666579
0.000568433
0.000481104
0.00040236
0.000333451
0.00027255
0.000221202
0.000177925
0.000141563
0.000111224
8.58499e-05
6.49325e-05
4.71729e-05
3.22906e-05
1.87868e-05
6.53144e-06
-0.135752
-0.127198
-0.11788
-0.108793
-0.0999285
-0.0910117
-0.0820784
-0.0732829
-0.0647203
-0.0565015
-0.0487422
-0.0415348
-0.034944
-0.0290084
-0.0237415
-0.0191347
-0.0151625
-0.011786
-0.00895712
-0.00662223
-0.00472568
-0.0032124
-0.00203127
-0.00113298
-0.000470271
7.39305e-07
0.000319036
0.000519054
0.0006306
0.000677946
0.000679701
0.000650213
0.000600461
0.000539272
0.000474312
0.000410901
0.000351903
0.000296109
0.00024747
0.000204957
0.000167731
0.000135477
0.000108048
8.51295e-05
6.58362e-05
4.98723e-05
3.62733e-05
2.48524e-05
1.4481e-05
5.03139e-06
-0.133433
-0.126406
-0.117146
-0.108432
-0.0999277
-0.0913215
-0.0826799
-0.0741388
-0.0658006
-0.0577717
-0.0501588
-0.0430511
-0.0365143
-0.0305906
-0.0252995
-0.0206396
-0.0165914
-0.0131224
-0.0101904
-0.00774608
-0.00573697
-0.00411153
-0.00282184
-0.00182159
-0.00106497
-0.000508251
-0.000112513
0.000155725
0.000325182
0.000420485
0.000462086
0.000466366
0.000445796
0.000409971
0.000366753
0.00032163
0.00027761
0.000235057
0.000197402
0.000163793
0.000133846
0.000108305
8.64964e-05
6.81245e-05
5.26249e-05
3.98028e-05
2.88976e-05
1.97636e-05
1.14952e-05
3.99627e-06
-0.130848
-0.124333
-0.115367
-0.107001
-0.0988374
-0.090534
-0.0821721
-0.0738916
-0.0657937
-0.0579778
-0.050545
-0.0435819
-0.0371544
-0.0313062
-0.0260598
-0.0214179
-0.0173654
-0.0138745
-0.010907
-0.00841791
-0.00635821
-0.00467907
-0.0033344
-0.00227944
-0.00146975
-0.000862672
-0.00042012
-0.0001092
9.84781e-05
0.000227555
0.000298786
0.000328931
0.000330852
0.000314478
0.000287859
0.000256689
0.000224325
0.000191825
0.000162304
0.00013541
0.000111076
9.02552e-05
7.23231e-05
5.70957e-05
4.41863e-05
3.34665e-05
2.43298e-05
1.66507e-05
9.70086e-06
3.36781e-06
-0.127846
-0.121856
-0.113299
-0.105275
-0.0974671
-0.0894944
-0.0814371
-0.0734426
-0.06561
-0.0580317
-0.0508034
-0.0440091
-0.0377141
-0.0319634
-0.0267821
-0.0221762
-0.0181353
-0.0146356
-0.0116434
-0.00911786
-0.00701364
-0.0052849
-0.00388761
-0.00277869
-0.00191533
-0.00125644
-0.000764991
-0.000408693
-0.00015944
7.23297e-06
0.000112004
0.000171695
0.000199387
0.000205314
0.000197741
0.000182651
0.000163801
0.000142791
0.000122642
0.000103574
8.57874e-05
7.02552e-05
5.66663e-05
4.49722e-05
3.49583e-05
2.65728e-05
1.93868e-05
1.32962e-05
7.77965e-06
2.69026e-06
-0.124795
-0.119407
-0.111283
-0.103574
-0.0961095
-0.0884695
-0.0807171
-0.0730064
-0.0654366
-0.0580944
-0.0510699
-0.0444447
-0.0382831
-0.0326314
-0.0275168
-0.0229488
-0.0189211
-0.0154141
-0.0123983
-0.0098368
-0.00768803
-0.00590914
-0.00445831
-0.00329434
-0.00237613
-0.00166412
-0.00112241
-0.000719342
-0.000427188
-0.000221713
-8.23155e-05
7.9086e-06
6.2278e-05
9.13247e-05
0.00010354
0.000105209
0.000100447
9.1394e-05
8.10732e-05
7.02079e-05
5.92635e-05
4.92649e-05
4.02321e-05
3.22449e-05
2.52682e-05
1.93324e-05
1.41942e-05
9.77249e-06
5.76247e-06
1.97698e-06
-0.121771
-0.116956
-0.109263
-0.101856
-0.0947252
-0.0874215
-0.0799774
-0.0725513
-0.0652451
-0.0581403
-0.0513219
-0.0448683
-0.0388435
-0.0332942
-0.0282498
-0.0237232
-0.0197117
-0.0161999
-0.0131626
-0.0105666
-0.00837414
-0.00654545
-0.00504108
-0.00382175
-0.00284818
-0.00208238
-0.00148956
-0.00103883
-0.000702896
-0.000457786
-0.000282971
-0.000161454
-7.96885e-05
-2.68567e-05
5.75969e-06
2.47465e-05
3.45609e-05
3.78809e-05
3.77754e-05
3.54179e-05
3.15626e-05
2.73361e-05
2.3054e-05
1.89327e-05
1.51255e-05
1.17491e-05
8.75223e-06
6.0783e-06
3.64741e-06
1.22731e-06
-0.118774
-0.114457
-0.107198
-0.100093
-0.0932885
-0.0863241
-0.0791934
-0.0720547
-0.0650148
-0.0581509
-0.0515425
-0.0452654
-0.0393824
-0.0339409
-0.0289722
-0.0244921
-0.0205014
-0.0169888
-0.0139332
-0.0113054
-0.00907111
-0.00719385
-0.0056366
-0.00436214
-0.00333306
-0.00251299
-0.00186837
-0.00136912
-0.000988461
-0.000702723
-0.000491485
-0.000337696
-0.000227608
-0.000150143
-9.63529e-05
-5.93529e-05
-3.43436e-05
-1.81321e-05
-7.55865e-06
-1.02789e-06
2.5231e-06
4.34587e-06
5.03819e-06
4.96721e-06
4.48187e-06
3.78971e-06
3.03923e-06
2.20009e-06
1.42746e-06
4.38896e-07
-0.115773
-0.111907
-0.105089
-0.0982906
-0.0918035
-0.085178
-0.0783648
-0.0715162
-0.0647445
-0.0581244
-0.0517298
-0.0456334
-0.0398972
-0.0345689
-0.0296814
-0.0252529
-0.0212879
-0.017779
-0.0147087
-0.012052
-0.00977813
-0.00785384
-0.00624463
-0.00491548
-0.0038309
-0.00295623
-0.0022592
-0.00171063
-0.00128432
-0.000956943
-0.00070825
-0.000521174
-0.000381801
-0.000278816
-0.000203041
-0.000147296
-0.000106436
-7.67863e-05
-5.50435e-05
-3.92158e-05
-2.79184e-05
-1.97572e-05
-1.38549e-05
-9.68125e-06
-6.68419e-06
-4.56118e-06
-2.95529e-06
-1.86888e-06
-9.01095e-07
-3.89078e-07
-0.112758
-0.109316
-0.102942
-0.0964542
-0.0902762
-0.0839865
-0.0774935
-0.070937
-0.0644347
-0.0580603
-0.0518827
-0.0459711
-0.0403863
-0.0351761
-0.0303749
-0.0260034
-0.022069
-0.0185681
-0.015487
-0.0128045
-0.0104936
-0.00852398
-0.00686398
-0.00548076
-0.00434089
-0.00341145
-0.00266155
-0.00206298
-0.00159018
-0.00122024
-0.000933129
-0.000711803
-0.000542221
-0.000412854
-0.000314301
-0.00023909
-0.000181731
-0.000138099
-0.000104698
-7.91628e-05
-5.97787e-05
-4.49885e-05
-3.36378e-05
-2.5023e-05
-1.83812e-05
-1.33101e-05
-9.23636e-06
-6.13196e-06
-3.3404e-06
-1.25679e-06
-0.10974
-0.106693
-0.10076
-0.0945875
-0.0887109
-0.0827516
-0.0765798
-0.0703169
-0.0640848
-0.0579576
-0.0519995
-0.0462762
-0.040847
-0.0357598
-0.0310501
-0.0267406
-0.0228419
-0.0193535
-0.0162657
-0.0135608
-0.0112154
-0.00920259
-0.0074932
-0.0060568
-0.00486205
-0.00387788
-0.00307482
-0.0024257
-0.00190569
-0.00149237
-0.00116594
-0.000909467
-0.000708795
-0.000552216
-0.000430112
-0.000334729
-0.000260233
-0.000202078
-0.000156533
-0.00012088
-9.30692e-05
-7.13584e-05
-5.43194e-05
-4.10656e-05
-3.06154e-05
-2.2462e-05
-1.58078e-05
-1.05916e-05
-5.89218e-06
-2.1642e-06
-0.106732
-0.104043
-0.0985452
-0.0926934
-0.0871118
-0.0814756
-0.0756243
-0.069656
-0.0636942
-0.0578149
-0.0520785
-0.0465465
-0.0412769
-0.0363173
-0.031704
-0.0274617
-0.0236036
-0.0201325
-0.0170421
-0.0143185
-0.0119416
-0.00988783
-0.00813073
-0.00664229
-0.00539332
-0.00435464
-0.00349832
-0.00279827
-0.00223047
-0.00177303
-0.00140649
-0.00111402
-0.000881428
-0.000696842
-0.000550437
-0.000434194
-0.000341934
-0.000268721
-0.000210551
-0.000164372
-0.000127795
-9.88727e-05
-7.59046e-05
-5.78133e-05
-4.33904e-05
-3.20195e-05
-2.26717e-05
-1.52493e-05
-8.5575e-06
-3.11098e-06
-0.103738
-0.101373
-0.0963019
-0.0907752
-0.0854834
-0.0801619
-0.0746283
-0.0689547
-0.063263
-0.0576317
-0.0521183
-0.0467804
-0.0416738
-0.036846
-0.0323339
-0.0281637
-0.0243512
-0.0209022
-0.0178136
-0.015075
-0.0126699
-0.0105777
-0.00877483
-0.00723573
-0.00593344
-0.00484073
-0.00393121
-0.00318002
-0.00256399
-0.00206183
-0.00165448
-0.00132525
-0.00105996
-0.000846614
-0.000675196
-0.000537428
-0.000426797
-0.000338
-0.000266737
-0.000209628
-0.000163949
-0.000127526
-9.83902e-05
-7.52641e-05
-5.67051e-05
-4.1982e-05
-2.98278e-05
-2.01044e-05
-1.13364e-05
-4.09637e-06
-0.100764
-0.0986917
-0.0940352
-0.0888371
-0.0838309
-0.0788145
-0.073594
-0.0682142
-0.0627917
-0.0574078
-0.052118
-0.0469762
-0.0420357
-0.0373435
-0.032937
-0.0288439
-0.0250819
-0.0216597
-0.0185774
-0.0158278
-0.0133978
-0.01127
-0.00942355
-0.00783544
-0.00648097
-0.0053349
-0.0043725
-0.00357014
-0.00290559
-0.00235825
-0.00190948
-0.00154283
-0.00124414
-0.00100135
-0.000804245
-0.000644324
-0.000514744
-0.000409855
-0.000325045
-0.000256616
-0.000201505
-0.000157302
-0.000121763
-9.3408e-05
-7.05522e-05
-5.23441e-05
-3.72726e-05
-2.51544e-05
-1.42278e-05
-5.11912e-06
-0.0978182
-0.0960082
-0.0917515
-0.0868836
-0.0821593
-0.0774385
-0.0725244
-0.0674361
-0.0622813
-0.0571435
-0.0520773
-0.0471328
-0.0423609
-0.0378077
-0.033511
-0.0294994
-0.0257927
-0.022402
-0.0193304
-0.016574
-0.0141228
-0.0119623
-0.0100747
-0.0084395
-0.00703424
-0.00583574
-0.00482096
-0.0039676
-0.00325444
-0.0026616
-0.00217095
-0.00176632
-0.00143364
-0.00116077
-0.000937374
-0.000754719
-0.00060565
-0.000484188
-0.000385401
-0.000305277
-0.000240419
-0.000188165
-0.000145996
-0.000112225
-8.49171e-05
-6.30947e-05
-4.49983e-05
-3.03937e-05
-1.7229e-05
-6.1774e-06
-0.0949114
-0.0933323
-0.089458
-0.0849199
-0.0804744
-0.0760391
-0.0714233
-0.0666227
-0.0617335
-0.0568397
-0.051996
-0.0472495
-0.042648
-0.0382366
-0.0340533
-0.0301275
-0.0264807
-0.0231262
-0.0200698
-0.0173107
-0.0148419
-0.012652
-0.010726
-0.00904577
-0.00759135
-0.0063416
-0.00527519
-0.00437121
-0.00360952
-0.00297105
-0.00243821
-0.00199517
-0.00162798
-0.00132452
-0.00107429
-0.000868384
-0.000699333
-0.000560856
-0.000447694
-0.000355525
-0.000280622
-0.000220062
-0.00017105
-0.000131684
-9.97763e-05
-7.42165e-05
-5.29928e-05
-3.58138e-05
-2.03354e-05
-7.26876e-06
-0.0920522
-0.0906747
-0.0871633
-0.0829522
-0.0787822
-0.0746228
-0.0702956
-0.0657773
-0.0611504
-0.0564979
-0.051875
-0.047326
-0.0428961
-0.0386288
-0.0345619
-0.0307257
-0.027143
-0.0238291
-0.0207924
-0.0180347
-0.0155522
-0.0133363
-0.0113747
-0.00965187
-0.00815017
-0.00685057
-0.00573352
-0.00477954
-0.00396962
-0.00328557
-0.0027104
-0.00222867
-0.00182661
-0.00149212
-0.00121462
-0.00098501
-0.000795549
-0.000639663
-0.000511768
-0.000407238
-0.000322018
-0.00025292
-0.000196867
-0.000151741
-0.000115096
-8.5684e-05
-6.12381e-05
-4.14022e-05
-2.35404e-05
-8.39e-06
-0.0892504
-0.0880464
-0.0848768
-0.0809876
-0.0770896
-0.0731962
-0.069147
-0.0649039
-0.060535
-0.0561202
-0.0517153
-0.0473627
-0.0431046
-0.0389829
-0.0350349
-0.0312916
-0.0277769
-0.0245078
-0.021495
-0.018743
-0.0162506
-0.0140122
-0.012018
-0.0102552
-0.0087083
-0.00736051
-0.00619405
-0.00519093
-0.00433331
-0.00360393
-0.00298648
-0.00246594
-0.00202879
-0.00166298
-0.00135787
-0.0011042
-0.000893978
-0.000720351
-0.000577418
-0.000460252
-0.000364478
-0.000286635
-0.000223366
-0.000172334
-0.00013083
-9.74628e-05
-6.97097e-05
-4.71419e-05
-2.68344e-05
-9.53708e-06
-0.0865165
-0.0854599
-0.0826093
-0.0790346
-0.075404
-0.071767
-0.0679842
-0.0640076
-0.059891
-0.0557096
-0.051519
-0.0473604
-0.0432735
-0.039298
-0.0354708
-0.0318231
-0.0283797
-0.0251592
-0.0221744
-0.0194321
-0.0169338
-0.0146764
-0.0126529
-0.0108527
-0.00926307
-0.007869
-0.00665461
-0.00560345
-0.0046989
-0.00392468
-0.0032652
-0.00270595
-0.00223365
-0.00183637
-0.00150344
-0.00122546
-0.000994215
-0.00080259
-0.000644379
-0.000514356
-0.000407833
-0.000321076
-0.000250445
-0.000193383
-0.000146918
-0.000109507
-7.83751e-05
-5.30104e-05
-3.02052e-05
-1.0705e-05
-0.0838623
-0.0829281
-0.0803728
-0.0771025
-0.0737338
-0.0703435
-0.0668147
-0.0630945
-0.0592232
-0.0552696
-0.0512886
-0.0473209
-0.0434033
-0.0395739
-0.0358685
-0.0323183
-0.028949
-0.0257806
-0.0228275
-0.0200987
-0.0175982
-0.0153255
-0.0132759
-0.0114414
-0.00981149
-0.00837328
-0.00711272
-0.00601488
-0.00506444
-0.00424612
-0.0035451
-0.00294741
-0.0024401
-0.00201138
-0.00165056
-0.00134817
-0.00109575
-0.000885971
-0.000712318
-0.000569283
-0.000451871
-0.000356074
-0.000277973
-0.000214786
-0.000163282
-0.000121759
-8.71928e-05
-5.89794e-05
-3.36365e-05
-1.18876e-05
-0.0812999
-0.0804649
-0.0781803
-0.0752022
-0.0720883
-0.0689347
-0.0656473
-0.0621718
-0.0585371
-0.0548046
-0.0510278
-0.0472463
-0.0434954
-0.0398107
-0.0362271
-0.0327757
-0.0294827
-0.0263691
-0.023451
-0.0207393
-0.0182403
-0.0159557
-0.0138834
-0.0120178
-0.0103503
-0.00887032
-0.00756558
-0.0064227
-0.00542766
-0.00456624
-0.00382444
-0.00318885
-0.00264689
-0.00218693
-0.00179836
-0.00147157
-0.00119798
-0.000969987
-0.000780826
-0.000624704
-0.000496328
-0.000391421
-0.000305786
-0.000236416
-0.000179824
-0.000134146
-9.61106e-05
-6.5013e-05
-3.7108e-05
-1.30777e-05
-0.0788421
-0.078085
-0.0760461
-0.0733456
-0.0704781
-0.0675508
-0.0644913
-0.0612479
-0.0578396
-0.0543203
-0.0507408
-0.04714
-0.0435516
-0.0400093
-0.0365465
-0.0331942
-0.0299787
-0.0269221
-0.0240418
-0.0213504
-0.0188562
-0.0165633
-0.0144716
-0.0125779
-0.0108758
-0.00935668
-0.00801001
-0.00682401
-0.00578597
-0.00488275
-0.0041012
-0.0034285
-0.00285249
-0.00236176
-0.00194573
-0.00159478
-0.00130014
-0.00105403
-0.000849404
-0.000680216
-0.000540881
-0.00042686
-0.000333681
-0.000258117
-0.000196426
-0.000146578
-0.000105064
-7.10675e-05
-4.05947e-05
-1.42662e-05
-0.0765027
-0.0758041
-0.0739856
-0.0715464
-0.068915
-0.0662028
-0.0633575
-0.0603322
-0.0571386
-0.053823
-0.0504328
-0.047006
-0.0435747
-0.040171
-0.036827
-0.0335729
-0.0304354
-0.0274372
-0.0245967
-0.0219284
-0.0194422
-0.0171441
-0.0150364
-0.0131178
-0.0113841
-0.00982859
-0.00844249
-0.00721557
-0.00613642
-0.00519301
-0.00437304
-0.00366434
-0.00305516
-0.00253435
-0.00209142
-0.00171671
-0.00140135
-0.00113735
-0.000917454
-0.000735335
-0.000585142
-0.000462082
-0.000361417
-0.000279699
-0.000212942
-0.000158946
-0.000113975
-7.70897e-05
-4.4066e-05
-1.54429e-05
-0.0742964
-0.0736392
-0.072016
-0.0698195
-0.0674123
-0.0649033
-0.0622577
-0.0594354
-0.0564434
-0.0533204
-0.0501101
-0.046849
-0.0435682
-0.0402981
-0.0370693
-0.0339115
-0.0308513
-0.0279119
-0.0251128
-0.0224696
-0.019994
-0.0176938
-0.0155732
-0.013633
-0.0118708
-0.0102818
-0.00885905
-0.00759369
-0.00647566
-0.005494
-0.00463728
-0.003894
-0.00325285
-0.00270294
-0.00223391
-0.00183612
-0.00150056
-0.00121911
-0.000984266
-0.000789484
-0.000628648
-0.000496718
-0.000388701
-0.000300935
-0.000229198
-0.000171121
-0.00012275
-8.30162e-05
-4.74851e-05
-1.65953e-05
-0.0722391
-0.0716082
-0.0701558
-0.0681821
-0.0659849
-0.0636659
-0.0612048
-0.0585696
-0.0557643
-0.0528213
-0.04978
-0.046675
-0.0435364
-0.0403933
-0.0372749