/*--------------------------------*- C++ -*----------------------------------*\
  =========                 |
  \\      /  F ield         | OpenFOAM: The Open Source CFD Toolbox
   \\    /   O peration     | Website:  https://openfoam.org
    \\  /    A nd           | Version:  7
     \\/     M anipulation  |
\*---------------------------------------------------------------------------*/
FoamFile
{
    version     2.0;
    format      ascii;
    class       surfaceScalarField;
    location    "5";
    object      phi;
}
// * * * * * * * * * * * * * * * * * * * * * * * * * * * * * * * * * * * * * //

dimensions      [0 3 -1 0 0 0 0];

internalField   nonuniform List<scalar> 
11919
(
-0.00225141
0.000364234
1.77277e-11
-0.00259837
0.000346951
4.32716e-11
-0.00290377
0.000305404
7.03246e-11
-0.00313793
0.000234157
9.62565e-11
-0.0032662
0.000128268
1.19759e-10
-0.00325156
-1.46313e-05
1.33254e-10
-0.00306392
-0.000187643
1.43458e-10
-0.00268074
-0.000383179
1.41507e-10
-0.00209622
-0.000584521
1.27649e-10
-0.00132727
-0.000768947
1.02598e-10
-0.000390661
-0.000936614
7.15251e-11
0.000644769
-0.00103543
3.72818e-11
-0.00117354
3.3323e-12
0.00181831
-0.0021291
0.000697165
-0.00243816
0.000656019
-0.00269908
0.000566325
-0.00288268
0.000417751
-0.00295506
0.000200648
-0.00288221
-8.74802e-05
-0.00263331
-0.000436543
-0.00218828
-0.000828209
-0.0015456
-0.0012272
-0.000722034
-0.00159251
0.000253038
-0.00191169
0.00132659
-0.00210898
-0.00236033
0.00251338
-0.00189511
0.000971171
-0.00213375
0.000894661
-0.00231327
0.000745846
-0.00240618
0.000510659
-0.00238094
0.000175408
-0.00220813
-0.000260288
-0.00185868
-0.000785992
-0.00131594
-0.00137095
-0.000585864
-0.00195728
0.000312738
-0.00249111
0.00133769
-0.00293664
0.00244873
-0.00322002
-0.00354555
0.00363395
-0.00156845
0.00116494
-0.00171289
0.0010391
-0.00178584
0.00081879
-0.0017631
0.000487925
-0.00161705
2.93523e-05
-0.00132435
-0.00055299
-0.000859535
-0.0012508
-0.000209304
-0.00202118
0.000598542
-0.00276512
0.00155451
-0.00344709
0.00260976
-0.00399188
0.00372862
-0.00433888
-0.00468845
0.00487151
-0.00117338
-0.00120983
0.00107555
-0.00116348
0.000772446
-0.0010136
0.00033804
-0.000742591
-0.000241654
-0.000324529
-0.000971052
0.000252649
-0.00182798
0.000988146
-0.00275668
0.00186415
-0.00364113
0.00285161
-0.00443455
0.003896
-0.00503627
0.00497752
-0.00542039
-0.00574425
0.00603332
-0.000660845
0.000999981
-0.000494137
0.000605737
-0.00022061
6.45137e-05
0.000173847
-0.000636112
0.000705799
-0.001503
0.00138092
-0.0025031
0.00219354
-0.0035693
0.00311038
-0.00455796
0.00409422
-0.00541839
0.00508876
-0.00603081
0.00608949
-0.00642112
-0.00668094
0.00702617
-0.000100922
0.000817058
0.000179106
0.000325709
0.000566344
-0.000322724
0.00107199
-0.00114176
0.00170719
-0.0021382
0.00246898
-0.00326489
0.00333627
-0.0044366
0.0042637
-0.00548539
0.00520817
-0.00636286
0.00611946
-0.00694211
0.00700647
-0.00730812
-0.00748333
0.00780886
0.000442153
0.000535705
0.000822082
-5.42194e-05
0.00130943
-0.000810075
0.00191415
-0.00174648
0.00264106
-0.00286511
0.00347316
-0.00409699
0.0043697
-0.00533314
0.0052752
-0.00639089
0.00614676
-0.00723442
0.00694983
-0.00774518
0.00770605
-0.00806435
-0.00815354
0.00837626
0.000944406
0.000169742
0.00141127
-0.000521084
0.00198819
-0.001387
0.00268366
-0.00244194
0.00349079
-0.00367225
0.00437192
-0.00497812
0.00526606
-0.00622728
0.00611539
-0.00724022
0.00688658
-0.00800561
0.00756831
-0.0084269
0.00819434
-0.00869038
-0.0087081
0.0087489
0.00139465
-0.000269989
0.00194009
-0.00106652
0.00260217
-0.00204908
0.00338285
-0.00322263
0.00425388
-0.00454327
0.00515314
-0.00587738
0.00600719
-0.00708133
0.0067687
-0.00800173
0.00742334
-0.00866024
0.00798528
-0.00898884
0.00849714
-0.00920224
-0.00917241
0.00896145
0.0017939
0.00241766
-0.00169028
0.00316535
-0.00279677
0.00402121
-0.00407849
0.00492758
-0.00544964
0.00580382
-0.00675362
0.00658005
-0.00785756
0.00723241
-0.00865408
0.00776977
-0.0091976
0.00822755
-0.00944662
0.00865085
-0.00962554
-0.00957398
0.00905241
0.00286385
-0.00239802
0.00369376
-0.00362668
0.00460042
-0.00498515
0.00549941
-0.00634862
0.00630871
-0.00756292
0.00697977
-0.00852863
0.00751833
-0.00919264
0.00795285
-0.00963213
0.00833114
-0.00982491
0.00869351
-0.0099879
-0.00993674
0.00905627
0.0032976
-0.00319216
0.00419091
-0.00451999
0.00510621
-0.00590045
0.00594948
-0.00719189
0.0066582
-0.00827164
0.00721522
-0.00908564
0.00765215
-0.00962957
0.00800773
-0.00998771
0.00833288
-0.0101501
0.00865783
-0.0103128
-0.0102783
0.00899937
0.00372311
-0.00405974
0.00464078
-0.00543766
0.00551375
-0.00677342
0.00626243
-0.00794056
0.00685687
-0.00886609
0.00730957
-0.00953834
0.00766744
-0.00998744
0.00796959
-0.0102899
0.00826379
-0.0104443
0.00856801
-0.0106171
-0.0106098
0.00889952
0.00412378
0.00501485
-0.00632873
0.0058022
-0.00756077
0.00643796
-0.00857632
0.00692461
-0.00935274
0.00729426
-0.009908
0.00759757
-0.0102907
0.00786758
-0.0105599
0.00814638
-0.0107231
0.00844001
-0.0109107
-0.0109376
0.00876784
0.00528791
-0.00714709
0.00596643
-0.00823928
0.00649213
-0.00910203
0.00689013
-0.00975074
0.00720068
-0.0102185
0.00746986
-0.0105599
0.00772264
-0.0108126
0.0079953
-0.0109957
0.00828338
-0.0111988
-0.0112652
0.00861091
0.00545031
0.0060183
-0.00880727
0.00645044
-0.00953417
0.00678249
-0.0100828
0.00705451
-0.0104906
0.00730385
-0.0108093
0.00754849
-0.0110573
0.00781933
-0.0112666
0.00810326
-0.0114827
-0.0115942
0.00843233
0.00597971
-0.00927759
0.00633934
-0.0098938
0.00662572
-0.0103692
0.00687416
-0.010739
0.00711234
-0.0110474
0.00735377
-0.0112987
0.00762352
-0.0115363
0.00790251
-0.0117617
-0.0119253
0.00823362
0.00587434
0.00618108
-0.0102005
0.00643719
-0.0106253
0.00667157
-0.0109734
0.00690334
-0.0112792
0.00714397
-0.0115393
0.00741074
-0.0118031
0.00768369
-0.0120346
-0.0122499
0.00800826
0.00599208
-0.01047
0.00622839
-0.0108616
0.00645396
-0.011199
0.00668162
-0.0115069
0.0069222
-0.0117799
0.0071826
-0.0120635
0.00744406
-0.0122961
-0.0125835
0.00777767
0.00578103
0.00600408
-0.0110846
0.00622335
-0.0114182
0.00644772
-0.0117312
0.00668726
-0.0120195
0.00694269
-0.0123189
0.00720997
-0.0125634
-0.0128822
0.00750866
0.00577304
-0.0112977
0.00598654
-0.0116317
0.0062071
-0.0119518
0.00644264
-0.012255
0.00669001
-0.0125663
0.00696806
-0.0128414
-0.0131921
0.00727799
0.00553524
0.0057427
-0.0118392
0.00595819
-0.0121673
0.00618732
-0.0124841
0.00643181
-0.0128108
0.00669945
-0.0131091
-0.0134714
0.00697866
0.0054926
0.00570138
-0.0123761
0.00592372
-0.0127065
0.00615892
-0.013046
0.00641604
-0.0133662
-0.0137485
0.00669321
0.00543744
0.00565055
-0.0129196
0.00587671
-0.0132721
0.00612323
-0.0136127
-0.0140061
0.00638076
0.00536939
0.00558419
-0.0134869
0.00581666
-0.0138452
-0.014252
0.00606263
0.00528253
0.00550141
-0.0140641
-0.0144813
0.00573073
0.00517576
0.00538937
0.00517576
0.0140641
0.0144813
0.00538937
0.00528253
0.0134869
0.00550141
0.0138452
0.014252
0.00573073
0.00536939
0.0129196
0.00558419
0.0132721
0.00581666
0.0136127
0.0140061
0.00606263
0.00543744
0.0123761
0.00565055
0.0127065
0.00587671
0.013046
0.00612323
0.0133662
0.0137485
0.00638076
0.0054926
0.0118392
0.00570138
0.0121673
0.00592372
0.0124841
0.00615892
0.0128108
0.00641604
0.0131091
0.0134714
0.00669321
0.00553524
0.0112977
0.0057427
0.0116317
0.00595819
0.0119518
0.00618732
0.012255
0.00643181
0.0125663
0.00669945
0.0128414
0.0131921
0.00697866
0.00577304
0.0110846
0.00598654
0.0114182
0.0062071
0.0117312
0.00644264
0.0120195
0.00669001
0.0123189
0.00696806
0.0125634
0.0128822
0.00727799
0.00578103
0.01047
0.00600408
0.0108616
0.00622335
0.011199
0.00644772
0.0115069
0.00668726
0.0117799
0.00694269
0.0120635
0.00720997
0.0122961
0.0125835
0.00750866
0.00599208
0.0102005
0.00622839
0.0106253
0.00645396
0.0109734
0.00668162
0.0112792
0.0069222
0.0115393
0.0071826
0.0118031
0.00744406
0.0120346
0.0122499
0.00777767
0.00587434
0.00927759
0.00618108
0.0098938
0.00643719
0.0103692
0.00667157
0.010739
0.00690334
0.0110474
0.00714397
0.0112987
0.00741074
0.0115363
0.00768369
0.0117617
0.0119253
0.00800826
0.00597971
0.00880727
0.00633934
0.00953417
0.00662572
0.0100828
0.00687416
0.0104906
0.00711234
0.0108093
0.00735377
0.0110573
0.00762352
0.0112666
0.00790251
0.0114827
0.0115942
0.00823362
0.00545031
0.00714709
0.0060183
0.00823928
0.00645044
0.00910203
0.00678249
0.00975074
0.00705451
0.0102185
0.00730385
0.0105599
0.00754849
0.0108126
0.00781933
0.0109957
0.00810326
0.0111988
0.0112652
0.00843233
0.00528791
0.00632873
0.00596643
0.00756077
0.00649213
0.00857632
0.00689013
0.00935274
0.00720068
0.009908
0.00746986
0.0102907
0.00772264
0.0105599
0.0079953
0.0107231
0.00828338
0.0109107
0.0109376
0.00861091
0.00412378
0.00405974
0.00501485
0.00543766
0.0058022
0.00677342
0.00643796
0.00794056
0.00692461
0.00886609
0.00729426
0.00953834
0.00759757
0.00998744
0.00786758
0.0102899
0.00814638
0.0104443
0.00844001
0.0106171
0.0106098
0.00876784
0.00372311
0.00319216
0.00464078
0.00451999
0.00551375
0.00590045
0.00626243
0.00719189
0.00685687
0.00827164
0.00730957
0.00908564
0.00766744
0.00962957
0.00796959
0.00998771
0.00826379
0.0101501
0.00856801
0.0103128
0.0102783
0.00889952
0.0032976
0.00239802
0.00419091
0.00362668
0.00510621
0.00498515
0.00594948
0.00634862
0.0066582
0.00756292
0.00721522
0.00852863
0.00765215
0.00919264
0.00800773
0.00963213
0.00833288
0.00982491
0.00865783
0.0099879
0.00993675
0.00899937
0.00286385
0.00169028
0.00369376
0.00279677
0.00460042
0.00407849
0.00549941
0.00544964
0.00630871
0.00675362
0.00697977
0.00785756
0.00751833
0.00865408
0.00795285
0.0091976
0.00833114
0.00944662
0.00869351
0.00962554
0.00957398
0.00905627
0.0017939
0.000269989
0.00241766
0.00106652
0.00316535
0.00204908
0.00402121
0.00322262
0.00492758
0.00454327
0.00580382
0.00587738
0.00658005
0.00708133
0.00723241
0.00800173
0.00776977
0.00866024
0.00822755
0.00898884
0.00865085
0.00920224
0.00917241
0.00905241
0.00139465
-0.000169742
0.00194009
0.000521084
0.00260217
0.001387
0.00338285
0.00244194
0.00425388
0.00367225
0.00515314
0.00497812
0.00600719
0.00622728
0.0067687
0.00724022
0.00742334
0.00800561
0.00798528
0.0084269
0.00849714
0.00869038
0.0087081
0.00896145
0.000944406
-0.000535705
0.00141127
5.42192e-05
0.00198819
0.000810075
0.00268366
0.00174648
0.00349079
0.00286511
0.00437192
0.00409699
0.00526606
0.00533314
0.00611539
0.00639089
0.00688658
0.00723442
0.00756831
0.00774518
0.00819434
0.00806435
0.00815354
0.0087489
0.000442153
-0.000817059
0.000822082
-0.000325709
0.00130943
0.000322723
0.00191415
0.00114176
0.00264106
0.0021382
0.00347316
0.00326489
0.0043697
0.0044366
0.0052752
0.00548539
0.00614676
0.00636286
0.00694983
0.00694211
0.00770605
0.00730813
0.00748333
0.00837626
-0.000100922
-0.000999981
0.000179106
-0.000605738
0.000566344
-6.4514e-05
0.00107199
0.000636111
0.00170719
0.001503
0.00246898
0.0025031
0.00333627
0.0035693
0.0042637
0.00455796
0.00520817
0.00541839
0.00611946
0.00603081
0.00700647
0.00642112
0.00668094
0.00780886
-0.000660845
-0.00107555
-0.000494137
-0.000772446
-0.00022061
-0.00033804
0.000173847
0.000241654
0.000705799
0.000971052
0.00138092
0.00182798
0.00219354
0.00275668
0.00311038
0.00364113
0.00409422
0.00443455
0.00508876
0.00503627
0.00608949
0.00542039
0.00574425
0.00702617
-0.00117338
-0.00116494
-0.00120983
-0.0010391
-0.00116348
-0.00081879
-0.0010136
-0.000487925
-0.000742591
-2.93525e-05
-0.000324529
0.00055299
0.000252649
0.0012508
0.000988145
0.00202118
0.00186415
0.00276512
0.00285161
0.00344708
0.003896
0.00399188
0.00497752
0.00433888
0.00468845
0.00603332
-0.00156845
-0.000971171
-0.00171289
-0.000894661
-0.00178584
-0.000745846
-0.0017631
-0.000510659
-0.00161705
-0.000175409
-0.00132435
0.000260288
-0.000859535
0.000785992
-0.000209304
0.00137095
0.000598541
0.00195728
0.00155451
0.00249111
0.00260976
0.00293664
0.00372862
0.00322002
0.00354555
0.00487151
-0.00189511
-0.000697165
-0.00213375
-0.000656019
-0.00231327
-0.000566325
-0.00240618
-0.000417751
-0.00238094
-0.000200648
-0.00220813
8.74799e-05
-0.00185868
0.000436543
-0.00131594
0.000828209
-0.000585864
0.0012272
0.000312738
0.00159251
0.00133769
0.00191168
0.00244873
0.00210898
0.00236033
0.00363395
-0.0021291
-0.000364234
-0.00243816
-0.000346951
-0.00269908
-0.000305405
-0.00288268
-0.000234157
-0.00295506
-0.000128268
-0.00288221
1.4631e-05
-0.00263331
0.000187643
-0.00218828
0.000383178
-0.0015456
0.000584521
-0.000722034
0.000768947
0.000253038
0.000936614
0.00132659
0.00103543
0.00117354
0.00251338
-0.00225141
-0.00259837
-0.00290377
-0.00313793
-0.0032662
-0.00325156
-0.00306392
-0.00268074
-0.00209622
-0.00132727
-0.000390661
0.000644769
0.00181831
0.00243481
-0.000616502
-1.05542e-11
0.00301792
-0.000583108
-1.91793e-11
0.00356889
-0.000550971
-2.6485e-11
0.00408873
-0.000519836
-3.24221e-11
0.00457708
-0.000488351
-3.71465e-11
0.00503381
-0.000456736
-4.07075e-11
0.00545947
-0.000425652
-4.30232e-11
0.0058551
-0.000395634
-4.40096e-11
0.00622208
-0.000366977
-4.37102e-11
0.00656192
-0.000339842
-4.21947e-11
0.00687629
-0.000314372
-3.95961e-11
0.00716693
-0.00029064
-3.60915e-11
0.00743553
-0.000268599
-3.18104e-11
0.00768361
-0.000248083
-2.68022e-11
0.00791242
-0.000228809
-2.12324e-11
0.00812282
-0.000210393
-1.54187e-11
0.0083152
-0.000192381
-9.73026e-12
0.00848952
-0.000174327
-4.49963e-12
0.00864542
-0.000155902
1.05431e-14
0.00878242
-0.000136994
3.58597e-12
0.00890019
-0.000117773
6.15365e-12
0.00899887
-9.86803e-05
7.77073e-12
0.00907921
-8.03395e-05
8.59548e-12
0.0091426
-6.3394e-05
8.85094e-12
0.00919095
-4.83406e-05
8.75096e-12
0.00922638
-3.54306e-05
8.49492e-12
0.00925104
-2.46686e-05
8.23269e-12
0.00926692
-1.58794e-05
8.00775e-12
0.00927571
-8.78924e-06
7.80447e-12
0.00927878
-3.07009e-06
7.37795e-12
0.00927724
1.5417e-06
6.62055e-12
0.00927196
5.27698e-06
5.94375e-12
0.0092635
8.46107e-06
5.24014e-12
0.00925226
1.1241e-05
4.61627e-12
0.00923855
1.37145e-05
4.12064e-12
0.0092226
1.59464e-05
3.72859e-12
0.00920463
1.7974e-05
3.41522e-12
0.00918479
1.98324e-05
3.11022e-12
0.00916326
2.15382e-05
2.7625e-12
0.00914013
2.31235e-05
2.36968e-12
0.00911554
2.45945e-05
2.01413e-12
0.00908955
2.59868e-05
1.70392e-12
0.00906226
2.72931e-05
1.47385e-12
0.0090337
2.8558e-05
1.29766e-12
0.00900395
2.97526e-05
1.21352e-12
0.00897301
3.09429e-05
1.09985e-12
0.00894094
3.20635e-05
1.05361e-12
0.00890772
3.32219e-05
9.9263e-13
0.00887343
3.42907e-05
1.04727e-12
3.54559e-05
8.57626e-13
0.00307067
-0.00117379
0.00359892
-0.00111135
0.00409901
-0.00105106
0.0045708
-0.000991627
0.00501344
-0.000930989
0.00542682
-0.000870115
0.00581171
-0.000810545
0.00616907
-0.000752995
0.00650012
-0.000698026
0.00680628
-0.000646004
0.00708913
-0.000597224
0.00735033
-0.000551835
0.00759149
-0.000509763
0.00781412
-0.00047071
0.00801947
-0.000434164
0.00820849
-0.000399406
0.00838168
-0.00036557
0.00853913
-0.000331778
0.00868058
-0.000297349
0.00880558
-0.000261996
0.00891376
-0.000225958
0.00900509
-0.000190009
0.00908005
-0.000155297
0.0091397
-0.000123044
0.00918558
-9.42228e-05
0.00921951
-6.93557e-05
0.00924334
-4.85006e-05
0.00925883
-3.13682e-05
0.00926751
-1.74723e-05
0.00927065
-6.21202e-06
0.00926928
2.91148e-06
0.00926424
1.03154e-05
0.00925606
1.66412e-05
0.00924513
2.21714e-05
0.00923175
2.70957e-05
0.00921616
3.15406e-05
0.00919855
3.55796e-05
0.0091791
3.92815e-05
0.00915796
4.26788e-05
0.00913525
4.58357e-05
0.00911108
4.87641e-05
0.00908553
5.15351e-05
0.00905869
5.41341e-05
0.0090306
5.66498e-05
0.00900133
5.9025e-05
0.00897088
6.13911e-05
0.00893933
6.36175e-05
0.00890663
6.5919e-05
0.00887288
6.80413e-05
7.03557e-05
0.00409492
-0.00163476
0.00453427
-0.0015507
0.00495126
-0.00146806
0.00534489
-0.00138526
0.00571396
-0.00130005
0.0060581
-0.00121425
0.00637797
-0.00113042
0.00667456
-0.00104958
0.00694871
-0.00097218
0.00720161
-0.000898908
0.00743462
-0.00083023
0.00764917
-0.000766383
0.00784671
-0.000707307
0.00802865
-0.000652646
0.00819624
-0.000601757
0.00835053
-0.000553698
0.00849224
-0.000507282
0.00862172
-0.000461253
0.00873894
-0.000414568
0.00884362
-0.000366673
0.00893538
-0.000317721
0.00901399
-0.00026862
0.00907955
-0.000220859
0.00913261
-0.000176105
0.00917414
-0.000135751
0.00920539
-0.000100605
0.00922774
-7.08499e-05
0.00924255
-4.6179e-05
0.00925107
-2.59966e-05
0.00925439
-9.52438e-06
0.00925337
3.92505e-06
0.00924882
1.48709e-05
0.0092412
2.42575e-05
0.00923089
3.248e-05
0.00921818
3.98103e-05
0.00920329
4.64312e-05
0.00918642
5.2449e-05
0.00916773
5.79645e-05
0.00914739
6.30251e-05
0.0091255
6.77263e-05
0.00910218
7.20849e-05
0.0090775
7.62075e-05
0.00905157
8.00716e-05
0.00902441
8.38104e-05
0.00899609
8.73379e-05
0.00896663
9.08508e-05
0.0089361
9.41536e-05
0.00890445
9.75679e-05
0.00887178
0.000100713
0.000104145
0.00521927
-0.00198252
0.0055545
-0.00188593
0.00587524
-0.0017888
0.00617964
-0.00168966
0.00646602
-0.00158643
0.00673361
-0.00148184
0.00698243
-0.00137924
0.00721326
-0.00128041
0.00742665
-0.00118557
0.00762319
-0.00109545
0.0078038
-0.00101084
0.00796952
-0.000932095
0.00812142
-0.000859209
0.00826064
-0.00079187
0.00838832
-0.000729437
0.00850552
-0.0006709
0.00861315
-0.000614909
0.00871185
-0.000559952
0.00880195
-0.00050467
0.00888348
-0.000448197
0.0089562
-0.000390447
0.00901982
-0.000332243
0.00907414
-0.000275177
0.00911922
-0.000221177
0.00915541
-0.000171946
0.00918337
-0.000128564
0.00920391
-9.13905e-05
0.00921793
-6.0201e-05
0.00922634
-3.44025e-05
0.00922997
-1.31521e-05
0.00922952
4.37564e-06
0.0092257
1.86889e-05
0.00921893
3.10232e-05
0.00920956
4.18547e-05
0.00919784
5.15253e-05
0.00918401
6.02673e-05
0.00916824
6.82154e-05
0.0091507
7.55e-05
0.00913155
8.21816e-05
0.00911089
8.83859e-05
0.00908884
9.41341e-05
0.00906548
9.95676e-05
0.00904089
0.000104656
0.00901513
0.000109576
0.00898825
0.000114214
0.00896027
0.00011883
0.00893126
0.000123165
0.00890118
0.000127647
0.00887013
0.000131769
0.000136269
0.0062634
-0.0022126
0.00649105
-0.00211358
0.00671349
-0.00201125
0.00692813
-0.00190429
0.00713282
-0.00179113
0.00732634
-0.00167536
0.00750798
-0.00156088
0.00767755
-0.00144998
0.00783548
-0.0013435
0.00798168
-0.00124166
0.00811636
-0.00114552
0.00823994
-0.00105567
0.00835295
-0.000972219
0.00845605
-0.00089497
0.00855002
-0.000823407
0.00863574
-0.000756619
0.0087141
-0.000693275
0.00878594
-0.000631788
0.00885189
-0.000570619
0.00891233
-0.000508634
0.00896731
-0.000445434
0.00901666
-0.000381585
0.00906004
-0.000318563
0.00909721
-0.000258344
0.00912806
-0.0002028
0.00915272
-0.000153219
0.00917148
-0.000110151
0.0091848
-7.35231e-05
0.00919323
-4.28379e-05
0.00919738
-1.72952e-05
0.00919772
4.029e-06
0.00919491
2.15015e-05
0.00918929
3.66472e-05
0.00918116
4.99819e-05
0.00917078
6.1908e-05
0.00915835
7.26989e-05
0.00914405
8.25134e-05
0.00912804
9.15079e-05
0.00911047
9.97546e-05
0.00909144
0.000107407
0.00907109
0.000114491
0.00904947
0.000121181
0.00902669
0.000127439
0.00900278
0.000133485
0.00897782
0.000139176
0.00895181
0.000144839
0.00892483
0.000150148
0.00889684
0.000155636
0.00886793
0.000160674
0.000166179
0.00714522
-0.00233164
0.00727143
-0.00223979
0.00740173
-0.00214155
0.00753296
-0.00203552
0.00766268
-0.00192085
0.00778925
-0.00180193
0.00791139
-0.00168301
0.00802792
-0.00156652
0.00813836
-0.00145393
0.0082426
-0.0013459
0.00834
-0.00124293
0.00843026
-0.00114592
0.00851327
-0.00105523
0.00858913
-0.000970831
0.00865812
-0.000892393
0.00872071
-0.000819214
0.00877758
-0.000750141
0.00882948
-0.000683693
0.00887719
-0.000618329
0.00892134
-0.000552776
0.00896226
-0.00048636
0.00899999
-0.000419312
0.00903426
-0.000352837
0.00906471
-0.000288789
0.00909096
-0.000229057
0.00911279
-0.000175044
0.0091301
-0.000127463
0.00914299
-8.64116e-05
0.0091517
-5.15498e-05
0.00915661
-2.22056e-05
0.00915802
2.6239e-06
0.00915649
2.30281e-05
0.0091523
4.08338e-05
0.00914574
5.65472e-05
0.00913702
7.0626e-05
0.00912634
8.33776e-05
0.00911388
9.49793e-05
0.00909977
0.000105611
0.00908418
0.000115353
0.0090672
0.000124386
0.00904895
0.000132738
0.00902951
0.000140618
0.00900898
0.000147977
0.00898738
0.00015508
0.00896481
0.000161754
0.00894125
0.00016839
0.0089168
0.0001746
0.00889142
0.000181019
0.0088652
0.000186897
0.000193327
0.0078334
-0.00235618
0.00787266
-0.00227905
0.00792384
-0.00219273
0.00798364
-0.00209532
0.0080495
-0.00198671
0.0081195
-0.00187193
0.00819188
-0.00175539
0.00826491
-0.00163954
0.00833704
-0.00152606
0.00840752
-0.00141638
0.00847574
-0.00131115
0.00854065
-0.00121083
0.00860151
-0.0011161
0.00865789
-0.00102721
0.00870956
-0.000944067
0.00875657
-0.000866223
0.00879921
-0.000792779
0.008838
-0.000722482
0.00887362
-0.00065395
0.00890677
-0.000585926
0.00893798
-0.000517569
0.00896746
-0.000448795
0.0089951
-0.00038048
0.00902056
-0.000314246
0.00904339
-0.000251885
0.00906316
-0.000194818
0.00907956
-0.000143857
0.0090924
-9.92589e-05
0.00910171
-6.08595e-05
0.00910768
-2.81765e-05
0.00911043
-1.25129e-07
0.00911048
2.29762e-05
0.00910803
4.32842e-05
0.00910335
6.1235e-05
0.00909662
7.73478e-05
0.00908805
9.19564e-05
0.00907777
0.000105252
0.00906595
0.000117433
0.00905272
0.000128587
0.00903818
0.000138919
0.00902246
0.00014846
0.00900563
0.000157448
0.00898778
0.000165827
0.00896896
0.000173904
0.00894923
0.000181478
0.00892862
0.000189001
0.0089072
0.000196024
0.00888493
0.000203285
0.00886192
0.000209911
0.000217171
0.00832817
-0.00230809
0.00829973
-0.00225061
0.00828871
-0.00218172
0.00829211
-0.00209871
0.00830748
-0.00200208
0.0083328
-0.00189726
0.008366
-0.00178858
0.00840494
-0.00167848
0.00844767
-0.00156879
0.00849247
-0.00146119
0.00853834
-0.00135702
0.00858436
-0.00125685
0.00862922
-0.00116096
0.00867198
-0.00106996
0.00871201
-0.0009841
0.00874899
-0.000903196
0.00878283
-0.000826623
0.00881376
-0.000753407
0.00884223
-0.00068242
0.00886885
-0.000612553
0.0088942
-0.000542918
0.0089186
-0.000473194
0.00894206
-0.000403942
0.00896434
-0.00033652
0.00898501
-0.000272563
0.00900362
-0.000213429
0.00901973
-0.00015996
0.00903299
-0.000112526
0.00904327
-7.11309e-05
0.00905055
-3.54654e-05
0.00905508
-4.65276e-06
0.00905695
2.11107e-05
0.00905654
4.36961e-05
0.00905404
6.37289e-05
0.00904965
8.17426e-05
0.00904351
9.80903e-05
0.00903579
0.000112972
0.00902662
0.000126602
0.00901614
0.000139072
0.00900445
0.00015061
0.00899166
0.000161245
0.00897786
0.000171248
0.00896314
0.000180553
0.00894753
0.000189507
0.00893113
0.000197883
0.00891394
0.000206193
0.00889603
0.000213928
0.00887739
0.000221925
0.00885811
0.000229193
0.000237172
0.00865085
-0.00221005
0.0085748
-0.00217455
0.00851911
-0.00212603
0.00848134
-0.00206094
0.00845947
-0.00198021
0.00845157
-0.00188936
0.00845545
-0.00179246
0.00846882
-0.00169185
0.00848949
-0.00158946
0.00851551
-0.00148721
0.0085451
-0.00138661
0.00857705
-0.0012888
0.00861037
-0.00119428
0.00864368
-0.00110328
0.00867598
-0.0010164
0.00870663
-0.000933846
0.00873529
-0.000855277
0.00876187
-0.000779992
0.0087866
-0.00070715
0.00880992
-0.000635867
0.00883231
-0.000565311
0.00885412
-0.000495008
0.00887545
-0.000425263
0.00889612
-0.000357197
0.00891584
-0.000292275
0.00893415
-0.000231745
0.0089506
-0.00017641
0.00896477
-0.000126697
0.0089764
-8.27538e-05
0.00898537
-4.44417e-05
0.00899192
-1.11969e-05
0.00899593
1.70929e-05
0.00899788
4.17548e-05
0.00899789
6.37114e-05
0.00899616
8.34803e-05
0.00899281
0.000101436
0.008988
0.000117784
0.00898185
0.00013275
0.0089745
0.000146427
0.00896604
0.000159063
0.0089566
0.000170687
0.00894625
0.000181598
0.00893508
0.000191721
0.00892314
0.000201443
0.00891052
0.00021051
0.00889722
0.000219493
0.00888332
0.000227824
0.00886881
0.000236437
0.00885377
0.000244227
0.000252798
0.00883344
-0.00208203
0.00872761
-0.00206873
0.00864281
-0.00204122
0.00857728
-0.00199542
0.00852963
-0.00193256
0.00849825
-0.00185798
0.00848105
-0.00177527
0.00847579
-0.00168658
0.00848026
-0.00159394
0.00849242
-0.00149936
0.00851036
-0.00140455
0.00853233
-0.00131078
0.00855709
-0.00121903
0.00858368
-0.00112987
0.00861081
-0.00104352
0.0086375
-0.000960543
0.0086632
-0.000880975
0.00868761
-0.000804405
0.00871074
-0.000730271
0.00873281
-0.000657946
0.00875422
-0.000586712
0.00877522
-0.000516017
0.00879594
-0.00044598
0.00881629
-0.000377541
0.00883603
-0.000312022
0.00885483
-0.000250543
0.00887223
-0.000193809
0.00888778
-0.000142247
0.00890115
-9.61229e-05
0.00891218
-5.54744e-05
0.008921
-2.00188e-05
0.00892751
1.05889e-05
0.00893212
3.71379e-05
0.00893498
6.08606e-05
0.00893623
8.22296e-05
0.00893601
0.00010165
0.00893446
0.000119333
0.0089317
0.000135512
0.00892785
0.000150275
0.00892302
0.000163891
0.00891733
0.000176386
0.00891084
0.000188085
0.00890365
0.000198906
0.00889583
0.000209272
0.00888743
0.000218905
0.00887849
0.000228434
0.00886908
0.000237231
0.00885919
0.000246327
0.00884892
0.000254503
0.000263525
0.00890979
-0.00193941
0.00878805
-0.001947
0.0086863
-0.00193947
0.00860351
-0.00191263
0.00853904
-0.00186808
0.00849172
-0.00181066
0.00845976
-0.00174332
0.00844112
-0.00166793
0.00843373
-0.00158655
0.00843562
-0.00150125
0.00844485
-0.00141379
0.00845967
-0.00132559
0.00847845
-0.00123781
0.00849995
-0.00115138
0.00852338
-0.00106695
0.00854756
-0.000984724
0.00857164
-0.000905057
0.00859515
-0.000827916
0.00861792
-0.000753035
0.00864002
-0.000680045
0.00866167
-0.000608364
0.00868306
-0.000537411
0.00870427
-0.000467185
0.00872524
-0.000398512
0.00874583
-0.000332618
0.00876578
-0.000270494
0.00878468
-0.000212708
0.00880207
-0.000159632
0.00881757
-0.000111626
0.00883101
-6.89098e-05
0.00884243
-3.14414e-05
0.00885174
1.27732e-06
0.00885936
2.95158e-05
0.00886537
5.48489e-05
0.00886995
7.76579e-05
0.0088732
9.83933e-05
0.00887527
0.00011727
0.00887625
0.000134527
0.00887628
0.000150245
0.00887546
0.000164709
0.0088739
0.000177944
0.00887169
0.000190301
0.00886891
0.000201685
0.00886562
0.000212561
0.0088619
0.000222622
0.00885778
0.000232555
0.00885334
0.000241676
0.00884856
0.000251105
0.00884355
0.000259518
0.000268834
0.00890946
-0.00179259
0.00878137
-0.00181891
0.00867123
-0.00182933
0.00857869
-0.0018201
0.00850385
-0.00179324
0.00844605
-0.00175286
0.00840388
-0.00170114
0.00837562
-0.00163967
0.00835947
-0.0015704
0.00835358
-0.00149536
0.00835614
-0.00141635
0.00836541
-0.00133486
0.00837978
-0.00125218
0.0083978
-0.0011694
0.00841833
-0.00108748
0.00844071
-0.0010071
0.00846394
-0.00092829
0.00848729
-0.000851271
0.00851043
-0.000776172
0.0085333
-0.000702908
0.00855597
-0.000631039
0.00857854
-0.000559978
0.008601
-0.000489652
0.00862334
-0.000420842
0.00864544
-0.000354728
0.00866713
-0.000292183
0.00868803
-0.000233609
0.00870769
-0.000179285
0.0087257
-0.000129641
0.00874189
-8.50921e-05
0.0087562
-4.57578e-05
0.00876877
-1.1294e-05
0.00877967
1.86235e-05
0.00878918
4.53385e-05
0.00879741
6.94283e-05
0.00880448
9.13235e-05
0.0088105
0.000111248
0.00881559
0.000129438
0.00881986
0.000145969
0.00882343
0.000161141
0.0088264
0.000174973
0.00882886
0.000187843
0.0088309
0.000199646
0.00883258
0.000210883
0.00883398
0.000221221
0.00883513
0.000231403
0.00883612
0.000240691
0.00883693
0.000250291
0.00883767
0.000258778
0.000268218
0.00885477
-0.00164799
0.0087263
-0.00169044
0.00861327
-0.0017163
0.00851599
-0.00172282
0.0084352
-0.00171245
0.0083707
-0.00168835
0.00832148
-0.00165193
0.00828623
-0.00160442
0.00826345
-0.00154762
0.00825151
-0.00148343
0.00824876
-0.0014136
0.00825356
-0.00133966
0.00826436
-0.00126298
0.00827972
-0.00118476
0.00829837
-0.00110613
0.00831932
-0.00102805
0.00834202
-0.000950996
0.00836566
-0.00087491
0.00838964
-0.000800153
0.00841376
-0.000727022
0.00843797
-0.000655254
0.00846227
-0.000584271
0.00848658
-0.000513966
0.00851086
-0.000445124
0.00853506
-0.000378921
0.008559
-0.00031613
0.00858237
-0.000256976
0.00860471
-0.000201622
0.00862562
-0.00015055
0.00864489
-0.000104367
0.00866249
-6.33569e-05
0.0086786
-2.74078e-05
0.00869313
4.09475e-06
0.0087065
3.19742e-05
0.00871872
5.72066e-05
0.00872994
8.01043e-05
0.00874026
0.000100921
0.00874981
0.000119895
0.00875869
0.000137087
0.00876701
0.000152814
0.00877489
0.000167092
0.00878242
0.000180319
0.00878968
0.000192382
0.00879675
0.000203818
0.0088037
0.000214271
0.00881057
0.000224535
0.00881744
0.000233818
0.00882432
0.000243415
0.0088313
0.000251798
0.000261175
0.00876081
-0.00150928
0.00863538
-0.00156501
0.00852273
-0.00160365
0.0084239
-0.00162399
0.0083401
-0.00162865
0.00827145
-0.00161971
0.00821737
-0.00159784
0.00817695
-0.001564
0.00814902
-0.00151969
0.00813223
-0.00146663
0.0081251
-0.00140647
0.00812617
-0.00134073
0.00813398
-0.00127079
0.00814715
-0.00119793
0.00816442
-0.0011234
0.00818468
-0.00104831
0.00820708
-0.000973396
0.00823119
-0.000899021
0.00825635
-0.000825315
0.0082821
-0.000752771
0.00830826
-0.000681415
0.00833472
-0.000610732
0.00836137
-0.000540608
0.00838811
-0.000471864
0.00841488
-0.0004057
0.00844156
-0.000342807
0.00846782
-0.000283239
0.00849324
-0.000227035
0.00851741
-0.000174721
0.00854013
-0.00012709
0.00856141
-8.4639e-05
0.00858132
-4.73115e-05
0.00859992
-1.45037e-05
0.00861744
1.44551e-05
0.008634
4.06443e-05
0.0086497
6.44011e-05
0.00866467
8.59549e-05
0.00867901
0.000105554
0.00869285
0.000123248
0.0087063
0.000139367
0.00871946
0.000153925
0.00873244
0.000167342
0.00874533
0.000179496
0.00875819
0.000190958
0.00877111
0.00020135
0.00878413
0.000211513
0.00879734
0.000220609
0.00881074
0.000230012
0.00882444
0.000238101
0.000247216
0.00863704
-0.00137848
0.00851639
-0.00144436
0.00840593
-0.00149319
0.00830752
-0.00152558
0.00822262
-0.00154375
0.00815154
-0.00154862
0.0080941
-0.00154041
0.00804981
-0.00151971
0.00801782
-0.0014877
0.00799705
-0.00144586
0.00798628
-0.0013957
0.00798421
-0.00133866
0.00798952
-0.0012761
0.00800091
-0.00120932
0.00801715
-0.00113963
0.00803712
-0.00106828
0.00805988
-0.000996157
0.0080847
-0.000923835
0.00811122
-0.000851837
0.00813893
-0.00078048
0.0081674
-0.000709894
0.00819642
-0.00063975
0.00822581
-0.000569997
0.00825545
-0.000501504
0.00828526
-0.000435508
0.00831509
-0.000372634
0.00834463
-0.000312782
0.00837348
-0.000255887
0.00840127
-0.000202512
0.00842781
-0.000153623
0.00845307
-0.000109908