/*--------------------------------*- C++ -*----------------------------------*\
  =========                 |
  \\      /  F ield         | OpenFOAM: The Open Source CFD Toolbox
   \\    /   O peration     | Website:  https://openfoam.org
    \\  /    A nd           | Version:  7
     \\/     M anipulation  |
\*---------------------------------------------------------------------------*/
FoamFile
{
    version     2.0;
    format      ascii;
    class       volVectorField;
    location    "5";
    object      U;
}
// * * * * * * * * * * * * * * * * * * * * * * * * * * * * * * * * * * * * * //

dimensions      [0 1 -1 0 0 0 0];

internalField   nonuniform List<vector> 
6050
(
(-0.488472 0.0110628 2.58304e-20)
(-0.528655 0.00862871 -3.63231e-20)
(-0.55571 0.00527316 2.13369e-20)
(-0.566898 0.000914333 1.11457e-20)
(-0.559402 -0.00445798 3.79852e-21)
(-0.531009 -0.010705 -1.11642e-20)
(-0.480731 -0.0176586 -5.41883e-21)
(-0.409202 -0.0245407 -2.9596e-21)
(-0.318713 -0.0306849 9.83893e-21)
(-0.215185 -0.0352919 -7.53407e-21)
(-0.0992218 -0.0385549 -4.79392e-22)
(0.0133516 -0.0387701 3.6428e-22)
(0.132301 -0.0402094 -1.37348e-22)
(-0.466054 0.0327871 -1.13069e-19)
(-0.500322 0.0255224 7.074e-20)
(-0.52086 0.0155418 -5.59179e-20)
(-0.5251 0.00260996 7.21643e-21)
(-0.510434 -0.0133175 -3.04891e-20)
(-0.475033 -0.0318616 9.83386e-21)
(-0.418071 -0.0523039 1.71262e-20)
(-0.34044 -0.0725454 2.48073e-20)
(-0.244647 -0.0905174 1.21793e-20)
(-0.137828 -0.103935 2.3516e-20)
(-0.0188932 -0.11277 9.21211e-22)
(0.0917104 -0.113476 -5.64578e-21)
(0.213935 -0.116658 -8.63213e-22)
(-0.422894 0.0533593 9.11441e-21)
(-0.4461 0.0413852 -2.71824e-20)
(-0.454646 0.025052 5.52478e-20)
(-0.446366 0.00400618 -1.67532e-20)
(-0.419125 -0.021853 1.82391e-20)
(-0.37175 -0.0519611 -1.89639e-20)
(-0.303817 -0.0848345 -3.10532e-20)
(-0.216826 -0.117378 -2.69357e-20)
(-0.113505 -0.145793 -2.7371e-20)
(-0.00267387 -0.166903 -3.96272e-20)
(0.118735 -0.179349 7.50101e-21)
(0.224205 -0.1804 2.6987e-21)
(0.347782 -0.182793 2.99873e-21)
(-0.362029 0.0721201 -8.49132e-21)
(-0.370305 0.0556644 -2.56913e-21)
(-0.363028 0.0334584 -1.63216e-19)
(-0.338696 0.00511127 -7.679e-20)
(-0.295903 -0.0294004 3.53803e-20)
(-0.234192 -0.0699569 3.18394e-21)
(-0.153853 -0.11379 3.05575e-20)
(-0.0571503 -0.157122 -7.17092e-20)
(0.0525884 -0.193432 2.33441e-20)
(0.165556 -0.220786 2.6692e-20)
(0.285345 -0.235094 1.59042e-20)
(0.382108 -0.236006 -6.58306e-21)
(0.500028 -0.234957 -3.57261e-21)
(-0.287387 0.0885204 -6.63202e-21)
(-0.278354 0.0679175 -3.30663e-21)
(-0.253201 0.0404931 3.2194e-20)
(-0.211192 0.0058225 4.79388e-20)
(-0.152106 -0.0361798 -1.28976e-19)
(-0.0759043 -0.0852771 1.4939e-19)
(0.0164815 -0.137985 7.38115e-20)
(0.121969 -0.189759 8.76101e-20)
(0.235649 -0.23182 -1.14463e-21)
(0.346965 -0.26339 -1.30574e-20)
(0.459609 -0.277784 3.22598e-21)
(0.544553 -0.277997 -5.96637e-21)
(0.64873 -0.271497 -9.66984e-21)
(-0.176079 0.0777891 1.24107e-20)
(-0.132709 0.0459114 3.4256e-20)
(-0.073354 0.00604789 2.78578e-19)
(0.00148006 -0.0421863 -3.16679e-21)
(0.0914167 -0.0976996 9.0376e-20)
(0.194724 -0.156975 -1.95921e-19)
(0.306925 -0.214589 2.49777e-20)
(0.421516 -0.260503 -2.3673e-20)
(0.527533 -0.293844 -1.28621e-20)
(0.627688 -0.306391 1.38516e-20)
(0.697841 -0.305355 -1.93047e-20)
(0.782004 -0.292581 7.82121e-21)
(-0.069155 0.0849864 -1.79076e-19)
(-0.00849305 0.0493972 2.19657e-20)
(0.0667383 0.00540769 -5.67492e-20)
(0.155777 -0.0472901 8.90701e-20)
(0.258184 -0.107629 7.57904e-22)
(0.37111 -0.171353 -6.80612e-20)
(0.487978 -0.232476 1.62165e-19)
(0.600143 -0.279453 -5.40142e-20)
(0.696802 -0.312093 -3.34409e-20)
(0.780092 -0.321308 4.36147e-20)
(0.832879 -0.318543 9.7688e-21)
(0.893635 -0.299909 3.28891e-20)
(0.0373748 0.0891885 5.4527e-19)
(0.113521 0.0505899 7.56124e-21)
(0.202868 0.00339425 -3.59865e-19)
(0.304777 -0.0524944 -3.87994e-20)
(0.41867 -0.116172 -3.27331e-19)
(0.539924 -0.182216 1.40411e-19)
(0.65873 -0.243987 -9.34612e-20)
(0.76447 -0.289207 8.2511e-20)
(0.847409 -0.318903 8.75699e-20)
(0.910691 -0.323898 2.45105e-20)
(0.944546 -0.319278 -5.3173e-20)
(0.981616 -0.296142 -2.48598e-20)
(0.139614 0.0901044 -4.44925e-19)
(0.229405 0.0491722 -1.29853e-19)
(0.331591 -0.000403996 8.36187e-20)
(0.445988 -0.0586237 1.48673e-19)
(0.570981 -0.124054 -4.0361e-20)
(0.698574 -0.189999 1.55847e-19)
(0.815181 -0.249387 6.91307e-21)
(0.909572 -0.290309 -1.26704e-19)
(0.974658 -0.31545 -1.01693e-21)
(1.01638 -0.316134 -1.05918e-19)
(1.03139 -0.310108 1.58006e-20)
(1.04727 -0.284336 -2.74719e-20)
(0.235275 0.0875744 2.07157e-19)
(0.337766 0.0448496 -1.71182e-19)
(0.452931 -0.00645179 2.70588e-19)
(0.580482 -0.0659229 2.58249e-19)
(0.71569 -0.131079 3.13914e-19)
(0.8456 -0.194219 -2.8092e-19)
(0.954047 -0.248422 2.88714e-20)
(1.03177 -0.283318 1.76638e-19)
(1.07614 -0.30332 -6.21684e-20)
(1.09679 -0.300433 -1.5519e-21)
(1.09499 -0.293947 -3.02469e-21)
(1.09406 -0.267412 2.91291e-20)
(0.32435 0.0815275 -2.20275e-19)
(0.440273 0.0375561 -3.40405e-20)
(0.570057 -0.0145636 -1.17873e-19)
(0.711143 -0.0736741 -7.9442e-20)
(0.85317 -0.136062 -1.75277e-19)
(0.978528 -0.193821 -7.62722e-20)
(1.07185 -0.240901 2.76386e-20)
(1.12868 -0.269283 -1.09445e-19)
(1.15183 -0.284606 1.13388e-20)
(1.15408 -0.27945 3.38807e-21)
(1.13907 -0.273597 -4.78564e-20)
(1.12636 -0.247777 2.18728e-20)
(0.541371 0.0278546 -1.13327e-19)
(0.687394 -0.0236158 3.64225e-19)
(0.83957 -0.0802093 -4.03887e-19)
(0.981163 -0.137357 -3.42586e-19)
(1.09328 -0.187993 4.3903e-19)
(1.1656 -0.227348 -8.55113e-20)
(1.20001 -0.249934 4.08696e-20)
(1.20418 -0.2617 5.00384e-20)
(1.19226 -0.255707 -2.65762e-20)
(1.16829 -0.251337 6.9824e-20)
(1.1484 -0.227147 7.10698e-20)
(0.64639 0.0171984 1.82834e-19)
(0.80735 -0.0316342 -2.06854e-19)
(0.963459 -0.0835256 -7.79495e-20)
(1.09457 -0.133782 2.67837e-19)
(1.1857 -0.176868 -3.1575e-19)
(1.23437 -0.209159 -2.02273e-20)
(1.24809 -0.227389 9.96119e-20)
(1.23757 -0.236838 -3.38158e-20)
(1.21614 -0.231209 -3.53605e-20)
(1.18713 -0.228728 5.07292e-21)
(1.16356 -0.206594 -3.69728e-20)
(0.758285 0.00776997 -3.67073e-19)
(0.927594 -0.0364957 2.15286e-19)
(1.0767 -0.0822774 1.28981e-19)
(1.18782 -0.125308 -1.47954e-19)
(1.25393 -0.1616 2.16621e-19)
(1.28016 -0.188211 1.44705e-19)
(1.27734 -0.203635 -3.80951e-20)
(1.25704 -0.211719 -4.97247e-21)
(1.23018 -0.207292 -1.06812e-20)
(1.19916 -0.206663 -1.07354e-19)
(1.17426 -0.186727 -1.22028e-19)
(0.874888 0.00171086 1.54355e-19)
(1.04128 -0.036907 -1.26434e-19)
(1.17236 -0.0763979 8.47719e-20)
(1.25788 -0.113004 6.81179e-20)
(1.29942 -0.143848 -4.39317e-20)
(1.30725 -0.166278 1.03592e-19)
(1.2929 -0.180129 -9.50234e-20)
(1.26716 -0.187401 1.11328e-19)
(1.23786 -0.184699 1.78452e-19)
(1.20689 -0.185561 7.25675e-20)
(1.18201 -0.167878 1.02438e-19)
(1.1404 -0.0328998 1.25514e-20)
(1.2462 -0.0669086 4.5618e-20)
(1.30547 -0.0984027 -7.34151e-20)
(1.32622 -0.12515 -1.69598e-19)
(1.32072 -0.144653 -3.42628e-21)
(1.29938 -0.157712 1.67892e-19)
(1.27139 -0.164423 -1.24165e-19)
(1.24155 -0.163765 -2.47577e-19)
(1.21192 -0.16554 -1.60623e-19)
(1.18774 -0.150222 5.89514e-20)
(1.21952 -0.0255129 -3.33813e-19)
(1.29806 -0.0552291 2.44655e-19)
(1.33423 -0.082884 2.65834e-20)
(1.33931 -0.106598 7.08425e-20)
(1.32515 -0.124093 -1.46431e-19)
(1.3003 -0.136733 -3.99151e-20)
(1.27205 -0.143001 -3.45823e-20)
(1.24277 -0.144564 2.79455e-20)
(1.21521 -0.146517 9.98293e-20)
(1.19188 -0.133834 -1.76507e-19)
(1.33092 -0.0425903 -1.15103e-19)
(1.34887 -0.0673915 2.93501e-20)
(1.34318 -0.0888214 -1.58325e-19)
(1.32404 -0.104934 -1.49216e-20)
(1.29803 -0.117241 2.42066e-20)
(1.27057 -0.12321 -1.8646e-20)
(1.24249 -0.126981 2.12628e-19)
(1.21726 -0.128245 8.01568e-21)
(1.19456 -0.118808 1.76068e-19)
(1.34913 -0.0298184 -4.38156e-20)
(1.35383 -0.0524539 -1.3668e-19)
(1.34134 -0.0721128 -2.30789e-19)
(1.31979 -0.0872369 -3.44952e-21)
(1.29404 -0.0991534 -8.78627e-20)
(1.26785 -0.105076 7.01807e-20)
(1.24135 -0.1107 -3.48865e-20)
(1.21823 -0.110473 -2.25667e-19)
(1.19581 -0.105467 -7.80287e-20)
(1.35258 -0.0383071 2.06799e-19)
(1.33621 -0.0565504 2.93136e-19)
(1.31391 -0.0709115 -4.27754e-20)
(1.28916 -0.0823796 6.09387e-20)
(1.26442 -0.0885469 -1.92723e-20)
(1.23975 -0.0952402 1.15552e-19)
(1.21818 -0.0933671 5.08572e-20)
(1.19593 -0.0943231 5.20301e-20)
(1.34766 -0.025007 2.19945e-20)
(1.32936 -0.0420878 7.7852e-20)
(1.30729 -0.0558086 -1.46713e-20)
(1.28384 -0.0668497 1.21459e-19)
(1.26064 -0.0734135 1.07681e-20)
(1.23787 -0.0802443 -2.68354e-19)
(1.21742 -0.0779318 1.07147e-19)
(1.19467 -0.0873799 -9.53089e-20)
(1.32172 -0.028609 -2.94605e-20)
(1.30039 -0.041776 -2.8667e-20)
(1.27834 -0.0524699 -1.92546e-20)
(1.25667 -0.059363 1.1286e-19)
(1.23561 -0.0659234 7.60183e-20)
(1.21591 -0.0657665 2.10502e-20)
(1.19723 -0.0718579 5.42456e-20)
(1.31382 -0.0160202 -3.0934e-20)
(1.29345 -0.0287132 -1.09473e-20)
(1.27277 -0.0391215 1.0007e-19)
(1.25254 -0.0462059 -4.93581e-20)
(1.23286 -0.0530303 -5.4077e-20)
(1.21491 -0.0530602 -1.08582e-19)
(1.19662 -0.0607184 -6.7407e-20)
(1.28658 -0.0165003 3.39978e-21)
(1.26718 -0.0266594 -1.28832e-19)
(1.24823 -0.0340346 3.00259e-20)
(1.23003 -0.0406931 -5.41311e-20)
(1.21285 -0.0421469 -1.88582e-19)
(1.1966 -0.0495579 9.53153e-20)
(1.26157 -0.0150369 6.98769e-20)
(1.24384 -0.0225774 -1.60038e-20)
(1.22674 -0.0294254 1.82119e-19)
(1.21083 -0.0315571 1.62116e-19)
(1.19551 -0.0389434 6.10129e-20)
(1.23927 -0.0119045 -5.41185e-21)
(1.22332 -0.0187652 -1.24537e-19)
(1.20823 -0.0217637 -4.48799e-20)
(1.19408 -0.0292044 -6.01249e-20)
(1.21957 -0.0088407 -9.0298e-21)
(1.20542 -0.012539 1.09141e-19)
(1.19216 -0.0198548 1.11582e-19)
(1.20226 -0.00385456 -6.4854e-20)
(1.18984 -0.0111828 -2.30588e-20)
(1.20226 0.00385456 -2.2552e-20)
(1.18984 0.0111828 -1.56904e-19)
(1.21957 0.0088407 5.70547e-20)
(1.20542 0.012539 1.17527e-19)
(1.19216 0.0198548 6.05119e-20)
(1.23927 0.0119045 7.87196e-20)
(1.22332 0.0187652 -6.07537e-20)
(1.20823 0.0217637 -9.54901e-20)
(1.19408 0.0292044 1.37656e-20)
(1.26157 0.0150369 -1.77777e-19)
(1.24384 0.0225774 -2.39574e-21)
(1.22674 0.0294254 2.03835e-19)
(1.21083 0.0315571 7.81782e-20)
(1.19551 0.0389434 6.3924e-20)
(1.28658 0.0165003 -4.40834e-20)
(1.26718 0.0266594 2.78829e-20)
(1.24823 0.0340346 -2.42439e-20)
(1.23003 0.0406931 2.08295e-20)
(1.21285 0.0421469 -1.22358e-19)
(1.1966 0.049558 5.72736e-20)
(1.31382 0.0160202 3.38602e-21)
(1.29345 0.0287132 8.55815e-20)
(1.27277 0.0391215 3.70292e-20)
(1.25254 0.0462059 -8.75459e-20)
(1.23286 0.0530303 -1.64783e-20)
(1.21491 0.0530602 -8.44874e-21)
(1.19662 0.0607184 -1.12546e-19)
(1.32172 0.028609 -1.31627e-20)
(1.30039 0.041776 4.2499e-21)
(1.27834 0.0524699 -5.39587e-20)
(1.25667 0.059363 4.50233e-20)
(1.23561 0.0659234 3.29734e-20)
(1.21591 0.0657665 2.37488e-21)
(1.19723 0.0718579 8.43073e-20)
(1.34766 0.025007 -1.21285e-19)
(1.32936 0.0420878 -1.75104e-19)
(1.30729 0.0558086 1.31782e-19)
(1.28384 0.0668497 7.86207e-20)
(1.26064 0.0734135 -3.17337e-20)
(1.23787 0.0802443 -2.47037e-19)
(1.21742 0.0779318 2.62051e-20)
(1.19467 0.0873799 1.18955e-20)
(1.35258 0.0383071 2.3316e-19)
(1.33621 0.0565504 2.31669e-19)
(1.31391 0.0709115 -7.35582e-20)
(1.28916 0.0823796 1.65296e-20)
(1.26442 0.0885469 4.51095e-20)
(1.23975 0.0952402 3.94276e-20)
(1.21818 0.0933671 1.07366e-19)
(1.19593 0.0943231 3.43729e-20)
(1.34913 0.0298184 -6.98039e-20)
(1.35383 0.0524539 -1.06727e-19)
(1.34134 0.0721128 -1.59251e-19)
(1.31979 0.0872369 3.28443e-20)
(1.29404 0.0991534 -1.27093e-19)
(1.26785 0.105076 -3.6648e-21)
(1.24135 0.1107 -7.99656e-20)
(1.21823 0.110473 -1.03046e-19)
(1.19581 0.105467 -6.18941e-20)
(1.33092 0.0425902 4.89802e-20)
(1.34887 0.0673915 -6.32027e-20)
(1.34318 0.0888214 -1.33775e-19)
(1.32404 0.104934 -7.62685e-20)
(1.29803 0.117241 1.09894e-19)
(1.27057 0.12321 -6.21284e-20)
(1.24249 0.126981 2.55409e-19)
(1.21726 0.128245 1.15053e-19)
(1.19456 0.118808 1.40151e-20)
(1.21952 0.0255129 4.32579e-20)
(1.29805 0.0552291 -2.02867e-20)
(1.33423 0.082884 -6.25878e-20)
(1.33931 0.106598 3.12211e-19)
(1.32515 0.124093 -1.89442e-19)
(1.3003 0.136733 -1.54264e-19)
(1.27205 0.143001 3.16448e-20)
(1.24277 0.144564 2.31406e-20)
(1.21521 0.146517 2.52115e-19)
(1.19188 0.133834 -2.22025e-19)
(1.1404 0.0328998 1.76621e-19)
(1.2462 0.0669086 1.82293e-20)
(1.30547 0.0984027 -4.25465e-20)
(1.32622 0.12515 -1.25111e-19)
(1.32072 0.144653 3.83064e-20)
(1.29938 0.157712 7.7058e-20)
(1.27139 0.164423 -1.06083e-19)
(1.24155 0.163765 -2.21783e-19)
(1.21192 0.16554 -1.13191e-19)
(1.18774 0.150222 4.60574e-20)
(0.874888 -0.00171088 6.78855e-19)
(1.04128 0.0369069 -2.98176e-19)
(1.17236 0.0763979 1.82374e-20)
(1.25788 0.113004 1.96236e-19)
(1.29942 0.143848 1.35223e-19)
(1.30725 0.166278 -8.93306e-20)
(1.2929 0.180129 3.07445e-20)
(1.26716 0.187401 8.31861e-20)
(1.23786 0.184699 5.59393e-20)
(1.20689 0.185561 9.58305e-20)
(1.18201 0.167878 1.81106e-19)
(0.758285 -0.00776998 -4.21575e-19)
(0.927594 0.0364957 2.61977e-19)
(1.0767 0.0822774 1.76216e-19)
(1.18782 0.125308 -3.27241e-19)
(1.25393 0.1616 4.20271e-19)
(1.28016 0.188211 -3.28815e-20)
(1.27734 0.203635 -5.79911e-20)
(1.25704 0.211719 -3.01415e-20)
(1.23018 0.207292 -5.88714e-21)
(1.19916 0.206663 -1.38574e-20)
(1.17426 0.186727 -7.13303e-20)
(0.64639 -0.0171984 1.62254e-19)
(0.807349 0.0316342 -1.98279e-19)
(0.963459 0.0835255 -9.14761e-20)
(1.09457 0.133782 2.75945e-19)
(1.1857 0.176868 -4.14929e-19)
(1.23437 0.209159 -3.12765e-21)
(1.24809 0.227389 1.37648e-19)
(1.23757 0.236838 -7.348e-20)
(1.21614 0.231209 4.91929e-20)
(1.18713 0.228728 -8.94815e-20)
(1.16356 0.206594 -5.69966e-20)
(0.541371 -0.0278546 8.2061e-20)
(0.687394 0.0236157 2.15165e-19)
(0.83957 0.0802093 -3.2776e-19)
(0.981163 0.137357 -3.28057e-19)
(1.09328 0.187993 3.92339e-19)
(1.1656 0.227348 -8.23939e-20)
(1.20001 0.249934 1.08546e-19)
(1.20418 0.2617 7.12162e-20)
(1.19226 0.255707 -1.00873e-19)
(1.16829 0.251337 7.88001e-20)
(1.1484 0.227147 5.15683e-20)
(0.32435 -0.0815275 3.14315e-19)
(0.440273 -0.0375561 1.00215e-19)
(0.570057 0.0145636 -4.38561e-19)
(0.711143 0.0736741 7.92898e-20)
(0.85317 0.136062 -2.45907e-19)
(0.978528 0.19382 -1.61706e-20)
(1.07185 0.240901 8.04818e-20)
(1.12868 0.269283 -1.37725e-19)
(1.15183 0.284606 -3.03194e-20)
(1.15408 0.27945 -2.02731e-20)
(1.13907 0.273597 8.25695e-21)
(1.12636 0.247777 -1.41264e-20)
(0.235275 -0.0875744 1.98828e-19)
(0.337766 -0.0448496 -1.05397e-19)
(0.452931 0.00645177 3.92942e-19)
(0.580482 0.0659228 -4.66734e-20)
(0.71569 0.131079 3.38476e-19)
(0.8456 0.194219 -7.72644e-20)
(0.954047 0.248422 4.35022e-20)
(1.03177 0.283318 -5.33639e-20)
(1.07614 0.30332 5.70145e-20)
(1.09679 0.300433 2.38048e-20)
(1.09499 0.293947 9.60916e-21)
(1.09406 0.267412 -2.03613e-20)
(0.139614 -0.0901044 -5.54374e-19)
(0.229405 -0.0491722 -6.83945e-20)
(0.331591 0.000403977 9.75406e-20)
(0.445988 0.0586237 1.43822e-19)
(0.570981 0.124054 1.47575e-19)
(0.698574 0.189999 1.8469e-20)
(0.815181 0.249387 -1.35914e-20)
(0.909572 0.290309 -1.84455e-19)
(0.974658 0.31545 -1.38603e-20)
(1.01638 0.316134 2.76534e-20)
(1.03139 0.310108 -4.43576e-20)
(1.04727 0.284336 -4.97123e-20)
(0.0373748 -0.0891885 3.80866e-19)
(0.113521 -0.05059 -5.38014e-20)
(0.202868 -0.00339427 -2.78401e-19)
(0.304777 0.0524944 -2.09179e-19)
(0.41867 0.116172 -6.76733e-20)
(0.539924 0.182216 -6.83468e-20)
(0.65873 0.243987 5.21491e-20)
(0.76447 0.289207 5.6464e-20)
(0.847409 0.318903 6.442e-20)
(0.910691 0.323898 3.40102e-21)
(0.944546 0.319278 5.94621e-21)
(0.981616 0.296142 -3.46976e-20)
(-0.069155 -0.0849864 -2.29761e-19)
(-0.00849306 -0.0493973 1.51351e-19)
(0.0667382 -0.00540771 -5.51789e-20)
(0.155777 0.0472901 1.06938e-19)
(0.258184 0.107629 -2.08965e-20)
(0.37111 0.171353 -2.8129e-20)
(0.487978 0.232476 7.04241e-20)
(0.600143 0.279453 -5.08922e-20)
(0.696802 0.312093 3.72606e-20)
(0.780092 0.321308 9.56994e-22)
(0.832879 0.318543 1.52106e-20)
(0.893635 0.299909 5.22092e-20)
(-0.176079 -0.0777891 4.63333e-20)
(-0.132709 -0.0459114 9.09845e-20)
(-0.073354 -0.0060479 2.16044e-19)
(0.00148004 0.0421863 -6.37494e-20)
(0.0914167 0.0976996 7.34381e-20)
(0.194724 0.156975 -8.06216e-20)
(0.306925 0.214589 -6.97148e-20)
(0.421516 0.260503 7.27047e-20)
(0.527533 0.293844 -1.77662e-20)
(0.627688 0.306391 -4.59245e-20)
(0.697841 0.305355 1.976e-20)
(0.782004 0.292581 -1.41255e-20)
(-0.287387 -0.0885204 1.51785e-19)
(-0.278354 -0.0679175 -2.36204e-20)
(-0.253201 -0.0404931 7.53859e-21)
(-0.211192 -0.00582252 -2.97199e-20)
(-0.152106 0.0361797 -3.43898e-21)
(-0.0759043 0.0852771 1.19031e-19)
(0.0164814 0.137985 1.20908e-19)
(0.121969 0.189759 1.1587e-20)
(0.235649 0.23182 3.71136e-20)
(0.346965 0.26339 -5.46486e-20)
(0.459609 0.277784 4.93338e-20)
(0.544553 0.277997 -3.47758e-20)
(0.64873 0.271497 -5.79147e-21)
(-0.362029 -0.0721201 2.05391e-20)
(-0.370305 -0.0556644 -4.31961e-20)
(-0.363028 -0.0334584 -7.69024e-20)
(-0.338696 -0.00511129 -1.19813e-19)
(-0.295903 0.0294004 6.35595e-20)
(-0.234192 0.0699569 -1.62895e-20)
(-0.153853 0.11379 6.76348e-20)
(-0.0571503 0.157122 -1.0201e-19)
(0.0525884 0.193432 3.38775e-20)
(0.165556 0.220786 2.70409e-20)
(0.285345 0.235094 -1.85898e-20)
(0.382108 0.236006 1.33011e-20)
(0.500028 0.234957 -4.73779e-21)
(-0.422894 -0.0533593 -9.03117e-21)
(-0.4461 -0.0413852 -4.98887e-20)
(-0.454646 -0.025052 2.24619e-20)
(-0.446366 -0.0040062 2.58621e-20)
(-0.419125 0.021853 3.80601e-20)
(-0.37175 0.0519611 -4.6623e-20)
(-0.303817 0.0848345 -1.92957e-20)
(-0.216826 0.117378 2.68731e-21)
(-0.113505 0.145793 -6.13896e-20)
(-0.00267387 0.166903 -2.12906e-20)
(0.118735 0.179349 -7.11847e-21)
(0.224205 0.1804 1.33625e-20)
(0.347782 0.182793 1.99163e-21)
(-0.466054 -0.0327872 -9.76086e-20)
(-0.500322 -0.0255224 6.93196e-20)
(-0.52086 -0.0155418 -5.70171e-20)
(-0.5251 -0.00260998 3.18776e-20)
(-0.510434 0.0133174 -4.30317e-20)
(-0.475033 0.0318615 -6.66211e-21)
(-0.418071 0.0523039 1.06459e-20)
(-0.34044 0.0725454 3.24236e-20)
(-0.244647 0.0905173 1.50588e-20)
(-0.137828 0.103935 2.7281e-20)
(-0.0188932 0.11277 -5.31793e-21)
(0.0917104 0.113476 -3.13881e-21)
(0.213935 0.116658 3.87448e-22)
(-0.488472 -0.0110628 2.75376e-20)
(-0.528655 -0.00862872 -3.07934e-20)
(-0.55571 -0.00527318 1.20501e-20)
(-0.566898 -0.000914353 2.4223e-20)
(-0.559402 0.00445796 -1.07215e-20)
(-0.531009 0.010705 1.90005e-21)
(-0.480731 0.0176585 -1.26295e-20)
(-0.409202 0.0245407 -2.33304e-21)
(-0.318713 0.0306849 8.00652e-21)
(-0.215185 0.0352919 -3.66757e-21)
(-0.0992218 0.0385549 -2.95745e-21)
(0.0133516 0.0387701 -3.61946e-22)
(0.132301 0.0402094 6.23801e-22)
(0.217956 -0.0366448 9.06478e-22)
(0.279906 -0.0336517 -5.74066e-22)
(0.337959 -0.030891 6.66072e-22)
(0.392833 -0.0283188 -1.39372e-21)
(0.444726 -0.0258526 1.40668e-22)
(0.493568 -0.0234998 1.12143e-21)
(0.539316 -0.0213035 -3.40578e-22)
(0.582025 -0.0192784 -8.35197e-23)
(0.621816 -0.0174204 2.75598e-22)
(0.658844 -0.0157254 -1.1596e-21)
(0.693274 -0.0141882 1.13217e-21)
(0.725276 -0.0128006 3.1711e-23)
(0.755024 -0.0115504 -5.92508e-22)
(0.782681 -0.0104215 1.22187e-22)
(0.808389 -0.00939493 7.56567e-23)
(0.832256 -0.00844931 -1.95072e-22)
(0.854345 -0.00756317 2.96741e-22)
(0.87467 -0.00671772 -2.04216e-22)
(0.8932 -0.00590039 1.42304e-22)
(0.909881 -0.00510745 -2.59826e-22)
(0.924656 -0.00434485 1.86506e-22)
(0.937505 -0.00362646 9.23946e-23)
(0.948464 -0.00296997 3.88261e-23)
(0.957641 -0.00239128 -2.92023e-23)
(0.965209 -0.00189977 -1.80475e-22)
(0.971382 -0.00149632 4.04644e-23)
(0.976386 -0.00117446 3.1302e-23)
(0.980439 -0.00092326 -3.29734e-23)
(0.983734 -0.000730175 1.3946e-23)
(0.986431 -0.000582621 1.70323e-23)
(0.988656 -0.000468893 -9.04732e-24)
(0.990518 -0.000380807 -2.74536e-23)
(0.992091 -0.000311198 4.69097e-24)
(0.993422 -0.00025491 1.67442e-24)
(0.994548 -0.000208714 2.24668e-24)
(0.9955 -0.000170457 -2.24222e-24)
(0.996301 -0.000138781 -6.00931e-24)
(0.996974 -0.000112512 1.84854e-24)
(0.997534 -9.09439e-05 1.58996e-24)
(0.998003 -7.3134e-05 -8.47186e-25)
(0.998387 -5.87099e-05 5.18074e-25)
(0.998711 -4.6801e-05 -2.97143e-25)
(0.998968 -3.73611e-05 3.33937e-25)
(0.99919 -2.94783e-05 9.98643e-25)
(0.999356 -2.35147e-05 1.22095e-26)
(0.999512 -1.83085e-05 1.28192e-26)
(0.99961 -1.48152e-05 -5.73193e-26)
(0.999729 -1.13289e-05 4.96047e-26)
(0.999775 -9.69582e-06 -3.91389e-26)
(0.999884 -7.20384e-06 9.84481e-26)
(0.292222 -0.106251 1.69897e-21)
(0.348282 -0.097638 -1.15004e-21)
(0.400439 -0.0896921 3.00678e-21)
(0.449834 -0.0822256 -1.21805e-21)
(0.496615 -0.0750361 -1.11813e-21)
(0.540601 -0.0681721 -1.24077e-21)
(0.581737 -0.0617581 3.02369e-21)
(0.620105 -0.0558542 -2.05143e-21)
(0.655831 -0.0504471 2.05285e-21)
(0.689052 -0.0455185 -1.9825e-23)
(0.71992 -0.0410536 -1.17458e-21)
(0.748593 -0.037029 -1.31515e-21)
(0.775236 -0.0334086 1.79911e-21)
(0.800006 -0.0301457 -1.17342e-21)
(0.823041 -0.0271849 -4.73202e-22)
(0.844452 -0.0244643 7.35963e-22)
(0.86431 -0.0219208 3.3377e-22)
(0.882639 -0.0194979 -6.62079e-22)
(0.899421 -0.0171567 2.56894e-22)
(0.91461 -0.0148836 5.24335e-23)
(0.928152 -0.0126931 3.1709e-22)
(0.940017 -0.0106237 -6.4144e-22)
(0.950219 -0.00872612 4.72791e-22)
(0.958838 -0.00704716 -3.73731e-22)
(0.966009 -0.00561556 6.85955e-23)
(0.97191 -0.00443573 2.14619e-22)
(0.976735 -0.00349071 -2.57322e-22)
(0.980671 -0.00275025 1.09268e-22)
(0.983893 -0.00217902 -1.8941e-23)
(0.986542 -0.0017411 1.07193e-22)
(0.988737 -0.00140262 -1.46433e-23)
(0.990579 -0.00113989 3.8397e-24)
(0.992137 -0.000931935 -4.44406e-23)
(0.993458 -0.000763598 2.92323e-23)
(0.994576 -0.000625338 1.87178e-23)
(0.995523 -0.000510784 -3.04139e-23)
(0.996319 -0.000415902 1.3647e-23)
(0.996988 -0.000337199 -1.36439e-24)
(0.997545 -0.000272566 -9.95083e-24)
(0.998012 -0.000219191 2.23899e-24)
(0.998394 -0.000175958 -1.34345e-25)
(0.998716 -0.000140263 -2.12711e-24)
(0.998972 -0.000111967 1.6036e-24)
(0.999194 -8.83392e-05 1.43022e-24)
(0.999359 -7.04637e-05 -1.89024e-24)
(0.999514 -5.48591e-05 3.09145e-25)
(0.999612 -4.43887e-05 1.27337e-25)
(0.999731 -3.39401e-05 -2.92225e-26)
(0.999776 -2.90458e-05 9.32988e-26)
(0.999884 -2.15788e-05 7.07371e-26)
(0.413954 -0.166479 1.11002e-21)
(0.460143 -0.153211 -1.98723e-21)
(0.502555 -0.140873 -7.26486e-22)
(0.542983 -0.129139 1.65698e-21)
(0.58143 -0.117788 9.29839e-22)
(0.617536 -0.106945 -3.08595e-21)
(0.651211 -0.0967945 4.27435e-21)
(0.682575 -0.0874446 -1.01812e-21)
(0.711767 -0.0789022 2.13271e-22)
(0.738888 -0.0711309 6.34679e-22)
(0.764051 -0.0641013 -5.03855e-22)
(0.787391 -0.0577768 -2.73563e-21)
(0.80905 -0.0521016 2.94404e-21)
(0.829167 -0.0470032 -1.3323e-21)
(0.847871 -0.0423959 5.13106e-22)
(0.865274 -0.0381836 -6.60179e-22)
(0.881457 -0.034265 5.98095e-22)
(0.896466 -0.0305475 -6.01609e-22)
(0.910311 -0.0269629 2.49736e-22)
(0.922965 -0.0234813 -5.76723e-22)
(0.934387 -0.0201169 3.72711e-22)
(0.94454 -0.0169233 8.67354e-22)
(0.953413 -0.013977 -5.7095e-22)
(0.961038 -0.0113522 2.43013e-23)
(0.967496 -0.0090977 -1.38607e-23)
(0.972903 -0.00722554 2.25376e-22)
(0.977397 -0.00571444 -1.27724e-22)
(0.981118 -0.00452153 1.3616e-22)
(0.984201 -0.00359476 6.11518e-23)
(0.986761 -0.00287995 -1.10454e-22)
(0.988898 -0.00232442 -1.35367e-22)
(0.990699 -0.00189148 1.58883e-22)
(0.992229 -0.00154772 -3.08552e-23)
(0.993529 -0.00126887 -5.23979e-23)
(0.994633 -0.00103953 4.84066e-23)
(0.995567 -0.000849328 1.69931e-23)
(0.996354 -0.00069168 -2.22921e-24)
(0.997016 -0.000560854 -1.04602e-23)
(0.997568 -0.000453379 -6.31092e-25)
(0.99803 -0.000364602 -6.90484e-24)
(0.998409 -0.000292684 1.05954e-23)
(0.998728 -0.000233298 -5.66775e-24)
(0.998982 -0.000186222 -1.81249e-24)
(0.999201 -0.00014691 -1.73791e-24)
(0.999364 -0.00011717 3.36012e-24)
(0.999519 -9.12091e-05 -5.05011e-26)
(0.999616 -7.3791e-05 -8.65538e-25)
(0.999733 -5.64115e-05 -3.28629e-25)
(0.999778 -4.82709e-05 -4.35173e-25)
(0.999886 -3.58556e-05 -5.28609e-26)
(0.551581 -0.214374 4.23151e-23)
(0.585971 -0.197797 1.56276e-21)
(0.616923 -0.182138 -2.06337e-21)
(0.646901 -0.167033 -4.59788e-21)
(0.675745 -0.152343 7.16978e-21)
(0.702901 -0.138297 1.72445e-21)
(0.728218 -0.125121 -7.46341e-21)
(0.751805 -0.112929 7.48471e-21)
(0.773804 -0.101783 -1.79868e-21)
(0.794283 -0.0916635 2.57414e-22)
(0.813288 -0.0825207 -1.96655e-21)
(0.830901 -0.0743017 -2.71321e-21)
(0.847222 -0.0669383 2.59288e-21)
(0.862355 -0.060343 2.68686e-21)
(0.876402 -0.0544111 -5.06692e-21)
(0.889461 -0.0490222 1.48512e-21)
(0.901619 -0.0440465 2.16729e-21)
(0.912941 -0.0393598 -3.52099e-21)
(0.923469 -0.0348639 1.52192e-21)
(0.933211 -0.0305054 -3.39106e-22)
(0.942154 -0.0262863 5.98673e-22)
(0.950266 -0.0222614 -1.56412e-22)
(0.957524 -0.018521 2.57573e-22)
(0.96392 -0.0151592 1.45571e-22)
(0.969479 -0.0122433 -4.30032e-22)
(0.974253 -0.00979679 6.50513e-23)
(0.978315 -0.00780109 -4.10184e-23)
(0.981748 -0.00620903 -8.75827e-23)
(0.984642 -0.00495994 6.27717e-23)
(0.987079 -0.00398834 -1.49265e-22)
(0.989134 -0.00322754 2.8944e-22)
(0.990877 -0.00263113 -8.4884e-23)
(0.992366 -0.00215548 1.29867e-23)
(0.993636 -0.00176857 8.2137e-23)
(0.994717 -0.00144972 -1.78459e-23)
(0.995633 -0.00118492 1.16806e-23)
(0.996407 -0.000965235 -6.77752e-23)
(0.997058 -0.000782796 2.52179e-23)
(0.997601 -0.000632847 -3.25685e-23)
(0.998057 -0.00050894 7.36527e-24)
(0.99843 -0.000408541 1.9079e-25)
(0.998745 -0.000325624 1.27224e-23)
(0.998995 -0.00025989 -8.61869e-24)
(0.999212 -0.000204997 4.45357e-24)
(0.999373 -0.000163471 -3.82701e-24)
(0.999525 -0.000127225 -1.49459e-24)
(0.999621 -0.000102908 1.58957e-24)
(0.999737 -7.86501e-05 -2.98255e-25)
(0.999781 -6.7288e-05 8.56399e-25)
(0.999887 -4.99692e-05 -3.11902e-25)
(0.684599 -0.248644 2.35838e-22)
(0.70672 -0.230322 1.78951e-22)
(0.725857 -0.212671 -1.56826e-21)
(0.745112 -0.195345 -2.41231e-21)
(0.764222 -0.17836 2.32052e-21)
(0.78245 -0.162061 6.0784e-21)
(0.799592 -0.146724 -4.53179e-21)
(0.815707 -0.132458 1.17752e-21)
(0.830877 -0.119333 3.65857e-21)
(0.84515 -0.107401 -5.25494e-21)
(0.858512 -0.0966248 2.71494e-21)
(0.870963 -0.0869303 -1.02323e-22)
(0.882534 -0.078238 -5.14094e-21)
(0.893274 -0.0704573 2.65336e-21)
(0.903237 -0.0634797 -5.41025e-22)
(0.912485 -0.0571761 2.77289e-21)
(0.921087 -0.0514021 -3.36308e-21)
(0.929112 -0.0460128 9.31921e-22)
(0.936621 -0.0408854 1.98415e-21)
(0.943656 -0.035941 -1.51313e-21)
(0.950238 -0.0311594 1.403e-21)
(0.95636 -0.0265827 -1.74116e-21)
(0.962001 -0.0223002 1.52189e-21)
(0.967135 -0.0184151 -5.57873e-22)
(0.971747 -0.0150084 -2.56201e-22)
(0.975837 -0.0121155 6.63782e-23)
(0.979419 -0.00972588 5.42251e-23)
(0.982524 -0.00779543 7.91849e-25)
(0.985197 -0.00626269 -3.26846e-22)
(0.987487 -0.00505823 2.33249e-23)
(0.98944 -0.00410657 2.96096e-23)
(0.99111 -0.00335503 1.03836e-23)
(0.992546 -0.0027524 -1.97809e-23)
(0.993777 -0.00226063 -4.57259e-23)
(0.994828 -0.00185439 5.71537e-23)
(0.995721 -0.00151643 1.566e-23)
(0.996477 -0.0012357 -8.6608e-24)
(0.997114 -0.00100236 -1.87164e-23)
(0.997646 -0.000810442 -2.47628e-23)
(0.998093 -0.000651782 2.18003e-23)
(0.998459 -0.000523185 -1.71425e-23)
(0.998768 -0.000416959 -1.37936e-24)
(0.999014 -0.000332741 -2.481e-24)
(0.999226 -0.00026241 7.20922e-25)
(0.999384 -0.000209207 -1.57403e-24)
(0.999534 -0.000162776 4.71954e-24)
(0.999628 -0.000131628 8.41533e-25)
(0.999742 -0.000100564 7.99514e-26)
(0.999785 -8.60152e-05 -1.38795e-24)
(0.999889 -6.38553e-05 -8.37231e-26)
(0.802545 -0.269342 -3.19585e-21)
(0.813148 -0.250825 -3.12489e-21)
(0.821241 -0.232597 2.40218e-21)
(0.83042 -0.214314 8.5959e-22)
(0.840425 -0.196186 1.21002e-21)
(0.850385 -0.178676 -2.21118e-21)
(0.860057 -0.162104 -3.96356e-21)
(0.869471 -0.146603 5.57227e-21)
(0.878606 -0.132226 -2.83384e-21)
(0.887438 -0.119051 3.53123e-21)
(0.895943 -0.107119 -5.89368e-21)
(0.904055 -0.0963652 1.95363e-21)
(0.911723 -0.0866971 5.46781e-22)
(0.918921 -0.0780222 3.41741e-22)
(0.925645 -0.0702394 -1.42538e-21)
(0.931906 -0.0632268 -1.45083e-21)
(0.937735 -0.0568411 1.77591e-21)
(0.943179 -0.050932 3.44066e-22)
(0.948295 -0.0453637 1.35358e-21)
(0.953142 -0.0400371 -1.69045e-22)
(0.957766 -0.0349077 -2.0284e-22)
(0.962191 -0.0299951 -1.50293e-21)
(0.966409 -0.025375 7.06388e-22)
(0.970397 -0.0211483 8.4827e-22)
(0.97412 -0.0174017 -9.14126e-23)
(0.977544 -0.0141802 2.73987e-22)
(0.980645 -0.0114831 -3.83617e-23)
(0.983411 -0.00927403 -2.12854e-22)
(0.985846 -0.00749684 -2.54692e-22)
(0.987973 -0.0060845 2.62404e-22)
(0.98981 -0.00495777 8.42693e-23)
(0.991395 -0.00406019 -3.98147e-23)
(0.992768 -0.00333603 -4.70553e-23)
(0.993952 -0.00274318 -1.6372e-22)
(0.994966 -0.00225211 3.35288e-23)
(0.995831 -0.00184276 3.31495e-23)
(0.996564 -0.00150223 -5.21904e-23)
(0.997184 -0.00121887 4.65328e-23)
(0.997702 -0.000985641 -1.81381e-23)
(0.998137 -0.000792709 1.0474e-23)
(0.998495 -0.000636276 2.34923e-23)
(0.998796 -0.000507023 -2.6487e-23)
(0.999036 -0.000404543 9.93445e-24)
(0.999244 -0.000318959 2.93386e-24)
(0.999399 -0.000254219 -1.34804e-24)
(0.999545 -0.000197729 -1.95296e-24)
(0.999637 -0.000159839 -4.08255e-24)
(0.999748 -0.000122063 2.20236e-24)
(0.999791 -0.000104371 7.07001e-25)
(0.999892 -7.74503e-05 -6.47448e-26)
(0.900526 -0.277861 1.68649e-20)
(0.901299 -0.260459 2.40606e-21)
(0.900048 -0.242929 2.41766e-21)
(0.900596 -0.22488 -1.4944e-21)
(0.902755 -0.206705 7.61323e-22)
(0.90561 -0.188983 -2.07998e-21)
(0.90889 -0.17206 3.92951e-21)
(0.912611 -0.156099 5.74589e-22)
(0.916696 -0.141186 -6.3548e-21)
(0.921003 -0.127377 3.05982e-21)
(0.925464 -0.114745 -3.21696e-21)
(0.930018 -0.103306 6.12675e-21)
(0.934557 -0.0929879 -2.09689e-22)
(0.93898 -0.0836925 1.42412e-21)
(0.943221 -0.0753247 -4.0956e-21)
(0.947242 -0.0677777 1.86194e-21)
(0.951026 -0.0609223 -2.17069e-21)
(0.954584 -0.0546164 1.40324e-21)
(0.957949 -0.048725 5.50794e-22)
(0.961176 -0.0431395 4.81954e-22)
(0.96432 -0.0377955 -1.07258e-21)
(0.967422 -0.0326881 -3.87428e-22)
(0.970494 -0.0278718 -3.07543e-22)
(0.973523 -0.0234363 6.4453e-22)
(0.976472 -0.0194664 -5.78326e-23)
(0.979295 -0.0160122 -1.27636e-22)
(0.981944 -0.0130811 2.89575e-22)
(0.984378 -0.0106466 -6.51096e-22)
(0.986573 -0.00866097 7.00484e-22)
(0.988528 -0.00706466 -1.45349e-22)
(0.99024 -0.00578702 -8.34231e-23)