/*--------------------------------*- C++ -*----------------------------------*\
  =========                 |
  \\      /  F ield         | OpenFOAM: The Open Source CFD Toolbox
   \\    /   O peration     | Website:  https://openfoam.org
    \\  /    A nd           | Version:  7
     \\/     M anipulation  |
\*---------------------------------------------------------------------------*/
FoamFile
{
    version     2.0;
    format      ascii;
    class       volScalarField;
    location    "5";
    object      p;
}
// * * * * * * * * * * * * * * * * * * * * * * * * * * * * * * * * * * * * * //

dimensions      [0 2 -2 0 0 0 0];

internalField   nonuniform List<scalar> 
42000
(
-0.414706
-0.418189
-0.416265
-0.413325
-0.408407
-0.402267
-0.395017
-0.386903
-0.378087
-0.368723
-0.35894
-0.348857
-0.338584
-0.32822
-0.317863
-0.307596
-0.29752
-0.28761
-0.278284
-0.268471
-0.414998
-0.41842
-0.416473
-0.413504
-0.408565
-0.402407
-0.39514
-0.387013
-0.378186
-0.368812
-0.359019
-0.348928
-0.338646
-0.328274
-0.317908
-0.307632
-0.297548
-0.287626
-0.278317
-0.268388
-0.415581
-0.418881
-0.416889
-0.413861
-0.40888
-0.402685
-0.395388
-0.387235
-0.378385
-0.368989
-0.359178
-0.349069
-0.33877
-0.328381
-0.317998
-0.307704
-0.297603
-0.287656
-0.278381
-0.268222
-0.416453
-0.419571
-0.417511
-0.414396
-0.409353
-0.403102
-0.395759
-0.387565
-0.378681
-0.369255
-0.359416
-0.349281
-0.338956
-0.328541
-0.318132
-0.307811
-0.297686
-0.287702
-0.278476
-0.267972
-0.417611
-0.420489
-0.418338
-0.415107
-0.409981
-0.403655
-0.396251
-0.388005
-0.379075
-0.369608
-0.359732
-0.349562
-0.339203
-0.328754
-0.31831
-0.307953
-0.297795
-0.287761
-0.278603
-0.26764
-0.419055
-0.421633
-0.419369
-0.415992
-0.410763
-0.404345
-0.396864
-0.388552
-0.379564
-0.370047
-0.360125
-0.349911
-0.339509
-0.329018
-0.318531
-0.30813
-0.297931
-0.287835
-0.278761
-0.267225
-0.42078
-0.423
-0.4206
-0.41705
-0.411698
-0.405168
-0.397596
-0.389205
-0.380149
-0.370571
-0.360594
-0.350328
-0.339876
-0.329334
-0.318794
-0.30834
-0.298093
-0.287922
-0.278949
-0.266728
-0.422782
-0.424587
-0.42203
-0.418278
-0.412783
-0.406124
-0.398446
-0.389963
-0.380828
-0.371179
-0.361137
-0.350811
-0.3403
-0.329699
-0.3191
-0.308585
-0.29828
-0.288022
-0.279166
-0.26615
-0.425056
-0.426391
-0.423655
-0.419674
-0.414015
-0.40721
-0.399411
-0.390823
-0.381598
-0.371869
-0.361755
-0.35136
-0.340782
-0.330115
-0.319447
-0.308861
-0.298493
-0.288133
-0.279412
-0.265492
-0.427599
-0.428407
-0.425471
-0.421234
-0.415393
-0.408423
-0.400488
-0.391784
-0.382458
-0.37264
-0.362444
-0.351972
-0.34132
-0.330578
-0.319835
-0.30917
-0.298729
-0.288256
-0.279685
-0.264753
-0.430404
-0.430631
-0.427475
-0.422955
-0.416912
-0.409761
-0.401677
-0.392843
-0.383405
-0.373489
-0.363203
-0.352647
-0.341913
-0.331089
-0.320262
-0.309509
-0.298989
-0.288388
-0.279985
-0.263935
-0.433464
-0.433059
-0.429661
-0.424832
-0.41857
-0.41122
-0.402972
-0.393998
-0.384438
-0.374414
-0.36403
-0.353383
-0.342559
-0.331645
-0.320727
-0.309879
-0.299271
-0.28853
-0.28031
-0.26304
-0.436774
-0.435686
-0.432026
-0.426863
-0.420362
-0.412798
-0.404373
-0.395246
-0.385554
-0.375413
-0.364924
-0.354177
-0.343257
-0.332247
-0.321229
-0.310279
-0.299575
-0.28868
-0.280659
-0.262067
-0.440325
-0.438504
-0.434565
-0.429042
-0.422285
-0.41449
-0.405875
-0.396584
-0.386751
-0.376484
-0.365882
-0.355029
-0.344006
-0.332892
-0.321768
-0.310706
-0.299901
-0.288837
-0.281029
-0.261018
-0.444111
-0.441509
-0.437271
-0.431366
-0.424335
-0.416293
-0.407475
-0.398008
-0.388024
-0.377625
-0.366901
-0.355935
-0.344803
-0.333579
-0.322343
-0.311161
-0.300246
-0.289001
-0.28142
-0.259894
-0.448124
-0.444694
-0.440139
-0.433828
-0.426507
-0.418204
-0.409169
-0.399517
-0.389373
-0.378832
-0.36798
-0.356895
-0.345647
-0.334307
-0.322951
-0.311643
-0.300611
-0.289169
-0.281828
-0.258696
-0.452354
-0.448053
-0.443164
-0.436423
-0.428796
-0.420217
-0.410954
-0.401106
-0.390793
-0.380103
-0.369117
-0.357906
-0.346537
-0.335074
-0.323593
-0.312151
-0.300995
-0.289342
-0.282252
-0.257424
-0.456793
-0.451578
-0.446338
-0.439148
-0.431198
-0.422328
-0.412827
-0.402772
-0.392281
-0.381435
-0.370308
-0.358966
-0.34747
-0.33588
-0.324267
-0.312683
-0.301397
-0.289517
-0.282689
-0.25608
-0.461432
-0.455263
-0.449656
-0.441994
-0.433708
-0.424534
-0.414782
-0.404511
-0.393835
-0.382826
-0.371552
-0.360073
-0.348445
-0.336722
-0.324972
-0.31324
-0.301816
-0.289695
-0.283137
-0.254663
-0.466261
-0.4591
-0.45311
-0.444958
-0.43632
-0.426829
-0.416816
-0.40632
-0.395451
-0.384272
-0.372846
-0.361225
-0.34946
-0.3376
-0.325707
-0.313821
-0.302251
-0.289874
-0.283592
-0.253175
-0.471271
-0.463081
-0.456693
-0.448032
-0.439029
-0.42921
-0.418925
-0.408196
-0.397126
-0.385771
-0.374187
-0.36242
-0.350514
-0.338512
-0.326472
-0.314425
-0.302703
-0.290053
-0.284053
-0.251615
-0.476451
-0.467198
-0.460399
-0.451211
-0.44183
-0.43167
-0.421104
-0.410133
-0.398856
-0.387319
-0.375573
-0.363655
-0.351604
-0.339457
-0.327265
-0.315052
-0.30317
-0.290232
-0.284515
-0.249983
-0.481791
-0.471443
-0.46422
-0.454489
-0.444718
-0.434206
-0.42335
-0.41213
-0.400638
-0.388914
-0.377
-0.364928
-0.352729
-0.340433
-0.328087
-0.315701
-0.303653
-0.290412
-0.284976
-0.24828
-0.48728
-0.475807
-0.468148
-0.457858
-0.447686
-0.436812
-0.425657
-0.41418
-0.402469
-0.390553
-0.378468
-0.366238
-0.353887
-0.34144
-0.328935
-0.316372
-0.304151
-0.290591
-0.285432
-0.246504
-0.492908
-0.480281
-0.472175
-0.461312
-0.450728
-0.439483
-0.428022
-0.416282
-0.404345
-0.392232
-0.379972
-0.367581
-0.355077
-0.342476
-0.32981
-0.317067
-0.304665
-0.290771
-0.285879
-0.244656
-0.498664
-0.484858
-0.476294
-0.464845
-0.45384
-0.442214
-0.43044
-0.41843
-0.406263
-0.393949
-0.38151
-0.368956
-0.356296
-0.34354
-0.330711
-0.317784
-0.305196
-0.290953
-0.286314
-0.242734
-0.504536
-0.489527
-0.480497
-0.46845
-0.457014
-0.445
-0.432905
-0.420621
-0.408218
-0.395699
-0.383079
-0.370359
-0.357543
-0.344631
-0.331639
-0.318526
-0.305745
-0.29114
-0.286733
-0.240739
-0.510512
-0.49428
-0.484775
-0.472119
-0.460245
-0.447836
-0.435415
-0.42285
-0.410208
-0.397481
-0.384676
-0.371789
-0.358816
-0.345748
-0.332592
-0.319292
-0.306312
-0.291336
-0.28713
-0.238673
-0.516583
-0.499108
-0.48912
-0.475845
-0.463526
-0.450716
-0.437963
-0.425113
-0.412228
-0.39929
-0.386299
-0.373244
-0.360112
-0.346889
-0.333571
-0.320085
-0.306901
-0.291546
-0.287503
-0.236536
-0.522734
-0.504
-0.493524
-0.479622
-0.466852
-0.453634
-0.440545
-0.427407
-0.414275
-0.401123
-0.387943
-0.374719
-0.36143
-0.348054
-0.334575
-0.320907
-0.307516
-0.291779
-0.287846
-0.234337
-0.528956
-0.508947
-0.497978
-0.483441
-0.470216
-0.456586
-0.443157
-0.429726
-0.416344
-0.402976
-0.389607
-0.376213
-0.362767
-0.34924
-0.335605
-0.321761
-0.308159
-0.292046
-0.288155
-0.232085
-0.535235
-0.51394
-0.502472
-0.487297
-0.473611
-0.459565
-0.445793
-0.432066
-0.418432
-0.404846
-0.391286
-0.377721
-0.364121
-0.350445
-0.336661
-0.322649
-0.308838
-0.292364
-0.288424
-0.229803
-0.541559
-0.518968
-0.506999
-0.49118
-0.477031
-0.462567
-0.448448
-0.434424
-0.420535
-0.406728
-0.392976
-0.379241
-0.365487
-0.351669
-0.337743
-0.323576
-0.30956
-0.292756
-0.288647
-0.227526
-0.547916
-0.524021
-0.51155
-0.495084
-0.48047
-0.465584
-0.451117
-0.436792
-0.422647
-0.408619
-0.394673
-0.380769
-0.366864
-0.352909
-0.338849
-0.324546
-0.310334
-0.293252
-0.288817
-0.225319
-0.554291
-0.529089
-0.516114
-0.499
-0.483919
-0.468611
-0.453794
-0.439168
-0.424765
-0.410513
-0.396374
-0.3823
-0.368246
-0.35416
-0.33998
-0.325562
-0.311174
-0.293895
-0.288939
-0.22332
-0.560673
-0.534161
-0.520683
-0.50292
-0.487373
-0.471642
-0.456474
-0.441546
-0.426883
-0.412406
-0.398072
-0.383829
-0.369629
-0.355419
-0.341133
-0.326629
-0.312093
-0.294737
-0.289029
-0.221772
-0.567047
-0.539227
-0.525247
-0.506836
-0.490824
-0.47467
-0.459151
-0.443919
-0.428996
-0.414294
-0.399763
-0.385351
-0.371008
-0.35668
-0.342305
-0.327747
-0.313108
-0.295845
-0.28906
-0.220855
-0.573402
-0.544279
-0.529801
-0.510745
-0.494268
-0.477693
-0.461823
-0.446287
-0.431102
-0.416171
-0.401443
-0.386861
-0.372375
-0.357937
-0.34349
-0.328916
-0.314245
-0.297305
-0.288876
-0.220468
-0.579727
-0.549311
-0.534337
-0.51464
-0.497702
-0.480706
-0.464485
-0.448644
-0.433195
-0.418036
-0.403108
-0.388354
-0.373726
-0.359182
-0.344678
-0.330131
-0.31554
-0.299253
-0.288624
-0.222225
-0.585971
-0.554276
-0.538812
-0.51848
-0.501085
-0.483673
-0.467105
-0.450961
-0.43525
-0.419861
-0.404733
-0.389807
-0.375038
-0.360392
-0.345845
-0.331364
-0.316985
-0.301773
-0.289947
-0.236975
-0.592038
-0.559075
-0.543128
-0.522172
-0.504331
-0.486514
-0.469609
-0.453172
-0.437205
-0.421592
-0.406268
-0.391173
-0.376267
-0.361524
-0.346942
-0.332551
-0.318457
-0.304542
-0.294098
-0.282963
-0.598142
-0.563928
-0.547503
-0.525926
-0.507639
-0.489413
-0.472166
-0.455427
-0.439197
-0.42335
-0.40782
-0.392545
-0.377489
-0.362639
-0.34801
-0.33369
-0.319834
-0.307033
-0.29595
-0.30178
-0.6042
-0.568741
-0.551845
-0.529654
-0.510925
-0.492293
-0.474703
-0.457661
-0.441164
-0.425079
-0.409336
-0.393875
-0.378661
-0.36369
-0.348998
-0.334712
-0.320988
-0.308943
-0.296137
-0.308876
-0.610161
-0.573467
-0.556107
-0.533312
-0.514147
-0.495115
-0.477186
-0.459842
-0.443077
-0.426751
-0.410791
-0.395136
-0.379754
-0.364651
-0.349872
-0.335575
-0.32188
-0.310295
-0.295983
-0.312368
-0.616009
-0.578094
-0.56028
-0.536891
-0.517299
-0.497872
-0.479607
-0.461963
-0.444929
-0.428358
-0.412176
-0.396319
-0.38076
-0.365507
-0.350616
-0.336262
-0.322508
-0.311145
-0.295658
-0.313793
-0.621733
-0.582615
-0.564356
-0.540385
-0.520374
-0.500559
-0.481962
-0.464019
-0.446714
-0.429895
-0.413484
-0.397417
-0.381667
-0.366247
-0.351215
-0.336756
-0.322872
-0.311529
-0.295061
-0.313615
-0.627319
-0.587017
-0.568325
-0.543785
-0.523363
-0.503168
-0.484242
-0.466
-0.448423
-0.431352
-0.414705
-0.398417
-0.382463
-0.366857
-0.351656
-0.337047
-0.322972
-0.311488
-0.294179
-0.312277
-0.632751
-0.591288
-0.572174
-0.547078
-0.526257
-0.505687
-0.486437
-0.467899
-0.450047
-0.432719
-0.415828
-0.39931
-0.383138
-0.367325
-0.351927
-0.337126
-0.322808
-0.311059
-0.293035
-0.31012
-0.638012
-0.595413
-0.575891
-0.550256
-0.529045
-0.508109
-0.488539
-0.469704
-0.451577
-0.433986
-0.416845
-0.400085
-0.383679
-0.36764
-0.352018
-0.336986
-0.322385
-0.310281
-0.291648
-0.307366
-0.643087
-0.599381
-0.579465
-0.553305
-0.531716
-0.510422
-0.490536
-0.471406
-0.453001
-0.435143
-0.417742
-0.400729
-0.384075
-0.367791
-0.351921
-0.336625
-0.321707
-0.309181
-0.29003
-0.304165
-0.647961
-0.603177
-0.582881
-0.556214
-0.534259
-0.512616
-0.492419
-0.472996
-0.45431
-0.436179
-0.41851
-0.401233
-0.384316
-0.367769
-0.351627
-0.336038
-0.320777
-0.307786
-0.288196
-0.300617
-0.652616
-0.606786
-0.586128
-0.558972
-0.536662
-0.514679
-0.494177
-0.474461
-0.455492
-0.437083
-0.419138
-0.401584
-0.384391
-0.367562
-0.351129
-0.335223
-0.319602
-0.306118
-0.286154
-0.296796
-0.657036
-0.610197
-0.589191
-0.561566
-0.538915
-0.516602
-0.495798
-0.475791
-0.456537
-0.437843
-0.419613
-0.401773
-0.384288
-0.367163
-0.35042
-0.334178
-0.318184
-0.304193
-0.283915
-0.292754
-0.661206
-0.613392
-0.592058
-0.563984
-0.541005
-0.518371
-0.497272
-0.476974
-0.457432
-0.438448
-0.419925
-0.401787
-0.383999
-0.366562
-0.349495
-0.332902
-0.316527
-0.302024
-0.281485
-0.288531
-0.665106
-0.616359
-0.594714
-0.566212
-0.54292
-0.519975
-0.498585
-0.477997
-0.458165
-0.438886
-0.420061
-0.401615
-0.383512
-0.365751
-0.348346
-0.331392
-0.314634
-0.299624
-0.278868
-0.284152
-0.668722
-0.619082
-0.597145
-0.568237
-0.544646
-0.521401
-0.499726
-0.47885
-0.458725
-0.439144
-0.42001
-0.401246
-0.382817
-0.364722
-0.34697
-0.329648
-0.312507
-0.297
-0.276069
-0.279636
-0.672034
-0.621546
-0.599337
-0.570046
-0.546171
-0.522636
-0.500681
-0.479519
-0.459098
-0.439211
-0.41976
-0.400669
-0.381905
-0.363466
-0.34536
-0.327666
-0.310148
-0.294159
-0.273088
-0.274998
-0.675026
-0.623735
-0.601274
-0.571625
-0.547481
-0.523667
-0.501438
-0.47999
-0.459272
-0.439074
-0.419299
-0.399873
-0.380766
-0.361975
-0.343511
-0.325445
-0.307557
-0.291105
-0.269927
-0.270245
-0.677679
-0.625634
-0.602943
-0.57296
-0.548562
-0.524481
-0.501983
-0.480251
-0.459233
-0.438719
-0.418614
-0.398847
-0.37939
-0.360243
-0.341418
-0.322983
-0.304735
-0.287841
-0.266585
-0.265383
-0.679976
-0.627227
-0.604328
-0.574036
-0.549401
-0.525063
-0.502303
-0.480289
-0.458969
-0.438135
-0.417694
-0.39758
-0.377768
-0.358262
-0.339075
-0.320276
-0.301682
-0.284369
-0.26306
-0.260414
-0.681899
-0.628498
-0.605413
-0.574838
-0.549982
-0.5254
-0.502384
-0.480089
-0.458466
-0.437309
-0.416528
-0.396062
-0.375891
-0.356024
-0.33648
-0.317324
-0.298397
-0.28069
-0.259352
-0.255338
-0.683429
-0.629431
-0.606183
-0.575352
-0.550292
-0.525477
-0.502211
-0.479638
-0.457711
-0.436227
-0.415102
-0.394281
-0.37375
-0.353523
-0.333625
-0.314123
-0.294878
-0.276804
-0.255459
-0.250155
-0.684548
-0.630009
-0.606622
-0.575563
-0.550316
-0.525281
-0.50177
-0.478921
-0.456691
-0.434878
-0.413407
-0.392228
-0.371337
-0.350753
-0.330507
-0.31067
-0.291125
-0.27271
-0.251377
-0.244863
-0.685238
-0.630217
-0.606715
-0.575456
-0.550038
-0.524795
-0.501047
-0.477925
-0.455391
-0.433249
-0.411429
-0.389893
-0.368643
-0.347706
-0.327122
-0.306963
-0.287136
-0.268408
-0.247105
-0.239457
-0.685479
-0.630037
-0.606445
-0.575014
-0.549444
-0.524005
-0.500028
-0.476637
-0.453799
-0.431326
-0.409159
-0.387266
-0.36566
-0.344377
-0.323464
-0.302999
-0.28291
-0.263896
-0.242641
-0.233936
-0.685255
-0.629454
-0.605796
-0.574223
-0.548518
-0.522898
-0.498697
-0.47504
-0.451901
-0.429099
-0.406584
-0.384337
-0.362381
-0.34076
-0.319531
-0.298776
-0.278444
-0.259173
-0.237981
-0.228293
-0.684547
-0.628451
-0.604753
-0.573068
-0.547246
-0.521456
-0.497041
-0.473123
-0.449684
-0.426554
-0.403695
-0.381099
-0.358798
-0.33685
-0.315318
-0.294292
-0.273739
-0.254238
-0.233125
-0.222527
-0.683335
-0.627012
-0.603299
-0.571532
-0.545613
-0.519667
-0.495045
-0.470871
-0.447136
-0.423681
-0.400481
-0.377541
-0.354905
-0.332641
-0.310823
-0.289543
-0.268791
-0.249088
-0.228071
-0.216631
-0.681603
-0.62512
-0.601419
-0.569602
-0.543602
-0.517515
-0.492696
-0.468271
-0.444244
-0.420469
-0.396933
-0.373656
-0.350695
-0.328129
-0.306041
-0.28453
-0.263601
-0.243724
-0.222816
-0.210603
-0.679333
-0.62276
-0.599097
-0.56726
-0.5412
-0.514986
-0.489978
-0.465309
-0.440996
-0.416905
-0.393041
-0.369437
-0.346163
-0.323309
-0.30097
-0.279249
-0.258166
-0.238144
-0.21736
-0.204438
-0.676506
-0.619915
-0.596316
-0.564493
-0.538391
-0.512065
-0.486878
-0.461973
-0.437379
-0.41298
-0.388796
-0.364875
-0.341303
-0.318179
-0.295608
-0.273699
-0.252487
-0.232347
-0.211702
-0.198133
-0.673105
-0.616569
-0.593063
-0.561285
-0.535161
-0.508739
-0.483383
-0.45825
-0.433384
-0.408685
-0.384191
-0.359966
-0.33611
-0.312735
-0.289953
-0.26788
-0.246563
-0.226332
-0.205841
-0.191684
-0.669112
-0.612708
-0.58932
-0.557623
-0.531496
-0.504993
-0.47948
-0.454128
-0.428998
-0.404009
-0.379216
-0.354702
-0.33058
-0.306973
-0.284004
-0.26179
-0.240393
-0.2201
-0.199776
-0.18509
-0.664509
-0.608315
-0.585075
-0.553491
-0.527382
-0.500814
-0.475155
-0.449595
-0.424211
-0.398944
-0.373867
-0.349079
-0.324709
-0.300892
-0.277759
-0.25543
-0.233977
-0.21365
-0.19351
-0.178346
-0.659279
-0.603378
-0.580312
-0.548875
-0.522806
-0.496189
-0.470398
-0.444641
-0.419015
-0.393481
-0.368134
-0.343091
-0.318494
-0.29449
-0.271217
-0.2488
-0.227317
-0.206982
-0.187041
-0.171453
-0.653403
-0.597879
-0.575016
-0.543763
-0.517753
-0.491106
-0.465196
-0.439254
-0.413399
-0.387614
-0.362014
-0.336735
-0.311933
-0.287766
-0.264379
-0.241899
-0.220413
-0.200098
-0.180371
-0.164407
-0.646864
-0.591807
-0.569176
-0.538141
-0.512212
-0.485553
-0.459538
-0.433426
-0.407355
-0.381335
-0.355502
-0.330007
-0.305024
-0.280719
-0.257245
-0.23473
-0.213267
-0.192998
-0.173501
-0.157208
-0.639659
-0.585163
-0.56279
-0.532008
-0.506179
-0.479525
-0.45342
-0.42715
-0.40088
-0.374642
-0.348594
-0.322906
-0.297766
-0.27335
-0.249816
-0.227294
-0.205879
-0.185685
-0.166434
-0.149856
-0.631776
-0.577944
-0.555854
-0.525356
-0.499647
-0.473015
-0.446834
-0.420422
-0.393968
-0.36753
-0.341288
-0.315431
-0.29016
-0.26566
-0.242094
-0.219593
-0.198253
-0.178159
-0.15917
-0.14235
-0.62304
-0.570015
-0.548255
-0.518094
-0.492539
-0.465959
-0.439728
-0.413199
-0.386586
-0.359974
-0.333566
-0.30757
-0.282198
-0.257645
-0.234078
-0.211627
-0.19039
-0.170423
-0.151713
-0.134692
-0.613095
-0.561081
-0.539753
-0.510023
-0.484694
-0.458227
-0.431998
-0.405399
-0.37867
-0.351926
-0.325392
-0.299296
-0.273862
-0.249293
-0.22576
-0.203393
-0.182289
-0.162478
-0.144066
-0.126883
-0.602941
-0.551912
-0.530971
-0.50165
-0.476522
-0.45015
-0.42391
-0.397233
-0.370387
-0.343515
-0.316867
-0.290685
-0.265209
-0.240647
-0.217172
-0.194912
-0.173965
-0.154333
-0.136232
-0.118924
-0.592236
-0.542218
-0.521668
-0.492774
-0.467857
-0.441591
-0.415351
-0.38861
-0.361665
-0.334687
-0.307947
-0.281708
-0.256217
-0.231691
-0.208303
-0.18618
-0.165415
-0.145988
-0.128215
-0.110816
-0.580813
-0.531868
-0.511738
-0.483307
-0.458625
-0.432491
-0.406274
-0.379494
-0.352475
-0.325419
-0.298619
-0.272354
-0.246882
-0.222424
-0.199155
-0.177197
-0.156642
-0.137444
-0.120018
-0.102562
-0.568666
-0.520862
-0.501182
-0.473248
-0.448828
-0.422848
-0.396679
-0.369884
-0.34282
-0.315715
-0.288886
-0.262627
-0.237206
-0.21285
-0.189731
-0.167969
-0.14765
-0.128707
-0.111643
-0.094163
-0.555799
-0.509211
-0.490004
-0.462601
-0.438465
-0.412665
-0.386566
-0.359784
-0.332701
-0.305577
-0.278751
-0.252531
-0.227196
-0.202974
-0.180037
-0.1585
-0.138444
-0.119781
-0.103097
-0.0856229
-0.542209
-0.496912
-0.478202
-0.451363
-0.427535
-0.40194
-0.375936
-0.349191
-0.322119
-0.295008
-0.268218
-0.242072
-0.216856
-0.192802
-0.170078
-0.148795
-0.129029
-0.11067
-0.0943833
-0.0769446
-0.527891
-0.48396
-0.465772
-0.43953
-0.416035
-0.390668
-0.364786
-0.338107
-0.311075
-0.28401
-0.25729
-0.231253
-0.206192
-0.182338
-0.15986
-0.138861
-0.11941
-0.101378
-0.085507
-0.0681317
-0.512841
-0.470353
-0.452712
-0.4271
-0.403962
-0.378851
-0.353116
-0.326533
-0.299574
-0.272587
-0.245973
-0.22008
-0.195209
-0.17159
-0.149389
-0.128702
-0.109593
-0.091912
-0.0764735
-0.0591887
-0.49706
-0.456092
-0.43902
-0.414072
-0.391316
-0.366487
-0.340928
-0.31447
-0.287617
-0.260745
-0.234272
-0.20856
-0.183914
-0.160564
-0.138671
-0.118326
-0.0995833
-0.082276
-0.0672879
-0.0501184
-0.480548
-0.441176
-0.424699
-0.400446
-0.378098
-0.353579
-0.328225
-0.301924
-0.27521
-0.248488
-0.222194
-0.1967
-0.172314
-0.149267
-0.127714
-0.107739
-0.0893879
-0.0724762
-0.0579562
-0.0409134
-0.463309
-0.425609
-0.409748
-0.386225
-0.36431
-0.34013
-0.31501
-0.288899
-0.262359
-0.235824
-0.209746
-0.184507
-0.160418
-0.137708
-0.116525
-0.0969483
-0.079013
-0.06252
-0.0484932
-0.0315612
-0.445349
-0.409393
-0.394172
-0.371411
-0.349956
-0.326143
-0.301288
-0.275401
-0.249071
-0.22276
-0.196936
-0.17199
-0.148234
-0.125894
-0.105113
-0.085961
-0.0684653
-0.052414
-0.0389118
-0.022141
-0.426673
-0.392534
-0.377975
-0.356008
-0.33504
-0.311623
-0.287065
-0.261436
-0.235354
-0.209305
-0.183773
-0.159157
-0.13577
-0.113834
-0.093485
-0.0747851
-0.0577522
-0.0421629
-0.0291326
-0.0126691
-0.40729
-0.375038
-0.361162
-0.340023
-0.319567
-0.296577
-0.272348
-0.247013
-0.221215
-0.195468
-0.170268
-0.14602
-0.123038
-0.101538
-0.0816502
-0.0634287
-0.0468811
-0.031778
-0.0192416
-0.00307643
-0.387211
-0.356913
-0.343742
-0.323461
-0.303545
-0.281014
-0.257147
-0.232141
-0.206666
-0.18126
-0.15643
-0.132588
-0.110046
-0.0890152
-0.0696179
-0.0519003
-0.0358597
-0.0212621
-0.00924321
0.00661956
-0.366446
-0.338168
-0.325722
-0.306332
-0.286983
-0.26494
-0.24147
-0.21683
-0.191717
-0.166691
-0.142271
-0.118873
-0.0968053
-0.0762759
-0.0573976
-0.0402087
-0.0246965
-0.0106223
0.000863336
0.0164045
-0.345009
-0.318813
-0.307113
-0.288644
-0.269889
-0.248368
-0.225328
-0.201092
-0.17638
-0.151774
-0.127803
-0.104885
-0.0833278
-0.0633308
-0.0449991
-0.028363
-0.0133998
0.000133577
0.0110727
0.026271
-0.322914
-0.298862
-0.287926
-0.27041
-0.252277
-0.231308
-0.208733
-0.184939
-0.160668
-0.136521
-0.113039
-0.0906386
-0.0696249
-0.0501908
-0.0324327
-0.0163728
-0.00197826
0.0109973
0.0213779
0.0362119
-0.300179
-0.278327
-0.268174
-0.25164
-0.234157
-0.213773
-0.191699
-0.168385
-0.144593
-0.120947
-0.0979909
-0.0761453
-0.0557089
-0.0368677
-0.0197093
-0.00424791
0.00955914
0.0219606
0.0317718
0.0462199
-0.276821
-0.257223
-0.247872
-0.23235
-0.215543
-0.195777
-0.174239
-0.151443
-0.128172
-0.105065
-0.0826742
-0.0614189
-0.0415924
-0.0233731
-0.00683963
0.00800166
0.0212032
0.0330151
0.0422472
0.0562874
-0.252859
-0.235567
-0.227036
-0.212553
-0.196451
-0.177336
-0.15637
-0.13413
-0.111418
-0.0888905
-0.0671031
-0.0464733
-0.0272888
-0.00971952
0.00616478
0.0203654
0.0329443
0.044152
0.0527965
0.0664065
-0.228314
-0.213377
-0.205682
-0.192267
-0.176896
-0.158464
-0.138106
-0.116462
-0.0943491
-0.0724397
-0.0512927
-0.0313231
-0.0128115
0.00408048
0.0192923
0.0328327
0.0447728
0.0553623
0.0634119
0.0765692
-0.203209
-0.190672
-0.183828
-0.171509
-0.156897
-0.139181
-0.119466
-0.0984557
-0.0769814
-0.0557289
-0.035259
-0.0159832
0.00182527
0.0180138
0.0325308
0.0453923
0.0566784
0.0666367
0.0740851
0.0867668
-0.177567
-0.167473
-0.161496
-0.150298
-0.136472
-0.119504
-0.100469
-0.08013
-0.0593329
-0.0387752
-0.0190183
-0.000469049
0.0166072
0.0320672
0.045868
0.058033
0.0686508
0.0779655
0.0848079
0.0969904
-0.151414
-0.143801
-0.138705
-0.128654
-0.115641
-0.0994529
-0.0811327
-0.0615036
-0.041422
-0.0215964
-0.00258737
0.0152035
0.0315196
0.0462268
0.0592912
0.0707431
0.0806792
0.0893387
0.0955717
0.10723
-0.124777
-0.119679
-0.115479
-0.106599
-0.0944247
-0.0790489
-0.0614788
-0.0425965
-0.0232678
-0.00421074
0.0140164
0.0310183
0.0465472
0.0604788
0.0727876
0.0835107
0.0927527
0.100746
0.106367
0.117476
-0.0976832
-0.0951329
-0.0918402
-0.0841558
-0.0728458
-0.0583136
-0.0415281
-0.0234293
-0.00489039
0.0133628
0.0307752
0.0469586
0.0616748
0.0748088
0.0863439
0.0963235
0.10486
0.112177
0.117186
0.127717
-0.0701596
-0.0701886
-0.0678141
-0.0613478
-0.0509274
-0.0372697
-0.0213028
-0.00402333
0.01369
0.031105
0.047671
0.0630076
0.0768865
0.0892023
0.0999467
0.109169
0.11699
0.12362
0.128019
0.137938
-0.0422335
-0.0448755
-0.0434267
-0.0381999
-0.0286939
-0.0159408
-0.00082585
0.0155993
0.0324522
0.0489959
0.0646851
0.0791482
0.0921665
0.103645
0.113582
0.122035
0.129129
0.135064
0.138857
0.148127
-0.0139482
-0.0192109
-0.0187051
-0.0147383
-0.00617052
0.00564844
0.019879
0.0354159
0.0513749
0.0670153
0.0817989
0.0953627
0.107499
0.118121
0.127237
0.134909
0.141268
0.146496
0.14969
0.158264
0.0146738
0.00676862
0.0063228
0.00900998
0.0166163
0.0274726
0.0407873
0.0554031
0.0704358
0.0851427
0.0989931
0.111634
0.122867
0.132616
0.140897
0.147776
0.153392
0.157906
0.160509
0.168328
0.0436008
0.033033
0.0316278
0.0330168
0.0396394
0.0495054
0.0618739
0.0755371
0.0896126
0.103357
0.116248
0.127943
0.138254
0.147115
0.154548
0.160626
0.16549
0.169279
0.171307
0.178293
0.0727993
0.0595521
0.05718
0.0572532
0.0628707
0.0717199
0.083113
0.0957935
0.108882
0.121637
0.133545
0.144273
0.153645
0.161603
0.168177
0.173443
0.177549
0.180604
0.182077
0.188123
0.102238
0.086295
0.0829488
0.0816895
0.0862814
0.0940886
0.104478
0.116147
0.128222
0.139962
0.150863
0.160605
0.169021
0.176064
0.181768
0.186217
0.189556
0.191868
0.192811
0.197769
0.131888
0.113231
0.108904
0.106296
0.109843
0.116584
0.125944
0.136574
0.147609
0.158309
0.168184
0.176921
0.184368
0.190484
0.195309
0.198933
0.2015
0.203058
0.203505
0.207169
0.161713
0.140323
0.13501
0.131039
0.133523
0.139175
0.147481
0.157047
0.167018
0.176657
0.185485
0.193204
0.199668
0.204847
0.208786
0.21158
0.213367
0.214165
0.214171
0.216246
0.191657
0.167512
0.161216
0.155874
0.157282
0.161827
0.169057
0.177539
0.186423
0.194982
0.202748
0.209434
0.214905
0.219138
0.222186
0.224146
0.225145
0.225189
0.224858
0.224895
0.221682
0.194752
0.187477
0.180762
0.181084
0.184507
0.190644
0.19802
0.2058
0.213263
0.219952
0.225593
0.230062
0.233344
0.235494
0.236618
0.236822
0.23613
0.235551
0.232876
0.252052
0.22222
0.213917
0.205782
0.204978
0.207242
0.21225
0.218491
0.225141
0.231485
0.237081
0.241664
0.245122
0.247447
0.248698
0.248983
0.248387
0.246971
0.245939
0.23934
0.283354
0.250352
0.240841
0.23115
0.229108
0.230122
0.23393
0.238979
0.244454
0.249647
0.254125
0.257634
0.26007
0.261432
0.261781
0.261228
0.259838
0.257708
0.255677
0.24267
0.313658
0.277785
0.267244
0.256128
0.252938
0.252767
0.255416
0.259299
0.263616
0.267667
0.271033
0.273472
0.274889
0.275289
0.27474
0.273355
0.271188
0.268382
0.266021
0.251476
0.343567
0.30497
0.293453
0.280948
0.27663
0.27528
0.276772
0.279487
0.282643
0.285548
0.287799
0.289165
0.289563
0.289004
0.287559
0.285347
0.282422
0.27895
0.276309
0.261807
0.373337
0.332076
0.31958
0.305683
0.300226
0.297686
0.298007
0.299541
0.301525
0.303276
0.304407
0.304698
0.304076
0.302559
0.300222
0.297189
0.293517
0.289382
0.286262
0.271929
0.402926
0.359049
0.345574
0.330288
0.323686
0.319947
0.319088
0.319432
0.320236
0.320829
0.320837
0.320053
0.318412
0.31594
0.312716
0.308867
0.304456
0.299661
0.295957
0.281673
0.432275
0.385826
0.371382
0.354715
0.346968
0.342026
0.339981
0.339131
0.338752
0.338184
0.337069
0.335211
0.332556
0.329133
0.325027
0.320368
0.315222
0.309771
0.305446
0.291164
0.461343
0.412367
0.396964
0.378928
0.370037
0.363892
0.360658
0.358611
0.357047
0.355319
0.353083
0.350156
0.34649
0.342124
0.337142
0.331679
0.325803
0.319697
0.314727
0.300433
0.490097
0.438636
0.422284
0.402892
0.392861
0.385513
0.381091
0.377846
0.375099
0.372213
0.36886
0.364869
0.360201
0.354897
0.349049
0.342787
0.336186
0.329427
0.323795
0.30947
0.518498
0.464594
0.447306
0.426572
0.415405
0.406859
0.40125
0.396811
0.392883
0.388845
0.384382
0.379335
0.373672
0.367441
0.360733
0.353682
0.346361
0.33895
0.332648
0.318268
0.546508
0.490205
0.471993
0.449933
0.437638
0.427899
0.421107
0.415478
0.410377
0.405193
0.399629
0.393535
0.386888
0.37974
0.372183
0.364351
0.356317
0.348258
0.341284
0.326829
0.574086
0.515429
0.496308
0.472939
0.459526
0.448602
0.440635
0.433824
0.427557
0.421238
0.414584
0.407455
0.399835
0.391781
0.383387
0.374784
0.366045
0.357344
0.349701
0.335154
0.601194
0.54023
0.520215
0.495556
0.481037
0.468938
0.459806
0.451823
0.444401
0.436959
0.429227
0.421077
0.412499
0.403552
0.394334
0.384971
0.375537
0.366199
0.357895
0.343242
0.627791
0.564571
0.543678
0.517751
0.502138
0.488879
0.478593
0.46945
0.460887
0.452336
0.443542
0.434385
0.424864
0.415041
0.405012
0.394902
0.384783
0.374818
0.365862
0.351091
0.653839
0.588413
0.56666
0.539489
0.522799
0.508394
0.496969
0.486682
0.476994
0.46735
0.45751
0.447365
0.436918
0.426234
0.41541
0.404567
0.393777
0.383194
0.373598
0.3587
0.679297
0.611723
0.589128
0.560738
0.542988
0.527455
0.514908
0.503495
0.4927
0.481982
0.471116
0.460002
0.448647
0.43712
0.425518
0.413957
0.402509
0.39132
0.3811
0.366066
0.704129
0.634462
0.611047
0.581464
0.562674
0.546034
0.532384
0.519865
0.507984
0.496214
0.484343
0.47228
0.460038
0.447688
0.435325
0.423064
0.410972
0.399192
0.388362
0.373188
0.728295
0.656598
0.632383
0.601636
0.581829
0.564103
0.549374
0.53577
0.522826
0.510027
0.497174
0.484185
0.471079
0.457926
0.444822
0.431879
0.41916
0.406802
0.395381
0.380061
0.751759
0.678094
0.653102
0.621224
0.600423
0.581637
0.565851
0.551189
0.537206
0.523404
0.509595
0.495704
0.481756
0.467824
0.454
0.440393
0.427066
0.414145
0.402151
0.386683
0.774484
0.698919
0.673173
0.640195
0.618427
0.598608
0.581793
0.5661
0.551107
0.536328
0.521589
0.506823
0.492059
0.47737
0.462848
0.448598
0.434681
0.421216
0.408669
0.39305
0.796437
0.719038
0.692564
0.658522
0.635814
0.614992
0.597177
0.580481
0.564508
0.548782
0.533143
0.51753
0.501976
0.486555
0.471359
0.456488
0.442
0.428008
0.414929
0.399159
0.817582
0.738422
0.711245
0.676176
0.652559
0.630764
0.611981
0.594315
0.577392
0.560752
0.544242
0.527812
0.511496
0.49537
0.479524
0.464053
0.449017
0.434518
0.420928
0.405006
0.837887
0.757038
0.729186
0.693128
0.668634
0.645901
0.626182
0.607581
0.589743
0.57222
0.554873
0.537656
0.520608
0.503804
0.487333
0.471288
0.455724
0.440738
0.426659
0.410588
0.857321
0.774858
0.74636
0.709352
0.684015
0.66038
0.639762
0.62026
0.601543
0.583174
0.565024
0.547052
0.529302
0.511849
0.49478
0.478185
0.462117
0.446664
0.432119
0.415902
0.875852
0.791853
0.762737
0.724823
0.698678
0.67418
0.652699
0.632336
0.612778
0.593599
0.57468
0.555988
0.537568
0.519496
0.501857
0.484737
0.468188
0.452292
0.437304
0.420943
0.893452
0.807996
0.778293
0.739517
0.712602
0.687279
0.664976
0.643791
0.623432
0.603482
0.583832
0.564455
0.545398
0.526738
0.508557
0.490939
0.473933
0.457615
0.442208
0.425708
0.910093
0.823261
0.793003
0.753409
0.725763
0.699658
0.676575
0.65461
0.63349
0.612809
0.592467
0.572441
0.552782
0.533565
0.514873
0.496784
0.479347
0.46263
0.446829
0.430193
0.925749
0.837624
0.806842
0.766478
0.738143
0.711298
0.687479
0.664778
0.64294
0.62157
0.600575
0.579939
0.559712
0.539971
0.520797
0.502265
0.484423
0.467332
0.451161
0.434396
0.940395
0.851061
0.81979
0.778704
0.74972
0.722182
0.697671
0.674279
0.651768
0.629752
0.608147
0.586938
0.56618
0.54595
0.526325
0.507379
0.489158
0.471717
0.4552
0.438313
0.954008
0.863551
0.831824
0.790066
0.760479
0.732294
0.707137
0.683102
0.659964
0.637346
0.615172
0.593431
0.57218
0.551493
0.53145
0.51212
0.493546
0.47578
0.458944
0.441942
0.966566
0.875074
0.842925
0.800546
0.770401
0.741617
0.715864
0.691233
0.667516
0.644342
0.621642
0.59941
0.577703
0.556597
0.536167
0.516482
0.497584
0.479519
0.462389
0.445278
0.97805
0.88561
0.853076
0.810128
0.779471
0.750139
0.723838
0.698662
0.674413
0.650731
0.62755
0.604868
0.582744
0.561254
0.540471
0.520462
0.501268
0.482929
0.465531
0.448321
0.988441
0.895143
0.86226
0.818796
0.787675
0.757845
0.731048
0.705377
0.680647
0.656504
0.632887
0.609798
0.587298