/*--------------------------------*- C++ -*----------------------------------*\
  =========                 |
  \\      /  F ield         | OpenFOAM: The Open Source CFD Toolbox
   \\    /   O peration     | Website:  https://openfoam.org
    \\  /    A nd           | Version:  7
     \\/     M anipulation  |
\*---------------------------------------------------------------------------*/
FoamFile
{
    version     2.0;
    format      ascii;
    class       surfaceScalarField;
    location    "5";
    object      phi;
}
// * * * * * * * * * * * * * * * * * * * * * * * * * * * * * * * * * * * * * //

dimensions      [0 3 -1 0 0 0 0];

internalField   nonuniform List<scalar> 
83430
(
-8.65976e-07
8.6598e-07
-3.94004e-12
-2.34236e-06
1.47639e-06
-6.02483e-12
-3.68452e-06
1.34216e-06
-5.61002e-12
-4.25663e-06
5.72111e-07
-2.68851e-12
-3.54289e-06
-7.13738e-07
3.47158e-12
-1.09891e-06
-2.444e-06
1.31226e-11
3.46267e-06
-4.56161e-06
2.63365e-11
1.04897e-05
-7.02706e-06
4.31322e-11
2.03e-05
-9.81039e-06
6.35206e-11
3.31879e-05
-1.2888e-05
8.80083e-11
4.94261e-05
-1.62383e-05
1.18841e-10
6.92635e-05
-1.98375e-05
1.63738e-10
9.29183e-05
-2.3655e-05
2.14051e-10
0.000120566
-2.76481e-05
2.62492e-10
0.000152322
-3.17565e-05
3.09473e-10
0.000188218
-3.58962e-05
3.54291e-10
0.000228173
-3.99549e-05
3.95782e-10
0.000271968
-4.3796e-05
4.32414e-10
0.000319175
-4.72074e-05
4.62128e-10
-5.02606e-05
4.83166e-10
0.000369435
-8.57527e-07
1.72351e-06
-2.31159e-06
2.93045e-06
-3.61845e-06
2.64902e-06
-4.14281e-06
1.09647e-06
-3.36903e-06
-1.48751e-06
-8.52619e-07
-4.96041e-06
3.79408e-06
-9.20831e-06
1.09194e-05
-1.41524e-05
2.08419e-05
-1.97329e-05
3.38567e-05
-2.59028e-05
5.02376e-05
-3.26192e-05
7.02348e-05
-3.98347e-05
9.40683e-05
-4.74885e-05
0.000121916
-5.54955e-05
0.000153894
-6.37352e-05
0.000190039
-7.20404e-05
0.00023027
-8.0186e-05
0.000274372
-8.78984e-05
0.000321917
-9.47526e-05
-0.00010089
0.000372546
-8.40859e-07
2.56437e-06
-2.25037e-06
4.33997e-06
-3.48664e-06
3.88529e-06
-3.91545e-06
1.52528e-06
-3.02151e-06
-2.38146e-06
-3.60148e-07
-7.62177e-06
4.45686e-06
-1.40253e-05
1.17788e-05
-2.14744e-05
2.19257e-05
-2.98797e-05
3.51942e-05
-3.91713e-05
5.18603e-05
-4.92853e-05
7.21769e-05
-6.01514e-05
9.63673e-05
-7.16789e-05
0.000124613
-8.37412e-05
0.000157036
-9.61584e-05
0.000193676
-0.00010868
0.000234459
-0.000120969
0.000279174
-0.000132613
0.000327394
-0.000142973
-0.000152255
0.000378759
-8.16015e-07
3.38038e-06
-2.15888e-06
5.68283e-06
-3.28944e-06
5.01586e-06
-3.57514e-06
1.81098e-06
-2.5012e-06
-3.45539e-06
3.77253e-07
-1.05002e-05
5.44934e-06
-1.90974e-05
1.30658e-05
-2.90908e-05
2.35485e-05
-4.03624e-05
3.71968e-05
-5.28196e-05
5.42898e-05
-6.63783e-05
7.50844e-05
-8.0946e-05
9.98086e-05
-9.64031e-05
0.00012865
-0.000112583
0.000161737
-0.000129246
0.000199118
-0.00014606
0.000240725
-0.000162576
0.000286355
-0.000178243
0.000335582
-0.0001922
-0.000204719
0.000388046
-7.83061e-07
4.16344e-06
-2.03734e-06
6.93711e-06
-3.02736e-06
6.00587e-06
-3.12274e-06
1.90637e-06
-1.80943e-06
-4.7687e-06
1.35774e-06
-1.36674e-05
6.76902e-06
-2.45087e-05
1.4777e-05
-3.70988e-05
2.57062e-05
-5.12915e-05
3.98592e-05
-6.69727e-05
5.75194e-05
-8.40385e-05
7.89488e-05
-0.000102375
0.000104382
-0.000121836
0.000134014
-0.000142214
0.000167983
-0.000163215
0.000206345
-0.000184423
0.000249045
-0.000205276
0.000295888
-0.000225085
0.000346451
-0.000242764
-0.000258639
0.000400371
-7.42083e-07
4.90552e-06
-1.88609e-06
8.08112e-06
-2.70106e-06
6.82084e-06
-2.55938e-06
1.76469e-06
-9.479e-07
-6.38019e-06
2.57887e-06
-1.71942e-05
8.4126e-06
-3.03424e-05
1.69082e-05
-4.55944e-05
2.83932e-05
-6.27766e-05
4.31745e-05
-8.1754e-05
6.15404e-05
-0.000102404
8.37594e-05
-0.000124594
0.000110074
-0.00014815
0.000140688
-0.000172829
0.000175751
-0.000198278
0.000215333
-0.000224005
0.00025939
-0.000249333
0.000307736
-0.000273432
0.000359956
-0.000294984
-0.000314365
0.000415682
-6.93189e-07
5.59871e-06
-1.7055e-06
9.09343e-06
-2.31137e-06
7.42671e-06
-1.88648e-06
1.33979e-06
8.12522e-08
-8.34792e-06
4.03763e-06
-2.11505e-05
1.0376e-05
-3.66808e-05
1.94539e-05
-5.46723e-05
3.16027e-05
-7.49254e-05
4.71339e-05
-9.72852e-05
6.63419e-05
-0.000121612
8.95025e-05
-0.000147755
0.000116867
-0.000175515
0.000148651
-0.000204613
0.000185018
-0.000234644
0.00022605
-0.000265037
0.00027172
-0.000295003
0.000321855
-0.000323567
0.000376045
-0.000349173
-0.000372235
0.000433915
-6.36508e-07
6.23522e-06
-1.49604e-06
9.95296e-06
-1.85927e-06
7.78994e-06
-1.10569e-06
5.86213e-07
1.27546e-06
-1.07291e-05
5.73042e-06
-2.56055e-05
1.26543e-05
-4.36047e-05
2.24078e-05
-6.44258e-05
3.53264e-05
-8.7844e-05
5.17271e-05
-0.000113686
7.19109e-05
-0.000141796
9.6162e-05
-0.000172006
0.000124742
-0.000204095
0.00015788
-0.000237751
0.000195752
-0.000272517
0.00023846
-0.000307745
0.000285992
-0.000342535
0.000338191
-0.000375766
0.000394653
-0.000405634
-0.000432577
0.000454996
-5.72189e-07
6.80741e-06
-1.25824e-06
1.0639e-05
-1.34589e-06
7.87759e-06
-2.18924e-07
-5.4075e-07
2.63184e-06
-1.35798e-05
7.6531e-06
-3.06268e-05
1.5242e-05
-5.11936e-05
2.57626e-05
-7.49464e-05
3.9555e-05
-0.000101636
5.69421e-05
-0.000131073
7.82325e-05
-0.000163087
0.000103719
-0.000197493
0.000133676
-0.000234052
0.000168345
-0.000272419
0.00020792
-0.000312092
0.000252521
-0.000352346
0.000302155
-0.00039217
0.000356683
-0.000430294
0.000415706
-0.000464658
-0.000495708
0.000478837
-5.004e-07
7.30781e-06
-9.92699e-07
1.11313e-05
-7.72482e-07
7.65737e-06
7.71589e-07
-2.08482e-06
4.14707e-06
-1.69553e-05
9.80099e-06
-3.62807e-05
1.81327e-05
-5.95253e-05
2.95098e-05
-8.63236e-05
4.42777e-05
-0.000116404
6.27654e-05
-0.000149561
8.52897e-05
-0.000185611
0.000112154
-0.000224357
0.000143643
-0.000265541
0.000180015
-0.000308791
0.000221481
-0.000353559
0.000268183
-0.000399048
0.00032015
-0.000444136
0.000377259
-0.000487403
0.000439123
-0.000526522
-0.000561927
0.000505342
-4.21326e-07
7.72914e-06
-7.00073e-07
1.14101e-05
-1.4046e-07
7.09776e-06
1.86352e-06
-4.0888e-06
5.81751e-06
-2.09093e-05
1.21689e-05
-4.26321e-05
2.13193e-05
-6.86757e-05
3.36404e-05
-9.86446e-05
4.94826e-05
-0.000132246
6.91821e-05
-0.00016926
9.30639e-05
-0.000209493
0.000121442
-0.000252735
0.000154614
-0.000298713
0.000192854
-0.000347031
0.000236393
-0.000397098
0.000285395
-0.00044805
0.000339912
-0.000498653
0.000399844
-0.000547335
0.000464811
-0.000591489
-0.000631518
0.000534402
-3.35167e-07
8.0643e-06
-3.8108e-07
1.1456e-05
5.48658e-07
6.16802e-06
3.05424e-06
-6.59438e-06
7.63917e-06
-2.54942e-05
1.47512e-05
-4.97441e-05
2.47943e-05
-7.87188e-05
3.81441e-05
-0.000111995
5.51569e-05
-0.000149259
7.61758e-05
-0.000190279
0.000101535
-0.000234851
0.000131558
-0.000282758
0.000166557
-0.000333713
0.000206824
-0.000387298
0.000252608
-0.000442883
0.000304098
-0.00049954
0.000361372
-0.000555927
0.000424352
-0.000610315
0.00049267
-0.000659807
-0.000704746
0.000565898
-2.42142e-07
8.30645e-06
-3.6265e-08
1.12501e-05
1.29322e-06
4.83853e-06
4.3409e-06
-9.64206e-06
9.60772e-06
-3.07611e-05
1.75416e-05
-5.7678e-05
2.85491e-05
-8.97263e-05
4.30101e-05
-0.000126455
6.12864e-05
-0.000167536
8.37287e-05
-0.000212721
0.00011068
-0.000261802
0.000142475
-0.000314553
0.00017944
-0.000370678
0.000221882
-0.00042974
0.000270075
-0.000491076
0.00032423
-0.000553695
0.000384453
-0.00061615
0.000450692
-0.000676553
0.000522589
-0.000731705
-0.00078186
0.000599703
-1.42516e-07
8.44896e-06
3.328e-07
1.07748e-05
2.09146e-06
3.07988e-06
5.72051e-06
-1.32711e-05
1.17186e-05
-3.67591e-05
2.05337e-05
-6.64931e-05
3.2575e-05
-0.000101768
4.82265e-05
-0.000142107
6.78561e-05
-0.000187165
9.18217e-05
-0.000236687
0.000120475
-0.000290455
0.000154163
-0.000348241
0.000193225
-0.00040974
0.000237985
-0.0004745
0.000288739
-0.00054183
0.000345724
-0.00061068
0.000409075
-0.0006795
0.000478766
-0.000746244
0.000554455
-0.000807394
-0.000863086
0.00063568
-3.64101e-08
8.48537e-06
7.26049e-07
1.00123e-05
2.94152e-06
8.64402e-07
7.18985e-06
-1.75194e-05
1.39668e-05
-4.3536e-05
2.37204e-05
-7.62468e-05
3.68623e-05
-0.000114909
5.3781e-05
-0.000159026
7.485e-05
-0.000208234
0.000100435
-0.000262272
0.000130896
-0.000320917
0.000166591
-0.000383936
0.000207873
-0.000451022
0.000255085
-0.000521712
0.000308542
-0.000595286
0.000368508
-0.000670647
0.00043515
-0.000746142
0.000508469
-0.000819564
0.000588141
-0.000887066
-0.000948628
0.000673684
7.59499e-08
8.40942e-06
1.14228e-06
8.94598e-06
3.84146e-06
-1.83478e-06
8.74555e-06
-2.24235e-05
1.63472e-05
-5.11376e-05
2.70944e-05
-8.69941e-05
4.14011e-05
-0.000129216
5.96601e-05
-0.000177285
8.2251e-05
-0.000230825
0.000109546
-0.000289567
0.000141915
-0.000353286
0.000179726
-0.000421747
0.000223346
-0.000494641
0.000273132
-0.000571498
0.000329422
-0.000651577
0.000392509
-0.000733734
0.000462588
-0.000816221
0.000539694
-0.00089667
0.00062352
-0.000970891
-0.00103867
0.000713562
1.93968e-07
8.21545e-06
1.58054e-06
7.55941e-06
4.78924e-06
-5.04348e-06
1.03841e-05
-2.80184e-05
1.88544e-05
-5.96079e-05
3.06479e-05
-9.87876e-05
4.61809e-05
-0.000144749
6.58502e-05
-0.000196954
9.00413e-05
-0.000255016
0.000119134
-0.000318659
0.000153505
-0.000387657
0.000193534
-0.000461776
0.000239598
-0.000540706
0.000292073
-0.000623973
0.000351317
-0.000710821
0.000417648
-0.000800065
0.000491295
-0.000889867
0.000572325
-0.0009777
0.000660453
-0.00105902
-0.00113337
0.000755154
3.17666e-07
7.89779e-06
2.03985e-06
5.83723e-06
5.78274e-06
-8.78637e-06
1.21018e-05
-3.43375e-05
2.14827e-05
-6.89888e-05
3.43728e-05
-0.000111678
5.11904e-05
-0.000161567
7.23366e-05
-0.0002181
9.82021e-05
-0.000280882
0.000129173
-0.00034963
0.000165636
-0.000424119
0.000207977
-0.000504117
0.000256587
-0.000589316
0.000311855
-0.000679241
0.00037416
-0.000773125
0.000443845
-0.000869751
0.000521172
-0.000967195
0.000606244
-0.00106277
0.000698801
-0.00115158
-0.00123287
0.000798295
4.46715e-07
7.45107e-06
2.5192e-06
3.76474e-06
6.81977e-06
-1.30869e-05
1.38949e-05
-4.14126e-05
2.42264e-05
-7.93203e-05
3.82608e-05
-0.000125712
5.64184e-05
-0.000179724
7.91042e-05
-0.000240786
0.000106714
-0.000308492
0.000139641
-0.000382557
0.000178277
-0.000462756
0.000223019
-0.000548859
0.000274266
-0.000640563
0.000332422
-0.000737396
0.000397881
-0.000838585
0.000471015
-0.000942884
0.000552117
-0.0010483
0.000641328
-0.00115198
0.000738416
-0.00124866
-0.00133726
0.000842813
5.80829e-07
6.87024e-06
3.01757e-06
1.32801e-06
7.89811e-06
-1.79675e-05
1.57596e-05
-4.92741e-05
2.70793e-05
-9.064e-05
4.23031e-05
-0.000140936
6.18529e-05
-0.000199274
8.61373e-05
-0.00026507
0.000115557
-0.000337911
0.000150511
-0.000417511
0.000191397
-0.000503643
0.00023862
-0.000596082
0.000292588
-0.000694531
0.000353714
-0.000798522
0.000422412
-0.000907282
0.000499074
-0.00101955
0.000584027
-0.00113325
0.00067745
-0.00124541
0.000779148
-0.00135036
-0.00144665
0.000888533
7.19722e-07
6.15052e-06
3.53389e-06
-1.48616e-06
9.01546e-06
-2.34491e-05
1.76917e-05
-5.79503e-05
3.00352e-05
-0.000102984
4.64907e-05
-0.000157391
6.74816e-05
-0.000220265
9.34196e-05
-0.000291008
0.00012471
-0.000369202
0.000161756
-0.000454557
0.000204964
-0.00054685
0.000254741
-0.000645859
0.000311503
-0.000751294
0.000375674
-0.000862693
0.000447679
-0.000979287
0.000527932
-0.0010998
0.000616793
-0.00122211
0.000714483
-0.0013431
0.000820843
-0.00145672
-0.00156108
0.000935275
8.63108e-07
5.28741e-06
4.06711e-06
-4.69016e-06
1.01695e-05
-2.95514e-05
1.96871e-05
-6.74679e-05
3.30878e-05
-0.000116384
5.08146e-05
-0.000175118
7.32919e-05
-0.000242742
0.000100934
-0.000318651
0.000134151
-0.000402419
0.000173351
-0.000493756
0.000218942
-0.000592441
0.000271338
-0.000698256
0.000330961
-0.000810916
0.000398239
-0.00092997
0.000473608
-0.00105466
0.000557501
-0.00118369
0.000650309
-0.00131492
0.000752293
-0.00144508
0.000863345
-0.00156777
-0.00168059
0.000982854
1.0107e-06
4.27671e-06
4.61614e-06
-8.2956e-06
1.13578e-05
-3.62931e-05
2.17418e-05
-7.7852e-05
3.62306e-05
-0.000130873
5.52652e-05
-0.000194153
7.92708e-05
-0.000266748
0.000108664
-0.000348044
0.000143859
-0.000437613
0.000185265
-0.000535163
0.000233297
-0.000640473
0.000288371
-0.00075333
0.00035091
-0.000873455
0.000421347
-0.00100041
0.000500124
-0.00113343
0.00058769
-0.00127126
0.000684463
-0.00141169
0.000790749
-0.00155137
0.000906496
-0.00168352
-0.00180518
0.00103109
1.16221e-06
3.1145e-06
5.1799e-06
-1.23133e-05
1.2578e-05
-4.36912e-05
2.38515e-05
-8.91254e-05
3.94569e-05
-0.000146478
5.98329e-05
-0.000214529
8.54049e-05
-0.00029232
0.000116592
-0.000379231
0.000153809
-0.00047483
0.000197471
-0.000578825
0.000247994
-0.000690995
0.000305794
-0.00081113
0.000371297
-0.000938958
0.000444934
-0.00107404
0.000527152
-0.00121565
0.000618408
-0.00136252
0.000719146
-0.00151243
0.000829716
-0.00166194
0.000950134
-0.00180394
-0.00193483
0.00107978
1.31736e-06
1.79714e-06
5.7573e-06
-1.67532e-05
1.38278e-05
-5.17617e-05
2.60119e-05
-0.00010131
4.27599e-05
-0.000163226
6.45078e-05
-0.000236277
9.16807e-05
-0.000319493
0.000124699
-0.000412249
0.000163979
-0.000514111
0.000209939
-0.000624785
0.000262994
-0.00074405
0.000323563
-0.000871699
0.000392066
-0.00100746
0.000468935
-0.00115091
0.000554612
-0.00130133
0.000649561
-0.00145746
0.000754247
-0.00161712
0.000869062
-0.00177675
0.000994101
-0.00192898
-0.00206949
0.00112876
1.47586e-06
3.2128e-07
6.34726e-06
-2.16246e-05
1.51045e-05
-6.0519e-05
2.82185e-05
-0.000114424
4.61329e-05
-0.000181141
6.928e-05
-0.000259424
9.80843e-05
-0.000348297
0.000132967
-0.000447132
0.000174345
-0.00055549
0.000222638
-0.000673077
0.000278261
-0.000799673
0.00034163
-0.000935068
0.000413163
-0.00107899
0.000493283
-0.00123103
0.000582428
-0.00139047
0.000681058
-0.00155609
0.000789655
-0.00172571
0.000908651
-0.00189575
0.00103824
-0.00205856
-0.00220909
0.00117783
1.63745e-06
-1.31617e-06
6.94867e-06
-2.69358e-05
1.64059e-05
-6.99762e-05
3.04672e-05
-0.000128485
4.95687e-05
-0.000200242
7.41392e-05
-0.000283994
0.000104601
-0.00037876
0.000141376
-0.000483906
0.000184882
-0.000598996
0.000235537
-0.000723732
0.000293755
-0.000857892
0.000359949
-0.00100126
0.000434531
-0.00115358
0.000517912
-0.00131441
0.00061052
-0.00148308
0.000712806
-0.00165838
0.00082526
-0.00183817
0.000948352
-0.00201884
0.00108238
-0.00219259
-0.00235351
0.0012268
1.80184e-06
-3.11801e-06
7.56046e-06
-3.26945e-05
1.77294e-05
-8.01451e-05
3.27533e-05
-0.000143509
5.30605e-05
-0.00022055
7.90751e-05
-0.000310009
0.000111218
-0.000410902
0.000149908
-0.000522596
0.000195564
-0.000644652
0.000248603
-0.000776771
0.000309436
-0.000918725
0.000378471
-0.0010703
0.000456109
-0.00123121
0.000542751
-0.00140106
0.000638807
-0.00157914
0.000744711
-0.00176428
0.000860954
-0.00195441
0.000988036
-0.00214592
0.00112638
-0.00233094
-0.00250262
0.0012755
1.96878e-06
-5.08679e-06
8.18155e-06
-3.89072e-05
1.90725e-05
-9.1036e-05
3.50724e-05
-0.000159509
5.66012e-05
-0.000242078
8.40773e-05
-0.000337485
0.000117919
-0.000444743
0.000158543
-0.000563221
0.000206366
-0.000692476
0.000261804
-0.000832208
0.000325263
-0.000982184
0.000397144
-0.00114218
0.000477839
-0.00131191
0.000567731
-0.00149095
0.000667207
-0.00167861
0.000776681
-0.00187376
0.00089663
-0.00207436
0.00102758
-0.00227687
0.00117009
-0.00247345
-0.00265626
0.00132373
2.13801e-06
-7.2248e-06
8.81086e-06
-4.55801e-05
2.04329e-05
-0.000102658
3.74202e-05
-0.000176496
6.01834e-05
-0.000264842
8.91351e-05
-0.000366437
0.000124689
-0.000480297
0.00016726
-0.000605791
0.000217262
-0.000742478
0.000275105
-0.000890051
0.000341193
-0.00104827
0.000415918
-0.0012169
0.000499657
-0.00139565
0.000592777
-0.00158407
0.000695639
-0.00178148
0.000808623
-0.00198674
0.000932185
-0.00219792
0.00106685
-0.00241154
0.00121336
-0.00261996
-0.00281423
0.00137133
2.30927e-06
-9.53407e-06
9.44733e-06
-5.27181e-05
2.18079e-05
-0.000115019
3.9792e-05
-0.00019448
6.38e-05
-0.00028885
9.42378e-05
-0.000396874
0.000131514
-0.000517573
0.000176039
-0.000650317
0.000228224
-0.000794662
0.000288473
-0.000950301
0.000357184
-0.00111698
0.000434738
-0.00129446
0.000521501
-0.00148241
0.000617816
-0.00168038
0.000724017
-0.00188768
0.000840444
-0.00210317
0.000967517
-0.00232499
0.00110575
-0.00254977
0.00125606
-0.00277027
-0.0029763
0.00141813
2.48234e-06
-1.20164e-05
1.00899e-05
-6.03257e-05
2.31953e-05
-0.000128124
4.21833e-05
-0.000213468
6.74438e-05
-0.00031411
9.93745e-05
-0.000428805
0.000138378
-0.000556577
0.00018486
-0.000696799
0.000239225
-0.000849027
0.000301872
-0.00101295
0.00037319
-0.0011883
0.00045355
-0.00137482
0.000543303
-0.00157216
0.000642771
-0.00177985
0.000752254
-0.00199716
0.00087205
-0.00222296
0.00100253
-0.00245547
0.00114416
-0.0026914
0.00129806
-0.00292416
-0.0031422
0.00146395
2.65698e-06
-1.46734e-05
1.07375e-05
-6.84063e-05
2.45924e-05
-0.000141979
4.45896e-05
-0.000233465
7.11074e-05
-0.000340628
0.000104534
-0.000462232
0.000145266
-0.000597309
0.000193701
-0.000745234
0.000250237
-0.000905563
0.000315266
-0.00107798
0.000389166
-0.0012622
0.000472298
-0.00145795
0.000564995
-0.00166486
0.00066756
-0.00188242
0.00078026
-0.00210986
0.000903346
-0.00234605
0.00103712
-0.00258925
0.001182
-0.00283628
0.00133926
-0.00308142
-0.00331159
0.00150865
2.83297e-06
-1.75064e-05
1.13892e-05
-7.69625e-05
2.59968e-05
-0.000156586
4.70064e-05
-0.000254475
7.47834e-05
-0.000368405
0.000109706
-0.000497155
0.000152162
-0.000639764
0.000202541
-0.000795613
0.000261233
-0.000964255
0.000328618
-0.00114536
0.000405066
-0.00133865
0.000490923
-0.00154381
0.000586508
-0.00176044
0.0006921
-0.00198801
0.000807941
-0.0022257
0.000934232
-0.00247234
0.00107121
-0.00272622
0.00121917
-0.00298425
0.00137957
-0.00324182
-0.0034841
0.00155208
3.0101e-06
-2.05165e-05
1.20439e-05
-8.59963e-05
2.74061e-05
-0.000171949
4.94291e-05
-0.000276498
7.84645e-05
-0.00039744
0.000114879
-0.00053357
0.000159051
-0.000683935
0.000211359
-0.000847921
0.000272182
-0.00102508
0.000341892
-0.00121507
0.000420843
-0.0014176
0.000509367
-0.00163233
0.000607766
-0.00185884
0.000716304
-0.00209655
0.000835195
-0.00234459
0.000964603
-0.00260175
0.00110468
-0.0028663
0.00125562
-0.00313519
0.00141894
-0.00340514
-0.00365928
0.00159412
3.18816e-06
-2.37046e-05
1.27005e-05
-9.55086e-05
2.88178e-05
-0.000188066
5.1853e-05
-0.000299533
8.21432e-05
-0.000427731
0.000120042
-0.000571469
0.000165916
-0.000729809
0.000220132
-0.000902137
0.000283058
-0.001088
0.000355049
-0.00128706
0.000436447
-0.001499
0.000527567
-0.00172345
0.000628696
-0.00195997
0.00074008
-0.00220793
0.000861918
-0.00246643
0.000994345
-0.00273418
0.00113745
-0.00300941
0.0012913
-0.00328903
0.00145738
-0.00357122
-0.00383659
0.00163469
3.36695e-06
-2.70716e-05
1.3358e-05
-0.0001055
3.02293e-05
-0.000204937
5.42737e-05
-0.000323578
8.5812e-05
-0.000459269
0.000125184
-0.000610841
0.000172742
-0.000777366
0.000228839
-0.000958235
0.000293829
-0.00115299
0.000368052
-0.00136129
0.00045183
-0.00158277
0.000545463
-0.00181708
0.000649219
-0.00206373
0.000763332
-0.00232204
0.000887992
-0.00259109
0.00102333
-0.00286951
0.00116941
-0.00315549
0.00132617
-0.00344579
0.00149492
-0.00373997
-0.00401546
0.00167379
3.54623e-06
-3.06178e-05
1.40153e-05
-0.000115969
3.16382e-05
-0.00022256
5.66865e-05
-0.000348626
8.94636e-05
-0.000492046
0.000130293
-0.000651671
0.000179512
-0.000826585
0.000237459
-0.00101618
0.000304468
-0.00122
0.000380862
-0.00143768
0.000466943
-0.00166886
0.000562991
-0.00191313
0.000669255
-0.00216999
0.000785958
-0.00243875
0.000913293
-0.00271842
0.00105141
-0.00300764
0.00120041
-0.00330448
0.00136021
-0.00360559
0.00153167
-0.00391143
-0.00419538
0.00171159
3.72575e-06
-3.43436e-05
1.46714e-05
-0.000126914
3.30419e-05
-0.000240931
5.90867e-05
-0.000374671
9.30903e-05
-0.00052605
0.000135359
-0.00069394
0.000186212
-0.000877437
0.000245969
-0.00107594
0.000314946
-0.00128898
0.000393442
-0.00151618
0.000481738
-0.00175715
0.000580088
-0.00201148
0.000688724
-0.00227863
0.000807856
-0.00255788
0.000937686
-0.00284826
0.00107842
-0.00314837
0.00123029
-0.00345634
0.00139344
-0.00376875
0.00156791
-0.0040859
-0.00437652
0.00174905
3.90515e-06
-3.82487e-05
1.53249e-05
-0.000138334
3.44378e-05
-0.000260043
6.14698e-05
-0.000401703
9.66849e-05
-0.000561265
0.00014037
-0.000737625
0.000192824
-0.000929892
0.000254348
-0.00113746
0.000325233
-0.00135987
0.000405754
-0.0015967
0.000496165
-0.00184756
0.000596693
-0.00211201
0.000707545
-0.00238948
0.000828917
-0.00267925
0.000961024
-0.00298036
0.00110415
-0.0032915
0.00125876
-0.00361095
0.00142569
-0.00393568
0.00160532
-0.00426553
-0.00455905
0.00178785
4.03316e-06
-4.22819e-05
1.5865e-05
-0.000150166
3.56498e-05
-0.000279828
6.35908e-05
-0.000429644
9.99316e-05
-0.000597605
0.000144939
-0.000782633
0.000198892
-0.000983844
0.000262067
-0.00120064
0.000334732
-0.00143253
0.000417133
-0.0016791
0.000509494
-0.00193992
0.000612011
-0.00221453
0.00072486
-0.00250233
0.000848218
-0.00280261
0.0009823
-0.00311444
0.00112746
-0.00343666
0.00128441
-0.0037679
0.0014548
-0.00410607
0.00164393
-0.00445466
-0.00479619
0.00188107
4.20705e-06
-4.64889e-05
1.6502e-05
-0.000162461
3.70105e-05
-0.000300337
6.591e-05
-0.000458543
0.00010342
-0.000635116
0.000149785
-0.000828997
0.000205258
-0.00103932
0.00027009
-0.00126547
0.000344521
-0.00150696
0.000428764
-0.00176334
0.000523008
-0.00203417
0.000627412
-0.00231893
0.000742114
-0.00261703
0.000867257
-0.00292775
0.00100304
-0.00325023
0.00114984
-0.00358346
0.00130846
-0.00392652
0.00148084
-0.00427845
0.00167154
-0.00464536
-0.00501874
0.00189409
4.37981e-06
-5.08687e-05
1.7133e-05
-0.000175214
3.83558e-05
-0.00032156
6.81978e-05
-0.000488385
0.000106854
-0.000673771
0.000154541
-0.000876685
0.000211488
-0.00109626
0.000277917
-0.0013319
0.000354033
-0.00158308
0.000440016
-0.00184933
0.000536013
-0.00213016
0.000642141
-0.00242506
0.000758492
-0.00273338
0.000885162
-0.00305442
0.00102231
-0.00338737
0.00117025
-0.0037314
0.00132971
-0.00408599
0.00150232
-0.00445105
0.00169036
-0.0048334
-0.00522939
0.00190101
4.55096e-06
-5.54197e-05
1.7757e-05
-0.00018842
3.9683e-05
-0.000343486
7.04498e-05
-0.000519152
0.000110224
-0.000713546
0.000159198
-0.000925658
0.000217568
-0.00115463
0.000285526
-0.00139986
0.000363241
-0.00166079
0.000450853
-0.00193694
0.000548466
-0.00222778
0.000656146
-0.00253274
0.00077393
-0.00285117
0.000901856
-0.00318235
0.00104
-0.00352552
0.00118859
-0.00387999
0.00134813
-0.00424553
0.00151967
-0.0046226
0.00170376
-0.0050175
-0.00542922
0.00190359
4.72017e-06
-6.01399e-05
1.83726e-05
-0.000202073
4.09897e-05
-0.000366103
7.26612e-05
-0.000550824
0.000113525
-0.00075441
0.000163744
-0.000975876
0.000223482
-0.00121437
0.000292897
-0.00146927
0.000372119
-0.00174001
0.000461244
-0.00202606
0.000560327
-0.00232686
0.000669378
-0.00264179
0.000788373
-0.00297016
0.000917275
-0.00331125
0.00105607
-0.00366431
0.00120483
-0.00402875
0.00136378
-0.00440448
0.0015334
-0.00479222
0.00171306
-0.00519715
-0.00561961
0.00190345
4.88716e-06
-6.5027e-05
1.89789e-05
-0.000216164
4.22731e-05
-0.000389397
7.48275e-05
-0.000583378
0.000116749
-0.000796332
0.000168168
-0.00102729
0.000229215
-0.00127542
0.00030001
-0.00154007
0.000380641
-0.00182064
0.000471157
-0.00211658
0.000571557
-0.00242726
0.000681793
-0.00275202
0.000801771
-0.00309014
0.000931368
-0.00344085
0.00107046
-0.0038034
0.00121895
-0.00417724
0.00137679
-0.00456232
0.00154391
-0.00495933
0.00171892
-0.00537217
-0.0058018
0.00190111
5.05166e-06
-7.00787e-05
1.95746e-05
-0.000230687
4.3531e-05
-0.000413353
7.69443e-05
-0.000616791
0.000119889
-0.000839277
0.00017246
-0.00107987
0.000234754
-0.00133771
0.000306847
-0.00161216
0.000388783
-0.00190258
0.00048056
-0.00220836
0.000582121
-0.00252882
0.000693351
-0.00286325
0.000814081
-0.00321087
0.000944096
-0.00357086
0.00108315
-0.00394246
0.00123099
-0.00432507
0.00138726
-0.00471859
0.00155149
-0.00512356
0.00172183
-0.00554251
-0.00597675
0.00189678
5.21343e-06
-7.52921e-05
2.01588e-05
-0.000245633
4.47607e-05
-0.000437955
7.9007e-05
-0.000651038
0.000122937
-0.000883208
0.00017661
-0.00113354
0.000240083
-0.00140119
0.000313388
-0.00168547
0.000396522
-0.00198571
0.000489427
-0.00230126
0.000591986
-0.00263138
0.000704015
-0.00297528
0.000825265
-0.00333212
0.000955427
-0.00370102
0.00109413
-0.00408117
0.00124095
-0.00447189
0.00139531
-0.00487295
0.00155637
-0.00528462
0.00172209
-0.00570823
-0.00614519
0.00189052
5.37221e-06
-8.06643e-05
2.07302e-05
-0.000260991
4.59598e-05
-0.000463185
8.10111e-05
-0.000686089
0.000125887
-0.000928084
0.000180608
-0.00118826
0.000245188
-0.00146577
0.000319615
-0.00175989
0.000403834
-0.00206993
0.00049773
-0.00239516
0.000601122
-0.00273477
0.000713753
-0.00308791
0.000835293
-0.00345366
0.000965336
-0.00383107
0.0011034
-0.00421923
0.00124889
-0.00461738
0.00140103
-0.0050251
0.00155874
-0.00544233
0.00171988
-0.00586937
-0.00630764
0.00188234
5.52775e-06
-8.61921e-05
2.12879e-05
-0.000276751
4.71259e-05
-0.000489023
8.29523e-05
-0.000721915
0.000128731
-0.000973863
0.000184442
-0.00124397
0.000250056
-0.00153138
0.000325511
-0.00183535
0.000410698
-0.00215512
0.000505444
-0.0024899
0.000609499
-0.00283883
0.000722534
-0.00320095
0.000844137
-0.00357526
0.000973805
-0.00396074
0.00111094
-0.00435636
0.00125481
-0.00476126
0.00140449
-0.00517477
0.00155871
-0.00559654
0.00171533
-0.00602599
-0.00646451
0.00187219
5.67979e-06
-9.18719e-05
2.18308e-05
-0.000292902
4.82563e-05
-0.000515448
8.4826e-05
-0.000758485
0.000131463
-0.0010205
0.000188104
-0.00130061
0.000254673
-0.00159795
0.000331058
-0.00191173
0.000417094
-0.00224116
0.000512543
-0.00258535
0.000617091
-0.00294337
0.000730333
-0.00331419
0.000851774
-0.0036967
0.000980818
-0.00408978
0.00111676
-0.0044923
0.00125876
-0.00490326
0.00140575
-0.00532176
0.00155636
-0.00574715
0.0017085
-0.00617813
-0.00661606
0.00186005
5.82806e-06
-9.76999e-05
2.23578e-05
-0.000309432
4.93487e-05
-0.000542439
8.66278e-05
-0.000795764
0.000134076
-0.00106795
0.000191584
-0.00135812
0.000259027
-0.00166539
0.000336241
-0.00198895
0.000423001
-0.00232792
0.000519007
-0.00268136
0.000623875
-0.00304824
0.000737127
-0.00342744
0.000858184
-0.00381776
0.000986366
-0.00421796
0.00112087
-0.00462681
0.00126076
-0.00504314
0.00140487
-0.00546587
0.00155176
-0.00589404
0.00169945
-0.00632582
-0.00676248
0.00184587
5.97231e-06
-0.000103672
2.28677e-05
-0.000326327
5.04007e-05
-0.000569972
8.83535e-05
-0.000833717
0.000136562
-0.00111616
0.000194871
-0.00141643
0.000263104
-0.00173362
0.000341042
-0.00206688
0.0004284
-0.00241527
0.000524814
-0.00277777
0.000629829
-0.00315326
0.000742893
-0.00354051
0.00086335
-0.00393822
0.000990438
-0.00434505
0.00112327
-0.00475965
0.00126083
-0.0051807
0.00140188
-0.00560692
0.00154497
-0.00603713
0.00168819
-0.00646904
-0.00690391
0.00182962
6.11225e-06
-0.000109784
2.33595e-05
-0.000343574
5.14096e-05
-0.000598022
8.99986e-05
-0.000872306
0.000138916
-0.00116507
0.000197957
-0.00147547
0.000266893
-0.00180256
0.000345448
-0.00214544
0.000433275
-0.0025031
0.000529944
-0.00287444
0.000634932
-0.00325825
0.000747614
-0.00365319
0.000867259
-0.00405787
0.000993031
-0.00447082
0.00112397
-0.00489059
0.00125899
-0.00531572
0.00139683
-0.00574476
0.00153601
-0.00617631
0.00167476
-0.0066078
-0.00704041
0.00181126
6.2476e-06
-0.000116032
2.3832e-05
-0.000361159
5.23731e-05
-0.000626563
9.15588e-05
-0.000911491
0.000141131
-0.00121465
0.000200832
-0.00153517
0.000270381
-0.00187211
0.000349443
-0.0022245
0.000437607
-0.00259127
0.00053438
-0.00297121
0.000639167
-0.00336303
0.000751274
-0.00376529
0.0008699
-0.00417649
0.00099414
-0.00459506
0.00112298
-0.00501943
0.00125527
-0.00544801
0.00138973
-0.00587922
0.00152491
-0.00631149
0.00165917
-0.00674205
-0.00717203
0.00179079
6.37808e-06
-0.00012241
2.42842e-05
-0.000379065
5.32887e-05
-0.000655568
9.30298e-05
-0.000951233
0.000143199
-0.00126482
0.000203488
-0.00159546
0.000273558
-0.00194218
0.000353013
-0.00230396
0.000441382
-0.00267964
0.000538104
-0.00306794
0.000642517
-0.00346745
0.000753858
-0.00387664
0.000871263
-0.0042939
0.000993765
-0.00471756
0.00112029
-0.00514595
0.00124968
-0.0055774
0.00138062
-0.00601016
0.00151172
-0.00644259
0.00164143
-0.00687177
-0.00729879
0.00176819
6.50338e-06
-0.000128914
2.47149e-05
-0.000397276
5.41539e-05
-0.000685007
9.44075e-05
-0.000991486
0.000145116
-0.00131552
0.000205916
-0.00165626
0.000276411
-0.00201268
0.000356146
-0.00238369
0.000444585
-0.00276807
0.000541101
-0.00316445
0.000644967
-0.00357131
0.000755356
-0.00398703
0.000871343
-0.00440988
0.000991906
-0.00483813
0.00111594
-0.00526999
0.00124224
-0.0057037
0.00136953
-0.00613745
0.00149645
-0.0065695
0.00162158
-0.0069969
-0.00742069
0.00174348
6.62321e-06
-0.000135537
2.5123e-05
-0.000415776
5.49663e-05
-0.00071485
9.56877e-05
-0.00103221
0.000146874
-0.00136671
0.000208107
-0.00171749
0.000278931
-0.0020835
0.000358829
-0.00246359
0.000447202
-0.00285645
0.000543358
-0.00326061
0.000646507
-0.00367446
0.000755759
-0.00409628
0.000870135
-0.00452426
0.000988569
-0.00495656
0.00110992
-0.00539134
0.00123298
-0.00582676
0.00135649
-0.00626096
0.00147914
-0.00669216
0.00159964
-0.00711739
-0.00753772
0.00171666
6.73727e-06
-0.000142274
2.55073e-05
-0.000434546
5.57235e-05
-0.000745066
9.68662e-05
-0.00107335
0.000148468
-0.00141831
0.000210053
-0.00177908
0.000281107
-0.00215455
0.000361051
-0.00254353
0.000449221
-0.00294462
0.000544863
-0.00335625
0.000647124
-0.00377672
0.000755059
-0.00420421
0.000867638
-0.00463684
0.000983758
-0.00507268
0.00110226
-0.00550984
0.00122192
-0.00594643
0.00134153
-0.00638057
0.00145983
-0.00681045
0.00157564
-0.00723321
-0.00764985
0.00168777
6.84525e-06
-0.000149119
2.58668e-05
-0.000453568
5.6423e-05
-0.000775622
9.7939e-05
-0.00111487
0.000149892
-0.00147027
0.000211747
-0.00184093
0.00028293
-0.00222574
0.000362799
-0.0026234
0.00045063
-0.00303245
0.000545604
-0.00345122
0.00064681
-0.00387793
0.000753251
-0.00431065
0.000863854
-0.00474744
0.000977483
-0.00518631
0.00109296
-0.00562531
0.00120909
-0.00606256
0.00132468
-0.00649615
0.00143854
-0.00692432
0.00154962
-0.00734428
-0.00775707
0.00165684
6.94684e-06
-0.000156066