/*--------------------------------*- C++ -*----------------------------------*\
  =========                 |
  \\      /  F ield         | OpenFOAM: The Open Source CFD Toolbox
   \\    /   O peration     | Website:  https://openfoam.org
    \\  /    A nd           | Version:  7
     \\/     M anipulation  |
\*---------------------------------------------------------------------------*/
FoamFile
{
    version     2.0;
    format      ascii;
    class       volVectorField;
    location    "5";
    object      U;
}
// * * * * * * * * * * * * * * * * * * * * * * * * * * * * * * * * * * * * * //

dimensions      [0 1 -1 0 0 0 0];

internalField   nonuniform List<vector> 
42000
(
(-0.000320412 0.000122369 1.9557e-21)
(-0.00142715 0.000192551 -1.61025e-21)
(-0.00276363 0.000154336 1.23582e-22)
(-0.00344279 4.1682e-05 9.39346e-22)
(-0.00325365 -0.000119565 -2.4217e-21)
(-0.00196336 -0.000311965 -1.89875e-21)
(0.000505623 -0.000522991 3.92115e-21)
(0.0041877 -0.000743834 2.12942e-22)
(0.00907017 -0.000968124 2.36442e-21)
(0.0151155 -0.00119112 8.32424e-23)
(0.0222672 -0.00140903 4.1786e-22)
(0.0304554 -0.00161848 -9.66141e-23)
(0.0395978 -0.00181605 1.27314e-22)
(0.0495991 -0.00199792 1.99933e-21)
(0.0603478 -0.00215951 1.26053e-21)
(0.0717139 -0.00229532 -2.60738e-22)
(0.0835377 -0.0023988 4.67509e-22)
(0.0956552 -0.00246287 -1.85922e-21)
(0.107778 -0.00247743 -1.75417e-22)
(0.119876 -0.00245248 2.1225e-21)
(-0.00032819 0.000365773 3.85122e-21)
(-0.00142785 0.000574728 -3.43165e-21)
(-0.00273664 0.000459275 -4.15947e-22)
(-0.00337574 0.000120945 -3.6018e-21)
(-0.00313641 -0.000362792 7.63933e-21)
(-0.00178879 -0.000939733 -8.39768e-21)
(0.000743061 -0.00157235 -8.78972e-21)
(0.0044922 -0.00223428 1.46159e-21)
(0.00944504 -0.00290644 -3.89691e-21)
(0.0155634 -0.00357464 -1.80424e-21)
(0.0227903 -0.00422752 5.70462e-21)
(0.0310556 -0.004855 -4.76714e-21)
(0.0402768 -0.00544685 2.29966e-21)
(0.0503584 -0.0059916 1.21877e-21)
(0.0611887 -0.00647556 -7.98917e-21)
(0.0726376 -0.00688218 -4.12705e-21)
(0.084545 -0.00719187 -1.30178e-21)
(0.0967475 -0.00738327 -7.12142e-21)
(0.108948 -0.00742622 4.78557e-21)
(0.121153 -0.00734956 -8.14208e-22)
(-0.000343552 0.000605276 5.41241e-21)
(-0.00142882 0.000948199 1.03462e-20)
(-0.00268209 0.000752942 -7.22648e-21)
(-0.00324102 0.000187759 -5.12552e-21)
(-0.00290128 -0.000618535 -1.86148e-21)
(-0.00143902 -0.0015793 1.1787e-21)
(0.00121851 -0.0026322 1.41702e-20)
(0.00510171 -0.00373346 -1.42861e-21)
(0.0101952 -0.00485141 6.58001e-21)
(0.0164594 -0.0059625 -1.43889e-21)
(0.0238367 -0.00704789 7.04298e-21)
(0.032256 -0.00809084 2.7819e-21)
(0.0416346 -0.0090744 6.04961e-21)
(0.0518764 -0.0099795 4.30978e-21)
(0.0628698 -0.0107834 1.88993e-20)
(0.0744841 -0.0114585 -1.58486e-22)
(0.0865583 -0.0119721 -4.92863e-21)
(0.0989304 -0.0122884 -2.767e-21)
(0.111286 -0.0123575 -6.79702e-21)
(0.123703 -0.0122238 1.63619e-20)
(-0.000366125 0.000838358 -8.12252e-22)
(-0.0014292 0.00130724 1.5959e-21)
(-0.00259888 0.00102787 4.87034e-21)
(-0.00303737 0.000233859 1.25855e-20)
(-0.00254697 -0.000895121 -8.10343e-21)
(-0.000912794 -0.00223853 7.03553e-21)
(0.00193313 -0.00370953 -1.78631e-20)
(0.00601721 -0.0052472 1.42624e-21)
(0.0113214 -0.00680748 -1.64493e-20)
(0.0178043 -0.00835761 -1.07064e-20)
(0.0254066 -0.00987139 -1.84381e-20)
(0.0340566 -0.0113256 -2.27013e-21)
(0.0436706 -0.0126965 -1.79416e-20)
(0.0541524 -0.0139578 -1.24733e-21)
(0.0653897 -0.0150776 2.71535e-21)
(0.0772513 -0.0160172 -1.07956e-23)
(0.0895748 -0.016731 1.20163e-20)
(0.102201 -0.0171681 7.26222e-21)
(0.114788 -0.0172598 -1.25689e-20)
(0.127522 -0.01706 -5.26108e-21)
(-0.000395353 0.00106253 -7.15882e-21)
(-0.00142772 0.0016462 -6.04501e-21)
(-0.00248534 0.00127671 -4.38726e-21)
(-0.00276291 0.000251132 -9.59732e-21)
(-0.00207155 -0.0012007 6.39488e-21)
(-0.000208244 -0.0029251 3.52957e-21)
(0.00288864 -0.00481115 5.43957e-21)
(0.00724022 -0.00678116 -1.05091e-20)
(0.0128249 -0.00877892 2.49285e-20)
(0.0195987 -0.0107627 2.67073e-20)
(0.0275005 -0.0126991 2.92973e-21)
(0.0364572 -0.0145585 5.70099e-21)
(0.0463843 -0.0163109 -1.0867e-20)
(0.0571849 -0.0179225 1.51136e-20)
(0.0687462 -0.0193524 -3.38652e-21)
(0.0809364 -0.0205512 -8.38489e-21)
(0.0935909 -0.0214597 -5.35593e-21)
(0.106553 -0.022012 1.20374e-20)
(0.119448 -0.0221212 6.35992e-21)
(0.132602 -0.0218429 -1.28766e-20)
(-0.000430503 0.00127536 7.14407e-21)
(-0.00142271 0.00195957 1.18762e-20)
(-0.00233925 0.00149231 -9.29035e-22)
(-0.00241516 0.000231663 -1.77772e-20)
(-0.00147246 -0.00154322 5.76006e-22)
(0.000677121 -0.00364646 -2.93377e-21)
(0.00408734 -0.00594363 -3.97912e-21)
(0.00877273 -0.00834073 1.46388e-21)
(0.0147073 -0.0107697 6.2556e-21)
(0.0218438 -0.0131802 -1.09764e-20)
(0.0301188 -0.0155319 -2.84478e-20)
(0.0394577 -0.0177889 2.60258e-20)
(0.0497747 -0.019915 1.61358e-20)
(0.0609722 -0.0218692 -1.99615e-20)
(0.0729366 -0.023602 -1.90721e-20)
(0.0855353 -0.0250529 -8.93536e-22)
(0.0986012 -0.0261495 7.73528e-21)
(0.111981 -0.0268098 -6.20756e-21)
(0.125257 -0.0269302 1.47082e-21)
(0.138932 -0.0265574 2.12674e-20)
(-0.00047067 0.00147447 -1.85083e-20)
(-0.00141208 0.00224199 -6.97964e-21)
(-0.00215787 0.0016677 2.24111e-20)
(-0.00199102 0.000167781 3.27341e-20)
(-0.000746514 -0.00193036 -1.46824e-20)
(0.00174639 -0.00440979 -1.66355e-20)
(0.00553206 -0.00711329 -4.01679e-21)
(0.0106172 -0.00993106 1.91775e-20)
(0.0169706 -0.0127837 5.68106e-22)
(0.0245409 -0.0156124 7.10348e-22)
(0.0332623 -0.0183703 1.30186e-20)
(0.0430579 -0.0210155 -6.38138e-21)
(0.0538407 -0.023506 1.95584e-20)
(0.0655121 -0.0257936 4.92774e-21)
(0.0779574 -0.0278204 -1.99548e-20)
(0.0910432 -0.0295149 2.16238e-20)
(0.104599 -0.0307913 5.48427e-21)
(0.118477 -0.0315508 2.39579e-20)
(0.132205 -0.0316748 1.30098e-20)
(0.146501 -0.0311882 -3.87124e-20)
(-0.000514779 0.00165758 2.87522e-22)
(-0.00139336 0.00248828 1.36819e-20)
(-0.00193796 0.00179617 -4.11964e-21)
(-0.00148682 5.21088e-05 -3.24811e-20)
(0.000110075 -0.00236947 3.1237e-20)
(0.00300323 -0.00522194 -3.51039e-22)
(0.00722618 -0.00832607 2.547e-20)
(0.0127765 -0.011557 -1.78142e-20)
(0.019617 -0.0148243 -2.87021e-21)
(0.0276917 -0.0180612 6.05853e-21)
(0.0369316 -0.0212145 1.00339e-20)
(0.0472575 -0.024237 -2.26677e-20)
(0.0585809 -0.0270806 -7.16623e-21)
(0.0708017 -0.0296907 1.57007e-20)
(0.0838044 -0.0320009 3.07013e-20)
(0.0974542 -0.033929 -8.59697e-21)
(0.111577 -0.0353756 -1.49065e-20)
(0.126031 -0.0362243 -5.76345e-20)
(0.140282 -0.036343 -7.66529e-21)
(0.155291 -0.0357201 5.07448e-21)
(-0.000561594 0.00182248 6.11022e-22)
(-0.0013637 0.00269348 -3.86891e-21)
(-0.00167574 0.00187131 -1.28714e-20)
(-0.00089833 -0.000122382 2.23374e-20)
(0.00110167 -0.00286752 -4.46692e-20)
(0.00445188 -0.00608936 2.3161e-20)
(0.00917359 -0.00958754 -2.76455e-20)
(0.0152541 -0.0132228 -1.85965e-20)
(0.0226493 -0.0168944 -3.87478e-20)
(0.0312981 -0.0205281 3.59141e-21)
(0.0411277 -0.0240646 -1.75675e-20)
(0.0520564 -0.0274515 9.67281e-21)
(0.0639936 -0.0306354 -2.4041e-20)
(0.0768379 -0.0335554 2.87855e-20)
(0.0904726 -0.036137 1.80528e-21)
(0.104761 -0.0382871 -3.99267e-20)
(0.119526 -0.039893 -2.21655e-20)
(0.134631 -0.0408193 2.65714e-21)
(0.149471 -0.0409228 -2.25659e-20)
(0.165287 -0.040138 -6.20582e-21)
(-0.000609722 0.00196708 -2.63075e-21)
(-0.00131989 0.00285288 1.11422e-20)
(-0.00136698 0.00188706 -1.04007e-20)
(-0.000220759 -0.000362318 -2.71409e-20)
(0.00223319 -0.00343107 3.77392e-20)
(0.00609711 -0.00701806 -2.36238e-20)
(0.0113787 -0.0109028 1.21243e-20)
(0.0180538 -0.0149325 4.85057e-20)
(0.0260705 -0.0189968 1.71e-20)
(0.0353621 -0.0230141 1.7748e-20)
(0.0458515 -0.0269198 4.08466e-20)
(0.057454 -0.0306568 -1.69273e-20)
(0.0700769 -0.0341665 1.39177e-20)
(0.0836171 -0.037382 -5.36553e-20)
(0.0979563 -0.0402212 1.50591e-20)
(0.112957 -0.0425803 5.9835e-21)
(0.128436 -0.0443332 5.55365e-20)
(0.144263 -0.0453244 3.26559e-20)
(0.159758 -0.045402 3.04613e-21)
(0.176466 -0.0444268 1.08347e-20)
(-0.000657623 0.00208942 1.60736e-20)
(-0.00125838 0.00296207 -7.48643e-20)
(-0.00100699 0.00183771 4.76978e-20)
(0.000551187 -0.000673886 -1.40612e-20)
(0.0035101 -0.00406619 -2.5958e-20)
(0.00794421 -0.00801355 4.27074e-20)
(0.0138463 -0.0122765 2.07362e-21)
(0.0211796 -0.0166896 -1.86507e-20)
(0.0298838 -0.0211333 1.26109e-20)
(0.0398858 -0.0255198 -2.59833e-20)
(0.0511039 -0.0297792 -7.75242e-20)
(0.0634499 -0.03385 -2.00619e-20)
(0.0768286 -0.0376693 -9.51878e-21)
(0.0911351 -0.0411645 2.94978e-20)
(0.106249 -0.0442459 -4.55584e-20)
(0.122032 -0.0467997 1.10509e-20)
(0.138294 -0.048686 -1.62938e-21)
(0.154915 -0.049728 -1.8809e-20)
(0.171124 -0.0497681 1.26381e-20)
(0.188808 -0.0485715 -3.00696e-20)
(-0.000703618 0.00218766 -6.05141e-22)
(-0.00117529 0.0030169 5.44306e-20)
(-0.000590637 0.00171801 -2.60238e-20)
(0.0014233 -0.00106279 -9.43565e-23)
(0.00493835 -0.00477841 1.39979e-20)
(0.00999894 -0.00908076 -7.4298e-20)
(0.0165816 -0.0137126 2.53459e-20)
(0.0246362 -0.0184969 -1.09075e-20)
(0.034093 -0.0233057 -1.92139e-20)
(0.0448718 -0.0280452 6.22656e-20)
(0.0568859 -0.0326412 2.83955e-20)
(0.0700434 -0.0370281 6.27382e-20)
(0.0842463 -0.0411389 1.59379e-20)
(0.0993872 -0.0448961 -2.23002e-20)
(0.115344 -0.0482029 2.7889e-20)
(0.131976 -0.0509355 2.52254e-20)
(0.149088 -0.0529405 -1.08286e-21)
(0.166568 -0.0540184 -1.66195e-20)
(0.183551 -0.0540085 4.32153e-20)
(0.202286 -0.0525571 1.28545e-20)
(-0.000745898 0.00226009 2.20521e-20)
(-0.00106641 0.00301356 -4.33376e-20)
(-0.000112388 0.00152313 -2.51549e-20)
(0.00240181 -0.00153419 6.9855e-20)
(0.00652438 -0.00557269 -2.78631e-21)
(0.0122675 -0.0102241 6.21004e-20)
(0.0195905 -0.0152146 -3.20417e-20)
(0.0284284 -0.0203566 9.72754e-21)
(0.0387017 -0.0255147 7.65399e-20)
(0.0503225 -0.0305897 -6.33257e-20)
(0.0631986 -0.0355035 2.03296e-20)
(0.0772339 -0.040187 -5.08181e-20)
(0.0923269 -0.0445697 3.28903e-20)
(0.108368 -0.0485696 -2.736e-20)
(0.125234 -0.0520834 -3.54278e-20)
(0.142779 -0.0549776 -1.15632e-20)
(0.160804 -0.0570855 -3.34737e-20)
(0.179206 -0.058183 3.43196e-20)
(0.197015 -0.0581106 -8.95982e-20)
(0.216873 -0.0563686 3.53188e-20)
(-0.000782542 0.00230517 -2.77293e-20)
(-0.000927285 0.00294864 6.66583e-20)
(0.00043369 0.00124873 2.85168e-20)
(0.0034934 -0.00209269 -5.65104e-20)
(0.00827504 -0.00645337 1.40429e-21)
(0.0147566 -0.0114471 8.54174e-21)
(0.0228789 -0.0167851 -1.57389e-21)
(0.0325615 -0.0222705 -5.73151e-20)
(0.0437141 -0.0277607 -9.09404e-20)
(0.0562407 -0.0331522 2.76504e-20)
(0.070043 -0.0383634 3.82151e-20)
(0.0850202 -0.0433224 1.70895e-20)
(0.101068 -0.0479557 -5.24555e-20)
(0.118073 -0.0521773 1.83639e-20)
(0.135908 -0.0558782 2.69773e-20)
(0.154429 -0.0589153 -2.7455e-20)
(0.173427 -0.061109 -6.96047e-21)
(0.192808 -0.0622093 2.65186e-20)
(0.211493 -0.0620613 6.22546e-20)
(0.23254 -0.0599914 -2.72397e-20)
(-0.0008115 0.0023215 -1.7678e-20)
(-0.000753196 0.00281911 -1.1822e-21)
(0.00105386 0.000890925 -4.56669e-20)
(0.00470514 -0.00274229 6.57952e-20)
(0.0101976 -0.00742411 1.24734e-20)
(0.0174732 -0.012753 -3.49248e-20)
(0.0264532 -0.0184264 4.12512e-20)
(0.0370408 -0.0242393 2.68612e-20)
(0.0491342 -0.0300433 5.58544e-21)
(0.0626289 -0.0357308 -9.60816e-21)
(0.0774198 -0.0412175 -3.94679e-21)
(0.0934012 -0.0464292 2.80005e-20)
(0.110464 -0.0512901 7.19388e-20)
(0.128494 -0.0557108 5.76741e-20)
(0.147359 -0.0595771 -5.38719e-20)
(0.166913 -0.0627372 -3.79106e-20)
(0.186938 -0.0649988 3.56109e-20)
(0.207354 -0.0660842 -5.6696e-20)
(0.22696 -0.0658474 1.10883e-21)
(0.249255 -0.0634108 -2.4347e-20)
(-0.000830614 0.00230784 4.56804e-20)
(-0.00053917 0.00262229 -3.76636e-20)
(0.00175468 0.000446477 2.36637e-20)
(0.00604445 -0.00348634 -3.71851e-20)
(0.0122997 -0.00848789 -2.81198e-20)
(0.0204245 -0.0141438 2.40729e-20)
(0.0303201 -0.0201396 -7.00591e-20)
(0.0418719 -0.0262632 5.16457e-20)
(0.0549665 -0.0323612 -2.95951e-20)
(0.0694898 -0.0383229 -1.03376e-21)
(0.0853299 -0.0440616 -2.9662e-20)
(0.102376 -0.0495017 -3.17283e-20)
(0.120514 -0.0545655 -7.2131e-20)
(0.139625 -0.059161 -4.84474e-20)
(0.159576 -0.0631696 6.85111e-20)
(0.180216 -0.0664313 1.63309e-20)
(0.201321 -0.0687419 1.53223e-20)
(0.222821 -0.0697942 4.16569e-20)
(0.24339 -0.0694555 1.34123e-20)
(0.266985 -0.0666125 -1.41946e-20)
(-0.000837647 0.00226315 -2.69246e-20)
(-0.000280014 0.0023559 2.3114e-20)
(0.00254302 -8.73327e-05 2.08714e-20)
(0.00751906 -0.00432751 3.45167e-22)
(0.0145892 -0.00964696 7.13417e-20)
(0.0236184 -0.0156213 -1.1565e-20)
(0.0344864 -0.0219254 1.85043e-20)
(0.0470607 -0.0283417 2.57015e-20)
(0.0612152 -0.0347126 -3.6609e-21)
(0.0768261 -0.0409251 4.06285e-20)
(0.093774 -0.0468909 1.31173e-22)
(0.111941 -0.0525334 -4.96595e-20)
(0.13121 -0.0577737 -1.78312e-20)
(0.151458 -0.0625182 4.40655e-20)
(0.172547 -0.0666444 -2.53812e-20)
(0.194324 -0.0699852 2.05242e-20)
(0.216556 -0.0723247 1.88406e-20)
(0.239185 -0.0733251 -5.2073e-20)
(0.260751 -0.0728719 1.58033e-20)
(0.285692 -0.0695821 9.3821e-20)
(-0.000830301 0.00218658 2.0763e-20)
(2.96417e-05 0.00201809 -1.47717e-22)
(0.00342597 -0.000712631 -7.77841e-21)
(0.00913697 -0.00526778 1.40347e-21)
(0.0170744 -0.0109028 6.57859e-21)
(0.0270625 -0.0171859 -3.18333e-20)
(0.0389592 -0.0237834 -9.74937e-21)
(0.0526131 -0.0304732 -7.11552e-20)
(0.0678849 -0.0370948 7.23371e-20)
(0.0846404 -0.0435333 -1.11077e-20)
(0.102752 -0.0496999 1.11259e-20)
(0.122097 -0.0555172 1.14658e-20)
(0.14255 -0.0609062 6.8212e-21)
(0.163985 -0.065772 -6.93864e-20)
(0.186262 -0.0699896 -4.00043e-20)
(0.209221 -0.0733855 5.40303e-20)
(0.232621 -0.0757333 -7.43704e-20)
(0.25642 -0.0766626 1.28379e-20)
(0.279015 -0.0760827 -8.16993e-20)
(0.30534 -0.0723058 -6.29414e-20)
(-0.000806199 0.00207745 3.0986e-20)
(0.000395318 0.00160748 -1.82344e-20)
(0.00441086 -0.00143093 -3.6294e-20)
(0.0109064 -0.0063084 1.36074e-20)
(0.0197636 -0.012256 -1.34897e-19)
(0.030765 -0.0188377 7.47656e-20)
(0.0437457 -0.0257125 9.47934e-20)
(0.058535 -0.0326556 5.73925e-20)
(0.0749797 -0.0395042 2.71717e-20)
(0.0929351 -0.0461428 1.66235e-20)
(0.112265 -0.0524822 -2.24142e-20)
(0.132839 -0.0584453 -1.21456e-20)
(0.154527 -0.0639534 -6.82123e-20)
(0.177198 -0.0689115 9.21543e-20)
(0.200705 -0.0731928 3.33634e-20)
(0.224889 -0.0766184 -7.2912e-20)
(0.249495 -0.0789529 1.65002e-20)
(0.274498 -0.0797918 2.58328e-20)
(0.298149 -0.0790738 7.05996e-20)
(0.325889 -0.0747698 1.06237e-20)
(-0.000762909 0.00193525 -7.09359e-20)
(0.000822666 0.00112313 -5.63967e-20)
(0.00550517 -0.00224312 -6.82711e-20)
(0.0128358 -0.00744987 2.19106e-20)
(0.0226654 -0.0137065 4.76631e-20)
(0.034734 -0.0205755 4.45004e-21)
(0.0488532 -0.0277107 -9.63338e-20)
(0.0648323 -0.0348856 -6.04533e-20)
(0.0825041 -0.0419366 -9.40659e-20)
(0.101712 -0.0487479 -4.81345e-20)
(0.122312 -0.0552308 2.63826e-20)
(0.144165 -0.0613092 5.56385e-20)
(0.167135 -0.0669054 1.00837e-19)
(0.191086 -0.071925 -3.97625e-20)
(0.215865 -0.0762407 4.60037e-20)
(0.241309 -0.0796694 -3.75759e-20)
(0.267154 -0.0819682 -2.16373e-21)
(0.29339 -0.082697 -2.05475e-20)
(0.318117 -0.0818307 6.6191e-21)
(0.347296 -0.0769606 2.47605e-20)
(-0.000697954 0.00175967 3.97549e-20)
(0.00131744 0.000564579 6.4109e-20)
(0.00671651 -0.00314945 3.0679e-20)
(0.0149337 -0.00869194 -2.04092e-20)
(0.0257886 -0.0152532 5.00681e-20)
(0.0389778 -0.0223976 1.87845e-20)
(0.054289 -0.0297751 -6.00486e-21)
(0.0715109 -0.0371594 1.89193e-20)
(0.0904619 -0.0443867 6.19142e-20)
(0.110974 -0.0513421 -2.55537e-20)
(0.132892 -0.0579379 -4.81952e-20)
(0.156071 -0.0640997 -6.396e-20)
(0.180368 -0.0697514 -8.23744e-20)
(0.205638 -0.0748002 4.06813e-20)
(0.231726 -0.0791195 9.61348e-21)
(0.258463 -0.0825235 4.79361e-20)
(0.285574 -0.0847633 4.55872e-20)
(0.313065 -0.0853625 -6.25049e-20)
(0.338885 -0.0843389 -1.19711e-20)
(0.369518 -0.0788651 7.78452e-20)
(-0.000608827 0.0015506 1.58259e-20)
(0.00188548 -6.81955e-05 -9.87225e-21)
(0.00805258 -0.0041495 8.23066e-20)
(0.0172087 -0.0100336 -1.1682e-19)
(0.0291419 -0.0168944 -8.00661e-20)
(0.0435045 -0.024301 -6.47015e-20)
(0.0600602 -0.0319018 3.37096e-20)
(0.0785766 -0.0394719 3.00165e-20)
(0.0988572 -0.0468484 -4.52498e-21)
(0.120721 -0.0539181 1.81508e-20)
(0.144005 -0.060595 4.94898e-20)
(0.168554 -0.066807 1.2181e-19)
(0.194217 -0.0724802 2.35678e-20)
(0.220844 -0.0775246 -2.73591e-20)
(0.248272 -0.0818152 7.14532e-21)
(0.276328 -0.0851651 3.62235e-20)
(0.304727 -0.0873217 5.42885e-20)
(0.333492 -0.0877717 5.27527e-20)
(0.360414 -0.0865834 3.22987e-20)
(0.39251 -0.0804707 -1.38651e-20)
(-0.000493002 0.00130811 -1.43262e-20)
(0.00253265 -0.000774725 -1.02161e-19)
(0.00952114 -0.00524221 -1.31995e-19)
(0.0196695 -0.0114729 1.0712e-19)
(0.032734 -0.0186273 2.68679e-20)
(0.0483224 -0.0262822 1.15259e-19)
(0.0661739 -0.0340862 -6.97615e-20)
(0.0860349 -0.0418173 -3.72048e-20)
(0.107693 -0.0493148 -1.6868e-20)
(0.130956 -0.0564678 -7.18087e-21)
(0.155649 -0.0631929 -1.06437e-20)
(0.181607 -0.0694205 -1.23354e-19)
(0.208674 -0.0750801 9.89216e-21)
(0.23669 -0.0800847 -1.6138e-20)
(0.265486 -0.0843128 -6.31039e-21)
(0.294883 -0.087578 -2.46428e-20)
(0.324586 -0.0896265 -8.97692e-20)
(0.354636 -0.0899078 2.28962e-20)
(0.382665 -0.0885492 -6.4334e-20)
(0.416225 -0.0817648 -2.68559e-21)
(-0.000347943 0.0010325 5.73494e-20)
(0.00326484 -0.00155407 1.05735e-19)
(0.01113 -0.00642583 1.42538e-19)
(0.0223247 -0.0130073 -9.56658e-20)
(0.0365736 -0.0204482 -2.73302e-20)
(0.0534395 -0.0283365 -1.3124e-19)
(0.0726371 -0.0363225 1.39985e-19)
(0.0938909 -0.044189 1.10257e-20)
(0.116973 -0.0517782 1.54835e-20)
(0.141678 -0.0589825 -1.61087e-20)
(0.167821 -0.0657216 -4.73266e-20)
(0.195227 -0.0719292 1.37009e-19)
(0.22373 -0.0775386 -8.74976e-20)
(0.253163 -0.0824671 4.83435e-20)
(0.28335 -0.0865975 3.2652e-20)
(0.314105 -0.0897459 -2.4189e-20)
(0.345122 -0.0916603 1.23933e-20)
(0.376462 -0.0917535 -2.34457e-20)
(0.405597 -0.090221 6.16534e-20)
(0.440615 -0.0827355 -1.39171e-20)
(-0.000171117 0.000724217 8.88809e-21)
(0.00408793 -0.00240482 -7.22963e-20)
(0.0128867 -0.00769797 -1.6617e-20)
(0.0251829 -0.0146333 1.87021e-19)
(0.0406692 -0.0223528 -3.1712e-20)
(0.0588638 -0.0304583 6.18066e-20)
(0.0794562 -0.0386043 -1.33692e-19)
(0.102149 -0.0465792 1.78776e-20)
(0.1267 -0.0542298 -2.41491e-20)
(0.152888 -0.0614524 4.4396e-20)
(0.180518 -0.0681704 5.4493e-20)
(0.209405 -0.0743215 -1.59873e-19)
(0.239374 -0.0798432 2.22334e-20)
(0.270248 -0.0846578 9.25053e-20)
(0.301844 -0.088654 -4.36325e-20)
(0.333969 -0.0916521 1.47738e-20)
(0.366305 -0.0934053 8.74064e-20)
(0.398932 -0.093291 -3.05217e-20)
(0.429168 -0.091583 -6.12198e-20)
(0.465631 -0.0833711 -5.47681e-20)
(3.9994e-05 0.000383932 3.39042e-20)
(0.00500776 -0.00332508 3.23534e-20)
(0.0147991 -0.00905553 -6.85735e-20)
(0.0282525 -0.0163468 -1.05251e-19)
(0.0450294 -0.0243356 1.24156e-19)
(0.0646028 -0.0326412 2.35256e-20)
(0.0866377 -0.0409238 -4.65551e-20)
(0.110815 -0.0489795 3.84837e-22)
(0.136875 -0.0566602 8.8849e-20)
(0.164585 -0.0638672 1.08879e-19)
(0.193736 -0.0705282 -8.48424e-20)
(0.224135 -0.0765853 4.588e-20)
(0.255595 -0.0819808 1.97627e-20)
(0.287931 -0.0866428 8.63257e-21)
(0.320948 -0.0904669 -6.67988e-20)
(0.354449 -0.0932798 -8.66322e-20)
(0.388102 -0.0948436 1.83031e-20)
(0.422009 -0.0945021 -1.90552e-20)
(0.453335 -0.0926195 2.26963e-20)
(0.491221 -0.0836602 5.49483e-20)
(0.000287886 1.24931e-05 -3.38159e-20)
(0.00603008 -0.00431249 2.88452e-20)
(0.0168747 -0.0104948 1.36372e-20)
(0.0315419 -0.0181426 1.10576e-19)
(0.0496621 -0.0263903 -1.17503e-19)
(0.0706638 -0.0348778 -9.7358e-20)
(0.0941873 -0.0432727 1.88074e-20)
(0.119891 -0.0513804 -4.19617e-20)
(0.1475 -0.0590591 1.30981e-20)
(0.176767 -0.0662157 -1.72967e-19)
(0.207471 -0.0727831 5.76217e-20)
(0.239408 -0.0787081 2.05982e-20)
(0.27238 -0.0839382 1.01701e-19)
(0.306192 -0.088408 -3.95439e-20)
(0.34064 -0.092021 -1.71879e-20)
(0.375517 -0.0946124 1.13506e-19)
(0.41048 -0.095957 -1.2507e-19)
(0.445652 -0.0953684 1.00641e-20)
(0.478052 -0.0933141 2.70194e-20)
(0.517334 -0.0835918 5.97586e-20)
(0.000575019 -0.000389061 -6.17074e-20)
(0.00716056 -0.00536423 2.26491e-20)
(0.0191207 -0.0120113 -1.35002e-20)
(0.035059 -0.0200149 -1.89149e-19)
(0.0545752 -0.0285099 7.09856e-20)
(0.0770538 -0.0371597 3.70541e-20)
(0.10211 -0.0456415 -2.40763e-20)
(0.129382 -0.0537715 8.40843e-20)
(0.158576 -0.0614152 -8.48651e-20)
(0.189432 -0.0684862 1.77467e-19)
(0.221716 -0.0749227 -1.14632e-19)
(0.255213 -0.0806769 -1.49441e-19)
(0.289715 -0.0857021 -4.07169e-20)
(0.325014 -0.0899394 6.61987e-21)
(0.360897 -0.0933013 1.00402e-19)
(0.397145 -0.0956335 -1.06307e-19)
(0.433406 -0.0967276 6.45289e-20)
(0.46982 -0.095871 2.17809e-21)
(0.503274 -0.0936501 2.34051e-20)
(0.543915 -0.0831547 -1.75398e-19)
(0.000903807 -0.000819509 1.0331e-19)
(0.00840473 -0.006477 -7.91987e-20)
(0.0215444 -0.0136001 6.98062e-20)
(0.0388117 -0.0219572 1.16249e-19)
(0.0597761 -0.0306863 -7.0348e-20)
(0.0837791 -0.0394778 6.76032e-20)
(0.110412 -0.0480201 5.14591e-20)
(0.139289 -0.0561417 -6.57176e-20)
(0.170102 -0.0637168 -5.15918e-20)
(0.202576 -0.0706661 -9.86222e-20)
(0.236465 -0.0769342 1.75988e-19)
(0.271541 -0.0824788 1.72642e-19)
(0.307585 -0.0872591 -6.66842e-20)
(0.344377 -0.0912233 5.77813e-20)
(0.381693 -0.0942935 3.8653e-20)
(0.419303 -0.0963275 5.44353e-20)
(0.456843 -0.0971376 -3.37752e-20)
(0.494471 -0.0959912 2.28963e-20)
(0.528955 -0.0936102 8.01689e-20)
(0.570912 -0.082338 -5.1765e-21)
(0.00127661 -0.00127745 -1.16409e-19)
(0.00976797 -0.00764707 2.49877e-20)
(0.0241527 -0.0152554 -3.30592e-20)
(0.0428072 -0.0239619 -1.73307e-20)
(0.065272 -0.0329108 1.13672e-20)
(0.0908457 -0.0418219 -2.73414e-20)
(0.119095 -0.0503973 -6.97657e-20)
(0.149615 -0.058479 1.04152e-19)
(0.182077 -0.065951 1.26478e-19)
(0.216195 -0.0727423 9.38498e-20)
(0.251709 -0.0788041 -1.49098e-19)
(0.288378 -0.0841002 -1.27461e-19)
(0.325972 -0.0885959 -2.27054e-20)
(0.364259 -0.0922465 -4.45049e-20)
(0.403002 -0.094984 5.77944e-20)
(0.441959 -0.0966796 -3.87489e-20)
(0.480756 -0.0971701 2.53887e-20)
(0.519562 -0.0957101 2.19087e-20)
(0.555048 -0.0931761 -1.43727e-19)
(0.598269 -0.0811301 1.20021e-20)
(0.00169574 -0.00176132 -2.20197e-20)
(0.0112555 -0.00887025 1.53844e-19)
(0.0269522 -0.0169709 1.9792e-20)
(0.0470527 -0.0260211 -5.42247e-20)
(0.0710692 -0.0351735 -8.43032e-20)
(0.0982588 -0.0441811 2.02005e-20)
(0.128165 -0.052761 9.3994e-20)
(0.160359 -0.0607706 -3.41953e-20)
(0.1945 -0.0681047 -9.15916e-20)
(0.230283 -0.0747013 -3.64074e-20)
(0.267437 -0.0805189 1.05129e-19)
(0.30571 -0.0855279 -3.77893e-20)
(0.344858 -0.0896995 4.96992e-21)
(0.384637 -0.0929964 -8.27429e-20)
(0.424796 -0.0953603 2.65941e-20)
(0.465082 -0.0966765 8.83271e-20)
(0.505108 -0.0968093 4.88118e-20)
(0.54505 -0.0950092 -8.56782e-20)
(0.581509 -0.0923281 -4.88148e-20)
(0.625929 -0.0795188 2.14858e-20)
(0.00216341 -0.00226936 -1.18166e-20)
(0.0128722 -0.0101419 -1.90763e-19)
(0.0299491 -0.0187398 1.2837e-20)
(0.0515546 -0.0281258 -5.27654e-20)
(0.0771737 -0.0374642 -3.50724e-20)
(0.106023 -0.0465437 -5.33778e-20)
(0.137622 -0.0550985 5.81432e-20)
(0.171523 -0.063003 -5.20598e-21)
(0.207366 -0.0701637 -5.14425e-20)
(0.244833 -0.0765288 -3.77377e-21)
(0.28364 -0.0820646 1.10358e-19)
(0.323522 -0.0867482 1.83143e-20)
(0.364222 -0.0905573 7.51597e-20)
(0.405485 -0.0934614 9.9814e-20)
(0.447045 -0.0954113 -3.70494e-20)
(0.488636 -0.0963068 -6.39959e-20)
(0.529861 -0.0960409 -2.10935e-20)
(0.570891 -0.0938706 -7.68041e-20)
(0.608294 -0.0910447 5.69435e-21)
(0.653835 -0.0774903 3.37045e-20)
(0.00268178 -0.00279967 -2.00931e-20)
(0.014623 -0.0114571 5.74442e-20)
(0.0331494 -0.0205544 -7.42371e-20)
(0.0563191 -0.0302664 7.1314e-20)
(0.0835909 -0.0397715 1.26977e-19)
(0.114142 -0.0488971 1.40865e-19)
(0.14747 -0.0573962 -3.0358e-20)
(0.183105 -0.0651618 6.0916e-20)
(0.220672 -0.0721134 -7.17702e-20)
(0.259837 -0.07821 -5.0583e-20)
(0.300304 -0.0834267 -5.51309e-20)
(0.341795 -0.0877477 1.1106e-19)
(0.384042 -0.0911571 -3.13668e-20)
(0.426775 -0.0936307 -7.62554e-20)
(0.469718 -0.0951278 7.22036e-20)
(0.512587 -0.0955615 -8.95339e-20)
(0.554976 -0.0948535 -4.83851e-20)
(0.597043 -0.0922782 1.38889e-19)
(0.635363 -0.0893012 3.3612e-20)
(0.681926 -0.0750283 -4.97488e-20)
(0.00325292 -0.0033502 1.18664e-19)
(0.0165122 -0.0128103 5.91869e-20)
(0.0365584 -0.0224067 9.57119e-20)
(0.0613516 -0.0324328 1.35295e-20)
(0.0903253 -0.0420836 3.30017e-20)
(0.122619 -0.0512281 -3.36251e-20)
(0.157708 -0.0596399 -3.71409e-20)
(0.195103 -0.0672321 -8.72285e-20)
(0.234411 -0.0739386 -2.01599e-20)
(0.275285 -0.0797301 -2.34775e-20)
(0.317415 -0.0845908 7.04127e-21)
(0.360511 -0.0885129 -4.49031e-20)
(0.404293 -0.091487 -1.09274e-19)
(0.448479 -0.0934948 2.8789e-20)
(0.49278 -0.0945024 -7.66168e-20)
(0.536898 -0.0944349 -8.6982e-21)
(0.580416 -0.0932389 9.63149e-20)
(0.623465 -0.0902182 -1.8821e-20)
(0.662682 -0.087069 6.96422e-21)
(0.710138 -0.0721125 -3.29893e-20)
(0.00387878 -0.00391874 -3.96645e-20)
(0.0185442 -0.0141957 -2.07591e-20)
(0.0401814 -0.0242881 -4.89738e-20)
(0.066657 -0.0346141 8.02576e-20)
(0.0973809 -0.0443878 -6.6834e-20)
(0.131456 -0.0535225 4.30414e-20)
(0.168337 -0.0618146 -1.79442e-21)
(0.207513 -0.0691985 -1.39891e-19)
(0.248576 -0.0756236 5.72206e-20)
(0.291166 -0.0810734 3.13548e-20)
(0.334957 -0.0855423 -5.15114e-20)
(0.379649 -0.0890307 -3.69721e-20)
(0.424948 -0.0915358 1.8273e-19)
(0.470565 -0.0930452 -4.58227e-21)
(0.516195 -0.0935303 3.75547e-20)
(0.561528 -0.0929249 5.7084e-20)
(0.606142 -0.0911943 -2.59295e-20)
(0.650118 -0.0876819 -9.68235e-20)
(0.690227 -0.0843143 1.30941e-19)
(0.738406 -0.0687196 1.14977e-20)
(0.00456122 -0.0045029 1.10174e-19)
(0.0207226 -0.0156071 1.02316e-20)
(0.0440227 -0.0261894 5.40106e-20)
(0.0722396 -0.0367987 -5.989e-20)
(0.104761 -0.0466708 -4.61527e-20)
(0.140655 -0.0557659 -4.3956e-20)
(0.179355 -0.0639047 -5.78207e-20)
(0.220331 -0.0710447 5.07736e-20)
(0.26316 -0.0771521 7.86184e-20)
(0.307466 -0.0822241 -2.09099e-20)
(0.352912 -0.0862663 4.60984e-21)
(0.399184 -0.0892878 9.59662e-20)
(0.44598 -0.0912931 -1.76679e-19)
(0.492996 -0.092275 3.83156e-20)
(0.539923 -0.0922089 6.72007e-20)
(0.586436 -0.091034 -5.44133e-20)
(0.632113 -0.0887235 2.21233e-20)
(0.676968 -0.0846684 6.44738e-20)
(0.717986 -0.0809998 -1.21527e-19)
(0.766666 -0.0648255 8.56966e-20)
(0.00530197 -0.00510021 -1.70797e-19)
(0.023051 -0.017038 -4.20249e-20)
(0.0480862 -0.0281011 3.11333e-20)
(0.0781028 -0.0389747 -5.14098e-20)
(0.112467 -0.0489187 5.85638e-20)
(0.150214 -0.0579429 -1.5222e-20)
(0.190758 -0.065894 3.88883e-20)
(0.23355 -0.0727543 7.15522e-20)
(0.278152 -0.0785077 -1.50309e-19)
(0.324171 -0.0831664 1.10297e-19)
(0.37126 -0.086748 -3.91611e-21)
(0.419093 -0.0892713 -7.12273e-20)
(0.467355 -0.0907486 1.8115e-19)
(0.515738 -0.0911783 -3.58688e-20)
(0.563922 -0.0905384 -7.35079e-21)
(0.611577 -0.0887696 4.71013e-20)
(0.658286 -0.085839 4.50646e-20)
(0.703981 -0.0811897 -2.60078e-21)
(0.745963 -0.0770814 7.27807e-20)
(0.794846 -0.0603792 4.24477e-20)
(0.00610279 -0.00570819 -2.67335e-20)
(0.0255326 -0.0184816 -4.52416e-20)
(0.0523756 -0.0300132 -5.06478e-20)
(0.0842495 -0.0411297 1.12641e-19)
(0.120501 -0.0511172 1.56306e-20)
(0.160135 -0.0600379 4.00903e-20)
(0.202545 -0.0677661 6.6798e-20)
(0.247165 -0.0743103 -3.48864e-20)
(0.29354 -0.0796735 5.19239e-21)
(0.341266 -0.0838841 -9.88012e-20)
(0.38998 -0.0869725 -1.66818e-20)
(0.439346 -0.0889685 3.60222e-20)
(0.489041 -0.089893 -7.08627e-20)
(0.538748 -0.0897504 4.54851e-20)
(0.588145 -0.0885212 4.08374e-20)
(0.636901 -0.0861443 2.40859e-20)
(0.684615 -0.0825657 -1.28449e-20)
(0.73113 -0.0772768 -1.08427e-19)
(0.77417 -0.072488 -7.52951e-20)
(0.822809 -0.0552237 -4.41592e-20)
(0.00696544 -0.00632449 1.12071e-19)
(0.0281706 -0.0199313 5.10668e-20)
(0.056894 -0.0319159 8.89179e-20)
(0.0906822 -0.0432512 -1.02696e-19)
(0.128864 -0.053252 -4.80819e-21)
(0.170414 -0.0620352 -5.22526e-20)
(0.21471 -0.0695045 -3.87333e-20)
(0.261166 -0.0756958 1.03574e-19)
(0.309313 -0.0806329 2.39189e-19)
(0.358732 -0.0843612 -2.49977e-20)
(0.409049 -0.0869254 2.18575e-20)
(0.459916 -0.0883671 -7.13968e-20)
(0.511002 -0.0887171 -3.29672e-20)
(0.561983 -0.0879875 -8.857e-20)
(0.612541 -0.0861619 -5.31558e-20)
(0.662351 -0.0831763 -2.63565e-20)
(0.711047 -0.0789444 9.32916e-22)
(0.758402 -0.0729902 -1.85488e-19)
(0.802674 -0.0671311 1.17359e-19)
(0.850361 -0.0491872 -9.64882e-21)
(0.0078905 -0.00694557 -1.49461e-20)
(0.0309664 -0.0213789 -9.38877e-20)
(0.0616426 -0.0337973 -1.4186e-19)
(0.0974012 -0.0453248 -3.76058e-20)
(0.137554 -0.0553068 -5.38692e-20)
(0.181049 -0.0639172 3.31878e-20)
(0.227246 -0.0710907 2.16764e-20)
(0.275542 -0.0768925 -3.35502e-20)
(0.325454 -0.0813679 -1.97656e-19)
(0.37655 -0.0845807 2.06685e-19)
(0.428442 -0.086591 6.15706e-20)
(0.480771 -0.0874539 -9.71077e-20)
(0.533198 -0.0872113 1.0983e-19)
(0.585398 -0.0858851 8.83564e-20)
(0.637055 -0.0834648 -2.77333e-21)
(0.687863 -0.0798868 -2.42212e-21)
(0.737514 -0.0750327 1.11457e-20)
(0.785791 -0.0684393 8.71687e-20)
(0.831738 -0.0611098 -8.20257e-20)
(0.878059 -0.0429482 -1.14682e-19)
(0.0088741 -0.0075637 -1.09485e-19)
(0.0339162 -0.0228113 7.09124e-20)
(0.0666171 -0.0356407 2.09128e-20)
(0.104401 -0.0473308 5.43149e-20)
(0.146563 -0.0572601 3.28136e-20)
(0.192029 -0.0656612 -1.95181e-20)
(0.24014 -0.0725017 -4.73512e-20)
(0.290278 -0.0778772 -1.14431e-19)
(0.341944 -0.081856 5.05668e-20)
(0.394694 -0.0845215 -2.25373e-19)
(0.448126 -0.0859505 -8.49357e-20)
(0.501873 -0.0862125 2.21992e-19)
(0.555586 -0.0853629 -1.06353e-19)
(0.608939 -0.0834357 -8.14143e-20)
(0.661623 -0.080431 1.16563e-20)
(0.713355 -0.0762942 -4.98895e-21)
(0.763908 -0.0708935 5.7986e-21)
(0.813175 -0.0637993 4.98713e-20)
(0.861509 -0.0550906 -1.75408e-20)
(0.90934 -0.0387873 -2.85139e-20)
(0.00991612 -0.00817511 2.50085e-20)
(0.03702 -0.0242198 8.99777e-20)
(0.0718171 -0.0374338 4.10635e-20)
(0.111679 -0.0492545 -1.892e-20)
(0.155888 -0.0590952 -8.84724e-21)
(0.203347 -0.0672496 -5.90944e-20)
(0.253381 -0.0737195 4.16404e-20)
(0.305357 -0.0786321 7.8945e-20)
(0.358763 -0.0820801 -6.56864e-20)
(0.413138 -0.0841676 1.94864e-19)
(0.468073 -0.0849893 1.05712e-19)
(0.523185 -0.0846309 -4.11488e-20)