/*--------------------------------*- C++ -*----------------------------------*\
  =========                 |
  \\      /  F ield         | OpenFOAM: The Open Source CFD Toolbox
   \\    /   O peration     | Website:  https://openfoam.org
    \\  /    A nd           | Version:  7
     \\/     M anipulation  |
\*---------------------------------------------------------------------------*/
FoamFile
{
    version     2.0;
    format      ascii;
    class       volScalarField;
    location    "5";
    object      p;
}
// * * * * * * * * * * * * * * * * * * * * * * * * * * * * * * * * * * * * * //

dimensions      [0 2 -2 0 0 0 0];

internalField   nonuniform List<scalar> 
2625
(
0.0888533
0.0939732
0.0906969
0.0990457
0.104065
0.109025
0.113921
0.118748
0.123503
0.128181
0.132779
0.137294
0.141724
0.154059
0.150132
0.146137
0.142073
0.137941
0.13374
0.129472
0.125137
0.120735
0.116267
0.111734
0.107137
0.102479
0.0977619
0.0929876
0.0881598
0.154035
0.150124
0.146144
0.142094
0.137974
0.133786
0.129528
0.125201
0.120805
0.116343
0.111814
0.10722
0.102563
0.0978452
0.0930695
0.0882393
0.157475
0.153661
0.149776
0.145821
0.141794
0.137697
0.133529
0.129291
0.124982
0.120604
0.116157
0.111644
0.107064
0.10242
0.0977149
0.0929512
0.0881325
0.157045
0.153258
0.149398
0.145467
0.141464
0.137389
0.133242
0.129024
0.124735
0.120376
0.115947
0.11145
0.106886
0.102258
0.0975677
0.0928186
0.088014
0.156657
0.152894
0.149059
0.14515
0.141169
0.137114
0.132987
0.128788
0.124517
0.120174
0.115762
0.11128
0.106732
0.102118
0.0974413
0.0927054
0.0879138
0.159946
0.15628
0.152542
0.148729
0.144843
0.140883
0.136849
0.132741
0.12856
0.124307
0.119981
0.115584
0.111117
0.106583
0.101983
0.0973198
0.0925967
0.0878174
0.159544
0.155903
0.152188
0.148399
0.144535
0.140596
0.136582
0.132493
0.128331
0.124095
0.119785
0.115404
0.110953
0.106433
0.101847
0.0971966
0.0924863
0.0877193
0.162685
0.159145
0.155528
0.151837
0.14807
0.144227
0.140309
0.136315
0.132246
0.128101
0.123882
0.11959
0.115224
0.110788
0.106282
0.101709
0.0970724
0.0923748
0.0876202
0.162265
0.158749
0.155156
0.151488
0.147743
0.143922
0.140024
0.13605
0.132
0.127873
0.123671
0.119394
0.115044
0.110623
0.106131
0.101572
0.096948
0.092263
0.0875207
0.165269
0.16185
0.158358
0.154789
0.151143
0.14742
0.14362
0.139742
0.135787
0.131755
0.127646
0.12346
0.1192
0.114865
0.110458
0.10598
0.101434
0.0968236
0.0921511
0.087421
0.164835
0.161439
0.157971
0.154424
0.150801
0.147099
0.14332
0.139462
0.135526
0.131512
0.12742
0.123251
0.119006
0.114686
0.110293
0.105829
0.101297
0.096699
0.092039
0.087321
0.167688
0.164406
0.161033
0.157588
0.154064
0.150462
0.146782
0.143022
0.139184
0.135266
0.13127
0.127195
0.123042
0.118813
0.114508
0.110129
0.105679
0.10116
0.0965743
0.0919266
0.0872206
0.167241
0.163981
0.160632
0.157209
0.153707
0.150127
0.146467
0.142727
0.138908
0.135009
0.13103
0.126971
0.122835
0.11862
0.11433
0.109965
0.105529
0.101022
0.0964494
0.0918139
0.0871199
0.169996
0.166799
0.163562
0.160235
0.156835
0.153354
0.149795
0.146155
0.142435
0.138634
0.134753
0.130791
0.126749
0.122628
0.118429
0.114153
0.109802
0.105378
0.100885
0.0963245
0.0917011
0.0870189
0.169537
0.166362
0.163149
0.159843
0.156465
0.153005
0.149466
0.145846
0.142145
0.138363
0.134499
0.130554
0.126528
0.122422
0.118238
0.113976
0.109639
0.105228
0.100747
0.0961994
0.0915881
0.0869176
0.172063
0.169083
0.165932
0.16274
0.159457
0.1561
0.152661
0.149142
0.145541
0.141859
0.138094
0.134247
0.130319
0.126308
0.122218
0.118048
0.1138
0.109476
0.105078
0.10061
0.0960743
0.0914748
0.086816
0.171596
0.168636
0.165507
0.162337
0.159075
0.155739
0.15232
0.148821
0.145239
0.141575
0.137827
0.133997
0.130085
0.12609
0.122015
0.117859
0.113624
0.109314
0.104929
0.100473
0.0959491
0.0913614
0.0867142
0.174252
0.171136
0.168194
0.165089
0.16194
0.158699
0.155383
0.151984
0.148504
0.14494
0.141294
0.137563
0.13375
0.129853
0.125874
0.121812
0.117671
0.11345
0.109152
0.10478
0.100336
0.0958238
0.0912478
0.086612
0.176127
0.173765
0.170684
0.167759
0.164677
0.161548
0.158328
0.155032
0.151652
0.14819
0.144645
0.141016
0.137302
0.133505
0.129623
0.125658
0.121611
0.117483
0.113276
0.108991
0.104631
0.100199
0.0956986
0.091134
0.0865095
0.175655
0.173285
0.170238
0.167331
0.164271
0.161162
0.157962
0.154685
0.151324
0.147881
0.144353
0.14074
0.137043
0.133261
0.129395
0.125445
0.121412
0.117297
0.113102
0.10883
0.104482
0.100062
0.0955732
0.0910201
0.0864068
0.179052
0.175191
0.172812
0.1698
0.166909
0.163871
0.160782
0.157601
0.154344
0.151001
0.147575
0.144064
0.140469
0.136787
0.133021
0.129169
0.125233
0.121213
0.117112
0.11293
0.108669
0.104333
0.0999252
0.0954479
0.090906
0.0863038
0.178505
0.174733
0.172347
0.169369
0.166493
0.163478
0.160407
0.157246
0.154007
0.150682
0.147274
0.14378
0.1402
0.136534
0.132782
0.128945
0.125022
0.121016
0.116927
0.112758
0.10851
0.104185
0.0997886
0.0953225
0.0907917
0.0862005
0.177967
0.174284
0.171889
0.168945
0.166085
0.163091
0.160039
0.156897
0.153675
0.150368
0.146976
0.143498
0.139934
0.136283
0.132546
0.128722
0.124813
0.12082
0.116744
0.112587
0.10835
0.104038
0.0996521
0.0951971
0.0906773
0.086097
0.17744
0.173841
0.17144
0.168528
0.165684
0.162711
0.159677
0.156553
0.153349
0.150059
0.146683
0.143221
0.139672
0.136035
0.132312
0.128502
0.124606
0.120626
0.116562
0.112416
0.108192
0.10389
0.0995158
0.0950718
0.0905628
0.0859932
0.176922
0.173407
0.171
0.168119
0.16529
0.162338
0.159321
0.156215
0.153028
0.149754
0.146394
0.142947
0.139412
0.13579
0.132081
0.128284
0.124401
0.120433
0.116381
0.112247
0.108033
0.103743
0.0993797
0.0949464
0.0904481
0.0858891
0.176416
0.17298
0.170568
0.167718
0.164904
0.161971
0.158972
0.155883
0.152712
0.149453
0.146109
0.142677
0.139156
0.135548
0.131852
0.128068
0.124197
0.120241
0.116201
0.112078
0.107876
0.103597
0.0992438
0.094821
0.0903333
0.0857847
0.17592
0.172562
0.170145
0.167325
0.164525
0.161611
0.158628
0.155556
0.152401
0.149158
0.145828
0.14241
0.138904
0.135309
0.131625
0.127854
0.123995
0.120051
0.116022
0.11191
0.107719
0.10345
0.099108
0.0946957
0.0902183
0.0856801
0.175436
0.172152
0.169732
0.166939
0.164153
0.161259
0.158292
0.155235
0.152096
0.148868
0.145552
0.142148
0.138655
0.135073
0.131402
0.127642
0.123795
0.119862
0.115844
0.111743
0.107563
0.103304
0.0989725
0.0945704
0.0901033
0.0855752
0.174963
0.17175
0.169328
0.166561
0.16379
0.160913
0.157961
0.154921
0.151796
0.148582
0.14528
0.141889
0.138409
0.134839
0.13118
0.127433
0.123597
0.119675
0.115668
0.111577
0.107407
0.103159
0.0988372
0.0944451
0.0899881
0.0854701
0.174503
0.171357
0.168933
0.166192
0.163434
0.160574
0.157638
0.154612
0.151501
0.148301
0.145013
0.141635
0.138167
0.134609
0.130962
0.127225
0.123401
0.119489
0.115492
0.111412
0.107252
0.103014
0.0987021
0.0943199
0.0898727
0.0853646
0.174054
0.170973
0.168548
0.16583
0.163086
0.160243
0.157321
0.15431
0.151212
0.148026
0.14475
0.141384
0.137928
0.134382
0.130746
0.12702
0.123206
0.119305
0.115318
0.111248
0.107098
0.102869
0.0985672
0.0941947
0.0897573
0.0852589
0.173617
0.170598
0.168173
0.165478
0.162747
0.159919
0.15701
0.154013
0.150929
0.147755
0.144491
0.141138
0.137693
0.134158
0.130532
0.126817
0.123013
0.119122
0.115145
0.111085
0.106944
0.102725
0.0984325
0.0940695
0.0896417
0.0851529
0.173193
0.170233
0.167808
0.165134
0.162415
0.159602
0.156707
0.153723
0.150651
0.147489
0.144238
0.140895
0.137461
0.133937
0.130322
0.126617
0.122823
0.118941
0.114974
0.110923
0.106791
0.102582
0.0982981
0.0939444
0.089526
0.0850466
0.172781
0.169877
0.167453
0.164798
0.162092
0.159293
0.156411
0.153439
0.150379
0.147229
0.143989
0.140657
0.137234
0.133719
0.130114
0.126418
0.122634
0.118761
0.114803
0.110761
0.106639
0.102438
0.0981639
0.0938193
0.0894101
0.172383
0.169531
0.167108
0.164471
0.161778
0.158992
0.156122
0.153162
0.150113
0.146974
0.143744
0.140422
0.137009
0.133505
0.129909
0.126222
0.122447
0.118584
0.114634
0.110601
0.106487
0.102296
0.0980299
0.0936943
0.089294
0.171997
0.169194
0.166774
0.164154
0.161471
0.158698
0.15584
0.152891
0.149853
0.146724
0.143504
0.140193
0.136789
0.133293
0.129706
0.126029
0.122262
0.118407
0.114466
0.110442
0.106336
0.102153
0.0978962
0.0935692
0.0891778
0.171624
0.168868
0.16645
0.163846
0.161174
0.158413
0.155565
0.152627
0.149599
0.14648
0.14327
0.139967
0.136572
0.133085
0.129507
0.125838
0.122079
0.118233
0.1143
0.110283
0.106186
0.102011
0.0977627
0.0934443
0.0890615
0.171264
0.168553
0.166136
0.163546
0.160885
0.158135
0.155297
0.152369
0.149351
0.146241
0.14304
0.139746
0.136359
0.132881
0.12931
0.125649
0.121898
0.11806
0.114135
0.110126
0.106037
0.10187
0.0976294
0.0933193
0.088945
0.170917
0.168247
0.165833
0.163257
0.160606
0.157866
0.155037
0.152118
0.149109
0.146008
0.142815
0.139529
0.13615
0.132679
0.129117
0.125463
0.12172
0.117888
0.113971
0.10997
0.105888
0.101729
0.0974964
0.0931944
0.0888283
0.170584
0.167953
0.165541
0.162977
0.160335
0.157604
0.154785
0.151875
0.148873
0.14578
0.142595
0.139316
0.135945
0.132481
0.128926
0.125279
0.121543
0.117719
0.113808
0.109815
0.10574
0.101589
0.0973636
0.0930695
0.0887115
0.170265
0.16767
0.16526
0.162707
0.160073
0.157351
0.15454
0.151638
0.148644
0.145558
0.14238
0.139108
0.135744
0.132287
0.128738
0.125098
0.121369
0.117551
0.113647
0.10966
0.105593
0.101449
0.097231
0.0929446
0.0885945
0.16996
0.167398
0.16499
0.162447
0.159821
0.157107
0.154303
0.151408
0.148421
0.145342
0.14217
0.138905
0.135547
0.132096
0.128553
0.12492
0.121196
0.117385
0.113488
0.109507
0.105447
0.101309
0.0970987
0.0928197
0.0884774
0.169668
0.167137
0.164731
0.162197
0.159578
0.156871
0.154074
0.151185
0.148204
0.145131
0.141965
0.138706
0.135354
0.131909
0.128372
0.124744
0.121026
0.117221
0.113329
0.109355
0.105301
0.10117
0.0969666
0.0926948
0.08836
0.169391
0.166888
0.164484
0.161957
0.159345
0.156644
0.153852
0.150969
0.147995
0.144927
0.141766
0.138512
0.135165
0.131725
0.128193
0.12457
0.120858
0.117058
0.113173
0.109204
0.105156
0.101032
0.0968347
0.0925699
0.0882424
0.169128
0.166651
0.164248
0.161728
0.159121
0.156426
0.153639
0.150761
0.147791
0.144728
0.141572
0.138323
0.13498
0.131545
0.128018
0.1244
0.120692
0.116897
0.113017
0.109054
0.105012
0.100893
0.0967031
0.0924451
0.0881247
0.16888
0.166425
0.164024
0.161509
0.158907
0.156216
0.153434
0.150561
0.147595
0.144536
0.141384
0.138138
0.1348
0.131368
0.127845
0.124232
0.120529
0.116738
0.112863
0.108905
0.104869
0.100756
0.0965717
0.0923202
0.0880067
0.168646
0.166212
0.163811
0.161302
0.158703
0.156016
0.153238
0.150368
0.147405
0.14435
0.141201
0.137959
0.134624
0.131196
0.127676
0.124066
0.120368
0.116581
0.112711
0.108758
0.104726
0.100619
0.0964405
0.0921953
0.0878884
0.168427
0.166012
0.163611
0.161105
0.15851
0.155825
0.15305
0.150183
0.147223
0.14417
0.141024
0.137784
0.134452
0.131027
0.127511
0.123904
0.120209
0.116426
0.11256
0.108611
0.104584
0.100482
0.0963095
0.0920703
0.08777
0.168223
0.165824
0.163423
0.160919
0.158326
0.155644
0.152871
0.150005
0.147047
0.143996
0.140852
0.137615
0.134284
0.130862
0.127348
0.123744
0.120052
0.116273
0.11241
0.108466
0.104443
0.100346
0.0961787
0.0919453
0.0876512
0.168035
0.16565
0.163247
0.160745
0.158154
0.155472
0.1527
0.149836
0.146879
0.143829
0.140686
0.13745
0.134122
0.130701
0.127189
0.123588
0.119898
0.116122
0.112262
0.108321
0.104303
0.100211
0.0960481
0.0918203
0.0875323
0.167862
0.165488
0.163084
0.160582
0.157991
0.155311
0.152538
0.149674
0.146718
0.143669
0.140526
0.137291
0.133963
0.130544
0.127034
0.123434
0.119746
0.115973
0.112116
0.108178
0.104164
0.100075
0.0959178
0.0916953
0.087413
0.167704
0.16534
0.162934
0.160432
0.15784
0.155159
0.152386
0.149522
0.146565
0.143515
0.140372
0.137137
0.13381
0.130391
0.126881
0.123283
0.119597
0.115825
0.111971
0.108036
0.104025
0.0999408
0.0957876
0.0915701
0.0872934
0.167563
0.165206
0.162796
0.160293
0.1577
0.155017
0.152243
0.149377
0.146419
0.143368
0.140225
0.136989
0.133661
0.130242
0.126733
0.123135
0.11945
0.11568
0.111828
0.107896
0.103887
0.0998067
0.0956577
0.0914449
0.0871735
0.167438
0.165086
0.162672
0.160166
0.157571
0.154885
0.152109
0.149241
0.146281
0.143228
0.140083
0.136846
0.133517
0.130097
0.126588
0.12299
0.119306
0.115537
0.111686
0.107756
0.10375
0.099673
0.0955278
0.0913195
0.0870532
0.167329
0.16498
0.162561
0.160052
0.157453
0.154765
0.151985
0.149114
0.146151
0.143096
0.139948
0.136709
0.133378
0.129957
0.126447
0.122848
0.119164
0.115396
0.111546
0.107618
0.103614
0.0995399
0.0953983
0.0911942
0.0869328
0.167237
0.164888
0.162465
0.159951
0.157348
0.154655
0.151871
0.148996
0.146029
0.142971
0.13982
0.136578
0.133245
0.129822
0.12631
0.12271
0.119026
0.115257
0.111408
0.107481
0.10348
0.099408
0.0952696
0.0910694
0.0868125
0.167162
0.164811
0.162382
0.159862
0.157254
0.154556
0.151767
0.148887
0.145915
0.142852
0.139698
0.136452
0.133116
0.12969
0.126176
0.122575
0.118889
0.11512
0.111271
0.107345
0.103346
0.0992759
0.0951405
0.0909439
0.0866913
0.167103
0.164749
0.162312
0.159785
0.15717
0.154465
0.15167
0.148783
0.145806
0.142737
0.139578
0.136327
0.132987
0.129558
0.12604
0.122437
0.118749
0.114979
0.11113
0.107204
0.103206
0.0991378
0.0950051
0.090812
0.0865636
0.167061
0.164701
0.162256
0.159721
0.157097
0.154385
0.151582
0.148688
0.145704
0.142628
0.139462
0.136206
0.132861
0.129427
0.125905
0.122298
0.118608
0.114836
0.110986
0.10706
0.103062
0.0989951
0.0948646
0.0906745
0.0864302
0.167041
0.164678
0.162228
0.159688
0.15706
0.154343
0.151535
0.148637
0.145648
0.142569
0.139399
0.136139
0.13279
0.129353
0.125828
0.122219
0.118526
0.114752
0.1109
0.106973
0.102975
0.0989082
0.0947783
0.0905897
0.0863473
0.212623
0.212219
0.211726
0.211152
0.210497
0.209766
0.208959
0.208077
0.207122
0.206096
0.204997
0.203828
0.202589
0.201281
0.199903
0.198457
0.196943
0.195361
0.193713
0.191999
0.190223
0.188379
0.186496
0.184504
0.182651
0.180168
0.213012
0.213053
0.2129
0.212686
0.212358
0.211949
0.211448
0.210867
0.210203
0.209462
0.208644
0.207751
0.206785
0.205745
0.204634
0.203452
0.2022
0.200878
0.199487
0.198027
0.196501
0.194907
0.193248
0.191523
0.189738
0.187889
0.185999
0.184007
0.182141
0.179686
0.212759
0.2128
0.212645
0.212429
0.212097
0.211681
0.211175
0.210585
0.209913
0.209162
0.208334
0.20743
0.206451
0.2054
0.204276
0.203081
0.201816
0.200481
0.199077
0.197605
0.196066
0.194461
0.192791
0.191057
0.189263
0.187407
0.185511
0.183519
0.18164
0.179213
0.21251
0.212551
0.212394
0.212175
0.211839
0.211418
0.210904
0.210307
0.209627
0.208866
0.208028
0.207113
0.206123
0.205059
0.203923
0.202716
0.201438
0.20009
0.198674
0.19719
0.195639
0.194022
0.192342
0.190599
0.188798
0.186935
0.185033
0.18304
0.181148
0.178746
0.212263
0.212305
0.212147
0.211924
0.211584
0.211158
0.210638
0.210033
0.209344
0.208575
0.207726
0.2068
0.205799
0.204724
0.203576
0.202357
0.201066
0.199706
0.198278
0.196782
0.19522
0.193592
0.191902
0.190151
0.188341
0.186473
0.184564
0.18257
0.180666
0.178288
0.21202
0.212063
0.211903
0.211677
0.211333
0.210901
0.210375
0.209763
0.209066
0.208287
0.207429
0.206493
0.205481
0.204395
0.203235
0.202004
0.200701
0.199329
0.197889
0.196382
0.194808
0.193171
0.191471
0.189711
0.187894
0.18602
0.184105
0.18211
0.180194
0.177838
0.211781
0.211824
0.211662
0.211434
0.211086
0.210649
0.210117
0.209497
0.208792
0.208005
0.207137
0.206191
0.205168
0.204071
0.2029
0.201657
0.200343
0.198959
0.197508
0.195989
0.194405
0.192758
0.191049
0.189281
0.187457
0.185577
0.183656
0.181659
0.179731
0.177397
0.211546
0.211589
0.211426
0.211195
0.210843
0.210401
0.209862
0.209236
0.208523
0.207727
0.20685
0.205894
0.204861
0.203753
0.202571
0.201317
0.199991
0.198597
0.197134
0.195605
0.194011
0.192354
0.190636
0.18886
0.187029
0.185143
0.183216
0.181218
0.179279
0.176964
0.211315
0.211358
0.211193
0.21096
0.210604
0.210157
0.209613
0.20898
0.208259
0.207454
0.206568
0.205603
0.20456
0.203441
0.202248
0.200983
0.199647
0.198241
0.196768
0.195229
0.193625
0.191959
0.190233
0.188449
0.186611
0.184719
0.182787
0.180787
0.178837
0.176541
0.211088
0.211132
0.210965
0.210729
0.210369
0.209918
0.209367
0.208728
0.208
0.207187
0.206292
0.205317
0.204264
0.203135
0.201932
0.200656
0.19931
0.197894
0.19641
0.194861
0.193248
0.191573
0.189838
0.188047
0.186202
0.184305
0.182368
0.180365
0.178406
0.176126
0.210865
0.210909
0.210741
0.210503
0.210139
0.209683
0.209127
0.208481
0.207745
0.206925
0.206021
0.205037
0.203975
0.202836
0.201623
0.200337
0.19898
0.197554
0.196061
0.194502
0.192879
0.191196
0.189454
0.187655
0.185804
0.183902
0.181959
0.179954
0.177985
0.175722
0.210647
0.210691
0.210522
0.210281
0.209914
0.209453
0.208892
0.208239
0.207497
0.206668
0.205756
0.204763
0.203692
0.202543
0.201321
0.200025
0.198658
0.197222
0.195719
0.194151
0.19252
0.190828
0.189078
0.187273
0.185416
0.183509
0.181561
0.179554
0.177576
0.175327
0.210434
0.210478
0.210308
0.210064
0.209694
0.209228
0.208662
0.208003
0.207253
0.206417
0.205497
0.204496
0.203415
0.202258
0.201025
0.19972
0.198344
0.196899
0.195386
0.19381
0.19217
0.19047
0.188713
0.186901
0.185038
0.183126
0.181173
0.179164
0.177177
0.174942
0.210226
0.21027
0.210098
0.209852
0.209478
0.209008
0.208437
0.207772
0.207016
0.206173
0.205245
0.204235
0.203146
0.201979
0.200738
0.199423
0.198038
0.196584
0.195063
0.193477
0.191829
0.190122
0.188358
0.18654
0.184671
0.182754
0.180796
0.178785
0.17679
0.174568
0.210022
0.210067
0.209894
0.209645
0.209268
0.208794
0.208218
0.207547
0.206784
0.205934
0.204998
0.203981
0.202883
0.201708
0.200458
0.199134
0.19774
0.196277
0.194747
0.193154
0.191498
0.189784
0.188013
0.186189
0.184315
0.182393
0.18043
0.178416
0.176414
0.174204
0.209824
0.209869
0.209695
0.209444
0.209064
0.208586
0.208004
0.207328
0.206559
0.205702
0.204759
0.203733
0.202628
0.201444
0.200185
0.198854
0.197451
0.195979
0.194442
0.19284
0.191177
0.189456
0.187678
0.185848
0.183969
0.182042
0.180076
0.178059
0.17605
0.173851
0.209632
0.209677
0.209502
0.209248
0.208865
0.208383
0.207797
0.207115
0.20634
0.205476
0.204526
0.203493
0.20238
0.201188
0.199921
0.198581
0.19717
0.195691
0.194145
0.192536
0.190866
0.189138
0.187354
0.185519
0.183634
0.181703
0.179733
0.177714
0.175698
0.173509
0.209445
0.20949
0.209314
0.209058
0.208672
0.208186
0.207595
0.206908
0.206127
0.205257
0.2043
0.20326
0.202139
0.20094
0.199665
0.198317
0.196898
0.195411
0.193858
0.192242
0.190565
0.188831
0.187041
0.1852
0.183311
0.181376
0.179401
0.17738
0.175358
0.173178
0.209264
0.20931
0.209132
0.208874
0.208485
0.207995
0.2074
0.206708
0.205922
0.205045
0.204082
0.203035
0.201907
0.2007
0.199418
0.198062
0.196636
0.195141
0.193581
0.191958
0.190275
0.188534
0.186739
0.184893
0.182999
0.18106
0.179081
0.177058
0.17503
0.172859
0.209089
0.209135
0.208956
0.208696
0.208305
0.207811
0.207212
0.206515
0.205723
0.204841
0.203871
0.202817
0.201682
0.200469
0.199179
0.197816
0.196383
0.194881
0.193314
0.191684
0.189995
0.188248
0.186448
0.184597
0.182698
0.180755
0.178773
0.176748
0.174715
0.172551
0.20892
0.208966
0.208786
0.208525
0.20813
0.207634
0.20703
0.206328
0.205532
0.204644
0.203668
0.202608
0.201466
0.200246
0.198949
0.197579
0.196139
0.194631
0.193057
0.191421
0.189726
0.187974
0.186168
0.184312
0.18241
0.180463
0.178477
0.17645
0.174412
0.172256
0.208758
0.208804
0.208623
0.20836
0.207963
0.207463
0.206855
0.206149
0.205347
0.204454
0.203473
0.202406
0.201258
0.200031
0.198728
0.197352
0.195905
0.19439
0.192811
0.191169
0.189468
0.18771
0.1859
0.18404
0.182133
0.180183
0.178194
0.176165
0.174122
0.171972
0.208602
0.208648
0.208467
0.208201
0.207802
0.207299
0.206688
0.205978
0.205171
0.204272
0.203286
0.202213
0.201059
0.199826
0.198517
0.197135
0.195681
0.194161
0.192575
0.190927
0.189221
0.187459
0.185644
0.183779
0.181869
0.179915
0.177923
0.175892
0.173845
0.171701
0.208454
0.2085
0.208317
0.20805
0.207649
0.207142
0.206528
0.205813
0.205002
0.204099
0.203107
0.202029
0.200869
0.199631
0.198315
0.196927
0.195468
0.193941
0.19235
0.190697
0.188986
0.187219
0.185399
0.183531
0.181617
0.17966
0.177666
0.175632
0.173581
0.171443
0.208312
0.208358
0.208175
0.207906
0.207502
0.206993
0.206375
0.205657
0.204842
0.203934
0.202937
0.201854
0.200689
0.199444
0.198123
0.196729
0.195265
0.193733
0.192136
0.190478
0.188762
0.186991
0.185167
0.183295
0.181378
0.179418
0.177421
0.175386
0.173331
0.171198
0.208177
0.208224
0.20804
0.207769
0.207364
0.206852
0.206231
0.205509
0.20469
0.203777
0.202775
0.201688
0.200517
0.199268
0.197942
0.196542
0.195072
0.193535
0.191934
0.190271
0.188551
0.186775
0.184948
0.183072
0.181152
0.179189
0.177189
0.175152
0.173095
0.170966
0.20805
0.208097
0.207912
0.20764
0.207233
0.206718
0.206094
0.205369
0.204546
0.203629
0.202623
0.201531
0.200356
0.199101
0.19777
0.196366
0.194891
0.193349
0.191743
0.190076
0.188351
0.186572
0.184741
0.182862
0.180938
0.178974
0.176971
0.174933
0.172872
0.170748
0.207931
0.207977
0.207792
0.207519
0.20711
0.206593
0.205966
0.205237
0.204411
0.20349
0.20248
0.201383
0.200204
0.198945
0.197609
0.1962
0.194721
0.193175
0.191564
0.189893
0.188164
0.186381
0.184547
0.182665
0.180739
0.178772
0.176767
0.174727
0.172664
0.170544
0.20782
0.207866
0.20768
0.207405
0.206995
0.206475
0.205846
0.205115
0.204285
0.203361
0.202346
0.201246
0.200062
0.198799
0.197459
0.196046
0.194562
0.193012
0.191398
0.189723
0.18799
0.186204
0.184366
0.182482
0.180553
0.178583
0.176577
0.174536
0.17247
0.170353
0.207716
0.207762
0.207577
0.2073
0.206888
0.206367
0.205735
0.205001
0.204168
0.20324
0.202223
0.201118
0.199931
0.198664
0.19732
0.195903
0.194415
0.192861
0.191243
0.189565
0.187829
0.186039
0.184199
0.182312
0.180381
0.178409
0.176401
0.174358
0.17229
0.170177
0.207621
0.207667
0.207481
0.207203
0.20679
0.206267
0.205633
0.204896
0.20406
0.20313
0.202109
0.201001
0.19981
0.19854
0.197192
0.195771
0.194281
0.192723
0.191101
0.18942
0.187681
0.185889
0.184046
0.182156
0.180223
0.17825
0.17624
0.174196
0.172126
0.170015
0.207535
0.207581
0.207394
0.207115
0.206701
0.206176
0.20554
0.204801
0.203963
0.203029
0.202006
0.200895
0.199701
0.198427
0.197076
0.195652
0.194158
0.192597
0.190973
0.189288
0.187546
0.185751
0.183906
0.182014
0.180079
0.178104
0.176093
0.174048
0.171977
0.169868
0.207457
0.207503
0.207316
0.207036
0.206621
0.206094
0.205457
0.204715
0.203875
0.202939
0.201913
0.200799
0.199602
0.198325
0.196972
0.195545
0.194048
0.192484
0.190857
0.18917
0.187426
0.185628
0.183781
0.181887
0.179951
0.177974
0.175962
0.173916
0.171843
0.169736
0.207388
0.207434
0.207247
0.206966
0.20655
0.206022
0.205383
0.20464
0.203797
0.202859
0.20183
0.200714
0.199515
0.198235
0.196879
0.19545
0.19395
0.192384
0.190755
0.189065
0.187319
0.18552
0.183671
0.181775
0.179837
0.177859
0.175846
0.173799
0.171725
0.16962
0.207329
0.207374
0.207187
0.206906
0.206488
0.205959
0.205319
0.204574
0.20373
0.20279
0.201759
0.200641
0.199439
0.198158
0.196799
0.195368
0.193866
0.192298
0.190666
0.188975
0.187227
0.185426
0.183575
0.181678
0.179739
0.17776
0.175745
0.173698
0.171623
0.16952
0.207279
0.207324
0.207137
0.206854
0.206436
0.205906
0.205265
0.204519
0.203673
0.202732
0.201699
0.200579
0.199376
0.198092
0.196732
0.195298
0.193795
0.192225
0.190591
0.188898
0.187149
0.185346
0.183494
0.181596
0.179656
0.177676
0.175661
0.173613
0.171537
0.169435
0.207238
0.207283
0.207096
0.206813
0.206394
0.205864
0.205221
0.204474
0.203627
0.202685
0.201651
0.200529
0.199324
0.198039
0.196678
0.195242
0.193737
0.192166
0.190531
0.188837
0.187086
0.185282
0.183429
0.18153
0.179589
0.177608
0.175592
0.173544
0.171468
0.169367
0.207207
0.207252
0.207065
0.206782
0.206363
0.205831
0.205188
0.20444
0.203592
0.202649
0.201614
0.200492
0.199286
0.197999
0.196636
0.1952
0.193694
0.192121
0.190486
0.18879
0.187038
0.185234
0.18338
0.18148
0.179538
0.177557
0.175541
0.173492
0.171415
0.169316
0.207187
0.207231
0.207044
0.206761
0.206341
0.205809
0.205166
0.204417
0.203569
0.202625
0.201589
0.200466
0.199259
0.197972
0.196608
0.195171
0.193665
0.192091
0.190455
0.188759
0.187006
0.185201
0.183347
0.181447
0.179504
0.177523
0.175506
0.173457
0.17138
0.169282
0.207177
0.20722
0.207034
0.20675
0.20633
0.205798
0.205154
0.204406
0.203557
0.202613
0.201577
0.200453
0.199246
0.197959
0.196595
0.195157
0.19365
0.192076
0.190439
0.188743
0.18699
0.185185
0.18333
0.18143
0.179487
0.177505
0.175489
0.17344
0.171363
0.169266
)
;

boundaryField
{
    inlet
    {
        type            zeroGradient;
    }
    outlet
    {
        type            fixedValue;
        value           nonuniform 0();
    }
    cylinder
    {
        type            zeroGradient;
    }
    top
    {
        type            symmetryPlane;
    }
    bottom
    {
        type            symmetryPlane;
    }
    defaultFaces
    {
        type            empty;
    }
    procBoundary12to8
    {
        type            processor;
        value           nonuniform List<scalar> 
76
(
0.0956161
0.0956161
0.100504
0.105359
0.110178
0.11496
0.119701
0.124401
0.129059
0.133672
0.146067
0.146067
0.150321
0.154485
0.158556
0.157916
0.157875
0.157875
0.161217
0.16076
0.160347
0.160347
0.163536
0.163109
0.163109
0.166153
0.165709
0.165709
0.1686
0.168142
0.168142
0.170932
0.170461
0.170461
0.173016
0.172536
0.172536
0.175244
0.174745
0.174745
0.176607
0.176607
0.180173
0.179608
0.179608
0.212891
0.212492
0.212006
0.21144
0.210795
0.210074
0.209277
0.208407
0.207465
0.206451
0.205366
0.20421
0.202985
0.20169
0.200327
0.198894
0.197393
0.195823
0.194187
0.192483
0.190716
0.188879
0.187002
0.18501
0.18317
0.180656
0.213269
0.213309
0.213157
0.212947
0.212947
)
;
    }
    procBoundary12to9
    {
        type            processor;
        value           nonuniform List<scalar> 5(0.0836925 0.0807774 0.0857496 0.0857496 0.0878187);
    }
    procBoundary12to13
    {
        type            processor;
        value           nonuniform List<scalar> 
61
(
0.0832816
0.083358
0.0832623
0.0831577
0.08307
0.0829857
0.0828996
0.0828126
0.0827251
0.0826374
0.0825492
0.0824606
0.0823717
0.0822823
0.0821926
0.0821024
0.0820119
0.0819211
0.0818298
0.0817382
0.0816462
0.0815538
0.0814611
0.081368
0.0812745
0.0811806
0.0810863
0.0809917
0.0808967
0.0808013
0.0807054
0.0806092
0.0805126
0.08494
0.08494
0.0848331
0.0847259
0.0846185
0.0845107
0.0844026
0.0842942
0.0841854
0.0840763
0.0839668
0.083857
0.0837467
0.0836361
0.083525
0.0834135
0.0833015
0.0831891
0.0830761
0.0829627
0.0828487
0.0827342
0.0826192
0.0825041
0.082388
0.0822653
0.0821367
0.0820565
)
;
    }
}


// ************************************************************************* //
