/*--------------------------------*- C++ -*----------------------------------*\
  =========                 |
  \\      /  F ield         | OpenFOAM: The Open Source CFD Toolbox
   \\    /   O peration     | Website:  https://openfoam.org
    \\  /    A nd           | Version:  7
     \\/     M anipulation  |
\*---------------------------------------------------------------------------*/
FoamFile
{
    version     2.0;
    format      ascii;
    class       surfaceScalarField;
    location    "5";
    object      phi;
}
// * * * * * * * * * * * * * * * * * * * * * * * * * * * * * * * * * * * * * //

dimensions      [0 3 -1 0 0 0 0];

internalField   nonuniform List<scalar> 
5132
(
-0.0298251
-0.0018888
-0.0295645
-0.00202046
-0.00188119
-0.0292953
-0.00215042
-0.0290176
-0.00227868
-0.0287316
-0.00240525
-0.0284377
-0.00253014
-0.0281358
-0.00265339
-0.0278263
-0.00277499
-0.0275092
-0.00289498
-0.0271848
-0.00301336
-0.0268531
-0.00313017
-0.00324541
0.00150171
-0.00364183
0.00145402
-0.00353418
0.0014078
-0.00342503
0.00136307
-0.00331437
0.00131986
-0.0032022
0.00127819
-0.00308849
0.00123807
-0.00297324
0.00119952
-0.00285643
0.00116257
-0.00273804
0.00112725
-0.00261806
0.00109356
-0.00249646
0.00106153
-0.00237322
0.0010312
-0.00224834
0.00100256
-0.00212179
0.000975664
-0.00199356
-0.00186365
0.00151214
-0.00359232
0.0014641
-0.00348614
0.00141754
-0.00337847
0.00137249
-0.00326932
0.00132897
-0.00315867
0.00128699
-0.00304651
0.00124658
-0.00293283
0.00120776
-0.00281761
0.00117055
-0.00270083
0.00113498
-0.00258248
0.00110105
-0.00246253
0.0010688
-0.00234097
0.00103825
-0.00221779
0.00100941
-0.00209296
0.000982323
-0.00196647
-0.00183833
0.00157253
-0.00364571
0.00152266
-0.00354245
0.00147426
-0.00343774
0.00142737
-0.00333158
0.00138199
-0.00322394
0.00133815
-0.00311483
0.00129587
-0.00300423
0.00125517
-0.00289213
0.00121607
-0.00277851
0.0011786
-0.00266336
0.00114276
-0.00254665
0.0011086
-0.00242836
0.00107612
-0.00230849
0.00104535
-0.00218702
0.00101631
-0.00206392
0.00098903
-0.00193919
-0.00181283
0.00158351
-0.003594
0.00153327
-0.00349221
0.00148452
-0.00338899
0.00143728
-0.00328433
0.00139157
-0.00317823
0.00134741
-0.00307067
0.00130482
-0.00296165
0.00126383
-0.00285114
0.00122445
-0.00273913
0.0011867
-0.00262561
0.00115061
-0.00251056
0.0011162
-0.00239395
0.00108349
-0.00227578
0.0010525
-0.00215603
0.00102326
-0.00203468
0.000995787
-0.00191172
-0.00178715
0.00159461
-0.0035419
0.00154399
-0.00344159
0.00149487
-0.00333988
0.00144728
-0.00323674
0.00140123
-0.00313218
0.00135675
-0.00302619
0.00131385
-0.00291875
0.00127256
-0.00280985
0.0012329
-0.00269947
0.00119488
-0.00258759
0.00115853
-0.00247421
0.00112387
-0.0023593
0.00109093
-0.00224284
0.00105972
-0.00212482
0.00103027
-0.00200523
0.0010026
-0.00188405
-0.00176128
0.0016583
-0.00358683
0.00160581
-0.00348941
0.00155481
-0.0033906
0.00150532
-0.00329039
0.00145738
-0.0031888
0.00141099
-0.00308579
0.00136618
-0.00298138
0.00132297
-0.00287554
0.00128137
-0.00276825
0.00124142
-0.00265951
0.00120312
-0.0025493
0.00116651
-0.0024376
0.0011316
-0.00232439
0.00109842
-0.00220966
0.00106699
-0.00209339
0.00103733
-0.00197556
0.00100946
-0.00185618
-0.00173524
0.00167
-0.00353245
0.00161711
-0.00343651
0.00156572
-0.00333921
0.00151587
-0.00324054
0.00146756
-0.00314049
0.00142083
-0.00303906
0.00137569
-0.00293624
0.00133216
-0.00283201
0.00129026
-0.00272635
0.00125001
-0.00261927
0.00121144
-0.00251073
0.00117456
-0.00240072
0.0011394
-0.00228923
0.00110598
-0.00217623
0.00107432
-0.00206173
0.00104444
-0.00194569
0.00101637
-0.00182812
-0.001709
0.00173661
-0.00357073
0.00168181
-0.00347765
0.00162851
-0.00338322
0.00157674
-0.00328744
0.00152651
-0.00319031
0.00147784
-0.00309183
0.00143076
-0.00299198
0.00138528
-0.00289076
0.00134143
-0.00278815
0.00129922
-0.00268415
0.00125868
-0.00257872
0.00121982
-0.00247187
0.00118267
-0.00236357
0.00114726
-0.00225381
0.00111359
-0.00214257
0.0010817
-0.00202984
0.00105161
-0.0019156
0.00102334
-0.00179985
-0.00168258
0.00174893
-0.00351401
0.00169371
-0.00342243
0.00164001
-0.00332951
0.00158785
-0.00323527
0.00153724
-0.0031397
0.00148821
-0.00304279
0.00144077
-0.00294454
0.00139495
-0.00284494
0.00135078
-0.00274397
0.00130826
-0.00264162
0.00126741
-0.00253788
0.00122827
-0.00243273
0.00119085
-0.00232615
0.00115518
-0.00221813
0.00112127
-0.00210866
0.00108915
-0.00199771
0.00105884
-0.00188529
0.00103036
-0.00177137
-0.00165596
0.00181852
-0.00354562
0.00176137
-0.00345686
0.00170572
-0.00336678
0.00165161
-0.0032754
0.00159905
-0.00318271
0.00154806
-0.00308871
0.00149866
-0.00299339
0.00145087
-0.00289676
0.00140471
-0.00279878
0.0013602
-0.00269947
0.00131737
-0.00259879
0.00127622
-0.00249674
0.0012368
-0.0023933
0.0011991
-0.00228846
0.00116316
-0.0021822
0.00112901
-0.0020745
0.00109665
-0.00196536
0.00106612
-0.00185476
0.00103744
-0.00174269
-0.00162915
0.00183149
-0.00348653
0.0017739
-0.00339927
0.00171783
-0.00331072
0.00166331
-0.00322088
0.00161035
-0.00312975
0.00155898
-0.00303733
0.0015092
-0.00294362
0.00146105
-0.00284861
0.00141455
-0.00275228
0.00136971
-0.00265463
0.00132656
-0.00255563
0.00128511
-0.00245529
0.00124539
-0.00235358
0.00120741
-0.00225049
0.00117121
-0.002146
0.00113681
-0.00204009
0.00110421
-0.00193277
0.00107346
-0.00182401
0.00104457
-0.0017138
-0.00160215
0.00190412
-0.00351145
0.00184457
-0.00342698
0.00178654
-0.00334124
0.00173004
-0.00325422
0.00167511
-0.00316594
0.00162175
-0.00307639
0.00156998
-0.00298557
0.00151983
-0.00289348
0.00147132
-0.0028001
0.00142447
-0.00270543
0.0013793
-0.00260945
0.00133582
-0.00251216
0.00129406
-0.00241353
0.00125405
-0.00231356
0.0012158
-0.00221223
0.00117933
-0.00210953
0.00114467
-0.00200543
0.00111183
-0.00189993
0.00108086
-0.00179303
0.00105175
-0.0016847
-0.00157495
0.00191775
-0.00344993
0.00185775
-0.00336698
0.00179928
-0.00328276
0.00174235
-0.0031973
0.001687
-0.00311059
0.00163323
-0.00302263
0.00158108
-0.00293342
0.00153055
-0.00284295
0.00148168
-0.00275122
0.00143447
-0.00265822
0.00138896
-0.00256394
0.00134516
-0.00246836
0.00130309
-0.00237147
0.00126278
-0.00227325
0.00122425
-0.0021737
0.00118751
-0.00207279
0.00115259
-0.00197051
0.00111952
-0.00186686
0.00108831
-0.00176182
0.00105899
-0.00165538
-0.00154755
0.00199347
-0.00346812
0.00193149
-0.00338795
0.00187103
-0.00330652
0.00181211
-0.00322385
0.00175476
-0.00313994
0.00169898
-0.00305481
0.00164481
-0.00296845
0.00159226
-0.00288087
0.00154136
-0.00279204
0.00149212
-0.00270198
0.00144456
-0.00261066
0.0013987
-0.00251809
0.00135458
-0.00242423
0.0013122
-0.00232909
0.00127158
-0.00223264
0.00123276
-0.00213487
0.00119575
-0.00203578
0.00116058
-0.00193534
0.00112726
-0.00183354
0.00109582
-0.00173038
0.00106629
-0.00162585
-0.00151995
0.00200778
-0.00340416
0.00194533
-0.00332551
0.00188441
-0.0032456
0.00182505
-0.00316448
0.00176726
-0.00308215
0.00171106
-0.00299862
0.00165648
-0.00291387
0.00160354
-0.00282792
0.00155225
-0.00274076
0.00150264
-0.00265237
0.00145472
-0.00256275
0.00140853
-0.00247189
0.00136407
-0.00237977
0.00132137
-0.00228639
0.00128046
-0.00219172
0.00124135
-0.00209576
0.00120406
-0.00199849
0.00116862
-0.0018999
0.00113506
-0.00179998
0.00110339
-0.00169871
0.00107364
-0.0015961
-0.00149214
0.00208663
-0.00341568
0.00202219
-0.00333973
0.00195927
-0.00326259
0.0018979
-0.00318422
0.00183808
-0.00310467
0.00177986
-0.00302393
0.00172324
-0.002942
0.00166825
-0.00285888
0.0016149
-0.00277458
0.00156323
-0.00268908
0.00151324
-0.00260238
0.00146497
-0.00251448
0.00141843
-0.00242535
0.00137364
-0.00233498
0.00133062
-0.00224337
0.0012894
-0.0021505
0.00125
-0.00205636
0.00121243
-0.00196093
0.00117674
-0.0018642
0.00114292
-0.00176616
0.00111102
-0.00166681
0.00108105
-0.00156613
-0.00146413
0.00210163
-0.00334925
0.0020367
-0.00327481
0.00197331
-0.00319919
0.00191148
-0.00312239
0.00185121
-0.00304441
0.00179255
-0.00296526
0.00173551
-0.00288495
0.0016801
-0.00280348
0.00162636
-0.00272083
0.00157429
-0.00263702
0.00152393
-0.00255202
0.0014753
-0.00246584
0.00142841
-0.00237846
0.00138328
-0.00228986
0.00133994
-0.00220004
0.00129842
-0.00210897
0.00125872
-0.00201666
0.00122088
-0.00192309
0.00118491
-0.00182824
0.00115084
-0.0017321
0.0011187
-0.00163467
0.00108851
-0.00153594
-0.00143591
0.00218364
-0.00335397
0.00211672
-0.00328234
0.00205132
-0.0032094
0.00198745
-0.00313533
0.00192515
-0.00306009
0.00186444
-0.0029837
0.00180534
-0.00290616
0.00174786
-0.00282748
0.00169204
-0.00274766
0.0016379
-0.00266669
0.00158544
-0.00258457
0.00153471
-0.00250129
0.00148571
-0.00241684
0.00143846
-0.00233121
0.001393
-0.00224439
0.00134934
-0.00215637
0.0013075
-0.00206714
0.00126751
-0.00197667
0.00122938
-0.00188496
0.00119315
-0.001792
0.00115883
-0.00169778
0.00112645
-0.00160229
0.00109603
-0.00150552
-0.00140748
0.00226824
-0.00335432
0.00219934
-0.00328507
0.00213192
-0.00321492
0.00206603
-0.00314351
0.00200169
-0.00307099
0.00193893
-0.00299732
0.00187776
-0.00292253
0.00181822
-0.00284661
0.00176032
-0.00276958
0.00170408
-0.00269142
0.00164953
-0.00261213
0.00159668
-0.00253172
0.00154556
-0.00245017
0.0014962
-0.00236747
0.0014486
-0.00228362
0.0014028
-0.00219859
0.00135881
-0.00211238
0.00131666
-0.00202498
0.00127636
-0.00193638
0.00123795
-0.00184655
0.00120145
-0.0017555
0.00116688
-0.00166321
0.00113425
-0.00156967
0.00110361
-0.00147488
-0.00137884
0.00228455
-0.00328342
0.00221513
-0.00321565
0.00214722
-0.00314701
0.00208085
-0.00307714
0.00201603
-0.00300618
0.0019528
-0.00293409
0.00189118
-0.00286091
0.00183119
-0.00278663
0.00177286
-0.00271124
0.0017162
-0.00263476
0.00166124
-0.00255718
0.001608
-0.00247848
0.0015565
-0.00239867
0.00150677
-0.00231774
0.00145882
-0.00223566
0.00141267
-0.00215245
0.00136835
-0.00206807
0.00132588
-0.00198252
0.00128529
-0.00189578
0.00124659
-0.00180785
0.00120982
-0.00171872
0.00117498
-0.00162837
0.00114212
-0.0015368
0.00111125
-0.00144401
-0.00134999
0.00237238
-0.00327642
-0.00244523
0.00230096
-0.00321199
0.00223104
-0.00314573
0.00216263
-0.0030786
0.00209576
-0.00301027
0.00203047
-0.00294088
0.00196677
-0.0028704
0.0019047
-0.00279883
0.00184426
-0.00272619
0.0017855
-0.00265248
0.00172842
-0.00257768
0.00167305
-0.00250181
0.00161941
-0.00242484
0.00156753
-0.00234679
0.00151742
-0.00226763
0.00146911
-0.00218735
0.00142262
-0.00210595
0.00137797
-0.00202342
0.00133518
-0.00193973
0.00129429
-0.00185489
0.0012553
-0.00176887
0.00121825
-0.00168167
0.00118315
-0.00159328
0.00115004
-0.00150369
0.00111894
-0.00141291
-0.00132092
0.00238942
-0.00320304
-0.0024628
0.00231748
-0.00314004
0.00224704
-0.00307529
0.00217813
-0.00300968
0.00211078
-0.00294292
0.002045
-0.00287511
0.00198084
-0.00280623
0.0019183
-0.0027363
0.00185743
-0.00266531
0.00179822
-0.00259327
0.00174072
-0.00252018
0.00168494
-0.00244603
0.0016309
-0.00237081
0.00157863
-0.00229452
0.00152815
-0.00221715
0.00147948
-0.00213868
0.00143264
-0.00205912
0.00138766
-0.00197843
0.00134455
-0.00189663
0.00130335
-0.00181368
0.00126407
-0.00172959
0.00122674
-0.00164434
0.00119139
-0.00155792
0.00115803
-0.00147033
0.00112669
-0.00138157
-0.00129163
0.00240657
-0.00312912
-0.00248049
0.0023341
-0.00306757
0.00226315
-0.00300435
0.00219374
-0.00294027
0.00212589
-0.00287507
0.00205964
-0.00280886
0.001995
-0.0027416
0.00193201
-0.00267331
0.00187068
-0.00260398
0.00181104
-0.00253363
0.00175311
-0.00246225
0.00169692
-0.00238983
0.00164248
-0.00231637
0.00158982
-0.00224186
0.00153897
-0.00216629
0.00148993
-0.00208965
0.00144274
-0.00201193
0.00139742
-0.00193312
0.001354
-0.0018532
0.00131248
-0.00177217
0.00127291
-0.00169002
0.0012353
-0.00160673
0.00119968
-0.0015223
0.00116607
-0.00143673
0.0011345
-0.00135
-0.00126213
0.00242383
-0.00305466
-0.00249828
0.00235083
-0.00299457
0.00227936
-0.00293288
0.00220945
-0.00287035
0.00214111
-0.00280673
0.00207437
-0.00274212
0.00200926
-0.00267649
0.00194581
-0.00260985
0.00188403
-0.00254221
0.00182395
-0.00247356
0.0017656
-0.0024039
0.00170899
-0.00233322
0.00165415
-0.00226153
0.0016011
-0.00218881
0.00154986
-0.00211505
0.00150046
-0.00204025
0.00145292
-0.00196439
0.00140726
-0.00188746
0.00136351
-0.00180945
0.00132169
-0.00173035
0.00128182
-0.00165015
0.00124393
-0.00156884
0.00120804
-0.00148641
0.00117418
-0.00140287
0.00114237
-0.00131819
-0.0012324
0.00244119
-0.00297966
-0.00251619
0.00236766
-0.00292105
0.00229568
-0.0028609
0.00222526
-0.00279993
0.00215642
-0.0027379
0.0020892
-0.0026749
0.00202362
-0.00261091
0.0019597
-0.00254593
0.00189747
-0.00247998
0.00183695
-0.00241304
0.00177817
-0.00234511
0.00172114
-0.0022762
0.0016659
-0.00220628
0.00161245
-0.00213537
0.00156084
-0.00206344
0.00151107
-0.00199048
0.00146318
-0.00191649
0.00141718
-0.00184146
0.0013731
-0.00176537
0.00133096
-0.00168821
0.00129079
-0.00160998
0.00125262
-0.00153066
0.00121646
-0.00145025
0.00118235
-0.00136875
0.0011503
-0.00128615
-0.00120245
0.00245866
-0.00290412
-0.0025342
0.0023846
-0.00284699
0.00231211
-0.0027884
0.00224117
-0.002729
0.00217184
-0.00266857
0.00210413
-0.00260719
0.00203807
-0.00254485
0.00197369
-0.00248155
0.00191101
-0.00241729
0.00185005
-0.00235208
0.00179083
-0.0022859
0.00173338
-0.00221875
0.00167773
-0.00215063
0.00162389
-0.00208153
0.00157189
-0.00201144
0.00152176
-0.00194034
0.00147351
-0.00186824
0.00142716
-0.00179512
0.00138276
-0.00172096
0.00134031
-0.00164576
0.00129984
-0.00156951
0.00126137
-0.0014922
0.00122495
-0.00141382
0.00119057
-0.00133438
0.00115829
-0.00125386
-0.00117227
0.00247624
-0.00282804
-0.00255233
0.00240165
-0.0027724
0.00232863
-0.00271538
0.00225719
-0.00265755
0.00218736
-0.00259873
0.00211916
-0.00253899
0.00205263
-0.00247831
0.00198778
-0.0024167
0.00192464
-0.00235415
0.00186323
-0.00229067
0.00180358
-0.00222625
0.00174571
-0.00216088
0.00168965
-0.00209457
0.00163542
-0.00202729
0.00158303
-0.00195905
0.00153252
-0.00188984
0.00148391
-0.00181963
0.00143723
-0.00174843
0.00139249
-0.00167622
0.00134972
-0.00160299
0.00130895
-0.00152874
0.0012702
-0.00145345
0.00123349
-0.00137712
0.00119887
-0.00129975
0.00116634
-0.00122133
-0.00114187
0.00249393
-0.0027514
-0.00257056
0.00241881
-0.00269728
0.00234527
-0.00264184
0.00227331
-0.0025856
0.00220298
-0.0025284
0.00213429
-0.00247031
0.00206728
-0.0024113
0.00200196
-0.00235138
0.00193836
-0.00229055
0.00187651
-0.00222882
0.00181642
-0.00216616
0.00175813
-0.00210259
0.00170166
-0.00203809
0.00164702
-0.00197266
0.00159425
-0.00190628
0.00154337
-0.00183895
0.0014944
-0.00177066
0.00144736
-0.0017014
0.00140229
-0.00163115
0.0013592
-0.0015599
0.00131813
-0.00148766
0.00127909
-0.00141441
0.00124211
-0.00134014
0.00120722
-0.00126486
0.00117444
-0.00118856
-0.00111124
0.00251173
-0.00267422
-0.00258891
0.00243608
-0.00262163
0.00236201
-0.00256777
0.00228954
-0.00251313
0.0022187
-0.00245757
0.00214952
-0.00240113
0.00208202
-0.0023438
0.00201623
-0.00228559
0.00195218
-0.0022265
0.00188987
-0.00216651
0.00182935
-0.00210564
0.00177064
-0.00204388
0.00171375
-0.0019812
0.00165871
-0.00191762
0.00160555
-0.00185312
0.00155429
-0.0017877
0.00150496
-0.00172133
0.00145758
-0.00165401
0.00141217
-0.00158574
0.00136876
-0.0015165
0.00132737
-0.00144628
0.00128804
-0.00137508
0.00125078
-0.00130289
0.00121563
-0.00122971
0.00118261
-0.00115554
-0.00108037
0.00252964
-0.00259649
-0.00260738
0.00245345
-0.00254543
0.00237885
-0.00249317
0.00230587
-0.00244015
0.00223453
-0.00238622
0.00216485
-0.00233145
0.00209687
-0.00227582
0.00203061
-0.00221933
0.00196609
-0.00216197
0.00190333
-0.00210376
0.00184237
-0.00204468
0.00178323
-0.00198473
0.00172593
-0.0019239
0.00167049
-0.00186218
0.00161694
-0.00179957
0.0015653
-0.00173606
0.0015156
-0.00167163
0.00146786
-0.00160628
0.00142212
-0.00153999
0.00137838
-0.00147276
0.00133669
-0.00140458
0.00129706
-0.00133545
0.00125953
-0.00126535
0.00122411
-0.00119429
0.00119084
-0.00112227
-0.00104928
0.00254767
-0.00251821
-0.00262595
0.00247093
-0.0024687
0.00239581
-0.00241805
0.0023223
-0.00236664
0.00225045
-0.00231437
0.00218028
-0.00226128
0.00211182
-0.00220735
0.00204508
-0.00215259
0.00198009
-0.00209699
0.00191689
-0.00204056
0.00185549
-0.00198328
0.00179591
-0.00192516
0.00173819
-0.00186618
0.00168234
-0.00180634
0.0016284
-0.00174563
0.00157638
-0.00168404
0.00152632
-0.00162156
0.00147823
-0.00155819
0.00143214
-0.0014939
0.00138808
-0.0014287
0.00134607
-0.00136258
0.00130615
-0.00129553
0.00126833
-0.00122754
0.00123265
-0.00115861
0.00119913
-0.00108875
-0.00101795
0.0025658
-0.00243937
-0.00264464
0.00248852
-0.00239142
0.00241287
-0.00234239
0.00233884
-0.00229262
0.00226649
-0.00224202
0.00219582
-0.00219061
0.00212686
-0.00213839
0.00205964
-0.00208537
0.00199419
-0.00203154
0.00193053
-0.0019769
0.00186869
-0.00192143
0.00180868
-0.00186515
0.00175054
-0.00180804
0.00169429
-0.00175009
0.00163995
-0.00169129
0.00158755
-0.00163164
0.00153711
-0.00157113
0.00148866
-0.00150974
0.00144223
-0.00144747
0.00139785
-0.00138432
0.00135553
-0.00132026
0.00131531
-0.0012553
0.0012772
-0.00118944
0.00124125
-0.00112266
0.00120748
-0.00105497
-0.000986379
0.00258405
-0.00235998
-0.00266344
0.00250623
-0.00231361
0.00243004
-0.0022662
0.00235549
-0.00221807
0.00228262
-0.00216914
0.00221145
-0.00211944
0.002142
-0.00206895
0.00207431
-0.00201768
0.00200839
-0.00196562
0.00194427
-0.00191278
0.00188198
-0.00185914
0.00182154
-0.00180471
0.00176298
-0.00174947
0.00170631
-0.00169342
0.00165157
-0.00163655
0.00159879
-0.00157885
0.00154798
-0.00152032
0.00149918
-0.00146094
0.0014524
-0.0014007
0.00140769
-0.0013396
0.00136505
-0.00127763
0.00132453
-0.00121478
0.00128614
-0.00115105
0.00124992
-0.00108644
0.00121589
-0.00102095
0.0026024
-0.00228003
-0.00268235
0.00252404
-0.00223524
0.00244731
-0.00218948
0.00237224
-0.002143
0.00229886
-0.00209576
0.00222719
-0.00204776
0.00215725
-0.00199901
0.00208907
-0.0019495
0.00202268
-0.00189923
0.00195811
-0.0018482
0.00189537
-0.0017964
0.00183449
-0.00174383
0.0017755
-0.00169048
0.00171842
-0.00163635
0.00166329
-0.00158142
0.00161011
-0.00152568
0.00155893
-0.00146914
0.00150977
-0.00141177
0.00146265
-0.00135358
0.0014176
-0.00129455
0.00137464
-0.00123467
0.00133382
-0.00117395
0.00129514
-0.00111238
0.00125865
-0.00104995
-0.000986665
0.00262087
-0.00219952
-0.00270138
0.00254196
-0.00215633
0.0024647
-0.00211221
0.0023891
-0.00206741
0.0023152
-0.00202186
0.00224302
-0.00197559
0.00217259
-0.00192858
0.00210393
-0.00188084
0.00203707
-0.00183237
0.00197203
-0.00178316
0.00190884
-0.00173321
0.00184753
-0.00168252
0.00178811
-0.00163107
0.00173062
-0.00157886
0.00167508
-0.00152588
0.00162152
-0.00147212
0.00156996
-0.00141758
0.00152043
-0.00136224
0.00147296
-0.00130611
0.00142758
-0.00124916
0.00138431
-0.0011914
0.00134318
-0.00113282
0.00130421
-0.00107341
0.00126745
-0.00101318
-0.000952124
0.00263946
-0.00211845
-0.00272053
0.00256
-0.00207687
0.0024822
-0.00203441
0.00240607
-0.00199128
0.00233165
-0.00194744
0.00225897
-0.0019029
0.00218804
-0.00185765
0.00211889
-0.0018117
0.00205155
-0.00176503
0.00198605
-0.00171766
0.00192241
-0.00166957
0.00186065
-0.00162076
0.00180081
-0.00157122
0.0017429
-0.00152095
0.00168696
-0.00146993
0.001633
-0.00141817
0.00158107
-0.00136564
0.00153118
-0.00131235
0.00148336
-0.00125829
0.00143763
-0.00120344
0.00139404
-0.00114781
0.0013526
-0.00109138
0.00131335
-0.00103416
0.00127631
-0.000976141
-0.000917324
0.00265816
-0.00203682
-0.00273979
0.00257814
-0.00199686
0.0024998
-0.00195607
0.00242315
-0.00191463
0.00234821
-0.0018725
0.00227501
-0.0018297
0.00220358
-0.00178622
0.00213395
-0.00174206
0.00206613
-0.00169722
0.00200017
-0.00165169
0.00193607
-0.00160547
0.00187387
-0.00155856
0.00181359
-0.00151095
0.00175527
-0.00146262
0.00169892
-0.00141358
0.00164457
-0.00136382
0.00159225
-0.00131333
0.00154199
-0.00126209
0.00149382
-0.00121011
0.00144776
-0.00115738
0.00140384
-0.00110389
0.0013621
-0.00104963
0.00132255
-0.000994612
0.00128523
-0.000938821
-0.000882262
0.00267697
-0.00195463
-0.00275916
0.0025964
-0.0019163
0.00251752
-0.00187718
0.00244033
-0.00183744
0.00236487
-0.00179704
0.00229116
-0.00175599
0.00221923
-0.00171429
0.00214911
-0.00167194
0.00208081
-0.00162892
0.00201438
-0.00158525
0.00194982
-0.00154092
0.00188718
-0.00149591
0.00182647
-0.00145024
0.00176772
-0.00140387
0.00171096
-0.00135682
0.00165622
-0.00130908
0.00160352
-0.00126063
0.00155289
-0.00121147
0.00150436
-0.00116159
0.00145796
-0.00111098
0.00141372
-0.00105965
0.00137166
-0.00100758
0.00133182
-0.000954769
0.00129422
-0.000901223
-0.000846938
0.00269589
-0.00187186
-0.00277866
0.00261478
-0.00183518
0.00253535
-0.00179775
0.00245762
-0.00175972
0.00238164
-0.00172106
0.00230742
-0.00168177
0.00223498
-0.00164186
0.00216436
-0.00160132
0.00209559
-0.00156015
0.00202868
-0.00151835
0.00196367
-0.0014759
0.00190057
-0.00143282
0.00183943
-0.00138909
0.00178026
-0.0013447
0.00172309
-0.00129965
0.00166794
-0.00125394
0.00161486
-0.00120754
0.00156386
-0.00116047
0.00151498
-0.0011127
0.00146823
-0.00106424
0.00142366
-0.00101508
0.00138129
-0.000965207
0.00134115
-0.000914629
0.00130327
-0.000863343
-0.000811348
0.00271494
-0.00178853
-0.00279827
0.00263326
-0.00175351
0.00255328
-0.00171777
0.00247503
-0.00168146
0.00239851
-0.00164455
0.00232377
-0.00160703
0.00225084
-0.00156892
0.00217972
-0.00153021
0.00211046
-0.00149089
0.00204308
-0.00145096
0.00197761
-0.00141043
0.00191406
-0.00136928
0.00185248
-0.00132751
0.00179288
-0.0012851
0.0017353
-0.00124207
0.00167975
-0.0011984
0.00162628
-0.00115407
0.00157491
-0.00110909
0.00152567
-0.00106346
0.00147858
-0.00101715
0.00143368
-0.000970174
0.00139099
-0.000922521
0.00135055
-0.000874191
0.00131239
-0.000825181
-0.000775492
0.0027341
-0.00170464
-0.00281799
0.00265186
-0.00167127
0.00257134
-0.00163725
0.00249254
-0.00160266
0.0024155
-0.0015675
0.00234024
-0.00153177
0.00226679
-0.00149547
0.00219518
-0.0014586
0.00212543
-0.00142114
0.00205758
-0.00138311
0.00199164
-0.00134449
0.00192764
-0.00130528
0.00186562
-0.00126548
0.00180559
-0.00122508
0.00174759
-0.00118407
0.00169165
-0.00114245
0.00163779
-0.00110021
0.00158604
-0.00105735
0.00153643
-0.00101385
0.001489
-0.000969717
0.00144376
-0.000924941
0.00140076
-0.00087952
0.00136002
-0.000833451
0.00132158
-0.000786733
-0.000739368
0.00275337
-0.00162017
-0.00283784
0.00267058
-0.00158848
0.0025895
-0.00155617
0.00251016
-0.00152332
0.00243259
-0.00148993
0.00235681
-0.001456
0.00228285
-0.00142151
0.00221074
-0.00138649
0.00214051
-0.00135091
0.00207217
-0.00131477
0.00200576
-0.00127808
0.00194131
-0.00124083
0.00187884
-0.00120301
0.00181839
-0.00116462
0.00175997
-0.00112565
0.00170362
-0.0010861
0.00164937
-0.00104596
0.00159724
-0.00100522
0.00154727
-0.000963881
0.00149949
-0.000921933
0.00145392
-0.000879374
0.0014106
-0.0008362
0.00136956
-0.000792409
0.00133083
-0.000748
-0.000702974
0.00277276
-0.00153512
-0.00285781
0.00268941
-0.00150512
0.00260778
-0.00147454
0.00252789
-0.00144344
0.00244979
-0.00141183
0.00237349
-0.0013797
0.00229902
-0.00134704
0.0022264
-0.00131387
0.00215568
-0.00128018
0.00208686
-0.00124596
0.00201998
-0.00121121
0.00195507
-0.00117592
0.00189216
-0.0011401
0.00183127
-0.00110373
0.00177243
-0.00106682
0.00171567
-0.00102934
0.00166103
-0.000991313
0.00160852
-0.000952715
0.00155819
-0.000913546
0.00151005
-0.000873799
0.00146415
-0.000833471
0.00142051
-0.00079256
0.00137916
-0.000751062
0.00134014
-0.000708978
-0.000666308
0.00279227
-0.00144951
-0.00287789
0.00270835
-0.0014212
0.00262617
-0.00139235
0.00254574
-0.00136301
0.0024671
-0.00133319
0.00239027
-0.00130287
0.00231528
-0.00127206
0.00224217
-0.00124075
0.00217094
-0.00120895
0.00210165
-0.00117666
0.0020343
-0.00114386
0.00196893
-0.00111055
0.00190557
-0.00107674
0.00184424
-0.00104241
0.00178498
-0.00100755
0.00172781
-0.000972178
0.00167277
-0.000936271
0.00161988
-0.000899828
0.00156918
-0.000862843
0.00152069
-0.000825312
0.00147445
-0.000787231
0.00143049
-0.000748597
0.00138884
-0.000709409
0.00134953
-0.000669666
-0.000629369
0.0028119
-0.00136331
-0.00289809
0.00272742
-0.00133672
0.00264467
-0.0013096
0.0025637
-0.00128204
0.00248452
-0.00125401
0.00240716
-0.00122551
0.00233166
-0.00119655
0.00225803
-0.00116713
0.00218631
-0.00113724
0.00211653
-0.00110687
0.00204871
-0.00107603
0.00198287
-0.00104472
0.00191906
-0.00101292
0.0018573
-0.000980641
0.00179761
-0.000947869
0.00174003
-0.0009146
0.00168459
-0.000880831
0.00163132
-0.000846556
0.00158025
-0.00081177
0.00153141
-0.00077647
0.00148483
-0.000740651
0.00144054
-0.000704311
0.00139858
-0.000667448
0.00135898
-0.000630063
-0.000592155
0.00283165
-0.00127654
-0.00291842
0.00274659
-0.00125166
0.00266329
-0.0012263
0.00258177
-0.00120051
0.00250205
-0.00117429
0.00242416
-0.00114763
0.00234814
-0.00112053
0.002274
-0.00109299
0.00220178
-0.00106502
0.00213151
-0.0010366
0.00206321
-0.00100773
0.00199691
-0.000978422
0.00193264
-0.000948658
0.00187044
-0.000918437
0.00181033
-0.000887755
0.00175233
-0.000856608
0.00169649
-0.00082499
0.00164284
-0.000792898
0.00159139
-0.000760326
0.00154219
-0.000727271
0.00149527
-0.00069373
0.00145066
-0.000659699
0.00140839
-0.000625178
0.00136849
-0.000590166
-0.000554665
0.00285151
-0.00118919
-0.00293886
0.00276589
-0.00116604
0.00268202
-0.00114244
0.00259995
-0.00111844
0.00251969
-0.00109403
0.00244127
-0.00106921
0.00236472
-0.00104398
0.00229007
-0.00101834
0.00221735
-0.000992296
0.00214659
-0.000965834
0.00207781
-0.000938955
0.00201104
-0.000911657
0.00194632
-0.000883936
0.00188367
-0.000855789
0.00182313
-0.000827211
0.00176472
-0.000798199
0.00170848
-0.000768747
0.00165443
-0.000738851
0.00160261
-0.000708508
0.00155305
-0.000677713
0.00150579
-0.000646465
0.00146085
-0.000614759
0.00141827
-0.000582596
0.00137808
-0.000549975
-0.000516897
0.0028715
-0.00110126
-0.00295943
0.0027853
-0.00107984
0.00270087
-0.00105801
0.00261824
-0.0010358
0.00253744
-0.00101322
0.00245848
-0.000990254
0.00238141
-0.000966908
0.00230624
-0.000943181
0.00223302
-0.00091907
0.00216176
-0.000894575
0.0020925
-0.000869693
0.00202526
-0.000844421
0.00196008
-0.000818757
0.00189699
-0.000792696
0.00183601
-0.000766235
0.00177719
-0.000739371
0.00172054
-0.000712098
0.0016661
-0.000684414
0.00161391
-0.000656314
0.00156399
-0.000627795
0.00151638
-0.000598855
0.00147111
-0.00056949
0.00142821
-0.000539701
0.00138773
-0.000509487
-0.00047885
0.0028916
-0.00101275
-0.00298012
0.00280483
-0.00099307
0.00271984
-0.000973017
0.00263665
-0.000952616
0.0025553
-0.000931864
0.0024758
-0.000910761
0.0023982
-0.000889306
0.00232252
-0.000867498
0.00224879
-0.000845337
0.00217703
-0.000822821
0.00210728
-0.000799947
0.00203958
-0.000776713
0.00197394
-0.000753117
0.0019104
-0.000729155
0.00184898
-0.000704825
0.00178974
-0.000680122
0.00173268
-0.000655043
0.00167785
-0.000629584
0.00162528
-0.000603742
0.001575
-0.000577514
0.00152704
-0.000550897
0.00148144
-0.00052389
0.00143823
-0.000496492
0.00139745
-0.000468702
-0.000440522
0.00291183
-0.000923647
-0.00300093
0.00282448
-0.000905723
0.00273892
-0.000887456
0.00265517
-0.000868868
0.00257327
-0.000849959
0.00249323
-0.000830727
0.0024151
-0.000811173
0.0023389
-0.000791296
0.00226465
-0.000771094
0.0021924
-0.000750567
0.00212217
-0.000729712
0.00205398
-0.000708529
0.00198788
-0.000687014
0.00192389
-0.000665164
0.00186204
-0.000642977
0.00180237
-0.00062045
0.0017449
-0.000597578
0.00168968
-0.00057436
0.00163673
-0.000550791
0.00158608
-0.000526869
0.00153778
-0.000502592
0.00149184
-0.000477958
0.00144832
-0.000452966
0.00140723
-0.000427617
-0.000401911
0.00293217
-0.00083396
-0.00302186
0.00284425
-0.000817797
0.00275812
-0.000801324
0.00267381
-0.000784559
0.00259135
-0.000767501
0.00251077
-0.00075015
0.0024321
-0.000732506
0.00235538
-0.000714569
0.00228062
-0.000696337
0.00220787
-0.000677811
0.00213714
-0.000658988
0.00206848
-0.000639867
0.00200191
-0.000620445
0.00193747
-0.000600721
0.00187518
-0.000580691
0.00181508
-0.000560352
0.00175721
-0.000539702
0.00170159
-0.000518738
0.00164825
-0.000497457
0.00159724
-0.000475857
0.00154858
-0.000453935
0.00150232
-0.000431691
0.00145847
-0.000409123
0.00141709
-0.000386231
-0.000363017
0.00295264
-0.000743685
-0.00304291
0.00286413
-0.000729292
0.00277743
-0.00071462
0.00269256
-0.000699686
0.00260954
-0.000684488
0.00252842
-0.000669027
0.00244921
-0.000653303
0.00237196
-0.000637316
0.00229669
-0.000621065
0.00222343
-0.000604551
0.00215221
-0.000587771
0.00208307
-0.000570724
0.00201603
-0.000553408
0.00195113
-0.000535822
0.00188841
-0.000517962
0.00182788
-0.000499827
0.00176959
-0.000481413
0.00171357
-0.000462719
0.00165985
-0.000443741
0.00160847
-0.000424477
0.00155947
-0.000404927
0.00151286
-0.000385088
0.0014687
-0.00036496
0.00142701
-0.000344543
-0.000323838
0.00297323
-0.000652819
-0.00306409
0.00288414
-0.000640203
0.00279686
-0.000627341
0.00271142
-0.000614245
0.00262784
-0.000600915
0.00254617
-0.000587353
0.00246643
-0.000573559
0.00238865
-0.000559533
0.00231285
-0.000545275
0.00223909
-0.000530783
0.00216737
-0.000516058
0.00209775
-0.000501098
0.00203024
-0.000485901
0.00196489
-0.000470466
0.00190171
-0.00045479
0.00184076
-0.000438872
0.00178206
-0.000422709
0.00172563
-0.000406298
0.00167153
-0.000389639
0.00161978
-0.000372728
0.00157042
-0.000355564
0.00152348
-0.000338147
0.001479
-0.000320476
0.001437
-0.000302551
-0.000284372
0.00299393
-0.00056136
-0.00308539
0.00290426
-0.000550528
0.0028164
-0.000539483
0.00273039
-0.000528233
0.00264626
-0.000516782
0.00256403
-0.000505128
0.00248375
-0.000493273
0.00240543
-0.000481218
0.00232912
-0.000468963
0.00225484
-0.000456506
0.00218263
-0.000443848
0.00211252
-0.000430987
0.00204454
-0.000417922
0.00197872
-0.000404651
0.00191511
-0.000391173
0.00185372
-0.000377486
0.0017946
-0.000363587
0.00173778
-0.000349476
0.00168329
-0.000335149
0.00163117
-0.000320607
0.00158145
-0.000305847
0.00153417
-0.000290868
0.00148936
-0.00027567
0.00144707
-0.000260254
-0.000244619
0.00301476
-0.000469306
-0.00310682
0.0029245
-0.000460266
0.00283606
-0.000451044
0.00274948
-0.000441649
0.00266478