0 	0.551757 	1.38778e-18 	0.244905 	0.0158757 	6.43609e-21
0 	0.659416 	2.77556e-18 	0.583937 	0.0759413 	-1.08771e-20
0 	0.775694 	2.77556e-18 	0.841115 	0.152914 	4.81881e-20
0 	0.90128 	2.77556e-18 	1.02252 	0.206153 	3.45256e-20
