-0.3536 	0.3536 	-9.02056e-18 	0.240668 	0.219887 	5.50837e-20
-0.390196 	0.390196 	-1.49133e-17 	0.22851 	0.222536 	-1.47524e-19
-0.466318 	0.466318 	-2.43897e-17 	0.486469 	0.41663 	-2.69761e-20
-0.548534 	0.548534 	-2.57828e-17 	0.664864 	0.477281 	-1.35225e-21
-0.614278 	0.614278 	-5.55112e-18 	0.773534 	0.466634 	1.92325e-19
-0.660386 	0.660386 	-7.63278e-18 	0.799392 	0.472798 	3.40641e-20
