/*--------------------------------*- C++ -*----------------------------------*\
  =========                 |
  \\      /  F ield         | OpenFOAM: The Open Source CFD Toolbox
   \\    /   O peration     | Website:  https://openfoam.org
    \\  /    A nd           | Version:  7
     \\/     M anipulation  |
\*---------------------------------------------------------------------------*/
FoamFile
{
    version     2.0;
    format      ascii;
    class       volScalarField;
    location    "15";
    object      p;
}
// * * * * * * * * * * * * * * * * * * * * * * * * * * * * * * * * * * * * * //

dimensions      [0 2 -2 0 0 0 0];

internalField   nonuniform List<scalar> 
48400
(
-0.304991
-0.30798
-0.308714
-0.309799
-0.310526
-0.311252
-0.311926
-0.312587
-0.31323
-0.313853
-0.314452
-0.315022
-0.31556
-0.316064
-0.316534
-0.316969
-0.317371
-0.317742
-0.318082
-0.318394
-0.318681
-0.318944
-0.319184
-0.319402
-0.319598
-0.319771
-0.319917
-0.320032
-0.320108
-0.320138
-0.320109
-0.320007
-0.319818
-0.319523
-0.319106
-0.318556
-0.317869
-0.317035
-0.316051
-0.31505
-0.305066
-0.30804
-0.308772
-0.309853
-0.310577
-0.3113
-0.311973
-0.312632
-0.313274
-0.313896
-0.314494
-0.315063
-0.3156
-0.316103
-0.316572
-0.317007
-0.317408
-0.317778
-0.318118
-0.31843
-0.318717
-0.318979
-0.31922
-0.319438
-0.319635
-0.319809
-0.319957
-0.320075
-0.320155
-0.320189
-0.320165
-0.32007
-0.319886
-0.319597
-0.319186
-0.318638
-0.31795
-0.317113
-0.316106
-0.315081
-0.305214
-0.308162
-0.308887
-0.309959
-0.310678
-0.311396
-0.312065
-0.312722
-0.313361
-0.31398
-0.314576
-0.315143
-0.315678
-0.31618
-0.316648
-0.317081
-0.317481
-0.31785
-0.318189
-0.3185
-0.318786
-0.319048
-0.319289
-0.319509
-0.319707
-0.319884
-0.320036
-0.320158
-0.320245
-0.320288
-0.320273
-0.320189
-0.320017
-0.31974
-0.319338
-0.318794
-0.318105
-0.317262
-0.316215
-0.315128
-0.305435
-0.308342
-0.309059
-0.310117
-0.310829
-0.31154
-0.312203
-0.312854
-0.313489
-0.314105
-0.314698
-0.315262
-0.315795
-0.316294
-0.316759
-0.31719
-0.317588
-0.317955
-0.318292
-0.318601
-0.318886
-0.319148
-0.319389
-0.319609
-0.31981
-0.319989
-0.320146
-0.320275
-0.320371
-0.320424
-0.320423
-0.320354
-0.320199
-0.319938
-0.319549
-0.319012
-0.31832
-0.31747
-0.31638
-0.315164
-0.305726
-0.308581
-0.309286
-0.310327
-0.311027
-0.311729
-0.312384
-0.313029
-0.313658
-0.314269
-0.314856
-0.315416
-0.315945
-0.316441
-0.316903
-0.31733
-0.317725
-0.318089
-0.318423
-0.31873
-0.319013
-0.319273
-0.319513
-0.319734
-0.319936
-0.320119
-0.32028
-0.320417
-0.320522
-0.320588
-0.320602
-0.32055
-0.320413
-0.320172
-0.3198
-0.319273
-0.318575
-0.317717
-0.316603
-0.315154
-0.306087
-0.308877
-0.309566
-0.310586
-0.311272
-0.311961
-0.312606
-0.313243
-0.313864
-0.314468
-0.31505
-0.315604
-0.316128
-0.316618
-0.317075
-0.317498
-0.317889
-0.318248
-0.318578
-0.318882
-0.319161
-0.319419
-0.319656
-0.319876
-0.320079
-0.320263
-0.320429
-0.320572
-0.320686
-0.320763
-0.320793
-0.320758
-0.320641
-0.32042
-0.320066
-0.319552
-0.31885
-0.317975
-0.316889
-0.31506
-0.306514
-0.309228
-0.309899
-0.310892
-0.311561
-0.312235
-0.312868
-0.313493
-0.314105
-0.3147
-0.315274
-0.315821
-0.316338
-0.316822
-0.317272
-0.317689
-0.318073
-0.318427
-0.318751
-0.319049
-0.319324
-0.319577
-0.319811
-0.320028
-0.320229
-0.320414
-0.320581
-0.320728
-0.32085
-0.320937
-0.320979
-0.32096
-0.320861
-0.320657
-0.320323
-0.319822
-0.319117
-0.318206
-0.317259
-0.314802
-0.307004
-0.309632
-0.310281
-0.311243
-0.311893
-0.312548
-0.313165
-0.313777
-0.314377
-0.314962
-0.315526
-0.316063
-0.316571
-0.317047
-0.317489
-0.317898
-0.318274
-0.31862
-0.318936
-0.319227
-0.319494
-0.31974
-0.319969
-0.32018
-0.320377
-0.320559
-0.320726
-0.320874
-0.320999
-0.321093
-0.321143
-0.321135
-0.32105
-0.320861
-0.320541
-0.320054
-0.319353
-0.318378
-0.317734
-0.314263
-0.307554
-0.310085
-0.31071
-0.311637
-0.312263
-0.312897
-0.313496
-0.314091
-0.314677
-0.315248
-0.3158
-0.316326
-0.316823
-0.317288
-0.31772
-0.318119
-0.318485
-0.31882
-0.319127
-0.319408
-0.319665
-0.319902
-0.320121
-0.320325
-0.320515
-0.320691
-0.320853
-0.320999
-0.321122
-0.321216
-0.32127
-0.321268
-0.321189
-0.321009
-0.320698
-0.320215
-0.319534
-0.318505
-0.317809
-0.314413
-0.30816
-0.310587
-0.311183
-0.312071
-0.31267
-0.313279
-0.313856
-0.314432
-0.315
-0.315556
-0.316093
-0.316605
-0.317088
-0.31754
-0.317959
-0.318345
-0.318699
-0.319022
-0.319316
-0.319584
-0.31983
-0.320054
-0.320262
-0.320454
-0.320633
-0.320799
-0.320952
-0.32109
-0.321207
-0.321296
-0.321346
-0.321341
-0.321262
-0.321081
-0.320771
-0.320283
-0.319618
-0.318549
-0.317859
-0.314277
-0.308819
-0.311133
-0.311698
-0.312542
-0.31311
-0.313689
-0.314242
-0.314795
-0.315343
-0.315879
-0.316399
-0.316894
-0.317362
-0.317798
-0.318202
-0.318572
-0.318911
-0.319218
-0.319497
-0.31975
-0.31998
-0.32019
-0.320382
-0.320559
-0.320724
-0.320876
-0.321015
-0.32114
-0.321245
-0.321322
-0.321361
-0.321345
-0.321256
-0.321062
-0.320747
-0.320234
-0.319586
-0.318428
-0.317847
-0.313952
-0.309527
-0.311721
-0.312252
-0.313047
-0.31358
-0.314126
-0.31465
-0.315177
-0.3157
-0.316214
-0.316713
-0.317189
-0.317637
-0.318055
-0.31844
-0.318793
-0.319114
-0.319403
-0.319664
-0.319899
-0.320111
-0.320302
-0.320476
-0.320634
-0.32078
-0.320914
-0.321035
-0.321141
-0.321227
-0.321286
-0.321305
-0.321269
-0.321159
-0.320941
-0.320607
-0.320051
-0.319421
-0.318123
-0.317705
-0.313446
-0.310279
-0.312348
-0.312841
-0.313583
-0.314076
-0.314586
-0.315076
-0.315572
-0.316068
-0.316556
-0.31703
-0.317483
-0.317909
-0.318306
-0.31867
-0.319002
-0.319302
-0.319571
-0.319811
-0.320025
-0.320215
-0.320384
-0.320536
-0.320673
-0.320796
-0.320907
-0.321005
-0.321087
-0.321148
-0.32118
-0.321172
-0.321105
-0.320964
-0.320706
-0.320345
-0.319718
-0.319106
-0.317618
-0.317383
-0.312733
-0.311071
-0.313011
-0.313463
-0.314147
-0.314597
-0.315064
-0.315516
-0.315978
-0.316441
-0.3169
-0.317346
-0.317772
-0.318173
-0.318545
-0.318886
-0.319194
-0.31947
-0.319715
-0.319932
-0.320121
-0.320287
-0.320432
-0.320559
-0.32067
-0.320767
-0.320851
-0.320921
-0.320973
-0.321002
-0.321
-0.320955
-0.320847
-0.320664
-0.320349
-0.319948
-0.319222
-0.318621
-0.316899
-0.316835
-0.311802
-0.3119
-0.313707
-0.314114
-0.314737
-0.315137
-0.315557
-0.315967
-0.316389
-0.316816
-0.317241
-0.317655
-0.318052
-0.318424
-0.318768
-0.319081
-0.319363
-0.319613
-0.319832
-0.320021
-0.320185
-0.320323
-0.320441
-0.32054
-0.320622
-0.320689
-0.320741
-0.320777
-0.320794
-0.320785
-0.32074
-0.320648
-0.320486
-0.320247
-0.319858
-0.319402
-0.318548
-0.317942
-0.315958
-0.316014
-0.310644
-0.312762
-0.314434
-0.314793
-0.315348
-0.315695
-0.316062
-0.316424
-0.316802
-0.317188
-0.317575
-0.317954
-0.318316
-0.318656
-0.318969
-0.319253
-0.319505
-0.319725
-0.319915
-0.320076
-0.32021
-0.320319
-0.320406
-0.320474
-0.320524
-0.320557
-0.320573
-0.32057
-0.320544
-0.320488
-0.320391
-0.320241
-0.320012
-0.319701
-0.319217
-0.318687
-0.317679
-0.317036
-0.314783
-0.314874
-0.309251
-0.313653
-0.315188
-0.315495
-0.315979
-0.316267
-0.316576
-0.316885
-0.317213
-0.317553
-0.317898
-0.318237
-0.318562
-0.318866
-0.319145
-0.319395
-0.319615
-0.319804
-0.319962
-0.320092
-0.320194
-0.320271
-0.320325
-0.320358
-0.320372
-0.320367
-0.320341
-0.320293
-0.320217
-0.320105
-0.319944
-0.319723
-0.319408
-0.319008
-0.318406
-0.317775
-0.316593
-0.315866
-0.313358
-0.313369
-0.307607
-0.31457
-0.315968
-0.31622
-0.316627
-0.31685
-0.317096
-0.317346
-0.317619
-0.317908
-0.318205
-0.3185
-0.318784
-0.31905
-0.319291
-0.319506
-0.319691
-0.319845
-0.31997
-0.320066
-0.320134
-0.320176
-0.320194
-0.32019
-0.320163
-0.320114
-0.320041
-0.31994
-0.319804
-0.319624
-0.319386
-0.319075
-0.318657
-0.318143
-0.317402
-0.316636
-0.315265
-0.314391
-0.311662
-0.311464
-0.305684
-0.31551
-0.316771
-0.316964
-0.31729
-0.317443
-0.317619
-0.317804
-0.318017
-0.31825
-0.318495
-0.318742
-0.318981
-0.319204
-0.319405
-0.319581
-0.319728
-0.319847
-0.319935
-0.319995
-0.320026
-0.320031
-0.32001
-0.319964
-0.319892
-0.319793
-0.319665
-0.319501
-0.319293
-0.319031
-0.318697
-0.318278
-0.317734
-0.31708
-0.316175
-0.315236
-0.313666
-0.312578
-0.309669
-0.30914
-0.303451
-0.316471
-0.317596
-0.317726
-0.317966
-0.318042
-0.318143
-0.318257
-0.318404
-0.318575
-0.318764
-0.318958
-0.319148
-0.319325
-0.319484
-0.319618
-0.319726
-0.319806
-0.319856
-0.319877
-0.31987
-0.319834
-0.319769
-0.319676
-0.319553
-0.319397
-0.319203
-0.318964
-0.31867
-0.318308
-0.317859
-0.317307
-0.316612
-0.315788
-0.314695
-0.313545
-0.311768
-0.310405
-0.307356
-0.3064
-0.300873
-0.31745
-0.318441
-0.318504
-0.318653
-0.318647
-0.318666
-0.318703
-0.318777
-0.318882
-0.319009
-0.319147
-0.319284
-0.319413
-0.319525
-0.319617
-0.319683
-0.319721
-0.319731
-0.319711
-0.319661
-0.31958
-0.319468
-0.319322
-0.319139
-0.318915
-0.318643
-0.318314
-0.317915
-0.317433
-0.316845
-0.316135
-0.315263
-0.314239
-0.312933
-0.311537
-0.309549
-0.307869
-0.304707
-0.303272
-0.297948
-0.318446
-0.319305
-0.319297
-0.31935
-0.319256
-0.319186
-0.31914
-0.319136
-0.31917
-0.31923
-0.319307
-0.319389
-0.319465
-0.319529
-0.319574
-0.319596
-0.319592
-0.319559
-0.319495
-0.319398
-0.319268
-0.319101
-0.318893
-0.31864
-0.318336
-0.31797
-0.317533
-0.317009
-0.316382
-0.31563
-0.314735
-0.313658
-0.312406
-0.310869
-0.309203
-0.306998
-0.304983
-0.301725
-0.299806
-0.2947
-0.319458
-0.320189
-0.320105
-0.320057
-0.319867
-0.319703
-0.319567
-0.31948
-0.319436
-0.319426
-0.319438
-0.31946
-0.319482
-0.319495
-0.319492
-0.319467
-0.319417
-0.319338
-0.319226
-0.319078
-0.318892
-0.318661
-0.318382
-0.318046
-0.317646
-0.317168
-0.316601
-0.315928
-0.315131
-0.314188
-0.313081
-0.311775
-0.310275
-0.30849
-0.306543
-0.30412
-0.30178
-0.298435
-0.296065
-0.291167
-0.320486
-0.321091
-0.320928
-0.320773
-0.320482
-0.320216
-0.319984
-0.319807
-0.31968
-0.319595
-0.319539
-0.319498
-0.319463
-0.319422
-0.319369
-0.319295
-0.319196
-0.319067
-0.318902
-0.318697
-0.318446
-0.318143
-0.317778
-0.317344
-0.316828
-0.316217
-0.315496
-0.314649
-0.313656
-0.312497
-0.311156
-0.309602
-0.307839
-0.305799
-0.303575
-0.300939
-0.298302
-0.294876
-0.292116
-0.2874
-0.321531
-0.322011
-0.321764
-0.321497
-0.321099
-0.320725
-0.32039
-0.320118
-0.319904
-0.319739
-0.319611
-0.319505
-0.319409
-0.319313
-0.319206
-0.319081
-0.318929
-0.318746
-0.318522
-0.318251
-0.317925
-0.317535
-0.317069
-0.316517
-0.315864
-0.315096
-0.314197
-0.313149
-0.311937
-0.31054
-0.308948
-0.307134
-0.305107
-0.302815
-0.30033
-0.297495
-0.294603
-0.291106
-0.28803
-0.283463
-0.322593
-0.322952
-0.322616
-0.322232
-0.321719
-0.32123
-0.320787
-0.320414
-0.320108
-0.319859
-0.319655
-0.319481
-0.319322
-0.319167
-0.319005
-0.318824
-0.318616
-0.318371
-0.31808
-0.317733
-0.317319
-0.316826
-0.31624
-0.315549
-0.314736
-0.313786
-0.312683
-0.311413
-0.30996
-0.308311
-0.306458
-0.304384
-0.302099
-0.299567
-0.296849
-0.293836
-0.290739
-0.287184
-0.283875
-0.279422
-0.323674
-0.323914
-0.323485
-0.322977
-0.322343
-0.321733
-0.321176
-0.320696
-0.320293
-0.319957
-0.319674
-0.319429
-0.319205
-0.318988
-0.318766
-0.318526
-0.318255
-0.317942
-0.317573
-0.317137
-0.316619
-0.316004
-0.315277
-0.314422
-0.313424
-0.312268
-0.31094
-0.309427
-0.307722
-0.305813
-0.3037
-0.301373
-0.298847
-0.296099
-0.293181
-0.290016
-0.286763
-0.28316
-0.2797
-0.275411
-0.324777
-0.324899
-0.324371
-0.323734
-0.322973
-0.322236
-0.321558
-0.320967
-0.320463
-0.320036
-0.319671
-0.319351
-0.319059
-0.318777
-0.318492
-0.318186
-0.317845
-0.317453
-0.316995
-0.316454
-0.315812
-0.315054
-0.314162
-0.31312
-0.311913
-0.310529
-0.308957
-0.307191
-0.305226
-0.303059
-0.300696
-0.298134
-0.295393
-0.292456
-0.289374
-0.286086
-0.282722
-0.279085
-0.275524
-0.271287
-0.325905
-0.325909
-0.325277
-0.324506
-0.323611
-0.32274
-0.321937
-0.32123
-0.32062
-0.320098
-0.319648
-0.319251
-0.318887
-0.318537
-0.318183
-0.317805
-0.317384
-0.316901
-0.316337
-0.315672
-0.314887
-0.313962
-0.31288
-0.311627
-0.31019
-0.308561
-0.306734
-0.304708
-0.302487
-0.300073
-0.297479
-0.294706
-0.291779
-0.288685
-0.285474
-0.282093
-0.278654
-0.274994
-0.271374
-0.267182
-0.327062
-0.326948
-0.326206
-0.325294
-0.324259
-0.323248
-0.322314
-0.321487
-0.320768
-0.320148
-0.31961
-0.319133
-0.318694
-0.318271
-0.31784
-0.317381
-0.316868
-0.31628
-0.315592
-0.314782
-0.313828
-0.312712
-0.311418
-0.309933
-0.308248
-0.306363
-0.304276
-0.301995
-0.299529
-0.296887
-0.294085
-0.29113
-0.288048
-0.284828
-0.281521
-0.278072
-0.274589
-0.270917
-0.267272
-0.263123
-0.328252
-0.328017
-0.327162
-0.326102
-0.32492
-0.323765
-0.322695
-0.321742
-0.320911
-0.320191
-0.319562
-0.319
-0.318482
-0.317979
-0.317465
-0.316912
-0.316293
-0.315581
-0.314748
-0.31377
-0.312625
-0.311294
-0.309765
-0.30803
-0.306088
-0.303942
-0.3016
-0.299075
-0.296381
-0.293534
-0.290552
-0.287445
-0.284239
-0.280923
-0.277546
-0.274051
-0.270548
-0.266873
-0.263233
-0.259116
-0.32948
-0.32912
-0.328147
-0.326932
-0.325598
-0.324293
-0.323082
-0.322001
-0.321054
-0.32023
-0.319506
-0.318857
-0.318253
-0.317663
-0.317055
-0.316396
-0.315653
-0.314796
-0.313795
-0.312625
-0.311263
-0.309696
-0.307916
-0.305921
-0.303716
-0.301312
-0.298726
-0.295974
-0.293077
-0.290051
-0.286918
-0.283688
-0.280384
-0.276997
-0.273573
-0.27005
-0.266544
-0.262875
-0.259263
-0.255177
-0.330753
-0.330263
-0.329166
-0.327789
-0.326298
-0.324837
-0.323482
-0.322269
-0.321203
-0.320271
-0.31945
-0.318708
-0.318012
-0.317325
-0.316609
-0.315827
-0.314941
-0.313916
-0.312723
-0.311335
-0.309736
-0.307914
-0.30587
-0.303609
-0.301145
-0.298495
-0.295681
-0.292725
-0.289648
-0.286472
-0.283214
-0.279887
-0.276508
-0.273071
-0.269615
-0.266081
-0.262585
-0.258929
-0.255364
-0.251312
-0.332075
-0.33145
-0.330222
-0.328677
-0.327022
-0.325401
-0.323898
-0.322549
-0.321362
-0.32032
-0.319396
-0.318556
-0.317759
-0.316963
-0.316125
-0.3152
-0.314148
-0.312931
-0.31152
-0.309892
-0.308036
-0.305947
-0.303633
-0.301108
-0.298393
-0.295513
-0.292492
-0.289356
-0.286128
-0.282826
-0.279468
-0.276065
-0.27263
-0.269159
-0.265684
-0.26215
-0.258671
-0.255037
-0.251537
-0.247521
-0.333455
-0.332685
-0.33132
-0.329601
-0.327777
-0.325991
-0.324336
-0.322849
-0.321537
-0.320381
-0.31935
-0.318404
-0.317496
-0.316577
-0.315597
-0.314507
-0.313264
-0.311831
-0.310178
-0.30829
-0.306162
-0.303798
-0.301215
-0.298435
-0.295485
-0.292394
-0.28919
-0.285899
-0.282542
-0.279138
-0.2757
-0.272239
-0.268762
-0.26527
-0.261784
-0.25826
-0.254802
-0.251199
-0.247777
-0.243799
-0.3349
-0.333973
-0.332465
-0.330565
-0.328567
-0.326612
-0.324802
-0.323174
-0.321734
-0.32046
-0.319316
-0.318254
-0.317221
-0.316162
-0.315019
-0.313741
-0.312282
-0.310606
-0.308691
-0.306526
-0.304117
-0.301477
-0.298631
-0.295609
-0.292443
-0.289163
-0.2858
-0.282377
-0.278914
-0.275427
-0.271927
-0.268421
-0.264914
-0.261408
-0.257914
-0.254408
-0.250971
-0.247413
-0.244082
-0.240148
-0.336417
-0.33532
-0.333662
-0.331574
-0.329397
-0.32727
-0.325302
-0.32353
-0.321959
-0.320561
-0.319296
-0.318107
-0.316934
-0.315715
-0.314386
-0.312893
-0.311192
-0.309251
-0.307054
-0.304602
-0.301908
-0.298997
-0.2959
-0.292653
-0.289291
-0.285846
-0.282345
-0.278812
-0.275262
-0.271708
-0.268159
-0.264619
-0.261089
-0.257574
-0.254075
-0.250588
-0.247164
-0.243669
-0.240436
-0.236571
-0.33801
-0.336732
-0.334918
-0.332633
-0.330274
-0.32797
-0.325841
-0.323923
-0.322216
-0.32069
-0.319293
-0.317964
-0.316633
-0.31523
-0.31369
-0.311956
-0.309988
-0.30776
-0.305269
-0.302523
-0.299546
-0.296373
-0.293042
-0.28959
-0.286053
-0.282463
-0.278846
-0.27522
-0.271599
-0.267992
-0.264403
-0.260836
-0.25729
-0.253769
-0.250266
-0.246794
-0.243368
-0.239938
-0.23678
-0.233055
-0.339689
-0.338215
-0.336237
-0.33375
-0.331202
-0.32872
-0.326427
-0.32436
-0.322512
-0.320848
-0.319309
-0.317823
-0.316312
-0.314701
-0.312922
-0.310921
-0.308662
-0.306133
-0.303337
-0.300297
-0.297046
-0.293625
-0.290076
-0.286439
-0.282749
-0.279035
-0.275318
-0.271615
-0.267934
-0.264284
-0.260663
-0.257077
-0.253517
-0.249993
-0.246487
-0.243025
-0.23958
-0.23619
-0.232996
-0.229515
-0.341467
-0.339774
-0.337625
-0.334927
-0.332186
-0.329521
-0.327062
-0.324841
-0.322847
-0.321036
-0.31934
-0.317677
-0.315963
-0.314117
-0.312072
-0.309779
-0.307211
-0.304368
-0.301264
-0.297935
-0.294421
-0.290769
-0.287022
-0.28322
-0.279396
-0.275574
-0.271773
-0.268005
-0.264276
-0.260589
-0.256944
-0.25334
-0.249773
-0.246244
-0.242739
-0.239281
-0.235819
-0.232433
-0.229037
-0.225691
-0.343361
-0.341421
-0.339087
-0.336165
-0.333225
-0.330372
-0.327742
-0.325362
-0.323214
-0.321245
-0.319375
-0.317515
-0.315573
-0.313465
-0.311128
-0.308521
-0.305631
-0.302467
-0.299059
-0.29545
-0.291688
-0.287823
-0.283898
-0.27995
-0.276008
-0.272094
-0.268221
-0.264397
-0.260627
-0.25691
-0.253244
-0.249628
-0.246054
-0.242524
-0.239021
-0.235565
-0.232099
-0.228709
-0.225157
-0.221574
-0.34535
-0.34315
-0.34063
-0.337482
-0.334341
-0.331298
-0.328495
-0.325951
-0.323641
-0.321499
-0.319436
-0.317353
-0.315153
-0.312755
-0.3101
-0.307159
-0.303933
-0.300445
-0.296738
-0.29286
-0.288867
-0.284806
-0.28072
-0.276642
-0.272597
-0.268602
-0.264666
-0.260795
-0.256989
-0.253246
-0.249564
-0.245938
-0.24236
-0.238832
-0.235333
-0.231882
-0.22842
-0.225014
-0.221448
-0.217957
-0.347449
-0.344971
-0.342261
-0.338879
-0.335534
-0.332298
-0.329319
-0.326603
-0.324119
-0.321788
-0.319509
-0.317175
-0.314688
-0.31197
-0.308973
-0.305683
-0.302115
-0.298306
-0.294308
-0.290177
-0.285968
-0.281729
-0.277499
-0.273305
-0.26917
-0.265103
-0.261112
-0.257199
-0.253362
-0.249598
-0.245902
-0.242268
-0.23869
-0.235165
-0.231675
-0.228233
-0.224782
-0.221386
-0.217853
-0.214436
-0.349672
-0.346892
-0.343984
-0.340361
-0.336807
-0.333375
-0.330212
-0.327318
-0.324646
-0.322105
-0.319584
-0.316971
-0.314167
-0.311103
-0.307745
-0.304095
-0.300182
-0.296058
-0.291782
-0.287413
-0.283006
-0.278605
-0.274245
-0.269948
-0.265731
-0.261601
-0.257562
-0.253611
-0.249747
-0.245964
-0.242256
-0.238618
-0.235041
-0.231522
-0.228044
-0.224616
-0.221186
-0.217816
-0.214333
-0.211017
-0.352025
-0.348918
-0.345805
-0.341932
-0.338166
-0.334532
-0.331181
-0.328097
-0.325221
-0.322447
-0.319657
-0.316733
-0.313582
-0.310148
-0.306413
-0.302395
-0.298142
-0.293712
-0.289172
-0.284581
-0.279992
-0.275444
-0.270966
-0.266576
-0.262286
-0.258098
-0.254014
-0.250031
-0.246142
-0.242343
-0.238626
-0.234985
-0.231411
-0.227901
-0.224438
-0.22103
-0.217629
-0.214296
-0.210875
-0.207645
-0.354515
-0.351054
-0.347729
-0.343599
-0.339616
-0.335776
-0.332229
-0.328942
-0.325842
-0.32281
-0.319719
-0.316453
-0.312927
-0.309101
-0.304977
-0.30059
-0.296001
-0.291278
-0.286488
-0.281691
-0.276934
-0.272252
-0.267666
-0.263192
-0.258835
-0.254595
-0.25047
-0.246456
-0.242545
-0.238732
-0.235008
-0.231366
-0.227799
-0.2243
-0.220856
-0.217472
-0.214105
-0.210815
-0.207457
-0.204308
-0.357146
-0.353306
-0.349763
-0.345366
-0.341162
-0.33711
-0.333357
-0.329852
-0.326506
-0.323187
-0.319763
-0.316122
-0.312195
-0.307959
-0.303438
-0.298684
-0.293768
-0.288765
-0.283741
-0.278752
-0.273841
-0.269035
-0.264351
-0.259798
-0.255379
-0.25109
-0.246928
-0.242885
-0.238955
-0.235129
-0.2314
-0.22776
-0.2242
-0.220716
-0.217292
-0.213936
-0.210607
-0.207364
-0.20407
-0.200995
-0.359926
-0.355678
-0.35191
-0.34724
-0.34281
-0.338539
-0.334568
-0.330826
-0.327208
-0.32357
-0.319779
-0.315733
-0.31138
-0.306721
-0.301798
-0.296682
-0.291451
-0.286181
-0.280938
-0.275771
-0.270717
-0.265796
-0.261021
-0.256395
-0.251918
-0.247584
-0.243386
-0.239318
-0.235369
-0.231533
-0.2278
-0.224163
-0.220613
-0.217145
-0.213745
-0.210419
-0.20713
-0.203936
-0.200705
-0.1977
-0.362859
-0.358176
-0.354177
-0.349225
-0.344563
-0.340064
-0.335862
-0.331862
-0.327942
-0.323951
-0.319757
-0.315276
-0.310477
-0.305384
-0.300062
-0.294591
-0.289057
-0.283535
-0.278086
-0.272753
-0.267565
-0.262537
-0.257677
-0.252983
-0.24845
-0.244073
-0.239843
-0.23575
-0.231785
-0.22794
-0.224206
-0.220573
-0.217035
-0.213585
-0.21021
-0.206916
-0.203669
-0.200523
-0.197354
-0.194416
-0.36595
-0.360803
-0.356569
-0.351326
-0.346426
-0.341689
-0.337238
-0.332955
-0.3287
-0.324319
-0.319689
-0.314744
-0.309482
-0.303951
-0.298232
-0.292418
-0.286594
-0.280833
-0.27519
-0.269702
-0.264389
-0.25926
-0.254319
-0.24956
-0.244976
-0.240558
-0.236296
-0.23218
-0.228201
-0.224349
-0.220614
-0.216988
-0.213462
-0.210031
-0.206683
-0.203422
-0.200218
-0.197121
-0.194013
-0.191139
-0.369202
-0.363565
-0.359088
-0.353547
-0.348403
-0.343415
-0.338695
-0.334099
-0.329473
-0.324664
-0.319563
-0.314131
-0.308393
-0.302422
-0.296313
-0.290166
-0.284065
-0.278079
-0.272254
-0.266619
-0.261188
-0.255964
-0.250946
-0.246125
-0.241491
-0.237034
-0.232743
-0.228606
-0.224614
-0.220756
-0.217022
-0.213403
-0.209892
-0.206482
-0.203162
-0.199935
-0.196774
-0.193725
-0.190676
-0.187864
-0.372618
-0.366463
-0.361741
-0.355893
-0.350496
-0.345242
-0.340229
-0.335287
-0.330252
-0.324975
-0.319372
-0.313432
-0.307209
-0.300799
-0.294309
-0.287841
-0.281477
-0.275278
-0.26928
-0.263506
-0.257963
-0.252649
-0.247556
-0.242676
-0.237995
-0.233501
-0.229182
-0.225026
-0.221022
-0.217159
-0.213427
-0.209818
-0.206322
-0.202934
-0.199642
-0.19645
-0.193332
-0.190331
-0.18734
-0.184587
-0.376202
-0.369502
-0.36453
-0.358366
-0.352706
-0.347169
-0.341836
-0.33651
-0.331024
-0.325242
-0.319106
-0.31264
-0.305928
-0.299084
-0.292223
-0.285447
-0.278833
-0.27243
-0.26627
-0.260363
-0.254713
-0.249312
-0.244149
-0.239211
-0.234484
-0.229955
-0.22561
-0.221436
-0.217421
-0.213555
-0.209827
-0.206228
-0.202749
-0.199383
-0.196121
-0.192964
-0.189889
-0.186934
-0.184
-0.181305
-0.379954
-0.372685
-0.367459
-0.360971
-0.355036
-0.349194
-0.343508
-0.337759
-0.331778
-0.325452
-0.318757
-0.311752
-0.304549
-0.297278
-0.290059
-0.282988
-0.276134
-0.269538
-0.263222
-0.25719
-0.251437
-0.245952
-0.24072
-0.235727
-0.230957
-0.226394
-0.222025
-0.217834
-0.213811
-0.209943
-0.20622
-0.202632
-0.199171
-0.195828
-0.192596
-0.189473
-0.186441
-0.183532
-0.180653
-0.178014
-0.383876
-0.376013
-0.37053
-0.363708
-0.357485
-0.351312
-0.345238
-0.33902
-0.332501
-0.325595
-0.318317
-0.310765
-0.303073
-0.295384
-0.287818
-0.280464
-0.273382
-0.266602
-0.260137
-0.253984
-0.248132
-0.242566
-0.237269
-0.232223
-0.227411
-0.222817
-0.218424
-0.214219
-0.210188
-0.206319
-0.202603
-0.199027
-0.195584
-0.192265
-0.189063
-0.185976
-0.182985
-0.180122
-0.177297
-0.174712
-0.387967
-0.379488
-0.373745
-0.366579
-0.360051
-0.353519
-0.347015
-0.340282
-0.33318
-0.325659
-0.31778
-0.309675
-0.3015
-0.293403
-0.285502
-0.277878
-0.270577
-0.263621
-0.257013
-0.250743
-0.244796
-0.239152
-0.233792
-0.228695
-0.223844
-0.219219
-0.214805
-0.210586
-0.20655
-0.202682
-0.198973
-0.19541
-0.191986
-0.188693
-0.185521
-0.182468
-0.179519
-0.1767
-0.173928
-0.171395
-0.392227
-0.38311
-0.377106
-0.369583
-0.362731
-0.355807
-0.348827
-0.34153
-0.3338
-0.325635
-0.31714
-0.30848
-0.299829
-0.291336
-0.283113
-0.275229
-0.267719
-0.260594
-0.253848
-0.247466
-0.241427
-0.235708
-0.230287
-0.225142
-0.220252
-0.215599
-0.211166
-0.206936
-0.202895
-0.199029
-0.195328
-0.19178
-0.188376
-0.185107
-0.181966
-0.178948
-0.17604
-0.173264
-0.170543
-0.168061
-0.396652
-0.38688
-0.380611
-0.37272
-0.365521
-0.358165
-0.350661
-0.342748
-0.334349
-0.325512
-0.31639
-0.307178
-0.29806
-0.289184
-0.280651
-0.272517
-0.264806
-0.257518
-0.25064
-0.244149
-0.238021
-0.23223
-0.22675
-0.221559
-0.216634
-0.211955
-0.207504
-0.203264
-0.19922
-0.195358
-0.191667
-0.188134
-0.18475
-0.181507
-0.178396
-0.175413
-0.172545
-0.169812
-0.167142
-0.164708
-0.401239
-0.390795
-0.384261
-0.375987
-0.368412
-0.360583
-0.352502
-0.343921
-0.334812
-0.325282
-0.315527
-0.305766
-0.296192
-0.286946
-0.278114
-0.26974
-0.261837
-0.254392
-0.247386
-0.240791
-0.234577
-0.228716
-0.223181
-0.217945
-0.212987
-0.208284
-0.203817
-0.199569
-0.195524
-0.191667
-0.187986
-0.18447
-0.181107
-0.17789
-0.17481
-0.171862
-0.169033
-0.166342
-0.163721
-0.161335
-0.405983
-0.394853
-0.388051
-0.379377
-0.371397
-0.363047
-0.354332
-0.345032
-0.335177
-0.324935
-0.314544
-0.304244
-0.294225
-0.28462
-0.275501
-0.266898
-0.258808
-0.251213
-0.244083
-0.237387
-0.231091
-0.225163
-0.219575
-0.214298
-0.209308
-0.204584
-0.200103
-0.195849
-0.191804
-0.187953
-0.184285
-0.180785
-0.177445
-0.174254
-0.171205
-0.168291
-0.165502
-0.162851
-0.160278
-0.157938
-0.410878
-0.39905
-0.391978
-0.382886
-0.374464
-0.36554
-0.356133
-0.346064
-0.335432
-0.324464
-0.313439
-0.302607
-0.292158
-0.282207
-0.272811
-0.263986
-0.255717
-0.247977
-0.240728
-0.233935
-0.22756
-0.221569
-0.21593
-0.210614
-0.205596
-0.200852
-0.19636
-0.192101
-0.188058
-0.184216
-0.18056
-0.177079
-0.173761
-0.170598
-0.167579
-0.1647
-0.16195
-0.159339
-0.156812
-0.154516
-0.415916
-0.403381
-0.396035
-0.386503
-0.377599
-0.368044
-0.357886
-0.347001
-0.335562
-0.323861
-0.312205
-0.300855
-0.289987
-0.279702
-0.270041
-0.261003
-0.252562
-0.244681
-0.237318
-0.230431
-0.223981
-0.217929
-0.212243
-0.206892
-0.201848
-0.197086
-0.192585
-0.188324
-0.184285
-0.180452
-0.176811
-0.173349
-0.170055
-0.166919
-0.163932
-0.161086
-0.158375
-0.155803
-0.153322
-0.151069
-0.421085
-0.407839
-0.400215
-0.390218
-0.380786
-0.37054
-0.359571
-0.347825
-0.335558
-0.323118
-0.31084
-0.298983
-0.287711
-0.277105
-0.267188
-0.257944
-0.249337
-0.241321
-0.233849
-0.226873
-0.220351
-0.214243
-0.208512
-0.203128
-0.198061
-0.193285
-0.188777
-0.184516
-0.180482
-0.176661
-0.173036
-0.169594
-0.166325
-0.163216
-0.16026
-0.157449
-0.154775
-0.152242
-0.149806
-0.147594
-0.426376
-0.412414
-0.404507
-0.394017
-0.384007
-0.373006
-0.361167
-0.34852
-0.335407
-0.322229
-0.309339
-0.296989
-0.285326
-0.274411
-0.264248
-0.254807
-0.24604
-0.237895
-0.230317
-0.223257
-0.216667
-0.210506
-0.204735
-0.199322
-0.194234
-0.189447
-0.184934
-0.180674
-0.176649
-0.17284
-0.169233
-0.165813
-0.162568
-0.159488
-0.156564
-0.153788
-0.151151
-0.148655
-0.146264
-0.144091
-0.431773
-0.417097
-0.408899
-0.397885
-0.387241
-0.37542
-0.362653
-0.349071
-0.335099
-0.321187
-0.307696
-0.294869
-0.282829
-0.271617
-0.261218
-0.251587
-0.242668
-0.234398
-0.226721
-0.21958
-0.212927
-0.206716
-0.200909
-0.195469
-0.190365
-0.185568
-0.181054
-0.176799
-0.172783
-0.168989
-0.165401
-0.162003
-0.158785
-0.155734
-0.152842
-0.1501
-0.1475
-0.145042
-0.142693
-0.140558
-0.437262
-0.421875
-0.413377
-0.401802
-0.390465
-0.377756
-0.364008
-0.349461
-0.334624
-0.319985
-0.305909
-0.292619
-0.280216
-0.268719
-0.258093
-0.248281
-0.239215
-0.230827
-0.223055
-0.215839
-0.209127
-0.202871
-0.197031
-0.191569
-0.186451
-0.181648
-0.177135
-0.172887
-0.168883
-0.165106
-0.161538
-0.158165
-0.154973
-0.151953
-0.149093
-0.146385
-0.143822
-0.141401
-0.139094
-0.136996
-0.442823
-0.426732
-0.417922
-0.405748
-0.393653
-0.379989
-0.365211
-0.349675
-0.333971
-0.318616
-0.30397
-0.290234
-0.277484
-0.265712
-0.254869
-0.244883
-0.235678
-0.227179
-0.219317
-0.212031
-0.205265
-0.198969
-0.1931
-0.187618
-0.18249
-0.177685
-0.173176
-0.168937
-0.164948
-0.161189
-0.157643
-0.154296
-0.151133
-0.148143
-0.145316
-0.142643
-0.140116
-0.137732
-0.135467
-0.133404
-0.448439
-0.431652
-0.422516
-0.409699
-0.396779
-0.382094
-0.366242
-0.3497
-0.333131
-0.317074
-0.301876
-0.287711
-0.274626
-0.262593
-0.251542
-0.241391
-0.232053
-0.223449
-0.215504
-0.208153
-0.201338
-0.195006
-0.189112
-0.183616
-0.178482
-0.173677
-0.169175
-0.164948
-0.160976
-0.157237
-0.153716
-0.150395
-0.147262
-0.144304
-0.14151
-0.138872
-0.136382
-0.134034
-0.13181
-0.129781
-0.454085
-0.436616
-0.427136
-0.413628
-0.399814
-0.384045
-0.367079
-0.34952
-0.332095
-0.315353
-0.299621
-0.285044
-0.27164
-0.259356
-0.248108
-0.237799
-0.228337
-0.219634
-0.211612
-0.204203
-0.197343
-0.190981
-0.185067
-0.179561
-0.174424
-0.169623
-0.16513
-0.160919
-0.156966
-0.153251
-0.149755
-0.146463
-0.143361
-0.140435
-0.137676
-0.135073
-0.132619
-0.130307
-0.128123
-0.126128
-0.459737
-0.441602
-0.431758
-0.417508
-0.402728
-0.385815
-0.367705
-0.349123
-0.330853
-0.313445
-0.2972
-0.282228
-0.268518
-0.255997
-0.244561
-0.234105
-0.224526
-0.215731
-0.207639
-0.200176
-0.193279
-0.186891
-0.180962
-0.175449
-0.170314
-0.165521
-0.161042
-0.156849
-0.152917
-0.149227
-0.14576
-0.142498
-0.139428
-0.136536
-0.133811
-0.131245
-0.128827
-0.126552
-0.124407
-0.122444
-0.465369
-0.446586
-0.436355
-0.421307
-0.40549
-0.387378
-0.368098
-0.348495
-0.329397
-0.311344
-0.294605
-0.279257
-0.265257
-0.25251
-0.240898
-0.230302
-0.220615
-0.211737
-0.203581
-0.196072
-0.189142
-0.182734
-0.176795
-0.171281
-0.166151
-0.161371
-0.156908
-0.152736
-0.148829
-0.145167
-0.141729
-0.1385
-0.135463
-0.132606
-0.129917
-0.127387
-0.125007
-0.122767
-0.120662
-0.11873
-0.470953
-0.451542
-0.440896
-0.424994
-0.408068
-0.388709
-0.368242
-0.347625
-0.327718
-0.309043
-0.291833
-0.276126
-0.261851
-0.248891
-0.237113
-0.226389
-0.216601
-0.207647
-0.199436
-0.191887
-0.184932
-0.178509
-0.172565
-0.167054
-0.161934
-0.15717
-0.152727
-0.148579
-0.1447
-0.141068
-0.137663
-0.134468
-0.131466
-0.128646
-0.125994
-0.1235
-0.121157
-0.118954
-0.116887
-0.114986
-0.476456
-0.456442
-0.445351
-0.428534
-0.410431
-0.389783
-0.368119
-0.3465
-0.325806
-0.306534
-0.288875
-0.272829
-0.258295
-0.245135
-0.233203
-0.22236
-0.212482
-0.20346
-0.1952
-0.187619
-0.180644
-0.174213
-0.16827
-0.162767
-0.157662
-0.152917
-0.148499
-0.144379
-0.140531
-0.136932
-0.133561
-0.130402
-0.127437
-0.124654
-0.12204
-0.119585
-0.117279
-0.115113
-0.113084
-0.111213
-0.481847
-0.461255
-0.449685
-0.431891
-0.412547
-0.390575
-0.36771
-0.345108
-0.323655
-0.303812
-0.285727
-0.26936
-0.254584
-0.241238
-0.229163
-0.218211
-0.208252
-0.199172
-0.190872
-0.183266
-0.176278
-0.169845
-0.163909
-0.158419
-0.153334
-0.148613
-0.144223
-0.140134
-0.13632
-0.132756
-0.129423
-0.126301
-0.123376
-0.120632
-0.118057
-0.11564
-0.113372
-0.111244
-0.109253
-0.107411
-0.487089
-0.465949
-0.453862
-0.43503
-0.414383
-0.391061
-0.367002