/*--------------------------------*- C++ -*----------------------------------*\
  =========                 |
  \\      /  F ield         | OpenFOAM: The Open Source CFD Toolbox
   \\    /   O peration     | Website:  https://openfoam.org
    \\  /    A nd           | Version:  7
     \\/     M anipulation  |
\*---------------------------------------------------------------------------*/
FoamFile
{
    version     2.0;
    format      ascii;
    class       surfaceScalarField;
    location    "15";
    object      phi;
}
// * * * * * * * * * * * * * * * * * * * * * * * * * * * * * * * * * * * * * //

dimensions      [0 3 -1 0 0 0 0];

internalField   nonuniform List<scalar> 
96230
(
-4.69295e-06
4.6928e-06
1.5256e-10
-1.56762e-05
1.09828e-05
4.65205e-10
-3.11807e-05
1.55037e-05
7.74866e-10
-4.99104e-05
1.87287e-05
1.06015e-09
-7.09907e-05
2.1079e-05
1.31816e-09
-9.38225e-05
2.28302e-05
1.55268e-09
-0.000118014
2.41897e-05
1.77268e-09
-0.000143319
2.53027e-05
1.98815e-09
-0.000169593
2.62721e-05
2.20805e-09
-0.000196764
2.71682e-05
2.43881e-09
-0.000224805
2.80382e-05
2.68428e-09
-0.000253721
2.89133e-05
2.946e-09
-0.000283538
2.9814e-05
3.22356e-09
-0.000314295
3.07534e-05
3.51498e-09
-0.000346039
3.17401e-05
3.81728e-09
-0.000378823
3.27797e-05
4.12655e-09
-0.000412703
3.38758e-05
4.43793e-09
-0.000447738
3.50304e-05
4.74571e-09
-0.000483987
3.62443e-05
5.0432e-09
-0.000521509
3.75166e-05
5.32278e-09
-0.00056036
3.88452e-05
5.5758e-09
-0.000600592
4.02258e-05
5.79254e-09
-0.00064225
4.16519e-05
5.96234e-09
-0.00068537
4.3114e-05
6.07357e-09
-0.000729975
4.45995e-05
6.11373e-09
-0.000776073
4.6092e-05
6.06963e-09
-0.00082365
4.75708e-05
5.92761e-09
-0.000872666
4.90108e-05
5.67375e-09
-0.000923054
5.03827e-05
5.29422e-09
-0.000974713
5.16538e-05
4.77574e-09
-0.00102751
5.279e-05
4.106e-09
-0.00108127
5.37593e-05
3.27429e-09
-0.00113581
5.45384e-05
2.27207e-09
-0.00119093
5.51218e-05
1.09324e-09
-0.00124647
5.55347e-05
-2.63259e-10
-0.00130232
5.5852e-05
-1.79509e-09
-0.00135854
5.62259e-05
-3.49523e-09
-0.00141537
5.68352e-05
-5.34934e-09
-0.00147318
5.78146e-05
-7.34201e-09
5.99296e-05
-9.45694e-09
-0.0015331
-4.66762e-06
9.36041e-06
-1.55979e-05
2.19131e-05
-3.10292e-05
3.0935e-05
-4.96692e-05
3.73687e-05
-7.06437e-05
4.20535e-05
-9.33526e-05
4.55392e-05
-0.000117402
4.82391e-05
-0.000142543
5.04437e-05
-0.000168628
5.23575e-05
-0.000195581
5.41209e-05
-0.000223371
5.5828e-05
-0.000251998
5.75407e-05
-0.000281484
5.92994e-05
-0.00031186
6.11299e-05
-0.000343169
6.30487e-05
-0.000375456
6.50665e-05
-0.000408769
6.71896e-05
-0.00044316
6.94214e-05
-0.000478679
7.17625e-05
-0.000515373
7.42106e-05
-0.000553288
7.67602e-05
-0.000592464
7.9402e-05
-0.000632934
8.21219e-05
-0.00067472
8.49004e-05
-0.000717832
8.77113e-05
-0.000762261
9.05209e-05
-0.000807977
9.32871e-05
-0.000854926
9.59592e-05
-0.000903021
9.84778e-05
-0.000952143
0.000100776
-0.00100214
0.000102785
-0.00105281
0.000104436
-0.00110395
0.000105678
-0.00115532
0.000106491
-0.0012067
0.000106913
-0.00125793
0.000107075
-0.00130896
0.000107264
-0.00135999
0.000107864
-0.00141132
0.000109139
0.000112436
-0.00146382
-4.61872e-06
1.39791e-05
-1.54447e-05
3.27391e-05
-3.0731e-05
4.62214e-05
-4.91927e-05
5.58303e-05
-6.99566e-05
6.28174e-05
-9.24208e-05
6.80034e-05
-0.000116187
7.20058e-05
-0.000141002
7.52582e-05
-0.000166711
7.80664e-05
-0.000193229
8.06396e-05
-0.000220519
8.31178e-05
-0.000248572
8.55931e-05
-0.000277397
8.81245e-05
-0.000307017
9.07496e-05
-0.00033746
9.34919e-05
-0.000368759
9.63655e-05
-0.000400948
9.93785e-05
-0.00043406
0.000102534
-0.000468128
0.000105831
-0.000503181
0.000109263
-0.000539242
0.000112822
-0.00057633
0.000116489
-0.000614451
0.000120243
-0.000653602
0.000124051
-0.000693764
0.000127873
-0.0007349
0.000131657
-0.000776949
0.000135336
-0.000819824
0.000138835
-0.000863408
0.000142061
-0.000907546
0.000144914
-0.000952046
0.000147285
-0.000996676
0.000149066
-0.00104116
0.000150167
-0.00108521
0.000150539
-0.00112851
0.00015021
-0.00117077
0.000149332
-0.00121179
0.000148287
-0.00125163
0.000147703
-0.00129049
0.000147998
0.000150638
-0.00132869
-4.54686e-06
1.8526e-05
-1.52182e-05
4.34104e-05
-3.02892e-05
6.12924e-05
-4.84854e-05
7.40265e-05
-6.89356e-05
8.32675e-05
-9.1035e-05
9.01029e-05
-0.00011438
9.53507e-05
-0.000138708
9.95861e-05
-0.000163856
0.000103214
-0.000189727
0.000106511
-0.000216273
0.000109663
-0.000243469
0.000112789
-0.000271312
0.000115967
-0.000299807
0.000119245
-0.000328964
0.00012265
-0.000358798
0.000126199
-0.000389319
0.0001299
-0.000420538
0.000133753
-0.00045246
0.000137753
-0.000485088
0.000141891
-0.000518413
0.000146147
-0.00055242
0.000150497
-0.000587083
0.000154905
-0.000622358
0.000159327
-0.000658188
0.000163704
-0.000694494
0.000167963
-0.000731173
0.000172015
-0.000768093
0.000175754
-0.000805089
0.000179058
-0.000841962
0.000181787
-0.00087847
0.000183792
-0.000914324
0.000184921
-0.000949192
0.000185035
-0.000982692
0.000184039
-0.0010144
0.000181923
-0.00104389
0.000178815
-0.00107072
0.000175121
-0.00109474
0.000171719
-0.00111608
0.000169335
0.000168637
-0.00113407
-4.45293e-06
2.29789e-05
-1.49211e-05
5.38786e-05
-2.97084e-05
7.60797e-05
-4.75543e-05
9.18724e-05
-6.759e-05
0.000103303
-8.92072e-05
0.00011172
-0.000111995
0.000118138
-0.000135679
0.000123271
-0.000160085
0.00012762
-0.000185102
0.000131529
-0.000210664
0.000135225
-0.000236732
0.000138857
-0.00026328
0.000142516
-0.000290294
0.000146258
-0.000317761
0.000150117
-0.000345668
0.000154106
-0.000374001
0.000158232
-0.000402739
0.00016249
-0.000431854
0.000166869
-0.000461313
0.000171349
-0.00049107
0.000175903
-0.000521067
0.000180494
-0.000551233
0.000185071
-0.00058148
0.000189574
-0.0006117
0.000193924
-0.000641763
0.000198026
-0.000671513
0.000201765
-0.000700764
0.000205006
-0.000729297
0.000207592
-0.000756857
0.000209347
-0.000783144
0.000210079
-0.000807812
0.000209589
-0.000830461
0.000207684
-0.00085063
0.000204208
-0.000867795
0.000199088
-0.000881362
0.000192382
-0.000890669
0.000184428
-0.000895213
0.000176263
-0.000895176
0.000169298
0.000161932
-0.000888471
-4.33811e-06
2.7317e-05
-1.45569e-05
6.40974e-05
-2.89948e-05
9.05176e-05
-4.64085e-05
0.000109286
-6.5932e-05
0.000122827
-8.6953e-05
0.000132741
-0.000109051
0.000140236
-0.000131939
0.000146159
-0.000155428
0.000151109
-0.00017939
0.000155491
-0.000203738
0.000159574
-0.000228413
0.000163531
-0.000253366
0.000167469
-0.000278557
0.00017145
-0.000303947
0.000175506
-0.000329492
0.000179651
-0.000355144
0.000183884
-0.000380847
0.000188194
-0.000406536
0.000192558
-0.000432134
0.000196947
-0.00045755
0.00020132
-0.000482681
0.000205624
-0.000507403
0.000209794
-0.000531576
0.000213746
-0.000555034
0.000217382
-0.00057759
0.000220582
-0.000599029
0.000223203
-0.000619104
0.000225081
-0.000637537
0.000226025
-0.000654012
0.000225821
-0.00066817
0.000224237
-0.000679606
0.000221025
-0.000687862
0.00021594
-0.000692409
0.000208755
-0.00069264
0.000199319
-0.000687846
0.000187588
-0.000677171
0.000173753
-0.00065963
0.000158722
-0.000635634
0.000145303
0.000127751
-0.000601453
-4.20385e-06
3.15209e-05
-1.41295e-05
7.40231e-05
-2.81558e-05
0.000104544
-4.50589e-05
0.000126189
-6.39765e-05
0.000141744
-8.42912e-05
0.000153056
-0.000105572
0.000161516
-0.000127518
0.000168105
-0.00014992
0.000173512
-0.000172633
0.000178203
-0.000195547
0.000182487
-0.000218576
0.000186561
-0.000241648
0.000190541
-0.000264693
0.000194495
-0.00028764
0.000198452
-0.000310411
0.000202422
-0.000332921
0.000206395
-0.000355076
0.000210348
-0.000376766
0.000214248
-0.000397868
0.00021805
-0.000418244
0.000221696
-0.000437736
0.000225116
-0.000456166
0.000228224
-0.000473336
0.000230915
-0.000489021
0.000233067
-0.000502972
0.000234533
-0.00051491
0.000235142
-0.000524527
0.000234698
-0.000531482
0.00023298
-0.000535397
0.000229736
-0.000535857
0.000224697
-0.000532401
0.00021757
-0.000524521
0.00020806
-0.000511639
0.000195874
-0.0004931
0.000180779
-0.000468121
0.000162609
-0.000435799
0.000141431
-0.000394501
0.000117423
-0.000344962
9.5764e-05
6.56413e-05
-0.000282853
-4.05183e-06
3.55727e-05
-1.3644e-05
8.36152e-05
-2.72e-05
0.0001181
-4.35183e-05
0.000142508
-6.17406e-05
0.000159967
-8.12441e-05
0.000172559
-0.000101585
0.000181857
-0.000122448
0.000188967
-0.000143603
0.000194667
-0.000164881
0.000199481
-0.000186149
0.000203756
-0.000207295
0.000207706
-0.000228215
0.000211461
-0.000248809
0.000215088
-0.00026897
0.000218613
-0.000288584
0.000222037
-0.000307527
0.000225338
-0.000325661
0.000228481
-0.00034283
0.000231417
-0.000358863
0.000234083
-0.000373569
0.000236402
-0.000386736
0.000238283
-0.000398129
0.000239617
-0.00040749
0.000240276
-0.000414533
0.000240111
-0.000418947
0.000238947
-0.000420391
0.000236585
-0.000418492
0.0002328
-0.000412849
0.000227336
-0.000403025
0.000219912
-0.000388549
0.000210221
-0.000368912
0.000197933
-0.000343563
0.00018271
-0.00031189
0.000164202
-0.000273221
0.00014211
-0.000226728
0.000116115
-0.000171647
8.63513e-05
-0.000106269
5.20448e-05
-2.73622e-05
1.68574e-05
-1.97607e-05
5.80398e-05
-3.88397e-06
3.94567e-05
-1.31057e-05
9.2837e-05
-2.61373e-05
0.000131131
-4.18014e-05
0.000158172
-5.9244e-05
0.000177409
-7.78365e-05
0.000191152
-9.71224e-05
0.000201143
-0.000116767
0.000208612
-0.000136521
0.00021442
-0.000156189
0.000219149
-0.000175612
0.000223179
-0.000194648
0.000226742
-0.000213162
0.000229975
-0.000231018
0.000232945
-0.000248075
0.00023567
-0.00026418
0.000238141
-0.000279164
0.000240323
-0.000292845
0.000242163
-0.000305022
0.000243593
-0.000315471
0.000244532
-0.000323949
0.00024488
-0.000330189
0.000244523
-0.000333899
0.000243327
-0.000334761
0.000241138
-0.00033243
0.000237779
-0.000326532
0.000233049
-0.000316666
0.000226719
-0.000302401
0.000218534
-0.000283274
0.00020821
-0.000258795
0.000195434
-0.000228443
0.000179868
-0.000191662
0.000161151
-0.000147868
0.000138916
-9.64213e-05
0.000112755
-3.66592e-05
8.23479e-05
3.22594e-05
4.71968e-05
0.000111069
7.54163e-06
0.000201373
-3.82587e-05
0.000304215
-8.59854e-05
-0.000138566
0.00042302
-3.70236e-06
4.31591e-05
-1.25207e-05
0.000101655
-2.49784e-05
0.000143589
-3.99239e-05
0.000173117
-5.65079e-05
0.000193993
-7.40956e-05
0.000208739
-9.22163e-05
0.000219264
-0.000110516
0.000226912
-0.000128723
0.000232627
-0.000146615
0.000237042
-0.000164005
0.000240568
-0.000180719
0.000243456
-0.000196588
0.000245845
-0.000211442
0.000247799
-0.0002251
0.000249328
-0.000237368
0.000250409
-0.000248035
0.00025099
-0.000256873
0.000251
-0.000263631
0.000250351
-0.000268036
0.000248938
-0.000269793
0.000246637
-0.00026858
0.00024331
-0.000264047
0.000238795
-0.00025582
0.000232912
-0.000243497
0.000225456
-0.000226645
0.000216197
-0.000204805
0.000204879
-0.00017749
0.000191219
-0.000144186
0.000174905
-0.00010435
0.000155598
-5.74155e-05
0.000132934
-2.78941e-06
0.000106525
6.01516e-05
7.59753e-05
0.000132063
4.0844e-05
0.000213592
8.18735e-07
0.000305615
-4.48257e-05
0.000408564
-9.54076e-05
0.000524508
-0.000154203
0.000652804
-0.000214281
-0.000286518
0.000800756
-3.50923e-06
4.66683e-05
-1.18953e-05
0.000110041
-2.37348e-05
0.000155429
-3.7903e-05
0.000187285
-5.35554e-05
0.000209646
-7.00505e-05
0.000225235
-8.6903e-05
0.000236116
-0.000103739
0.000243748
-0.000120261
0.000249149
-0.000136221
0.000253002
-0.000151401
0.000255747
-0.000165593
0.000257648
-0.000178596
0.000258847
-0.000190199
0.000259402
-0.000200184
0.000259313
-0.000208314
0.000258539
-0.000214335
0.000257011
-0.000217971
0.000254637
-0.000218925
0.000251305
-0.000216873
0.000246886
-0.000211467
0.000241232
-0.000202333
0.000234175
-0.000189066
0.000225529
-0.000171239
0.000215084
-0.000148392
0.000202608
-0.000120039
0.000187845
-8.56698e-05
0.00017051
-4.47438e-05
0.000150293
3.3019e-06
0.000126859
5.90551e-05
9.98445e-05
0.000123123
6.88655e-05
0.000196138
3.35104e-05
0.000278736
-6.62272e-06
0.000371614
-5.20334e-05
0.000475362
-0.000102929
0.000590941
-0.000160405
0.000718502
-0.000222969
0.000860226
-0.000295927
0.00101453
-0.000368586
-0.000462375
0.00119039
-3.30694e-06
4.99752e-05
-1.12363e-05
0.000117971
-2.24187e-05
0.000166611
-3.57567e-05
0.000200623
-5.04105e-05
0.000224299
-6.57317e-05
0.000240556
-8.12198e-05
0.000251605
-9.64796e-05
0.000259008
-0.000111188
0.000263858
-0.00012507
0.000266883
-0.000137872
0.00026855
-0.000149356
0.000269133
-0.000159282
0.000268774
-0.000167404
0.000267523
-0.000173459
0.000265368
-0.00017717
0.00026225
-0.000178239
0.00025808
-0.000176343
0.000252741
-0.000171137
0.000246098
-0.000162246
0.000237996
-0.000149273
0.000228259
-0.00013179
0.000216692
-0.000109343
0.000203082
-8.14496e-05
0.00018719
-4.75991e-05
0.000168758
-7.25524e-06
0.000147501
4.01438e-05
0.000123111
9.5184e-05
9.52533e-05
0.000158473
6.35704e-05
0.000230638
2.76798e-05
0.000312321
-1.28174e-05
0.000404183
-5.8352e-05
0.000506874
-0.000109314
0.000621117
-0.000166276
0.000747449
-0.000229262
0.000886893
-0.000299849
0.00103934
-0.000375419
0.00120709
-0.000463669
0.00138759
-0.000549086
-0.000665489
0.0015907
-3.09793e-06
5.30732e-05
-1.05507e-05
0.000125423
-2.10427e-05
0.000177103
-3.35034e-05
0.000213084
-4.70979e-05
0.000237894
-6.11706e-05
0.000254628
-7.52048e-05
0.000265639
-8.87837e-05
0.000272587
-0.000101558
0.000276632
-0.000113221
0.000278547
-0.00012349
0.000278818
-0.000132089
0.000277732
-0.000138741
0.000275426
-0.000143161
0.000271943
-0.000145044
0.000267252
-0.000144072
0.000261277
-0.000139898
0.000253906
-0.000132155
0.000244998
-0.000120448
0.000234391
-0.000104355
0.000221903
-8.34275e-05
0.000207331
-5.71866e-05
0.000190451
-2.51271e-05
0.000171022
1.32843e-05
0.000148779
5.86072e-05
0.000123435
0.000111426
9.46818e-05
0.00017235
6.21872e-05
0.000242007
2.55967e-05
0.000321043
-1.54657e-05
0.000410119
-6.13965e-05
0.000509903
-0.000112602
0.000621077
-0.000169526
0.00074429
-0.000232527
0.00088027
-0.000302255
0.00102949
-0.000378484
0.00119298
-0.000463341
0.00137045
-0.000552882
0.00156418
-0.000657406
0.00177079
-0.00075569
-0.000895164
0.00200046
-2.88465e-06
5.59578e-05
-9.84558e-06
0.000132384
-1.96194e-05
0.000186877
-3.11622e-05
0.000224627
-4.3643e-05
0.000250375
-5.63986e-05
0.000267384
-6.88962e-05
0.000278136
-8.06961e-05
0.000284387
-9.1422e-05
0.000287358
-0.000100736
0.000287861
-0.000108322
0.000286404
-0.000113867
0.000283277
-0.000117056
0.000278615
-0.000117561
0.000272448
-0.000115039
0.00026473
-0.000109123
0.000255361
-9.94226e-05
0.000244206
-8.55223e-05
0.000231098
-6.69785e-05
0.000215848
-4.33196e-05
0.000198244
-1.40454e-05
0.000178056
2.13725e-05
0.000155033
6.34904e-05
0.000128904
0.000112891
9.9378e-05
0.000170183
6.61434e-05
0.000235995
2.88689e-05
0.00031098
-1.27976e-05
0.000395804
-5.92266e-05
0.000491143
-0.000110805
0.000597683
-0.000167937
0.000716104
-0.000231023
0.000847087
-0.000300509
0.000991262
-0.000376702
0.00114932
-0.000460311
0.00132166
-0.000550829
0.00150921
-0.000650884
0.00171154
-0.000755213
0.00193078
-0.00087665
0.00216288
-0.000987786
-0.0011501
0.00241782
-2.66958e-06
5.86274e-05
-9.12801e-06
0.000138843
-1.81617e-05
0.00019591
-2.87516e-05
0.000235217
-4.00705e-05
0.000261694
-5.1447e-05
0.000278761
-6.23313e-05
0.000289021
-7.22604e-05
0.000294316
-8.08297e-05
0.000295927
-8.76696e-05
0.000294701
-9.24277e-05
0.000291162
-9.47546e-05
0.000285603
-9.42947e-05
0.000278155
-9.06782e-05
0.000268832
-8.35161e-05
0.000257568
-7.23963e-05
0.000244241
-5.6881e-05
0.00022869
-3.65049e-05
0.000210722
-1.07741e-05
0.000190117
2.08342e-05
0.000166636
5.88719e-05
0.000140019
0.000103919
0.000109986
0.000156583
7.62404e-05
0.000217495
3.84656e-05
0.000287311
-3.67195e-06
0.000366702
-5.05225e-05
0.000456357
-0.000102452
0.000556971
-0.00015984
0.00066924
-0.000223075
0.000793855
-0.000292552
0.000931486
-0.000368653
0.00108278
-0.000451801
0.00124831
-0.000542234
0.00142865
-0.000640657
0.00162415
-0.000746328
0.0018354
-0.000862136
0.00206197
-0.000981782
0.0023055
-0.00112018
0.00256164
-0.00124393
-0.00142786
0.0028394
-2.45512e-06
6.10825e-05
-8.40492e-06
0.000144793
-1.66819e-05
0.000204187
-2.62901e-05
0.000244825
-3.64048e-05
0.000271808
-4.63459e-05
0.000288702
-5.55457e-05
0.00029822
-6.35171e-05
0.000302287
-6.98263e-05
0.000302237
-7.40704e-05
0.000298945
-7.58599e-05
0.000292951
-7.48061e-05
0.00028455
-7.0511e-05
0.00027386
-6.25601e-05
0.000260881
-5.05179e-05
0.000245525
-3.39235e-05
0.000227647
-1.22887e-05
0.000207055
1.49037e-05
0.000183529
4.82005e-05
0.00015682
8.81783e-05
0.000126658
0.000135443
9.27545e-05
0.000190626
5.48025e-05
0.000254387
1.24796e-05
0.000327405
-3.45521e-05
0.000410376
-8.66436e-05
0.000504011
-0.000144157
0.000609021
-0.000207462
0.000726115
-0.000276935
0.000855987
-0.000352946
0.000999299
-0.000435865
0.00115667
-0.000526028
0.00132867
-0.000623791
0.00151575
-0.000729322
0.00171829
-0.000843189
0.00193651
-0.000964555
0.00217052
-0.00109615
0.00241991
-0.00123116
0.00268545
-0.00138572
0.00296301
-0.00152148
-0.00172445
0.0032596
-2.2436e-06
6.33261e-05
-7.683e-06
0.000150232
-1.51921e-05
0.000211696
-2.37952e-05
0.000253428
-3.2669e-05
0.000280682
-4.11235e-05
0.000297156
-4.85723e-05
0.000305669
-5.45032e-05
0.000308218
-5.84516e-05
0.000306185
-5.99796e-05
0.000300473
-5.8659e-05
0.000291631
-5.40588e-05
0.000279949
-4.5736e-05
0.000265537
-3.32287e-05
0.000248374
-1.60511e-05
0.000228348
6.30966e-06
0.000205286
3.43959e-05
0.000178969
6.87804e-05
0.000149145
0.000110066
0.000115534
0.000158886
7.78381e-05
0.000215902
3.57393e-05
0.000281798
-1.10939e-05
0.000357282
-6.30049e-05
0.000443078
-0.000120347
0.000539914
-0.00018348
0.000648522
-0.000252765
0.00076962
-0.00032856
0.000903901
-0.000411215
0.00105202
-0.000501061
0.00121455
-0.000598401
0.00139202
-0.0007035
0.00158481
-0.00081658
0.00179323
-0.00093774
0.00201727
-0.00106723
0.00225704
-0.00120432
0.00251195
-0.00135105
0.00278159
-0.00150081
0.00306555
-0.00166968
0.00336046
-0.00181639
-0.0020342
0.0036702
-2.03721e-06
6.53633e-05
-6.96853e-06
0.000155163
-1.37034e-05
0.000218431
-2.12834e-05
0.000261008
-2.88844e-05
0.000288283
-3.58054e-05
0.000304077
-4.14404e-05
0.000311304
-4.52502e-05
0.000312028
-4.67381e-05
0.000307673
-4.54285e-05
0.000299163
-4.08518e-05
0.000287054
-3.25319e-05
0.00027163
-1.99771e-05
0.000252983
-2.67402e-06
0.000231071
1.99176e-05
0.000205756
4.83672e-05
0.000176836
8.32756e-05
0.000144061
0.000125275
0.000107145
0.000175029
6.57809e-05
0.000233227
1.96392e-05
0.000300588
-3.16217e-05
0.000377848
-8.83535e-05
0.000465756
-0.000150913
0.000565067
-0.000219658
0.000676526
-0.00029494
0.000800861
-0.0003771
0.000938758
-0.000466458
0.00109085
-0.000563307
0.00125769
-0.000667898
0.00143971
-0.000780425
0.00163725
-0.000901036
0.0018504
-0.00102974
0.00207923
-0.00116656
0.00232326
-0.00131126
0.00258231
-0.00146338
0.00285505
-0.00162379
0.00314104
-0.00178679
0.00343838
-0.00196703
0.00374504
-0.00212305
-0.00234995
0.00406079
-1.838e-06
6.72013e-05
-6.26729e-06
0.000159593
-1.22263e-05
0.00022439
-1.87695e-05
0.000267551
-2.50701e-05
0.000294584
-3.04143e-05
0.000309421
-3.41747e-05
0.000315064
-3.57836e-05
0.000313637
-3.47092e-05
0.000306598
-3.04359e-05
0.00029489
-2.24492e-05
0.000279067
-1.02235e-05
0.000259404
6.78572e-06
0.000235973
2.91486e-05
0.000208708
5.74648e-05
0.00017744
9.23657e-05
0.000141935
0.000134515
0.000101911
0.000184609
5.70516e-05
0.000243372
7.01773e-06
0.000311555
-4.85433e-05
0.000389925
-0.000109993
0.000479263
-0.000177692
0.000580347
-0.000251997
0.00069394
-0.000333251
0.000820774
-0.000421773
0.000961528
-0.000517854
0.00111681
-0.000621738
0.00128711
-0.000733613
0.00147282
-0.000853604
0.00167413
-0.000981733
0.00189107
-0.00111798
0.0021234
-0.00126206
0.00237074
-0.00141391
0.00263214
-0.00157265
0.00290697
-0.00173821
0.00319318
-0.00191
0.00349018
-0.00208379
0.0037946
-0.00227145
0.00410609
-0.00243454
-0.00266374
0.00441988
-1.64777e-06
6.88491e-05
-5.58441e-06
0.000163529
-1.07697e-05
0.000229576
-1.62664e-05
0.000273048
-2.12422e-05
0.00029956
-2.49685e-05
0.000313148
-2.67942e-05
0.00031689
-2.61206e-05
0.000312963
-2.23781e-05
0.000302856
-1.5007e-05
0.000287519
-3.44353e-06
0.000267504
1.2892e-05
0.000243068
3.46028e-05
0.000214263
6.23214e-05
0.000180989
9.67124e-05
0.000143049
0.000138474
0.000100173
0.000188339
5.20467e-05
0.000247068
-1.67707e-06
0.000315447
-6.13616e-05
0.000394281
-0.000127378
0.000484381
-0.000200093
0.000586552
-0.000279862
0.000701573
-0.000367018
0.000830183
-0.00046186
0.000973049
-0.000564639
0.00113074
-0.000675549
0.00130371
-0.000794707
0.00149224
-0.000922144
0.00169643
-0.00105779
0.00191614
-0.00120144
0.002151
-0.00135284
0.00240029
-0.00151135
0.00266316
-0.00167678
0.00293808
-0.00184758
0.00322392
-0.00202405
0.00351801
-0.00220409
0.00381955
-0.00238533
0.00412395
-0.00257585
0.00443257
-0.00274317
-0.00296757
0.0047364
-1.46809e-06
7.03172e-05
-4.9243e-06
0.000166986
-9.3413e-06
0.000233993
-1.37847e-05
0.000277491
-1.74135e-05
0.000303188
-1.94815e-05
0.000315216
-1.93114e-05
0.00031672
-1.62699e-05
0.000309922
-9.74565e-06
0.000296332
8.69211e-07
0.000276904
1.61934e-05
0.00025218
3.68666e-05
0.000222395
6.35568e-05
0.000187572
9.69651e-05
0.000147581
0.000137827
0.000102187
0.000186914
5.1087e-05
0.000245026
-6.0652e-06
0.00031299
-6.96412e-05
0.000391649
-0.000140021
0.000481849
-0.000217578
0.000584424
-0.000302668
0.000700174
-0.000395612
0.00082984
-0.000496684
0.000974078
-0.000606098
0.00113343
-0.000723987
0.00130827
-0.000850389
0.0014988
-0.000985237
0.00170498
-0.00112833
0.00192654
-0.00127936
0.0021629
-0.00143779
0.00241318
-0.00160313
0.00267615
-0.00177431
0.00295037
-0.00195101
0.00323385
-0.00213106
0.00352487
-0.00231506
0.0038204
-0.00249962
0.0041194
-0.00268433
0.00441657
-0.00287302
0.00471476
-0.00304136
-0.00325459
0.00500178
-1.30026e-06
7.16174e-05
-4.29046e-06
0.000169976
-7.947e-06
0.000237649
-1.13323e-05
0.000280877
-1.35928e-05
0.000305449
-1.39614e-05
0.000315584
-1.17308e-05
0.000314489
-6.22937e-06
0.00030442
3.20067e-06
0.000286902
1.72214e-05
0.000262883
3.65122e-05
0.000232889
6.17798e-05
0.000197128
9.37636e-05
0.000155588
0.00013324
0.000108105
0.00018102
5.44066e-05
0.000237949
-5.8417e-06
0.000304896
-7.30128e-05
0.000382748
-0.000147493
0.00047239
-0.000229662
0.000574687
-0.000319875
0.000690461
-0.000418442
0.000820463
-0.000525613
0.000965336
-0.000641557
0.00112558
-0.000766342
0.00130151
-0.000899921
0.00149324
-0.00104211
0.00170059
-0.00119259
0.00192313
-0.00135086
0.00216007
-0.0015163
0.00241034
-0.00168806
0.0026725
-0.00186529
0.00294479
-0.0020466
0.00322523
-0.00223145
0.00351145
-0.00241727
0.00380123
-0.00260485
0.0040915
-0.00278989
0.00438103
-0.00297386
0.00466449
-0.00315649
0.00494576
-0.00332262
-0.00351995
0.00521112
-1.14525e-06
7.27627e-05
-3.68546e-06
0.000172516
-6.59089e-06
0.000240555
-8.91405e-06
0.0002832
-9.78449e-06
0.000306319
-8.40981e-06
0.00031421
-4.04855e-06
0.000310128
4.01416e-06
0.000296358
1.64886e-05
0.000274427
3.40972e-05
0.000245275
5.75875e-05
0.000209398
8.774e-05
0.000166975
0.000125373
0.000117956
0.000171342
6.21356e-05
0.000226538
-7.89694e-07
0.000291879
-7.11828e-05
0.000368297
-0.000149431
0.000456722
-0.000235918
0.000558057
-0.000330997
0.000673151
-0.000434969
0.000802765
-0.000548056
0.000947533
-0.000670382
0.00110792
-0.000801947
0.00128419
-0.000942607
0.00147633
-0.00109206
0.00168406
-0.00124984
0.00190676
-0.00141529
0.00214347
-0.00158758
0.00239288
-0.00176572
0.00265335
-0.00194853
0.00292292
-0.00213486
0.00319935
-0.00232304
0.00348024
-0.00251233
0.003763
-0.00270003
0.0040452
-0.00288705
0.00432396
-0.00306865
0.00459805
-0.00324795
0.00486279
-0.00342122
0.00512252
-0.00358235
-0.00376119
0.00536376
-1.00371e-06
7.37664e-05
-3.11077e-06
0.000174623
-5.27496e-06
0.000242719
-6.53157e-06
0.000284456
-5.98789e-06
0.000305776
-2.82145e-06
0.000311043
3.74862e-06
0.000303558
1.44866e-05
0.00028562
3.01617e-05
0.000258752
5.15646e-05
0.000223872
7.95181e-05
0.000181445
0.000114884
0.000131609
0.000158565
7.42746e-05
0.000211501
9.19985e-06
0.00027466
-6.39489e-05
0.000349027
-0.000145549
0.000435579
-0.000235984
0.000535266
-0.000335604
0.000648968
-0.0004447
0.000777467
-0.000563467
0.000921392
-0.000691982
0.00108118
-0.000830172
0.00125703
-0.000977795
0.00144884
-0.00113442
0.0016562
-0.00129942
0.00187832
-0.00147196
0.00211406
-0.00165103
0.0023619
-0.00183541
0.00261998
-0.0020238
0.00288613
-0.00221468
0.00315796
-0.00240668
0.00343292
-0.00259799
0.00370837
-0.00278779
0.00398178
-0.00297344
0.00425075
-0.00315602
0.00451292
-0.00333082
0.00476727
-0.0035023
0.00501021
-0.00366417
0.00524614
-0.00381828
-0.00397818
0.00546313
-8.75892e-07
7.46423e-05
-2.56673e-06
0.000176314
-3.99899e-06
0.000244151
-4.18268e-06
0.00028464
-2.197e-06
0.00030379
2.81648e-06
0.00030603
1.16843e-05
0.00029469
2.52271e-05
0.000272077
4.4281e-05
0.000239698
6.97124e-05
0.000198441
0.000102428
0.000148729
0.000143377
9.06599e-05
0.000193551
2.4101e-05
0.000253972
-5.12214e-05
0.000325681
-0.000135658
0.000409712
-0.000229581
0.000507064
-0.000333336
0.000618663
-0.000447202
0.000745314
-0.000571351
0.000887656
-0.000705809
0.0010461
-0.000850431
0.0012208
-0.00100487
0.00141157
-0.00116856
0.00161785
-0.0013407
0.00183872
-0.00152029
0.00207284
-0.00170608
0.0023185
-0.00189668
0.00257362
-0.00209054
0.00283587
-0.00228604
0.00310268
-0.00248149
0.00337137
-0.00267538
0.00363933
-0.00286595
0.00390395
-0.00305241
0.004163
-0.00323249
0.00441444
-0.00340746
0.00465663
-0.003573
0.00488894
-0.00373462
0.00510912
-0.00388435
0.00532126
-0.00403042
-0.00417293
0.00551601
-7.6169e-07
7.5404e-05
-2.05247e-06
0.000177605
-2.76033e-06
0.000244859
-1.86134e-06
0.000283741
1.59993e-06
0.000300329
8.52482e-06
0.000299105
1.97928e-05
0.000283422
3.62889e-05
0.000255581
5.89243e-05
0.000217063
8.86499e-05
0.000168715
0.000126463
0.000110916
0.000173407
4.37165e-05
0.00023056
-3.30524e-05
0.000299024
-0.000119685
0.000379895
-0.000216529
0.000474231
-0.000323917
0.000583011
-0.000442116
0.00070708
-0.000571271
0.000847095
-0.000711366
0.00100347
-0.000862179
0.00117629
-0.00102326
0.00136531
-0.00119389
0.00156987
-0.00137312
0.00178887
-0.00155971
0.00202082
-0.00175224
0.0022638
-0.00194906
0.00251555
-0.00214843
0.00277354
-0.00234854
0.00303508
-0.00254758
0.00329742
-0.00274382
0.00355784
-0.00293581
0.0038139
-0.003122
0.00406333
-0.00330184
0.00430441
-0.00347358
0.00453572
-0.00363877
0.00475642
-0.00379371
0.00496645
-0.00394465
0.00516478
-0.00408269
0.00535513
-0.00422076
-0.00434793
0.00553013
-6.6059e-07
7.60645e-05
-1.56585e-06
0.00017851
-1.5539e-06
0.000244847
4.42986e-07
0.000281744
5.42063e-06
0.000295351
1.43328e-05
0.000290193
2.81196e-05
0.000269635
4.77391e-05
0.000235961
7.41868e-05
0.000190615
0.000108506
0.000134395
0.000151792
6.76308e-05
0.000205181
-9.67237e-06
0.000269837
-9.77091e-05
0.000346926
-0.000196774
0.000437575
-0.000307177
0.000542824
-0.000429167
0.000663573
-0.000562865
0.000800515
-0.000708213
0.000954066
-0.000864917
0.0011243
-0.00103242
0.0013109
-0.00120986
0.00151311
-0.0013961
0.0017297
-0.0015897
0.00195899
-0.001789
0.00219889
-0.00199214
0.00244696
-0.00219713
0.00270051
-0.00240198
0.0029567
-0.00260473
0.0032127
-0.00280358
0.00346581
-0.00299693
0.00371357
-0.00318357
0.00395393
-0.00336236
0.00418522
-0.00353313
0.0044064
-0.00369476
0.00461675
-0.00384912
0.00481627
-0.00399322
0.00500539
-0.00413377
0.00518411
-0.00426141
0.00535583
-0.00439247
-0.00450811
0.00551601
-5.71672e-07
7.66362e-05
-1.10339e-06
0.000179042
-3.72114e-07
0.000244116
2.74245e-06
0.00027863
9.28892e-06
0.000288805
2.0278e-05
0.000279204
3.6721e-05
0.000253192
5.96588e-05
0.000213024
9.01801e-05
0.000160094
0.000129428
9.51471e-05
0.000178598
1.8461e-05
0.000238919
-6.99933e-05
0.000311628
-0.000170418
0.00039793
-0.000283076
0.000498943
-0.00040819
0.000615636
-0.000545859
0.000748753
-0.000695983
0.000898742
-0.000858202
0.00106568
-0.00103185
0.00124919
-0.00121593
0.00144845
-0.00140911
0.0016621
-0.00160975
0.00188831
-0.00181592
0.00212482
-0.00202552
0.00236902
-0.00223634
0.00261804
-0.00244616
0.00286893
-0.00265287
0.00311878
-0.00285458
0.00336487
-0.00304967
0.00360482
-0.00323687
0.00383664
-0.00341539
0.00405892
-0.00358464
0.00427068
-0.00374489
0.00447165
-0.00389573
0.0046618
-0.00403927
0.00484183
-0.00417325
0.00501256
-0.0043045
0.00517476
-0.00442361
0.00533121
-0.00454892
-0.0046556
0.00547869
-4.93603e-07
7.71298e-05
-6.60199e-07
0.000179208
7.95308e-07
0.00024266
5.05759e-06
0.000274367
1.32349e-05
0.000280627
2.64067e-05
0.000266032
4.56646e-05
0.000233934
7.21423e-05
0.000186546
0.00010703
0.000125206
0.000151577
5.06005e-05
0.000207077
-3.7039e-05
0.000274843
-0.00013776
0.000356164
-0.00025174
0.000452247
-0.000379159
0.000564146
-0.00052009
0.000692683
-0.000674395
0.000838357
-0.000841656
0.00100126
-0.00102111
0.00118103
-0.00121161
0.00137674
-0.00141165
0.00158697
-0.00161934
0.00180973
-0.00183251
0.0020426
-0.00204879
0.0022828
-0.00226572
0.00252732
-0.00248085
0.00277306
-0.0026919
0.00301704
-0.00289686
0.00325654
-0.00309407
0.0034892
-0.00328233
0.00371317
-0.00346084
0.00392714
-0.00362936
0.00413041
-0.00378791
0.00432274
-0.00393723
0.00450456
-0.00407755
0.00467641
-0.00421111
0.00483951
-0.00433636
0.00499489
-0.00445987
0.00514375
-0.00457247
0.00528828
-0.00469345
-0.00479392
0.00542661
-4.24672e-07
7.75545e-05
-2.29011e-07
0.000179013
1.96106e-06
0.00024047
7.41014e-06
0.000268918
1.72945e-05
0.000270743
3.27729e-05
0.000250553
5.50279e-05
0.000211679
8.52953e-05
0.000156278
0.000124875
8.5627e-05
0.000175122
3.53321e-07
0.000237425
-9.93427e-05
0.000313164
-0.000213498
0.000403643
-0.000342219
0.000510021
-0.000485537
0.000633216
-0.000643285
0.000773811
-0.00081499
0.000931956
-0.000999801
0.00110729
-0.00119644
0.00129887
-0.0014032
0.00150518
-0.00161796
0.00172414
-0.00183829
0.00195316
-0.00206153
0.00218931
-0.00228493
0.00242939
-0.0025058
0.00267022
-0.00272167
0.00290871
-0.00293039
0.0031421
-0.00313025
0.00336808
-0.00332005
0.00358488
-0.00349913
0.00379134
-0.0036673
0.00398689
-0.0038249
0.00417154
-0.00397256