/*--------------------------------*- C++ -*----------------------------------*\
  =========                 |
  \\      /  F ield         | OpenFOAM: The Open Source CFD Toolbox
   \\    /   O peration     | Website:  https://openfoam.org
    \\  /    A nd           | Version:  7
     \\/     M anipulation  |
\*---------------------------------------------------------------------------*/
FoamFile
{
    version     2.0;
    format      ascii;
    class       volVectorField;
    location    "15";
    object      U;
}
// * * * * * * * * * * * * * * * * * * * * * * * * * * * * * * * * * * * * * //

dimensions      [0 1 -1 0 0 0 0];

internalField   nonuniform List<vector> 
48400
(
(-0.00126239 0.000666321 2.79285e-21)
(-0.00815459 0.00148007 5.8369e-21)
(-0.019931 0.00196757 1.23144e-22)
(-0.0328563 0.00224455 4.85628e-21)
(-0.0465741 0.00238112 -1.36267e-22)
(-0.0601654 0.00242946 -4.33368e-22)
(-0.0733645 0.00242353 -3.96888e-21)
(-0.0859705 0.00238679 -3.81841e-22)
(-0.0979278 0.00233445 9.79584e-22)
(-0.109234 0.00227627 -2.54862e-21)
(-0.119924 0.0022182 1.01008e-21)
(-0.130048 0.00216371 -1.44313e-21)
(-0.139664 0.00211467 -2.37599e-21)
(-0.148828 0.00207196 -4.46302e-21)
(-0.157594 0.00203586 3.64228e-21)
(-0.166013 0.00200631 3.5359e-21)
(-0.17413 0.00198304 1.68696e-21)
(-0.181984 0.00196563 1.36057e-21)
(-0.189612 0.0019536 -2.6755e-21)
(-0.197045 0.00194632 7.2489e-22)
(-0.204309 0.00194311 -2.62864e-21)
(-0.211426 0.00194312 2.10725e-21)
(-0.218412 0.0019454 2.30586e-21)
(-0.225281 0.00194878 -6.16736e-23)
(-0.232039 0.00195194 1.52331e-22)
(-0.238689 0.00195332 8.52287e-22)
(-0.245225 0.00195116 8.84926e-22)
(-0.251638 0.00194347 -1.97287e-21)
(-0.257911 0.00192815 -1.15853e-22)
(-0.264021 0.001903 -2.81322e-21)
(-0.269938 0.001866 -4.647e-21)
(-0.275627 0.00181558 3.09726e-21)
(-0.281051 0.00175107 1.43515e-21)
(-0.286173 0.00167347 1.0841e-21)
(-0.290961 0.00158617 1.39156e-21)
(-0.295401 0.00149613 1.65654e-21)
(-0.299513 0.00141523 1.05503e-21)
(-0.303329 0.00135597 -1.03343e-21)
(-0.306888 0.00132792 1.12849e-21)
(-0.310502 0.00137955 -6.41572e-22)
(-0.00130788 0.00199461 -1.1244e-20)
(-0.00823302 0.0044321 -1.15396e-20)
(-0.0199974 0.00589318 3.52115e-21)
(-0.032889 0.00672352 -6.33029e-21)
(-0.0465559 0.00713316 -3.74085e-21)
(-0.0600851 0.0072782 -1.39406e-21)
(-0.0732128 0.00726049 9.25013e-21)
(-0.0857392 0.00715024 -5.48848e-21)
(-0.0976089 0.0069931 -4.67536e-21)
(-0.10882 0.00681829 2.97316e-21)
(-0.119405 0.00664368 6.77209e-21)
(-0.129416 0.00647968 1.26894e-20)
(-0.138907 0.00633187 1.03874e-21)
(-0.147936 0.00620291 1.26489e-20)
(-0.156554 0.00609364 5.90759e-21)
(-0.164812 0.00600386 9.64639e-22)
(-0.172752 0.00593274 6.79585e-21)
(-0.180414 0.00587905 -4.33292e-21)
(-0.187833 0.00584128 8.1227e-21)
(-0.195037 0.0058176 5.44385e-21)
(-0.202052 0.0058059 3.91209e-21)
(-0.208898 0.0058037 1.46219e-21)
(-0.21559 0.00580808 -2.88067e-21)
(-0.22214 0.00581562 6.42658e-21)
(-0.228552 0.00582234 3.46577e-21)
(-0.234827 0.00582359 -4.65881e-21)
(-0.24096 0.00581411 -1.80122e-21)
(-0.246938 0.00578803 8.47439e-21)
(-0.252744 0.00573898 -7.90447e-22)
(-0.258353 0.00566045 7.46639e-21)
(-0.263733 0.00554627 5.52192e-21)
(-0.268849 0.00539154 -6.23929e-21)
(-0.273661 0.00519398 -1.62238e-21)
(-0.278127 0.00495598 6.16086e-22)
(-0.282213 0.00468701 -1.8376e-21)
(-0.285893 0.004407 -3.8569e-21)
(-0.28918 0.00415093 2.23453e-21)
(-0.292099 0.00395895 2.39035e-21)
(-0.294649 0.00386026 -7.54536e-22)
(-0.297131 0.00398942 6.09064e-21)
(-0.00139836 0.00331038 2.28056e-20)
(-0.00838919 0.00735994 2.04265e-20)
(-0.0201299 0.00978941 -1.00717e-20)
(-0.0329541 0.0111709 2.0679e-20)
(-0.0465198 0.0118528 1.38892e-21)
(-0.0599252 0.0120944 -3.84058e-21)
(-0.0729103 0.0120647 -1.28981e-20)
(-0.0852778 0.0118806 -8.89754e-22)
(-0.096973 0.011618 8.61986e-21)
(-0.107993 0.0113255 -1.27069e-21)
(-0.11837 0.0110328 -1.3572e-20)
(-0.128154 0.0107574 -4.47297e-21)
(-0.137398 0.0105085 -4.19185e-21)
(-0.146156 0.0102905 -1.81925e-20)
(-0.154481 0.0101048 -2.00878e-20)
(-0.162417 0.00995114 -1.37893e-20)
(-0.170007 0.00982799 -6.7119e-21)
(-0.177287 0.00973334 -2.17345e-20)
(-0.184289 0.00966461 -7.06919e-21)
(-0.19104 0.00961878 -1.69496e-20)
(-0.197561 0.00959232 -6.49243e-21)
(-0.20387 0.00958109 2.27453e-21)
(-0.20998 0.00958028 -1.09587e-20)
(-0.215898 0.00958424 3.54785e-21)
(-0.221627 0.00958638 -6.68318e-21)
(-0.227164 0.0095791 3.21081e-21)
(-0.232501 0.00955374 3.28057e-21)
(-0.237622 0.00950064 -5.6911e-21)
(-0.242509 0.00940931 9.52659e-21)
(-0.247132 0.00926893 -1.43966e-20)
(-0.25146 0.00906904 1.08386e-21)
(-0.255452 0.008801 -3.73639e-22)
(-0.259066 0.00846 3.39207e-21)
(-0.262256 0.00804829 -4.45467e-21)
(-0.264974 0.00757928 -3.62995e-22)
(-0.267183 0.0070829 -3.28161e-21)
(-0.268877 0.00661484 -4.23971e-21)
(-0.270073 0.00624925 -1.14664e-22)
(-0.270695 0.00603946 5.78185e-22)
(-0.270969 0.00616886 -1.07757e-20)
(-0.00153289 0.00460586 -2.38942e-20)
(-0.00862178 0.0102481 -7.37263e-22)
(-0.0203274 0.0136372 2.07976e-20)
(-0.0330515 0.0155659 -8.62716e-21)
(-0.0464663 0.0165189 -1.37379e-21)
(-0.0596867 0.0168565 1.53729e-20)
(-0.0724588 0.0168146 1.60589e-20)
(-0.0845889 0.016556 -2.92693e-21)
(-0.0960231 0.0161868 -9.67604e-21)
(-0.106758 0.0157748 -8.16752e-21)
(-0.116824 0.0153617 1.71671e-21)
(-0.126269 0.0149718 -1.73839e-20)
(-0.135144 0.0146179 3.13624e-20)
(-0.143501 0.0143064 2.05703e-20)
(-0.151386 0.014039 -5.00356e-21)
(-0.158845 0.0138154 -7.44498e-21)
(-0.165914 0.0136334 -1.51403e-20)
(-0.172627 0.0134901 2.74067e-20)
(-0.179012 0.013382 5.42184e-22)
(-0.185091 0.0133047 2.30841e-20)
(-0.190882 0.0132532 1.64959e-20)
(-0.196399 0.0132219 -9.2783e-21)
(-0.20165 0.013204 1.75166e-20)
(-0.206639 0.0131918 -5.00852e-21)
(-0.211363 0.0131762 8.84795e-21)
(-0.215816 0.0131468 1.36075e-21)
(-0.219985 0.0130916 4.18085e-21)
(-0.223853 0.0129976 -1.09486e-20)
(-0.227396 0.0128502 -7.32445e-21)
(-0.230584 0.0126344 8.07825e-21)
(-0.23338 0.0123355 7.49577e-21)
(-0.235742 0.0119405 -1.31758e-20)
(-0.237623 0.0114409 1.03509e-20)
(-0.238971 0.0108367 2.95219e-21)
(-0.239731 0.0101418 4.47557e-21)
(-0.239845 0.00939147 1.67403e-20)
(-0.239284 0.0086562 -4.29993e-21)
(-0.238055 0.00805008 -3.60444e-21)
(-0.236008 0.00766668 -8.56433e-21)
(-0.233102 0.00766233 9.754e-22)
(-0.00171009 0.00587348 1.05981e-20)
(-0.00892887 0.0130814 -3.06325e-20)
(-0.0205888 0.0174177 -1.61637e-20)
(-0.0331808 0.0198883 -1.12713e-20)
(-0.046396 0.0211103 4.93373e-21)
(-0.0593712 0.0215432 2.214e-20)
(-0.0718609 0.0214886 -2.31195e-20)
(-0.0836762 0.0211548 5.51388e-21)
(-0.0947642 0.0206774 1.00766e-20)
(-0.105121 0.0201436 -7.38086e-21)
(-0.114775 0.0196067 9.13929e-21)
(-0.123772 0.019098 8.35504e-21)
(-0.132159 0.018634 -2.1499e-20)
(-0.139983 0.0182227 -1.64798e-20)
(-0.14729 0.0178666 -6.7767e-22)
(-0.154118 0.0175648 1.74109e-20)
(-0.160502 0.0173148 1.1681e-20)
(-0.166469 0.0171126 -5.11948e-21)
(-0.172044 0.0169535 -1.30292e-20)
(-0.177243 0.0168321 8.49102e-21)
(-0.18208 0.016742 -4.45026e-21)
(-0.186563 0.0166757 -3.50356e-21)
(-0.190695 0.0166248 9.12092e-21)
(-0.194475 0.0165796 8.08113e-22)
(-0.197896 0.0165285 3.69575e-21)
(-0.200946 0.0164586 -6.37008e-21)
(-0.203608 0.016355 -1.7112e-20)
(-0.205861 0.0162013 -7.57439e-21)
(-0.207676 0.0159795 -7.36417e-22)
(-0.209022 0.0156705 4.09947e-21)
(-0.209859 0.0152554 -1.65609e-20)
(-0.210143 0.0147166 1.03947e-20)
(-0.209824 0.014041 -3.25123e-21)
(-0.208845 0.0132238 1.079e-20)
(-0.207145 0.0122761 -1.76393e-20)
(-0.204653 0.0112315 7.63263e-21)
(-0.201306 0.0101658 -1.48311e-20)
(-0.197107 0.00923046 9.32881e-22)
(-0.19189 0.00859847 9.1534e-21)
(-0.184973 0.00826206 3.54985e-21)
(-0.00192818 0.00710602 -1.0455e-22)
(-0.00930793 0.0158453 1.23979e-20)
(-0.0209125 0.0211129 1.32085e-20)
(-0.0333415 0.0241181 -8.18089e-21)
(-0.0463096 0.0256063 -1.58937e-20)
(-0.058981 0.0261337 -4.91392e-20)
(-0.07112 0.0260657 -7.69558e-21)
(-0.0825442 0.0256554 -1.02305e-21)
(-0.0932022 0.0250679 -4.94929e-21)
(-0.103089 0.0244093 3.59284e-20)
(-0.112233 0.0237446 7.69371e-21)
(-0.120673 0.0231118 -4.70276e-21)
(-0.128455 0.0225313 -2.2729e-20)
(-0.135623 0.0220127 4.4478e-21)
(-0.142215 0.021559 -1.44313e-20)
(-0.148267 0.0211691 5.33648e-22)
(-0.153807 0.0208396 -1.62307e-20)
(-0.158859 0.0205659 -5.27932e-21)
(-0.16344 0.020342 1.59092e-21)
(-0.167563 0.0201611 -3.87626e-20)
(-0.171236 0.0200154 -2.05851e-20)
(-0.17446 0.0198961 1.74828e-20)
(-0.177234 0.0197929 -2.47931e-20)
(-0.179549 0.019694 -4.89936e-21)
(-0.181395 0.019586 -3.18578e-20)
(-0.182755 0.0194534 -9.07615e-21)
(-0.183606 0.0192788 3.13695e-20)
(-0.183924 0.0190429 3.12361e-20)
(-0.183677 0.0187245 9.66045e-22)
(-0.182829 0.0183011 1.61748e-21)
(-0.18134 0.0177498 -8.35064e-21)
(-0.179165 0.0170485 -2.12119e-20)
(-0.176254 0.0161792 5.51116e-21)
(-0.172549 0.0151307 -3.30628e-20)
(-0.167987 0.0139075 1.74293e-20)
(-0.16249 0.0125354 2.37613e-21)
(-0.155968 0.0110833 -8.2085e-21)
(-0.148398 0.00971889 -2.34547e-20)
(-0.139796 0.00876308 1.42984e-20)
(-0.128199 0.00783201 1.91801e-20)
(-0.00218503 0.00829672 2.04475e-20)
(-0.00975592 0.018526 7.93536e-21)
(-0.0212963 0.0247053 -1.1643e-20)
(-0.033533 0.028236 2.30742e-20)
(-0.0462082 0.0299869 1.21179e-20)
(-0.0585184 0.0306071 -9.98194e-21)
(-0.0702401 0.0305248 4.83053e-20)
(-0.0811985 0.0300368 2.5847e-20)
(-0.0913444 0.0293369 1.02506e-21)
(-0.100673 0.0285499 -2.12702e-20)
(-0.109208 0.0277526 -1.38132e-20)
(-0.116988 0.0269897 1.28295e-20)
(-0.124053 0.0262852 -2.12077e-20)
(-0.130441 0.0256506 3.005e-20)
(-0.136188 0.0250891 -1.41763e-20)
(-0.141323 0.0245994 2.05134e-20)
(-0.145869 0.0241776 2.34152e-20)
(-0.149844 0.0238178 3.07768e-20)
(-0.153261 0.023513 2.55597e-20)
(-0.156126 0.0232551 3.50265e-20)
(-0.15844 0.0230348 2.99205e-20)
(-0.160199 0.0228419 7.85923e-21)
(-0.161397 0.0226643 6.99844e-21)
(-0.16202 0.0224885 -1.80783e-20)
(-0.162051 0.0222992 1.03132e-20)
(-0.161468 0.0220788 1.6187e-20)
(-0.160245 0.0218077 -2.78616e-21)
(-0.158353 0.0214642 -2.74065e-20)
(-0.155758 0.0210243 -3.20756e-21)
(-0.152423 0.0204628 1.25292e-20)
(-0.148307 0.0197533 3.26296e-21)
(-0.143364 0.0188701 4.24554e-21)
(-0.137548 0.0177901 1.47749e-20)
(-0.130802 0.0164957 1.08499e-20)
(-0.123068 0.0149825 -1.17881e-20)
(-0.114273 0.0132635 9.41686e-21)
(-0.104309 0.0113944 1.351e-20)
(-0.0930668 0.00950932 8.06599e-21)
(-0.0811296 0.00812038 -4.57767e-20)
(-0.0644099 0.00644467 -1.91065e-20)
(-0.00247817 0.00943933 1.72446e-20)
(-0.0102693 0.0211104 -4.68418e-21)
(-0.0217378 0.0281782 3.94727e-20)
(-0.0337545 0.0322235 -4.5106e-20)
(-0.0460927 0.0342323 1.88053e-20)
(-0.0579861 0.0349435 1.92912e-20)
(-0.0692255 0.0348457 7.85618e-21)
(-0.0796452 0.0342782 -4.80604e-20)
(-0.0891987 0.0334632 1.6836e-20)
(-0.0978806 0.032544 -2.04647e-20)
(-0.105714 0.0316088 1.68911e-20)
(-0.112731 0.0307089 1.17328e-20)
(-0.118969 0.0298723 2.73443e-20)
(-0.124461 0.0291119 -4.95567e-20)
(-0.129238 0.0284314 2.3616e-20)
(-0.133322 0.0278294 -3.67248e-20)
(-0.136733 0.0273009 -2.68995e-20)
(-0.139481 0.0268392 -4.153e-20)
(-0.141573 0.026436 -2.39164e-20)
(-0.14301 0.026082 -1.32793e-20)
(-0.143788 0.0257665 1.10006e-20)
(-0.143897 0.0254776 -1.17007e-20)
(-0.143324 0.025202 -3.58834e-21)
(-0.142052 0.0249244 -1.58387e-20)
(-0.140057 0.0246278 5.41965e-21)
(-0.137314 0.0242928 -3.76577e-21)
(-0.133793 0.0238981 -1.31262e-20)
(-0.129463 0.0234198 1.79137e-20)
(-0.124287 0.0228321 5.44218e-20)
(-0.118228 0.0221074 -1.01922e-20)
(-0.111244 0.0212169 2.82044e-20)
(-0.103293 0.020132 -2.32009e-21)
(-0.0943316 0.0188258 -1.69041e-21)
(-0.0843088 0.0172743 1.50892e-20)
(-0.0731754 0.0154653 -1.62497e-20)
(-0.0608666 0.0133952 -2.03831e-20)
(-0.0472983 0.0111135 -2.5391e-20)
(-0.0321584 0.00866081 2.85635e-20)
(-0.0169692 0.00648536 6.00907e-21)
(0.00485172 0.00479365 4.27152e-20)
(-0.00280486 0.0105282 -7.35718e-20)
(-0.0108441 0.0235865 1.70906e-20)
(-0.0222343 0.031516 -2.46011e-20)
(-0.0340049 0.0360627 4.85276e-20)
(-0.045964 0.0383237 -3.10218e-20)
(-0.0573868 0.0391232 3.85626e-21)
(-0.0680809 0.0390082 -2.7143e-20)
(-0.0778907 0.0383593 7.31122e-21)
(-0.0867735 0.0374264 3.14599e-21)
(-0.094724 0.0363707 7.07917e-20)
(-0.101763 0.0352918 1.52e-20)
(-0.107919 0.0342479 -7.08557e-22)
(-0.113225 0.0332703 1.18038e-20)
(-0.117708 0.0323737 -3.05457e-20)
(-0.121395 0.0315624 -2.17708e-20)
(-0.124301 0.0308345 -2.71165e-20)
(-0.126441 0.0301843 2.92214e-20)
(-0.12782 0.0296041 5.26902e-20)
(-0.128439 0.0290844 3.93296e-20)
(-0.128294 0.0286144 5.44783e-21)
(-0.127374 0.0281823 -1.00476e-20)
(-0.125665 0.0277747 2.2571e-20)
(-0.123148 0.0273769 2.47192e-20)
(-0.119802 0.0269721 4.3503e-20)
(-0.115599 0.0265417 -5.04643e-20)
(-0.110511 0.0260652 -3.41302e-20)
(-0.104506 0.0255194 3.62381e-20)
(-0.097549 0.0248793 -4.29145e-20)
(-0.0896039 0.0241174 -4.73245e-20)
(-0.0806328 0.0232047 -1.55739e-20)
(-0.0705972 0.0221108 -5.50257e-20)
(-0.0594571 0.020805 -9.42671e-21)
(-0.0471738 0.0192583 -4.72809e-21)
(-0.0337036 0.0174413 -2.27009e-20)
(-0.0190103 0.0153376 3.25259e-20)
(-0.00302923 0.012924 -5.18092e-20)
(0.0142406 0.0102548 4.59916e-20)
(0.0332999 0.00726046 -3.48702e-20)
(0.0521275 0.00421393 -8.8794e-21)
(0.0787394 0.00245779 6.62741e-21)
(-0.00316216 0.0115584 4.21417e-20)
(-0.0114759 0.0259435 -4.32172e-20)
(-0.0227827 0.0347042 6.64229e-21)
(-0.0342829 0.0397369 -4.88049e-20)
(-0.0458228 0.042243 1.30368e-22)
(-0.0567235 0.0431273 1.5062e-20)
(-0.0668109 0.0429929 -9.14458e-21)
(-0.0759416 0.0422604 -1.72249e-20)
(-0.0840773 0.0412064 -8.88206e-21)
(-0.0912134 0.0400098 4.47382e-21)
(-0.0973681 0.0387813 -4.86728e-21)
(-0.102568 0.0375857 -7.04145e-20)
(-0.106839 0.0364581 4.51885e-20)
(-0.110205 0.0354147 -2.80005e-21)
(-0.112686 0.0344605 -7.01558e-21)
(-0.114294 0.033593 2.37961e-20)
(-0.115036 0.032806 2.69137e-21)
(-0.114914 0.0320905 -1.14207e-20)
(-0.113921 0.031436 -4.1882e-20)
(-0.112048 0.0308305 -1.57199e-20)
(-0.109282 0.0302607 -3.10754e-20)
(-0.105602 0.029712 -1.41374e-20)
(-0.100987 0.0291684 1.2537e-20)
(-0.0954089 0.0286118 -2.59703e-21)
(-0.0888401 0.0280225 4.48726e-20)
(-0.0812484 0.0273787 7.47507e-20)
(-0.0726002 0.0266562 -4.75234e-20)
(-0.0628604 0.0258289 -9.92656e-21)
(-0.0519932 0.0248685 -1.21575e-20)
(-0.0399623 0.0237452 3.7822e-20)
(-0.0267318 0.0224276 4.11161e-22)
(-0.0122655 0.0208842 2.98753e-20)
(0.00346801 0.0190844 4.83079e-20)
(0.020508 0.0169962 6.64216e-21)
(0.0388696 0.0146037 6.5312e-21)
(0.0586386 0.0118582 5.80617e-20)
(0.0796768 0.00883936 -1.50392e-20)
(0.102785 0.0053615 1.14497e-20)
(0.125023 0.00171024 4.68821e-20)
(0.156859 -0.000966547 -3.76882e-20)
(-0.00354692 0.0125257 -2.61028e-20)
(-0.0121601 0.0281717 -4.1742e-20)
(-0.0233795 0.0377294 -3.46829e-20)
(-0.0345869 0.0432303 3.44713e-20)
(-0.0456697 0.0459728 -3.20903e-20)
(-0.0559985 0.0469375 6.63851e-21)
(-0.06542 0.0467812 -3.49323e-23)
(-0.0738042 0.0459624 2.40039e-20)
(-0.0811184 0.0447839 2.35623e-20)
(-0.0873589 0.0434418 -2.35499e-20)
(-0.0925424 0.0420576 -2.97355e-20)
(-0.0966914 0.0407028 2.19925e-20)
(-0.0998286 0.0394161 -1.96734e-20)
(-0.101973 0.0382155 1.76187e-22)
(-0.103138 0.0371062 6.75701e-20)
(-0.10333 0.0360857 4.11902e-20)
(-0.102553 0.0351471 1.6631e-20)
(-0.100802 0.0342803 -4.33732e-20)
(-0.0980659 0.0334736 6.65085e-21)
(-0.0943318 0.0327138 4.70484e-20)
(-0.0895806 0.0319866 -2.32769e-21)
(-0.0837894 0.0312762 -4.82491e-20)
(-0.0769322 0.0305652 -5.29396e-20)
(-0.0689802 0.0298347 -5.97256e-20)
(-0.059902 0.0290639 -5.71773e-20)
(-0.0496649 0.0282303 -3.51236e-20)
(-0.0382348 0.0273089 1.27814e-20)
(-0.025577 0.026273 -1.34782e-20)
(-0.0116572 0.0250941 4.22532e-20)
(0.00355825 0.0237418 -6.33806e-20)
(0.0201012 0.0221851 2.74483e-20)
(0.0380034 0.0203918 -2.46524e-20)
(0.0572875 0.0183316 -3.20718e-20)
(0.0779922 0.0159696 3.40449e-21)
(0.100095 0.0132959 1.91879e-20)
(0.123747 0.0102345 -3.94075e-20)
(0.148556 0.00691074 1.44452e-20)
(0.175928 0.003008 -2.28727e-20)
(0.201271 -0.00109275 -1.5539e-20)
(0.238713 -0.00472061 -3.96069e-20)
(-0.00395592 0.0134267 3.20714e-20)
(-0.0128918 0.0302625 3.60299e-20)
(-0.0240209 0.0405795 6.92422e-22)
(-0.0349151 0.0465283 -4.70745e-20)
(-0.0455047 0.0494969 6.01347e-20)
(-0.055214 0.0505366 2.99688e-20)
(-0.063912 0.0503548 7.71511e-20)
(-0.0714841 0.0494468 6.85317e-20)
(-0.0779038 0.0481402 -5.78122e-20)
(-0.0831692 0.046648 5.98502e-22)
(-0.0872958 0.0451022 -1.30362e-20)
(-0.090303 0.0435809 3.99467e-20)
(-0.0922089 0.0421263 5.03997e-21)
(-0.0930277 0.0407583 -7.91383e-21)
(-0.0927681 0.0394826 1.25361e-20)
(-0.0914324 0.0382966 -3.41107e-20)
(-0.0890174 0.0371925 -6.20109e-20)
(-0.0855142 0.0361595 4.02178e-20)
(-0.0809089 0.0351848 -2.79157e-20)
(-0.075183 0.0342543 -1.1742e-20)
(-0.0683141 0.0333523 -1.88794e-20)
(-0.0602764 0.0324621 1.00417e-19)
(-0.0510414 0.0315656 1.01473e-20)
(-0.0405783 0.0306429 4.02734e-20)
(-0.0288549 0.0296727 1.41101e-20)
(-0.0158379 0.0286317 -2.141e-21)
(-0.00149403 0.0274948 2.19856e-20)
(0.0142098 0.0262352 5.27333e-20)
(0.0313054 0.0248243 -7.97486e-21)
(0.0498227 0.0232322 4.42273e-20)
(0.0697882 0.0214282 2.5728e-20)
(0.0912285 0.0193803 -1.24969e-20)
(0.114153 0.0170605 1.75227e-20)
(0.138608 0.0144295 -1.34703e-21)
(0.164507 0.0114888 -2.25489e-20)
(0.192134 0.00813514 4.21791e-21)
(0.220661 0.00454245 -6.76361e-22)
(0.252525 0.000314827 6.36813e-20)
(0.28065 -0.0041558 -5.35657e-20)
(0.324075 -0.00854151 8.79802e-20)
(-0.00438587 0.0142585 -2.66419e-21)
(-0.0136658 0.0322089 4.26359e-20)
(-0.024703 0.0432438 5.2173e-20)
(-0.035265 0.0496176 4.57498e-20)
(-0.0453276 0.0528001 -7.69349e-20)
(-0.0543714 0.0539079 -7.58705e-20)
(-0.0622902 0.0536966 -1.01339e-20)
(-0.0689858 0.052696 -7.59386e-20)
(-0.0744393 0.0512577 1.00918e-20)
(-0.0786514 0.0496108 -8.44141e-20)
(-0.0816365 0.0478977 6.65268e-20)
(-0.083411 0.0462029 2.54036e-22)
(-0.0839894 0.0445723 1.8845e-20)
(-0.0833809 0.0430276 -2.27791e-20)
(-0.0815893 0.0415752 -4.96898e-20)
(-0.0786124 0.0402123 8.25449e-20)
(-0.0744422 0.0389307 6.70504e-21)
(-0.0690654 0.0377187 2.87039e-21)
(-0.0624641 0.0365628 -2.53032e-20)
(-0.0546162 0.0354478 1.21293e-20)
(-0.0454963 0.0343573 -3.58689e-20)
(-0.0350763 0.0332737 -6.13819e-20)
(-0.0233257 0.0321782 -6.05063e-21)
(-0.0102127 0.0310506 3.3315e-21)
(0.00429515 0.029869 -1.05684e-20)
(0.0202304 0.0286102 1.63317e-20)
(0.0376249 0.0272491 -5.17618e-20)
(0.056509 0.025759 -4.20296e-20)
(0.0769104 0.0241122 3.51913e-21)
(0.0988543 0.0222792 -1.67222e-20)
(0.122359 0.0202305 1.57587e-20)
(0.147447 0.0179349 -2.47515e-20)
(0.174105 0.015367 -1.66682e-20)
(0.2024 0.0124849 -2.81572e-20)
(0.232134 0.00930086 2.54134e-20)
(0.263831 0.00569458 4.2642e-20)
(0.295969 0.00185509 7.79666e-20)
(0.332527 -0.00257465 -2.03811e-20)
(0.363063 -0.00736125 2.98005e-20)
(0.412757 -0.012245 -6.6966e-20)
(-0.0048335 0.0150194 2.85961e-20)
(-0.0144769 0.034005 -7.64341e-20)
(-0.0254214 0.0457131 -1.79283e-20)
(-0.0356338 0.0524861 4.27416e-20)
(-0.0451372 0.0558681 7.8108e-20)
(-0.0534713 0.0570361 1.65834e-20)
(-0.0605563 0.0567902 -8.92464e-20)
(-0.0663123 0.0556931 6.2558e-21)
(-0.0707287 0.0541193 2.00373e-21)
(-0.0738095 0.0523133 7.26629e-20)
(-0.0755686 0.0504278 -7.71344e-20)
(-0.0760198 0.0485532 -3.19474e-20)
(-0.0751736 0.0467395 -1.96638e-20)
(-0.0730349 0.04501 3.1027e-20)
(-0.0696028 0.0433721 3.05935e-20)
(-0.0648701 0.041823 -8.88718e-20)
(-0.0588245 0.0403541 -4.04385e-20)
(-0.0514486 0.0389533 6.87745e-20)
(-0.0427206 0.0376063 4.51463e-20)
(-0.0326154 0.0362971 5.08884e-20)
(-0.0211048 0.035009 3.2984e-20)
(-0.00815855 0.0337237 5.94659e-20)
(0.00625486 0.0324222 1.88827e-20)
(0.0221676 0.031084 -1.78498e-20)
(0.0396118 0.0296873 1.54667e-20)
(0.0586182 0.0282091 6.36827e-20)
(0.0792159 0.0266248 1.81118e-20)
(0.101431 0.0249086 7.83878e-20)
(0.125286 0.0230334 -5.5274e-20)
(0.150798 0.0209711 -3.24602e-20)
(0.177974 0.0186939 -2.67582e-20)
(0.206829 0.0161717 2.27581e-21)
(0.237319 0.0133814 8.81103e-20)
(0.269544 0.0102831 -8.28414e-21)
(0.303131 0.00688753 -8.01041e-22)
(0.338972 0.00309666 -7.21624e-20)
(0.374553 -0.000976911 -6.91989e-20)
(0.415913 -0.00546583 -5.77446e-20)
(0.448435 -0.0105359 2.942e-22)
(0.504448 -0.0156253 3.04394e-20)
(-0.00529562 0.0157082 -6.43891e-20)
(-0.0153198 0.0356464 -5.31865e-21)
(-0.0261715 0.0479795 4.30283e-20)
(-0.0360181 0.055123 1.32081e-20)
(-0.0449316 0.0586881 7.8643e-21)
(-0.052513 0.0599065 -2.6684e-20)
(-0.0587106 0.0596202 7.68323e-20)
(-0.0634643 0.0584224 -6.59886e-21)
(-0.0667729 0.0567092 -7.49287e-22)
(-0.0686441 0.0547401 -5.38546e-20)
(-0.0690917 0.0526774 7.13941e-20)
(-0.0681273 0.0506179 7.36916e-20)
(-0.0657575 0.0486151 -3.41096e-20)
(-0.0619827 0.0466945 -9.24412e-20)
(-0.0567971 0.0448644 -3.09966e-20)
(-0.0501892 0.0431223 5.07636e-20)
(-0.0421419 0.0414595 1.23646e-19)
(-0.0326336 0.0398636 -1.35179e-19)
(-0.0216391 0.0383199 -5.81965e-20)
(-0.00912999 0.0368121 -6.27032e-20)
(0.00492422 0.0353232 -4.59016e-20)
(0.0205554 0.0338348 -1.36181e-20)
(0.0377957 0.0323278 3.2447e-20)
(0.0566772 0.0307821 -3.72938e-20)
(0.0772301 0.0291763 7.83773e-21)
(0.0994824 0.027488 -6.8167e-21)
(0.123458 0.0256935 1.5399e-20)
(0.149178 0.0237681 -4.54441e-20)
(0.176653 0.0216861 3.85762e-20)
(0.205891 0.0194211 3.2974e-20)
(0.23688 0.0169466 -2.78301e-20)
(0.269627 0.0142358 1.98273e-20)
(0.304034 0.0112639 -5.80316e-20)
(0.340255 0.00800538 2.40734e-20)
(0.377663 0.00443834 -2.29078e-20)
(0.41765 0.000561633 -5.97342e-21)
(0.45643 -0.00373368 7.26484e-20)
(0.502495 -0.00812173 -5.09504e-20)
(0.536533 -0.0134567 5.40681e-22)
(0.598501 -0.0184577 4.71123e-20)
(-0.00576916 0.0163247 -3.12147e-20)
(-0.0161893 0.0371301 4.6296e-20)
(-0.0269482 0.0500366 -4.00242e-20)
(-0.0364139 0.0575192 -2.70285e-20)
(-0.0447079 0.0612486 2.817e-21)
(-0.0514943 0.0625061 9.89516e-20)
(-0.0567515 0.0621723 -2.07438e-20)
(-0.0604401 0.060869 2.28997e-20)
(-0.0625693 0.0590127 -4.79571e-21)
(-0.0631511 0.0568769 6.35796e-20)
(-0.0621997 0.0546332 5.01605e-20)
(-0.0597241 0.0523847 -9.69486e-20)
(-0.0557272 0.0501886 1.01945e-19)
(-0.0502048 0.0480726 3.68363e-20)
(-0.0431462 0.0460462 1.06125e-19)
(-0.0345349 0.0441075 2.89688e-20)
(-0.024349 0.042248 -5.74028e-20)
(-0.0125629 0.0404554 6.31018e-20)
(0.000852508 0.0387148 9.98639e-20)
(0.0159287 0.0370102 3.21972e-20)
(0.0326982 0.0353244 6.47116e-20)
(0.0511941 0.0336396 2.01444e-20)
(0.0714486 0.0319371 1.70296e-20)
(0.0934919 0.0301973 8.48079e-20)
(0.117351 0.0283998 2.67546e-20)
(0.143049 0.0265231 -5.26618e-20)
(0.170601 0.0245449 3.5815e-20)
(0.200016 0.0224418 -3.03204e-20)
(0.231291 0.0201899 -3.48792e-20)
(0.264416 0.0177647 -6.84524e-21)
(0.299353 0.0151406 7.01686e-20)
(0.336088 0.0122967 -5.25987e-22)
(0.374452 0.00919878 -1.56728e-20)
(0.414662 0.00585669 -1.08539e-20)
(0.45577 0.00216722 9.25002e-20)
(0.499744 -0.00167494 -3.07347e-20)
(0.54138 -0.00616768 -5.68429e-20)
(0.59172 -0.0102943 -5.8976e-20)
(0.626771 -0.0158732 7.92271e-20)
(0.693752 -0.020518 4.58786e-20)
(-0.00625121 0.0168692 -1.04841e-20)
(-0.01708 0.0384543 7.1403e-20)
(-0.0277464 0.0518795 2.72527e-20)
(-0.0368164 0.0596667 -7.42957e-20)
(-0.0444617 0.0635391 -6.55378e-20)
(-0.0504113 0.0648228 -1.02371e-19)
(-0.0546747 0.0644334 -5.5799e-20)
(-0.0572346 0.0630194 7.34839e-20)
(-0.058111 0.0610162 6.88458e-21)
(-0.0573211 0.0587106 -4.98348e-20)
(-0.054879 0.0562834 -1.04492e-19)
(-0.0507917 0.0538434 -1.37474e-20)
(-0.0450576 0.0514518 -5.16563e-20)
(-0.0376679 0.0491387 5.35298e-20)
(-0.0286064 0.0469152 -9.21016e-20)
(-0.0178512 0.0447803 6.5387e-20)
(-0.00537558 0.042726 -1.08398e-19)
(0.0088508 0.0407404 -8.20491e-21)
(0.0248609 0.0388093 -6.56557e-20)
(0.0426889 0.0369169 5.96062e-20)
(0.0623692 0.0350469 -3.67382e-20)
(0.083935 0.033182 -3.81328e-20)
(0.107417 0.0313044 -9.2256e-20)
(0.132841 0.0293957 -7.91287e-20)
(0.160228 0.0274366 -7.60416e-21)
(0.189591 0.025407 -1.44786e-20)
(0.22093 0.0232862 -4.62295e-21)
(0.254238 0.0210525 2.29922e-20)
(0.289486 0.0186832 6.64543e-21)
(0.326635 0.0161565 -6.85685e-20)
(0.365606 0.0134459 -8.04659e-20)
(0.406357 0.0105408 2.64385e-20)
(0.44862 0.00738527 3.19357e-20)
(0.492671 0.0040513 -1.25665e-20)
(0.537213 0.000299467 -2.60093e-20)
(0.584757 -0.00338635 8.88028e-20)
(0.628773 -0.00802778 3.9031e-20)
(0.682508 -0.01176 2.51295e-20)
(0.718045 -0.0175443 2.11904e-21)
(0.788417 -0.0216187 -6.10648e-20)
(-0.0067391 0.0173429 6.05949e-20)
(-0.0179867 0.0396185 -2.62369e-20)
(-0.0285604 0.053505 -1.08282e-19)
(-0.0372198 0.0615592 -1.03242e-21)
(-0.0441874 0.065551 5.89688e-20)
(-0.0492578 0.0668459 4.0219e-20)
(-0.052473 0.0663919 2.38153e-20)
(-0.0538386 0.0648615 -4.24493e-20)
(-0.0533862 0.0627079 4.59059e-20)
(-0.0511378 0.0602303 -8.88286e-20)
(-0.047108 0.057618 -1.16964e-20)
(-0.0413009 0.054986 8.91454e-20)
(-0.0337105 0.0523992 1.84939e-20)
(-0.0243223 0.0498907 2.19016e-20)
(-0.0131144 0.0474731 2.67304e-20)
(-5.88996e-05 0.045147 -8.64912e-20)
(0.0148764 0.0429054 3.76669e-20)
(0.0317266 0.0407373 6.95277e-20)
(0.0505283 0.0386295 -4.54449e-20)
(0.0713182 0.0365672 -1.01489e-20)
(0.0941312 0.0345351 -3.4962e-20)
(0.118998 0.0325172 -3.76285e-20)
(0.145946 0.030497 5.12656e-20)
(0.174992 0.0284575 6.72553e-20)
(0.206145 0.0263809 1.33308e-20)
(0.239399 0.0242487 3.09325e-20)
(0.274733 0.0220414 -2.60085e-20)
(0.312108 0.0197389 -3.95707e-20)
(0.351459 0.0173196 1.60215e-20)
(0.392702 0.0147644 1.47601e-19)
(0.435699 0.0120435 3.52049e-20)
(0.480361 0.00916043 2.13175e-20)
(0.526309 0.00602551 -8.01183e-20)
(0.573839 0.0027944 6.52445e-20)
(0.621347 -0.000946791 -1.59634e-20)
(0.67171 -0.00437813 -8.31999e-20)
(0.717458 -0.00908949 -1.11681e-20)
(0.773218 -0.0123505 -3.30198e-20)
(0.808674 -0.0182786 -6.94484e-20)
(0.880165 -0.0216497 -1.77168e-20)
(-0.00723042 0.0177476 -1.13754e-21)
(-0.0189044 0.0406235 1.14546e-20)
(-0.0293842 0.0549108 1.21135e-19)
(-0.0376174 0.0631918 6.12763e-20)
(-0.0438774 0.067277 -2.24631e-20)
(-0.0480251 0.0685665 -2.64981e-20)
(-0.0501357 0.0680376 -8.11665e-20)
(-0.0502384 0.0663848 -2.7613e-21)
(-0.0483767 0.0640775 -3.1158e-20)
(-0.0445774 0.0614265 1.24535e-19)
(-0.0388551 0.0586295 3.86158e-20)
(-0.0312105 0.0558071 -1.13276e-19)
(-0.0216326 0.0530287 -2.58975e-20)
(-0.0101005 0.05033 -2.13831e-20)
(0.00341444 0.0477262 -1.65938e-20)
(0.0189464 0.0452195 -2.03615e-20)
(0.0365335 0.0428047 2.94587e-20)
(0.0562155 0.0404723 -2.60977e-22)
(0.078032 0.0382104 7.84473e-21)
(0.102021 0.0360059 -2.6207e-20)
(0.128214 0.033845 2.82455e-20)
(0.156638 0.0317134 3.68114e-20)
(0.187308 0.0295961 -2.42487e-20)
(0.220227 0.0274777 -6.35322e-20)
(0.255382 0.0253419 2.00229e-20)
(0.292738 0.0231714 -5.12426e-20)
(0.332238 0.0209478 1.23849e-20)
(0.373796 0.0186519 -5.65033e-20)
(0.417291 0.0162623 4.49901e-20)
(0.462578 0.0137618 -1.02424e-19)
(0.509439 0.0111144 3.75517e-20)
(0.557713 0.00834031 -1.92887e-20)
(0.606911 0.00530825 4.16754e-20)
(0.657283 0.00226254 -2.26365e-20)
(0.707038 -0.0013856 -4.55216e-20)
(0.759118 -0.00450837 4.63047e-20)
(0.805735 -0.00918891 9.23673e-20)
(0.861736 -0.0119748 5.70606e-20)
(0.896475 -0.0179678 1.18837e-20)
(0.966366 -0.0206 9.71913e-21)
(-0.00772301 0.0180857 -8.00916e-20)
(-0.019828 0.0414712 -1.15872e-20)
(-0.0302112 0.0560965 -2.02371e-20)
(-0.0380012 0.0645612 -1.49697e-20)
(-0.0435222 0.0687111 -5.5258e-20)
(-0.0467014 0.069977 1.54421e-19)
(-0.047648 0.069362 1.69117e-19)
(-0.0464149 0.0675805 -4.45995e-20)
(-0.0430574 0.0651167 -1.20118e-19)
(-0.0376071 0.0622923 -4.40306e-20)
(-0.0300776 0.0593128 2.29815e-20)
(-0.0204657 0.0563047 -7.33585e-20)
(-0.00875413 0.0533416 -7.03304e-21)
(0.00508508 0.0504628 -8.61839e-20)
(0.0210879 0.0476861 8.84896e-20)
(0.0392954 0.0450162 1.08886e-20)
(0.0597514 0.04245 -3.87565e-20)
(0.0824994 0.0399802 -4.12865e-20)
(0.10758 0.0375969 4.35172e-20)
(0.135029 0.0352891 6.30408e-20)
(0.164872 0.0330449 7.70243e-20)
(0.197122 0.0308518 -1.52103e-22)
(0.231777 0.0286965 -5.56379e-20)
(0.268813 0.026565 5.3445e-20)
(0.30818 0.0244418 1.49011e-21)
(0.3498 0.0223104 -7.39763e-21)
(0.39356 0.0201524 5.41844e-20)
(0.439308 0.0179483 5.4686e-20)
(0.486848 0.0156748 -3.94223e-20)
(0.535948 0.0133156 -1.41962e-20)
(0.586298 0.010826 1.50179e-20)
(0.637638 0.00824071 -8.03857e-21)
(0.689381 0.00538881 4.07362e-20)
(0.741661 0.00258505 7.01764e-20)
(0.792662 -0.000891056 6.66788e-20)
(0.845061 -0.00370346 -6.67645e-20)
(0.891455 -0.00825301 -9.00002e-20)
(0.945694 -0.0106328 -2.42832e-20)
(0.978984 -0.0166077 -1.94621e-21)
(1.04445 -0.0185757 -2.58353e-21)
(-0.00821503 0.0183599 1.42794e-19)
(-0.0207527 0.0421643 5.75897e-20)
(-0.0310344 0.0570628 -3.7452e-20)
(-0.0383619 0.0656655 -1.24184e-20)
(-0.0431099 0.0698494 1.31674e-19)
(-0.0452716 0.0710715 -4.69418e-20)
(-0.0449904 0.0703584 -8.03746e-21)
(-0.0423428 0.0684419 8.18421e-20)
(-0.0373955 0.0658197 1.07601e-19)
(-0.030184 0.0628233 -2.29652e-20)
(-0.0207205 0.0596661 -5.39769e-20)
(-0.00899631 0.0564803 8.87119e-20)
(0.00501275 0.053344 3.69827e-20)
(0.0213428 0.0503004 1.60934e-19)
(0.0400375 0.0473707 -6.63524e-21)
(0.0611448 0.0445625 4.16819e-20)
(0.0847131 0.0418757 1.16195e-19)
(0.110787 0.0393056 5.46628e-20)
(0.139406 0.0368449 3.95426e-20)
(0.170596 0.034485 -1.23492e-20)
(0.204369 0.0322159 -3.54478e-20)
(0.240716 0.0300269 -9.93834e-21)
(0.279602 0.0279062 2.41043e-20)
(0.32096 0.02584 4.59885e-20)
(0.364688 0.0238132 -7.20105e-20)
(0.410642 0.0218081 1.43101e-20)
(0.458632 0.0198046 -5.4691e-21)
(0.508417 0.017781 -5.53169e-20)
(0.559705 0.0157098 3.87641e-23)
(0.612159 0.013573 7.05793e-20)
(0.665364 0.0113156 -8.91902e-20)
(0.718944 0.00898016 -2.00032e-20)
(0.772244 0.00636786 -3.9736e-20)
(0.825225 0.0038278 -4.07091e-20)
(0.876209 0.000579319 -3.21674e-20)
(0.927354 -0.00196867 1.32485e-19)
(0.972243 -0.00631657 1.03085e-20)
(1.02276 -0.00841529 -1.29315e-20)
(1.05379 -0.0143044 9.90677e-21)
(1.11233 -0.0157723 -4.25039e-20)
(-0.00870495 0.0185737 3.74164e-20)
(-0.0216736 0.0427067 -7.2269e-20)
(-0.031846 0.0578116 1.49721e-19)
(-0.0386887 0.0665042 7.77454e-20)