0.3536 	0.3536 	0 	-0.56858
0.390196 	0.390196 	0 	-0.558412
0.466318 	0.466318 	8.67362e-18 	-0.475618
0.548534 	0.548534 	2.25514e-17 	-0.447741
0.637332 	0.637332 	3.19189e-17 	-0.400448
