0.3536 	0.3536 	0 	0.0351163 	-0.0206598 	-2.38731e-19
0.390196 	0.390196 	0 	0.0288203 	-0.0177812 	1.8337e-19
0.466318 	0.466318 	8.67362e-18 	0.126712 	-0.0546 	1.71153e-19
0.548534 	0.548534 	2.25514e-17 	0.250059 	-0.0707116 	5.87788e-21
0.637332 	0.637332 	3.19189e-17 	0.380059 	-0.0817133 	-2.92096e-19
