0 	0.551757 	1.38778e-18 	-0.56726
0 	0.659416 	2.77556e-18 	-0.452378
0 	0.775694 	2.77556e-18 	-0.406989
0 	0.90128 	2.77556e-18 	-0.331553
