-0.3536 	0.3536 	-9.02056e-18 	0.240811 	0.220003 	5.0519e-20
-0.390196 	0.390196 	-1.49133e-17 	0.228642 	0.22265 	-1.41844e-19
-0.466318 	0.466318 	-2.43897e-17 	0.486739 	0.416805 	-2.43686e-20
-0.548534 	0.548534 	-2.57828e-17 	0.665203 	0.477412 	8.55154e-22
-0.614278 	0.614278 	-5.55112e-18 	0.77388 	0.46669 	1.82435e-19
-0.660386 	0.660386 	-7.63278e-18 	0.79976 	0.472852 	3.12173e-20
