0 	0.551757 	1.38778e-18 	0.245205 	0.015877 	6.60135e-21
0 	0.659416 	2.77556e-18 	0.584609 	0.0759354 	-1.12329e-20
0 	0.775694 	2.77556e-18 	0.842015 	0.152854 	4.99183e-20
0 	0.90128 	2.77556e-18 	1.0235 	0.205989 	3.60348e-20
