/*--------------------------------*- C++ -*----------------------------------*\
  =========                 |
  \\      /  F ield         | OpenFOAM: The Open Source CFD Toolbox
   \\    /   O peration     | Website:  https://openfoam.org
    \\  /    A nd           | Version:  7
     \\/     M anipulation  |
\*---------------------------------------------------------------------------*/
FoamFile
{
    version     2.0;
    format      ascii;
    class       volScalarField;
    location    "20";
    object      p;
}
// * * * * * * * * * * * * * * * * * * * * * * * * * * * * * * * * * * * * * //

dimensions      [0 2 -2 0 0 0 0];

internalField   nonuniform List<scalar> 
2625
(
-0.40058
0.994405
0.819192
0.994405
0.819192
0.806549
0.721215
0.688578
0.993283
0.818248
0.805659
0.720459
0.687909
0.99104
0.816362
0.803879
0.718948
0.686572
0.987679
0.813536
0.801213
0.716683
0.684569
0.983207
0.809776
0.797665
0.71367
0.681902
0.977631
0.805088
0.793241
0.709911
0.678575
0.970959
0.799478
0.787946
0.705412
0.674592
0.618067
0.963202
0.792958
0.781791
0.70018
0.669959
0.614144
0.954373
0.785537
0.774783
0.694223
0.664682
0.609674
0.944486
0.777228
0.766934
0.687548
0.658768
0.604663
0.933556
0.768044
0.758256
0.680167
0.652225
0.599117
0.921602
0.758001
0.748762
0.672089
0.645062
0.593043
0.908643
0.747115
0.738468
0.663327
0.637287
0.586449
0.894698
0.735404
0.727388
0.653893
0.628912
0.579343
0.879791
0.722886
0.715541
0.6438
0.619948
0.571733
0.863945
0.709584
0.702943
0.633064
0.610407
0.563629
0.847185
0.695517
0.689616
0.621699
0.6003
0.555041
0.829538
0.68071
0.675578
0.609723
0.589642
0.54598
0.811031
0.665185
0.660852
0.597152
0.578447
0.536456
0.791694
0.648969
0.645461
0.584005
0.56673
0.526482
0.771557
0.632086
0.629426
0.5703
0.554506
0.516069
0.750652
0.614565
0.612774
0.556058
0.541791
0.50523
0.72901
0.596434
0.595528
0.541298
0.528601
0.493979
0.706666
0.57772
0.577716
0.526041
0.514955
0.482328
0.461578
0.683654
0.558454
0.559364
0.51031
0.500871
0.470294
0.451082
0.66001
0.538666
0.540499
0.494127
0.486366
0.457889
0.440255
0.635769
0.518387
0.52115
0.477514
0.471459
0.445129
0.429109
0.610968
0.497649
0.501346
0.460496
0.456171
0.432029
0.417657
0.585646
0.476484
0.481116
0.443095
0.44052
0.418605
0.405911
0.559839
0.454925
0.46049
0.425337
0.424528
0.404874
0.393884
0.533588
0.433004
0.439498
0.407246
0.408215
0.390851
0.38159
0.50693
0.410755
0.418172
0.388848
0.391602
0.376554
0.369043
0.479905
0.388211
0.396541
0.370168
0.37471
0.361999
0.356256
0.342849
0.452553
0.365407
0.374638
0.351232
0.357562
0.347203
0.343243
0.331596
0.424914
0.342376
0.352495
0.332066
0.340178
0.332186
0.330018
0.320148
0.397027
0.319152
0.330142
0.312695
0.322582
0.316963
0.316597
0.308518
0.368933
0.295769
0.307611
0.293148
0.304795
0.301552
0.302993
0.296718
0.34067
0.27226
0.284935
0.273449
0.28684
0.285973
0.289222
0.284759
0.312279
0.248659
0.262144
0.253625
0.268739
0.270243
0.275298
0.272654
0.269468
0.283805
0.225002
0.239272
0.233704
0.250516
0.25438
0.261236
0.260414
0.258701
0.255303
0.201332
0.216355
0.213715
0.232195
0.238404
0.247051
0.248051
0.247815
0.226768
0.177658
0.193413
0.193677
0.213794
0.222331
0.232758
0.235578
0.23682
0.198252
0.15402
0.17048
0.173619
0.195339
0.20618
0.218373
0.223007
0.225726
0.169803
0.130453
0.147589
0.153568
0.176852
0.189971
0.203911
0.21035
0.214544
0.214759
0.141456
0.10699
0.124769
0.133549
0.158355
0.173721
0.189386
0.19762
0.203282
0.204838
0.113247
0.0836586
0.10205
0.113588
0.139871
0.157448
0.174815
0.184829
0.191953
0.194845
0.0852113
0.0604899
0.0794621
0.09371
0.121422
0.141172
0.160211
0.171989
0.180565
0.18479
0.057385
0.0375125
0.0570325
0.0739392
0.10303
0.124909
0.145591
0.159112
0.169128
0.17468
0.177872
0.0298018
0.0147544
0.0347893
0.0542999
0.0847159
0.108679
0.13097
0.146211
0.157653
0.164524
0.168823
0.00249565
-0.00775751
0.0127595
0.0348157
0.0665017
0.0924981
0.116361
0.133297
0.146151
0.154329
0.15973
-0.0245013
-0.029997
-0.00903037
0.0155098
0.0484083
0.076385
0.101781
0.120384
0.13463
0.144105
0.1506
0.154556
-0.0511626
-0.051935
-0.030555
-0.00359531
0.0304562
0.0603567
0.0872431
0.107482
0.1231
0.133859
0.141439
0.146352
-0.0774558
-0.0735492
-0.0517896
-0.0224777
0.0126657
0.0444305
0.0727628
0.0946045
0.111573
0.1236
0.132256
0.138118
-0.103348
-0.0948194
-0.0727107
-0.0411162
-0.00494342
0.0286231
0.0583543
0.0817626
0.100057
0.113336
0.123056
0.12986
0.134701
-0.128813
-0.115722
-0.0932959
-0.0594901
-0.022352
0.0129513
0.0440318
0.0689682
0.088562
0.103074
0.113846
0.121583
0.127218
-0.153826
-0.136235
-0.113523
-0.0775795
-0.0395413
-0.00256876
0.0298092
0.0562329
0.0770982
0.0928233
0.104634
0.113293
0.119715
0.124515
-0.178362
-0.156339
-0.13337
-0.095367
-0.056493
-0.0179212
0.0157004
0.0435682
0.0656749
0.0825914
0.095425
0.104996
0.112196
0.11767
-0.202396
-0.176015
-0.152819
-0.112833
-0.0731898
-0.0330905
0.00171895
0.0309854
0.0543017
0.0723863
0.0862269
0.0966977
0.104666
0.110808
-0.225906
-0.195246
-0.171851
-0.129961
-0.0896147
-0.0480615
-0.0121219
0.0184957
0.0429879
0.0622157
0.077046
0.0884032
0.0971312
0.103931
0.109243
-0.248871
-0.214015
-0.19045
-0.146733
-0.105751
-0.0628196
-0.0258092
0.00610995
0.0317426
0.0520874
0.0678889
0.0801186
0.0895952
0.0970449
0.102907
0.107908
-0.271271
-0.232307
-0.208597
-0.163136
-0.121584
-0.077351
-0.0393301
-0.00616092
0.0205752
0.042009
0.0587619
0.0718492
0.0820631
0.0901532
0.0965572
0.102018
-0.293088
-0.250109
-0.226279
-0.179154
-0.137098
-0.0916416
-0.0526723
-0.0183064
0.0094944
0.031988
0.0496715
0.0636007
0.07454
0.0832603
0.0901981
0.0961095
0.100653
-0.314305
-0.267408
-0.243482
-0.194775
-0.152279
-0.105678
-0.0658237
-0.030316
-0.00149078
0.022032
0.040624
0.0553785
0.0670305
0.0763705
0.0838334
0.0901861
0.0950975
-0.334907
-0.284193
-0.260194
-0.209984
-0.167114
-0.119448
-0.0787727
-0.0421796
-0.0123717
0.0121482
0.0316259
0.047188
0.0595395
0.0694881
0.0774671
0.0842516
0.089524
0.0951983
-0.354879
-0.300454
-0.276402
-0.224772
-0.181591
-0.132939
-0.0915078
-0.0538874
-0.0231399
0.00234392
0.0226831
0.0390347
0.0520717
0.0626175
0.0711031
0.0783096
0.0839355
0.0898512
0.0928307
-0.37421
-0.316183
-0.292097
-0.239128
-0.195698
-0.14614
-0.104018
-0.0654297
-0.0337867
-0.00737379
0.013802
0.0309238
0.044632
0.0557629
0.0647453
0.0723641
0.0783355
0.0844797
0.0877394
0.095706
-0.392888
-0.331372
-0.307271
-0.253043
-0.209423
-0.15904
-0.116293
-0.0767971
-0.0443042
-0.0169979
0.00498838
0.0228607
0.0372249
0.0489287
0.0583979
0.0664187
0.0727278
0.079088
0.0826197
0.0904055
-0.410903
-0.346015
-0.321915
-0.266508
-0.222758
-0.171629
-0.128323
-0.0879804
-0.0546844
-0.0265214
-0.00375167
0.0148506
0.0298552
0.0421192
0.0520647
0.0604776
0.067116
0.0736802
0.077475
0.0850643
-0.428247
-0.360107
-0.336023
-0.279516
-0.235693
-0.183897
-0.140098
-0.0989707
-0.0649193
-0.0359378
-0.0124122
0.00689844
0.0225275
0.0353385
0.0457499
0.0545447
0.061504
0.068261
0.072309
0.0796893
-0.444914
-0.373645
-0.349591
-0.292061
-0.248221
-0.195835
-0.151609
-0.10976
-0.0750014
-0.0452403
-0.0209875
-0.000990546
0.0152464
0.0285912
0.0394576
0.0486241
0.055896
0.0628349
0.0671256
0.0742878
-0.460899
-0.386626
-0.362614
-0.304138
-0.260333
-0.207435
-0.162847
-0.120339
-0.0849232
-0.0544224
-0.0294723
-0.00881097
0.00801645
0.0218813
0.0331919
0.0427199
0.0502958
0.0574067
0.0619289
0.0688676
-0.476196
-0.399048
-0.37509
-0.315744
-0.272024
-0.21869
-0.173804
-0.130701
-0.0946774
-0.0634778
-0.0378606
-0.0165585
0.000842299
0.0152131
0.0269568
0.0368364
0.0447079
0.0519813
0.0567237
-0.490804
-0.410913
-0.387018
-0.326876
-0.283288
-0.229593
-0.184472
-0.140837
-0.104257
-0.0724002
-0.0461469
-0.024228
-0.00627175
0.00859094
0.0207565
0.0309776
0.0391363
0.0465639
0.0515147
-0.504722
-0.42222
-0.398397
-0.337531
-0.294122
-0.240137
-0.194845
-0.150741
-0.113656
-0.0811836
-0.0543259
-0.0318147
-0.0133213
0.00201893
0.014595
0.025148
0.0335856
0.0411596
0.0463071
-0.517949
-0.432973
-0.409228
-0.34771
-0.304521
-0.250318
-0.204916
-0.160407
-0.122866
-0.0898222
-0.0623924
-0.0393138
-0.0203019
-0.00449886
0.00847664
0.0193517
0.02806
0.0357737
0.0411063
-0.530488
-0.443173
-0.419513
-0.357412
-0.314485
-0.26013
-0.214678
-0.169826
-0.131883
-0.0983101
-0.0703412
-0.0467207
-0.0272094
-0.0109582
0.00240526
0.013593
0.0225643
0.0304116
0.0359178
-0.54234
-0.452826
-0.429256
-0.366639
-0.32401
-0.269572
-0.224127
-0.178994
-0.140699
-0.106642
-0.0781673
-0.0540308
-0.0340393
-0.0173549
-0.00361502
0.00787594
0.017103
0.0250787
0.0307475
-0.553509
-0.461936
-0.438461
-0.375394
-0.333097
-0.278638
-0.233257
-0.187906
-0.14931
-0.114812
-0.0858658
-0.0612396
-0.0407877
-0.0236851
-0.00958014
0.00220518
0.0116804
0.0197793
0.0256023
-0.564001
-0.470511
-0.447132
-0.38368
-0.341747
-0.287329
-0.242065
-0.196554
-0.157709
-0.122815
-0.0934318
-0.0683427
-0.0474503
-0.0299448
-0.0154861
-0.00341509
0.00630107
0.0145197
0.0204888
-0.57382
-0.478554
-0.455276
-0.3915
-0.349959
-0.29564
-0.250547
-0.204936
-0.165892
-0.130646
-0.100861
-0.0753359
-0.0540232
-0.0361299
-0.021329
-0.00898073
0.000969587
0.009306
0.0154112
-0.582969
-0.48607
-0.462895
-0.398857
-0.357735
-0.303572
-0.258698
-0.213045
-0.173853
-0.1383
-0.108148
-0.0822149
-0.0605025
-0.0422369
-0.0271051
-0.0144877
-0.00430961
0.00414293
0.0103761
-0.591467
-0.493078
-0.470006
-0.405764
-0.365083
-0.311127
-0.26652
-0.22088
-0.181588
-0.145773
-0.115288
-0.0889754
-0.0668841
-0.0482615
-0.0328101
-0.0199316
-0.00953183
-0.000964259
0.00539066
-0.59932
-0.499583
-0.476616
-0.412225
-0.372005
-0.318306
-0.27401
-0.228436
-0.189093
-0.15306
-0.122279
-0.0956135
-0.0731641
-0.0542002
-0.0384405
-0.0253085
-0.0146927
-0.00601054
0.000461284
-0.606536
-0.505593
-0.482731
-0.418248
-0.378505
-0.325109
-0.281166
-0.235711
-0.196365
-0.160157
-0.129114
-0.102125
-0.0793389
-0.0600494
-0.0439927
-0.0306146
-0.019788
-0.010991
-0.00440584
-0.613126
-0.51112
-0.488363
-0.423839
-0.38459
-0.331541
-0.287988
-0.242703
-0.203398
-0.167059
-0.135791
-0.108507
-0.085405
-0.0658056
-0.049463
-0.035846
-0.0248135
-0.0159009
-0.00920457
-0.619102
-0.516174
-0.493522
-0.42901
-0.390266
-0.337603
-0.294478
-0.249409
-0.210191
-0.173764
-0.142306
-0.114754
-0.0913587
-0.0714651
-0.0548478
-0.0409989
-0.029765
-0.0207355
-0.0139289
-0.624476
-0.520767
-0.498219
-0.433769
-0.39554
-0.343301
-0.300636
-0.255829
-0.21674
-0.180267
-0.148654
-0.120865
-0.0971966
-0.0770247
-0.0601439
-0.0460697
-0.0346385
-0.0254905
-0.0185731
-0.629261
-0.524911
-0.502468
-0.438128
-0.40042
-0.348639
-0.306464
-0.261962
-0.223044
-0.186566
-0.154832
-0.126834
-0.102915
-0.082481
-0.0653477
-0.0510549
-0.0394301
-0.0301616
-0.0231316
-0.633471
-0.528618
-0.506281
-0.442096
-0.404916
-0.353624
-0.311964
-0.267807
-0.2291
-0.192656
-0.160838
-0.132658
-0.108511
-0.0878308
-0.0704562
-0.0559511
-0.0441363
-0.0347449
-0.0275992
-0.637121
-0.531902
-0.509669
-0.445686
-0.409036
-0.35826
-0.31714
-0.273366
-0.234906
-0.198537
-0.166666
-0.138335
-0.113982
-0.0930708
-0.0754662
-0.060755
-0.0487533
-0.0392366
-0.031971
-0.0274297
-0.640225
-0.534775
-0.512648
-0.44891
-0.41279
-0.362556
-0.321996
-0.278639
-0.240462
-0.204204
-0.172316
-0.14386
-0.119323
-0.0981982
-0.0803746
-0.0654635
-0.0532779
-0.0436333
-0.0362425
-0.0316766
-0.642799
-0.537251
-0.51523
-0.451779
-0.416189
-0.366519
-0.326537
-0.283627
-0.245767
-0.209657
-0.177783
-0.149232
-0.124533
-0.10321
-0.0851786
-0.0700736
-0.0577069
-0.0479315
-0.0404095
-0.0358074
-0.644858
-0.539344
-0.517429
-0.454306
-0.419245
-0.370156
-0.330766
-0.288334
-0.250821
-0.214893
-0.183065
-0.154447
-0.129608
-0.108103
-0.0898754
-0.0745825
-0.0620374
-0.0521284
-0.0444682
-0.0398196
-0.646419
-0.541067
-0.51926
-0.456504
-0.421967
-0.373478
-0.334691
-0.292761
-0.255624
-0.219911
-0.18816
-0.159502
-0.134545
-0.112874
-0.0944622
-0.0789874
-0.0662665
-0.056221
-0.0484154
-0.0437111
-0.647498
-0.542434
-0.520737
-0.458387
-0.424369
-0.376492
-0.338317
-0.296912
-0.260176
-0.224709
-0.193066
-0.164394
-0.139342
-0.117522
-0.0989365
-0.0832857
-0.0703918
-0.0602069
-0.0522481
-0.04748
-0.648111
-0.543458
-0.521874
-0.459966
-0.426461
-0.379209
-0.341651
-0.300791
-0.26448
-0.229288
-0.19778
-0.169122
-0.143995
-0.122043
-0.103296
-0.087475
-0.0744108
-0.0640836
-0.0559638
-0.0511249
-0.648275
-0.544155
-0.522685
-0.461256
-0.428257
-0.381639
-0.344702
-0.304403
-0.268536
-0.233646
-0.202302
-0.173682
-0.148503
-0.126435
-0.107538
-0.091553
-0.0783214
-0.0678491
-0.0595605
-0.0546444
-0.648008
-0.544538
-0.523185
-0.46227
-0.429769
-0.383792
-0.347475
-0.307751
-0.272348
-0.237785
-0.206629
-0.178073
-0.152864
-0.130695
-0.111661
-0.0955173
-0.0821218
-0.0715013
-0.0630366
-0.0580378
-0.647326
-0.54462
-0.523388
-0.463022
-0.431009
-0.385678
-0.349981
-0.310842
-0.275917
-0.241703
-0.210761
-0.182293
-0.157074
-0.134821
-0.115662
-0.099366
-0.0858102
-0.0750385
-0.0663909
-0.0613042
-0.646246
-0.544416
-0.523309
-0.463523
-0.431991
-0.387309
-0.352227
-0.313682
-0.279247
-0.245403
-0.214697
-0.186339
-0.161132
-0.138811
-0.119539
-0.103097
-0.089385
-0.0784589
-0.0696227
-0.0644431
-0.644786
-0.543938
-0.522962
-0.463789
-0.432727
-0.388696
-0.354222
-0.316276
-0.282342
-0.248885
-0.218436
-0.190212
-0.165035
-0.142662
-0.123291
-0.106708
-0.0928451
-0.0817611
-0.0727315
-0.0674539
-0.642962
-0.543202
-0.52236
-0.463831
-0.433229
-0.389851
-0.355977
-0.318632
-0.285205
-0.252152
-0.221979
-0.193908
-0.168783
-0.146374
-0.126915
-0.110199
-0.0961894
-0.0849436
-0.0757176
-0.0703361
-0.640792
-0.54222
-0.521518
-0.463663
-0.433511
-0.390784
-0.357501
-0.320758
-0.287843
-0.255205
-0.225326
-0.197428
-0.172372
-0.149943
-0.13041
-0.113566
-0.0994169
-0.0880049
-0.0785816
-0.0730892
-0.638292
-0.541005
-0.520449
-0.463297
-0.433585
-0.391506
-0.358803
-0.322659
-0.290259
-0.258048
-0.228477
-0.20077
-0.175803
-0.153368
-0.133775
-0.116808
-0.102527
-0.0909439
-0.0813245
-0.0757122
-0.635479
-0.539569
-0.519166
-0.462745
-0.433464
-0.392031
-0.359895
-0.324346
-0.292459
-0.260682
-0.231433
-0.203934
-0.179073
-0.156647
-0.137007
-0.119924
-0.105519
-0.0937589
-0.0839479
-0.0782042
-0.632371
-0.537927
-0.517683
-0.46202
-0.433159
-0.392368
-0.360785
-0.325825
-0.294449
-0.263113
-0.234197
-0.206921
-0.182182
-0.159779
-0.140107
-0.122912
-0.108393
-0.0964488
-0.086454
-0.0805635
-0.628982
-0.53609
-0.516011
-0.461133
-0.432684
-0.392529
-0.361484
-0.327106
-0.296236
-0.265344
-0.23677
-0.209729
-0.185129
-0.162762
-0.143071
-0.125771
-0.111149
-0.099012
-0.0888455
-0.0827879
-0.62533
-0.534071
-0.514164
-0.460096
-0.432048
-0.392526
-0.362003
-0.328196
-0.297826
-0.267378
-0.239154
-0.21236
-0.187913
-0.165596
-0.1459
-0.1285
-0.113787
-0.101447
-0.0911261
-0.0848742
-0.62143
-0.531881
-0.512154
-0.45892
-0.431265
-0.392368
-0.362352
-0.329106
-0.299226
-0.269222
-0.241352
-0.214816
-0.190534
-0.168279
-0.148593
-0.131097
-0.116308
-0.103752
-0.0933
-0.086818
-0.617298
-0.529532
-0.509992
-0.457616
-0.430344
-0.392067
-0.362542
-0.329843
-0.300444
-0.270881
-0.243367
-0.217096
-0.192992
-0.170811
-0.151148
-0.133561
-0.118711
-0.105925
-0.0953723
-0.0886135
-0.61295
-0.527035
-0.50769
-0.456193
-0.429297
-0.391634
-0.362581
-0.330417
-0.301487
-0.272359
-0.245202
-0.219203
-0.195288
-0.173191
-0.153565
-0.135891
-0.120997
-0.107964
-0.0973491
-0.0902528
-0.608401
-0.524401
-0.505258
-0.454661
-0.428133
-0.391078
-0.362481
-0.330837
-0.302363
-0.273663
-0.246863
-0.22114
-0.197423
-0.175419
-0.155844
-0.138086
-0.123168
-0.109867
-0.0992376
-0.0917258
-0.603665
-0.521642
-0.502707
-0.453031
-0.426864
-0.390408
-0.362251
-0.331112
-0.303079
-0.2748
-0.248353
-0.222908
-0.199397
-0.177494
-0.157984
-0.140146
-0.125225
-0.111631
-0.101046
-0.0930192
-0.598758
-0.518767
-0.500049
-0.451311
-0.425497
-0.389636
-0.3619
-0.331252
-0.303645
-0.275775
-0.249676
-0.224511
-0.201212
-0.179418
-0.159986
-0.142069
-0.127168
-0.113255
-0.102784
-0.0941158
-0.593695
-0.515787
-0.497292
-0.44951
-0.424043
-0.388768
-0.361438
-0.331264
-0.304067
-0.276596
-0.250839
-0.225952
-0.20287
-0.181192
-0.161849
-0.143856
-0.128998
-0.114734
-0.104461
-0.0949936
-0.588488
-0.512711
-0.494446
-0.447636
-0.42251
-0.387815
-0.360874
-0.331158
-0.304355
-0.277269
-0.251847
-0.227236
-0.204373
-0.182815
-0.163575
-0.145506
-0.130718
-0.116068
-0.106088
-0.0956238
-0.583153
-0.509549
-0.49152
-0.445697
-0.420907
-0.386784
-0.360216
-0.330943
-0.304515
-0.277802
-0.252705
-0.228366
-0.205725
-0.184291
-0.165164
-0.14702
-0.132328
-0.117254
-0.107677
-0.577703
-0.506312
-0.488525
-0.4437
-0.41924
-0.385684
-0.359474
-0.330626
-0.304558
-0.278202
-0.25342
-0.229347
-0.206928
-0.18562
-0.166616
-0.148399
-0.133829
-0.11829
-0.10924
-0.572151
-0.503007
-0.485467
-0.441653
-0.417518
-0.384521
-0.358654
-0.330216
-0.30449
-0.278477
-0.253998
-0.230184
-0.207986
-0.186806
-0.167935
-0.149643
-0.135222
-0.119176
-0.110791
-0.56651
-0.499643
-0.482356
-0.439563
-0.415747
-0.383303
-0.357764
-0.329721
-0.304319
-0.278634
-0.254446
-0.230883
-0.208904
-0.187851
-0.16912
-0.150754
-0.136508
-0.119914
-0.112335
-0.560791
-0.496226
-0.479197
-0.437433
-0.413933
-0.382035
-0.356811
-0.329147
-0.304053
-0.278681
-0.254771
-0.23145
-0.209685
-0.188759
-0.170175
-0.151736
-0.137688
-0.120512
-0.555013
-0.492771
-0.476003
-0.435274
-0.412085
-0.380726
-0.355803
-0.328504
-0.3037
-0.278624
-0.254979
-0.23189
-0.210334
-0.189534
-0.171101
-0.152589
-0.13876
-0.120987
-0.549186
-0.489284
-0.47278
-0.433091
-0.410208
-0.379381
-0.354747
-0.327797
-0.303268
-0.278473
-0.255078
-0.232211
-0.210858
-0.190179
-0.171902
-0.153319
-0.139726
-0.121355
-0.543321
-0.485772
-0.469534
-0.430888
-0.408307
-0.378005
-0.353648
-0.327034
-0.302763
-0.278233
-0.255074
-0.232418
-0.21126
-0.1907
-0.17258
-0.153929
-0.140584
-0.121626
-0.537432
-0.482242
-0.466274
-0.428672
-0.406388
-0.376603
-0.352512
-0.32622
-0.302193
-0.277912
-0.254976
-0.232518
-0.211548
-0.191103
-0.17314
-0.154422
-0.141334
-0.531529
-0.478704
-0.463005
-0.426447
-0.404455
-0.375181
-0.351345
-0.325362
-0.301563
-0.277518
-0.25479
-0.232519
-0.211728
-0.191391
-0.173586
-0.154804
-0.141978
-0.525627
-0.475163
-0.459736
-0.424218
-0.402515
-0.373743
-0.350151
-0.324466
-0.300881
-0.277057
-0.254523
-0.232427
-0.211805
-0.191573
-0.173921
-0.155079
-0.142518
-0.519735
-0.471629
-0.456472
-0.42199
-0.400571
-0.372293
-0.348937
-0.323536
-0.300153
-0.276535
-0.254182
-0.23225
-0.211787
-0.191653
-0.174152
-0.155254
-0.142954
-0.513866
-0.468108
-0.453221
-0.419769
-0.398627
-0.370836
-0.347706
-0.322579
-0.299384
-0.27596
-0.253775
-0.231994
-0.211681
-0.191639
-0.174282
-0.155333
-0.14329
-0.508032
-0.464607
-0.449988
-0.417558
-0.39669
-0.369377
-0.346463
-0.321598
-0.298581
-0.275338
-0.253308
-0.231668
-0.211493
-0.191537
-0.174318
-0.155323
-0.143529
-0.502243
-0.461133
-0.446781
-0.415362
-0.394761
-0.367917
-0.345212
-0.3206
-0.297748
-0.274675
-0.252788
-0.231277
-0.21123
-0.191354
-0.174266
-0.15523
-0.496513
-0.457695
-0.443605
-0.413185
-0.392847
-0.366462
-0.343957
-0.319587
-0.296891
-0.273976
-0.25222
-0.230829
-0.2109
-0.191098
-0.174132
-0.155061
-0.490852
-0.454297
-0.440467
-0.411032
-0.39095
-0.365015
-0.342702
-0.318565
-0.296014
-0.273247
-0.251613
-0.23033
-0.21051
-0.190776
-0.173922
-0.154823
-0.48527
-0.450948
-0.437374
-0.408906
-0.389075
-0.36358
-0.341452
-0.317538
-0.295123
-0.272494
-0.250971
-0.229788
-0.210065
-0.190395
-0.173644
-0.154524
-0.479781
-0.447654
-0.43433
-0.406813
-0.387226
-0.362159
-0.340209
-0.316509
-0.294222
-0.271722
-0.2503
-0.229209
-0.209575
-0.189963
-0.173304
-0.15417
-0.474393
-0.444422
-0.431342
-0.404757
-0.385406
-0.360757
-0.338977
-0.315482
-0.293316
-0.270936
-0.249606
-0.228598
-0.209044
-0.189486
-0.172908
-0.153769
-0.469119
-0.441258
-0.428417
-0.402741
-0.38362
-0.359376
-0.337759
-0.314462
-0.292408
-0.27014
-0.248895
-0.227963
-0.20848
-0.188972
-0.172465
-0.153329
-0.463969
-0.438169
-0.42556
-0.400769
-0.38187
-0.358021
-0.336559
-0.313451
-0.291502
-0.26934
-0.248172
-0.22731
-0.207889
-0.188427
-0.17198
-0.458954
-0.435161
-0.422777
-0.398847
-0.380162
-0.356693
-0.335381
-0.312453
-0.290603
-0.268539
-0.247442
-0.226643
-0.207278
-0.187859
-0.171461
-0.454084
-0.43224
-0.420073
-0.396977
-0.378499
-0.355397
-0.334227
-0.311471
-0.289715
-0.267742
-0.246709
-0.225968
-0.206652
-0.187274
-0.170915
-0.449369
-0.429413
-0.417455
-0.395164
-0.376884
-0.354135
-0.333101
-0.31051
-0.28884
-0.266954
-0.245979
-0.22529
-0.206017
-0.186677
-0.170348
-0.44482
-0.426685
-0.414928
-0.393411
-0.375321
-0.352911
-0.332007
-0.309571
-0.287983
-0.266177
-0.245255
-0.224615
-0.205378
-0.186075
-0.169766
-0.440445
-0.424063
-0.412497
-0.391724
-0.373815
-0.351728
-0.330946
-0.308659
-0.287147
-0.265416
-0.244543
-0.223947
-0.204742
-0.185474
-0.169177
-0.436256
-0.421551
-0.410167
-0.390105
-0.372367
-0.35059
-0.329924
-0.307776
-0.286336
-0.264674
-0.243846
-0.223291
-0.204113
-0.184878
-0.168585
-0.432263
-0.419153
-0.407945
-0.388559
-0.370983
-0.349498
-0.328941
-0.306927
-0.285553
-0.263956
-0.243168
-0.22265
-0.203495
-0.184293
-0.167997
-0.42848
-0.416872
-0.405834
-0.387088
-0.369666
-0.348458
-0.328003
-0.306113
-0.2848
-0.263264
-0.242512
-0.222029
-0.202894
-0.183723
-0.167418
-0.424887
-0.414734
-0.403841
-0.385698
-0.368419
-0.34747
-0.327111
-0.305337
-0.284082
-0.262602
-0.241884
-0.221432
-0.202313
-0.183172
-0.166854
-0.42152
-0.412723
-0.401968
-0.38439
-0.367245
-0.34654
-0.326269
-0.304604
-0.283401
-0.261973
-0.241285
-0.220862
-0.201756
-0.182645
-0.166309
-0.418384
-0.410844
-0.400221
-0.38317
-0.366148
-0.345668
-0.32548
-0.303914
-0.28276
-0.26138
-0.240718
-0.220323
-0.201228
-0.182145
-0.165787
-0.415483
-0.409106
-0.398604
-0.382038
-0.36513
-0.344859
-0.324745
-0.303272
-0.282162
-0.260825
-0.240188
-0.219817
-0.200732
-0.181676
-0.165295
-0.412823
-0.407512
-0.397121
-0.381
-0.364195
-0.344114
-0.324069
-0.302679
-0.28161
-0.260312
-0.239697
-0.219348
-0.20027
-0.181239
-0.164834
-0.41041
-0.406067
-0.395776
-0.380057
-0.363346
-0.343436
-0.323453
-0.302139
-0.281105
-0.259842
-0.239247
-0.218918
-0.199846
-0.180839
-0.40825
-0.404774
-0.394571
-0.379212
-0.362584
-0.342827
-0.322899
-0.301652
-0.280651
-0.259419
-0.238841
-0.21853
-0.199463
-0.180477
-0.406349
-0.403635
-0.39351
-0.378467
-0.361912
-0.34229
-0.322409
-0.301222
-0.280248
-0.259044
-0.238481
-0.218185
-0.199122
-0.180156
-0.404711
-0.402654
-0.392596
-0.377825
-0.361332
-0.341825
-0.321986
-0.30085
-0.2799
-0.258719
-0.238169
-0.217886
-0.198826
-0.179877
-0.403339
-0.401832
-0.39183
-0.377287
-0.360846
-0.341436
-0.321631
-0.300537
-0.279607
-0.258446
-0.237906
-0.217634
-0.198576
-0.179643
-0.402238
-0.401173
-0.391215
-0.376855
-0.360456
-0.341123
-0.321346
-0.300285
-0.279371
-0.258226
-0.237694
-0.217431
-0.198375
-0.179453
-0.40141
-0.400677
-0.390752
-0.376529
-0.360162
-0.340887
-0.32113
-0.300095
-0.279193
-0.258059
-0.237534
-0.217278
-0.198223
-0.17931
-0.400857
-0.400346
-0.390443
-0.376312
-0.359965
-0.34073
-0.320986
-0.299968
-0.279074
-0.257948
-0.237427
-0.217175
-0.198121
-0.179215
-0.40058
-0.40018
-0.390289
-0.376203
-0.359867
-0.340651
-0.320914
-0.299905
-0.279014
-0.257892
-0.237373
-0.217124
-0.19807
-0.179167
-0.0792985
-0.0786051
-0.0796282
-0.0778148
-0.0789329
-0.0799618
-0.0769368
-0.0781391
-0.0792643
-0.080299
-0.0772589
-0.0784666
-0.0795989
-0.0806394
-0.0762764
-0.0775839
-0.078797
-0.0799364
-0.0809825
-0.0751936
-0.0765984
-0.0779114
-0.0791298
-0.0802764
-0.0813279
-0.0755129
-0.0769228
-0.0782412
-0.0794648
-0.0806184
-0.0816754
-0.0743171
-0.0758343
-0.0772492
-0.0785729
-0.0798015
-0.0809621
-0.0820244
-0.0730078
-0.0746353
-0.0761576
-0.0775773
-0.0789061
-0.0801398
-0.0813072
-0.0823746
-0.0733226
-0.0749553
-0.0764824
-0.0779069
-0.0792407
-0.0804793
-0.0816532
-0.0718888
-0.0736389
-0.0752767
-0.0768087
-0.0782378
-0.0795763
-0.0808196
-0.0819996
-0.070329
-0.0722012
-0.0739566
-0.0755994
-0.077136
-0.0785697
-0.0799126
-0.0811605
-0.0823463
-0.0706369
-0.0725148
-0.0742755
-0.0759232
-0.0774643
-0.0789022
-0.0802494
-0.0815016
-0.0826927
-0.0689403
-0.0709459
-0.0728295
-0.0745954
-0.0762478
-0.0777933
-0.0792352
-0.0805863
-0.0818426
-0.0830385
-0.0692442
-0.071256
-0.0731451
-0.0749162
-0.0765731
-0.0781227
-0.0795685
-0.0809231
-0.0821831
-0.0833834
-0.0674047
-0.069549
-0.0715668
-0.0734615
-0.0752375
-0.076899
-0.0784524
-0.0799017
-0.0812595
-0.082523
-0.0837269
-0.0677037
-0.0698545
-0.0718784
-0.0737785
-0.0755594
-0.0772251
-0.0787822
-0.0802347
-0.0815952
-0.0828618
-0.0840688
-0.0657151
-0.0680033
-0.0701607
-0.0721905
-0.074096
-0.0758816
-0.0775513
-0.0791118
-0.0805672
-0.0819301
-0.0831993
-0.0844086
-0.0660083
-0.0683035
-0.0704674
-0.072503
-0.0744138
-0.0762039
-0.0778774
-0.079441
-0.080899
-0.0822638
-0.0835352
-0.0847461
-0.0663019
-0.0686041
-0.0707744
-0.0728159
-0.0747318
-0.0765262
-0.0782034
-0.0797697
-0.0812299
-0.082596
-0.083869
-0.0850809
-0.0641519
-0.0665958
-0.068905
-0.0710817
-0.0731289
-0.0750498
-0.0768484
-0.0785289
-0.0800977
-0.0815596
-0.0829266
-0.0842007
-0.0854126
-0.0644386
-0.06689
-0.0692061
-0.0713892
-0.073442
-0.0753677
-0.0771703
-0.0788539
-0.0804248
-0.081888
-0.0832553
-0.0845297
-0.0857409
-0.0621288
-0.0647255
-0.0671844
-0.0695074
-0.0716967
-0.073755
-0.0756854
-0.0774918
-0.0791781
-0.0807507
-0.0822148
-0.0835819
-0.0848559
-0.0860656
-0.0624078
-0.0650124
-0.0674787
-0.0698086
-0.0720041
-0.0740678
-0.0760028
-0.0778126
-0.0795015
-0.0810754
-0.0825398
-0.083906
-0.0851789
-0.0863861
-0.059934
-0.0626868
-0.0652993
-0.067773
-0.0701097
-0.0723113
-0.0743803
-0.0763195
-0.0781327
-0.0798237
-0.0813985
-0.0828626
-0.0842273
-0.0854983
-0.0867022
-0.060205
-0.0629661
-0.0655865
-0.0680676
-0.0704109
-0.0726185
-0.0746926
-0.076636
-0.0784521
-0.0801449
-0.0817201
-0.0831834
-0.0845458
-0.0858139
-0.0870134
-0.0604765
-0.063246
-0.0658744
-0.0683629
-0.070713
-0.0729265
-0.0750056
-0.076953
-0.0787719
-0.0804661
-0.0820412
-0.083503
-0.0848623
-0.0861264
-0.0873201
-0.0578251
-0.0607456
-0.0635236
-0.06616
-0.068656
-0.0710129
-0.0732325
-0.0753168
-0.0772682
-0.0790899
-0.0807855
-0.0823606
-0.0838206
-0.0851763
-0.0864357
-0.0876227
-0.0580765
-0.0610053
-0.0637914
-0.0664354
-0.0689385
-0.0713019
-0.0735272
-0.0756164
-0.0775717
-0.0793961
-0.0810932
-0.0826682
-0.0841268
-0.0854794
-0.0867346
-0.0879158
-0.0552563
-0.0583363
-0.0612726
-0.0640655
-0.0667157
-0.0692243
-0.0715925
-0.0738216
-0.0759135
-0.0778703
-0.0796949
-0.0813908
-0.0829632
-0.0844178
-0.0857652
-0.0870147
-0.0881897
-0.0555895
-0.0586801
-0.061626
-0.0644274
-0.0670849
-0.0695993
-0.0719716
-0.0742031
-0.0762954
-0.0782503
-0.0800705
-0.0817591
-0.083321
-0.0847622
-0.0860928
-0.0873232
-0.0884762
-0.0559528
-0.0590621
-0.0620262
-0.0648451
-0.0675194
-0.0700497
-0.0724366
-0.0746812
-0.0767844
-0.0787477
-0.0805728
-0.0822621
-0.0838193
-0.085249
-0.0865596
-0.0877596
-0.0888688
)
;

boundaryField
{
    inlet
    {
        type            zeroGradient;
    }
    outlet
    {
        type            fixedValue;
        value           nonuniform 0();
    }
    cylinder
    {
        type            zeroGradient;
    }
    top
    {
        type            symmetryPlane;
    }
    bottom
    {
        type            symmetryPlane;
    }
    defaultFaces
    {
        type            empty;
    }
    procBoundary5to0
    {
        type            processor;
        value           nonuniform List<scalar> 5(0.0978906 0.0978906 0.100959 0.100959 0.0950145);
    }
    procBoundary5to1
    {
        type            processor;
        value           nonuniform List<scalar> 
84
(
0.0900013
0.0849342
0.0798175
0.0746562
0.0634365
0.0694559
0.0634365
0.0580022
0.052573
0.0471568
0.0417618
0.036396
0.0310673
0.0257824
0.0205505
0.0153786
0.0102737
0.00524239
0.00029107
-0.00457424
-0.00934793
-0.0140248
-0.0186002
-0.0230698
-0.0230698
-0.0259551
-0.0301835
-0.0342815
-0.0382451
-0.0420709
-0.0457562
-0.0492992
-0.0526984
-0.0789732
-0.0782814
-0.0782814
-0.077494
-0.077494
-0.0766179
-0.0766179
-0.0756404
-0.0759569
-0.0759569
-0.0748767
-0.0748767
-0.0736867
-0.0740008
-0.0740008
-0.0726948
-0.0726948
-0.0712686
-0.0715779
-0.0715779
-0.0700224
-0.0700224
-0.0683357
-0.0686375
-0.0686375
-0.0668092
-0.0671065
-0.0671065
-0.0651306
-0.0654226
-0.0654226
-0.0632937
-0.0635794
-0.0638654
-0.0638654
-0.0615711
-0.0618499
-0.0618499
-0.0593928
-0.0596634
-0.0596634
-0.0570401
-0.0573023
-0.0575649
-0.0575649
-0.0547617
-0.0550044
-0.0550044
-0.0520325
-0.0523541
-0.0526984
)
;
    }
    procBoundary5to2
    {
        type            processor;
        value           nonuniform List<scalar> 
35
(
-0.0898997
-0.0802471
-0.0805865
-0.0809305
-0.0812786
-0.0816304
-0.0819855
-0.0823434
-0.0827036
-0.0830656
-0.083429
-0.0827257
-0.0827257
-0.0830772
-0.0834289
-0.0837804
-0.0841313
-0.0844812
-0.0848297
-0.0851764
-0.0855209
-0.0858628
-0.0862015
-0.0865366
-0.0868677
-0.0871941
-0.0875155
-0.0878313
-0.0881407
-0.0884438
-0.088741
-0.0890298
-0.0893004
-0.0895656
-0.0898997
)
;
    }
    procBoundary5to4
    {
        type            processor;
        value           nonuniform List<scalar> 
76
(
0.629907
0.629341
0.628209
0.626514
0.624256
0.62144
0.62144
0.579462
0.576066
0.572197
0.567858
0.563055
0.557793
0.552079
0.545919
0.539319
0.532289
0.524835
0.516966
0.508692
0.500021
0.490963
0.48153
0.471731
0.471731
0.433576
0.424561
0.415255
0.40567
0.395814
0.385698
0.375333
0.364729
0.353898
0.353898
0.331019
0.321173
0.311148
0.300956
0.290605
0.280106
0.280106
0.263002
0.253563
0.24401
0.234353
0.2246
0.2246
0.213491
0.204687
0.195811
0.186871
0.186871
0.178928
0.17085
0.162724
0.162724
0.156978
0.149586
0.142159
0.142159
0.138132
0.131336
0.131336
0.128134
0.121861
0.115562
0.115562
0.113777
0.113777
0.111694
0.106186
0.106186
0.105804
0.100517
0.100517
)
;
    }
    procBoundary5to6
    {
        type            processor;
        value           nonuniform List<scalar> 
51
(
-0.0959736
-0.0908995
-0.0959736
-0.0960231
-0.0957197