/*--------------------------------*- C++ -*----------------------------------*\
  =========                 |
  \\      /  F ield         | OpenFOAM: The Open Source CFD Toolbox
   \\    /   O peration     | Website:  https://openfoam.org
    \\  /    A nd           | Version:  7
     \\/     M anipulation  |
\*---------------------------------------------------------------------------*/
FoamFile
{
    version     2.0;
    format      ascii;
    class       volVectorField;
    location    "10";
    object      U;
}
// * * * * * * * * * * * * * * * * * * * * * * * * * * * * * * * * * * * * * //

dimensions      [0 1 -1 0 0 0 0];

internalField   nonuniform List<vector> 
656
(
(1.14827 -0.0040856 -1.48171e-21)
(1.15284 -0.00405395 2.26269e-21)
(1.15742 -0.00402153 -5.29559e-22)
(1.16199 -0.00398824 -2.90156e-22)
(1.16655 -0.00395406 8.37913e-22)
(1.17109 -0.00391919 -7.44431e-22)
(1.1756 -0.00388339 -1.25069e-23)
(1.18007 -0.0038426 2.29889e-22)
(1.1845 -0.00379988 2.54972e-23)
(1.14824 -0.0122271 -1.54665e-21)
(1.15285 -0.0121169 1.32928e-21)
(1.15747 -0.0120021 -3.80567e-21)
(1.16208 -0.0118828 2.18205e-22)
(1.16668 -0.0117591 -4.89449e-23)
(1.17126 -0.0116311 -4.40889e-22)
(1.17581 -0.0114987 1.8504e-22)
(1.18032 -0.0113586 1.64264e-22)
(1.18478 -0.0112133 -7.00552e-23)
(1.14819 -0.020041 1.46058e-21)
(1.15287 -0.0198539 1.49058e-21)
(1.15755 -0.0196584 2.79944e-21)
(1.16223 -0.0194547 2.91306e-21)
(1.16691 -0.019243 -1.72297e-22)
(1.17156 -0.0190231 -7.82054e-23)
(1.17617 -0.018795 9.62551e-22)
(1.18075 -0.0185594 -3.88253e-22)
(1.18528 -0.0183153 1.39397e-22)
(1.14814 -0.0275933 -1.76175e-21)
(1.1529 -0.0273316 -1.57076e-22)
(1.15767 -0.0270572 -5.38983e-21)
(1.16245 -0.0267708 1.67992e-21)
(1.16721 -0.0264727 3.11451e-22)
(1.17195 -0.0261631 -1.72673e-22)
(1.17666 -0.025842 1.92262e-22)
(1.18132 -0.0255097 -7.24413e-23)
(1.18594 -0.0251656 4.3648e-23)
(1.14808 -0.0349233 -8.92186e-21)
(1.15295 -0.0345894 -2.43821e-21)
(1.15783 -0.0342383 3.67714e-21)
(1.16271 -0.0338709 -2.19716e-21)
(1.16758 -0.0334875 -1.41239e-21)
(1.17242 -0.0330888 -4.41608e-22)
(1.17724 -0.0326748 7.14897e-22)
(1.18201 -0.0322459 2.60561e-23)
(1.18674 -0.0318017 -2.06849e-23)
(1.14801 -0.0420583 6.59935e-21)
(1.153 -0.041655 4.37202e-21)
(1.158 -0.0412295 1.08952e-21)
(1.16301 -0.0407828 2.62558e-21)
(1.168 -0.0403157 9.16283e-22)
(1.17297 -0.0398288 4.5594e-22)
(1.17791 -0.0393225 4.58543e-22)
(1.18281 -0.0387973 6.14551e-23)
(1.18766 -0.038253 -3.94558e-23)
(1.14793 -0.0490219 -5.38363e-21)
(1.15306 -0.0485519 5.41135e-21)
(1.1582 -0.0480542 5.20017e-22)
(1.16334 -0.0475302 -2.01774e-21)
(1.16848 -0.0469807 1.57559e-21)
(1.17359 -0.0464066 -3.24872e-22)
(1.17867 -0.0458087 1.87436e-22)
(1.1837 -0.0451874 -4.666e-22)
(1.18869 -0.0445428 3.94914e-23)
(1.14784 -0.0558336 -4.16594e-22)
(1.15311 -0.0552996 1.57918e-21)
(1.15841 -0.054732 1.25118e-21)
(1.1637 -0.0541323 4.33516e-21)
(1.16899 -0.0535019 -2.11715e-21)
(1.17426 -0.0528417 2.092e-22)
(1.17949 -0.0521526 -1.10969e-21)
(1.18468 -0.0514354 6.67004e-22)
(1.18981 -0.0506903 -1.99337e-24)
(1.14771 -0.0625094 -7.10295e-21)
(1.15316 -0.0619141 -9.03504e-21)
(1.15862 -0.0612789 -6.25282e-22)
(1.16408 -0.0606055 -8.31666e-21)
(1.16954 -0.0598955 -3.3928e-21)
(1.17497 -0.0591501 9.93443e-22)
(1.18037 -0.0583704 -8.93576e-24)
(1.18573 -0.0575574 1.44911e-22)
(1.19103 -0.0567115 -2.66414e-23)
(1.14756 -0.0690628 5.90715e-21)
(1.15318 -0.0684091 -1.79123e-21)
(1.15883 -0.0677087 2.43471e-22)
(1.16447 -0.0669635 7.91469e-21)
(1.17011 -0.0661754 -1.97994e-21)
(1.17572 -0.0653458 -3.1707e-21)
(1.18131 -0.0644761 5.72625e-22)
(1.18684 -0.0635673 -1.45084e-22)
(1.19232 -0.0626201 -1.81281e-23)
(1.14736 -0.0755049 -5.26844e-21)
(1.15319 -0.074796 6.03136e-21)
(1.15903 -0.0740331 -3.61978e-21)
(1.16487 -0.0732183 -6.34546e-21)
(1.1707 -0.0723537 5.18766e-21)
(1.17651 -0.071441 2.82884e-21)
(1.18229 -0.0704818 7.8029e-23)
(1.18802 -0.0694771 2.18476e-22)
(1.1937 -0.0684276 1.98114e-23)
(1.15317 -0.0810846 2.79173e-21)
(1.15922 -0.0802622 5.33962e-21)
(1.16527 -0.0793803 6.20383e-21)
(1.17132 -0.0784411 -2.63047e-21)
(1.17734 -0.0774465 -1.98618e-21)
(1.18332 -0.0763981 -8.58057e-22)
(1.18926 -0.075297 -3.69522e-23)
(1.19515 -0.074144 -1.10816e-23)
(1.15312 -0.0872838 -2.83631e-21)
(1.1594 -0.0864055 1.21251e-21)
(1.16568 -0.0854593 -3.69657e-21)
(1.17195 -0.0844475 4.52393e-21)
(1.17819 -0.083372 -3.86916e-22)
(1.18441 -0.0822346 -4.04332e-23)
(1.19057 -0.0810362 7.93378e-23)
(1.19667 -0.0797775 2.20103e-23)
(1.15305 -0.0934018 -9.29152e-21)
(1.15957 -0.0924714 1.30759e-21)
(1.16609 -0.0914638 -2.64611e-21)
(1.1726 -0.0903815 -1.23249e-21)
(1.17909 -0.0892262 2.28215e-21)
(1.18554 -0.0879994 2.54206e-22)
(1.19194 -0.0867021 -5.87826e-23)
(1.19828 -0.0853346 5.9733e-23)
(1.15296 -0.0994462 1.43316e-20)
(1.15974 -0.098468 7.15355e-21)
(1.16652 -0.0974023 -2.31032e-21)
(1.17328 -0.0962513 -9.62396e-22)
(1.18002 -0.0950165 -2.14978e-21)
(1.18673 -0.0936994 5.98496e-22)
(1.19338 -0.0923005 -8.44846e-23)
(1.19996 -0.0908197 -1.39273e-22)
(1.15285 -0.105425 1.39311e-21)
(1.1599 -0.104403 -2.21581e-22)
(1.16696 -0.103282 6.5498e-21)
(1.174 -0.102064 -3.34086e-21)
(1.18101 -0.10075 2.764e-21)
(1.18798 -0.0993399 -1.37569e-23)
(1.19489 -0.0978353 1.88305e-22)
(1.20173 -0.0962352 -1.12062e-22)
(1.15274 -0.111345 1.23963e-20)
(1.16008 -0.110284 -2.0533e-20)
(1.16742 -0.109111 1.77689e-21)
(1.17475 -0.107826 3.14751e-21)
(1.18205 -0.10643 5.4397e-22)
(1.18929 -0.104924 -1.26624e-22)
(1.19648 -0.103308 -2.53197e-22)
(1.20358 -0.101581 1.90403e-22)
(1.15263 -0.117214 -2.82559e-20)
(1.16028 -0.116118 7.5428e-21)
(1.16792 -0.114893 -5.23513e-21)
(1.17555 -0.113541 -3.38139e-21)
(1.18314 -0.112061 -2.12572e-21)
(1.19068 -0.110454 -1.05745e-22)
(1.19814 -0.108719 5.81619e-22)
(1.20551 -0.106855 3.47999e-22)
(1.15253 -0.123038 -1.38276e-21)
(1.1605 -0.12191 2.04423e-20)
(1.16847 -0.120634 -5.27757e-22)
(1.17641 -0.119212 6.04782e-21)
(1.18431 -0.117644 1.08085e-21)
(1.19214 -0.115929 7.59125e-23)
(1.19989 -0.114066 -2.19094e-22)
(1.20752 -0.112053 -1.9559e-23)
(1.15247 -0.128824 1.36585e-20)
(1.16077 -0.127664 -1.32771e-20)
(1.16907 -0.126336 -1.36395e-21)
(1.17733 -0.124841 -3.41302e-21)
(1.18555 -0.123177 -1.90526e-21)
(1.19368 -0.121345 -1.61643e-22)
(1.20171 -0.119342 3.65905e-22)
(1.2096 -0.117169 -6.0006e-22)
(1.15245 -0.134577 -1.20025e-20)
(1.1611 -0.133384 1.23515e-21)
(1.16973 -0.132 1.32753e-21)
(1.17833 -0.130424 1.35982e-21)
(1.18686 -0.128656 1.14798e-21)
(1.19529 -0.126696 8.69061e-23)
(1.2036 -0.124542 5.27716e-22)
(1.21175 -0.122193 8.64691e-22)
(1.15249 -0.140298 2.3967e-20)
(1.16149 -0.139069 -1.18277e-21)
(1.17047 -0.137623 -6.05565e-22)
(1.1794 -0.135959 2.3899e-22)
(1.18824 -0.134075 2.29988e-22)
(1.19696 -0.131976 1.66381e-21)
(1.20554 -0.129657 -2.78781e-21)
(1.21394 -0.127118 -6.16567e-22)
(1.15259 -0.145989 -1.4986e-20)
(1.16196 -0.144717 -6.52084e-21)
(1.17128 -0.1432 1.37172e-21)
(1.18054 -0.141437 -3.8423e-21)
(1.18969 -0.139427 -2.28964e-22)
(1.1987 -0.137175 -2.62796e-21)
(1.20754 -0.134676 2.6455e-21)
(1.21617 -0.131932 -8.68365e-22)
(1.15279 -0.151646 3.47369e-21)
(1.16251 -0.150323 -1.61542e-21)
(1.17217 -0.148724 -1.10577e-20)
(1.18175 -0.146851 1.39594e-21)
(1.19119 -0.144703 -2.77852e-23)
(1.20048 -0.142282 2.24768e-21)
(1.20956 -0.13959 -1.39716e-21)
(1.21841 -0.136627 4.41819e-22)
(1.15306 -0.157263 -2.93691e-21)
(1.16314 -0.155877 -6.51467e-21)
(1.17313 -0.154185 1.96657e-20)
(1.18301 -0.152188 1.4601e-23)
(1.19274 -0.149896 7.3294e-23)
(1.20229 -0.147288 -1.34238e-21)
(1.2116 -0.144388 -8.57366e-22)
(1.22064 -0.141192 1.07192e-21)
(1.16384 -0.161371 1.37397e-20)
(1.17415 -0.159571 -8.66556e-21)
(1.18433 -0.157436 2.09629e-21)
(1.19433 -0.154976 5.57236e-22)
(1.20411 -0.152178 2.21741e-21)
(1.21363 -0.149059 2.5024e-21)
(1.22284 -0.145621 -5.63433e-22)
(1.18568 -0.162583 -4.54519e-21)
(1.19592 -0.159937 -5.64954e-22)
(1.20592 -0.156942 -4.66375e-21)
(1.21563 -0.153596 -1.95771e-21)
(1.22499 -0.149904 1.05949e-21)
(1.22708 -0.154037 -1.49957e-21)
(1.18886 -0.00375572 -5.11513e-25)
(1.19316 -0.00370952 -3.33775e-23)
(1.19739 -0.00366083 1.86704e-23)
(1.20153 -0.00360936 2.83943e-22)
(1.20558 -0.00355485 -4.04872e-22)
(1.20953 -0.00349709 1.62817e-22)
(1.21337 -0.00343587 9.70599e-22)
(1.2171 -0.00337102 -1.30857e-21)
(1.22072 -0.00330236 4.19312e-22)
(1.2242 -0.00322978 1.47599e-21)
(1.22757 -0.00315317 1.00977e-21)
(1.23079 -0.00307246 -6.34655e-23)
(1.23389 -0.00298759 -3.62189e-21)
(1.23685 -0.00289854 4.10918e-21)
(1.23966 -0.00280527 8.21297e-22)
(1.24234 -0.00270768 6.02629e-22)
(1.24487 -0.00260543 -1.77185e-23)
(1.24726 -0.00249766 -4.72e-21)
(1.18919 -0.0110632 -5.14979e-25)
(1.19352 -0.0109075 -1.05091e-23)
(1.19778 -0.0107458 -1.71577e-22)
(1.20195 -0.0105777 -2.03049e-23)
(1.20603 -0.0104027 -4.04238e-22)
(1.21001 -0.0102204 -1.36901e-21)
(1.21388 -0.0100305 1.66805e-21)
(1.21763 -0.00983255 -7.58524e-23)
(1.22127 -0.00962622 -1.83806e-21)
(1.22478 -0.00941119 2.90811e-21)
(1.22816 -0.00918716 -4.19301e-21)
(1.23141 -0.0089539 1.41724e-21)
(1.23452 -0.0087112 -9.05491e-22)
(1.2375 -0.00845885 9.93248e-22)
(1.24033 -0.00819658 3.19789e-22)
(1.24302 -0.00792388 8.81239e-22)
(1.24556 -0.00763948 1.66689e-21)
(1.24797 -0.00734024 -2.12161e-21)
(1.18974 -0.0180623 -6.48265e-24)
(1.19414 -0.0178002 3.15551e-23)
(1.19846 -0.0175287 -5.18892e-23)
(1.20269 -0.0172474 3.89222e-22)
(1.20682 -0.0169556 -6.13114e-23)
(1.21086 -0.0166528 9.8112e-22)
(1.21478 -0.0163385 5.0126e-22)
(1.21858 -0.0160121 6.1244e-22)
(1.22227 -0.0156731 2.96871e-21)
(1.22583 -0.0153209 -3.28343e-21)
(1.22925 -0.0149549 3.58131e-21)
(1.23254 -0.0145748 -3.80101e-21)
(1.2357 -0.0141801 -4.84146e-22)
(1.23871 -0.0137704 5.25172e-21)
(1.24158 -0.0133449 -6.68892e-22)
(1.2443 -0.0129028 -3.56948e-21)
(1.24688 -0.0124417 -5.81029e-21)
(1.24932 -0.0119562 5.91477e-21)
(1.19049 -0.0248095 8.57307e-24)
(1.19497 -0.024441 -3.73692e-23)
(1.19937 -0.0240599 -4.23041e-22)
(1.20368 -0.0236655 5.12202e-22)
(1.2079 -0.0232572 2.84845e-23)
(1.21201 -0.0228344 -5.87387e-22)
(1.21601 -0.0223962 -1.54012e-22)
(1.21989 -0.0219421 -2.34018e-21)
(1.22364 -0.0214711 1.61918e-21)
(1.22727 -0.0209826 3.46912e-23)
(1.23076 -0.0204758 4.64175e-21)
(1.23412 -0.0199499 -1.09933e-21)
(1.23734 -0.0194042 -4.1382e-21)
(1.24041 -0.018838 -2.65802e-21)
(1.24334 -0.0182503 -3.8451e-22)
(1.24612 -0.0176395 1.39991e-20)
(1.24875 -0.0170022 -5.31371e-21)
(1.25123 -0.0163306 -1.04423e-20)
(1.19139 -0.031342 -1.85491e-25)
(1.19598 -0.0308666 9.17688e-23)
(1.20048 -0.030375 -1.59165e-22)
(1.2049 -0.0298668 -4.58986e-22)
(1.20921 -0.0293412 -2.05257e-22)
(1.21342 -0.0287974 -1.05582e-21)
(1.21751 -0.0282346 -1.32713e-21)
(1.22149 -0.0276518 -1.72078e-21)
(1.22533 -0.0270481 -4.91665e-21)
(1.22905 -0.0264224 -3.95342e-22)
(1.23263 -0.0257737 -1.59102e-22)
(1.23608 -0.0251009 5.05818e-21)
(1.23938 -0.0244028 6.19384e-21)
(1.24253 -0.0236783 -4.43951e-21)
(1.24553 -0.0229258 7.33248e-21)
(1.24838 -0.0221429 -4.73789e-21)
(1.25108 -0.0213251 -2.63804e-21)
(1.25362 -0.0204622 2.38051e-21)
(1.19244 -0.0376893 1.07461e-23)
(1.19714 -0.0371063 -1.1407e-22)
(1.20177 -0.0365035 3.93861e-22)
(1.2063 -0.0358805 -2.99372e-23)
(1.21073 -0.0352363 2.52773e-21)
(1.21505 -0.0345703 2.3655e-21)
(1.21926 -0.0338813 -1.43262e-21)
(1.22335 -0.0331683 -1.9432e-21)
(1.2273 -0.0324299 1.0236e-20)
(1.23113 -0.0316648 -3.34793e-21)
(1.23482 -0.0308715 -1.37351e-20)
(1.23836 -0.0300485 1.75956e-21)
(1.24176 -0.0291939 2.25802e-21)
(1.24501 -0.028306 -1.85325e-21)
(1.2481 -0.0273824 9.98338e-21)
(1.25103 -0.0264197 4.71521e-21)
(1.25381 -0.0254119 -8.71452e-21)
(1.25641 -0.0243467 -7.01415e-21)
(1.1936 -0.0438747 -2.3081e-23)
(1.19845 -0.0431834 -9.95158e-23)
(1.20321 -0.0424684 -1.54717e-22)
(1.20787 -0.0417292 3.76091e-22)
(1.21243 -0.040965 6.7271e-22)
(1.21689 -0.0401748 -3.0555e-21)
(1.22122 -0.0393574 -6.507e-23)
(1.22544 -0.0385114 5.38003e-21)
(1.22952 -0.0376352 -2.78474e-21)
(1.23347 -0.0367269 8.15988e-21)
(1.23727 -0.0357846 1.66816e-20)
(1.24093 -0.0348058 -7.03837e-21)
(1.24444 -0.0337881 6.38432e-21)
(1.24779 -0.0327286 1.44235e-20)
(1.25098 -0.0316238 9.27313e-21)
(1.254 -0.0304692 6.29117e-21)
(1.25685 -0.0292572 1.10435e-20)
(1.25951 -0.027973 3.32165e-21)
(1.19488 -0.0499173 1.46057e-23)
(1.19988 -0.0491166 2.3259e-22)
(1.20478 -0.0482881 -4.97381e-22)
(1.2096 -0.047431 -4.32033e-22)
(1.21431 -0.0465446 -2.69146e-22)
(1.21891 -0.0456276 2.33782e-21)
(1.22338 -0.0446786 2.88187e-21)
(1.22774 -0.0436958 3.04099e-22)
(1.23196 -0.0426772 2.94435e-23)
(1.23604 -0.0416203 -3.0285e-21)
(1.23997 -0.0405222 -7.6507e-21)
(1.24376 -0.0393798 -6.16206e-21)
(1.24738 -0.0381893 1.02057e-20)
(1.25084 -0.0369467 -6.28289e-21)
(1.25412 -0.035647 -2.72093e-21)
(1.25722 -0.034284 -1.28969e-20)
(1.26013 -0.0328483 5.25376e-21)
(1.26284 -0.0313233 2.62089e-20)
(1.19626 -0.0558327 2.38807e-23)
(1.20142 -0.0549215 -9.73334e-24)
(1.20649 -0.0539776 5.31223e-23)
(1.21146 -0.0530003 1.79532e-21)
(1.21633 -0.0519886 -2.59592e-21)
(1.22109 -0.0509412 -7.893e-21)
(1.22572 -0.0498562 -2.38935e-21)
(1.23023 -0.0487313 -5.80376e-21)
(1.23459 -0.0475639 -8.18388e-21)
(1.23882 -0.0463507 1.04487e-20)
(1.24288 -0.0450879 -4.2152e-21)
(1.24679 -0.0437711 9.87753e-21)
(1.25053 -0.0423953 -2.32474e-20)
(1.25409 -0.0409546 4.34954e-21)
(1.25746 -0.0394423 2.04922e-21)
(1.26063 -0.03785 -1.02986e-20)
(1.26358 -0.0361667 7.72387e-21)
(1.2663 -0.0343738 -3.36408e-20)
(1.19774 -0.0616344 4.13318e-23)
(1.20307 -0.0606108 -4.90423e-22)
(1.20832 -0.0595491 2.32997e-22)
(1.21347 -0.0584483 -2.921e-21)
(1.21851 -0.0573073 -2.93792e-21)
(1.22343 -0.0561244 9.49312e-21)
(1.22823 -0.0548972 9.94862e-22)
(1.23289 -0.053623 -6.72339e-21)
(1.23741 -0.0522983 8.58969e-21)
(1.24177 -0.0509188 -2.02929e-20)
(1.24598 -0.0494796 -8.58564e-21)
(1.25 -0.0479748 -1.2078e-20)
(1.25385 -0.0463976 8.93323e-21)
(1.25749 -0.0447403 -8.97076e-21)
(1.26093 -0.0429939 -2.75606e-20)
(1.26413 -0.0411478 2.21341e-20)
(1.26709 -0.0391888 -1.3021e-20)
(1.26978 -0.0370968 2.53294e-20)
(1.1993 -0.0673334 -1.00428e-22)
(1.20483 -0.066195 2.62216e-22)
(1.21026 -0.065012 6.41043e-22)
(1.2156 -0.0637833 2.81607e-21)
(1.22082 -0.0625075 6.73554e-21)
(1.22592 -0.0611823 -4.22331e-21)
(1.23088 -0.0598049 -1.04177e-20)
(1.23571 -0.0583719 5.79306e-21)
(1.24038 -0.0568787 -1.75995e-21)
(1.24488 -0.0553202 2.0104e-20)
(1.24921 -0.0536898 1.9931e-20)
(1.25335 -0.0519802 -1.61948e-20)
(1.25728 -0.0501827 -1.05246e-21)
(1.26098 -0.048287 -5.8008e-21)
(1.26445 -0.0462818 8.14123e-21)
(1.26765 -0.0441539 -1.26213e-20)
(1.27056 -0.041888 -1.62046e-20)
(1.27316 -0.0394632 -6.84618e-21)
(1.20096 -0.0729389 8.01549e-23)
(1.20669 -0.0716822 -3.64818e-22)
(1.21232 -0.0703732 -1.90484e-21)
(1.21785 -0.0690107 -2.02589e-21)
(1.22326 -0.0675926 -2.68088e-21)
(1.22854 -0.0661164 7.28272e-21)
(1.23368 -0.0645785 -1.61928e-21)
(1.23866 -0.0629746 1.50099e-21)
(1.24348 -0.0612993 1.97337e-20)
(1.24811 -0.059546 -1.50369e-20)
(1.25255 -0.057707 1.11625e-20)
(1.25677 -0.0557729 2.63614e-20)
(1.26076 -0.0537328 -2.43478e-21)
(1.26449 -0.0515742 -7.42561e-21)
(1.26794 -0.0492829 2.14912e-20)
(1.27109 -0.0468431 -2.51075e-20)
(1.27389 -0.0442371 -1.18997e-20)
(1.27632 -0.0414446 2.16072e-20)
(1.2027 -0.0784581 -1.16483e-22)
(1.20864 -0.0770783 5.15127e-22)
(1.21448 -0.0756372 -1.84649e-22)
(1.22021 -0.074133 4.98437e-21)
(1.22582 -0.0725633 6.95963e-21)
(1.23128 -0.0709249 -3.84382e-21)
(1.23659 -0.0692136 7.86398e-21)
(1.24173 -0.0674242 -1.17511e-21)
(1.24668 -0.0655503 -3.44493e-21)
(1.25143 -0.0635839 2.98949e-21)
(1.25595 -0.0615158 -2.37219e-20)
(1.26023 -0.0593348 -2.91211e-20)
(1.26424 -0.0570277 1.11218e-20)
(1.26795 -0.0545795 3.53272e-20)
(1.27132 -0.0519732 -1.15283e-20)
(1.27434 -0.0491901 3.24723e-20)
(1.27695 -0.0462109 1.24858e-20)
(1.27912 -0.043016 -5.74207e-22)
(1.20453 -0.0838962 -3.37214e-23)
(1.2107 -0.0823869 -1.59836e-21)
(1.21676 -0.0808055 4.9494e-22)
(1.22269 -0.0791498 -3.24998e-21)
(1.22849 -0.0774168 9.83702e-22)
(1.23413 -0.0756027 -3.93892e-21)
(1.2396 -0.0737027 -1.57401e-21)
(1.24488 -0.0717106 -1.01501e-20)
(1.24995 -0.069619 -3.4225e-21)
(1.25478 -0.0674188 3.83586e-21)
(1.25936 -0.0650989 -4.08885e-21)
(1.26366 -0.0626465 1.07618e-20)
(1.26764 -0.0600462 4.38389e-21)
(1.27126 -0.0572805 -2.24615e-20)
(1.2745 -0.0543296 1.19338e-20)
(1.27731 -0.0511722 -2.66333e-20)
(1.27964 -0.0477874 3.93087e-20)
(1.28145 -0.044158 -1.50438e-20)
(1.20646 -0.089256 3.36005e-22)
(1.21285 -0.0876091 1.79127e-21)
(1.21913 -0.0858774 2.4459e-21)
(1.22527 -0.0840581 -5.91803e-21)
(1.23126 -0.0821478 -8.75489e-22)
(1.23707 -0.0801423 -3.99425e-21)
(1.24269 -0.0780358 1.00428e-20)
(1.24809 -0.0758216 2.05503e-20)
(1.25325 -0.0734911 -2.82167e-20)
(1.25815 -0.071034 1.45404e-20)
(1.26274 -0.068438 8.83885e-21)
(1.267 -0.0656882 -1.66168e-20)
(1.27089 -0.0627675 -9.4557e-22)
(1.27437 -0.059656 -2.59595e-20)
(1.27739 -0.0563315 -2.97449e-20)
(1.2799 -0.0527704 -2.36633e-20)
(1.28185 -0.0489503 4.93556e-20)
(1.28319 -0.0448577 -4.98855e-21)
(1.20847 -0.0945381 2.82535e-22)
(1.2151 -0.0927435 -1.9663e-21)
(1.22159 -0.0908492 3.77995e-22)
(1.22794 -0.0888522 8.02749e-21)
(1.23411 -0.0867487 -9.15988e-21)
(1.24008 -0.0845337 1.58676e-20)
(1.24583 -0.0822012 1.93933e-22)
(1.25133 -0.0797434 1.47501e-21)
(1.25656 -0.0771511 -8.27492e-21)
(1.26147 -0.0744129 -1.56423e-21)
(1.26603 -0.0715151 8.04582e-21)
(1.2702 -0.0684415 3.2963e-20)
(1.27394 -0.0651731 -2.22667e-20)
(1.27719 -0.0616881 1.75569e-20)
(1.27991 -0.0579623 1.03798e-19)
(1.28202 -0.0539705 4.57228e-20)
(1.28347 -0.0496894 -1.09599e-19)
(1.28421 -0.0451101 4.5945e-20)
(1.21057 -0.0997407 -2.91011e-22)
(1.21743 -0.0977863 1.52163e-21)
(1.22415 -0.0957154 -2.39135e-21)
(1.23069 -0.0935247 5.34474e-21)
(1.23703 -0.09121 7.18124e-21)
(1.24314 -0.0887661 -9.60695e-21)
(1.249 -0.0861862 -3.5552e-20)
(1.25457 -0.0834623 2.10047e-20)
(1.25982 -0.0805842 3.52806e-20)
(1.2647 -0.0775398 2.2063e-21)
(1.26917 -0.0743142 5.44973e-21)
(1.2732 -0.0708901 -2.17928e-20)
(1.27671 -0.0672472 6.16789e-21)
(1.27966 -0.0633623 9.01844e-20)
(1.28197 -0.05921 -1.65685e-19)
(1.28359 -0.054764 -4.15785e-20)
(1.28443 -0.0500012 -2.40156e-20)
(1.28445 -0.0449177 -1.37632e-19)
(1.21275 -0.10486 -5.4603e-22)
(1.21985 -0.102732 -2.27506e-21)
(1.22677 -0.100468 -2.9763e-21)
(1.2335 -0.0980665 -9.93996e-21)
(1.23999 -0.0955215 -1.10261e-20)
(1.24623 -0.0928279 4.72478e-21)
(1.25216 -0.0899786 9.78792e-21)
(1.25777 -0.0869652 -4.55625e-20)
(1.263 -0.0837769 -4.6923e-20)
(1.2678 -0.080401 -7.5543e-21)
(1.27213 -0.0768218 -1.9754e-20)
(1.27594 -0.0730212 -1.06559e-21)
(1.27915 -0.068978 -2.84788e-20)
(1.2817 -0.0646686 -1.21866e-19)
(1.28352 -0.0600673 1.73456e-19)
(1.28453 -0.0551481 7.87495e-20)
(1.28464 -0.0498886 -3.63206e-21)
(1.28381 -0.0442903 7.09901e-20)
(1.21501 -0.109889 2.5017e-23)
(1.22233 -0.107572 8.97269e-22)
(1.22945 -0.1051 2.63752e-21)
(1.23635 -0.102468 6.6626e-21)
(1.24298 -0.0996726 1.99393e-20)
(1.24931 -0.096708 -9.97909e-22)
(1.25529 -0.093567 4.50693e-20)
(1.26089 -0.0902406 -6.06081e-21)
(1.26606 -0.0867179 5.81075e-20)
(1.27073 -0.0829855 2.59805e-20)
(1.27486 -0.0790276 1.58458e-20)
(1.27838 -0.0748254 -1.67178e-20)
(1.28121 -0.0703579 8.17571e-20)
(1.28328 -0.0656017 5.86041e-21)
(1.2845 -0.0605321 -1.77284e-19)
(1.2848 -0.0551252 4.85119e-21)
(1.28406 -0.0493607 -5.34883e-21)
(1.28224 -0.0432449 -1.21028e-21)
(1.21733 -0.114821 8.34473e-22)
(1.22487 -0.112299 -8.25795e-22)
(1.23218 -0.109599 2.61403e-21)
(1.23922 -0.106719 -1.57005e-20)
(1.24596 -0.103653 -2.65948e-20)
(1.25235 -0.100397 -3.69515e-21)
(1.25835 -0.0969417 -2.63634e-20)
(1.26391 -0.0932795 2.4396e-20)
(1.26896 -0.0893987 -1.17813e-21)
(1.27345 -0.0852859 -1.28335e-20)
(1.27732 -0.0809249 -4.82849e-20)
(1.28048 -0.0762975 4.90653e-20)
(1.28285 -0.0713831 -7.29582e-20)
(1.28434 -0.0661601 -1.3839e-20)
(1.28487 -0.0606065 1.73434e-19)
(1.28434 -0.0547022 -8.97926e-20)
(1.28264 -0.0484313 2.59061e-20)
(1.21971 -0.119647 -1.14165e-21)
(1.22745 -0.116903 -1.38464e-21)
(1.23492 -0.113958 -1.69771e-21)
(1.24209 -0.11081 9.9085e-21)
(1.24891 -0.107455 2.32164e-20)
(1.25534 -0.103885 4.84229e-21)
(1.26131 -0.100095 2.58619e-21)
(1.26678 -0.0960755 -2.5472e-20)
(1.27168 -0.0918141 -5.17919e-20)
(1.27594 -0.0872978 -6.28962e-20)
(1.27947 -0.0825109 1.41461e-20)
(1.2822 -0.0774358 -4.96109e-20)
(1.28403 -0.0720539 -3.76799e-20)
(1.28487 -0.0663464 1.06593e-19)
(1.2846 -0.0602961 -8.23953e-20)
(1.22212 -0.124357 7.61185e-22)
(1.23004 -0.121374 7.38939e-21)
(1.23766 -0.118168 -1.21922e-20)
(1.24493 -0.114734 3.89829e-21)
(1.2518 -0.11107 4.49518e-21)
(1.25823 -0.107169 -8.79812e-22)
(1.26415 -0.103024 -3.68085e-21)
(1.26949 -0.0986254 4.93584e-20)
(1.27419 -0.0939621 3.45456e-20)
(1.27815 -0.0890207 4.16012e-20)
(1.2813 -0.0837862 2.95983e-20)
(1.28354 -0.0782425 -2.04988e-20)
(1.28475 -0.0723739 -2.49262e-20)
(1.28483 -0.0661664 -9.03673e-20)
(1.22454 -0.128941 1.06833e-21)
(1.23263 -0.125704 -6.68979e-21)
(1.24037 -0.12222 1.93068e-20)
(1.24772 -0.118484 -3.20538e-21)
(1.25462 -0.114494 -1.92094e-20)
(1.26102 -0.110244 2.69373e-21)
(1.26684 -0.105725 -1.64685e-20)
(1.27202 -0.100929 -3.26452e-20)
(1.27646 -0.0958437 -1.47947e-20)
(1.28009 -0.0904569 -2.82199e-20)
(1.28279 -0.0847543 -8.39271e-20)
(1.28446 -0.0787224 1.78496e-20)
(1.22696 -0.133392 -6.26844e-22)
(1.23519 -0.129886 3.4037e-21)
(1.24303 -0.126109 -1.37066e-20)
(1.25043 -0.122056 4.06967e-21)
(1.25733 -0.117725 -1.00231e-20)
(1.26367 -0.113109 -5.39465e-22)
(1.26936 -0.1082 -8.30816e-21)
(1.27434 -0.102988 9.92944e-21)
(1.27849 -0.0974629 5.00048e-20)
(1.28173 -0.0916114 6.06682e-20)
(1.22935 -0.1377 -1.38782e-21)
(1.2377 -0.133913 2.08354e-21)
(1.24561 -0.12983 7.06669e-21)
(1.25304 -0.125448 -9.42129e-21)
(1.25992 -0.120762 2.01447e-20)
(1.26617 -0.115767 3.99715e-20)
(1.27171 -0.110452 -2.27998e-20)
(1.27644 -0.10481 -6.23942e-21)
(1.28027 -0.0988271 1.00316e-20)
(1.2317 -0.141861 7.0108e-22)
(1.24014 -0.137782 -5.49768e-21)
(1.24811 -0.133382 -1.04352e-20)
(1.25554 -0.12866 -1.26974e-20)
(1.26237 -0.123609 2.21214e-20)
(1.26851 -0.118222 -3.77096e-20)
(1.27386 -0.11249 4.2744e-20)
(1.23397 -0.145868 -1.35886e-21)
(1.24249 -0.141488 4.06892e-21)
(1.25049 -0.136764 2.08344e-20)
(1.25791 -0.131693 1.42379e-20)
(1.26467 -0.126267 -5.23755e-20)
(1.23615 -0.149717 1.91663e-21)
)
;

boundaryField
{
    inlet
    {
        type            uniformFixedValue;
        uniformValue    constant (1 0 0);
        value           nonuniform 0();
    }
    outlet
    {
        type            pressureInletOutletVelocity;
        value           nonuniform 0();
    }
    cylinder
    {
        type            fixedValue;
        value           nonuniform 0();
    }
    top
    {
        type            symmetryPlane;
    }
    bottom
    {
        type            symmetryPlane;
    }
    defaultFaces
    {
        type            empty;
    }
    procBoundary1to0
    {
        type            processor;
        value           nonuniform List<vector> 
26
(
(1.14372 -0.00411654 7.3035e-22)
(1.14365 -0.0123326 -4.143e-21)
(1.14353 -0.0202193 3.2949e-21)
(1.14339 -0.0278419 -6.9566e-21)
(1.14323 -0.0352392 -1.69205e-21)
(1.14305 -0.0424383 -1.32299e-21)
(1.14283 -0.0494629 6.36682e-21)
(1.14258 -0.0563324 -4.20383e-21)
(1.14229 -0.063063 9.97374e-21)
(1.14195 -0.0696678 -1.96523e-20)
(1.14157 -0.0761575 2.16817e-20)
(1.14713 -0.0818451 1.24631e-20)
(1.14713 -0.0818451 1.24631e-20)
(1.14686 -0.0880918 -3.40315e-21)
(1.14655 -0.0942525 -3.25972e-22)
(1.1462 -0.100334 -2.12053e-20)
(1.14582 -0.106345 -4.06191e-21)
(1.14542 -0.112291 2.28762e-20)
(1.145 -0.11818 -2.98635e-20)
(1.14458 -0.12402 3.60135e-20)
(1.14418 -0.129817 -3.17601e-21)
(1.1438 -0.135579 -3.01045e-20)
(1.14348 -0.141311 1.99509e-20)
(1.14322 -0.147015 -7.55188e-21)
(1.14304 -0.152693 2.51736e-20)
(1.14295 -0.158341 6.21111e-21)
)
;
    }
    procBoundary1to2
    {
        type            processor;
        value           nonuniform List<vector> 
19
(
(1.24951 -0.00238212 -7.66545e-22)
(1.25022 -0.0070184 -2.575e-21)
(1.2516 -0.0114329 6.64443e-21)
(1.25356 -0.015606 -7.30485e-21)
(1.256 -0.0195305 1.81051e-20)
(1.25885 -0.0231958 5.3005e-21)
(1.26199 -0.0265847 -2.76467e-20)
(1.26534 -0.0296738 1.80382e-20)
(1.26878 -0.0324344 -9.12161e-21)
(1.27218 -0.0348351 1.478e-20)
(1.27541 -0.0368443 -1.08725e-20)
(1.27833 -0.0384334 -2.62713e-20)
(1.28079 -0.0395791 -6.64556e-21)
(1.28266 -0.0402654 1.10704e-19)
(1.28381 -0.0404848 3.23833e-21)
(1.28414 -0.040239 -9.26292e-20)
(1.28355 -0.0395381 -8.52258e-20)
(1.28196 -0.0384008 1.88483e-20)
(1.27933 -0.0368527 1.26636e-19)
)
;
    }
    procBoundary1to5
    {
        type            processor;
        value           nonuniform List<vector> 
38
(
(1.15344 -0.162834 -1.00268e-20)
(1.15344 -0.162834 -1.00268e-20)
(1.16462 -0.166793 -9.01523e-21)
(1.17523 -0.16487 1.74255e-23)
(1.17523 -0.16487 1.74255e-23)
(1.18704 -0.167612 -1.00279e-21)
(1.19751 -0.164777 8.31053e-22)
(1.20771 -0.161571 1.93734e-22)
(1.21758 -0.157989 -2.94134e-21)
(1.21758 -0.157989 -2.94134e-21)
(1.22907 -0.15801 9.56461e-22)
(1.2797 -0.0418039 5.17473e-20)
(1.28313 -0.0538896 -4.24208e-20)
(1.2797 -0.0418039 5.17473e-20)
(1.28034 -0.0471183 4.99121e-20)
(1.28313 -0.0538896 -4.24208e-20)
(1.28367 -0.0596099 -2.92083e-20)
(1.28498 -0.0723494 -1.53941e-19)
(1.28367 -0.0596099 -2.92083e-20)
(1.28423 -0.0656282 -2.58624e-20)
(1.28393 -0.0854213 -8.72526e-20)
(1.28498 -0.0723494 -1.53941e-19)
(1.28498 -0.0788822 -2.33709e-20)
(1.28393 -0.0854213 -8.72526e-20)
(1.28307 -0.0924928 6.7665e-20)
(1.27832 -0.106402 -2.53649e-20)
(1.28307 -0.0924928 6.7665e-20)
(1.28179 -0.0999472 6.69838e-20)
(1.27067 -0.120478 1.54371e-23)
(1.27832 -0.106402 -2.53649e-20)
(1.27581 -0.114317 -3.46741e-20)
(1.24473 -0.14503 6.3856e-21)
(1.25275 -0.139975 -1.60627e-22)
(1.26014 -0.134546 -1.14637e-20)
(1.27067 -0.120478 1.54371e-23)
(1.26681 -0.128736 -8.97574e-21)
(1.24473 -0.14503 6.3856e-21)
(1.23823 -0.153406 -1.16091e-21)
)
;
    }
}


// ************************************************************************* //
