/*--------------------------------*- C++ -*----------------------------------*\
  =========                 |
  \\      /  F ield         | OpenFOAM: The Open Source CFD Toolbox
   \\    /   O peration     | Website:  https://openfoam.org
    \\  /    A nd           | Version:  7
     \\/     M anipulation  |
\*---------------------------------------------------------------------------*/
FoamFile
{
    version     2.0;
    format      ascii;
    class       volScalarField;
    location    "15";
    object      p;
}
// * * * * * * * * * * * * * * * * * * * * * * * * * * * * * * * * * * * * * //

dimensions      [0 2 -2 0 0 0 0];

internalField   nonuniform List<scalar> 
24200
(
-0.304991
-0.30798
-0.308714
-0.309799
-0.310526
-0.311252
-0.311926
-0.312587
-0.31323
-0.313853
-0.314452
-0.315022
-0.31556
-0.316064
-0.305066
-0.30804
-0.308772
-0.309853
-0.310577
-0.3113
-0.311973
-0.312632
-0.313274
-0.313896
-0.314494
-0.315063
-0.3156
-0.316103
-0.305214
-0.308162
-0.308887
-0.309959
-0.310678
-0.311396
-0.312065
-0.312722
-0.313361
-0.31398
-0.314576
-0.315143
-0.315678
-0.31618
-0.305435
-0.308342
-0.309059
-0.310117
-0.310829
-0.31154
-0.312203
-0.312854
-0.313489
-0.314105
-0.314698
-0.315262
-0.315795
-0.316294
-0.305726
-0.308581
-0.309286
-0.310327
-0.311027
-0.311729
-0.312384
-0.313029
-0.313658
-0.314269
-0.314856
-0.315416
-0.315945
-0.316441
-0.306087
-0.308877
-0.309566
-0.310586
-0.311272
-0.311961
-0.312606
-0.313243
-0.313864
-0.314468
-0.31505
-0.315604
-0.316128
-0.316618
-0.317075
-0.306514
-0.309228
-0.309899
-0.310892
-0.311561
-0.312235
-0.312868
-0.313493
-0.314105
-0.3147
-0.315274
-0.315821
-0.316338
-0.316822
-0.317272
-0.307004
-0.309632
-0.310281
-0.311243
-0.311893
-0.312548
-0.313165
-0.313777
-0.314377
-0.314962
-0.315526
-0.316063
-0.316571
-0.317047
-0.317489
-0.307554
-0.310085
-0.31071
-0.311637
-0.312263
-0.312897
-0.313496
-0.314091
-0.314677
-0.315248
-0.3158
-0.316326
-0.316823
-0.317288
-0.31772
-0.30816
-0.310587
-0.311183
-0.312071
-0.31267
-0.313279
-0.313856
-0.314432
-0.315
-0.315556
-0.316093
-0.316605
-0.317088
-0.31754
-0.317959
-0.308819
-0.311133
-0.311698
-0.312542
-0.31311
-0.313689
-0.314242
-0.314795
-0.315343
-0.315879
-0.316399
-0.316894
-0.317362
-0.317798
-0.318202
-0.309527
-0.311721
-0.312252
-0.313047
-0.31358
-0.314126
-0.31465
-0.315177
-0.3157
-0.316214
-0.316713
-0.317189
-0.317637
-0.318055
-0.31844
-0.310279
-0.312348
-0.312841
-0.313583
-0.314076
-0.314586
-0.315076
-0.315572
-0.316068
-0.316556
-0.31703
-0.317483
-0.317909
-0.318306
-0.31867
-0.311071
-0.313011
-0.313463
-0.314147
-0.314597
-0.315064
-0.315516
-0.315978
-0.316441
-0.3169
-0.317346
-0.317772
-0.318173
-0.318545
-0.318886
-0.3119
-0.313707
-0.314114
-0.314737
-0.315137
-0.315557
-0.315967
-0.316389
-0.316816
-0.317241
-0.317655
-0.318052
-0.318424
-0.318768
-0.319081
-0.312762
-0.314434
-0.314793
-0.315348
-0.315695
-0.316062
-0.316424
-0.316802
-0.317188
-0.317575
-0.317954
-0.318316
-0.318656
-0.318969
-0.319253
-0.319505
-0.313653
-0.315188
-0.315495
-0.315979
-0.316267
-0.316576
-0.316885
-0.317213
-0.317553
-0.317898
-0.318237
-0.318562
-0.318866
-0.319145
-0.319395
-0.319615
-0.31457
-0.315968
-0.31622
-0.316627
-0.31685
-0.317096
-0.317346
-0.317619
-0.317908
-0.318205
-0.3185
-0.318784
-0.31905
-0.319291
-0.319506
-0.319691
-0.31551
-0.316771
-0.316964
-0.31729
-0.317443
-0.317619
-0.317804
-0.318017
-0.31825
-0.318495
-0.318742
-0.318981
-0.319204
-0.319405
-0.319581
-0.319728
-0.316471
-0.317596
-0.317726
-0.317966
-0.318042
-0.318143
-0.318257
-0.318404
-0.318575
-0.318764
-0.318958
-0.319148
-0.319325
-0.319484
-0.319618
-0.319726
-0.31745
-0.318441
-0.318504
-0.318653
-0.318647
-0.318666
-0.318703
-0.318777
-0.318882
-0.319009
-0.319147
-0.319284
-0.319413
-0.319525
-0.319617
-0.319683
-0.318446
-0.319305
-0.319297
-0.31935
-0.319256
-0.319186
-0.31914
-0.319136
-0.31917
-0.31923
-0.319307
-0.319389
-0.319465
-0.319529
-0.319574
-0.319596
-0.319592
-0.319458
-0.320189
-0.320105
-0.320057
-0.319867
-0.319703
-0.319567
-0.31948
-0.319436
-0.319426
-0.319438
-0.31946
-0.319482
-0.319495
-0.319492
-0.319467
-0.319417
-0.320486
-0.321091
-0.320928
-0.320773
-0.320482
-0.320216
-0.319984
-0.319807
-0.31968
-0.319595
-0.319539
-0.319498
-0.319463
-0.319422
-0.319369
-0.319295
-0.319196
-0.321531
-0.322011
-0.321764
-0.321497
-0.321099
-0.320725
-0.32039
-0.320118
-0.319904
-0.319739
-0.319611
-0.319505
-0.319409
-0.319313
-0.319206
-0.319081
-0.318929
-0.322593
-0.322952
-0.322616
-0.322232
-0.321719
-0.32123
-0.320787
-0.320414
-0.320108
-0.319859
-0.319655
-0.319481
-0.319322
-0.319167
-0.319005
-0.318824
-0.318616
-0.318371
-0.323674
-0.323914
-0.323485
-0.322977
-0.322343
-0.321733
-0.321176
-0.320696
-0.320293
-0.319957
-0.319674
-0.319429
-0.319205
-0.318988
-0.318766
-0.318526
-0.318255
-0.317942
-0.324777
-0.324899
-0.324371
-0.323734
-0.322973
-0.322236
-0.321558
-0.320967
-0.320463
-0.320036
-0.319671
-0.319351
-0.319059
-0.318777
-0.318492
-0.318186
-0.317845
-0.317453
-0.325905
-0.325909
-0.325277
-0.324506
-0.323611
-0.32274
-0.321937
-0.32123
-0.32062
-0.320098
-0.319648
-0.319251
-0.318887
-0.318537
-0.318183
-0.317805
-0.317384
-0.316901
-0.316337
-0.327062
-0.326948
-0.326206
-0.325294
-0.324259
-0.323248
-0.322314
-0.321487
-0.320768
-0.320148
-0.31961
-0.319133
-0.318694
-0.318271
-0.31784
-0.317381
-0.316868
-0.31628
-0.315592
-0.328252
-0.328017
-0.327162
-0.326102
-0.32492
-0.323765
-0.322695
-0.321742
-0.320911
-0.320191
-0.319562
-0.319
-0.318482
-0.317979
-0.317465
-0.316912
-0.316293
-0.315581
-0.314748
-0.32948
-0.32912
-0.328147
-0.326932
-0.325598
-0.324293
-0.323082
-0.322001
-0.321054
-0.32023
-0.319506
-0.318857
-0.318253
-0.317663
-0.317055
-0.316396
-0.315653
-0.314796
-0.313795
-0.312625
-0.330753
-0.330263
-0.329166
-0.327789
-0.326298
-0.324837
-0.323482
-0.322269
-0.321203
-0.320271
-0.31945
-0.318708
-0.318012
-0.317325
-0.316609
-0.315827
-0.314941
-0.313916
-0.312723
-0.311335
-0.332075
-0.33145
-0.330222
-0.328677
-0.327022
-0.325401
-0.323898
-0.322549
-0.321362
-0.32032
-0.319396
-0.318556
-0.317759
-0.316963
-0.316125
-0.3152
-0.314148
-0.312931
-0.31152
-0.309892
-0.333455
-0.332685
-0.33132
-0.329601
-0.327777
-0.325991
-0.324336
-0.322849
-0.321537
-0.320381
-0.31935
-0.318404
-0.317496
-0.316577
-0.315597
-0.314507
-0.313264
-0.311831
-0.310178
-0.30829
-0.306162
-0.3349
-0.333973
-0.332465
-0.330565
-0.328567
-0.326612
-0.324802
-0.323174
-0.321734
-0.32046
-0.319316
-0.318254
-0.317221
-0.316162
-0.315019
-0.313741
-0.312282
-0.310606
-0.308691
-0.306526
-0.304117
-0.336417
-0.33532
-0.333662
-0.331574
-0.329397
-0.32727
-0.325302
-0.32353
-0.321959
-0.320561
-0.319296
-0.318107
-0.316934
-0.315715
-0.314386
-0.312893
-0.311192
-0.309251
-0.307054
-0.304602
-0.301908
-0.298997
-0.33801
-0.336732
-0.334918
-0.332633
-0.330274
-0.32797
-0.325841
-0.323923
-0.322216
-0.32069
-0.319293
-0.317964
-0.316633
-0.31523
-0.31369
-0.311956
-0.309988
-0.30776
-0.305269
-0.302523
-0.299546
-0.296373
-0.339689
-0.338215
-0.336237
-0.33375
-0.331202
-0.32872
-0.326427
-0.32436
-0.322512
-0.320848
-0.319309
-0.317823
-0.316312
-0.314701
-0.312922
-0.310921
-0.308662
-0.306133
-0.303337
-0.300297
-0.297046
-0.293625
-0.290076
-0.341467
-0.339774
-0.337625
-0.334927
-0.332186
-0.329521
-0.327062
-0.324841
-0.322847
-0.321036
-0.31934
-0.317677
-0.315963
-0.314117
-0.312072
-0.309779
-0.307211
-0.304368
-0.301264
-0.297935
-0.294421
-0.290769
-0.287022
-0.343361
-0.341421
-0.339087
-0.336165
-0.333225
-0.330372
-0.327742
-0.325362
-0.323214
-0.321245
-0.319375
-0.317515
-0.315573
-0.313465
-0.311128
-0.308521
-0.305631
-0.302467
-0.299059
-0.29545
-0.291688
-0.287823
-0.283898
-0.27995
-0.34535
-0.34315
-0.34063
-0.337482
-0.334341
-0.331298
-0.328495
-0.325951
-0.323641
-0.321499
-0.319436
-0.317353
-0.315153
-0.312755
-0.3101
-0.307159
-0.303933
-0.300445
-0.296738
-0.29286
-0.288867
-0.284806
-0.28072
-0.276642
-0.347449
-0.344971
-0.342261
-0.338879
-0.335534
-0.332298
-0.329319
-0.326603
-0.324119
-0.321788
-0.319509
-0.317175
-0.314688
-0.31197
-0.308973
-0.305683
-0.302115
-0.298306
-0.294308
-0.290177
-0.285968
-0.281729
-0.277499
-0.273305
-0.26917
-0.349672
-0.346892
-0.343984
-0.340361
-0.336807
-0.333375
-0.330212
-0.327318
-0.324646
-0.322105
-0.319584
-0.316971
-0.314167
-0.311103
-0.307745
-0.304095
-0.300182
-0.296058
-0.291782
-0.287413
-0.283006
-0.278605
-0.274245
-0.269948
-0.265731
-0.261601
-0.352025
-0.348918
-0.345805
-0.341932
-0.338166
-0.334532
-0.331181
-0.328097
-0.325221
-0.322447
-0.319657
-0.316733
-0.313582
-0.310148
-0.306413
-0.302395
-0.298142
-0.293712
-0.289172
-0.284581
-0.279992
-0.275444
-0.270966
-0.266576
-0.262286
-0.258098
-0.354515
-0.351054
-0.347729
-0.343599
-0.339616
-0.335776
-0.332229
-0.328942
-0.325842
-0.32281
-0.319719
-0.316453
-0.312927
-0.309101
-0.304977
-0.30059
-0.296001
-0.291278
-0.286488
-0.281691
-0.276934
-0.272252
-0.267666
-0.263192
-0.258835
-0.254595
-0.25047
-0.357146
-0.353306
-0.349763
-0.345366
-0.341162
-0.33711
-0.333357
-0.329852
-0.326506
-0.323187
-0.319763
-0.316122
-0.312195
-0.307959
-0.303438
-0.298684
-0.293768
-0.288765
-0.283741
-0.278752
-0.273841
-0.269035
-0.264351
-0.259798
-0.255379
-0.25109
-0.246928
-0.242885
-0.359926
-0.355678
-0.35191
-0.34724
-0.34281
-0.338539
-0.334568
-0.330826
-0.327208
-0.32357
-0.319779
-0.315733
-0.31138
-0.306721
-0.301798
-0.296682
-0.291451
-0.286181
-0.280938
-0.275771
-0.270717
-0.265796
-0.261021
-0.256395
-0.251918
-0.247584
-0.243386
-0.239318
-0.235369
-0.362859
-0.358176
-0.354177
-0.349225
-0.344563
-0.340064
-0.335862
-0.331862
-0.327942
-0.323951
-0.319757
-0.315276
-0.310477
-0.305384
-0.300062
-0.294591
-0.289057
-0.283535
-0.278086
-0.272753
-0.267565
-0.262537
-0.257677
-0.252983
-0.24845
-0.244073
-0.239843
-0.23575
-0.231785
-0.22794
-0.36595
-0.360803
-0.356569
-0.351326
-0.346426
-0.341689
-0.337238
-0.332955
-0.3287
-0.324319
-0.319689
-0.314744
-0.309482
-0.303951
-0.298232
-0.292418
-0.286594
-0.280833
-0.27519
-0.269702
-0.264389
-0.25926
-0.254319
-0.24956
-0.244976
-0.240558
-0.236296
-0.23218
-0.228201
-0.224349
-0.369202
-0.363565
-0.359088
-0.353547
-0.348403
-0.343415
-0.338695
-0.334099
-0.329473
-0.324664
-0.319563
-0.314131
-0.308393
-0.302422
-0.296313
-0.290166
-0.284065
-0.278079
-0.272254
-0.266619
-0.261188
-0.255964
-0.250946
-0.246125
-0.241491
-0.237034
-0.232743
-0.228606
-0.224614
-0.220756
-0.217022
-0.372618
-0.366463
-0.361741
-0.355893
-0.350496
-0.345242
-0.340229
-0.335287
-0.330252
-0.324975
-0.319372
-0.313432
-0.307209
-0.300799
-0.294309
-0.287841
-0.281477
-0.275278
-0.26928
-0.263506
-0.257963
-0.252649
-0.247556
-0.242676
-0.237995
-0.233501
-0.229182
-0.225026
-0.221022
-0.217159
-0.213427
-0.209818
-0.376202
-0.369502
-0.36453
-0.358366
-0.352706
-0.347169
-0.341836
-0.33651
-0.331024
-0.325242
-0.319106
-0.31264
-0.305928
-0.299084
-0.292223
-0.285447
-0.278833
-0.27243
-0.26627
-0.260363
-0.254713
-0.249312
-0.244149
-0.239211
-0.234484
-0.229955
-0.22561
-0.221436
-0.217421
-0.213555
-0.209827
-0.206228
-0.202749
-0.379954
-0.372685
-0.367459
-0.360971
-0.355036
-0.349194
-0.343508
-0.337759
-0.331778
-0.325452
-0.318757
-0.311752
-0.304549
-0.297278
-0.290059
-0.282988
-0.276134
-0.269538
-0.263222
-0.25719
-0.251437
-0.245952
-0.24072
-0.235727
-0.230957
-0.226394
-0.222025
-0.217834
-0.213811
-0.209943
-0.20622
-0.202632
-0.199171
-0.195828
-0.192596
-0.383876
-0.376013
-0.37053
-0.363708
-0.357485
-0.351312
-0.345238
-0.33902
-0.332501
-0.325595
-0.318317
-0.310765
-0.303073
-0.295384
-0.287818
-0.280464
-0.273382
-0.266602
-0.260137
-0.253984
-0.248132
-0.242566
-0.237269
-0.232223
-0.227411
-0.222817
-0.218424
-0.214219
-0.210188
-0.206319
-0.202603
-0.199027
-0.195584
-0.192265
-0.189063
-0.185976
-0.387967
-0.379488
-0.373745
-0.366579
-0.360051
-0.353519
-0.347015
-0.340282
-0.33318
-0.325659
-0.31778
-0.309675
-0.3015
-0.293403
-0.285502
-0.277878
-0.270577
-0.263621
-0.257013
-0.250743
-0.244796
-0.239152
-0.233792
-0.228695
-0.223844
-0.219219
-0.214805
-0.210586
-0.20655
-0.202682
-0.198973
-0.19541
-0.191986
-0.188693
-0.185521
-0.182468
-0.179519
-0.392227
-0.38311
-0.377106
-0.369583
-0.362731
-0.355807
-0.348827
-0.34153
-0.3338
-0.325635
-0.31714
-0.30848
-0.299829
-0.291336
-0.283113
-0.275229
-0.267719
-0.260594
-0.253848
-0.247466
-0.241427
-0.235708
-0.230287
-0.225142
-0.220252
-0.215599
-0.211166
-0.206936
-0.202895
-0.199029
-0.195328
-0.19178
-0.188376
-0.185107
-0.181966
-0.178948
-0.17604
-0.173264
-0.396652
-0.38688
-0.380611
-0.37272
-0.365521
-0.358165
-0.350661
-0.342748
-0.334349
-0.325512
-0.31639
-0.307178
-0.29806
-0.289184
-0.280651
-0.272517
-0.264806
-0.257518
-0.25064
-0.244149
-0.238021
-0.23223
-0.22675
-0.221559
-0.216634
-0.211955
-0.207504
-0.203264
-0.19922
-0.195358
-0.191667
-0.188134
-0.18475
-0.181507
-0.178396
-0.175413
-0.172545
-0.169812
-0.167142
-0.164708
-0.401239
-0.390795
-0.384261
-0.375987
-0.368412
-0.360583
-0.352502
-0.343921
-0.334812
-0.325282
-0.315527
-0.305766
-0.296192
-0.286946
-0.278114
-0.26974
-0.261837
-0.254392
-0.247386
-0.240791
-0.234577
-0.228716
-0.223181
-0.217945
-0.212987
-0.208284
-0.203817
-0.199569
-0.195524
-0.191667
-0.187986
-0.18447
-0.181107
-0.17789
-0.17481
-0.171862
-0.169033
-0.166342
-0.163721
-0.161335
-0.405983
-0.394853
-0.388051
-0.379377
-0.371397
-0.363047
-0.354332
-0.345032
-0.335177
-0.324935
-0.314544
-0.304244
-0.294225
-0.28462
-0.275501
-0.266898
-0.258808
-0.251213
-0.244083
-0.237387
-0.231091
-0.225163
-0.219575
-0.214298
-0.209308
-0.204584
-0.200103
-0.195849
-0.191804
-0.187953
-0.184285
-0.180785
-0.177445
-0.174254
-0.171205
-0.168291
-0.165502
-0.162851
-0.160278
-0.157938
-0.410878
-0.39905
-0.391978
-0.382886
-0.374464
-0.36554
-0.356133
-0.346064
-0.335432
-0.324464
-0.313439
-0.302607
-0.292158
-0.282207
-0.272811
-0.263986
-0.255717
-0.247977
-0.240728
-0.233935
-0.22756
-0.221569
-0.21593
-0.210614
-0.205596
-0.200852
-0.19636
-0.192101
-0.188058
-0.184216
-0.18056
-0.177079
-0.173761
-0.170598
-0.167579
-0.1647
-0.16195
-0.159339
-0.156812
-0.154516
-0.415916
-0.403381
-0.396035
-0.386503
-0.377599
-0.368044
-0.357886
-0.347001
-0.335562
-0.323861
-0.312205
-0.300855
-0.289987
-0.279702
-0.270041
-0.261003
-0.252562
-0.244681
-0.237318
-0.230431
-0.223981
-0.217929
-0.212243
-0.206892
-0.201848
-0.197086
-0.192585
-0.188324
-0.184285
-0.180452
-0.176811
-0.173349
-0.170055
-0.166919
-0.163932
-0.161086
-0.158375
-0.155803
-0.153322
-0.151069
-0.421085
-0.407839
-0.400215
-0.390218
-0.380786
-0.37054
-0.359571
-0.347825
-0.335558
-0.323118
-0.31084
-0.298983
-0.287711
-0.277105
-0.267188
-0.257944
-0.249337
-0.241321
-0.233849
-0.226873
-0.220351
-0.214243
-0.208512
-0.203128
-0.198061
-0.193285
-0.188777
-0.184516
-0.180482
-0.176661
-0.173036
-0.169594
-0.166325
-0.163216
-0.16026
-0.157449
-0.154775
-0.152242
-0.149806
-0.147594
-0.426376
-0.412414
-0.404507
-0.394017
-0.384007
-0.373006
-0.361167
-0.34852
-0.335407
-0.322229
-0.309339
-0.296989
-0.285326
-0.274411
-0.264248
-0.254807
-0.24604
-0.237895
-0.230317
-0.223257
-0.216667
-0.210506
-0.204735
-0.199322
-0.194234
-0.189447
-0.184934
-0.180674
-0.176649
-0.17284
-0.169233
-0.165813
-0.162568
-0.159488
-0.156564
-0.153788
-0.151151
-0.148655
-0.146264
-0.144091
-0.431773
-0.417097
-0.408899
-0.397885
-0.387241
-0.37542
-0.362653
-0.349071
-0.335099
-0.321187
-0.307696
-0.294869
-0.282829
-0.271617
-0.261218
-0.251587
-0.242668
-0.234398
-0.226721
-0.21958
-0.212927
-0.206716
-0.200909
-0.195469
-0.190365
-0.185568
-0.181054
-0.176799
-0.172783
-0.168989
-0.165401
-0.162003
-0.158785
-0.155734
-0.152842
-0.1501
-0.1475
-0.145042
-0.142693
-0.140558
-0.437262
-0.421875
-0.413377
-0.401802
-0.390465
-0.377756
-0.364008
-0.349461
-0.334624
-0.319985
-0.305909
-0.292619
-0.280216
-0.268719
-0.258093
-0.248281
-0.239215
-0.230827
-0.223055
-0.215839
-0.209127
-0.202871
-0.197031
-0.191569
-0.186451
-0.181648
-0.177135
-0.172887
-0.168883
-0.165106
-0.161538
-0.158165
-0.154973
-0.151953
-0.149093
-0.146385
-0.143822
-0.141401
-0.139094
-0.136996
-0.442823
-0.426732
-0.417922
-0.405748
-0.393653
-0.379989
-0.365211
-0.349675
-0.333971
-0.318616
-0.30397
-0.290234
-0.277484
-0.265712
-0.254869
-0.244883
-0.235678
-0.227179
-0.219317
-0.212031
-0.205265
-0.198969
-0.1931
-0.187618
-0.18249
-0.177685
-0.173176
-0.168937
-0.164948
-0.161189
-0.157643
-0.154296
-0.151133
-0.148143
-0.145316
-0.142643
-0.140116
-0.137732
-0.135467
-0.133404
-0.448439
-0.431652
-0.422516
-0.409699
-0.396779
-0.382094
-0.366242
-0.3497
-0.333131
-0.317074
-0.301876
-0.287711
-0.274626
-0.262593
-0.251542
-0.241391
-0.232053
-0.223449
-0.215504
-0.208153
-0.201338
-0.195006
-0.189112
-0.183616
-0.178482
-0.173677
-0.169175
-0.164948
-0.160976
-0.157237
-0.153716
-0.150395
-0.147262
-0.144304
-0.14151
-0.138872
-0.136382
-0.134034
-0.13181
-0.129781
-0.454085
-0.436616
-0.427136
-0.413628
-0.399814
-0.384045
-0.367079
-0.34952
-0.332095
-0.315353
-0.299621
-0.285044
-0.27164
-0.259356
-0.248108
-0.237799
-0.228337
-0.219634
-0.211612
-0.204203
-0.197343
-0.190981
-0.185067
-0.179561
-0.174424
-0.169623
-0.16513
-0.160919
-0.156966
-0.153251
-0.149755
-0.146463
-0.143361
-0.140435
-0.137676
-0.135073
-0.132619
-0.130307
-0.128123
-0.126128
-0.459737
-0.441602
-0.431758
-0.417508
-0.402728
-0.385815
-0.367705
-0.349123
-0.330853
-0.313445
-0.2972
-0.282228
-0.268518
-0.255997
-0.244561
-0.234105
-0.224526
-0.215731
-0.207639
-0.200176
-0.193279
-0.186891
-0.180962
-0.175449
-0.170314
-0.165521
-0.161042
-0.156849
-0.152917
-0.149227
-0.14576
-0.142498
-0.139428
-0.136536
-0.133811
-0.131245
-0.128827
-0.126552
-0.124407
-0.122444
-0.465369
-0.446586
-0.436355
-0.421307
-0.40549
-0.387378
-0.368098
-0.348495
-0.329397
-0.311344
-0.294605
-0.279257
-0.265257
-0.25251
-0.240898
-0.230302
-0.220615
-0.211737
-0.203581
-0.196072
-0.189142
-0.182734
-0.176795
-0.171281
-0.166151
-0.161371
-0.156908
-0.152736
-0.148829
-0.145167
-0.141729
-0.1385
-0.135463
-0.132606
-0.129917
-0.127387
-0.125007
-0.122767
-0.120662
-0.11873
-0.470953
-0.451542
-0.440896
-0.424994
-0.408068
-0.388709
-0.368242
-0.347625
-0.327718
-0.309043
-0.291833
-0.276126
-0.261851
-0.248891
-0.237113
-0.226389
-0.216601
-0.207647
-0.199436
-0.191887
-0.184932
-0.178509
-0.172565
-0.167054
-0.161934
-0.15717
-0.152727
-0.148579
-0.1447
-0.141068
-0.137663
-0.134468
-0.131466
-0.128646
-0.125994
-0.1235
-0.121157
-0.118954
-0.116887
-0.114986
-0.476456
-0.456442
-0.445351
-0.428534
-0.410431
-0.389783
-0.368119
-0.3465
-0.325806
-0.306534
-0.288875
-0.272829
-0.258295
-0.245135
-0.233203
-0.22236
-0.212482
-0.20346
-0.1952
-0.187619
-0.180644
-0.174213
-0.16827
-0.162767
-0.157662
-0.152917
-0.148499
-0.144379
-0.140531
-0.136932
-0.133561
-0.130402
-0.127437
-0.124654
-0.12204
-0.119585
-0.117279
-0.115113
-0.113084
-0.111213
-0.481847
-0.461255
-0.449685
-0.431891
-0.412547
-0.390575
-0.36771
-0.345108
-0.323655
-0.303812
-0.285727
-0.26936
-0.254584
-0.241238
-0.229163
-0.218211
-0.208252
-0.199172
-0.190872
-0.183266
-0.176278
-0.169845
-0.163909
-0.158419
-0.153334
-0.148613
-0.144223
-0.140134
-0.13632
-0.132756
-0.129423
-0.126301
-0.123376
-0.120632
-0.118057
-0.11564
-0.113372
-0.111244
-0.109253
-0.107411
-0.487089
-0.465949
-0.453862
-0.43503
-0.414383
-0.391061
-0.367002
-0.343439
-0.321255
-0.300869
-0.282382
-0.265715
-0.250711
-0.237194
-0.224989
-0.21394
-0.20391
-0.194781
-0.186449
-0.178825
-0.171832
-0.165403
-0.159479
-0.154009
-0.148948
-0.144256
-0.139898
-0.135844
-0.132066
-0.128541
-0.125248
-0.122167
-0.119282
-0.116578
-0.114044
-0.111667
-0.109438
-0.107347
-0.105395
-0.103582
-0.492147
-0.470489
-0.457844
-0.437912
-0.41591
-0.39122
-0.365977
-0.341481
-0.318598
-0.297699
-0.278833
-0.261886
-0.246673
-0.232999
-0.220676
-0.209542
-0.199452
-0.190283
-0.181928
-0.174295
-0.167304
-0.160886
-0.154981
-0.149535
-0.144503
-0.139845
-0.135523
-0.131508
-0.127771
-0.124287
-0.121036
-0.117998
-0.115156
-0.112495
-0.110002
-0.107666
-0.105477
-0.103425
-0.101511
-0.0997259
-0.496981
-0.474839
-0.461593
-0.440502
-0.417096
-0.391029
-0.364622
-0.339225
-0.315676
-0.294293
-0.275075
-0.257869
-0.242465
-0.228648
-0.216222
-0.205015
-0.194876
-0.185677
-0.177308
-0.169675
-0.162693
-0.156293
-0.150413
-0.144997
-0.14
-0.13538
-0.131099
-0.127126
-0.123433
-0.119994
-0.116788
-0.113795
-0.110998
-0.108381
-0.105931
-0.103638
-0.101489
-0.0994765
-0.0976006
-0.0958446
-0.501556
-0.478967
-0.465073
-0.442763
-0.417915
-0.390469
-0.362922
-0.33666
-0.312482
-0.290646
-0.271102
-0.253658
-0.23808
-0.224137
-0.211622
-0.200354
-0.190178
-0.18096
-0.172587
-0.164961
-0.157997
-0.151623
-0.145774
-0.140395
-0.135438
-0.13086
-0.126624
-0.122698
-0.119053
-0.115662
-0.112504
-0.109559
-0.106808
-0.104237
-0.101833
-0.0995829
-0.097476
-0.0955038
-0.0936663
-0.0919392
-0.50583
-0.482833
-0.468242
-0.44466
-0.418337
-0.38952
-0.360866
-0.333779
-0.309008
-0.286752
-0.266908
-0.249249
-0.233516
-0.219464
-0.206874
-0.195559
-0.185357
-0.176131
-0.167764
-0.160154
-0.153216
-0.146874
-0.141063
-0.135727
-0.130815
-0.126286
-0.1221
-0.118225
-0.11463
-0.111291
-0.108184
-0.105289
-0.102588
-0.100065
-0.0977074
-0.0955024
-0.0934383
-0.0915077
-0.0897089
-0.0880109
-0.509734
-0.486371
-0.471036
-0.446139
-0.418327
-0.388163
-0.358442
-0.330574
-0.305251
-0.282607
-0.262491
-0.244639
-0.228771
-0.214626
-0.201977
-0.190627
-0.180412
-0.171189
-0.162837
-0.155253
-0.148349
-0.142047
-0.136281
-0.130994
-0.126134
-0.121657
-0.117526
-0.113705
-0.110166
-0.106882
-0.103828
-0.100986
-0.0983373
-0.095865
-0.0935558
-0.0913972
-0.0893774
-0.0874893
-0.0857298
-0.0840615
-0.51317
-0.489491
-0.473379
-0.447145
-0.41785
-0.386374
-0.355637
-0.327037
-0.301204
-0.278207
-0.257845
-0.239823
-0.22384
-0.20962
-0.196926
-0.185557
-0.175341
-0.166131
-0.157805
-0.150257
-0.143395
-0.137141
-0.131428
-0.126195
-0.121392
-0.116974
-0.112902
-0.109141
-0.10566
-0.102434
-0.0994383
-0.0966522
-0.0940574
-0.0916376
-0.0893788
-0.0872684
-0.0852942
-0.08345
-0.0817302
-0.0800924
-0.516267
-0.492305
-0.475352
-0.44773
-0.416933
-0.384166
-0.35245
-0.323161
-0.296857
-0.273541
-0.252962
-0.234794
-0.218716
-0.204439
-0.191718
-0.180344
-0.170139
-0.160956
-0.152667
-0.145164
-0.138353
-0.132155
-0.126501
-0.12133
-0.11659
-0.112236
-0.108228
-0.104531
-0.101113
-0.0979491
-0.0950138
-0.0922866
-0.0897486
-0.0873837
-0.0851775
-0.0831171
-0.08119
-0.0793909
-0.0777116
-0.0761053
-0.518925
-0.494707
-0.476858
-0.447818
-0.415524
-0.381505
-0.348864
-0.318936
-0.292204
-0.268604
-0.247837
-0.229549
-0.213397
-0.199083
-0.186351
-0.174986
-0.164808
-0.155663
-0.147422
-0.139973
-0.133223
-0.127089
-0.121502
-0.116399
-0.111729
-0.107444
-0.103505
-0.099876
-0.0965259
-0.0934272
-0.0905558
-0.0878904
-0.0854122
-0.0831044
-0.080953
-0.0789444
-0.0770662
-0.0753138
-0.0736762
-0.0721007
-0.52108
-0.49664
-0.477848
-0.447372
-0.413601
-0.378379
-0.344868
-0.314354
-0.287239
-0.263391
-0.242468
-0.224084
-0.207881
-0.193548
-0.180822
-0.169483
-0.159344
-0.15025
-0.142068
-0.134685
-0.128004
-0.121943
-0.11643
-0.111403
-0.106808
-0.102598
-0.0987334
-0.0951772
-0.0918984
-0.0888692
-0.0860651
-0.0834648
-0.081049
-0.078801
-0.0767065
-0.0747517
-0.0729242
-0.0712209
-0.0696267
-0.0680788
-0.522692
-0.498067
-0.478288
-0.446367
-0.411145
-0.374776
-0.340456
-0.309411
-0.281957
-0.257899
-0.236849
-0.218396
-0.202164
-0.187833
-0.175132
-0.163833
-0.153749
-0.144718
-0.136607
-0.129299
-0.122697
-0.116717
-0.111286
-0.106341
-0.101828
-0.097699
-0.0939136
-0.0904352
-0.087232
-0.0842761
-0.0815428
-0.0790106
-0.0766602
-0.0744748
-0.0724395
-0.0705404
-0.0687653
-0.0671137
-0.0655633
-0.0640454
-0.523726
-0.49895
-0.478141
-0.444777
-0.408142
-0.370686
-0.335621
-0.304099
-0.276354
-0.252122
-0.230977
-0.212482
-0.196245
-0.181936
-0.169277
-0.158036
-0.14802
-0.139066
-0.131037
-0.123815
-0.117302
-0.111411
-0.10607
-0.101214
-0.0967894
-0.0927474
-0.0890467
-0.0856507
-0.0825275
-0.0796489
-0.0769901
-0.0745292
-0.0722469
-0.0701271
-0.0681534
-0.0663121
-0.0645922
-0.0629929
-0.0614852
-0.0600039
-0.524145
-0.499253
-0.477377
-0.442578
-0.404575
-0.366099
-0.330355
-0.298415
-0.270425
-0.246059
-0.224851
-0.20634
-0.190122
-0.175856
-0.163258
-0.152091
-0.142158
-0.133294
-0.125359
-0.118234
-0.111819
-0.106027
-0.100783
-0.0960241
-0.0916937
-0.0877443
-0.0841337
-0.080825
-0.0777861
-0.0749888
-0.0724082
-0.070022
-0.0678111
-0.0657589
-0.0638494
-0.0620685
-0.0604058
-0.0588604
-0.0573967
-0.0559542
-0.523912
-0.498938
-0.475962
-0.439749
-0.400433
-0.361009
-0.324654
-0.292355
-0.264167
-0.239706
-0.218467
-0.199969
-0.183794
-0.169592
-0.157074
-0.145998
-0.136163
-0.127403
-0.119574
-0.112557
-0.106249
-0.100564
-0.0954264
-0.0907708
-0.0865419
-0.0826908
-0.0791756
-0.0759593
-0.0730092
-0.0702971
-0.0677982
-0.0654902
-0.0633537
-0.0613719
-0.0595293
-0.057811
-0.0562077
-0.0547181
-0.0533002
-0.0518975
-0.522994
-0.497972
-0.47387
-0.436272
-0.395704
-0.355407
-0.318514
-0.285915
-0.257578
-0.23306
-0.211824
-0.193367
-0.17726
-0.163145
-0.150725
-0.139757
-0.130036
-0.121392
-0.113682
-0.106783
-0.100594
-0.0950247
-0.0900004
-0.0854555
-0.0813354
-0.0775884
-0.0741739
-0.0710546
-0.0681978
-0.0655752
-0.0631617
-0.0609352
-0.0588763
-0.0569679
-0.0551946
-0.0535414
-0.0519996
-0.0505679
-0.0491974
-0.047836
-0.521357
-0.496321
-0.471073
-0.432129
-0.390379
-0.349291
-0.311931
-0.279092
-0.250655
-0.226122
-0.204921
-0.186535
-0.17052
-0.156513
-0.144212
-0.133369
-0.123777
-0.115264
-0.107684
-0.100915
-0.0948533
-0.0894095
-0.0845071
-0.0800805
-0.0760743
-0.072438
-0.0691298
-0.0661126
-0.0633536
-0.0608245
-0.0585002
-0.0563587
-0.0543804
-0.0525483
-0.0508469
-0.0492612
-0.0477835
-0.0464118
-0.0450902
-0.0437719
-0.518974
-0.493956
-0.467549
-0.427308
-0.384452
-0.342655
-0.304903
-0.271885
-0.243397
-0.218888
-0.197758
-0.179471
-0.163574
-0.149698
-0.137535
-0.126834
-0.117387
-0.109018
-0.101582
-0.0949543
-0.0890299
-0.0837199
-0.0789473
-0.0746465
-0.0707611
-0.0672413
-0.0640449
-0.0611346
-0.058478
-0.0560466
-0.0538153
-0.0517622
-0.0498677
-0.0481149
-0.0464882
-0.0449725
-0.0435611
-0.0422516
-0.0409805
-0.0397074
-0.515816
-0.490847
-0.463278
-0.421795
-0.377916
-0.335499
-0.29743
-0.264294
-0.235805
-0.211361
-0.190335
-0.172176
-0.156424
-0.1427
-0.130695
-0.120155
-0.110867
-0.102658
-0.095377
-0.0889013
-0.0831246
-0.0779575
-0.073323
-0.0691551
-0.0653973
-0.062
-0.0589208
-0.0561226
-0.0535728
-0.0512432
-0.0491087
-0.0471474
-0.04534
-0.0436695
-0.04212
-0.0406769
-0.0393343
-0.0380892
-0.0368702
-0.0356444
-0.511858
-0.48697
-0.458241
-0.415583
-0.370769
-0.327819
-0.28951
-0.256318
-0.227877
-0.203539
-0.182653
-0.164653
-0.14907
-0.135521
-0.123694
-0.113332
-0.104222
-0.0961838
-0.0890711
-0.0827584
-0.0771394
-0.0721242
-0.0676358
-0.0636083
-0.0599847
-0.0567159
-0.0537594
-0.0510781
-0.0486397
-0.046416
-0.0443822
-0.0425162
-0.040799
-0.0392137
-0.0377443
-0.0363763
-0.0351052
-0.0339265
-0.0327613
-0.0315853
-0.507079
-0.482303
-0.452426
-0.408666
-0.363009
-0.319618
-0.281144
-0.247959
-0.219615
-0.195425
-0.174713
-0.156901
-0.141513
-0.128163
-0.116536
-0.106369
-0.0974497
-0.0895984
-0.0826662
-0.0765277
-0.0710764
-0.0662221
-0.061888
-0.0580079
-0.0545252
-0.0513909
-0.0485625
-0.0460031
-0.0436807
-0.0415671
-0.0396376
-0.0378705
-0.0362467
-0.0347495
-0.033363
-0.0320727
-0.0308755
-0.0297655
-0.0286557
-0.0275321
-0.501459
-0.476824
-0.44582
-0.401038
-0.354636
-0.310897
-0.272336
-0.239218
-0.211022
-0.18702
-0.166517
-0.148923
-0.133757
-0.120631
-0.109221
-0.0992672
-0.0905549
-0.082904
-0.0761648
-0.0702116
-0.0649379
-0.0602535
-0.0560816
-0.0523563
-0.0490211
-0.0460271
-0.0433322
-0.0408997
-0.0386977
-0.0366982
-0.0348768
-0.033212
-0.0316849
-0.0302789
-0.028978
-0.0277681
-0.0266473
-0.0256081
-0.0245555
-0.0234868
-0.494982
-0.470518
-0.438416
-0.392698
-0.345653
-0.301659
-0.263087
-0.230098
-0.2021
-0.178327
-0.158068
-0.140723
-0.125807
-0.112924
-0.101752
-0.0920296
-0.08354
-0.0761033
-0.0695695
-0.0638126
-0.0587264
-0.0542208
-0.0502191
-0.0466558
-0.0434745
-0.0406269
-0.0380708
-0.03577
-0.0336928
-0.0318116
-0.0301021
-0.028543
-0.0271157
-0.0258038
-0.0245912
-0.0234643
-0.0224226
-0.0214562
-0.0204628
-0.0194517
-0.487635
-0.463372
-0.430208
-0.383648
-0.336063
-0.291908
-0.253403
-0.220604
-0.192852
-0.16935
-0.149371
-0.132305
-0.117663
-0.105046
-0.0941331
-0.0846593
-0.0764082
-0.0691995
-0.0628833
-0.0573337
-0.0524448
-0.0481267
-0.0443031
-0.0409089
-0.037888
-0.0351924
-0.0327805
-0.0306162
-0.0286683
-0.0269093
-0.0253153
-0.0238654
-0.0225412
-0.0213263
-0.0202047
-0.0191634
-0.0182033
-0.0173119
-0.0163794
-0.0154287
-0.479407
-0.455376
-0.421196
-0.373891
-0.325871
-0.28165
-0.243288
-0.21074
-0.183282
-0.160094
-0.140429
-0.123672
-0.10933
-0.0970029
-0.0863678
-0.0771602
-0.0691629
-0.0621959
-0.0561094
-0.050778
-0.046096
-0.0419741
-0.0383364
-0.0351182
-0.0322641
-0.0297263
-0.0274638
-0.0254408
-0.0236264
-0.0219936
-0.0205189
-0.0191815
-0.0179633
-0.0168483
-0.0158205
-0.0148675
-0.0139914
-0.0131772
-0.0123075
-0.0114199
-0.470293
-0.446522
-0.411379
-0.363432
-0.315085
-0.270892
-0.232748
-0.200509
-0.1734
-0.150565
-0.131248
-0.114829
-0.100812
-0.0887975
-0.0784603
-0.0695362
-0.061808
-0.0550962
-0.0492514
-0.0441487
-0.0396832
-0.035766
-0.0323219
-0.0292867
-0.0266056
-0.0242312
-0.0221231
-0.0202461
-0.0185695
-0.0170669
-0.0157149
-0.0144933
-0.0133844
-0.0123722
-0.0114408
-0.0105786
-0.00978897
-0.00905398
-0.00824914
-0.00742746
-0.460289
-0.436807
-0.400762
-0.35228
-0.303715
-0.259644
-0.221791
-0.189916
-0.163216
-0.140767
-0.121832
-0.105781
-0.0921154
-0.0804351
-0.0704152
-0.0617916
-0.0543476
-0.0479043
-0.042313
-0.0374496
-0.0332098
-0.0295057
-0.0262627
-0.0234173
-0.0209152
-0.0187099
-0.0167613
-0.0150347
-0.0135001
-0.0121314
-0.0109058
-0.0098033
-0.00880655
-0.0078999
-0.0070676
-0.00629883
-0.00559808
-0.00494431
-0.00420622
-0.00345329
-0.449393
-0.426232