/*--------------------------------*- C++ -*----------------------------------*\
  =========                 |
  \\      /  F ield         | OpenFOAM: The Open Source CFD Toolbox
   \\    /   O peration     | Website:  https://openfoam.org
    \\  /    A nd           | Version:  7
     \\/     M anipulation  |
\*---------------------------------------------------------------------------*/
FoamFile
{
    version     2.0;
    format      ascii;
    class       surfaceScalarField;
    location    "15";
    object      phi;
}
// * * * * * * * * * * * * * * * * * * * * * * * * * * * * * * * * * * * * * //

dimensions      [0 3 -1 0 0 0 0];

internalField   nonuniform List<scalar> 
47900
(
-4.69295e-06
4.6928e-06
1.5256e-10
-1.56762e-05
1.09828e-05
4.65205e-10
-3.11807e-05
1.55037e-05
7.74866e-10
-4.99104e-05
1.87287e-05
1.06015e-09
-7.09907e-05
2.1079e-05
1.31816e-09
-9.38225e-05
2.28302e-05
1.55268e-09
-0.000118014
2.41897e-05
1.77268e-09
-0.000143319
2.53027e-05
1.98815e-09
-0.000169593
2.62721e-05
2.20805e-09
-0.000196764
2.71682e-05
2.43881e-09
-0.000224805
2.80382e-05
2.68428e-09
-0.000253721
2.89133e-05
2.946e-09
-0.000283538
2.9814e-05
3.22356e-09
3.07534e-05
3.51498e-09
-4.66762e-06
9.36041e-06
-1.55979e-05
2.19131e-05
-3.10292e-05
3.0935e-05
-4.96692e-05
3.73687e-05
-7.06437e-05
4.20535e-05
-9.33526e-05
4.55392e-05
-0.000117402
4.82391e-05
-0.000142543
5.04437e-05
-0.000168628
5.23575e-05
-0.000195581
5.41209e-05
-0.000223371
5.5828e-05
-0.000251998
5.75407e-05
-0.000281484
5.92994e-05
6.11299e-05
-4.61872e-06
1.39791e-05
-1.54447e-05
3.27391e-05
-3.0731e-05
4.62214e-05
-4.91927e-05
5.58303e-05
-6.99566e-05
6.28174e-05
-9.24208e-05
6.80034e-05
-0.000116187
7.20058e-05
-0.000141002
7.52582e-05
-0.000166711
7.80664e-05
-0.000193229
8.06396e-05
-0.000220519
8.31178e-05
-0.000248572
8.55931e-05
-0.000277397
8.81245e-05
9.07496e-05
-4.54686e-06
1.8526e-05
-1.52182e-05
4.34104e-05
-3.02892e-05
6.12924e-05
-4.84854e-05
7.40265e-05
-6.89356e-05
8.32675e-05
-9.1035e-05
9.01029e-05
-0.00011438
9.53507e-05
-0.000138708
9.95861e-05
-0.000163856
0.000103214
-0.000189727
0.000106511
-0.000216273
0.000109663
-0.000243469
0.000112789
-0.000271312
0.000115967
0.000119245
-4.45293e-06
2.29789e-05
-1.49211e-05
5.38786e-05
-2.97084e-05
7.60797e-05
-4.75543e-05
9.18724e-05
-6.759e-05
0.000103303
-8.92072e-05
0.00011172
-0.000111995
0.000118138
-0.000135679
0.000123271
-0.000160085
0.00012762
-0.000185102
0.000131529
-0.000210664
0.000135225
-0.000236732
0.000138857
-0.00026328
0.000142516
0.000146258
-4.33811e-06
2.7317e-05
-1.45569e-05
6.40974e-05
-2.89948e-05
9.05176e-05
-4.64085e-05
0.000109286
-6.5932e-05
0.000122827
-8.6953e-05
0.000132741
-0.000109051
0.000140236
-0.000131939
0.000146159
-0.000155428
0.000151109
-0.00017939
0.000155491
-0.000203738
0.000159574
-0.000228413
0.000163531
-0.000253366
0.000167469
-0.000278557
0.00017145
0.000175506
-4.20385e-06
3.15209e-05
-1.41295e-05
7.40231e-05
-2.81558e-05
0.000104544
-4.50589e-05
0.000126189
-6.39765e-05
0.000141744
-8.42912e-05
0.000153056
-0.000105572
0.000161516
-0.000127518
0.000168105
-0.00014992
0.000173512
-0.000172633
0.000178203
-0.000195547
0.000182487
-0.000218576
0.000186561
-0.000241648
0.000190541
-0.000264693
0.000194495
0.000198452
-4.05183e-06
3.55727e-05
-1.3644e-05
8.36152e-05
-2.72e-05
0.0001181
-4.35183e-05
0.000142508
-6.17406e-05
0.000159967
-8.12441e-05
0.000172559
-0.000101585
0.000181857
-0.000122448
0.000188967
-0.000143603
0.000194667
-0.000164881
0.000199481
-0.000186149
0.000203756
-0.000207295
0.000207706
-0.000228215
0.000211461
-0.000248809
0.000215088
0.000218613
-3.88397e-06
3.94567e-05
-1.31057e-05
9.2837e-05
-2.61373e-05
0.000131131
-4.18014e-05
0.000158172
-5.9244e-05
0.000177409
-7.78365e-05
0.000191152
-9.71224e-05
0.000201143
-0.000116767
0.000208612
-0.000136521
0.00021442
-0.000156189
0.000219149
-0.000175612
0.000223179
-0.000194648
0.000226742
-0.000213162
0.000229975
-0.000231018
0.000232945
0.00023567
-3.70236e-06
4.31591e-05
-1.25207e-05
0.000101655
-2.49784e-05
0.000143589
-3.99239e-05
0.000173117
-5.65079e-05
0.000193993
-7.40956e-05
0.000208739
-9.22163e-05
0.000219264
-0.000110516
0.000226912
-0.000128723
0.000232627
-0.000146615
0.000237042
-0.000164005
0.000240568
-0.000180719
0.000243456
-0.000196588
0.000245845
-0.000211442
0.000247799
0.000249328
-3.50923e-06
4.66683e-05
-1.18953e-05
0.000110041
-2.37348e-05
0.000155429
-3.7903e-05
0.000187285
-5.35554e-05
0.000209646
-7.00505e-05
0.000225235
-8.6903e-05
0.000236116
-0.000103739
0.000243748
-0.000120261
0.000249149
-0.000136221
0.000253002
-0.000151401
0.000255747
-0.000165593
0.000257648
-0.000178596
0.000258847
-0.000190199
0.000259402
0.000259313
-3.30694e-06
4.99752e-05
-1.12363e-05
0.000117971
-2.24187e-05
0.000166611
-3.57567e-05
0.000200623
-5.04105e-05
0.000224299
-6.57317e-05
0.000240556
-8.12198e-05
0.000251605
-9.64796e-05
0.000259008
-0.000111188
0.000263858
-0.00012507
0.000266883
-0.000137872
0.00026855
-0.000149356
0.000269133
-0.000159282
0.000268774
-0.000167404
0.000267523
0.000265368
-3.09793e-06
5.30732e-05
-1.05507e-05
0.000125423
-2.10427e-05
0.000177103
-3.35034e-05
0.000213084
-4.70979e-05
0.000237894
-6.11706e-05
0.000254628
-7.52048e-05
0.000265639
-8.87837e-05
0.000272587
-0.000101558
0.000276632
-0.000113221
0.000278547
-0.00012349
0.000278818
-0.000132089
0.000277732
-0.000138741
0.000275426
-0.000143161
0.000271943
0.000267252
-2.88465e-06
5.59578e-05
-9.84558e-06
0.000132384
-1.96194e-05
0.000186877
-3.11622e-05
0.000224627
-4.3643e-05
0.000250375
-5.63986e-05
0.000267384
-6.88962e-05
0.000278136
-8.06961e-05
0.000284387
-9.1422e-05
0.000287358
-0.000100736
0.000287861
-0.000108322
0.000286404
-0.000113867
0.000283277
-0.000117056
0.000278615
-0.000117561
0.000272448
0.00026473
-2.66958e-06
5.86274e-05
-9.12801e-06
0.000138843
-1.81617e-05
0.00019591
-2.87516e-05
0.000235217
-4.00705e-05
0.000261694
-5.1447e-05
0.000278761
-6.23313e-05
0.000289021
-7.22604e-05
0.000294316
-8.08297e-05
0.000295927
-8.76696e-05
0.000294701
-9.24277e-05
0.000291162
-9.47546e-05
0.000285603
-9.42947e-05
0.000278155
-9.06782e-05
0.000268832
0.000257568
-2.45512e-06
6.10825e-05
-8.40492e-06
0.000144793
-1.66819e-05
0.000204187
-2.62901e-05
0.000244825
-3.64048e-05
0.000271808
-4.63459e-05
0.000288702
-5.55457e-05
0.00029822
-6.35171e-05
0.000302287
-6.98263e-05
0.000302237
-7.40704e-05
0.000298945
-7.58599e-05
0.000292951
-7.48061e-05
0.00028455
-7.0511e-05
0.00027386
-6.25601e-05
0.000260881
-5.05179e-05
0.000245525
0.000227647
-2.2436e-06
6.33261e-05
-7.683e-06
0.000150232
-1.51921e-05
0.000211696
-2.37952e-05
0.000253428
-3.2669e-05
0.000280682
-4.11235e-05
0.000297156
-4.85723e-05
0.000305669
-5.45032e-05
0.000308218
-5.84516e-05
0.000306185
-5.99796e-05
0.000300473
-5.8659e-05
0.000291631
-5.40588e-05
0.000279949
-4.5736e-05
0.000265537
-3.32287e-05
0.000248374
-1.60511e-05
0.000228348
0.000205286
-2.03721e-06
6.53633e-05
-6.96853e-06
0.000155163
-1.37034e-05
0.000218431
-2.12834e-05
0.000261008
-2.88844e-05
0.000288283
-3.58054e-05
0.000304077
-4.14404e-05
0.000311304
-4.52502e-05
0.000312028
-4.67381e-05
0.000307673
-4.54285e-05
0.000299163
-4.08518e-05
0.000287054
-3.25319e-05
0.00027163
-1.99771e-05
0.000252983
-2.67402e-06
0.000231071
1.99176e-05
0.000205756
0.000176836
-1.838e-06
6.72013e-05
-6.26729e-06
0.000159593
-1.22263e-05
0.00022439
-1.87695e-05
0.000267551
-2.50701e-05
0.000294584
-3.04143e-05
0.000309421
-3.41747e-05
0.000315064
-3.57836e-05
0.000313637
-3.47092e-05
0.000306598
-3.04359e-05
0.00029489
-2.24492e-05
0.000279067
-1.02235e-05
0.000259404
6.78572e-06
0.000235973
2.91486e-05
0.000208708
5.74648e-05
0.00017744
0.000141935
-1.64777e-06
6.88491e-05
-5.58441e-06
0.000163529
-1.07697e-05
0.000229576
-1.62664e-05
0.000273048
-2.12422e-05
0.00029956
-2.49685e-05
0.000313148
-2.67942e-05
0.00031689
-2.61206e-05
0.000312963
-2.23781e-05
0.000302856
-1.5007e-05
0.000287519
-3.44353e-06
0.000267504
1.2892e-05
0.000243068
3.46028e-05
0.000214263
6.23214e-05
0.000180989
9.67124e-05
0.000143049
0.000100173
-1.46809e-06
7.03172e-05
-4.9243e-06
0.000166986
-9.3413e-06
0.000233993
-1.37847e-05
0.000277491
-1.74135e-05
0.000303188
-1.94815e-05
0.000315216
-1.93114e-05
0.00031672
-1.62699e-05
0.000309922
-9.74565e-06
0.000296332
8.69211e-07
0.000276904
1.61934e-05
0.00025218
3.68666e-05
0.000222395
6.35568e-05
0.000187572
9.69651e-05
0.000147581
0.000137827
0.000102187
5.1087e-05
-1.30026e-06
7.16174e-05
-4.29046e-06
0.000169976
-7.947e-06
0.000237649
-1.13323e-05
0.000280877
-1.35928e-05
0.000305449
-1.39614e-05
0.000315584
-1.17308e-05
0.000314489
-6.22937e-06
0.00030442
3.20067e-06
0.000286902
1.72214e-05
0.000262883
3.65122e-05
0.000232889
6.17798e-05
0.000197128
9.37636e-05
0.000155588
0.00013324
0.000108105
0.00018102
5.44066e-05
0.000237949
-5.8417e-06
-7.30128e-05
-1.14525e-06
7.27627e-05
-3.68546e-06
0.000172516
-6.59089e-06
0.000240555
-8.91405e-06
0.0002832
-9.78449e-06
0.000306319
-8.40981e-06
0.00031421
-4.04855e-06
0.000310128
4.01416e-06
0.000296358
1.64886e-05
0.000274427
3.40972e-05
0.000245275
5.75875e-05
0.000209398
8.774e-05
0.000166975
0.000125373
0.000117956
0.000171342
6.21356e-05
0.000226538
-7.89694e-07
0.000291879
-7.11828e-05
-0.000149431
-1.00371e-06
7.37664e-05
-3.11077e-06
0.000174623
-5.27496e-06
0.000242719
-6.53157e-06
0.000284456
-5.98789e-06
0.000305776
-2.82145e-06
0.000311043
3.74862e-06
0.000303558
1.44866e-05
0.00028562
3.01617e-05
0.000258752
5.15646e-05
0.000223872
7.95181e-05
0.000181445
0.000114884
0.000131609
0.000158565
7.42746e-05
0.000211501
9.19985e-06
0.00027466
-6.39489e-05
0.000349027
-0.000145549
-0.000235984
-8.75892e-07
7.46423e-05
-2.56673e-06
0.000176314
-3.99899e-06
0.000244151
-4.18268e-06
0.00028464
-2.197e-06
0.00030379
2.81648e-06
0.00030603
1.16843e-05
0.00029469
2.52271e-05
0.000272077
4.4281e-05
0.000239698
6.97124e-05
0.000198441
0.000102428
0.000148729
0.000143377
9.06599e-05
0.000193551
2.4101e-05
0.000253972
-5.12214e-05
0.000325681
-0.000135658
0.000409712
-0.000229581
-0.000333336
-7.6169e-07
7.5404e-05
-2.05247e-06
0.000177605
-2.76033e-06
0.000244859
-1.86134e-06
0.000283741
1.59993e-06
0.000300329
8.52482e-06
0.000299105
1.97928e-05
0.000283422
3.62889e-05
0.000255581
5.89243e-05
0.000217063
8.86499e-05
0.000168715
0.000126463
0.000110916
0.000173407
4.37165e-05
0.00023056
-3.30524e-05
0.000299024
-0.000119685
0.000379895
-0.000216529
0.000474231
-0.000323917
0.000583011
-0.000442116
-0.000571271
-6.6059e-07
7.60645e-05
-1.56585e-06
0.00017851
-1.5539e-06
0.000244847
4.42986e-07
0.000281744
5.42063e-06
0.000295351
1.43328e-05
0.000290193
2.81196e-05
0.000269635
4.77391e-05
0.000235961
7.41868e-05
0.000190615
0.000108506
0.000134395
0.000151792
6.76308e-05
0.000205181
-9.67237e-06
0.000269837
-9.77091e-05
0.000346926
-0.000196774
0.000437575
-0.000307177
0.000542824
-0.000429167
0.000663573
-0.000562865
-0.000708213
-5.71672e-07
7.66362e-05
-1.10339e-06
0.000179042
-3.72114e-07
0.000244116
2.74245e-06
0.00027863
9.28892e-06
0.000288805
2.0278e-05
0.000279204
3.6721e-05
0.000253192
5.96588e-05
0.000213024
9.01801e-05
0.000160094
0.000129428
9.51471e-05
0.000178598
1.8461e-05
0.000238919
-6.99933e-05
0.000311628
-0.000170418
0.00039793
-0.000283076
0.000498943
-0.00040819
0.000615636
-0.000545859
0.000748753
-0.000695983
-0.000858202
-4.93603e-07
7.71298e-05
-6.60199e-07
0.000179208
7.95308e-07
0.00024266
5.05759e-06
0.000274367
1.32349e-05
0.000280627
2.64067e-05
0.000266032
4.56646e-05
0.000233934
7.21423e-05
0.000186546
0.00010703
0.000125206
0.000151577
5.06005e-05
0.000207077
-3.7039e-05
0.000274843
-0.00013776
0.000356164
-0.00025174
0.000452247
-0.000379159
0.000564146
-0.00052009
0.000692683
-0.000674395
0.000838357
-0.000841656
0.00100126
-0.00102111
-0.00121161
-4.24672e-07
7.75545e-05
-2.29011e-07
0.000179013
1.96106e-06
0.00024047
7.41014e-06
0.000268918
1.72945e-05
0.000270743
3.27729e-05
0.000250553
5.50279e-05
0.000211679
8.52953e-05
0.000156278
0.000124875
8.5627e-05
0.000175122
3.53321e-07
0.000237425
-9.93427e-05
0.000313164
-0.000213498
0.000403643
-0.000342219
0.000510021
-0.000485537
0.000633216
-0.000643285
0.000773811
-0.00081499
0.000931956
-0.000999801
0.00110729
-0.00119644
-0.0014032
-3.62915e-07
7.79174e-05
1.93342e-07
0.000178456
3.14006e-06
0.000237523
9.82643e-06
0.000262232
2.15096e-05
0.00025906
3.94384e-05
0.000232625
6.48974e-05
0.00018622
9.92335e-05
0.000121942
0.00014386
4.10006e-05
0.000200238
-5.60244e-05
0.000269835
-0.00016894
0.000354067
-0.000297729
0.00045421
-0.000442361
0.000571304
-0.000602631
0.000706042
-0.000778024
0.000858664
-0.000967612
0.00102886
-0.00116999
0.00121569
-0.00138328
-0.00160511
-3.05938e-07
7.82233e-05
6.14869e-07
0.000177535
4.34964e-06
0.000233789
1.23365e-05
0.000254245
2.59268e-05
0.00024547
4.64714e-05
0.00021208
7.5367e-05
0.000157325
0.000114079
8.32301e-05
0.000164136
-9.05594e-06
0.000227094
-0.000118982
0.000304478
-0.000246325
0.000397698
-0.000390949
0.000507936
-0.000552599
0.000636028
-0.000730724
0.000782341
-0.000924336
0.000946655
-0.00113193
0.00112809
-0.00135143
0.00132506
-0.00158025
0.00153533
-0.00181537
-0.00205349
-2.5095e-07
7.84743e-05
1.04963e-06
0.000176235
5.6094e-06
0.000229229
1.49735e-05
0.000244881
3.05975e-05
0.000229846
5.39456e-05
0.000188732
8.65362e-05
0.000124734
0.000129958
3.98084e-05
0.00018585
-6.49476e-05
0.000255846
-0.000188979
0.000341495
-0.000331974
0.000444141
-0.000493595
0.000564793
-0.000673251
0.000703983
-0.000869913
0.000861633
-0.00108199
0.00103696
-0.00130725
0.00122842
-0.00154288
0.00143373
-0.00178556
0.00164997
-0.00203162
-0.00227727
-1.95259e-07
7.86696e-05
1.50601e-06
0.000174534
6.94039e-06
0.000223794
1.77734e-05
0.000234048
3.55765e-05
0.000212042
6.19383e-05
0.00016237
9.85067e-05
8.81657e-05
0.000146994
-8.67927e-06
0.00020914
-0.000127093
0.000286629
-0.000266468
0.000380981
-0.000426326
0.000493404
-0.000606017
0.000624635
-0.000804483
0.00077479
-0.00102007
0.000943234
-0.00125043
0.00112852
-0.00149253
0.00132837
-0.00174274
0.00153982
-0.00199701
0.00175934
-0.00225114
-0.00250104
-1.34846e-07
7.88044e-05
1.99468e-06
0.000172404
8.36509e-06
0.000217424
2.07742e-05
0.000221639
4.09211e-05
0.000191896
7.05291e-05
0.000132762
0.00011138
4.73144e-05
0.000165307
-6.26061e-05
0.000234129
-0.000195914
0.000319541
-0.000351881
0.00042297
-0.000529755
0.000545398
-0.000728445
0.000687181
-0.000946266
0.000847899
-0.00118079
0.00102626
-0.00142879
0.00122006
-0.00168634
0.00142632
-0.001949
0.00164141
-0.0022121
0.00186134
-0.00247107
0.00208207
-0.00272177
-0.00296075
-6.43408e-08
7.88687e-05
2.5271e-06
0.000169813
9.90696e-06
0.000210044
2.40152e-05
0.000207531
4.66899e-05
0.000169221
7.97971e-05
9.9655e-05
0.000125255
1.85647e-06
0.000185004
-0.000122355
0.000260913
-0.000271824
0.000354636
-0.000445603
0.000467424
-0.000642543
0.000599927
-0.000860948
0.000752003
-0.00109834
0.000922583
-0.00135137
0.00110962
-0.00161583
0.00131017
-0.00188689
0.00152054
-0.00215937
0.00173659
-0.00242815
0.00195406
-0.00268854
0.00216891
-0.00293662
-0.00316948
2.12255e-08
7.88475e-05
3.11495e-06
0.000166719
1.159e-05
0.000201569
2.75364e-05
0.000191584
5.29411e-05
0.000143816
8.98191e-05
6.27769e-05
0.000140221
-4.85454e-05
0.000206175
-0.000188309
0.000289559
-0.000355207
0.000391912
-0.000547957
0.000514217
-0.000764848
0.000656674
-0.0010034
0.000818524
-0.00126019
0.000997952
-0.0015308
0.00119212
-0.00181
0.00139734
-0.0020921
0.00160933
-0.00237136
0.00182363
-0.00264245
0.00203593
-0.00290084
0.00224246
-0.00314314
0.00244021
-0.00336723
-0.00357223
1.13532e-07
7.8734e-05
3.76968e-06
0.000163063
1.34383e-05
0.000191901
3.13771e-05
0.000173646
5.97312e-05
0.000115462
0.000100667
2.18411e-05
0.000156357
-0.000104235
0.000228888
-0.00026084
0.000320089
-0.000446409
0.000431303
-0.00065917
0.000563129
-0.000896674
0.000715199
-0.00115547
0.000886025
-0.00143102
0.00107298
-0.00171775
0.00127244
-0.00200946
0.00148005
-0.00229971
0.00169112
-0.00258244
0.00190108
-0.0028524
0.00210582
-0.00310558
0.00230206
-0.00333938
0.00248747
-0.00355264
-0.00374553
2.26388e-07
7.85076e-05
4.50332e-06
0.000158786
1.54756e-05
0.000180928
3.55758e-05
0.000153545
6.71136e-05
8.39242e-05
0.000112405
-2.34503e-05
0.000173726
-0.000165557
0.000253182
-0.000340296
0.00035248
-0.000545708
0.000472666
-0.000779355
0.000613838
-0.00103785
0.000774939
-0.00131658
0.000953666
-0.00160974
0.00114655
-0.00191064
0.00134924
-0.00221214
0.00155686
-0.00250733
0.00176454
-0.00279011
0.00196782
-0.00305568
0.00216306
-0.00330082
0.00234761
-0.00352394
0.00251996
-0.00372499
0.00267961
-0.00390518
-0.00406663
3.61365e-07
7.81462e-05
5.32707e-06
0.00015382
1.77244e-05
0.000168531
4.01683e-05
0.000131101
7.51365e-05
4.8956e-05
0.000125087
-7.34007e-05
0.000192373
-0.000232842
0.00027906
-0.000426983
0.000386653
-0.000653301
0.000515783
-0.000908485
0.000665924
-0.00118799
0.000835224
-0.00148588
0.00102051
-0.00179503
0.0012175
-0.00210764
0.00142123
-0.00241587
0.00162652
-0.00271262
0.00182853
-0.00299212
0.00202318
-0.00325034
0.00220746
-0.0034851
0.00237952
-0.003696
0.00253865
-0.00388412
0.00268511
-0.00405164
-0.00420142
5.84028e-07
7.75622e-05
6.33678e-06
0.000148067
2.02808e-05
0.000154587
4.52263e-05
0.000106156
8.38247e-05
1.03576e-05
0.000138665
-0.000128241
0.000212142
-0.00030632
0.000306219
-0.000521059
0.000422096
-0.000769177
0.000559872
-0.00104626
0.00071828
-0.0013464
0.000894595
-0.00166219
0.00108477
-0.0019852
0.0012838
-0.00230667
0.00148628
-0.00261835
0.00168696
-0.0029133
0.00188128
-0.00318645
0.00206576
-0.00343482
0.00223815
-0.00365748
0.00239742
-0.00385528
0.00254366
-0.00403036
0.00267776
-0.00418574
0.00280119
-0.00432485
-0.00445113
7.73646e-07
7.67886e-05
7.37073e-06
0.00014147
2.30082e-05
0.000138949
5.06877e-05
7.84764e-05
9.32245e-05
-3.21792e-05
0.000153312
-0.000188329
0.000233335
-0.000386343
0.000335065
-0.000622789
0.000459284
-0.000893396
0.000605431
-0.00119241
0.00077139
-0.00151235
0.000953512
-0.00184431
0.00114692
-0.00217861
0.00134603
-0.00250578
0.00154521
-0.00281752
0.00173938
-0.00310747
0.0019245
-0.00337157
0.00209783
-0.00360814
0.00225795
-0.0038176
0.00240466
-0.00400198
0.00253871
-0.00416441
0.00266153
-0.00430855
0.00277488
-0.0044382
-0.00455693
9.97242e-07
7.57913e-05
8.52844e-06
0.000133939
2.60085e-05
0.000121469
5.66315e-05
4.78534e-05
0.000103366
-7.89136e-05
0.000168979
-0.000253942
0.000255779
-0.000473143
0.000365253
-0.000732263
0.000497639
-0.00102578
0.000651596
-0.00134637
0.000824076
-0.00168483
0.00101051
-0.00203075
0.0012053
-0.00237339
0.00140246
-0.00270294
0.00159639
-0.00301146
0.00178243
-0.0032935
0.0019572
-0.00354635
0.00211882
-0.00376976
0.00226671
-0.00396549
0.0024014
-0.00413668
0.00252421
-0.00428723
0.00263693
-0.00442127
0.00274151
-0.00454278
0.00283984
-0.00465526
-0.00476167
1.2572e-06
7.45341e-05
9.81799e-06
0.000125378
2.92965e-05
0.000101991
6.30766e-05
1.40734e-05
0.000114263
-0.0001301
0.000185654
-0.000325332
0.000279408
-0.000566898
0.000396613
-0.000849467
0.000536839
-0.00116601
0.000697854
-0.00150738
0.000875639
-0.00186262
0.00106476
-0.00221987
0.00125903
-0.00256767
0.00145234
-0.00289625
0.00163934
-0.00319845
0.00181596
-0.00347012
0.00197968
-0.00371007
0.00212945
-0.00391953
0.0022655
-0.00410154
0.00238898
-0.00426016
0.00250164
-0.00439988
0.00260547
-0.0045251
0.00270247
-0.00463978
0.00279446
-0.00474725
0.002883
-0.00485021
-0.00495069
1.5557e-06
7.29784e-05
1.12464e-05
0.000115688
3.28845e-05
8.03527e-05
7.00363e-05
-2.30784e-05
0.000125919
-0.000185983
0.000203308
-0.000402721
0.000304121
-0.000667711
0.000428929
-0.000974275
0.000576506
-0.00131359
0.000743648
-0.00167452
0.000925359
-0.00204433
0.00111545
-0.00240996
0.00130738
-0.0027596
0.00149511
-0.00308398
0.00167379
-0.00337713
0.00184013
-0.00363646
0.00199247
-0.00386241
0.00213062
-0.00405768
0.00225549
-0.0042264
0.00236872
-0.00437339
0.00247234
-0.00450351
0.00256844
-0.0046212
0.00265895
-0.00473028
0.00274555
-0.00483385
0.0028296
-0.00493426
-0.00503324
1.89462e-06
7.10838e-05
1.28194e-05
0.000104763
3.67814e-05
5.63908e-05
7.75172e-05
-6.38142e-05
0.000138324
-0.00024679
0.000221889
-0.000486285
0.000329786
-0.000775608
0.00046194
-0.00110643
0.000616219
-0.00146787
0.000788388
-0.00184669
0.000972536
-0.00222848
0.00116188
-0.00259931
0.00134975
-0.00294747
0.00153042
-0.00326466
0.00169975
-0.00354645
0.00185529
-0.00379201
0.0019963
-0.00400342
0.00212332
-0.0041847
0.00223785
-0.00434093
0.00234187
-0.00447742
0.00243755
-0.00459919
0.00252696
-0.00471061
0.00261192
-0.00481524
0.0026939
-0.00491584
0.00277409
-0.00501444
0.00285332
-0.00511247
-0.0052109
2.27551e-06
6.88083e-05
1.45415e-05
9.24968e-05
4.0993e-05
2.99393e-05
8.55193e-05
-0.000108341
0.000151456
-0.000312727
0.000241322
-0.000576151
0.000356235
-0.000890522
0.000495347
-0.00124554
0.000655518
-0.00162804
0.000831481
-0.00202265
0.00101651
-0.00241351
0.00120344
-0.00278623
0.0013857
-0.00312973
0.00155814
-0.0034371
0.00171742
-0.00370572
0.00186201
-0.00393661
0.001992
-0.0041334
0.00210859
-0.00430129
0.00221371
-0.00444604
0.00230955
-0.00457326
0.00239832
-0.00468795
0.00248197
-0.00479426
0.00256215
-0.00489542
0.00264015
-0.00499384
0.00271693
-0.00509122
0.00279318
-0.00518873
0.00286937
-0.0052871
-0.0053868
2.69959e-06
6.61087e-05
1.6416e-05
7.87804e-05
4.55218e-05
8.33547e-07
9.40352e-05
-0.000156854
0.000165278
-0.000383969
0.00026151
-0.000672384
0.000383271
-0.00101228
0.000528813
-0.00139108
0.000693926
-0.00179315
0.000872346
-0.00220107
0.00105669
-0.00259785
0.00123965
-0.00296919
0.001415
-0.00330508
0.00157833
-0.00360043
0.00172719
-0.00385458
0.00186097
-0.00407039
0.00198047
-0.00425291
0.00208746
-0.00440828
0.00218412
-0.00454271
0.00227277
-0.00466191
0.00235553
-0.00477071
0.00243421
-0.00487294
0.00251025
-0.00497146
0.00258474
-0.00506833
0.00265847
-0.00516495
0.00273198
-0.00526223
0.00280562
-0.00536074
0.00287963
-0.0054608
-0.00556262
3.16778e-06
6.29409e-05
1.84445e-05
6.35037e-05
5.03666e-05
-3.10886e-05
0.00010305
-0.000209537
0.000179739
-0.000460658
0.000282335
-0.00077498
0.000410666
-0.00114061
0.000561978
-0.00154239
0.00073096
-0.00196213
0.000910443
-0.00238056
0.00109259
-0.00278
0.00127019
-0.00314678
0.00143758
-0.00347248
0.00159122
-0.00375406
0.00172958
-0.00399295
0.0018529
-0.00419371
0.00196262
-0.00436263
0.00206087
-0.00450653
0.00215003
-0.00463186
0.00223238
-0.00474426
0.00230992
-0.00484825
0.00238427
-0.00494729
0.00245667
-0.00504386
0.00252803
-0.00513969
0.00259896
-0.00523589
0.00266989
-0.00533316
0.00274108
-0.00543193
0.0028127
-0.00553243
0.00288487
-0.00563479
-0.00573908
3.6807e-06
5.92602e-05
2.06276e-05
4.65568e-05
5.55229e-05
-6.59838e-05
0.000112541
-0.000266556
0.000194776
-0.000542893
0.000303656
-0.00088386
0.000438168
-0.00127513
0.000594465
-0.00169869
0.000766148
-0.00213381
0.000945287
-0.0025597
0.00112382
-0.00295854
0.00129487
-0.00331783
0.00145353
-0.00363115
0.00159718
-0.00389771
0.00172522
-0.00412099
0.00183861
-0.00430711
0.00193931
-0.00446333
0.00202971
-0.00459692
0.00211224
-0.00471439
0.00218908
-0.0048211
0.00226207
-0.00492124
0.00233262
-0.00501784
0.00240178
-0.00511302
0.00247027
-0.00520818
0.00253858
-0.0053042
0.00260704
-0.00540161
0.00267583
-0.00550072
0.0027451
-0.00560169
0.00281492
-0.00570461
-0.00580951
4.2387e-06
5.50215e-05
2.29644e-05
2.78311e-05
6.09822e-05
-0.000104002
0.000122479
-0.000328052
0.000210311
-0.000630725
0.00032531
-0.000998859
0.000465504
-0.00141532
0.00062589
-0.00185908
0.000799048
-0.00230697
0.000976469
-0.00273712
0.00115012
-0.00313219
0.00131365
-0.00348136
0.00146307
-0.00378056
0.00159668
-0.00403132
0.00171475
-0.00423906
0.00181888
-0.00441123
0.00191137
-0.00455583
0.00199476
-0.00468032
0.00207145
-0.00479107
0.00214347
-0.00489313
0.00221245
-0.00499022
0.00227962
-0.005085
0.00234582
-0.00517922
0.00241164
-0.005274
0.00247745
-0.00537002
0.00254351
-0.00546767
0.00260995
-0.00556717
0.00267687
-0.00566862
0.00274435
-0.00577208
0.00281241
-0.00587757
-0.0059851
4.84189e-06
5.01796e-05
2.54528e-05
7.22022e-06
6.67327e-05
-0.000145282
0.000132824
-0.000394143
0.00022625
-0.000724152
0.00034712
-0.00111973
0.000492388
-0.00156059
0.000655878
-0.00202257
0.000829259
-0.00248035
0.00100367
-0.00291152
0.00117132
-0.00329984
0.00132662
-0.00363666
0.00146651
-0.00392045
0.00159025
-0.00415506
0.00169886
-0.00434767
0.00179443
-0.0045068
0.00187952
-0.00464091
0.0019567
-0.00475749
0.00202824
-0.00486261
0.00209601
-0.0049609
0.00216144
-0.00505565
0.00222553
-0.0051491
0.00228899
-0.00524268
0.00235228
-0.00533728
0.00241567
-0.00543342
0.00247937
-0.00553136
0.00254347
-0.00563127
0.00260805
-0.0057332
0.00267317
-0.0058372
0.00273886
-0.00594326
0.00280515
-0.0060514
-0.00616161
5.49012e-06
4.46895e-05
2.80892e-05
-1.53789e-05
7.27587e-05
-0.000189951
0.00014353
-0.000464915
0.00024249
-0.000823111
0.000368891
-0.00124613
0.000518528
-0.00171022
0.000684072
-0.00218811
0.000856439
-0.00265272
0.00102664
-0.00308173
0.00118739
-0.00346059
0.00133396
-0.00378323
0.00146428
-0.00405076
0.00157848
-0.00426926
0.00167822
-0.00444741
0.00176598
-0.00459455
0.00184443
-0.00471936
0.00191609
-0.00482916
0.00198309
-0.00492962
0.00204709
-0.0050249
0.0021093
-0.00511786
0.00217056
-0.00521036
0.00223144
-0.00530356
0.00229228
-0.00539813
0.00235332
-0.00549445
0.00241467
-0.00559272
0.00247644
-0.00569303
0.00253867
-0.00579544
0.00260142
-0.00589994
0.00266471
-0.00600655
0.00272859
-0.00611527
0.00279308
-0.00622611
-0.00633905
6.18298e-06
3.85065e-05
3.08688e-05
-4.00647e-05
7.90406e-05
-0.000238123
0.000154545
-0.000540419
0.000258912
-0.000927479
0.000390419
-0.00137764
0.000543632
-0.00186344
0.000710142
-0.00235462
0.000880307
-0.00282288
0.00104526
-0.00324668
0.0011984
-0.00361373
0.00133595
-0.00392079
0.00145682
-0.00417163
0.00156193
-0.00437438
0.00165346
-0.00453895
0.00173413
-0.00467522
0.00180665
-0.00479189
0.00187343
-0.00489593
0.00193639
-0.00499258
0.00199699
-0.0050855
0.00205626
-0.00517712
0.00211487
-0.00526897
0.00217327
-0.00536196
0.00223173
-0.00545659
0.00229043
-0.00555314
0.00234946
-0.00565175
0.00240889
-0.00575246
0.00246876
-0.00585531
0.00252913
-0.0059603
0.00259001
-0.00606744
0.00265144
-0.00617671
0.00271347
-0.00628813
0.00277611
-0.0064017
0.00283942
-0.00651742
-0.0066353
6.91983e-06
3.15867e-05
3.37854e-05
-6.69302e-05
8.55553e-05
-0.000289893
0.000165806
-0.000620669
0.00027539
-0.00103706
0.000411489
-0.00151374
0.000567419
-0.00201937
0.0007338
-0.002521
0.000900655
-0.00298974
0.00105948
-0.00340551
0.00120449
-0.00375874
0.00133293
-0.00404923
0.00144463
-0.00428333
0.00154119
-0.00447093
0.00162518
-0.00462294
0.00169945
-0.0047495
0.00176668
-0.00485912
0.00182911
-0.00495835
0.00188845
-0.00505192
0.00194595
-0.00514301
0.00200247
-0.00523364
0.00205856
-0.00532506
0.00211456
-0.00541796
0.00217068
-0.00551271
0.00222705
-0.00560951
0.00228375
-0.00570845
0.00234084
-0.00580955
0.00239834
-0.00591282
0.00245631
-0.00601827
0.00251476
-0.00612589
0.00257374
-0.00623569
0.00263327
-0.00634766
0.0026934
-0.00646182
0.00275416
-0.00657818
0.00281559
-0.00669673
-0.0068175
7.69979e-06
2.38869e-05
3.68313e-05
-9.60617e-05
9.22755e-05
-0.000345337
0.000177244
-0.000705638
0.000291786
-0.00115161
0.000431888
-0.00165384
0.000589624
-0.00217711
0.000754802
-0.00268618
0.000917345
-0.00315228
0.00106931
-0.00355747
0.00120587
-0.0038953
0.00132528
-0.00416863
0.00142819
-0.00438624
0.00151678
-0.00455952
0.0015939
-0.00470005
0.00166243
-0.00481803
0.00172493
-0.00492162
0.00178345
-0.00501687
0.0018395
-0.00510797
0.00189415
-0.00519765
0.00194808
-0.00528757
0.00200173
-0.00537871
0.00205538
-0.0054716
0.00210918
-0.00556651
0.00216323
-0.00566357
0.0022176
-0.00576282
0.00227233
-0.00586427
0.00232745
-0.00596794
0.002383
-0.00607382
0.002439
-0.0061819
0.0024955
-0.00629218
0.00255253
-0.00640469
0.00261011
-0.00651941
0.00266829
-0.00663636
0.00272711
-0.00675555
0.00278659
-0.00687698
-0.00700055
8.52166e-06
1.53653e-05
3.99975e-05
-0.000127537
9.91702e-05
-0.00040451
0.000188783
-0.000795251
0.000307957
-0.00127078
0.000451402
-0.00179728
0.000610007
-0.00233571
0.000772956
-0.00284913
0.000930312
-0.00330964
0.00107488
-0.00370204
0.00120283
-0.00402326
0.00131341
-0.00427921
0.001408
-0.00448083
0.00148923
-0.00464075
0.0015601
-0.00477092
0.00162347
-0.0048814
0.00168173
-0.00497988
0.00173672
-0.00507186
0.00178975
-0.00516101
0.00184171
-0.00524961
0.00189316
-0.00533902
0.00194444
-0.00543
0.00199577
-0.00552293
0.00204726
-0.005618
0.00209899
-0.0057153
0.00215101
-0.00581484
0.00220337
-0.00591663
0.0022561
-0.00602067
0.00230921
-0.00612694
0.00236276
-0.00623544
0.00241676
-0.00634619
0.00247126
-0.00645918
0.00252628
-0.00657443
0.00258186
-0.00669195
0.00263804
-0.00681172
0.00269484
-0.00693378
0.00275231
-0.00705803
-0.00718475
9.38399e-06
5.98127e-06
4.32734e-05
-0.000161427
0.000106205
-0.000467441
0.000200342
-0.000889388
0.000323754
-0.00139419
0.000469828
-0.00194336
0.000628359
-0.00249424
0.000788124
-0.00300889
0.000939553
-0.00346107
0.00107633
-0.00383881
0.00119568
-0.00414261
0.00129773
-0.00438126
0.00138451
-0.00456762
0.00145898
-0.00471521
0.0015242
-0.00483614
0.00158292
-0.00494012
0.00163735
-0.00503431
0.00168912
-0.00512363
0.00173935
-0.00521123
0.00178875
-0.00529902
0.0018378
-0.00538806
0.00188675
-0.00547895
0.00193576
-0.00557195
0.00198495
-0.00566719
0.00203435
-0.00576471
0.00208403
-0.00586452
0.00213401
-0.00596661
0.00218432
-0.00607098
0.00223499
-0.00617761
0.00228605
-0.00628651
0.00233754
-0.00639768
0.00238949
-0.00651112
0.00244192
-0.00662686
0.00249488
-0.0067449
0.00254839
-0.00686524
0.00260248
-0.00698787
0.0026572
-0.00711274
0.00271251
-0.00724006
0.00276866
-0.00736877
-0.0075039
1.0285e-05
-4.30371e-06
4.66468e-05
-0.000197789
0.00011334
-0.000534135
0.000211834
-0.000987882
0.00033903
-0.00152139
0.000486974
-0.0020913
0.000644505
-0.00265177
0.000800224
-0.00316461
0.000945126
-0.00360597
0.00107388
-0.00396757
0.00118474
-0.00425346
0.00127865
-0.00447518
0.00135817
-0.00464714