/*--------------------------------*- C++ -*----------------------------------*\
  =========                 |
  \\      /  F ield         | OpenFOAM: The Open Source CFD Toolbox
   \\    /   O peration     | Website:  https://openfoam.org
    \\  /    A nd           | Version:  7
     \\/     M anipulation  |
\*---------------------------------------------------------------------------*/
FoamFile
{
    version     2.0;
    format      ascii;
    class       volVectorField;
    location    "15";
    object      U;
}
// * * * * * * * * * * * * * * * * * * * * * * * * * * * * * * * * * * * * * //

dimensions      [0 1 -1 0 0 0 0];

internalField   nonuniform List<vector> 
24200
(
(-0.00126239 0.000666321 2.79285e-21)
(-0.00815459 0.00148007 5.8369e-21)
(-0.019931 0.00196757 1.23144e-22)
(-0.0328563 0.00224455 4.85628e-21)
(-0.0465741 0.00238112 -1.36267e-22)
(-0.0601654 0.00242946 -4.33368e-22)
(-0.0733645 0.00242353 -3.96888e-21)
(-0.0859705 0.00238679 -3.81841e-22)
(-0.0979278 0.00233445 9.79584e-22)
(-0.109234 0.00227627 -2.54862e-21)
(-0.119924 0.0022182 1.01008e-21)
(-0.130048 0.00216371 -1.44313e-21)
(-0.139664 0.00211467 -2.37599e-21)
(-0.148828 0.00207196 -4.46302e-21)
(-0.00130788 0.00199461 -1.1244e-20)
(-0.00823302 0.0044321 -1.15396e-20)
(-0.0199974 0.00589318 3.52115e-21)
(-0.032889 0.00672352 -6.33029e-21)
(-0.0465559 0.00713316 -3.74085e-21)
(-0.0600851 0.0072782 -1.39406e-21)
(-0.0732128 0.00726049 9.25013e-21)
(-0.0857392 0.00715024 -5.48848e-21)
(-0.0976089 0.0069931 -4.67536e-21)
(-0.10882 0.00681829 2.97316e-21)
(-0.119405 0.00664368 6.77209e-21)
(-0.129416 0.00647968 1.26894e-20)
(-0.138907 0.00633187 1.03874e-21)
(-0.147936 0.00620291 1.26489e-20)
(-0.00139836 0.00331038 2.28056e-20)
(-0.00838919 0.00735994 2.04265e-20)
(-0.0201299 0.00978941 -1.00717e-20)
(-0.0329541 0.0111709 2.0679e-20)
(-0.0465198 0.0118528 1.38892e-21)
(-0.0599252 0.0120944 -3.84058e-21)
(-0.0729103 0.0120647 -1.28981e-20)
(-0.0852778 0.0118806 -8.89754e-22)
(-0.096973 0.011618 8.61986e-21)
(-0.107993 0.0113255 -1.27069e-21)
(-0.11837 0.0110328 -1.3572e-20)
(-0.128154 0.0107574 -4.47297e-21)
(-0.137398 0.0105085 -4.19185e-21)
(-0.146156 0.0102905 -1.81925e-20)
(-0.00153289 0.00460586 -2.38942e-20)
(-0.00862178 0.0102481 -7.37263e-22)
(-0.0203274 0.0136372 2.07976e-20)
(-0.0330515 0.0155659 -8.62716e-21)
(-0.0464663 0.0165189 -1.37379e-21)
(-0.0596867 0.0168565 1.53729e-20)
(-0.0724588 0.0168146 1.60589e-20)
(-0.0845889 0.016556 -2.92693e-21)
(-0.0960231 0.0161868 -9.67604e-21)
(-0.106758 0.0157748 -8.16752e-21)
(-0.116824 0.0153617 1.71671e-21)
(-0.126269 0.0149718 -1.73839e-20)
(-0.135144 0.0146179 3.13624e-20)
(-0.143501 0.0143064 2.05703e-20)
(-0.00171009 0.00587348 1.05981e-20)
(-0.00892887 0.0130814 -3.06325e-20)
(-0.0205888 0.0174177 -1.61637e-20)
(-0.0331808 0.0198883 -1.12713e-20)
(-0.046396 0.0211103 4.93373e-21)
(-0.0593712 0.0215432 2.214e-20)
(-0.0718609 0.0214886 -2.31195e-20)
(-0.0836762 0.0211548 5.51388e-21)
(-0.0947642 0.0206774 1.00766e-20)
(-0.105121 0.0201436 -7.38086e-21)
(-0.114775 0.0196067 9.13929e-21)
(-0.123772 0.019098 8.35504e-21)
(-0.132159 0.018634 -2.1499e-20)
(-0.139983 0.0182227 -1.64798e-20)
(-0.00192818 0.00710602 -1.0455e-22)
(-0.00930793 0.0158453 1.23979e-20)
(-0.0209125 0.0211129 1.32085e-20)
(-0.0333415 0.0241181 -8.18089e-21)
(-0.0463096 0.0256063 -1.58937e-20)
(-0.058981 0.0261337 -4.91392e-20)
(-0.07112 0.0260657 -7.69558e-21)
(-0.0825442 0.0256554 -1.02305e-21)
(-0.0932022 0.0250679 -4.94929e-21)
(-0.103089 0.0244093 3.59284e-20)
(-0.112233 0.0237446 7.69371e-21)
(-0.120673 0.0231118 -4.70276e-21)
(-0.128455 0.0225313 -2.2729e-20)
(-0.135623 0.0220127 4.4478e-21)
(-0.142215 0.021559 -1.44313e-20)
(-0.00218503 0.00829672 2.04475e-20)
(-0.00975592 0.018526 7.93536e-21)
(-0.0212963 0.0247053 -1.1643e-20)
(-0.033533 0.028236 2.30742e-20)
(-0.0462082 0.0299869 1.21179e-20)
(-0.0585184 0.0306071 -9.98194e-21)
(-0.0702401 0.0305248 4.83053e-20)
(-0.0811985 0.0300368 2.5847e-20)
(-0.0913444 0.0293369 1.02506e-21)
(-0.100673 0.0285499 -2.12702e-20)
(-0.109208 0.0277526 -1.38132e-20)
(-0.116988 0.0269897 1.28295e-20)
(-0.124053 0.0262852 -2.12077e-20)
(-0.130441 0.0256506 3.005e-20)
(-0.136188 0.0250891 -1.41763e-20)
(-0.00247817 0.00943933 1.72446e-20)
(-0.0102693 0.0211104 -4.68418e-21)
(-0.0217378 0.0281782 3.94727e-20)
(-0.0337545 0.0322235 -4.5106e-20)
(-0.0460927 0.0342323 1.88053e-20)
(-0.0579861 0.0349435 1.92912e-20)
(-0.0692255 0.0348457 7.85618e-21)
(-0.0796452 0.0342782 -4.80604e-20)
(-0.0891987 0.0334632 1.6836e-20)
(-0.0978806 0.032544 -2.04647e-20)
(-0.105714 0.0316088 1.68911e-20)
(-0.112731 0.0307089 1.17328e-20)
(-0.118969 0.0298723 2.73443e-20)
(-0.124461 0.0291119 -4.95567e-20)
(-0.129238 0.0284314 2.3616e-20)
(-0.00280486 0.0105282 -7.35718e-20)
(-0.0108441 0.0235865 1.70906e-20)
(-0.0222343 0.031516 -2.46011e-20)
(-0.0340049 0.0360627 4.85276e-20)
(-0.045964 0.0383237 -3.10218e-20)
(-0.0573868 0.0391232 3.85626e-21)
(-0.0680809 0.0390082 -2.7143e-20)
(-0.0778907 0.0383593 7.31122e-21)
(-0.0867735 0.0374264 3.14599e-21)
(-0.094724 0.0363707 7.07917e-20)
(-0.101763 0.0352918 1.52e-20)
(-0.107919 0.0342479 -7.08557e-22)
(-0.113225 0.0332703 1.18038e-20)
(-0.117708 0.0323737 -3.05457e-20)
(-0.121395 0.0315624 -2.17708e-20)
(-0.00316216 0.0115584 4.21417e-20)
(-0.0114759 0.0259435 -4.32172e-20)
(-0.0227827 0.0347042 6.64229e-21)
(-0.0342829 0.0397369 -4.88049e-20)
(-0.0458228 0.042243 1.30368e-22)
(-0.0567235 0.0431273 1.5062e-20)
(-0.0668109 0.0429929 -9.14458e-21)
(-0.0759416 0.0422604 -1.72249e-20)
(-0.0840773 0.0412064 -8.88206e-21)
(-0.0912134 0.0400098 4.47382e-21)
(-0.0973681 0.0387813 -4.86728e-21)
(-0.102568 0.0375857 -7.04145e-20)
(-0.106839 0.0364581 4.51885e-20)
(-0.110205 0.0354147 -2.80005e-21)
(-0.112686 0.0344605 -7.01558e-21)
(-0.00354692 0.0125257 -2.61028e-20)
(-0.0121601 0.0281717 -4.1742e-20)
(-0.0233795 0.0377294 -3.46829e-20)
(-0.0345869 0.0432303 3.44713e-20)
(-0.0456697 0.0459728 -3.20903e-20)
(-0.0559985 0.0469375 6.63851e-21)
(-0.06542 0.0467812 -3.49323e-23)
(-0.0738042 0.0459624 2.40039e-20)
(-0.0811184 0.0447839 2.35623e-20)
(-0.0873589 0.0434418 -2.35499e-20)
(-0.0925424 0.0420576 -2.97355e-20)
(-0.0966914 0.0407028 2.19925e-20)
(-0.0998286 0.0394161 -1.96734e-20)
(-0.101973 0.0382155 1.76187e-22)
(-0.103138 0.0371062 6.75701e-20)
(-0.00395592 0.0134267 3.20714e-20)
(-0.0128918 0.0302625 3.60299e-20)
(-0.0240209 0.0405795 6.92422e-22)
(-0.0349151 0.0465283 -4.70745e-20)
(-0.0455047 0.0494969 6.01347e-20)
(-0.055214 0.0505366 2.99688e-20)
(-0.063912 0.0503548 7.71511e-20)
(-0.0714841 0.0494468 6.85317e-20)
(-0.0779038 0.0481402 -5.78122e-20)
(-0.0831692 0.046648 5.98502e-22)
(-0.0872958 0.0451022 -1.30362e-20)
(-0.090303 0.0435809 3.99467e-20)
(-0.0922089 0.0421263 5.03997e-21)
(-0.0930277 0.0407583 -7.91383e-21)
(-0.0927681 0.0394826 1.25361e-20)
(-0.00438587 0.0142585 -2.66419e-21)
(-0.0136658 0.0322089 4.26359e-20)
(-0.024703 0.0432438 5.2173e-20)
(-0.035265 0.0496176 4.57498e-20)
(-0.0453276 0.0528001 -7.69349e-20)
(-0.0543714 0.0539079 -7.58705e-20)
(-0.0622902 0.0536966 -1.01339e-20)
(-0.0689858 0.052696 -7.59386e-20)
(-0.0744393 0.0512577 1.00918e-20)
(-0.0786514 0.0496108 -8.44141e-20)
(-0.0816365 0.0478977 6.65268e-20)
(-0.083411 0.0462029 2.54036e-22)
(-0.0839894 0.0445723 1.8845e-20)
(-0.0833809 0.0430276 -2.27791e-20)
(-0.0815893 0.0415752 -4.96898e-20)
(-0.0048335 0.0150194 2.85961e-20)
(-0.0144769 0.034005 -7.64341e-20)
(-0.0254214 0.0457131 -1.79283e-20)
(-0.0356338 0.0524861 4.27416e-20)
(-0.0451372 0.0558681 7.8108e-20)
(-0.0534713 0.0570361 1.65834e-20)
(-0.0605563 0.0567902 -8.92464e-20)
(-0.0663123 0.0556931 6.2558e-21)
(-0.0707287 0.0541193 2.00373e-21)
(-0.0738095 0.0523133 7.26629e-20)
(-0.0755686 0.0504278 -7.71344e-20)
(-0.0760198 0.0485532 -3.19474e-20)
(-0.0751736 0.0467395 -1.96638e-20)
(-0.0730349 0.04501 3.1027e-20)
(-0.0696028 0.0433721 3.05935e-20)
(-0.00529562 0.0157082 -6.43891e-20)
(-0.0153198 0.0356464 -5.31865e-21)
(-0.0261715 0.0479795 4.30283e-20)
(-0.0360181 0.055123 1.32081e-20)
(-0.0449316 0.0586881 7.8643e-21)
(-0.052513 0.0599065 -2.6684e-20)
(-0.0587106 0.0596202 7.68323e-20)
(-0.0634643 0.0584224 -6.59886e-21)
(-0.0667729 0.0567092 -7.49287e-22)
(-0.0686441 0.0547401 -5.38546e-20)
(-0.0690917 0.0526774 7.13941e-20)
(-0.0681273 0.0506179 7.36916e-20)
(-0.0657575 0.0486151 -3.41096e-20)
(-0.0619827 0.0466945 -9.24412e-20)
(-0.0567971 0.0448644 -3.09966e-20)
(-0.00576916 0.0163247 -3.12147e-20)
(-0.0161893 0.0371301 4.6296e-20)
(-0.0269482 0.0500366 -4.00242e-20)
(-0.0364139 0.0575192 -2.70285e-20)
(-0.0447079 0.0612486 2.817e-21)
(-0.0514943 0.0625061 9.89516e-20)
(-0.0567515 0.0621723 -2.07438e-20)
(-0.0604401 0.060869 2.28997e-20)
(-0.0625693 0.0590127 -4.79571e-21)
(-0.0631511 0.0568769 6.35796e-20)
(-0.0621997 0.0546332 5.01605e-20)
(-0.0597241 0.0523847 -9.69486e-20)
(-0.0557272 0.0501886 1.01945e-19)
(-0.0502048 0.0480726 3.68363e-20)
(-0.0431462 0.0460462 1.06125e-19)
(-0.0345349 0.0441075 2.89688e-20)
(-0.00625121 0.0168692 -1.04841e-20)
(-0.01708 0.0384543 7.1403e-20)
(-0.0277464 0.0518795 2.72527e-20)
(-0.0368164 0.0596667 -7.42957e-20)
(-0.0444617 0.0635391 -6.55378e-20)
(-0.0504113 0.0648228 -1.02371e-19)
(-0.0546747 0.0644334 -5.5799e-20)
(-0.0572346 0.0630194 7.34839e-20)
(-0.058111 0.0610162 6.88458e-21)
(-0.0573211 0.0587106 -4.98348e-20)
(-0.054879 0.0562834 -1.04492e-19)
(-0.0507917 0.0538434 -1.37474e-20)
(-0.0450576 0.0514518 -5.16563e-20)
(-0.0376679 0.0491387 5.35298e-20)
(-0.0286064 0.0469152 -9.21016e-20)
(-0.0178512 0.0447803 6.5387e-20)
(-0.0067391 0.0173429 6.05949e-20)
(-0.0179867 0.0396185 -2.62369e-20)
(-0.0285604 0.053505 -1.08282e-19)
(-0.0372198 0.0615592 -1.03242e-21)
(-0.0441874 0.065551 5.89688e-20)
(-0.0492578 0.0668459 4.0219e-20)
(-0.052473 0.0663919 2.38153e-20)
(-0.0538386 0.0648615 -4.24493e-20)
(-0.0533862 0.0627079 4.59059e-20)
(-0.0511378 0.0602303 -8.88286e-20)
(-0.047108 0.057618 -1.16964e-20)
(-0.0413009 0.054986 8.91454e-20)
(-0.0337105 0.0523992 1.84939e-20)
(-0.0243223 0.0498907 2.19016e-20)
(-0.0131144 0.0474731 2.67304e-20)
(-5.88996e-05 0.045147 -8.64912e-20)
(-0.00723042 0.0177476 -1.13754e-21)
(-0.0189044 0.0406235 1.14546e-20)
(-0.0293842 0.0549108 1.21135e-19)
(-0.0376174 0.0631918 6.12763e-20)
(-0.0438774 0.067277 -2.24631e-20)
(-0.0480251 0.0685665 -2.64981e-20)
(-0.0501357 0.0680376 -8.11665e-20)
(-0.0502384 0.0663848 -2.7613e-21)
(-0.0483767 0.0640775 -3.1158e-20)
(-0.0445774 0.0614265 1.24535e-19)
(-0.0388551 0.0586295 3.86158e-20)
(-0.0312105 0.0558071 -1.13276e-19)
(-0.0216326 0.0530287 -2.58975e-20)
(-0.0101005 0.05033 -2.13831e-20)
(0.00341444 0.0477262 -1.65938e-20)
(0.0189464 0.0452195 -2.03615e-20)
(-0.00772301 0.0180857 -8.00916e-20)
(-0.019828 0.0414712 -1.15872e-20)
(-0.0302112 0.0560965 -2.02371e-20)
(-0.0380012 0.0645612 -1.49697e-20)
(-0.0435222 0.0687111 -5.5258e-20)
(-0.0467014 0.069977 1.54421e-19)
(-0.047648 0.069362 1.69117e-19)
(-0.0464149 0.0675805 -4.45995e-20)
(-0.0430574 0.0651167 -1.20118e-19)
(-0.0376071 0.0622923 -4.40306e-20)
(-0.0300776 0.0593128 2.29815e-20)
(-0.0204657 0.0563047 -7.33585e-20)
(-0.00875413 0.0533416 -7.03304e-21)
(0.00508508 0.0504628 -8.61839e-20)
(0.0210879 0.0476861 8.84896e-20)
(0.0392954 0.0450162 1.08886e-20)
(-0.00821503 0.0183599 1.42794e-19)
(-0.0207527 0.0421643 5.75897e-20)
(-0.0310344 0.0570628 -3.7452e-20)
(-0.0383619 0.0656655 -1.24184e-20)
(-0.0431099 0.0698494 1.31674e-19)
(-0.0452716 0.0710715 -4.69418e-20)
(-0.0449904 0.0703584 -8.03746e-21)
(-0.0423428 0.0684419 8.18421e-20)
(-0.0373955 0.0658197 1.07601e-19)
(-0.030184 0.0628233 -2.29652e-20)
(-0.0207205 0.0596661 -5.39769e-20)
(-0.00899631 0.0564803 8.87119e-20)
(0.00501275 0.053344 3.69827e-20)
(0.0213428 0.0503004 1.60934e-19)
(0.0400375 0.0473707 -6.63524e-21)
(0.0611448 0.0445625 4.16819e-20)
(-0.00870495 0.0185737 3.74164e-20)
(-0.0216736 0.0427067 -7.2269e-20)
(-0.031846 0.0578116 1.49721e-19)
(-0.0386887 0.0665042 7.77454e-20)
(-0.0426261 0.0706892 -1.63304e-20)
(-0.0437168 0.0718463 -5.58215e-20)
(-0.0421381 0.0710222 -9.2167e-20)
(-0.0379897 0.0689645 -7.19082e-20)
(-0.0313491 0.0661829 -7.66338e-20)
(-0.0222544 0.0630183 8.24754e-20)
(-0.010715 0.0596912 -9.54765e-21)
(0.00328399 0.0563396 1.15614e-19)
(0.019775 0.0530467 -4.20275e-20)
(0.0388027 0.0498602 -4.91204e-20)
(0.0604186 0.046805 1.12324e-20)
(0.0846761 0.0438926 6.05154e-20)
(0.111626 0.0411262 3.33573e-20)
(-0.00919152 0.0187305 -1.58288e-19)
(-0.0225859 0.0431029 -3.46616e-20)
(-0.0326377 0.058346 -1.79614e-19)
(-0.0389689 0.0670785 -3.07446e-21)
(-0.0420534 0.0712299 -6.07449e-20)
(-0.0420137 0.0722992 -1.40232e-20)
(-0.0390605 0.071351 7.53223e-20)
(-0.0333158 0.0691466 -1.23838e-19)
(-0.0248663 0.0662062 -5.38393e-21)
(-0.0137519 0.0628795 7.13769e-20)
(2.2398e-05 0.0593939 6.89637e-20)
(0.016479 0.0558935 -9.65833e-20)
(0.0356593 0.052467 2.86841e-21)
(0.0576165 0.0491668 -6.52204e-20)
(0.0824088 0.0460226 5.65045e-21)
(0.110092 0.04305 -9.18399e-20)
(0.140715 0.0402563 -2.89614e-20)
(-0.00967377 0.0188342 1.55347e-19)
(-0.0234848 0.0433581 6.7085e-20)
(-0.0334 0.05867 3.49278e-20)
(-0.0391879 0.0673908 7.85483e-20)
(-0.041371 0.0714724 -6.77472e-21)
(-0.0401342 0.0724304 1.17955e-19)
(-0.0357204 0.0713451 -8.07118e-20)
(-0.0282724 0.0689892 1.02189e-19)
(-0.0178849 0.0658928 -1.34658e-20)
(-0.00459745 0.0624133 -1.54134e-19)
(0.0115906 0.0587852 9.50513e-21)
(0.0307103 0.0551589 -7.18331e-20)
(0.052812 0.0516288 -2.73295e-20)
(0.0779564 0.048253 -1.7651e-21)
(0.106205 0.0450662 -4.83457e-20)
(0.137612 0.042089 7.75098e-20)
(0.172214 0.0393325 4.53347e-20)
(-0.010151 0.0188889 -3.91143e-20)
(-0.0243653 0.0434777 -1.87567e-19)
(-0.0341225 0.0587888 -1.78906e-19)
(-0.039329 0.0674448 -1.14567e-19)
(-0.0405548 0.0714194 2.38203e-20)
(-0.0380451 0.0722423 -2.46548e-19)
(-0.0320736 0.0710071 1.39345e-19)
(-0.0228021 0.0684967 3.19651e-20)
(-0.010331 0.0652497 5.23118e-20)
(0.00530206 0.0616309 7.31429e-20)
(0.0241048 0.0578817 2.03231e-20)
(0.0461171 0.0541591 7.05518e-20)
(0.0713978 0.0505641 7.29668e-20)
(0.100012 0.0471605 -2.86169e-20)
(0.13202 0.043989 3.49519e-20)
(0.167463 0.0410748 -4.77563e-20)
(0.206357 0.0384332 -7.20018e-20)
(-0.0106226 0.0188983 -6.52591e-20)
(-0.0252221 0.0434678 -2.93042e-20)
(-0.0347938 0.058708 2.36248e-19)
(-0.0393731 0.0672456 -1.81564e-19)
(-0.0395767 0.0710756 9.3933e-20)
(-0.0357077 0.0717396 1.10028e-19)
(-0.0280685 0.070343 -8.26826e-20)
(-0.0168375 0.0676771 -3.03242e-20)
(-0.00211884 0.0642884 1.33812e-19)
(0.0160537 0.0605486 -3.22429e-20)
(0.0376958 0.0567062 -5.10671e-20)
(0.0628558 0.0529253 -7.15498e-20)
(0.0915981 0.0493134 -7.16247e-20)
(0.123987 0.0459412 1.65653e-20)
(0.160071 0.0428548 -6.62968e-20)
(0.19987 0.0400844 4.06502e-20)
(0.243355 0.037648 6.91525e-20)
(0.29044 0.0355544 -5.1378e-20)
(-0.0110883 0.0188666 1.66066e-19)
(-0.0260499 0.0433344 6.8631e-21)
(-0.0354009 0.0584342 -2.21897e-19)
(-0.0392981 0.0667994 1.94557e-19)
(-0.0384043 0.0704473 -2.99243e-19)
(-0.033077 0.0709294 1.13935e-19)
(-0.0236453 0.0693616 2.6835e-20)
(-0.0103012 0.0665425 -1.68746e-20)
(0.00684954 0.0630252 -1.91624e-19)
(0.0277786 0.0591888 5.54976e-20)
(0.0525096 0.0552888 -4.57625e-20)
(0.0810972 0.0514965 4.99908e-20)
(0.113606 0.0479269 -4.34479e-20)
(0.150091 0.0446571 3.2475e-20)
(0.190577 0.0417388 1.94615e-21)
(0.235039 0.0392056 -4.02496e-20)
(0.283386 0.0370768 -1.49717e-20)
(0.335443 0.0353589 3.93633e-20)
(-0.0115477 0.0187973 -1.47459e-19)
(-0.0268424 0.0430837 2.88676e-19)
(-0.0359295 0.0579743 2.58382e-19)
(-0.0390797 0.0661137 4.02145e-20)
(-0.0370009 0.0695428 1.5859e-19)
(-0.0301022 0.0698216 -2.19673e-19)
(-0.0187361 0.0680754 7.47477e-20)
(-0.0031057 0.0651089 1.16159e-19)
(0.0166842 0.061482 1.75359e-19)
(0.0406112 0.0575804 1.3748e-20)
(0.0687056 0.053667 5.17034e-20)
(0.101024 0.0499211 9.23975e-21)
(0.137623 0.0464647 8.64455e-20)
(0.178534 0.0433812 7.95024e-20)
(0.223738 0.0407266 -1.63149e-20)
(0.273144 0.0385359 9.86466e-20)
(0.326566 0.0368265 -1.42504e-20)
(0.383707 0.0355983 -4.42133e-20)
(-0.0120005 0.0186939 -1.26017e-20)
(-0.0275931 0.0427213 -4.45145e-20)
(-0.0363634 0.0573359 -7.16701e-20)
(-0.03869 0.0651972 -1.32309e-19)
(-0.035325 0.068372 1.35637e-19)
(-0.0267257 0.0684284 1.17741e-19)
(-0.0132646 0.0665002 -4.77789e-20)
(0.00484703 0.0633973 -7.19445e-21)
(0.0275068 0.059686 -1.50212e-19)
(0.0546982 0.055759 -6.28959e-20)
(0.0864544 0.0518867 -3.28602e-21)
(0.122826 0.0482562 3.78434e-20)
(0.163849 0.0449965 -7.80474e-20)
(0.209511 0.042196 -3.74813e-20)
(0.259727 0.0399128 3.97274e-20)
(0.314305 0.03818 -5.46756e-20)
(0.372931 0.0370075 5.31032e-20)
(0.435147 0.0363829 -2.33052e-20)
(0.500346 0.0362709 8.01232e-20)
(-0.0124464 0.0185595 -1.58933e-19)
(-0.0282944 0.0422528 -4.49423e-20)
(-0.0366848 0.0565268 -5.50149e-20)
(-0.0380984 0.0640593 1.97725e-20)
(-0.0333306 0.0669468 -1.09055e-19)
(-0.0228834 0.0667652 8.8893e-20)
(-0.0071461 0.0646557 -1.28003e-19)
(0.0136646 0.0614335 -1.56388e-19)
(0.0394497 0.0576709 6.34735e-20)
(0.0701959 0.0537676 -5.8652e-20)
(0.105933 0.0500021 -9.3698e-20)
(0.146694 0.0465686 3.67928e-20)
(0.192475 0.0436019 2.64812e-20)
(0.243196 0.0411934 1.60802e-20)
(0.298669 0.0393994 3.51307e-21)
(0.358569 0.0382455 -2.90931e-20)
(0.42241 0.0377281 -1.15924e-19)
(0.489537 0.0378139 -5.50336e-20)
(0.559129 0.038441 -1.38663e-19)
(-0.0128848 0.0183968 2.14653e-19)
(-0.028938 0.0416837 -8.14636e-20)
(-0.0368736 0.0555549 1.75873e-19)
(-0.0372706 0.0627103 9.68193e-20)
(-0.0309665 0.0652812 -3.37428e-20)
(-0.0185049 0.0648499 -2.09199e-19)
(-0.000288017 0.0625657 1.74328e-19)
(0.0234637 0.0592483 1.65635e-19)
(0.052654 0.0554764 6.35215e-20)
(0.087268 0.0516569 -6.83083e-20)
(0.127322 0.0480757 2.45619e-20)
(0.172813 0.0449335 6.57779e-21)
(0.223671 0.0423687 -4.7217e-20)
(0.279718 0.0404716 -6.71069e-20)
(0.340625 0.0392913 6.98673e-21)
(0.405888 0.0388388 9.214e-20)
(0.474811 0.0390876 -3.94733e-20)
(0.546504 0.0399748 2.61184e-20)
(0.61991 0.0414027 -3.56889e-20)
(-0.0133149 0.0182078 -1.78384e-19)
(-0.0295149 0.0410192 5.36779e-20)
(-0.0369073 0.0544275 -9.31912e-20)
(-0.0361688 0.0611614 4.35682e-20)
(-0.0281768 0.0633904 -4.59822e-20)
(-0.0135131 0.0627034 5.72923e-20)
(0.00740979 0.0602576 -1.15531e-19)
(0.0343689 0.0568776 2.57486e-20)
(0.0672675 0.0531487 7.08527e-20)
(0.106081 0.0494847 2.51088e-19)
(0.150796 0.0461782 -7.13977e-20)
(0.201349 0.0434343 -8.10143e-20)
(0.257576 0.0413913 1.01134e-19)
(0.319155 0.0401328 7.3236e-20)
(0.385573 0.0396928 -4.01978e-20)
(0.456104 0.0400582 -3.80974e-20)
(0.529799 0.0411695 2.28843e-19)
(0.605514 0.0429237 2.42862e-19)
(0.681946 0.0451791 -1.96305e-20)
(0.757705 0.0477636 -2.04664e-20)
(-0.0137355 0.0179945 5.91419e-20)
(-0.0300146 0.0402636 -1.55421e-19)
(-0.0367616 0.0531523 -6.87578e-20)
(-0.0347519 0.0594249 -1.80464e-19)
(-0.0249009 0.0612919 -1.50307e-20)
(-0.00782528 0.0603494 8.14321e-20)
(0.016054 0.0577631 3.4152e-20)
(0.0465107 0.0543629 -3.22804e-20)
(0.0834416 0.0507404 -1.54117e-20)
(0.126799 0.047316 -1.79776e-19)
(0.176519 0.0443874 1.6619e-19)
(0.232447 0.0421604 7.37419e-20)
(0.29428 0.0407679 -1.80083e-19)
(0.36151 0.0402786 8.84739e-20)
(0.433391 0.0407015 8.75537e-20)
(0.50893 0.0419875 -8.6508e-20)
(0.586899 0.0440331 -2.08217e-19)
(0.665886 0.0466856 -2.19308e-19)
(0.744364 0.0497532 1.63705e-19)
(0.820785 0.0530182 -1.45248e-19)
(-0.0141449 0.0177578 2.1521e-19)
(-0.0304249 0.0394198 1.97674e-19)
(-0.0364097 0.0517375 1.40588e-19)
(-0.0329752 0.0575136 -6.5753e-20)
(-0.0210732 0.0590046 -5.04365e-20)
(-0.00135326 0.0578143 6.37247e-21)
(0.0257567 0.0551179 -1.03528e-19)
(0.0600235 0.0517505 -9.27861e-20)
(0.101328 0.0483101 -1.12651e-19)
(0.14958 0.0452224 1.21449e-19)
(0.204635 0.0427871 -3.53262e-20)
(0.266209 0.0412058 1.42554e-20)
(0.333813 0.0405976 -1.6823e-20)
(0.406701 0.041006 -7.76638e-20)
(0.483847 0.0424023 -6.04998e-20)
(0.563953 0.0446893 -3.05204e-20)
(0.645498 0.0477078 8.12851e-20)
(0.726816 0.051248 -1.44832e-20)
(0.8062 0.0550655 -2.15037e-20)
(0.882017 0.0589012 -1.80766e-20)
(-0.0145411 0.0174982 -2.62161e-19)
(-0.0307325 0.0384908 -1.54935e-19)
(-0.0358226 0.0501907 -1.99028e-19)
(-0.0307907 0.0554409 2.9398e-19)
(-0.0166245 0.0565492 1.14579e-20)
(0.00599572 0.0551276 -2.41767e-20)
(0.0366337 0.0523617 2.09596e-19)
(0.075043 0.0490919 4.12449e-20)
(0.121073 0.045922 1.24754e-19)
(0.174566 0.0432808 6.26147e-20)
(0.235259 0.0414654 -6.45225e-20)
(0.302691 0.0406656 1.22642e-20)
(0.376134 0.0409758 4.6708e-20)
(0.45455 0.0424012 5.52467e-21)
(0.536588 0.0448615 -2.07713e-20)
(0.620628 0.0481983 2.71823e-19)
(0.704861 0.0521875 -5.21425e-21)
(0.787408 0.0565583 8.39003e-20)
(0.866455 0.0610169 -2.94103e-20)
(0.940381 0.0652726 -4.49928e-20)
(1.00787 0.0690617 -5.2283e-20)
(-0.0149208 0.0172153 2.64008e-19)
(-0.0309225 0.0374789 1.16145e-19)
(-0.0349685 0.0485196 1.74623e-19)
(-0.0281471 0.053221 -1.51863e-19)
(-0.0114813 0.0539481 1.89648e-20)
(0.0143179 0.0523214 -5.58365e-21)
(0.0488028 0.0495377 -1.21684e-19)
(0.0917027 0.046443 -1.1082e-19)
(0.142814 0.0436454 -1.46192e-19)
(0.201877 0.0415727 -9.15621e-20)
(0.268467 0.0405128 4.25699e-20)
(0.341888 0.0406329 1.26686e-20)
(0.421116 0.0419898 8.69833e-21)
(0.50477 0.0445346 -2.39109e-20)
(0.591147 0.0481208 6.3587e-20)
(0.6783 0.0525169 -1.3427e-19)
(0.764169 0.0574284 -2.16989e-19)
(0.846732 0.0625256 -3.10959e-20)
(0.924166 0.067475 5.85132e-20)
(0.994972 0.0719696 1.33066e-19)
(1.05808 0.0757542 -1.11979e-20)
(-0.0152797 0.0169078 -3.10707e-19)
(-0.0309785 0.0363864 6.20458e-20)
(-0.0338134 0.0467315 -8.75836e-20)
(-0.0249901 0.0508687 1.35716e-19)
(-0.00556737 0.0512252 3.41451e-20)
(0.023712 0.0494303 -4.70643e-20)
(0.0623817 0.0466931 -1.75776e-20)
(0.11013 0.0438642 1.49196e-19)
(0.166673 0.0415533 9.1024e-21)
(0.231606 0.0401819 -5.9707e-20)
(0.304285 0.0400187 9.09331e-21)
(0.383722 0.0411952 -6.80379e-20)
(0.468538 0.0437139 1.1756e-19)
(0.55697 0.0474554 1.04414e-19)
(0.646948 0.0521923 3.57931e-20)
(0.736225 0.0576124 6.88423e-20)
(0.822556 0.0633506 9.36082e-20)
(0.903875 0.069027 7.62876e-20)
(0.978462 0.0742844 -5.91884e-20)
(1.04506 0.0788205 -1.58956e-19)
(1.10292 0.0824091 1.92894e-19)
(1.15181 0.0849108 1.5458e-20)
(-0.0156139 0.0165755 2.68966e-19)
(-0.0308817 0.035214 -1.95326e-19)
(-0.0323208 0.0448335 -1.77995e-20)
(-0.0212628 0.0483994 -2.10399e-20)
(0.00119628 0.048406 1.66885e-19)
(0.0342776 0.0464914 4.06431e-20)
(0.0774852 0.0438778 1.79605e-19)
(0.130444 0.0414188 -4.41099e-20)
(0.192751 0.0397215 3.68567e-20)
(0.263805 0.0391926 1.01071e-19)
(0.342683 0.0400689 -1.0984e-19)
(0.428039 0.0424296 -7.39148e-20)
(0.518088 0.0462043 -2.12855e-20)
(0.610658 0.0511863 -2.92999e-20)
(0.703327 0.0570561 4.09145e-20)
(0.793608 0.0634175 -4.35739e-21)
(0.879162 0.0698423 -1.48588e-19)
(0.957999 0.0759162 1.83859e-19)
(1.02862 0.0812801 -8.67162e-21)
(1.09012 0.0856588 1.20186e-19)
(1.14214 0.0888761 -1.15073e-19)
(1.18487 0.0908546 9.86379e-20)
(-0.015919 0.0162178 -1.9552e-19)
(-0.0306115 0.0339618 6.78599e-21)
(-0.0304519 0.0428329 1.58021e-19)
(-0.0169055 0.045829 -1.00669e-19)
(0.00889039 0.0455171 -2.1164e-19)
(0.0461139 0.0435439 -1.19421e-19)
(0.0942231 0.0411445 -1.65785e-19)
(0.152749 0.0391727 3.34112e-20)
(0.221122 0.0382266 6.06219e-20)
(0.298486 0.0386867 -1.10631e-19)
(0.383568 0.0407417 4.85067e-20)
(0.474602 0.0443987 1.01673e-19)
(0.569359 0.0494951 -3.43536e-20)
(0.665257 0.0557214 -1.87681e-20)
(0.759564 0.0626595 -1.29501e-19)
(0.849643 0.069834 -7.58781e-20)
(0.933182 0.076768 1.69549e-19)
(1.00839 0.0830355 -2.36704e-19)
(1.07412 0.0883 9.15427e-20)
(1.12986 0.0923365 -1.65102e-19)
(1.17572 0.095035 2.35212e-20)
(1.21228 0.0963897 -5.6906e-21)
(1.24049 0.0964777 1.606e-19)
(-0.0161882 0.0158313 9.0026e-21)
(-0.0301459 0.0326295 -1.43117e-20)
(-0.0281657 0.0407368 -2.40737e-19)
(-0.0118576 0.0431745 -4.0232e-20)
(0.0175953 0.0425877 1.20415e-19)
(0.0593165 0.0406305 1.97716e-19)
(0.112695 0.0385499 3.48354e-20)
(0.177128 0.0371957 -4.10078e-20)
(0.251825 0.0371472 2.1736e-20)
(0.335604 0.0387442 -3.29121e-20)
(0.426771 0.0421073 1.55044e-19)
(0.523089 0.0471498 -2.08579e-19)
(0.621859 0.0535973 6.23357e-20)
(0.72012 0.0610268 2.06113e-20)
(0.814911 0.0689219 -8.65082e-20)
(0.903558 0.0767407 -4.4781e-20)
(0.983913 0.0839801 -3.08996e-20)
(1.05451 0.0902286 -2.30185e-20)
(1.11463 0.0951981 -9.31026e-20)
(1.16424 0.0987329 -6.03619e-20)
(1.20387 0.100801 -5.23797e-20)
(1.23448 0.10147 -2.49964e-20)
(1.25729 0.10088 -4.5905e-20)
(-0.0164079 0.0154077 2.26236e-19)
(-0.0294582 0.0312148 2.34792e-19)
(-0.02542 0.0385539 2.03943e-19)
(-0.00605933 0.0404572 9.94057e-20)
(0.0273867 0.0396533 -1.91529e-19)
(0.0739708 0.0378017 -1.69356e-19)
(0.132982 0.0361594 -1.14798e-20)
(0.203637 0.0355649 1.1386e-20)
(0.284853 0.0365667 -7.16408e-20)
(0.375051 0.0394445 6.20137e-20)
(0.472048 0.0442279 -1.08064e-19)
(0.573092 0.0507134 1.78071e-19)
(0.675025 0.0584989 -4.89653e-20)
(0.774566 0.0670426 -1.49226e-20)
(0.868634 0.0757395 7.02097e-20)
(0.954658 0.084002 2.1598e-19)
(1.03079 0.0913289 1.42208e-20)
(1.09599 0.0973515 8.43438e-21)
(1.15004 0.101852 1.0581e-19)
(1.19337 0.10476 4.86761e-20)
(1.22694 0.106124 6.28545e-20)
(1.25201 0.106084 4.34767e-20)
(1.26997 0.104831 3.59753e-20)
(1.28224 0.102581 1.2563e-20)
(-0.0165691 0.014946 -1.87736e-20)
(-0.0285219 0.0297212 -2.27358e-19)
(-0.0221698 0.0362953 -1.42138e-19)
(0.000552452 0.037699 7.43408e-20)
(0.0383427 0.0367485 2.39221e-19)
(0.0901602 0.0351056 9.33024e-20)
(0.155155 0.0340337 1.80857e-19)
(0.232302 0.0343499 -2.1574e-20)
(0.320156 0.0365552 -3.55895e-20)
(0.416657 0.0408464 9.44156e-20)
(0.519077 0.0471369 -7.14008e-20)
(0.624128 0.0550845 -7.88509e-20)
(0.728234 0.0641483 -6.57919e-20)
(0.82789 0.0736717 -9.11584e-20)
(0.920034 0.0829795 1.50707e-19)
(1.00234 0.0914668 -1.26515e-19)
(1.07339 0.0986649 -1.47533e-19)
(1.13265 0.104274 6.87875e-20)
(1.18041 0.108166 1.21865e-19)
(1.21756 0.11036 1.10049e-19)
(1.24541 0.110986 -1.55311e-19)
(1.26545 0.110245 1.08424e-20)
(1.27919 0.10837 -7.89172e-20)
(1.28805 0.105598 -7.73346e-20)
(-0.0166686 0.0144497 -4.1176e-20)
(-0.0273121 0.0281518 2.10943e-19)
(-0.0183686 0.0339697 1.03821e-20)
(0.008044 0.0349176 8.57167e-21)
(0.0505438 0.0339027 -1.88311e-19)
(0.107967 0.0325845 -1.37521e-20)
(0.179277 0.032226 -1.80003e-19)
(0.263135 0.0336098 5.64038e-20)
(0.357653 0.0371683 1.00842e-19)
(0.460213 0.0429891 -1.13358e-19)
(0.567496 0.0508427 1.27178e-19)
(0.675692 0.0602301 4.88732e-20)
(0.78088 0.0704678 1.42719e-20)
(0.879462 0.0807983 1.23785e-19)
(0.968547 0.0905027 -5.39476e-20)
(1.0462 0.0989918 2.85985e-21)
(1.1115 0.10586 1.17187e-19)
(1.1645 0.110898 2.35982e-20)
(1.20598 0.114078 -1.36635e-19)
(1.23723 0.115509 -9.55192e-20)
(1.25984 0.115396 1.74552e-19)
(1.27544 0.113988 -7.00363e-20)
(1.28558 0.111547 -4.84128e-21)
(1.29164 0.108318 -7.05666e-20)
(1.29473 0.104514 5.97813e-20)
(-0.0166971 0.0139168 -1.36161e-19)
(-0.0258007 0.0265075 -5.49399e-20)
(-0.0139695 0.0315868 1.26487e-19)
(0.0164784 0.0321343 -1.44913e-19)
(0.064062 0.031151 -7.60279e-20)
(0.127457 0.030287 5.71623e-20)
(0.205381 0.030796 3.37175e-20)
(0.296104 0.0334082 -5.48247e-20)
(0.397203 0.038462 7.64322e-21)
(0.50544 0.0459064 -4.40544e-20)
(0.616878 0.055343 -2.25366e-20)
(0.727233 0.0661037 -6.1468e-21)
(0.832352 0.0773687 8.18562e-20)
(0.928695 0.0883028 -1.27885e-19)
(1.0137 0.098177 -1.06714e-19)
(1.08593 0.106452 -2.74403e-20)
(1.14507 0.112812 -5.963e-21)
(1.19171 0.117156 5.42981e-20)
(1.2271 0.119557 -5.85672e-20)
(1.25287 0.120212 7.07036e-21)
(1.27079 0.119384 -1.47837e-19)
(1.28256 0.117361 3.85707e-21)
(1.2897 0.114418 8.14201e-20)
(1.29349 0.110799 2.38307e-20)
(1.29495 0.106705 -1.00952e-19)
(1.29483 0.102295 4.2991e-21)
(-0.0166436 0.0133442 -4.76107e-20)
(-0.023958 0.0247893 7.63189e-20)
(-0.00892544 0.0291576 6.99383e-20)
(0.0259167 0.029373 1.22462e-19)
(0.0789627 0.0285315 3.37442e-22)
(0.148682 0.0282649 -1.88095e-19)
(0.233476 0.0298046 1.40411e-20)
(0.331134 0.033806 -3.21888e-20)
(0.438615 0.0404834 1.71301e-20)
(0.552 0.0496158 2.30066e-19)
(0.66675 0.0606141 -1.78734e-20)
(0.778187 0.0726371 -4.94165e-20)
(0.88207 0.0847455 -1.36421e-19)
(0.975086 0.0960585 7.5155e-20)
(1.05514 0.105875 3.32059e-20)
(1.1214 0.113739 1.23309e-19)
(1.17416 0.119445 3.01701e-20)
(1.21454 0.123006 3.02073e-20)
(1.24419 0.124597 7.14845e-20)
(1.26499 0.124489 1.05525e-19)
(1.27881 0.122992 1.35532e-19)
(1.28734 0.120415 -3.41638e-20)
(1.29203 0.117038 -6.29393e-20)
(1.29403 0.113092 1.9448e-20)
(1.29422 0.108764 -3.71018e-21)
(1.29325 0.104192 7.67457e-20)
(-0.0164962 0.0127294 2.59905e-19)
(-0.0217531 0.0229993 -2.76209e-20)
(-0.00318871 0.0266946 -2.39282e-19)
(0.0364178 0.0266593 -8.04921e-20)
(0.0953043 0.0260843 1.7376e-19)
(0.171678 0.0265707 1.4706e-19)
(0.263542 0.0293107 9.11962e-20)
(0.368112 0.034857 -9.41373e-21)
(0.481645 0.043266 -1.31354e-19)
(0.599512 0.0541155 -7.03285e-20)
(0.716614 0.0666103 3.01202e-20)
(0.828003 0.0797426 -6.33259e-21)
(0.929518 0.0924815 7.68004e-20)
(1.01824 0.10394 -8.28071e-21)
(1.09266 0.113483 -2.74099e-21)
(1.1526 0.120765 -1.17863e-19)
(1.19897 0.125705 -1.5117e-19)
(1.23336 0.128433 -1.91878e-19)
(1.25773 0.129213 1.90644e-20)
(1.27411 0.128377 3.37135e-20)
(1.28441 0.126269 -1.11233e-19)
(1.29026 0.123206 1.2905e-19)
(1.29297 0.119458 2.66267e-21)
(1.29358 0.115244 -6.30602e-20)
(1.29283 0.110728 2.68168e-20)
(1.29123 0.106029 -8.12412e-20)
(1.28913 0.101232 -6.39904e-22)
(-0.0162426 0.0120704 -2.4258e-19)
(-0.0191541 0.021141 -1.59862e-20)
(0.00328809 0.0242121 8.50968e-20)
(0.0480376 0.024021 5.03621e-20)
(0.113137 0.0238512 -1.00194e-19)
(0.196464 0.0252573 -1.89917e-19)
(0.295531 0.0293702 -2.2257e-20)
(0.406883 0.0366068 1.04578e-19)
(0.526006 0.0468285 -4.22463e-20)
(0.647557 0.0593845 1.68202e-21)
(0.765963 0.0732664 -5.98495e-20)
(0.876164 0.0873192 8.34973e-20)
(0.974258 0.100458 -6.72843e-20)
(1.05787 0.111831 7.82403e-20)
(1.12616 0.120906 -3.17819e-20)
(1.17965 0.127466 -1.22027e-19)
(1.21979 0.131564 6.2746e-20)