/*--------------------------------*- C++ -*----------------------------------*\
  =========                 |
  \\      /  F ield         | OpenFOAM: The Open Source CFD Toolbox
   \\    /   O peration     | Website:  https://openfoam.org
    \\  /    A nd           | Version:  7
     \\/     M anipulation  |
\*---------------------------------------------------------------------------*/
FoamFile
{
    version     2.0;
    format      ascii;
    class       volVectorField;
    location    "30";
    object      U;
}
// * * * * * * * * * * * * * * * * * * * * * * * * * * * * * * * * * * * * * //

dimensions      [0 1 -1 0 0 0 0];

internalField   nonuniform List<vector> 
2625
(
(0.00697534 -0.0027032 -2.6312e-21)
(0.0488906 -0.00601409 7.46433e-21)
(0.00718209 -0.00810267 -7.50772e-21)
(0.0493325 -0.0180293 3.1371e-21)
(0.00759493 -0.0134836 4.97287e-20)
(0.050215 -0.0300081 1.53667e-20)
(0.0082126 -0.0188347 -3.21984e-20)
(0.0515358 -0.0419274 -2.36931e-20)
(0.0090333 -0.0241449 9.87828e-21)
(0.0532915 -0.053764 -2.38904e-20)
(0.0100546 -0.0294029 7.39749e-21)
(0.0554773 -0.0654948 7.97216e-20)
(0.0112737 -0.0345977 -4.76476e-20)
(0.0580876 -0.077097 -3.57739e-20)
(0.012687 -0.0397183 6.51982e-20)
(0.0611156 -0.0885483 -2.73887e-20)
(0.0142905 -0.0447542 -6.30448e-20)
(0.0645534 -0.0998265 -1.08056e-19)
(0.0160797 -0.0496947 -6.19187e-20)
(0.0683921 -0.11091 1.65748e-19)
(0.143154 -0.146217 2.19957e-19)
(0.0180495 -0.0545298 1.7318e-19)
(0.0726217 -0.121777 -8.97487e-20)
(0.14851 -0.160635 -4.28487e-20)
(0.0201943 -0.0592494 -1.3919e-19)
(0.0772313 -0.132408 9.40352e-20)
(0.154351 -0.174766 4.90674e-20)
(0.0225083 -0.0638439 -8.42676e-20)
(0.082209 -0.142782 -1.65741e-19)
(0.160664 -0.188586 -1.88116e-20)
(0.0249847 -0.068304 1.80222e-19)
(0.0875418 -0.15288 1.37361e-19)
(0.167434 -0.202071 -7.59389e-22)
(0.0276168 -0.0726208 -9.70008e-21)
(0.0932161 -0.162683 4.84031e-20)
(0.174644 -0.215198 -1.14704e-19)
(0.0303971 -0.0767857 -3.57302e-20)
(0.0992172 -0.172173 3.04743e-20)
(0.182277 -0.227944 -4.29912e-20)
(0.0333178 -0.0807905 -5.09438e-20)
(0.10553 -0.181333 -1.88265e-19)
(0.190315 -0.240287 1.40215e-19)
(0.0363709 -0.0846275 3.65057e-20)
(0.112137 -0.190146 1.51787e-20)
(0.198739 -0.252208 -1.51917e-20)
(0.0395478 -0.0882895 7.15824e-20)
(0.119022 -0.198595 8.64839e-20)
(0.207529 -0.263686 1.23001e-20)
(0.0428396 -0.0917696 -4.74236e-20)
(0.126168 -0.206668 5.24592e-21)
(0.216663 -0.274701 3.79588e-20)
(0.0462373 -0.0950614 -4.39202e-20)
(0.133556 -0.214349 -1.81936e-19)
(0.226119 -0.285237 -1.86022e-19)
(0.0497313 -0.0981592 9.87106e-20)
(0.141166 -0.221625 -4.67641e-21)
(0.235876 -0.295277 9.43596e-20)
(0.0533121 -0.101058 6.40202e-20)
(0.14898 -0.228485 2.64235e-19)
(0.245909 -0.304804 1.47805e-19)
(0.332251 -0.346595 6.96053e-20)
(0.0569698 -0.103752 -2.19254e-20)
(0.156977 -0.234918 -1.28863e-19)
(0.256195 -0.313804 -3.41899e-19)
(0.343671 -0.357244 6.82778e-20)
(0.0606943 -0.106238 1.54937e-20)
(0.165136 -0.240913 2.07456e-19)
(0.266709 -0.322263 3.96317e-20)
(0.355365 -0.367322 6.69666e-20)
(0.0644753 -0.108512 -9.98613e-20)
(0.173438 -0.246462 -2.35509e-19)
(0.277425 -0.33017 2.74841e-19)
(0.367305 -0.376814 -4.94413e-20)
(0.0683026 -0.110571 -2.10009e-19)
(0.181859 -0.251556 6.24287e-20)
(0.288318 -0.337512 -9.74128e-21)
(0.379466 -0.385708 -8.63172e-20)
(0.0721658 -0.112412 1.85618e-19)
(0.19038 -0.256189 -2.81851e-20)
(0.299361 -0.344281 -6.00092e-20)
(0.39182 -0.393992 9.93381e-20)
(0.0760545 -0.114033 -6.68334e-20)
(0.198978 -0.260356 -6.31528e-21)
(0.310528 -0.350467 -4.52921e-20)
(0.404339 -0.401654 -5.00683e-20)
(0.079958 -0.115433 -1.04842e-20)
(0.207631 -0.26405 1.27041e-19)
(0.321792 -0.356062 2.74529e-20)
(0.416995 -0.408685 2.48732e-20)
(0.0838661 -0.116611 -5.61218e-20)
(0.216317 -0.26727 -2.05866e-19)
(0.333126 -0.361062 -8.01295e-20)
(0.42976 -0.415078 -2.41836e-20)
(0.512289 -0.439079 1.71165e-19)
(0.0877683 -0.117568 2.08322e-19)
(0.225013 -0.270012 1.25651e-19)
(0.344502 -0.36546 1.00334e-20)
(0.442604 -0.420824 2.76744e-20)
(0.525671 -0.445847 -1.49715e-20)
(0.0916544 -0.118302 -2.09385e-19)
(0.233699 -0.272275 -3.17486e-20)
(0.355892 -0.369254 3.87117e-20)
(0.455497 -0.425919 -4.94759e-20)
(0.539139 -0.451971 -1.06819e-19)
(0.0955142 -0.118815 1.39582e-19)
(0.242351 -0.274059 1.96083e-21)
(0.367269 -0.372441 -2.89369e-21)
(0.468412 -0.430358 3.70535e-20)
(0.552665 -0.457446 6.64981e-20)
(0.0993377 -0.119109 -1.13943e-19)
(0.250947 -0.275364 5.21119e-21)
(0.378606 -0.37502 -5.07822e-20)
(0.481317 -0.434138 -1.89429e-20)
(0.56622 -0.462266 5.88461e-20)
(0.103115 -0.119186 1.65346e-19)
(0.259467 -0.276194 6.64493e-20)
(0.389873 -0.376991 1.02876e-19)
(0.494183 -0.437256 -6.43066e-20)
(0.579774 -0.466427 1.06566e-20)
(0.64866 -0.47358 -1.51727e-19)
(0.106836 -0.119048 -9.88499e-20)
(0.267887 -0.27655 -1.08635e-19)
(0.401044 -0.378356 -6.43252e-21)
(0.50698 -0.439713 -5.00281e-21)
(0.593298 -0.469927 -1.53363e-19)
(0.662349 -0.47793 1.19642e-19)
(0.110493 -0.118699 4.68111e-20)
(0.276187 -0.276437 5.95435e-20)
(0.412092 -0.379119 -1.13146e-19)
(0.519679 -0.44151 6.36097e-20)
(0.606763 -0.472765 6.65511e-20)
(0.676021 -0.481647 -2.36342e-20)
(0.114078 -0.118146 4.51576e-20)
(0.284349 -0.275864 3.6481e-20)
(0.42299 -0.379284 7.89253e-20)
(0.532251 -0.44265 -1.81443e-20)
(0.620139 -0.474941 -1.44846e-20)
(0.689649 -0.484731 -3.56733e-21)
(0.117577 -0.117387 -9.688e-20)
(0.292346 -0.274831 1.90152e-20)
(0.43371 -0.378856 -7.25967e-20)
(0.544664 -0.443134 -6.20514e-20)
(0.633397 -0.476454 -1.72972e-20)
(0.703202 -0.48718 -8.61211e-21)
(0.758527 -0.481465 -5.06236e-20)
(0.120944 -0.116393 8.24858e-20)
(0.300135 -0.273323 -2.01468e-20)
(0.444207 -0.377824 7.07978e-20)
(0.55688 -0.442956 6.20176e-20)
(0.646499 -0.477302 1.07139e-20)
(0.71665 -0.48899 9.77229e-21)
(0.771899 -0.484093 -1.98604e-19)
(0.124168 -0.11517 -3.61742e-20)
(0.307688 -0.271353 3.11812e-20)
(0.454454 -0.3762 -5.24426e-20)
(0.568866 -0.442127 2.15811e-20)
(0.659417 -0.477488 1.21204e-21)
(0.729964 -0.490162 -5.03703e-21)
(0.785187 -0.486128 9.78811e-20)
(0.127273 -0.11376 3.26908e-20)
(0.315011 -0.268957 -3.47237e-20)
(0.464439 -0.374012 1.7263e-20)
(0.580604 -0.440663 1.72824e-20)
(0.672125 -0.477024 -4.85191e-20)
(0.743118 -0.490703 1.33392e-20)
(0.798367 -0.487573 5.30011e-20)
(0.130259 -0.112176 -1.64053e-20)
(0.322089 -0.266149 -2.62886e-21)
(0.474141 -0.371272 5.3871e-20)
(0.592068 -0.438576 -4.02985e-20)
(0.684597 -0.475917 2.64256e-20)
(0.756086 -0.490616 -6.32337e-20)
(0.811414 -0.488429 -1.22267e-19)
(0.853977 -0.474455 -9.78953e-21)
(0.133113 -0.11042 -1.37347e-20)
(0.328902 -0.26294 -2.49594e-20)
(0.483534 -0.367991 -3.58268e-20)
(0.60323 -0.435875 2.48033e-20)
(0.696803 -0.474174 -4.91891e-21)
(0.768839 -0.489906 5.40438e-20)
(0.824301 -0.488697 1.47465e-19)
(0.866702 -0.475547 2.82778e-20)
(0.135829 -0.108499 -7.14087e-21)
(0.335434 -0.259341 4.70185e-22)
(0.492597 -0.364184 1.78594e-20)
(0.614063 -0.432572 -1.78835e-21)
(0.708717 -0.471804 1.81899e-20)
(0.78135 -0.488578 -3.25288e-20)
(0.837001 -0.488381 -2.9783e-20)
(0.879296 -0.476102 1.56202e-20)
(0.138398 -0.10642 -2.13038e-20)
(0.341668 -0.255367 2.34274e-21)
(0.501305 -0.359864 7.72238e-22)
(0.624541 -0.428679 -1.06343e-20)
(0.720309 -0.468817 -1.81929e-20)
(0.793591 -0.486639 2.97223e-20)
(0.84949 -0.487484 -2.06621e-20)
(0.891733 -0.47612 4.84893e-20)
(0.923649 -0.456446 -2.71923e-20)
(0.140815 -0.10419 2.7499e-20)
(0.347588 -0.251031 2.21082e-21)
(0.509638 -0.355047 1.12668e-20)
(0.634638 -0.424212 4.8877e-21)
(0.731553 -0.465223 2.17078e-20)
(0.805534 -0.484097 -4.90063e-21)
(0.86174 -0.486011 -1.35612e-20)
(0.90399 -0.475604 -3.70752e-20)
(0.935678 -0.456725 -1.56116e-21)
(0.143074 -0.101816 -1.19513e-20)
(0.353181 -0.246348 8.49769e-22)
(0.517576 -0.349751 -1.19939e-20)
(0.64433 -0.419184 -4.18832e-21)
(0.742422 -0.461036 -2.46897e-21)
(0.817154 -0.48096 -2.42602e-20)
(0.873726 -0.483967 1.12011e-20)
(0.916044 -0.474557 7.5597e-21)
(0.947558 -0.456521 -1.79009e-20)
(0.970995 -0.432996 5.49318e-20)
(0.145169 -0.0993069 5.80049e-21)
(0.358433 -0.241335 1.65173e-21)
(0.525098 -0.343992 1.07909e-21)
(0.653594 -0.413613 -1.51055e-21)
(0.752892 -0.456267 -6.3313e-21)
(0.828423 -0.477238 1.80035e-20)
(0.885423 -0.48136 -3.0851e-21)
(0.92787 -0.472984 -7.0973e-20)
(0.959268 -0.455835 -4.89571e-20)
(0.982407 -0.43302 -8.33416e-21)
(0.147095 -0.0966705 2.51645e-21)
(0.36333 -0.236008 6.00301e-22)
(0.532186 -0.33779 1.09421e-20)
(0.662406 -0.407516 7.21125e-22)
(0.762936 -0.450933 -3.26133e-21)
(0.839316 -0.472942 6.67878e-21)
(0.896804 -0.478196 4.44354e-21)
(0.939443 -0.470888 1.36127e-20)
(0.970786 -0.454671 1.04372e-21)
(0.993679 -0.432614 -1.52447e-20)
(0.148848 -0.0939151 -4.38969e-21)
(0.367863 -0.230383 -1.97329e-20)
(0.538824 -0.331163 -1.45505e-20)
(0.670746 -0.400912 -3.77922e-21)
(0.77253 -0.445047 -2.12536e-22)
(0.849808 -0.468084 -9.29849e-21)
(0.907845 -0.474484 -1.26273e-20)
(0.950741 -0.468275 1.48099e-20)
(0.98209 -0.453032 1.01817e-20)
(1.00479 -0.431778 2.0918e-20)
(1.02121 -0.406945 -1.99534e-20)
(0.150423 -0.0910494 2.70445e-20)
(0.372019 -0.224478 -1.20081e-20)
(0.544994 -0.324132 -7.27427e-21)
(0.678591 -0.393818 8.91747e-21)
(0.781651 -0.438627 8.47488e-21)
(0.859873 -0.462677 3.64595e-22)
(0.918521 -0.470233 6.43298e-21)
(0.96174 -0.465151 -5.19292e-21)
(0.993158 -0.450921 2.83687e-20)
(1.01573 -0.430515 2.28723e-20)
(1.03186 -0.406354 3.48942e-20)
(0.151818 -0.0880824 -3.2482e-20)
(0.37579 -0.218312 5.52271e-21)
(0.550681 -0.316717 -5.88539e-21)
(0.685924 -0.386257 1.31398e-20)
(0.790277 -0.43169 7.5279e-22)
(0.869487 -0.456735 -6.6759e-22)
(0.928807 -0.465454 -2.25667e-21)
(0.972415 -0.461524 1.39048e-20)
(1.00397 -0.448343 -4.18343e-22)
(1.02646 -0.428827 -2.2426e-20)
(1.04236 -0.405383 -2.2605e-20)
(1.05359 -0.379891 -1.41135e-20)
(0.153028 -0.0850234 -2.23741e-20)
(0.379166 -0.211903 3.05295e-20)
(0.555872 -0.308941 1.24238e-20)
(0.692725 -0.37825 -3.37901e-20)
(0.798384 -0.424254 -2.95881e-20)
(0.878627 -0.450273 3.8851e-21)
(0.938679 -0.460157 3.35845e-21)
(0.982743 -0.4574 -2.22265e-21)
(1.0145 -0.445302 -6.68883e-22)
(1.03698 -0.426718 -8.9094e-21)
(1.05269 -0.404034 1.71225e-20)
(1.06361 -0.379132 3.8384e-20)
(0.154053 -0.0818816 5.5281e-22)
(0.382141 -0.205269 7.77451e-22)
(0.560554 -0.300826 5.04017e-20)
(0.698978 -0.369817 1.39957e-20)
(0.805954 -0.416339 1.78251e-20)
(0.88727 -0.443305 6.36962e-21)
(0.948113 -0.454354 -8.23044e-21)
(0.992701 -0.452789 1.0609e-21)
(1.02472 -0.441804 -2.38422e-21)
(1.04726 -0.42419 7.06049e-21)
(1.06284 -0.402308 -3.08285e-21)
(1.07349 -0.378038 -3.96119e-20)
(1.08077 -0.352806 -3.0656e-20)
(0.15489 -0.0786663 -8.69586e-21)
(0.384707 -0.19843 -3.38305e-20)
(0.564715 -0.292395 -3.13381e-20)
(0.704665 -0.360983 1.31556e-20)
(0.812966 -0.407966 -6.70499e-21)
(0.895393 -0.43585 7.29128e-21)
(0.957087 -0.448058 -1.86548e-21)
(1.00227 -0.447698 -7.76379e-21)
(1.03463 -0.437856 2.56621e-22)
(1.05728 -0.421249 5.12766e-21)
(1.07279 -0.400208 7.58207e-21)
(1.08322 -0.37661 2.08282e-20)
(1.09019 -0.351895 3.40256e-21)
(1.09487 -0.327102 2.9781e-20)
(0.155537 -0.0753869 9.06681e-20)
(0.38686 -0.191407 1.19123e-20)
(0.568346 -0.283671 -1.60812e-20)
(0.709773 -0.35177 -4.7691e-20)
(0.819401 -0.399155 -1.98032e-20)
(0.902976 -0.427924 -3.97495e-21)
(0.965577 -0.441283 -1.05975e-20)
(1.01141 -0.442139 5.3109e-21)
(1.04419 -0.433464 5.85461e-22)
(1.06702 -0.417897 -3.28458e-21)
(1.08251 -0.397736 6.81558e-21)
(1.09278 -0.37485 2.3462e-21)
(1.09947 -0.350689 1.00039e-21)
(1.1038 -0.326315 -6.37415e-21)
(0.155995 -0.072053 -3.94342e-20)
(0.388595 -0.184217 6.97583e-20)
(0.571437 -0.274678 -4.16918e-20)
(0.714287 -0.342204 1.39832e-20)
(0.825242 -0.389928 1.56913e-20)
(0.909998 -0.419546 -3.30197e-20)
(0.973563 -0.434043 3.10216e-21)
(1.02012 -0.436122 -9.53916e-22)
(1.05338 -0.428636 -5.17794e-21)
(1.07646 -0.41414 -3.27827e-22)
(1.092 -0.394895 -5.91878e-21)
(1.10216 -0.372759 -1.1741e-20)
(1.10861 -0.349189 1.56954e-20)
(1.11262 -0.325267 -1.67638e-22)
(1.1151 -0.301745 9.56631e-21)
(0.156263 -0.0686741 -5.5541e-20)
(0.389909 -0.176882 -5.65945e-20)
(0.573981 -0.26544 3.13404e-21)
(0.718197 -0.332308 -2.46205e-21)
(0.830473 -0.380309 3.35818e-20)
(0.916439 -0.410736 1.7514e-20)
(0.981021 -0.426354 1.93835e-20)
(1.02837 -0.429659 -1.37582e-21)
(1.06218 -0.423379 8.6498e-21)
(1.08557 -0.409984 3.55384e-21)
(1.10124 -0.39169 2.19733e-21)
(1.11134 -0.370339 1.6576e-21)
(1.1176 -0.347397 -3.85785e-21)
(1.12132 -0.32396 -1.19028e-20)
(1.12345 -0.300804 1.46359e-20)
(1.12465 -0.278447 3.37545e-20)
(0.156342 -0.0652596 2.26307e-20)
(0.3908 -0.169422 3.28197e-21)
(0.575973 -0.255982 1.20292e-20)
(0.721491 -0.322108 -4.1727e-20)
(0.835079 -0.37032 -2.77384e-20)
(0.922282 -0.401513 -1.64022e-20)
(0.987932 -0.418231 -2.78581e-20)
(1.03614 -0.42276 -9.97958e-21)
(1.07056 -0.417702 5.91303e-21)
(1.09435 -0.405433 -3.55953e-22)
(1.1102 -0.388123 -8.58024e-22)
(1.1203 -0.367594 1.14185e-21)
(1.12641 -0.345313 -7.80476e-21)
(1.12988 -0.322394 6.83374e-22)
(1.1317 -0.299635 5.8288e-21)
(1.13252 -0.277574 -1.35777e-20)
(1.13279 -0.256521 1.65699e-20)
(0.156232 -0.061819 2.49038e-20)
(0.391268 -0.161856 3.40333e-20)
(0.577407 -0.24633 4.73967e-21)
(0.724159 -0.311631 8.00221e-20)
(0.839046 -0.359986 2.88935e-20)
(0.927509 -0.391898 3.7167e-20)
(0.994275 -0.409691 5.28153e-21)
(1.04341 -0.415441 1.71971e-20)
(1.07852 -0.411615 -1.67537e-20)
(1.10277 -0.400495 -5.69652e-21)
(1.11886 -0.384199 -1.11812e-21)
(1.12902 -0.364526 2.09038e-22)
(1.13504 -0.342941 5.83489e-22)
(1.13831 -0.320572 1.27771e-20)
(1.13983 -0.298237 -2.07763e-22)
(1.14031 -0.276498 -6.96334e-22)
(1.1402 -0.255684 -1.69656e-20)
(1.13971 -0.236064 4.0795e-22)
(0.155934 -0.0583615 1.20287e-20)
(0.391313 -0.154206 1.19391e-20)
(0.578281 -0.236507 3.76529e-20)
(0.726196 -0.300902 -2.2573e-20)
(0.842362 -0.349332 1.33012e-20)
(0.932103 -0.381913 1.27209e-20)
(1.00003 -0.400752 -1.1231e-20)
(1.05015 -0.407713 -1.22202e-20)
(1.08602 -0.405128 1.15529e-20)
(1.11081 -0.395177 -8.24366e-21)
(1.12721 -0.379923 1.38248e-21)
(1.13749 -0.361136 -3.01763e-21)
(1.14347 -0.340281 -1.62521e-22)
(1.14657 -0.318493 -3.79309e-21)
(1.14784 -0.296612 -6.94695e-21)
(1.148 -0.27522 -2.19635e-21)
(1.14754 -0.254666 6.6489e-21)
(1.14667 -0.235239 -8.37402e-21)
(1.1456 -0.216649 -4.58338e-21)
(0.155452 -0.0548965 -2.20183e-20)
(0.390935 -0.14649 -7.50891e-20)
(0.578592 -0.22654 1.0753e-20)
(0.727593 -0.289949 -6.55559e-20)
(0.845016 -0.338382 -3.52142e-20)
(0.93605 -0.371581 1.09093e-20)
(1.00518 -0.391433 4.39402e-22)
(1.05634 -0.399591 2.5477e-20)
(1.09305 -0.39825 -3.04515e-21)
(1.11844 -0.389486 1.33035e-20)
(1.13523 -0.375299 -3.04334e-21)
(1.14569 -0.35743 2.54914e-21)
(1.15169 -0.337335 -1.16198e-21)
(1.15467 -0.31616 2.52893e-22)
(1.15572 -0.29476 3.5098e-21)
(1.15559 -0.27374 2.53464e-22)
(1.15479 -0.253469 9.59774e-22)
(1.15356 -0.234252 2.05107e-20)
(1.15212 -0.215823 6.54354e-21)
(1.15009 -0.1995 2.39078e-21)
(0.154788 -0.0514329 -1.05594e-20)
(0.390139 -0.138729 1.27433e-20)
(0.57834 -0.216453 -6.6982e-20)
(0.728346 -0.278797 6.03143e-20)
(0.846998 -0.327163 2.84287e-20)
(0.939335 -0.360923 -4.18861e-20)
(1.00972 -0.381752 2.80355e-20)
(1.06197 -0.391091 -1.09622e-20)
(1.09959 -0.390994 1.08321e-20)
(1.12565 -0.383429 2.27843e-21)
(1.14289 -0.370333 -5.04203e-21)
(1.1536 -0.35341 3.43528e-21)
(1.15967 -0.334107 1.43495e-21)
(1.16258 -0.313575 -2.16901e-21)
(1.16345 -0.292684 -1.65625e-21)
(1.16306 -0.272061 -2.66966e-21)
(1.16195 -0.252094 3.05543e-21)
(1.16038 -0.233107 -8.22141e-21)
(1.15859 -0.214856 -1.75823e-20)
(1.15624 -0.198631 -4.03839e-21)
(0.153944 -0.0479798 8.28962e-22)
(0.388927 -0.130943 1.73833e-20)
(0.577527 -0.206271 4.7018e-20)
(0.728453 -0.267475 2.92195e-20)
(0.848301 -0.315701 -1.71949e-20)
(0.941947 -0.349964 -1.62605e-20)
(1.01361 -0.371729 3.66189e-20)
(1.06702 -0.382227 3.01855e-21)
(1.1056 -0.383371 -2.33022e-20)
(1.13242 -0.377015 4.1537e-21)
(1.15019 -0.36503 1.34171e-20)
(1.16121 -0.34908 1.85181e-21)
(1.16741 -0.330598 -6.27681e-21)
(1.1703 -0.310738 1.27668e-21)
(1.17103 -0.290385 -1.68667e-21)
(1.17041 -0.270183 1.77116e-21)
(1.16902 -0.250543 1.74498e-21)
(1.16713 -0.231803 1.41215e-21)
(1.16499 -0.213748 9.72128e-21)
(1.16235 -0.197634 2.12042e-21)
(0.152924 -0.0445456 1.48264e-20)
(0.387304 -0.12315 -4.72553e-21)
(0.576154 -0.196021 7.75147e-21)
(0.727911 -0.25601 -2.41613e-20)
(0.848917 -0.304023 -1.08955e-20)
(0.943873 -0.338728 -8.34397e-21)
(1.01685 -0.361386 -2.02926e-21)
(1.07147 -0.373017 2.38992e-20)
(1.11109 -0.375393 4.09287e-20)
(1.13873 -0.370254 1.73632e-20)
(1.15709 -0.359397 -1.50889e-20)
(1.1685 -0.344444 -8.92611e-21)
(1.17489 -0.32681 6.27243e-21)
(1.17781 -0.307651 7.06377e-22)
(1.17844 -0.287863 -3.03757e-22)
(1.17763 -0.268108 -1.2693e-21)
(1.17598 -0.248815 9.32071e-22)
(1.1738 -0.230342 1.82338e-21)
(1.17133 -0.212501 3.70077e-21)
(1.1684 -0.196511 -7.37478e-21)
(0.151733 -0.041139 3.06423e-20)
(0.385277 -0.115371 -2.05372e-20)
(0.574226 -0.185726 -5.87622e-20)
(0.726721 -0.244428 5.09244e-20)
(0.848843 -0.292155 1.04003e-20)
(0.945103 -0.32724 2.26517e-20)
(1.01942 -0.350742 -2.23144e-20)
(1.0753 -0.363478 -4.78343e-20)
(1.11602 -0.367074 -2.44114e-20)
(1.14455 -0.363154 -5.29474e-20)
(1.16359 -0.35344 -6.91569e-21)
(1.17545 -0.339507 1.45344e-20)
(1.18209 -0.322748 4.28248e-21)
(1.18509 -0.304317 7.35796e-22)
(1.18566 -0.28512 -1.17132e-21)
(1.18471 -0.265836 2.4439e-22)
(1.18282 -0.246914 1.0915e-21)
(1.18037 -0.228726 -6.07125e-21)
(1.17761 -0.211118 4.38103e-21)
(1.17441 -0.195263 6.72529e-21)
(0.150373 -0.0377679 -6.87757e-20)
(0.382851 -0.107624 4.87133e-20)
(0.571748 -0.175412 1.53917e-20)
(0.724883 -0.232758 -4.77827e-20)
(0.848073 -0.280125 1.74103e-20)
(0.94563 -0.315524 -6.09096e-21)
(1.0213 -0.33982 -2.74635e-20)
(1.0785 -0.353627 3.30219e-20)
(1.12037 -0.358427 2.35519e-21)
(1.14987 -0.355726 4.59697e-20)
(1.16965 -0.347166 2.72992e-20)
(1.18203 -0.334272 -6.32385e-21)
(1.18899 -0.318413 -1.59544e-20)
(1.19213 -0.300737 -2.54848e-21)
(1.1927 -0.282158 1.87489e-21)
(1.19163 -0.26337 1.32193e-21)
(1.18955 -0.244839 -1.39176e-21)
(1.18685 -0.226957 1.06254e-21)
(1.18381 -0.209599 -5.5716e-21)
(1.18035 -0.193894 -1.86208e-21)
(0.148852 -0.0344405 3.12458e-21)
(0.380036 -0.0999263 -4.17891e-20)
(0.568727 -0.165103 -1.82855e-20)
(0.722401 -0.221027 3.67955e-20)
(0.846607 -0.26796 -1.79796e-22)
(0.945446 -0.303606 5.65632e-21)
(1.0225 -0.328642 3.4949e-20)
(1.08104 -0.343483 -2.22946e-20)
(1.12414 -0.349467 -7.63102e-21)
(1.15467 -0.347981 -2.22959e-20)
(1.17526 -0.340583 1.15084e-20)
(1.18824 -0.328746 -2.39269e-21)
(1.19558 -0.31381 1.08766e-20)
(1.19892 -0.296914 -5.39642e-21)
(1.19953 -0.278978 -5.32833e-23)
(1.19839 -0.260709 -1.9468e-21)
(1.19615 -0.242593 4.03055e-22)
(1.19323 -0.225035 4.58624e-22)
(1.18992 -0.207946 -1.51902e-21)
(1.18622 -0.192404 -2.33594e-21)
(0.147173 -0.0311641 5.11023e-20)
(0.376839 -0.0922968 7.64281e-20)
(0.56517 -0.154823 -1.48696e-20)
(0.71928 -0.209261 -2.35871e-20)
(0.844444 -0.255688 2.17278e-20)
(0.944546 -0.291512 5.78985e-21)
(1.02299 -0.31723 -8.86236e-21)
(1.08292 -0.333065 5.22877e-21)
(1.1273 -0.340209 1.85222e-21)
(1.15893 -0.339929 9.50957e-21)
(1.18041 -0.333699 -1.83426e-20)
(1.19405 -0.322933 1.57676e-20)
(1.20184 -0.30894 -1.66328e-20)
(1.20544 -0.292849 1.58412e-20)
(1.20615 -0.275581 -1.00978e-21)
(1.20497 -0.257856 3.44132e-21)
(1.2026 -0.240175 1.30984e-21)
(1.1995 -0.222962 -1.14106e-22)
(1.19595 -0.20616 1.41964e-21)
(1.19203 -0.190795 1.57141e-21)
(0.145342 -0.027946 5.19519e-21)
(0.37327 -0.0847526 -5.47816e-20)
(0.561087 -0.144594 6.41996e-20)
(0.715525 -0.197488 -8.51225e-21)
(0.841585 -0.243336 -5.39361e-20)
(0.942925 -0.279268 3.49938e-20)
(1.02277 -0.305609 -3.87699e-21)
(1.08412 -0.322392 -2.73132e-20)
(1.12982 -0.330668 1.03762e-21)
(1.16263 -0.331582 -2.07082e-20)
(1.18507 -0.326522 -7.41621e-21)
(1.19944 -0.316839 -2.06011e-20)
(1.20775 -0.303809 1.71881e-20)
(1.21167 -0.288545 -8.42544e-21)
(1.21253 -0.271969 -4.28275e-22)
(1.21137 -0.254811 -6.08425e-22)
(1.20891 -0.237589 -2.46298e-21)
(1.20565 -0.220739 -1.2588e-21)
(1.20189 -0.204243 -3.89299e-22)
(1.19775 -0.189068 -1.22886e-21)
(0.143366 -0.0247931 -4.99567e-20)
(0.369341 -0.0773101 -1.43027e-20)
(0.556488 -0.134442 2.28376e-21)
(0.711145 -0.185734 -1.03595e-20)
(0.838033 -0.230931 -3.16811e-21)
(0.94058 -0.266901 -3.4087e-20)
(1.02183 -0.293802 -1.28835e-20)
(1.08463 -0.311484 2.02298e-21)
(1.13171 -0.32086 4.45037e-21)
(1.16574 -0.322953 5.69872e-21)
(1.18921 -0.31906 -1.92897e-21)
(1.2044 -0.31047 9.97972e-21)
(1.21329 -0.29842 -2.39956e-21)
(1.2176 -0.284005 1.80319e-21)
(1.21867 -0.268144 -4.64527e-21)
(1.21757 -0.251575 -7.67082e-21)
(1.21506 -0.234833 4.90029e-22)
(1.21167 -0.218366 1.80857e-21)
(1.20772 -0.202196 -5.34835e-22)
(1.2034 -0.187226 -1.52909e-23)
(0.141251 -0.021712 1.64173e-20)
(0.365063 -0.0699854 1.86702e-20)
(0.551386 -0.124387 8.09883e-21)
(0.706148 -0.174025 -2.06377e-22)
(0.833793 -0.218502 1.3844e-20)
(0.937511 -0.254437 -1.20274e-20)
(1.02016 -0.281833 7.0285e-21)
(1.08443 -0.300363 -2.91125e-21)
(1.13294 -0.310803 -1.90221e-20)
(1.16826 -0.314055 1.14146e-20)
(1.19283 -0.311324 1.39287e-20)
(1.2089 -0.303833 -4.31044e-21)
(1.21845 -0.292777 -4.02957e-21)
(1.22321 -0.27923 -1.79927e-21)
(1.22454 -0.264107 3.67563e-21)
(1.22355 -0.24815 3.45761e-21)
(1.22104 -0.23191 2.2367e-21)
(1.21756 -0.215845 -8.32148e-22)
(1.21345 -0.20002 2.29068e-22)
(1.20895 -0.185268 1.94288e-22)
(0.139004 -0.0187087 4.74507e-20)
(0.360447 -0.062794 -3.33007e-20)
(0.545793 -0.114451 -2.05095e-20)
(0.700545 -0.162388 8.77942e-21)
(0.828871 -0.206074 -2.46914e-20)
(0.933719 -0.241902 1.79055e-20)
(1.01776 -0.269726 -1.09253e-20)
(1.08352 -0.289049 2.72682e-20)
(1.1335 -0.300514 1.2764e-20)
(1.17017 -0.304901 6.40223e-21)
(1.1959 -0.303323 -6.18641e-21)
(1.21292 -0.296934 3.06261e-21)
(1.22321 -0.286885 3.68784e-21)
(1.22848 -0.274224 1.77399e-21)
(1.23014 -0.25986 -2.35433e-21)
(1.22932 -0.244537 6.12388e-22)
(1.22684 -0.22882 -2.52896e-21)
(1.2233 -0.213177 4.14097e-22)
(1.21906 -0.197715 -1.48369e-21)
(1.21441 -0.183195 -6.14608e-22)
(0.136631 -0.015789 -3.64629e-20)
(0.355507 -0.0557503 2.28972e-20)
(0.539723 -0.104656 1.16281e-20)
(0.694348 -0.150846 -4.53655e-21)
(0.823275 -0.193676 3.36013e-20)
(0.929205 -0.229324 -1.71929e-20)
(1.01462 -0.257506 3.971e-22)
(1.08189 -0.277565 -8.48508e-21)
(1.13337 -0.290011 1.81495e-21)
(1.17144 -0.295506 -1.55971e-20)
(1.19841 -0.295068 -5.05792e-21)
(1.21645 -0.289781 5.97718e-22)
(1.22754 -0.280748 -5.23481e-21)
(1.23339 -0.26899 -1.18066e-20)
(1.23545 -0.255404 -9.60319e-22)
(1.23484 -0.240737 -7.21419e-22)
(1.23244 -0.225564 -2.34429e-21)
(1.22889 -0.210362 1.16502e-21)
(1.22454 -0.195283 2.41066e-21)
(1.21976 -0.18101 1.30543e-21)
(0.13414 -0.0129582 7.04823e-21)
(0.350258 -0.0488684 3.88412e-21)
(0.533192 -0.0950216 -1.33923e-20)
(0.687571 -0.139425 7.11922e-21)
(0.817014 -0.181333 -4.60993e-21)
(0.923973 -0.216729 -1.01392e-21)
(1.01075 -0.245199 2.07716e-20)
(1.07952 -0.265932 1.1662e-21)
(1.13254 -0.279312 -9.61183e-21)
(1.17206 -0.285883 5.64295e-21)
(1.20033 -0.28657 -5.19749e-21)
(1.21947 -0.282382 3.98561e-21)
(1.23143 -0.274372 1.22458e-21)
(1.23794 -0.263531 9.92788e-21)
(1.24044 -0.250741 5.45369e-21)
(1.24011 -0.236751 3.52023e-21)
(1.23785 -0.222142 6.85548e-21)
(1.23431 -0.207402 -4.72392e-21)
(1.2299 -0.192723 1.19075e-21)
(1.22501 -0.178712 -1.54747e-21)
(0.131539 -0.0102213 -7.28803e-21)
(0.344712 -0.0421614 -1.11001e-21)
(0.526216 -0.0855677 1.44103e-20)
(0.680228 -0.128148 -3.20132e-21)
(0.810099 -0.169071 3.48092e-21)
(0.91803 -0.204143 8.23923e-21)
(1.00613 -0.232828 -1.85447e-20)
(1.07642 -0.254172 7.40728e-21)
(1.131 -0.268437 1.50356e-20)
(1.17202 -0.276049 -4.97183e-22)
(1.20164 -0.27784 6.47702e-21)
(1.22195 -0.274744 -5.305e-22)
(1.23486 -0.267762 8.08477e-22)
(1.24209 -0.25785 -3.75528e-22)
(1.24511 -0.245874 -1.25622e-21)
(1.24511 -0.232579 9.35297e-22)
(1.24303 -0.218555 -1.01711e-21)
(1.23955 -0.204295 3.92061e-21)
(1.23511 -0.190037 -2.35775e-21)
(1.23013 -0.176302 1.25731e-21)
(0.128837 -0.00758308 1.72038e-21)
(0.338889 -0.0356417 -3.59359e-21)
(0.518814 -0.0763127 -3.77001e-21)
(0.672338 -0.117039 1.30159e-21)
(0.802543 -0.156917 -5.50161e-21)
(0.911384 -0.191593 8.57565e-22)
(1.00078 -0.220421 -4.92489e-22)
(1.07258 -0.24231 -5.58636e-22)
(1.12874 -0.257405 -1.06016e-23)
(1.1713 -0.266019 -1.31379e-21)
(1.20234 -0.268891 1.57153e-21)
(1.22387 -0.266877 -2.74931e-21)
(1.2378 -0.260923 -3.37129e-21)
(1.24583 -0.25195 7.35875e-22)
(1.24943 -0.240804 2.08685e-21)
(1.24983 -0.228223 -8.6127e-22)
(1.24798 -0.214804 -1.42149e-21)
(1.24461 -0.201043 -5.75213e-22)
(1.24017 -0.187224 -3.41148e-22)
(1.23513 -0.17378 -3.72404e-22)
(0.126038 -0.00504751 4.74411e-21)
(0.332798 -0.0293206 -1.0712e-21)
(0.511001 -0.067274 -2.27417e-21)
(0.663915 -0.106119 -1.4704e-22)
(0.79436 -0.144895 -3.7871e-21)
(0.90404 -0.179105 -4.36236e-21)
(0.994694 -0.208001 3.06649e-21)
(1.06799 -0.230367 2.82549e-21)
(1.12574 -0.246235 -2.98908e-21)
(1.16989 -0.25581 1.64119e-21)
(1.20239 -0.259734 -2.9935e-22)
(1.22522 -0.25879 -1.60894e-22)
(1.24023 -0.253863 8.58063e-22)
(1.24913 -0.245836 -9.5691e-22)
(1.25339 -0.235534 -1.56752e-21)
(1.25424 -0.223684 -4.93084e-22)
(1.25268 -0.210889 -4.63374e-22)
(1.24947 -0.197645 2.16926e-22)
(1.24507 -0.184284 2.99038e-22)
(1.23999 -0.171147 -1.41393e-22)
(0.123123 -0.00261885 4.62646e-21)
(0.326434 -0.0232096 -9.47791e-22)
(0.50278 -0.0584687 -2.2275e-21)
(0.654964 -0.0954108 3.84101e-22)
(0.785553 -0.13303 -4.82725e-21)
(0.896004 -0.166703 -3.85024e-21)
(0.987871 -0.195594 2.68692e-21)
(1.06265 -0.218368 3.06826e-21)
(1.12201 -0.23495 -2.59245e-21)
(1.16776 -0.245438 1.59769e-21)
(1.20179 -0.250384 -7.16115e-22)
(1.22597 -0.250492 -5.45478e-23)
(1.24215 -0.246588 7.63242e-22)
(1.25198 -0.239512 -5.84459e-22)
(1.25696 -0.230065 -1.92766e-21)
(1.25834 -0.218962 -5.95619e-22)
(1.25712 -0.206809 -5.10406e-22)
(1.25411 -0.194102 2.13957e-22)
(1.24979 -0.181217 2.49975e-22)
(1.24471 -0.168401 -1.9889e-22)
(0.120099 -0.000302584 1.87212e-21)
(0.319816 -0.0173222 -3.86193e-21)
(0.494171 -0.0499156 -3.35475e-21)
(0.645509 -0.0849369 8.54225e-22)
(0.776143 -0.121347 -5.34354e-21)
(0.887289 -0.154417 7.89922e-23)
(0.980319 -0.183227 7.49444e-22)
(1.05655 -0.206337 -8.79941e-22)
(1.11753 -0.22357 -9.67875e-22)
(1.16492 -0.234923 -9.5175e-22)
(1.20051 -0.240855 1.13374e-21)
(1.22611 -0.241994 -3.31461e-21)
(1.24351 -0.239105 -3.69207e-21)
(1.25436 -0.232982 5.32582e-22)
(1.26013 -0.2244 2.71214e-21)
(1.2621 -0.21406 -9.18349e-22)
(1.26129 -0.202567 -2.20029e-21)
(1.25852 -0.190413 -1.3245e-21)
(1.25433 -0.178024 -1.49336e-23)
(1.24928 -0.165542 -8.62461e-22)
(0.117004 0.00189802 -7.85156e-21)
(0.312982 -0.011668 -1.67723e-21)
(0.485213 -0.0416299 1.51867e-20)
(0.635581 -0.0747174 -7.82368e-22)
(0.766157 -0.109871 -4.07327e-23)
(0.877914 -0.14227 1.18133e-20)
(0.972051 -0.170926 -2.02677e-20)
(1.04971 -0.194299 7.94186e-21)
(1.1123 -0.212118 1.55235e-20)
(1.16134 -0.224281 1.33689e-21)
(1.19854 -0.231162 7.65099e-21)
(1.22562 -0.233308 -1.74977e-21)
(1.24431 -0.231421 1.18428e-21)
(1.25624 -0.226252 7.6831e-22)
(1.26287 -0.218543 -1.95933e-21)
(1.26549 -0.208978 5.42429e-22)
(1.26515 -0.198161 -2.34097e-21)
(1.26269 -0.186578 6.34069e-21)
(1.25867 -0.174703 -3.92659e-21)
(1.25368 -0.162571 2.85247e-21)
(0.113848 0.00398072 5.93192e-21)
(0.305953 -0.00625473 6.19544e-21)
(0.475928 -0.0336249 -1.68812e-20)
(0.625205 -0.0647705 1.03969e-20)
(0.755616 -0.098623 -7.03788e-21)
(0.867897 -0.130287 5.56474e-22)
(0.963077 -0.158715 2.18136e-20)
(1.04213 -0.182277 4.69887e-21)
(1.10631 -0.200614 -1.21345e-20)
(1.15703 -0.213534 7.56488e-21)
(1.19586 -0.22132 -6.8272e-21)
(1.22447 -0.224444 4.2646e-21)
(1.24452 -0.223546 3.48755e-21)
(1.2576 -0.219327 1.46291e-20)
(1.26517 -0.212496 9.74964e-21)
(1.26851 -0.203718 5.60988e-21)
(1.2687 -0.193592 1.31701e-20)
(1.26661 -0.182597 -8.76936e-21)
(1.2628 -0.171254 1.8913e-21)
(1.25791 -0.159485 -4.78635e-21)
(0.110638 0.00594359 -4.55103e-20)
(0.298744 -0.00108941 2.99387e-20)
(0.466339 -0.025913 1.28354e-20)
(0.614404 -0.0551136 -8.92084e-21)
(0.74454 -0.0876242 4.75107e-20)
(0.857255 -0.118493 -2.35123e-20)
(0.953408 -0.146619 3.06824e-21)
(1.03381 -0.170296 -1.24983e-20)
(1.09957 -0.189083 2.34902e-21)
(1.15197 -0.202699 -1.9889e-20)
(1.19247 -0.211345 -5.98891e-21)
(1.22265 -0.215416 -4.62131e-22)
(1.24412 -0.215488 -8.23047e-21)
(1.25842 -0.212212 -2.10353e-20)
(1.267 -0.206263 9.32748e-22)
(1.27113 -0.198281 -1.38214e-21)
(1.27192 -0.188861 -4.84719e-21)
(1.27024 -0.17847 2.95989e-21)
(1.26671 -0.167676 7.20244e-21)
(1.26196 -0.156284 5.88135e-21)
(0.107382 0.00778517 5.81813e-20)
(0.291373 0.00382195 -3.98976e-20)
(0.456468 -0.0185055 -2.26375e-20)
(0.603202 -0.0457629 7.78686e-21)
(0.732953 -0.0768951 -3.09845e-20)
(0.846005 -0.106909 2.38385e-20)
(0.943058 -0.134662 -1.22515e-20)
(1.02476 -0.158379 3.77745e-20)
(1.09207 -0.177545 1.46784e-20)
(1.14615 -0.191796 8.72106e-21)
(1.18835 -0.201253 -5.57282e-21)
(1.22015 -0.206236 2.62093e-21)
(1.24309 -0.207257 7.93208e-21)
(1.25867 -0.204915 3.19007e-21)
(1.26833 -0.199847 -8.4502e-21)
(1.27333 -0.192669 4.71101e-21)
(1.27478 -0.183968 -8.95775e-21)
(1.27358 -0.174194 1.01784e-21)
(1.27037 -0.163968 -1.16814e-21)
(1.2658 -0.152965 -6.32126e-21)
(0.104086 0.00950452 2.0658e-20)
(0.283857 0.00847434 2.27256e-20)
(0.446337 -0.0114125 1.0349e-20)
(0.591622 -0.0367332 1.90411e-23)
(0.720878 -0.0664546 2.00422e-20)
(0.83417 -0.0955579 -1.46882e-20)
(0.932042 -0.122868 9.72198e-21)
(1.01498 -0.146551 -2.34708e-21)
(1.08382 -0.166023 -2.91712e-20)
(1.13957 -0.180846 1.66605e-20)
(1.18348 -0.191062 2.03617e-20)
(1.21694 -0.196918 -7.52878e-21)
(1.2414 -0.198862 -5.74012e-21)
(1.25834 -0.197441 -3.00234e-21)
(1.26915 -0.193252 9.29178e-21)
(1.27509 -0.186884 1.01719e-20)
(1.27726 -0.178912 1.3032e-20)
(1.27661 -0.169771 -9.43001e-21)
(1.27378 -0.160129 5.30959e-21)
(1.26943 -0.149527 -1.60066e-21)
(0.100758 0.0111011 -6.18445e-20)