/*--------------------------------*- C++ -*----------------------------------*\
  =========                 |
  \\      /  F ield         | OpenFOAM: The Open Source CFD Toolbox
   \\    /   O peration     | Website:  https://openfoam.org
    \\  /    A nd           | Version:  7
     \\/     M anipulation  |
\*---------------------------------------------------------------------------*/
FoamFile
{
    version     2.0;
    format      ascii;
    class       volScalarField;
    location    "5";
    object      p;
}
// * * * * * * * * * * * * * * * * * * * * * * * * * * * * * * * * * * * * * //

dimensions      [0 2 -2 0 0 0 0];

internalField   nonuniform List<scalar> 
24200
(
-0.335118
-0.343056
-0.345287
-0.349256
-0.3533
-0.358359
-0.36426
-0.371027
-0.378547
-0.386702
-0.395337
-0.404268
-0.413283
-0.422135
-0.335401
-0.343268
-0.345493
-0.349449
-0.35349
-0.358549
-0.364453
-0.371226
-0.378756
-0.386926
-0.39558
-0.404536
-0.41358
-0.42247
-0.335959
-0.343687
-0.3459
-0.349831
-0.353866
-0.358923
-0.364834
-0.371619
-0.379168
-0.387366
-0.396056
-0.40506
-0.414163
-0.423125
-0.336785
-0.344308
-0.3465
-0.350394
-0.354419
-0.359474
-0.365392
-0.372193
-0.37977
-0.388005
-0.396748
-0.405818
-0.415005
-0.424069
-0.337865
-0.345118
-0.347284
-0.351126
-0.355138
-0.360186
-0.366111
-0.372931
-0.38054
-0.388822
-0.397627
-0.406779
-0.416069
-0.425258
-0.339181
-0.346105
-0.348236
-0.352014
-0.356005
-0.361043
-0.366973
-0.373811
-0.381453
-0.389785
-0.398659
-0.407902
-0.417306
-0.426636
-0.435625
-0.340713
-0.347252
-0.349339
-0.353038
-0.357002
-0.362022
-0.367952
-0.374805
-0.382478
-0.390859
-0.399804
-0.40914
-0.418663
-0.42814
-0.437306
-0.342436
-0.348541
-0.350575
-0.354181
-0.358107
-0.363101
-0.369023
-0.375883
-0.38358
-0.392005
-0.401015
-0.41044
-0.420079
-0.4297
-0.43904
-0.344324
-0.349952
-0.351923
-0.355419
-0.359297
-0.364253
-0.370157
-0.377013
-0.384724
-0.393181
-0.402245
-0.411747
-0.42149
-0.431242
-0.440745
-0.34635
-0.351464
-0.353361
-0.356731
-0.360547
-0.365452
-0.371322
-0.378161
-0.38587
-0.394344
-0.403444
-0.413006
-0.422833
-0.432696
-0.442338
-0.348484
-0.353055
-0.354866
-0.358094
-0.361833
-0.366669
-0.37249
-0.379292
-0.38698
-0.39545
-0.404565
-0.414162
-0.424046
-0.433992
-0.443743
-0.350698
-0.354704
-0.356417
-0.359485
-0.36313
-0.367879
-0.373629
-0.380373
-0.388017
-0.396458
-0.40556
-0.415162
-0.425073
-0.435068
-0.444889
-0.352963
-0.356389
-0.357992
-0.360882
-0.364414
-0.369054
-0.374712
-0.381373
-0.388946
-0.397328
-0.406387
-0.415962
-0.425863
-0.435867
-0.445719
-0.355251
-0.358091
-0.35957
-0.362266
-0.365664
-0.370173
-0.375711
-0.382262
-0.389735
-0.398028
-0.407009
-0.41652
-0.426372
-0.436344
-0.446182
-0.357535
-0.359792
-0.361135
-0.363619
-0.36686
-0.371212
-0.376604
-0.383015
-0.390356
-0.398526
-0.407394
-0.416804
-0.426567
-0.436465
-0.446244
-0.359792
-0.361475
-0.362668
-0.364923
-0.367986
-0.372154
-0.377371
-0.383611
-0.390788
-0.3988
-0.407519
-0.416789
-0.426425
-0.436207
-0.445886
-0.455186
-0.361999
-0.363125
-0.364157
-0.366167
-0.369028
-0.372985
-0.377996
-0.384033
-0.391013
-0.398833
-0.407368
-0.416462
-0.425931
-0.435559
-0.445098
-0.454273
-0.36414
-0.364729
-0.36559
-0.36734
-0.369974
-0.373693
-0.378468
-0.384271
-0.39102
-0.398615
-0.406931
-0.415815
-0.425083
-0.434522
-0.443886
-0.452902
-0.366194
-0.366278
-0.366959
-0.368434
-0.37082
-0.374273
-0.378782
-0.384319
-0.390806
-0.398144
-0.40621
-0.414853
-0.42389
-0.43311
-0.442269
-0.451098
-0.36815
-0.367766
-0.368257
-0.369445
-0.37156
-0.374721
-0.378936
-0.384177
-0.390372
-0.397424
-0.405213
-0.413587
-0.422368
-0.431345
-0.440277
-0.448895
-0.37
-0.369188
-0.36948
-0.370371
-0.372195
-0.37504
-0.378932
-0.38385
-0.389727
-0.396468
-0.403955
-0.41204
-0.420545
-0.429261
-0.437948
-0.446338
-0.371737
-0.37054
-0.370628
-0.371215
-0.372728
-0.375234
-0.37878
-0.38335
-0.388885
-0.395294
-0.402461
-0.410241
-0.418455
-0.426898
-0.435328
-0.443479
-0.451057
-0.37336
-0.371823
-0.371703
-0.371979
-0.373165
-0.375313
-0.378491
-0.382693
-0.387866
-0.393926
-0.40076
-0.408223
-0.416139
-0.424301
-0.432469
-0.440372
-0.447714
-0.374867
-0.37304
-0.372708
-0.37267
-0.373516
-0.375288
-0.378081
-0.381897
-0.386694
-0.392394
-0.398886
-0.406026
-0.413641
-0.42152
-0.429422
-0.437072
-0.444165
-0.376265
-0.374193
-0.373649
-0.373295
-0.37379
-0.375176
-0.37757
-0.380988
-0.385399
-0.390731
-0.396877
-0.403695
-0.411009
-0.418606
-0.426241
-0.43363
-0.44046
-0.377559
-0.37529
-0.374533
-0.373865
-0.374002
-0.374991
-0.376977
-0.37999
-0.384011
-0.388974
-0.394775
-0.401273
-0.40829
-0.415608
-0.422974
-0.430093
-0.43664
-0.442254
-0.378759
-0.376337
-0.375368
-0.37439
-0.374165
-0.374754
-0.376328
-0.378933
-0.382563
-0.387159
-0.392621
-0.398806
-0.405531
-0.412572
-0.419664
-0.426501
-0.432737
-0.437996
-0.379879
-0.377344
-0.376167
-0.374882
-0.374295
-0.374484
-0.375646
-0.377845
-0.381089
-0.385326
-0.390456
-0.396335
-0.402775
-0.409539
-0.41635
-0.422882
-0.428773
-0.433627
-0.380933
-0.378322
-0.376939
-0.375354
-0.374409
-0.374201
-0.374956
-0.376757
-0.379623
-0.38351
-0.388319
-0.393902
-0.400059
-0.406544
-0.413058
-0.419257
-0.424758
-0.429147
-0.432003
-0.381938
-0.379281
-0.377697
-0.375821
-0.374523
-0.373927
-0.374284
-0.375697
-0.378198
-0.381747
-0.386246
-0.39154
-0.397416
-0.403611
-0.409807
-0.415636
-0.420694
-0.424554
-0.426792
-0.382912
-0.380236
-0.378454
-0.376297
-0.374655
-0.373681
-0.373654
-0.374693
-0.376843
-0.380069
-0.384269
-0.389278
-0.39487
-0.40076
-0.406606
-0.412019
-0.416574
-0.419837
-0.421393
-0.383876
-0.381199
-0.379224
-0.376796
-0.374822
-0.373485
-0.373089
-0.373772
-0.375587
-0.378504
-0.382413
-0.38714
-0.392437
-0.397998
-0.403456
-0.408398
-0.412387
-0.414988
-0.415806
-0.41452
-0.38485
-0.382183
-0.380021
-0.377332
-0.37504
-0.373357
-0.372612
-0.372956
-0.374454
-0.377074
-0.3807
-0.38514
-0.390127
-0.395327
-0.400349
-0.404762
-0.40812
-0.41
-0.410038
-0.407964
-0.385857
-0.383205
-0.38086
-0.377921
-0.375326
-0.373316
-0.372241
-0.372267
-0.373464
-0.375798
-0.379143
-0.383286
-0.387938
-0.392738
-0.397272
-0.401093
-0.40376
-0.404872
-0.404105
-0.401248
-0.386918
-0.384277
-0.381755
-0.378577
-0.375694
-0.373377
-0.371994
-0.371721
-0.372632
-0.374689
-0.377749
-0.381581
-0.385866
-0.390219
-0.394207
-0.397377
-0.3993
-0.399608
-0.39803
-0.394414
-0.388733
-0.388054
-0.385415
-0.382719
-0.379312
-0.37616
-0.373556
-0.371885
-0.371331
-0.371971
-0.373753
-0.376521
-0.380017
-0.383897
-0.387753
-0.391136
-0.393598
-0.394735
-0.394221
-0.391843
-0.387509
-0.381246
-0.389286
-0.386632
-0.383767
-0.38014
-0.376735
-0.373865
-0.371926
-0.371109
-0.371485
-0.372992
-0.375453
-0.378584
-0.382015
-0.385319
-0.388041
-0.389748
-0.390069
-0.388732
-0.38558
-0.380581
-0.373804
-0.365404
-0.390633
-0.387942
-0.384911
-0.381073
-0.377432
-0.374314
-0.372126
-0.371059
-0.371177
-0.372404
-0.374536
-0.377266
-0.3802
-0.382897
-0.384906
-0.38582
-0.385312
-0.383164
-0.379279
-0.373674
-0.366454
-0.357788
-0.392115
-0.389357
-0.386163
-0.382122
-0.378259
-0.374911
-0.37249
-0.371184
-0.371046
-0.371978
-0.373756
-0.376045
-0.378431
-0.380468
-0.38172
-0.381815
-0.380477
-0.377545
-0.372978
-0.36683
-0.359233
-0.350363
-0.340414
-0.39375
-0.390891
-0.387533
-0.383292
-0.379221
-0.375658
-0.373016
-0.371477
-0.371077
-0.371699
-0.37309
-0.374892
-0.376679
-0.378009
-0.37847
-0.377735
-0.375581
-0.371904
-0.366709
-0.360084
-0.352173
-0.343151
-0.3332
-0.395565
-0.392556
-0.389029
-0.384586
-0.380314
-0.376546
-0.373692
-0.37192
-0.371249
-0.371537
-0.372505
-0.373776
-0.374918
-0.3755
-0.375149
-0.373584
-0.370641
-0.366267
-0.360505
-0.353464
-0.345295
-0.336164
-0.32624
-0.31568
-0.39754
-0.394353
-0.390662
-0.386023
-0.381564
-0.377602
-0.374543
-0.372537
-0.371581
-0.371507
-0.372012
-0.372703
-0.373152
-0.372953
-0.371775
-0.369391
-0.365691
-0.360669
-0.354395
-0.346994
-0.338614
-0.32941
-0.319533
-0.309121
-0.399696
-0.396293
-0.392438
-0.387603
-0.382964
-0.378814
-0.375552
-0.373305
-0.372045
-0.371575
-0.371574
-0.371639
-0.371355
-0.370349
-0.368341
-0.365159
-0.360744
-0.355125
-0.348396
-0.340685
-0.332134
-0.322885
-0.31307
-0.302808
-0.292209
-0.402047
-0.398385
-0.39436
-0.389326
-0.38451
-0.380176
-0.376709
-0.374208
-0.372618
-0.371718
-0.371166
-0.370561
-0.36951
-0.367683
-0.364853
-0.360904
-0.355818
-0.349656
-0.342523
-0.334547
-0.325859
-0.316585
-0.30684
-0.296728
-0.286341
-0.275765
-0.404598
-0.400631
-0.396433
-0.391194
-0.386203
-0.381684
-0.378004
-0.375233
-0.373286
-0.371915
-0.370767
-0.369452
-0.367608
-0.364955
-0.36132
-0.356638
-0.35093
-0.344276
-0.336785
-0.328582
-0.319783
-0.3105
-0.300831
-0.290865
-0.28068
-0.270351
-0.407353
-0.403038
-0.398659
-0.393208
-0.388041
-0.383332
-0.379429
-0.376367
-0.374029
-0.372145
-0.370359
-0.368298
-0.365642
-0.362165
-0.35775
-0.352376
-0.346093
-0.338993
-0.331188
-0.322789
-0.313902
-0.304621
-0.295029
-0.285203
-0.275209
-0.265111
-0.254968
-0.410315
-0.405607
-0.401042
-0.395369
-0.390021
-0.385116
-0.380975
-0.377595
-0.374829
-0.372389
-0.369921
-0.367084
-0.363605
-0.359317
-0.354153
-0.348129
-0.341317
-0.333816
-0.325732
-0.317164
-0.308205
-0.298933
-0.289419
-0.279726
-0.269912
-0.260031
-0.250135
-0.24027
-0.413484
-0.408341
-0.403581
-0.397676
-0.392142
-0.387029
-0.382631
-0.378903
-0.375668
-0.372626
-0.369438
-0.3658
-0.361497
-0.356416
-0.350536
-0.343905
-0.336609
-0.328746
-0.320414
-0.311701
-0.302682
-0.293424
-0.283985
-0.274419
-0.264773
-0.255096
-0.245429
-0.235817
-0.226298
-0.416862
-0.411242
-0.40628
-0.40013
-0.394401
-0.389066
-0.384386
-0.380275
-0.376527
-0.372838
-0.368894
-0.364439
-0.359316
-0.353465
-0.346907
-0.339712
-0.331973
-0.323784
-0.315231
-0.306389
-0.297321
-0.28808
-0.278714
-0.269266
-0.259779
-0.250291
-0.240841
-0.231464
-0.222197
-0.21307
-0.420446
-0.414311
-0.409138
-0.402732
-0.396796
-0.39122
-0.38623
-0.381696
-0.377388
-0.373008
-0.368277
-0.362995
-0.357063
-0.350471
-0.343273
-0.335555
-0.32741
-0.318925
-0.310174
-0.301219
-0.292108
-0.282886
-0.273589
-0.264254
-0.254914
-0.245604
-0.236356
-0.227201
-0.218169
-0.209289
-0.424235
-0.417548
-0.412157
-0.40548
-0.399325
-0.393486
-0.388153
-0.38315
-0.378233
-0.37312
-0.367577
-0.361463
-0.354739
-0.347438
-0.339639
-0.331436
-0.32292
-0.314166
-0.305237
-0.296179
-0.287032
-0.277828
-0.268597
-0.259367
-0.250166
-0.241023
-0.231964
-0.223017
-0.214207
-0.205559
-0.197095
-0.428227
-0.420955
-0.415337
-0.408376
-0.401985
-0.395857
-0.390141
-0.384621
-0.379046
-0.37316
-0.366784
-0.359842
-0.352347
-0.34437
-0.336008
-0.327356
-0.318499
-0.309501
-0.300408
-0.291259
-0.282079
-0.272894
-0.263724
-0.254593
-0.245523
-0.236535
-0.227655
-0.218903
-0.210302
-0.201872
-0.193633
-0.185602
-0.432419
-0.42453
-0.418679
-0.411419
-0.404774
-0.398325
-0.392182
-0.386093
-0.379808
-0.373114
-0.365892
-0.35813
-0.349889
-0.34127
-0.332381
-0.323315
-0.314144
-0.30492
-0.29568
-0.286446
-0.277237
-0.268069
-0.258958
-0.24992
-0.240971
-0.232131
-0.223418
-0.214851
-0.206447
-0.198223
-0.190197
-0.182383
-0.174793
-0.436808
-0.428275
-0.422184
-0.414608
-0.407687
-0.400882
-0.394263
-0.387549
-0.380506
-0.372971
-0.364895
-0.356326
-0.347367
-0.338141
-0.328759
-0.319308
-0.309848
-0.300417
-0.291039
-0.281728
-0.272493
-0.263342
-0.254286
-0.245335
-0.236502
-0.2278
-0.219245
-0.210851
-0.202633
-0.194605
-0.18678
-0.179171
-0.171789
-0.164643
-0.15774
-0.441388
-0.432188
-0.425851
-0.417944
-0.410722
-0.403518
-0.396369
-0.388972
-0.381123
-0.372722
-0.36379
-0.35443
-0.344783
-0.334984
-0.325142
-0.315333
-0.305605
-0.295983
-0.286478
-0.277094
-0.267834
-0.2587
-0.249696
-0.240827
-0.232103
-0.223533
-0.215127
-0.206897
-0.198855
-0.191012
-0.183378
-0.175964
-0.168777
-0.161828
-0.15512
-0.148664
-0.446157
-0.436267
-0.42968
-0.421424
-0.41387
-0.406222
-0.398484
-0.390345
-0.381646
-0.372358
-0.362572
-0.352444
-0.342139
-0.331799
-0.321526
-0.311385
-0.301408
-0.291607
-0.281984
-0.272534
-0.263251
-0.254133
-0.245178
-0.236387
-0.227766
-0.219319
-0.211055
-0.202981
-0.195106
-0.187438
-0.179985
-0.172756
-0.165757
-0.158994
-0.152471
-0.146197
-0.140163
-0.451109
-0.440512
-0.433669
-0.425045
-0.417126
-0.408981
-0.400591
-0.391651
-0.382061
-0.371872
-0.361241
-0.350367
-0.339434
-0.328584
-0.317909
-0.307457
-0.297248
-0.287281
-0.277547
-0.268035
-0.258731
-0.249629
-0.24072
-0.232004
-0.223481
-0.215152
-0.207022
-0.199096
-0.191379
-0.183878
-0.176598
-0.169545
-0.162724
-0.156139
-0.149793
-0.143693
-0.137831
-0.132243
-0.456237
-0.444919
-0.437815
-0.428802
-0.420479
-0.41178
-0.402672
-0.392873
-0.382357
-0.371257
-0.359793
-0.348199
-0.336669
-0.325338
-0.314285
-0.303543
-0.293117
-0.282995
-0.273158
-0.263587
-0.254265
-0.245177
-0.236314
-0.227669
-0.219239
-0.211023
-0.203021
-0.195235
-0.18767
-0.180328
-0.173212
-0.166327
-0.159675
-0.15326
-0.147084
-0.141151
-0.135453
-0.130022
-0.124752
-0.119941
-0.461534
-0.449483
-0.442115
-0.432688
-0.423919
-0.414603
-0.404707
-0.393994
-0.382523
-0.370508
-0.358227
-0.345939
-0.333841
-0.322058
-0.310651
-0.299637
-0.289007
-0.27874
-0.268806
-0.259182
-0.249842
-0.24077
-0.23195
-0.223374
-0.215033
-0.206924
-0.199044
-0.191393
-0.183972
-0.176782
-0.169823
-0.163098
-0.156609
-0.150357
-0.144343
-0.138568
-0.133029
-0.127748
-0.122633
-0.117961
-0.466992
-0.4542
-0.446562
-0.436695
-0.42743
-0.41743
-0.406678
-0.395
-0.382549
-0.36962
-0.356541
-0.343587
-0.33095
-0.31874
-0.306999
-0.29573
-0.28491
-0.274506
-0.264482
-0.254808
-0.245453
-0.236397
-0.22762
-0.219109
-0.210854
-0.202848
-0.195086
-0.187564
-0.180281
-0.173236
-0.166427
-0.159856
-0.153522
-0.147426
-0.141567
-0.135946
-0.130558
-0.125422
-0.120457
-0.115917
-0.4726
-0.459063
-0.451148
-0.440812
-0.430997
-0.420241
-0.408565
-0.395874
-0.382424
-0.368589
-0.354732
-0.34114
-0.327992
-0.315378
-0.303325
-0.291816
-0.280817
-0.270285
-0.260177
-0.250456
-0.241089
-0.232049
-0.223314
-0.214868
-0.206696
-0.198789
-0.19114
-0.183742
-0.176592
-0.169685
-0.163021
-0.156598
-0.150413
-0.144466
-0.138756
-0.133282
-0.128039
-0.123043
-0.118222
-0.113809
-0.478347
-0.464063
-0.455864
-0.445025
-0.434601
-0.423014
-0.410346
-0.396601
-0.382141
-0.367409
-0.3528
-0.338596
-0.324963
-0.311969
-0.299621
-0.287886
-0.276719
-0.266067
-0.255882
-0.246119
-0.236741
-0.227719
-0.219026
-0.210642
-0.202552
-0.194741
-0.187201
-0.179922
-0.172899
-0.166127
-0.159602
-0.15332
-0.147279
-0.141475
-0.135908
-0.130576
-0.125473
-0.120612
-0.11593
-0.111639
-0.484219
-0.469189
-0.460698
-0.449318
-0.438219
-0.425725
-0.412001
-0.397168
-0.381691
-0.366077
-0.35074
-0.335953
-0.321859
-0.308507
-0.29588
-0.283934
-0.272609
-0.261845
-0.251587
-0.241787
-0.232402
-0.223399
-0.214748
-0.206426
-0.198415
-0.190698
-0.183263
-0.1761
-0.1692
-0.162558
-0.156166
-0.15002
-0.144117
-0.138452
-0.133023
-0.127827
-0.12286
-0.118128
-0.11358
-0.109407
-0.490201
-0.474429
-0.465633
-0.453672
-0.441829
-0.428351
-0.413511
-0.39756
-0.381067
-0.364589
-0.348549
-0.333205
-0.318676
-0.304985
-0.292096
-0.279951
-0.268478
-0.25761
-0.247286
-0.237453
-0.228064
-0.219081
-0.210473
-0.202213
-0.194279
-0.186654
-0.179322
-0.172271
-0.165491
-0.158973
-0.15271
-0.146696
-0.140926
-0.135395
-0.130099
-0.125035
-0.120197
-0.115591
-0.111172
-0.107113
-0.496274
-0.479768
-0.470654
-0.458066
-0.445405
-0.430864
-0.414855
-0.397764
-0.38026
-0.36294
-0.346224
-0.33035
-0.315408
-0.301397
-0.288262
-0.275929
-0.264318
-0.253355
-0.242971
-0.233109
-0.223718
-0.214759
-0.206194
-0.197996
-0.190139
-0.182603
-0.175372
-0.16843
-0.161766
-0.15537
-0.149232
-0.143346
-0.137705
-0.132303
-0.127136
-0.122198
-0.117487
-0.113001
-0.108707
-0.104757
-0.50242
-0.485189
-0.475741
-0.462475
-0.448918
-0.433241
-0.416014
-0.397769
-0.379263
-0.361124
-0.34376
-0.327382
-0.312049
-0.297736
-0.28437
-0.271862
-0.260123
-0.249071
-0.238633
-0.228748
-0.21936
-0.210426
-0.201906
-0.19377
-0.18599
-0.178543
-0.17141
-0.164575
-0.158024
-0.151745
-0.145729
-0.139967
-0.134451
-0.129174
-0.124131
-0.119317
-0.114727
-0.110359
-0.106185
-0.102341
-0.508614
-0.490672
-0.48087
-0.466872
-0.452339
-0.435454
-0.416968
-0.397561
-0.378069
-0.359137
-0.341153
-0.324295
-0.308594
-0.293996
-0.280412
-0.267741
-0.255884
-0.244752
-0.234267
-0.224363
-0.214982
-0.206076
-0.197603
-0.189529
-0.181826
-0.174466
-0.167431
-0.1607
-0.15426
-0.148097
-0.1422
-0.136558
-0.131163
-0.126008
-0.121086
-0.116391
-0.111918
-0.107664
-0.103607
-0.0998645
-0.514834
-0.496196
-0.486016
-0.471228
-0.455638
-0.437477
-0.417699
-0.397129
-0.376671
-0.356972
-0.338397
-0.321085
-0.305035
-0.29017
-0.276383
-0.26356
-0.251594
-0.24039
-0.229865
-0.219948
-0.210578
-0.201703
-0.193279
-0.18527
-0.177642
-0.170371
-0.163431
-0.156804
-0.150473
-0.144423
-0.138641
-0.133116
-0.12784
-0.122803
-0.117998
-0.113419
-0.109061
-0.104917
-0.100973
-0.0973282
-0.521052
-0.501736
-0.491152
-0.47551
-0.458782
-0.439285
-0.41819
-0.396462
-0.375061
-0.354626
-0.335486
-0.317744
-0.301366
-0.286251
-0.272274
-0.259312
-0.247247
-0.23598
-0.225422
-0.215497
-0.206142
-0.197302
-0.188929
-0.180986
-0.173436
-0.166252
-0.159408
-0.152883
-0.146658
-0.140719
-0.13505
-0.129641
-0.12448
-0.119558
-0.114867
-0.110401
-0.106154
-0.102118
-0.0982832
-0.0947329
-0.527238
-0.507266
-0.496247
-0.479687
-0.46174
-0.440852
-0.418423
-0.39555
-0.373231
-0.35209
-0.332415
-0.314267
-0.297581
-0.282232
-0.26808
-0.254989
-0.242837
-0.231514
-0.22093
-0.211004
-0.201669
-0.192868
-0.184549
-0.176673
-0.169202
-0.162105
-0.155357
-0.148933
-0.142815
-0.136984
-0.131427
-0.12613
-0.121082
-0.116273
-0.111694
-0.107338
-0.103199
-0.0992674
-0.0955383
-0.0920794
-0.533363
-0.512756
-0.501269
-0.483721
-0.464478
-0.442154
-0.418381
-0.39438
-0.371174
-0.349359
-0.329176
-0.310647
-0.293673
-0.278107
-0.263793
-0.250587
-0.238356
-0.226988
-0.216385
-0.206464
-0.197155
-0.188395
-0.180135
-0.172328
-0.164937
-0.157929
-0.151276
-0.144953
-0.13894
-0.133217
-0.12777
-0.122583
-0.117646
-0.112947
-0.108477
-0.104229
-0.100195
-0.0963654
-0.092739
-0.0893685
-0.539391
-0.518176
-0.506181
-0.487577
-0.466964
-0.443166
-0.418049
-0.392943
-0.368883
-0.346426
-0.325765
-0.306878
-0.289635
-0.273868
-0.259408
-0.246097
-0.233799
-0.222394
-0.211781
-0.201872
-0.192593
-0.183881
-0.175681
-0.167946
-0.160637
-0.153719
-0.147161
-0.14094
-0.135031
-0.129415
-0.124076
-0.118999
-0.114171
-0.10958
-0.105217
-0.101074
-0.0971421
-0.0934127
-0.0898861
-0.0866011
-0.545288
-0.523491
-0.510948
-0.491215
-0.469165
-0.443864
-0.417411
-0.391229
-0.36635
-0.343283
-0.322173
-0.302952
-0.28546
-0.26951
-0.254917
-0.241515
-0.22916
-0.217728
-0.207112
-0.197222
-0.18798
-0.179319
-0.171184
-0.163525
-0.156299
-0.149472
-0.143012
-0.136891
-0.131086
-0.125577
-0.120345
-0.115376
-0.110655
-0.106171
-0.101914
-0.097873
-0.0940418
-0.09041
-0.0869804
-0.0837784
-0.551016
-0.528668
-0.51553
-0.494599
-0.471051
-0.444228
-0.416453
-0.389228
-0.363566
-0.339926
-0.318394
-0.298863
-0.281143
-0.265025
-0.250314
-0.236835
-0.224435
-0.212985
-0.202376
-0.192511
-0.183312
-0.174708
-0.166641
-0.15906
-0.151921
-0.145187
-0.138824
-0.132805
-0.127104
-0.121701
-0.116577
-0.111714
-0.1071
-0.102721
-0.0985662
-0.0946269
-0.0908941
-0.0873581
-0.0840229
-0.0809014
-0.556536
-0.533668
-0.519886
-0.497688
-0.47259
-0.444234
-0.415161
-0.386929
-0.360525
-0.336345
-0.314421
-0.294604
-0.276676
-0.260409
-0.245595
-0.232051
-0.219618
-0.208161
-0.197566
-0.187735
-0.178584
-0.170043
-0.162049
-0.154549
-0.1475
-0.14086
-0.134597
-0.12868
-0.123084
-0.117787
-0.112769
-0.108013
-0.103503
-0.0992281
-0.0951756
-0.0913359
-0.0876996
-0.0842577
-0.0810146
-0.0779713
-0.561807
-0.538452
-0.523975
-0.500445
-0.473751
-0.443864
-0.413521
-0.384325
-0.357218
-0.332534
-0.310248
-0.29017
-0.272053
-0.255655
-0.240754
-0.227158
-0.214703
-0.20325
-0.192679
-0.182889
-0.173794
-0.16532
-0.157404
-0.14999
-0.143033
-0.13649
-0.130328
-0.124514
-0.119024
-0.113833
-0.108921
-0.104271
-0.099866
-0.0956937
-0.0917419
-0.0880004
-0.0844593
-0.0811099
-0.0779566
-0.0749896
-0.566786
-0.542981
-0.527754
-0.502831
-0.474508
-0.443097
-0.41152
-0.381404
-0.353637
-0.328485
-0.305867
-0.285552
-0.267269
-0.250758
-0.235785
-0.222152
-0.209688
-0.198248
-0.18771
-0.17797
-0.168938
-0.160537
-0.152703
-0.14538
-0.138517
-0.132075
-0.126015
-0.120307
-0.114923
-0.109839
-0.105033
-0.100488
-0.0961876
-0.0921175
-0.0882655
-0.0846211
-0.0811738
-0.0779157
-0.0748502
-0.0719576
-0.571435
-0.547217
-0.531184
-0.504811
-0.474833
-0.441916
-0.409147
-0.378158
-0.349775
-0.324193
-0.301272
-0.280746
-0.262318
-0.245712
-0.230684
-0.217028
-0.204567
-0.193152
-0.182658
-0.172975
-0.164012
-0.155692
-0.147946
-0.140716
-0.133953
-0.127612
-0.121658
-0.116057
-0.11078
-0.105803
-0.101104
-0.096665
-0.0924683
-0.0884999
-0.0847471
-0.0811989
-0.0778443
-0.0746762
-0.0716967
-0.0688769
-0.57571
-0.551119
-0.534222
-0.506348
-0.474699
-0.440304
-0.40639
-0.37458
-0.345626
-0.31965
-0.296459
-0.275746
-0.257195
-0.240513
-0.225447
-0.211782
-0.199338
-0.18796
-0.177518
-0.167901
-0.159016
-0.150782
-0.143128
-0.135997
-0.129337
-0.123102
-0.117255
-0.111762
-0.106594
-0.101726
-0.0971349
-0.0928014
-0.0887086
-0.0848415
-0.0811874
-0.0777345
-0.0744718
-0.0713929
-0.0684976
-0.0657494
-0.579535
-0.554614
-0.5368
-0.507392
-0.474077
-0.438245
-0.403243
-0.370665
-0.341187
-0.314855
-0.291423
-0.270551
-0.251898
-0.235159
-0.220071
-0.206414
-0.193998
-0.182668
-0.172289
-0.162747
-0.153947
-0.145805
-0.138251
-0.131223
-0.124669
-0.118543
-0.112806
-0.107424
-0.102367
-0.0976078
-0.0931248
-0.0888976
-0.0849088
-0.0811431
-0.0775872
-0.0742292
-0.0710577
-0.0680669
-0.0652545
-0.0625771
-0.582802
-0.557606
-0.538839
-0.507888
-0.472932
-0.435721
-0.399694
-0.366406
-0.336451
-0.309802
-0.28616
-0.265154
-0.246422
-0.229646
-0.214554
-0.200918
-0.188545
-0.177274
-0.166968
-0.157511
-0.148803
-0.140761
-0.133311
-0.126391
-0.119947
-0.113934
-0.10831
-0.103041
-0.0980958
-0.0934479
-0.0890741
-0.0849539
-0.0810695
-0.0774052
-0.0739475
-0.070684
-0.067603
-0.0646998
-0.0619688
-0.0593615
-0.585661
-0.560219
-0.540429
-0.50789
-0.471293
-0.432739
-0.395739
-0.361794
-0.331408
-0.304479
-0.280659
-0.259546
-0.240758
-0.223965
-0.208887
-0.195289
-0.182973
-0.171774
-0.161552
-0.152188
-0.143581
-0.135645
-0.128306
-0.121499
-0.115171
-0.109274
-0.103766
-0.0986121
-0.0937812
-0.089246
-0.0849827
-0.0809703
-0.0771909
-0.0736284
-0.070269
-0.0670998
-0.0641092
-0.0612933
-0.0586433
-0.056103
-0.588004
-0.56234
-0.541468
-0.507325
-0.469111
-0.429272
-0.391364
-0.35682
-0.32605
-0.298881
-0.274917
-0.253724
-0.234905
-0.218116
-0.20307
-0.189525
-0.17728
-0.166166
-0.156039
-0.146778
-0.13828
-0.130458
-0.123235
-0.116548
-0.110339
-0.104561
-0.099173
-0.0941376
-0.0894232
-0.0850025
-0.080851
-0.0769476
-0.0732739
-0.0698137
-0.0665528
-0.0634781
-0.0605777
-0.0578496
-0.0552809
-0.0528011
-0.589762
-0.563907
-0.541907
-0.506158
-0.466367
-0.425309
-0.38656
-0.351477
-0.320374
-0.293005
-0.268929
-0.247685
-0.228858
-0.212095
-0.197099
-0.183625
-0.171465
-0.160448
-0.150427
-0.141279
-0.132899
-0.125198
-0.118098
-0.111535
-0.105451
-0.0997972
-0.0945317
-0.0896174
-0.085022
-0.0807176
-0.0766796
-0.0728865
-0.0693194
-0.0659621
-0.0628002
-0.0598203
-0.0570105
-0.0543702
-0.05188
-0.0494669
-0.590897
-0.564886
-0.541713
-0.504366
-0.463046
-0.420839
-0.381322
-0.345761
-0.314374
-0.286846
-0.262692
-0.241425
-0.222615
-0.205899
-0.190973
-0.177586
-0.165526
-0.154619
-0.144716
-0.13569
-0.127437
-0.119864
-0.112895
-0.106461
-0.100507
-0.0949809
-0.0898418
-0.0850516
-0.0805783
-0.0763921
-0.0724692
-0.0687879
-0.0653286
-0.0620751
-0.0590128
-0.0561277
-0.053409
-0.0508563
-0.0484428
-0.0460986
-0.591373
-0.565238
-0.540855
-0.501927
-0.459134
-0.415855
-0.375643
-0.339666
-0.308046
-0.2804
-0.256201
-0.234941
-0.216174
-0.199527
-0.18469
-0.171406
-0.159462
-0.148678
-0.138903
-0.130011
-0.121893
-0.114457
-0.107624
-0.101326
-0.0955061
-0.0901131
-0.0851038
-0.0804401
-0.076093
-0.0720269
-0.0682209
-0.0646526
-0.0613024
-0.0581537
-0.0551917
-0.0524022
-0.0497749
-0.0473098
-0.0449729
-0.0426973
-0.591154
-0.564927
-0.539302
-0.498821
-0.45462
-0.41035
-0.369518
-0.333189
-0.301386
-0.273663
-0.249455
-0.228231
-0.209532
-0.192977
-0.178248
-0.165085
-0.153271
-0.142624
-0.13299
-0.124241
-0.116267
-0.108975
-0.102285
-0.0961299
-0.0904489
-0.0851942
-0.0803186
-0.075786
-0.0715646
-0.0676223
-0.0639354
-0.0604819
-0.0572421
-0.0541994
-0.0513386
-0.0486453
-0.04611
-0.0437327
-0.0414725
-0.0392651
-0.590206
-0.563917
-0.537025
-0.49503
-0.449493
-0.404318
-0.362943
-0.326325
-0.294392
-0.266633
-0.242451
-0.221293
-0.202688
-0.186247
-0.171647
-0.158622
-0.146953
-0.136456
-0.126975
-0.11838
-0.110559
-0.103419
-0.0968804
-0.0908728
-0.0853371
-0.0802236
-0.0754863
-0.071088
-0.0669958
-0.0631794
-0.0596138
-0.0562769
-0.0531491
-0.0502136
-0.047455
-0.0448587
-0.0424162
-0.0401272
-0.0379437
-0.0358045
-0.588495
-0.562177
-0.533999
-0.490538
-0.443746
-0.397754
-0.355915
-0.319073
-0.28706
-0.259309
-0.235188
-0.214126
-0.195642
-0.179338
-0.164886
-0.152016
-0.140509
-0.130175
-0.120859
-0.112427
-0.10477
-0.0977906
-0.0914088
-0.0855553
-0.0801702
-0.0752027
-0.0706077
-0.0663471
-0.0623876
-0.0586995
-0.0552575
-0.0520391
-0.0490249
-0.0461979
-0.0435426
-0.0410443
-0.0386954
-0.0364954
-0.0343886
-0.0323182
-0.585992
-0.559674
-0.530203
-0.485333
-0.437372
-0.390655
-0.348432
-0.31143
-0.27939
-0.251689
-0.227665
-0.206729
-0.188392
-0.172249
-0.157967
-0.145268
-0.133937
-0.123782
-0.114642
-0.106385
-0.0988996
-0.0920886
-0.0858714
-0.0801782
-0.074949
-0.0701325
-0.0656838
-0.0615645
-0.057741
-0.0541839
-0.0508677
-0.0477699
-0.044871
-0.042154
-0.0396033
-0.0372041
-0.0349497
-0.0328393
-0.0308094
-0.0288085
-0.582669
-0.556382
-0.525615
-0.479404
-0.430367
-0.38302
-0.340493
-0.303396
-0.27138
-0.243772
-0.219881
-0.199103
-0.180939
-0.16498
-0.150885
-0.138379
-0.12724
-0.117276
-0.108325
-0.100254
-0.0929489
-0.0863146
-0.0802691
-0.0747426
-0.0696748
-0.0650141
-0.0607159
-0.0567415
-0.0530573
-0.049634
-0.046446
-0.0434708
-0.0406891
-0.0380836
-0.0356388
-0.0333399
-0.0311812
-0.0291612
-0.0272084
-0.025278
-0.578502
-0.552274
-0.520221
-0.472744
-0.422728
-0.374847
-0.332097
-0.294971
-0.263032
-0.235559
-0.211836
-0.191247
-0.173283
-0.15753
-0.143643
-0.131353
-0.120419
-0.11066
-0.101909
-0.0940335
-0.0869191
-0.0804696
-0.0746032
-0.0692496
-0.0643487
-0.0598489
-0.0557054
-0.0518796
-0.048338
-0.0450513
-0.041994
-0.0391437
-0.0364809
-0.0339887
-0.0316512
-0.0294537
-0.027392
-0.0254633
-0.023588
-0.0217292
-0.573469
-0.547329
-0.514007
-0.465346
-0.414455
-0.366137
-0.323246
-0.286155
-0.254345
-0.227051
-0.203533
-0.183163
-0.165427
-0.149903
-0.136247
-0.124185
-0.113476
-0.103934
-0.0953956
-0.0877262
-0.0808116
-0.0745552
-0.0688749
-0.0637007
-0.0589723
-0.0546382
-0.0506537
-0.0469803
-0.0435846
-0.0404374
-0.0375134
-0.0347901
-0.0322483
-0.0298711
-0.0276424
-0.0255478
-0.0235843
-0.0217478
-0.0199504
-0.0181647
-0.56755
-0.541528
-0.506963
-0.457208
-0.405548
-0.356893
-0.313942
-0.27695
-0.245321
-0.218248
-0.194971
-0.174853
-0.157372
-0.142101
-0.128697
-0.116879
-0.106409
-0.0970993
-0.0887859
-0.0813335
-0.074628
-0.0685729
-0.0630861
-0.0580975
-0.0535472
-0.0493837
-0.0455626
-0.0420454
-0.038799
-0.0357943
-0.033006
-0.0304121
-0.0279933
-0.0257328
-0.0236145
-0.0216242
-0.0197603
-0.018017
-0.0162982
-0.014587
-0.560731
-0.534854
-0.499082
-0.44833
-0.39601
-0.347118
-0.304187
-0.26736
-0.235963
-0.209154
-0.186155
-0.166321
-0.14912
-0.134126
-0.120993
-0.109437
-0.0992235
-0.0901591
-0.0820824
-0.0748575
-0.0683704
-0.0625247
-0.0572385
-0.0524419
-0.0480753
-0.0440874
-0.0404339
-0.0370768
-0.033983
-0.0311237
-0.0284739
-0.0260116
-0.0237178
-0.0215759
-0.0195695
-0.0176851
-0.0159223
-0.0142731
-0.0126337
-0.0109986
-0.552998
-0.527295
-0.490361
-0.438714
-0.385846
-0.336817
-0.293987
-0.257387
-0.226274
-0.199771
-0.17709
-0.157568
-0.140674
-0.125981
-0.113138
-0.101864
-0.0919203
-0.0831154
-0.0752873
-0.0683004
-0.062041
-0.0564128
-0.0513343
-0.0467361
-0.0425586
-0.0387511
-0.0352697
-0.0320764
-0.0291386
-0.0264277
-0.023919
-0.0215907
-0.019424
-0.0174025
-0.0155098
-0.0137328
-0.0120724
-0.0105186
-0.00895935
-0.00740209
-0.544343
-0.518842
-0.480798
-0.428363
-0.375061
-0.325995
-0.283346
-0.247036
-0.216257
-0.190108
-0.167775
-0.148597
-0.132038
-0.117668
-0.105137
-0.0941604
-0.084503
-0.0759711
-0.0684033
-0.0616648
-0.0556421
-0.0502395
-0.0453759
-0.0409821
-0.0369994
-0.0333772
-0.030072
-0.0270464
-0.0242679
-0.0217084
-0.0193435
-0.0171515
-0.0151141
-0.0132148
-0.0114375
-0.00976954
-0.00821314
-0.00675568
-0.00527755
-0.00379993
-0.534758
-0.509488
-0.470396
-0.417285
-0.363664
-0.31466
-0.27227
-0.236312
-0.205922
-0.180165
-0.158218
-0.139414
-0.123216
-0.109192
-0.0969923
-0.0863314
-0.0769748
-0.0687291
-0.0614335
-0.0549536
-0.0491767
-0.0440075
-0.0393657
-0.0351827
-0.0314001
-0.027968
-0.0248433
-0.0219891
-0.0193733
-0.0169682
-0.0147496
-0.0126964
-0.0107903
-0.00901521
-0.00735497
-0.00579761
-0.00434671
-0.00298679
-0.00159074
-0.000194658
-0.52424
-0.499233
-0.459161
-0.405488
-0.351664
-0.30282
-0.260765
-0.225224
-0.195273
-0.169948
-0.148422
-0.130023
-0.114212
-0.100557
-0.0887082
-0.0783802
-0.0693394
-0.0613931
-0.0543811
-0.0481699
-0.0426475
-0.0377197
-0.0333065
-0.0293403
-0.0257632
-0.022526
-0.019586
-0.0169069
-0.0144571
-0.0122093
-0.0101397
-0.0082275
-0.00645492
-0.00480591
-0.00326447
-0.00181938
-0.000475522
0.000785717
0.00209861
0.00341121
-0.512791
-0.488077
-0.447098
-0.392983
-0.339072
-0.290486
-0.248841
-0.213784
-0.184315
-0.159464
-0.138394
-0.120429
-0.105032
-0.0917682
-0.0802894
-0.0703113
-0.061601
-0.0539668
-0.0472496
-0.0413171
-0.036058
-0.0313791
-0.0272014
-0.0234579
-0.0200916
-0.0170538
-0.0143027
-0.0118024
-0.00952186
-0.00743423
-0.00551617
-0.00374738
-0.00211036
-0.000589324
0.0008316
0.00216275
0.00339804
0.00455946