/*--------------------------------*- C++ -*----------------------------------*\
  =========                 |
  \\      /  F ield         | OpenFOAM: The Open Source CFD Toolbox
   \\    /   O peration     | Website:  https://openfoam.org
    \\  /    A nd           | Version:  7
     \\/     M anipulation  |
\*---------------------------------------------------------------------------*/
FoamFile
{
    version     2.0;
    format      ascii;
    class       surfaceScalarField;
    location    "5";
    object      phi;
}
// * * * * * * * * * * * * * * * * * * * * * * * * * * * * * * * * * * * * * //

dimensions      [0 3 -1 0 0 0 0];

internalField   nonuniform List<scalar> 
47900
(
-1.36867e-05
1.36865e-05
1.55819e-10
-4.37758e-05
3.00888e-05
2.68557e-10
-8.51803e-05
4.14042e-05
2.72551e-10
-0.000134562
4.93812e-05
2.13506e-10
-0.000190085
5.55234e-05
1.18886e-10
-0.000250707
6.06218e-05
1.81962e-12
-0.000315876
6.5169e-05
-1.31034e-10
-0.000385271
6.93957e-05
-2.76688e-10
-0.000458648
7.33773e-05
-4.3282e-10
-0.000535739
7.70914e-05
-5.97265e-10
-0.000616202
8.0464e-05
-7.67509e-10
-0.000699596
8.33945e-05
-9.40632e-10
-0.000785364
8.57692e-05
-1.113e-09
8.7467e-05
-1.28113e-09
-1.35341e-05
2.72207e-05
-4.33368e-05
5.98914e-05
-8.43772e-05
8.24447e-05
-0.000133339
9.83434e-05
-0.000188388
0.000110572
-0.000248468
0.000120702
-0.000313013
0.000129714
-0.000381685
0.000138069
-0.000454224
0.000145916
-0.000530346
0.000153213
-0.000609693
0.000159811
-0.000691807
0.000165508
-0.000776116
0.000170078
0.000173277
-1.32359e-05
4.04566e-05
-4.24726e-05
8.91281e-05
-8.27913e-05
0.000122763
-0.000130921
0.000146473
-0.000185025
0.000164676
-0.000244029
0.000179705
-0.000307334
0.00019302
-0.000374573
0.000205307
-0.000445451
0.000216794
-0.000519652
0.000227414
-0.000596788
0.000236947
-0.000676371
0.000245091
-0.000757796
0.000251503
0.000255821
-1.27974e-05
5.3254e-05
-4.11972e-05
0.000117528
-8.0446e-05
0.000162012
-0.00012734
0.000193368
-0.000180043
0.000217378
-0.000237448
0.00023711
-0.000298916
0.000254488
-0.000364031
0.000270422
-0.00043245
0.000285213
-0.000503814
0.000298778
-0.000577689
0.000310822
-0.000653542
0.000320944
-0.000730727
0.000328688
0.00033357
-1.22266e-05
6.54805e-05
-3.95315e-05
0.000144833
-7.73761e-05
0.000199857
-0.000122647
0.000238638
-0.000173506
0.000268238
-0.000228812
0.000292417
-0.00028787
0.000313545
-0.000350201
0.000332753
-0.000415405
0.000350417
-0.000483064
0.000366437
-0.000552689
0.000380448
-0.000623695
0.000391949
-0.000695381
0.000400374
0.000405121
-1.15339e-05
7.70144e-05
-3.75024e-05
0.000170801
-7.36271e-05
0.000235982
-0.000116905
0.000281916
-0.000165502
0.000316835
-0.000218234
0.000345148
-0.000274339
0.00036965
-0.000333268
0.000391682
-0.000394551
0.0004117
-0.000457702
0.000429588
-0.00052217
0.000444916
-0.000587308
0.000457087
-0.000652361
0.000465427
-0.00071646
0.000469221
0.00046774
-1.07319e-05
8.77463e-05
-3.51428e-05
0.000195212
-6.92545e-05
0.000270093
-0.000110195
0.000322856
-0.000156137
0.000362778
-0.00020585
0.000394861
-0.0002585
0.000422299
-0.000313457
0.000446639
-0.000370173
0.000468416
-0.000428089
0.000487504
-0.000486586
0.000503413
-0.000544954
0.000515455
-0.000602382
0.000522855
-0.000657952
0.000524792
0.000520433
-9.835e-06
9.75813e-05
-3.24906e-05
0.000217868
-6.43229e-05
0.000301926
-0.000102609
0.000361142
-0.000145535
0.000405704
-0.000191822
0.000441148
-0.000240558
0.000471035
-0.00029103
0.000497111
-0.000342603
0.000519989
-0.000394643
0.000539544
-0.00044646
0.00055523
-0.000497285
0.00056628
-0.000546254
0.000571824
-0.000592408
0.000570945
0.000562722
-8.85925e-06
0.000106441
-2.95885e-05
0.000238597
-5.89049e-05
0.000331242
-9.42522e-05
0.00039649
-0.000133836
0.000445288
-0.000176331
0.000483643
-0.000220745
0.00051545
-0.000266277
0.000542643
-0.000312208
0.00056592
-0.000357823
0.00058516
-0.000402368
0.000599775
-0.000445015
0.000608927
-0.000484856
0.000611665
-0.000520903
0.000606992
0.000593912
-7.82184e-06
0.000114262
-2.64825e-05
0.000257258
-5.30802e-05
0.00035784
-8.52398e-05
0.000428649
-0.000121194
0.000481242
-0.000159575
0.000522024
-0.000199314
0.000555189
-0.000239519
0.000582848
-0.000279386
0.000605787
-0.000318128
0.000623901
-0.000354924
0.000636571
-0.000388901
0.000642904
-0.000419117
0.000641881
-0.000444568
0.000632443
0.000613538
-6.74078e-06
0.000121003
-2.32218e-05
0.000273739
-4.69337e-05
0.000381552
-7.56955e-05
0.000457411
-0.000107776
0.000513322
-0.000141771
0.000556019
-0.000176536
0.000589954
-0.000211095
0.000617407
-0.000244564
0.000639256
-0.000276082
0.00065542
-0.000304777
0.000665266
-0.000329735
0.000667862
-0.000349995
0.000662142
-0.000364554
0.000647002
0.000621358
-5.63452e-06
0.000126638
-1.9857e-05
0.000287961
-4.0555e-05
0.00040225
-6.57504e-05
0.000482606
-9.37573e-05
0.000541329
-0.000123144
0.000585405
-0.000152698
0.000619508
-0.000181364
0.000646074
-0.000208183
0.000666074
-0.000232231
0.000679468
-0.00025259
0.000685625
-0.000268321
0.000683592
-0.000278458
0.000672279
-0.000282015
0.000650558
0.000617338
-4.52156e-06
0.000131159
-1.64401e-05
0.00029988
-3.40358e-05
0.000419845
-5.55399e-05
0.000504111
-7.93216e-05
0.000565111
-0.000103931
0.000610014
-0.000128097
0.000643674
-0.000150695
0.000668672
-0.000170697
0.000686076
-0.000187128
0.000695899
-0.000199035
0.000697532
-0.000205465
0.000690023
-0.000205465
0.000672279
-0.000198082
0.000643175
0.000601632
-3.42005e-06
0.000134579
-1.30228e-05
0.000309483
-2.74691e-05
0.000434291
-4.52025e-05
0.000521844
-6.46563e-05
0.000584565
-8.43734e-05
0.000629731
-0.000103037
0.000662338
-0.000119463
0.000685098
-0.000132565
0.000699178
-0.000141329
0.000704663
-0.000144779
0.000700981
-0.000141963
0.000687208
-0.000131954
0.000662269
-0.000113846
0.000625067
0.000574559
-2.34745e-06
0.000136927
-9.65555e-06
0.000316791
-2.09472e-05
0.000445583
-3.48767e-05
0.000535773
-4.99503e-05
0.000599638
-6.47165e-05
0.000644498
-7.7825e-05
0.000675446
-8.80439e-05
0.000695317
-9.42455e-05
0.00070538
-9.53844e-05
0.000705802
-9.04762e-05
0.000696073
-7.85848e-05
0.000675316
-5.8819e-05
0.000642503
-3.03375e-05
0.000596585
0.000536579
-1.32033e-06
0.000138247
-6.38706e-06
0.000321858
-1.45602e-05
0.000453756
-2.46991e-05
0.000545912
-3.5391e-05
0.00061033
-4.52024e-05
0.000654309
-5.27638e-05
0.000683008
-5.68108e-05
0.000699364
-5.6186e-05
0.000704755
-4.9828e-05
0.000699444
-3.67565e-05
0.000683002
-1.60623e-05
0.000654622
1.3097e-05
0.000613344
5.14947e-05
0.000558188
9.98274e-05
0.000488246
0.000402719
-3.5556e-07
0.000138603
-3.26276e-06
0.000324765
-8.39385e-06
0.000458887
-1.48019e-05
0.00055232
-2.1161e-05
0.000616689
-2.60683e-05
0.000659216
-2.81501e-05
0.00068509
-2.61247e-05
0.000697338
-1.88197e-05
0.00069745
-5.17139e-06
0.000685795
1.57863e-05
0.000662044
4.49249e-05
0.000625484
8.30289e-05
0.00057524
0.000130796
0.00051042
0.000188841
0.000430201
0.000333863
5.46263e-07
0.000138056
-3.20082e-07
0.000325631
-2.52838e-06
0.000461096
-5.30979e-06
0.000555102
-7.4342e-06
0.000618814
-7.54105e-06
0.000659323
-4.26754e-06
0.000681816
3.66986e-06
0.000689401
1.74447e-05
0.000683675
3.81108e-05
0.000665129
6.66058e-05
0.000633549
0.000103758
0.000588331
0.000150293
0.000528705
0.000206836
0.000453877
0.000273926
0.00036311
0.000255757
1.35325e-06
0.000136703
2.38883e-06
0.000324596
2.96291e-06
0.000460522
3.66173e-06
0.000554403
5.62717e-06
0.000616848
1.0167e-05
0.000654783
1.86191e-05
0.000673364
3.22535e-05
0.000675766
5.22304e-05
0.000663698
7.95825e-05
0.000637777
0.000115213
0.000597918
0.000159904
0.000543641
0.00021432
0.000474289
0.000279028
0.000389169
0.000354511
0.000287627
0.000169069
2.06768e-06
0.000134635
4.84934e-06
0.000321814
8.01662e-06
0.000457354
1.20097e-05
0.00055041
1.78767e-05
0.000610981
2.68632e-05
0.000645797
4.02688e-05
0.000659958
5.93368e-05
0.000656698
8.52022e-05
0.000637833
0.000118867
0.000604112
0.000161197
0.000555588
0.000212926
0.000491912
0.000274673
0.000412543
0.00034696
0.000316882
0.000430245
0.000204342
7.4356e-05
2.68116e-06
0.000131954
7.02902e-06
0.000317466
1.25791e-05
0.000451804
1.96463e-05
0.000543343
2.91873e-05
0.00060144
4.23793e-05
0.000632605
6.04726e-05
0.000641865
8.46721e-05
0.000632499
0.000116078
0.000606427
0.000155657
0.000564533
0.000204236
0.000507009
0.000262511
0.000433636
0.000331071
0.000343983
0.000410423
0.000237531
0.000501034
0.000113731
-2.79899e-05
3.18842e-06
0.000128766
8.90887e-06
0.000311746
1.66082e-05
0.000444105
2.65001e-05
0.000533451
3.94549e-05
0.000588486
5.65773e-05
0.000615482
7.90601e-05
0.000619382
0.000108061
0.000603498
0.00014464
0.000569848
0.000189727
0.000519446
0.000244118
0.000452618
0.000308488
0.000369267
0.000383417
0.000269053
0.000469434
0.000151513
0.000567061
1.61041e-05
0.000676864
-0.000137793
-0.000310874
3.58676e-06
0.000125179
1.04767e-05
0.000304856
2.00747e-05
0.000434507
3.25195e-05
0.000521006
4.86022e-05
0.000572403
6.93543e-05
0.00059473
9.59061e-05
0.00059283
0.000129364
0.00057004
0.000170747
0.000528466
0.000220953
0.00046924
0.000280761
0.00039281
0.000350846
0.000299182
0.000431817
0.000188082
0.000524264
5.90673e-05
0.000628806
-8.84379e-05
0.000746137
-0.000255124
-0.000441783
3.87587e-06
0.000121303
1.17273e-05
0.000297004
2.29631e-05
0.000423271
3.76738e-05
0.000506295
5.65816e-05
0.000553495
8.06473e-05
0.000570665
0.000110938
0.000562539
0.000148511
0.000532468
0.000194346
0.00048263
0.000249324
0.000414261
0.000314226
0.000327908
0.00038976
0.000223648
0.0004766
0.000101243
0.000575438
-3.97716e-05
0.000687032
-0.000200031
0.000812221
-0.000380314
-0.000581478
4.05778e-06
0.000117245
1.26631e-05
0.000288399
2.5272e-05
0.000410662
4.1955e-05
0.000489612
6.33781e-05
0.000532072
9.0438e-05
0.000543605
0.000124144
0.000528834
0.000165506
0.000491105
0.000215483
0.000432654
0.000274954
0.00035479
0.000344733
0.00025813
0.000425593
0.000142788
0.000518315
8.51981e-06
0.000623734
-0.00014519
0.000742757
-0.000319055
0.000876362
-0.000513918
-0.000730629
4.13675e-06
0.000113109
1.32934e-05
0.000279242
2.70145e-05
0.000396941
4.53789e-05
0.000471248
6.90116e-05
0.000508439
9.87559e-05
0.00051386
0.000135572
0.000492018
0.00018044
0.000446237
0.000234312
0.000378782
0.000298094
0.000291008
0.000372663
0.00018356
0.0004589
5.65506e-05
0.000557729
-9.03083e-05
0.000670139
-0.0002576
0.000797185
-0.000446102
0.000939921
-0.000656653
0.00109925
-0.000889957
-0.00114629
4.11923e-06
0.000108989
1.3635e-05
0.000269726
2.82184e-05
0.000382358
4.79853e-05
0.000451481
7.35378e-05
0.000482887
0.000105681
0.000481717
0.000145343
0.000452356
0.000193492
0.000398088
0.000251098
0.000321176
0.000319128
0.000222978
0.000398561
0.000104128
0.000490415
-3.53039e-05
0.000595777
-0.00019567
0.00071579
-0.000377613
0.000851603
-0.000581915
0.00100423
-0.000809283
0.00117435
-0.00106007
-0.00133391
4.01373e-06
0.000104976
1.37115e-05
0.000260029
2.89258e-05
0.000367143
4.98382e-05
0.000430568
7.70485e-05
0.000455676
0.000111344
0.000447421
0.000153642
0.000410058
0.000204925
0.000346805
0.000266216
0.000259886
0.000338573
0.00015062
0.000423111
1.95901e-05
0.00052101
-0.000133204
0.000633517
-0.000308176
0.000761885
-0.000505982
0.000907256
-0.000727285
0.00107045
-0.000972474
0.00125167
-0.00124129
-0.00153243
3.83062e-06
0.000101145
1.35528e-05
0.000250307
2.91924e-05
0.000351504
5.10245e-05
0.000408736
7.9671e-05
0.00042703
0.000115926
0.000411166
0.000160723
0.00036526
0.000215092
0.000292437
0.000280139
0.000194838
0.000357054
7.37054e-05
0.000447109
-7.04642e-05
0.000551649
-0.000237744
0.000672044
-0.000428571
0.000809569
-0.000643507
0.000965207
-0.000882923
0.00113937
-0.00114664
0.00133157
-0.00143349
0.00154012
-0.00174099
-0.00206499
3.58198e-06
9.75631e-05
1.31948e-05
0.000240694
2.90859e-05
0.000335613
5.16526e-05
0.00038617
8.15647e-05
0.000397118
0.000119653
0.000373078
0.000166899
0.000318014
0.000224414
0.000234922
0.000293427
0.000125825
0.000375281
-8.14824e-06
0.000471415
-0.000166598
0.000583313
-0.000349642
0.000712393
-0.000557652
0.000859815
-0.000790928
0.00102621
-0.00104931
0.00121134
-0.00133177
0.00141381
-0.00163597
0.00163082
-0.001958
-0.00229228
3.2813e-06
9.42818e-05
1.26782e-05
0.000231297
2.86853e-05
0.000319606
5.18494e-05
0.000363006
8.29179e-05
0.000366049
0.00012279
0.000333207
0.000172532
0.000268271
0.000233374
0.000174081
0.000306694
5.25047e-05
0.000394005
-9.54589e-05
0.000496896
-0.000269489
0.000616928
-0.000469674
0.000755445
-0.000696169
0.000913311
-0.000948794
0.00109058
-0.00122658
0.00128615
-0.00152735
0.00149755
-0.00184737
0.00172081
-0.00218125
-0.00252212
2.94321e-06
9.13386e-05
1.20479e-05
0.000222192
2.80779e-05
0.000303576
5.17573e-05
0.000339326
8.39417e-05
0.000333865
0.000125634
0.000291514
0.000178024
0.000215882
0.000242489
0.000109616
0.00032058
-2.5587e-05
0.000413973
-0.000188852
0.000524361
-0.000379877
0.000653276
-0.000598589
0.000801828
-0.000844721
0.000970373
-0.00111734
0.00115816
-0.00141437
0.00136307
-0.00173225
0.00158143
-0.00206573
0.0018082
-0.00240803
0.00203733
-0.00275124
-0.00308704
2.58313e-06
8.87555e-05
1.13515e-05
0.000213424
2.73574e-05
0.00028757
5.15294e-05
0.000315154
8.48634e-05
0.000300531
0.000128502
0.000247875
0.000183792
0.000160592
0.000252288
4.11205e-05
0.000335715
-0.000109014
0.000435879
-0.000289016
0.000554494
-0.000498492
0.000692924
-0.000737018
0.000851847
-0.00100364
0.00103089
-0.00129639
0.00122832
-0.0016118
0.00144085
-0.00194477
0.0016637
-0.00228858
0.00189095
-0.00263528
0.00211609
-0.00297639
-0.00330375
2.21686e-06
8.65386e-05
1.06381e-05
0.000205002
2.66211e-05
0.000271587
5.13247e-05
0.000290451
8.59178e-05
0.000265938
0.000131718
0.000202075
0.000190258
0.000102052
0.000263282
-3.19031e-05
0.000352674
-0.000198407
0.000460309
-0.000396651
0.000587799
-0.000625982
0.000736164
-0.000885383
0.000905443
-0.00117292
0.00109434
-0.00148528
0.00129998
-0.00181744
0.00151793
-0.00216272
0.00174244
-0.00251309
0.00196703
-0.00285986
0.00218517
-0.00319452
-0.00350962
1.86015e-06
8.46785e-05
9.95694e-06
0.000196906
2.59668e-05
0.000255577
5.13031e-05
0.000265114
8.73391e-05
0.000229902
0.000135599
0.000153815
0.000197821
3.98295e-05
0.000275936
-0.000110019
0.000371947
-0.000294418
0.000487698
-0.000512403
0.000624552
-0.000762835
0.000782984
-0.00104382
0.00096219
-0.00135213
0.00115979
-0.00168288
0.00137173
-0.00202939
0.00159253
-0.00238352
0.00181574
-0.00273631
0.00203469
-0.00307881
0.00224323
-0.00340306
0.0024364
-0.0037028
-0.00397396
1.52827e-06
8.31502e-05
9.35588e-06
0.000189078
2.54895e-05
0.000239443
5.16192e-05
0.000238985
8.93511e-05
0.00019217
0.000140439
0.000102727
0.000206839
-2.65698e-05
0.000290643
-0.000193823
0.0003939
-0.000397674
0.0005183
-0.000636803
0.000664775
-0.00090931
0.000833058
-0.0012121
0.00102132
-0.00154039
0.00122602
-0.00188757
0.00144197
-0.00224534
0.00166287
-0.00260442
0.0018819
-0.00295534
0.00209259
-0.0032895
0.00228951
-0.00359998
0.00246881
-0.0038821
-0.00413359
1.2355e-06
8.19147e-05
8.87997e-06
0.000181434
2.52786e-05
0.000223045
5.24173e-05
0.000211846
9.21587e-05
0.000152429
0.000146503
4.83823e-05
0.000217613
-9.76796e-05
0.000307699
-0.000283909
0.000418755
-0.00050873
0.000552164
-0.000770212
0.000708236
-0.00106538
0.000885775
-0.00138964
0.00108181
-0.00173643
0.00129162
-0.00209737
0.00150907
-0.0024628
0.0017273
-0.00282265
0.00193953
-0.00316756
0.00213983
-0.0034898
0.00232376
-0.00378392
0.00248869
-0.00404703
0.00263377
-0.00427867
-0.00448035
9.94772e-07
8.09199e-05
8.57008e-06
0.000173858
2.54149e-05
0.0002062
5.38261e-05
0.000183435
9.59402e-05
0.000110314
0.000154007
-9.68497e-06
0.000230372
-0.000174044
0.000327291
-0.000380828
0.000446577
-0.000628017
0.000589135
-0.00091277
0.000754464
-0.00123071
0.000940285
-0.00157546
0.00114244
-0.00193858
0.00135511
-0.00231005
0.00157147
-0.00267916
0.00178446
-0.00303564
0.00198766
-0.00337076
0.00217601
-0.00367815
0.00234623
-0.00395413
0.00249687
-0.00419767
0.00262818
-0.00440997
-0.00459384
8.17095e-07
8.01028e-05
8.46163e-06
0.000166214
2.59682e-05
0.000188693
5.59544e-05
0.000153448
0.00010084
6.54285e-05
0.000163116
-7.19608e-05
0.000245263
-0.000256191
0.000349485
-0.00048505
0.000477273
-0.000755804
0.000628866
-0.00106436
0.000802784
-0.00140463
0.000995569
-0.00176824
0.00120189
-0.00214491
0.00141507
-0.00252322
0.00162783
-0.00289192
0.00183331
-0.00324111
0.00202577
-0.00356322
0.00220121
-0.0038536
0.00235753
-0.00411046
0.00249444
-0.00433458
0.00261307
-0.0045286
0.00271554
-0.00469632
-0.00484201
7.11122e-07
7.93917e-05
8.58362e-06
0.000158341
2.69951e-05
0.000170282
5.88884e-05
0.000121555
0.000106967
1.73503e-05
0.000173935
-0.000138929
0.000262343
-0.0003446
0.000374231
-0.000596938
0.000510596
-0.000892169
0.000670841
-0.00122461
0.000852369
-0.00158616
0.00105051
-0.00196639
0.0012589
-0.00235329
0.0014702
-0.00273452
0.0016771
-0.00309882
0.0018732
-0.00343721
0.00205372
-0.00374375
0.00221583
-0.0040157
0.00235857
-0.0042532
0.00248263
-0.00445864
0.00258984
-0.00463581
0.00268272
-0.0047892
-0.00492332
7.46792e-07
7.86449e-05
9.04391e-06
0.000150044
2.86089e-05
0.000150717
6.27148e-05
8.74493e-05
0.000114341
-3.42764e-05
0.000186371
-0.000210959
0.000281343
-0.000439571
0.000400994
-0.000716589
0.000545667
-0.00103684
0.000713773
-0.00139271
0.000901516
-0.0017739
0.00110307
-0.00216794
0.00131122
-0.00256144
0.00151831
-0.00294162
0.0017173
-0.00329781
0.00190257
-0.00362248
0.00207043
-0.00391161
0.00221922
-0.00416448
0.00234903
-0.00438302
0.00246134
-0.00457095
0.00255847
-0.00473294
0.00264314
-0.00487387
0.00271807
-0.00499825
-0.00510998
8.01889e-07
7.7843e-05
9.68293e-06
0.000141163
3.06862e-05
0.000129714
6.74e-05
5.07355e-05
0.000123053
-8.99293e-05
0.000200644
-0.00028855
0.000302589
-0.000541517
0.000430174
-0.000844174
0.000582916
-0.00118958
0.000758098
-0.0015679
0.000950698
-0.0019665
0.00115385
-0.00237109
0.00135974
-0.00276733
0.00156073
-0.0031426
0.00175034
-0.00348742
0.00192394
-0.00379608
0.00207899
-0.00406667
0.00221493
-0.00430042
0.00233275
-0.00450084
0.00243454
-0.00467273
0.00252291
-0.00482131
0.00260061
-0.00495157
0.00267024
-0.00506788
-0.00517376
9.44642e-07
7.68984e-05
1.06019e-05
0.000131506
3.33254e-05
0.00010699
7.30026e-05
1.10583e-05
0.000133076
-0.000150002
0.000216586
-0.000372059
0.000325708
-0.000650639
0.000461115
-0.000979581
0.000621346
-0.00134982
0.000802471
-0.00174902
0.000998286
-0.00216232
0.00120107
-0.00257388
0.00140273
-0.00296899
0.00159592
-0.0033358
0.00177501
-0.0036665
0.00193646
-0.00395753
0.00207887
-0.00420908
0.00220267
-0.00442421
0.00230957
-0.00460774
0.00240206
-0.00476522
0.00248289
-0.00490214
0.00255473
-0.00502342
0.00261997
-0.00513311
0.00268055
-0.00523435
-0.00532942
1.17496e-06
7.57234e-05
1.18021e-05
0.000120879
3.65268e-05
8.22654e-05
7.95113e-05
-3.19263e-05
0.000144364
-0.000214855
0.00023408
-0.000461775
0.000350459
-0.000767018
0.000493405
-0.00112253
0.000660344
-0.00151676
0.000846101
-0.00193478
0.0010434
-0.00235961
0.00124391
-0.0027744
0.00143956
-0.00316463
0.00162363
-0.00351986
0.00179145
-0.00383433
0.00194065
-0.00410673
0.0020709
-0.00433933
0.00218345
-0.00453677
0.00228056
-0.00470485
0.00236494
-0.0048496
0.00243934
-0.00497654
0.00250627
-0.00509035
0.00256785
-0.00519469
0.00262577
-0.00529227
0.00268134
-0.00538499
-0.00547412
1.49096e-06
7.42325e-05
1.3279e-05
0.000109091
4.02786e-05
5.52657e-05
8.68952e-05
-7.85428e-05
0.000156844
-0.000284805
0.000252971
-0.000557902
0.000376557
-0.000890604
0.000526585
-0.00127255
0.000699272
-0.00168944
0.000888218
-0.00212372
0.00108525
-0.00255664
0.00128172
-0.00297087
0.00146987
-0.00335279
0.00164382
-0.00369381
0.00180001
-0.00399052
0.00193719
-0.00424391
0.00205598
-0.00445812
0.00215829
-0.00463907
0.00224672
-0.00479328
0.00232409
-0.00492696
0.00239302
-0.00504548
0.00245583
-0.00515315
0.00251434
-0.00525321
0.00257001
-0.00534793
0.0026239
-0.00543887
-0.00552702
1.88916e-06
7.23433e-05
1.5023e-05
9.59568e-05
4.45595e-05
2.57292e-05
9.51065e-05
-0.00012909
0.000170416
-0.000360114
0.000273069
-0.000660556
0.000403679
-0.00102121
0.000560169
-0.00142904
0.000737491
-0.00186676
0.000928108
-0.00231434
0.00112317
-0.00275171
0.00131402
-0.00316171
0.00149348
-0.00353225
0.00165668
-0.00385701
0.0018012
-0.00413505
0.00192685
-0.00436955
0.00203502
-0.00456629
0.00212811
-0.00473217
0.00220894
-0.00487411
0.00228027
-0.00499829
0.00234457
-0.00510978
0.00240388
-0.00521247
0.0024598
-0.00530912
0.0025135
-0.00540164
0.00256588
-0.00549125
0.00261757
-0.00557871
-0.0056645
2.3648e-06
6.99785e-05
1.70208e-05
8.13009e-05
4.93399e-05
-6.59002e-06
0.000104084
-0.000183834
0.00018496
-0.000440989
0.000294159
-0.000769754
0.000431478
-0.00115853
0.000593662
-0.00159123
0.000774391
-0.00204749
0.000965134
-0.00250508
0.00115664
-0.00294321
0.00134051
-0.00334558
0.0015104
-0.00370214
0.00166254
-0.00400914
0.00179563
-0.00426814
0.00191039
-0.00448431
0.00200886
-0.00466476
0.00209377
-0.00481708
0.00216797
-0.00494832
0.00223413
-0.00506445
0.00229448
-0.00517014
0.00235081
-0.00526879
0.00240446
-0.00536277
0.00245641
-0.00545359
0.00250739
-0.00554222
0.0025579
-0.00562923
0.00260836
-0.00571496
-0.00579964
2.91236e-06
6.70662e-05
1.92562e-05
6.4957e-05
5.45844e-05
-4.19182e-05
0.000113757
-0.000243007
0.000200343
-0.000527575
0.000316009
-0.00088542
0.000459591
-0.00130212
0.000626571
-0.00175821
0.000809404
-0.00223033
0.00099876
-0.00269444
0.00118526
-0.00312971
0.00136107
-0.00352139
0.00152081
-0.00386189
0.00166186
-0.00415019
0.00178396
-0.00439025
0.00188862
-0.00458897
0.00197834
-0.00475448
0.00205601
-0.00489475
0.00212448
-0.00501678
0.00218619
-0.00512616
0.00224315
-0.0052271
0.00229688
-0.00532253
0.00234852
-0.0054144
0.00239886
-0.00550393
0.00244848
-0.00559185
0.00249782
-0.00567857
0.00254721
-0.00576436
0.00259693
-0.00584936
-0.0059337
3.5259e-06
6.35403e-05
2.17115e-05
4.67714e-05
6.02537e-05
-8.04604e-05
0.000124048
-0.000306801
0.000216421
-0.000619947
0.000338376
-0.00100738
0.000487653
-0.00145139
0.000658425
-0.00192898
0.000842021
-0.00241392
0.00102855
-0.00288097
0.00120881
-0.00330997
0.00137572
-0.00368829
0.00152501
-0.00401118
0.00165517
-0.00428036
0.00176689
-0.00450196
0.00186227
-0.00468435
0.00194416
-0.00483637
0.0020155
-0.00496609
0.00207898
-0.00508026
0.00213685
-0.00518403
0.00219087
-0.00528111
0.00224231
-0.00537397
0.0022921
-0.0054642
0.00234092
-0.00555274
0.00238922
-0.00564015
0.00243736
-0.00572672
0.00248563
-0.00581263
0.00253427
-0.005898
0.0025835
-0.00598293
-0.00606752
4.19953e-06
5.93407e-05
2.43681e-05
2.66029e-05
6.63061e-05
-0.000122398
0.000134873
-0.000375368
0.000233042
-0.000718116
0.000361008
-0.00113534
0.000515301
-0.00160569
0.000688781
-0.00210246
0.000871804
-0.00259695
0.00105419
-0.00306336
0.00122717
-0.00348295
0.00138461
-0.00384573
0.00152339
-0.00414996
0.00164305
-0.00440002
0.00174507
-0.00460398
0.00183205
-0.00477133
0.00190698
-0.00491129
0.00197277
-0.00503188
0.00203193
-0.00513942
0.00208646
-0.00523857
0.00213787
-0.00533252
0.00218723
-0.00542334
0.00223531
-0.00551228
0.00228264
-0.00560008
0.00232962
-0.00568712
0.00237653
-0.00577363
0.00242363
-0.00585972
0.00247112
-0.0059455
0.00251922
-0.00603103
-0.0061164
4.9276e-06
5.44131e-05
2.72074e-05
4.32307e-06
7.26991e-05
-0.00016789
0.000146148
-0.000448817
0.00025005
-0.000822018
0.000383653
-0.00126894
0.000542184
-0.00176422
0.000717235
-0.00227751
0.000898394
-0.0027781
0.00107547
-0.00324043
0.00124036
-0.00364783
0.001388
-0.00399338
0.00151641
-0.00427837
0.0016261
-0.0045097
0.00171918
-0.00469706
0.00179857
-0.00485072
0.00186735
-0.00498007
0.00192828
-0.00509282
0.00198366
-0.0051948
0.00203525
-0.00529015
0.00208432
-0.00538159
0.00213176
-0.00547078
0.0021782
-0.00555872
0.00222408
-0.00564595
0.00226971
-0.00573275
0.00231534
-0.00581927
0.00236121
-0.00590559
0.00240749
-0.00599178
0.00245439
-0.00607792
0.00250205
-0.00616407
-0.00625032
5.70501e-06
4.87081e-05
3.02115e-05
-2.01834e-05
7.939e-05
-0.000217069
0.000157784
-0.000527211
0.000267286
-0.00093152
0.000406058
-0.00140772
0.000567967
-0.00192613
0.000743435
-0.00245298
0.000921515
-0.00295619
0.00109227
-0.00341119
0.00124848
-0.00380404
0.00138621
-0.00413111
0.00150456
-0.00439673
0.00160488
-0.00461002
0.00168979
-0.00478197
0.0017624
-0.00492333
0.00182575
-0.00504341
0.00188242
-0.00514949
0.00193447
-0.00524686
0.00198343
-0.00533911
0.00203035
-0.00542851
0.00207598
-0.00551641
0.00212082
-0.00560356
0.00216524
-0.00569036
0.00220949
-0.005777
0.00225381
-0.00586358
0.00229838
-0.00595016
0.00234339
-0.00603679
0.002389
-0.00612353
0.00243538
-0.00621045
0.00248269
-0.00629763
-0.00638517
6.52725e-06
4.21809e-05
3.33632e-05
-4.70193e-05
8.63364e-05
-0.000270042
0.000169694
-0.000610569
0.000284589
-0.00104642
0.000427974
-0.0015511
0.000592339
-0.00209049
0.000767079
-0.00262772
0.000940972
-0.00313008
0.0011046
-0.00357482
0.00125173
-0.00395117
0.00137961
-0.00425899
0.00148835
-0.00450547
0.00157997
-0.00470164
0.00165746
-0.00485946
0.00172402
-0.0049899
0.00178257
-0.00510196
0.00183548
-0.0052024
0.00188457
-0.00529595
0.00193113
-0.00538567
0.00197605
-0.00547343
0.00201994
-0.0055603
0.0020632
-0.00564683
0.00210614
-0.0057333
0.00214899
-0.00581985
0.00219193
-0.00590653
0.00223516
-0.00599339
0.00227882
-0.00608046
0.00232309
-0.0061678
0.00236811
-0.00625547
0.00241403
-0.00634356
0.00246101
-0.00643215
-0.00652135
7.39048e-06
3.47904e-05
3.66465e-05
-7.62753e-05
9.34962e-05
-0.000326892
0.000181788
-0.00069886
0.000301797
-0.00116642
0.000449162
-0.00169847
0.000615019
-0.00225635
0.000787925
-0.00280062
0.000956652
-0.00329881
0.0011125
-0.00373067
0.00125037
-0.00408904
0.00136863
-0.00437724
0.00146826
-0.00460511
0.00155187
-0.00478525
0.00162267
-0.00493026
0.00168385
-0.00505107
0.00173814
-0.00515625
0.00178771
-0.00525196
0.00183412
-0.00534236
0.00187847
-0.00543002
0.00192149
-0.00551645
0.00196367
-0.00560248
0.00200536
-0.00568852
0.0020468
-0.00577474
0.0020882
-0.00586124
0.00212972
-0.00594805
0.00217154
-0.0060352
0.0022138
-0.00612272
0.00225665
-0.00621065
0.00230024
-0.00629906
0.00234471
-0.00638803
0.0023902
-0.00647764
0.00243684
-0.00656799
0.00248476
-0.00665919
-0.00675132
8.29147e-06
2.64989e-05
4.00461e-05
-0.00010803
0.000100828
-0.000387673
0.000193974
-0.000792007
0.000318748
-0.0012912
0.000469391
-0.00184911
0.000635759
-0.00242272
0.000805792
-0.00297066
0.000968515
-0.00346153
0.00111614
-0.00387829
0.00124471
-0.00421762
0.00135367
-0.0044862
0.00144479
-0.00469622
0.00152107
-0.00486152
0.00158585
-0.00499504
0.00164223
-0.00510745
0.00169274
-0.00520676
0.0017393
-0.00529852
0.00178325
-0.00538631
0.00182552
-0.00547229
0.00186671
-0.00555764
0.00190721
-0.00564299
0.00194731
-0.00572862
0.00198723
-0.00581466
0.00202713
-0.00590115
0.00206719
-0.00598811
0.00210754
-0.00607555
0.00214833
-0.00616351
0.00218971
-0.00625202
0.0022318
-0.00634116
0.00227475
-0.00643098
0.00231869
-0.00652158
0.00236374
-0.00661304
0.00241001
-0.00670546
0.00245763
-0.00679893
-0.00689357
9.22751e-06
1.72714e-05
4.35473e-05
-0.00014235
0.000108289
-0.000452415
0.000206161
-0.000889879
0.000335283
-0.00142032
0.000488448
-0.00200227
0.00065435
-0.00258862
0.000820555
-0.00313686
0.000976586
-0.00361756
0.00111569
-0.00401739
0.00123509
-0.00433701
0.00133518
-0.00458629
0.00141837
-0.00477942
0.00148798
-0.00493113
0.00154736
-0.00505443
0.00159946
-0.00515955
0.00164657
-0.00525388
0.00169039
-0.00534234
0.00173207
-0.00542799
0.00177235
-0.00551257
0.00181174
-0.00559703
0.00185057
-0.00568181
0.00188907
-0.00576712
0.00192742
-0.00585302
0.00196579
-0.00593952
0.00200433
-0.00602664
0.00204316
-0.00611438
0.00208243
-0.00620278
0.00212227
-0.00629186
0.00216281
-0.0063817
0.00220418
-0.00647235
0.00224649
-0.00656389
0.00228988
-0.00665642
0.00233445
-0.00675003
0.0023803
-0.00684478
0.00242753
-0.0069408
-0.00703808
1.01963e-05
7.07514e-06
4.71358e-05
-0.000179289
0.000115836
-0.000521115
0.000218255
-0.000992297
0.000351243
-0.00155331
0.000506137
-0.00215717
0.000670622
-0.0027531
0.000832151
-0.00329839
0.000980951
-0.00376636
0.0011114
-0.00414784
0.00122184
-0.00444746
0.00131354
-0.004678
0.00138943
-0.00485531
0.00145299
-0.00499469
0.00150752
-0.00510896
0.00155577
-0.0052078
0.00159982
-0.00529792
0.00164111
-0.00538364
0.00168063
-0.0054675
0.001719
-0.00555094
0.00175662
-0.00563465
0.00179376
-0.00571896
0.00183064
-0.00580399
0.0018674
-0.00588978
0.00190419
-0.00597632
0.00194116
-0.0060636
0.00197842
-0.00615165
0.00201611
-0.00624047
0.00205436
-0.00633011
0.00209328
-0.00642062
0.002133
-0.00651207
0.00217364
-0.00660453
0.0022153
-0.00669809
0.0022581
-0.00679282
0.00230212
-0.00688881
0.00234746
-0.00698614
0.00239422
-0.00708483
-0.0071852
1.11956e-05
-4.1205e-06
5.0797e-05
-0.000218891
0.000123426
-0.000593744
0.00023016
-0.00109903
0.000366477
-0.00168963
0.000522282
-0.00231297
0.000684448
-0.00291527
0.000840565
-0.00345451
0.000981741
-0.00390754
0.00110352
-0.00426962
0.00120533
-0.00454926
0.00128917
-0.00476184
0.00135834
-0.00492448
0.00141642
-0.00505276
0.00146659
-0.00515912
0.00151137
-0.00525258
0.0015526
-0.00533916
0.00159154
-0.00542258
0.001629
-0.00550496
0.0016655
-0.00558743
0.00170135
-0.0056705
0.00173681
-0.00575441
0.00177202
-0.00583921
0.00180716
-0.00592491
0.00184233
-0.00601149
0.00187768
-0.00609895
0.00191333
-0.00618729
0.00194939
-0.00627653
0.00198598
-0.00636671
0.00202323
-0.00645787
0.00206125
-0.00655009
0.00210015
-0.00664343
0.00214003
-0.00673797
0.00218099
-0.00683378
0.00222313
-0.00693095
0.00226652
-0.00702954
0.00231126
-0.00712957
0.0023574
-0.00723133
0.00240511
-0.00733416
-0.00744118
1.22235e-05
-1.6344e-05
5.45161e-05
-0.000261183
0.000131013
-0.000670241
0.000241782
-0.0012098
0.000380842
-0.00182869
0.000536735
-0.00246887
0.000695743
-0.00307428
0.000845832
-0.0036046
0.000979128
-0.00404083
0.00109235
-0.00438285
0.0011859
-0.00464281
0.00126241
-0.00483835
0.00132544
-0.00498752
0.00137856
-0.00510588
0.00142479
-0.00520534
0.00146641
-0.0052942
0.00150504
-0.0053778
0.00154176
-0.00545929
0.00157722