/*--------------------------------*- C++ -*----------------------------------*\
  =========                 |
  \\      /  F ield         | OpenFOAM: The Open Source CFD Toolbox
   \\    /   O peration     | Website:  https://openfoam.org
    \\  /    A nd           | Version:  7
     \\/     M anipulation  |
\*---------------------------------------------------------------------------*/
FoamFile
{
    version     2.0;
    format      ascii;
    class       volVectorField;
    location    "5";
    object      U;
}
// * * * * * * * * * * * * * * * * * * * * * * * * * * * * * * * * * * * * * //

dimensions      [0 1 -1 0 0 0 0];

internalField   nonuniform List<vector> 
24200
(
(-0.00401576 0.00194267 3.06724e-21)
(-0.0233438 0.00404969 6.50028e-21)
(-0.0550464 0.00524211 1.37129e-22)
(-0.0891108 0.00589934 5.4763e-21)
(-0.12502 0.00625485 -1.53317e-22)
(-0.160781 0.00644715 -4.99521e-22)
(-0.196042 0.00655176 -4.64111e-21)
(-0.230464 0.00660578 -4.54976e-22)
(-0.263942 0.0066223 1.18795e-21)
(-0.296371 0.00660161 -3.14039e-21)
(-0.327645 0.00653794 1.2688e-21)
(-0.357627 0.0064232 -1.8522e-21)
(-0.386149 0.00624882 -3.10889e-21)
(-0.413018 0.0060065 -5.95658e-21)
(-0.00411836 0.00580467 -1.23623e-20)
(-0.0234246 0.0121101 -1.28553e-20)
(-0.0549487 0.0156843 3.94539e-21)
(-0.0887911 0.0176565 -7.13427e-21)
(-0.124443 0.0187245 -4.25861e-21)
(-0.159925 0.019302 -1.60066e-21)
(-0.19488 0.0196154 1.08163e-20)
(-0.228967 0.0197761 -6.52454e-21)
(-0.262075 0.0198237 -5.67041e-21)
(-0.294095 0.0197592 3.64846e-21)
(-0.324918 0.0195655 8.51746e-21)
(-0.354402 0.0192187 1.63115e-20)
(-0.382378 0.018693 1.38033e-21)
(-0.40865 0.0179638 1.69174e-20)
(-0.00432118 0.00959879 2.51155e-20)
(-0.0235844 0.0200558 2.27952e-20)
(-0.0547545 0.0260016 -1.12811e-20)
(-0.0881561 0.029291 2.33566e-20)
(-0.123297 0.031076 1.58282e-21)
(-0.158222 0.0320413 -4.43013e-21)
(-0.192571 0.032563 -1.5088e-20)
(-0.225991 0.0328269 -1.06878e-21)
(-0.258364 0.0329 1.04314e-20)
(-0.289573 0.032785 -1.57448e-21)
(-0.3195 0.0324541 -1.70736e-20)
(-0.347999 0.0318678 -5.74045e-21)
(-0.374894 0.0309837 -5.52253e-21)
(-0.399987 0.029761 -2.43609e-20)
(-0.00461964 0.0132823 -2.63531e-20)
(-0.0238199 0.0278135 -8.01049e-22)
(-0.0544663 0.036113 2.33359e-20)
(-0.0872139 0.0407224 -9.72614e-21)
(-0.121595 0.0432319 -1.59074e-21)
(-0.155694 0.0445893 1.77137e-20)
(-0.18914 0.0453183 1.87907e-20)
(-0.221572 0.0456801 -3.47223e-21)
(-0.252855 0.0457699 -1.17076e-20)
(-0.282863 0.0455937 -1.01392e-20)
(-0.311466 0.0451137 2.09175e-21)
(-0.33851 0.0442759 -2.24197e-20)
(-0.363813 0.043022 4.12391e-20)
(-0.387173 0.0412957 2.76055e-20)
(-0.00500708 0.0168145 1.17051e-20)
(-0.0241262 0.0353118 -3.42606e-20)
(-0.0540877 0.0459394 -1.81376e-20)
(-0.085977 0.0518721 -1.2737e-20)
(-0.11936 0.0551157 5.64228e-21)
(-0.152371 0.0568708 2.5645e-20)
(-0.18463 0.0578063 -2.70976e-20)
(-0.215761 0.0582585 6.54112e-21)
(-0.245616 0.0583533 1.21794e-20)
(-0.27405 0.0581012 -9.16915e-21)
(-0.300922 0.0574566 1.1562e-20)
(-0.326069 0.0563516 1.07407e-20)
(-0.349304 0.0547131 -2.83827e-20)
(-0.370416 0.0524702 -2.21752e-20)
(-0.005475 0.0201573 -1.20344e-22)
(-0.0244972 0.0424836 1.38675e-20)
(-0.0536234 0.0554045 1.48739e-20)
(-0.0844614 0.0626631 -9.26298e-21)
(-0.116618 0.0666525 -1.82275e-20)
(-0.148293 0.0688123 -5.68891e-20)
(-0.179092 0.069953 -9.0847e-21)
(-0.208629 0.070487 -1.22995e-21)
(-0.236733 0.0705724 -5.97074e-21)
(-0.263244 0.0702269 4.45513e-20)
(-0.288009 0.0693986 9.77346e-21)
(-0.310852 0.0680076 -6.05962e-21)
(-0.331581 0.0659673 -3.00923e-20)
(-0.349984 0.0631933 5.94382e-21)
(-0.365835 0.0596082 -1.9848e-20)
(-0.00601321 0.0232765 2.27713e-20)
(-0.0249251 0.049266 8.89641e-21)
(-0.0530793 0.0644362 -1.31368e-20)
(-0.0826869 0.0730216 2.62277e-20)
(-0.113404 0.0777693 1.38715e-20)
(-0.143507 0.0803419 -1.16439e-20)
(-0.172592 0.0816869 5.68192e-20)
(-0.200258 0.0822928 3.09739e-20)
(-0.226314 0.0823524 1.30617e-21)
(-0.250581 0.0818935 -2.62933e-20)
(-0.272893 0.0808601 -1.74864e-20)
(-0.293066 0.0791624 1.66394e-20)
(-0.310903 0.0767016 -2.81267e-20)
(-0.326191 0.0733818 4.07047e-20)
(-0.33871 0.0691152 -1.961e-20)
(-0.00661018 0.0261418 1.93807e-20)
(-0.0254015 0.0556022 -5.24037e-21)
(-0.0524622 0.0729668 4.46568e-20)
(-0.0806766 0.0828769 -5.13146e-20)
(-0.109757 0.0883957 2.16067e-20)
(-0.138071 0.0913899 2.23611e-20)
(-0.165205 0.0929384 9.25817e-21)
(-0.190746 0.0936055 -5.76225e-20)
(-0.214481 0.0936218 2.06096e-20)
(-0.236215 0.0930276 -2.54557e-20)
(-0.255767 0.0917662 2.15308e-20)
(-0.272949 0.08974 1.53486e-20)
(-0.287561 0.0868401 3.61803e-20)
(-0.299394 0.0829607 -6.71793e-20)
(-0.308239 0.0780058 3.25439e-20)
(-0.00725334 0.0287276 -8.23473e-20)
(-0.025917 0.0614415 1.93341e-20)
(-0.0517798 0.080934 -2.78298e-20)
(-0.0784563 0.0921625 5.53395e-20)
(-0.105723 0.0984644 -3.57041e-20)
(-0.132049 0.101889 4.38525e-21)
(-0.157016 0.10364 -3.20947e-20)
(-0.180202 0.104358 8.67212e-21)
(-0.201373 0.104312 3.84162e-21)
(-0.220317 0.103561 8.8343e-20)
(-0.236844 0.102048 1.94531e-20)
(-0.250762 0.099671 -7.98017e-22)
(-0.261873 0.0963141 1.57921e-20)
(-0.269978 0.0918636 -4.16658e-20)
(-0.274883 0.086217 -3.03212e-20)
(-0.00792938 0.0310135 4.73162e-20)
(-0.0264614 0.0667405 -4.88781e-20)
(-0.0510406 0.0882819 7.56807e-21)
(-0.0760547 0.100817 -5.57862e-20)
(-0.10135 0.107911 1.40898e-22)
(-0.125511 0.111775 1.7587e-20)
(-0.148119 0.113729 -1.07704e-20)
(-0.168746 0.114486 -2.06981e-20)
(-0.187139 0.11436 -1.08533e-20)
(-0.203074 0.113428 5.63887e-21)
(-0.216354 0.11164 -6.12928e-21)
(-0.226786 0.108892 -9.19584e-20)
(-0.234179 0.105062 6.01711e-20)
(-0.23835 0.100032 -3.98819e-21)
(-0.239126 0.093695 -9.87964e-21)
(-0.00862468 0.0329846 -2.94785e-20)
(-0.0270244 0.0714635 -4.74739e-20)
(-0.0502536 0.0949611 -3.95095e-20)
(-0.0735023 0.108782 3.94747e-20)
(-0.0966919 0.116676 -3.71042e-20)
(-0.118533 0.120987 7.80574e-21)
(-0.138615 0.123142 -8.08188e-23)
(-0.156506 0.123929 2.89234e-20)
(-0.17194 0.123705 2.89681e-20)
(-0.184684 0.12257 -2.93837e-20)
(-0.194538 0.120484 -3.7947e-20)
(-0.201312 0.117346 2.87172e-20)
(-0.20483 0.11303 -2.616e-20)
(-0.204927 0.107415 4.39098e-22)
(-0.20146 0.100394 9.44969e-20)
(-0.00932565 0.0346312 3.6341e-20)
(-0.0275954 0.075583 4.08829e-20)
(-0.0494286 0.10093 7.26868e-22)
(-0.0708314 0.116009 -5.41053e-20)
(-0.0918048 0.124703 6.95829e-20)
(-0.111197 0.129467 3.51734e-20)
(-0.128609 0.131823 9.16685e-20)
(-0.143616 0.132629 8.27627e-20)
(-0.155944 0.132289 -7.10384e-20)
(-0.165354 0.130931 7.32035e-22)
(-0.171646 0.128527 -1.67799e-20)
(-0.174641 0.124981 5.23174e-20)
(-0.174181 0.120168 6.76424e-21)
(-0.170129 0.113968 -1.09712e-20)
(-0.162375 0.106274 1.74581e-20)
(-0.0100191 0.0359496 -2.93668e-21)
(-0.0281641 0.0790801 4.86502e-20)
(-0.0485756 0.106154 5.97392e-20)
(-0.0680754 0.122452 5.26578e-20)
(-0.0867469 0.131942 -8.92704e-20)
(-0.103585 0.13716 -8.90005e-20)
(-0.118213 0.139716 -1.19971e-20)
(-0.130218 0.140532 -9.1809e-20)
(-0.139324 0.140061 1.23189e-20)
(-0.145293 0.13846 -1.06037e-19)
(-0.147931 0.13572 8.5109e-20)
(-0.147076 0.131751 2.46246e-22)
(-0.142591 0.126435 2.52643e-20)
(-0.134373 0.119654 -3.13133e-20)
(-0.122349 0.111303 -6.95817e-20)
(-0.0106926 0.0369413 3.27938e-20)
(-0.0287207 0.0819446 -8.74852e-20)
(-0.0477049 0.110609 -2.04891e-20)
(-0.0652682 0.128073 4.93574e-20)
(-0.081578 0.138346 9.07408e-20)
(-0.0957837 0.144018 1.94513e-20)
(-0.107539 0.14677 -1.06293e-19)
(-0.116454 0.147587 7.58441e-21)
(-0.122256 0.14697 2.61292e-21)
(-0.124714 0.145109 9.13901e-20)
(-0.123649 0.142017 -9.89821e-20)
(-0.118916 0.137615 -4.19223e-20)
(-0.110409 0.131793 -2.61463e-20)
(-0.0980601 0.124438 4.25026e-20)
(-0.0818416 0.115452 4.25371e-20)
(-0.0113349 0.0376133 -7.37766e-20)
(-0.029256 0.0841751 -6.2534e-21)
(-0.046827 0.114279 4.95304e-20)
(-0.0624438 0.132845 1.53975e-20)
(-0.0763575 0.143877 9.17076e-21)
(-0.087879 0.149996 -3.14949e-20)
(-0.0967024 0.152938 9.14985e-20)
(-0.102468 0.153748 -8.00549e-21)
(-0.104916 0.152972 -9.07537e-22)
(-0.10383 0.150837 -6.76039e-20)
(-0.0990485 0.147379 9.17251e-20)
(-0.0904532 0.142536 9.6765e-20)
(-0.0779716 0.136209 -4.57243e-20)
(-0.0615761 0.128292 -1.26752e-19)
(-0.0412833 0.118694 -4.31507e-20)
(-0.0119361 0.0379777 -3.60808e-20)
(-0.0297619 0.0857785 5.31586e-20)
(-0.0459522 0.117154 -4.608e-20)
(-0.0596353 0.136743 -3.11514e-20)
(-0.0711445 0.148503 3.37657e-21)
(-0.0799564 0.155053 1.16538e-19)
(-0.0858153 0.158178 -2.4811e-20)
(-0.0884012 0.15897 2.7777e-20)
(-0.0874765 0.158024 -5.72844e-21)
(-0.0828463 0.155603 7.98748e-20)
(-0.0743726 0.151769 6.41881e-20)
(-0.0619685 0.146481 -1.27137e-19)
(-0.0455984 0.139652 1.36136e-19)
(-0.0252771 0.131188 5.03892e-20)
(-0.00106691 0.121008 1.48153e-19)
(0.0269241 0.109051 4.15034e-20)
(-0.0124882 0.0380509 -1.23443e-20)
(-0.0302318 0.0867702 8.23328e-20)
(-0.0450909 0.119238 3.14838e-20)
(-0.0568746 0.139756 -8.60669e-20)
(-0.0659955 0.152197 -7.64263e-20)
(-0.0720987 0.159158 -1.20595e-19)
(-0.0749877 0.162453 -6.65456e-20)
(-0.0743922 0.163217 8.89444e-20)
(-0.0701052 0.16209 8.46607e-21)
(-0.0619605 0.159372 -6.24099e-20)
(-0.0498505 0.155156 -1.33732e-19)
(-0.0337231 0.149421 -1.81062e-20)
(-0.0135821 0.142098 -6.92164e-20)
(0.0105152 0.133105 7.31008e-20)
(0.0384633 0.122371 -1.28266e-19)
(0.0701148 0.109845 9.27103e-20)
(-0.0129846 0.0378524 7.00156e-20)
(-0.0306604 0.0871741 -3.01512e-20)
(-0.0442527 0.120543 -1.25224e-19)
(-0.0541916 0.14188 -1.27496e-21)
(-0.0609641 0.154943 6.88595e-20)
(-0.0643843 0.162283 4.72781e-20)
(-0.0643239 0.16573 2.83924e-20)
(-0.0605714 0.166454 -5.13851e-20)
(-0.0529594 0.165135 5.64404e-20)
(-0.0413578 0.162112 -1.10906e-19)
(-0.025694 0.157509 -1.48206e-20)
(-0.00595422 0.15133 1.16081e-19)
(0.0178178 0.143523 2.4405e-20)
(0.0455243 0.134022 2.97145e-20)
(0.0770222 0.122768 3.76227e-20)
(0.112133 0.109717 -1.22158e-19)
(-0.0134205 0.0374061 -1.35359e-21)
(-0.0310441 0.0870218 1.33192e-20)
(-0.043447 0.121086 1.4024e-19)
(-0.0516136 0.143119 7.11149e-20)
(-0.0560989 0.156731 -2.61926e-20)
(-0.0568852 0.164409 -3.11768e-20)
(-0.05392 0.167984 -9.6533e-20)
(-0.0470593 0.168652 -3.29906e-21)
(-0.0361834 0.167131 -3.84622e-20)
(-0.0212048 0.163797 1.55626e-19)
(-0.00209068 0.158806 4.915e-20)
(0.0211334 0.152188 -1.47495e-19)
(0.0483849 0.143911 -3.45955e-20)
(0.0795307 0.133926 -2.94429e-20)
(0.114399 0.122185 -2.3061e-20)
(0.152792 0.108655 -2.86369e-20)
(-0.0137942 0.0367399 -9.3272e-20)
(-0.031381 0.0863499 -1.33538e-20)
(-0.042682 0.120897 -2.33828e-20)
(-0.0491638 0.143487 -1.73709e-20)
(-0.0514428 0.157562 -6.46057e-20)
(-0.0496651 0.165526 1.81706e-19)
(-0.0438612 0.169197 2.01461e-19)
(-0.0339619 0.169791 -5.37587e-20)
(-0.0199031 0.168057 -1.46953e-19)
(-0.00164483 0.164407 -5.49598e-20)
(0.020803 0.159029 2.895e-20)
(0.0473758 0.15198 -9.46627e-20)
(0.0779565 0.143251 -9.01564e-21)
(0.112385 0.132808 -1.15862e-19)
(0.15047 0.120617 1.2213e-19)
(0.192015 0.106654 1.55994e-20)
(-0.0141057 0.0358824 1.66398e-19)
(-0.0316708 0.0852004 6.68377e-20)
(-0.0419654 0.120013 -4.34158e-20)
(-0.0468618 0.14301 -1.44291e-20)
(-0.0470308 0.157447 1.53752e-19)
(-0.0427769 0.165632 -5.54032e-20)
(-0.0342184 0.169361 -9.61219e-21)
(-0.0213675 0.169858 9.82905e-20)
(-0.00422097 0.167899 1.31694e-19)
(0.0172093 0.163929 -2.83346e-20)
(0.04287 0.158168 -6.84113e-20)
(0.0726606 0.150699 1.14855e-19)
(0.106436 0.141539 4.87852e-20)
(0.14402 0.13067 2.16088e-19)
(0.185221 0.11807 -9.39635e-21)
(0.229854 0.103724 5.83529e-20)
(-0.014357 0.0348637 4.37731e-20)
(-0.0319153 0.0836209 -8.38215e-20)
(-0.0413032 0.118477 1.73828e-19)
(-0.0447219 0.141719 9.03844e-20)
(-0.0428893 0.156405 -1.91333e-20)
(-0.0362605 0.164737 -6.5708e-20)
(-0.0250454 0.168477 -1.09289e-19)
(-0.00934126 0.16885 -8.64257e-20)
(0.0107898 0.166653 -9.31451e-20)
(0.0352826 0.16236 1.02245e-19)
(0.0640424 0.156222 -1.19807e-20)
(0.0969381 0.148351 1.48234e-19)
(0.133808 0.138785 -5.52958e-20)
(0.174472 0.127526 -6.63633e-20)
(0.218755 0.114565 1.48585e-20)
(0.266504 0.0998935 8.37619e-20)
(0.317609 0.0835106 4.75984e-20)
(-0.0145524 0.0337147 -1.84961e-19)
(-0.0321176 0.0816621 -4.0236e-20)
(-0.0406996 0.116341 -2.08533e-19)
(-0.0427523 0.139656 -3.57969e-21)
(-0.0390339 0.154466 -7.09807e-20)
(-0.0301405 0.162861 -1.65902e-20)
(-0.0163747 0.166558 8.92782e-20)
(0.00207904 0.166774 -1.48121e-19)
(0.0250918 0.164324 -6.27382e-21)
(0.0525462 0.159708 8.75744e-20)
(0.0843106 0.153204 8.63204e-20)
(0.120233 0.144953 -1.23535e-19)
(0.160146 0.135015 3.93799e-21)
(0.203885 0.123411 -8.67336e-20)
(0.251306 0.110145 7.03309e-21)
(0.302304 0.0952178 -1.26342e-19)
(0.356821 0.0786323 -4.04414e-20)
(-0.0146978 0.0324661 1.81637e-19)
(-0.0322822 0.0793771 7.78905e-20)
(-0.0401567 0.11366 4.05619e-20)
(-0.040955 0.136871 9.11678e-20)
(-0.0354686 0.151673 -8.04279e-21)
(-0.0244234 0.160036 1.37961e-19)
(-0.00821429 0.163629 -9.52007e-20)
(0.0128882 0.163654 1.22171e-19)
(0.0386898 0.160936 -1.58814e-20)
(0.0690252 0.155997 -1.89064e-19)
(0.103734 0.149143 1.15657e-20)
(0.142654 0.140542 -9.11977e-20)
(0.185629 0.130275 -3.54182e-20)
(0.232526 0.118382 -2.29379e-21)
(0.283246 0.104882 -6.54652e-20)
(0.337737 0.0897834 1.06172e-19)
(0.395984 0.0730957 6.29478e-20)
(-0.0148007 0.0311483 -4.57154e-20)
(-0.0324145 0.0768202 -2.17913e-19)
(-0.0396738 0.110496 -2.07721e-19)
(-0.039324 0.133423 -1.33115e-19)
(-0.0321836 0.148074 2.76731e-20)
(-0.0190958 0.156305 -2.88484e-19)
(-0.000544173 0.159728 1.64339e-19)
(0.0231185 0.159524 3.79475e-20)
(0.0516371 0.156524 6.35623e-20)
(0.0848063 0.151268 8.96643e-20)
(0.122448 0.144088 2.49938e-20)
(0.164404 0.135175 8.98206e-20)
(0.210547 0.124635 9.38454e-20)
(0.260784 0.112526 -3.73743e-20)
(0.315071 0.0988795 4.6389e-20)
(0.3734 0.0837151 -6.46825e-20)
(0.435773 0.0670487 -9.95713e-20)
(-0.0148701 0.0297902 -7.63502e-20)
(-0.0325203 0.0740455 -3.40113e-20)
(-0.0392472 0.106911 2.74278e-19)
(-0.0378453 0.129374 -2.10594e-19)
(-0.0291547 0.143732 1.09072e-19)
(-0.014122 0.151726 1.28475e-19)
(0.00668671 0.154909 -9.71146e-20)
(0.0328434 0.154438 -3.60387e-20)
(0.0640407 0.151144 1.60528e-19)
(0.100044 0.145583 -3.89037e-20)
(0.140671 0.138109 -6.29566e-20)
(0.185784 0.128938 -8.95776e-20)
(0.235293 0.118197 -9.17564e-20)
(0.289158 0.105962 2.2076e-20)
(0.347378 0.0922792 -8.78456e-20)
(0.409966 0.0771778 5.52447e-20)
(0.476888 0.0606809 9.48648e-20)
(0.547976 0.0428142 -7.08912e-20)
(-0.0149155 0.0284186 1.94297e-19)
(-0.0326056 0.0711061 8.04075e-21)
(-0.0388692 0.10297 -2.57428e-19)
(-0.0364959 0.124795 2.25566e-19)
(-0.0263419 0.138715 -3.47321e-19)
(-0.00944237 0.146366 1.32489e-19)
(0.013563 0.14924 3.16788e-20)
(0.0421813 0.148466 -1.99524e-20)
(0.076065 0.144872 -2.28883e-19)
(0.114964 0.139027 6.72447e-20)
(0.158706 0.131305 -5.60729e-20)
(0.207186 0.121943 6.27223e-20)
(0.260361 0.111092 -5.51393e-20)
(0.318235 0.0988444 4.22285e-20)
(0.380828 0.085259 2.75083e-21)
(0.448123 0.070374 -5.36596e-20)
(0.519975 0.054218 -2.06414e-20)
(0.596001 0.0368223 5.41218e-20)
(-0.0149471 0.0270581 -1.72508e-19)
(-0.0326752 0.0680526 3.35275e-19)
(-0.0385279 0.0987415 2.99671e-19)
(-0.035243 0.11976 4.65195e-20)
(-0.0236887 0.133101 1.83926e-19)
(-0.00497233 0.140305 -2.55455e-19)
(0.0202041 0.142803 8.72762e-20)
(0.0512971 0.141696 1.36496e-19)
(0.0879327 0.137805 2.08739e-19)
(0.129861 0.131708 1.65669e-20)
(0.176933 0.123798 6.30182e-20)
(0.229086 0.114334 1.14786e-20)
(0.286317 0.103485 1.09219e-19)
(0.348652 0.0913611 1.02332e-19)
(0.416088 0.0780305 -2.13268e-20)
(0.488502 0.0635367 1.31099e-19)
(0.565541 0.0479099 -1.91567e-20)
(0.646502 0.0311823 -6.05103e-20)
(-0.0149751 0.0257304 -1.47512e-20)
(-0.032733 0.0649324 -5.17844e-20)
(-0.0382066 0.0942889 -8.31106e-20)
(-0.0340438 0.114345 -1.53019e-19)
(-0.0211215 0.126975 1.56768e-19)
(-0.000601937 0.133634 1.36557e-19)
(0.026765 0.135697 -5.56777e-20)
(0.0604011 0.134233 -8.98028e-21)
(0.099923 0.130058 -1.77711e-19)
(0.145095 0.123757 -7.5409e-20)
(0.195802 0.115738 -4.32108e-21)
(0.252018 0.10628 4.68238e-20)
(0.313765 0.0955703 -9.82232e-20)
(0.381047 0.0837285 -4.81462e-20)
(0.453763 0.0708297 5.15191e-20)
(0.531594 0.0569165 -7.20014e-20)
(0.613871 0.0420136 7.09262e-20)
(0.699476 0.0261459 -3.17126e-20)
(0.786776 0.00936033 1.09265e-19)
(-0.0150091 0.0244539 -1.8551e-19)
(-0.0327805 0.0617886 -5.22453e-20)
(-0.0378828 0.0896758 -6.36967e-20)
(-0.0328455 0.108627 2.29562e-20)
(-0.0185502 0.120425 -1.26154e-19)
(0.0038035 0.126451 1.02613e-19)
(0.033434 0.128029 -1.48472e-19)
(0.0697467 0.1262 -1.82816e-19)
(0.112365 0.121769 7.54418e-20)
(0.161078 0.115328 -6.97196e-20)
(0.215807 0.1073 -1.13429e-19)
(0.276547 0.0979793 4.46834e-20)
(0.343304 0.0875645 3.28521e-20)
(0.415995 0.0761823 2.05547e-20)
(0.49433 0.0639052 4.33201e-21)
(0.577684 0.0507655 -3.76867e-20)
(0.664975 0.0367727 -1.54102e-19)
(0.754595 0.0219345 -7.33635e-20)
(0.84443 0.00628206 -1.87117e-19)
(-0.0150579 0.0232432 2.50528e-19)
(-0.0328167 0.0586596 -9.4404e-20)
(-0.0375286 0.084962 2.03365e-19)
(-0.0315848 0.102685 1.1173e-19)
(-0.0158683 0.113544 -3.89275e-20)
(0.00840182 0.118864 -2.41459e-19)
(0.0404303 0.119922 2.01897e-19)
(0.0796239 0.117732 1.92831e-19)
(0.125627 0.11309 7.48221e-20)
(0.178259 0.106594 -8.0634e-20)
(0.237464 0.0986774 2.96565e-20)
(0.303227 0.0896443 7.72169e-21)
(0.375476 0.0796991 -5.88772e-20)
(0.453952 0.0689652 -8.4698e-20)
(0.538073 0.0575013 8.51075e-21)
(0.626798 0.0453179 1.19766e-19)
(0.718554 0.0323972 -5.11637e-20)
(0.811227 0.0187193 3.60295e-20)
(0.90227 0.00429178 -4.66068e-20)
(-0.0151287 0.0221096 -2.07723e-19)
(-0.0328374 0.0555778 6.22018e-20)
(-0.0371101 0.080203 -1.07809e-19)
(-0.0301888 0.096593 5.01243e-20)
(-0.012955 0.106426 -5.2899e-20)
(0.0133711 0.110983 6.61543e-20)
(0.047998 0.111503 -1.33577e-19)
(0.0903506 0.108975 2.94982e-20)
(0.140102 0.104189 8.25525e-20)
(0.197098 0.0977426 2.96742e-19)
(0.261276 0.0900762 -8.48343e-20)
(0.332559 0.0814981 -9.82273e-20)
(0.410714 0.0722077 1.24451e-19)
(0.495201 0.062312 9.18833e-20)
(0.585034 0.0518422 -5.12471e-20)
(0.678676 0.0407724 -4.91045e-20)
(0.774022 0.0290459 2.98847e-19)
(0.868487 0.0166071 3.19773e-19)
(0.959218 0.00343645 -2.47401e-20)
(1.04338 -0.0104201 -2.85621e-20)
(-0.0152272 0.0210603 6.90094e-20)
(-0.0328343 0.0525701 -1.79777e-19)
(-0.0365872 0.0754488 -7.9426e-20)
(-0.0285758 0.0904243 -2.07733e-19)
(-0.00967669 0.0991649 -1.72045e-20)
(0.0189055 0.102922 9.35952e-20)
(0.0563997 0.102906 3.92833e-20)
(0.102261 0.100084 -3.76978e-20)
(0.156191 0.0952381 -1.83727e-20)
(0.218042 0.0889659 -2.11538e-19)
(0.287701 0.0817067 1.98214e-19)
(0.36495 0.0737622 8.92934e-20)
(0.449296 0.0653134 -2.20893e-19)
(0.539808 0.0564354 1.09969e-19)
(0.635001 0.0471154 1.10679e-19)
(0.732786 0.0372772 -1.10288e-19)
(0.830547 0.0268156 -2.70408e-19)
(0.925334 0.0156357 -2.86696e-19)
(1.01416 0.00369277 2.14898e-19)
(1.09431 -0.00897858 -1.90602e-19)
(-0.0153565 0.0200988 2.50027e-19)
(-0.0327955 0.0496567 2.28602e-19)
(-0.0359143 0.0707431 1.62087e-19)
(-0.026656 0.0842457 -7.54644e-20)
(-0.00588986 0.09185 -5.77922e-20)
(0.0252104 0.0947935 7.22766e-21)
(0.0659074 0.094264 -1.189e-19)
(0.115691 0.0912133 -1.07122e-19)
(0.174281 0.086414 -1.31041e-19)
(0.241497 0.0804577 1.42609e-19)
(0.317112 0.0737743 -4.22636e-20)
(0.400672 0.0666452 1.7052e-20)
(0.491311 0.0592161 -2.02124e-20)
(0.587607 0.051512 -9.66458e-20)
(0.687504 0.0434595 -7.63741e-20)
(0.788363 0.0349207 -3.76541e-20)
(0.887139 0.0257368 1.04501e-19)
(0.980672 0.0157765 -1.75312e-20)
(1.06604 0.00497778 -2.84247e-20)
(1.14088 -0.00662484 -2.28336e-20)
(-0.0155177 0.0192247 -3.04198e-19)
(-0.0327045 0.0468515 -1.78928e-19)
(-0.0350402 0.0661228 -2.2933e-19)
(-0.0243338 0.0781181 3.37733e-19)
(-0.00144467 0.0845668 1.3267e-20)
(0.0324961 0.0867059 -2.77958e-20)
(0.0767926 0.08571 2.40359e-19)
(0.130965 0.0825168 4.75886e-20)
(0.194725 0.0778884 1.44681e-19)
(0.267803 0.0724035 7.32567e-20)
(0.349772 0.06647 -7.64505e-20)
(0.439834 0.0603323 1.42642e-20)
(0.536645 0.0540812 5.69991e-20)
(0.638201 0.0476724 6.95934e-21)
(0.741858 0.0409575 -2.59411e-20)
(0.844482 0.0337295 3.43307e-19)
(0.942739 0.0257784 -7.24731e-21)
(1.03346 0.0169454 1.08299e-19)
(1.11399 0.00716505 -3.78361e-20)
(1.1825 -0.00351425 -5.66096e-20)
(1.23805 -0.0149345 -6.63831e-20)
(-0.0157089 0.0184344 3.05858e-19)
(-0.0325404 0.0441624 1.34068e-19)
(-0.0339093 0.0616175 2.00968e-19)
(-0.0215091 0.0720952 -1.74353e-19)
(0.00381144 0.0773939 2.18224e-20)
(0.0409712 0.0787622 -6.48469e-21)
(0.0893159 0.0773689 -1.39402e-19)
(0.14838 0.07414 -1.2717e-19)
(0.217819 0.0698229 -1.68937e-19)
(0.297206 0.0649737 -1.06748e-19)
(0.385808 0.0599627 5.04131e-20)
(0.482372 0.054977 1.49378e-20)
(0.584975 0.0500319 1.06151e-20)
(0.690992 0.0449957 -2.9162e-20)
(0.797216 0.0396346 7.89002e-20)
(0.900138 0.0336725 -1.68705e-19)
(0.99632 0.0268571 -2.73595e-19)
(1.08279 0.0190178 -3.86546e-20)
(1.15737 0.0101028 7.3679e-20)
(1.21884 0.000188535 1.68188e-19)
(1.26697 -0.0105362 -1.32332e-20)
(-0.0159256 0.0177211 -3.59527e-19)
(-0.0322783 0.0415909 7.14882e-20)
(-0.0324621 0.0572491 -1.00828e-19)
(-0.0180798 0.0662226 1.55509e-19)
(0.0100297 0.0704014 3.91145e-20)
(0.050836 0.0710562 -5.38014e-20)
(0.103717 0.0693566 -2.00436e-20)
(0.168188 0.066217 1.71158e-19)
(0.243791 0.0623638 1.06627e-20)
(0.329844 0.0583175 -6.92523e-20)
(0.4252 0.0543918 1.07339e-20)
(0.528041 0.0506947 -8.1199e-20)
(0.6358 0.0471445 1.41713e-19)
(0.745225 0.0435081 1.27323e-19)
(0.852642 0.0394624 4.35477e-20)
(0.954333 0.0346697 8.57701e-20)
(1.04697 0.0288517 1.18204e-19)
(1.12798 0.0218458 9.64919e-20)
(1.19578 0.0136311 -7.48972e-20)
(1.24986 0.00432475 -1.98683e-19)
(1.29064 -0.00584708 2.38285e-19)
(1.31929 -0.0165904 1.95646e-20)
(-0.0161606 0.0170754 3.10887e-19)
(-0.0318895 0.0391334 -2.24999e-19)
(-0.0306364 0.0530324 -2.04184e-20)
(-0.0139437 0.0605372 -2.41546e-20)
(0.0173561 0.0636499 1.90695e-19)
(0.0622762 0.0636711 4.63809e-20)
(0.120205 0.0617766 2.0506e-19)
(0.190592 0.0588665 -5.057e-20)
(0.272783 0.0556377 4.26402e-20)
(0.365738 0.0525582 1.17472e-19)
(0.467779 0.0498635 -1.28708e-19)
(0.576437 0.0475592 -8.76591e-20)
(0.688465 0.0454479 -2.58322e-20)
(0.800048 0.0431866 -3.59106e-20)
(0.907186 0.0403669 4.93764e-20)
(1.00615 0.0366052 -5.75804e-21)
(1.09394 0.0316187 -1.83923e-19)
(1.16854 0.0252735 2.28078e-19)
(1.22907 0.0175958 -1.0718e-20)
(1.2757 0.00875212 1.48253e-19)
(1.30946 -0.000991076 -1.41995e-19)
(1.33193 -0.011315 1.18891e-19)
(-0.0164046 0.0164861 -2.25723e-19)
(-0.031342 0.0367812 7.89819e-21)
(-0.0283684 0.0489749 1.81441e-19)
(-0.00900038 0.0550669 -1.15327e-19)
(0.0259278 0.0571893 -2.41746e-19)
(0.0754574 0.0566781 -1.36195e-19)
(0.138952 0.0547177 -1.89221e-19)
(0.215729 0.0521897 3.82473e-20)
(0.304846 0.0497486 6.98738e-20)
(0.404787 0.0477905 -1.28135e-19)
(0.513237 0.0464485 5.69975e-20)
(0.627015 0.0456032 1.20308e-19)
(0.742217 0.0449273 -4.11399e-20)
(0.854575 0.0439666 -2.28754e-20)
(0.959949 0.0422406 -1.58579e-19)
(1.05483 0.0393415 -9.33527e-20)
(1.1367 0.0350065 2.0979e-19)
(1.20424 0.0291502 -2.92426e-19)
(1.25731 0.0218582 1.12551e-19)
(1.29671 0.013351 -2.01604e-19)
(1.32395 0.00393396 2.81363e-20)
(1.34092 -0.00605307 -7.47469e-21)
(1.3496 -0.0162775 1.88628e-19)
(-0.0166441 0.0159386 1.04944e-20)
(-0.0306002 0.0345208 -1.63945e-20)
(-0.0255938 0.0450776 -2.76286e-19)
(-0.00315466 0.049832 -4.60173e-20)
(0.0358686 0.0510607 1.37451e-19)
(0.0905182 0.0501378 2.25417e-19)
(0.160083 0.0482566 3.97629e-20)
(0.243669 0.0462722 -4.69367e-20)
(0.339934 0.0447809 2.48093e-20)
(0.446769 0.0440838 -3.82696e-20)
(0.561139 0.0441865 1.8108e-19)
(0.679128 0.0448243 -2.46018e-19)
(0.796247 0.0455326 7.41213e-20)
(0.90794 0.0457536 2.46943e-20)
(1.01014 0.0449557 -1.04801e-19)
(1.09975 0.0427336 -5.4286e-20)
(1.17491 0.0388684 -3.74267e-20)
(1.23506 0.0333401 -2.74895e-20)
(1.28073 0.0263013 -1.12843e-19)
(1.31331 0.0180263 -7.16343e-20)
(1.33467 0.00885533 -6.27223e-20)
(1.34686 -0.000857034 -2.99576e-20)
(1.3519 -0.0107788 -5.39014e-20)
(-0.0168585 0.0154127 2.60631e-19)
(-0.0296234 0.0323338 2.6993e-19)
(-0.0222494 0.0413373 2.33961e-19)
(0.00367974 0.044849 1.1371e-19)
(0.047282 0.0453012 -2.18616e-19)
(0.107562 0.0441062 -1.93025e-19)
(0.183671 0.0424634 -1.30742e-20)
(0.274403 0.0411902 1.30299e-20)
(0.3779 0.0408045 -8.24068e-20)
(0.491355 0.0414872 7.1697e-20)
(0.610949 0.0430913 -1.26105e-19)
(0.732059 0.0451917 2.09594e-19)
(0.849742 0.0471868 -5.8358e-20)
(0.959349 0.0484332 -1.80816e-20)
(1.05711 0.0483752 8.47315e-20)
(1.14052 0.0466385 2.61232e-19)
(1.20847 0.04307 1.75886e-20)
(1.26114 0.037727 1.0835e-20)
(1.29972 0.0308312 1.2805e-19)
(1.32602 0.0227073 5.94985e-20)
(1.34218 0.0137229 7.43794e-20)
(1.35032 0.00424074 5.03766e-20)
(1.35237 -0.0054137 4.08018e-20)
(1.34998 -0.0149681 1.36954e-20)
(-0.0170308 0.0148955 -2.17028e-20)
(-0.0283715 0.0302059 -2.613e-19)
(-0.0182728 0.0377493 -1.63039e-19)
(0.011585 0.0401275 8.50618e-20)
(0.0602597 0.0399367 2.7303e-19)
(0.126668 0.0386232 1.06334e-19)
(0.20974 0.0373869 2.06208e-19)
(0.307853 0.0369921 -2.46602e-20)
(0.418512 0.0378551 -4.07761e-20)
(0.538118 0.0400089 1.09208e-19)
(0.662048 0.0431317 -8.31187e-20)
(0.785055 0.0466299 -9.27364e-20)
(0.901914 0.0497759 -7.77607e-20)
(1.00811 0.0518659 -1.08637e-19)
(1.10036 0.0523516 1.80155e-19)
(1.17689 0.0509167 -1.52854e-19)
(1.23739 0.0474912 -1.76716e-19)
(1.28275 0.0422157 8.28365e-20)
(1.31469 0.0353787 1.44747e-19)
(1.33536 0.0273478 1.30294e-19)
(1.34702 0.0185102 -1.81854e-19)
(1.35178 0.00922869 1.20245e-20)
(1.35144 -0.000182609 -9.00838e-20)
(1.34749 -0.00946891 -8.69132e-20)
(-0.0171492 0.0143785 -4.74234e-20)
(-0.0268061 0.0281204 2.42323e-19)
(-0.0136024 0.0343014 1.18715e-20)
(0.0206391 0.0356654 9.79763e-21)
(0.0748825 0.0349771 -2.14906e-19)
(0.147892 0.0337097 -1.56623e-20)
(0.238285 0.033054 -2.05254e-19)
(0.343901 0.0337016 6.44994e-20)
(0.461491 0.0359403 1.15805e-19)
(0.586599 0.0396273 -1.30834e-19)
(0.713824 0.044248 1.4799e-19)
(0.837426 0.0490409 5.72872e-20)
(0.952108 0.0531727 1.69947e-20)
(1.0537 0.055911 1.4682e-19)
(1.1396 0.0567469 -6.51253e-20)
(1.20885 0.0554458 3.14007e-21)
(1.2619 0.0520321 1.40667e-19)
(1.30029 0.0467306 2.81388e-20)
(1.32615 0.0398905 -1.62299e-19)
(1.34186 0.0319134 -1.12077e-19)
(1.3497 0.0231966 2.02886e-19)
(1.35168 0.0140966 -8.02271e-20)
(1.34947 0.00491144 -5.32963e-21)
(1.34434 -0.00412381 -7.80627e-20)
(1.33723 -0.0128318 6.49316e-20)
(-0.0171961 0.0138482 -1.56555e-19)
(-0.0248867 0.0260578 -6.30937e-20)
(-0.008181 0.0309796 1.44999e-19)
(0.0309084 0.0314596 -1.65794e-19)
(0.0912086 0.0304322 -8.68361e-20)
(0.171255 0.0293866 6.52041e-20)
(0.269246 0.0294909 3.84554e-20)
(0.382355 0.03134 -6.26904e-20)
(0.506481 0.0350627 8.67538e-21)
(0.636276 0.0403137 -5.08897e-20)
(0.765636 0.0463738 -2.63487e-20)
(0.888509 0.0523247 -7.223e-21)
(0.99975 0.0572561 9.63387e-20)
(1.09575 0.0604426 -1.51191e-19)
(1.1747 0.0614451 -1.26726e-19)
(1.23648 0.0601295 -3.26775e-20)
(1.28229 0.0566202 -7.08229e-21)
(1.31418 0.0512225 6.40038e-20)
(1.33459 0.0443373 -6.83549e-20)
(1.346 0.0363898 8.94503e-21)
(1.35065 0.0277789 -1.70389e-19)
(1.3504 0.0188485 4.83688e-21)
(1.34674 0.00987703 9.10805e-20)
(1.34074 0.00107876 2.65564e-20)
(1.3332 -0.00738777 -1.08968e-19)
(1.32465 -0.0154095 4.52915e-21)
(-0.0171518 0.0132908 -5.46871e-20)
(-0.0225723 0.0239992 8.76291e-20)
(-0.0019546 0.0277704 8.01578e-20)
(0.0424489 0.0275068 1.40089e-19)
(0.109277 0.0263108 3.24318e-22)
(0.196745 0.0256724 -2.14629e-19)
(0.302516 0.0267189 1.6025e-20)
(0.422973 0.0299195 -3.67806e-20)
(0.553078 0.0352114 1.96497e-20)
(0.6866 0.0420227 2.65376e-19)
(0.816862 0.0494273 -2.063e-20)
(0.937711 0.056371 -5.7436e-20)
(1.04438 0.0619025 -1.59906e-19)
(1.13401 0.0653405 8.85327e-20)
(1.20565 0.0663426 3.91919e-20)
(1.26 0.0648871 1.44998e-19)
(1.29891 0.0611993 3.52879e-20)
(1.32486 0.0556569 3.48251e-20)
(1.34048 0.0487016 8.35297e-20)
(1.34823 0.0407717 1.21852e-19)
(1.35025 0.0322596 1.54588e-19)
(1.34824 0.0234916 -3.81947e-20)
(1.34347 0.014724 -7.00369e-20)
(1.33686 0.00615008 2.13842e-20)
(1.32905 -0.00208971 -3.30994e-21)
(1.32046 -0.00989624 8.0421e-20)
(-0.0169966 0.0126946 2.98644e-19)
(-0.0198227 0.0219279 -3.17262e-20)
(0.00512735 0.0246615 -2.74312e-19)
(0.0553085 0.023804 -9.20704e-20)
(0.129108 0.0226205 1.98527e-19)
(0.224324 0.0225829 1.6787e-19)
(0.337952 0.0247538 1.04164e-19)
(0.46547 0.0294426 -1.07523e-20)
(0.600843 0.0363615 -1.50753e-19)
(0.737019 0.0446935 -8.10906e-20)
(0.866921 0.053314 3.48455e-20)
(0.98453 0.0610641 -7.22453e-21)
(1.08568 0.0669925 8.98103e-20)
(1.16836 0.0704968 -9.73137e-21)
(1.23254 0.0713524 -3.28249e-21)
(1.27968 0.0696568 -1.38703e-19)
(1.31218 0.0657308 -1.76465e-19)
(1.33279 0.0600141 -2.23249e-19)
(1.34424 0.0529773 2.20977e-20)
(1.34893 0.0450619 3.80655e-20)
(1.34882 0.0366465 -1.26308e-19)
(1.34542 0.0280359 1.44275e-19)
(1.33983 0.0194636 2.81431e-21)
(1.3328 0.0111019 -6.83636e-20)
(1.32484 0.00307439 2.85941e-20)
(1.31628 -0.00453226 -8.49094e-20)
(1.30735 -0.0116588 -9.73256e-22)
(-0.0167111 0.0120498 -2.78701e-19)
(-0.0165982 0.0198301 -1.83437e-20)
(0.0131119 0.0216433 9.75677e-20)
(0.0695263 0.0203504 5.7679e-20)
(0.15071 0.0193706 -1.14523e-19)
(0.253928 0.0201334 -2.16993e-19)
(0.375378 0.0236072 -2.54057e-20)
(0.509524 0.0299032 1.19736e-19)
(0.649318 0.0384758 -4.85085e-20)
(0.786996 0.0482536 1.90351e-21)
(0.915295 0.0579327 -6.92644e-20)
(1.02857 0.0662899 9.7033e-20)
(1.12343 0.0724159 -7.82803e-20)
(1.19882 0.0758184 9.10797e-20)
(1.25557 0.0764055 -3.70989e-20)
(1.29586 0.0743937 -1.42001e-19)
(1.32248 0.0701909 7.34053e-20)
(1.33838 0.064286 1.55615e-19)
(1.34627 0.0571666 -1.10218e-19)
(1.34842 0.0492679 -1.32262e-19)
(1.34661 0.0409498 9.10502e-20)
(1.34215 0.0324928 -1.3644e-19)
(1.33596 0.0241072 4.73617e-20)
(1.32865 0.0159453 2.06015e-20)
(1.32063 0.00811552 6.99547e-20)
(1.31215 0.000693522 3.65208e-20)
(1.30337 -0.00626889 -8.05279e-20)
(1.29442 -0.0127374 -4.71087e-20)
(-0.0162761 0.011349 1.71478e-19)