/*--------------------------------*- C++ -*----------------------------------*\
  =========                 |
  \\      /  F ield         | OpenFOAM: The Open Source CFD Toolbox
   \\    /   O peration     | Website:  https://openfoam.org
    \\  /    A nd           | Version:  7
     \\/     M anipulation  |
\*---------------------------------------------------------------------------*/
FoamFile
{
    version     2.0;
    format      ascii;
    class       surfaceScalarField;
    location    "10";
    object      phi;
}
// * * * * * * * * * * * * * * * * * * * * * * * * * * * * * * * * * * * * * //

dimensions      [0 3 -1 0 0 0 0];

internalField   nonuniform List<scalar> 
11850
(
-5.04089e-05
5.04088e-05
1.20764e-10
-0.000146579
9.61703e-05
2.36254e-10
-0.000271072
0.000124492
2.9753e-10
-0.000415823
0.000144751
3.33408e-10
-0.000579248
0.000163425
3.64375e-10
-0.000762197
0.000182948
3.95433e-10
0.000204185
4.25071e-10
-4.90391e-05
9.94479e-05
-0.000142806
0.000189938
-0.000263914
0.000245599
-0.000404033
0.00028487
-0.000561108
0.000320501
-0.000735409
0.000357249
0.000396747
-4.63945e-05
0.000145842
-0.000135481
0.000279024
-0.000249983
0.000360102
-0.000381078
0.000415965
-0.000525824
0.000465246
-0.00068341
0.000514835
0.000566958
-4.26322e-05
0.000188475
-0.00012499
0.000361382
-0.000229978
0.000465089
-0.000348108
0.000534095
-0.000475241
0.000592379
-0.000609119
0.000648713
0.000705727
-3.79736e-05
0.000226448
-0.000111883
0.000435291
-0.000204881
0.000558087
-0.000306733
0.000635948
-0.000411915
0.000697561
-0.000516523
0.000753322
0.000806097
-3.26884e-05
0.000259137
-9.68284e-05
0.000499431
-0.000175895
0.000637153
-0.000258899
0.000718952
-0.000338882
0.000777544
-0.000410266
0.000824706
-0.000467607
0.000863438
0.000891116
-2.70756e-05
0.000286212
-8.05741e-05
0.00055293
-0.000144353
0.000700932
-0.000206736
0.000781335
-0.000259402
0.00083021
-0.000295205
0.000860509
-0.0003071
0.000875333
0.00087151
-2.14419e-05
0.000307654
-6.38917e-05
0.00059538
-0.000111628
0.000748668
-0.000152398
0.000822105
-0.000176674
0.000854486
-0.000175936
0.000859771
-0.000141779
0.000841175
0.000795137
-1.60801e-05
0.000323734
-4.75218e-05
0.000626821
-7.9027e-05
0.000780174
-9.78856e-05
0.000840963
-9.35493e-05
0.00085015
-5.63176e-05
0.000822539
2.3384e-05
0.000761474
0.000663115
-1.12475e-05
0.000334982
-3.21185e-05
0.000647693
-4.76889e-05
0.000795744
-4.48667e-05
0.000838141
-1.22283e-05
0.000817511
6.10194e-05
0.000749292
0.000185607
0.000636886
0.000476152
-7.14701e-06
0.000342129
-1.8193e-05
0.000658738
-1.84788e-05
0.00079603
5.51223e-06
0.00081415
6.60517e-05
0.000756972
0.000175144
0.0006402
0.000344984
0.000467046
0.000232859
-3.91179e-06
0.00034604
-6.04688e-06
0.000660874
8.12187e-06
0.000781861
5.27786e-05
0.000769493
0.000141275
0.000668476
0.000287228
0.000494247
0.000504939
0.000249335
0.000809485
-7.16863e-05
-0.000477428
-1.59768e-06
0.000347638
4.13106e-06
0.000655145
3.20794e-05
0.000753913
9.73334e-05
0.000704239
0.000214894
0.000550915
0.000400772
0.000308368
0.000672187
-2.20803e-05
0.00104698
-0.000446476
-0.000972222
-1.36525e-07
0.000347775
1.24817e-05
0.000642527
5.38681e-05
0.000712526
0.000140499
0.000617609
0.000289911
0.000401502
0.000521477
7.68024e-05
0.00085587
-0.000356473
0.00131269
-0.000903299
-0.00156595
5.62743e-07
0.000347212
1.95243e-05
0.000623565
7.4532e-05
0.000657518
0.000184555
0.000507586
0.000370741
0.000215316
0.000656611
-0.000209068
0.00106557
-0.00076543
0.00161556
-0.00145329
-0.00226268
7.29258e-07
0.000346483
2.5869e-05
0.000598425
9.56011e-05
0.000587786
0.000232618
0.000370569
0.000462794
-1.48595e-05
0.000813683
-0.000559957
0.0013084
-0.00126015
0.00195656
-0.00210144
0.00274665
-0.00305277
-0.0040693
6.43121e-07
0.00034584
3.23656e-05
0.000566703
0.000119018
0.000501133
0.000288372
0.000201216
0.000571697
-0.000298184
0.000998567
-0.000986827
0.00158561
-0.00184719
0.00232512
-0.00284095
0.00318186
-0.00390951
-0.00498779
6.07118e-07
0.000345232
4.00081e-05
0.000527302
0.000146985
0.000394156
0.000355673
-7.4722e-06
0.000702199
-0.000644711
0.00121326
-0.00149788
0.00188983
-0.00252377
0.00269902
-0.00365014
0.00358189
-0.00479238
0.00447133
-0.00587723
-0.00685594
9.20733e-07
0.000344312
4.98503e-05
0.000478372
0.000181762
0.000262245
0.000438001
-0.000263712
0.000856872
-0.00106358
0.00145387
-0.00209488
0.00220472
-0.00327461
0.00304916
-0.00449459
0.0039134
-0.00565662
0.00473353
-0.00669736
-0.00759214
1.89378e-06
0.000342418
6.29189e-05
0.000417347
0.000225454
9.97101e-05
0.000537838
-0.000576096
0.00103477
-0.00156051
0.00170986
-0.00276998
0.0025078
-0.00407255
0.00334771
-0.0053345
0.00415556
-0.00646447
0.00488352
-0.00742532
0.00551369
-0.00822232
-0.00888588
4.01665e-06
0.000338401
8.02405e-05
0.000341123
0.000279613
-9.96627e-05
0.000655398
-0.000951881
0.00122946
-0.00213458
0.00196372
-0.00350423
0.00277424
-0.00488307
0.00357348
-0.00613374
0.00430103
-0.00719202
0.00493106
-0.00805535
0.00546525
-0.00875651
-0.00934116
7.15727e-06
0.000331244
0.000102334
0.000245947
0.000345571
-0.0003429
0.00079001
-0.00139632
0.00143291
-0.00277748
0.00219997
-0.00427129
0.00298978
-0.00567288
0.00372335
-0.00686731
0.00436176
-0.00783044
0.00490014
-0.00859372
0.00535387
-0.00921024
0.00574556
-0.00973285
-0.0102029
1.16959e-05
0.000319548
0.00012996
0.000127683
0.000423541
-0.000636482
0.000936974
-0.00190975
0.00163177
-0.00347228
0.00240177
-0.00504129
0.00314403
-0.00641514
0.00379894
-0.00752221
0.00435009
-0.00838158
0.00480867
-0.00905231
0.00519764
-0.00959921
0.00554053
-0.0100757
-0.0105185
1.77487e-05
0.000301799
0.000163527
-1.80946e-05
0.000512638
-0.000985593
0.00108936
-0.00248648
0.00181314
-0.00419606
0.00255874
-0.00578688
0.00323625
-0.00709266
0.00380962
-0.00809559
0.00428157
-0.00885353
0.00467365
-0.00944438
0.00501146
-0.00993702
0.00531654
-0.0103808
0.00560387
-0.0108058
-0.011228
2.53963e-05
0.000276403
0.000203229
-0.000195927
0.00061058
-0.00139294
0.00123858
-0.00311448
0.00196643
-0.00492392
0.00266666
-0.00648711
0.0032714
-0.00769739
0.00376709
-0.00859128
0.00417047
-0.0092569
0.00450837
-0.00978229
0.00480572
-0.0102344
0.00508063
-0.0106557
0.00534434
-0.0110695
0.00560288
-0.0114865
-0.0119101
3.47166e-05
0.000241686
0.000248955
-0.000410165
0.000713674
-0.00185766
0.00137584
-0.00377664
0.00208497
-0.00563305
0.00272647
-0.0071286
0.00325741
-0.00822834
0.00368286
-0.00901672
0.00402848
-0.00960252
0.00432254
-0.0100763
0.00458728
-0.0104991
0.00483705
-0.0109055
0.00507987
-0.0113124
0.00531976
-0.0117264
0.005559
-0.0121494
-0.0125819
4.58191e-05
0.000195867
0.000300141
-0.000664487
0.000817131
-0.00237465
0.00149377
-0.00445328
0.00216618
-0.00630547
0.0027424
-0.00770481
0.00320305
-0.00868899
0.00356703
-0.00938071
0.00386466
-0.00990015
0.00412294
-0.0103346
0.00436055
-0.0107367
0.00458832
-0.0111333
0.00481177
-0.0115358
0.00503354
-0.0119482
0.00525514
-0.012371
0.00547744
-0.0128042
-0.0132456
5.88628e-05
0.000137005
0.000355646
-0.000961271
0.000915675
-0.00293468
0.00158736
-0.00512496
0.00221075
-0.00692886
0.00272031
-0.00821437
0.00311663
-0.00908531
0.00342789
-0.00969197
0.00368568
-0.0101579
0.00391418
-0.0105631
0.00412832
-0.0109509
0.00433596
-0.0113409
0.00454079
-0.0117406
0.00474458
-0.012152
0.00494846
-0.0125749
0.00515314
-0.0130089
0.0053604
-0.0134529
-0.0139104
7.40309e-05
6.29737e-05
0.000413756
-0.001301
0.00100428
-0.00352521
0.00165424
-0.00577492
0.0022215
-0.00749612
0.00266651
-0.00865938
0.00300547
-0.00942427
0.00327192
-0.00995842
0.00349633
-0.0103823
0.00369931
-0.0107661
0.00389231
-0.0111439
0.00408086
-0.0115295
0.00426742
-0.0119272
0.0044532
-0.0123378
0.00463908
-0.0127607
0.00482584
-0.0131956
0.00501484
-0.0136419
0.00520596
-0.0141015
0.00540429
-0.0145655
-0.0150704
9.1441e-05
-2.84673e-05
0.000472331
-0.00168189
0.00107887
-0.00413174
0.00169423
-0.00639028
0.0022024
-0.00800429
0.002587
-0.00904398
0.00287564
-0.00971291
0.00310401
-0.0101868
0.00329996
-0.0105783
0.00348032
-0.0109465
0.00365362
-0.0113172
0.00382363
-0.0116995
0.00399201
-0.0120956
0.00415966
-0.0125054
0.00432731
-0.0129284
0.00449571
-0.013364
0.00466603
-0.0138122
0.00483847
-0.0142739
0.00501682
-0.0147438
-0.0152487
0.00519515
0.000111016
-0.000139483
0.000529028
-0.0020999
0.00113676
-0.00473947
0.00170871
-0.00696223
0.00215778
-0.00845337
0.00248717
-0.00937336
0.00273203
-0.00995778
0.00292781
-0.0103826
0.00309887
-0.0107494
0.00325854
-0.0111061
0.00341296
-0.0114716
0.00356469
-0.0118512
0.00371488
-0.0122458
0.00386423
-0.0126547
0.00401339
-0.0130775
0.0041631
-0.0135137
0.00431431
-0.0139634
0.0044674
-0.014427
0.00462543
-0.0149019
-0.0154067
0.00478344
0.000132388
-0.000271871
0.000581486
-0.002549
0.00117674
-0.00533472
0.00169995
-0.00748545
0.00209196
-0.00884538
0.00237161
-0.00965301
0.00257844
-0.0101646
0.00274592
-0.0105501
0.00289466
-0.0108981
0.00303485
-0.0112463
0.00317086
-0.0116076
0.0033044
-0.0119847
0.00343632
-0.0123777
0.00356721
-0.0127856
0.00369765
-0.013208
0.00382833
-0.0136444
0.00396006
-0.0140951
0.00409334
-0.0145603
0.00423045
-0.015039
-0.0155439
0.00436763
0.000154902
-0.000426773
0.000627509
-0.0030216
0.00119883
-0.00590604
0.00167069
-0.00795731
0.00200888
-0.00918357
0.00224415
-0.00988828
0.0024178
-0.0103383
0.00256025
-0.0106925
0.0026884
-0.0110262
0.00280987
-0.0113678
0.0029277
-0.0117254
0.00304308
-0.0121001
0.00315664
-0.0124912
0.0032689
-0.0128979
0.00338041
-0.0133195
0.00349179
-0.0137558
0.00360371
-0.0142071
0.00371673
-0.0146733
0.00383257
-0.0151548
-0.0156596
0.00394831
0.000177719
-0.000604492
0.000665252
-0.00350914
0.0012039
-0.00644469
0.00162378
-0.00837719
0.00191204
-0.00947182
0.00210786
-0.0100841
0.0022523
-0.0104827
0.00237215
-0.0108124
0.00248087
-0.011135
0.00258407
-0.011471
0.00268383
-0.0118252
0.00278101
-0.0121973
0.00287613
-0.0125864
0.00296963
-0.0129914
0.00306203
-0.0134119
0.00315387
-0.0138477
0.00324571
-0.0142989
0.00333813
-0.0147657
0.00343234
-0.015249
-0.0157535
0.00352621
0.000199965
-0.000804457
0.00069339
-0.00400256
0.00119333
-0.00694463
0.00156202
-0.00874588
0.00180445
-0.00971424
0.00196521
-0.0102449
0.0020836
-0.0106011
0.00218257
-0.0109113
0.00227264
-0.011225
0.00235782
-0.0115562
0.00243956
-0.0119069
0.00251851
-0.0122763
0.0025951
-0.0126629
0.00266975
-0.013066
0.00274288
-0.013485
0.00281499
-0.0139198
0.00288654
-0.0143704
0.00295806
-0.0148373
0.00303039
-0.0153214
-0.0158251
0.00310197
0.000220819
-0.00102528
0.000711212
-0.00449295
0.00116875
-0.00740216
0.001488
-0.00906514
0.00168864
-0.00991488
0.00181812
-0.0103744
0.00191292
-0.0106959
0.00199225
-0.0109907
0.00206414
-0.0112969
0.00213145
-0.0116235
0.0021952
-0.0119707
0.00225589
-0.0123369
0.0023139
-0.012721
0.00236959
-0.0131217
0.00242335
-0.0135388
0.00247559
-0.013972
0.00252668
-0.0144215
0.00257709
-0.0148877
0.00262737
-0.0153716
-0.0158741
0.00267637
0.000239554
-0.00126483
0.000718593
-0.00497199
0.00113187
-0.00781544
0.00140408
-0.00933734
0.00156673
-0.0100775
0.00166809
-0.0104757
0.00174117
-0.010769
0.00180172
-0.0110512
0.00185574
-0.011351
0.00190527
-0.011673
0.00195103
-0.0120164
0.00199344
-0.0123794
0.00203284
-0.0127603
0.00206953
-0.0131584
0.00210385
-0.0135731
0.00213612
-0.0140043
0.00216664
-0.0144521
0.0021958
-0.0149168
0.0022239
-0.0153997
-0.0159003
0.00225009
0.000255519
-0.00152035
0.000715885
-0.00543236
0.0010844
-0.00818396
0.00131231
-0.00956525
0.00144043
-0.0102057
0.00151628
-0.0105516
0.00156905
-0.0108217
0.00161139
-0.0110935
0.00164776
-0.0113873
0.00167955
-0.0117048
0.00170735
-0.0120442
0.00173149
-0.0124035
0.00175226
-0.0127811
0.00176993
-0.0131761
0.00178477
-0.0135879
0.00179702
-0.0140165
0.00180692
-0.014462
0.00181477
-0.0149247
0.00182065
-0.0154056
-0.0159035
0.00182392
0.000268149
-0.0017885
0.000703771
-0.00586798
0.00102797
-0.00850815
0.00121448
-0.00975176
0.00131116
-0.0103023
0.0013636
-0.010604
0.0013971
-0.0108552
0.00142163
-0.0111181
0.00144046
-0.0114061
0.00145459
-0.0117189
0.00146445
-0.0120541
0.00147034
-0.0124094
0.00147251
-0.0127833
0.00147117
-0.0131748
0.00146653
-0.0135833
0.00145876
-0.0140088
0.00144803
-0.0144512
0.00143456
-0.0149112
0.00141828
-0.0153893
-0.0158838
0.00139858
0.000276992
-0.00206549
0.000683207
-0.00627419
0.000964081
-0.00878903
0.00111211
-0.00989978
0.00118004
-0.0103703
0.00121073
-0.0106347
0.00122572
-0.0108702
0.00123274
-0.0111251
0.00123414
-0.0114075
0.00123065
-0.0117154
0.00122263
-0.0120461
0.00121032
-0.0123971
0.00119392
-0.0127669
0.00117361
-0.0131545
0.00114953
-0.0135592
0.0011218
-0.013981
0.00109049
-0.0144199
0.00105573
-0.0148764
0.00101735
-0.015351
-0.0158413
0.000974839
0.000280147
-0.00234564
0.000652644
-0.00664669
0.000891036
-0.00902742
0.00100335
-0.0100121
0.001045
-0.0104119
0.00105541
-0.0106451
0.0010526
-0.0108674
0.00104246
-0.011115
0.00102667
-0.0113918
0.00100579
-0.0116946
0.000980101
-0.0120204
0.000949809
-0.0123668
0.000915077
-0.0127322
0.000876018
-0.0131154
0.000832738
-0.0135159
0.000785267
-0.0139336
0.000733656
-0.0143683
0.000677897
-0.0148207
0.000617586
-0.0152906
-0.0157765
0.000552772
0.000280486
-0.00262612
0.00061828
-0.00698449
0.000816244
-0.00922538
0.000895544
-0.0100914
0.000912775
-0.0104292
0.000903788
-0.0106361
0.000883431
-0.0108471
0.000856123
-0.0110876
0.000823094
-0.0113587
0.000784751
-0.0116562
0.000741328
-0.011977
0.000692995
-0.0123184
0.000639874
-0.012679
0.000582028
-0.0130576
0.000519479
-0.0134534
0.000452212
-0.0138663
0.000380299
-0.0142964
0.000303564
-0.0147439
0.000221707
-0.0152088
-0.015689
0.000134183
0.000276672
-0.0029028
0.000578583
-0.0072864
0.000737854
-0.00938465
0.000786484
-0.01014
0.000780942
-0.0104236
0.000753335
-0.0106085
0.000715731
-0.0108095
0.000671402
-0.0110433
0.000621229
-0.0113086
0.000565531
-0.0116005
0.000504486
-0.0119159
0.000438212
-0.0122522
0.000366799
-0.0126076
0.000290375
-0.0129811
0.000208611
-0.0133716
0.000121702
-0.0137794
2.93742e-05
-0.0142041
-6.80483e-05
-0.0146465
-0.000170661
-0.0151062
-0.015579
-0.000280692
0.000268944
-0.00317174
0.000534437
-0.00755189
0.000656833
-0.00950705
0.000676919
-0.0101601
0.000649977
-0.0103967
0.000604366
-0.0105629
0.00054976
-0.0107548
0.000488542
-0.0109821
0.000421346
-0.0112414
0.000348391
-0.0115276
0.000269864
-0.0118374
0.000185754
-0.0121681
9.61102e-05
-0.012518
7.36047e-07
-0.0128858
-9.94368e-05
-0.0132714
-0.000205581
-0.0136732
-0.000317513
-0.0140921
-0.000435349
-0.0145287
-0.000559968
-0.0149816
-0.0154476
-0.000691317
0.000257647
-0.00342939
0.000486683
-0.00778093
0.000574044
-0.00959441
0.000567474
-0.0101535
0.000520255
-0.0103494
0.000457131
-0.0104998
0.000385726
-0.0106834
0.000307732
-0.0109041
0.000223651
-0.0111573
0.000133497
-0.0114374
3.74595e-05
-0.0117414
-6.41039e-05
-0.0120665
-0.000171448
-0.0124106
-0.000284569
-0.0127726
-0.000403996
-0.013152
-0.000529384
-0.0135479
-0.000660978
-0.0139605
-0.000799129
-0.0143905
-0.000944558
-0.0148361
-0.015295
-0.00109721
0.000243206
-0.00367259
0.000436097
-0.00797382
0.000490232
-0.00964854
0.000458668
-0.010122
0.000392092
-0.0102829
0.000311855
-0.0104195
0.000223808
-0.0105954
0.000129114
-0.0108094
2.80057e-05
-0.0110562
-7.87365e-05
-0.0113307
-0.000191558
-0.0116285
-0.000310625
-0.0119474
-0.000435816
-0.0122854
-0.000567171
-0.0126413
-0.000705021
-0.0130142
-0.00084936
-0.0134035
-0.00100038
-0.0138095
-0.0011585
-0.0142324
-0.00132428
-0.0146704
-0.0151214
-0.00149787
0.000226081
-0.00389867
0.000383386
-0.00813112
0.000406022
-0.00967118
0.000350919
-0.0100669
0.000265754
-0.0101977
0.000168698
-0.0103225
6.39607e-05
-0.0104907
-4.70698e-05
-0.0106984
-0.000164126
-0.0109391
-0.000287774
-0.011207
-0.000417709
-0.0114986
-0.000554037
-0.0118111
-0.000696783
-0.0121427
-0.000846074
-0.012492
-0.00100213
-0.0128581
-0.00116511
-0.0132405
-0.00133526
-0.0136394
-0.00151298
-0.0140547
-0.00169873
-0.0144846
-0.0149273
-0.00189278
0.000206738
-0.00410541
0.000329196
-0.00825358
0.000321939
-0.00966392
0.00024457
-0.00998951
0.000141417
-0.0100946
2.74084e-05
-0.0102085
-9.29047e-05
-0.0103703
-0.000219934
-0.0105713
-0.000353609
-0.0108054
-0.000493845
-0.0110668
-0.000640589
-0.0113519
-0.000793937
-0.0116578
-0.000953992
-0.0119826
-0.00112092
-0.0123251
-0.00129494
-0.0126841
-0.00147627
-0.0130592
-0.00166521
-0.0134504
-0.00186216
-0.0138577
-0.00206751
-0.0142792
-0.0147133
-0.00228153
0.000185624
-0.00429104
0.000274104
-0.00834206
0.000238438
-0.00962826
0.000139905
-0.00989098
1.85488e-05
-0.0099732
-0.000110367
-0.0100796
-0.000246856
-0.0102339
-0.000390123
-0.0104281
-0.000540026
-0.0106555
-0.000696604
-0.0109102
-0.000859897
-0.0111886
-0.00103003
-0.0114876
-0.00120714
-0.0118055
-0.00139143
-0.0121408
-0.00158312
-0.0124924
-0.00178249
-0.0128598
-0.00198986
-0.0132431
-0.00220567
-0.0136419
-0.0024302
-0.0140547
-0.0144798
-0.00266372
0.000163156
-0.00445419
0.000218619
-0.00839752
0.000155907
-0.00956555
3.6997e-05
-0.00977207
-0.000100089
-0.00983611
-0.000245656
-0.009934
-0.000398064
-0.0100814
-0.000557237
-0.0102689
-0.00072311
-0.0104897
-0.000895791
-0.0107375
-0.00107538
-0.011009
-0.00126203
-0.011301
-0.00145592
-0.0116116
-0.00165728
-0.0119394
-0.00186635
-0.0122833
-0.00208342
-0.0126428
-0.00230886
-0.0130176
-0.00254313
-0.0134077
-0.00278645
-0.0138114
-0.0142273
-0.00303897
0.000139731
-0.00459392
0.000163174
-0.00842097
7.46193e-05
-0.00947699
-6.31936e-05
-0.00963425
-0.000216671
-0.00968263
-0.000378174
-0.0097725
-0.000546245
-0.00991338
-0.000721054
-0.0100941
-0.000902645
-0.0103081
-0.00109117
-0.010549
-0.00128679
-0.0108134
-0.00148968
-0.0110981
-0.00170006
-0.0114013
-0.00191818
-0.0117213
-0.0021443
-0.0120572
-0.00237873
-0.0124083
-0.00262187
-0.0127745
-0.00287421
-0.0131553
-0.00313589
-0.0135497
-0.0139562
-0.00340696
0.000115734
-0.00470966
0.000108206
-0.00841344
-6.16766e-06
-0.00936262
-0.000161028
-0.00947939
-0.000330662
-0.009513
-0.000507716
-0.00959544
-0.000691197
-0.0097299
-0.000881385
-0.00990391
-0.00107842
-0.010111
-0.00128252
-0.0103449
-0.00149387
-0.010602
-0.00171272
-0.0108792
-0.00193929
-0.0111747
-0.00217385
-0.0114867
-0.00241669
-0.0118144
-0.00266811
-0.0121569
-0.00292858
-0.012514
-0.00319859
-0.0128853
-0.00347822
-0.0132701
-0.0136671
-0.00376734
9.14952e-05
-0.00480115
5.43768e-05
-0.00837632
-8.24031e-05
-0.00922584
-0.000256426
-0.00930537
-0.000441848
-0.00932758
-0.000634142
-0.00940315
-0.000832756
-0.00953128
-0.00103804
-0.00969863
-0.00125024
-0.00989884
-0.00146962
-0.0101255
-0.00169641
-0.0103752
-0.00193089
-0.0106448
-0.00217333
-0.0109322
-0.00242401
-0.011236
-0.00268322
-0.0115552
-0.00295128
-0.0118889
-0.00322868
-0.0122366
-0.00351596
-0.012598
-0.0038131
-0.0129729
-0.0133604
-0.0041198
6.72321e-05
-0.00486838
3.72675e-06
-0.00831281
-0.000157539
-0.00906457
-0.000349262
-0.00911365
-0.000550101
-0.00912674
-0.000757315
-0.00919594
-0.00097076
-0.00931784
-0.00119085
-0.00947853
-0.0014179
-0.00967179
-0.00165224
-0.00989118
-0.00189416
-0.0101333
-0.00214395
-0.010395
-0.00240193
-0.0106743
-0.00266839
-0.0109696
-0.00294362
-0.0112799
-0.00322795
-0.0116045
-0.0035219
-0.0119427
-0.00382604
-0.0122939
-0.00414026
-0.0126587
-0.0130366
-0.00446401
4.31063e-05
-0.00491149
-5.20849e-05
-0.00821762
-0.000231013
-0.00888564
-0.000439339
-0.00890532
-0.000655271
-0.0089108
-0.000877103
-0.0089741
-0.00110506
-0.00908988
-0.00133964
-0.00924396
-0.00158122
-0.00943021
-0.00183019
-0.00964221
-0.0020869
-0.00987661
-0.00235167
-0.0101302
-0.00262483
-0.0104011
-0.0029067
-0.0106877
-0.0031976
-0.010989
-0.00349785
-0.0113043
-0.00380798
-0.0116325
-0.0041286
-0.0119733
-0.00445943
-0.0123279
-0.0126964
-0.00479966
1.98091e-05
-0.0049313
-0.000103988
-0.00809383
-0.00030241
-0.00868722
-0.000526576
-0.00868116
-0.000757242
-0.00868014
-0.000993376
-0.00873797
-0.00123551
-0.00884775
-0.00148423
-0.00899524
-0.00174
-0.00917444
-0.00200327
-0.00937894
-0.0022744
-0.00960547
-0.00255379
-0.00985081
-0.00284178
-0.0101131
-0.0031387
-0.0103908
-0.00344488
-0.0106829
-0.00376067
-0.0109885
-0.00408662
-0.0113066
-0.00442335
-0.0116365
-0.00477042
-0.0119808
-0.0123404
-0.00512645
-1.24989e-06
-0.00493005
-0.00015362
-0.00794146
-0.000371545
-0.00846929
-0.000610933
-0.00844177
-0.000855914
-0.00843516
-0.00110601
-0.00848788
-0.00136197
-0.00859179
-0.00162448
-0.00873273
-0.00189407
-0.00890484
-0.00217126
-0.00910176
-0.00245646
-0.00932027
-0.00275009
-0.00955717
-0.00305253
-0.00981069
-0.00336413
-0.0100792
-0.00368522
-0.0103618
-0.00401616
-0.0106575
-0.00435751
-0.0109652
-0.00470989
-0.0112842
-0.00507286
-0.0116179
-0.011969
-0.00544424
-2.88165e-05
-0.00490123
-0.000201698
-0.00776857
-0.000438176
-0.00823282
-0.000692315
-0.00818763
-0.000951197
-0.00817627
-0.00121488
-0.00822419
-0.00148429
-0.00832238
-0.00176021
-0.00845681
-0.00204325
-0.0086218
-0.00233398
-0.00881103
-0.00263286
-0.00902138
-0.00294035
-0.00924968
-0.00325685
-0.00949419
-0.00358273
-0.00975329
-0.00391835
-0.0100262
-0.0042641
-0.0103118
-0.00462046
-0.0106089
-0.00498796
-0.0109167
-0.00536643
-0.0112394
-0.0115821
-0.00575331
-5.30022e-05
-0.00484823
-0.000248085
-0.00757349
-0.00050219
-0.00797871
-0.000770634
-0.00791919
-0.00104301
-0.0079039
-0.00131989
-0.00794731
-0.00160235
-0.00803992
-0.00189128
-0.00816788
-0.00218736
-0.00832571
-0.00249123
-0.00850717
-0.00280339
-0.00870922
-0.00312433
-0.00892874
-0.00345449
-0.00916403
-0.00379425
-0.00941352
-0.00414404
-0.00967638
-0.00450432
-0.00995152
-0.00487549
-0.0102377
-0.00525788
-0.0105343
-0.00565116
-0.0108461
-0.0111817
-0.00605164
-7.58952e-05
-0.00477234
-0.000292685
-0.0073567
-0.000563559
-0.00770784
-0.000845818
-0.00763693
-0.00113125
-0.00761847
-0.00142091
-0.00765764
-0.00171602
-0.00774482
-0.00201753
-0.00786636
-0.00232625
-0.008017
-0.00264282
-0.00819059
-0.00296784
-0.00838421
-0.00330181
-0.00859477
-0.00364519
-0.00882065
-0.00399842
-0.00906029
-0.00436199
-0.00931281
-0.00473648
-0.00957703
-0.00512227
-0.0098519
-0.00551951
-0.010137
-0.00592884
-0.0104368
-0.0107768
-0.00633372
-0.000101011
-0.00467132
-0.00033921
-0.0071185
-0.000625827
-0.00742122
-0.00092113
-0.00734162
-0.00121898
-0.00732062
-0.0015208
-0.00735582
-0.00182795
-0.00743767
-0.00214147
-0.00755283
-0.00246224
-0.00769624
-0.00279096
-0.00786187
-0.00312826
-0.00804691
-0.00347468
-0.00824834
-0.00383073
-0.0084646
-0.00419686
-0.00869416
-0.00457363
-0.00893604
-0.00496166
-0.009189
-0.00536128
-0.00945229
-0.00577117
-0.00972714
-0.00618887
-0.0100191
-0.0103256
-0.00664009
-0.000121741
-0.00454958
-0.00037983
-0.00686041
-0.000681515
-0.00711954
-0.000989598
-0.00703354
-0.00129962
-0.00701059
-0.00161335
-0.0070421
-0.00193225
-0.00711877
-0.00225749
-0.00722759
-0.00259
-0.00736374
-0.00293055
-0.00752132
-0.00327981
-0.00769765
-0.00363838
-0.00788977
-0.00400676
-0.00809622
-0.0043855
-0.00831543
-0.00477514
-0.0085464
-0.00517613
-0.00878801
-0.00558829
-0.00904012
-0.00601116
-0.00930426
-0.00644875
-0.00958149
-0.00986383
-0.00691048
-0.000141532
-0.00440805
-0.000418482
-0.00658346
-0.000734454
-0.00680356
-0.00105477
-0.00671322
-0.00137649
-0.00668888
-0.00170164
-0.00671695
-0.00203182
-0.00678858
-0.0023683
-0.00689112
-0.00271207
-0.00701997
-0.00306397
-0.00716942
-0.00342471
-0.0073369
-0.00379493
-0.00751956
-0.00417518
-0.00771597
-0.00456604
-0.00792457
-0.00496806
-0.00814437
-0.00538163
-0.00837444
-0.00580678
-0.00861498
-0.0062442
-0.00886684
-0.00669727
-0.00912842
-0.00939368
-0.00716742
-0.000160346
-0.00424771
-0.000455111
-0.0062887
-0.00078459
-0.00647408
-0.00111659
-0.00638122
-0.00144948
-0.00635598
-0.00178554
-0.00638089
-0.00212651
-0.00644761
-0.00247373
-0.0065439
-0.00282826
-0.00666543
-0.00319102
-0.00680666
-0.00356275
-0.00696517
-0.00394412
-0.00713819
-0.00433574
-0.00732435
-0.00473818
-0.00752213
-0.00515197
-0.00773059
-0.00557743
-0.00794897
-0.00601492
-0.00817749
-0.00646571
-0.00841605
-0.00693195
-0.00866218
-0.00891266
-0.00741297
-0.00017815
-0.00406956
-0.000489686
-0.00597716
-0.0008319
-0.00613187
-0.001175
-0.00603813
-0.00151854
-0.00601243
-0.00186499
-0.00603444
-0.00221623
-0.00609638
-0.00257366
-0.00618647
-0.00293846
-0.00630064
-0.00331155
-0.00643357
-0.00369375
-0.00658296
-0.00408576
-0.00674618
-0.00448822
-0.00692189
-0.00490174
-0.00710862
-0.00532682
-0.0073055
-0.00576388
-0.00751192
-0.00621344
-0.00772793
-0.00667667
-0.00795282
-0.00715469
-0.00818416
-0.00842029
-0.00764705
-0.000194912
-0.00387464
-0.00052218
-0.00564989
-0.000876358
-0.00577769
-0.00122996
-0.00568452
-0.0015836
-0.00565879
-0.0019399
-0.00567814
-0.00230086
-0.00573541
-0.00266799
-0.00581935
-0.0030425
-0.00592613
-0.0034254
-0.00605067
-0.00381754
-0.00619083
-0.00421965
-0.00634407
-0.0046324
-0.00650914
-0.00505641
-0.00668461
-0.00549219
-0.00686971
-0.00594024
-0.00706387
-0.00640121
-0.00726696
-0.00687604
-0.00747799
-0.00736541
-0.0076948
-0.00791652
-0.00786918
-0.000210601
-0.00366404
-0.000552571
-0.00530793
-0.000917944
-0.00541232
-0.00128144
-0.00532102
-0.00164461
-0.00529563
-0.00201019
-0.00531256
-0.00238033
-0.00536528
-0.00275658
-0.00544309
-0.00314027
-0.00554244
-0.00353242
-0.00565852
-0.00393394
-0.00578931
-0.00434559
-0.00593241
-0.00476807
-0.00608665
-0.00520202
-0.00625066
-0.00564798
-0.00642375
-0.0061065
-0.00660536
-0.00657822
-0.00679524
-0.0070639
-0.00699231
-0.00756411
-0.00719459
-0.0074016
-0.00807902
-0.00022519
-0.00343885
-0.000580838
-0.00495228
-0.000956636
-0.00503652
-0.00132941
-0.00494825
-0.0017015
-0.00492354
-0.00207579
-0.00493827
-0.00245452
-0.00498654
-0.00283935
-0.00505826
-0.00323163
-0.00515016
-0.00363246
-0.00525768
-0.00404278
-0.00537899
-0.0044634
-0.0055118
-0.00489503
-0.00565502
-0.00533832
-0.00580737
-0.00579386
-0.00596822
-0.00626221
-0.006137
-0.00674402
-0.00631343
-0.00723991
-0.00649641
-0.0077504
-0.00668411
-0.00687611
-0.00827589
-0.000238651
-0.0032002
-0.000606966
-0.00458396
-0.000992421
-0.00465107
-0.00137382
-0.00456685
-0.00175423
-0.00454314
-0.00213662
-0.00455588
-0.00252336
-0.0045998
-0.00291617
-0.00466546
-0.00331647
-0.00474986
-0.00372539
-0.00484876
-0.00414393
-0.00496045
-0.00457291
-0.00508282
-0.00501308
-0.00521485
-0.00546511
-0.00535534
-0.00592962
-0.00550372
-0.00640718
-0.00565944
-0.00689841
-0.0058222
-0.00740387
-0.00599095
-0.00792402
-0.00616396
-0.00634077
-0.00845936
-0.000250958
-0.00294924
-0.000630942
-0.00420398
-0.00102529
-0.00425672
-0.00141466
-0.00417748
-0.00180275
-0.00415505
-0.00219263
-0.004166
-0.00258677
-0.00420566
-0.00298695
-0.00426528
-0.00339466
-0.00434215
-0.00381108
-0.00443234
-0.00423722
-0.00453431
-0.00467395
-0.00464609
-0.00512204
-0.00476675
-0.00558219
-0.00489519
-0.00605501
-0.00503089
-0.00654112
-0.00517333
-0.00704111
-0.00532221
-0.00755551
-0.00547655
-0.00808472
-0.00563476
-0.0057962
-0.00862928
-0.000262178
-0.00268706
-0.000652767
-0.00381339
-0.00105522
-0.00385427
-0.00145188
-0.00378081
-0.00184701
-0.00375992
-0.00224375
-0.00376926
-0.00264468
-0.00380473
-0.00305161
-0.00385834
-0.00346611
-0.00392765
-0.00388939
-0.00400907
-0.00432251
-0.0041012
-0.00476636
-0.00420224
-0.00522173
-0.00431137
-0.00568935
-0.00442758
-0.00616984
-0.00455039
-0.00666382
-0.00467935
-0.00717188
-0.00481415
-0.00769456
-0.00495387
-0.00823227
-0.00509704
-0.005243
-0.00878548
-0.000272391
-0.00241467
-0.000672443
-0.00341334
-0.0010822
-0.00344451
-0.00148548
-0.00337754
-0.00188698
-0.00335842
-0.00228993
-0.0033663
-0.002697
-0.00339767
-0.00311006
-0.00344528
-0.00353072
-0.00350699
-0.00396023
-0.00357956
-0.00439968
-0.00366174
-0.00484999
-0.00375193
-0.00531199
-0.00384938
-0.0057864
-0.00395317
-0.00627389
-0.00406291
-0.00677507
-0.00417817
-0.00729054
-0.00429868
-0.00782088
-0.00442353
-0.00836659
-0.00455134
-0.00468241
-0.00892718
-0.000281543
-0.00213313
-0.000689965
-0.00300492
-0.00110624
-0.00302824
-0.00151541
-0.00296837
-0.00192261
-0.00295121
-0.00233112
-0.00295779
-0.00274368
-0.00298511
-0.00316223
-0.00302674
-0.0035884
-0.00308082
-0.00402348
-0.00314447
-0.00446861
-0.00321662
-0.00492471
-0.00329582
-0.00539265
-0.00338144
-0.00587317
-0.00347266
-0.00636695
-0.00356913
-0.00687462
-0.0036705
-0.00739682
-0.00377648
-0.0079341
-0.00388625
-0.00848675
-0.00399869
-0.00411421
-0.00905495
-0.0002896
-0.00184353
-0.000705326
-0.00258919
-0.00112731
-0.00260626
-0.00154166
-0.00255401
-0.00195388
-0.00253899
-0.00236728
-0.00254439
-0.00278467
-0.00256771
-0.00320803
-0.00260338
-0.00363905
-0.0026498
-0.00407905
-0.00270448
-0.00452918
-0.00276649
-0.00499039
-0.0028346
-0.00546358
-0.00290825
-0.00594949
-0.00298675
-0.00644883
-0.00306979
-0.00696226
-0.00315706
-0.00749042
-0.00324832
-0.00803384
-0.00334283
-0.00859282
-0.0034397
-0.00353928
-0.00916775
-0.000296542
-0.00154699
-0.000718519
-0.00216721
-0.0011454
-0.00217938
-0.00156421
-0.00213519
-0.00198075
-0.00212246
-0.00239835
-0.00212679
-0.00281991
-0.00214616
-0.00324742
-0.00217587
-0.00368262
-0.00221459
-0.00412685
-0.00226025
-0.00458129
-0.00231205
-0.00504692
-0.00236897
-0.00552463
-0.00243054
-0.00601521
-0.00249618
-0.00651937
-0.00256563
-0.00703779
-0.00263864
-0.00757113
-0.00271499
-0.00811988
-0.00279408
-0.00868443
-0.00287516
-0.00295849
-0.00926522
-0.000302353
-0.00124464
-0.000729538
-0.00174003
-0.0011605
-0.00174842
-0.00158305
-0.00171264
-0.00200319
-0.00170232
-0.00242431
-0.00170567
-0.00284935
-0.00172112
-0.00328034
-0.00174488
-0.00371904
-0.00177589
-0.00416681
-0.00181247
-0.00462486
-0.001854
-0.00509419
-0.00189965
-0.0055757
-0.00194903
-0.0060702
-0.00200168
-0.00657841
-0.00205741
-0.00710104
-0.00211601
-0.00763873
-0.0021773
-0.00819201
-0.00224079
-0.00876127
-0.00230589
-0.00237277
-0.00934698
-0.000307024
-0.000937611
-0.000738376
-0.00130868
-0.00117261
-0.00131418
-0.00159815
-0.0012871
-0.00202119
-0.00127928
-0.00244514
-0.00128173
-0.00287297
-0.00129329
-0.00330674
-0.00131111
-0.00374825
-0.00133438
-0.00419887
-0.00136185
-0.00465982
-0.00139305
-0.00513212
-0.00142735
-0.00561669
-0.00146446
-0.00611434