/*--------------------------------*- C++ -*----------------------------------*\
  =========                 |
  \\      /  F ield         | OpenFOAM: The Open Source CFD Toolbox
   \\    /   O peration     | Website:  https://openfoam.org
    \\  /    A nd           | Version:  7
     \\/     M anipulation  |
\*---------------------------------------------------------------------------*/
FoamFile
{
    version     2.0;
    format      ascii;
    class       volVectorField;
    location    "10";
    object      U;
}
// * * * * * * * * * * * * * * * * * * * * * * * * * * * * * * * * * * * * * //

dimensions      [0 1 -1 0 0 0 0];

internalField   nonuniform List<vector> 
6050
(
(-0.0091488 0.00348769 -2.25395e-20)
(-0.0385084 0.0059851 -2.68255e-20)
(-0.0788012 0.00686692 3.3205e-21)
(-0.116184 0.00715825 -8.52929e-21)
(-0.15259 0.00729095 4.15823e-20)
(-0.187137 0.00744489 1.31977e-20)
(-0.22065 0.00765287 -1.85495e-20)
(-0.00943393 0.0103615 1.14292e-21)
(-0.0384974 0.0178143 -1.6933e-20)
(-0.0779863 0.0204523 -3.52238e-20)
(-0.114349 0.021315 2.84161e-20)
(-0.149467 0.0216923 1.81859e-20)
(-0.182424 0.0221228 2.82253e-21)
(-0.213976 0.0227064 5.36801e-20)
(-0.00999271 0.0169391 -6.42042e-21)
(-0.0384862 0.0292288 -2.42655e-20)
(-0.0764028 0.0335986 3.4513e-20)
(-0.110766 0.0349997 2.66338e-20)
(-0.143364 0.0355618 -9.0061e-20)
(-0.173225 0.0361786 1.18081e-20)
(-0.200979 0.037022 -9.01755e-20)
(-0.0108036 0.0230431 3.23073e-20)
(-0.0384955 0.0399704 1.28463e-19)
(-0.0741398 0.0460264 -4.16776e-20)
(-0.105602 0.047912 -8.50524e-20)
(-0.134555 0.0485642 -4.92946e-20)
(-0.159969 0.0492267 6.88376e-20)
(-0.182317 0.0501511 8.66979e-20)
(-0.0118369 0.028522 -8.80109e-20)
(-0.0385536 0.0498053 -2.50815e-20)
(-0.0713215 0.0574749 7.47194e-20)
(-0.0990891 0.05977 3.89105e-20)
(-0.123419 0.0603901 1.91313e-19)
(-0.143242 0.0609194 -1.78268e-19)
(-0.158873 0.0617003 -1.00942e-19)
(-0.0130579 0.033258 5.72755e-20)
(-0.0386942 0.0585321 4.64192e-21)
(-0.068097 0.0677084 -1.39288e-19)
(-0.0915068 0.0703172 -6.8801e-20)
(-0.110406 0.0707629 -2.25815e-19)
(-0.123728 0.0709571 -8.00705e-21)
(-0.131657 0.0713446 -1.16524e-20)
(-0.133938 0.0718038 -2.00523e-20)
(-0.0144301 0.0371723 -1.46731e-19)
(-0.0389524 0.0659892 -2.58029e-19)
(-0.0646271 0.0765231 9.26012e-20)
(-0.0831549 0.079328 -2.5745e-20)
(-0.0959908 0.0794452 2.03305e-19)
(-0.102138 0.0790939 1.96516e-19)
(-0.10169 0.078834 -6.79178e-20)
(-0.094359 0.0785658 9.49542e-20)
(-0.0159184 0.0402279 1.08697e-19)
(-0.0393609 0.0720597 1.18804e-19)
(-0.0610694 0.083752 8.19433e-20)
(-0.0743267 0.0866126 2.91292e-19)
(-0.0806324 0.0862422 -6.46391e-20)
(-0.07913 0.0851421 9.83743e-20)
(-0.0698806 0.0839974 1.28892e-19)
(-0.0526098 0.0827505 -1.63131e-19)
(-0.0174927 0.0424287 -5.34659e-20)
(-0.0399446 0.0766741 3.11939e-20)
(-0.0575609 0.0892707 -2.49019e-19)
(-0.0652769 0.0920223 -1.42418e-19)
(-0.0647145 0.0910068 -1.13841e-19)
(-0.0552271 0.0889759 -6.36898e-20)
(-0.03689 0.0867474 -3.14398e-19)
(-0.00947272 0.0843267 5.71858e-20)
(-0.0191305 0.0438165 2.04057e-19)
(-0.0407163 0.0798112 2.31663e-19)
(-0.0541998 0.0930013 6.05193e-20)
(-0.0561859 0.0954546 2.4753e-19)
(-0.0484883 0.0936452 6.90527e-20)
(-0.030719 0.0905377 1.54497e-19)
(-0.00298773 0.08709 1.74773e-19)
(0.0349038 0.0833906 1.62484e-19)
(-0.0208176 0.044465 -1.27875e-19)
(-0.0416695 0.0814948 -2.10393e-19)
(-0.0510262 0.0949167 3.63861e-19)
(-0.0471204 0.0968598 -3.71814e-19)
(-0.0320051 0.0941249 -2.65416e-19)
(-0.00555764 0.0898499 -1.1457e-19)
(0.0321048 0.0851408 -5.01642e-20)
(0.0812102 0.0801942 -2.77477e-19)
(-0.0225489 0.0444714 1.19725e-19)
(-0.0427711 0.0817895 9.32135e-20)
(-0.0480006 0.095043 -4.22496e-19)
(-0.0379935 0.0962484 -1.41432e-19)
(-0.015045 0.0924858 1.50124e-19)
(0.020751 0.0870313 -7.9635e-20)
(0.0693547 0.0811523 2.15927e-19)
(0.131113 0.075185 2.07635e-19)
(0.206327 0.0690412 -2.73979e-19)
(-0.0243262 0.0439466 -3.83571e-19)
(-0.0439571 0.080799 -3.6672e-19)
(-0.0449808 0.093455 2.70355e-19)
(-0.0285224 0.0936974 1.70763e-19)
(0.00295094 0.0888552 9.08364e-20)
(0.0492392 0.0823221 -7.43213e-20)
(0.110497 0.0755496 -1.34086e-19)
(0.18722 0.0690529 6.82701e-20)
(0.279606 0.0628789 9.48197e-21)
(-0.0261525 0.0430046 5.94073e-20)
(-0.0451269 0.0786593 3.85015e-19)
(-0.0417041 0.0902734 -1.19599e-19)
(-0.018189 0.0893557 -1.52891e-20)
(0.0229357 0.0834641 -1.18208e-19)
(0.0815209 0.0761126 -4.45716e-20)
(0.157979 0.0689751 4.01813e-20)
(0.252737 0.0627573 1.3169e-19)
(0.365238 0.0576011 3.75759e-20)
(-0.0280266 0.0417541 3.34775e-19)
(-0.0461291 0.0755167 -9.54289e-20)
(-0.0377775 0.0856685 -2.42058e-19)
(-0.00621516 0.0834504 3.20263e-19)
(0.0462773 0.0766639 2.82389e-19)
(0.119743 0.0689741 2.03632e-19)
(0.214682 0.0623073 1.8781e-19)
(0.330736 0.0575069 -6.55377e-20)
(0.465274 0.054644 1.21009e-19)
(-0.0299394 0.0402886 -1.05567e-19)
(-0.0467524 0.0715179 5.7336e-20)
(-0.0326658 0.0798547 1.40387e-19)
(0.00843991 0.0762887 -3.8856e-19)
(0.0747227 0.06894 -6.58645e-20)
(0.166394 0.0616751 -3.28708e-19)
(0.28338 0.0566472 1.34253e-19)
(0.423069 0.054638 -3.22989e-19)
(0.578931 0.0552728 1.26384e-19)
(0.740945 0.057136 -3.04071e-19)
(-0.0318652 0.038678 3.32855e-21)
(-0.0467266 0.066809 2.54495e-19)
(-0.0256898 0.0730754 -6.64187e-20)
(0.0270589 0.0682553 -2.25395e-20)
(0.110285 0.0609229 7.42904e-20)
(0.223941 0.0551799 2.56015e-19)
(0.365919 0.0532322 -1.26e-19)
(0.529199 0.0553456 -1.1367e-19)
(0.701752 0.0601683 7.55724e-20)
(0.869248 0.0652924 1.70859e-19)
(-0.0337559 0.0369662 -2.81557e-20)
(-0.0457189 0.0615244 -2.48736e-20)
(-0.0160391 0.0655942 2.83103e-19)
(0.0511122 0.0598116 1.45329e-19)
(0.155042 0.053387 -1.31365e-19)
(0.294285 0.050595 3.76605e-20)
(0.46231 0.0532225 4.18694e-20)
(0.645472 0.0603137 3.72091e-19)
(0.826122 0.0691084 -3.15665e-19)
(0.988005 0.0763484 -4.50122e-19)
(1.12023 0.0796682 -4.47018e-19)
(-0.03554 0.0351732 2.40356e-20)
(-0.0433341 0.0557764 -3.21504e-19)
(-0.00279577 0.0576882 8.36266e-20)
(0.0821658 0.0514956 -2.80156e-19)
(0.210835 0.0472375 3.54982e-19)
(0.378098 0.0490378 -2.3967e-19)
(0.570032 0.0573902 9.86182e-21)
(0.76541 0.0694155 -1.99651e-20)
(0.943283 0.0809915 -2.48505e-19)
(1.08943 0.0886536 6.15731e-19)
(1.19833 0.0906729 2.61917e-19)
(-0.0371189 0.033292 -1.73149e-19)
(-0.0391212 0.0496524 2.21822e-19)
(0.0150328 0.0496484 -1.92832e-19)
(0.121752 0.0439336 -2.10236e-19)
(0.278852 0.0434706 -3.88712e-19)
(0.474187 0.0514085 1.53122e-19)
(0.68403 0.0658271 -1.06228e-19)
(0.881241 0.0817065 -3.09362e-19)
(1.04596 0.0942709 2.69876e-19)
(1.16973 0.100735 -2.19615e-19)
(1.25373 0.100531 3.15239e-19)
(1.30478 0.0944712 3.63129e-19)
(-0.0383577 0.0312855 9.01244e-19)
(-0.0325856 0.043224 -2.25466e-19)
(0.0384692 0.0417968 1.96766e-19)
(0.171184 0.0378631 2.39053e-19)
(0.359153 0.0430578 3.66585e-19)
(0.579201 0.0581097 -1.93979e-19)
(0.797685 0.077858 1.14502e-19)
(0.986044 0.0957754 -1.54721e-19)
(1.13013 0.107535 -2.86295e-19)
(1.2291 0.111703 1.47934e-19)
(1.29008 0.108972 -2.67733e-19)
(1.323 0.100971 -1.69963e-19)
(-0.039102 0.0291161 -6.32921e-19)
(-0.0231938 0.0365629 2.69823e-19)
(0.0685387 0.0344982 -2.81304e-20)
(0.231325 0.034105 -1.36788e-19)
(0.450241 0.0466968 -4.08085e-19)
(0.687992 0.0688325 2.89865e-19)
(0.904431 0.0922521 -2.63553e-19)
(1.07533 0.110238 1.17002e-19)
(1.19513 0.119864 1.44966e-19)
(1.27026 0.121255 -6.16575e-19)
(1.31188 0.116129 1.18694e-19)
(1.33111 0.10656 2.1132e-20)
(1.33671 0.094419 2.59561e-19)
(-0.039183 0.0267429 -4.61458e-20)
(-0.0103787 0.0297297 -4.05929e-19)
(0.106221 0.0281817 2.21842e-19)
(0.30232 0.0334806 1.4607e-19)
(0.549038 0.0545794 -1.18438e-19)
(0.794854 0.0826716 -3.67081e-19)
(0.999471 0.107701 2.47747e-19)
(1.14762 0.124129 -6.40462e-20)
(1.24281 0.130882 4.70098e-20)
(1.29698 0.129471 3.85449e-19)
(1.32332 0.122283 -2.06437e-19)
(1.33271 0.111534 -1.90519e-19)
(1.33262 0.098914 -1.75214e-19)
(-0.0384048 0.0241194 -1.954e-20)
(0.00645537 0.0228084 2.37609e-19)
(0.152331 0.0234183 -4.1535e-19)
(0.383234 0.0366762 8.22289e-20)
(0.651205 0.0663234 2.83477e-19)
(0.894696 0.0984716 5.36005e-20)
(1.08022 0.123171 8.51033e-20)
(1.20357 0.136948 1.54688e-19)
(1.27599 0.140569 -1.74402e-19)
(1.31283 0.136588 -1.30164e-19)
(1.32769 0.127729 2.42265e-19)
(1.33027 0.116139 4.49055e-19)
(1.32655 0.103257 4.96873e-20)
(1.31972 0.0899064 -1.75704e-19)
(-0.0365529 0.0212088 4.74269e-20)
(0.0279332 0.015942 4.4599e-19)
(0.207364 0.0209288 -1.35137e-19)
(0.471922 0.0440041 3.68899e-19)
(0.752041 0.0810906 -3.01188e-19)
(0.983979 0.115155 3.55862e-19)
(1.14614 0.138008 -2.90124e-19)
(1.2451 0.148541 1.88417e-19)
(1.29772 0.149086 -1.22602e-19)
(1.32089 0.14288 1.31934e-20)
(1.32742 0.132721 -1.45452e-19)
(1.32544 0.12055 -2.5351e-19)
(1.31944 0.107542 -1.24347e-19)
(1.31159 0.0943387 8.63279e-20)
(1.30278 0.0813925 2.89784e-20)
(-0.0333969 0.0179918 -4.29275e-19)
(0.0546974 0.00938096 -4.02291e-19)
(0.271281 0.0215021 3.10307e-19)
(0.565219 0.0552705 -1.85735e-20)
(0.847442 0.0978833 4.29379e-19)
(1.06092 0.131918 -2.58888e-19)
(1.1981 0.151891 1.12747e-19)
(1.27462 0.158959 -1.46225e-19)
(1.31079 0.156667 2.7526e-19)
(1.32354 0.148606 -1.09209e-19)
(1.3242 0.137456 1.0733e-19)
(1.31923 0.124885 -7.15925e-21)
(1.31183 0.111821 8.47039e-20)
(1.30338 0.0987563 -1.13242e-20)
(1.29437 0.0859993 1.27603e-19)
(1.28498 0.0736331 2.65986e-20)
(-0.0286865 0.014471 6.16545e-19)
(0.0873664 0.00354128 -3.89853e-19)
(0.343296 0.0258025 9.86732e-20)
(0.659486 0.0698616 -3.86186e-19)
(0.93448 0.115809 -2.70342e-19)
(1.12516 0.148262 2.94073e-20)
(1.23771 0.164732 5.28536e-20)
(1.29452 0.168363 -1.47879e-19)
(1.31751 0.163552 2.69984e-20)
(1.32254 0.153977 2.10449e-19)
(1.31916 0.142071 -1.55068e-19)
(1.31226 0.129214 -9.24052e-20)
(1.304 0.11612 -5.06178e-20)
(1.29519 0.103157 -4.56705e-20)
(1.28608 0.0905605 -5.8119e-20)
(1.27674 0.0784011 1.08965e-19)
(1.26717 0.0671246 -5.27584e-20)
(-0.0221429 0.0106783 -1.46569e-19)
(0.126445 -0.000953701 3.61986e-19)
(0.421815 0.0341526 2.14357e-19)
(0.751271 0.0869826 -2.41547e-19)
(1.0115 0.1342 2.97405e-19)
(1.17731 0.163922 -1.77174e-21)
(1.26684 0.176576 2.66301e-19)
(1.30696 0.176951 1.73799e-19)
(1.31966 0.169958 1.54025e-19)
(1.31913 0.159155 -1.48243e-19)
(1.31302 0.14666 1.03543e-19)
(1.30487 0.133576 1.09566e-19)
(1.29607 0.120445 1.82724e-19)
(1.28705 0.107545 -9.62739e-20)
(1.27791 0.0950445 -2.18841e-22)
(1.26865 0.083059 -9.11815e-20)
(1.25926 0.071802 3.75214e-21)
(1.24988 0.0608113 -3.92866e-20)
(-0.0134504 0.0066861 -1.33585e-19)
(0.172193 -0.0032945 -1.46235e-19)
(0.504576 0.0464352 -7.44878e-21)
(0.837811 0.10588 2.28984e-19)
(1.0779 0.152609 -2.22416e-19)
(1.21852 0.178796 -2.41777e-19)
(1.28736 0.187541 9.20886e-20)
(1.31373 0.184921 -1.08621e-19)
(1.31861 0.176062 -6.91835e-20)
(1.31413 0.164254 2.71607e-20)
(1.3062 0.151275 -2.34283e-19)
(1.29725 0.137987 2.15519e-19)
(1.2881 0.124793 -2.09156e-20)
(1.27896 0.111906 -4.75134e-20)
(1.26982 0.0994628 4.25984e-20)
(1.26067 0.0875539 -6.42626e-20)
(1.25148 0.0763448 -5.68124e-20)
(1.24234 0.065516 -3.04969e-21)
(1.23303 0.0566113 -4.12231e-20)
(1.22487 0.0452113 7.69933e-20)
(-0.00225763 0.00262678 1.53791e-19)
(0.224485 -0.0026032 2.65485e-19)
(0.588988 0.0621878 -3.55381e-19)
(0.917221 0.125953 -1.31164e-19)
(1.13385 0.170765 -5.91825e-20)
(1.25017 0.192884 3.38594e-19)
(1.30096 0.19778 -9.01925e-20)
(1.31629 0.192456 -5.5986e-20)
(1.31534 0.182003 -7.78324e-20)
(1.30809 0.169351 9.35034e-20)
(1.29895 0.155945 3.46871e-20)
(1.28948 0.142447 -4.04805e-20)
(1.28011 0.129156 -1.08121e-19)
(1.2709 0.116236 1.1096e-20)
(1.2618 0.103794 -4.62977e-20)
(1.25276 0.091922 8.2687e-20)
(1.24378 0.0806916 2.01585e-20)
(1.2349 0.0699966 2.09099e-20)
(1.22597 0.060842 2.80042e-20)
(1.21798 0.0497454 -8.12301e-20)
(0.0118035 -0.00128628 -2.89279e-19)
(0.282724 0.00187379 -1.66694e-20)
(0.672502 0.0808002 -5.42888e-20)
(0.988438 0.146766 1.55018e-19)
(1.17994 0.188514 -5.33677e-20)
(1.27366 0.206242 -1.48762e-19)
(1.30909 0.207447 -2.08541e-19)
(1.31573 0.199707 1.46228e-19)
(1.3105 0.18788 -1.71404e-19)
(1.30136 0.174488 8.50634e-20)
(1.29141 0.160679 5.00669e-20)
(1.28159 0.146949 -2.61669e-20)
(1.27209 0.133521 6.17673e-20)
(1.26286 0.120521 6.91068e-20)
(1.25381 0.10804 -1.46643e-19)
(1.24491 0.0961424 1.0933e-19)
(1.23613 0.0848829 9.2856e-21)
(1.2275 0.0742331 1.85514e-20)
(1.21892 0.0648227 8.90693e-20)
(1.21111 0.0540064 2.19791e-20)
(0.0290707 -0.00473781 8.6042e-20)
(0.345849 0.0105851 -3.44468e-19)
(0.752906 0.101681 3.2166e-19)
(1.05104 0.168017 1.45573e-19)
(1.21707 0.205785 -1.08072e-19)
(1.29032 0.21896 -1.77667e-19)
(1.31295 0.216687 6.13867e-21)
(1.31289 0.206792 -3.48307e-20)
(1.30458 0.193756 2.94766e-19)
(1.29413 0.179688 -1.34386e-19)
(1.28364 0.165473 -1.54811e-20)
(1.27361 0.15148 3.54118e-20)
(1.26403 0.137874 -2.19691e-20)
(1.2548 0.124754 -4.49762e-20)
(1.24584 0.112188 1.26096e-19)
(1.23708 0.100229 -1.03306e-19)
(1.22851 0.0889019 1.23292e-20)
(1.22013 0.0782488 -5.77474e-20)
(1.21188 0.0685898 -6.04384e-20)
(1.20426 0.0579783 -1.93051e-20)
(0.0497928 -0.00731013 -6.18514e-20)
(0.412454 0.0235977 1.44054e-19)
(0.828482 0.124325 -1.3013e-19)
(1.10503 0.189492 -1.34019e-19)
(1.24619 0.222558 2.21427e-19)
(1.30132 0.23114 2.34322e-19)
(1.3135 0.225625 1.13109e-19)
(1.30834 0.2138 -1.88448e-21)
(1.29785 0.199671 -2.89519e-19)
(1.28653 0.184954 2.44345e-20)
(1.27569 0.170314 9.22043e-21)
(1.26551 0.156023 6.21929e-20)
(1.2559 0.1422 1.01644e-19)
(1.24672 0.12892 -5.4553e-21)
(1.23786 0.116234 -2.31352e-20)
(1.22926 0.104172 9.25722e-20)
(1.2209 0.0927601 -6.03399e-20)
(1.21277 0.0820498 7.35073e-20)
(1.20483 0.0721416 -6.528e-21)
(1.19741 0.0617011 7.42445e-20)
(0.0740781 -0.00851084 1.07915e-19)
(0.480948 0.0406567 5.63689e-20)
(0.898036 0.148323 -1.27652e-19)
(1.15073 0.21103 -1.57129e-19)
(1.2683 0.238845 -1.11182e-20)
(1.30769 0.24288 -2.57177e-20)
(1.31148 0.234363 1.26361e-19)
(1.30252 0.220788 8.79898e-20)
(1.2905 0.205639 9.4604e-20)
(1.2786 0.190277 -3.43069e-20)
(1.26754 0.175186 4.51795e-20)
(1.25729 0.16056 -4.15386e-20)
(1.2477 0.146483 -8.42924e-20)
(1.23859 0.133008 1.02594e-20)
(1.22986 0.120168 2.17673e-20)
(1.22143 0.107976 2.578e-20)
(1.21329 0.0964527 3.42161e-20)
(1.2054 0.0856446 -2.04945e-20)
(1.19775 0.0755008 3.93482e-20)
(1.19056 0.0651861 -8.95093e-20)
(0.101858 -0.0078285 1.42319e-19)
(0.549722 0.0613206 -1.27968e-20)
(0.96085 0.173342 1.79256e-19)
(1.18861 0.232498 1.08746e-19)
(1.28431 0.254673 4.85073e-20)
(1.31027 0.254271 -1.18667e-19)
(1.30744 0.242973 -1.12458e-19)
(1.29571 0.227788 -3.12257e-20)
(1.28264 0.211661 -8.40907e-21)
(1.27037 0.19564 -8.18388e-21)
(1.25919 0.180066 -1.09004e-19)
(1.24894 0.165072 2.38546e-20)
(1.23939 0.150707 4.29792e-20)
(1.23039 0.137006 1.30327e-21)
(1.22181 0.123983 5.13789e-21)
(1.21358 0.111635 -1.32706e-20)
(1.20566 0.0999813 -3.18182e-20)
(1.19801 0.0890413 -2.62111e-20)
(1.19065 0.0786716 -5.43374e-20)
(1.18368 0.0684513 8.20694e-21)
(0.132878 -0.00480513 -8.7417e-20)
(0.617264 0.0850896 5.40011e-20)
(1.01659 0.199116 -2.22138e-20)
(1.21923 0.253785 5.18419e-21)
(1.29507 0.270076 -1.99525e-19)
(1.30976 0.265389 4.93204e-20)
(1.30179 0.251507 3.16964e-20)
(1.28808 0.234812 -2.18511e-20)
(1.27434 0.217722 7.81404e-20)
(1.26186 0.201021 -1.23397e-21)
(1.25064 0.184932 3.41455e-20)
(1.24042 0.169536 3.98628e-20)
(1.23097 0.154854 -2.72635e-20)
(1.22211 0.140901 -3.20807e-20)
(1.2137 0.127669 -1.73291e-20)
(1.20568 0.115146 -1.84967e-20)
(1.19799 0.103343 1.6243e-20)
(1.1906 0.0922452 1.85968e-20)
(1.18352 0.0816667 2.9662e-20)
(1.17677 0.0715103 3.3974e-20)
(0.16672 0.000898324 -4.07163e-20)
(0.68224 0.111479 -7.99299e-21)
(1.06519 0.225425 -7.22029e-20)
(1.24321 0.274798 6.6628e-20)
(1.30132 0.285084 1.43216e-19)
(1.3067 0.27629 7.80471e-20)
(1.29484 0.259989 -3.51004e-20)
(1.27976 0.241853 -2.04311e-20)
(1.26561 0.2238 -4.62744e-20)
(1.25304 0.206392 4.44743e-20)
(1.24186 0.189756 -1.73032e-21)
(1.23174 0.17393 -2.19614e-20)
(1.22243 0.158905 -2.57903e-20)
(1.21374 0.144677 -2.46363e-20)
(1.20553 0.131218 5.10167e-20)
(1.19773 0.118504 -1.72536e-20)
(1.19028 0.106536 -1.85828e-20)
(1.18315 0.0952621 -3.17648e-21)
(1.17634 0.084491 -3.2308e-21)
(1.16982 0.0743725 -1.89107e-20)
(0.202835 0.00946513 -4.03592e-21)
(0.743532 0.140036 -5.35813e-20)
(1.1068 0.252084 2.46477e-20)
(1.26115 0.295458 -8.74838e-20)
(1.30369 0.299721 -6.09247e-20)
(1.30152 0.287011 9.05201e-21)
(1.28679 0.268428 -9.09913e-22)
(1.27082 0.248892 3.99959e-21)
(1.25647 0.229865 1.25629e-20)
(1.24393 0.211722 2.21943e-20)
(1.23285 0.194512 -3.01509e-20)
(1.22288 0.178231 1.27761e-20)
(1.21374 0.162843 2.22795e-20)
(1.20526 0.148321 -4.85974e-21)
(1.19728 0.134619 -2.15011e-20)
(1.18972 0.121701 1.2035e-20)
(1.18253 0.109556 1.36942e-20)
(1.17566 0.0980951 1.38305e-20)
(1.16912 0.0871507 -6.98394e-21)
(1.16281 0.0770479 2.50075e-21)
(0.24058 0.0209243 4.51473e-20)
(0.80025 0.170342 -6.23751e-20)
(1.14167 0.278922 -8.4605e-21)
(1.27364 0.315701 3.5768e-20)
(1.30273 0.314002 5.75201e-20)
(1.29456 0.29757 -1.75798e-20)
(1.27779 0.276812 -5.01014e-20)
(1.2613 0.255899 4.9586e-20)
(1.24692 0.23588 -1.33637e-20)
(1.23449 0.216977 -1.53653e-20)
(1.22359 0.19917 1.39619e-20)
(1.21382 0.182415 -6.91676e-21)
(1.20491 0.166645 -2.03039e-21)
(1.19667 0.151817 5.37753e-21)
(1.18894 0.137861 7.70818e-21)
(1.18165 0.12473 9.85728e-21)
(1.17472 0.112399 -1.75139e-20)
(1.16812 0.100747 -4.32308e-21)
(1.16185 0.0896476 -1.06383e-21)
(1.15576 0.0795405 5.18548e-21)
(0.279232 0.0351828 -2.47745e-20)
(0.851734 0.201997 4.33444e-20)
(1.17011 0.305777 -5.35304e-21)
(1.28126 0.335475 -1.15002e-20)
(1.29888 0.32793 -3.74315e-20)
(1.28606 0.307964 1.74976e-20)
(1.26792 0.285117 1.14707e-20)
(1.25122 0.262837 -1.26613e-20)
(1.23696 0.241808 -2.06544e-21)
(1.22473 0.222124 6.00794e-21)
(1.21407 0.203699 -6.49137e-21)
(1.20456 0.186455 3.26316e-21)
(1.19593 0.170293 -7.06867e-21)
(1.18796 0.155148 4.04286e-21)
(1.18052 0.140932 8.3346e-22)
(1.17351 0.127583 -3.66679e-21)
(1.16686 0.115062 2.10154e-21)
(1.16054 0.10322 -3.25102e-21)
(1.15454 0.091981 1.05686e-21)
(1.14866 0.0818549 3.75024e-21)
(0.317979 0.052061 -1.77768e-20)
(0.897536 0.23462 3.79316e-20)
(1.19244 0.332482 -3.95115e-21)
(1.2845 0.354733 -1.47734e-20)
(1.29252 0.341498 -3.44319e-20)
(1.27621 0.318178 1.72309e-20)
(1.25726 0.293306 1.11683e-20)
(1.24059 0.269661 -9.98955e-21)
(1.22657 0.247606 -1.16919e-22)
(1.21465 0.227124 4.68788e-21)
(1.20429 0.20807 -4.13046e-21)
(1.1951 0.190326 -1.12648e-21)
(1.18679 0.173764 -2.46806e-21)
(1.17914 0.158299 1.46688e-21)
(1.172 0.143818 9.48344e-22)
(1.16529 0.13025 -3.72511e-21)
(1.15894 0.117539 4.13562e-21)
(1.15292 0.105511 -3.96644e-21)
(1.14718 0.094148 -9.59502e-22)
(1.14152 0.0839898 2.46997e-21)
(0.356029 0.0712938 5.14668e-20)
(0.93732 0.267812 -5.11505e-20)
(1.20893 0.35885 -3.65004e-20)
(1.28377 0.373421 4.71917e-20)
(1.28393 0.354693 5.34742e-20)
(1.26514 0.328187 -2.17e-20)
(1.24584 0.301341 -3.58277e-20)
(1.2294 0.276332 3.91005e-20)
(1.21575 0.253238 -1.08832e-20)
(1.20421 0.231947 -1.26644e-20)
(1.19425 0.212254 9.88459e-21)
(1.18543 0.194006 -1.90141e-21)
(1.17748 0.17704 -4.60725e-21)
(1.17019 0.161254 1.46959e-21)
(1.16339 0.146511 7.04055e-21)
(1.15701 0.132724 8.20779e-21)
(1.15097 0.119822 -1.02491e-20)
(1.14526 0.107617 -2.70096e-21)
(1.13981 0.0961502 -1.75004e-21)
(1.13433 0.0859495 3.71692e-21)
(0.392834 0.0926498 2.29238e-20)
(0.971184 0.301315 -8.12082e-20)
(1.22005 0.384764 2.25412e-20)
(1.27952 0.391499 -5.84954e-20)
(1.27338 0.367476 -6.78319e-20)
(1.25295 0.337933 1.09552e-20)
(1.23368 0.309157 4.30952e-21)
(1.21766 0.282784 -4.33422e-21)
(1.2045 0.258647 1.4475e-20)
(1.19343 0.236543 -5.67669e-22)
(1.18393 0.216212 -9.37555e-21)
(1.17554 0.197459 1.90686e-21)
(1.16801 0.180091 1.82368e-20)
(1.16111 0.16399 -1.53752e-21)
(1.15469 0.14899 -6.18703e-21)
(1.14866 0.13499 -3.57163e-21)
(1.14296 0.121901 1.55165e-20)
(1.13758 0.109525 6.63408e-21)
(1.13241 0.0979907 -3.87667e-21)
(1.1271 0.0877474 -4.53492e-21)
(0.427757 0.115882 -5.08778e-20)
(0.999112 0.334843 -9.6779e-21)
(1.22611 0.410061 -7.02967e-20)
(1.27207 0.408903 7.82971e-20)
(1.26104 0.379805 9.68551e-20)
(1.2397 0.347363 3.74578e-20)
(1.2208 0.316697 -6.83818e-21)
(1.20537 0.288969 7.7364e-21)
(1.19281 0.263791 -3.92758e-20)
(1.18231 0.240878 2.81151e-20)
(1.17333 0.219912 -8.50806e-21)
(1.16545 0.200663 -6.48811e-21)
(1.15838 0.182901 -1.76197e-20)
(1.15191 0.166485 -5.34944e-21)
(1.14592 0.151242 8.27058e-21)
(1.14026 0.137042 -5.34305e-21)
(1.13491 0.123768 -7.00162e-21)
(1.12988 0.111233 2.01424e-21)
(1.12497 0.0996648 -1.24262e-21)
(1.11987 0.0893705 -1.04685e-20)
(0.460214 0.140723 -7.51821e-20)
(1.02119 0.368126 1.42411e-20)
(1.22746 0.434588 3.40055e-20)
(1.26175 0.425568 -3.69877e-20)
(1.2471 0.391622 -1.32776e-19)
(1.22547 0.356412 1.10673e-20)
(1.2072 0.323895 4.75083e-20)
(1.19253 0.294826 -1.75178e-20)
(1.18069 0.268617 3.76735e-20)
(1.17085 0.244908 -9.97432e-21)
(1.16248 0.223317 2.49518e-20)
(1.15517 0.203585 3.3945e-21)
(1.14861 0.185446 3.93545e-22)
(1.14262 0.168721 -1.46828e-20)
(1.13706 0.153243 -6.80739e-21)
(1.13181 0.138866 -3.15123e-21)
(1.12684 0.125415 3.02474e-21)
(1.12215 0.112747 4.92149e-21)
(1.11751 0.10116 8.6858e-21)
(1.11264 0.0908128 1.48364e-20)
(0.489704 0.166887 9.58888e-20)
(1.03756 0.400904 3.50942e-20)
(1.22443 0.458194 1.15363e-19)
(1.2488 0.441421 5.57778e-20)
(1.23167 0.402862 4.35841e-20)
(1.21028 0.36501 -5.63769e-20)
(1.19291 0.330685 -5.01812e-20)
(1.17915 0.300298 -1.68259e-20)
(1.16814 0.273076 -9.35142e-21)
(1.15907 0.248592 -2.02241e-20)
(1.15138 0.226397 -3.101e-20)
(1.14469 0.206196 -5.49534e-22)
(1.1387 0.187698 1.42954e-20)
(1.13322 0.170688 2.75128e-20)
(1.12813 0.154989 -2.72761e-20)
(1.12331 0.140439 5.90447e-21)
(1.11875 0.126832 -7.61428e-21)
(1.11442 0.114057 -3.06452e-21)
(1.11005 0.102469 -1.70121e-20)
(1.10543 0.0920659 -3.46723e-21)
(0.51581 0.194065 2.10862e-19)
(1.0484 0.432926 -1.95428e-20)
(1.21733 0.480732 -9.04957e-20)
(1.23346 0.45638 -1.23032e-19)
(1.21485 0.41345 -2.64692e-20)
(1.19417 0.373078 -7.82034e-23)
(1.17794 0.336995 6.75872e-20)
(1.16525 0.305325 5.40074e-20)
(1.15521 0.27712 3.58953e-20)
(1.14698 0.251886 -1.45666e-20)
(1.14005 0.22912 1.10839e-20)
(1.13402 0.208474 -1.02248e-20)
(1.12865 0.189633 -1.8815e-20)
(1.12373 0.172359 7.04801e-21)
(1.11914 0.15646 -2.35478e-21)
(1.11477 0.141753 6.31803e-21)
(1.11064 0.128011 8.98483e-21)
(1.10669 0.115156 -1.98293e-21)
(1.10261 0.103582 1.10213e-20)
(1.09825 0.0931259 -8.07767e-21)
(0.538199 0.221929 -1.32814e-19)
(1.05391 0.463943 1.56011e-19)
(1.20645 0.502055 -6.82588e-20)
(1.21591 0.470361 -3.21343e-20)
(1.19672 0.423299 1.00107e-19)
(1.17719 0.380535 9.61235e-20)
(1.16236 0.342755 3.21705e-20)
(1.15087 0.309844 -2.47796e-20)
(1.14188 0.280704 -5.21818e-20)
(1.13457 0.254757 -8.66786e-22)
(1.12847 0.231447 6.06405e-21)
(1.12318 0.210385 1.34876e-20)
(1.11847 0.191229 1.22463e-20)
(1.11415 0.173718 -4.19679e-21)
(1.1101 0.15764 8.29126e-21)
(1.10622 0.142796 2.93506e-21)
(1.10254 0.128941 -4.41724e-21)
(1.09897 0.116033 6.84112e-21)
(1.0952 0.104489 6.15839e-21)
(1.09113 0.0939858 3.46182e-21)
(0.556628 0.250129 2.14525e-20)
(1.0543 0.493709 -2.78132e-19)
(1.19208 0.52202 1.70693e-19)
(1.19633 0.483274 1.03666e-19)
(1.17736 0.432311 -1.03271e-20)
(1.15945 0.387294 -8.27512e-20)
(1.14616 0.347897 -7.05534e-21)
(1.136 0.313808 -1.7393e-20)
(1.12818 0.283777 5.41276e-20)
(1.12188 0.257161 -4.36682e-21)
(1.11668 0.233346 -9.59632e-21)
(1.11219 0.211905 2.94157e-21)
(1.1082 0.192463 -3.22294e-21)
(1.10451 0.174742 -2.25628e-21)
(1.10103 0.158513 9.8807e-21)
(1.09767 0.143554 -1.39097e-20)
(1.09445 0.129612 1.39563e-21)
(1.09129 0.116677 -3.30179e-21)
(1.08783 0.10518 -2.87789e-21)
(1.08407 0.0946408 4.01185e-22)
(0.570936 0.278303 -2.67216e-19)
(1.0498 0.521973 2.67064e-20)
(1.17446 0.540477 -5.78724e-20)
(1.1749 0.495026 7.42333e-20)
(1.15695 0.440401 -1.41588e-20)
(1.14094 0.39326 -5.77222e-20)
(1.12935 0.35236 -5.71943e-20)
(1.12066 0.317153 1.14388e-20)
(1.11412 0.286293 -1.1741e-20)
(1.10893 0.25906 1.05132e-20)
(1.1047 0.234785 1.35342e-20)
(1.10106 0.213003 -9.12454e-21)
(1.09783 0.193313 -1.33767e-21)
(1.09482 0.175415 6.42868e-21)
(1.09194 0.159062 -8.64012e-21)
(1.08912 0.144015 2.29468e-21)
(1.08639 0.130014 3.03283e-21)
(1.08365 0.117078 -6.24203e-22)
(1.08052 0.105643 2.3055e-22)
(1.07711 0.0950836 -1.0304e-21)
(0.58104 0.306089 1.21312e-19)
(1.04067 0.548495 2.51984e-19)
(1.15382 0.557259 -2.45376e-19)
(1.15185 0.505515 1.39154e-20)
(1.13556 0.447491 -5.68742e-20)
(1.12165 0.398353 1.13239e-19)
(1.11198 0.356064 -3.26703e-20)
(1.1049 0.319825 -2.74999e-21)
(1.09974 0.288204 -9.50057e-21)
(1.09574 0.260415 1.12471e-20)
(1.09255 0.235732 -2.49823e-21)
(1.08982 0.213656 -4.5298e-21)
(1.08739 0.193757 4.58342e-22)
(1.0851 0.175717 -2.16692e-21)
(1.08285 0.159272 2.43773e-21)
(1.0806 0.144168 -4.33723e-21)
(1.07838 0.130139 9.53611e-23)
(1.07607 0.117226 -2.45457e-21)
(1.0733 0.10587 -2.59788e-21)
(1.07025 0.0953092 2.92128e-21)
(0.586939 0.333124 -9.45512e-20)
(1.02721 0.573066 -8.93135e-20)
(1.13036 0.572173 3.97194e-20)
(1.12734 0.514632 8.42437e-21)
(1.11322 0.453491 -7.39377e-21)
(1.10167 0.402505 -7.52985e-20)
(1.09409 0.358941 2.59039e-20)
(1.08874 0.321768 -2.05906e-20)
(1.08507 0.289467 2.06737e-21)
(1.08234 0.261191 -4.98394e-21)
(1.08025 0.236157 1.87811e-21)
(1.07849 0.213838 -2.48246e-21)
(1.07691 0.193774 3.78344e-21)
(1.07536 0.175631 1.42702e-21)
(1.07378 0.159129 -4.74667e-22)
(1.07213 0.144 -2.63904e-21)
(1.07043 0.129974 2.93948e-21)
(1.06856 0.117111 2.7627e-21)
(1.06617 0.105848 5.45224e-21)
(1.06352 0.0953129 3.57159e-21)
(0.588705 0.359048 -2.20356e-19)
(1.00978 0.59552 3.1596e-19)
(1.10436 0.585087 1.02292e-19)
(1.10144 0.522196 -7.13715e-20)
(1.08999 0.458317 5.35761e-20)
(1.08107 0.405638 1.55945e-20)
(1.07573 0.360926 1.64325e-20)
(1.07225 0.322931 -8.0452e-22)
(1.07016 0.29004 3.93945e-21)
(1.06877 0.261352 -2.04065e-21)
(1.06785 0.236033 -2.04301e-21)
(1.0671 0.213526 -5.2595e-21)
(1.06641 0.193345 -1.97118e-20)
(1.06564 0.175141 8.18951e-21)
(1.06475 0.158619 3.91108e-21)
(1.06372 0.1435 6.30856e-21)
(1.06256 0.129512 -8.15579e-21)
(1.06116 0.116723 3.14734e-22)
(1.05916 0.105569 7.5006e-21)
(1.05694 0.0950932 2.21374e-20)
(0.586483 0.38349 4.95156e-19)
(0.988671 0.615651 -2.4994e-19)
(1.07607 0.595916 3.03965e-20)
(1.07426 0.528062 -8.9105e-20)
(1.06598 0.461848 -2.82314e-20)
(1.0599 0.407679 -8.02983e-22)
(1.05698 0.36196 -4.71479e-21)
(1.05546 0.323266 -3.06316e-21)
(1.05504 0.289884 -3.80738e-22)
(1.05507 0.260867 -2.80912e-20)
(1.05536 0.235334 1.64283e-20)
(1.05567 0.212698 2.34952e-21)
(1.0559 0.192453 9.03855e-21)
(1.05595 0.174232 -1.35737e-20)
(1.05578 0.157728 1.74049e-20)
(1.05539 0.142656 6.02108e-21)
(1.0548 0.128742 -8.65057e-21)
(1.05387 0.116048 -1.65566e-21)
(1.05228 0.105019 -2.7219e-20)
(1.05052 0.0946478 -1.24769e-20)
(0.580484 0.406126 -2.39115e-19)
(0.963875 0.633062 -2.52179e-19)
(1.04591 0.604653 7.85707e-20)
(1.04602 0.53216 4.42218e-20)
(1.04129 0.46399 3.93095e-20)
(1.03826 0.408558 1.79544e-22)
(1.03787 0.361989 -1.45137e-20)
(1.03843 0.322727 2.45835e-20)
(1.03976 0.288964 -4.32728e-20)
(1.04127 0.259708 1.08575e-20)
(1.04283 0.234035 -1.56172e-20)
(1.04424 0.211336 5.68404e-21)
(1.04542 0.191081 -3.1978e-20)
(1.04631 0.172891 1.27442e-20)
(1.04689 0.156446 -2.57638e-20)
(1.04716 0.141461 1.15303e-20)
(1.04715 0.127655 5.24043e-21)
(1.04671 0.115075 1.59897e-20)
(1.04555 0.104175 2.4302e-20)
(1.04427 0.0939672 -3.24135e-21)
(0.57094 0.426802 8.08377e-20)
(0.935518 0.647377 2.51268e-19)
(1.01419 0.611134 -6.1915e-20)
(1.01687 0.534479 5.60391e-20)
(1.01603 0.464661 -1.1835e-20)
(1.01623 0.408209 -2.02093e-20)
(1.0185 0.360963 3.67664e-20)
(1.02123 0.321274 -2.89908e-20)
(1.02437 0.287246 2.17201e-21)
(1.02741 0.257848 7.9766e-21)
(1.03029 0.232116 1.31434e-22)
(1.03283 0.209421 5.83319e-20)
(1.035 0.189215 2.89445e-20)
(1.03676 0.171105 -1.44517e-20)
(1.03811 0.154763 1.64651e-20)
(1.03906 0.139906 -1.13997e-20)
(1.03963 0.126248 -5.68967e-22)
(1.03968 0.113795 -6.09417e-20)
(1.03899 0.103012 -2.73569e-20)
(1.03822 0.0930269 -2.16563e-20)
(0.558062 0.445374 1.75485e-20)
(0.904125 0.658512 7.50186e-20)
(0.981059 0.615088 -5.54262e-20)
(0.986982 0.534942 -6.87247e-21)
(0.990304 0.463793 -2.4807e-20)
(0.993882 0.406572 -1.45534e-20)
(0.998924 0.358838 -2.50404e-20)
(1.0039 0.318873 -1.53488e-20)
(1.00893 0.284704 -1.53929e-20)
(1.01355 0.255264 3.14929e-20)
(1.01778 0.22956 -2.93392e-20)
(1.02148 0.20694 -9.10342e-20)
(1.02467 0.186843 -2.14094e-20)
(1.02732 0.168864 -1.02178e-20)
(1.02946 0.152671 3.1191e-20)
(1.0311 0.137988 -5.11883e-21)
(1.03226 0.12452 6.25096e-21)
(1.03282 0.112212 -1.18923e-20)
(1.03263 0.101529 4.12276e-20)
(1.0324 0.0918177 -2.64371e-20)
(0.541841 0.461454 3.94767e-20)
(0.87044 0.6666 -1.46015e-19)
(0.946774 0.616378 2.26684e-20)
(0.956506 0.53347 -2.0438e-20)
(0.96424 0.461329 1.06315e-20)
(0.971321 0.403595 8.11218e-20)
(0.979227 0.355575 -6.95826e-20)
(0.986516 0.315493 -1.77173e-20)
(0.993482 0.281313 4.36754e-21)
(0.999721 0.251939 -1.14795e-19)
(1.00534 0.22635 2.00637e-20)
(1.01023 0.203881 7.26732e-20)
(1.01445 0.183955 7.12001e-20)
(1.01801 0.16616 1.75127e-20)
(1.02096 0.150161 -2.61472e-20)
(1.0233 0.135695 -1.00329e-20)
(1.02505 0.122464 3.05609e-20)
(1.02616 0.110331 3.07073e-21)
(1.0266 0.099753 5.10821e-21)
(1.02699 0.0904337 4.47302e-20)
(0.522395 0.474474 -1.87444e-19)
(0.834829 0.671455 5.95371e-20)
(0.911549 0.614993 9.4634e-21)
(0.925612 0.529988 7.77792e-22)
(0.937956 0.457218 6.25528e-20)
(0.948646 0.399238 -3.76936e-20)
(0.959491 0.351141 4.97495e-20)
(0.96915 0.311109 -3.39651e-20)
(0.978093 0.277054 -5.54581e-20)
(0.985984 0.247857 1.77101e-19)
(0.993011 0.222475 4.42094e-21)
(0.999105 0.200233 -1.02797e-20)
(1.00438 0.180544 -3.18301e-20)
(1.00886 0.162988 -2.68247e-21)
(1.01262 0.147229 -2.19642e-21)
(1.01566 0.133017 2.00644e-20)
(1.018 0.120056 -1.68947e-20)
(1.01975 0.108115 -1.57512e-20)
(1.02104 0.0976462 3.41873e-21)
(1.02223 0.0889863 -4.04724e-20)