/*--------------------------------*- C++ -*----------------------------------*\
  =========                 |
  \\      /  F ield         | OpenFOAM: The Open Source CFD Toolbox
   \\    /   O peration     | Website:  https://openfoam.org
    \\  /    A nd           | Version:  7
     \\/     M anipulation  |
\*---------------------------------------------------------------------------*/
FoamFile
{
    version     2.0;
    format      ascii;
    class       volScalarField;
    location    "15";
    object      p;
}
// * * * * * * * * * * * * * * * * * * * * * * * * * * * * * * * * * * * * * //

dimensions      [0 2 -2 0 0 0 0];

internalField   nonuniform List<scalar> 
656
(
0.0751733
0.215758
0.214592
0.211971
0.208152
0.203186
0.197138
0.190107
0.182233
0.173686
0.164655
0.155337
0.145921
0.136578
0.12745
0.118657
0.215889
0.214741
0.212149
0.208373
0.203458
0.197462
0.190484
0.182656
0.174143
0.165133
0.155823
0.1464
0.137035
0.127875
0.119039
0.216134
0.215015
0.212479
0.208784
0.203962
0.198067
0.191186
0.183444
0.174997
0.16603
0.156735
0.1473
0.137898
0.12868
0.119766
0.216473
0.215393
0.212938
0.209355
0.204664
0.19891
0.192167
0.184548
0.176199
0.167295
0.158024
0.148575
0.139125
0.129828
0.120805
0.21689
0.215858
0.213502
0.210057
0.205531
0.199955
0.193387
0.185925
0.177702
0.168883
0.159648
0.150189
0.140681
0.131291
0.12213
0.217369
0.216391
0.214151
0.210868
0.206534
0.201167
0.194808
0.187537
0.179468
0.170757
0.161574
0.152109
0.14254
0.133045
0.123722
0.217895
0.216978
0.214866
0.211765
0.207647
0.202518
0.196398
0.189348
0.181463
0.172883
0.163769
0.154308
0.144678
0.135072
0.125567
0.218457
0.217604
0.215633
0.212727
0.208846
0.20398
0.198127
0.191328
0.183655
0.175233
0.166206
0.156764
0.147076
0.137358
0.127651
0.219043
0.218258
0.216436
0.213738
0.210112
0.205529
0.199967
0.193447
0.186014
0.177777
0.16886
0.159453
0.149715
0.13989
0.129962
0.219645
0.218929
0.217263
0.214783
0.211424
0.207143
0.201896
0.195681
0.188515
0.18049
0.171708
0.162357
0.152578
0.142656
0.132491
0.220253
0.219609
0.218103
0.215848
0.212767
0.208804
0.20389
0.198004
0.191132
0.183349
0.174727
0.165456
0.15565
0.145645
0.135227
0.220863
0.22029
0.218947
0.216922
0.214128
0.210493
0.20593
0.200395
0.193843
0.18633
0.177895
0.168732
0.158914
0.148847
0.138161
0.221467
0.220966
0.219788
0.217994
0.215492
0.212196
0.207998
0.202834
0.196626
0.189414
0.181193
0.172168
0.162355
0.152253
0.141281
0.222061
0.221632
0.220619
0.219057
0.216851
0.2139
0.210079
0.205303
0.199462
0.192578
0.184601
0.175746
0.165957
0.155852
0.144577
0.222643
0.222284
0.221434
0.220104
0.218195
0.215594
0.212158
0.207786
0.202333
0.195805
0.188099
0.179449
0.169703
0.159634
0.148036
0.223208
0.222919
0.22223
0.22113
0.219516
0.217267
0.214224
0.210267
0.205222
0.199075
0.191669
0.183261
0.173578
0.163588
0.151646
0.223755
0.223534
0.223003
0.222129
0.220808
0.218911
0.216265
0.212734
0.208113
0.202372
0.195294
0.187163
0.177567
0.167703
0.155395
0.224282
0.224127
0.223751
0.223097
0.222067
0.22052
0.218272
0.215176
0.210992
0.20568
0.198956
0.191139
0.181652
0.171965
0.159268
0.224789
0.224696
0.224471
0.224034
0.223288
0.222087
0.220238
0.217581
0.213847
0.208984
0.20264
0.195173
0.18582
0.176362
0.163253
0.225273
0.225242
0.225163
0.224936
0.224468
0.223609
0.222156
0.21994
0.216667
0.212269
0.206332
0.199248
0.190055
0.180878
0.167336
0.225735
0.225764
0.225825
0.225801
0.225605
0.225081
0.224021
0.222247
0.219441
0.215524
0.210016
0.203347
0.194345
0.185497
0.171507
0.226176
0.226261
0.226457
0.22663
0.226697
0.226501
0.225829
0.224495
0.222161
0.218736
0.21368
0.207456
0.198676
0.190202
0.175754
0.226594
0.226733
0.22706
0.227422
0.111985
0.107395
0.102713
0.0979358
0.0930609
0.0880954
0.0830474
0.0779254
0.0727377
0.0674934
0.0622022
0.112362
0.107783
0.103108
0.0983345
0.0934591
0.0884864
0.0834246
0.0782821
0.0730676
0.0677905
0.0624608
0.113061
0.108449
0.103734
0.0989231
0.0940077
0.0889897
0.0838776
0.0786803
0.0734068
0.0680665
0.0626695
0.114051
0.109366
0.104572
0.0996904
0.0947028
0.089608
0.0844148
0.079133
0.0737719
0.0683409
0.0628504
0.115315
0.110524
0.105615
0.100632
0.0955445
0.0903447
0.0850432
0.0796506
0.0741762
0.0686299
0.0630221
0.116841
0.111909
0.106853
0.101741
0.0965258
0.091195
0.0857596
0.0802316
0.0746204
0.0689359
0.0631887
0.118617
0.113513
0.108278
0.10301
0.0976436
0.0921572
0.086564
0.0808776
0.0751074
0.0692632
0.063356
0.120637
0.115331
0.109885
0.104438
0.0988961
0.0932307
0.0874572
0.0815906
0.0756405
0.0696165
0.0635297
0.122896
0.117357
0.111672
0.106021
0.100282
0.0944155
0.0884401
0.0823727
0.0762228
0.0699996
0.0637146
0.125389
0.119587
0.113634
0.107759
0.101801
0.0957117
0.0895137
0.0832259
0.076857
0.0704162
0.0639152
0.128113
0.122017
0.115768
0.10965
0.103453
0.0971194
0.0906792
0.084152
0.0775458
0.0708697
0.0641356
0.131064
0.124641
0.118072
0.111692
0.105236
0.0986388
0.0919374
0.0851527
0.0782915
0.0713631
0.0643794
0.0573535
0.134238
0.127456
0.120543
0.113884
0.10715
0.10027
0.0932889
0.0862293
0.0790962
0.0718989
0.0646497
0.0573619
0.13763
0.130455
0.123175
0.116224
0.109194
0.102011
0.094734
0.0873829
0.0799615
0.0724794
0.0649495
0.057385
0.141237
0.133631
0.125967
0.118709
0.111364
0.103862
0.0962728
0.0886142
0.0808888
0.0731067
0.0652812
0.0574256
0.145052
0.136975
0.128912
0.121338
0.11366
0.105822
0.0979048
0.0899235
0.081879
0.0737824
0.065647
0.0574865
0.149069
0.140478
0.132005
0.124105
0.116077
0.107887
0.0996291
0.0913107
0.0829328
0.0745076
0.0660487
0.05757
0.15328
0.144128
0.13524
0.127007
0.118612
0.110057
0.101444
0.0927752
0.0840504
0.0752832
0.0664877
0.0576778
0.157676
0.147912
0.138612
0.130037
0.121259
0.112328
0.103349
0.0943159
0.0852314
0.0761097
0.0669649
0.0578116
0.162246
0.151817
0.142114
0.13319
0.124013
0.114695
0.10534
0.0959312
0.0864752
0.076987
0.067481
0.0579724
0.166977
0.155825
0.145737
0.136456
0.126868
0.117157
0.107414
0.0976189
0.0877804
0.0779145
0.0680359
0.0581608
0.171852
0.15992
0.149474
0.139826
0.129817
0.119706
0.109567
0.0993762
0.0891451
0.078891
0.0686293
0.058377
0.176849
0.164087
0.153315
0.14329
0.132852
0.122339
0.111796
0.1012
0.0905671
0.0799151
0.0692601
0.0586206
0.168311
0.157252
0.146836
0.135969
0.12505
0.114096
0.103087
0.0920441
0.0809851
0.0699275
0.0588915
0.161268
0.150448
0.139155
0.127829
0.116458
0.10503
0.0935703
0.0820964
0.0706281
0.0591871
0.154093
0.142385
0.130652
0.118862
0.107013
0.0951312
0.0832367
0.0713515
0.0594992
0.145666
0.133527
0.121316
0.109041
0.0967318
0.0844103
0.0721013
0.0598304
0.136603
0.123951
0.111231
0.0984742
0.0857069
0.0729559
0.0602494
0.126726
0.11356
0.100353
0.0871366
0.0739392
0.0607912
0.114828
0.101329
0.0878049
0.0742886
0.0608133
)
;

boundaryField
{
    inlet
    {
        type            zeroGradient;
    }
    outlet
    {
        type            fixedValue;
        value           nonuniform 0();
    }
    cylinder
    {
        type            zeroGradient;
    }
    top
    {
        type            symmetryPlane;
    }
    bottom
    {
        type            symmetryPlane;
    }
    defaultFaces
    {
        type            empty;
    }
    procBoundary0to1
    {
        type            processor;
        value           nonuniform List<scalar> 
26
(
0.056874
0.057089
0.0572268
0.0573118
0.0573643
0.0573906
0.0573976
0.0573921
0.05738
0.0573665
0.0573563
0.0573563
0.0502988
0.0500491
0.0497998
0.0495542
0.0493155
0.0490864
0.0488692
0.0486659
0.0484781
0.0483068
0.0481527
0.0480163
0.0478978
0.0477959
)
;
    }
    procBoundary0to4
    {
        type            processor;
        value           nonuniform List<scalar> 
35
(
0.119378
0.104719
0.0899671
0.0899671
0.227744
0.227867
0.227575
0.226679
0.224819
0.221896
0.217312
0.211557
0.203037
0.194973
0.180067
0.226991
0.227182
0.227633
0.227744
0.228177
0.180067
0.181939
0.181939
0.17258
0.17258
0.165327
0.165327
0.157776
0.157776
0.149169
0.149169
0.139818
0.139818
0.128266
0.128266
)
;
    }
    procBoundary0to5
    {
        type            processor;
        value           nonuniform List<scalar> 8(0.0594953 0.0603855 0.0603855 0.0477039 0.0476239 0.0476157 0.0477228 0.0474116);
    }
}


// ************************************************************************* //
