/*--------------------------------*- C++ -*----------------------------------*\
  =========                 |
  \\      /  F ield         | OpenFOAM: The Open Source CFD Toolbox
   \\    /   O peration     | Website:  https://openfoam.org
    \\  /    A nd           | Version:  7
     \\/     M anipulation  |
\*---------------------------------------------------------------------------*/
FoamFile
{
    version     2.0;
    format      ascii;
    class       surfaceScalarField;
    location    "10";
    object      phi;
}
// * * * * * * * * * * * * * * * * * * * * * * * * * * * * * * * * * * * * * //

dimensions      [0 3 -1 0 0 0 0];

internalField   nonuniform List<scalar> 
41522
(
-3.34026e-06
3.33952e-06
7.4112e-10
-5.79176e-06
2.44927e-06
2.22318e-09
-4.07541e-06
-1.72026e-06
3.91572e-09
5.04103e-06
-9.12231e-06
5.85759e-09
2.3523e-05
-1.849e-05
8.11199e-09
5.34608e-05
-2.99486e-05
1.07253e-08
9.65606e-05
-4.31136e-05
1.37403e-08
0.000154681
-5.81376e-05
1.71902e-08
0.000229641
-7.49806e-05
2.10642e-08
0.000323425
-9.38096e-05
2.53529e-08
0.000438118
-0.000114723
2.99056e-08
0.000575997
-0.000137914
3.46443e-08
0.000739478
-0.00016352
3.90742e-08
-0.000191852
4.30928e-08
-3.30697e-06
6.64649e-06
-5.67572e-06
4.81802e-06
-3.82712e-06
-3.56886e-06
5.47314e-06
-1.84226e-05
2.41971e-05
-3.7214e-05
5.44437e-05
-6.01951e-05
9.79302e-05
-8.66001e-05
0.000156528
-0.000116736
0.000232073
-0.000150525
0.000326566
-0.000188303
0.000442113
-0.00023027
0.000581016
-0.000276816
0.000745713
-0.000328218
-0.000385098
-3.24049e-06
9.88699e-06
-5.444e-06
7.02153e-06
-3.33127e-06
-5.68159e-06
6.33604e-06
-2.80899e-05
2.55434e-05
-5.64214e-05
5.64062e-05
-9.1058e-05
0.000100664
-0.000130858
0.000160216
-0.000176287
0.000236926
-0.000227235
0.000332834
-0.000284211
0.000450085
-0.00034752
0.000591024
-0.000417756
0.000758145
-0.000495339
-0.000581207
-3.14103e-06
1.3028e-05
-5.09726e-06
8.97776e-06
-2.5893e-06
-8.18955e-06
7.62716e-06
-3.83063e-05
2.75575e-05
-7.63517e-05
5.9342e-05
-0.000122843
0.000104754
-0.00017627
0.00016573
-0.000237263
0.000244182
-0.000305687
0.0003422
-0.00038223
0.000461991
-0.000467311
0.000605967
-0.000561731
0.000776695
-0.000666068
-0.00078157
-3.0089e-06
1.60369e-05
-4.63653e-06
1.06054e-05
-1.60336e-06
-1.12227e-05
9.34268e-06
-4.92524e-05
3.02333e-05
-9.72423e-05
6.32414e-05
-0.000155851
0.000110184
-0.000223213
0.000173049
-0.000300129
0.000253809
-0.000386446
0.000354622
-0.000483044
0.000477773
-0.000590462
0.000625759
-0.000709717
0.000801247
-0.000841555
-0.000987539
-2.84451e-06
1.88814e-05
-4.06315e-06
1.1824e-05
-3.76023e-07
-1.49098e-05
1.14775e-05
-6.11059e-05
3.35625e-05
-0.000119327
6.80918e-05
-0.00019038
0.000116936
-0.000272057
0.000182146
-0.000365339
0.000265768
-0.000470068
0.000370043
-0.000587319
0.000497351
-0.00071777
0.00065029
-0.000862657
0.000831645
-0.00102291
-0.0012004
-2.64837e-06
2.15298e-05
-3.3788e-06
1.25544e-05
1.08827e-06
-1.93769e-05
1.40254e-05
-7.40431e-05
3.7535e-05
-0.000142837
7.38775e-05
-0.000226722
0.000124987
-0.000323167
0.000192987
-0.000433339
0.00028001
-0.00055709
0.000388394
-0.000695703
0.000520625
-0.000850001
0.000679423
-0.00102145
0.000867701
-0.00121119
-0.00142138
-2.42108e-06
2.39509e-05
-2.58544e-06
1.27188e-05
2.78604e-06
-2.47484e-05
1.69788e-05
-8.82358e-05
4.21387e-05
-0.000167997
8.05798e-05
-0.000265164
0.000134308
-0.000376895
0.000205531
-0.000504561
0.000296476
-0.000648035
0.00040959
-0.000808818
0.00054748
-0.000987892
0.000712994
-0.00118697
0.000909188
-0.00140738
-0.00165162
-2.16333e-06
2.61142e-05
-1.68533e-06
1.22408e-05
4.71239e-06
-3.11461e-05
2.03292e-05
-0.000103853
4.73594e-05
-0.000195027
8.81773e-05
-0.000305981
0.000144869
-0.000433587
0.000219731
-0.000579424
0.000315099
-0.000743403
0.000433538
-0.000927256
0.000577782
-0.00113214
0.000750816
-0.00136
0.000955848
-0.00161241
-0.00189214
-1.87588e-06
2.79901e-05
-6.81028e-07
1.1046e-05
6.86182e-06
-3.8689e-05
2.40669e-05
-0.000121058
5.31817e-05
-0.000224142
9.66455e-05
-0.000349445
0.000156631
-0.000493572
0.000235534
-0.000658327
0.000335804
-0.000843673
0.000460128
-0.00105158
0.000611379
-0.00128339
0.00079268
-0.0015413
0.00100739
-0.00182713
0.00125914
-0.00214389
-0.00249232
-1.55958e-06
2.95497e-05
4.24615e-07
9.06176e-06
9.22829e-06
-4.74926e-05
2.81812e-05
-0.000140011
5.95879e-05
-0.000255549
0.000105958
-0.000395815
0.000169556
-0.00055717
0.000252883
-0.000741654
0.000358506
-0.000949296
0.000489243
-0.00118232
0.000648104
-0.00144225
0.000838354
-0.00173155
0.0010635
-0.00205227
0.0013273
-0.00240769
-0.00279878
-1.2153e-06
3.0765e-05
1.62863e-06
6.21782e-06
1.18053e-05
-5.76693e-05
3.26603e-05
-0.000160866
6.65591e-05
-0.000289447
0.000116085
-0.000445341
0.000183599
-0.000624685
0.000271712
-0.000829767
0.000383114
-0.0010607
0.000520752
-0.00131995
0.000687775
-0.00160927
0.000887586
-0.00193136
0.00112383
-0.00228852
0.00140037
-0.00268423
-0.00311977
-8.43994e-07
3.1609e-05
2.92768e-06
2.44614e-06
1.45857e-05
-6.93273e-05
3.74917e-05
-0.000183772
7.40748e-05
-0.00032603
0.000126995
-0.00049826
0.000198714
-0.000696404
0.000291953
-0.000923006
0.000409528
-0.00117827
0.000554515
-0.00146494
0.000730198
-0.00178495
0.000940107
-0.00214127
0.00118801
-0.00253642
0.00147786
-0.00297408
-0.00345582
-4.46486e-07
3.20555e-05
4.31833e-06
-2.31868e-06
1.75621e-05
-8.2571e-05
4.2662e-05
-0.000208872
8.21131e-05
-0.000365482
0.000138653
-0.000554801
0.000214849
-0.0007726
0.000313533
-0.00102169
0.000437644
-0.00130238
0.000590384
-0.00161768
0.000775165
-0.00196973
0.000995628
-0.00236174
0.00125565
-0.00279645
0.00155923
-0.00327766
-0.00380728
-1.43248e-08
3.20698e-05
5.79696e-06
-8.12996e-06
2.07264e-05
-9.75005e-05
4.81569e-05
-0.000236302
9.06506e-05
-0.000407975
0.000151025
-0.000615176
0.000231952
-0.000853526
0.000336373
-0.00112611
0.000467348
-0.00143336
0.000628201
-0.00177854
0.000822454
-0.00216399
0.00105385
-0.00259313
0.00132634
-0.00306894
0.00164395
-0.00359527
-0.00417435
4.22317e-07
3.16475e-05
7.35944e-06
-1.50671e-05
2.40704e-05
-0.000114211
5.39615e-05
-0.000266193
9.96631e-05
-0.000453677
0.000164073
-0.000679585
0.000249964
-0.000939418
0.00036039
-0.00123654
0.000498524
-0.00157149
0.000667799
-0.00194781
0.000871837
-0.00236803
0.00111445
-0.00283575
0.00139965
-0.00335413
0.00173144
-0.00392706
-0.00455704
8.90305e-07
3.07572e-05
9.00207e-06
-2.31788e-05
2.75854e-05
-0.000132795
6.00602e-05
-0.000298668
0.000109125
-0.000502742
0.000177756
-0.000748217
0.000268829
-0.00103049
0.000385499
-0.00135321
0.000531049
-0.00171704
0.000709007
-0.00212577
0.000923075
-0.00258209
0.00117712
-0.00308979
0.00147515
-0.00365216
0.00182111
-0.00427302
-0.00495515
1.37998e-06
2.93772e-05
1.07207e-05
-3.25196e-05
3.12625e-05
-0.000153337
6.64368e-05
-0.000333842
0.00011901
-0.000555314
0.000192034
-0.000821241
0.000288484
-0.00112694
0.000411611
-0.00147633
0.000564795
-0.00187023
0.000751645
-0.00231262
0.00097592
-0.00280637
0.0012415
-0.00335537
0.00155238
-0.00396304
0.00191239
-0.00463303
-0.00536836
1.8899e-06
2.74873e-05
1.25111e-05
-4.31408e-05
3.50925e-05
-0.000175918
7.30747e-05
-0.000371824
0.00012929
-0.00061153
0.000206865
-0.000898816
0.000308865
-0.00122894
0.000438633
-0.0016061
0.000599631
-0.00203122
0.000795529
-0.00250852
0.00103012
-0.00304096
0.00130727
-0.00363252
0.00163089
-0.00428666
0.00200466
-0.0050068
-0.00579613
2.41878e-06
2.50685e-05
1.4369e-05
-5.50909e-05
3.90659e-05
-0.000200615
7.99569e-05
-0.000412715
0.000139937
-0.00067151
0.000222204
-0.000981082
0.000329908
-0.00133664
0.00046647
-0.00174267
0.000635421
-0.00220018
0.00084047
-0.00271356
0.00108541
-0.0032859
0.00137406
-0.00392117
0.00171021
-0.00462281
0.00209733
-0.00539391
-0.00623778
2.96536e-06
2.21031e-05
1.62899e-05
-6.84155e-05
4.31732e-05
-0.000227498
8.70657e-05
-0.000456608
0.000150924
-0.000735368
0.000238006
-0.00106817
0.000351545
-0.00145018
0.000495025
-0.00188615
0.000672027
-0.00237718
0.000886277
-0.00292781
0.00114154
-0.00354117
0.00144153
-0.00422117
0.00178989
-0.00497117
0.0021898
-0.00579383
-0.00669247
3.52841e-06
1.85747e-05
1.82696e-05
-8.31567e-05
4.74045e-05
-0.000256633
9.43835e-05
-0.000503587
0.000162219
-0.000803203
0.000254227
-0.00116017
0.000373708
-0.00156966
0.000524198
-0.00203664
0.000709308
-0.00256229
0.000932752
-0.00315126
0.00119823
-0.00380665
0.00150933
-0.00453226
0.00186946
-0.0053313
0.0022815
-0.00620587
-0.00715924
4.10668e-06
1.44681e-05
2.03036e-05
-9.93537e-05
5.17501e-05
-0.00028808
0.000101892
-0.000553729
0.000173793
-0.000875104
0.00027082
-0.0012572
0.000396327
-0.00169517
0.000553889
-0.0021942
0.000747122
-0.00275552
0.0009797
-0.00338384
0.00125522
-0.00408217
0.0015771
-0.00485414
0.00194846
-0.00570266
0.00237183
-0.00662924
0.00284956
-0.00763696
-0.00872143
4.69895e-06
9.76911e-06
2.23875e-05
-0.000117042
5.61999e-05
-0.000321892
0.000109573
-0.000607102
0.000185617
-0.000951147
0.000287736
-0.00135932
0.000419332
-0.00182677
0.000583994
-0.00235886
0.000785323
-0.00295685
0.00102692
-0.00362543
0.00131225
-0.0043675
0.00164448
-0.00518637
0.00202645
-0.00608463
0.00246025
-0.00706304
0.00294772
-0.00812443
-0.00926237
5.304e-06
4.4651e-06
2.45168e-05
-0.000136255
6.07441e-05
-0.000358119
0.000117409
-0.000663767
0.000197658
-0.0010314
0.000304929
-0.00146659
0.000442651
-0.00196449
0.00061441
-0.00253062
0.000823766
-0.0031662
0.00107421
-0.00387588
0.00136903
-0.00466232
0.00171114
-0.00552847
0.00210299
-0.00647648
0.00254622
-0.00750627
0.0030421
-0.00862032
-0.00981016
5.92065e-06
-1.45555e-06
2.6687e-05
-0.000157021
6.53724e-05
-0.000396805
0.000125379
-0.000723774
0.000209887
-0.0011159
0.00032235
-0.00157905
0.000466211
-0.00210835
0.000645034
-0.00270944
0.000862305
-0.00338348
0.00112138
-0.00413496
0.00142532
-0.00496626
0.00177673
-0.00587988
0.00217764
-0.0068774
0.00262922
-0.00795784
0.00313213
-0.00912323
-0.0103631
6.54771e-06
-8.00326e-06
2.88939e-05
-0.000179368
7.0075e-05
-0.000437986
0.000133467
-0.000787166
0.000222272
-0.00120471
0.00033995
-0.00169673
0.000489941
-0.00225834
0.00067576
-0.00289526
0.000900794
-0.00360851
0.00116822
-0.00440239
0.00148085
-0.00527888
0.00184091
-0.00623994
0.00225002
-0.0072865
0.00270877
-0.00841659
0.00321724
-0.00963171
-0.0109194
7.18403e-06
-1.51873e-05
3.11329e-05
-0.000203316
7.48417e-05
-0.000481695
0.000141653
-0.000853978
0.000234782
-0.00129784
0.00035768
-0.00181963
0.000513767
-0.00241443
0.000706484
-0.00308798
0.000939087
-0.00384111
0.00121455
-0.00467784
0.00153536
-0.0055997
0.00190338
-0.00660796
0.00231971
-0.00770283
0.00278442
-0.0088813
0.00329694
-0.0101442
-0.0114773
7.82849e-06
-2.30158e-05
3.33998e-05
-0.000228888
7.96626e-05
-0.000527957
0.000149919
-0.000924234
0.000247386
-0.0013953
0.000375492
-0.00194773
0.000537616
-0.00257655
0.0007371
-0.00328746
0.000977039
-0.00408105
0.00126015
-0.00496096
0.00158861
-0.00592815
0.00196381
-0.00698316
0.00238636
-0.00812538
0.00285575
-0.00935069
0.0033708
-0.0106593
-0.0120352
8.47999e-06
-3.14958e-05
3.56903e-05
-0.000256098
8.45277e-05
-0.000576795
0.000158245
-0.000997952
0.000260051
-0.00149711
0.000393336
-0.00208102
0.000561415
-0.00274463
0.000767505
-0.00349355
0.00101451
-0.00432805
0.00130486
-0.00525131
0.00164034
-0.00626364
0.00202191
-0.00736473
0.00244962
-0.00855308
0.00292238
-0.00982345
0.00343842
-0.0111753
-0.0125912
9.13744e-06
-4.06332e-05
3.80001e-05
-0.000284961
8.94271e-05
-0.000628222
0.000166614
-0.00107514
0.000272747
-0.00160324
0.000411163
-0.00221943
0.000585091
-0.00291856
0.000797595
-0.00370606
0.00105135
-0.00458181
0.00134847
-0.00554843
0.00169034
-0.0066055
0.00207741
-0.0077518
0.00250916
-0.00898484
0.00298397
-0.0102983
0.00349948
-0.0116908
0.00405205
-0.0131438
-0.0146801
9.79979e-06
-5.0433e-05
4.0325e-05
-0.000315486
9.43509e-05
-0.000682248
0.000175006
-0.00115579
0.000285443
-0.00171368
0.000428924
-0.00236292
0.000608571
-0.00309821
0.000827267
-0.00392475
0.00108743
-0.00484197
0.00139082
-0.00585182
0.00173837
-0.00695306
0.00213003
-0.00814346
0.00256471
-0.00941952
0.00304024
-0.0107738
0.0035537
-0.0122043
0.00410122
-0.0136913
-0.0152582
1.0466e-05
-6.0899e-05
4.26609e-05
-0.000347681
9.92892e-05
-0.000738876
0.000183402
-0.00123991
0.000298106
-0.00182839
0.000446569
-0.00251138
0.000631783
-0.00328342
0.00085642
-0.00414939
0.0011226
-0.00510815
0.00143172
-0.00616094
0.00178422
-0.00730556
0.00217953
-0.00853876
0.00261599
-0.00985598
0.00309091
-0.0112487
0.00360089
-0.0127143
0.00414186
-0.0142323
-0.0158263
1.11351e-05
-7.20342e-05
4.50035e-05
-0.000381549
0.000104232
-0.000798105
0.000191785
-0.00132746
0.000310706
-0.00194731
0.000464051
-0.00266472
0.000654656
-0.00347403
0.000884954
-0.00437969
0.00115675
-0.00537995
0.001471
-0.00647519
0.00182769
-0.00766225
0.00222568
-0.00893675
0.00266278
-0.0102931
0.00313578
-0.0117217
0.00364088
-0.0132194
0.0041739
-0.0147653
-0.0163832
1.18061e-05
-8.38403e-05
4.73489e-05
-0.000417092
0.000109171
-0.000859926
0.000200136
-0.00141842
0.000323211
-0.00207038
0.000481321
-0.00282283
0.000677118
-0.00366982
0.00091277
-0.00461534
0.00118973
-0.0056569
0.00150851
-0.00679398
0.0018686
-0.00802233
0.00226829
-0.00933645
0.00270487
-0.0107296
0.00317469
-0.0121915
0.00367359
-0.0137183
0.00419738
-0.0152891
-0.0169276
1.24781e-05
-9.63183e-05
4.9693e-05
-0.000454307
0.000114094
-0.000924328
0.000208436
-0.00151277
0.000335591
-0.00219754
0.00049833
-0.00298557
0.0006991
-0.0038706
0.000939772
-0.00485601
0.00122142
-0.00593855
0.0015441
-0.00711666
0.00190675
-0.00838499
0.00230717
-0.00973687
0.0027421
-0.0111646
0.00320752
-0.012657
0.00369897
-0.0142097
0.00421237
-0.0158025
-0.0174587
1.315e-05
-0.000109468
5.20318e-05
-0.000493189
0.000118993
-0.000991289
0.000216666
-0.00161044
0.000347814
-0.00232868
0.00051503
-0.00315279
0.000720533
-0.0040761
0.000965867
-0.00510134
0.0012517
-0.00622438
0.00157761
-0.00744257
0.00194201
-0.00874939
0.00234216
-0.010137
0.00277433
-0.0115967
0.00323417
-0.0131168
0.00371705
-0.0146926
0.00421902
-0.0163045
0.00473589
-0.0179756
-0.0196339
1.38209e-05
-0.000123289
5.43613e-05
-0.000533729
0.000123859
-0.00106079
0.00022481
-0.00171139
0.000359849
-0.00246372
0.000531376
-0.00332432
0.000741348
-0.00428607
0.000990965
-0.00535096
0.00128046
-0.00651388
0.00160892
-0.00777103
0.00197423
-0.00911469
0.00237312
-0.0105359
0.00280146
-0.0120251
0.00325463
-0.01357
0.00372787
-0.0151658
0.00421751
-0.0167941
0.00471952
-0.0184776
-0.0201497
1.449e-05
-0.000137779
5.66774e-05
-0.000575917
0.000128681
-0.00113279
0.000232847
-0.00181556
0.000371666
-0.00260254
0.000547319
-0.00349997
0.000761481
-0.00450023
0.00101498
-0.00560446
0.00130759
-0.00680649
0.0016379
-0.00810135
0.00200326
-0.00948005
0.00239995
-0.0109326
0.00282342
-0.0124485
0.00326888
-0.0140154
0.00373156
-0.0156285
0.00420807
-0.0172706
0.0046947
-0.0189642
-0.0206492
1.51563e-05
-0.000152936
5.89763e-05
-0.000619737
0.00013345
-0.00120726
0.00024076
-0.00192287
0.000383235
-0.00274502
0.000562814
-0.00367955
0.000780866
-0.00471828
0.00103782
-0.00586141
0.00133299
-0.00710166
0.00166444
-0.0084328
0.00202902
-0.00984463
0.00242255
-0.0113261
0.00284018
-0.0128662
0.00327698
-0.0144522
0.00372824
-0.0160798
0.00419099
-0.0177334
0.00466186
-0.0194351
-0.0211321
1.58219e-05
-0.000168757
6.12605e-05
-0.000665175
0.000138166
-0.00128417
0.000248544
-0.00203324
0.00039454
-0.00289101
0.00057783
-0.00386284
0.000799455
-0.00493991
0.00105942
-0.00612137
0.00135657
-0.00739881
0.00168844
-0.00876467
0.0020514
-0.0102076
0.00244086
-0.0117156
0.00285171
-0.013277
0.00327897
-0.0148795
0.00371809
-0.0165189
0.00416652
-0.0181818
0.00462137
-0.0198899
0.00508755
-0.0215982
-0.0234307
1.64801e-05
-0.000185238
6.35135e-05
-0.000712209
0.000142801
-0.00136346
0.000256156
-0.0021466
0.000405524
-0.00304038
0.000592295
-0.00404961
0.000817158
-0.00516477
0.00107968
-0.0063839
0.00137822
-0.00769735
0.0017098
-0.00909626
0.00207033
-0.0105681
0.00245485
-0.0121001
0.00285805
-0.0136802
0.00327499
-0.0152965
0.00370136
-0.0169453
0.00413505
-0.0186155
0.00457375
-0.0203286
0.00502314
-0.0220476
-0.0238817
1.71327e-05
-0.00020237
6.57373e-05
-0.000760813
0.000147354
-0.00144507
0.00026359
-0.00226284
0.00041617
-0.00319296
0.000606179
-0.00423962
0.000833931
-0.00539252
0.00109854
-0.00664851
0.00139787
-0.00799668
0.00172845
-0.00942684
0.00208574
-0.0109254
0.00246448
-0.0124788
0.00285924
-0.014075
0.00326517
-0.0157024
0.00367826
-0.0173584
0.00409691
-0.0190341
0.00451941
-0.0207511
0.00495196
-0.0224802
-0.0243165
1.77788e-05
-0.000220149
6.79279e-05
-0.000810962
0.000151816
-0.00152896
0.000270827
-0.00238185
0.000426449
-0.00334858
0.000619438
-0.00443261
0.000849717
-0.0056228
0.00111594
-0.00691473
0.00141545
-0.00829619
0.00174432
-0.00975571
0.0020976
-0.0112787
0.00246977
-0.012851
0.00285536
-0.0144606
0.00324967
-0.0160967
0.00364906
-0.0177577
0.00405244
-0.0194375
0.00445877
-0.0211574
0.00487458
-0.022896
-0.0247355
1.84175e-05
-0.000238567
7.00814e-05
-0.000862626
0.000156177
-0.00161506
0.000277851
-0.00250352
0.000436334
-0.00350707
0.000632034
-0.00462831
0.000864464
-0.00585523
0.0011318
-0.00718206
0.0014309
-0.00859529
0.00175736
-0.0100822
0.00210587
-0.0116272
0.00247075
-0.0132159
0.00284649
-0.0148363
0.00322866
-0.0164789
0.00361402
-0.0181431
0.00400202
-0.0198255
0.00439228
-0.0215477
0.00479152
-0.0232952
0.00519527
-0.0251393
-0.0270002
1.90478e-05
-0.000257614
7.21936e-05
-0.000915772
0.000160428
-0.00170329
0.000284644
-0.00262774
0.000445795
-0.00366822
0.000643924
-0.00482644
0.000878118
-0.00608943
0.00114607
-0.00745001
0.00144415
-0.00889337
0.00176752
-0.0104055
0.00211056
-0.0119702
0.00246745
-0.0135728
0.00283276
-0.0152016
0.00320235
-0.0168484
0.00357343
-0.0185142
0.003946
-0.0201981
0.00432034
-0.021922
0.00470327
-0.0236782
0.005092
-0.025528
-0.0274188
1.96687e-05
-0.000277283
7.42605e-05
-0.000970364
0.000164559
-0.00179359
0.000291187
-0.00275437
0.000454806
-0.00383184
0.000655072
-0.0050267
0.000890634
-0.00632499
0.00115869
-0.00771806
0.00145516
-0.00918984
0.00177478
-0.0107252
0.00211167
-0.0123071
0.00245994
-0.013921
0.0028143
-0.015556
0.00317094
-0.0172051
0.0035276
-0.0188708
0.00388476
-0.0205553
0.00424337
-0.0222806
0.00461028
-0.0240451
0.00498423
-0.025902
-0.02782
0.00538541
2.02792e-05
-0.000297562
7.6278e-05
-0.00102636
0.00016856
-0.00188587
0.000297465
-0.00288327
0.000463339
-0.00399771
0.000665439
-0.0052288
0.000901965
-0.00656151
0.00116963
-0.00798573
0.00146389
-0.00948409
0.00177912
-0.0110404
0.00210923
-0.0126372
0.00244829
-0.0142601
0.00279126
-0.015899
0.00313468
-0.0175485
0.00347681
-0.019213
0.00381865
-0.0208971
0.00416175
-0.0226237
0.00451295
-0.0243963
0.00487234
-0.0262614
-0.0282045
0.00525692
2.08783e-05
-0.000318441
7.8242e-05
-0.00108373
0.000172423
-0.00198005
0.000303459
-0.00301431
0.000471368
-0.00416562
0.000674992
-0.00543243
0.00091207
-0.00679859
0.00117884
-0.0082525
0.0014703
-0.00977556
0.00178053
-0.0113506
0.00210326
-0.01296
0.00243262
-0.0145895
0.0027638
-0.0162301
0.00309379
-0.0178785
0.00342136
-0.0195405
0.00374802
-0.0212238
0.00407585
-0.0229516
0.00441166
-0.0247321
0.00475667
-0.0266064
-0.0285731
0.00512527
2.1465e-05
-0.000339906
8.01482e-05
-0.00114241
0.000176137
-0.00207604
0.000309153
-0.00314732
0.000478868
-0.00433533
0.000683696
-0.00563725
0.000920912
-0.00703581
0.00118628
-0.00851786
0.00147439
-0.0100637
0.00177902
-0.0116553
0.00209382
-0.0132748
0.00241301
-0.0149087
0.0027321
-0.0165492
0.00304851
-0.0181949
0.00336156
-0.0198536
0.0036732
-0.0215354
0.00398604
-0.0232644
0.00430677
-0.0250528
0.00463756
-0.0269372
-0.0289262
0.00499064
2.20381e-05
-0.000361944
8.19924e-05
-0.00120236
0.000179693
-0.00217374
0.00031453
-0.00328216
0.000485815
-0.00450662
0.00069152
-0.00584296
0.000928455
-0.00727274
0.00119192
-0.00878132
0.00147613
-0.0103479
0.00177462
-0.0119537
0.00208098
-0.0135811
0.0023896
-0.0152173
0.00269634
-0.016856
0.00299909
-0.0184977
0.00329769
-0.0201522
0.00359452
-0.0218322
0.00389262
-0.0235625
0.00419857
-0.0253588
0.0045153
-0.0272539
-0.0292641
0.00485322
2.25966e-05
-0.00038454
8.37704e-05
-0.00126354
0.000183082
-0.00227305
0.000319575
-0.00341865
0.000492185
-0.00467923
0.000698435
-0.00604921
0.00093467
-0.00750898
0.00119574
-0.0090424
0.00147552
-0.0106277
0.00176734
-0.0122456
0.0020648
-0.0138786
0.00236251
-0.015515
0.0026567
-0.0171502
0.00294577
-0.0187867
0.00323004
-0.0204365
0.00351228
-0.0221145
0.00379592
-0.0238462
0.00408738
-0.0256502
0.00439016
-0.0275567
-0.0295872
0.00471319
2.31393e-05
-0.000407679
8.5478e-05
-0.00132588
0.000186294
-0.00237387
0.000324271
-0.00355663
0.000497956
-0.00485292
0.000704414
-0.00625567
0.000939531
-0.00774409
0.00119773
-0.00930059
0.00147257
-0.0109025
0.00175723
-0.0125302
0.00204538
-0.0141667
0.00233188
-0.0158015
0.0026134
-0.0174317
0.00288879
-0.0190621
0.00315889
-0.0207066
0.00342678
-0.0223824
0.00369623
-0.0241156
0.00397345
-0.0259274
0.00426238
-0.0278456
-0.0298955
0.00457071
2.36651e-05
-0.000431345
8.71108e-05
-0.00138932
0.00018932
-0.00247608
0.000328603
-0.00369591
0.000503106
-0.00502742
0.000709433
-0.00646199
0.000943013
-0.00797768
0.00119787
-0.00955545
0.00146728
-0.0111719
0.00174433
-0.0128073
0.0020228
-0.0144452
0.00229787
-0.0160766
0.00256662
-0.0177004
0.00282839
-0.0193239
0.0030845
-0.0209627
0.0033383
-0.0226362
0.0035938
-0.0243711
0.00385703
-0.0261907
0.00413218
-0.0281208
-0.0301893
0.00442595
2.41729e-05
-0.000455517
8.86646e-05
-0.00145381
0.000192151
-0.00257957
0.000332556
-0.00383632
0.000507615
-0.00520248
0.000713468
-0.00666785
0.0009451
-0.00820931
0.00119615
-0.0098065
0.00145967
-0.0114354
0.0017287
-0.0130763
0.00199718
-0.0147137
0.00226061
-0.01634
0.00251655
-0.0179564
0.00276482
-0.0195721
0.00300712
-0.021205
0.00324709
-0.0228761
0.00348889
-0.0246129
0.00373834
-0.0264401
0.00399978
-0.0283822
-0.0304685
0.00427906
2.46614e-05
-0.000480179
9.01351e-05
-0.00151929
0.000194779
-0.00268421
0.000336115
-0.00397765
0.000511465
-0.00537783
0.000716501
-0.00687288
0.000945777
-0.00843858
0.00119259
-0.0100533
0.00144978
-0.0116926
0.00171041
-0.0133369
0.00196861
-0.0149719
0.00222027
-0.0165917
0.00246341
-0.0181995
0.00269829
-0.019807
0.00292701
-0.0214337
0.0031534
-0.0231025
0.00338173
-0.0248412
0.00361759
-0.026676
0.00386537
-0.02863
-0.0307334
0.00413019
2.51294e-05
-0.000505308
9.1518e-05
-0.00158568
0.000197193
-0.00278988
0.000339269
-0.00411973
0.000514638
-0.0055532
0.000718513
-0.00707676
0.000945034
-0.00866511
0.00118717
-0.0102954
0.00143764
-0.0119431
0.00168952
-0.0135888
0.00193721
-0.0152196
0.002177
-0.0168314
0.00240737
-0.0184299
0.00262902
-0.0200287
0.00284439
-0.0216491
0.00305744
-0.0233156
0.00327253
-0.0250563
0.00349496
-0.0268984
0.0037291
-0.0288641
-0.0309837
0.00397947
2.55756e-05
-0.000530884
9.28091e-05
-0.00165291
0.000199386
-0.00289646
0.000342002
-0.00426234
0.000517118
-0.00572831
0.000719491
-0.00727913
0.000942865
-0.00888848
0.00117993
-0.0105325
0.00142328
-0.0121864
0.00166611
-0.0138317
0.00190311
-0.0154566
0.00213097
-0.0170593
0.00234864
-0.0186475
0.00255723
-0.0202373
0.00275948
-0.0218513
0.00295945
-0.0235156
0.00316149
-0.0252584
0.00337064
-0.0271075
0.00359116
-0.0290846
-0.0312196
0.00382703
2.5999e-05
-0.000556883
9.40042e-05
-0.00172091
0.00020135
-0.00300381
0.000344303
-0.0044053
0.000518891
-0.0059029
0.000719423
-0.00747966
0.000939268
-0.00910832
0.00117086
-0.0107641
0.00140675
-0.0124223
0.00164027
-0.0140652
0.00186642
-0.0156827
0.00208233
-0.0172752
0.0022874
-0.0188526
0.00248312
-0.020433
0.00267248
-0.0220407
0.00285961
-0.0237027
0.00304879
-0.0254476
0.00324478
-0.0273035
0.00345167
-0.0292915
-0.0314409
0.00367301
2.63981e-05
-0.000583281
9.50992e-05
-0.00178962
0.000203076
-0.00311178
0.00034616
-0.00454838
0.000519945
-0.00607669
0.0007183
-0.00767802
0.000934246
-0.00932427
0.00116001
-0.0109899
0.00138812
-0.0126504
0.00161209
-0.0142891
0.00182727
-0.0158979
0.00203124
-0.0174792
0.00222384
-0.0190452
0.00240689
-0.020616
0.0025836
-0.0222174
0.0027581
-0.0238772
0.0029346
-0.0256241
0.00311754
-0.0274865
0.0033108
-0.0294848
-0.0316477
0.00351754
2.67717e-05
-0.000610053
9.60899e-05
-0.00185893
0.000204556
-0.00322025
0.000347563
-0.00469139
0.000520267
-0.00624939
0.000716116
-0.00787387
0.000927806
-0.00953596
0.00114739
-0.0112095
0.00136742
-0.0128705
0.00158164
-0.0145034
0.00178579
-0.0161021
0.00197786
-0.0176713
0.00215812
-0.0192255
0.00232872
-0.0207866
0.00249301
-0.0223817
0.00265511
-0.0240393
0.00281908
-0.025788
0.00298906
-0.0276564
0.00316867
-0.0296644
-0.0318397
0.00336073
2.71187e-05
-0.000637171
9.69723e-05
-0.00192879
0.000205784
-0.00332906
0.000348501
-0.0048341
0.00051985
-0.00642074
0.000712868
-0.00806688
0.000919957
-0.00974305
0.00113304
-0.0114225
0.00134473
-0.0130822
0.00154904
-0.0147077
0.0017421
-0.0162951
0.00192234
-0.0178515
0.00209043
-0.0193936
0.00224878
-0.020945
0.00240089
-0.0225338
0.00255078
-0.0241892
0.00270237
-0.0259396
0.00285947
-0.0278135
0.00302541
-0.0298304
-0.032017
0.00320271
2.74376e-05
-0.000664609
9.77427e-05
-0.00199909
0.000206752
-0.00343807
0.000348966
-0.00497632
0.000518685
-0.00659046
0.000708554
-0.00825675
0.000910713
-0.00994521
0.00111699
-0.0116288
0.00132011
-0.0132853
0.00151438
-0.0149019
0.00169632
-0.0164771
0.00186483
-0.01802
0.00202092
-0.0195497
0.00216725
-0.0210913
0.00230739
-0.0226739
0.00244527
-0.0243271
0.00258461
-0.026079
0.0027289
-0.0279578
0.00288116
-0.0299826
-0.0321795
0.00304362
2.77273e-05
-0.000692336
9.83971e-05
-0.00206976
0.000207454
-0.00354713
0.00034895
-0.00511781
0.000516766
-0.00675827
0.000703178
-0.00844317
0.000900093
-0.0101421
0.00109928
-0.011828
0.00129363
-0.0134796
0.00147776
-0.0150861
0.0016486
-0.0166479
0.00180547
-0.0181769
0.00194975
-0.0196939
0.00208428
-0.0212259
0.00221266
-0.0228023
0.00233872
-0.0244531
0.00246593
-0.0262062
0.00259747
-0.0280894
0.00273602
-0.0301212
-0.032327
0.00288356
2.79866e-05
-0.000720323
9.89321e-05
-0.00214071
0.000207884
-0.00365608
0.000348446
-0.00525838
0.00051409
-0.00692392
0.000696745
-0.00862582
0.000888117
-0.0103335
0.00107997
-0.0120198
0.00126537
-0.013665
0.00143927
-0.01526
0.00159904
-0.0168077
0.00174442
-0.0183222
0.00187707
-0.0198266
0.00200002
-0.0213488
0.00211686
-0.0229191
0.00223126
-0.0245675
0.00234646
-0.0263214
0.00246529
-0.0282082
0.00259013
-0.030246
-0.0324596
0.00272268
2.82142e-05
-0.000748537
9.9344e-05
-0.00221184
0.000208035
-0.00376477
0.000347448
-0.00539779
0.000510655
-0.00708712
0.000689261
-0.00880443
0.000874809
-0.010519
0.00105909
-0.0122041
0.00123538
-0.0138413
0.00139902
-0.0154236
0.00154778
-0.0169564
0.0016818
-0.0184563
0.00180302
-0.0199478
0.0019146
-0.0214604
0.0020201
-0.0230246
0.002123
-0.0246704
0.00222629
-0.0264247
0.00233248
-0.0283144
0.00244359
-0.0303571
-0.0325771
0.0025611
2.84089e-05
-0.000776946
9.96295e-05
-0.00228306
0.000207904
-0.00387304
0.000345951
-0.00553584
0.00050646
-0.00724763
0.000680737
-0.0089787
0.000860198
-0.0106985
0.00103669
-0.0123806
0.00120376
-0.0140084
0.0013571
-0.0155769
0.00149494
-0.0170943
0.00161774
-0.0185791
0.00172775
-0.0200578
0.00182817
-0.0215608
0.0019225
-0.023119
0.00201406
-0.024762
0.00210555
-0.0265162
0.00219915
-0.028408
0.00229654
-0.0304545
-0.0326795
0.00239894
2.85696e-05
-0.000805515
9.97856e-05
-0.00235427
0.000207484
-0.00398074
0.000343952
-0.0056723
0.000501506
-0.00740519
0.000671186
-0.00914838
0.000844314
-0.0108716
0.00101284
-0.0125491
0.00117058
-0.0141661
0.00131363
-0.01572
0.00144062
-0.0172213
0.00155239
-0.0186908
0.00165136
-0.0201568
0.00174083
-0.0216503
0.0018242
-0.0232023
0.00190455
-0.0248423
0.00198433
-0.0265959
0.0020654
-0.0284891
0.00214907
-0.0305382
-0.0327668
0.00223636
2.86952e-05
-0.000834211
9.98093e-05
-0.00242539
0.000206773
-0.00408771
0.000341447
-0.00580698
0.000495798
-0.00755954
0.000660623
-0.00931321
0.000827188
-0.0110382
0.000987576
-0.0127095
0.00113592
-0.0143145
0.00126869
-0.0158528
0.00138495
-0.0173375
0.00148585
-0.0187917
0.001574
-0.0202449
0.00165271
-0.021729
0.00172528
-0.0232749
0.00179457
-0.0249116
0.00186274
-0.0266641
0.00193134
-0.0285577
0.00200131
-0.0306081
-0.0328389
0.00207347
2.87845e-05
-0.000862995
9.96978e-05
-0.0024963
0.000205766
-0.00419378
0.000338435
-0.00593965
0.000489339
-0.00771044
0.000649066
-0.00947294
0.000808858
-0.011198
0.000960966
-0.0128616
0.00109985
-0.0144534
0.00122239
-0.0159753
0.00132804
-0.0174432
0.00141824
-0.0188819
0.00149577
-0.0203225
0.00156392
-0.0217971
0.00162586
-0.0233368
0.00168422
-0.02497
0.00174086
-0.0267207
0.00179705
-0.0286139
0.00185337
-0.0306645
-0.032896
0.00191041
2.88366e-05
-0.000891832
9.94488e-05
-0.00256691
0.000204462
-0.00429879
0.000334917
-0.0060701
0.000482138
-0.00785766
0.000636533
-0.00962733
0.000789359
-0.0113508
0.000933066
-0.0130053
0.00106246
-0.0145828
0.00117483
-0.0160877
0.00127
-0.0175383
0.00134968
-0.0189616
0.00141678
-0.0203896
0.00147456
-0.0218549
0.00152603
-0.0233883
0.00157358
-0.0250175
0.0016188
-0.026766
0.00166265
-0.0286577
0.00170537
-0.0307072
-0.0329379
0.00174732
2.88505e-05
-0.000920682
9.90598e-05
-0.00263712
0.000202856
-0.00440258
0.000330892
-0.00619814
0.000474202
-0.00800097
0.000623048
-0.00977618
0.000768732
-0.0114965
0.000903935
-0.0131405
0.00102382
-0.0147026
0.00112609
-0.01619
0.00121092
-0.0176232
0.00128027
-0.019031
0.00133713
-0.0204464
0.00138472
-0.0219025
0.00142587
-0.0234295
0.00146273
-0.0250544
0.00149663
-0.0267999
0.00152821
-0.0286893
0.00155741
-0.0307364
-0.0329649
0.00158434
2.88252e-05
-0.000949508
9.8529e-05
-0.00270683
0.000200949
-0.004505
0.000326363
-0.00632355
0.000465541
-0.00814015
0.000608632
-0.00991927
0.000747017
-0.0116349
0.000873633
-0.0132672
0.000984015
-0.014813
0.00107627
-0.0162822
0.00115091
-0.0176978
0.00121011
-0.0190902
0.00125693
-0.0204932
0.00129449
-0.0219401
0.00132548
-0.0234604
0.00135178
-0.0250807
0.00137444
-0.0268225
0.00139385
-0.0287087
0.0014096
-0.0307521
-0.0329769
0.0014216
2.87598e-05
-0.000978267
9.78547e-05
-0.00277592