/*--------------------------------*- C++ -*----------------------------------*\
  =========                 |
  \\      /  F ield         | OpenFOAM: The Open Source CFD Toolbox
   \\    /   O peration     | Website:  https://openfoam.org
    \\  /    A nd           | Version:  7
     \\/     M anipulation  |
\*---------------------------------------------------------------------------*/
FoamFile
{
    version     2.0;
    format      ascii;
    class       volScalarField;
    location    "15";
    object      p;
}
// * * * * * * * * * * * * * * * * * * * * * * * * * * * * * * * * * * * * * //

dimensions      [0 2 -2 0 0 0 0];

internalField   nonuniform List<scalar> 
42000
(
-0.388344
-0.391643
-0.389792
-0.386971
-0.382267
-0.376406
-0.369498
-0.361785
-0.353426
-0.344569
-0.335346
-0.325873
-0.316259
-0.306603
-0.297
-0.287532
-0.2783
-0.269282
-0.260874
-0.252074
-0.388622
-0.391863
-0.389991
-0.387141
-0.382417
-0.376538
-0.369614
-0.361888
-0.353516
-0.344649
-0.335416
-0.325934
-0.31631
-0.306644
-0.297031
-0.287554
-0.278312
-0.269281
-0.260886
-0.251976
-0.389177
-0.392303
-0.390387
-0.387481
-0.382716
-0.3768
-0.369846
-0.362093
-0.353697
-0.344809
-0.335556
-0.326054
-0.316411
-0.306727
-0.297094
-0.287597
-0.278336
-0.269278
-0.260912
-0.251781
-0.390008
-0.392962
-0.39098
-0.38799
-0.383164
-0.377193
-0.370193
-0.362399
-0.353968
-0.345048
-0.335765
-0.326234
-0.316563
-0.30685
-0.297188
-0.287661
-0.278372
-0.269273
-0.260949
-0.251488
-0.391112
-0.393839
-0.391769
-0.388667
-0.38376
-0.377716
-0.370654
-0.362807
-0.354328
-0.345365
-0.336042
-0.326474
-0.316765
-0.307013
-0.297313
-0.287745
-0.278419
-0.269267
-0.260999
-0.251096
-0.392488
-0.394931
-0.392752
-0.38951
-0.384502
-0.378366
-0.371229
-0.363314
-0.354777
-0.34576
-0.336387
-0.326771
-0.317015
-0.307217
-0.297468
-0.28785
-0.278477
-0.269258
-0.261061
-0.250608
-0.394133
-0.396236
-0.393927
-0.390517
-0.385389
-0.379144
-0.371914
-0.36392
-0.355312
-0.346231
-0.336799
-0.327127
-0.317315
-0.30746
-0.297653
-0.287976
-0.278547
-0.269247
-0.261135
-0.250023
-0.396043
-0.397752
-0.395292
-0.391687
-0.386419
-0.380046
-0.37271
-0.364622
-0.355933
-0.346778
-0.337277
-0.327539
-0.317662
-0.307742
-0.297867
-0.288121
-0.278627
-0.269233
-0.261221
-0.249341
-0.398213
-0.399475
-0.396843
-0.393017
-0.387589
-0.381071
-0.373615
-0.365421
-0.356638
-0.347399
-0.33782
-0.328007
-0.318057
-0.308062
-0.298112
-0.288287
-0.278719
-0.269216
-0.26132
-0.248563
-0.40064
-0.401403
-0.398577
-0.394503
-0.388897
-0.382217
-0.374625
-0.366313
-0.357425
-0.348092
-0.338427
-0.32853
-0.318498
-0.30842
-0.298384
-0.288471
-0.278821
-0.269196
-0.261429
-0.24769
-0.403319
-0.40353
-0.400491
-0.396144
-0.39034
-0.383481
-0.37574
-0.367296
-0.358294
-0.348857
-0.339095
-0.329107
-0.318984
-0.308815
-0.298686
-0.288675
-0.278934
-0.269172
-0.26155
-0.246723
-0.406244
-0.405852
-0.40258
-0.397934
-0.391915
-0.384861
-0.376955
-0.368369
-0.359241
-0.349691
-0.339824
-0.329736
-0.319515
-0.309246
-0.299015
-0.288897
-0.279057
-0.269144
-0.261682
-0.245663
-0.409408
-0.408366
-0.404841
-0.399872
-0.393619
-0.386352
-0.37827
-0.369528
-0.360264
-0.350592
-0.340612
-0.330417
-0.320089
-0.309713
-0.299371
-0.289138
-0.27919
-0.269112
-0.261824
-0.24451
-0.412806
-0.411064
-0.407269
-0.401952
-0.395448
-0.387953
-0.37968
-0.370772
-0.361362
-0.351558
-0.341458
-0.331147
-0.320706
-0.310214
-0.299754
-0.289397
-0.279333
-0.269075
-0.261976
-0.243266
-0.416431
-0.413942
-0.409859
-0.40417
-0.397398
-0.389659
-0.381182
-0.372097
-0.362532
-0.352588
-0.342359
-0.331925
-0.321363
-0.31075
-0.300164
-0.289675
-0.279486
-0.269033
-0.262136
-0.241932
-0.420275
-0.416995
-0.412604
-0.406521
-0.399465
-0.391467
-0.382775
-0.373501
-0.36377
-0.353679
-0.343313
-0.332749
-0.322061
-0.311319
-0.3006
-0.289969
-0.279649
-0.268987
-0.262305
-0.240509
-0.42433
-0.420216
-0.415501
-0.409002
-0.401644
-0.393374
-0.384453
-0.37498
-0.365076
-0.354828
-0.344319
-0.333619
-0.322797
-0.31192
-0.301061
-0.290282
-0.279821
-0.268935
-0.26248
-0.238998
-0.428589
-0.423599
-0.418543
-0.411607
-0.403932
-0.395374
-0.386214
-0.376532
-0.366445
-0.356034
-0.345374
-0.334533
-0.323571
-0.312553
-0.301548
-0.290612
-0.280004
-0.268877
-0.262662
-0.237401
-0.433042
-0.427137
-0.421724
-0.41433
-0.406324
-0.397465
-0.388054
-0.378153
-0.367875
-0.357293
-0.346477
-0.335488
-0.324382
-0.313216
-0.302059
-0.29096
-0.280198
-0.268814
-0.262848
-0.235719
-0.437683
-0.430824
-0.425038
-0.417166
-0.408815
-0.399642
-0.389969
-0.37984
-0.369363
-0.358604
-0.347626
-0.336483
-0.325228
-0.313911
-0.302596
-0.291326
-0.280401
-0.268747
-0.263038
-0.233953
-0.4425
-0.434651
-0.428479
-0.42011
-0.4114
-0.401901
-0.391956
-0.38159
-0.370907
-0.359964
-0.348818
-0.337517
-0.326108
-0.314634
-0.303157
-0.29171
-0.280616
-0.268674
-0.263229
-0.232104
-0.447486
-0.438611
-0.432038
-0.423156
-0.414073
-0.404236
-0.39401
-0.383399
-0.372503
-0.36137
-0.350052
-0.338589
-0.327021
-0.315388
-0.303743
-0.292113
-0.280843
-0.268597
-0.26342
-0.230173
-0.45263
-0.442697
-0.435711
-0.426298
-0.416831
-0.406645
-0.396128
-0.385264
-0.374148
-0.36282
-0.351324
-0.339695
-0.327966
-0.316169
-0.304354
-0.292536
-0.281083
-0.268517
-0.263609
-0.228161
-0.457923
-0.446901
-0.439489
-0.429529
-0.419666
-0.409121
-0.398305
-0.387181
-0.375839
-0.364311
-0.352634
-0.340835
-0.328941
-0.316979
-0.30499
-0.292979
-0.281336
-0.268434
-0.263794
-0.226069
-0.463354
-0.451214
-0.443365
-0.432844
-0.422575
-0.411661
-0.400537
-0.389147
-0.377573
-0.36584
-0.353978
-0.342007
-0.329947
-0.317817
-0.305651
-0.293444
-0.281604
-0.268352
-0.263972
-0.223897
-0.468914
-0.455629
-0.447332
-0.436237
-0.425551
-0.414259
-0.40282
-0.391157
-0.379347
-0.367405
-0.355355
-0.343209
-0.330981
-0.318681
-0.306338
-0.293931
-0.28189
-0.268272
-0.264141
-0.221646
-0.474591
-0.460137
-0.451383
-0.4397
-0.428589
-0.416911
-0.405151
-0.393208
-0.381157
-0.369003
-0.356761
-0.344439
-0.332042
-0.319573
-0.307052
-0.294444
-0.282194
-0.268198
-0.264299
-0.219318
-0.480374
-0.464729
-0.455508
-0.443227
-0.431682
-0.419611
-0.407523
-0.395297
-0.383001
-0.370631
-0.358196
-0.345696
-0.333129
-0.320491
-0.307793
-0.294984
-0.282521
-0.268136
-0.264442
-0.216915
-0.486254
-0.469396
-0.459701
-0.446811
-0.434826
-0.422354
-0.409934
-0.39742
-0.384874
-0.372285
-0.359655
-0.346977
-0.334241
-0.321436
-0.308561
-0.295553
-0.282873
-0.268092
-0.264568
-0.214442
-0.492219
-0.474129
-0.463954
-0.450446
-0.438014
-0.425136
-0.412378
-0.399572
-0.386774
-0.373964
-0.361137
-0.348279
-0.335375
-0.322405
-0.309359
-0.296156
-0.283255
-0.268076
-0.264671
-0.211906
-0.498256
-0.47892
-0.468258
-0.454125
-0.441239
-0.427951
-0.414852
-0.401749
-0.388696
-0.375663
-0.362638
-0.349602
-0.336531
-0.3234
-0.310186
-0.296795
-0.283673
-0.268101
-0.26475
-0.20932
-0.504356
-0.483757
-0.472604
-0.45784
-0.444497
-0.430794
-0.417349
-0.403947
-0.390637
-0.377379
-0.364156
-0.350941
-0.337707
-0.324418
-0.311045
-0.297475
-0.284133
-0.268186
-0.264799
-0.206707
-0.510505
-0.488633
-0.476984
-0.461584
-0.44778
-0.433659
-0.419866
-0.406163
-0.392593
-0.379109
-0.365687
-0.352295
-0.338899
-0.325459
-0.311935
-0.298202
-0.284645
-0.268353
-0.264812
-0.204103
-0.516691
-0.493536
-0.481391
-0.465349
-0.451083
-0.436541
-0.422398
-0.408391
-0.394561
-0.380849
-0.367227
-0.353659
-0.340105
-0.326521
-0.312857
-0.298979
-0.285221
-0.268636
-0.264784
-0.201577
-0.522902
-0.498458
-0.485813
-0.469129
-0.454398
-0.439433
-0.424938
-0.410627
-0.396534
-0.382594
-0.368773
-0.355029
-0.341321
-0.327601
-0.313812
-0.299813
-0.285872
-0.269077
-0.264717
-0.199268
-0.529124
-0.503387
-0.490243
-0.472915
-0.457718
-0.442331
-0.427483
-0.412866
-0.39851
-0.384341
-0.37032
-0.356403
-0.342544
-0.328696
-0.314797
-0.300708
-0.286615
-0.269733
-0.264631
-0.197425
-0.535345
-0.508314
-0.494671
-0.4767
-0.461038
-0.445227
-0.430026
-0.415103
-0.400482
-0.386084
-0.371863
-0.357773
-0.343768
-0.3298
-0.31581
-0.301666
-0.287468
-0.270671
-0.264497
-0.196227
-0.541554
-0.513232
-0.499093
-0.480479
-0.464353
-0.448119
-0.432566
-0.417335
-0.40245
-0.38782
-0.3734
-0.359137
-0.344988
-0.33091
-0.316847
-0.302688
-0.288458
-0.27198
-0.26415
-0.195563
-0.547738
-0.518133
-0.5035
-0.484247
-0.467659
-0.451004
-0.435098
-0.41956
-0.404408
-0.389547
-0.374925
-0.360489
-0.346199
-0.332016
-0.317899
-0.30377
-0.289624
-0.273798
-0.263729
-0.197073
-0.55385
-0.522973
-0.507851
-0.487964
-0.470918
-0.453845
-0.43759
-0.421747
-0.406331
-0.391238
-0.376415
-0.361808
-0.347378
-0.333097
-0.318942
-0.304885
-0.290959
-0.276215
-0.264905
-0.211827
-0.559796
-0.527656
-0.51205
-0.491539
-0.474047
-0.456567
-0.439972
-0.423834
-0.408161
-0.392843
-0.377824
-0.36305
-0.348485
-0.334111
-0.319929
-0.30597
-0.292341
-0.278912
-0.269014
-0.258488
-0.565783
-0.532393
-0.516309
-0.495177
-0.477236
-0.459347
-0.442407
-0.425965
-0.410027
-0.394476
-0.379252
-0.364301
-0.349592
-0.335117
-0.320898
-0.307022
-0.293648
-0.281358
-0.270806
-0.277529
-0.571729
-0.537096
-0.520539
-0.498792
-0.480407
-0.462109
-0.444825
-0.428079
-0.411874
-0.396085
-0.380651
-0.365517
-0.350657
-0.336071
-0.321799
-0.307972
-0.294749
-0.283244
-0.270961
-0.284708
-0.577585
-0.541717
-0.524694
-0.50234
-0.483518
-0.464817
-0.447192
-0.430143
-0.41367
-0.397643
-0.381995
-0.366673
-0.351653
-0.336944
-0.322599
-0.308779
-0.295605
-0.284592
-0.27082
-0.288287
-0.583337
-0.546245
-0.528765
-0.505814
-0.486561
-0.467464
-0.449501
-0.432152
-0.415411
-0.399142
-0.383276
-0.36776
-0.352571
-0.337725
-0.323283
-0.309424
-0.296213
-0.285456
-0.270539
-0.289807
-0.588972
-0.550672
-0.532744
-0.509208
-0.489533
-0.470045
-0.451749
-0.4341
-0.41709
-0.400576
-0.384488
-0.368769
-0.3534
-0.338401
-0.323834
-0.30989
-0.296573
-0.285868
-0.270004
-0.289722
-0.594477
-0.554987
-0.536622
-0.512511
-0.492423
-0.472551
-0.453925
-0.435979
-0.418699
-0.401937
-0.38562
-0.36969
-0.354129
-0.338958
-0.32424
-0.310167
-0.296683
-0.285867
-0.269198
-0.288471
-0.599835
-0.559176
-0.540385
-0.515714
-0.495222
-0.474974
-0.456023
-0.43778
-0.42023
-0.403216
-0.386663
-0.370513
-0.354747
-0.339385
-0.324489
-0.310244
-0.296542
-0.28549
-0.26814
-0.286399
-0.605031
-0.563227
-0.544023
-0.518805
-0.49792
-0.477303
-0.458031
-0.439494
-0.421671
-0.404401
-0.387606
-0.371226
-0.355241
-0.33967
-0.324569
-0.310116
-0.296154
-0.284772
-0.266846
-0.283729
-0.610049
-0.567126
-0.547522
-0.521774
-0.500506
-0.479528
-0.459941
-0.441111
-0.423015
-0.405485
-0.38844
-0.371819
-0.355601
-0.339803
-0.324473
-0.309777
-0.295521
-0.283742
-0.265329
-0.28061
-0.614873
-0.57086
-0.55087
-0.524609
-0.50297
-0.481641
-0.461743
-0.442621
-0.424249
-0.406455
-0.389153
-0.372281
-0.355816
-0.339772
-0.324191
-0.309224
-0.294648
-0.282425
-0.2636
-0.277144
-0.619488
-0.574415
-0.554056
-0.527298
-0.5053
-0.483629
-0.463425
-0.444014
-0.425365
-0.407301
-0.389734
-0.372601
-0.355875
-0.339569
-0.323716
-0.308453
-0.293537
-0.28084
-0.261667
-0.273406
-0.623876
-0.577778
-0.557064
-0.529829
-0.507486
-0.485481
-0.464977
-0.445278
-0.426351
-0.408012
-0.390173
-0.372767
-0.355768
-0.339184
-0.323041
-0.307462
-0.292192
-0.279004
-0.25954
-0.269448
-0.628021
-0.580933
-0.559882
-0.53219
-0.509515
-0.487187
-0.466388
-0.446403
-0.427195
-0.408576
-0.390457
-0.372769
-0.355484
-0.338607
-0.322158
-0.306248
-0.290616
-0.276931
-0.257224
-0.265308
-0.631907
-0.583866
-0.562497
-0.534369
-0.511375
-0.488734
-0.467646
-0.447376
-0.427886
-0.408982
-0.390575
-0.372595
-0.355012
-0.33783
-0.321063
-0.30481
-0.288811
-0.27463
-0.254723
-0.261014
-0.635515
-0.586563
-0.564894
-0.536351
-0.513053
-0.49011
-0.468739
-0.448186
-0.428411
-0.409218
-0.390515
-0.372234
-0.354343
-0.336844
-0.319748
-0.303144
-0.286778
-0.27211
-0.252041
-0.256585
-0.638829
-0.589009
-0.567059
-0.538124
-0.514537
-0.491303
-0.469654
-0.44882
-0.428759
-0.409271
-0.390266
-0.371674
-0.353466
-0.33564
-0.318208
-0.301248
-0.284518
-0.269375
-0.249178
-0.252034
-0.641832
-0.591187
-0.568977
-0.539674
-0.515813
-0.492299
-0.470379
-0.449265
-0.428916
-0.40913
-0.389815
-0.370906
-0.352371
-0.334212
-0.316437
-0.299119
-0.282031
-0.266431
-0.246135
-0.247369
-0.644504
-0.593083
-0.570634
-0.540987
-0.516869
-0.493086
-0.4709
-0.449509
-0.42887
-0.40878
-0.389151
-0.369916
-0.351049
-0.33255
-0.31443
-0.296755
-0.279317
-0.26328
-0.242911
-0.242595
-0.646829
-0.594682
-0.572015
-0.542048
-0.517689
-0.493649
-0.471203
-0.449537
-0.428607
-0.408211
-0.388261
-0.368695
-0.349489
-0.330647
-0.31218
-0.294153
-0.276376
-0.259922
-0.239504
-0.237716
-0.648789
-0.595966
-0.573104
-0.542845
-0.518259
-0.493975
-0.471276
-0.449337
-0.428115
-0.407408
-0.387134
-0.367232
-0.347683
-0.328496
-0.309684
-0.29131
-0.273206
-0.256359
-0.235913
-0.232731
-0.650364
-0.596919
-0.573885
-0.54336
-0.518567
-0.494049
-0.471104
-0.448895
-0.427379
-0.40636
-0.385756
-0.365515
-0.345622
-0.326088
-0.306934
-0.288222
-0.269805
-0.252589
-0.232135
-0.227639
-0.651538
-0.597527
-0.574344
-0.543581
-0.518596
-0.493857
-0.470673
-0.448196
-0.426388
-0.405053
-0.384118
-0.363535
-0.343296
-0.323418
-0.303926
-0.284886
-0.266172
-0.248613
-0.228168
-0.222437
-0.652291
-0.597772
-0.574465
-0.543491
-0.518332
-0.493386
-0.469969
-0.447228
-0.425126
-0.403475
-0.382207
-0.361281
-0.340696
-0.320477
-0.300656
-0.2813
-0.262305
-0.244429
-0.224009
-0.217123
-0.652605
-0.597639
-0.574231
-0.543075
-0.51776
-0.492619
-0.468978
-0.445975
-0.423582
-0.401614
-0.380011
-0.358742
-0.337815
-0.31726
-0.297119
-0.27746
-0.258202
-0.240035
-0.219655
-0.211692
-0.652461
-0.59711
-0.573627
-0.542319
-0.516865
-0.491543
-0.467684
-0.444424
-0.421741
-0.399456
-0.37752
-0.35591
-0.334644
-0.313761
-0.293309
-0.273363
-0.253861
-0.23543
-0.215104
-0.20614
-0.651842
-0.59617
-0.572636
-0.541206
-0.515633
-0.490142
-0.466074
-0.442562
-0.41959
-0.39699
-0.374723
-0.352776
-0.331176
-0.309973
-0.289224
-0.269006
-0.24928
-0.230611
-0.210355
-0.200462
-0.65073
-0.594801
-0.571244
-0.539722
-0.514048
-0.488403
-0.464133
-0.440373
-0.417117
-0.394205
-0.371609
-0.349329
-0.327403
-0.305891
-0.284858
-0.264387
-0.244457
-0.225578
-0.205404
-0.194655
-0.649105
-0.592989
-0.569433
-0.537851
-0.512094
-0.486309
-0.461847
-0.437846
-0.414308
-0.391087
-0.368167
-0.345562
-0.32332
-0.30151
-0.280209
-0.259504
-0.239392
-0.220329
-0.200251
-0.188715
-0.64695
-0.590716
-0.567189
-0.535578
-0.509758
-0.483847
-0.459202
-0.434966
-0.411152
-0.387627
-0.36439
-0.341466
-0.318918
-0.296826
-0.275274
-0.254355
-0.234081
-0.214862
-0.194893
-0.182636
-0.644247
-0.587966
-0.564495
-0.532888
-0.507024
-0.481003
-0.456185
-0.43172
-0.407636
-0.383814
-0.360266
-0.337034
-0.314193
-0.291834
-0.270049
-0.248937
-0.228526
-0.209177
-0.189331
-0.176416
-0.640979
-0.584725
-0.561336
-0.529766
-0.503878
-0.477762
-0.452781
-0.428096
-0.40375
-0.379637
-0.355789
-0.33226
-0.30914
-0.28653
-0.264532
-0.24325
-0.222724
-0.203272
-0.183563
-0.17005
-0.637126
-0.580976
-0.557698
-0.526198
-0.500305
-0.47411
-0.448977
-0.424082
-0.39948
-0.375087
-0.350948
-0.327136
-0.303753
-0.280911
-0.258722
-0.237293
-0.216675
-0.197148
-0.177589
-0.163537
-0.632673
-0.576704
-0.553564
-0.522168
-0.496292
-0.470034
-0.444761
-0.419665
-0.394819
-0.370155
-0.345738
-0.321658
-0.298029
-0.274975
-0.252617
-0.231064
-0.21038
-0.190804
-0.17141
-0.156872
-0.627601
-0.571895
-0.548921
-0.517664
-0.491824
-0.46552
-0.44012
-0.414835
-0.389754
-0.364832
-0.340152
-0.315819
-0.291964
-0.26872
-0.246216
-0.224565
-0.203838
-0.18424
-0.165025
-0.150056
-0.621889
-0.566533
-0.543753
-0.512671
-0.486889
-0.460557
-0.435043
-0.409579
-0.384277
-0.35911
-0.334182
-0.309615
-0.285555
-0.262144
-0.239518
-0.217795
-0.197051
-0.177457
-0.158437
-0.143085
-0.615523
-0.560605
-0.538049
-0.507177
-0.481475
-0.455131
-0.429518
-0.40389
-0.378379
-0.352983
-0.327824
-0.303044
-0.278799
-0.255246
-0.232525
-0.210755
-0.190019
-0.170456
-0.151646
-0.135959
-0.608499
-0.554113
-0.531807
-0.501179
-0.475576
-0.449239
-0.42354
-0.397761
-0.372056
-0.346446
-0.321075
-0.296102
-0.271698
-0.248027
-0.225236
-0.203446
-0.182745
-0.163239
-0.144654
-0.128677
-0.600803
-0.547053
-0.525022
-0.494671
-0.469186
-0.442873
-0.417102
-0.391186
-0.365302
-0.339496
-0.313933
-0.288789
-0.264249
-0.240487
-0.217653
-0.195871
-0.17523
-0.155808
-0.137464
-0.12124
-0.592264
-0.539292
-0.517583
-0.48756
-0.462229
-0.435969
-0.410152
-0.384123
-0.358084
-0.332106
-0.306378
-0.281091
-0.256445
-0.232621
-0.209775
-0.188029
-0.167475
-0.148164
-0.130077
-0.113648
-0.58253
-0.530539
-0.509252
-0.479651
-0.454543
-0.428397
-0.402585
-0.376489
-0.350337
-0.324229
-0.298374
-0.272983
-0.248268
-0.224418
-0.201594
-0.179917
-0.15948
-0.140308
-0.122497
-0.105902
-0.572586
-0.521551
-0.500644
-0.471445
-0.446536
-0.420486
-0.394665
-0.368494
-0.342228
-0.315993
-0.29002
-0.26454
-0.239775
-0.215921
-0.193142
-0.171558
-0.15126
-0.132249
-0.114729
-0.0980041
-0.562095
-0.512044
-0.491522
-0.462742
-0.438042
-0.412099
-0.386281
-0.360049
-0.333684
-0.307342
-0.281276
-0.255732
-0.230943
-0.207114
-0.184408
-0.162944
-0.142812
-0.123988
-0.106775
-0.0899555
-0.550892
-0.501886
-0.481779
-0.453454
-0.428989
-0.403177
-0.377384
-0.351114
-0.324677
-0.298255
-0.272125
-0.246547
-0.221768
-0.197995
-0.175393
-0.154079
-0.134138
-0.115527
-0.0986384
-0.081758
-0.53897
-0.491081
-0.471415
-0.443581
-0.419376
-0.39372
-0.367975
-0.341692
-0.315208
-0.288735
-0.26257
-0.236991
-0.212252
-0.188567
-0.166101
-0.144965
-0.125244
-0.10687
-0.0903228
-0.0734142
-0.526333
-0.479635
-0.460436
-0.433127
-0.409204
-0.383727
-0.358054
-0.331782
-0.305279
-0.278783
-0.252615
-0.227066
-0.202401
-0.178837
-0.156536
-0.135609
-0.116133
-0.0980211
-0.0818328
-0.0649272
-0.512979
-0.467546
-0.448839
-0.422087
-0.398471
-0.373197
-0.347619
-0.321385
-0.29489
-0.268402
-0.242262
-0.216778
-0.19222
-0.168808
-0.146705
-0.126015
-0.10681
-0.0889852
-0.0731733
-0.0563002
-0.4989
-0.45481
-0.436619
-0.410457
-0.387172
-0.362127
-0.336669
-0.3105
-0.284042
-0.257594
-0.231516
-0.20613
-0.181713
-0.158487
-0.136613
-0.11619
-0.0972823
-0.0797671
-0.0643492
-0.047537
-0.484093
-0.441424
-0.423774
-0.398236
-0.375305
-0.350515
-0.325204
-0.299127
-0.272738
-0.246363
-0.220381
-0.195127
-0.170886
-0.14788
-0.126266
-0.106138
-0.0875538
-0.070372
-0.0553658
-0.0386415
-0.468559
-0.427388
-0.410303
-0.385421
-0.362871
-0.338361
-0.313224
-0.28727
-0.260981
-0.234712
-0.208863
-0.183777
-0.159747
-0.136994
-0.115671
-0.095866
-0.077631
-0.0608052
-0.0462278
-0.0296181
-0.452298
-0.412702
-0.396206
-0.372014
-0.349869
-0.325667
-0.300732
-0.274931
-0.248776
-0.222649
-0.196966
-0.172086
-0.148301
-0.125835
-0.104834
-0.0853814
-0.0675204
-0.0510726
-0.0369418
-0.0204678
-0.435314
-0.397368
-0.381484
-0.358015
-0.336301
-0.312434
-0.287731
-0.262116
-0.236128
-0.210178
-0.1847
-0.160061
-0.136558
-0.114411
-0.0937638
-0.0746909
-0.0572284
-0.0411818
-0.0275249
-0.0111829
-0.41761
-0.381389
-0.36614
-0.343427
-0.32217
-0.298668
-0.274226
-0.248828
-0.223043
-0.197308
-0.172071
-0.14771
-0.124524
-0.102731
-0.0824674
-0.0638019
-0.0467616
-0.0311388
-0.0179961
-0.00177286
-0.399193
-0.36477
-0.350178
-0.328255
-0.30748
-0.284371
-0.260222
-0.235076
-0.20953
-0.184046
-0.159089
-0.135043
-0.11221
-0.0908026
-0.0709534
-0.0527223
-0.0361272
-0.020944
-0.00827004
0.00766876
-0.380072
-0.347517
-0.333604
-0.312502
-0.292237
-0.269551
-0.245726
-0.220867
-0.195596
-0.170402
-0.145763
-0.12207
-0.0996241
-0.0786361
-0.0592305
-0.0414601
-0.0253332
-0.0106239
0.00158232
0.0172232
-0.360255
-0.329637
-0.316425
-0.296176
-0.276448
-0.254215
-0.230747
-0.206209
-0.181251
-0.156386
-0.132103
-0.1088
-0.0867773
-0.0662408
-0.047308
-0.030024
-0.0143871
-0.00016891
0.0115402
0.0268824
-0.339754
-0.311139
-0.298649
-0.279285
-0.26012
-0.238371
-0.215293
-0.191113
-0.166506
-0.142008
-0.118121
-0.0952449
-0.0736801
-0.053627
-0.0351954
-0.0184228
-0.00329735
0.0104128
0.0216058
0.0366321
-0.318582
-0.292034
-0.280285
-0.261837
-0.243262
-0.22203
-0.199375
-0.17559
-0.151373
-0.127281
-0.103828
-0.0814161
-0.0603436
-0.0408051
-0.0229026
-0.00666562
0.00792746
0.021112
0.031775
0.046464
-0.296754
-0.272333
-0.261346
-0.243844
-0.225887
-0.205201
-0.183005
-0.159652
-0.135863
-0.112217
-0.0892365
-0.0673257
-0.0467795
-0.0277863
-0.0104398
0.00523795
0.0192786
0.0319203
0.0420409
0.0563713
-0.274285
-0.25205
-0.241842
-0.225318
-0.208005
-0.187899
-0.166195
-0.143312
-0.119991
-0.0968303
-0.0743601
-0.0529865
-0.0330001
-0.014582
0.0021821
0.0172781
0.0307471
0.0428296
0.0523962
0.0663464
-0.251192
-0.231199
-0.22179
-0.206271
-0.189631
-0.170135
-0.148959
-0.126583
-0.10377
-0.0811339
-0.0592126
-0.038412
-0.0190179
-0.00120412
0.0149522
0.0294447
0.0423238
0.0538312
0.0628336
0.0763818
-0.227496
-0.209796
-0.201203
-0.186719
-0.170778
-0.151926
-0.131313
-0.109483
-0.0872151
-0.0651431
-0.0438084
-0.0236161
-0.00484622
0.012335
0.0278592
0.0417272
0.0539989
0.0649163
0.0733455
0.0864695
-0.203216
-0.187859
-0.180099
-0.166678
-0.151463
-0.133287
-0.113273
-0.092025
-0.0703428
-0.0488738
-0.0281628
-0.00861303
0.00950145
0.0260228
0.0408912
0.0541149
0.0657628
0.0760759
0.0839239
0.0966013
-0.178375
-0.165407
-0.158496
-0.146164
-0.131703
-0.114235
-0.0948571
-0.074226
-0.0531703
-0.0323422
-0.0122913
0.00658214
0.0240111
0.0398462
0.0540362
0.0665966
0.0776051
0.0873005
0.0945608
0.106769
-0.152996
-0.142461
-0.136413
-0.125198
-0.111517
-0.0947886
-0.0760773
-0.0561097
-0.0357148
-0.0155653
0.00378973
0.0219541
0.0386683
0.0537918
0.0672819
0.0791611
0.0895154
0.0985805
0.105248
0.116963
-0.127103
-0.119041
-0.113871
-0.103798
-0.0909235
-0.0749667
-0.0569593
-0.0376895
-0.0179944
0.0014392
0.0200636
0.0374871
0.0534584
0.0678459
0.0806155
0.0917965
0.101483
0.109906
0.115976
0.127173
-0.100725
-0.0951697
-0.0908924
-0.0819854
-0.0699435
-0.0547905
-0.0375219
-0.0189857
-2.83238e-05
0.0186532
0.0365129
0.0531649
0.0683663
0.0819945
0.0940242
0.104491
0.113497
0.121266
0.126737
0.137391
-0.0738875
-0.0708723
-0.0675002
-0.0597832
-0.0485994
-0.0342811
-0.0177856
-1.93582e-05
0.0181637
0.0360579
0.0531202
0.068971
0.0833765
0.0962235
0.107495
0.117232
0.125546
0.132651
0.137521
0.147603
-0.0466161
-0.0461768
-0.0437189
-0.0372149
-0.026914
-0.0134609
0.00222771
0.0191883
0.0365615
0.0536341
0.0698672
0.0848885
0.0984734
0.110518
0.121014
0.130008
0.137618
0.144048
0.148319
0.157797
-0.0189349
-0.0211148
-0.0195744
-0.0143048
-0.00491136
0.00764648
0.0224952
0.0386155
0.0551441
0.0713621
0.0867356
0.1009
0.113641
0.124864
0.134567
0.142806
0.149702
0.155447
0.159122
0.167957
0.00909553
0.0043119
0.00490655
0.00892119
0.0173834
0.0290168
0.0429934
0.0582396
0.0738901
0.0892216
0.103706
0.116989
0.128863
0.139246
0.148142
0.155612
0.161785
0.166836
0.169921
0.178067
0.03747
0.0300527
0.0296959
0.0324363
0.0399442
0.0506249
0.0636979
0.0780374
0.0927776
0.107192
0.120761
0.133136
0.144124
0.153649
0.161724
0.168414
0.173855
0.178202
0.180707
0.188105
0.0661549
0.0560794
0.0547651
0.0562127
0.0627441
0.0724446
0.0845839
0.0979853
0.111784
0.125253
0.137879
0.149325
0.159407
0.168058
0.175298
0.181199
0.1859
0.189533
0.191471
0.198044
0.0951151
0.0823638
0.0800844
0.0802215
0.0857551
0.0944491
0.105626
0.118059
0.130887
0.143383
0.155042
0.165537
0.174695
0.182457
0.188852
0.193955
0.197907
0.200817
0.202207
0.207848
0.124319
0.108875
0.105624
0.104433
0.108949
0.116611
0.126797
0.138234
0.150064
0.16156
0.17223
0.181755
0.189972
0.196833
0.202371
0.206667
0.209864
0.212039
0.212907
0.217469
0.153738
0.135583
0.131352
0.128819
0.132297
0.138903
0.148072
0.158485
0.16929
0.179764
0.189422
0.197959
0.205222
0.211169
0.215841
0.219323
0.221758
0.223189
0.223566
0.226845
0.183337
0.16245
0.157236
0.153345
0.155767
0.161295
0.169423
0.178786
0.188543
0.197972
0.2066
0.214133
0.220427
0.225451
0.229249
0.231912
0.233576
0.234257
0.234197
0.235899
0.213059
0.189419
0.183223
0.177966
0.17932
0.183752
0.190817
0.199109
0.207796
0.21616
0.223742
0.230256
0.235571
0.239663
0.242581
0.244421
0.245307
0.245242
0.244845
0.244522
0.242867
0.216443
0.20927
0.202643
0.202919
0.20624
0.212224
0.219426
0.227024
0.234307
0.240827
0.246312
0.250639
0.253792
0.255824
0.256838
0.256938
0.256144
0.255492
0.25248
0.273022
0.243698
0.235498
0.227458
0.226615
0.228787
0.233656
0.239737
0.24622
0.2524
0.257841
0.262283
0.265612
0.26782
0.268964
0.269149
0.268458
0.266948
0.265836
0.25896
0.304107
0.271616
0.262212
0.252621
0.25055
0.251484
0.255166
0.260068
0.265392
0.270435
0.274774
0.278155
0.280476
0.281732
0.281985
0.281342
0.279866
0.277649
0.275545
0.262406
0.334207
0.298845
0.288413
0.277402
0.274191
0.273949
0.276485
0.280236
0.284416
0.288333
0.291574
0.293898
0.295212
0.29552
0.294885
0.293419
0.291175
0.288289
0.285853
0.271245
0.363917
0.325831
0.314425
0.302029
0.297698
0.296288
0.29768
0.300276
0.303309
0.306094
0.308234
0.3095
0.309807
0.309165
0.307645
0.305362
0.302368
0.298825
0.296108
0.281581
0.393494
0.352743
0.340359
0.326576
0.321114
0.318524
0.318757
0.320186
0.322061
0.323707
0.32474
0.324944
0.324242
0.322654
0.320252
0.317157
0.313425
0.309226
0.306034
0.2917
0.422896
0.379525
0.366165
0.350997
0.344398
0.340619
0.339684
0.339937
0.340646
0.341147
0.341071
0.340212
0.338504
0.335971
0.332691
0.328789
0.324325
0.319475
0.315705
0.301438
0.452063
0.406118
0.39179
0.375246
0.367509
0.362538
0.360428
0.3595
0.359039
0.358393
0.357207
0.355286
0.352575
0.349102
0.344949
0.340246
0.335055
0.329557
0.325172
0.31092
0.480954
0.43248
0.417194
0.399285
0.390411
0.384247
0.380961
0.378848
0.377216
0.375423
0.373129
0.37015
0.366439
0.362032
0.357014
0.351514
0.345601
0.339455
0.334431
0.320177
0.509536
0.458574
0.442341
0.423081
0.413074
0.405716
0.401253
0.397956
0.395153
0.392215
0.388816
0.384785
0.380082
0.374748
0.36887
0.362581
0.35595
0.349158
0.343479
0.329198
0.537772
0.484364
0.467196
0.446597
0.435462
0.426915
0.421276
0.416797
0.412826
0.408748
0.404251
0.399175
0.393488
0.387235
0.380507
0.373435
0.366091
0.358655
0.352312
0.337981
0.565621
0.50981
0.49172
0.469799
0.457543
0.447813
0.441003
0.435345
0.430213
0.425002
0.419415
0.413303
0.406641
0.39948
0.391911
0.384065
0.376015
0.367937
0.360929
0.346525
0.593045
0.534876
0.515878
0.492652
0.479285
0.468379
0.460404
0.453576
0.44729
0.440955
0.434289
0.427152
0.419527
0.411469
0.403071
0.394461
0.385713
0.376998
0.369327
0.354833
0.620003
0.559524
0.539633
0.515121
0.500654
0.488583
0.479453
0.471464
0.464035
0.456588
0.448855
0.440706
0.432132
0.42319
0.413974
0.404612
0.395174
0.385829
0.377502
0.362903
0.646457
0.583717
0.562949
0.537173
0.521619
0.508395
0.498122
0.488985
0.480426
0.47188
0.463095
0.45395
0.444441
0.43463
0.424611
0.414507
0.404392
0.394424
0.385451
0.370734
0.672366
0.607417
0.585791
0.558773
0.542148
0.527787
0.516385
0.506114
0.496441
0.486813
0.476992
0.466867
0.456441
0.445777
0.434969
0.424139
0.413357
0.402777
0.39317
0.378325
0.697691
0.630589
0.608123
0.579889
0.562211
0.54673
0.534215
0.522828
0.512058
0.501367
0.490529
0.479444
0.468118
0.456618
0.445039
0.433497
0.422062
0.410881
0.400654
0.385674
0.722395
0.653197
0.629911
0.600488
0.581776
0.565196
0.551588
0.539104
0.527258
0.515524
0.50369
0.491664
0.47946
0.467143
0.45481
0.442573
0.4305
0.418731
0.4079
0.392779
0.746439
0.675206
0.651122
0.620538
0.600814
0.583157
0.568477
0.554919
0.542019
0.529265
0.516459
0.503515
0.490453
0.47734
0.464272
0.451358
0.438663
0.426321
0.414903
0.399635
0.769786
0.696582
0.671722
0.640009
0.619297
0.600587
0.584859
0.570252
0.556323
0.542574
0.528819
0.514982
0.501085
0.487199
0.473416
0.459843
0.446544
0.433644
0.421658
0.406241
0.792401
0.717292
0.691678
0.658869
0.637195
0.617459
0.600711
0.58508
0.570149
0.555433
0.540756
0.526051
0.511345
0.496708
0.482233
0.468022
0.454137
0.440696
0.42816
0.412592
0.814248
0.737302
0.710961
0.67709
0.654481
0.633749
0.616008
0.599384
0.583481
0.567826
0.552256
0.536711
0.52122
0.505858
0.490713
0.475885
0.461434
0.44747
0.434406
0.418686
0.835293
0.756581
0.729538
0.694642
0.67113
0.649431
0.630729
0.613143
0.596299
0.579736
0.563304
0.546947
0.530701
0.514638
0.498848
0.483426
0.46843
0.453962
0.440391
0.424518
0.855503
0.775098
0.747381
0.711499
0.687114
0.664483
0.644853
0.626339
0.608587
0.59115
0.573886
0.556749
0.539776
0.523041
0.506631
0.490638
0.475117
0.460166
0.446109
0.430087
0.874846
0.792824
0.764461
0.727633
0.702409
0.678882
0.658359
0.638952
0.620328
0.602051
0.58399
0.566105
0.548435
0.531055
0.514052
0.497512
0.481491
0.466076
0.451556
0.435386
0.893293
0.809731
0.780752
0.743018
0.716991
0.692606
0.671228
0.650965
0.631507
0.612427
0.593604
0.575003
0.556669
0.538674
0.521104
0.504044
0.487545
0.471689
0.456729
0.440415
0.910814
0.825791
0.796225
0.757632
0.730838
0.705634
0.68344
0.662362
0.642108
0.622263
0.602715
0.583434
0.564467
0.545889
0.527781
0.510226
0.493273
0.476998
0.461622
0.445168
0.927381
0.840979
0.810858
0.771449
0.743929
0.717947
0.694978
0.673126
0.652118
0.631547
0.611312
0.591388
0.571822
0.552691
0.534075
0.516052
0.498671
0.482
0.466232
0.449642
0.942968
0.85527
0.824626
0.784448
0.756242
0.729526
0.705825
0.683243
0.661522
0.640267
0.619385
0.598854
0.578726
0.559074
0.539979
0.521517
0.503733
0.486689
0.470554
0.453834
0.95755
0.86864
0.837507
0.796609
0.767758
0.740352
0.715965
0.692697
0.670309
0.648413
0.626923
0.605825
0.585169
0.565031
0.545489
0.526614
0.508454
0.491063
0.474584
0.457742
0.971104
0.881068
0.84948
0.807911
0.77846
0.750411
0.725383
0.701476
0.678465
0.655973
0.633918
0.612291
0.591145
0.570555
0.550597
0.53134
0.51283
0.495116
0.47832
0.461361
0.983608
0.892535
0.860526
0.818337
0.78833
0.759687
0.734066
0.709568
0.685982
0.662937
0.640361
0.618246
0.596648
0.57564
0.555298
0.535689
0.516856
0.498844
0.481756
0.464689
0.995043
0.90302
0.870626
0.827869
0.797353
0.768164
0.742
0.71696
0.692847
0.669297
0.646244
0.623682
0.60167
0.580281
0.559588
0.539657
0.52053
0.502246
0.484891
0.467724
1.00539
0.912507
0.879764
0.836493
0.805515
0.775831
0.749174
0.723643
0.699052
0.675044
0.651559