/*--------------------------------*- C++ -*----------------------------------*\
  =========                 |
  \\      /  F ield         | OpenFOAM: The Open Source CFD Toolbox
   \\    /   O peration     | Website:  https://openfoam.org
    \\  /    A nd           | Version:  7
     \\/     M anipulation  |
\*---------------------------------------------------------------------------*/
FoamFile
{
    version     2.0;
    format      ascii;
    class       surfaceScalarField;
    location    "15";
    object      phi;
}
// * * * * * * * * * * * * * * * * * * * * * * * * * * * * * * * * * * * * * //

dimensions      [0 3 -1 0 0 0 0];

internalField   nonuniform List<scalar> 
83430
(
-8.22432e-07
8.22432e-07
7.31401e-13
-2.22027e-06
1.39784e-06
2.14321e-12
-3.48085e-06
1.26058e-06
3.68361e-12
-3.99602e-06
5.15159e-07
5.32076e-12
-3.27338e-06
-7.22641e-07
7.05444e-12
-8.90763e-07
-2.38263e-06
8.87789e-12
3.51703e-06
-4.4078e-06
1.07876e-11
1.02744e-05
-6.7574e-06
1.27736e-11
1.96737e-05
-9.39927e-06
1.48277e-11
3.19805e-05
-1.23068e-05
1.69354e-11
4.74351e-05
-1.54547e-05
1.91307e-11
6.62501e-05
-1.8815e-05
2.1644e-11
8.86025e-05
-2.23525e-05
2.43288e-11
0.000114623
-2.60202e-05
2.69863e-11
0.000144376
-2.97539e-05
2.96457e-11
0.000177844
-3.34676e-05
3.22774e-11
0.000214893
-3.70487e-05
3.48746e-11
0.000255257
-4.03638e-05
3.73968e-11
0.000298467
-4.32109e-05
3.97572e-11
-4.56577e-05
4.18743e-11
0.000344125
-8.14503e-07
1.63693e-06
-2.19128e-06
2.77461e-06
-3.41847e-06
2.48777e-06
-3.88841e-06
9.85096e-07
-3.10887e-06
-1.50219e-06
-6.57581e-07
-4.83391e-06
3.83088e-06
-8.89627e-06
1.06814e-05
-1.36079e-05
2.01868e-05
-1.89047e-05
3.26136e-05
-2.47336e-05
4.82031e-05
-3.10442e-05
6.71689e-05
-3.77808e-05
8.96898e-05
-4.48734e-05
0.000115898
-5.22282e-05
0.000145861
-5.97173e-05
0.000179562
-6.71687e-05
0.000216871
-7.43573e-05
0.000257523
-8.10156e-05
0.00030105
-8.67385e-05
-9.16604e-05
0.000347053
-7.98859e-07
2.43579e-06
-2.1336e-06
4.10935e-06
-3.29401e-06
3.64819e-06
-3.67343e-06
1.36451e-06
-2.77995e-06
-2.39566e-06
-1.91223e-07
-7.42264e-06
4.45867e-06
-1.35462e-05
1.14955e-05
-2.06447e-05
2.12132e-05
-2.86224e-05
3.388e-05
-3.74003e-05
4.9739e-05
-4.69032e-05
6.90063e-05
-5.70481e-05
9.18639e-05
-6.7731e-05
0.000118448
-7.88118e-05
0.000148829
-9.00993e-05
0.000182997
-0.000101336
0.000220824
-0.000112184
0.000262051
-0.000122242
0.00030621
-0.000130898
-0.000138352
0.000352902
-7.75536e-07
3.21133e-06
-2.04736e-06
5.38117e-06
-3.10775e-06
4.70858e-06
-3.35154e-06
1.6083e-06
-2.28738e-06
-3.45982e-06
5.07247e-07
-1.02173e-05
5.39901e-06
-1.84379e-05
1.27149e-05
-2.79606e-05
2.27507e-05
-3.86582e-05
3.57767e-05
-5.04264e-05
5.20393e-05
-6.31657e-05
7.1758e-05
-7.67669e-05
9.51195e-05
-9.10924e-05
0.000122265
-0.000105957
0.000153273
-0.000121107
0.000188138
-0.000136201
0.00022674
-0.000150787
0.000268826
-0.000164328
0.000313931
-0.000176003
-0.000186072
0.000361651
-7.44585e-07
3.95591e-06
-1.93276e-06
6.56934e-06
-2.86011e-06
5.63593e-06
-2.92348e-06
1.67167e-06
-1.63223e-06
-4.75107e-06
1.43633e-06
-1.32858e-05
6.64985e-06
-2.36514e-05
1.43369e-05
-3.56476e-05
2.47957e-05
-4.9117e-05
3.82996e-05
-6.39302e-05
5.50986e-05
-7.99647e-05
7.54173e-05
-9.70856e-05
9.94481e-05
-0.000115123
0.00012734
-0.000133848
0.000159179
-0.000152947
0.000194969
-0.000171991
0.000234601
-0.000190419
0.000277828
-0.000207555
0.000324187
-0.000222362
-0.000235158
0.000373272
-7.06077e-07
4.66199e-06
-1.79007e-06
7.65333e-06
-2.55164e-06
6.39751e-06
-2.39018e-06
1.51021e-06
-8.15924e-07
-6.32533e-06
2.59401e-06
-1.66958e-05
8.20846e-06
-2.92659e-05
1.63581e-05
-4.37972e-05
2.73438e-05
-6.01028e-05
4.14427e-05
-7.80292e-05
5.89097e-05
-9.74317e-05
7.99752e-05
-0.000118151
0.000104839
-0.000139987
0.000133658
-0.000162668
0.000166531
-0.00018582
0.000203472
-0.000208933
0.000244383
-0.00023133
0.000289027
-0.000252198
0.000336944
-0.000270279
-0.000285939
0.000387726
-6.60102e-07
5.32209e-06
-1.6196e-06
8.61283e-06
-2.18304e-06
6.96094e-06
-1.75281e-06
1.07998e-06
1.59751e-07
-8.23789e-06
3.97776e-06
-2.05138e-05
1.00714e-05
-3.53596e-05
1.87738e-05
-5.24996e-05
3.03892e-05
-7.17182e-05
4.51991e-05
-9.2839e-05
6.34638e-05
-0.000115696
8.54208e-05
-0.000140108
0.000111278
-0.000165845
0.000141205
-0.000192594
0.00017531
-0.000219925
0.000213622
-0.000247245
0.000256057
-0.000273765
0.000302388
-0.00029853
0.000352162
-0.000320053
-0.000338741
0.000404963
-6.06765e-07
5.92886e-06
-1.42174e-06
9.4278e-06
-1.75511e-06
7.29431e-06
-1.01277e-06
3.3764e-07
1.29267e-06
-1.05433e-05
5.58459e-06
-2.48057e-05
1.22348e-05
-4.20098e-05
2.1579e-05
-6.18438e-05
3.39253e-05
-8.40646e-05
4.95602e-05
-0.000108474
6.87503e-05
-0.000134887
9.1741e-05
-0.000163099
0.00011875
-0.000192854
0.000149958
-0.000223802
0.00018549
-0.000255456
0.000225388
-0.000287143
0.000269586
-0.000317962
0.000317869
-0.000346813
0.000369789
-0.000371972
-0.000393877
0.000424925
-5.46189e-07
6.47505e-06
-1.19693e-06
1.00785e-05
-1.2688e-06
7.36618e-06
-1.7163e-07
-7.59531e-07
2.58041e-06
-1.32954e-05
7.41104e-06
-2.96363e-05
1.46938e-05
-4.92925e-05
2.47674e-05
-7.19174e-05
3.79442e-05
-9.72414e-05
5.45162e-05
-0.000125046
7.4757e-05
-0.000155127
9.89206e-05
-0.000187262
0.000127236
-0.00022117
0.000159897
-0.000256463
0.000197043
-0.000292602
0.000238737
-0.000328838
0.000284929
-0.000364154
0.00033542
-0.000397305
0.000389768
-0.00042632
-0.000451654
0.000447544
-4.78513e-07
6.95356e-06
-9.45678e-07
1.05457e-05
-7.25172e-07
7.14568e-06
7.68697e-07
-2.2534e-06
4.0202e-06
-1.65469e-05
9.45321e-06
-3.50693e-05
1.74432e-05
-5.72825e-05
2.83321e-05
-8.28064e-05
4.24371e-05
-0.000111346
6.00559e-05
-0.000142665
8.14698e-05
-0.000176541
0.000106942
-0.000212735
0.000136714
-0.000250942
0.000170994
-0.000290742
0.000209938
-0.000331547
0.00025363
-0.00037253
0.000302039
-0.000412563
0.000354986
-0.000450251
0.000412033
-0.000483367
-0.000512365
0.000472744
-4.0389e-07
7.35745e-06
-6.68523e-07
1.08103e-05
-1.25399e-07
6.60255e-06
1.80629e-06
-4.18509e-06
5.60896e-06
-2.03495e-05
1.17067e-05
-4.11671e-05
2.04771e-05
-6.60528e-05
3.22655e-05
-9.45948e-05
4.73941e-05
-0.000126475
6.6167e-05
-0.000161438
8.88734e-05
-0.000199248
0.000115787
-0.000239649
0.000147161
-0.000282316
0.00018322
-0.000326801
0.000224139
-0.000372466
0.000270024
-0.000418414
0.000320865
-0.000463404
0.000376503
-0.000505889
0.000436509
-0.000543373
-0.000576293
0.000500437
-3.22488e-07
7.67994e-06
-3.66071e-07
1.08539e-05
5.29236e-07
5.70724e-06
2.93891e-06
-6.59476e-06
7.34334e-06
-2.4754e-05
1.41668e-05
-4.79906e-05
2.3789e-05
-7.5675e-05
3.65591e-05
-0.000107365
5.28043e-05
-0.00014272
7.28357e-05
-0.000181469
9.69508e-05
-0.000223363
0.000125434
-0.000268132
0.000158552
-0.000315434
0.000196544
-0.000364793
0.000239608
-0.00041553
0.00028787
-0.000466676
0.000341348
-0.000516881
0.000399903
-0.000564445
0.000463116
-0.000606586
-0.000643705
0.000530529
-2.34489e-07
7.91443e-06
-3.8777e-08
1.06582e-05
1.23734e-06
4.43113e-06
4.16417e-06
-9.52159e-06
9.21967e-06
-2.98095e-05
1.68283e-05
-5.55992e-05
2.73719e-05
-8.62186e-05
4.12036e-05
-0.000121197
5.86561e-05
-0.000160173
8.00472e-05
-0.00020286
0.000105683
-0.000248999
0.00013586
-0.000298308
0.000170856
-0.00035043
0.000210931
-0.000404867
0.0002563
-0.000460899
0.000307117
-0.000517493
0.000363425
-0.000573189
0.000425111
-0.00062613
0.000491765
-0.00067324
-0.000714855
0.000562915
-1.40118e-07
8.05455e-06
3.12009e-07
1.02061e-05
1.9974e-06
2.74574e-06
5.47949e-06
-1.30037e-05
1.1234e-05
-3.5564e-05
1.96855e-05
-6.40507e-05
3.12182e-05
-9.77512e-05
4.61891e-05
-0.000136168
6.49365e-05
-0.00017892
8.77855e-05
-0.000225709
0.000115051
-0.000276265
0.00014704
-0.000330296
0.000184045
-0.000387436
0.000226343
-0.000447165
0.000274172
-0.000508728
0.00032771
-0.000571032
0.00038703
-0.000632509
0.000452044
-0.000691144
0.000522358
-0.000743554
-0.000789979
0.000597483
-3.9489e-08
8.09403e-06
6.86254e-07
9.48035e-06
2.80785e-06
6.24151e-07
6.88214e-06
-1.7078e-05
1.33822e-05
-4.20641e-05
2.27326e-05
-7.34011e-05
3.53198e-05
-0.000110338
5.1505e-05
-0.000152353
7.1632e-05
-0.000199047
9.60333e-05
-0.00025011
0.000125033
-0.000305264
0.000158948
-0.000364212
0.000198087
-0.000426574
0.000242741
-0.000491819
0.000293173
-0.00055916
0.000349588
-0.000627447
0.000412089
-0.00069501
0.000480617
-0.000759673
0.000554793
-0.00081773
-0.000869298
0.000634112
6.72915e-08
8.02674e-06
1.08293e-06
8.46471e-06
3.66701e-06
-1.95993e-06
8.36922e-06
-2.17802e-05
1.56598e-05
-4.93546e-05
2.59631e-05
-8.37045e-05
3.9668e-05
-0.000124043
5.71398e-05
-0.000169825
7.87282e-05
-0.000220635
0.000104772
-0.000276155
0.000135606
-0.000336097
0.000171556
-0.000400162
0.000212945
-0.000467963
0.000260082
-0.000538956
0.000313252
-0.00061233
0.000372688
-0.000686883
0.000438525
-0.000760847
0.000510736
-0.000831884
0.00058896
-0.000895954
-0.000953011
0.000672673
1.79576e-07
7.84717e-06
1.5012e-06
7.14308e-06
4.57312e-06
-5.03185e-06
9.9377e-06
-2.71448e-05
1.8062e-05
-5.74789e-05
2.93704e-05
-9.50129e-05
4.42538e-05
-0.000138927
6.30818e-05
-0.000188653
8.62095e-05
-0.000243763
0.000113984
-0.000303929
0.000146746
-0.00036886
0.000184834
-0.00043825
0.000228584
-0.000511713
0.000278322
-0.000588695
0.000334355
-0.000668363
0.000396944
-0.000749472
0.000466258
-0.00083016
0.000542303
-0.00090793
0.000624741
-0.000978392
-0.0010413
0.000713031
2.97468e-07
7.5497e-06
1.94024e-06
5.50031e-06
5.52436e-06
-8.61597e-06
1.15844e-05
-3.32048e-05
2.05841e-05
-6.64786e-05
3.29475e-05
-0.000107376
4.90676e-05
-0.000155047
6.93181e-05
-0.000208903
9.40598e-05
-0.000268505
0.000123646
-0.000333515
0.000158427
-0.000403641
0.000198752
-0.000478575
0.000244966
-0.000557928
0.000297415
-0.000641143
0.000356424
-0.000727372
0.000422285
-0.000815333
0.000495201
-0.000903076
0.000575216
-0.000987944
0.000662015
-0.00106519
-0.00113433
0.000755041
4.20673e-07
7.12903e-06
2.39917e-06
3.52181e-06
6.51882e-06
-1.27356e-05
1.3306e-05
-3.9992e-05
2.32208e-05
-7.63935e-05
3.66869e-05
-0.000120842
5.40993e-05
-0.000172459
7.58357e-05
-0.000230639
0.000102262
-0.000294931
0.000133739
-0.000364992
0.000170624
-0.000440526
0.000213275
-0.000521226
0.000262051
-0.000606704
0.00031731
-0.000696401
0.0003794
-0.000789462
0.000448639
-0.000884573
0.000525266
-0.000979703
0.000609365
-0.00107204
0.000700653
-0.00115648
-0.00123223
0.000798553
5.4894e-07
6.58009e-06
2.87708e-06
1.19367e-06
7.55454e-06
-1.74131e-05
1.50991e-05
-4.75365e-05
2.59669e-05
-8.72613e-05
4.05811e-05
-0.000135457
5.93385e-05
-0.000191217
8.26206e-05
-0.000253922
0.000110799
-0.00032311
0.00014424
-0.000398433
0.000183308
-0.000479594
0.000228371
-0.000566288
0.000279796
-0.00065813
0.000337957
-0.000754562
0.000403219
-0.000854725
0.000475929
-0.000957282
0.00055636
-0.00106013
0.00064464
-0.00116032
0.00074052
-0.00125236
-0.00133511
0.00084341
6.82019e-07
5.89807e-06
3.37305e-06
-1.49736e-06
8.62949e-06
-2.26695e-05
1.69601e-05
-5.5867e-05
2.88169e-05
-9.91182e-05
4.46221e-05
-0.000151262
6.47743e-05
-0.000211369
8.96585e-05
-0.000278806
0.000119651
-0.000353102
0.000155124
-0.000433906
0.00019645
-0.00052092
0.000244002
-0.00061384
0.000298159
-0.000712286
0.000359303
-0.000815706
0.000427819
-0.000923241
0.000504077
-0.00103354
0.000588388
-0.00114445
0.000680924
-0.00125286
0.000781479
-0.00135291
-0.00144309
0.00088945
8.19658e-07
5.07841e-06
3.88615e-06
-4.56385e-06
9.74161e-06
-2.8525e-05
1.88853e-05
-6.50108e-05
3.1765e-05
-0.000111998
4.88016e-05
-0.000168298
7.03953e-05
-0.000232963
9.69343e-05
-0.000305345
0.0001288
-0.000384968
0.000166369
-0.000471476
0.00021002
-0.000564571
0.000260133
-0.000663953
0.000317093
-0.000769246
0.000381293
-0.000879906
0.000453132
-0.00099508
0.000533002
-0.00111341
0.000621252
-0.00123269
0.000718097
-0.00134971
0.000823386
-0.0014582
-0.00155621
0.000936506
9.61605e-07
4.1168e-06
4.41539e-06
-8.01764e-06
1.08888e-05
-3.49983e-05
2.08711e-05
-7.49931e-05
3.48054e-05
-0.000125932
5.31112e-05
-0.000186604
7.61898e-05
-0.000256041
0.000104433
-0.000333588
0.000138225
-0.00041876
0.000177949
-0.0005112
0.000223987
-0.000610609
0.000276725
-0.000716691
0.000336553
-0.000829075
0.000403872
-0.000947225
0.000479091
-0.0010703
0.000562623
-0.00119694
0.00065485
-0.00132492
0.000756038
-0.00145089
0.000866095
-0.00156826
-0.00167452
0.000984405
1.1076e-06
3.0092e-06
4.95982e-06
-1.18699e-05
1.20688e-05
-4.21073e-05
2.29136e-05
-8.58379e-05
3.79321e-05
-0.000140951
5.75421e-05
-0.000206214
8.21458e-05
-0.000280645
0.000112137
-0.000363579
0.000147905
-0.000454527
0.000189836
-0.000553131
0.000238317
-0.00065909
0.000293737
-0.000772111
0.00035649
-0.000891828
0.00042698
-0.00101771
0.000505625
-0.00114894
0.000592854
-0.00128417
0.00068908
-0.00142115
0.000794621
-0.00155643
0.000909455
-0.00168309
-0.00179803
0.00103297
1.2574e-06
1.7518e-06
5.51845e-06
-1.61309e-05
1.32795e-05
-4.98683e-05
2.50089e-05
-9.75673e-05
4.1139e-05
-0.000157081
6.20853e-05
-0.00022716
8.82507e-05
-0.00030681
0.000120031
-0.000395359
0.000157819
-0.000492315
0.000202004
-0.000597316
0.000252977
-0.000710063
0.000311128
-0.000830262
0.000376853
-0.000957553
0.000450558
-0.00109142
0.000532663
-0.00123105
0.00062361
-0.00137512
0.00072384
-0.00152138
0.000833721
-0.00166632
0.000953315
-0.00180269
-0.00192675
0.00108203
1.41074e-06
3.41069e-07
6.09027e-06
-2.08104e-05
1.45186e-05
-5.82967e-05
2.71529e-05
-0.000110202
4.44195e-05
-0.000174348
6.67316e-05
-0.000249472
9.44918e-05
-0.000334571
0.000128098
-0.000428966
0.000167945
-0.000532162
0.000214425
-0.000643796
0.000267931
-0.000763568
0.000328854
-0.000891185
0.00039759
-0.00102629
0.000474543
-0.00116837
0.000560132
-0.00131664
0.000654803
-0.00146979
0.000759023
-0.0016256
0.000873208
-0.0017805
0.000997521
-0.001927
-0.00206061
0.00113139
1.56736e-06
-1.22629e-06
6.67428e-06
-2.59174e-05
1.57839e-05
-6.74063e-05
2.93416e-05
-0.000123759
4.77675e-05
-0.000192773
7.14714e-05
-0.000273176
0.000100856
-0.000363955
0.00013632
-0.000464429
0.000178259
-0.000574102
0.000227069
-0.000692606
0.000283143
-0.000819642
0.000346872
-0.000954914
0.000418649
-0.00109807
0.000498872
-0.0012486
0.000587956
-0.00140572
0.000686346
-0.00156818
0.000794525
-0.00173378
0.000912957
-0.00189893
0.00104192
-0.00205596
-0.00219957
0.00118088
1.72703e-06
-2.95332e-06
7.26949e-06
-3.14598e-05
1.70731e-05
-7.72098e-05
3.15709e-05
-0.000138257
5.11762e-05
-0.000212379
7.62951e-05
-0.000298295
0.000107329
-0.000394989
0.000144678
-0.000501778
0.000188738
-0.000618162
0.000239906
-0.000743774
0.000298575
-0.000878311
0.000365134
-0.00102147
0.000439972
-0.0011729
0.000523479
-0.0013321
0.000616059
-0.0014983
0.000718149
-0.00167027
0.000830242
-0.00184587
0.000952841
-0.00202153
0.00108636
-0.00218948
-0.00234352
0.00123031
1.88949e-06
-4.84281e-06
7.87487e-06
-3.74452e-05
1.83838e-05
-8.77188e-05
3.38366e-05
-0.00015371
5.46389e-05
-0.000233181
8.11929e-05
-0.000324849
0.000113898
-0.000427694
0.000153153
-0.000541033
0.000199357
-0.000664365
0.000252904
-0.000797322
0.000314187
-0.000939594
0.000383593
-0.00109088
0.000461503
-0.00125081
0.000548297
-0.0014189
0.000644363
-0.00159437
0.000750123
-0.00177603
0.000866068
-0.00196182
0.000992735
-0.0021482
0.00113069
-0.00232744
-0.00249233
0.0012795
2.0545e-06
-6.89731e-06
8.48941e-06
-4.38801e-05
1.97137e-05
-9.89431e-05
3.61344e-05
-0.000170131
5.81489e-05
-0.000255195
8.61545e-05
-0.000352855
0.000120548
-0.000462088
0.000161728
-0.000582213
0.000210091
-0.000712728
0.000266031
-0.000853262
0.00032994
-0.0010035
0.000402199
-0.00116314
0.000483181
-0.0013318
0.000573254
-0.00150897
0.000672786
-0.0016939
0.000782176
-0.00188542
0.000901902
-0.00208154
0.00103252
-0.00227882
0.00117477
-0.00246969
-0.00264585
0.00132828
2.22182e-06
-9.11913e-06
9.11211e-06
-5.07704e-05
2.10606e-05
-0.000110892
3.846e-05
-0.00018753
6.16992e-05
-0.000278435
9.11697e-05
-0.000382325
0.000127265
-0.000498184
0.000170381
-0.000625329
0.000220913
-0.00076326
0.000279254
-0.000911603
0.000345791
-0.00107004
0.000420899
-0.00123825
0.000504945
-0.00141584
0.000598278
-0.0016023
0.000701247
-0.00179687
0.000814217
-0.00199839
0.000937643
-0.00220497
0.00107208
-0.00241325
0.00121845
-0.00261606
-0.00280386
0.00137646
2.39124e-06
-1.15104e-05
9.74195e-06
-5.81211e-05
2.24219e-05
-0.000123572
4.08091e-05
-0.000205917
6.52828e-05
-0.000302908
9.62281e-05
-0.000413271
0.000134034
-0.00053599
0.000179093
-0.000670388
0.000231798
-0.000815965
0.000292538
-0.000972343
0.000361696
-0.0011392
0.000439641
-0.00131619
0.000526728
-0.00150293
0.000623292
-0.00169887
0.000729658
-0.00190324
0.000846153
-0.00211488
0.000973191
-0.00233201
0.0011113
-0.00255136
0.00126162
-0.00276638
-0.00296612
0.00142388
2.56251e-06
-1.40729e-05
1.03779e-05
-6.59365e-05
2.37953e-05
-0.000136989
4.31773e-05
-0.000225299
6.88926e-05
-0.000328624
0.000101319
-0.000445697
0.00014084
-0.000575511
0.000187844
-0.000717392
0.000242718
-0.00087084
0.000305848
-0.00103547
0.00037761
-0.00121096
0.000458367
-0.00139695
0.000548463
-0.00159302
0.000648217
-0.00179862
0.000757929
-0.00201295
0.000877886
-0.00223484
0.00100845
-0.00246257
0.00115009
-0.002693
0.00130415
-0.00292044
-0.00313234
0.00147037
2.73544e-06
-1.68083e-05
1.1019e-05
-7.42201e-05
2.51784e-05
-0.000151148
4.556e-05
-0.000245681
7.25214e-05
-0.000355585
0.000106432
-0.000479607
0.000147668
-0.000616747
0.000196611
-0.000766336
0.000253645
-0.000927874
0.000319148
-0.00110098
0.000393488
-0.0012853
0.000477021
-0.00148048
0.00057008
-0.00168608
0.000672969
-0.00190151
0.000785965
-0.00212594
0.000909318
-0.00235819
0.00104332
-0.00259658
0.00118837
-0.00283805
0.00134596
-0.00307803
-0.00330216
0.00151578
2.9098e-06
-1.97181e-05
1.16642e-05
-8.29744e-05
2.65688e-05
-0.000166053
4.79529e-05
-0.000267065
7.61618e-05
-0.000383794
0.000111555
-0.000515
0.000154501
-0.000659693
0.000205375
-0.000817209
0.000264551
-0.00098705
0.0003324
-0.00116882
0.000409282
-0.00136218
0.000495543
-0.00156674
0.000591504
-0.00178204
0.000697459
-0.00200747
0.000813665
-0.00224215
0.00094034
-0.00248487
0.00107771
-0.00273395
0.00122606
-0.00298639
0.00138699
-0.00323896
-0.00347513
0.00155997
3.08539e-06
-2.28035e-05
1.23124e-05
-9.22014e-05
2.79639e-05
-0.000181704
5.03514e-05
-0.000289453
7.98066e-05
-0.000413249
0.000116678
-0.000551872
0.000161325
-0.00070434
0.000214113
-0.000869997
0.000275406
-0.00104834
0.000345567
-0.00123899
0.000424944
-0.00144156
0.000513871
-0.00165567
0.00061266
-0.00188083
0.000721594
-0.0021164
0.00084092
-0.00236147
0.000970837
-0.00261479
0.00111152
-0.00287463
0.00126311
-0.00313798
0.00142723
-0.00340308
-0.00365076
0.00160285
3.26199e-06
-2.60655e-05
1.29626e-05
-0.000101902
2.93614e-05
-0.000198103
5.27509e-05
-0.000312842
8.34484e-05
-0.000443947
0.00012179
-0.000590213
0.000168123
-0.000750673
0.000222803
-0.000924676
0.000286182
-0.00111172
0.00035861
-0.00131141
0.000440423
-0.00152337
0.000531942
-0.00174719
0.000633467
-0.00198236
0.000745276
-0.00222821
0.000867611
-0.00248381
0.00100068
-0.00274785
0.00114461
-0.00301857
0.00129948
-0.00329285
0.00146672
-0.00357032
-0.00382846
0.00164442
3.43939e-06
-2.95049e-05
1.36138e-05
-0.000112077
3.07587e-05
-0.000215248
5.51468e-05
-0.00033723
8.70795e-05
-0.000475879
0.000126879
-0.000630012
0.00017488
-0.000798674
0.000231424
-0.00098122
0.00029685
-0.00117715
0.000371492
-0.00138606
0.000455671
-0.00160755
0.000549693
-0.00184121
0.000653845
-0.00208651
0.0007684
-0.00234276
0.00089361
-0.00260902
0.00102971
-0.00288395
0.00117687
-0.00316573
0.00133515
-0.00345113
0.00150554
-0.00374072
-0.00400774
0.00168482
3.61732e-06
-3.31222e-05
1.42649e-05
-0.000122724
3.21532e-05
-0.000233136
5.75344e-05
-0.000362611
9.06926e-05
-0.000509038
0.000131934
-0.000671254
0.000181579
-0.000848319
0.000239953
-0.00103959
0.000307379
-0.00124458
0.000384172
-0.00146285
0.000470636
-0.00169401
0.000567058
-0.00193763
0.000673711
-0.00219316
0.00079086
-0.00245991
0.000918776
-0.00273694
0.00105775
-0.00302292
0.0012081
-0.00331608
0.00137012
-0.00361314
0.00154399
-0.00391459
-0.00418878
0.00172503
3.79539e-06
-3.69176e-05
1.49144e-05
-0.000133843
3.35423e-05
-0.000251764
5.9909e-05
-0.000388978
9.42801e-05
-0.000543409
0.000136944
-0.000713918
0.000188205
-0.00089958
0.000248368
-0.00109976
0.00031774
-0.00131395
0.000396614
-0.00154172
0.00048527
-0.00178267
0.000583974
-0.00203633
0.000692979
-0.00230217
0.000812544
-0.00257948
0.000942957
-0.00286735
0.00108459
-0.00316456
0.00123802
-0.00346951
0.00140423
-0.00377935
0.00158374
-0.0040941
-0.00437185
0.00176681
3.92404e-06
-4.08416e-05
1.54552e-05
-0.000145374
3.47554e-05
-0.000271064
6.20334e-05
-0.000416256
9.7536e-05
-0.000578911
0.000141534
-0.000757917
0.000194312
-0.000952358
0.000256158
-0.0011616
0.000327355
-0.00138514
0.000408172
-0.00162254
0.000498864
-0.00187336
0.00059967
-0.00213714
0.000710818
-0.00241332
0.000832553
-0.00270121
0.000965171
-0.00299997
0.00110912
-0.00330852
0.00126524
-0.00362563
0.00143534
-0.00394944
0.00162501
-0.00428377
-0.00461128
0.00186444
4.09729e-06
-4.49389e-05
1.60905e-05
-0.000157367
3.61143e-05
-0.000291088
6.43528e-05
-0.000444495
0.000101031
-0.000615589
0.000146398
-0.000803284
0.000200717
-0.00100668
0.000264253
-0.00122514
0.000337263
-0.00145815
0.000419988
-0.00170526
0.000512652
-0.00196603
0.000615461
-0.00223995
0.000728613
-0.00252647
0.000852321
-0.00282492
0.000986872
-0.00313452
0.00113275
-0.00345439
0.00129088
-0.00378377
0.00146339
-0.00412194
0.00165511
-0.00447549
-0.00483645
0.00188028
4.26966e-06
-4.92086e-05
1.6721e-05
-0.000169819
3.74601e-05
-0.000311827
6.66449e-05
-0.000473679
0.000104477
-0.000653421
0.000151182
-0.000849989
0.000206999
-0.00106249
0.000272167
-0.00129031
0.000346914
-0.0015329
0.00043145
-0.0017898
0.000525961
-0.00206054
0.000630617
-0.0023446
0.000745571
-0.00264142
0.000870999
-0.00295035
0.00100715
-0.00327067
0.00115445
-0.00360169
0.00131377
-0.00394309
0.00148689
-0.00429507
0.00167638
-0.00466498
-0.00504999
0.00188992
4.44071e-06
-5.36493e-05
1.73453e-05
-0.000182723
3.879e-05
-0.000333272
6.89049e-05
-0.000503794
0.000107866
-0.000692382
0.000155874
-0.000897997
0.000213142
-0.00111976
0.000279879
-0.00135704
0.000356281
-0.0016093
0.000442521
-0.00187604
0.000538747
-0.00215676
0.00064508
-0.00245094
0.000761627
-0.00275797
0.000888504
-0.00307722
0.00102589
-0.00340805
0.00117412
-0.00374992
0.00133383
-0.0041028
0.00150627
-0.0044675
0.00169218
-0.0048509
-0.00525293
0.00189513
4.61007e-06
-5.82594e-05
1.79623e-05
-0.000196076
4.01014e-05
-0.000355411
7.11281e-05
-0.000534821
0.000111191
-0.000732445
0.000160464
-0.00094727
0.000219131
-0.00117843
0.000287368
-0.00142528
0.000365336
-0.00168727
0.000453168
-0.00196387
0.000550967
-0.00225456
0.000658801
-0.00255877
0.00077672
-0.00287589
0.000904768
-0.00320527
0.00104303
-0.00354631
0.0011917
-0.00389859
0.00135115
-0.00426225
0.001522
-0.00463835
0.00170381
-0.00503271
-0.00544665
0.00189753
4.77746e-06
-6.30368e-05
1.85709e-05
-0.000209869
4.13917e-05
-0.000378232
7.33098e-05
-0.000566739
0.000114445
-0.000773581
0.000164941
-0.000997767
0.00022495
-0.00123844
0.000294613
-0.00149494
0.000374053
-0.00176671
0.000463358
-0.00205318
0.00056258
-0.00235379
0.000671732
-0.00266792
0.000790795
-0.00299495
0.000919734
-0.00333421
0.00105853
-0.00368511
0.00120719
-0.00404725
0.00136581
-0.00442087
0.00153447
-0.00480701
0.00171193
-0.00521017
-0.00563236
0.00189764
4.94261e-06
-6.79794e-05
1.91698e-05
-0.000224096
4.26583e-05
-0.00040172
7.54455e-05
-0.000599526
0.00011762
-0.000815755
0.000169294
-0.00104944
0.000230584
-0.00129973
0.000301595
-0.00156596
0.000382406
-0.00184752
0.000473058
-0.00214383
0.000573549
-0.00245428
0.000683829
-0.0027782
0.000803806
-0.00311493
0.000933356
-0.00346376
0.00107234
-0.00382408
0.0012206
-0.00419551
0.00137793
-0.0045782
0.00154397
-0.00497305
0.00171703
-0.00538323
-0.00581099
0.00189566
5.10525e-06
-7.30847e-05
1.9758e-05
-0.000238749
4.38987e-05
-0.000425861
7.75304e-05
-0.000633158
0.000120709
-0.000858934
0.000173511
-0.00110224
0.000236018
-0.00136223
0.000308293
-0.00163823
0.00039037
-0.0019296
0.000482239
-0.0022357
0.000583839
-0.00255588
0.000695053
-0.00288942
0.000815712
-0.00323559
0.000945598
-0.00359365
0.00108444
-0.00396293
0.00123193
-0.004343
0.0013876
-0.00473387
0.00155074
-0.00513619
0.00171939
-0.00555188
-0.00598327
0.00189167
5.26512e-06
-7.83498e-05
2.03344e-05
-0.000253818
4.51104e-05
-0.000450637
7.95599e-05
-0.000667607
0.000123704
-0.000903077
0.000177583
-0.00115612
0.000241238
-0.00142589
0.000314689
-0.00171168
0.000397922
-0.00201283
0.000490872
-0.00232865
0.000593416
-0.00265842
0.000705368
-0.00300137
0.000826478
-0.0033567
0.00095643
-0.0037236
0.00109484
-0.00410134
0.00124122
-0.00448938
0.00139491
-0.00488756
0.00155493
-0.00529621
0.0017192
-0.00571615
-0.00614971
0.00188565
5.42195e-06
-8.37718e-05
2.08978e-05
-0.000269294
4.62907e-05
-0.00047603
8.15295e-05
-0.000702846
0.000126598
-0.000948146
0.000181498
-0.00121102
0.000246229
-0.00149062
0.000320765
-0.00178622
0.000405039
-0.0020971
0.00049893
-0.00242254
0.00060225
-0.00276174
0.000714742
-0.00311386
0.000836072
-0.00347803
0.000965829
-0.00385335
0.00110351
-0.00423902
0.00124849
-0.00463436
0.00139993
-0.005039
0.00155666
-0.00545294
0.0017166
-0.00587609
-0.00631069
0.00187757
5.57549e-06
-8.93472e-05
2.14471e-05
-0.000285166
4.74371e-05
-0.00050202
8.34345e-05
-0.000738844
0.000129384
-0.000994095
0.000185247
-0.00126688
0.000250978
-0.00155635
0.000326502
-0.00186174
0.000411699
-0.0021823
0.000506387
-0.00251723
0.000610313
-0.00286567
0.000723145
-0.0032267
0.000844468
-0.00359935
0.000973776
-0.00398266
0.00111046
-0.0043757
0.00125376
-0.00477767
0.00140272
-0.00518796
0.00155603
-0.00560625
0.00171164
-0.00603171
-0.00646645
0.0018674
5.72545e-06
-9.50727e-05
2.19812e-05
-0.000301422
4.8547e-05
-0.000528586
8.52704e-05
-0.000775567
0.000132055
-0.00104088
0.000188819
-0.00132365
0.00025547
-0.001623
0.000331883
-0.00193816
0.00041788
-0.0022683
0.000513219
-0.00261257
0.000617578
-0.00297002
0.000730551
-0.00333967
0.000851642
-0.00372044
0.000980256
-0.00411128
0.00111568
-0.00451113
0.00125706
-0.00491905
0.00140332
-0.00533421
0.00155308
-0.00575601
0.00170437
-0.006183
-0.00661718
0.0018551
5.87155e-06
-0.000100944
2.2499e-05
-0.000318049
4.96179e-05
-0.000555704
8.70326e-05
-0.000812982
0.000134604
-0.00108845
0.000192204
-0.00138125
0.000259693
-0.00169049
0.000336891
-0.00201535
0.000423564
-0.00235497
0.000519404
-0.00270841
0.000624022
-0.00307464
0.000736938
-0.00345258
0.000857576
-0.00384108
0.000985257
-0.00423896
0.00111918
-0.00464505
0.0012584
-0.00505827
0.00140177
-0.00547758
0.00154787
-0.0059021
0.00169482
-0.00632995
-0.00676299
0.00184062
6.01352e-06
-0.000106958
2.29993e-05
-0.000335035
5.06472e-05
-0.000583352
8.87167e-05
-0.000851051
0.000137024
-0.00113676
0.000195393
-0.00143962
0.000263633
-0.00175873
0.000341511
-0.00209323
0.00042873
-0.00244219
0.00052492
-0.0028046
0.000629622
-0.00317934
0.000742284
-0.00356525
0.000862252
-0.00396105
0.00098877
-0.00436547
0.00112096
-0.00477724
0.00125781
-0.00519512
0.0013981
-0.00561788
0.00154043
-0.00604443
0.001683
-0.00647252
-0.00690393
0.00182394
6.15106e-06
-0.000113109
2.34809e-05
-0.000352365
5.16324e-05
-0.000611504
9.03182e-05
-0.000889737
0.000139307
-0.00118575
0.000198376
-0.00149869
0.000267279
-0.00182763
0.000345727
-0.00217168
0.000433362
-0.00252983
0.000529748
-0.00290098
0.000634359
-0.00328395
0.00074657
-0.00367746
0.000865656
-0.00408014
0.000990789
-0.00449061
0.00112102
-0.00490748
0.00125529
-0.00532938
0.00139235
-0.00575494
0.00153079
-0.00618286
0.00166894
-0.00661068
-0.00704003
0.00180504
6.28387e-06
-0.000119393
2.39427e-05
-0.000370023
5.25709e-05
-0.000640132
9.18326e-05
-0.000928999
0.000141449
-0.00123536
0.000201143
-0.00155838
0.000270618
-0.00189711
0.000349524
-0.00225059
0.000437442
-0.00261774
0.00053387
-0.00299741
0.000638214
-0.0033883
0.00074978
-0.00378902
0.000867777
-0.00419813
0.000991309
-0.00461414
0.00111938
-0.00503554
0.00125087
-0.00546087
0.00138453
-0.0058886
0.00151897
-0.00631731
0.00165265
-0.00674436
-0.0071713
0.00178392
6.41165e-06
-0.000125804
2.43836e-05
-0.000387995
5.34602e-05
-0.000669208
9.32556e-05
-0.000968794
0.00014344
-0.00128555
0.000203686
-0.00161863
0.000273638
-0.00196706
0.000352888
-0.00232984
0.000440954
-0.00270581
0.000537269
-0.00309373
0.000641171
-0.0034922
0.000751902
-0.00389975
0.000868605
-0.00431484
0.000990329
-0.00473586
0.00111603
-0.00516124
0.00124456
-0.0055894
0.00137467
-0.00601871
0.00150501
-0.00644765
0.00163416
-0.0068735
-0.00729771
0.00176057
6.5341e-06
-0.000132338
2.48024e-05
-0.000406264
5.42978e-05
-0.000698704
9.45829e-05
-0.00100908
0.000145277
-0.00133624
0.000205996
-0.00167935
0.000276329
-0.00203739
0.000355807
-0.00240931
0.000443885
-0.00279389
0.00053993
-0.00318977
0.000643217
-0.00359549
0.000752923
-0.00400946
0.000868135
-0.00443005
0.000987851
-0.00485558
0.00111099
-0.00528438
0.00123638
-0.00571479
0.0013628
-0.00614513
0.00148894
-0.0065738
0.00161348
-0.00699804
-0.00741925
0.00173502
6.6509e-06
-0.000138989
2.5198e-05
-0.000424811
5.50811e-05
-0.000728587
9.58103e-05
-0.00104981
0.000146951
-0.00138738
0.000208064
-0.00174046
0.00027868
-0.00210801
0.000358267
-0.0024889
0.000446219
-0.00288184
0.000541839
-0.00328539
0.000644338
-0.00369799
0.000752835
-0.00411796
0.000866363
-0.00454358
0.000983879
-0.00497309
0.00110427
-0.00540477
0.00122636
-0.00583689
0.00134895
-0.00626772
0.00147079
-0.00669563
0.00159066
-0.00711791
-0.00753587
0.00170729
6.76174e-06
-0.000145751
2.55691e-05
-0.000443618
5.58078e-05
-0.000758826
9.69334e-05
-0.00109093
0.000148457
-0.00143891
0.000209882
-0.00180189
0.00028068
-0.00217881
0.000360258
-0.00256848
0.000447946
-0.00296953
0.000542984
-0.00338043
0.000644525
-0.00379953
0.000751631
-0.00422506
0.000863289
-0.00465523
0.000978418
-0.00508822
0.00109589
-0.00552224
0.00121453
-0.00595553
0.00133316
-0.00638635
0.0014506
-0.00681307
0.00156573
-0.00723305
-0.00764755
0.00167741
6.86631e-06
-0.000152617