/*--------------------------------*- C++ -*----------------------------------*\
  =========                 |
  \\      /  F ield         | OpenFOAM: The Open Source CFD Toolbox
   \\    /   O peration     | Website:  https://openfoam.org
    \\  /    A nd           | Version:  7
     \\/     M anipulation  |
\*---------------------------------------------------------------------------*/
FoamFile
{
    version     2.0;
    format      ascii;
    class       volVectorField;
    location    "15";
    object      U;
}
// * * * * * * * * * * * * * * * * * * * * * * * * * * * * * * * * * * * * * //

dimensions      [0 1 -1 0 0 0 0];

internalField   nonuniform List<vector> 
42000
(
(-0.000304779 0.000116207 1.8314e-21)
(-0.00135492 0.000182266 -1.50805e-21)
(-0.00261716 0.000144749 1.15735e-22)
(-0.00324579 3.61637e-05 8.79487e-22)
(-0.00303961 -0.000118657 -2.26668e-21)
(-0.00177827 -0.000302845 -1.77666e-21)
(0.000609234 -0.000504207 3.66787e-21)
(0.0041515 -0.000714094 1.99112e-22)
(0.00883107 -0.000926191 2.21016e-21)
(0.0146057 -0.00113573 7.77474e-23)
(0.0214143 -0.00133887 3.9037e-22)
(0.0291818 -0.00153214 -9.0246e-23)
(0.0378205 -0.00171208 1.18917e-22)
(0.0472296 -0.00187484 1.86763e-21)
(0.0572925 -0.00201593 1.17777e-21)
(0.0678745 -0.00213003 -2.43726e-22)
(0.078813 -0.00221099 4.37189e-22)
(0.089942 -0.00225228 -1.74072e-21)
(0.100981 -0.00224475 -1.64272e-22)
(0.111892 -0.00219836 1.99313e-21)
(-0.000312206 0.000347369 3.60647e-21)
(-0.00135568 0.000544041 -3.21391e-21)
(-0.00259164 0.000430721 -3.89467e-22)
(-0.00318219 0.000104611 -3.37205e-21)
(-0.00292826 -0.000359853 7.15049e-21)
(-0.0016124 -0.000912172 -7.85791e-21)
(0.000834838 -0.00151582 -8.22195e-21)
(0.00444073 -0.00214491 1.36663e-21)
(0.00918693 -0.00278053 -3.64275e-21)
(0.0150305 -0.00340841 -1.6861e-21)
(0.02191 -0.00401702 5.32941e-21)
(0.0297499 -0.00459603 -4.45291e-21)
(0.0384623 -0.00513504 2.14792e-21)
(0.0479464 -0.00562254 1.13849e-21)
(0.0580852 -0.00604504 -7.46397e-21)
(0.0687438 -0.00638661 -3.85705e-21)
(0.0797594 -0.00662876 -1.21716e-21)
(0.0909665 -0.00675188 -6.66722e-21)
(0.102076 -0.00672861 4.48527e-21)
(0.113084 -0.00658777 -7.64125e-22)
(-0.000326878 0.000574863 5.06868e-21)
(-0.0013568 0.000897595 9.68976e-21)
(-0.00254007 0.000706024 -6.76724e-21)
(-0.00305438 0.000161263 -4.79891e-21)
(-0.0027049 -0.000612911 -1.74213e-21)
(-0.00128 -0.00153268 1.1029e-21)
(0.00128665 -0.00253735 1.32547e-20)
(0.00501973 -0.00358396 -1.33579e-21)
(0.00989911 -0.0046411 6.15089e-21)
(0.0158806 -0.00568511 -1.34446e-21)
(0.0229016 -0.00669684 6.57931e-21)
(0.0308862 -0.00765915 2.59876e-21)
(0.039746 -0.0085548 5.6502e-21)
(0.0493796 -0.00936465 4.02541e-21)
(0.05967 -0.0100663 1.76566e-20)
(0.0704819 -0.0106331 -1.47793e-22)
(0.0816514 -0.0110343 -4.6095e-21)
(0.0930143 -0.011237 -2.59033e-21)
(0.104265 -0.0111959 -6.37196e-21)
(0.115468 -0.0109555 1.53566e-20)
(-0.000348442 0.00079632 -7.60419e-22)
(-0.00135745 0.00123752 1.49484e-21)
(-0.00246137 0.00096359 4.56075e-21)
(-0.0028611 0.000198284 1.17838e-20)
(-0.00236826 -0.000885728 -7.58495e-21)
(-0.000779817 -0.00217181 6.58315e-21)
(0.00196589 -0.00357542 -1.67088e-20)
(0.00588961 -0.00503675 1.33397e-21)
(0.0109686 -0.00651209 -1.5376e-20)
(0.0171566 -0.00796852 -1.00043e-20)
(0.0243898 -0.00937943 -1.72247e-20)
(0.0325911 -0.010721 -2.12029e-21)
(0.0416715 -0.0119692 -1.6756e-20)
(0.0515291 -0.0130975 -1.16507e-21)
(0.0620465 -0.0140744 2.5351e-21)
(0.0730876 -0.0148628 -8.77521e-24)
(0.0844873 -0.0154195 1.12372e-20)
(0.0960834 -0.0156979 6.7985e-21)
(0.107546 -0.0156354 -1.17758e-20)
(0.119039 -0.0152872 -4.94039e-21)
(-0.000376373 0.0010094 -6.7044e-21)
(-0.00135642 0.00155847 -5.66173e-21)
(-0.00235391 0.00119647 -4.10876e-21)
(-0.00260054 0.000207984 -8.98585e-21)
(-0.00191641 -0.00118604 5.98581e-21)
(-0.00010992 -0.00283684 3.3026e-21)
(0.00287437 -0.00463646 5.08813e-21)
(0.00705201 -0.00650859 -9.82651e-21)
(0.0123967 -0.00839748 2.33012e-20)
(0.0188597 -0.0102612 2.49557e-20)
(0.0263752 -0.0120657 2.73743e-21)
(0.0348649 -0.0137809 5.32416e-21)
(0.0442388 -0.015376 -1.01467e-20)
(0.0543943 -0.0168171 1.41133e-20)
(0.0652133 -0.018064 -3.16508e-21)
(0.0765592 -0.0190689 -7.83265e-21)
(0.0882648 -0.0197761 -5.00798e-21)
(0.100171 -0.0201247 1.1264e-20)
(0.111913 -0.0200363 5.96145e-21)
(0.123793 -0.0195683 -1.2082e-20)
(-0.000409978 0.0012118 6.6914e-21)
(-0.0013521 0.00185524 1.11243e-20)
(-0.00221555 0.00139786 -8.70494e-22)
(-0.00227023 0.000182849 -1.66459e-20)
(-0.00134677 -0.00152137 5.38928e-22)
(0.000732226 -0.00353485 -2.74524e-21)
(0.0040145 -0.0057267 -3.72146e-21)
(0.00850912 -0.00800459 1.36935e-21)
(0.0141855 -0.010301 5.84664e-21)
(0.0209915 -0.0125653 -1.02568e-20)
(0.028859 -0.0147565 -2.65721e-20)
(0.0377082 -0.0168379 2.43037e-20)
(0.0474478 -0.0187726 1.50682e-20)
(0.0579744 -0.0205193 -1.86394e-20)
(0.069169 -0.0220293 -1.78113e-20)
(0.0808943 -0.0232442 -8.31775e-22)
(0.0929805 -0.0240955 7.22922e-21)
(0.105272 -0.0245077 -5.80741e-21)
(0.117363 -0.0243871 1.38252e-21)
(0.129722 -0.0237845 1.99434e-20)
(-0.000448402 0.00140129 -1.73364e-20)
(-0.00134251 0.00212274 -6.53745e-21)
(-0.00204365 0.00156115 2.099e-20)
(-0.00186714 0.000115594 3.06512e-20)
(-0.000656168 -0.00189903 -1.37444e-20)
(0.00174977 -0.00427263 -1.55666e-20)
(0.00538925 -0.0068521 -3.75749e-21)
(0.0102636 -0.00952958 1.79314e-20)
(0.0163371 -0.0122263 5.30847e-22)
(0.0235537 -0.0148831 6.63605e-22)
(0.0318425 -0.0174522 1.21611e-20)
(0.0411216 -0.019891 -5.96088e-21)
(0.0512984 -0.0221563 1.82593e-20)
(0.0622684 -0.0241999 4.60152e-21)
(0.0739117 -0.0259646 -1.86285e-20)
(0.08609 -0.0273814 2.01944e-20)
(0.0986303 -0.0283691 5.12216e-21)
(0.111381 -0.0288367 2.23983e-20)
(0.123887 -0.0286766 1.21778e-20)
(0.136817 -0.0279212 -3.62891e-20)
(-0.000490629 0.0015757 2.68582e-22)
(-0.00132527 0.00235606 1.28182e-20)
(-0.00183503 0.00167998 -3.85778e-21)
(-0.00138767 -7.95826e-07 -3.04163e-20)
(0.000159169 -0.002326 2.92418e-20)
(0.00294645 -0.00505671 -3.29007e-22)
(0.00700217 -0.00801832 2.38249e-20)
(0.0123188 -0.0110881 -1.66563e-20)
(0.0188544 -0.0141764 -2.68324e-21)
(0.0265486 -0.0172161 5.65916e-21)
(0.0353272 -0.0201529 9.37217e-21)
(0.0451059 -0.0229386 -2.11651e-20)
(0.0557904 -0.025524 -6.69102e-21)
(0.0672752 -0.0278542 1.46542e-20)
(0.0794392 -0.0298637 2.86584e-20)
(0.0921426 -0.0314729 -8.02839e-21)
(0.105209 -0.032588 -1.39229e-20)
(0.118492 -0.0331014 -5.38736e-20)
(0.131479 -0.0328934 -7.1753e-21)
(0.145069 -0.0319639 4.75781e-21)
(-0.000535487 0.00173295 5.71825e-22)
(-0.00129766 0.00255049 -3.62348e-21)
(-0.00158606 0.00174825 -1.20566e-20)
(-0.00082764 -0.000173015 2.09181e-20)
(0.0011036 -0.00280892 -4.1818e-20)
(0.0043266 -0.00589321 2.1674e-20)
(0.00885735 -0.00923063 -2.58597e-20)
(0.0146782 -0.0126843 -1.73873e-20)
(0.0217406 -0.0161543 -3.6214e-20)
(0.0299787 -0.0195658 3.35347e-21)
(0.0393147 -0.0228586 -1.64042e-20)
(0.0496618 -0.0259788 9.02845e-21)
(0.0609237 -0.0288721 -2.24351e-20)
(0.0729934 -0.031477 2.68557e-20)
(0.0857484 -0.0337199 1.68105e-21)
(0.0990479 -0.0355108 -3.72609e-20)
(0.112711 -0.036743 -2.06896e-20)
(0.126598 -0.0372913 2.49595e-21)
(0.140128 -0.0370261 -2.11018e-20)
(0.154465 -0.0358981 -5.797e-21)
(-0.000581657 0.00187106 -2.46566e-21)
(-0.0012566 0.00270154 1.04415e-20)
(-0.00129262 0.00176015 -9.74434e-21)
(-0.000182355 -0.000407386 -2.54191e-20)
(0.00218206 -0.00335404 3.5332e-20)
(0.00589508 -0.00678785 -2.21075e-20)
(0.0109594 -0.0104939 1.13426e-20)
(0.0173462 -0.0143219 4.5353e-20)
(0.0249991 -0.0181623 1.59821e-20)
(0.0338467 -0.021933 1.65772e-20)
(0.0438071 -0.0255684 3.81392e-20)
(0.0547903 -0.0290096 -1.58006e-20)
(0.0666979 -0.0321969 1.29912e-20)
(0.0794212 -0.0350629 -5.00624e-20)
(0.0928364 -0.0375263 1.40428e-20)
(0.106801 -0.0394867 5.59445e-21)
(0.12113 -0.0408245 5.18377e-20)
(0.135689 -0.0413955 3.05036e-20)
(0.149823 -0.0410628 2.85634e-21)
(0.164991 -0.0397094 1.0155e-20)
(-0.000627676 0.00198813 1.5062e-20)
(-0.00119866 0.00280499 -7.01537e-20)
(-0.000950134 0.00171026 4.4688e-20)
(0.000553402 -0.00070982 -1.31718e-20)
(0.00339999 -0.00396717 -2.43032e-20)
(0.00765728 -0.00774588 3.99686e-20)
(0.0133134 -0.0118124 1.93984e-21)
(0.0203271 -0.0160042 -1.74376e-20)
(0.0286339 -0.0202023 1.17854e-20)
(0.0381558 -0.0243184 -2.42712e-20)
(0.0488064 -0.0282814 -7.23774e-20)
(0.0604922 -0.0320281 -1.87204e-20)
(0.0731125 -0.035494 -8.87747e-21)
(0.0865567 -0.0386061 2.75122e-20)
(0.100699 -0.0412755 -4.24922e-20)
(0.115396 -0.0433919 1.03165e-20)
(0.130457 -0.0448225 -1.52703e-21)
(0.145755 -0.0454031 -1.75551e-20)
(0.160552 -0.0449917 1.18083e-20)
(0.17663 -0.0433831 -2.80865e-20)
(-0.000671948 0.00208243 -5.65996e-22)
(-0.00112013 0.00285687 5.10093e-20)
(-0.000553627 0.00159352 -2.43813e-20)
(0.00138533 -0.00108578 -9.17256e-23)
(0.00476336 -0.00465359 1.31042e-20)
(0.00961909 -0.00877202 -6.95357e-20)
(0.0159248 -0.0131901 2.37099e-20)
(0.0236261 -0.0177337 -1.01988e-20)
(0.0326491 -0.0222758 -1.79529e-20)
(0.0429092 -0.0267217 5.81536e-20)
(0.0543146 -0.0309959 2.65122e-20)
(0.0667684 -0.0350311 5.85396e-20)
(0.0801669 -0.0387585 1.48689e-20)
(0.0943974 -0.0421 -2.07969e-20)
(0.109333 -0.0449595 2.59997e-20)
(0.124826 -0.047217 2.35207e-20)
(0.140683 -0.0487267 -1.01538e-21)
(0.156784 -0.0493026 -1.54947e-20)
(0.1723 -0.0488008 4.03336e-20)
(0.189365 -0.046905 1.20375e-20)
(-0.000712752 0.00215231 2.06741e-20)
(-0.00101697 0.00285352 -4.06221e-20)
(-9.77068e-05 0.0014053 -2.35725e-20)
(0.00231959 -0.00154024 6.54394e-20)
(0.0062786 -0.00541806 -2.60853e-21)
(0.0117869 -0.00987044 5.81222e-20)
(0.0187998 -0.0146302 -2.9972e-20)
(0.0272485 -0.0195128 9.09511e-21)
(0.0370494 -0.0243835 7.15175e-20)
(0.0481103 -0.0291424 -5.9142e-20)
(0.0603341 -0.0337099 1.89741e-20)
(0.0736196 -0.0380149 -4.74113e-20)
(0.0878601 -0.0419851 3.06704e-20)
(0.102941 -0.0455376 -2.54983e-20)
(0.118732 -0.04857 -3.30159e-20)
(0.135085 -0.0509524 -1.07778e-20)
(0.1518 -0.0525261 -3.11916e-20)
(0.168765 -0.0530822 3.19992e-20)
(0.185053 -0.0524779 -8.35776e-20)
(0.203175 -0.0502605 3.29483e-20)
(-0.000748253 0.00219628 -2.59926e-20)
(-0.000884857 0.00279162 6.24871e-20)
(0.000423407 0.00114138 2.67271e-20)
(0.00336275 -0.00207764 -5.29408e-20)
(0.00795259 -0.00626478 1.31433e-21)
(0.0141674 -0.0110447 7.99495e-21)
(0.0219445 -0.0161354 -1.47378e-21)
(0.0311999 -0.0213429 -5.35857e-20)
(0.0418394 -0.0265257 -8.49722e-20)
(0.0537629 -0.0315794 2.58215e-20)
(0.0668672 -0.0364204 3.5663e-20)
(0.0810466 -0.0409751 1.59417e-20)
(0.0961911 -0.0451678 -4.89027e-20)
(0.112183 -0.0489115 1.7119e-20)
(0.128891 -0.0520978 2.51331e-20)
(0.146164 -0.0545876 -2.55697e-20)
(0.163795 -0.0562095 -6.46801e-21)
(0.181683 -0.0567298 2.46914e-20)
(0.198792 -0.0560105 5.80487e-20)
(0.218039 -0.0534354 -2.53833e-20)
(-0.000776495 0.00221298 -1.6576e-20)
(-0.000719254 0.00266824 -1.10517e-21)
(0.00101583 0.000798025 -4.28052e-20)
(0.00452181 -0.00270186 6.16463e-20)
(0.00979259 -0.0071973 1.16812e-20)
(0.0167678 -0.0122977 -3.269e-20)
(0.0253658 -0.0177076 3.85879e-20)
(0.0354863 -0.0232249 2.51139e-20)
(0.0470242 -0.028702 5.22229e-21)
(0.0598705 -0.0340306 -8.97127e-21)
(0.073916 -0.0391243 -3.69131e-21)
(0.0890499 -0.0439067 2.6106e-20)
(0.105159 -0.0483 6.7047e-20)
(0.122121 -0.0522134 5.37259e-20)
(0.139804 -0.0555333 -5.01589e-20)
(0.158054 -0.0581118 -3.52779e-20)
(0.176656 -0.059765 3.31603e-20)
(0.195522 -0.0602327 -5.2783e-20)
(0.213499 -0.0593859 1.02924e-21)
(0.233933 -0.0564156 -2.26525e-20)
(-0.000795412 0.00220118 4.28434e-20)
(-0.000515351 0.00248075 -3.53161e-20)
(0.00168597 0.000372042 2.21814e-20)
(0.00580408 -0.00341617 -3.48431e-20)
(0.0118063 -0.00821851 -2.63379e-20)
(0.0195956 -0.0136316 2.25339e-20)
(0.0290705 -0.0193481 -6.55402e-20)
(0.0401139 -0.0251588 4.82815e-20)
(0.0526087 -0.0309113 -2.7646e-20)
(0.0664371 -0.0364936 -9.61612e-22)
(0.0814828 -0.0418173 -2.76757e-20)
(0.0976299 -0.0468043 -2.95885e-20)
(0.114761 -0.0513745 -6.72089e-20)
(0.132751 -0.0554346 -4.51142e-20)
(0.151464 -0.0588662 6.37746e-20)
(0.170745 -0.0615134 1.52112e-20)
(0.190371 -0.0631802 1.42537e-20)
(0.210266 -0.0635781 3.87476e-20)
(0.229152 -0.0625914 1.24753e-20)
(0.25083 -0.0591868 -1.31319e-20)
(-0.000802855 0.00215988 -2.52542e-20)
(-0.000268119 0.00222691 2.16786e-20)
(0.00244053 -0.000139251 1.95691e-20)
(0.00721723 -0.00422322 3.22208e-22)
(0.0140015 -0.00933064 6.68234e-20)
(0.0226586 -0.015048 -1.08281e-20)
(0.033066 -0.0210575 1.73099e-20)
(0.045089 -0.0271442 2.40294e-20)
(0.0585983 -0.0331516 -3.4151e-21)
(0.0734663 -0.0389652 3.79262e-20)
(0.0895697 -0.0444949 1.20873e-22)
(0.106787 -0.0496614 -4.62868e-20)
(0.124995 -0.0543834 -1.65998e-20)
(0.144067 -0.0585656 4.10195e-20)
(0.163864 -0.0620857 -2.36133e-20)
(0.184226 -0.0647802 1.90905e-20)
(0.204924 -0.066442 1.75004e-20)
(0.225895 -0.0667524 -4.84016e-20)
(0.245731 -0.0656138 1.46824e-20)
(0.268703 -0.0617354 8.71292e-20)
(-0.000796615 0.0020882 1.94818e-20)
(2.76514e-05 0.00190484 -1.35842e-22)
(0.00328649 -0.000737988 -7.29219e-21)
(0.00876918 -0.00512499 1.31464e-21)
(0.0163867 -0.0105352 6.16552e-21)
(0.0259648 -0.0165476 -2.98062e-20)
(0.0373597 -0.0228355 -9.12337e-21)
(0.0504182 -0.0291797 -6.65165e-20)
(0.0649981 -0.0354203 6.75745e-20)
(0.0809619 -0.0414414 -1.03737e-20)
(0.0981784 -0.0471516 1.03755e-20)
(0.11652 -0.0524712 1.06902e-20)
(0.135859 -0.0573183 6.36879e-21)
(0.156065 -0.0615963 -6.45638e-20)
(0.176994 -0.0651801 -3.71837e-20)
(0.198485 -0.0678995 5.02005e-20)
(0.2203 -0.0695368 -6.90902e-20)
(0.242389 -0.0697417 1.19379e-20)
(0.263209 -0.0684398 -7.58991e-20)
(0.28752 -0.0640475 -5.83459e-20)
(-0.000774402 0.00198545 2.90852e-20)
(0.000377325 0.00151314 -1.71063e-20)
(0.00423102 -0.00142573 -3.404e-20)
(0.0104681 -0.0061228 1.27573e-20)
(0.0189701 -0.0118328 -1.26379e-19)
(0.0295224 -0.0181302 7.00037e-20)
(0.0419591 -0.024681 8.86908e-20)
(0.0561079 -0.031263 5.36525e-20)
(0.0718133 -0.0377142 2.53745e-20)
(0.0889274 -0.0439175 1.55091e-20)
(0.107311 -0.0497814 -2.09001e-20)
(0.126829 -0.0552261 -1.13071e-20)
(0.14735 -0.0601701 -6.34987e-20)
(0.168738 -0.0645161 8.57168e-20)
(0.190845 -0.0681373 3.1039e-20)
(0.213509 -0.0708578 -6.77391e-20)
(0.23648 -0.0724505 1.53432e-20)
(0.259727 -0.0725316 2.39659e-20)
(0.281562 -0.0710558 6.55546e-20)
(0.307251 -0.0661098 9.88721e-21)
(-0.000733866 0.00185109 -6.65881e-20)
(0.000786407 0.0010508 -5.2929e-20)
(0.00528147 -0.00220345 -6.40496e-20)
(0.0123223 -0.00721724 2.05443e-20)
(0.0217605 -0.0132236 4.4656e-20)
(0.0333399 -0.0197951 4.16983e-21)
(0.0468719 -0.0265923 -9.01341e-20)
(0.0621647 -0.0333914 -5.6518e-20)
(0.0790491 -0.040029 -8.78602e-20)
(0.0973661 -0.046388 -4.49191e-20)
(0.116968 -0.0523773 2.45958e-20)
(0.137713 -0.0579179 5.18237e-20)
(0.159464 -0.0629288 9.38368e-20)
(0.182079 -0.0673137 -3.69873e-20)
(0.205407 -0.0709445 4.27426e-20)
(0.229283 -0.073641 -3.487e-20)
(0.253447 -0.0751682 -1.98849e-21)
(0.277885 -0.0751073 -1.90683e-20)
(0.30076 -0.073448 6.14454e-21)
(0.327859 -0.0679093 2.29486e-20)
(-0.000672608 0.00168476 3.73249e-20)
(0.00126051 0.000517255 6.01697e-20)
(0.00644533 -0.00307151 2.87722e-20)
(0.0143403 -0.00840819 -1.91346e-20)
(0.0247666 -0.0147066 4.69204e-20)
(0.0374257 -0.0215405 1.75917e-20)
(0.0521059 -0.0285665 -5.61727e-21)
(0.0685952 -0.0355608 1.7691e-20)
(0.0867105 -0.0423597 5.78287e-20)
(0.106281 -0.0488468 -2.38437e-20)
(0.127151 -0.054932 -4.49187e-20)
(0.14917 -0.0605375 -5.95599e-20)
(0.172195 -0.0655843 -7.66514e-20)
(0.19608 -0.0699771 3.78087e-20)
(0.220669 -0.0735883 8.91939e-21)
(0.245791 -0.0762346 4.44884e-20)
(0.27118 -0.0776745 4.22709e-20)
(0.296837 -0.0774533 -5.78865e-20)
(0.320775 -0.0756025 -1.10755e-20)
(0.349308 -0.0694331 7.18751e-20)
(-0.000588193 0.00148629 1.48647e-20)
(0.00180534 -8.76305e-05 -9.2674e-21)
(0.00773022 -0.00402966 7.72332e-20)
(0.0165308 -0.00969479 -1.09565e-19)
(0.0279972 -0.0162803 -7.50353e-20)
(0.0417883 -0.0233638 -6.0587e-20)
(0.0576685 -0.0306002 3.15434e-20)
(0.0754057 -0.0377667 2.80637e-20)
(0.094802 -0.0447006 -4.22593e-21)
(0.115676 -0.0512868 1.69335e-20)
(0.13786 -0.057437 4.61239e-20)
(0.161199 -0.0630755 1.134e-19)
(0.18554 -0.0681255 2.1918e-20)
(0.210733 -0.0724939 -2.54264e-20)
(0.236617 -0.0760548 6.61957e-21)
(0.263017 -0.0786233 3.35752e-20)
(0.289657 -0.0799534 5.0268e-20)
(0.316557 -0.0795537 4.88441e-20)
(0.341573 -0.077505 2.98895e-20)
(0.371561 -0.0706687 -1.28829e-20)
(-0.000478161 0.0012557 -1.34607e-20)
(0.00242666 -0.000763538 -9.59418e-20)
(0.00914377 -0.00507702 -1.23896e-19)
(0.0189022 -0.0110754 1.00466e-19)
(0.0314612 -0.017942 2.51753e-20)
(0.046436 -0.0252616 1.07945e-19)
(0.0635673 -0.0326888 -6.52764e-20)
(0.0826023 -0.0400035 -3.47805e-20)
(0.103328 -0.0470449 -1.57548e-20)
(0.125551 -0.0537003 -6.7056e-21)
(0.149095 -0.0598835 -9.92731e-21)
(0.173795 -0.0655217 -1.14834e-19)
(0.199492 -0.0705408 9.19171e-21)
(0.226029 -0.0748512 -1.49872e-20)
(0.253237 -0.0783297 -5.86637e-21)
(0.280942 -0.0807914 -2.28497e-20)
(0.308854 -0.0819885 -8.31089e-20)
(0.337015 -0.0813922 2.11698e-20)
(0.363122 -0.079141 -5.95343e-20)
(0.394575 -0.0716041 -2.49964e-21)
(-0.000340035 0.000993184 5.38967e-20)
(0.00313024 -0.0015097 9.93025e-20)
(0.0106937 -0.00621207 1.33808e-19)
(0.0214634 -0.0125477 -8.97543e-20)
(0.0351673 -0.0196886 -2.56227e-20)
(0.0513772 -0.0272296 -1.22918e-19)
(0.0698097 -0.034827 1.30986e-19)
(0.0901909 -0.0422649 1.03006e-20)
(0.112293 -0.0493853 1.44587e-20)
(0.13591 -0.0560787 -1.50145e-20)
(0.160855 -0.0622619 -4.40788e-20)
(0.186955 -0.0678653 1.275e-19)
(0.214043 -0.0728185 -8.13281e-20)
(0.241955 -0.0770358 4.48804e-20)
(0.270516 -0.0803983 3.02547e-20)
(0.299546 -0.0827229 -2.24092e-20)
(0.328746 -0.0837628 1.1471e-20)
(0.358181 -0.082952 -2.16693e-20)
(0.385386 -0.0804957 5.6963e-20)
(0.418309 -0.0722277 -1.27544e-20)
(-0.000171335 0.00069912 8.36688e-21)
(0.00392188 -0.00232489 -6.79274e-20)
(0.0123876 -0.00743266 -1.55982e-20)
(0.0242228 -0.0141085 1.75473e-19)
(0.0391243 -0.0215158 -2.97401e-20)
(0.0566201 -0.0292626 5.78935e-20)
(0.0764026 -0.0370085 -1.25103e-19)
(0.098177 -0.0445435 1.67191e-20)
(0.1217 -0.0517135 -2.25433e-20)
(0.146753 -0.0584128 4.14053e-20)
(0.173139 -0.064562 5.0755e-20)
(0.200675 -0.0700952 -1.48757e-19)
(0.229186 -0.0749462 2.06735e-20)
(0.2585 -0.0790341 8.58438e-20)
(0.288436 -0.0822456 -4.0445e-20)
(0.318808 -0.0844014 1.36754e-20)
(0.349308 -0.085259 8.07706e-20)
(0.380021 -0.0842157 -2.81731e-20)
(0.408326 -0.0815542 -5.64785e-20)
(0.442718 -0.072528 -5.00801e-20)
(3.04149e-05 0.000374074 3.19016e-20)
(0.00480734 -0.00320744 3.03933e-20)
(0.0142332 -0.008736 -6.44078e-20)
(0.027189 -0.0157539 -9.87711e-20)
(0.0433406 -0.0234185 1.16417e-19)
(0.0621725 -0.0313544 2.20344e-20)
(0.0833529 -0.0392262 -4.35759e-20)
(0.106566 -0.0468312 3.56227e-22)
(0.131552 -0.0540203 8.29555e-20)
(0.15808 -0.0606926 1.01534e-19)
(0.185943 -0.0667729 -7.90226e-20)
(0.214948 -0.0721995 4.26957e-20)
(0.244911 -0.0769111 1.8372e-20)
(0.275651 -0.0808324 7.98497e-21)
(0.30698 -0.0838566 -6.18668e-20)
(0.338706 -0.0858105 -8.01088e-20)
(0.370511 -0.0864593 1.68749e-20)
(0.402502 -0.0851657 -1.75527e-20)
(0.431905 -0.0823011 2.09582e-20)
(0.467755 -0.0724942 5.01951e-20)
(0.000267673 1.87923e-05 -3.17874e-20)
(0.00579232 -0.00415522 2.7109e-20)
(0.0162379 -0.0101186 1.28025e-20)
(0.0303702 -0.0174792 1.03794e-19)
(0.0478246 -0.025391 -1.10194e-19)
(0.0680421 -0.033498 -9.12136e-20)
(0.0906667 -0.0414721 1.7598e-20)
(0.115361 -0.049119 -3.92239e-20)
(0.141851 -0.0562959 1.22257e-20)
(0.169892 -0.0629074 -1.61309e-19)
(0.199265 -0.0688831 5.36743e-20)
(0.229768 -0.0741662 1.9173e-20)
(0.261207 -0.0787005 9.4446e-20)
(0.293393 -0.0824169 -3.66879e-20)
(0.326128 -0.0852164 -1.58841e-20)
(0.359215 -0.0869338 1.04925e-19)
(0.392325 -0.0873459 -1.15441e-19)
(0.425587 -0.0857837 9.28657e-21)
(0.45608 -0.0827207 2.49142e-20)
(0.493373 -0.0721155 5.41471e-20)
(0.000542872 -0.000365798 -5.80571e-20)
(0.00688245 -0.00516563 2.12975e-20)
(0.018409 -0.0115765 -1.26959e-20)
(0.0337745 -0.0192789 -1.77579e-19)
(0.0525841 -0.0274265 6.65843e-20)
(0.0742359 -0.0356856 3.47192e-20)
(0.09835 -0.0437371 -2.25338e-20)
(0.124568 -0.051397 7.86034e-20)
(0.1526 -0.0585296 -7.92418e-20)
(0.182187 -0.0650459 1.65473e-19)
(0.213101 -0.0708808 -1.06745e-19)
(0.245127 -0.0759829 -1.38938e-19)
(0.278063 -0.0803014 -3.7799e-20)
(0.31171 -0.0837739 6.13342e-21)
(0.345861 -0.0863102 9.29288e-20)
(0.380309 -0.0877551 -9.82227e-20)
(0.414718 -0.0879011 5.95122e-20)
(0.449239 -0.0860514 2.00572e-21)
(0.480811 -0.0827967 2.14962e-20)
(0.519523 -0.0713812 -1.59516e-19)
(0.000858408 -0.00077859 9.72604e-20)
(0.00808324 -0.00623566 -7.44892e-20)
(0.0207539 -0.0131049 6.5605e-20)
(0.0374099 -0.0211469 1.09144e-19)
(0.057627 -0.0295175 -6.59889e-20)
(0.0807609 -0.0379085 6.33562e-20)
(0.106408 -0.0460116 4.81645e-20)
(0.134189 -0.0536545 -6.14347e-20)
(0.163797 -0.0607099 -4.81532e-20)
(0.194962 -0.0670959 -9.19489e-20)
(0.227443 -0.0727536 1.63838e-19)
(0.261015 -0.0776367 1.60483e-19)
(0.295465 -0.0817007 -6.19024e-20)
(0.330583 -0.0848901 5.35234e-20)
(0.366154 -0.087124 3.57369e-20)
(0.401962 -0.0882589 5.02749e-20)
(0.43766 -0.0881073 -3.11553e-20)
(0.473418 -0.08595 2.10321e-20)
(0.506054 -0.0825122 7.37428e-20)
(0.546152 -0.0702807 -4.56588e-21)
(0.00121663 -0.0012183 -1.09599e-19)
(0.00940007 -0.00736183 2.34926e-20)
(0.0232793 -0.0146984 -3.10791e-20)
(0.0412838 -0.0230761 -1.62827e-20)
(0.0629604 -0.0316555 1.06633e-20)
(0.0876231 -0.0401569 -2.56242e-20)
(0.114845 -0.0482848 -6.53089e-20)
(0.144226 -0.0558801 9.73698e-20)
(0.175444 -0.0628248 1.18077e-19)
(0.208215 -0.0690451 8.74874e-20)
(0.242285 -0.0744885 -1.38803e-19)
(0.277421 -0.0791149 -1.18477e-19)
(0.313397 -0.0828857 -2.10617e-20)
(0.349994 -0.0857526 -4.12412e-20)
(0.386985 -0.0876444 5.34408e-20)
(0.424144 -0.0884306 -3.57391e-20)
(0.461116 -0.0879475 2.34079e-20)
(0.498084 -0.0854609 2.01093e-20)
(0.531765 -0.0818493 -1.32143e-19)
(0.573208 -0.0688027 1.11136e-20)
(0.00161984 -0.00168349 -2.07535e-20)
(0.0108381 -0.00854024 1.44775e-19)
(0.025992 -0.0163512 1.86087e-20)
(0.0454033 -0.0250589 -5.09447e-20)
(0.0685909 -0.0338314 -7.9109e-20)
(0.0948282 -0.0424206 1.89352e-20)
(0.123665 -0.0505453 8.79827e-20)
(0.154681 -0.0580614 -3.19787e-20)
(0.187539 -0.0648614 -8.55049e-20)
(0.22194 -0.0708801 -3.39278e-20)
(0.257619 -0.0760724 9.78581e-20)
(0.294332 -0.0804044 -3.51042e-20)
(0.331843 -0.0838438 4.61204e-21)
(0.369921 -0.0863491 -7.6612e-20)
(0.408327 -0.087859 2.45839e-20)
(0.446825 -0.088257 8.14743e-20)
(0.485051 -0.087406 4.49187e-20)
(0.523197 -0.0845654 -7.86747e-20)
(0.557902 -0.0807884 -4.48227e-20)
(0.600636 -0.0669355 1.93681e-20)
(0.00207027 -0.00217252 -1.11561e-20)
(0.0124025 -0.00976655 -1.79559e-19)
(0.0288983 -0.0180567 1.2067e-20)
(0.0497752 -0.0270868 -4.95982e-20)
(0.0745249 -0.0360352 -3.29243e-20)
(0.102381 -0.0446881 -5.00371e-20)
(0.132872 -0.0527808 5.44335e-20)
(0.165555 -0.0601855 -4.86524e-21)
(0.200079 -0.0668061 -4.80212e-20)
(0.236131 -0.0725874 -3.513e-21)
(0.273435 -0.0774917 1.027e-19)
(0.311735 -0.0814922 1.70371e-20)
(0.350784 -0.0845625 6.97174e-20)
(0.390339 -0.0866682 9.24163e-20)
(0.430153 -0.087757 -3.42363e-20)
(0.469974 -0.0877266 -5.89877e-20)
(0.50943 -0.0864684 -1.94057e-20)
(0.548714 -0.0832457 -7.04153e-20)
(0.584424 -0.0793081 5.34904e-21)
(0.628381 -0.0646654 3.05983e-20)
(0.00257008 -0.00268362 -1.89629e-20)
(0.0140978 -0.011036 5.40791e-20)
(0.0320043 -0.0198077 -6.98535e-20)
(0.0544057 -0.0291507 6.69956e-20)
(0.0807679 -0.0382562 1.19183e-19)
(0.110286 -0.0469476 1.32057e-19)
(0.142466 -0.0549783 -2.84198e-20)
(0.176847 -0.0622385 5.69558e-20)
(0.21306 -0.068645 -6.70105e-20)
(0.250781 -0.0741527 -4.71559e-20)
(0.289721 -0.0787328 -5.13148e-20)
(0.329612 -0.0823653 1.03167e-19)
(0.370198 -0.0850302 -2.91033e-20)
(0.411225 -0.0866995 -7.05785e-20)
(0.452432 -0.0873292 6.66657e-20)
(0.493556 -0.0868306 -8.25242e-20)
(0.534216 -0.0851229 -4.44888e-20)
(0.574595 -0.081485 1.27314e-19)
(0.611292 -0.0773837 3.07867e-20)
(0.656381 -0.0619763 -4.47308e-20)
(0.00312136 -0.00321486 1.11898e-19)
(0.0159288 -0.0123435 5.57487e-20)
(0.0353155 -0.0215966 9.00508e-20)
(0.0593004 -0.031241 1.27022e-20)
(0.0873248 -0.0404829 3.09823e-20)
(0.118547 -0.0491862 -3.15328e-20)
(0.152451 -0.0571242 -3.47791e-20)
(0.188556 -0.0642063 -8.15689e-20)
(0.226479 -0.0703632 -1.88283e-20)
(0.265882 -0.0755615 -2.18839e-20)
(0.306464 -0.0797815 6.52325e-21)
(0.347946 -0.0830106 -4.17136e-20)
(0.390063 -0.0852354 -1.01296e-19)
(0.432548 -0.0864337 2.6632e-20)
(0.475132 -0.0865686 -7.07565e-20)
(0.517537 -0.085563 -8.01866e-21)
(0.559374 -0.0833613 8.85275e-20)
(0.6008 -0.0792695 -1.72723e-20)
(0.638473 -0.0749862 6.42541e-21)
(0.684575 -0.058848 -2.95518e-20)
(0.0037261 -0.00376413 -3.74064e-20)
(0.0178996 -0.0136835 -1.95554e-20)
(0.038837 -0.0234152 -4.61125e-20)
(0.0644646 -0.0333471 7.54511e-20)
(0.0941997 -0.0427033 -6.27605e-20)
(0.127165 -0.0513906 4.03614e-20)
(0.162824 -0.0592038 -1.68159e-21)
(0.200678 -0.0660736 -1.30788e-19)
(0.240328 -0.0719457 5.34363e-20)
(0.281422 -0.076799 2.92181e-20)
(0.323648 -0.0806237 -4.79454e-20)
(0.366718 -0.0834155 -3.43337e-20)
(0.410353 -0.0851674 1.69366e-19)
(0.45428 -0.0858629 -4.2526e-21)
(0.498217 -0.0854704 3.46588e-20)
(0.541877 -0.0839218 5.25589e-20)
(0.584865 -0.0811802 -2.38243e-20)
(0.627292 -0.0765896 -8.86506e-20)
(0.665943 -0.0720813 1.19904e-19)
(0.712896 -0.0552571 1.06835e-20)
(0.00438619 -0.0043292 1.03997e-19)
(0.0200143 -0.01505 9.64745e-21)
(0.0425736 -0.0252546 5.08551e-20)
(0.0699025 -0.035458 -5.63025e-20)
(0.101396 -0.0449045 -4.3347e-20)
(0.136143 -0.0535464 -4.12261e-20)
(0.173587 -0.0612023 -5.41624e-20)
(0.21321 -0.0678251 4.74613e-20)
(0.254599 -0.0733767 7.33802e-20)
(0.29739 -0.0778497 -1.9492e-20)
(0.341258 -0.0812451 4.28807e-21)
(0.385903 -0.0835672 8.91048e-20)
(0.43104 -0.084816 -1.63732e-19)
(0.476386 -0.0849804 3.54426e-20)
(0.52165 -0.0840324 6.20359e-20)
(0.566536 -0.0819095 -5.0076e-20)
(0.610649 -0.0785831 2.03318e-20)
(0.654036 -0.0734439 5.89964e-20)
(0.693693 -0.0686308 -1.11195e-19)
(0.74128 -0.0511794 7.67596e-20)
(0.00510341 -0.00490769 -1.61235e-19)
(0.0222763 -0.0164368 -3.96144e-20)
(0.0465294 -0.0271057 2.93195e-20)
(0.075618 -0.0375622 -4.83551e-20)
(0.108917 -0.0470731 5.50106e-20)
(0.145481 -0.0556392 -1.4271e-20)
(0.184737 -0.063104 3.64165e-20)
(0.226147 -0.0694445 6.68872e-20)
(0.269285 -0.0746402 -1.40336e-19)
(0.313772 -0.0786983 1.02779e-19)
(0.359273 -0.0816312 -3.65401e-21)
(0.405479 -0.0834531 -6.61293e-20)
(0.452094 -0.0841714 1.67856e-19)
(0.498829 -0.0837805 -3.31715e-20)
(0.545389 -0.0822549 -6.77016e-21)
(0.59147 -0.0795337 4.33895e-20)
(0.636685 -0.0755826 4.13752e-20)
(0.681001 -0.0698437 -2.37065e-21)
(0.721728 -0.064589 6.66433e-20)
(0.769653 -0.0465636 3.72937e-20)
(0.00587953 -0.00549723 -2.5274e-20)
(0.0246891 -0.0178374 -4.26754e-20)
(0.050708 -0.028959 -4.77166e-20)
(0.0816144 -0.0396477 1.05966e-19)
(0.116763 -0.0491955 1.46818e-20)
(0.155179 -0.0576536 3.76178e-20)
(0.19627 -0.0648929 6.25784e-20)
(0.239482 -0.0709156 -3.26161e-20)
(0.284373 -0.0757201 4.8434e-21)
(0.330553 -0.079329 -9.20644e-20)
(0.377675 -0.0817679 -1.55153e-20)
(0.425419 -0.0830611 3.34224e-20)
(0.473483 -0.0832247 -6.56581e-20)
(0.521571 -0.0822591 4.20509e-20)
(0.569387 -0.0801409 3.76891e-20)
(0.616629 -0.0768073 2.21955e-20)
(0.662926 -0.0722032 -1.17941e-20)
(0.708158 -0.0658193 -9.91915e-20)
(0.750059 -0.0598825 -6.89578e-20)
(0.797876 -0.041249 -3.94764e-20)
(0.0067164 -0.00609557 1.05876e-19)
(0.027256 -0.0192454 4.81477e-20)
(0.055113 -0.0308048 8.37836e-20)
(0.0878941 -0.0417024 -9.66289e-20)
(0.124936 -0.0512574 -4.51603e-21)
(0.165236 -0.0595745 -4.90081e-20)
(0.208183 -0.0665529 -3.62683e-20)
(0.253207 -0.072222 9.6857e-20)
(0.299852 -0.0765999 2.23289e-19)
(0.347715 -0.0797265 -2.3305e-20)
(0.396439 -0.0816408 2.03119e-20)
(0.445694 -0.0823792 -6.62857e-20)
(0.49517 -0.0819672 -3.05431e-20)
(0.544568 -0.0804126 -8.18763e-20)
(0.593596 -0.0776952 -4.90466e-20)
(0.641958 -0.0737488 -2.42607e-20)
(0.68932 -0.0684861 8.76709e-22)
(0.735496 -0.061431 -1.69691e-19)
(0.778755 -0.0544172 1.07197e-19)
(0.825748 -0.0350597 -8.43984e-21)
(0.00761464 -0.00669929 -1.41237e-20)
(0.0299785 -0.0206529 -8.86039e-20)
(0.0597458 -0.0326318 -1.33695e-19)
(0.094458 -0.0437124 -3.53948e-20)
(0.133435 -0.0532434 -5.06263e-20)
(0.175648 -0.0613848 3.11539e-20)
(0.220469 -0.0680663 2.03211e-20)
(0.267312 -0.0733456 -3.13813e-20)
(0.315708 -0.0772623 -1.84553e-19)
(0.365241 -0.0798739 1.92574e-19)
(0.415542 -0.0812349 5.72583e-20)
(0.466273 -0.0813945 -9.01161e-20)
(0.517117 -0.0803896 1.0174e-19)
(0.567775 -0.078237 8.16708e-20)
(0.617957 -0.0749226 -2.57307e-21)
(0.66739 -0.07038 -2.25384e-21)
(0.715799 -0.06449 1.0202e-20)
(0.763008 -0.0567884 7.97366e-20)
(0.808085 -0.0482881 -7.49513e-20)
(0.853825 -0.0287018 -1.03649e-19)
(0.00857063 -0.00730092 -1.03545e-19)
(0.0328531 -0.0220472 6.69087e-20)
(0.0646024 -0.0344236 1.97027e-20)
(0.101301 -0.0456586 5.11148e-20)
(0.142253 -0.0551322 3.08432e-20)
(0.186406 -0.0630624 -1.83134e-20)
(0.233116 -0.0694105 -4.43584e-20)
(0.281781 -0.0742641 -1.07014e-19)
(0.33192 -0.0776853 4.7196e-20)
(0.383104 -0.079751 -2.10028e-19)
(0.434953 -0.0805317 -7.89938e-20)
(0.48712 -0.0800913 2.06046e-19)
(0.539282 -0.0784795 -9.84915e-20)
(0.591138 -0.0757253 -7.52355e-20)
(0.642409 -0.0718248 1.07584e-20)
(0.692846 -0.0667203 -4.56856e-21)
(0.742255 -0.060279 5.34396e-21)
(0.790574 -0.0520694 4.56927e-20)
(0.838206 -0.0421726 -1.61028e-20)
(0.885624 -0.0245266 -2.73096e-20)
(0.00958435 -0.0078968 2.36174e-20)
(0.0358803 -0.0234199 8.49521e-20)
(0.0696827 -0.0361685 3.87131e-20)
(0.108421 -0.0475267 -1.78244e-20)
(0.151387 -0.056908 -8.31555e-21)
(0.197503 -0.0645902 -5.54634e-20)
(0.246113 -0.0705679 3.90212e-20)
(0.296601 -0.07496 7.38496e-20)
(0.34847 -0.0778522 -6.1312e-20)
(0.40128 -0.0793419 1.81578e-19)
(0.454642 -0.0795171 9.832e-20)
(0.508198 -0.0784576 -3.81866e-20)
(0.56162 -0.0762283 1.52818e-20)