/*--------------------------------*- C++ -*----------------------------------*\
  =========                 |
  \\      /  F ield         | OpenFOAM: The Open Source CFD Toolbox
   \\    /   O peration     | Website:  https://openfoam.org
    \\  /    A nd           | Version:  7
     \\/     M anipulation  |
\*---------------------------------------------------------------------------*/
FoamFile
{
    version     2.0;
    format      ascii;
    class       volScalarField;
    location    "20";
    object      p;
}
// * * * * * * * * * * * * * * * * * * * * * * * * * * * * * * * * * * * * * //

dimensions      [0 2 -2 0 0 0 0];

internalField   nonuniform List<scalar> 
2625
(
-0.0434558
-0.042313
-0.0411789
-0.0400544
-0.0389401
-0.0378368
-0.0367449
-0.035665
-0.0345976
-0.0335431
-0.0325017
-0.0314739
-0.0304597
-0.0294594
-0.0284731
-0.0275008
-0.0265427
-0.0255988
-0.0246689
-0.023753
-0.0228511
-0.0219629
-0.0210884
-0.0202272
-0.0193794
-0.0185443
-0.0177224
-0.0169122
-0.0161156
-0.0153287
-0.0145569
-0.0137911
-0.013045
-0.0122961
-0.0115792
-0.0108393
-0.0101616
-0.00941363
-0.00879974
-0.00800619
-0.0075128
-0.0065905
-0.00634423
-0.0051105
-0.00538772
-0.00344648
-0.00484009
-0.00134394
-0.00511075
0.00173555
-0.00708696
-0.0434539
-0.0423111
-0.041177
-0.0400525
-0.0389382
-0.0378349
-0.036743
-0.0356632
-0.0345958
-0.0335413
-0.0325
-0.0314722
-0.0304581
-0.0294578
-0.0284716
-0.0274994
-0.0265414
-0.0255975
-0.0246677
-0.0237518
-0.02285
-0.0219618
-0.0210874
-0.0202262
-0.0193785
-0.0185434
-0.0177216
-0.0169115
-0.0161149
-0.0153281
-0.0145563
-0.0137905
-0.0130445
-0.0122955
-0.0115788
-0.0108386
-0.0101615
-0.00941283
-0.00880008
-0.0080049
-0.00751397
-0.0065881
-0.00634706
-0.00510575
-0.00539394
-0.00343686
-0.00485315
-0.00132447
-0.00513738
0.00177505
-0.00711092
-0.0434501
-0.0423073
-0.0411732
-0.0400487
-0.0389345
-0.0378312
-0.0367394
-0.0356596
-0.0345923
-0.0335379
-0.0324967
-0.031469
-0.030455
-0.0294548
-0.0284687
-0.0274966
-0.0265387
-0.0255949
-0.0246652
-0.0237495
-0.0228477
-0.0219597
-0.0210853
-0.0202243
-0.0193767
-0.0185417
-0.01772
-0.01691
-0.0161135
-0.0153267
-0.0145551
-0.0137893
-0.0130435
-0.0122945
-0.011578
-0.0108377
-0.0101609
-0.00941191
-0.00879976
-0.00800383
-0.00751408
-0.0065866
-0.00634793
-0.00510326
-0.00539621
-0.00343235
-0.00485804
-0.0013161
-0.00514682
0.00179038
-0.00712012
-0.0434445
-0.0423017
-0.0411676
-0.0400431
-0.038929
-0.0378257
-0.036734
-0.0356544
-0.0345872
-0.0335329
-0.0324918
-0.0314642
-0.0304503
-0.0294504
-0.0284644
-0.0274925
-0.0265347
-0.0255911
-0.0246616
-0.023746
-0.0228444
-0.0219565
-0.0210824
-0.0202215
-0.019374
-0.0185392
-0.0177177
-0.0169078
-0.0161114
-0.0153248
-0.0145533
-0.0137877
-0.0130419
-0.012293
-0.0115767
-0.0108364
-0.0101599
-0.00941073
-0.00879903
-0.00800264
-0.00751369
-0.0065852
-0.00634802
-0.00510132
-0.00539703
-0.00342934
-0.00486001
-0.00131124
-0.00515017
0.00179762
-0.00712331
-0.0434372
-0.0422943
-0.0411603
-0.0400358
-0.0389217
-0.0378186
-0.036727
-0.0356475
-0.0345804
-0.0335263
-0.0324854
-0.031458
-0.0304443
-0.0294445
-0.0284588
-0.0274871
-0.0265295
-0.0255861
-0.0246568
-0.0237415
-0.0228401
-0.0219524
-0.0210785
-0.0202178
-0.0193705
-0.0185359
-0.0177146
-0.0169049
-0.0161087
-0.0153223
-0.014551
-0.0137855
-0.0130399
-0.0122911
-0.0115751
-0.0108348
-0.0101585
-0.0094092
-0.00879804
-0.00800112
-0.00751311
-0.00658345
-0.006348
-0.00509895
-0.00539786
-0.00342574
-0.00486214
-0.00130551
-0.00515379
0.001806
-0.00712592
-0.0434283
-0.0422854
-0.0411513
-0.0400269
-0.0389128
-0.0378098
-0.0367184
-0.035639
-0.0345721
-0.0335182
-0.0324775
-0.0314504
-0.0304369
-0.0294374
-0.0284519
-0.0274805
-0.0265232
-0.02558
-0.024651
-0.0237359
-0.0228348
-0.0219474
-0.0210737
-0.0202133
-0.0193663
-0.0185319
-0.0177108
-0.0169013
-0.0161054
-0.0153192
-0.0145481
-0.0137828
-0.0130375
-0.0122888
-0.011573
-0.0108327
-0.0101569
-0.00940734
-0.0087968
-0.00799928
-0.00751235
-0.00658136
-0.00634788
-0.00509618
-0.00539869
-0.00342158
-0.00486437
-0.00129899
-0.00515761
0.0018154
-0.00712789
-0.0434177
-0.0422747
-0.0411407
-0.0400163
-0.0389024
-0.0377995
-0.0367082
-0.035629
-0.0345624
-0.0335087
-0.0324683
-0.0314414
-0.0304282
-0.029429
-0.0284438
-0.0274726
-0.0265157
-0.0255728
-0.0246441
-0.0237294
-0.0228286
-0.0219415
-0.0210681
-0.020208
-0.0193612
-0.0185272
-0.0177064
-0.0168971
-0.0161015
-0.0153155
-0.0145448
-0.0137796
-0.0130346
-0.012286
-0.0115706
-0.0108303
-0.0101549
-0.00940517
-0.0087953
-0.00799717
-0.00751138
-0.00657902
-0.00634758
-0.00509315
-0.00539933
-0.00341714
-0.00486634
-0.00129223
-0.00516088
0.00182473
-0.0071285
-0.0434056
-0.0422626
-0.0411285
-0.0400042
-0.0388904
-0.0377876
-0.0366965
-0.0356176
-0.0345512
-0.0334978
-0.0324576
-0.031431
-0.0304182
-0.0294193
-0.0284345
-0.0274637
-0.0265071
-0.0255646
-0.0246362
-0.0237219
-0.0228214
-0.0219347
-0.0210616
-0.0202019
-0.0193555
-0.0185217
-0.0177013
-0.0168923
-0.016097
-0.0153113
-0.0145409
-0.0137759
-0.0130313
-0.0122829
-0.0115678
-0.0108276
-0.0101527
-0.0094027
-0.00879354
-0.00799479
-0.00751019
-0.00657644
-0.00634707
-0.0050899
-0.00539972
-0.00341253
-0.00486792
-0.00128543
-0.00516335
0.00183362
-0.00712747
-0.043392
-0.0422489
-0.0411149
-0.0399906
-0.0388769
-0.0377743
-0.0366834
-0.0356047
-0.0345386
-0.0334855
-0.0324457
-0.0314195
-0.030407
-0.0294085
-0.028424
-0.0274537
-0.0264975
-0.0255554
-0.0246274
-0.0237134
-0.0228134
-0.0219271
-0.0210544
-0.020195
-0.019349
-0.0185156
-0.0176955
-0.016887
-0.016092
-0.0153066
-0.0145365
-0.0137718
-0.0130276
-0.0122793
-0.0115647
-0.0108245
-0.0101501
-0.00939996
-0.00879154
-0.00799218
-0.00750876
-0.00657365
-0.00634633
-0.00508646
-0.00539984
-0.00340779
-0.00486907
-0.00127867
-0.00516496
0.00184196
-0.00712466
-0.043377
-0.0422338
-0.0410998
-0.0399756
-0.038862
-0.0377596
-0.036669
-0.0355905
-0.0345247
-0.033472
-0.0324325
-0.0314067
-0.0303946
-0.0293965
-0.0284125
-0.0274426
-0.0264868
-0.0255452
-0.0246177
-0.0237041
-0.0228045
-0.0219186
-0.0210464
-0.0201875
-0.0193419
-0.0185089
-0.0176892
-0.016881
-0.0160865
-0.0153014
-0.0145317
-0.0137673
-0.0130234
-0.0122754
-0.0115612
-0.0108211
-0.0101472
-0.00939694
-0.00878928
-0.00798933
-0.00750712
-0.00657066
-0.00634535
-0.00508288
-0.00539966
-0.00340298
-0.00486973
-0.00127204
-0.00516563
0.00184963
-0.00711995
-0.0433606
-0.0422174
-0.0410833
-0.0399593
-0.0388458
-0.0377436
-0.0366532
-0.0355751
-0.0345096
-0.0334572
-0.0324182
-0.0313928
-0.0303812
-0.0293835
-0.0283999
-0.0274305
-0.0264752
-0.0255341
-0.024607
-0.023694
-0.0227949
-0.0219095
-0.0210377
-0.0201792
-0.0193341
-0.0185016
-0.0176823
-0.0168745
-0.0160804
-0.0152957
-0.0145265
-0.0137624
-0.0130189
-0.0122712
-0.0115574
-0.0108174
-0.0101441
-0.00939368
-0.00878677
-0.00798627
-0.00750524
-0.0065675
-0.00634413
-0.00507917
-0.00539916
-0.00339816
-0.00486984
-0.00126562
-0.00516527
0.0018565
-0.00711322
-0.0433429
-0.0421996
-0.0410655
-0.0399416
-0.0388283
-0.0377263
-0.0366362
-0.0355583
-0.0344933
-0.0334413
-0.0324027
-0.0313777
-0.0303666
-0.0293694
-0.0283864
-0.0274174
-0.0264627
-0.0255221
-0.0245956
-0.023683
-0.0227845
-0.0218996
-0.0210283
-0.0201703
-0.0193257
-0.0184937
-0.0176749
-0.0168676
-0.0160739
-0.0152896
-0.0145208
-0.0137571
-0.0130141
-0.0122666
-0.0115533
-0.0108134
-0.0101407
-0.00939016
-0.00878403
-0.00798301
-0.00750313
-0.00656418
-0.00634266
-0.00507537
-0.0053983
-0.00339335
-0.00486937
-0.0012595
-0.00516379
0.00186244
-0.00710435
-0.0433239
-0.0421805
-0.0410465
-0.0399226
-0.0388095
-0.0377077
-0.0366179
-0.0355404
-0.0344758
-0.0334242
-0.0323861
-0.0313616
-0.030351
-0.0293544
-0.0283718
-0.0274035
-0.0264493
-0.0255092
-0.0245833
-0.0236713
-0.0227733
-0.0218889
-0.0210183
-0.0201608
-0.0193167
-0.0184852
-0.0176669
-0.0168601
-0.0160669
-0.0152831
-0.0145147
-0.0137514
-0.0130089
-0.0122617
-0.0115489
-0.0108092
-0.010137
-0.00938642
-0.00878105
-0.00797956
-0.00750079
-0.00656072
-0.00634092
-0.0050715
-0.00539706
-0.00338862
-0.00486826
-0.00125376
-0.00516113
0.00186735
-0.00709324
-0.0433036
-0.0421602
-0.0410262
-0.0399024
-0.0387895
-0.037688
-0.0365985
-0.0355214
-0.0344571
-0.0334061
-0.0323684
-0.0313445
-0.0303344
-0.0293383
-0.0283564
-0.0273886
-0.026435
-0.0254956
-0.0245702
-0.0236589
-0.0227614
-0.0218777
-0.0210076
-0.0201507
-0.0193072
-0.0184762
-0.0176584
-0.0168521
-0.0160594
-0.0152761
-0.0145083
-0.0137454
-0.0130033
-0.0122565
-0.0115442
-0.0108047
-0.0101331
-0.00938245
-0.00877784
-0.00797593
-0.00749822
-0.00655713
-0.0063389
-0.00506759
-0.00539543
-0.00338401
-0.00486648
-0.00124846
-0.00515721
0.00187112
-0.0070798
-0.0432822
-0.0421386
-0.0410047
-0.039881
-0.0387683
-0.0376671
-0.036578
-0.0355013
-0.0344375
-0.0333869
-0.0323498
-0.0313264
-0.0303169
-0.0293214
-0.0283401
-0.0273729
-0.02642
-0.0254811
-0.0245564
-0.0236457
-0.0227489
-0.0218658
-0.0209963
-0.02014
-0.0192971
-0.0184666
-0.0176495
-0.0168437
-0.0160516
-0.0152687
-0.0145014
-0.013739
-0.0129975
-0.0122509
-0.0115392
-0.0107999
-0.0101289
-0.00937828
-0.0087744
-0.00797213
-0.00749542
-0.00655344
-0.00633661
-0.00506365
-0.00539338
-0.00337954
-0.00486398
-0.00124367
-0.00515198
0.00187367
-0.00706396
-0.0432596
-0.042116
-0.0409821
-0.0398586
-0.0387461
-0.0376452
-0.0365564
-0.0354801
-0.0344168
-0.0333667
-0.0323301
-0.0313073
-0.0302984
-0.0293036
-0.0283229
-0.0273564
-0.0264041
-0.025466
-0.0245419
-0.0236319
-0.0227357
-0.0218532
-0.0209844
-0.0201287
-0.0192864
-0.0184566
-0.0176401
-0.0168349
-0.0160433
-0.015261
-0.0144942
-0.0137322
-0.0129913
-0.0122451
-0.011534
-0.0107949
-0.0101245
-0.0093739
-0.00877073
-0.00796818
-0.00749238
-0.00654964
-0.00633402
-0.00505971
-0.0053909
-0.00337526
-0.00486075
-0.00123943
-0.00514539
0.00187493
-0.00704566
-0.043236
-0.0420923
-0.0409584
-0.039835
-0.0387228
-0.0376222
-0.0365338
-0.0354579
-0.0343951
-0.0333456
-0.0323096
-0.0312874
-0.0302792
-0.029285
-0.028305
-0.0273392
-0.0263876
-0.0254501
-0.0245268
-0.0236174
-0.022722
-0.0218402
-0.020972
-0.020117
-0.0192753
-0.0184462
-0.0176302
-0.0168256
-0.0160347
-0.0152529
-0.0144867
-0.0137252
-0.0129848
-0.0122391
-0.0115285
-0.0107896
-0.0101199
-0.00936933
-0.00876685
-0.00796408
-0.00748911
-0.00654576
-0.00633114
-0.00505579
-0.00538798
-0.00337119
-0.00485674
-0.00123581
-0.0051374
0.00187481
-0.00702484
-0.0432113
-0.0420675
-0.0409337
-0.0398105
-0.0386984
-0.0375982
-0.0365102
-0.0354348
-0.0343725
-0.0333235
-0.0322882
-0.0312666
-0.0302591
-0.0292656
-0.0282863
-0.0273212
-0.0263703
-0.0254336
-0.024511
-0.0236023
-0.0227076
-0.0218265
-0.020959
-0.0201047
-0.0192638
-0.0184352
-0.01762
-0.016816
-0.0160257
-0.0152445
-0.0144789
-0.0137179
-0.012978
-0.0122327
-0.0115227
-0.0107842
-0.010115
-0.00936459
-0.00876275
-0.00795984
-0.00748561
-0.0065418
-0.00632796
-0.00505191
-0.00538459
-0.00336737
-0.00485193
-0.00123284
-0.00512797
0.00187327
-0.00700146
-0.0431856
-0.0420417
-0.040908
-0.0397849
-0.0386731
-0.0375732
-0.0364857
-0.0354108
-0.034349
-0.0333007
-0.0322659
-0.031245
-0.0302382
-0.0292454
-0.0282669
-0.0273025
-0.0263524
-0.0254164
-0.0244946
-0.0235867
-0.0226927
-0.0218123
-0.0209456
-0.020092
-0.0192517
-0.0184239
-0.0176093
-0.016806
-0.0160163
-0.0152357
-0.0144707
-0.0137103
-0.012971
-0.0122261
-0.0115167
-0.0107785
-0.0101099
-0.00935966
-0.00875844
-0.00795548
-0.00748187
-0.00653778
-0.00632448
-0.00504807
-0.00538074
-0.00336382
-0.00484631
-0.00123056
-0.00511705
0.00187025
-0.00697547
-0.0431589
-0.042015
-0.0408813
-0.0397584
-0.0386469
-0.0375474
-0.0364603
-0.0353859
-0.0343247
-0.0332769
-0.0322429
-0.0312227
-0.0302165
-0.0292245
-0.0282467
-0.0272832
-0.0263338
-0.0253986
-0.0244776
-0.0235705
-0.0226772
-0.0217977
-0.0209317
-0.0200788
-0.0192393
-0.0184122
-0.0175983
-0.0167956
-0.0160066
-0.0152266
-0.0144623
-0.0137024
-0.0129637
-0.0122193
-0.0115105
-0.0107726
-0.0101046
-0.00935458
-0.00875392
-0.00795099
-0.00747791
-0.00653371
-0.00632069
-0.0050443
-0.0053764
-0.00336055
-0.00483985
-0.00122902
-0.00510464
0.00186571
-0.00694685
-0.0431313
-0.0419874
-0.0408537
-0.039731
-0.0386199
-0.0375207
-0.036434
-0.0353602
-0.0342996
-0.0332525
-0.0322191
-0.0311996
-0.0301942
-0.029203
-0.028226
-0.0272632
-0.0263147
-0.0253803
-0.02446
-0.0235537
-0.0226613
-0.0217825
-0.0209173
-0.0200652
-0.0192264
-0.0184001
-0.0175869
-0.0167849
-0.0159966
-0.0152172
-0.0144535
-0.0136942
-0.0129562
-0.0122123
-0.011504
-0.0107666
-0.0100991
-0.00934934
-0.0087492
-0.0079464
-0.00747371
-0.00652959
-0.00631659
-0.0050406
-0.00537157
-0.0033576
-0.00483253
-0.00122824
-0.0050907
0.0018596
-0.00691558
-0.0431028
-0.0419588
-0.0408253
-0.0397028
-0.0385919
-0.0374932
-0.036407
-0.0353337
-0.0342737
-0.0332273
-0.0321946
-0.0311759
-0.0301712
-0.0291808
-0.0282046
-0.0272426
-0.0262949
-0.0253614
-0.024442
-0.0235365
-0.0226449
-0.0217669
-0.0209025
-0.0200512
-0.0192132
-0.0183876
-0.0175751
-0.0167739
-0.0159862
-0.0152076
-0.0144445
-0.0136858
-0.0129484
-0.012205
-0.0114973
-0.0107603
-0.0100934
-0.00934395
-0.00874428
-0.0079417
-0.00746929
-0.00652544
-0.00631218
-0.00503699
-0.00536624
-0.00335498
-0.00482436
-0.00122824
-0.00507521
0.00185189
-0.00688164
-0.0430735
-0.0419295
-0.040796
-0.0396738
-0.0385632
-0.0374649
-0.0363792
-0.0353065
-0.0342471
-0.0332013
-0.0321694
-0.0311514
-0.0301476
-0.029158
-0.0281826
-0.0272215
-0.0262747
-0.025342
-0.0244234
-0.0235188
-0.0226281
-0.0217509
-0.0208873
-0.0200368
-0.0191996
-0.0183748
-0.0175631
-0.0167625
-0.0159756
-0.0151976
-0.0144353
-0.0136772
-0.0129404
-0.0121976
-0.0114905
-0.0107539
-0.0100875
-0.00933842
-0.00873917
-0.0079369
-0.00746464
-0.00652126
-0.00630745
-0.00503349
-0.00536041
-0.0033527
-0.0048153
-0.00122905
-0.00505817
0.00184256
-0.00684503
-0.0430434
-0.0418993
-0.040766
-0.0396439
-0.0385337
-0.0374358
-0.0363506
-0.0352785
-0.0342198
-0.0331748
-0.0321436
-0.0311264
-0.0301234
-0.0291346
-0.0281601
-0.0271999
-0.0262539
-0.0253221
-0.0244044
-0.0235007
-0.0226108
-0.0217345
-0.0208718
-0.0200221
-0.0191857
-0.0183616
-0.0175507
-0.0167509
-0.0159647
-0.0151874
-0.0144258
-0.0136683
-0.0129322
-0.0121899
-0.0114834
-0.0107473
-0.0100815
-0.00933276
-0.00873386
-0.00793202
-0.00745977
-0.00651706
-0.00630241
-0.00503009
-0.00535408
-0.00335078
-0.00480537
-0.0012307
-0.00503956
0.00183159
-0.00680573
-0.0430125
-0.0418684
-0.0407352
-0.0396134
-0.0385035
-0.0374061
-0.0363214
-0.0352499
-0.0341919
-0.0331475
-0.0321171
-0.0311008
-0.0300986
-0.0291107
-0.0281371
-0.0271777
-0.0262327
-0.0253018
-0.024385
-0.0234821
-0.0225931
-0.0217177
-0.0208558
-0.020007
-0.0191715
-0.0183482
-0.0175381
-0.016739
-0.0159536
-0.015177
-0.0144161
-0.0136592
-0.0129238
-0.0121821
-0.0114762
-0.0107406
-0.0100752
-0.00932698
-0.00872838
-0.00792705
-0.00745467
-0.00651285
-0.00629706
-0.00502681
-0.00534724
-0.00334923
-0.00479455
-0.00123319
-0.00501939
0.00181896
-0.00676377
-0.0429809
-0.0418368
-0.0407037
-0.0395822
-0.0384727
-0.0373757
-0.0362915
-0.0352207
-0.0341633
-0.0331198
-0.0320901
-0.0310746
-0.0300733
-0.0290863
-0.0281135
-0.0271551
-0.026211
-0.025281
-0.0243651
-0.0234632
-0.0225751
-0.0217006
-0.0208396
-0.0199916
-0.0191569
-0.0183345
-0.0175252
-0.0167269
-0.0159422
-0.0151664
-0.0144061
-0.01365
-0.0129152
-0.0121741
-0.0114687
-0.0107337
-0.0100688
-0.00932107
-0.00872271
-0.00792201
-0.00744936
-0.00650863
-0.00629139
-0.00502366
-0.00533989
-0.00334806
-0.00478284
-0.00123653
-0.00499764
0.00180467
-0.00671914
-0.0429486
-0.0418045
-0.0406715
-0.0395503
-0.0384411
-0.0373446
-0.0362611
-0.0351909
-0.0341342
-0.0330914
-0.0320626
-0.0310479
-0.0300475
-0.0290614
-0.0280896
-0.0271321
-0.0261888
-0.0252598
-0.0243449
-0.0234439
-0.0225567
-0.0216831
-0.020823
-0.0199759
-0.0191421
-0.0183205
-0.017512
-0.0167145
-0.0159306
-0.0151555
-0.014396
-0.0136405
-0.0129064
-0.0121659
-0.0114611
-0.0107267
-0.0100622
-0.00931506
-0.00871687
-0.00791689
-0.00744383
-0.00650441
-0.00628542
-0.00502063
-0.00533203
-0.00334727
-0.00477023
-0.00124075
-0.00497433
0.00178869
-0.00667186
-0.0429157
-0.0417716
-0.0406387
-0.0395177
-0.038409
-0.037313
-0.03623
-0.0351605
-0.0341046
-0.0330625
-0.0320345
-0.0310207
-0.0300212
-0.029036
-0.0280651
-0.0271086
-0.0261663
-0.0252383
-0.0243243
-0.0234242
-0.022538
-0.0216653
-0.0208061
-0.01996
-0.019127
-0.0183062
-0.0174986
-0.0167019
-0.0159188
-0.0151444
-0.0143857
-0.0136309
-0.0128974
-0.0121576
-0.0114534
-0.0107195
-0.0100555
-0.00930894
-0.00871085
-0.00791171
-0.00743808
-0.00650019
-0.00627913
-0.00501774
-0.00532366
-0.00334688
-0.00475674
-0.00124583
-0.00494946
0.00177104
-0.00662195
-0.0428821
-0.041738
-0.0406053
-0.0394846
-0.0383763
-0.0372808
-0.0361984
-0.0351296
-0.0340744
-0.0330332
-0.032006
-0.0309931
-0.0299945
-0.0290102
-0.0280403
-0.0270847
-0.0261435
-0.0252164
-0.0243034
-0.0234043
-0.022519
-0.0216472
-0.020789
-0.0199437
-0.0191116
-0.0182917
-0.0174849
-0.0166891
-0.0159068
-0.0151332
-0.0143751
-0.0136211
-0.0128883
-0.0121491
-0.0114455
-0.0107122
-0.0100486
-0.00930272
-0.00870467
-0.00790647
-0.00743213
-0.00649599
-0.00627254
-0.00501499
-0.00531479
-0.00334688
-0.00474237
-0.00125179
-0.00492303
0.00175171
-0.00656943
-0.0428479
-0.0417038
-0.0405714
-0.039451
-0.0383431
-0.0372481
-0.0361663
-0.0350982
-0.0340438
-0.0330033
-0.0319771
-0.030965
-0.0299674
-0.0289841
-0.0280151
-0.0270605
-0.0261202
-0.0251941
-0.0242821
-0.023384
-0.0224997
-0.0216289
-0.0207716
-0.0199272
-0.0190961
-0.018277
-0.0174711
-0.0166761
-0.0158946
-0.0151218
-0.0143645
-0.0136111
-0.012879
-0.0121405
-0.0114374
-0.0107048
-0.0100415
-0.00929641
-0.00869833
-0.00790117
-0.00742597
-0.00649179
-0.00626564
-0.00501239
-0.00530541
-0.00334728
-0.00472711
-0.00125863
-0.00489507
0.00173071
-0.00651435
-0.0428132
-0.0416691
-0.0405369
-0.0394168
-0.0383093
-0.0372149
-0.0361338
-0.0350663
-0.0340127
-0.0329731
-0.0319477
-0.0309366
-0.0299399
-0.0289575
-0.0279896
-0.027036
-0.0260967
-0.0251716
-0.0242606
-0.0233635
-0.0224801
-0.0216103
-0.0207539
-0.0199105
-0.0190803
-0.0182621
-0.0174571
-0.0166629
-0.0158822
-0.0151102
-0.0143536
-0.013601
-0.0128695
-0.0121317
-0.0114292
-0.0106973
-0.0100343
-0.00929
-0.00869183
-0.00789582
-0.00741961
-0.00648761
-0.00625844
-0.00500993
-0.00529554
-0.00334809
-0.00471099
-0.00126635
-0.00486558
0.00170805
-0.00645671
-0.0427779
-0.0416339
-0.0405019
-0.0393821
-0.0382751
-0.0371812
-0.0361008
-0.035034
-0.0339812
-0.0329424
-0.0319179
-0.0309078
-0.029912
-0.0289307
-0.0279637
-0.0270111
-0.0260729
-0.0251488
-0.0242388
-0.0233427
-0.0224603
-0.0215915
-0.0207361
-0.0198936
-0.0190643
-0.0182471
-0.0174428
-0.0166495
-0.0158697
-0.0150984
-0.0143426
-0.0135908
-0.01286
-0.0121229
-0.0114209
-0.0106897
-0.010027
-0.00928352
-0.00868517
-0.00789043
-0.00741305
-0.00648345
-0.00625095
-0.00500762
-0.00528517
-0.00334929
-0.004694
-0.00127494
-0.00483459
0.00168374
-0.00639658
-0.0427421
-0.0415982
-0.0404664
-0.039347
-0.0382404
-0.0371471
-0.0360673
-0.0350013
-0.0339493
-0.0329114
-0.0318878
-0.0308786
-0.0298838
-0.0289035
-0.0279375
-0.026986
-0.0260487
-0.0251257
-0.0242167
-0.0233216
-0.0224403
-0.0215725
-0.020718
-0.0198765
-0.0190481
-0.0182318
-0.0174285
-0.016636
-0.015857
-0.0150865
-0.0143315
-0.0135804
-0.0128503
-0.0121139
-0.0114124
-0.010682
-0.0100196
-0.00927696
-0.00867837
-0.00788499
-0.0074063
-0.00647932
-0.00624317
-0.00500545
-0.00527432
-0.00335089
-0.00467616
-0.00128439
-0.00480211
0.0016578
-0.00633397
-0.0427059
-0.0415621
-0.0404305
-0.0393114
-0.0382054
-0.0371126
-0.0360335
-0.0349683
-0.0339171
-0.0328801
-0.0318574
-0.0308491
-0.0298553
-0.028876
-0.0279111
-0.0269606
-0.0260244
-0.0251024
-0.0241944
-0.0233004
-0.0224201
-0.0215532
-0.0206998
-0.0198592
-0.0190317
-0.0182164
-0.0174139
-0.0166223
-0.0158442
-0.0150745
-0.0143203
-0.0135699
-0.0128404
-0.0121048
-0.0114038
-0.0106742
-0.010012
-0.00927032
-0.00867143
-0.00787952
-0.00739935
-0.0064752
-0.00623509
-0.00500344
-0.00526299
-0.00335289
-0.00465748
-0.0012947
-0.00476817
0.00163024
-0.00626894
-0.0426692
-0.0415255
-0.0403941
-0.0392755
-0.0381699
-0.0370778
-0.0359994
-0.0349349
-0.0338845
-0.0328484
-0.0318267
-0.0308194
-0.0298266
-0.0288483
-0.0278844
-0.026935
-0.0259998
-0.0250788
-0.0241719
-0.0232789
-0.0223996
-0.0215338
-0.0206814
-0.0198418
-0.0190152
-0.0182008
-0.0173993
-0.0166085
-0.0158312
-0.0150624
-0.0143089
-0.0135593
-0.0128305
-0.0120956
-0.0113952
-0.0106663
-0.0100043
-0.00926362
-0.00866435
-0.007874
-0.00739223
-0.00647111
-0.00622674
-0.00500158
-0.00525118
-0.00335528
-0.00463797
-0.00130586
-0.0047328
0.00160109
-0.00620153
-0.0426322
-0.0414886
-0.0403574
-0.0392392
-0.0381341
-0.0370426
-0.0359649
-0.0349012
-0.0338516
-0.0328164
-0.0317957
-0.0307894
-0.0297976
-0.0288203
-0.0278575
-0.0269091
-0.025975
-0.0250551
-0.0241493
-0.0232573
-0.022379
-0.0215142
-0.0206628
-0.0198242
-0.0189986
-0.0181851
-0.0173845
-0.0165946
-0.0158181
-0.0150501
-0.0142974
-0.0135486
-0.0128204
-0.0120863
-0.0113864
-0.0106583
-0.00999651
-0.00925686
-0.00865713
-0.00786846
-0.00738492
-0.00646706
-0.00621811
-0.00499986
-0.00523892
-0.00335805
-0.00461766
-0.00131786
-0.00469602
0.00157037
-0.00613179
-0.0425947
-0.0414512
-0.0403204
-0.0392025
-0.038098
-0.0370071
-0.0359301
-0.0348672
-0.0338185
-0.0327842
-0.0317644
-0.0307591
-0.0297683
-0.0287921
-0.0278304
-0.026883
-0.02595
-0.0250312
-0.0241264
-0.0232355
-0.0223583
-0.0214945
-0.0206441
-0.0198064
-0.0189818
-0.0181693
-0.0173695
-0.0165806
-0.0158049
-0.0150378
-0.0142858
-0.0135378
-0.0128103
-0.012077
-0.0113775
-0.0106503
-0.0099886
-0.00925003
-0.00864979
-0.00786289
-0.00737744
-0.00646303
-0.00620921
-0.00499829
-0.0052262
-0.00336121
-0.00459655
-0.00133068
-0.00465786
0.00153811
-0.00605978
-0.0425569
-0.0414136
-0.040283
-0.0391655
-0.0380616
-0.0369713
-0.035895
-0.0348329
-0.0337851
-0.0327518
-0.0317329
-0.0307286
-0.0297389
-0.0287637
-0.0278031
-0.0268568
-0.0259249
-0.0250071
-0.0241034
-0.0232136
-0.0223374
-0.0214746
-0.0206252
-0.0197886
-0.0189649
-0.0181533
-0.0173545
-0.0165665
-0.0157916
-0.0150253
-0.0142741
-0.0135269
-0.0128001
-0.0120675
-0.0113685
-0.0106421
-0.00998059
-0.00924315
-0.00864232
-0.00785729
-0.00736979
-0.00645903
-0.00620005
-0.00499687
-0.00521304
-0.00336474
-0.00457466
-0.0013443
-0.00461835
0.00150433
-0.00598553
-0.0425188
-0.0413756
-0.0402453
-0.0391283
-0.0380249
-0.0369353
-0.0358597
-0.0347984
-0.0337515
-0.0327191
-0.0317012
-0.030698
-0.0297093
-0.0287352
-0.0277756
-0.0268304
-0.0258996
-0.0249829
-0.0240803
-0.0231915
-0.0223164
-0.0214547
-0.0206063
-0.0197706
-0.018948
-0.0181373
-0.0173394
-0.0165522
-0.0157783
-0.0150128
-0.0142624
-0.013516
-0.0127898
-0.012058
-0.0113594
-0.0106339
-0.00997248
-0.00923622
-0.00863474
-0.00785166
-0.00736197
-0.00645506
-0.00619064
-0.00499559
-0.00519944
-0.00336864
-0.00455201
-0.00135872
-0.00457753
0.00146906
-0.00590912
-0.0424804
-0.0413373
-0.0402074
-0.0390908
-0.0379879
-0.036899
-0.0358242
-0.0347637
-0.0337177
-0.0326862
-0.0316694
-0.0306671
-0.0296795
-0.0287065
-0.027748
-0.0268039
-0.0258741
-0.0249586
-0.024057
-0.0231693
-0.0222953
-0.0214346
-0.0205872
-0.0197526
-0.0189309
-0.0181212
-0.0173242
-0.0165379
-0.0157648
-0.0150002
-0.0142505
-0.0135049
-0.0127794
-0.0120484
-0.0113503
-0.0106257
-0.00996428
-0.00922925
-0.00862704
-0.00784602
-0.00735399
-0.00645112
-0.00618097
-0.00499445
-0.00518543
-0.0033729
-0.00452862
-0.00137391
-0.00453543
0.00143234
-0.00583059
-0.0424417
-0.0412988
-0.0401692
-0.0390531
-0.0379508
-0.0368625
-0.0357885
-0.0347289
-0.0336837
-0.0326532
-0.0316374
-0.0306361
-0.0296496
-0.0286776
-0.0277202
-0.0267773
-0.0258486
-0.0249341
-0.0240337
-0.023147
-0.0222741
-0.0214144
-0.0205681
-0.0197345
-0.0189137
-0.018105
-0.0173089
-0.0165235
-0.0157513
-0.0149875
-0.0142386
-0.0134939
-0.0127689
-0.0120388
-0.011341
-0.0106174
-0.009956
-0.00922223
-0.00861923
-0.00784035
-0.00734586
-0.00644722
-0.00617106
-0.00499345
-0.00517101
-0.0033775
-0.00450452
-0.00138985
-0.00449207
0.00139419
-0.00575001
-0.0424027
-0.04126
-0.0401307
-0.0390151
-0.0379134
-0.0368258
-0.0357526
-0.0346938
-0.0336496
-0.0326201
-0.0316052
-0.030605
-0.0296195
-0.0286487
-0.0276924
-0.0267505
-0.025823
-0.0249096
-0.0240102
-0.0231247
-0.0222528
-0.0213942
-0.0205489
-0.0197163
-0.0188965
-0.0180887
-0.0172936
-0.0165091
-0.0157377
-0.0149748
-0.0142266
-0.0134827
-0.0127584
-0.0120291
-0.0113318
-0.0106091
-0.00994764
-0.00921517
-0.00861132
-0.00783467
-0.00733759
-0.00644334
-0.00616092
-0.00499258
-0.00515619
-0.00338245
-0.00447971
-0.00140653
-0.00444752
0.00135465
-0.00566744
-0.0423635
-0.0412211
-0.0400921
-0.038977
-0.0378759
-0.036789
-0.0357165
-0.0346586
-0.0336154
-0.0325868
-0.0315729
-0.0305738
-0.0295894
-0.0286196
-0.0276644
-0.0267237
-0.0257972
-0.024885
-0.0239867
-0.0231023
-0.0222314
-0.0213739
-0.0205296
-0.019698
-0.0188792
-0.0180724
-0.0172782
-0.0164946
-0.015724
-0.014962
-0.0142146
-0.0134715
-0.0127478
-0.0120193
-0.0113224
-0.0106007
-0.0099392
-0.00920807
-0.00860331
-0.00782898
-0.00732917
-0.0064395
-0.00615056
-0.00499184
-0.00514099
-0.00338772
-0.00445423
-0.00142393
-0.00440178
0.00131376
-0.00558292
-0.0423241
-0.0411819
-0.0400533
-0.0389387
-0.0378382
-0.036752
-0.0356804
-0.0346233
-0.033581
-0.0325534
-0.0315406
-0.0305425
-0.0295592
-0.0285905
-0.0276364
-0.0266968
-0.0257715
-0.0248603
-0.0239632
-0.0230798
-0.02221
-0.0213536
-0.0205103
-0.0196797
-0.0188619
-0.018056
-0.0172627
-0.0164801
-0.0157104
-0.0149492
-0.0142025
-0.0134603
-0.0127372
-0.0120096
-0.011313
-0.0105922
-0.00993069
-0.00920095
-0.00859521
-0.00782327
-0.00732061
-0.00643569
-0.00613997
-0.00499123
-0.00512541
-0.00339331
-0.00442809
-0.00144201
-0.00435492
0.00127155
-0.00549654
-0.0422846
-0.0411426
-0.0400144
-0.0389003
-0.0378004
-0.0367149
-0.0356441
-0.0345879
-0.0335465
-0.0325199
-0.0315081
-0.0305111
-0.0295289
-0.0285613
-0.0276083
-0.0266698
-0.0257456
-0.0248356
-0.0239396
-0.0230573
-0.0221886
-0.0213332
-0.0204909
-0.0196613
-0.0188445
-0.0180396
-0.0172472
-0.0164655
-0.0156966
-0.0149363
-0.0141904
-0.013449
-0.0127265
-0.0119997
-0.0113035
-0.0105838
-0.00992211
-0.00919379
-0.00858701
-0.00781755
-0.00731192
-0.00643191
-0.00612918
-0.00499073
-0.00510948
-0.0033992
-0.00440132
-0.00146077
-0.00430696
0.00122806
-0.00540834
-0.0422449
-0.0411031
-0.0399753
-0.0388617
-0.0377625
-0.0366778
-0.0356077
-0.0345524
-0.033512
-0.0324864
-0.0314756
-0.0304797
-0.0294986
-0.0285321
-0.0275802
-0.0266428
-0.0257198
-0.0248108
-0.0239159
-0.0230347
-0.0221671
-0.0213128
-0.0204715
-0.019643
-0.0188272
-0.0180232
-0.0172317
-0.0164509
-0.0156829
-0.0149234
-0.0141783
-0.0134377
-0.0127158
-0.0119899
-0.011294
-0.0105752
-0.00991347
-0.0091866
-0.00857873
-0.00781182
-0.0073031
-0.00642816
-0.00611818
-0.00499035
-0.00509321
-0.00340539
-0.00437394
-0.00148017
-0.00425795
0.00118332
-0.00531839
-0.042205
-0.0410635
-0.0399362
-0.0388231
-0.0377245
-0.0366405
-0.0355713
-0.0345169
-0.0334774
-0.0324528
-0.0314431
-0.0304482
-0.0294682
-0.0285028
-0.0275521
-0.0266158
-0.0256939
-0.0247861
-0.0238923
-0.0230122
-0.0221456
-0.0212923
-0.0204521
-0.0196246
-0.0188098
-0.0180067
-0.0172162
-0.0164363
-0.0156691
-0.0149105
-0.0141661
-0.0134263
-0.012705
-0.01198
-0.0112844
-0.0105667
-0.00990478
-0.0091794
-0.00857038
-0.00780609
-0.00729418
-0.00642445
-0.006107
-0.0049901
-0.00507661
-0.00341187
-0.00434599
-0.0015002
-0.00420794
0.00113737
-0.00522677
-0.042165
-0.0410239
-0.0398969
-0.0387843
-0.0376864
-0.0366032
-0.0355348
-0.0344813
-0.0334428
-0.0324192
-0.0314105
-0.0304167
-0.0294378
-0.0284736
-0.027524
-0.0265888
-0.025668
-0.0247613
-0.0238686
-0.0229896
-0.0221241
-0.0212719
-0.0204327
-0.0196062
-0.0187924
-0.0179903
-0.0172007
-0.0164217
-0.0156553
-0.0148976
-0.0141539
-0.013415
-0.0126942
-0.0119701
-0.0112749
-0.0105582
-0.00989605
-0.00917219
-0.00856197
-0.00780036
-0.00728515
-0.00642078
-0.00609566
-0.00498996
-0.00505972
-0.00341864
-0.0043175
-0.00152085
-0.00415698
0.00109022
-0.00513355
-0.042125
-0.0409841
-0.0398576
-0.0387456
-0.0376483
-0.0365658
-0.0354983
-0.0344457
-0.0334081
-0.0323856
-0.031378
-0.0303853
-0.0294074
-0.0284443
-0.0274958
-0.0265618
-0.0256421
-0.0247365
-0.0238449
-0.022967
-0.0221026
-0.0212515
-0.0204133
-0.0195878
-0.0187749
-0.0179739
-0.0171851
-0.0164071
-0.0156415
-0.0148847
-0.0141417
-0.0134036
-0.0126834
-0.0119602
-0.0112652
-0.0105496
-0.00988726
-0.00916495
-0.00855347
-0.00779461
-0.007276
-0.00641712
-0.00608412
-0.00498991
-0.00504251
-0.00342564
-0.00428845
-0.00154205
-0.00410506
0.00104198
-0.00503874
-0.0420848
-0.0409443
-0.0398182
-0.0387068
-0.0376102
-0.0365285
-0.0354618
-0.0344101
-0.0333735
-0.0323519
-0.0313454
-0.0303538
-0.029377
-0.028415
-0.0274677
-0.0265348
-0.0256162
-0.0247118
-0.0238213
-0.0229445
-0.0220812
-0.021231
-0.020394
-0.0195694
-0.0187575
-0.0179574
-0.0171696
-0.0163924
-0.0156277
-0.0148717
-0.0141295
-0.0133922
-0.0126726
-0.0119502
-0.0112556
-0.010541
-0.00987842
-0.00915769
-0.0085449
-0.00778886
-0.00726674
-0.00641349
-0.00607241
-0.00498995
-0.005025
-0.00343288
-0.00425888
-0.0015638
-0.00405226
0.000992655
-0.00494243
-0.0420446
-0.0409044
-0.0397788
-0.0386679
-0.037572
-0.0364911
-0.0354253
-0.0343745
-0.0333389
-0.0323184
-0.0313129
-0.0303223
-0.0293467
-0.0283858
-0.0274396
-0.0265078
-0.0255904
-0.0246871
-0.0237977
-0.022922
-0.0220597
-0.0212107
-0.0203746
-0.0195511
-0.0187401
-0.017941
-0.0171541
-0.0163778
-0.0156139
-0.0148588
-0.0141172
-0.0133808
-0.0126618
-0.0119403
-0.0112459
-0.0105324
-0.00986953
-0.0091504
-0.00853626
-0.00778309
-0.00725738
-0.00640986
-0.00606052
-0.00499006
-0.00500721
-0.00344033
-0.0042288
-0.00158604
-0.00399857
0.000942312
-0.00484467
-0.0420044
-0.0408645
-0.0397393
-0.0386291
-0.0375339
-0.0364537
-0.0353888
-0.0343389
-0.0333043
-0.0322848
-0.0312804
-0.0302909
-0.0293164
-0.0283566
-0.0274115
-0.0264809
-0.0255646
-0.0246624
-0.0237741
-0.0228995
-0.0220383
-0.0211903
-0.0203553
-0.0195328
)
;

boundaryField
{
    inlet
    {