0 	0.525939 	1.249e-17 	-0.577487
0 	0.57878 	1.249e-17 	-0.502855
0 	0.633585 	1.249e-17 	-0.481762
0 	0.690426 	1.11022e-17 	-0.438298
0 	0.749378 	9.71445e-18 	-0.407386
0 	0.810522 	9.71445e-18 	-0.371181
0 	0.873937 	9.71445e-18 	-0.337935
0 	0.939708 	1.11022e-17 	-0.304367
