/*--------------------------------*- C++ -*----------------------------------*\
  =========                 |
  \\      /  F ield         | OpenFOAM: The Open Source CFD Toolbox
   \\    /   O peration     | Website:  https://openfoam.org
    \\  /    A nd           | Version:  7
     \\/     M anipulation  |
\*---------------------------------------------------------------------------*/
FoamFile
{
    version     2.0;
    format      ascii;
    class       volScalarField;
    location    "10";
    object      p;
}
// * * * * * * * * * * * * * * * * * * * * * * * * * * * * * * * * * * * * * //

dimensions      [0 2 -2 0 0 0 0];

internalField   nonuniform List<scalar> 
12100
(
-0.325212
-0.330818
-0.332718
-0.33623
-0.340168
-0.344917
-0.350375
-0.35657
-0.363464
-0.370963
-0.37886
-0.386796
-0.394229
-0.400409
-0.40436
-0.404942
-0.400829
-0.390747
-0.373729
-0.348215
-0.325624
-0.331122
-0.333008
-0.3365
-0.340429
-0.345171
-0.350631
-0.35684
-0.363769
-0.371329
-0.379326
-0.387413
-0.395058
-0.401527
-0.405841
-0.406889
-0.403341
-0.393705
-0.377581
-0.351905
-0.326429
-0.331715
-0.333571
-0.337019
-0.340922
-0.345646
-0.351101
-0.357326
-0.364304
-0.371962
-0.380123
-0.388458
-0.39645
-0.403395
-0.408298
-0.410076
-0.407508
-0.398389
-0.384048
-0.358061
-0.327595
-0.332571
-0.334374
-0.337747
-0.341598
-0.346278
-0.351705
-0.357926
-0.364939
-0.372688
-0.381014
-0.389612
-0.397969
-0.405426
-0.410951
-0.413407
-0.412102
-0.403206
-0.391473
-0.364505
-0.329077
-0.333654
-0.335371
-0.338627
-0.342389
-0.346985
-0.352341
-0.358513
-0.365513
-0.3733
-0.381731
-0.390522
-0.399147
-0.407004
-0.413023
-0.41585
-0.416015
-0.406663
-0.396779
-0.370205
-0.330819
-0.33492
-0.336511
-0.339595
-0.343216
-0.347672
-0.352898
-0.358955
-0.365865
-0.373602
-0.382029
-0.390883
-0.399602
-0.407655
-0.413956
-0.41693
-0.417622
-0.408365
-0.399059
-0.373436
-0.332765
-0.336323
-0.337738
-0.340586
-0.344
-0.348249
-0.353273
-0.359134
-0.365864
-0.373443
-0.381733
-0.390498
-0.399118
-0.407118
-0.413383
-0.416178
-0.41691
-0.407594
-0.397864
-0.373315
-0.334857
-0.33782
-0.338999
-0.341538
-0.344672
-0.348639
-0.353383
-0.358966
-0.365425
-0.37274
-0.38077
-0.389283
-0.397613
-0.405321
-0.411243
-0.413588
-0.413678
-0.404273
-0.39316
-0.369343
-0.33704
-0.339372
-0.340248
-0.342399
-0.345176
-0.348785
-0.353177
-0.358409
-0.364517
-0.371481
-0.379145
-0.387273
-0.395146
-0.402329
-0.407593
-0.409209
-0.407963
-0.398261
-0.385201
-0.361467
-0.339273
-0.340946
-0.341452
-0.343134
-0.345478
-0.34866
-0.352638
-0.357463
-0.363167
-0.369716
-0.376936
-0.384561
-0.391838
-0.398214
-0.402508
-0.402987
-0.399924
-0.389427
-0.374339
-0.350202
-0.341523
-0.342523
-0.342588
-0.343724
-0.345565
-0.348264
-0.351785
-0.35617
-0.361439
-0.367533
-0.374254
-0.381243
-0.38776
-0.392987
-0.395965
-0.394807
-0.389684
-0.377891
-0.361106
-0.336605
-0.343771
-0.344091
-0.343648
-0.34417
-0.34545
-0.347627
-0.350667
-0.3546
-0.359422
-0.36503
-0.371172
-0.377356
-0.382866
-0.386578
-0.387841
-0.384644
-0.377434
-0.364193
-0.346337
-0.321966
-0.346017
-0.345647
-0.344644
-0.34449
-0.345168
-0.346799
-0.349354
-0.352835
-0.357199
-0.362265
-0.367695
-0.372849
-0.377005
-0.378874
-0.378066
-0.3727
-0.363624
-0.349214
-0.331034
-0.307395
-0.348274
-0.347203
-0.345598
-0.34472
-0.34477
-0.345849
-0.347923
-0.350952
-0.354817
-0.359236
-0.363742
-0.367589
-0.370014
-0.369825
-0.36679
-0.359453
-0.348958
-0.333893
-0.316065
-0.293575
-0.35057
-0.348785
-0.346538
-0.34491
-0.34432
-0.34485
-0.346447
-0.348998
-0.352275
-0.355869
-0.359178
-0.361425
-0.361841
-0.359554
-0.354413
-0.345546
-0.334156
-0.318948
-0.301961
-0.280782
-0.352948
-0.350427
-0.347511
-0.345116
-0.343889
-0.343874
-0.344975
-0.346978
-0.349514
-0.352044
-0.353869
-0.354285
-0.352607
-0.348372
-0.341465
-0.331584
-0.319724
-0.304768
-0.288901
-0.269029
-0.355463
-0.352167
-0.348567
-0.345403
-0.343541
-0.342973
-0.343527
-0.344856
-0.346438
-0.347636
-0.34775
-0.346233
-0.34258
-0.336683
-0.328439
-0.317985
-0.305907
-0.291483
-0.276795
-0.258172
-0.358177
-0.354054
-0.349765
-0.345832
-0.343335
-0.342178
-0.342087
-0.342559
-0.34294
-0.342571
-0.340857
-0.337455
-0.332088
-0.324862
-0.315693
-0.304959
-0.292791
-0.279064
-0.265337
-0.247971
-0.361153
-0.356142
-0.351163
-0.346459
-0.343308
-0.341491
-0.340609
-0.34
-0.338941
-0.336846
-0.33331
-0.328197
-0.321425
-0.31319
-0.303431
-0.292576
-0.280424
-0.267413
-0.254126
-0.238199
-0.364468
-0.358484
-0.352811
-0.347323
-0.343467
-0.340887
-0.339026
-0.337095
-0.334403
-0.330526
-0.325279
-0.318692
-0.310812
-0.301836
-0.291727
-0.280834
-0.268842
-0.256437
-0.243069
-0.22877
-0.368198
-0.361128
-0.354752
-0.348433
-0.343797
-0.340319
-0.337257
-0.33378
-0.329336
-0.323717
-0.316935
-0.309124
-0.300387
-0.29088
-0.280572
-0.269704
-0.258001
-0.246075
-0.232898
-0.219672
-0.372392
-0.364126
-0.357037
-0.349815
-0.344308
-0.339758
-0.335247
-0.330035
-0.3238
-0.316547
-0.308427
-0.299617
-0.290221
-0.280336
-0.269924
-0.259141
-0.247765
-0.236205
-0.223818
-0.211669
-0.377116
-0.367526
-0.35968
-0.35145
-0.34497
-0.339123
-0.332916
-0.325847
-0.317856
-0.30912
-0.299859
-0.29024
-0.280333
-0.27018
-0.25973
-0.249076
-0.238017
-0.22694
-0.21526
-0.203986
-0.382428
-0.371367
-0.362672
-0.353332
-0.345745
-0.338327
-0.330211
-0.321236
-0.311581
-0.301527
-0.2913
-0.281022
-0.270716
-0.260372
-0.24993
-0.239428
-0.228715
-0.218086
-0.207069
-0.196707
-0.388375
-0.375681
-0.365999
-0.355478
-0.346565
-0.337279
-0.3271
-0.316235
-0.30504
-0.293827
-0.282782
-0.271962
-0.26134
-0.250863
-0.240459
-0.230132
-0.219756
-0.209581
-0.199214
-0.189552
-0.394996
-0.380478
-0.369653
-0.357898
-0.347328
-0.335896
-0.323571
-0.310883
-0.298284
-0.286058
-0.274315
-0.263043
-0.252167
-0.2416
-0.23126
-0.221117
-0.21108
-0.201334
-0.191535
-0.182532
-0.402327
-0.38574
-0.373659
-0.360551
-0.347913
-0.334113
-0.319625
-0.305212
-0.291346
-0.27823
-0.265888
-0.254236
-0.243157
-0.232534
-0.222274
-0.212327
-0.202616
-0.193273
-0.184014
-0.17557
-0.410387
-0.391419
-0.37808
-0.363326
-0.348203
-0.331883
-0.315266
-0.299246
-0.28424
-0.270343
-0.257481
-0.245508
-0.234266
-0.223616
-0.213453
-0.203705
-0.19431
-0.185346
-0.176574
-0.168642
-0.419174
-0.397452
-0.382969
-0.366062
-0.348092
-0.329171
-0.3105
-0.292997
-0.276968
-0.26238
-0.249067
-0.236823
-0.225454
-0.214803
-0.204748
-0.195205
-0.186113
-0.177503
-0.169188
-0.161712
-0.428638
-0.403784
-0.388308
-0.368588
-0.347485
-0.325951
-0.305327
-0.286463
-0.269517
-0.25432
-0.240615
-0.228144
-0.216683
-0.206053
-0.196119
-0.186783
-0.177982
-0.169708
-0.161816
-0.154754
-0.438666
-0.410385
-0.393952
-0.37075
-0.346301
-0.322194
-0.29974
-0.279637
-0.261869
-0.246135
-0.232093
-0.219438
-0.207916
-0.19733
-0.187529
-0.178404
-0.169884
-0.161928
-0.154434
-0.147748
-0.449073
-0.417251
-0.399623
-0.372406
-0.34447
-0.317872
-0.293722
-0.272498
-0.253999
-0.237795
-0.223469
-0.210671
-0.199121
-0.188601
-0.178946
-0.170036
-0.161787
-0.154138
-0.147016
-0.140673
-0.459612
-0.424382
-0.40497
-0.373412
-0.341932
-0.312956
-0.287252
-0.265023
-0.245878
-0.229271
-0.214713
-0.201814
-0.190267
-0.179837
-0.170342
-0.161651
-0.153668
-0.146315
-0.139545
-0.133515
-0.470003
-0.431742
-0.409636
-0.373622
-0.338631
-0.307413
-0.280303
-0.257183
-0.237477
-0.220531
-0.205795
-0.192838
-0.181329
-0.171011
-0.161692
-0.153226
-0.145506
-0.138442
-0.132006
-0.126264
-0.479961
-0.439218
-0.413319
-0.372887
-0.334515
-0.301212
-0.272842
-0.248946
-0.228765
-0.211549
-0.196689
-0.183719
-0.172281
-0.162103
-0.152975
-0.144743
-0.137284
-0.130506
-0.124387
-0.118911
-0.489222
-0.4466
-0.415796
-0.37107
-0.329527
-0.294317
-0.264838
-0.24028
-0.219712
-0.202296
-0.18737
-0.174433
-0.163104
-0.153092
-0.144175
-0.136185
-0.128991
-0.122497
-0.11668
-0.111451
-0.49755
-0.453575
-0.416911
-0.368054
-0.323609
-0.286694
-0.256257
-0.231155
-0.210291
-0.192748
-0.177817
-0.164962
-0.15378
-0.143963
-0.135276
-0.127542
-0.120616
-0.114407
-0.108881
-0.103883
-0.50475
-0.459757
-0.416557
-0.363747
-0.316709
-0.278308
-0.247067
-0.221542
-0.200477
-0.182885
-0.168011
-0.155289
-0.144295
-0.134703
-0.126269
-0.118803
-0.112154
-0.106232
-0.100986
-0.0962107
-0.510647
-0.464723
-0.414644
-0.358088
-0.308781
-0.269127
-0.237243
-0.211416
-0.19025
-0.17269
-0.157938
-0.145403
-0.134638
-0.125305
-0.117146
-0.109964
-0.103602
-0.0979699
-0.0929951
-0.0884384
-0.515057
-0.468055
-0.411082
-0.351032
-0.29979
-0.259123
-0.226761
-0.20076
-0.179595
-0.162149
-0.147588
-0.135293
-0.124801
-0.11576
-0.107901
-0.10102
-0.0949575
-0.0896215
-0.0849127
-0.0805741
-0.517782
-0.469383
-0.405764
-0.342539
-0.289697
-0.248263
-0.215595
-0.189551
-0.168493
-0.151248
-0.136948
-0.12495
-0.114778
-0.106065
-0.0985301
-0.0919698
-0.0862217
-0.081192
-0.0767486
-0.0726226
-0.51884
-0.468526
-0.39863
-0.332575
-0.278462
-0.236513
-0.203718
-0.177771
-0.156931
-0.139976
-0.126009
-0.114369
-0.104563
-0.0962157
-0.0890335
-0.0828141
-0.0773964
-0.0726901
-0.0685179
-0.0645867
-0.518014
-0.465233
-0.38958
-0.32111
-0.266066
-0.223856
-0.191119
-0.16541
-0.144901
-0.128329
-0.11477
-0.103547
-0.0941541
-0.0862092
-0.0794199
-0.073562
-0.0684894
-0.0641238
-0.0602228
-0.0564856
-0.515118
-0.459362
-0.378563
-0.30813
-0.252498
-0.21028
-0.177786
-0.15246
-0.132399
-0.116305
-0.10323
-0.0924898
-0.0835576
-0.0760502
-0.0696955
-0.0642236
-0.0595214
-0.0554949
-0.0518492
-0.0483496
-0.509969
-0.450817
-0.365538
-0.293626
-0.237751
-0.195776
-0.163713
-0.13892
-0.119426
-0.103914
-0.0913996
-0.0812065
-0.0727864
-0.0657618
-0.0598525
-0.0548008
-0.0504923
-0.0468109
-0.0434261
-0.0401859
-0.502378
-0.43954
-0.350481
-0.277594
-0.221821
-0.180338
-0.148901
-0.124799
-0.105996
-0.091173
-0.0792972
-0.0696984
-0.0618412
-0.0553421
-0.0499054
-0.0453013
-0.0414085
-0.0380843
-0.0349723
-0.0320073
-0.492152
-0.425498
-0.333387
-0.260035
-0.204701
-0.163973
-0.133374
-0.110125
-0.0921455
-0.0780754
-0.0669167
-0.0579776
-0.0507332
-0.0447974
-0.0398697
-0.0357382
-0.032281
-0.0293284
-0.0265029
-0.0238302
-0.47911
-0.408683
-0.314269
-0.240952
-0.186388
-0.146722
-0.117183
-0.0949135
-0.0778558
-0.0646405
-0.0542741
-0.0460585
-0.0394759
-0.0341415
-0.0297582
-0.026125
-0.0231233
-0.0205569
-0.0180319
-0.0156717
-0.463096
-0.389103
-0.293151
-0.220367
-0.166924
-0.128666
-0.100307
-0.0791686
-0.0631531
-0.0508893
-0.0413892
-0.0339582
-0.0280852
-0.0233907
-0.0195845
-0.0164761
-0.0139497
-0.0117841
-0.00957453
-0.00754876
-0.443983
-0.366777
-0.270057
-0.198349
-0.146462
-0.109726
-0.0827782
-0.0629213
-0.0480653
-0.0368462
-0.0282846
-0.0216964
-0.0165794
-0.0125624
-0.00936485
-0.00680715
-0.00477534
-0.00302517
-0.00114747
0.000521432
-0.421691
-0.341764
-0.244986
-0.175031
-0.124974
-0.089974
-0.0646346
-0.0462081
-0.0326248
-0.0225391
-0.0149856
-0.00929565
-0.0049791
-0.00167585
0.00088304
0.00286518
0.00438372
0.00570319
0.00723068
0.00852111
-0.39619
-0.314222
-0.217946
-0.150451
-0.102498
-0.0694723
-0.0459239
-0.0290704
-0.0168678
-0.00799966
-0.00152044
0.00321887
0.00669313
0.00924849
0.0111401
0.0125233
0.0135106
0.0143828
0.0155393
0.0164311
-0.367504
-0.284399
-0.189115
-0.124474
-0.0790956
-0.048289
-0.0267011
-0.0115543
-0.000834843
0.00673671
0.0120797
0.0158196
0.0184127
0.0201884
0.0213863
0.0221489
0.0225884
0.0229961
0.0237577
0.0242312
-0.335711
-0.252321
-0.158584
-0.0972797
-0.0548468
-0.0264954
-0.00702762
0.00628821
0.0154294
0.021631
0.0257807
0.0284764
0.030153
0.0311202
0.0315998
0.0317231
0.0316016
0.0315293
0.0318704
0.0319038
-0.300974
-0.21738
-0.127011
-0.069057
-0.0298411
-0.0041679
0.0130294
0.0244003
0.0318762
0.036641
0.0395459
0.0411573
0.0418857
0.042018
0.0417573
0.0412257
0.0405359
0.0399742
0.0398699
0.0394374
-0.263542
-0.179987
-0.0941721
-0.0399621
-0.00418526
0.0186101
0.0333973
0.0427203
0.0484526
0.0517213
0.0533358
0.0538281
0.0535806
0.0528547
0.0518338
0.0506357
0.0493767
0.0483202
0.0477422
0.0468161
-0.223464
-0.140658
-0.0601013
-0.0101293
0.0220027
0.0417471
0.0539985
0.061182
0.0651023
0.0668233
0.0671088
0.0664526
0.065206
0.0636019
0.0618051
0.0599345
0.0581088
0.0565414
0.0554285
0.0539666
-0.180397
-0.100421
-0.0250048
0.0203118
0.0485992
0.0651435
0.07475
0.0797151
0.0817656
0.0818962
0.0808213
0.0789931
0.076729
0.0742315
0.0716497
0.0691091
0.0667194
0.064592
0.0627999
0.0606746
-0.135142
-0.0591888
0.0108806
0.0512149
0.0754749
0.0886934
0.0955641
0.0982462
0.0983805
0.0968873
0.0944281
0.0914106
0.0881157
0.0847155
0.081349
0.0781502
0.075195
0.0724219
0.0697239
0.0667057
-0.0879688
-0.0170447
0.0473176
0.0824144
0.102494
0.112286
0.11635
0.116699
0.114883
0.111742
0.107883
0.103665
0.0993314
0.0950264
0.0908829
0.0870383
0.0835039
0.0799921
0.0762353
0.0724682
-0.0390981
0.0258168
0.0840832
0.113744
0.129522
0.135809
0.137014
0.134997
0.131207
0.126405
0.121137
0.115714
0.110341
0.105135
0.100225
0.0957349
0.0915854
0.0872905
0.082593
0.079374
0.0106687
0.0690897
0.120963
0.145044
0.156426
0.159152
0.157463
0.153059
0.147285
0.140818
0.134141
0.127515
0.121107
0.115012
0.109346
0.104196
0.0993908
0.0943865
0.0892006
0.0862937
0.0609917
0.112501
0.15772
0.176123
0.183055
0.182191
0.177596
0.170801
0.163047
0.15492
0.146843
0.139025
0.131594
0.124625
0.118211
0.112395
0.106939
0.101345
0.0958613
0.0929131
0.111468
0.155731
0.194116
0.206795
0.209259
0.204806
0.197313
0.188141
0.178422
0.168653
0.159193
0.1502
0.141765
0.133938
0.126786
0.120306
0.114235
0.10815
0.102401
0.0991725
0.161675
0.198462
0.22991
0.236872
0.234887
0.226873
0.216512
0.204994
0.19334
0.181957
0.17114
0.160996
0.151582
0.142918
0.135042
0.127914
0.121269
0.11475
0.108719
0.105109
0.211191
0.240376
0.264864
0.266168
0.259791
0.248271
0.235094
0.221278
0.207732
0.194774
0.182634
0.171371
0.161006
0.15153
0.14295
0.135198
0.128019
0.121099
0.114768
0.110741
0.259597
0.281158
0.298742
0.294496
0.283821
0.26888
0.252961
0.23691
0.221527
0.207043
0.193626
0.181283
0.170001
0.159742
0.150483
0.142137
0.134458
0.127157
0.120526
0.116081
0.306485
0.320502
0.331313
0.321675
0.306833
0.288583
0.270015
0.25181
0.234661
0.21871
0.204065
0.190687
0.178529
0.167521
0.157615
0.148706
0.140555
0.132895
0.125975
0.121131
0.351458
0.358111
0.362351
0.347528
0.328686
0.307264
0.286163
0.2659
0.247066
0.229718
0.213906
0.199546
0.186555
0.174837
0.164318
0.154878
0.146285
0.138289
0.1311
0.125884
0.394139
0.393697
0.391643
0.371886
0.349244
0.324814
0.301314
0.279107
0.25868
0.240015
0.223103
0.207818
0.194044
0.18166
0.170566
0.160629
0.151622
0.143316
0.135888
0.130327
0.434174
0.426985
0.418981
0.394587
0.368378
0.34113
0.315384
0.291358
0.269445
0.24955
0.231614
0.215466
0.200965
0.187961
0.176333
0.165934
0.156545
0.147956
0.140314
0.134421
0.471236
0.457714
0.444173
0.41548
0.385968
0.356112
0.328292
0.302587
0.279303
0.258276
0.239396
0.222457
0.207287
0.193714
0.181596
0.170773
0.161035
0.15219
0.144343
0.138102
0.505013
0.485646
0.46704
0.434424
0.401901
0.369671
0.339963
0.312732
0.288204
0.266149
0.246414
0.228758
0.212983
0.198894
0.186333
0.175127
0.165076
0.155998
0.147951
0.141384
0.535222
0.510568
0.48742
0.451291
0.416075
0.381724
0.35033
0.321738
0.296099
0.273129
0.252633
0.234339
0.218025
0.203479
0.190523
0.178979
0.168652
0.159368
0.151135
0.144276
0.561608
0.532292
0.505166
0.465967
0.428399
0.392196
0.359333
0.329553
0.302948
0.279181
0.258022
0.239173
0.222392
0.207447
0.194149
0.182312
0.171746
0.162283
0.153891
0.146781
0.583949
0.550651
0.520152
0.478352
0.438793
0.401023
0.366917
0.336135
0.308713
0.284273
0.262555
0.243238
0.226062
0.210782
0.197196
0.185111
0.174345
0.164731
0.156206
0.148888
0.602055
0.565507
0.532271
0.488362
0.447189
0.408151
0.373038
0.341445
0.313362
0.288378
0.266209
0.246513
0.229019
0.213469
0.19965
0.187365
0.176437
0.166703
0.158073
0.150587
0.615772
0.576747
0.541434
0.495928
0.453533
0.413534
0.37766
0.345453
0.316871
0.291475
0.268965
0.248983
0.231249
0.215494
0.2015
0.189065
0.178014
0.168189
0.159481
0.151869
0.624984
0.584286
0.547578
0.500999
0.457784
0.41714
0.380756
0.348137
0.31922
0.293549
0.27081
0.250637
0.232741
0.21685
0.202737
0.190202
0.179069
0.169184
0.160424
0.152728
0.629612
0.58807
0.55066
0.503542
0.459915
0.418948
0.382308
0.349482
0.320398
0.294588
0.271734
0.251465
0.233489
0.217529
0.203357
0.190771
0.179598
0.169683
0.160896
0.153159
0.629612
0.58807
0.55066
0.503542
0.459915
0.418948
0.382308
0.349482
0.320398
0.294588
0.271734
0.251465
0.233489
0.217529
0.203357
0.190771
0.179598
0.169683
0.160896
0.153159
0.624984
0.584286
0.547578
0.500999
0.457784
0.41714
0.380756
0.348137
0.31922
0.293549
0.27081
0.250637
0.232741
0.21685
0.202737
0.190202
0.179069
0.169184
0.160424
0.152728
0.615772
0.576747
0.541434
0.495928
0.453533
0.413534
0.37766
0.345453
0.316871
0.291475
0.268965
0.248983
0.231249
0.215494
0.2015
0.189065
0.178014
0.168189
0.159481
0.151869
0.602055
0.565507
0.532271
0.488362
0.447189
0.408151
0.373038
0.341445
0.313362
0.288378
0.266209
0.246513
0.229019
0.213469
0.19965
0.187365
0.176437
0.166703
0.158073
0.150587
0.583949
0.550651
0.520152
0.478352
0.438793
0.401023
0.366917
0.336135
0.308713
0.284273
0.262555
0.243238
0.226062
0.210782
0.197196
0.185111
0.174345
0.164731
0.156206
0.148888
0.561608
0.532292
0.505166
0.465967
0.428399
0.392196
0.359333
0.329553
0.302948
0.279181
0.258022
0.239173
0.222392
0.207447
0.194149
0.182312
0.171746
0.162283
0.153891
0.146781
0.535222
0.510568
0.48742
0.451291
0.416075
0.381724
0.35033
0.321738
0.296099
0.273129
0.252633
0.234339
0.218025
0.203479
0.190523
0.178979
0.168652
0.159368
0.151135
0.144276
0.505013
0.485646
0.46704
0.434424
0.401901
0.369671
0.339963
0.312732
0.288204
0.266149
0.246414
0.228758
0.212983
0.198894
0.186333
0.175127
0.165076
0.155998
0.147951
0.141384
0.471236
0.457714
0.444173
0.41548
0.385968
0.356112
0.328292
0.302587
0.279303
0.258276
0.239396
0.222457
0.207287
0.193714
0.181596
0.170773
0.161035
0.15219
0.144343
0.138102
0.434174
0.426985
0.418981
0.394587
0.368378
0.34113
0.315384
0.291358
0.269445
0.24955
0.231614
0.215466
0.200965
0.187961
0.176333
0.165934
0.156545
0.147956
0.140314
0.134421
0.394139
0.393697
0.391643
0.371886
0.349244
0.324814
0.301314
0.279107
0.25868
0.240015
0.223103
0.207818
0.194044
0.18166
0.170566
0.160629
0.151622
0.143316
0.135888
0.130327
0.351458
0.358111
0.362351
0.347528
0.328686
0.307264
0.286163
0.2659
0.247066
0.229718
0.213906
0.199546
0.186554
0.174837
0.164318
0.154878
0.146285
0.138289
0.1311
0.125884
0.306485
0.320502
0.331313
0.321675
0.306833
0.288583
0.270015
0.25181
0.234661
0.21871
0.204065
0.190687
0.178529
0.167521
0.157615
0.148706
0.140555
0.132895
0.125975
0.121131
0.259597
0.281158
0.298742
0.294496
0.283821
0.26888
0.252961
0.23691
0.221527
0.207043
0.193626
0.181283
0.170001
0.159742
0.150483
0.142137
0.134458
0.127157
0.120526
0.116081
0.211191
0.240376
0.264864
0.266168
0.259791
0.248271
0.235094
0.221278
0.207732
0.194773
0.182634
0.171371
0.161006
0.15153
0.14295
0.135198
0.128019
0.121099
0.114768
0.110741
0.161675
0.198462
0.22991
0.236872
0.234887
0.226873
0.216512
0.204994
0.19334
0.181957
0.17114
0.160996
0.151582
0.142918
0.135042
0.127914
0.121269
0.11475
0.108719
0.105109
0.111468
0.155731
0.194116
0.206795
0.209259
0.204806
0.197313
0.188141
0.178422
0.168653
0.159193
0.150199
0.141765
0.133938
0.126786
0.120306
0.114235
0.10815
0.102401
0.0991725
0.0609916
0.112501
0.15772
0.176123
0.183055
0.182191
0.177596
0.170801
0.163047
0.15492
0.146843
0.139025
0.131594
0.124625
0.118211
0.112395
0.106939
0.101345
0.0958613
0.0929131
0.0106686
0.0690896
0.120963
0.145044
0.156426
0.159152
0.157463
0.153058
0.147285
0.140818
0.134141
0.127515
0.121107
0.115012
0.109346
0.104196
0.0993908
0.0943865
0.0892005
0.0862937
-0.0390982
0.0258167
0.0840831
0.113744
0.129522
0.135809
0.137014
0.134997
0.131207
0.126405
0.121137
0.115714
0.110341
0.105135
0.100225
0.0957349
0.0915853
0.0872905
0.082593
0.079374
-0.0879689
-0.0170448
0.0473176
0.0824143
0.102494
0.112286
0.11635
0.116699
0.114883
0.111742
0.107883
0.103665
0.0993314
0.0950264
0.0908828
0.0870383
0.0835039
0.079992
0.0762353
0.0724681
-0.135142
-0.0591889
0.0108805
0.0512148
0.0754749
0.0886934
0.095564
0.0982462
0.0983805
0.0968873
0.094428
0.0914106
0.0881156
0.0847155
0.081349
0.0781502
0.0751949
0.0724219
0.0697239
0.0667056
-0.180398
-0.100421
-0.0250049
0.0203118
0.0485992
0.0651435
0.0747499
0.079715
0.0817655
0.0818962
0.0808212
0.0789931
0.076729
0.0742315
0.0716497
0.0691091
0.0667193
0.064592
0.0627999
0.0606745
-0.223464
-0.140658
-0.0601014
-0.0101294
0.0220026
0.041747
0.0539984
0.0611819
0.0651022
0.0668232
0.0671088
0.0664525
0.065206
0.0636019
0.0618051
0.0599344
0.0581088
0.0565413
0.0554285
0.0539666
-0.263542
-0.179987
-0.0941722
-0.0399621
-0.00418532
0.0186101
0.0333973
0.0427203
0.0484525
0.0517212
0.0533358
0.053828
0.0535806
0.0528547
0.0518338
0.0506357
0.0493767
0.0483201
0.0477422
0.0468161
-0.300974
-0.21738
-0.127011
-0.069057
-0.0298412
-0.00416796
0.0130293
0.0244003
0.0318761
0.036641
0.0395458
0.0411573
0.0418856
0.042018
0.0417573
0.0412256
0.0405359
0.0399741
0.0398699
0.0394373
-0.335711
-0.252321
-0.158584
-0.0972798
-0.0548468
-0.0264955
-0.00702768
0.00628816
0.0154294
0.021631
0.0257807
0.0284764
0.0301529
0.0311201
0.0315998
0.0317231
0.0316016
0.0315293
0.0318704
0.0319038
-0.367504
-0.284399
-0.189115
-0.124474
-0.0790957
-0.0482891
-0.0267012
-0.0115544
-0.000834897
0.00673665
0.0120797
0.0158195
0.0184126
0.0201884
0.0213862
0.0221489
0.0225884
0.022996
0.0237576
0.0242312
-0.39619
-0.314222
-0.217946
-0.150451
-0.102498
-0.0694724
-0.045924
-0.0290704
-0.0168679
-0.00799971
-0.00152049
0.00321883
0.00669309
0.00924845
0.0111401
0.0125232
0.0135105
0.0143828
0.0155392
0.016431
-0.421691
-0.341764
-0.244986
-0.175031
-0.124974
-0.0899741
-0.0646347
-0.0462082
-0.0326249
-0.0225392
-0.0149856
-0.0092957
-0.00497914
-0.0016759
0.000882998
0.00286514
0.00438368
0.00570315
0.00723065
0.00852107
-0.443983
-0.366777
-0.270057
-0.198349
-0.146462
-0.109726
-0.0827783
-0.0629213
-0.0480653
-0.0368463
-0.0282846
-0.0216964
-0.0165795
-0.0125625
-0.00936489
-0.0068072
-0.00477538
-0.00302521
-0.0011475
0.000521395
-0.463096
-0.389103
-0.293151
-0.220367
-0.166924
-0.128666
-0.100307
-0.0791686
-0.0631531
-0.0508893
-0.0413892
-0.0339583
-0.0280853
-0.0233907
-0.0195845
-0.0164761
-0.0139498
-0.0117842
-0.00957456
-0.0075488
-0.47911
-0.408683
-0.314269
-0.240952
-0.186388
-0.146722
-0.117183
-0.0949136
-0.0778559
-0.0646405
-0.0542741
-0.0460586
-0.039476
-0.0341415
-0.0297582
-0.026125
-0.0231234
-0.0205569
-0.0180319
-0.0156717
-0.492152
-0.425498
-0.333387
-0.260035
-0.204701
-0.163973
-0.133374
-0.110125
-0.0921455
-0.0780755
-0.0669168
-0.0579776
-0.0507333
-0.0447974
-0.0398698
-0.0357382
-0.0322811
-0.0293284
-0.0265029
-0.0238302
-0.502378
-0.43954
-0.350481
-0.277594
-0.221821
-0.180338
-0.148901
-0.124799
-0.105996
-0.0911731
-0.0792973
-0.0696984
-0.0618412
-0.0553422
-0.0499054
-0.0453014
-0.0414085
-0.0380843
-0.0349724
-0.0320073
-0.509969
-0.450817
-0.365538
-0.293626
-0.237751
-0.195776
-0.163713
-0.13892
-0.119426
-0.103914
-0.0913997
-0.0812066
-0.0727865
-0.0657618
-0.0598526
-0.0548008
-0.0504923
-0.0468109
-0.0434261
-0.040186
-0.515118
-0.459362
-0.378564
-0.308131
-0.252498
-0.21028
-0.177787
-0.15246
-0.132399
-0.116305
-0.103231
-0.0924899
-0.0835577
-0.0760503
-0.0696956
-0.0642237
-0.0595215
-0.0554949
-0.0518492
-0.0483497
-0.518014
-0.465233
-0.38958
-0.32111
-0.266066
-0.223856
-0.191119
-0.16541
-0.144901
-0.128329
-0.11477
-0.103547
-0.0941541
-0.0862093
-0.0794199
-0.073562
-0.0684894
-0.0641239
-0.0602228
-0.0564856
-0.51884
-0.468526
-0.39863
-0.332575
-0.278462
-0.236513
-0.203718
-0.177771
-0.156931
-0.139976
-0.12601
-0.114369
-0.104563
-0.0962158
-0.0890336
-0.0828142
-0.0773964
-0.0726902
-0.068518
-0.0645867
-0.517782
-0.469383
-0.405764
-0.342539
-0.289697
-0.248263
-0.215595
-0.189551
-0.168493
-0.151248
-0.136948
-0.124951
-0.114778
-0.106065
-0.0985302
-0.0919698
-0.0862217
-0.081192
-0.0767486
-0.0726227
-0.515057
-0.468055
-0.411082
-0.351032
-0.29979
-0.259123
-0.226761
-0.20076
-0.179595
-0.162149
-0.147588
-0.135293
-0.124801
-0.11576
-0.107901
-0.10102
-0.0949575
-0.0896215
-0.0849128
-0.0805742
-0.510647
-0.464723
-0.414645
-0.358088
-0.308781
-0.269127
-0.237243
-0.211417
-0.190251
-0.17269
-0.157938
-0.145403
-0.134638
-0.125305
-0.117146
-0.109964
-0.103602
-0.0979699
-0.0929951
-0.0884384
-0.50475
-0.459757
-0.416557
-0.363747
-0.316709
-0.278308
-0.247067
-0.221542
-0.200477
-0.182885
-0.168011
-0.155289
-0.144295
-0.134704
-0.126269
-0.118803
-0.112154
-0.106232
-0.100986
-0.0962108
-0.497551
-0.453576
-0.416911
-0.368054
-0.323609
-0.286694
-0.256257
-0.231155
-0.210291
-0.192748
-0.177817
-0.164962
-0.15378
-0.143963
-0.135276
-0.127542
-0.120616
-0.114407
-0.108881
-0.103883
-0.489222
-0.4466
-0.415796
-0.37107
-0.329527
-0.294317
-0.264838
-0.24028
-0.219712
-0.202296
-0.18737
-0.174433
-0.163104
-0.153092
-0.144175
-0.136186
-0.128991
-0.122497
-0.11668
-0.111451
-0.479961
-0.439218
-0.413319
-0.372887
-0.334515
-0.301212
-0.272843
-0.248946
-0.228765
-0.211549
-0.196689
-0.183719
-0.172281
-0.162103
-0.152975
-0.144743
-0.137284
-0.130506
-0.124387
-0.118911
-0.470003
-0.431742
-0.409636
-0.373622
-0.338632
-0.307413
-0.280303
-0.257183
-0.237477
-0.220531
-0.205795
-0.192838
-0.181329
-0.171011
-0.161692
-0.153226
-0.145506
-0.138442
-0.132006
-0.126264
-0.459612
-0.424383
-0.40497
-0.373412
-0.341932
-0.312956
-0.287252
-0.265023
-0.245878
-0.229271
-0.214713
-0.201814
-0.190267
-0.179837
-0.170342
-0.161651
-0.153668
-0.146315
-0.139545
-0.133515
-0.449073
-0.417251
-0.399623
-0.372406
-0.34447
-0.317872
-0.293722
-0.272498
-0.253999
-0.237795
-0.223469
-0.210671
-0.199121
-0.188601
-0.178946
-0.170036
-0.161787
-0.154138
-0.147016
-0.140673
-0.438667
-0.410385
-0.393952
-0.370751
-0.346301
-0.322194
-0.29974
-0.279637
-0.261869
-0.246135
-0.232093
-0.219438
-0.207916
-0.19733
-0.187529
-0.178404
-0.169884
-0.161928
-0.154434
-0.147748
-0.428638
-0.403784
-0.388308
-0.368588
-0.347485
-0.325951
-0.305327
-0.286463
-0.269517
-0.25432
-0.240615
-0.228144
-0.216683
-0.206053
-0.196119
-0.186783
-0.177982
-0.169708
-0.161816
-0.154754
-0.419174
-0.397452
-0.382969
-0.366062
-0.348092
-0.329172
-0.3105
-0.292997
-0.276968
-0.262381
-0.249067
-0.236823
-0.225455
-0.214803
-0.204748
-0.195205
-0.186113
-0.177503
-0.169188
-0.161712
-0.410387
-0.391419
-0.37808
-0.363326
-0.348203
-0.331883
-0.315266
-0.299246
-0.28424
-0.270343
-0.257481
-0.245508
-0.234266
-0.223617
-0.213453
-0.203705
-0.19431
-0.185346
-0.176574
-0.168642
-0.402327
-0.38574
-0.373659
-0.360551
-0.347913
-0.334113
-0.319625
-0.305212
-0.291346
-0.278231
-0.265888
-0.254237
-0.243157
-0.232534
-0.222274
-0.212327
-0.202616
-0.193273
-0.184014
-0.175571
-0.394996
-0.380478
-0.369653
-0.357898
-0.347328
-0.335896
-0.323572
-0.310883
-0.298285
-0.286058
-0.274315
-0.263043
-0.252168
-0.2416
-0.23126
-0.221118
-0.21108
-0.201334
-0.191535
-0.182532
-0.388375
-0.375681
-0.365999
-0.355479
-0.346565
-0.337279
-0.3271
-0.316235
-0.30504
-0.293828
-0.282782
-0.271962
-0.26134
-0.250863
-0.240459
-0.230132
-0.219756
-0.209581
-0.199214
-0.189552
-0.382428
-0.371367
-0.362672
-0.353332
-0.345745
-0.338327
-0.330211
-0.321236
-0.311581
-0.301527
-0.2913
-0.281022
-0.270716
-0.260372
-0.24993
-0.239428
-0.228715
-0.218086
-0.207069
-0.196707
-0.377116
-0.367526
-0.35968
-0.35145
-0.34497
-0.339123
-0.332916
-0.325847
-0.317856
-0.30912
-0.29986
-0.29024
-0.280334
-0.27018
-0.25973
-0.249077
-0.238017
-0.22694
-0.21526
-0.203986
-0.372392
-0.364126
-0.357037
-0.349815
-0.344308
-0.339758
-0.335247
-0.330036
-0.3238
-0.316547
-0.308427
-0.299617
-0.290221
-0.280336
-0.269924
-0.259141
-0.247766
-0.236205
-0.223818
-0.211669
-0.368198
-0.361128
-0.354752
-0.348433
-0.343797
-0.340319
-0.337257
-0.333781
-0.329337
-0.323718
-0.316935
-0.309124
-0.300387
-0.29088
-0.280573
-0.269704
-0.258002
-0.246075
-0.232898
-0.219672
-0.364468
-0.358484
-0.352812
-0.347323
-0.343467
-0.340887
-0.339026
-0.337096
-0.334403
-0.330526
-0.325279
-0.318692
-0.310812
-0.301836
-0.291727
-0.280834
-0.268842
-0.256437
-0.243069
-0.22877
-0.361153
-0.356142
-0.351163
-0.346459
-0.343308
-0.341492
-0.340609
-0.34
-0.338941
-0.336846
-0.33331
-0.328197
-0.321425
-0.31319
-0.303431
-0.292576
-0.280424
-0.267413
-0.254126
-0.238199
-0.358177
-0.354054
-0.349765
-0.345832
-0.343335
-0.342178
-0.342087
-0.342559
-0.34294
-0.342571
-0.340857
-0.337455
-0.332088
-0.324863
-0.315694
-0.30496
-0.292791
-0.279064
-0.265337
-0.247971
-0.355463
-0.352167
-0.348567
-0.345403
-0.343541
-0.342973
-0.343527
-0.344856
-0.346438
-0.347636
-0.347751
-0.346233
-0.34258
-0.336683
-0.328439
-0.317985
-0.305907
-0.291483
-0.276795
-0.258172
-0.352948
-0.350427
-0.347511
-0.345116
-0.343889
-0.343874
-0.344975
-0.346978
-0.349514
-0.352044
-0.353869
-0.354285
-0.352607
-0.348372
-0.341465
-0.331584
-0.319725
-0.304769
-0.288901
-0.269029
-0.35057
-0.348785
-0.346538
-0.34491
-0.34432
-0.34485
-0.346447
-0.348998
-0.352275
-0.355869
-0.359178
-0.361425
-0.361841
-0.359554
-0.354413
-0.345546
-0.334156
-0.318948
-0.301961
-0.280782
-0.348274
-0.347203
-0.345598
-0.34472
-0.34477
-0.345849
-0.347923
-0.350952
-0.354817
-0.359236
-0.363742
-0.367589
-0.370015
-0.369825
-0.36679
-0.359454
-0.348958
-0.333893
-0.316065
-0.293575
-0.346017
-0.345647
-0.344645
-0.34449
-0.345168
-0.346799
-0.349354
-0.352835
-0.357199
-0.362265
-0.367695
-0.372849
-0.377006
-0.378875
-0.378066
-0.372701
-0.363624
-0.349214
-0.331034
-0.307395
-0.343771
-0.344091
-0.343648
-0.34417
-0.34545
-0.347627
-0.350667
-0.3546
-0.359422
-0.36503
-0.371172
-0.377356
-0.382867
-0.386579
-0.387841
-0.384644
-0.377434
-0.364193
-0.346337
-0.321966
-0.341523
-0.342523
-0.342588
-0.343724
-0.345565
-0.348264
-0.351785
-0.35617
-0.361439
-0.367533
-0.374254
-0.381243
-0.38776
-0.392988
-0.395966
-0.394807
-0.389685
-0.377891
-0.361107
-0.336605
-0.339273
-0.340946
-0.341452
-0.343134
-0.345478
-0.34866
-0.352638