/*--------------------------------*- C++ -*----------------------------------*\
  =========                 |
  \\      /  F ield         | OpenFOAM: The Open Source CFD Toolbox
   \\    /   O peration     | Website:  https://openfoam.org
    \\  /    A nd           | Version:  7
     \\/     M anipulation  |
\*---------------------------------------------------------------------------*/
FoamFile
{
    version     2.0;
    format      ascii;
    class       volVectorField;
    location    "10";
    object      U;
}
// * * * * * * * * * * * * * * * * * * * * * * * * * * * * * * * * * * * * * //

dimensions      [0 1 -1 0 0 0 0];

internalField   nonuniform List<vector> 
12100
(
(-0.00922686 0.00349052 -4.05239e-20)
(-0.0385817 0.00599369 -4.93016e-20)
(-0.0788793 0.00687544 6.19356e-21)
(-0.116345 0.00716667 -1.60925e-20)
(-0.152781 0.00729995 7.91803e-20)
(-0.187377 0.00745407 2.53178e-20)
(-0.22093 0.00766185 -3.58005e-20)
(-0.253718 0.00790415 3.76463e-20)
(-0.285943 0.00813779 -5.42411e-20)
(-0.317541 0.00830659 3.22069e-20)
(-0.348232 0.00834367 1.71149e-20)
(-0.377496 0.00817183 6.31482e-21)
(-0.404577 0.00770598 -2.10983e-20)
(-0.428499 0.00686078 -1.22938e-20)
(-0.44803 0.00553413 -8.14522e-21)
(-0.46181 0.0036744 3.40187e-20)
(-0.468196 0.00116905 -3.97348e-20)
(-0.465549 -0.00203852 -8.21929e-21)
(-0.452796 -0.00529265 9.20629e-21)
(-0.425912 -0.0100727 -2.53261e-20)
(-0.00951086 0.01037 2.05525e-21)
(-0.0385695 0.01784 -3.11205e-20)
(-0.0780618 0.0204779 -6.57002e-20)
(-0.114505 0.0213403 5.36137e-20)
(-0.149651 0.0217194 3.46292e-20)
(-0.182654 0.0221503 5.41472e-21)
(-0.214242 0.0227333 1.03602e-19)
(-0.244628 0.0234119 -1.5597e-19)
(-0.273941 0.0240577 1.05275e-19)
(-0.302045 0.0245033 -8.38912e-20)
(-0.328589 0.024551 1.00549e-20)
(-0.352988 0.0239745 -5.10191e-20)
(-0.374438 0.0225254 1.8791e-20)
(-0.391954 0.0199651 3.85737e-20)
(-0.404304 0.0159901 6.51842e-20)
(-0.410269 0.0104694 3.96695e-20)
(-0.408384 0.0031432 1.0969e-19)
(-0.39664 -0.00647031 9.87969e-21)
(-0.376299 -0.0155859 -8.57542e-20)
(-0.337549 -0.0302487 5.86931e-20)
(-0.0100674 0.016953 -1.15436e-20)
(-0.0385559 0.0292708 -4.4599e-20)
(-0.0764735 0.0336405 6.43733e-20)
(-0.110913 0.0350413 5.0251e-20)
(-0.143533 0.0356059 -1.71491e-19)
(-0.173434 0.0362234 2.26519e-20)
(-0.201218 0.0370656 -1.74036e-19)
(-0.226981 0.0380431 9.97824e-21)
(-0.250735 0.0389452 -4.039e-20)
(-0.272229 0.0394986 8.32321e-20)
(-0.291008 0.0393832 -2.56476e-20)
(-0.306413 0.0382393 3.06307e-20)
(-0.317584 0.0356728 -3.1598e-20)
(-0.323595 0.0313401 -6.13529e-20)
(-0.323229 0.0247482 -7.18426e-20)
(-0.315512 0.0157385 -8.88326e-20)
(-0.299736 0.00423535 -1.7899e-19)
(-0.271804 -0.0118097 6.49514e-20)
(-0.240981 -0.0256207 5.35014e-20)
(-0.181292 -0.0500309 1.59565e-19)
(-0.0108751 0.0230618 5.80856e-20)
(-0.0385616 0.0400275 2.36101e-19)
(-0.0742037 0.0460834 -7.77377e-20)
(-0.105735 0.0479685 -1.6047e-19)
(-0.134705 0.048624 -9.38646e-20)
(-0.160149 0.049287 1.32052e-19)
(-0.182516 0.0502094 1.67322e-19)
(-0.201768 0.051276 4.0934e-20)
(-0.217783 0.0522021 -3.58519e-21)
(-0.230202 0.0526182 -2.39064e-19)
(-0.238492 0.0520968 -1.15977e-19)
(-0.241968 0.0501709 5.51067e-20)
(-0.239766 0.0463195 6.60882e-21)
(-0.231158 0.0401633 5.63227e-20)
(-0.214987 0.0310393 -1.72862e-19)
(-0.190318 0.0187878 6.77645e-20)
(-0.158905 0.00398597 9.96337e-20)
(-0.11008 -0.0180482 1.12829e-19)
(-0.0706589 -0.0370051 -5.94444e-20)
(0.0152176 -0.0669923 -1.30609e-19)
(-0.0119043 0.0285448 -1.58235e-19)
(-0.0386153 0.0498756 -4.60964e-20)
(-0.0713769 0.0575454 1.39367e-19)
(-0.0992052 0.0598398 7.34131e-20)
(-0.123544 0.0604636 3.64283e-19)
(-0.143388 0.0609931 -3.41967e-19)
(-0.159026 0.0617709 -1.94808e-19)
(-0.170296 0.0626684 7.32747e-20)
(-0.176972 0.0633398 -4.02345e-21)
(-0.17863 0.063336 4.86258e-20)
(-0.174721 0.0621436 7.36219e-20)
(-0.164634 0.0592222 -2.01746e-19)
(-0.147554 0.0539406 2.49534e-19)
(-0.12313 0.0459573 1.30114e-19)
(-0.0903813 0.0344528 2.04717e-19)
(-0.0476203 0.019434 -4.86161e-21)
(-0.00200061 0.000827963 -4.96055e-20)
(0.0694683 -0.0239325 5.8606e-21)
(0.114782 -0.0495972 -7.17711e-20)
(0.228728 -0.0813927 -1.25378e-19)
(-0.0131203 0.033284 1.02974e-19)
(-0.0387509 0.0586135 8.53231e-21)
(-0.0681429 0.0677903 -2.59796e-19)
(-0.0916036 0.0703982 -1.29805e-19)
(-0.110503 0.0708478 -4.29973e-19)
(-0.123835 0.0710414 -1.53587e-20)
(-0.131758 0.0714246 -2.24859e-20)
(-0.134023 0.0718715 3.16185e-20)
(-0.130348 0.0719943 5.61087e-20)
(-0.120311 0.0712857 4.97956e-20)
(-0.103417 0.0691732 4.06428e-19)
(-0.0792428 0.0650782 -1.897e-21)
(-0.0470228 0.0582862 1.50702e-19)
(-0.00690711 0.0485362 -3.7363e-19)
(0.0417357 0.0346829 4.82591e-20)
(0.102004 0.0178183 -7.83489e-20)
(0.159747 -0.00553587 -6.23394e-20)
(0.254383 -0.0301584 5.83978e-20)
(0.30155 -0.0612595 -1.26385e-19)
(0.44333 -0.0949783 1.22703e-19)
(-0.0144868 0.0372006 -2.63802e-19)
(-0.0390036 0.0660794 -4.74233e-19)
(-0.064663 0.076614 1.72715e-19)
(-0.083231 0.079418 -4.85724e-20)
(-0.0960586 0.0795387 3.87104e-19)
(-0.102204 0.0791858 3.76957e-19)
(-0.101738 0.07892 -1.31069e-19)
(-0.094377 0.0786372 1.84158e-19)
(-0.0798401 0.0779301 -1.98564e-19)
(-0.0577731 0.0762591 3.09748e-20)
(-0.0277807 0.0730245 -8.40065e-20)
(0.010302 0.0676153 1.33558e-19)
(0.0572279 0.0592815 -5.35002e-21)
(0.112277 0.0479769 -1.3011e-19)
(0.175797 0.0315958 3.43725e-19)
(0.252675 0.0140274 -1.34636e-19)
(0.321422 -0.0136806 -1.13681e-19)
(0.436473 -0.0379785 1.76574e-19)
(0.486666 -0.0724813 6.51205e-20)
(0.649274 -0.106794 2.75147e-19)
(-0.0159689 0.0402576 1.95421e-19)
(-0.0394062 0.0721563 2.18349e-19)
(-0.0610953 0.0838493 1.52837e-19)
(-0.0743821 0.086709 5.49563e-19)
(-0.080671 0.0863415 -1.23074e-19)
(-0.0791556 0.0852384 1.88697e-19)
(-0.0698768 0.0840858 2.48732e-19)
(-0.0525644 0.082822 -3.16371e-19)
(-0.0269836 0.0810449 5.96649e-19)
(0.00712033 0.078207 1.09677e-20)
(0.0500297 0.0737137 -5.18933e-19)
(0.101651 0.0669341 -5.41206e-20)
(0.162861 0.0570697 -5.27612e-19)
(0.232235 0.0446012 2.54768e-19)
(0.310451 0.0257142 -1.91792e-19)
(0.402097 0.0081675 2.01957e-19)
(0.484365 -0.0228175 2.82346e-19)
(0.61233 -0.0463481 1.07268e-19)
(0.670783 -0.0830548 -2.96341e-19)
(0.841227 -0.115126 -2.46738e-19)
(-0.0175366 0.0424589 -9.61219e-20)
(-0.0399843 0.0767748 5.73316e-20)
(-0.0575775 0.0893715 -4.64449e-19)
(-0.0653126 0.0921223 -2.68687e-19)
(-0.0647255 0.0911089 -2.16753e-19)
(-0.0552154 0.0890731 -1.22163e-19)
(-0.0368392 0.0868347 -6.06693e-19)
(-0.00937046 0.0843944 1.10899e-19)
(0.0273699 0.0813818 -6.02679e-19)
(0.0735544 0.077264 -1.85088e-19)
(0.129398 0.0714844 1.20847e-19)
(0.194604 0.0634338 2.24523e-19)
(0.270254 0.0521997 -6.98308e-20)
(0.354027 0.0389605 2.71309e-19)
(0.447849 0.0182841 1.56554e-20)
(0.551926 0.000796106 -3.02135e-19)
(0.650561 -0.0314981 1.94532e-20)
(0.781681 -0.0535208 -4.21319e-19)
(0.851815 -0.0911487 7.95994e-20)
(1.01189 -0.118008 -1.57539e-19)
(-0.0191673 0.0438465 3.66863e-19)
(-0.0407508 0.0799139 4.25776e-19)
(-0.0542083 0.0931026 1.12874e-19)
(-0.0562037 0.0955556 4.66984e-19)
(-0.0484747 0.0937468 1.31473e-19)
(-0.0306745 0.0906327 2.96332e-19)
(-0.00289615 0.0871725 3.37246e-19)
(0.0350548 0.083451 3.15093e-19)
(0.0833404 0.0791579 3.2873e-19)
(0.142119 0.0738002 -2.46618e-19)
(0.211577 0.0668965 3.91123e-19)
(0.291312 0.0578791 3.92459e-19)
(0.382317 0.0457287 5.1723e-19)
(0.481292 0.0321123 -5.02546e-19)
(0.591 0.0110315 4.49788e-20)
(0.705251 -0.0063192 4.42371e-19)
(0.817911 -0.0377237 -1.57502e-19)
(0.942398 -0.0575193 8.50951e-22)
(1.02015 -0.0942858 -1.14183e-20)
(1.15075 -0.114449 1.9673e-19)
(-0.0208471 0.0444944 -2.29898e-19)
(-0.0416997 0.081598 -3.86684e-19)
(-0.0510278 0.0950151 6.78625e-19)
(-0.0471231 0.0969592 -7.01446e-19)
(-0.0319708 0.0942228 -5.05325e-19)
(-0.0054859 0.0899391 -2.19747e-19)
(0.03223 0.085215 -9.67952e-20)
(0.0814016 0.0802438 -5.38069e-19)
(0.142247 0.0748078 -2.26897e-19)
(0.21497 0.0684896 -5.25277e-20)
(0.299635 0.0608783 -1.70393e-19)
(0.395651 0.0514796 -1.16061e-19)
(0.503055 0.0392257 -2.79426e-19)
(0.617604 0.0258507 -1.38771e-19)
(0.74044 0.00584442 5.1651e-20)
(0.861014 -0.0107957 -2.76604e-19)
(0.977936 -0.0396396 3.04808e-20)
(1.08682 -0.0569021 1.34522e-20)
(1.16015 -0.0911759 -1.94056e-19)
(1.24903 -0.105291 1.30574e-19)
(-0.0225706 0.0445 2.15243e-19)
(-0.0427985 0.0818924 1.71318e-19)
(-0.0479969 0.0951349 -7.87974e-19)
(-0.0379841 0.0963437 -2.66814e-19)
(-0.0149948 0.092577 2.85817e-19)
(0.0208441 0.0871117 -1.52737e-19)
(0.0695066 0.0812148 4.16625e-19)
(0.131339 0.0752204 4.02619e-19)
(0.206643 0.0690365 5.45873e-20)
(0.295556 0.0623417 -8.44932e-20)
(0.397602 0.0547626 5.41448e-19)
(0.511426 0.0458588 -6.2392e-19)
(0.634842 0.0345638 -5.71451e-19)
(0.762463 0.022234 8.02433e-19)
(0.891406 0.00439755 -1.78332e-19)
(1.01039 -0.0109553 9.15259e-20)
(1.11765 -0.0365814 1.23049e-19)
(1.20323 -0.0515863 -1.06515e-19)
(1.25911 -0.0828327 2.87459e-19)
(1.30619 -0.092791 3.4191e-19)
(-0.0243397 0.0439746 -6.89576e-19)
(-0.0439835 0.0809009 -6.74009e-19)
(-0.0449741 0.0935375 5.04217e-19)
(-0.0285037 0.093786 3.22144e-19)
(0.00301246 0.088937 1.72935e-19)
(0.0493485 0.0823907 -1.42541e-19)
(0.110671 0.0755981 -2.58708e-19)
(0.187476 0.0690704 1.32376e-19)
(0.279965 0.0628531 1.84645e-20)
(0.387669 0.056693 1.12926e-19)
(0.50868 0.0501921 -3.0991e-19)
(0.639714 0.0427724 -1.31938e-19)
(0.775406 0.0334227 4.42207e-19)
(0.908828 0.022674 -5.84959e-19)
(1.03328 0.00740582 -3.3629e-20)
(1.13955 -0.00677538 2.41919e-19)
(1.22512 -0.0294799 -9.6971e-20)
(1.28306 -0.0430499 -1.18404e-19)
(1.31582 -0.0717296 1.50334e-20)
(1.33107 -0.0792594 -1.57524e-19)
(-0.026157 0.0430322 1.06807e-19)
(-0.0451533 0.0787587 7.07634e-19)
(-0.0416974 0.0903451 -2.2305e-19)
(-0.0181636 0.0894356 -2.88424e-20)
(0.0230049 0.0835343 -2.2504e-19)
(0.081643 0.0761673 -8.5481e-20)
(0.158172 0.0690065 7.75242e-20)
(0.253024 0.0627544 2.55328e-19)
(0.365641 0.0575534 7.3155e-20)
(0.493814 0.0530818 -6.78007e-19)
(0.632942 0.0487604 3.33458e-19)
(0.776644 0.0435721 1.96417e-19)
(0.916534 0.0365875 -2.57295e-19)
(1.04458 0.0272631 4.08857e-19)
(1.15315 0.0141009 3.13557e-19)
(1.23706 0.00025431 -8.21917e-20)
(1.29545 -0.0202348 1.36808e-21)
(1.32735 -0.0333981 -1.36381e-20)
(1.34024 -0.0600229 -3.73754e-19)
(1.33643 -0.0660902 -4.94769e-19)
(-0.0280219 0.0417824 6.0184e-19)
(-0.0461556 0.0756121 -1.75395e-19)
(-0.0377734 0.0857288 -4.5142e-19)
(-0.00618575 0.0835204 6.04156e-19)
(0.0463517 0.0767207 5.3759e-19)
(0.119877 0.0690126 3.90514e-19)
(0.214898 0.0623193 3.62333e-19)
(0.331058 0.0574833 -1.27066e-19)
(0.465725 0.0545747 2.35564e-19)
(0.613388 0.0529126 2.0338e-19)
(0.765731 0.0514783 -1.93437e-19)
(0.913242 0.0486238 1.38996e-19)
(1.04621 0.0435055 1.19812e-19)
(1.15748 0.034773 -9.41834e-20)
(1.24207 0.0226583 2.12586e-19)
(1.29987 0.00821437 -2.3776e-19)
(1.33307 -0.0105834 2.84037e-19)
(1.34559 -0.0241224 5.41817e-19)
(1.34564 -0.0486864 2.63319e-19)
(1.33241 -0.0538197 4.05134e-19)
(-0.029926 0.0403193 -1.89779e-19)
(-0.0467795 0.0716088 1.05382e-19)
(-0.0326656 0.0799026 2.61815e-19)
(0.00847189 0.0763476 -7.32986e-19)
(0.0748019 0.0689824 -1.25385e-19)
(0.166542 0.0616966 -6.30355e-19)
(0.283623 0.0566404 2.58994e-19)
(0.423432 0.0545949 -6.26155e-19)
(0.579428 0.0551831 2.46002e-19)
(0.741564 0.0569882 -6.05797e-21)
(0.898048 0.0583247 3.00539e-19)
(1.03806 0.0570659 7.62339e-20)
(1.15346 0.0525639 -1.30221e-19)
(1.24055 0.0433835 -3.32061e-19)
(1.29911 0.0312863 -1.1863e-20)
(1.33345 0.0158297 3.98102e-19)
(1.34796 -0.00140076 -3.31727e-19)
(1.3487 -0.015758 -7.38129e-19)
(1.34173 -0.0378626 -5.31053e-19)
(1.32464 -0.0426266 1.97476e-19)
(-0.0318429 0.0387121 5.98578e-21)
(-0.0467552 0.0668963 4.6776e-19)
(-0.0256938 0.07311 -1.23857e-19)
(0.0270935 0.0683028 -4.25174e-20)
(0.110371 0.0609502 1.4142e-19)
(0.224108 0.0551846 4.90935e-19)
(0.366196 0.053208 -2.43059e-19)
(0.529604 0.0552846 -2.20344e-19)
(0.702281 0.06006 1.47079e-19)
(0.869866 0.0651251 3.33671e-19)
(1.01925 0.0682006 -6.36106e-19)
(1.14151 0.0672032 4.20011e-19)
(1.23279 0.0619535 5.62071e-20)
(1.2943 0.0516433 1.44156e-19)
(1.33018 0.0390123 -3.2138e-19)
(1.34707 0.0227574 -9.25426e-20)
(1.34975 0.00712519 -8.36655e-20)
(1.34429 -0.00831209 9.30197e-20)
(1.33372 -0.0274008 3.16195e-19)
(1.31577 -0.0326283 -6.31349e-19)
(-0.0337242 0.0370051 -5.06126e-20)
(-0.0457501 0.0616104 -4.57171e-20)
(-0.0160471 0.0656151 5.27942e-19)
(0.0511508 0.0598479 2.74142e-19)
(0.15514 0.0533996 -2.50059e-19)
(0.294478 0.0505842 7.22123e-20)
(0.462624 0.0531829 8.07623e-20)
(0.645911 0.0602367 7.21231e-19)
(0.826659 0.0689826 -6.14338e-19)
(0.988588 0.0761619 -8.78953e-19)
(1.1208 0.0794108 -4.80964e-19)
(1.21917 0.0773365 4.02788e-20)
(1.28528 0.0704742 5.50347e-20)
(1.32455 0.0589238 -3.11241e-19)
(1.3435 0.0456786 -2.65992e-20)
(1.34895 0.0291811 6.1691e-20)
(1.34488 0.0149828 -4.35206e-20)
(1.33643 -0.00158309 6.04572e-19)
(1.32404 -0.0170503 1.15997e-20)
(1.30694 -0.0239946 5.97197e-19)
(-0.0354982 0.0352185 4.32045e-20)
(-0.0433686 0.0558636 -5.90926e-19)
(-0.00280649 0.0576948 1.55943e-19)
(0.0822116 0.0515213 -5.28461e-19)
(0.21095 0.0472369 6.75699e-19)
(0.378323 0.0490138 -4.59543e-19)
(0.570381 0.0573373 1.90215e-20)
(0.765867 0.0693238 -3.87061e-20)
(0.943803 0.0808486 -4.83574e-19)
(1.08996 0.0884492 1.20225e-18)
(1.19881 0.0904011 5.12876e-19)
(1.27219 0.0864162 6.23788e-20)
(1.3162 0.0777452 -2.58339e-19)
(1.33853 0.0652179 -4.67506e-19)
(1.34607 0.0515225 -1.22127e-20)
(1.34463 0.0353387 -2.10771e-19)
(1.33696 0.0221206 1.81657e-19)
(1.32718 0.0048419 -9.44267e-20)
(1.31377 -0.0066216 -6.75592e-19)
(1.29861 -0.0170949 -2.53035e-19)
(-0.0370665 0.0333465 -3.11234e-19)
(-0.039159 0.0497431 4.07718e-19)
(0.0150214 0.0496404 -3.59587e-19)
(0.121809 0.0439497 -3.96559e-19)
(0.27899 0.0434589 -7.39871e-19)
(0.474445 0.0513736 2.93577e-19)
(0.684405 0.0657626 -2.04873e-19)
(0.881696 0.0816005 -5.99549e-19)
(1.04644 0.0941118 5.25149e-19)
(1.17019 0.100516 -4.28792e-19)
(1.25412 0.10025 6.1722e-19)
(1.3051 0.0941357 6.4409e-19)
(1.3318 0.0839033 1.46723e-19)
(1.3423 0.0707525 5.88028e-19)
(1.34267 0.0568515 -9.704e-20)
(1.3373 0.0413214 1.41625e-19)
(1.32788 0.0285486 -4.93973e-20)
(1.31755 0.011539 3.06566e-19)
(1.30348 0.00352632 1.49851e-19)
(1.29084 -0.0124541 1.6899e-19)
(-0.0382949 0.0313526 1.62e-18)
(-0.0326258 0.0433201 -4.14417e-19)
(0.0384599 0.0417741 3.66907e-19)
(0.171257 0.0378715 4.50907e-19)
(0.359318 0.0430375 6.9772e-19)
(0.57949 0.0580658 -3.7189e-19)
(0.798072 0.0777824 2.20818e-19)
(0.986479 0.0956556 -2.99823e-19)
(1.13056 0.107362 -5.57036e-19)
(1.22949 0.111474 2.88801e-19)
(1.2904 0.10869 -5.24198e-19)
(1.32325 0.100642 -3.33589e-19)
(1.3374 0.0892472 -1.95084e-19)
(1.34012 0.0757787 1.59291e-19)
(1.33621 0.0619061 -2.95132e-20)
(1.3287 0.0470947 2.80361e-19)
(1.31856 0.0344939 2.99987e-20)
(1.30804 0.0188222 -7.10668e-19)
(1.29393 0.0120354 3.07697e-19)
(1.28279 -0.0111379 -2.81088e-19)
(-0.0390296 0.0291988 -1.13767e-18)
(-0.0232352 0.0366659 4.95962e-19)
(0.0685349 0.0344612 -5.24466e-20)
(0.231419 0.0341077 -2.58001e-19)
(0.450435 0.0466702 -7.76668e-19)
(0.688302 0.0687805 5.55678e-19)
(0.904815 0.0921656 -5.08224e-19)
(1.07574 0.110106 2.26734e-19)
(1.19551 0.119681 2.82064e-19)
(1.27059 0.121022 -1.20369e-18)
(1.31215 0.115851 2.32378e-19)
(1.33131 0.106242 4.14633e-20)
(1.33685 0.0940693 1.83232e-19)
(1.33469 0.0805125 -1.08716e-19)
(1.32833 0.0668209 -6.54521e-20)
(1.31971 0.0526396 -4.82417e-20)
(1.30937 0.0403097 2.77667e-19)
(1.29878 0.0261271 2.07731e-19)
(1.28526 0.0173002 6.03132e-20)
(1.27535 0.00266374 1.72568e-19)
(-0.0391015 0.0268435 -8.29584e-20)
(-0.0104202 0.0298411 -7.46131e-19)
(0.106226 0.0281316 4.1364e-19)
(0.302438 0.0334799 2.75503e-19)
(0.549259 0.0545481 -2.25394e-19)
(0.795175 0.0826119 -7.03665e-19)
(0.99984 0.107604 4.77725e-19)
(1.14799 0.123987 -1.24091e-19)
(1.24314 0.130693 9.14734e-20)
(1.29726 0.129239 7.52471e-19)
(1.32355 0.122012 -4.0415e-19)
(1.33288 0.111231 -3.73886e-19)
(1.33273 0.0985839 -3.44577e-19)
(1.32761 0.0850852 -1.65882e-19)
(1.31988 0.0716315 -2.48557e-20)
(1.31073 0.0580144 2.26809e-19)
(1.30042 0.0460878 -1.18762e-19)
(1.28987 0.0322946 -1.3463e-19)
(1.27723 0.025192 -3.03435e-19)
(1.26718 0.00884733 -1.97084e-19)
(-0.0383144 0.0242397 -3.51229e-20)
(0.00641481 0.0229298 4.36735e-19)
(0.152348 0.0233564 -7.74418e-19)
(0.383378 0.0366741 1.55078e-19)
(0.651446 0.0662882 5.39454e-19)
(0.895017 0.0984045 1.02747e-19)
(1.08057 0.123066 1.64091e-19)
(1.20391 0.136801 2.99729e-19)
(1.27628 0.140379 -3.39283e-19)
(1.31308 0.13636 -2.54087e-19)
(1.32788 0.127469 4.74297e-19)
(1.33041 0.115851 8.81266e-19)
(1.32664 0.102947 9.77004e-20)
(1.31976 0.0895785 -1.06785e-19)
(1.31129 0.0763753 1.35033e-19)
(1.30191 0.0632865 -2.93299e-19)
(1.29172 0.0514616 7.15949e-20)
(1.28139 0.038912 -1.3565e-19)
(1.26925 0.0306419 -5.10186e-19)
(1.2601 0.0165306 2.66999e-19)
(-0.0364533 0.02135 8.52388e-20)
(0.0278945 0.0160754 8.19756e-19)
(0.207397 0.0208569 -2.51936e-19)
(0.47209 0.044002 6.95712e-19)
(0.752295 0.0810519 -5.73121e-19)
(0.984293 0.115081 6.82084e-19)
(1.14647 0.137898 -5.59388e-19)
(1.2454 0.148391 3.65066e-19)
(1.29799 0.148899 -2.38499e-19)
(1.32111 0.14266 2.57619e-20)
(1.32759 0.132473 -2.84755e-19)
(1.32556 0.120278 -4.97504e-19)
(1.31952 0.107251 -2.44523e-19)
(1.31162 0.0940329 1.70064e-19)
(1.30276 0.081075 7.97449e-20)
(1.2933 0.0683554 -4.73696e-21)
(1.2833 0.0568582 -3.72856e-20)
(1.27312 0.0445936 4.57335e-19)
(1.26177 0.0367583 4.31363e-19)
(1.25271 0.0231563 1.74092e-19)
(-0.0332877 0.0181548 -7.71528e-19)
(0.0546609 0.00952837 -7.39435e-19)
(0.27133 0.0214213 5.78516e-19)
(0.565407 0.0552695 -3.5024e-20)
(0.847702 0.0978415 8.17018e-19)
(1.06122 0.13184 -4.96195e-19)
(1.19841 0.151779 2.17389e-19)
(1.27489 0.158811 -2.83318e-19)
(1.31103 0.156485 5.3551e-19)
(1.32374 0.148396 -2.13179e-19)
(1.32435 0.137221 2.10116e-19)
(1.31934 0.124629 -1.40518e-20)
(1.3119 0.111549 1.66577e-19)
(1.30339 0.0984715 -2.23104e-20)
(1.29433 0.0857057 2.51744e-19)
(1.28489 0.0733365 -3.13851e-19)
(1.27507 0.0618926 1.83418e-19)
(1.26516 0.0503231 -3.10437e-19)
(1.25432 0.0420216 -1.16669e-19)
(1.24565 0.029152 -1.67019e-19)
(-0.0285671 0.0146571 1.10806e-18)
(0.087332 0.00370443 -7.16551e-19)
(0.343364 0.0257135 1.8395e-19)
(0.65969 0.0698627 -7.28258e-19)
(0.93474 0.115765 -5.14385e-19)
(1.12544 0.148181 5.63636e-20)
(1.23799 0.164619 1.01905e-19)
(1.29477 0.168218 -2.86512e-19)
(1.31772 0.163377 5.25239e-20)
(1.32272 0.153777 4.10825e-19)
(1.3193 0.14185 -3.03584e-19)
(1.31235 0.128975 -1.81337e-19)
(1.30405 0.115866 -9.95365e-20)
(1.29519 0.102892 -8.99602e-20)
(1.28604 0.0902891 -1.14645e-19)
(1.27665 0.0781277 2.15252e-19)
(1.26704 0.0668516 -4.84025e-20)
(1.25735 0.0555386 2.80213e-20)
(1.24711 0.0471432 2.80404e-19)
(1.23858 0.0349132 2.99851e-19)
(-0.0220131 0.010889 -2.63408e-19)
(0.126413 -0.000774225 6.6534e-19)
(0.4219 0.034055 3.99581e-19)
(0.751486 0.0869868 -4.55479e-19)
(1.01176 0.134155 5.65851e-19)
(1.17758 0.16384 -3.3958e-21)
(1.2671 0.176465 5.13423e-19)
(1.30719 0.176811 3.36736e-19)
(1.31986 0.169791 2.99642e-19)
(1.31928 0.158966 -2.89386e-19)
(1.31314 0.146452 2.02713e-19)
(1.30495 0.133352 2.15029e-19)
(1.29611 0.120208 3.59337e-19)
(1.28705 0.107299 -1.89662e-19)
(1.27786 0.0947937 -4.31761e-22)
(1.26856 0.0828068 -1.80124e-19)
(1.25914 0.0715527 7.43049e-21)
(1.24972 0.0605798 5.31026e-21)
(1.23994 0.0519103 -5.42032e-20)
(1.23162 0.0401062 -6.25584e-20)
(-0.0133116 0.00692404 -2.40067e-19)
(0.172166 -0.00310034 -2.68768e-19)
(0.504675 0.0463286 -1.39051e-20)
(0.838032 0.105889 4.31767e-19)
(1.07816 0.152566 -4.23172e-19)
(1.21878 0.178716 -4.63356e-19)
(1.2876 0.187435 1.77536e-19)
(1.31395 0.184788 -2.10455e-19)
(1.31879 0.175905 -1.346e-19)
(1.31427 0.164076 5.3021e-20)
(1.3063 0.15108 -4.58675e-19)
(1.29732 0.137777 4.22976e-19)
(1.28813 0.124573 -4.11307e-20)
(1.27895 0.111677 -9.36025e-20)
(1.26977 0.0992308 8.40483e-20)
(1.26058 0.087321 -1.26949e-19)
(1.25136 0.0761167 -1.12343e-19)
(1.24219 0.0653036 -6.03302e-21)
(1.23286 0.0564025 -1.5981e-19)
(1.2247 0.0450385 1.29019e-21)
(-0.00211374 0.00289458 2.76376e-19)
(0.224467 -0.00239899 4.87953e-19)
(0.589097 0.0620724 -6.62392e-19)
(0.917446 0.125969 -2.47302e-19)
(1.13409 0.170724 -1.12596e-19)
(1.25042 0.192806 6.48903e-19)
(1.30119 0.197679 -1.73896e-19)
(1.31649 0.19233 -1.08469e-19)
(1.3155 0.181855 -1.5142e-19)
(1.30822 0.169184 1.8254e-19)
(1.29904 0.155763 6.79169e-20)
(1.28953 0.142251 -7.94501e-20)
(1.28013 0.128951 -2.12644e-19)
(1.27088 0.116024 2.18597e-20)
(1.26174 0.103579 -9.13448e-20)
(1.25267 0.0917066 1.63358e-19)
(1.24366 0.0804826 3.98692e-20)
(1.23475 0.0698001 4.13854e-20)
(1.22581 0.0606487 5.54711e-20)
(1.21781 0.0495835 -1.6146e-19)
(0.0119448 -0.000986281 -5.19805e-19)
(0.282723 0.00208088 -3.06243e-20)
(0.672613 0.0806789 -1.01161e-19)
(0.988664 0.14679 2.9229e-19)
(1.18018 0.188478 -1.0153e-19)
(1.2739 0.206168 -2.85095e-19)
(1.3093 0.207352 -4.02064e-19)
(1.31592 0.199589 2.83326e-19)
(1.31066 0.187741 -3.33468e-19)
(1.30148 0.174332 1.66063e-19)
(1.29149 0.160509 9.80273e-20)
(1.28164 0.146767 -5.13525e-20)
(1.27211 0.13333 1.21477e-19)
(1.26284 0.120325 1.36149e-19)
(1.25376 0.107841 -2.89351e-19)
(1.24482 0.0959431 2.15996e-19)
(1.23601 0.0846909 1.83565e-20)
(1.22736 0.0740507 3.67214e-20)
(1.21878 0.0646425 1.76476e-19)
(1.21096 0.0538551 4.3672e-20)
(0.0291994 -0.00440601 1.54622e-19)
(0.345879 0.0107869 -6.33088e-19)
(0.753013 0.101559 5.99455e-19)
(1.05126 0.16805 2.74481e-19)
(1.21729 0.205754 -2.05602e-19)
(1.29054 0.218891 -3.40481e-19)
(1.31316 0.216599 1.18398e-20)
(1.31306 0.206683 -6.74857e-20)
(1.30472 0.193627 5.73483e-19)
(1.29424 0.179542 -2.62358e-19)
(1.28372 0.165314 -3.03104e-20)
(1.27365 0.15131 6.95017e-20)
(1.26404 0.137696 -4.32101e-20)
(1.25478 0.124571 -8.86149e-20)
(1.24578 0.112004 2.48815e-19)
(1.237 0.100044 -2.04115e-19)
(1.2284 0.0887254 2.43816e-20)
(1.22 0.0780785 -1.14338e-19)
(1.21175 0.0684223 -1.19761e-19)
(1.20412 0.0578363 -3.83567e-20)
(0.0498988 -0.00695155 -1.11106e-19)
(0.412525 0.0237885 2.64767e-19)
(0.828578 0.124209 -2.42511e-19)
(1.10526 0.189533 -2.52684e-19)
(1.24641 0.222534 4.21259e-19)
(1.30153 0.231076 4.49067e-19)
(1.31369 0.225545 2.1808e-19)
(1.3085 0.213698 -3.65118e-21)
(1.29798 0.199551 -5.63289e-19)
(1.28663 0.184818 4.77055e-20)
(1.27575 0.170167 1.80559e-20)
(1.26555 0.155865 1.22073e-19)
(1.2559 0.142035 1.99919e-19)
(1.24669 0.12875 -1.07531e-20)
(1.2378 0.116063 -4.56539e-20)
(1.22918 0.104001 1.82908e-19)
(1.2208 0.0925975 -1.1936e-19)
(1.21265 0.0818902 1.45539e-19)
(1.20471 0.0719861 -1.29363e-20)
(1.19729 0.061568 1.47485e-19)
(0.0741533 -0.00813569 1.93881e-19)
(0.481068 0.0408351 1.03578e-19)
(0.898117 0.14822 -2.3786e-19)
(1.15095 0.211075 -2.96253e-19)
(1.26851 0.238827 -2.11568e-20)
(1.30789 0.242822 -4.92884e-20)
(1.31166 0.234289 2.43629e-19)
(1.30267 0.220694 1.70495e-19)
(1.29062 0.205528 1.84068e-19)
(1.27869 0.190151 -6.69787e-20)
(1.2676 0.175049 8.84643e-20)
(1.25732 0.160414 -8.1535e-20)
(1.24769 0.14633 -1.65798e-19)
(1.23855 0.132851 2.02174e-20)
(1.22979 0.120009 4.29578e-20)
(1.22135 0.107818 5.09397e-20)
(1.21319 0.0963027 6.76848e-20)
(1.20529 0.0854944 -4.05804e-20)
(1.19764 0.0753572 7.7983e-20)
(1.19044 0.0650613 -1.77761e-19)
(0.101898 -0.00745155 2.55711e-19)
(0.549888 0.0614899 -2.35097e-20)
(0.960917 0.173259 3.34002e-19)
(1.18883 0.232544 2.05028e-19)
(1.28451 0.254663 9.22791e-20)
(1.31046 0.254219 -2.2742e-19)
(1.30761 0.242906 -2.16831e-19)
(1.29585 0.227702 -6.0506e-20)
(1.28276 0.211558 -1.63614e-20)
(1.27046 0.195523 -1.59796e-20)
(1.25925 0.179939 -2.13443e-19)
(1.24896 0.164936 4.68235e-20)
(1.23938 0.150565 8.45397e-20)
(1.23035 0.13686 2.57063e-21)
(1.22175 0.123835 1.01398e-20)
(1.2135 0.111489 -2.62264e-20)
(1.20556 0.0998429 -6.29474e-20)
(1.19791 0.0888997 -5.19048e-20)
(1.19055 0.0785398 -1.07692e-19)
(1.18357 0.0683345 1.62931e-20)
(0.132886 -0.00444329 -1.57079e-19)
(0.617467 0.0852564 9.92343e-20)
(1.01665 0.199056 -4.13991e-20)
(1.21944 0.25383 9.76405e-21)
(1.29527 0.270072 -3.79593e-19)
(1.30994 0.265342 9.45252e-20)
(1.30195 0.251446 6.11147e-20)
(1.28821 0.234732 -4.23418e-20)
(1.27444 0.217628 1.52045e-19)
(1.26193 0.200913 -2.41e-21)
(1.25068 0.184814 6.68646e-20)
(1.24044 0.16941 7.82518e-20)
(1.23096 0.154722 -5.363e-20)
(1.22207 0.140765 -6.32175e-20)
(1.21364 0.127532 -3.42028e-20)
(1.2056 0.115011 -3.65519e-20)
(1.1979 0.103215 3.21374e-20)
(1.1905 0.0921113 3.6829e-20)
(1.18343 0.0815468 5.87914e-20)
(1.17666 0.0714011 6.744e-20)
(0.166704 0.00122963 -7.3159e-20)
(0.682463 0.11165 -1.46965e-20)
(1.06525 0.225391 -1.34527e-19)
(1.24341 0.274838 1.25607e-19)
(1.30151 0.285088 2.7247e-19)
(1.30687 0.276248 1.49581e-19)
(1.29499 0.259935 -6.76803e-20)
(1.27989 0.24178 -3.95917e-20)
(1.26571 0.223713 -9.00428e-20)
(1.25311 0.206292 8.68407e-20)
(1.2419 0.189647 -3.3874e-21)
(1.23175 0.173813 -4.31127e-20)
(1.22241 0.158784 -5.07354e-20)
(1.21369 0.144552 -4.85512e-20)
(1.20547 0.131091 1.00694e-19)
(1.19765 0.118379 -3.4101e-20)
(1.19019 0.106417 -3.67678e-20)
(1.18306 0.0951351 -6.29156e-21)
(1.17626 0.0843829 -6.40296e-21)
(1.16972 0.0742708 -3.75298e-20)
(0.202805 0.00975555 -7.2571e-21)
(0.743757 0.140219 -9.84832e-20)
(1.10686 0.252076 4.59225e-20)
(1.26134 0.295494 -1.64921e-19)
(1.30387 0.299733 -1.15912e-19)
(1.30168 0.286975 1.73489e-20)
(1.28693 0.26838 -1.75437e-21)
(1.27094 0.248825 7.75041e-21)
(1.25656 0.229785 2.4447e-20)
(1.24399 0.21163 4.33387e-20)
(1.23288 0.194411 -5.90481e-20)
(1.22288 0.178123 2.50822e-20)
(1.21373 0.16273 4.38312e-20)
(1.20521 0.148205 -9.57904e-21)
(1.19721 0.134502 -4.2441e-20)
(1.18964 0.121587 2.37862e-20)
(1.18244 0.109446 2.70965e-20)
(1.17557 0.0979745 2.73943e-20)
(1.16904 0.0870547 -1.38437e-20)
(1.16272 0.0769535 4.96164e-21)
(0.240552 0.0211704 8.11213e-20)
(0.800467 0.17054 -1.1462e-19)
(1.14173 0.278942 -1.57572e-20)
(1.27383 0.315733 6.74291e-20)
(1.3029 0.31402 1.09435e-19)
(1.29471 0.297538 -3.36937e-20)
(1.27792 0.276769 -9.66111e-20)
(1.26141 0.255838 9.60964e-20)
(1.24701 0.235807 -2.60062e-20)
(1.23455 0.216893 -3.00056e-20)
(1.22362 0.199077 2.73448e-20)
(1.21382 0.182315 -1.358e-20)
(1.20489 0.166541 -3.99411e-21)
(1.19662 0.15171 1.05984e-20)
(1.18888 0.137753 1.52156e-20)
(1.18157 0.124626 1.94841e-20)
(1.17464 0.112297 -3.46568e-20)
(1.16804 0.100633 -8.56229e-21)
(1.16178 0.0895638 -2.10874e-21)
(1.15567 0.0794536 1.02862e-20)
(0.279218 0.0353876 -4.45173e-20)
(0.851937 0.202217 7.9649e-20)
(1.17016 0.305825 -9.97484e-21)
(1.28144 0.335503 -2.16792e-20)
(1.29904 0.327954 -7.12168e-20)
(1.28621 0.307936 3.35376e-20)
(1.26805 0.285079 2.21199e-20)
(1.25132 0.262781 -2.45384e-20)
(1.23704 0.241741 -4.01964e-21)
(1.22479 0.222046 1.1733e-20)
(1.2141 0.203614 -1.27141e-20)
(1.20456 0.186363 6.4073e-21)
(1.19591 0.170197 -1.39085e-20)
(1.18792 0.155049 7.96923e-21)
(1.18045 0.140832 1.64542e-21)
(1.17343 0.127488 -7.24824e-21)
(1.16678 0.114967 4.15878e-21)
(1.16047 0.10311 -6.44008e-21)
(1.15447 0.0919106 2.09527e-21)
(1.14857 0.0817759 7.43718e-21)
(0.317992 0.052232 -3.19427e-20)
(0.897723 0.234867 6.9694e-20)
(1.19249 0.332558 -7.3621e-21)
(1.28466 0.354754 -2.78475e-20)
(1.29267 0.341527 -6.55101e-20)
(1.27635 0.318152 3.30273e-20)
(1.25738 0.293273 2.15379e-20)
(1.24068 0.26961 -1.93618e-20)
(1.22664 0.247546 -2.27582e-22)
(1.21469 0.227053 9.15606e-21)
(1.20432 0.207992 -8.09122e-21)
(1.1951 0.190242 -2.21202e-21)
(1.18676 0.173676 -4.85723e-21)
(1.17909 0.158208 2.89198e-21)
(1.17194 0.143727 1.87246e-21)
(1.16522 0.130164 -7.36472e-21)
(1.15887 0.11745 8.18569e-21)
(1.15285 0.105407 -7.85942e-21)
(1.14711 0.0940929 -1.90237e-21)
(1.14143 0.08392 4.89777e-21)
(0.356076 0.0714419 9.24824e-20)
(0.93748 0.268091 -9.39812e-20)
(1.20896 0.358952 -6.80191e-20)
(1.28392 0.373434 8.89532e-20)
(1.28406 0.354724 1.01743e-19)
(1.26527 0.328163 -4.15949e-20)
(1.24595 0.301313 -6.9097e-20)
(1.22949 0.276285 7.57893e-20)
(1.21582 0.253183 -2.1184e-20)
(1.20426 0.231882 -2.4737e-20)
(1.19427 0.212183 1.93642e-20)
(1.18542 0.193928 -3.73444e-21)
(1.17745 0.176959 -9.06895e-21)
(1.17014 0.161171 2.8987e-21)
(1.16333 0.146428 1.39034e-20)
(1.15694 0.132645 1.62285e-20)
(1.1509 0.119738 -2.02892e-20)
(1.1452 0.10752 -5.35402e-21)
(1.13973 0.0961119 -3.47002e-21)
(1.13424 0.0858899 7.36917e-21)
(0.392918 0.0927884 4.11936e-20)
(0.971308 0.301629 -1.49175e-19)
(1.22007 0.384889 4.20063e-20)
(1.27966 0.391504 -1.10256e-19)
(1.2735 0.367508 -1.29062e-19)
(1.25307 0.337909 2.1e-20)
(1.23378 0.309132 8.31063e-21)
(1.21775 0.282741 -8.39905e-21)
(1.20457 0.258598 2.81764e-20)
(1.19348 0.236484 -1.10958e-21)
(1.18394 0.216147 -1.83698e-20)
(1.17554 0.197388 3.7455e-21)
(1.16798 0.180017 3.58975e-20)
(1.16106 0.163914 -3.03045e-21)
(1.15463 0.148916 -1.22183e-20)
(1.14859 0.134918 -7.06169e-21)
(1.14289 0.12182 3.072e-20)
(1.13752 0.109437 1.3148e-20)
(1.13233 0.0979685 -7.68563e-21)
(1.12702 0.087693 -8.98686e-21)
(0.427879 0.116026 -9.14242e-20)
(0.999192 0.335192 -1.77594e-20)
(1.22612 0.410204 -1.31002e-19)
(1.27221 0.408898 1.47583e-19)
(1.26115 0.379836 1.84293e-19)
(1.23983 0.34734 7.18067e-20)
(1.2209 0.316676 -1.3194e-20)
(1.20546 0.28893 1.50024e-20)
(1.19287 0.263746 -7.64664e-20)
(1.18235 0.240825 5.49329e-20)
(1.17335 0.219853 -1.66748e-20)
(1.16545 0.200598 -1.27463e-20)
(1.15836 0.182833 -3.46879e-20)
(1.15186 0.166417 -1.05518e-20)
(1.14586 0.151176 1.63372e-20)
(1.14019 0.136976 -1.05666e-20)
(1.13484 0.123691 -1.38654e-20)
(1.12982 0.111156 3.99246e-21)
(1.12488 0.0996582 -2.46427e-21)
(1.11979 0.0893211 -2.07479e-20)
(0.460369 0.140886 -1.35099e-19)
(1.02122 0.368507 2.61703e-20)
(1.22747 0.434744 6.33685e-20)
(1.26188 0.425555 -6.97209e-20)
(1.2472 0.39165 -2.5265e-19)
(1.22559 0.356388 2.12225e-20)
(1.2073 0.323878 9.16447e-20)
(1.19261 0.29479 -3.39603e-20)
(1.18075 0.268578 7.33538e-20)
(1.17089 0.24486 -1.94842e-20)
(1.1625 0.223264 4.89023e-20)
(1.15516 0.203526 6.66933e-21)
(1.14858 0.185385 7.7132e-22)