/*--------------------------------*- C++ -*----------------------------------*\
  =========                 |
  \\      /  F ield         | OpenFOAM: The Open Source CFD Toolbox
   \\    /   O peration     | Website:  https://openfoam.org
    \\  /    A nd           | Version:  7
     \\/     M anipulation  |
\*---------------------------------------------------------------------------*/
FoamFile
{
    version     2.0;
    format      ascii;
    class       volVectorField;
    location    "30";
    object      U;
}
// * * * * * * * * * * * * * * * * * * * * * * * * * * * * * * * * * * * * * //

dimensions      [0 1 -1 0 0 0 0];

internalField   nonuniform List<vector> 
656
(
(1.1202 0.243854 -1.79991e-20)
(1.11992 0.207867 -2.23875e-19)
(1.10177 0.288125 -1.19342e-19)
(1.10566 0.244222 4.17018e-20)
(1.10693 0.2079 1.35204e-19)
(1.07703 0.337232 1.28316e-19)
(1.08527 0.288278 1.52307e-20)
(1.09096 0.243906 1.42824e-19)
(1.09388 0.207318 -1.62846e-19)
(1.0585 0.337362 -1.00169e-19)
(1.06858 0.287566 -1.07913e-19)
(1.07614 0.242903 -1.75813e-19)
(1.08081 0.206105 2.46513e-19)
(1.02031 0.390164 1.47551e-19)
(1.03972 0.336389 -6.29949e-20)
(1.05177 0.285987 -7.25492e-20)
(1.06124 0.24121 2.52472e-19)
(1.06774 0.204244 -2.58484e-19)
(0.999337 0.389177 -2.14033e-19)
(1.02077 0.334312 -7.66257e-20)
(1.03491 0.283544 1.47631e-19)
(1.0463 0.238828 1.87166e-19)
(1.05469 0.20172 3.02231e-19)
(0.940629 0.440177 7.06733e-20)
(0.978101 0.386775 3.36258e-20)
(1.00175 0.331136 1.82558e-19)
(1.01806 0.280242 2.63362e-19)
(1.03135 0.23576 -6.9142e-19)
(1.04169 0.198516 -1.13728e-19)
(0.917238 0.43778 3.89561e-19)
(0.956721 0.382961 -2.56599e-20)
(0.982756 0.326865 -3.59125e-20)
(1.00131 0.276091 -1.47764e-19)
(1.01642 0.232009 4.57964e-19)
(1.02872 0.194613 -2.16821e-19)
(0.893577 0.433595 -5.47594e-19)
(0.935319 0.377744 -5.89804e-20)
(0.963879 0.32151 -4.82923e-19)
(0.984715 0.271103 6.34072e-20)
(1.00155 0.227581 3.02943e-19)
(1.01582 0.18998 2.47927e-19)
(0.79939 0.472798 3.44547e-20)
(0.8698 0.427629 1.82378e-19)
(0.914013 0.371137 3.3155e-19)
(0.94521 0.315084 5.58655e-19)
(0.968356 0.265297 1.9987e-19)
(0.98686 0.222531 -6.74614e-19)
(1.00305 0.184702 1.47014e-19)
(0.773532 0.466634 1.93687e-19)
(0.846059 0.419899 -2.15658e-19)
(0.892915 0.363159 2.23292e-19)
(0.926836 0.307599 -1.89794e-19)
(0.95232 0.258683 -2.08536e-19)
(0.972565 0.216953 9.08634e-19)
(0.990316 0.179479 3.96015e-19)
(0.747607 0.45828 -6.67094e-19)
(0.8225 0.410431 9.01846e-20)
(0.872136 0.353834 -4.73014e-19)
(0.908839 0.299072 1.69752e-19)
(0.936701 0.251239 -1.16764e-19)
(0.958893 0.210711 -3.03459e-19)
(0.978699 0.174525 -8.88628e-19)
(0.721807 0.447766 3.76685e-19)
(0.799267 0.399259 1.60387e-19)
(0.851781 0.343189 6.07107e-19)
(0.891295 0.28952 1.68189e-19)
(0.92154 0.242973 2.22334e-19)
(0.945699 0.203731 -6.03922e-19)
(0.967204 0.169113 9.49917e-20)
(0.696315 0.435132 -7.8058e-20)
(0.776497 0.386423 -1.44685e-21)
(0.831951 0.331259 7.57333e-20)
(0.874278 0.278971 -3.37401e-19)
(0.906879 0.233911 -4.90786e-19)
(0.932983 0.196066 3.11159e-19)
(0.955999 0.163058 2.54286e-19)
(0.559581 0.439182 -5.66318e-19)
(0.671307 0.420428 1.73457e-19)
(0.754325 0.371971 5.29207e-19)
(0.812745 0.318082 -6.83001e-19)
(0.857857 0.267452 -5.98995e-19)
(0.892771 0.224077 2.41924e-19)
(0.920784 0.187765 5.51852e-19)
(0.945204 0.156407 8.16399e-20)
(0.53392 0.423554 2.92884e-19)
(0.646956 0.403717 -3.50034e-19)
(0.732877 0.35596 -8.34072e-19)
(0.794254 0.303703 -6.31348e-20)
(0.842102 0.254998 9.20576e-19)
(0.879269 0.213495 -4.31296e-19)
(0.909138 0.178855 -5.6408e-19)
(0.934879 0.149209 -1.35802e-19)
(0.50894 0.405603 4.24307e-19)
(0.623426 0.385072 3.69881e-19)
(0.712275 0.338452 1.70436e-19)
(0.77657 0.288171 8.89556e-19)
(0.82708 0.241647 -3.73443e-19)
(0.866423 0.202194 3.05467e-19)
(0.898083 0.169356 5.47745e-19)
(0.925076 0.141481 1.31771e-19)
(0.48484 0.385417 -6.3656e-19)
(0.600874 0.364576 1.73734e-19)
(0.692636 0.319516 -7.65874e-19)
(0.759776 0.271541 -1.01318e-18)
(0.812854 0.22744 4.96828e-19)
(0.854283 0.190205 -4.40146e-20)
(0.887656 0.159291 -4.73666e-19)
(0.915835 0.133241 -3.19482e-19)
(0.461807 0.363096 3.51322e-19)
(0.579449 0.342323 -7.45309e-19)
(0.674067 0.299229 5.93948e-19)
(0.743953 0.253873 4.65323e-19)
(0.799482 0.212421 -4.21673e-19)
(0.842893 0.177564 -4.84966e-19)
(0.877893 0.148688 3.37243e-19)
(0.907193 0.12451 2.53364e-19)
(0.44002 0.338757 -6.3004e-19)
(0.559292 0.318415 4.47978e-19)
(0.656672 0.277674 -3.64165e-20)
(0.729175 0.235229 3.10355e-20)
(0.787022 0.196641 3.69584e-20)
(0.832299 0.164307 1.04182e-18)
(0.868826 0.137576 -1.66617e-19)
(0.89918 0.115318 -3.77789e-20)
(0.419649 0.312529 3.25625e-19)
(0.540533 0.292966 1.73234e-20)
(0.640546 0.25494 1.60691e-19)
(0.715512 0.215679 -3.38929e-19)
(0.775524 0.180152 -3.94828e-20)
(0.822538 0.150476 -5.75014e-19)
(0.860486 0.125988 -2.57535e-19)
(0.891821 0.105695 2.61416e-19)
(0.400847 0.284552 5.59861e-19)
(0.523294 0.266096 6.57536e-19)
(0.625775 0.231121 -6.9169e-20)
(0.703027 0.195295 -2.2244e-19)
(0.765036 0.163009 7.03637e-19)
(0.813648 0.136116 -5.13619e-19)
(0.852899 0.11396 2.32567e-19)
(0.88514 0.0956749 -3.74243e-19)
(0.221834 0.237205 -3.60731e-19)
(0.38376 0.254978 -7.73882e-19)
(0.507684 0.237932 5.62043e-20)
(0.612441 0.206317 3.92816e-19)
(0.69178 0.174153 5.91607e-19)
(0.755603 0.145272 -7.43984e-19)
(0.805661 0.121274 3.88611e-19)
(0.846092 0.101531 -2.9345e-19)
(0.879155 0.0852933 -1.48775e-19)
(0.206847 0.208888 -3.92515e-20)
(0.368516 0.22397 7.63186e-19)
(0.493803 0.20861 -2.46222e-19)
(0.600613 0.180631 2.44543e-19)
(0.681822 0.152334 4.36492e-20)
(0.747261 0.127004 -2.90898e-19)
(0.798607 0.106 1.40573e-19)
(0.840087 0.088742 5.56301e-19)
(0.873883 0.0745885 5.30825e-19)
(0.193742 0.179178 -2.19247e-19)
(0.355231 0.1917 -8.38847e-19)
(0.481739 0.178271 -2.41676e-19)
(0.590356 0.154173 -2.61681e-19)
(0.6732 0.129921 -5.47782e-19)
(0.740047 0.108269 1.85188e-19)
(0.792512 0.0903469 4.39189e-19)
(0.834902 0.0756364 4.74849e-21)
(0.869337 0.0636005 -3.7824e-19)
(0.182638 0.14827 -1.07865e-20)
(0.344004 0.158347 1.24222e-19)
(0.471567 0.147062 2.90173e-20)
(0.581725 0.127054 -3.42046e-19)
(0.665953 0.107001 5.02917e-19)
(0.73399 0.0891356 4.61633e-19)
(0.787398 0.0743694 -2.44523e-19)
(0.830556 0.0622597 -1.21417e-19)
(0.865531 0.0523706 1.85093e-19)
(0.173633 0.116369 2.16587e-19)
(0.33492 0.124099 2.32443e-19)
(0.463353 0.115135 -4.03624e-19)
(0.574764 0.0993903 2.19661e-20)
(0.660115 0.0836616 -1.02893e-20)
(0.729113 0.0696727 -2.55984e-19)
(0.783285 0.0581238 1.56742e-20)
(0.827061 0.0486591 4.68015e-20)
(0.862474 0.0409413 -1.90912e-19)
(0.166808 0.0836863 -1.43567e-19)
(0.328047 0.089149 -1.22091e-19)
(0.457146 0.0826447 3.29156e-19)
(0.569511 0.0713 8.98671e-20)
(0.655713 0.0599942 -2.20444e-19)
(0.725439 0.0499519 -1.68293e-20)
(0.780186 0.0416682 -1.77752e-19)
(0.82443 0.0348829 -1.16205e-19)
(0.860174 0.0293558 1.84225e-20)
(0.162223 0.05044 3.85957e-20)
(0.323437 0.0536932 7.11086e-20)
(0.452987 0.0497498 -1.08043e-19)
(0.565993 0.0429034 -5.62829e-20)
(0.652767 0.0360914 3.06593e-20)
(0.72298 0.0300457 -6.45757e-20)
(0.778114 0.0250616 7.0743e-20)
(0.822671 0.0209803 2.73176e-20)
(0.858637 0.0176583 1.055e-20)
(0.450901 0.0166109 6.53817e-20)
(0.56423 0.014322 3.04927e-20)
(0.651291 0.0120465 -1.9645e-20)
(0.721749 0.0100277 5.98533e-20)
(0.777077 0.00836398 7.01627e-21)
(0.821791 0.00700184 2.5687e-20)
(0.857868 0.00589346 -2.31417e-20)
(1.01534 0.169668 -3.82299e-19)
(1.02716 0.173586 -4.37353e-20)
(1.03829 0.177077 2.13942e-19)
(1.04967 0.18009 -1.47332e-19)
(1.06124 0.182622 8.86214e-20)
(1.07292 0.184647 -5.92704e-20)
(1.0847 0.186159 4.96377e-20)
(1.01917 0.165699 2.89103e-19)
(1.0307 0.169145 5.89577e-20)
(1.04129 0.172289 6.06375e-20)
(1.05218 0.175035 4.20545e-20)
(1.06329 0.177368 -1.03417e-19)
(1.07455 0.179254 1.30414e-19)
(1.02313 0.162156 -1.97536e-19)
(1.03428 0.165151 -1.17101e-20)
(1.04439 0.167922 -8.99833e-20)
(1.05482 0.170348 -6.51071e-20)
(1.06551 0.172419 -1.13775e-19)
(1.02736 0.15858 1.80033e-19)
(1.03809 0.161148 -1.10406e-19)
(1.04777 0.163562 -2.23907e-21)
(1.05775 0.165675 -3.09047e-20)
(1.03169 0.15492 1.08932e-19)
(1.042 0.157118 9.85526e-20)
(1.05131 0.159202 -1.15962e-19)
(1.03605 0.151141 -2.17465e-19)
(1.04595 0.153038 -7.70514e-20)
(1.04041 0.147209 5.58012e-20)
(0.999966 0.00185937 0)
(0.99936 0.00555893 0)
(0.998234 0.00975566 0)
(0.996738 0.014784 0)
(0.994915 0.0209564 0)
(0.992906 0.0285014 0)
(0.990833 0.0376096 0)
(0.988939 0.0484013 0)
(0.987407 0.0609684 0)
(0.986642 0.0752582 0)
(0.986751 0.0912689 0)
(0.988459 0.108603 0)
(0.991198 0.127305 0)
(0.997025 0.145819 0)
(1.00149 0.164454 0)
(0.99997 0.00188409 0)
(0.999412 0.00562741 0)
(0.998375 0.00986795 0)
(0.997008 0.0149392 0)
(0.995357 0.0211508 0)
(0.993568 0.0287251 0)
(0.991767 0.0378416 0)
(0.990203 0.0486091 0)
(0.989061 0.061098 0)
(0.988752 0.0752455 0)
(0.989361 0.0910087 0)
(0.991645 0.108016 0)
(0.994933 0.1262 0)
(1.00159 0.144228 0)
(1.00647 0.161297 0)
(0.999974 0.00190688 0)
(0.999467 0.00569072 0)
(0.998527 0.00997136 0)
(0.997297 0.0150803 0)
(0.995829 0.0213238 0)
(0.994273 0.0289164 0)
(0.992758 0.0380252 0)
(0.991541 0.0487459 0)
(0.990801 0.0611245 0)
(0.990956 0.0750865 0)
(0.992067 0.0905452 0)
(0.994912 0.107155 0)
(0.998734 0.124726 0)
(1.00604 0.142164 0)
(1.0114 0.15777 0)
(0.999978 0.00192868 0)
(0.999526 0.0057518 0)
(0.998688 0.010071 0)
(0.997605 0.0152159 0)
(0.996332 0.0214891 0)
(0.995023 0.0290973 0)
(0.99381 0.0381946 0)
(0.992953 0.0488635 0)
(0.992629 0.0611258 0)
(0.993254 0.0748961 0)
(0.994871 0.090043 0)
(0.998258 0.106249 0)
(1.0026 0.123201 0)
(1.01042 0.140046 0)
(1.01627 0.154498 0)
(0.999982 0.00194894 0)
(0.999588 0.0058088 0)
(0.99886 0.0101633 0)
(0.997934 0.01534 0)
(0.996867 0.0216368 0)
(0.995818 0.0292524 0)
(0.994923 0.0383273 0)
(0.99444 0.0489303 0)
(0.994545 0.0610585 0)
(0.995646 0.0746161 0)
(0.99777 0.0894279 0)
(1.00168 0.105206 0)
(1.00653 0.12152 0)
(1.01476 0.137747 0)
(1.02106 0.151223 0)
(0.999986 0.00196709 0)
(0.999653 0.00586 0)
(0.999043 0.0102451 0)
(0.998282 0.0154475 0)
(0.997434 0.0217596 0)
(0.99666 0.0293714 0)
(0.996095 0.0384086 0)
(0.996001 0.0489261 0)
(0.996545 0.0608959 0)
(0.998127 0.0742119 0)
(1.00076 0.0886567 0)
(1.00517 0.10397 0)
(1.01051 0.119625 0)
(1.01906 0.135193 0)
(1.02579 0.147798 0)
(0.999989 0.0019827 0)
(0.999722 0.00590413 0)
(0.999235 0.0103143 0)
(0.99865 0.0155353 0)
(0.998033 0.0218532 0)
(0.997546 0.0294484 0)
(0.997327 0.0384315 0)
(0.997632 0.0488426 0)
(0.998625 0.0606286 0)
(1.00069 0.0736732 0)
(1.00382 0.0877204 0)
(1.00871 0.102534 0)
(1.01451 0.117514 0)
(1.02333 0.132388 0)
(1.03045 0.144199 0)
(0.999993 0.00199535 0)
(0.999794 0.00593989 0)
(0.999438 0.0103686 0)
(0.999037 0.0156001 0)
(0.998663 0.0219131 0)
(0.998476 0.0294777 0)
(0.998615 0.0383888 0)
(0.999331 0.0486715 0)
(1.00078 0.0602481 0)
(1.00333 0.072992 0)
(1.00695 0.0866132 0)
(1.01229 0.100896 0)
(1.01854 0.11519 0)
(0.999946 5.13704e-05 -6.28339e-23)
(0.998694 0.000156192 2.44207e-21)
(0.996223 0.000274346 -6.44985e-22)
(0.992743 0.000413658 1.58135e-21)
(0.988198 0.000582748 -1.22729e-21)
(0.982582 0.000788342 3.04236e-22)
(0.975846 0.00103602 1.22371e-21)
(0.967967 0.00133576 -1.30043e-21)
(0.958915 0.00169218 9.83038e-22)
(0.948668 0.00211129 -1.29196e-21)
(0.937224 0.00259968 -3.42842e-21)
(0.924598 0.00316086 7.95866e-22)
(0.910823 0.00379535 8.14341e-22)
(0.896007 0.00448425 8.14772e-23)
(0.880255 0.005174 -3.31901e-22)
(0.999946 0.00015405 4.61028e-21)
(0.998697 0.000468326 3.79019e-22)
(0.996231 0.000822587 -7.20923e-21)
(0.992761 0.00124031 -5.67698e-21)
(0.988228 0.00174737 -1.23845e-21)
(0.982628 0.00236384 2.29137e-21)
(0.975914 0.00310681 -2.74559e-21)
(0.968065 0.00400542 4.84453e-22)
(0.95905 0.00507404 -4.43972e-21)
(0.948851 0.00633043 3.48201e-21)
(0.937466 0.00779431 9.88605e-21)
(0.924915 0.00947593 -7.35419e-21)
(0.911231 0.0113768 1.85258e-21)
(0.896526 0.0134398 1.06964e-20)
(0.880889 0.015505 6.96733e-22)
(0.999945 0.000256542 2.1271e-21)
(0.998702 0.0007797 1.2986e-21)
(0.996248 0.00136945 8.69502e-22)
(0.992795 0.00206491 1.09435e-20)
(0.988288 0.00290926 6.79856e-22)
(0.982721 0.00393561 -3.70743e-21)
(0.976052 0.00517354 1.26141e-20)
(0.968261 0.00666916 -2.26925e-21)
(0.95932 0.00844794 -1.04474e-21)
(0.949216 0.0105387 2.804e-21)
(0.937951 0.012974 -2.66838e-20)
(0.92555 0.0157702 2.32949e-20)
(0.912048 0.0189294 -2.46645e-20)
(0.897563 0.0223552 2.4552e-20)
(0.882158 0.0257837 -4.81697e-20)
(0.999945 0.000358719 -1.97989e-20)
(0.998709 0.0010898 1.11904e-20)
(0.996273 0.001914 3.5791e-21)
(0.992847 0.00288609 -3.28088e-21)
(0.988377 0.00406658 1.52516e-20)
(0.98286 0.00550111 -6.93219e-21)
(0.976258 0.00723322 4.65966e-21)
(0.968555 0.00932298 2.22949e-21)
(0.959725 0.0118086 2.95305e-20)
(0.949764 0.0147287 -3.02967e-20)
(0.938678 0.0181287 -2.19489e-21)
(0.926502 0.0220296 1.81373e-20)
(0.913273 0.0264339 -1.478e-20)
(0.899116 0.0312037 4.84128e-20)
(0.884059 0.0359749 -4.64332e-20)
(0.999944 0.00046045 1.66143e-21)
(0.998719 0.00139812 -9.95246e-21)
(0.996307 0.00245532 -5.2815e-21)
(0.992917 0.00370247 6.36152e-21)
(0.988497 0.00521752 -1.98673e-20)
(0.983047 0.00705793 5.96407e-21)
(0.976534 0.00928277 -8.81429e-21)
(0.968948 0.0119629 4.95335e-21)
(0.960266 0.0151506 -1.16534e-20)
(0.950495 0.0188933 1.58505e-20)
(0.939648 0.0232486 -1.06453e-20)
(0.927771 0.0282404 -3.9958e-20)
(0.914904 0.0338712 3.8379e-20)
(0.901184 0.0399588 -2.55064e-20)
(0.886588 0.0460443 -2.51378e-20)
(0.999944 0.000561599 1.6539e-20)
(0.998732 0.00170414 -1.94791e-20)
(0.996349 0.00299247 3.09692e-20)
(0.993005 0.00451271 2.12787e-21)
(0.988647 0.00636018 -4.9804e-21)
(0.98328 0.0086036 1.2926e-20)
(0.976879 0.0113191 -2.63369e-21)
(0.969439 0.014585 -2.70978e-20)
(0.960942 0.0184689 6.71877e-21)
(0.951408 0.0230254 1.1232e-20)
(0.94086 0.0283237 -4.63106e-21)
(0.929357 0.0343888 -5.10634e-20)
(0.916942 0.0412224 6.38096e-20)
(0.903765 0.0485943 4.32823e-20)
(0.889743 0.0559578 1.53062e-20)
(0.999943 0.000662025 -2.05691e-20)
(0.998747 0.00200734 2.68036e-20)
(0.9964 0.00352452 -1.22024e-20)
(0.99311 0.00531547 -1.79639e-20)
(0.988828 0.00749246 9.67573e-21)
(0.983562 0.0101328 -1.57921e-20)
(0.977294 0.0133389 1.4173e-20)
(0.970029 0.0171853 -3.2055e-20)
(0.961754 0.0217582 -3.45964e-21)
(0.952505 0.0271177 6.81863e-21)
(0.942315 0.0333445 3.20672e-20)
(0.931259 0.0404612 6.38355e-20)
(0.919384 0.0484687 -6.09053e-20)
(0.906856 0.0570842 -3.82575e-20)
(0.893517 0.0656817 -2.95245e-20)
(0.999942 0.000761576 6.59838e-21)
(0.998766 0.00230718 -3.49127e-21)
(0.99646 0.00405054 3.3426e-21)
(0.993234 0.00610951 1.11648e-20)
(0.989039 0.00861246 2.06539e-20)
(0.983892 0.0116352 2.95286e-21)
(0.977781 0.0153386 3.95169e-20)
(0.970718 0.0197602 -2.43114e-20)
(0.962703 0.0250134 1.04656e-20)
(0.953785 0.0311634 1.55539e-20)
(0.944012 0.0383013 -6.69684e-20)
(0.933477 0.046444 5.44789e-20)
(0.92223 0.0555917 9.16045e-21)
(0.910453 0.0654031 3.91189e-20)
(0.897904 0.0751833 -2.33712e-21)
(0.999942 0.000860094 1.29589e-21)
(0.998787 0.00260313 6.06269e-21)
(0.99653 0.00456959 -5.94365e-20)
(0.993376 0.00689355 -5.46574e-21)
(0.989279 0.00971923 1.17969e-20)
(0.984272 0.0131281 -3.62095e-21)
(0.978342 0.017316 -1.37971e-20)
(0.971508 0.0223059 9.86084e-21)
(0.963788 0.0282297 -1.51849e-20)
(0.95525 0.0351556 2.08949e-20)
(0.945953 0.0431845 -5.24003e-20)
(0.936012 0.0523239 5.43097e-20)
(0.925477 0.0625732 -3.61094e-20)
(0.914553 0.0735261 -2.70827e-20)
(0.902898 0.084431 -1.06234e-20)
(0.999941 0.000957407 2.95034e-20)
(0.998811 0.00289463 8.48049e-21)
(0.996609 0.0050807 6.66526e-20)
(0.993538 0.00766617 -1.55268e-20)
(0.989552 0.0108106 -1.69201e-20)
(0.984701 0.0146211 2.25074e-21)
(0.978974 0.0192696 -9.61927e-21)
(0.972398 0.0248187 2.24219e-20)
(0.965012 0.0314021 -3.45475e-21)
(0.9569 0.0390876 3.74124e-20)
(0.948136 0.0479851 8.87705e-21)
(0.938861 0.0580876 -5.56378e-20)
(0.929125 0.0693955 1.00224e-19)
(0.91915 0.081429 -1.38719e-19)
(0.908489 0.0933943 1.8186e-19)
(0.999941 0.00105333 6.27109e-21)
(0.998839 0.00318112 -4.7571e-20)
(0.996698 0.00558297 -4.34561e-20)
(0.993719 0.00842588 2.96561e-20)
(0.98986 0.0118825 7.35842e-22)
(0.985181 0.0160906 1.14218e-20)
(0.979677 0.021195 1.23133e-20)
(0.973391 0.027295 -2.31336e-20)
(0.966374 0.0345258 -6.9879e-21)
(0.958736 0.0429527 -4.61741e-20)
(0.950564 0.0526938 -1.05297e-20)
(0.942026 0.0637223 7.60964e-21)
(0.933171 0.0760415 -2.47075e-20)
(0.92424 0.0890886 3.32535e-20)
(0.914667 0.102045 -3.33064e-20)
(0.999941 0.00114767 -1.57974e-20)
(0.99887 0.003462 3.93162e-20)
(0.996798 0.00607548 2.98747e-20)
(0.99392 0.00917198 -4.12483e-20)
(0.990203 0.0129291 2.94714e-20)
(0.985713 0.0175288 -3.59155e-20)
(0.980454 0.0230889 -2.92403e-20)
(0.974486 0.0297312 -9.10277e-21)
(0.967877 0.0375963 -1.54722e-20)
(0.960759 0.0467447 -3.31559e-20)
(0.953235 0.0573019 9.44706e-20)
(0.945506 0.0692152 6.15917e-20)
(0.937612 0.0824946 -4.26013e-20)
(0.929816 0.0964827 -1.11047e-19)
(0.921421 0.110357 7.99278e-20)
(0.999941 0.00124021 -7.94201e-21)
(0.998905 0.00373667 -8.17567e-21)
(0.996908 0.00655717 9.95445e-21)
(0.99414 0.00990376 6.35605e-20)
(0.990581 0.01396 -3.42281e-20)
(0.986299 0.0189385 4.19757e-20)
(0.981307 0.0249491 1.27321e-20)
(0.975688 0.0321241 -9.82464e-21)
(0.969522 0.040609 1.00924e-19)
(0.96297 0.0504576 -4.62934e-20)
(0.95615 0.0618006 -4.92891e-20)
(0.949299 0.074554 4.78319e-20)
(0.942444 0.0887387 -6.66514e-20)
(0.935872 0.10359 -1.74772e-20)
(0.928734 0.118307 1.0912e-20)
(0.999941 0.00133071 -1.39116e-21)
(0.998944 0.00400453 -4.64615e-21)
(0.99703 0.00702678 -3.82005e-20)
(0.994384 0.0106127 -1.59866e-20)
(0.990994 0.0149808 1.82301e-21)
(0.98694 0.0203203 4.83726e-21)
(0.982238 0.0267738 -6.94577e-21)
(0.976996 0.0344711 -3.22025e-20)
(0.97131 0.0435607 -3.12124e-20)
(0.965372 0.0540867 -1.77725e-21)
(0.95931 0.0661833 3.81714e-20)
(0.953404 0.0797283 3.20293e-20)
(0.947662 0.0947606 -6.7944e-20)
(0.942398 0.110392 8.56468e-20)
(0.93659 0.125877 -1.48241e-19)
(0.999942 0.00141891 -5.64129e-22)
(0.998987 0.00426498 1.98023e-20)
(0.997164 0.00748338 2.28264e-20)
(0.994651 0.0112816 -1.72233e-21)
(0.991447 0.0159764 -1.04235e-20)
(0.987635 0.0216719 5.98163e-21)
(0.983248 0.0285604 3.42767e-20)
(0.978415 0.0367695 6.00771e-21)
(0.973245 0.046448 -9.09148e-20)
(0.967964 0.0576282 3.83624e-20)
(0.962713 0.0704447 3.46283e-21)
(0.957817 0.084731 2.19072e-20)
(0.953256 0.100551 -1.23573e-19)
(0.949383 0.116878 9.40706e-20)
(0.944967 0.133059 -2.54025e-20)
(0.999944 0.00150448 1.12819e-20)
(0.999035 0.00451719 2.44724e-21)
(0.997307 0.00792585 -1.14662e-20)
(0.994944 0.0119566 -1.95907e-21)
(0.991942 0.0169405 -9.53024e-22)
(0.988389 0.0229891 -2.80371e-20)
(0.984342 0.0303039 -5.92514e-21)
(0.979947 0.0390127 -3.77264e-20)
(0.97533 0.0492623 -2.40253e-20)
(0.97075 0.0610712 -1.3328e-20)
(0.966359 0.0745708 2.00781e-20)
(0.962533 0.0895452 7.07701e-20)
(0.959216 0.106093 6.59856e-20)
(0.956811 0.123027 -9.44217e-20)
(0.953838 0.139844 5.47031e-20)
(0.999946 0.00158706 -3.0231e-20)
(0.999089 0.00476023 -2.31605e-20)
(0.997468 0.00835078 3.24184e-22)
(0.995262 0.0126348 3.19094e-20)
(0.992475 0.0178754 1.44636e-20)
(0.989204 0.0242681 3.31646e-21)
(0.985521 0.031998 3.97185e-20)
(0.981594 0.0411913 -5.48502e-20)
(0.977567 0.0519896 8.9269e-20)
(0.97373 0.064395 -4.25238e-20)
(0.970244 0.0785314 2.42706e-20)
(0.967543 0.09413 -7.91449e-20)
(0.965523 0.111331 6.28382e-21)
(0.964665 0.128779 4.89455e-20)
(0.963176 0.146187 -1.21613e-19)
(0.999949 0.00166663 9.22899e-21)
(0.999148 0.0049945 6.79503e-21)
(0.997644 0.00876398 2.13526e-20)
(0.995607 0.0132729 -4.10759e-20)
(0.993049 0.0187865 2.79656e-20)
(0.990082 0.0255202 -2.14745e-20)
(0.986789 0.0336599 -4.79395e-20)
(0.983361 0.0433294 5.45904e-20)
(0.979957 0.0546612 -1.63358e-20)
(0.976902 0.0676381 -5.55507e-20)
(0.974358 0.0823682 1.15501e-20)
(0.972827 0.0985251 1.46569e-19)
(0.972141 0.116299 -1.59169e-19)
(0.97292 0.134148 -2.14732e-20)
(0.972969 0.152098 2.27829e-19)
(0.999953 0.00174374 7.11955e-21)
(0.999216 0.00522311 -1.58885e-20)
(0.997838 0.00917142 -2.61228e-20)
(0.995982 0.0138983 3.03269e-20)
(0.993671 0.0196951 -1.02387e-20)
(0.991028 0.026781 -2.65039e-20)
(0.988152 0.0353471 3.43703e-20)
(0.985253 0.0455161 -6.42985e-20)
(0.982505 0.0574092 -5.65428e-21)
(0.980265 0.0709889 1.4906e-20)
(0.978692 0.0863372 4.47232e-20)
(0.978359 0.103062 2.81556e-20)
(0.979011 0.121393 3.22749e-20)
(0.981529 0.1396 -1.27388e-19)
(0.983189 0.158152 4.56968e-20)
(0.99996 0.00181662 1.72741e-21)
(0.999292 0.0054391 7.86336e-21)
(0.998051 0.0095541 -5.17391e-21)
(0.996391 0.0144903 -1.26968e-21)
(0.994347 0.0205578 2.62665e-20)
(0.992054 0.0279854 -5.90797e-20)
(0.989625 0.0369699 7.3327e-20)
(0.987292 0.0476366 -7.4793e-20)
(0.985236 0.0600954 -2.78471e-20)
(0.983847 0.0742965 5.87966e-20)
(0.983263 0.0902833 1.99986e-20)
(0.984143 0.107621 -8.83436e-22)
(0.986091 0.126494 -7.63575e-20)
(0.990499 0.145091 8.31264e-21)
(0.993764 0.164503 7.82758e-21)
)
;

boundaryField
{
    inlet
    {
        type            uniformFixedValue;
        uniformValue    constant (1 0 0);
        value           uniform (1 0 0);
    }
    outlet
    {
        type            pressureInletOutletVelocity;
        value           nonuniform 0();
    }
    cylinder
    {
        type            fixedValue;
        value           nonuniform 0();
    }
    top
    {
        type            symmetryPlane;
    }
    bottom
    {
        type            symmetryPlane;
    }
    defaultFaces
    {
        type            empty;
    }
    procBoundary8to4
    {
        type            processor;
        value           nonuniform List<vector> 
25
(
(0.159921 0.0168522 1.49887e-20)
(0.321123 0.0179322 -8.62302e-20)
(0.321123 0.0179322 -8.62302e-20)
(0.450901 -0.0166109 6.98978e-20)
(0.56423 -0.014322 1.90853e-20)
(0.651291 -0.0120465 -1.09562e-20)
(0.721749 -0.0100277 5.79857e-20)
(0.777077 -0.00836398 8.65064e-21)
(0.821791 -0.00700184 1.80781e-20)
(0.857868 -0.00589346 -1.43318e-20)
(0.999946 -5.13704e-05 -2.0474e-22)
(0.998694 -0.000156192 2.96266e-21)
(0.996223 -0.000274345 -1.1703e-21)
(0.992743 -0.000413657 1.21638e-21)
(0.988198 -0.000582748 7.84171e-22)
(0.982582 -0.000788341 -2.03328e-21)
(0.975846 -0.00103602 2.1905e-21)
(0.967967 -0.00133576 -7.3346e-22)
(0.958915 -0.00169218 -8.96399e-22)
(0.948668 -0.00211129 -2.54158e-21)
(0.937224 -0.00259968 3.47434e-21)
(0.924598 -0.00316086 -3.48753e-21)
(0.910823 -0.00379535 -4.53874e-21)
(0.896007 -0.00448425 -6.86568e-22)
(0.880255 -0.005174 8.00321e-22)
)
;
    }
    procBoundary8to9
    {
        type            processor;
        value           nonuniform List<vector> 
37
(
(1.13454 0.242809 1.34201e-19)
(1.11802 0.287108 -1.85762e-19)
(1.11802 0.287108 -1.85762e-19)
(1.0952 0.336 -5.45869e-20)
(1.0952 0.336 -5.45869e-20)
(1.06095 0.3879 1.99107e-19)
(1.04089 0.389736 -2.08096e-19)
(1.04089 0.389736 -2.08096e-19)
(0.98597 0.439607 -2.13315e-19)
(0.963593 0.440784 1.15768e-19)
(0.963593 0.440784 1.15768e-19)
(0.874657 0.478081 3.83367e-19)
(0.850145 0.478515 -1.61259e-19)
(0.824992 0.476758 -2.79675e-20)
(0.824992 0.476758 -2.79675e-20)
(0.690746 0.480532 3.15564e-19)
(0.664862 0.47728 -1.65247e-21)
(0.638576 0.471497 -5.06742e-19)
(0.612122 0.463201 2.91503e-19)
(0.585718 0.452417 -3.12092e-19)
(0.585718 0.452417 -3.12092e-19)
(0.390377 0.394576 -1.34675e-19)
(0.366335 0.382785 1.88861e-21)
(0.34273 0.368556 5.86934e-19)
(0.31978 0.351958 1.91663e-19)
(0.297693 0.333082 -1.00264e-18)
(0.276671 0.312035 5.78792e-19)
(0.256904 0.288943 5.54663e-21)
(0.23857 0.263947 -7.34471e-19)
(0.23857 0.263947 -7.34471e-19)
(0.0753022 0.136397 3.82211e-19)
(0.0661603 0.120475 2.22588e-19)
(0.0581349 0.103606 -1.06559e-18)
(0.0513114 0.0859183 5.54193e-19)
(0.0457627 0.0675489 -1.36373e-19)
(0.0415481 0.0486411 1.42527e-19)
(0.0387128 0.0293435 1.26203e-20)
)
;
    }
    procBoundary8to12
    {
        type            processor;
        value           nonuniform List<vector> 
34
(
(1.13281 0.207235 4.66784e-22)
(1.12034 0.18766 5.20777e-20)
(1.10845 0.187659 7.60165e-20)
(1.09656 0.187162 2.39807e-20)
(1.09656 0.187162 2.39807e-20)
(1.08594 0.180678 -5.27048e-20)
(1.08594 0.180678 -5.27048e-20)
(1.07636 0.174101 2.215e-20)
(1.07636 0.174101 2.215e-20)
(1.06801 0.167477 -1.17516e-19)
(1.06801 0.167477 -1.17516e-19)
(1.06087 0.16102 -2.34429e-20)
(1.06087 0.16102 -2.34429e-20)
(1.05492 0.154824 -2.54558e-19)
(1.05492 0.154824 -2.54558e-19)
(1.04989 0.148856 -9.77349e-20)
(1.04989 0.148856 -9.77349e-20)
(1.04473 0.143107 1.01033e-19)
(1.02756 0.129342 0)
(1.03506 0.140421 0)
(0.999997 0.00200454 0)
(0.999869 0.00596577 0)
(0.999651 0.0104054 0)
(0.999444 0.015638 0)
(0.999324 0.0219339 0)
(0.999448 0.0294525 0)
(0.999957 0.0382723 0)
(1.00109 0.0484032 0)
(1.003 0.0597439 0)
(1.00603 0.0721574 0)
(1.01014 0.0853257 0)
(1.0159 0.0990491 0)
(1.02756 0.129342 0)
(1.02256 0.112651 0)
)
;
    }
}


// ************************************************************************* //
