/*--------------------------------*- C++ -*----------------------------------*\
  =========                 |
  \\      /  F ield         | OpenFOAM: The Open Source CFD Toolbox
   \\    /   O peration     | Website:  https://openfoam.org
    \\  /    A nd           | Version:  7
     \\/     M anipulation  |
\*---------------------------------------------------------------------------*/
FoamFile
{
    version     2.0;
    format      ascii;
    class       volVectorField;
    location    "15";
    object      U;
}
// * * * * * * * * * * * * * * * * * * * * * * * * * * * * * * * * * * * * * //

dimensions      [0 1 -1 0 0 0 0];

internalField   nonuniform List<vector> 
656
(
(0.094067 -0.00517877 -3.40414e-20)
(0.128803 -0.0059005 -4.85343e-21)
(0.164399 -0.00636192 -1.01365e-20)
(0.204204 -0.00682901 7.63605e-21)
(0.098523 -0.0154834 3.69855e-20)
(0.134177 -0.0176219 -4.36181e-20)
(0.170545 -0.0189898 -8.30864e-22)
(0.211593 -0.0203364 -1.41634e-20)
(0.107405 -0.0256297 1.74046e-20)
(0.144876 -0.0291049 1.09095e-19)
(0.18277 -0.0313307 4.76357e-20)
(0.226265 -0.0333934 1.17061e-20)
(0.120652 -0.0355116 1.51022e-19)
(0.160801 -0.0401916 1.24592e-20)
(0.200935 -0.0431971 -2.11075e-20)
(0.248008 -0.0457072 1.06626e-19)
(0.138174 -0.0450222 -2.51365e-19)
(0.181806 -0.0507259 1.0294e-19)
(0.224838 -0.0544075 7.5342e-20)
(0.276505 -0.0569974 -7.19875e-20)
(0.15985 -0.0540535 -1.27397e-19)
(0.207695 -0.060554 -2.69245e-19)
(0.254209 -0.0647874 3.16063e-20)
(0.311332 -0.0670011 1.47755e-19)
(0.185531 -0.0624964 1.16006e-19)
(0.238224 -0.0695259 9.44668e-21)
(0.288715 -0.0741714 -3.66563e-19)
(0.351959 -0.0754799 -2.3469e-19)
(0.215037 -0.0702402 5.16065e-19)
(0.2731 -0.0774962 -2.51797e-19)
(0.327963 -0.0824033 1.79517e-19)
(0.397756 -0.0822267 1.95965e-20)
(0.311984 -0.084326 3.12844e-19)
(0.3715 -0.0893373 -1.21113e-19)
(0.447998 -0.0870722 1.95653e-19)
(0.354492 -0.0898852 4.06646e-19)
(0.418822 -0.0948384 1.18199e-19)
(0.501879 -0.0898914 -2.06413e-19)
(0.400198 -0.0940552 -6.13934e-19)
(0.469376 -0.0987835 3.21643e-20)
(0.558518 -0.0906082 4.6457e-20)
(0.448635 -0.0967323 3.29351e-19)
(0.522569 -0.101062 -1.88911e-19)
(0.616989 -0.0891995 -1.7882e-19)
(0.499303 -0.0978318 3.50389e-20)
(0.577774 -0.101578 3.6546e-19)
(0.676333 -0.0856964 2.17543e-19)
(0.551673 -0.0972918 -3.12305e-19)
(0.63434 -0.100252 -2.67425e-19)
(0.735589 -0.0801852 -4.09998e-20)
(0.605197 -0.0950776 2.89216e-19)
(0.691606 -0.0970242 5.06825e-19)
(0.793817 -0.0728151 8.28311e-20)
(0.748909 -0.0918609 -3.174e-19)
(0.850132 -0.063805 -1.46667e-19)
(0.805595 -0.0847472 -2.63243e-19)
(0.903703 -0.0534015 -9.29334e-20)
(0.861027 -0.075662 5.40106e-19)
(0.953707 -0.0417773 -1.26919e-19)
(0.914639 -0.0645723 3.23551e-19)
(0.999437 -0.0293176 6.12458e-19)
(1.04131 -0.0179793 -1.97932e-19)
(1.08285 -0.011262 -4.70655e-20)
(0.094067 0.00517877 3.40414e-20)
(0.128803 0.00590051 4.85343e-21)
(0.229589 -0.00573532 3.12412e-21)
(0.244929 -0.00525561 -1.66617e-21)
(0.259628 -0.00493796 1.83173e-21)
(0.274046 -0.00468776 -1.52382e-21)
(0.288202 -0.00449015 -2.71305e-21)
(0.302219 -0.00433085 2.07672e-21)
(0.316189 -0.00419647 1.44919e-21)
(0.330159 -0.0040784 -1.69863e-21)
(0.344163 -0.00397053 1.64872e-21)
(0.358216 -0.00386831 -7.79003e-22)
(0.372323 -0.00376853 -1.83791e-21)
(0.386479 -0.003669 9.65016e-22)
(0.400673 -0.00356831 -9.38913e-22)
(0.414887 -0.00346572 1.73612e-21)
(0.4291 -0.00336093 -7.41903e-23)
(0.44329 -0.00325402 -1.37478e-22)
(0.457435 -0.00314529 -2.45329e-22)
(0.471512 -0.00303521 1.26268e-22)
(0.485499 -0.00292435 -3.81783e-23)
(0.499375 -0.00281332 -4.9343e-22)
(0.513122 -0.00270274 5.52535e-22)
(0.526723 -0.00259323 1.08148e-22)
(0.540165 -0.00248538 -5.09471e-23)
(0.236823 -0.0170824 -4.39027e-21)
(0.251728 -0.0156688 2.10265e-21)
(0.266101 -0.0147303 5.73123e-21)
(0.280261 -0.0139888 -6.06768e-22)
(0.294179 -0.0134033 -9.39055e-21)
(0.307978 -0.0129313 1.19108e-20)
(0.321744 -0.0125331 -4.87705e-21)
(0.335524 -0.0121829 -5.53315e-21)
(0.349345 -0.0118627 7.32669e-21)
(0.363223 -0.0115589 1.13606e-21)
(0.377161 -0.0112621 -5.32262e-21)
(0.391151 -0.0109656 9.97894e-22)
(0.405182 -0.0106655 4.83457e-21)
(0.419236 -0.0103595 -2.82105e-21)
(0.433291 -0.0100469 3.54606e-22)
(0.447327 -0.00972777 1.3548e-21)
(0.461318 -0.00940317 -7.49489e-22)
(0.475245 -0.0090745 -3.76517e-21)
(0.489083 -0.00874345 2.89212e-21)
(0.502814 -0.00841185 -1.68354e-21)
(0.516419 -0.00808157 -1.0872e-21)
(0.529882 -0.00775444 1.69469e-21)
(0.543189 -0.00743225 2.02893e-21)
(0.251179 -0.0280598 -1.56567e-20)
(0.265225 -0.0257881 5.77807e-21)
(0.278952 -0.0242718 1.6407e-21)
(0.292601 -0.0230666 -1.7315e-21)
(0.306047 -0.0221152 -1.87886e-20)
(0.319412 -0.0213483 1.83667e-20)
(0.332776 -0.0207006 -5.02579e-21)
(0.346177 -0.0201304 -2.60315e-21)
(0.359638 -0.0196081 6.76211e-21)
(0.373169 -0.0191114 -1.32173e-20)
(0.38677 -0.0186249 -5.24217e-22)
(0.400431 -0.0181381 1.29589e-20)
(0.414139 -0.0176444 -1.09384e-20)
(0.427875 -0.0171405 8.13681e-21)
(0.441617 -0.016625 3.47513e-21)
(0.455344 -0.0160987 -7.96886e-21)
(0.469032 -0.015563 4.33357e-21)
(0.482659 -0.0150204 4.96263e-22)
(0.496204 -0.0144737 1.33381e-21)
(0.509647 -0.0139261 -8.01189e-22)
(0.52297 -0.0133805 -6.17563e-22)
(0.536158 -0.0128401 -3.5199e-22)
(0.549197 -0.0123077 -1.81236e-21)
(0.272434 -0.0384279 -3.64343e-20)
(0.285222 -0.0354213 8.89789e-21)
(0.297996 -0.0333982 -8.77727e-21)
(0.310887 -0.0317754 7.37442e-21)
(0.323636 -0.0304949 1.05772e-20)
(0.336359 -0.0294628 -1.43057e-20)
(0.34913 -0.0285898 2.2493e-20)
(0.361972 -0.0278196 -8.35281e-21)
(0.374899 -0.0271117 -4.56222e-21)
(0.387917 -0.0264363 2.86535e-22)
(0.401019 -0.0257723 2.03983e-21)
(0.414193 -0.0251058 -1.32703e-21)
(0.427422 -0.0244282 -9.28899e-21)
(0.440687 -0.0237352 5.27075e-21)
(0.453964 -0.0230254 -4.53278e-21)
(0.467233 -0.0222999 4.81379e-21)
(0.48047 -0.021561 -1.93555e-21)
(0.493654 -0.0208123 -2.17952e-21)
(0.506764 -0.0200576 6.18867e-21)
(0.519781 -0.0193013 -3.43179e-21)
(0.532687 -0.0185478 5.75437e-21)
(0.545468 -0.0178012 -9.62403e-22)
(0.558111 -0.0170655 -2.10321e-21)
(0.300254 -0.0479569 -3.83491e-20)
(0.311424 -0.0443821 3.17728e-20)
(0.322955 -0.0419511 1.64597e-20)
(0.334855 -0.0399753 -2.16305e-20)
(0.346694 -0.0384173 -3.01735e-20)
(0.35858 -0.0371613 1.7634e-20)
(0.370576 -0.0360963 3.65481e-20)
(0.382688 -0.0351536 -2.10912e-20)
(0.394919 -0.0342831 4.36638e-21)
(0.407265 -0.0334482 -1.06697e-20)
(0.419714 -0.0326233 1.21574e-20)
(0.432249 -0.0317916 -1.56099e-20)
(0.444851 -0.0309433 3.15288e-22)
(0.457497 -0.0300735 2.18189e-21)
(0.470166 -0.0291811 -5.07546e-21)
(0.482834 -0.0282676 6.5032e-21)
(0.495481 -0.0273365 -2.65735e-21)
(0.508083 -0.0263922 3.35928e-21)
(0.520623 -0.0254401 3.5468e-21)
(0.533081 -0.0244855 -4.28262e-21)
(0.545442 -0.023534 -7.8558e-22)
(0.55769 -0.0225909 -2.75106e-21)
(0.569813 -0.0216615 1.16614e-21)
(0.334198 -0.0564326 2.64387e-20)
(0.343437 -0.0524942 8.17606e-21)
(0.353464 -0.0497794 4.42107e-20)
(0.364159 -0.047534 -1.77649e-20)
(0.374891 -0.0457651 6.91899e-21)
(0.385761 -0.0443379 -4.96747e-20)
(0.396816 -0.0431232 3.58539e-20)
(0.408041 -0.0420423 8.24264e-21)
(0.419424 -0.0410377 -4.07525e-20)
(0.430951 -0.0400671 1.0285e-20)
(0.442602 -0.0391017 1.60053e-20)
(0.454357 -0.0381231 -2.52205e-21)
(0.46619 -0.0371206 -1.45498e-20)
(0.47808 -0.0360894 3.38055e-21)
(0.490004 -0.0350289 -7.02565e-21)
(0.501938 -0.0339417 1.61352e-20)
(0.513861 -0.0328321 -9.21059e-21)
(0.525754 -0.031706 2.08141e-21)
(0.537597 -0.0305695 9.28619e-21)
(0.549373 -0.0294296 3.09283e-21)
(0.561067 -0.0282928 -4.40457e-21)
(0.572664 -0.0271656 3.62902e-21)
(0.584154 -0.0260544 -3.48046e-21)
(0.373723 -0.0636605 -2.10607e-20)
(0.38078 -0.0595941 -5.58966e-20)
(0.389076 -0.0567439 3.65053e-20)
(0.398376 -0.0543304 9.18552e-21)
(0.407829 -0.0524311 -1.5251e-20)
(0.417524 -0.0508964 -1.87841e-21)
(0.427491 -0.0495822 -1.87332e-20)
(0.437687 -0.0484036 1.47615e-20)
(0.448085 -0.0472981 1.44227e-20)
(0.458658 -0.0462197 -1.85237e-20)
(0.46938 -0.0451379 1.07521e-20)
(0.480221 -0.0440336 1.72119e-20)
(0.491157 -0.0428963 -1.84162e-20)
(0.502163 -0.0417219 1.34898e-20)
(0.513214 -0.040511 1.57996e-21)
(0.52429 -0.0392669 -5.61337e-21)
(0.535369 -0.0379955 -1.84291e-20)
(0.546433 -0.0367035 2.46637e-20)
(0.557463 -0.0353987 -1.02155e-20)
(0.568443 -0.0340889 5.64342e-21)
(0.579359 -0.0327818 -6.20003e-21)
(0.590199 -0.0314851 -2.51211e-21)
(0.60095 -0.0302062 3.55156e-21)
(0.418187 -0.0694732 4.40001e-20)
(0.422882 -0.0655372 -9.56966e-22)
(0.429267 -0.0627201 2.92997e-21)
(0.437014 -0.060257 -1.03563e-20)
(0.445045 -0.0583214 -3.78922e-20)
(0.453433 -0.0567523 4.50033e-20)
(0.462184 -0.0553958 -9.58607e-21)
(0.471229 -0.0541651 2.5347e-20)
(0.480521 -0.0529957 -8.01244e-22)
(0.490021 -0.0518404 -2.59061e-20)
(0.499692 -0.0506689 1.11567e-20)
(0.509503 -0.0494629 -2.68263e-20)
(0.519423 -0.048213 3.24664e-20)
(0.529428 -0.0469165 -8.08006e-21)
(0.539493 -0.0455751 -1.24769e-20)
(0.549598 -0.0441938 -3.89727e-21)
(0.559723 -0.0427795 1.9102e-20)
(0.56985 -0.0413404 -1.05236e-20)
(0.579963 -0.0398854 1.41415e-20)
(0.590046 -0.0384234 -1.74045e-20)
(0.600086 -0.0369633 2.74514e-22)
(0.610071 -0.0355139 3.93354e-21)
(0.619991 -0.0340833 9.93963e-21)
(0.466864 -0.0737364 -5.88897e-20)
(0.469097 -0.0702024 6.8451e-20)
(0.473449 -0.0676031 -1.6181e-20)
(0.479525 -0.0652242 -1.44615e-20)
(0.486026 -0.0633576 -2.0887e-20)
(0.493003 -0.0618351 5.32678e-20)
(0.500438 -0.0604984 -2.04464e-20)
(0.508229 -0.0592648 -3.03662e-21)
(0.516311 -0.0580711 -1.07826e-20)
(0.524632 -0.0568722 8.0566e-21)
(0.533147 -0.0556401 2.30417e-21)
(0.541821 -0.0543586 8.89541e-21)
(0.550621 -0.0530206 5.50392e-21)
(0.559522 -0.0516252 -1.43978e-20)
(0.5685 -0.0501759 -6.17543e-21)
(0.577536 -0.0486792 7.60472e-21)
(0.586611 -0.0471435 2.80031e-21)
(0.595708 -0.0455782 -1.28101e-20)
(0.604812 -0.0439932 2.58554e-21)
(0.613909 -0.0423988 -6.14276e-21)
(0.622987 -0.0408049 -6.31619e-21)
(0.632034 -0.0392211 8.47777e-21)
(0.641041 -0.0376567 7.02562e-21)
(0.518959 -0.0763548 5.9577e-20)
(0.518716 -0.0734979 8.10463e-20)
(0.520978 -0.0713118 -5.43003e-20)
(0.525315 -0.0691629 -6.28932e-20)
(0.530219 -0.0674792 4.40232e-20)
(0.535714 -0.0660891 -1.10244e-20)
(0.541756 -0.0648375 -8.92476e-21)
(0.548211 -0.0636517 1.0767e-20)
(0.554996 -0.0624749 1.32018e-21)
(0.562049 -0.0612672 1.61914e-20)
(0.569318 -0.0600051 -1.9084e-20)
(0.576763 -0.0586764 -6.34959e-21)
(0.584353 -0.0572768 3.24874e-20)
(0.592061 -0.055808 -3.22315e-20)
(0.599866 -0.0542755 5.32867e-21)
(0.607749 -0.0526875 1.91837e-20)
(0.615692 -0.0510537 -1.81143e-21)
(0.62368 -0.0493849 -9.96631e-21)
(0.631699 -0.0476922 3.06129e-21)
(0.639737 -0.0459868 8.28305e-21)
(0.647781 -0.0442797 -3.6276e-21)
(0.655821 -0.0425815 -8.21897e-21)
(0.663849 -0.0409025 8.82963e-21)
(0.57362 -0.0772774 3.84276e-20)
(0.570983 -0.0753672 -1.12661e-19)
(0.571179 -0.073794 4.9571e-20)
(0.573765 -0.0720284 -3.76461e-20)
(0.577047 -0.0706453 8.1057e-20)
(0.581023 -0.0694746 -3.52851e-20)
(0.58562 -0.0683733 1.03865e-21)
(0.590678 -0.0672861 -4.20383e-20)
(0.596096 -0.0661675 5.7315e-20)
(0.601806 -0.0649865 -2.27035e-20)
(0.607752 -0.0637265 4.84492e-20)
(0.613893 -0.0623803 -3.96939e-20)
(0.620198 -0.0609476 1.62437e-20)
(0.626641 -0.0594329 -2.09352e-20)
(0.633202 -0.0578438 -9.25195e-22)
(0.639863 -0.0561903 1.29601e-21)
(0.646609 -0.0544837 2.31944e-20)
(0.653425 -0.0527358 -1.80826e-20)
(0.660299 -0.050959 -4.89155e-21)
(0.667218 -0.0491654 9.01447e-21)
(0.674172 -0.0473672 -6.87129e-21)
(0.681151 -0.0455757 1.37197e-20)
(0.688146 -0.0438021 -1.29474e-20)
(0.629972 -0.0765026 5.56008e-20)
(0.625121 -0.0757944 -8.24938e-20)
(0.623359 -0.0750301 -2.90703e-20)
(0.624243 -0.0738021 4.97489e-20)
(0.625925 -0.0728352 -1.22987e-20)
(0.628376 -0.0719674 2.02528e-20)
(0.631499 -0.0710787 1.74844e-20)
(0.635114 -0.0701389 -2.51308e-20)
(0.639111 -0.0691192 4.89648e-20)
(0.643419 -0.0680007 -7.24955e-20)
(0.64798 -0.0667758 5.36815e-20)
(0.652756 -0.0654435 -1.78566e-20)
(0.657716 -0.0640078 -3.57939e-21)
(0.662838 -0.0624764 -1.42413e-20)
(0.668101 -0.0608592 1.34251e-20)
(0.67349 -0.0591678 -6.08751e-21)
(0.67899 -0.057415 1.81715e-20)
(0.684588 -0.0556138 -3.59847e-21)
(0.690273 -0.0537776 -9.28388e-21)
(0.696031 -0.0519197 7.10659e-21)
(0.701855 -0.050053 -1.03292e-20)
(0.707732 -0.04819 -8.83654e-22)
(0.713656 -0.0463428 5.48667e-21)
(0.687138 -0.0740822 -1.67495e-19)
(0.68036 -0.0748092 1.08199e-19)
(0.676843 -0.0750365 6.84993e-20)
(0.676134 -0.0744924 -1.04313e-19)
(0.676277 -0.0740474 -2.85091e-20)
(0.677223 -0.0735572 2.22419e-20)
(0.678859 -0.0729375 6.00074e-20)
(0.680998 -0.0721907 -7.88785e-20)
(0.683533 -0.0713093 9.28511e-20)
(0.686391 -0.0702894 -1.66615e-20)
(0.689522 -0.0691338 -6.07584e-20)
(0.692889 -0.0678483 3.35431e-20)
(0.696463 -0.0664416 2.20079e-20)
(0.700223 -0.0649243 -5.07999e-20)
(0.704152 -0.0633088 2.59813e-20)
(0.708236 -0.0616084 6.39575e-21)
(0.712459 -0.059837 -1.18045e-20)
(0.71681 -0.0580091 2.42141e-20)
(0.721278 -0.0561391 -1.54433e-20)
(0.72585 -0.0542412 -2.8632e-22)
(0.730518 -0.0523294 -5.03277e-21)
(0.735271 -0.0504172 -5.44608e-21)
(0.740101 -0.0485174 1.15482e-20)
(0.744281 -0.0701272 -1.20414e-19)
(0.735979 -0.0724933 -5.5301e-21)
(0.730999 -0.0738685 3.69506e-20)
(0.728861 -0.0741341 3.50222e-20)
(0.727553 -0.0742972 -5.17327e-20)
(0.727025 -0.0742451 -2.56915e-20)
(0.72717 -0.0739425 4.53285e-20)
(0.72781 -0.0734304 1.57998e-20)
(0.728849 -0.0727257 6.03581e-22)
(0.730227 -0.0718413 1.0619e-20)
(0.731896 -0.0707906 -4.93228e-20)
(0.733825 -0.0695866 -8.11554e-21)
(0.735988 -0.0682423 -1.35743e-20)
(0.738367 -0.0667716 2.18106e-20)
(0.740945 -0.0651889 7.25587e-21)
(0.743707 -0.0635091 1.20174e-20)
(0.746641 -0.0617477 -1.12518e-21)
(0.749734 -0.0599202 -1.47311e-20)
(0.752975 -0.0580421 1.49507e-20)
(0.756351 -0.0561287 2.45123e-20)
(0.759855 -0.0541951 -2.88414e-20)
(0.763474 -0.0522557 1.02255e-20)
(0.767202 -0.0503244 1.87238e-21)
(0.77103 -0.0484144 -3.90484e-22)
(0.80065 -0.0648203 6.93937e-20)
(0.791354 -0.0689865 -1.33394e-19)
(0.78528 -0.0716171 9.5737e-20)
(0.781902 -0.0727797 -1.52494e-19)
(0.779235 -0.0736073 9.67986e-20)
(0.777262 -0.0740357 -4.75234e-20)
(0.775908 -0.0740899 1.21073e-20)
(0.77503 -0.0738516 3.35196e-20)
(0.774553 -0.0733626 -2.43797e-20)
(0.77443 -0.0726523 4.50805e-20)
(0.774623 -0.0717445 -8.06918e-20)
(0.775105 -0.0706586 1.83379e-20)
(0.775852 -0.0694121 3.64492e-20)
(0.776848 -0.0680215 3.03338e-20)
(0.778076 -0.0665036 -3.68625e-20)
(0.779521 -0.0648749 -2.04411e-20)
(0.78117 -0.0631521 2.49611e-20)
(0.78301 -0.0613521 -2.74389e-20)
(0.78503 -0.0594917 3.89438e-20)
(0.787218 -0.0575872 -1.66414e-20)
(0.789564 -0.0556548 1.14685e-20)
(0.792057 -0.0537099 -3.26695e-20)
(0.794688 -0.0517675 1.65989e-20)
(0.79745 -0.0498418 -1.01791e-20)
(0.855654 -0.0584129 9.52547e-20)
(0.846024 -0.0644686 -1.22695e-19)
(0.839262 -0.068385 8.40884e-20)
(0.83481 -0.0704781 -1.26302e-19)
(0.830842 -0.0719918 5.38533e-20)
(0.827429 -0.0729267 8.04919e-20)
(0.824561 -0.0733727 5.66648e-21)
(0.822148 -0.0734482 -2.95968e-20)
(0.820144 -0.0732171 1.5186e-20)
(0.818517 -0.0727232 -2.24435e-20)
(0.817238 -0.0719993 -2.86163e-20)
(0.816282 -0.0710708 -1.59082e-20)
(0.815629 -0.069959 3.56958e-20)
(0.81526 -0.0686835 -3.18114e-20)
(0.815158 -0.0672631 8.03282e-21)
(0.815307 -0.065716 2.53834e-20)
(0.815694 -0.0640606 -3.04662e-20)
(0.816305 -0.0623152 -7.3177e-21)
(0.817127 -0.0604977 1.27852e-20)
(0.818148 -0.0586259 -2.32345e-21)
(0.819358 -0.056717 2.80551e-20)
(0.820744 -0.0547877 -2.83925e-20)
(0.822299 -0.052854 1.45191e-20)
(0.824013 -0.0509313 1.27949e-20)
(0.90898 -0.0511671 -9.5292e-20)
(0.899781 -0.0591263 -9.22081e-20)
(0.892661 -0.0642754 6.85546e-20)
(0.887199 -0.0672788 -3.62839e-20)
(0.881913 -0.0694706 1.60261e-19)
(0.877026 -0.0709282 -5.9267e-20)
(0.872618 -0.0718007 1.03787e-20)
(0.868659 -0.0722332 9.23508e-21)
(0.865132 -0.0723059 -2.38425e-20)
(0.862019 -0.0720737 3.56987e-20)
(0.859293 -0.0715769 9.03067e-22)
(0.856932 -0.0708461 -9.65296e-20)
(0.854913 -0.0699066 7.07855e-20)
(0.853217 -0.0687809 -3.12081e-20)
(0.851825 -0.0674901 4.69921e-20)
(0.850719 -0.0660545 -6.03696e-20)
(0.849883 -0.0644942 4.06161e-20)
(0.849303 -0.0628291 -1.02343e-20)
(0.848965 -0.0610787 -1.63919e-20)
(0.848857 -0.059262 1.39289e-20)
(0.848965 -0.0573977 -1.90103e-20)
(0.849279 -0.0555038 1.13398e-20)
(0.849788 -0.0535975 2.90383e-21)
(0.850485 -0.0516953 -3.39072e-21)
(0.96078 -0.0435265 -4.03233e-20)
(0.95271 -0.0533193 8.55504e-21)
(0.945299 -0.0594857 -2.19995e-20)
(0.938691 -0.0632923 -1.04383e-20)
(0.931972 -0.0661196 9.14993e-20)
(0.925542 -0.0681088 -6.55231e-20)
(0.919569 -0.069444 3.72613e-20)
(0.914072 -0.0702789 2.89514e-20)
(0.909051 -0.0707022 -7.97194e-20)
(0.904492 -0.0707766 4.4437e-21)
(0.90037 -0.0705484 -2.24839e-20)
(0.896659 -0.0700532 2.91864e-21)
(0.893332 -0.0693203 -5.29822e-21)
(0.890367 -0.0683755 2.10074e-20)
(0.887741 -0.0672428 1.13691e-20)
(0.885436 -0.0659449 -7.58875e-21)
(0.883433 -0.0645038 1.41809e-20)
(0.881717 -0.0629413 -8.56895e-21)
(0.88027 -0.0612786 1.14809e-20)
(0.879081 -0.0595363 1.46782e-20)
(0.878135 -0.0577346 -3.05804e-20)
(0.877422 -0.0558928 2.7461e-20)
(0.876929 -0.0540295 -6.83819e-21)
(0.876648 -0.0521625 1.43364e-20)
(1.01205 -0.0369845 6.06247e-20)
(1.00525 -0.0475668 -9.70171e-20)
(0.997033 -0.0540086 6.75778e-20)
(0.988853 -0.0583888 -6.25442e-20)
(0.980494 -0.0618138 1.03034e-19)
(0.972447 -0.0643826 -2.50495e-20)
(0.96491 -0.0662542 -5.98007e-20)
(0.957915 -0.0675667 2.68409e-21)
(0.951463 -0.0684096 1.88571e-20)
(0.945532 -0.0688509 3.31208e-21)
(0.94009 -0.0689436 -6.76317e-20)
(0.935106 -0.0687291 3.32178e-20)
(0.930549 -0.0682421 -7.3748e-21)
(0.926391 -0.0675128 -1.58874e-20)
(0.922607 -0.0665686 3.92136e-20)
(0.919175 -0.0654352 -3.02536e-22)
(0.916074 -0.0641374 1.10167e-20)
(0.913286 -0.062699 1.34815e-20)
(0.910796 -0.0611433 -2.68173e-20)
(0.908587 -0.0594928 -1.04664e-20)
(0.906645 -0.0577694 7.46415e-21)
(0.904959 -0.0559941 1.49609e-20)
(0.903517 -0.054187 1.41003e-21)
(0.902309 -0.0523672 1.63108e-21)
(1.06575 -0.0322544 -1.92652e-19)
(1.05837 -0.0403097 1.60589e-20)
(1.04759 -0.0464165 1.07664e-20)
(1.03707 -0.0514694 4.33122e-20)
(1.02684 -0.0556769 8.10718e-20)
(1.01716 -0.0590306 -1.82512e-20)
(1.00812 -0.0616272 -3.87906e-20)
(0.999732 -0.0635805 6.92938e-20)
(0.991957 -0.064982 -2.05503e-20)
(0.984762 -0.0659085 1.88876e-20)
(0.978108 -0.0664226 -3.35017e-20)
(0.971955 -0.0665751 3.02267e-20)
(0.966266 -0.0664085 -8.70973e-20)
(0.96101 -0.0659595 4.9296e-21)
(0.956157 -0.0652606 3.89321e-20)
(0.951684 -0.064342 1.56018e-21)
(0.947566 -0.0632319 -1.45077e-20)
(0.943786 -0.0619573 2.38457e-20)
(0.940324 -0.0605442 -2.77466e-20)
(0.937166 -0.0590175 -1.31155e-20)
(0.934296 -0.0574012 1.77241e-20)
(0.931701 -0.0557183 -1.06778e-20)
(0.92937 -0.0539907 8.9967e-21)
(0.927291 -0.0522394 8.72101e-21)
(1.11056 -0.0233194 0)
(1.09626 -0.0325279 0)
(1.08166 -0.0396156 0)
(1.06923 -0.0455039 0)
(1.05778 -0.0503351 0)
(1.04711 -0.0542538 0)
(1.03721 -0.0573664 0)
(1.02801 -0.0597822 0)
(1.01948 -0.0615964 0)
(1.01155 -0.0628901 0)
(1.00419 -0.0637308 0)
(0.997354 -0.0641743 0)
(0.990997 -0.0642675 0)
(0.985089 -0.064051 0)
(0.979598 -0.0635609 0)
(0.974498 -0.06283 0)
(0.969766 -0.0618889 0)
(0.965382 -0.0607666 0)
(0.961328 -0.0594909 0)
(0.957586 -0.058088 0)
(0.954141 -0.0565835 0)
(0.950981 -0.0550014 0)
(0.948093 -0.053365 0)
(0.945466 -0.051696 0)
(1.13565 -0.015279 0)
(1.12136 -0.0268168 0)
(1.10522 -0.0350091 0)
(1.09176 -0.0415085 0)
(1.07959 -0.0467616 0)
(1.06833 -0.0510306 0)
(1.0579 -0.0544545 0)
(1.04821 -0.0571496 0)
(1.0392 -0.0592153 0)
(1.03081 -0.0607355 0)
(1.02301 -0.0617799 0)
(1.01573 -0.0624069 0)
(1.00894 -0.062666 0)
(1.0026 -0.0625998 0)
(0.996692 -0.0622464 0)
(0.991178 -0.06164 0)
(0.986037 -0.0608127 0)
(0.981249 -0.0597947 0)
(0.976794 -0.0586145 0)
(0.972655 -0.0572995 0)
(0.968819 -0.0558758 0)
(0.965271 -0.0543682 0)
(0.961999 -0.0528004 0)
(0.958992 -0.0511948 0)
(1.15695 -0.00797647 0)
(1.14423 -0.0208143 0)
(1.12787 -0.0299788 0)
(1.11388 -0.037145 0)
(1.10121 -0.0428867 0)
(1.08948 -0.0475459 0)
(1.07862 -0.0513065 0)
(1.06851 -0.0542995 0)
(1.05908 -0.0566316 0)
(1.05028 -0.0583908 0)
(1.04206 -0.0596501 0)
(1.03438 -0.0604708 0)
(1.02718 -0.0609049 0)
(1.02044 -0.0609975 0)
(1.01413 -0.0607884 0)
(1.00822 -0.0603137 0)
(1.00268 -0.059607 0)
(0.997498 -0.0586996 0)
(0.992652 -0.0576211 0)
(0.988126 -0.0563996 0)
(0.983904 -0.0550622 0)
(0.979973 -0.0536344 0)
(0.97632 -0.0521404 0)
(0.972935 -0.0506033 0)
(1.17574 -0.00196767 0)
(1.16487 -0.0148696 0)
(1.14922 -0.024612 0)
(1.13521 -0.0323817 0)
(1.12234 -0.0386347 0)
(1.11035 -0.0437164 0)
(1.09918 -0.0478427 0)
(1.08874 -0.0511587 0)
(1.07898 -0.0537792 0)
(1.06983 -0.055797 0)
(1.06125 -0.0572889 0)
(1.0532 -0.0583194 0)
(1.04563 -0.0589433 0)
(1.03852 -0.059208 0)
(1.03184 -0.0591556 0)
(1.02555 -0.058824 0)
(1.01963 -0.0582482 0)
(1.01408 -0.0574608 0)
(1.00885 -0.0564927 0)
(1.00395 -0.0553729 0)
(0.999354 -0.0541293 0)
(0.995049 -0.0527881 0)
(0.991023 -0.0513743 0)
(0.987266 -0.0499115 0)
(1.19263 0.00313295 0)
(1.18341 -0.00923527 0)
(1.16902 -0.0191943 0)
(1.15546 -0.0274059 0)
(1.14271 -0.0341202 0)
(1.13068 -0.039616 0)
(1.11937 -0.0441125 0)
(1.10873 -0.0477606 0)
(1.09873 -0.0506801 0)
(1.08931 -0.0529678 0)
(1.08044 -0.0547039 0)
(1.07208 -0.0559555 0)
(1.06419 -0.0567801 0)
(1.05675 -0.0572276 0)
(1.04972 -0.0573419 0)
(1.04309 -0.0571629 0)
(1.03683 -0.056727 0)
(1.03091 -0.0560683 0)
(1.02534 -0.0552187 0)
(1.02008 -0.0542083 0)
(1.01512 -0.0530657 0)
(1.17478 0.00543868 9.86492e-21)
(1.14414 -0.0019399 -3.63659e-19)
(1.19061 0.009484 5.48663e-20)
(1.16217 0.00129483 2.70179e-19)
(1.20471 0.0128881 -1.09224e-20)
(1.1783 0.00398123 -1.88051e-19)
(1.19342 0.00695737 1.71808e-19)
)
;

boundaryField
{
    inlet
    {
        type            uniformFixedValue;
        uniformValue    constant (1 0 0);
        value           nonuniform 0();
    }
    outlet
    {
        type            pressureInletOutletVelocity;
        value           nonuniform 0();
    }
    cylinder
    {
        type            fixedValue;
        value           nonuniform 0();
    }
    top
    {
        type            symmetryPlane;
    }
    bottom
    {
        type            symmetryPlane;
    }
    defaultFaces
    {
        type            empty;
    }
    procBoundary10to5
    {
        type            processor;
        value           uniform (0.0632385 0.00437105 1.11378e-20);
    }
    procBoundary10to6
    {
        type            processor;
        value           nonuniform List<vector> 
28
(
(0.164399 0.00636193 -1.35086e-20)
(0.204204 0.00682904 1.24373e-20)
(0.098523 0.0154834 3.4558e-20)
(0.134177 0.0176219 -3.99168e-20)
(0.164399 0.00636193 -1.35086e-20)
(0.229589 0.00573535 -3.42682e-21)
(0.244929 0.00525564 1.13621e-21)
(0.259628 0.004938 -2.20399e-21)
(0.274046 0.0046878 1.2112e-21)
(0.288202 0.00449019 2.57135e-21)
(0.302219 0.0043309 -1.96874e-21)
(0.316189 0.00419653 -1.57229e-21)
(0.330159 0.00407846 1.93464e-21)
(0.344163 0.00397059 -1.60506e-21)
(0.358216 0.00386838 7.15757e-22)
(0.372323 0.00376861 1.90053e-21)
(0.386479 0.00366908 -9.70115e-22)
(0.400673 0.00356839 7.50204e-22)
(0.414887 0.0034658 -1.58973e-21)
(0.4291 0.00336101 -2.94638e-22)
(0.44329 0.0032541 9.82505e-24)
(0.457435 0.00314537 3.03355e-23)
(0.471512 0.00303529 1.92699e-22)
(0.485499 0.00292442 -7.37149e-25)
(0.499375 0.00281338 4.68568e-22)
(0.513122 0.00270279 -3.77451e-22)
(0.526723 0.00259326 -2.49409e-22)
(0.540165 0.00248538 1.94488e-22)
)
;
    }
    procBoundary10to9
    {
        type            processor;
        value           nonuniform List<vector> 
29
(
(0.0632385 -0.00437105 6.24241e-21)
(0.066831 -0.0130824 -1.03358e-20)
(0.0739992 -0.0217017 1.32306e-19)
(0.0847101 -0.0301662 -7.58128e-21)
(0.0989137 -0.0384104 -3.43723e-19)
(0.116543 -0.0463655 3.28013e-19)
(0.137515 -0.0539584 2.74537e-20)
(0.161728 -0.0611108 -4.42125e-19)
(0.248157 -0.0771731 4.19842e-19)
(0.248157 -0.0771731 4.19842e-19)
(0.284651 -0.0831827 4.4607e-20)
(0.32425 -0.0881572 1.44011e-20)
(0.366654 -0.0919863 3.19439e-19)
(0.411532 -0.0945644 -3.99536e-19)
(0.458526 -0.0957924 2.17683e-19)
(0.507248 -0.0955821 -6.02021e-19)
(0.659315 -0.0911856 -3.52959e-20)
(0.659315 -0.0911856 -3.52959e-20)
(0.71347 -0.0856458 3.57743e-19)
(0.767122 -0.0785247 -2.02324e-19)
(0.819772 -0.0699245 6.1213e-20)
(0.96601 -0.0516118 2.77457e-19)
(0.96601 -0.0516118 2.77457e-19)
(1.01458 -0.0374525 8.3932e-19)
(1.12225 -0.00733371 -3.32939e-19)
(1.12225 -0.00733371 -3.32939e-19)
(1.19876 0.013434 2.08357e-19)
(1.21135 0.0178097 5.8439e-20)
(1.22276 0.0215908 -8.78662e-20)
)
;
    }
    procBoundary10to11
    {
        type            processor;
        value           nonuniform List<vector> 
25
(
(0.553436 -0.00237974 3.85417e-22)
(0.556328 -0.00711667 2.74417e-21)
(0.562076 -0.0117862 -2.66558e-21)
(0.570604 -0.0163448 -2.0748e-21)
(0.581802 -0.0207507 2.65965e-22)
(0.595527 -0.024965 3.08887e-21)
(0.611605 -0.0289518 -3.78737e-21)
(0.629837 -0.0326794 4.77171e-21)
(0.650001 -0.0361204 8.70836e-21)
(0.671856 -0.0392521 2.61202e-21)
(0.695149 -0.042057 -4.78416e-21)
(0.719619 -0.0445228 -5.5157e-21)
(0.745001 -0.0466425 -4.57978e-21)
(0.745001 -0.0466425 -4.57978e-21)
(0.774952 -0.0465384 6.38265e-21)
(0.800336 -0.0479465 -8.68642e-21)
(0.825879 -0.0490343 1.10056e-20)
(0.851359 -0.049813 -6.99399e-21)
(0.87657 -0.0503087 1.08603e-21)
(0.901325 -0.050553 1.6081e-20)
(0.925456 -0.050484 1.45867e-20)
(0.943091 -0.0500152 0)
(0.95624 -0.0495728 0)
(0.969808 -0.0490448 0)
(0.983769 -0.0484221 0)
)
;
    }
    procBoundary10to14
    {
        type            processor;
        value           nonuniform List<vector> 
29
(
(1.01045 -0.051818 0)
(1.00606 -0.0504908 0)
(1.00195 -0.0491085 0)
(1.20793 0.00761427 0)
(1.20762 0.01031 3.07046e-19)
(1.20004 -0.00400549 0)
(1.18716 -0.013918 0)
(1.1744 -0.0223793 0)
(1.16208 -0.0294562 0)
(1.15024 -0.0353219 0)
(1.13897 -0.0401694 0)
(1.12828 -0.0441428 0)
(1.11815 -0.0473611 0)
(1.10856 -0.0499221 0)
(1.09948 -0.0519077 0)
(1.09088 -0.0533872 0)
(1.08273 -0.05442 0)
(1.07501 -0.055058 0)
(1.06769 -0.0553469 0)
(1.06075 -0.0553283 0)
(1.05417 -0.0550401 0)
(1.04794 -0.0545175 0)
(1.04203 -0.0537937 0)
(1.03643 -0.0528996 0)
(1.01045 -0.051818 0)
(1.03114 -0.0518648 0)
(1.2175 0.0161899 -4.39859e-20)
(1.2175 0.0161899 -4.39859e-20)
(1.20762 0.01031 3.07046e-19)
)
;
    }
}


// ************************************************************************* //
