/*--------------------------------*- C++ -*----------------------------------*\
  =========                 |
  \\      /  F ield         | OpenFOAM: The Open Source CFD Toolbox
   \\    /   O peration     | Website:  https://openfoam.org
    \\  /    A nd           | Version:  7
     \\/     M anipulation  |
\*---------------------------------------------------------------------------*/
FoamFile
{
    version     2.0;
    format      ascii;
    class       volScalarField;
    location    "15";
    object      p;
}
// * * * * * * * * * * * * * * * * * * * * * * * * * * * * * * * * * * * * * //

dimensions      [0 2 -2 0 0 0 0];

internalField   nonuniform List<scalar> 
6050
(
-0.32611
-0.3276
-0.329028
-0.330406
-0.331738
-0.333012
-0.334192
-0.335193
-0.335888
-0.336124
-0.33555
-0.334034
-0.330951
-0.326279
-0.327765
-0.329191
-0.330571
-0.331911
-0.333202
-0.334413
-0.335464
-0.336215
-0.336566
-0.336023
-0.334705
-0.331342
-0.326596
-0.32807
-0.329489
-0.330867
-0.332215
-0.333528
-0.334783
-0.335913
-0.336733
-0.33731
-0.336723
-0.335909
-0.33188
-0.327024
-0.328473
-0.32987
-0.331232
-0.332576
-0.333897
-0.335181
-0.336396
-0.337214
-0.338171
-0.337234
-0.337399
-0.332229
-0.327514
-0.328917
-0.33027
-0.331593
-0.332905
-0.334204
-0.33547
-0.336773
-0.337423
-0.338985
-0.33718
-0.338649
-0.332428
-0.329342
-0.330622
-0.331874
-0.333119
-0.334357
-0.335532
-0.336939
-0.337269
-0.339206
-0.336972
-0.338898
-0.332223
-0.329688
-0.330866
-0.332014
-0.333156
-0.334293
-0.335347
-0.336713
-0.336721
-0.338904
-0.336011
-0.338214
-0.331366
-0.329909
-0.330955
-0.331969
-0.332972
-0.333967
-0.334837
-0.336104
-0.335725
-0.337874
-0.334485
-0.336253
-0.329625
-0.329965
-0.330854
-0.331708
-0.332542
-0.333352
-0.333988
-0.335014
-0.334305
-0.335862
-0.33236
-0.332798
-0.326467
-0.329834
-0.330543
-0.331213
-0.331841
-0.33241
-0.332758
-0.33333
-0.332344
-0.332742
-0.329283
-0.327832
-0.321371
-0.329502
-0.330008
-0.330463
-0.330831
-0.331081
-0.331023
-0.330941
-0.329536
-0.328506
-0.324822
-0.321429
-0.314268
-0.329234
-0.329424
-0.329442
-0.32926
-0.328606
-0.327704
-0.325572
-0.323148
-0.318806
-0.313764
-0.305636
-0.328195
-0.328034
-0.327575
-0.326791
-0.325334
-0.32346
-0.320326
-0.31667
-0.311417
-0.305188
-0.296267
-0.326846
-0.326202
-0.325106
-0.32351
-0.321088
-0.318115
-0.313896
-0.309208
-0.30307
-0.296145
-0.286878
-0.325117
-0.323818
-0.321908
-0.319308
-0.31584
-0.311733
-0.306537
-0.301039
-0.294241
-0.287037
-0.277513
-0.320778
-0.317892
-0.314184
-0.309679
-0.304525
-0.298569
-0.292465
-0.285267
-0.278092
-0.268574
-0.317018
-0.313052
-0.308242
-0.30279
-0.296762
-0.290275
-0.283701
-0.276344
-0.269382
-0.25995
-0.307467
-0.301656
-0.295397
-0.288699
-0.28185
-0.274882
-0.267537
-0.260743
-0.251577
-0.301281
-0.294616
-0.287702
-0.280525
-0.27341
-0.266123
-0.258857
-0.2519
-0.243249
-0.287287
-0.27986
-0.272351
-0.265021
-0.257536
-0.250311
-0.242803
-0.23481
-0.279795
-0.271975
-0.26423
-0.256729
-0.249165
-0.241917
-0.234076
-0.226294
-0.2641
-0.25618
-0.248561
-0.240969
-0.23364
-0.225957
-0.218536
-0.256258
-0.248209
-0.240513
-0.232912
-0.225639
-0.218122
-0.211041
-0.240308
-0.232565
-0.225008
-0.217812
-0.210491
-0.203845
-0.224701
-0.217209
-0.210134
-0.203065
-0.196728
-0.209492
-0.202555
-0.195716
-0.189686
-0.195028
-0.18843
-0.182658
-0.18115
-0.17562
-0.18115
-0.17562
-0.195028
-0.18843
-0.182658
-0.209492
-0.202555
-0.195716
-0.189686
-0.224701
-0.217209
-0.210134
-0.203065
-0.196727
-0.240308
-0.232565
-0.225008
-0.217812
-0.210491
-0.203845
-0.256258
-0.248209
-0.240513
-0.232912
-0.225639
-0.218122
-0.211041
-0.264101
-0.25618
-0.248561
-0.240969
-0.23364
-0.225957
-0.218536
-0.279795
-0.271975
-0.26423
-0.256729
-0.249164
-0.241917
-0.234075
-0.226294
-0.287287
-0.279861
-0.272351
-0.265021
-0.257536
-0.250311
-0.242803
-0.23481
-0.301281
-0.294616
-0.287702
-0.280525
-0.273409
-0.266123
-0.258857
-0.2519
-0.243248
-0.307468
-0.301656
-0.295397
-0.288699
-0.28185
-0.274882
-0.267536
-0.260742
-0.251577
-0.317018
-0.313052
-0.308242
-0.30279
-0.296762
-0.290275
-0.283701
-0.276344
-0.269381
-0.25995
-0.320778
-0.317892
-0.314184
-0.309679
-0.304525
-0.298569
-0.292465
-0.285266
-0.278091
-0.268573
-0.325117
-0.323818
-0.321908
-0.319308
-0.31584
-0.311733
-0.306537
-0.301039
-0.29424
-0.287037
-0.277512
-0.326847
-0.326203
-0.325107
-0.32351
-0.321088
-0.318114
-0.313896
-0.309207
-0.30307
-0.296145
-0.286877
-0.328196
-0.328034
-0.327575
-0.326792
-0.325334
-0.323459
-0.320326
-0.31667
-0.311417
-0.305187
-0.296266
-0.329235
-0.329424
-0.329442
-0.32926
-0.328606
-0.327704
-0.325571
-0.323147
-0.318805
-0.313763
-0.305635
-0.329502
-0.330009
-0.330463
-0.330831
-0.331081
-0.331023
-0.33094
-0.329536
-0.328505
-0.324821
-0.321428
-0.314267
-0.329835
-0.330543
-0.331214
-0.331841
-0.33241
-0.332758
-0.33333
-0.332344
-0.332741
-0.329282
-0.327831
-0.32137
-0.329966
-0.330854
-0.331709
-0.332542
-0.333352
-0.333988
-0.335014
-0.334305
-0.335861
-0.332359
-0.332797
-0.326466
-0.329909
-0.330955
-0.331969
-0.332972
-0.333967
-0.334837
-0.336104
-0.335724
-0.337874
-0.334484
-0.336252
-0.329624
-0.329689
-0.330866
-0.332015
-0.333156
-0.334293
-0.335347
-0.336713
-0.336721
-0.338903
-0.33601
-0.338213
-0.331365
-0.329342
-0.330622
-0.331874
-0.33312
-0.334357
-0.335532
-0.336938
-0.337269
-0.339205
-0.336971
-0.338897
-0.332222
-0.327514
-0.328917
-0.33027
-0.331593
-0.332905
-0.334204
-0.33547
-0.336773
-0.337423
-0.338985
-0.337179
-0.338649
-0.332427
-0.327024
-0.328473
-0.32987
-0.331232
-0.332576
-0.333897
-0.335181
-0.336396
-0.337214
-0.33817
-0.337234
-0.337398
-0.332228
-0.326596
-0.32807
-0.329489
-0.330867
-0.332215
-0.333528
-0.334783
-0.335913
-0.336733
-0.337309
-0.336723
-0.335908
-0.33188
-0.326279
-0.327765
-0.329191
-0.330571
-0.331911
-0.333202
-0.334413
-0.335464
-0.336215
-0.336565
-0.336023
-0.334704
-0.331341
-0.32611
-0.3276
-0.329028
-0.330406
-0.331738
-0.333012
-0.334192
-0.335193
-0.335888
-0.336124
-0.33555
-0.334034
-0.330951
-0.328256
-0.325302
-0.321446
-0.316506
-0.310301
-0.302656
-0.293417
-0.282467
-0.269718
-0.25514
-0.238768
-0.220719
-0.2012
-0.1805
-0.158999
-0.137153
-0.11545
-0.094373
-0.0744067
-0.055986
-0.0394255
-0.0249704
-0.0127453
-0.00275929
0.00507867
0.0109395
0.0150498
0.0176668
0.019056
0.0194732
0.0191537
0.0183045
0.0170986
0.0156778
0.0141506
0.0126033
0.0110917
0.00966773
0.00834172
0.00715502
0.00606517
0.00514009
0.00426184
0.00357847
0.00285864
0.00238351
0.00176756
0.00144663
0.000840499
0.000564127
-0.329231
-0.326408
-0.322712
-0.31789
-0.311801
-0.304267
-0.295128
-0.284271
-0.271601
-0.257084
-0.240751
-0.222716
-0.203189
-0.182468
-0.160907
-0.138984
-0.117174
-0.0959598
-0.0758993
-0.0573571
-0.040679
-0.0261095
-0.0137741
-0.00368354
0.00425227
0.010204
0.0143985
0.0170933
0.0185543
0.0190377
0.0187773
0.0179806
0.0168214
0.0154414
0.0139499
0.0124332
0.0109482
0.00954638
0.00824003
0.00706946
0.00599421
0.00508052
0.00421281
0.00353688
0.00282454
0.00235363
0.0017445
0.00142473
0.000827667
0.000548391
-0.330757
-0.328097
-0.324665
-0.32009
-0.314226
-0.306914
-0.297979
-0.287311
-0.274804
-0.260422
-0.244191
-0.226218
-0.206716
-0.185943
-0.164268
-0.14225
-0.120317
-0.0989722
-0.0787195
-0.0599862
-0.0431142
-0.0283491
-0.0158197
-0.00553988
0.0025788
0.00870555
0.0130659
0.0159167
0.0175235
0.0181421
0.0180045
0.0173168
0.0162543
0.014959
0.0135414
0.012088
0.0106577
0.00930167
0.0080355
0.0068979
0.00585229
0.00496172
0.00411539
0.00345449
0.00275754
0.00229499
0.0016997
0.00138227
0.000803005
0.000518467
-0.332708
-0.33006
-0.326734
-0.32242
-0.316834
-0.309826
-0.301052
-0.290672
-0.278411
-0.264246
-0.248197
-0.230365
-0.210945
-0.190235
-0.168608
-0.146534
-0.124501
-0.103028
-0.082612
-0.0636894
-0.0466085
-0.0316181
-0.0188513
-0.00832632
4.08929e-05
0.00641522
0.011018
0.0141021
0.0159303
0.0167558
0.0168094
0.0162926
0.0153813
0.0142184
0.0129163
0.0115616
0.0102162
0.00893143
0.00772699
0.00664022
0.00563976
0.00478456
0.00397091
0.00333276
0.00265972
0.00220965
0.00163549
0.00132165
0.000768259
0.000477172
-0.333535
-0.331405
-0.328148
-0.324042
-0.318755
-0.312026
-0.303676
-0.293594
-0.281651
-0.267793
-0.252033
-0.234465
-0.215272
-0.194738
-0.17325
-0.151264
-0.129267
-0.107778
-0.087291
-0.0682474
-0.0510013
-0.0358051
-0.0227965
-0.0120004
-0.00334054
0.00333933
0.00825194
0.0116417
0.0137646
0.0148687
0.0151815
0.0148993
0.0141957
0.013215
0.0120713
0.0108524
0.00962323
0.00843604
0.00731538
0.00629782
0.00535816
0.00455081
0.00378133
0.00317381
0.00253364
0.00210023
0.00155461
0.00124591
0.000725502
0.000428092
-0.333218
-0.331654
-0.328568
-0.32461
-0.319574
-0.313144
-0.305125
-0.295398
-0.283842
-0.270384
-0.255028
-0.237862
-0.21906
-0.198893
-0.177732
-0.156019
-0.134236
-0.112891
-0.0924747
-0.0734255
-0.0560999
-0.040753
-0.0275284
-0.0164601
-0.00748385
-0.00045682
0.0048198
0.0085773
0.0110597
0.0125071
0.0131404
0.0131527
0.0127107
0.0119592
0.011015
0.00996754
0.00888477
0.00782092
0.00680527
0.00587476
0.00501086
0.0042635
0.00354937
0.00298029
0.00238198
0.0019696
0.0014597
0.00115827
0.000676733
0.000374987
-0.331487
-0.330223
-0.327505
-0.323775
-0.318939
-0.312758
-0.305063
-0.295721
-0.284597
-0.271608
-0.256759
-0.240137
-0.221902
-0.2023
-0.181677
-0.160451
-0.139089
-0.118079
-0.0979002
-0.0789846
-0.0616876
-0.0462666
-0.0328717
-0.0215489
-0.0122502
-0.00485145
0.000827088
0.00499893
0.00789209
0.00973418
0.0107386
0.0110937
0.0109597
0.0104784
0.0097691
0.0089243
0.00801463
0.00709713
0.00620553
0.00537819
0.00460346
0.00392721
0.0032786
0.00275542
0.00220739
0.00182064
0.001353
0.0010617
0.000623604
0.000321236
-0.328263
-0.326866
-0.32462
-0.32126
-0.316621
-0.310631
-0.303239
-0.294313
-0.28368
-0.271241
-0.257
-0.241041
-0.223519
-0.204674
-0.184812
-0.164306
-0.143583
-0.123106
-0.103336
-0.0846968
-0.0675427
-0.0521323
-0.0386237
-0.0270772
-0.0174655
-0.00968739
-0.00358681
0.00102802
0.00436584
0.00663857
0.00804939
0.00878086
0.00898999
0.00881124
0.00836483
0.00774742
0.00703239
0.00628016
0.00552843
0.00481776
0.00414348
0.00354781
0.00297339
0.00250287
0.00201242
0.00165603
0.00123625
0.000958677
0.000567325
0.000269446
-0.323411
-0.321444
-0.319679
-0.316838
-0.312438
-0.306621
-0.299542
-0.291079
-0.281005
-0.2692
-0.255677
-0.240519
-0.22386
-0.205916
-0.186986
-0.167411
-0.147544
-0.127792
-0.108592
-0.0903631
-0.0734591
-0.0581426
-0.0445806
-0.0328502
-0.0229477
-0.0147985
-0.00827335
-0.00320518
0.000593178
0.00331599
0.00515325
0.00628117
0.00685326
0.00700006
0.00683693
0.0064647
0.00596016
0.00538744
0.00478783
0.00420442
0.00363946
0.00313199
0.00263865
0.00222662
0.00179964
0.00147825
0.00111081
0.000851106
0.000508691
0.000221271
-0.316561
-0.31389
-0.312688
-0.310478
-0.306364
-0.300752
-0.294042
-0.286116
-0.276678
-0.265598
-0.252903
-0.238669
-0.223008
-0.206107
-0.188234
-0.169719
-0.150877
-0.13202
-0.113533
-0.0958274
-0.0792653
-0.0641175
-0.0505614
-0.0386921
-0.0285313
-0.0200329
-0.0130963
-0.00758074
-0.0033223
-0.000145275
0.00212544
0.00365765
0.00460015
0.00508392
0.00521778
0.0051028
0.00481936
0.00443596
0.00399733
0.00354895
0.00309999
0.00268654
0.00227942
0.00193069
0.00157157
0.00128958
0.000977753
0.000740342
0.000448196
0.000177454
-0.307633
-0.30439
-0.303921
-0.302412
-0.29863
-0.293307
-0.287066
-0.279758
-0.271028
-0.260754
-0.248979
-0.235765
-0.221199
-0.205437
-0.188714
-0.171328
-0.153587
-0.135736
-0.118073
-0.100983
-0.0848366
-0.0699201
-0.0564247
-0.0444636
-0.0340836
-0.025268
-0.0179451
-0.0120012
-0.00729594
-0.00367292
-0.000972463
0.000962848
0.00227631
0.00309701
0.00353388
0.00368393
0.00362852
0.00344063
0.00316892
0.00286098
0.00253284
0.00221771
0.0019005
0.00161892
0.00133066
0.00109202
0.000838042
0.000627305
0.000386142
0.000138004
-0.29728
-0.293666
-0.294004
-0.293187
-0.289776
-0.284846
-0.279169
-0.272534
-0.264555
-0.255137
-0.244334
-0.232187
-0.218756
-0.204171
-0.188634
-0.172403
-0.155764
-0.138955
-0.122181
-0.10577
-0.0900955
-0.0754609
-0.0620744
-0.0500675
-0.0395112
-0.0304166
-0.0227404
-0.0163956
-0.0112655
-0.00721322
-0.00409473
-0.00176386
-8.4437e-05
0.00106991
0.00180689
0.00222469
0.0024018
0.00241339
0.00231241
0.00214848
0.00194449
0.00173085
0.00150606
0.00129469
0.00107917
0.000887364
0.00069257
0.000512595
0.000322738
0.000102443
-0.286364
-0.282521
-0.283589
-0.283398
-0.280412
-0.275984
-0.270942
-0.265
-0.25778
-0.249229
-0.2394
-0.228311
-0.216
-0.202574
-0.188202
-0.173103
-0.157534
-0.141736
-0.125863
-0.110169
-0.0950053
-0.0806921
-0.067456
-0.0554465
-0.0447567
-0.0354236
-0.027431
-0.0207174
-0.0151894
-0.0107296
-0.00720971
-0.00449532
-0.00245833
-0.000976278
5.65394e-05
0.000738387
0.0011491
0.0013627
0.00143511
0.00141758
0.00134005
0.00123022
0.00109956
0.000960835
0.000819142
0.000677115
0.00054218
0.000396599
0.000258149
7.00327e-05
-0.276518
-0.272037
-0.273474
-0.273735
-0.271152
-0.267275
-0.262877
-0.2576
-0.251111
-0.243399
-0.234504
-0.224421
-0.213174
-0.200847
-0.187581
-0.173559
-0.159007
-0.144156
-0.129156
-0.114186
-0.0995584
-0.0855972
-0.0725463
-0.0605729
-0.0497903
-0.0402589
-0.0319873
-0.0249387
-0.0190419
-0.0141988
-0.0102968
-0.00721369
-0.00482982
-0.00302783
-0.00170445
-0.000762348
-0.00012122
0.000294338
0.00054183
0.000672545
0.000723216
0.000719014
0.00068367
0.000619596
0.000552246
0.000462503
0.000387648
0.000279562
0.000192525
3.99518e-05
-0.266605
-0.262371
-0.264171
-0.264569
-0.262315
-0.259014
-0.255237
-0.250576
-0.244777
-0.237859
-0.229837
-0.220687
-0.210425
-0.199119
-0.18688
-0.173862
-0.160259
-0.146286
-0.132107
-0.117846
-0.103765
-0.0901786
-0.0773421
-0.0654391
-0.0546011
-0.0449094
-0.0363954
-0.0290452
-0.022809
-0.0176074
-0.0133438
-0.00990791
-0.00718922
-0.00507618
-0.00346849
-0.00227039
-0.00140129
-0.000785966
-0.000363772
-8.37988e-05
9.64309e-05
0.00019946
0.000260326
0.000272624
0.000279827
0.000244484
0.000229652
0.000161631
0.000126018
1.14063e-05
-0.25818
-0.254411
-0.255756
-0.256045
-0.254119
-0.25137
-0.248144
-0.244032
-0.23887
-0.232685
-0.225463
-0.21717
-0.207814
-0.197447
-0.186154
-0.174065
-0.161342
-0.148184
-0.134763
-0.121182
-0.107647
-0.0944516
-0.0818537
-0.0700508
-0.0591911
-0.049374
-0.0406517
-0.0330316
-0.0264844
-0.0209489
-0.0163438
-0.0125715
-0.00953046
-0.00711578
-0.00523055
-0.00378129
-0.00268718
-0.00187368
-0.00127752
-0.000848464
-0.000538168
-0.000326692
-0.000168949
-7.87798e-05
2.99219e-06
2.38291e-05
6.87977e-05
4.29034e-05
5.87698e-05
-1.63104e-05
-0.250034
-0.246689
-0.24818
-0.248274
-0.246576
-0.244342
-0.241612
-0.238004
-0.233438
-0.227927
-0.221434
-0.213921
-0.205391
-0.19588
-0.185452
-0.174215
-0.162306
-0.149901
-0.137173
-0.124229
-0.111228
-0.0984313
-0.0860904
-0.0744128
-0.0635606
-0.0536498
-0.0447511
-0.0368915
-0.0300608
-0.0242156
-0.0192895
-0.0151975
-0.0118474
-0.00914128
-0.00698599
-0.00529106
-0.00397561
-0.00296628
-0.00219721
-0.0016192
-0.00117857
-0.000857829
-0.000602826
-0.000433505
-0.000277295
-0.000198777
-9.43727e-05
-7.65138e-05
-9.11632e-06
-4.38094e-05
-0.242867
-0.240234
-0.241433
-0.241058
-0.239563
-0.237785
-0.235467
-0.232319
-0.228309
-0.223421
-0.217603
-0.210817
-0.203055
-0.194338
-0.184716
-0.174272
-0.163125
-0.151425
-0.139342
-0.126995
-0.114512
-0.102119
-0.0900518
-0.0785236
-0.0677081
-0.0577353
-0.0486923
-0.0406242
-0.0335384
-0.0274084
-0.0221823
-0.0177879
-0.0141421
-0.0111547
-0.00873668
-0.00680126
-0.00526782
-0.00406471
-0.00312363
-0.00239677
-0.00182548
-0.00139445
-0.00104163
-0.000791703
-0.00056101
-0.000423214
-0.000259714
-0.000196546
-7.76553e-05
-7.16655e-05
-0.236411
-0.234572
-0.235299
-0.23477
-0.233506
-0.232063
-0.230093
-0.227378
-0.223871
-0.219533
-0.214314
-0.208174
-0.2011
-0.193097
-0.184202
-0.17448
-0.16403
-0.152978
-0.141479
-0.129678
-0.117689
-0.105695
-0.0939091
-0.0825421
-0.0717774
-0.061758
-0.052586
-0.0443237
-0.0369956
-0.0305914
-0.0250738
-0.0203832
-0.0164461
-0.0131802
-0.010501
-0.00832557
-0.00657385
-0.00517607
-0.0040617
-0.0031844
-0.00248105
-0.00193812
-0.00148662
-0.00115436
-0.000848803
-0.00064979
-0.000427282
-0.000317112
-0.000146693
-0.000100484
-0.230959
-0.229715
-0.229326
-0.228275
-0.22707
-0.225877
-0.224261
-0.221995
-0.219005
-0.215234
-0.210628
-0.205145
-0.19876
-0.191471
-0.183298
-0.174292
-0.164532
-0.154123
-0.143196
-0.131894
-0.120359
-0.108761
-0.0972782
-0.0861096
-0.0754398
-0.0654207
-0.0561674
-0.0477574
-0.0402304
-0.033592
-0.0278182
-0.022862
-0.0186594
-0.0151365
-0.0122133
-0.00981187
-0.00785251
-0.00626828
-0.00498629
-0.00396263
-0.00312976
-0.00247682
-0.00192799
-0.00151449
-0.00113506
-0.000875333
-0.000594268
-0.000437499
-0.000214656
-0.000130834
-0.227178
-0.227404
-0.226059
-0.225183
-0.224167
-0.222792
-0.221163
-0.218991
-0.216146
-0.212558
-0.20817
-0.202934
-0.196824
-0.189833
-0.181979
-0.173305
-0.163885
-0.153815
-0.14322
-0.132238
-0.121004
-0.109677
-0.0984328
-0.0874622
-0.0769429
-0.0670248
-0.0578243
-0.0494229
-0.0418656
-0.035165
-0.0293037
-0.0242426
-0.0199231
-0.0162783
-0.0132315
-0.0107107
-0.0086371
-0.00694886
-0.00557036
-0.00446162
-0.00354926
-0.00282769
-0.00221513
-0.00174984
-0.00132219
-0.00102531
-0.000705495
-0.000520534
-0.000259558
-0.00015318
-0.224013
-0.22473
-0.223256
-0.222361
-0.221458
-0.220226
-0.218644
-0.216524
-0.213746
-0.210245
-0.205961
-0.200852
-0.19489
-0.188068
-0.180404
-0.171937
-0.162737
-0.152897
-0.142535
-0.131784
-0.120776
-0.109664
-0.0986211
-0.0878286
-0.0774587
-0.0676586
-0.0585438
-0.0501969
-0.0426652
-0.0359654
-0.0300841
-0.0249867
-0.0206188
-0.0169181
-0.0138107
-0.0112282
-0.0090933
-0.00734701
-0.00591354
-0.00475509
-0.00379666
-0.0030349
-0.00238552
-0.00188933
-0.0014332
-0.00111307
-0.00077057
-0.000567548
-0.000285798
-0.000164996
-0.220419
-0.221601
-0.220193
-0.219341
-0.218554
-0.217395
-0.215829
-0.213737
-0.211011
-0.207583
-0.203397
-0.198409
-0.192594
-0.185944
-0.178474
-0.170224
-0.161258
-0.151664
-0.141553
-0.131052
-0.120292
-0.109421
-0.0986035
-0.0880147
-0.0778202
-0.0681634
-0.0591582
-0.0508879
-0.0434021
-0.0367206
-0.0308342
-0.0257128
-0.0213065
-0.0175572
-0.0143946
-0.011754
-0.00955992
-0.00775613
-0.00626759
-0.0050585
-0.00405335
-0.00325033
-0.00256348
-0.00203501
-0.00154952
-0.00120439
-0.00083859
-0.000615797
-0.000313513
-0.000176415
-0.216829
-0.218398
-0.217124
-0.216298
-0.215603
-0.214507
-0.212963
-0.210905
-0.208236
-0.204887
-0.200803
-0.195942
-0.190279
-0.183805
-0.176535
-0.168505
-0.159775
-0.15043
-0.140573
-0.130326
-0.119816
-0.109187
-0.0985973
-0.0882137
-0.0781959
-0.0686837
-0.0597897
-0.0515974
-0.0441585
-0.0374961
-0.0316049
-0.0264596
-0.0220144
-0.0182158
-0.014997
-0.0122969
-0.0100422
-0.00817942
-0.00663424
-0.00537297
-0.00431963
-0.0034739
-0.00274832
-0.00218629
-0.00167042
-0.00129925
-0.000909344
-0.000665862
-0.000342484
-0.00018781
-0.213162
-0.215115
-0.214018
-0.213201
-0.212576
-0.211556
-0.210055
-0.208041
-0.205437
-0.202173
-0.198197
-0.193466
-0.187958
-0.181663
-0.174595
-0.166786
-0.158294
-0.149198
-0.139596
-0.129604
-0.119346
-0.108961
-0.0985995
-0.0884222
-0.0785825
-0.0692167
-0.0604354
-0.0523228
-0.0449321
-0.0382898
-0.0323946
-0.0272255
-0.0227413
-0.0188928
-0.015617
-0.0128562
-0.0105397
-0.00861645
-0.00701322
-0.00569832
-0.00459538
-0.00370555
-0.00293996
-0.0023432
-0.00179592
-0.00139774
-0.000982892
-0.000717847
-0.000372707
-0.000199229
-0.209421
-0.211738
-0.210842
-0.210034
-0.209465
-0.208531
-0.207086
-0.205125
-0.202591
-0.199418
-0.195552
-0.190955
-0.185604
-0.17949
-0.172625
-0.165039
-0.156787
-0.147941
-0.138597
-0.128863
-0.11886
-0.10872
-0.09859
-0.0886218
-0.0789635
-0.0697474
-0.0610824
-0.0530527
-0.0457135
-0.039094
-0.0331968
-0.0280055
-0.0234832
-0.0195853
-0.0162524
-0.0134305
-0.0110513
-0.00906661
-0.00740415
-0.00603432
-0.0048805
-0.00394527
-0.0031385
-0.00250582
-0.00192614
-0.0014999
-0.00105929
-0.000771709
-0.000404223
-0.000210628
-0.205667
-0.208273
-0.20759
-0.206803
-0.206281
-0.205434
-0.204058
-0.202157
-0.199698
-0.196618
-0.192867
-0.188407
-0.183216
-0.177285
-0.170624
-0.163264
-0.155252
-0.146659
-0.137574
-0.1281
-0.118354
-0.108462
-0.0985656
-0.0888093
-0.0793356
-0.0702726
-0.0617275
-0.0537844
-0.0464998
-0.039906
-0.0340094
-0.0287978
-0.0242387
-0.0202921
-0.0169022
-0.0140191
-0.0115766
-0.00952952
-0.00780678
-0.00638082
-0.00517492
-0.00419302
-0.00334393
-0.00267415
-0.0020611
-0.00160573
-0.00113857
-0.000827417
-0.000437056
-0.000221981
-0.201907
-0.204731
-0.204268
-0.203519
-0.203035
-0.202272
-0.200975
-0.199143
-0.196762
-0.193781
-0.190148
-0.185828
-0.180798
-0.175052
-0.168598
-0.161463
-0.153693
-0.145354
-0.136529
-0.127317
-0.11783
-0.108188
-0.098527
-0.088985
-0.0796984
-0.0707916
-0.0623697
-0.0545164
-0.0472897
-0.0407246
-0.034831
-0.0296011
-0.0250066
-0.0210122
-0.0175657
-0.0146211
-0.0121149
-0.0100047
-0.00822078
-0.00673755
-0.00547844
-0.00444865
-0.00355615
-0.00284811
-0.00220075
-0.00171518
-0.0012207
-0.000884945
-0.000471211
-0.000233276
-0.198128
-0.201122
-0.200883
-0.200187
-0.199735
-0.199053
-0.197843
-0.196087
-0.193791
-0.190911
-0.1874
-0.183222
-0.178357
-0.172797
-0.16655
-0.159642
-0.152114
-0.144029
-0.135465
-0.126517
-0.117288
-0.107899
-0.098474
-0.0891479
-0.0800508
-0.071303
-0.0630073
-0.055247
-0.0480814
-0.0415479
-0.0356598
-0.0304137
-0.0257855
-0.0217442
-0.0182418
-0.0152359
-0.0126656
-0.0104917
-0.00864567
-0.00710415
-0.00579078
-0.00471195
-0.00377502
-0.00302759
-0.00234501
-0.00182819
-0.00130567
-0.000944252
-0.000506684
-0.000244506
-0.194335
-0.19746
-0.197439
-0.196813
-0.196392
-0.195786
-0.194667
-0.192996
-0.190789
-0.188014
-0.184628
-0.180595
-0.175896
-0.170523
-0.164484
-0.157802
-0.150517
-0.142687
-0.134384
-0.125698
-0.116731
-0.107593
-0.0984058
-0.0892971
-0.0803914
-0.0718049
-0.0636383
-0.0559742
-0.0488727
-0.0423737
-0.0364939
-0.0312338
-0.0265736
-0.0224868
-0.0189291
-0.0158621
-0.0132277
-0.0109896
-0.00908083
-0.00748013
-0.00611157
-0.00498261
-0.00400029
-0.0032124
-0.00249375
-0.00194466
-0.0013934
-0.00100528
-0.000543454
-0.000255668
-0.190541
-0.193759
-0.193945
-0.193403
-0.193014
-0.192478
-0.191455
-0.189876
-0.187762
-0.185096
-0.181838
-0.177952
-0.17342
-0.168235
-0.162405
-0.155949
-0.148906
-0.141329
-0.133287
-0.124864
-0.116157
-0.107271
-0.0983222
-0.0894316
-0.0807187
-0.0722957
-0.0642607
-0.0566955
-0.0496612
-0.0431998
-0.037331
-0.0320593
-0.027369
-0.0232381
-0.0196261
-0.0164984
-0.0138001
-0.0114974
-0.0095255
-0.00786485
-0.0064403
-0.00526024
-0.00423167
-0.00340229
-0.0026468
-0.00206443
-0.00148382
-0.00106794
-0.000581482
-0.000266763
-0.186753
-0.190027
-0.190409
-0.189964
-0.189612
-0.189142
-0.188214
-0.186734
-0.184719
-0.182164
-0.179035
-0.175298
-0.170935
-0.165939
-0.160316
-0.154086
-0.147284
-0.139959
-0.132177
-0.124016
-0.115568
-0.106933
-0.0982226
-0.0895506
-0.0810315
-0.0727736
-0.0648724
-0.0574089
-0.0504446
-0.0440237
-0.0381686
-0.0328878
-0.0281696
-0.0239961
-0.020331
-0.0171434
-0.0143814
-0.0120142
-0.00997873
-0.00825754
-0.00677635
-0.00554433
-0.00446874
-0.00359693
-0.0028039
-0.0021873
-0.00157678
-0.00113212
-0.000620711
-0.000277797
-0.182975
-0.186277
-0.186843
-0.186504
-0.186196
-0.185789
-0.184955
-0.183577
-0.181666
-0.179225
-0.176228
-0.172641
-0.168447
-0.163639
-0.158224
-0.152218
-0.145655
-0.138581
-0.131056
-0.123156
-0.114965
-0.106581
-0.0981072
-0.0896534
-0.0813286
-0.0732369
-0.0654714
-0.0581119
-0.0512203
-0.0448426
-0.0390041
-0.0337168
-0.0289729
-0.0247587
-0.0210419
-0.0177953
-0.0149701
-0.0125385
-0.0104394
-0.00865726
-0.00711893
-0.00583422
-0.00471099
-0.0037959
-0.00296474
-0.00231302
-0.00167211
-0.00119771
-0.000661059
-0.00028878
-0.179218
-0.182522
-0.183258
-0.183035
-0.182777
-0.18243
-0.181689
-0.180417
-0.178613
-0.176289
-0.173424
-0.169988
-0.165964
-0.161344
-0.156134
-0.150351
-0.144024
-0.137198
-0.129928
-0.122285
-0.11435
-0.106214
-0.097976
-0.0897394
-0.0816087
-0.0736839
-0.0660554
-0.058802
-0.0519857
-0.045654
-0.0398348
-0.0345435
-0.0297762
-0.0255234
-0.0217564
-0.018452
-0.0155644
-0.0130687
-0.0109062
-0.00906287
-0.0074671
-0.00612914
-0.00495779
-0.00399869
-0.0031289
-0.00244126
-0.00176957
-0.00126452
-0.000702417
-0.000299726
-0.175497
-0.178777
-0.179668
-0.179566
-0.179367
-0.179079
-0.178428
-0.177262
-0.17557
-0.173364
-0.170632
-0.167347
-0.163492
-0.159058
-0.154052
-0.148489
-0.142396
-0.135814
-0.128796
-0.121408
-0.113725
-0.105834
-0.0978293
-0.0898084
-0.0818709
-0.0741131
-0.0666226
-0.0594768
-0.0527379
-0.0464547
-0.0406575
-0.0353649
-0.0305768
-0.0262874
-0.0224721
-0.0191112
-0.0161623
-0.0136032
-0.0113775
-0.00947305
-0.00781974
-0.00642815
-0.00520834
-0.00420466
-0.00329589
-0.00257163
-0.00186889
-0.00133236
-0.000744644
-0.000310647
-0.171826
-0.175059
-0.176088
-0.176112
-0.175979
-0.17575
-0.175185
-0.174126
-0.172547
-0.170461
-0.167863
-0.164729
-0.161041
-0.156792
-0.151987
-0.14664
-0.140777
-0.134436
-0.127665
-0.120526
-0.113092
-0.105443
-0.0976678
-0.0898601
-0.0821143
-0.0745228
-0.0671706
-0.0601336
-0.0534739
-0.0472415
-0.0414689
-0.0361777
-0.0313712
-0.0270477
-0.023186
-0.0197704
-0.0167613
-0.0141397
-0.0118515
-0.0098862
-0.0081755
-0.00673011
-0.00546173
-0.00441305
-0.00346509
-0.00270367
-0.00196968
-0.001401
-0.000787568
-0.000321556
-0.168222
-0.171385
-0.172536
-0.172688
-0.172628
-0.172459
-0.171977
-0.171022
-0.169558
-0.167593
-0.165127
-0.162142
-0.15862
-0.154554
-0.149946
-0.144812
-0.139174
-0.133068
-0.126539
-0.119645
-0.112454
-0.105042
-0.0974925
-0.0898946
-0.0823381
-0.0749116
-0.0676974
-0.0607698
-0.0541908
-0.0480113
-0.0422656
-0.0369784
-0.0321561
-0.0278008
-0.023895
-0.0204264
-0.0173589
-0.0146759
-0.0123262
-0.0103005
-0.00853281
-0.00703372
-0.00571685
-0.00462295
-0.00363577
-0.00283679
-0.00207152
-0.00147016
-0.000830979
-0.000332459
-0.164702
-0.167774
-0.16903
-0.169309
-0.16933
-0.169223
-0.168819
-0.167966
-0.166616
-0.164772
-0.162439
-0.1596
-0.156241
-0.152353
-0.147939
-0.143012
-0.137593
-0.131716
-0.125423
-0.118768
-0.111814
-0.104633
-0.0973046
-0.0899123
-0.0825419
-0.0752782
-0.0682009
-0.0613828
-0.0548853
-0.0487602
-0.0430437
-0.0377629
-0.0329275
-0.028543
-0.0245955
-0.0210761
-0.0179519
-0.0152091
-0.0127989
-0.0107138
-0.00888984
-0.0073374
-0.00597239
-0.00483331
-0.00380706
-0.00297033
-0.00217389
-0.00153949
-0.000874631
-0.000343351
-0.161284
-0.164248
-0.165592
-0.165996
-0.166102
-0.166058
-0.16573
-0.164975
-0.163736
-0.162014
-0.159811
-0.157116
-0.153916
-0.150202
-0.145976
-0.14125
-0.136044
-0.130389
-0.124324
-0.1179
-0.111176
-0.10422
-0.0971059
-0.0899139
-0.0827252
-0.0756213
-0.0686791
-0.0619697
-0.0555542
-0.0494848
-0.0437993
-0.0385272
-0.0336813
-0.0292701
-0.0252835
-0.0217156
-0.0185369
-0.015736
-0.0132671
-0.0111237
-0.00924447
-0.00763936
-0.00622682
-0.00504285
-0.00397793
-0.00310349
-0.00227615
-0.0016086
-0.000918232
-0.000354213
-0.157989
-0.160831
-0.162244
-0.162768
-0.162963
-0.162985
-0.16273
-0.162068
-0.160938
-0.159334
-0.157258
-0.154703
-0.151657
-0.148112
-0.144068
-0.139536
-0.134535
-0.129094
-0.123249
-0.117048
-0.110545
-0.103805
-0.0968985
-0.0899003
-0.0828881
-0.0759399
-0.0691299
-0.0625278
-0.0561939
-0.0501809
-0.0445279
-0.0392667
-0.0344126
-0.0299776
-0.0259545
-0.0223407
-0.01911
-0.0162532
-0.0137274
-0.0115274
-0.00959425
-0.00793751
-0.00647838
-0.00525013
-0.00414718
-0.00323536
-0.00237758
-0.00167704
-0.000961448
-0.000365009
-0.154839
-0.157546
-0.159012
-0.159649
-0.159936
-0.160024
-0.159839
-0.159265
-0.158239
-0.15675
-0.154798
-0.152379
-0.149481
-0.146097
-0.142227
-0.137882
-0.133077
-0.12784
-0.122205
-0.116216
-0.109926
-0.103393
-0.0966851
-0.089873
-0.0830308
-0.0762331
-0.0695516
-0.0630543
-0.0568009
-0.0508443
-0.045225
-0.0399764
-0.0351167
-0.0306603
-0.0266037
-0.0229469
-0.0196669
-0.0167567
-0.0141763
-0.0119216
-0.00993637
-0.00822943
-0.00672501
-0.00545347
-0.00431342
-0.00336486
-0.00247732
-0.00174426
-0.0010039
-0.000375675
-0.151855
-0.15442
-0.155921
-0.156665
-0.157043
-0.157199
-0.157081
-0.156588
-0.155661
-0.154282
-0.15245
-0.15016
-0.147403
-0.144173
-0.140469
-0.1363
-0.131681
-0.126638
-0.121202
-0.115414
-0.109324
-0.102988
-0.0964688
-0.0898338
-0.0831537
-0.0765
-0.069942
-0.0635462
-0.0573714
-0.0514707
-0.0458855
-0.040651
-0.0357878
-0.0313129
-0.0272256
-0.0235289
-0.0202025
-0.0172419
-0.0146097
-0.0123028
-0.0102676
-0.00851239
-0.00696437
-0.00565091
-0.00447503
-0.00349074
-0.0025744
-0.00180963
-0.00104516
-0.000386122
-0.149062
-0.15148
-0.153003
-0.153843
-0.154311
-0.154535
-0.15448
-0.154063
-0.153228
-0.151953
-0.150234
-0.148067
-0.145443
-0.142358
-0.138809
-0.134805
-0.13036
-0.125498
-0.120248
-0.114649
-0.108747
-0.102596
-0.0962533
-0.0897849
-0.0832576
-0.0767401
-0.0702995
-0.0640006
-0.0579014
-0.0520551
-0.046504
-0.0412848
-0.0364199
-0.0319291
-0.0278142
-0.0240808
-0.0207116
-0.0177038
-0.015023
-0.0126668
-0.0105844
-0.00878322
-0.00719376
-0.00584023
-0.00463018
-0.00361159
-0.00266768
-0.0018724
-0.00108474
-0.000396229
-0.146485
-0.148758
-0.150289
-0.151214
-0.151769
-0.15206
-0.152065
-0.151717
-0.150966
-0.149788
-0.148174
-0.146121
-0.143621
-0.140669
-0.137264
-0.133413
-0.12913
-0.124434
-0.119356
-0.113932
-0.108203
-0.102221
-0.0960429
-0.0897289
-0.0833435
-0.076953
-0.0706222
-0.0644143
-0.0583867
-0.0525926
-0.0470747
-0.0418712
-0.0370064
-0.0325021
-0.0283628
-0.0245962
-0.0211879
-0.0181367
-0.0154109
-0.0130088
-0.0108825
-0.00903838
-0.00741011
-0.0060189
-0.00477674
-0.00372576
-0.00275587
-0.00193174
-0.00112209
-0.000405843
-0.144153
-0.146284
-0.147814
-0.148814
-0.14945
-0.149804
-0.149865
-0.14958
-0.148905
-0.147814
-0.146297
-0.144348
-0.14196
-0.13913
-0.135855
-0.132143
-0.128005
-0.123461
-0.118539
-0.113271
-0.1077
-0.101873
-0.0958428
-0.089669
-0.0834129
-0.0771382
-0.0709079
-0.0647839
-0.0588227
-0.0530773
-0.0475911
-0.0424033
-0.03754
-0.0330245
-0.028864
-0.025068
-0.0216245
-0.0185342
-0.0157676
-0.0133238
-0.0111574
-0.00927381
-0.00760997
-0.00618401