/*--------------------------------*- C++ -*----------------------------------*\
  =========                 |
  \\      /  F ield         | OpenFOAM: The Open Source CFD Toolbox
   \\    /   O peration     | Website:  https://openfoam.org
    \\  /    A nd           | Version:  7
     \\/     M anipulation  |
\*---------------------------------------------------------------------------*/
FoamFile
{
    version     2.0;
    format      ascii;
    class       volVectorField;
    location    "15";
    object      U;
}
// * * * * * * * * * * * * * * * * * * * * * * * * * * * * * * * * * * * * * //

dimensions      [0 1 -1 0 0 0 0];

internalField   nonuniform List<vector> 
6050
(
(-0.179317 0.00460851 3.55604e-20)
(-0.19767 0.00456517 -4.88219e-20)
(-0.215097 0.00456327 2.85816e-20)
(-0.231815 0.0045887 1.49653e-20)
(-0.247951 0.00462266 5.45086e-21)
(-0.26354 0.00464087 -1.77938e-20)
(-0.278533 0.00461558 -1.01975e-20)
(-0.292752 0.0045056 -6.74043e-21)
(-0.305898 0.0042645 2.81683e-20)
(-0.317704 0.00391434 -3.33546e-20)
(-0.32739 0.00326321 -7.17615e-21)
(-0.334967 0.00278069 8.3339e-21)
(-0.338848 0.00169739 -2.35083e-20)
(-0.174392 0.0136707 -1.55023e-19)
(-0.191167 0.0135118 9.48904e-20)
(-0.206708 0.0134711 -7.43069e-20)
(-0.221185 0.0135067 8.89467e-21)
(-0.234673 0.0135629 -4.34345e-20)
(-0.247158 0.0135683 1.58512e-20)
(-0.258548 0.0134428 3.1992e-20)
(-0.268633 0.0130688 5.37113e-20)
(-0.277035 0.0122871 3.25289e-20)
(-0.283648 0.0112422 9.11491e-20)
(-0.287172 0.00912933 8.71434e-21)
(-0.288654 0.00783605 -7.54183e-20)
(-0.28393 0.00414018 5.6351e-20)
(-0.164714 0.0222797 1.31063e-20)
(-0.178423 0.0219231 -3.66448e-20)
(-0.190325 0.0217449 7.31872e-20)
(-0.200504 0.0216758 -2.28282e-20)
(-0.208957 0.0216261 2.62009e-20)
(-0.215584 0.0214812 -2.65735e-20)
(-0.220235 0.0211171 -5.10388e-20)
(-0.222683 0.0203678 -5.9307e-20)
(-0.222319 0.0188801 -7.28328e-20)
(-0.219709 0.0172193 -1.48326e-19)
(-0.211841 0.0131552 5.56683e-20)
(-0.203382 0.0115457 4.70823e-20)
(-0.182833 0.00437766 1.47699e-19)
(-0.150596 0.0301615 -1.12515e-20)
(-0.15991 0.0294833 -3.49915e-21)
(-0.166644 0.0290199 -2.11519e-19)
(-0.170789 0.0286763 -1.00594e-19)
(-0.172255 0.0283324 4.71549e-20)
(-0.170857 0.0278367 5.86066e-21)
(-0.166377 0.0270328 4.67239e-20)
(-0.158702 0.0257762 -1.41112e-19)
(-0.146575 0.0233353 5.53592e-20)
(-0.132595 0.0212333 8.13816e-20)
(-0.109182 0.0147006 9.53227e-20)
(-0.0899475 0.0129401 -5.09907e-20)
(-0.048079 0.0026207 -1.19505e-19)
(-0.132429 0.0370791 -8.64281e-21)
(-0.136206 0.0359311 -3.2209e-21)
(-0.136506 0.0350086 4.31855e-20)
(-0.133238 0.034194 6.35187e-20)
(-0.126245 0.033341 -1.72094e-19)
(-0.11528 0.0322709 2.09392e-19)
(-0.100027 0.0308045 1.07425e-19)
(-0.0808167 0.028886 1.67426e-19)
(-0.0548036 0.0253136 -4.27932e-21)
(-0.0290639 0.0224609 -4.02646e-20)
(0.0129151 0.0144703 3.96281e-21)
(0.0415947 0.0107954 -6.19361e-20)
(0.10851 -0.000352271 -1.11393e-19)
(-0.10787 0.0410719 1.6017e-20)
(-0.100693 0.0395172 4.44254e-20)
(-0.0889244 0.0380425 3.53526e-19)
(-0.0723694 0.0364807 -2.08163e-21)
(-0.0507672 0.0346406 1.25359e-19)
(-0.0236243 0.0323705 -3.07542e-19)
(0.00782836 0.0294432 3.98179e-20)
(0.0491451 0.0249719 -6.36144e-20)
(0.0861615 0.0206561 -5.12137e-20)
(0.149844 0.0124834 4.82869e-20)
(0.183559 0.00556948 -1.07845e-19)
(0.280875 -0.00504234 1.09754e-19)
(-0.0752981 0.0447843 -2.31714e-19)
(-0.0597124 0.0424539 2.73088e-20)
(-0.0384845 0.0401746 -7.25991e-20)
(-0.0114014 0.0377648 1.14257e-19)
(0.0217732 0.0350187 -3.5553e-21)
(0.0617205 0.031918 -1.06737e-19)
(0.105899 0.027646 2.80296e-19)
(0.164126 0.0229061 -1.09014e-19)
(0.210684 0.0163283 -9.3108e-20)
(0.299728 0.00887231 1.45194e-19)
(0.334337 -0.000972597 5.48074e-20)
(0.464161 -0.0113058 2.39546e-19)
(-0.0385799 0.0470239 7.0416e-19)
(-0.0135984 0.0438354 9.13345e-21)
(0.0181448 0.04069 -4.53262e-19)
(0.0568677 0.0374041 -4.738e-20)
(0.102739 0.0337136 -4.43376e-19)
(0.156677 0.0299743 2.10579e-19)
(0.214391 0.0241667 -1.56795e-19)
(0.290518 0.0200409 1.64328e-19)
(0.346922 0.0105467 2.30987e-19)
(0.460328 0.00499965 9.07364e-20)
(0.496381 -0.00725841 -2.5467e-19)
(0.653626 -0.0170429 -2.23213e-19)
(0.00263357 0.0478306 -5.77568e-19)
(0.0382494 0.0437967 -1.65942e-19)
(0.0818891 0.0398493 1.04439e-19)
(0.133748 0.0358245 1.92503e-19)
(0.193866 0.0313325 -5.8337e-20)
(0.263067 0.0273944 2.2662e-19)
(0.336105 0.0202091 1.31457e-20)
(0.428707 0.0172712 -2.4722e-19)
(0.498565 0.00564143 1.80515e-20)
(0.627802 0.00210557 -3.52101e-19)
(0.670358 -0.0115409 6.55672e-20)
(0.840653 -0.0196159 -1.40105e-19)
(0.0492333 0.0473444 2.68037e-19)
(0.0971444 0.0426143 -2.21209e-19)
(0.154522 0.0380989 3.45148e-19)
(0.221427 0.0336803 3.39601e-19)
(0.297623 0.0288184 4.38895e-19)
(0.382945 0.0251129 -4.20218e-19)
(0.473059 0.0176017 3.84233e-20)
(0.577931 0.0155204 3.6424e-19)
(0.66448 0.0038607 -1.2907e-19)
(0.795463 0.00175875 2.09033e-21)
(0.849213 -0.0122482 -1.42659e-20)
(1.01073 -0.0177013 1.77759e-19)
(0.102695 0.0458359 -2.93703e-19)
(0.165047 0.0407428 -4.69532e-20)
(0.23837 0.0361104 -1.49851e-19)
(0.3223 0.0318609 -9.98672e-20)
(0.415871 0.0273934 -2.3652e-19)
(0.517091 0.0242726 -1.18356e-19)
(0.623185 0.0179154 4.48914e-20)
(0.734773 0.0161938 -2.33875e-19)
(0.834618 0.00625975 2.55882e-20)
(0.95364 0.00487742 1.46637e-20)
(1.01629 -0.00869079 -1.76053e-19)
(1.14749 -0.0119906 1.18716e-19)
(0.244262 0.0388558 -1.53713e-19)
(0.335634 0.0347973 4.81692e-19)
(0.437785 0.0314652 -5.44584e-19)
(0.548147 0.0282929 -4.91474e-19)
(0.662883 0.0262008 6.83914e-19)
(0.778967 0.0218593 -1.49173e-19)
(0.890858 0.0204327 7.32003e-20)
(0.99246 0.0125507 1.04566e-19)
(1.09054 0.0111177 -9.4681e-20)
(1.15161 -0.00181975 2.58097e-19)
(1.2407 -0.00447819 3.2319e-19)
(0.336813 0.0378557 2.43197e-19)
(0.447319 0.0352515 -2.74811e-19)
(0.566798 0.0336414 -1.17182e-19)
(0.690284 0.0324541 3.83654e-19)
(0.812629 0.031744 -5.00912e-19)
(0.928861 0.0293112 -2.7848e-20)
(1.03285 0.0280188 2.06873e-19)
(1.12229 0.0213182 -8.30835e-20)
(1.19531 0.0190463 -1.08327e-19)
(1.24306 0.00621696 1.36239e-20)
(1.29202 0.00277838 -1.46056e-19)
(0.443479 0.0388022 -5.083e-19)
(0.571946 0.0385377 3.00562e-19)
(0.704546 0.0392231 1.72752e-19)
(0.834007 0.0401932 -2.24461e-19)
(0.954544 0.0406264 3.54409e-19)
(1.06019 0.0392976 2.75013e-19)
(1.14749 0.0373518 -7.08333e-20)
(1.21547 0.0306655 2.85934e-21)
(1.26336 0.0268651 -1.04631e-20)
(1.29282 0.0134322 -3.51751e-19)
(1.31331 0.00917723 -4.90354e-19)
(0.562695 0.0427022 2.06112e-19)
(0.704615 0.0453351 -1.72674e-19)
(0.842554 0.0483167 1.22547e-19)
(0.968259 0.0508822 1.05223e-19)
(1.07657 0.051522 -8.08818e-20)
(1.1631 0.0501245 1.91384e-19)
(1.22817 0.0464566 -2.13178e-19)
(1.27268 0.0391021 2.54582e-19)
(1.29941 0.0332729 5.00322e-19)
(1.31349 0.0193172 2.4955e-19)
(1.31752 0.0143544 3.9514e-19)
(0.837199 0.0555679 2.30108e-20)
(0.970445 0.0601014 6.7849e-20)
(1.08252 0.0630266 -1.15897e-19)
(1.17074 0.0626721 -2.94328e-19)
(1.23428 0.0600875 -6.24688e-21)
(1.27706 0.0540842 3.58453e-19)
(1.30184 0.0460248 -3.02355e-19)
(1.31402 0.0380536 -6.92248e-19)
(1.31825 0.0242799 -5.16109e-19)
(1.31459 0.0188946 1.94287e-19)
(0.96014 0.0682867 -5.00337e-19)
(1.07905 0.0730481 3.80573e-19)
(1.17051 0.0749012 5.00169e-20)
(1.23561 0.0726512 1.30716e-19)
(1.27739 0.0682485 -2.87942e-19)
(1.30207 0.0600483 -8.32004e-20)
(1.31316 0.0516099 -7.78753e-20)
(1.31694 0.0416625 8.40151e-20)
(1.31566 0.0289257 3.02455e-19)
(1.30879 0.0228522 -6.41726e-19)
(1.16329 0.0855405 -1.78928e-19)
(1.23175 0.085283 4.94289e-20)
(1.27542 0.0808425 -2.81102e-19)
(1.29991 0.0745759 -2.36256e-20)
(1.31195 0.0648154 5.76599e-20)
(1.31476 0.0562772 -4.18071e-20)
(1.31414 0.0446122 5.79621e-19)
(1.30974 0.033677 1.06427e-20)
(1.30226 0.0262267 6.02424e-19)
(1.22314 0.0964946 -6.75859e-20)
(1.27033 0.0937592 -2.38421e-19)
(1.29688 0.0873465 -4.3094e-19)
(1.30922 0.0795283 -1.2103e-20)
(1.31331 0.0689422 -1.97822e-19)
(1.3115 0.0602844 1.71185e-19)
(1.30863 0.0473986 -8.74262e-20)
(1.30236 0.0388224 -6.68571e-19)
(1.29566 0.0286654 -2.61431e-19)
(1.2921 0.100525 3.56108e-19)
(1.30633 0.0925767 5.43838e-19)
(1.31082 0.0836358 -9.16663e-20)
(1.31022 0.0727618 1.32509e-19)
(1.30601 0.0637806 -4.86871e-20)
(1.30194 0.0505717 3.00757e-19)
(1.29439 0.04413 1.48782e-19)
(1.28925 0.0297216 1.71256e-19)
(1.30251 0.106009 3.51194e-20)
(1.30848 0.0969652 1.50021e-19)
(1.30819 0.0873006 -2.82155e-20)
(1.30496 0.0763893 2.67051e-19)
(1.2996 0.06701 2.89112e-20)
(1.29481 0.0544475 -6.97525e-19)
(1.28671 0.0485159 3.12023e-19)
(1.28258 0.0288396 -2.88739e-19)
(1.30643 0.100861 -5.82019e-20)
(1.30337 0.090762 -6.2784e-20)
(1.2987 0.0798778 -4.59667e-20)
(1.29284 0.070297 2.70183e-19)
(1.28754 0.0585742 2.0546e-19)
(1.27967 0.0507745 6.44205e-20)
(1.27562 0.037931 1.80445e-19)
(1.30209 0.104489 -6.12526e-20)
(1.29748 0.0941233 -2.39978e-20)
(1.29205 0.0833139 2.19597e-19)
(1.28597 0.0737205 -1.15745e-19)
(1.28041 0.0620112 -1.34606e-19)
(1.2728 0.0555253 -3.08272e-19)
(1.26862 0.0412484 -2.0669e-19)
(1.29107 0.0974543 1.23808e-20)
(1.28525 0.0867657 -2.83639e-19)
(1.27911 0.0769586 6.97963e-20)
(1.27339 0.0660532 -1.37383e-19)
(1.26607 0.058541 -5.21285e-19)
(1.26213 0.0459007 2.73394e-19)
(1.27841 0.0901446 1.53152e-19)
(1.27228 0.0803608 -3.71046e-20)
(1.26647 0.0695127 4.57951e-19)
(1.25955 0.0622435 4.39748e-19)
(1.2555 0.0498749 1.82328e-19)
(1.26547 0.0835868 -8.87335e-21)
(1.25966 0.0731585 -3.12329e-19)
(1.25306 0.0654121 -1.19689e-19)
(1.24903 0.0535086 -1.74329e-19)
(1.2529 0.0765167 -2.17587e-20)
(1.24664 0.0685778 2.86736e-19)
(1.2425 0.0570731 3.12415e-19)
(1.2402 0.0715671 -1.69294e-19)
(1.23598 0.060316 -6.46723e-20)
(1.2402 -0.0715671 -5.99236e-20)
(1.23598 -0.0603159 -4.37281e-19)
(1.2529 -0.0765166 1.41364e-19)
(1.24664 -0.0685778 3.11056e-19)
(1.2425 -0.057073 1.67461e-19)
(1.26547 -0.0835867 1.81591e-19)
(1.25966 -0.0731584 -1.51443e-19)
(1.25306 -0.065412 -2.51845e-19)
(1.24903 -0.0535086 4.11676e-20)
(1.27841 -0.0901445 -3.92496e-19)
(1.27228 -0.0803607 -5.79072e-21)
(1.26647 -0.0695126 5.1451e-19)
(1.25955 -0.0622434 2.10648e-19)
(1.2555 -0.0498749 1.7908e-19)
(1.29107 -0.0974542 -9.69832e-20)
(1.28525 -0.0867656 6.00632e-20)
(1.27911 -0.0769585 -5.55867e-20)
(1.27339 -0.0660531 5.79261e-20)
(1.26607 -0.058541 -3.23056e-19)
(1.26213 -0.0459007 1.83459e-19)
(1.30209 -0.104489 7.714e-21)
(1.29747 -0.0941231 1.78798e-19)
(1.29205 -0.0833137 8.44589e-20)
(1.28597 -0.0737204 -2.09854e-19)
(1.28041 -0.0620111 -4.16441e-20)
(1.2728 -0.0555252 -2.11615e-20)
(1.26862 -0.0412484 -3.2487e-19)
(1.30643 -0.10086 -2.31237e-20)
(1.30337 -0.0907617 1.21651e-20)
(1.2987 -0.0798777 -1.15577e-19)
(1.29284 -0.0702969 1.06764e-19)
(1.28754 -0.0585741 8.17264e-20)
(1.27967 -0.0507744 -7.29592e-21)
(1.27562 -0.037931 2.54312e-19)
(1.30251 -0.106008 -2.12174e-19)
(1.30848 -0.096965 -3.32789e-19)
(1.30819 -0.0873003 2.66637e-19)
(1.30495 -0.0763891 1.74855e-19)
(1.2996 -0.0670098 -7.84622e-20)
(1.29481 -0.0544474 -6.49663e-19)
(1.28671 -0.0485158 6.46849e-20)
(1.28258 -0.0288397 3.76372e-20)
(1.2921 -0.100525 4.16795e-19)
(1.30633 -0.0925764 4.41665e-19)
(1.31082 -0.0836355 -1.45524e-19)
(1.31022 -0.0727615 3.73899e-20)
(1.30601 -0.0637805 1.11598e-19)
(1.30194 -0.0505716 1.03235e-19)
(1.29439 -0.0441299 3.15172e-19)
(1.28925 -0.0297216 1.20802e-19)
(1.22314 -0.0964943 -1.16143e-19)
(1.27033 -0.0937589 -1.91023e-19)
(1.29688 -0.0873462 -2.96913e-19)
(1.30922 -0.079528 7.0517e-20)
(1.31331 -0.0689419 -2.73905e-19)
(1.3115 -0.0602842 -9.31617e-21)
(1.30863 -0.0473984 -2.25398e-19)
(1.30236 -0.0388223 -3.10414e-19)
(1.29566 -0.0286654 -1.93709e-19)
(1.16329 -0.0855402 7.97923e-20)
(1.23175 -0.0852826 -1.10014e-19)
(1.27542 -0.0808422 -2.43472e-19)
(1.2999 -0.0745756 -1.56953e-19)
(1.31195 -0.0648151 2.35283e-19)
(1.31476 -0.056277 -1.53116e-19)
(1.31414 -0.0446121 6.89594e-19)
(1.30974 -0.0336769 3.53349e-19)
(1.30226 -0.0262268 6.10983e-20)
(0.960141 -0.0682864 7.28911e-20)
(1.07905 -0.0730477 -2.9466e-20)
(1.17051 -0.0749008 -1.11353e-19)
(1.23561 -0.0726508 5.564e-19)
(1.27739 -0.0682481 -3.61468e-19)
(1.30207 -0.060048 -3.37566e-19)
(1.31316 -0.0516097 7.13283e-20)
(1.31694 -0.0416624 6.73441e-20)
(1.31566 -0.0289257 7.97878e-19)
(1.30879 -0.0228523 -7.60051e-19)
(0.8372 -0.0555677 2.59402e-19)
(0.970445 -0.060101 2.48018e-20)
(1.08252 -0.0630262 -6.81871e-20)
(1.17074 -0.0626717 -2.13579e-19)
(1.23428 -0.0600871 8.61705e-20)
(1.27706 -0.0540839 1.69592e-19)
(1.30184 -0.0460245 -2.60444e-19)
(1.31402 -0.0380534 -6.15132e-19)
(1.31825 -0.0242799 -3.44886e-19)
(1.31459 -0.0188946 1.73788e-19)
(0.562696 -0.0427019 9.46274e-19)
(0.704615 -0.0453348 -4.15064e-19)
(0.842555 -0.0483163 2.08842e-20)
(0.96826 -0.0508817 3.03039e-19)
(1.07657 -0.0515216 2.44274e-19)
(1.1631 -0.0501241 -1.51062e-19)
(1.22817 -0.0464562 7.44532e-20)
(1.27268 -0.0391018 2.21599e-19)
(1.29941 -0.0332727 1.62392e-19)
(1.31348 -0.0193171 3.13963e-19)
(1.31752 -0.0143544 7.066e-19)
(0.44348 -0.0388019 -5.83832e-19)
(0.571946 -0.0385373 3.66118e-19)
(0.704547 -0.0392226 2.45333e-19)
(0.834008 -0.0401927 -4.94939e-19)
(0.954544 -0.0406258 6.95688e-19)
(1.06019 -0.0392971 -4.68102e-20)
(1.14749 -0.0373513 -1.31874e-19)
(1.21547 -0.0306652 -8.90496e-20)
(1.26335 -0.0268649 -3.44149e-20)
(1.29282 -0.0134322 -4.80186e-20)
(1.31331 -0.00917731 -2.612e-19)
(0.336814 -0.0378554 2.14065e-19)
(0.44732 -0.0352511 -2.62036e-19)
(0.566799 -0.0336409 -1.3226e-19)
(0.690285 -0.0324535 4.01777e-19)
(0.81263 -0.0317434 -6.58937e-19)
(0.928861 -0.0293107 -3.72635e-21)
(1.03285 -0.0280183 2.86637e-19)
(1.12229 -0.0213178 -1.81702e-19)
(1.19531 -0.019046 1.52426e-19)
(1.24306 -0.0062169 -3.12977e-19)
(1.29202 -0.00277847 -2.61108e-19)
(0.244263 -0.0388554 1.04014e-19)
(0.335635 -0.0347968 2.85011e-19)
(0.437785 -0.0314646 -4.40653e-19)
(0.548148 -0.0282923 -4.65254e-19)
(0.662883 -0.0262001 6.16181e-19)
(0.778967 -0.0218586 -1.41165e-19)
(0.890858 -0.0204321 2.28434e-19)
(0.99246 -0.0125502 1.94806e-19)
(1.09054 -0.0111174 -2.90108e-19)
(1.15161 0.00181986 3.01333e-19)
(1.2407 0.00447809 2.40399e-19)
(0.102695 -0.0458356 4.17193e-19)
(0.165047 -0.0407425 1.2533e-19)
(0.23837 -0.0361099 -5.66442e-19)
(0.322301 -0.0318603 1.087e-19)
(0.415871 -0.0273927 -3.36506e-19)
(0.517091 -0.0242718 -2.82583e-20)
(0.623185 -0.0179146 1.47478e-19)
(0.734773 -0.016193 -2.74098e-19)
(0.834618 -0.00625916 -7.27404e-20)
(0.953639 -0.00487698 -7.32096e-20)
(1.01629 0.00869097 4.06954e-20)
(1.14749 0.0119905 -5.19717e-20)
(0.0492334 -0.047344 2.58178e-19)
(0.0971445 -0.0426138 -1.36822e-19)
(0.154522 -0.0380984 5.02511e-19)
(0.221427 -0.0336796 -5.98686e-20)
(0.297623 -0.0288176 4.60361e-19)
(0.382945 -0.025112 -1.14912e-19)
(0.473059 -0.0176008 8.6683e-20)
(0.577931 -0.0155196 -1.14958e-19)
(0.66448 -0.00385996 1.3241e-19)
(0.795462 -0.00175818 8.67404e-20)
(0.849212 0.0122485 6.23681e-20)
(1.01073 0.0177013 -8.82228e-20)
(0.00263359 -0.0478302 -7.16542e-19)
(0.0382495 -0.0437962 -8.59421e-20)
(0.0818891 -0.0398486 1.21845e-19)
(0.133748 -0.0358237 1.84703e-19)
(0.193866 -0.0313316 2.03516e-19)
(0.263067 -0.0273934 3.26075e-20)
(0.336104 -0.0202081 -2.44515e-20)
(0.428707 -0.0172702 -3.84733e-19)
(0.498564 -0.00564055 -6.1041e-20)
(0.627802 -0.00210487 8.57382e-20)
(0.670357 0.0115413 -1.70803e-19)
(0.840652 0.019616 -3.06007e-19)
(-0.0385799 -0.0470235 4.89931e-19)
(-0.0135984 -0.0438348 -6.73765e-20)
(0.0181447 -0.0406893 -3.50541e-19)
(0.0568676 -0.0374032 -2.71399e-19)
(0.102739 -0.0337126 -9.19399e-20)
(0.156677 -0.0299732 -1.03619e-19)
(0.214391 -0.0241656 8.47016e-20)
(0.290518 -0.0200398 1.20678e-19)
(0.346921 -0.0105457 1.68646e-19)
(0.460327 -0.00499881 -7.89679e-21)
(0.49638 0.00725898 3.41715e-20)
(0.653624 0.0170431 -2.3779e-19)
(-0.0752982 -0.0447839 -2.94705e-19)
(-0.0597125 -0.0424533 1.91747e-19)
(-0.0384847 -0.0401738 -7.02028e-20)
(-0.0114016 -0.0377639 1.39729e-19)
(0.0217729 -0.0350176 -2.92038e-20)
(0.0617202 -0.0319168 -3.78669e-20)
(0.105899 -0.0276447 1.24287e-19)
(0.164126 -0.0229048 -1.14738e-19)
(0.210683 -0.0163271 1.12618e-19)
(0.299727 -0.00887135 1.25911e-20)
(0.334336 0.000973281 9.39506e-20)
(0.46416 0.0113061 4.65452e-19)
(-0.10787 -0.0410715 6.04088e-20)
(-0.100693 -0.0395165 1.16302e-19)
(-0.0889246 -0.0380417 2.73873e-19)
(-0.0723696 -0.0364797 -8.35369e-20)
(-0.0507675 -0.0346394 9.45074e-20)
(-0.0236247 -0.0323693 -1.31196e-19)
(0.00782786 -0.0294418 -1.32714e-19)
(0.0491445 -0.0249706 1.5185e-19)
(0.0861607 -0.0206549 -2.8362e-20)
(0.149843 -0.0124823 -1.92668e-19)
(0.183558 -0.00556869 1.39014e-19)
(0.280873 0.00504274 -1.06686e-19)
(-0.132429 -0.0370787 2.04306e-19)
(-0.136206 -0.0359306 -3.11555e-20)
(-0.136506 -0.0350079 1.12165e-20)
(-0.133238 -0.0341931 -3.79239e-20)
(-0.126245 -0.0333399 -4.30666e-21)
(-0.115281 -0.0322697 1.70174e-19)
(-0.100027 -0.0308032 1.91533e-19)
(-0.0808172 -0.0288845 3.18626e-20)
(-0.0548042 -0.0253121 8.86077e-20)
(-0.0290646 -0.0224595 -1.72821e-19)
(0.0129141 -0.0144691 2.31263e-19)
(0.0415936 -0.0107946 -2.44718e-19)
(0.108508 0.000352763 -6.59826e-20)
(-0.150596 -0.0301611 2.91834e-20)
(-0.15991 -0.0294828 -5.64084e-20)
(-0.166644 -0.0290192 -9.867e-20)
(-0.170789 -0.0286754 -1.56927e-19)
(-0.172255 -0.0283313 8.65999e-20)
(-0.170858 -0.0278355 -2.1075e-20)
(-0.166377 -0.0270313 1.13478e-19)
(-0.158703 -0.0257747 -1.92601e-19)
(-0.146575 -0.0233338 8.95376e-20)
(-0.132596 -0.0212319 1.01581e-19)
(-0.109183 -0.0146994 -1.0301e-19)
(-0.0899486 -0.0129392 9.15806e-20)
(-0.0480803 -0.00262013 -1.51008e-19)
(-0.164714 -0.0222793 -1.14341e-20)
(-0.178424 -0.0219226 -6.62842e-20)
(-0.190325 -0.0217442 2.98479e-20)
(-0.200504 -0.0216749 3.32606e-20)
(-0.208957 -0.021625 5.36662e-20)
(-0.215585 -0.0214799 -7.00438e-20)
(-0.220235 -0.0211157 -3.45232e-20)
(-0.222683 -0.0203663 5.58218e-21)
(-0.22232 -0.0188785 -1.62936e-19)
(-0.21971 -0.0172178 -8.33517e-20)
(-0.211842 -0.0131539 -4.69541e-20)
(-0.203383 -0.0115447 1.56034e-19)
(-0.182834 -0.00437702 5.3519e-20)
(-0.174392 -0.0136703 -1.33671e-19)
(-0.191167 -0.0135112 9.28461e-20)
(-0.206708 -0.0134704 -7.57749e-20)
(-0.221185 -0.0135057 4.31215e-20)
(-0.234673 -0.0135618 -5.97626e-20)
(-0.247158 -0.013567 -9.517e-21)
(-0.258548 -0.0134413 1.7981e-20)
(-0.268634 -0.0130672 6.70343e-20)
(-0.277036 -0.0122854 3.974e-20)
(-0.283648 -0.0112406 1.10768e-19)
(-0.287173 -0.00912793 -3.50704e-20)
(-0.288654 -0.00783493 -4.84314e-20)
(-0.283931 -0.00413946 -7.25689e-22)
(-0.179317 -0.0046081 3.78478e-20)
(-0.19767 -0.00456459 -4.14509e-20)
(-0.215097 -0.0045625 1.60603e-20)
(-0.231815 -0.00458773 3.31526e-20)
(-0.247951 -0.00462149 -1.53345e-20)
(-0.26354 -0.00463951 3.35585e-21)
(-0.278533 -0.00461407 -2.20494e-20)
(-0.292752 -0.00450397 -4.7863e-21)
(-0.305898 -0.00426283 2.30192e-20)
(-0.317704 -0.00391273 -1.34708e-20)
(-0.32739 -0.00326177 -1.77183e-20)
(-0.334967 -0.00277953 -8.29284e-21)
(-0.338848 -0.00169664 -2.95062e-20)
(-0.342136 0.00200248 -2.08692e-20)
(-0.344995 0.00107831 9.60586e-21)
(-0.345823 0.000235714 -7.58352e-21)
(-0.345154 -0.000765539 1.46743e-20)
(-0.342459 -0.00185526 -1.83459e-21)
(-0.337517 -0.00302683 -1.03312e-20)
(-0.330001 -0.0042697 3.08966e-21)
(-0.319639 -0.0055648 7.30564e-22)
(-0.30616 -0.00689913 -2.35024e-21)
(-0.28932 -0.00825106 9.87002e-21)
(-0.268914 -0.00959468 -9.6029e-21)
(-0.244795 -0.010898 -2.28774e-22)
(-0.216893 -0.0121226 4.9047e-21)
(-0.185187 -0.0132477 -1.02499e-21)
(-0.149831 -0.0142144 -5.97389e-22)
(-0.111069 -0.0150243 1.40634e-21)
(-0.0691606 -0.0156632 -2.05632e-21)
(-0.0245783 -0.0160682 1.29999e-21)
(0.0222443 -0.0161904 -7.8252e-22)
(0.0707444 -0.0161574 1.18365e-21)
(0.120229 -0.0159045 -7.84716e-22)
(0.170157 -0.0154576 -1.88333e-22)
(0.219924 -0.0148461 9.10827e-23)
(0.268967 -0.0141015 1.85595e-22)
(0.316789 -0.0132584 -9.60953e-23)
(0.362972 -0.0123508 4.58051e-23)
(0.407186 -0.0114112 1.01948e-22)
(0.449201 -0.0104676 -1.61432e-22)
(0.48886 -0.00954646 6.10348e-23)
(0.526105 -0.00866683 1.25314e-22)
(0.560902 -0.00783985 -5.5602e-23)
(0.593325 -0.00706872 -2.49636e-22)
(0.6234 -0.00636178 4.13919e-23)
(0.651328 -0.00571266 1.84386e-23)
(0.677091 -0.00513193 3.00991e-23)
(0.70107 -0.00459953 -2.70253e-23)
(0.723034 -0.00413988 -8.39608e-23)
(0.743743 -0.00370758 2.4263e-23)
(0.762386 -0.0033593 2.2969e-23)
(0.780606 -0.00300004 -1.40411e-23)
(0.796198 -0.0027511 8.40097e-24)
(0.812809 -0.00243738 -5.62869e-24)
(0.825315 -0.00227769 6.0641e-24)
(0.841349 -0.00199832 1.98793e-23)
(0.850535 -0.0019136 3.96443e-25)
(0.867138 -0.00168984 3.08316e-25)
(0.872995 -0.00164716 -1.23105e-24)
(0.891117 -0.00149343 1.47965e-24)
(0.893874 -0.00145239 -1.11743e-24)
(0.9141 -0.00135191 5.05813e-24)
(-0.282514 0.00504514 -5.40093e-20)
(-0.284442 0.00244516 2.08558e-20)
(-0.283897 -0.000109308 -3.76036e-20)
(-0.281925 -0.00301717 1.63932e-20)
(-0.277988 -0.00620035 1.20222e-20)
(-0.271892 -0.00962173 1.16502e-20)
(-0.263341 -0.0132573 -2.79741e-20)
(-0.252085 -0.0170444 1.8677e-20)
(-0.237884 -0.0209499 -1.82137e-20)
(-0.220509 -0.0249045 3.36205e-22)
(-0.199777 -0.0288317 1.03989e-20)
(-0.175558 -0.0326417 1.14025e-20)
(-0.14782 -0.0362339 -1.53094e-20)
(-0.116523 -0.0395658 9.80157e-21)
(-0.0818329 -0.0423916 3.64062e-21)
(-0.0440547 -0.0447122 -5.75099e-21)
(-0.00341981 -0.0464401 -2.25528e-21)
(0.0396948 -0.0475429 4.33256e-21)
(0.0847307 -0.0479406 -1.58894e-21)
(0.131148 -0.0477702 -2.53992e-22)
(0.178361 -0.0469689 -1.06537e-21)
(0.225812 -0.0456015 1.8766e-21)
(0.272939 -0.043752 -8.83519e-22)
(0.319224 -0.0415159 2.22802e-22)
(0.36421 -0.0389962 -1.2132e-22)
(0.407525 -0.0362942 4.43441e-22)
(0.448874 -0.0335055 -7.94315e-22)
(0.488061 -0.0307113 4.22984e-22)
(0.524959 -0.0279864 -1.3678e-22)
(0.559534 -0.0253871 7.42547e-22)
(0.591773 -0.0229494 -6.32107e-23)
(0.621761 -0.0206802 6.87277e-23)
(0.649532 -0.0186029 -4.37368e-22)
(0.675288 -0.0166979 3.15572e-22)
(0.699021 -0.014996 2.35943e-22)
(0.721095 -0.013437 -3.77084e-22)
(0.741297 -0.0120931 1.87879e-22)
(0.760351 -0.0108297 -1.46055e-23)
(0.77749 -0.00981401 -1.49934e-22)
(0.794272 -0.00876516 3.39819e-23)
(0.808606 -0.00804062 -2.51168e-24)
(0.823948 -0.00712467 -3.72146e-23)
(0.835431 -0.00666102 2.81179e-23)
(0.850303 -0.00584578 2.71859e-23)
(0.858706 -0.00560115 -3.82426e-23)
(0.874194 -0.00495039 7.01112e-24)
(0.879516 -0.00482847 2.73057e-24)
(0.89652 -0.00438511 -1.0475e-24)
(0.899002 -0.00426685 2.40964e-24)
(0.918063 -0.0039803 3.01649e-24)
(-0.174452 0.00573574 -6.85384e-20)
(-0.174218 0.00190796 4.42782e-20)
(-0.171419 -0.00238879 4.34762e-21)
(-0.16721 -0.00704346 -2.4342e-20)
(-0.161242 -0.0121149 -1.06582e-20)
(-0.153306 -0.0175714 3.22349e-20)
(-0.143126 -0.0234203 -4.36545e-20)
(-0.130501 -0.0294394 1.03788e-20)
(-0.115243 -0.0356577 -1.90754e-21)
(-0.0971495 -0.0419538 -5.81251e-21)
(-0.0760742 -0.048201 4.8203e-21)
(-0.0519216 -0.0542575 2.5073e-20)
(-0.0247528 -0.0599658 -2.66925e-20)
(0.00552194 -0.0650864 1.18377e-20)
(0.0388668 -0.0694971 -4.26057e-21)
(0.0748129 -0.0731121 5.31887e-21)
(0.113056 -0.0757284 -4.45031e-21)
(0.153279 -0.0773382 4.16631e-21)
(0.194992 -0.0779025 -1.67584e-21)
(0.237679 -0.0774427 2.67931e-21)
(0.280802 -0.075987 -2.12582e-21)
(0.323846 -0.0736317 -2.72704e-21)
(0.366314 -0.070512 1.32428e-21)
(0.40776 -0.0667854 -2.69324e-22)
(0.447798 -0.0626211 -3.11204e-22)
(0.486123 -0.0581838 1.81257e-22)
(0.522506 -0.0536279 -5.06074e-22)
(0.556804 -0.0490827 4.58755e-22)
(0.588935 -0.0446617 3.65246e-22)
(0.618901 -0.0404506 -6.99865e-22)
(0.646724 -0.0365164 -1.12472e-21)
(0.672505 -0.0328666 1.35409e-21)
(0.696293 -0.0295351 -2.73836e-22)
(0.718287 -0.026487 -5.71024e-22)
(0.738492 -0.0237711 5.52912e-22)
(0.757249 -0.0212876 2.25875e-22)
(0.774373 -0.0191531 -1.58618e-23)
(0.790525 -0.0171482 -1.39016e-22)
(0.805018 -0.015543 -6.54391e-24)
(0.819261 -0.0138827 -1.09868e-22)
(0.831365 -0.0127422 1.76349e-22)
(0.844445 -0.0112923 -9.55332e-23)
(0.854104 -0.0105654 -3.30514e-23)
(0.866883 -0.00927662 -3.38458e-23)
(0.873881 -0.00889681 6.78837e-23)
(0.887333 -0.00787538 -1.03068e-24)
(0.891688 -0.00769007 -1.98078e-23)
(0.906632 -0.00700636 -9.21647e-24)
(0.908616 -0.00682391 -1.1397e-23)
(0.925517 -0.0063928 -2.39126e-24)
(-0.0337836 0.00222571 -3.67657e-20)
(-0.0307933 -0.00174655 -3.20096e-20)
(-0.0253142 -0.00727668 5.78009e-20)
(-0.0184333 -0.0134183 6.83153e-20)
(-0.0101757 -0.0200515 -1.03497e-19)
(-0.00034252 -0.027193 -1.80414e-20)
(0.0114898 -0.0347572 8.72397e-20)
(0.0254996 -0.0426643 -8.26643e-20)
(0.0416684 -0.0508245 2.02539e-20)
(0.0602332 -0.059083 -2.20083e-21)
(0.0812982 -0.0672674 2.03606e-20)
(0.104928 -0.0751841 2.70455e-20)
(0.131091 -0.0826366 -2.55982e-20)
(0.159695 -0.0892086 -2.51684e-20)
(0.190705 -0.094865 4.66093e-20)
(0.223795 -0.0994558 -1.37586e-20)
(0.258628 -0.102752 -1.7345e-20)
(0.294868 -0.104666 2.60184e-20)
(0.332077 -0.105155 -1.12524e-20)
(0.369791 -0.104254 1.31387e-21)
(0.407547 -0.102033 -3.26617e-21)
(0.444899 -0.0986282 5.42642e-22)
(0.481436 -0.0942245 -5.63747e-22)
(0.516797 -0.0890376 1.6499e-22)
(0.550683 -0.0832971 2.64124e-22)
(0.582868 -0.0772249 1.77388e-22)
(0.613191 -0.0710273 -2.06317e-23)
(0.641569 -0.064876 -3.59937e-22)
(0.667965 -0.0589169 2.34621e-22)
(0.692411 -0.0532513 -1.03563e-21)
(0.714959 -0.0479763 2.06491e-21)
(0.735725 -0.0431038 -6.86423e-22)
(0.75477 -0.0386733 9.7553e-23)
(0.772282 -0.0346319 8.703e-22)
(0.788276 -0.0310436 -1.59825e-22)
(0.803063 -0.0277706 1.70803e-22)
(0.816489 -0.0249691 -8.61323e-22)
(0.829136 -0.0223421 3.45458e-22)
(0.840419 -0.0202511 -4.68897e-22)
(0.851562 -0.0180848 1.11068e-22)
(0.860936 -0.0166075 -1.75934e-24)
(0.871217 -0.0147172 2.1548e-22)
(0.87862 -0.0137798 -1.53578e-22)
(0.888759 -0.0121038 8.36009e-23)
(0.894002 -0.0116198 -7.4558e-23)
(0.904835 -0.0103066 -3.34857e-23)
(0.907971 -0.0100779 3.6463e-23)
(0.920217 -0.00922378 -5.68917e-24)
(0.921568 -0.00899503 2.24787e-23)
(0.935613 -0.00847918 -1.38566e-23)
(0.125972 -0.00449765 4.13402e-21)
(0.13233 -0.00886942 -7.45752e-21)
(0.139688 -0.0149226 5.93983e-20)
(0.148751 -0.0219818 3.53314e-20)
(0.159046 -0.0297322 -5.62835e-20)
(0.170598 -0.0381261 -9.36819e-20)
(0.183674 -0.046982 6.77934e-20)
(0.198479 -0.0563509 -1.50765e-20)
(0.215078 -0.066007 -4.37255e-20)
(0.233572 -0.0757759 6.39999e-20)
(0.254024 -0.0854468 -3.12887e-20)
(0.276458 -0.0947719 1.76042e-21)
(0.300824 -0.103496 5.59702e-20)
(0.326997 -0.111275 -2.87881e-20)
(0.354892 -0.117887 5.29089e-21)
(0.384236 -0.123121 -2.6279e-20)
(0.414707 -0.126773 3.04307e-20)
(0.445984 -0.128734 -8.49916e-21)
(0.477699 -0.128966 -1.42625e-20)
(0.509471 -0.127506 1.04515e-20)
(0.540928 -0.12446 -6.9288e-21)
(0.571724 -0.12 7.83001e-21)
(0.60155 -0.114359 -4.67379e-21)
(0.630147 -0.107804 1.75277e-21)
(0.65731 -0.100618 4.14338e-22)
(0.682895 -0.0930692 2.39607e-22)
(0.706809 -0.0854084 3.26374e-22)
(0.729017 -0.0778407 2.82102e-22)
(0.749516 -0.0705404 -1.32353e-21)
(0.768357 -0.0636176 6.26644e-23)
(0.785598 -0.0571842 1.4075e-22)
(0.801362 -0.0512645 6.66141e-23)
(0.815705 -0.0459034 -1.77318e-22)
(0.828794 -0.041028 -4.91074e-22)
(0.840642 -0.0367149 5.65282e-22)
(0.851518 -0.0327909 1.91859e-22)
(0.861295 -0.0294477 -7.83209e-23)
(0.870469 -0.0263203 -2.20868e-22)
(0.878561 -0.0238476 -3.34168e-22)
(0.886595 -0.0212846 3.20492e-22)
(0.893228 -0.0195497 -2.60084e-22)
(0.900655 -0.0173168 -1.848e-23)
(0.90577 -0.0162191 -4.20323e-23)
(0.91315 -0.0142469 1.32911e-23)
(0.91659 -0.0136855 -3.20033e-23)
(0.924605 -0.0121652 9.51495e-23)
(0.926474 -0.0119102 1.86003e-23)
(0.935747 -0.010962 2.55539e-24)
(0.936432 -0.0107053 -3.43784e-23)
(0.947285 -0.0101714 -2.16951e-24)
(0.297174 -0.0117355 -3.23085e-20)
(0.305843 -0.017648 -1.44437e-19)
(0.314477 -0.0244027 2.01059e-21)
(0.324599 -0.0319951 3.6176e-20)
(0.335934 -0.0404119 -8.50717e-21)
(0.348317 -0.0496291 6.05507e-20)
(0.361897 -0.0595038 7.1161e-20)
(0.376818 -0.0698874 -9.27761e-20)
(0.393104 -0.0805915 4.46114e-20)
(0.410776 -0.091423 -4.87545e-20)
(0.429849 -0.10214 7.95131e-20)
(0.450305 -0.112448 -2.6225e-20)
(0.472065 -0.122041 -6.97706e-21)
(0.494986 -0.130563 -3.99317e-21)
(0.518923 -0.137733 1.59289e-20)
(0.543643 -0.143303 1.42951e-20)
(0.568864 -0.147055 -1.91241e-20)
(0.594305 -0.148867 -3.84984e-21)
(0.619682 -0.148708 -1.11663e-20)
(0.644719 -0.146631 1.72873e-21)
(0.669162 -0.142767 1.67738e-21)
(0.692788 -0.137327 7.06304e-21)
(0.71541 -0.130579 -3.84784e-21)
(0.736881 -0.122834 -2.23907e-21)
(0.757098 -0.114413 6.21759e-22)
(0.775999 -0.105622 3.96722e-22)
(0.79355 -0.0967419 4.24692e-22)
(0.809755 -0.0880022 -2.08701e-22)
(0.82463 -0.0795985 -9.72946e-22)
(0.838226 -0.0716497 1.157e-21)
(0.850589 -0.0642691 6.4073e-22)
(0.861823 -0.0574904 -9.33094e-23)
(0.87197 -0.0513713 -2.48998e-22)
(0.88116 -0.0458194 -1.46121e-21)
(0.889386 -0.0409215 3.13256e-22)
(0.896868 -0.0364746 3.78016e-22)
(0.903487 -0.0327009 -6.10003e-22)
(0.909654 -0.0291804 5.72192e-22)
(0.914981 -0.0264153 -2.48102e-22)
(0.920299 -0.023552 1.36515e-22)
(0.924547 -0.0216252 3.54031e-22)
(0.92944 -0.0191366 -4.14969e-22)
(0.932552 -0.0179156 1.60055e-22)
(0.937409 -0.0157278 5.14572e-23)
(0.939255 -0.0151037 -2.10393e-23)
(0.944593 -0.0134517 -3.82386e-23)
(0.945328 -0.0131793 -8.24099e-23)
(0.951689 -0.0122061 5.02266e-23)
(0.951771 -0.0119366 1.7598e-23)
(0.95944 -0.0114468 -1.58141e-24)
(0.476603 -0.0191033 1.62484e-19)
(0.485441 -0.0264066 2.82887e-20)
(0.494401 -0.0340866 1.20553e-19)
(0.504375 -0.04221 -1.38502e-19)
(0.51534 -0.0511069 -1.11635e-20)
(0.527229 -0.0608816 8.54948e-20)
(0.540121 -0.0713769 -1.07454e-19)
(0.554045 -0.0823817 -2.15161e-21)
(0.568941 -0.0937068 1.24075e-19)
(0.584755 -0.105156 -5.75747e-20)
(0.601451 -0.116472 4.96462e-20)
(0.618962 -0.127341 -9.48345e-20)
(0.637168 -0.137421 4.26434e-21)
(0.655905 -0.146329 -1.81024e-20)
(0.674998 -0.153734 5.35999e-20)
(0.694239 -0.159359 -2.30093e-20)
(0.713395 -0.162986 2.41185e-20)
(0.732249 -0.164498 -1.53865e-20)
(0.750614 -0.163877 -4.91902e-21)
(0.768341 -0.161194 -2.97521e-21)
(0.785311 -0.156605 8.91473e-21)
(0.801436 -0.150343 2.33581e-21)