/*--------------------------------*- C++ -*----------------------------------*\
  =========                 |
  \\      /  F ield         | OpenFOAM: The Open Source CFD Toolbox
   \\    /   O peration     | Website:  https://openfoam.org
    \\  /    A nd           | Version:  7
     \\/     M anipulation  |
\*---------------------------------------------------------------------------*/
FoamFile
{
    version     2.0;
    format      ascii;
    class       volScalarField;
    location    "80";
    object      p;
}
// * * * * * * * * * * * * * * * * * * * * * * * * * * * * * * * * * * * * * //

dimensions      [0 2 -2 0 0 0 0];

internalField   nonuniform List<scalar> 
656
(
0.945464
0.941295
0.933001
0.920633
0.904269
0.884011
0.859986
0.832344
0.801256
0.636287
0.766913
0.608804
0.729523
0.578882
0.689314
0.546705
0.646527
0.512469
0.601416
0.476381
0.554245
0.438655
0.505287
0.399517
0.454824
0.359196
0.374273
0.403161
0.317935
0.336856
0.35059
0.275977
0.298624
0.297207
0.23349
0.259753
0.242877
0.190537
0.220385
0.228231
0.189125
0.147802
0.180876
0.195188
0.135815
0.105359
0.141377
0.16197
0.0830061
0.0633464
0.10206
0.128722
0.156401
0.0309559
0.0219735
0.0631165
0.0955971
0.127487
-0.0200728
-0.0185511
0.0247346
0.0627446
0.0986319
-0.0698601
-0.0580342
-0.012905
0.0303104
0.0699546
0.0976628
-0.118182
-0.0963161
-0.0496329
-0.00156435
0.0415703
0.0731197
-0.164841
-0.133217
-0.0853085
-0.0327445
0.0135922
0.0487813
0.0744859
-0.209664
-0.168619
-0.119762
-0.063102
-0.0138703
0.024735
0.0533448
0.073805
-0.252493
-0.202394
-0.152859
-0.0925178
-0.0407118
0.00106631
0.0324253
0.0553918
0.0708231
-0.293187
-0.23443
-0.184486
-0.120878
-0.0668318
-0.0221422
0.011795
0.0371486
0.0546124
0.0717087
-0.331628
-0.26464
-0.214536
-0.148079
-0.0921353
-0.0448112
-0.00848093
0.019129
0.0385639
0.0569719
-0.367715
-0.292952
-0.242917
-0.17403
-0.116534
-0.0668655
-0.0283387
0.00138509
0.0227187
0.0423302
-0.401373
-0.319315
-0.269555
-0.198648
-0.139945
-0.0882328
-0.0477184
-0.0160327
0.00711436
0.0278278
-0.432543
-0.343695
-0.294391
-0.221866
-0.162295
-0.108846
-0.0665623
-0.0330841
-0.00820667
0.0135077
-0.461189
-0.366076
-0.317383
-0.243626
-0.183517
-0.128641
-0.0848148
-0.0497137
-0.0231647
-0.000634322
-0.487282
-0.38645
-0.338503
-0.263883
-0.203554
-0.147562
-0.102424
-0.0658793
-0.0377792
-0.0145124
-0.51082
-0.404832
-0.357741
-0.282604
-0.222357
-0.165557
-0.119343
-0.0815393
-0.0520037
-0.0280955
-0.531939
-0.42131
-0.37513
-0.299785
-0.239892
-0.182581
-0.135525
-0.096653
-0.0657933
-0.041359
-0.550915
-0.436063
-0.390761
-0.315453
-0.256142
-0.198598
-0.150931
-0.111182
-0.0791129
-0.0542748
-0.567071
-0.448795
-0.404501
-0.329543
-0.271063
-0.213568
-0.165522
-0.125092
-0.0919289
-0.0668124
-0.580731
-0.459701
-0.416457
-0.3421
-0.284656
-0.227469
-0.179266
-0.138348
-0.104211
-0.0789471
-0.592098
-0.468921
-0.426723
-0.353173
-0.296929
-0.240283
-0.192135
-0.150924
-0.115929
-0.0906576
-0.601261
-0.476539
-0.435373
-0.362808
-0.307898
-0.252003
-0.204107
-0.16279
-0.127057
-0.101925
-0.60831
-0.482643
-0.442488
-0.371062
-0.317588
-0.262628
-0.215167
-0.173924
-0.13757
-0.112732
-0.613355
-0.48733
-0.448159
-0.378
-0.326037
-0.272165
-0.225302
-0.184306
-0.147444
-0.123065
-0.616511
-0.490703
-0.452485
-0.383699
-0.333289
-0.280631
-0.23451
-0.193917
-0.156663
-0.13291
-0.617902
-0.492864
-0.455566
-0.38824
-0.3394
-0.288052
-0.242793
-0.202744
-0.165211
-0.142253
-0.61765
-0.493917
-0.457507
-0.39171
-0.344433
-0.29446
-0.250163
-0.210777
-0.17308
-0.151077
-0.615882
-0.493965
-0.458412
-0.394198
-0.348458
-0.299897
-0.256636
-0.218008
-0.18027
-0.159358
-0.612725
-0.493107
-0.458385
-0.395797
-0.351548
-0.304411
-0.262239
-0.224434
-0.186786
-0.167058
-0.608304
-0.491442
-0.457528
-0.396598
-0.353782
-0.308055
-0.267004
-0.230052
-0.192647
-0.174115
-0.602743
-0.489062
-0.455937
-0.39669
-0.355241
-0.31089
-0.270971
-0.234865
-0.197881
-0.180436
-0.596167
-0.486055
-0.453707
-0.396161
-0.356005
-0.312979
-0.274189
-0.238875
-0.202528
-0.185877
-0.588694
-0.482507
-0.450925
-0.395095
-0.356155
-0.314388
-0.276709
-0.242089
-0.206641
-0.190215
-0.580441
-0.478495
-0.447675
-0.39357
-0.35577
-0.315186
-0.27859
-0.244517
-0.210293
-0.193156
-0.571518
-0.474091
-0.44403
-0.391656
-0.354923
-0.315442
-0.279893
-0.246175
-0.213598
-0.194448
-0.562035
-0.469363
-0.440061
-0.389422
-0.353683
-0.315223
-0.280677
-0.247079
-0.216655
-0.193562
-0.552134
-0.464405
-0.435852
-0.38694
-0.352124
-0.314602
-0.281003
-0.24727
-0.219188
-0.541983
-0.459337
-0.431504
-0.384291
-0.350321
-0.313654
-0.280943
-0.246903
-0.220991
-0.531471
-0.454045
-0.426956
-0.381453
-0.348288
-0.312424
-0.280562
-0.246201
-0.520778
-0.448647
-0.422303
-0.378497
-0.346087
-0.310979
-0.279922
-0.245394
-0.510035
-0.44322
-0.417608
-0.375473
-0.343769
-0.309372
-0.279059
-0.244551
-0.499331
-0.437809
-0.412916
-0.372416
-0.341372
-0.307648
-0.278002
-0.243673
-0.488757
-0.432459
-0.408265
-0.369357
-0.338929
-0.305844
-0.276781
-0.478399
-0.427214
-0.403694
-0.366328
-0.336472
-0.303994
-0.275433
-0.468347
-0.422118
-0.399244
-0.363356
-0.33403
-0.302129
-0.273995
-0.458683
-0.417214
-0.394951
-0.36047
-0.331634
-0.300277
-0.272501
-0.44949
-0.412543
-0.390852
-0.357698
-0.32931
-0.298464
-0.270988
-0.440846
-0.408144
-0.386985
-0.355066
-0.327085
-0.296715
-0.269487
-0.432828
-0.404056
-0.383383
-0.352602
-0.324987
-0.295055
-0.425509
-0.400314
-0.380081
-0.350331
-0.323041
-0.293507
-0.418945
-0.396958
-0.37711
-0.348278
-0.321272
-0.292093
-0.413183
-0.394029
-0.374502
-0.346467
-0.319706
-0.290836
-0.408303
-0.391537
-0.372283
-0.344921
-0.318363
-0.289754
-0.404344
-0.38951
-0.370477
-0.343659
-0.317263
-0.288865
-0.401342
-0.387971
-0.369103
-0.342697
-0.316422
-0.288185
-0.399324
-0.386936
-0.368179
-0.342048
-0.315854
-0.287724
-0.386416
-0.367714
-0.341721
-0.315568
-0.287492
0.0590246
0.0589452
0.0468291
0.0348319
0.0589376
0.0464045
0.034002
0.0217585
0.0097118
-0.00212223
-0.0136986
0.0590454
0.0460862
0.0332674
0.0206195
0.00818006
-0.00402368
-0.015958
-0.0275936
0.0587346
0.045438
0.032279
0.0192904
0.0065066
-0.00603507
-0.0183066
-0.0302754
-0.129855
-0.12331
-0.129266
-0.135309
-0.122203
-0.128188
-0.134301
-0.140616
-0.114688
-0.120798
-0.126837
-0.132898
-0.13914
-0.145738
-0.106382
-0.112871
-0.119137
-0.125247
-0.131296
-0.137397
-0.143737
-0.150618
-0.103975
-0.110755
-0.117237
-0.123475
-0.129545
-0.135556
-0.141647
-0.148032
-0.155166
-0.0936154
-0.101153
-0.108301
-0.115083
-0.121535
-0.127716
-0.13371
-0.139642
-0.145674
-0.152044
-0.159349
-0.0813251
-0.0897796
-0.0978022
-0.105391
-0.112554
-0.119314
-0.12571
-0.131809
-0.137706
-0.143542
-0.149506
-0.155868
-0.163316
-0.0466319
-0.0569094
-0.0667909
-0.0762509
-0.0852664
-0.0938189
-0.101895
-0.109491
-0.116613
-0.123284
-0.12955
-0.135487
-0.141209
-0.146889
-0.15276
-0.159149
-0.0388996
-0.0498357
-0.060375
-0.0704855
-0.0801365
-0.0892996
-0.0979498
-0.106067
-0.113639
-0.120667
-0.127168
-0.133186
-0.1388
-0.144139
-0.149399
-0.154859
-0.160899
-0.0419083
-0.0531645
-0.0640139
-0.0744223
-0.0843557
-0.0937811
-0.102668
-0.110987
-0.118718
-0.125846
-0.132372
-0.138315
-0.143724
-0.148689
-0.153354
-0.157932
-0.16271
)
;

boundaryField
{
    inlet
    {
        type            zeroGradient;
    }
    outlet
    {
        type            fixedValue;
        value           nonuniform 0();
    }
    cylinder
    {
        type            zeroGradient;
    }
    top
    {
        type            symmetryPlane;
    }
    bottom
    {
        type            symmetryPlane;
    }
    defaultFaces
    {
        type            empty;
    }
    procBoundary5to0
    {
        type            processor;
        value           nonuniform List<scalar> 8(0.0864968 0.0864968 0.0721369 0.0708206 0.0711525 0.0715721 0.0721144 0.0721369);
    }
    procBoundary5to1
    {
        type            processor;
        value           nonuniform List<scalar> 
38
(
0.0591159
0.0473106
0.0473106
0.0357047
0.0229803
0.0229803
0.0113158
-0.000169569
-0.0114066
-0.0249961
-0.0249961
-0.124293
-0.118297
-0.124075
-0.124075
-0.117429
-0.117429
-0.110138
-0.116212
-0.116212
-0.101962
-0.108429
-0.108429
-0.0996225
-0.0996225
-0.0893942
-0.0968613
-0.0968613
-0.0773506
-0.0856812
-0.0856812
-0.0434575
-0.0534937
-0.0631648
-0.0724484
-0.0724484
-0.0359864
-0.0359864
)
;
    }
    procBoundary5to2
    {
        type            processor;
        value           nonuniform List<scalar> 10(-0.135744 -0.141331 -0.146696 -0.1518 -0.156611 -0.161072 -0.165174 -0.169196 -0.166808 -0.166808);
    }
    procBoundary5to4
    {
        type            processor;
        value           nonuniform List<scalar> 
38
(
0.751617
0.748293
0.74167
0.731786
0.718702
0.7025
0.683281
0.661164
0.661164
0.621581
0.597331
0.570863
0.542324
0.511866
0.479655
0.445864
0.410674
0.410674
0.355493
0.324726
0.293164
0.260954
0.260954
0.242303
0.213928
0.185255
0.185255
0.171616
0.147003
0.122321
0.122321
0.117154
0.0957792
0.0957792
0.0923334
0.0923334
0.0871538
0.0871538
)
;
    }
    procBoundary5to6
    {
        type            processor;
        value           nonuniform List<scalar> 
28
(
-0.168149
-0.186813
-0.173477
-0.186813
-0.165956
-0.223149
-0.223149
-0.22508
-0.226255
-0.226731
-0.242768
-0.242768
-0.241854
-0.240946
-0.240055
-0.239193
-0.23837
-0.268032
-0.268032
-0.266653
-0.265379
-0.264235
-0.263244
-0.262426
-0.261798
-0.261372
-0.168269
-0.168149
)
;
    }
    procBoundary5to9
    {
        type            processor;
        value           nonuniform List<scalar> 8(-0.386416 -0.367714 -0.341721 -0.315568 -0.287492 0.945464 -0.398309 -0.398309);
    }
    procBoundary5to10
    {
        type            processor;
        value           uniform -0.261156;
    }
}


// ************************************************************************* //
