# Force coefficients
# liftDir     : (0.000000e+00 1.000000e+00 0.000000e+00)
# dragDir     : (1.000000e+00 0.000000e+00 0.000000e+00)
# pitchAxis   : (0.000000e+00 0.000000e+00 1.000000e+00)
# magUInf     : 1.000000e+00
# lRef        : 1.000000e+00
# Aref        : 1.000000e-01
# CofR        : (0.000000e+00 0.000000e+00 0.000000e+00)
# Time        	Cm            	Cd            	Cl            	Cl(f)         	Cl(r)         
0.005         	-1.469647e-11	3.083902e+02	1.242251e-06	6.211106e-07	6.211400e-07
0.01          	3.851860e-10	1.052588e+01	-1.996667e-06	-9.979485e-07	-9.987188e-07
0.015         	5.765014e-10	5.227604e+00	7.769130e-07	3.890330e-07	3.878800e-07
0.02          	5.223631e-10	4.293292e+00	-1.656714e-07	-8.231336e-08	-8.335809e-08
0.025         	4.501996e-10	3.912453e+00	9.975439e-08	5.032739e-08	4.942700e-08
0.03          	8.873433e-10	3.711615e+00	1.682727e-07	8.502367e-08	8.324898e-08
0.035         	1.128076e-09	3.583616e+00	1.464876e-07	7.437186e-08	7.211571e-08
0.04          	1.258261e-09	3.488418e+00	-5.332007e-08	-2.540178e-08	-2.791830e-08
0.045         	1.317831e-09	3.409536e+00	-1.819232e-07	-8.964375e-08	-9.227941e-08
0.05          	1.314928e-09	3.339501e+00	4.327917e-08	2.295451e-08	2.032466e-08
0.055         	1.262593e-09	3.274871e+00	6.631487e-08	3.442003e-08	3.189484e-08
0.06          	1.175739e-09	3.213766e+00	1.525240e-07	7.743771e-08	7.508624e-08
0.065         	1.061327e-09	3.155450e+00	5.315572e-08	2.763919e-08	2.551653e-08
0.07          	9.267618e-10	3.099537e+00	4.257762e-08	2.221557e-08	2.036205e-08
0.075         	7.770066e-10	3.045662e+00	3.678319e-08	1.916860e-08	1.761459e-08
0.08          	6.199499e-10	2.993915e+00	2.889519e-08	1.506754e-08	1.382764e-08
0.085         	1.167950e-09	2.944113e+00	-7.438497e-08	-3.602454e-08	-3.836044e-08
0.09          	1.644793e-09	2.896271e+00	-1.060086e-07	-5.135949e-08	-5.464907e-08
0.095         	2.050043e-09	2.850133e+00	-1.131521e-07	-5.452601e-08	-5.862610e-08
0.1           	2.394752e-09	2.805867e+00	-1.312637e-07	-6.323708e-08	-6.802658e-08
0.105         	2.681001e-09	2.763116e+00	-1.374237e-07	-6.603085e-08	-7.139285e-08
0.11          	2.919738e-09	2.722071e+00	-1.517010e-07	-7.293078e-08	-7.877025e-08
0.115         	3.113739e-09	2.682524e+00	-1.609731e-07	-7.737280e-08	-8.360028e-08
0.12          	3.270228e-09	2.644515e+00	-1.694746e-07	-8.146710e-08	-8.800755e-08
0.125         	3.392558e-09	2.608091e+00	-1.758905e-07	-8.455270e-08	-9.133782e-08
0.13          	3.484678e-09	2.573069e+00	-1.811633e-07	-8.709696e-08	-9.406631e-08
0.135         	3.551247e-09	2.539136e+00	-1.947956e-07	-9.384655e-08	-1.009490e-07
0.14          	3.597272e-09	2.506654e+00	-1.934095e-07	-9.310749e-08	-1.003020e-07
0.145         	3.624659e-09	2.475205e+00	-2.054823e-07	-9.911650e-08	-1.063658e-07
0.15          	3.637678e-09	2.445038e+00	-2.154930e-07	-1.041088e-07	-1.113842e-07
0.155         	3.638394e-09	2.416035e+00	-2.158208e-07	-1.042720e-07	-1.115488e-07
0.16          	3.627452e-09	2.388030e+00	-2.142045e-07	-1.034748e-07	-1.107297e-07
0.165         	3.609601e-09	2.361169e+00	-2.220854e-07	-1.074331e-07	-1.146523e-07
0.17          	3.584997e-09	2.335149e+00	-2.355924e-07	-1.142112e-07	-1.213812e-07
0.175         	3.558697e-09	2.310093e+00	-2.324069e-07	-1.126448e-07	-1.197622e-07
0.18          	3.529054e-09	2.285921e+00	-2.407555e-07	-1.168487e-07	-1.239068e-07
0.185         	3.498022e-09	2.262742e+00	-2.300102e-07	-1.115071e-07	-1.185031e-07
0.19          	3.464477e-09	2.240213e+00	-2.537550e-07	-1.234130e-07	-1.303420e-07
0.195         	3.433414e-09	2.218559e+00	-2.459345e-07	-1.195338e-07	-1.264007e-07
0.2           	3.402094e-09	2.197626e+00	-2.470023e-07	-1.200991e-07	-1.269033e-07
0.205         	3.372581e-09	2.177643e+00	-2.511164e-07	-1.221856e-07	-1.289308e-07
0.21          	3.344794e-09	2.158138e+00	-2.495827e-07	-1.214465e-07	-1.281361e-07
0.215         	3.319593e-09	2.139425e+00	-2.504956e-07	-1.219282e-07	-1.285674e-07
0.22          	3.296659e-09	2.121429e+00	-2.655318e-07	-1.294693e-07	-1.360626e-07
0.225         	3.277110e-09	2.103864e+00	-2.503333e-07	-1.218895e-07	-1.284438e-07
0.23          	3.260283e-09	2.087030e+00	-2.598647e-07	-1.266721e-07	-1.331927e-07
0.235         	3.247181e-09	2.070693e+00	-2.640090e-07	-1.287573e-07	-1.352517e-07
0.24          	3.237725e-09	2.054978e+00	-2.722533e-07	-1.328889e-07	-1.393644e-07
0.245         	3.231894e-09	2.039827e+00	-2.655573e-07	-1.295468e-07	-1.360105e-07
0.25          	3.229932e-09	2.025335e+00	-2.711216e-07	-1.323309e-07	-1.387907e-07
0.255         	3.229293e-09	2.011367e+00	-2.785972e-07	-1.360693e-07	-1.425279e-07
0.26          	3.234337e-09	1.997708e+00	-2.839142e-07	-1.387228e-07	-1.451915e-07
0.265         	3.238862e-09	1.984600e+00	-2.788495e-07	-1.361859e-07	-1.426636e-07
0.27          	3.248718e-09	1.971807e+00	-2.843478e-07	-1.389252e-07	-1.454226e-07
0.275         	3.259603e-09	1.959526e+00	-2.897140e-07	-1.415974e-07	-1.481166e-07
0.28          	3.271722e-09	1.947597e+00	-2.833915e-07	-1.384240e-07	-1.449675e-07
0.285         	3.290321e-09	1.936078e+00	-2.784955e-07	-1.359574e-07	-1.425381e-07
0.29          	3.308727e-09	1.924931e+00	-2.851426e-07	-1.392626e-07	-1.458800e-07
0.295         	3.329683e-09	1.914144e+00	-2.809391e-07	-1.371399e-07	-1.437993e-07
0.3           	3.353043e-09	1.903979e+00	-2.770136e-07	-1.351537e-07	-1.418598e-07
0.305         	3.378629e-09	1.893849e+00	-3.851413e-07	-1.891920e-07	-1.959493e-07
0.31          	3.401541e-09	1.884384e+00	-1.881477e-07	-9.067229e-08	-9.747537e-08
0.315         	3.427830e-09	1.875012e+00	-3.786436e-07	-1.858940e-07	-1.927496e-07
0.32          	3.455644e-09	1.865915e+00	-2.829366e-07	-1.380127e-07	-1.449239e-07
0.325         	3.483883e-09	1.857125e+00	-2.838358e-07	-1.384340e-07	-1.454018e-07
0.33          	3.512890e-09	1.848667e+00	-2.832407e-07	-1.381075e-07	-1.451332e-07
0.335         	3.542037e-09	1.840497e+00	-2.841257e-07	-1.385208e-07	-1.456049e-07
0.34          	3.571831e-09	1.832615e+00	-2.774998e-07	-1.351781e-07	-1.423217e-07
0.345         	3.601641e-09	1.825005e+00	-2.786243e-07	-1.357105e-07	-1.429138e-07
0.35          	3.631839e-09	1.817740e+00	-2.822771e-07	-1.375067e-07	-1.447704e-07
0.355         	3.661539e-09	1.810996e+00	-2.809436e-07	-1.368102e-07	-1.441333e-07
0.36          	3.691215e-09	1.804450e+00	-2.807586e-07	-1.366881e-07	-1.440705e-07
0.365         	3.721642e-09	1.797149e+00	-2.920873e-07	-1.423220e-07	-1.497653e-07
0.37          	3.751591e-09	1.789508e+00	-2.808517e-07	-1.366742e-07	-1.441774e-07
0.375         	3.777540e-09	1.782435e+00	-2.862787e-07	-1.393618e-07	-1.469169e-07
0.38          	3.803305e-09	1.776191e+00	-2.727395e-07	-1.325664e-07	-1.401730e-07
0.385         	3.828994e-09	1.769998e+00	-2.755031e-07	-1.339225e-07	-1.415805e-07
0.39          	3.853609e-09	1.764343e+00	-2.709101e-07	-1.316014e-07	-1.393087e-07
0.395         	3.876908e-09	1.758830e+00	-2.760768e-07	-1.341615e-07	-1.419153e-07
0.4           	3.899218e-09	1.753425e+00	-2.743945e-07	-1.332980e-07	-1.410964e-07
0.405         	3.921194e-09	1.748280e+00	-2.749241e-07	-1.335409e-07	-1.413833e-07
0.41          	3.941852e-09	1.743512e+00	-2.757576e-07	-1.339370e-07	-1.418207e-07
0.415         	3.961535e-09	1.738851e+00	-2.746620e-07	-1.333694e-07	-1.412925e-07
0.42          	3.979013e-09	1.734132e+00	-2.745600e-07	-1.333010e-07	-1.412590e-07
0.425         	3.995039e-09	1.729735e+00	-2.765554e-07	-1.342827e-07	-1.422727e-07
0.43          	4.010181e-09	1.725717e+00	-2.779068e-07	-1.349432e-07	-1.429636e-07
0.435         	4.024535e-09	1.721839e+00	-2.764797e-07	-1.342153e-07	-1.422644e-07
0.44          	4.037200e-09	1.717739e+00	-2.737711e-07	-1.328483e-07	-1.409227e-07
0.445         	4.049531e-09	1.713792e+00	-2.759909e-07	-1.339459e-07	-1.420450e-07
0.45          	4.060308e-09	1.710202e+00	-2.730589e-07	-1.324692e-07	-1.405898e-07
0.455         	4.069577e-09	1.706715e+00	-2.728650e-07	-1.323629e-07	-1.405021e-07
0.46          	4.077120e-09	1.703548e+00	-2.835429e-07	-1.376943e-07	-1.458485e-07
0.465         	4.083582e-09	1.700352e+00	-2.694389e-07	-1.306359e-07	-1.388030e-07
0.47          	4.088021e-09	1.697070e+00	-2.768890e-07	-1.343565e-07	-1.425325e-07
0.475         	4.090240e-09	1.694175e+00	-2.759035e-07	-1.338615e-07	-1.420420e-07
0.48          	4.091117e-09	1.691268e+00	-2.738018e-07	-1.328098e-07	-1.409920e-07
0.485         	4.091689e-09	1.688524e+00	-2.787114e-07	-1.352640e-07	-1.434474e-07
0.49          	4.090091e-09	1.685867e+00	-2.780948e-07	-1.349573e-07	-1.431375e-07
0.495         	4.087732e-09	1.683326e+00	-2.792967e-07	-1.355606e-07	-1.437361e-07
0.5           	4.083456e-09	1.680952e+00	-2.761605e-07	-1.339968e-07	-1.421637e-07
0.505         	4.078512e-09	1.678406e+00	-2.758310e-07	-1.338370e-07	-1.419940e-07
0.51          	4.072087e-09	1.676157e+00	-2.795505e-07	-1.357032e-07	-1.438473e-07
0.515         	4.064187e-09	1.674011e+00	-2.789837e-07	-1.354277e-07	-1.435561e-07
0.52          	4.055256e-09	1.671975e+00	-2.782113e-07	-1.350504e-07	-1.431609e-07
0.525         	4.045355e-09	1.670036e+00	-2.867354e-07	-1.393224e-07	-1.474131e-07
0.53          	4.035100e-09	1.668174e+00	-2.809735e-07	-1.364516e-07	-1.445218e-07
0.535         	4.024287e-09	1.666512e+00	-2.861532e-07	-1.390523e-07	-1.471009e-07
0.54          	4.012309e-09	1.665417e+00	-2.895242e-07	-1.407498e-07	-1.487744e-07
0.545         	3.998937e-09	1.663655e+00	-2.755295e-07	-1.337658e-07	-1.417637e-07
0.55          	3.984181e-09	1.661056e+00	-2.704862e-07	-1.312589e-07	-1.392273e-07
0.555         	3.970216e-09	1.658892e+00	-3.333572e-07	-1.627084e-07	-1.706488e-07
0.56          	3.952817e-09	1.657036e+00	-2.846093e-07	-1.383518e-07	-1.462575e-07
0.565         	3.934504e-09	1.655796e+00	-2.873021e-07	-1.397166e-07	-1.475856e-07
0.57          	3.916457e-09	1.653869e+00	-2.377709e-07	-1.149690e-07	-1.228019e-07
0.575         	3.896459e-09	1.652580e+00	-3.293785e-07	-1.607928e-07	-1.685857e-07
0.58          	3.873489e-09	1.651596e+00	-2.909690e-07	-1.416110e-07	-1.493580e-07
0.585         	3.855035e-09	1.650321e+00	-2.404251e-07	-1.163575e-07	-1.240676e-07
0.59          	3.832801e-09	1.648813e+00	-2.752636e-07	-1.337990e-07	-1.414646e-07
0.595         	3.809942e-09	1.647844e+00	-2.839474e-07	-1.381637e-07	-1.457836e-07
0.6           	3.788705e-09	1.646980e+00	-2.833564e-07	-1.378895e-07	-1.454669e-07
0.605         	3.763467e-09	1.646393e+00	-2.821555e-07	-1.373143e-07	-1.448412e-07
0.61          	3.737487e-09	1.644924e+00	-2.759231e-07	-1.342241e-07	-1.416991e-07
0.615         	3.712351e-09	1.643981e+00	-2.821148e-07	-1.373451e-07	-1.447698e-07
0.62          	3.685347e-09	1.643218e+00	-2.805354e-07	-1.365824e-07	-1.439531e-07
0.625         	3.657286e-09	1.642542e+00	-2.747908e-07	-1.337381e-07	-1.410527e-07
0.63          	3.628462e-09	1.641880e+00	-2.764344e-07	-1.345887e-07	-1.418457e-07
0.635         	3.601492e-09	1.641420e+00	-2.852065e-07	-1.390017e-07	-1.462047e-07
0.64          	3.572707e-09	1.640867e+00	-2.821452e-07	-1.374999e-07	-1.446453e-07
0.645         	3.542621e-09	1.639911e+00	-2.783607e-07	-1.356377e-07	-1.427230e-07
0.65          	3.513754e-09	1.639421e+00	-2.805948e-07	-1.367836e-07	-1.438111e-07
0.655         	3.483016e-09	1.638967e+00	-2.812116e-07	-1.371228e-07	-1.440888e-07
0.66          	3.451769e-09	1.638552e+00	-2.821081e-07	-1.376023e-07	-1.445058e-07
0.665         	3.420557e-09	1.638164e+00	-2.784703e-07	-1.358146e-07	-1.426557e-07
0.67          	3.389243e-09	1.637794e+00	-2.927829e-07	-1.430022e-07	-1.497807e-07
0.675         	3.356386e-09	1.637521e+00	-2.791381e-07	-1.362126e-07	-1.429254e-07
0.68          	3.325690e-09	1.637434e+00	-2.818771e-07	-1.376129e-07	-1.442642e-07
0.685         	3.292649e-09	1.636841e+00	-2.763632e-07	-1.348890e-07	-1.414742e-07
0.69          	3.261582e-09	1.636569e+00	-2.830563e-07	-1.382666e-07	-1.447897e-07
0.695         	3.228505e-09	1.636435e+00	-2.772694e-07	-1.354062e-07	-1.418632e-07
0.7           	3.195840e-09	1.636422e+00	-2.816784e-07	-1.376434e-07	-1.440351e-07
0.705         	3.163217e-09	1.636880e+00	-2.839973e-07	-1.388354e-07	-1.451619e-07
0.71          	3.129945e-09	1.636500e+00	-2.832637e-07	-1.385019e-07	-1.447618e-07
0.715         	3.096533e-09	1.635556e+00	-2.875660e-07	-1.406865e-07	-1.468795e-07
0.72          	3.063379e-09	1.635618e+00	-2.895023e-07	-1.416878e-07	-1.478145e-07
0.725         	3.028919e-09	1.635485e+00	-2.832604e-07	-1.386013e-07	-1.446591e-07
0.73          	2.995464e-09	1.634955e+00	-2.880155e-07	-1.410123e-07	-1.470032e-07
0.735         	2.962028e-09	1.635091e+00	-2.908627e-07	-1.424693e-07	-1.483934e-07
0.74          	2.927362e-09	1.635625e+00	-2.835828e-07	-1.388640e-07	-1.447188e-07
0.745         	2.892596e-09	1.635052e+00	-2.826200e-07	-1.384174e-07	-1.442026e-07
0.75          	2.856536e-09	1.634917e+00	-2.934886e-07	-1.438878e-07	-1.496008e-07
0.755         	2.821757e-09	1.635019e+00	-2.919098e-07	-1.431331e-07	-1.487767e-07
0.76          	2.786392e-09	1.635279e+00	-2.917337e-07	-1.430804e-07	-1.486532e-07
0.765         	2.751185e-09	1.635559e+00	-2.942087e-07	-1.443532e-07	-1.498555e-07
0.77          	2.717686e-09	1.635804e+00	-2.842079e-07	-1.393863e-07	-1.448216e-07
0.775         	2.682928e-09	1.635369e+00	-2.899972e-07	-1.423157e-07	-1.476815e-07
0.78          	2.648103e-09	1.635667e+00	-3.040244e-07	-1.493641e-07	-1.546603e-07
0.785         	2.614753e-09	1.635923e+00	-2.916548e-07	-1.432126e-07	-1.484421e-07
0.79          	2.581810e-09	1.636193e+00	-2.902088e-07	-1.425226e-07	-1.476862e-07
0.795         	2.546274e-09	1.636470e+00	-2.962897e-07	-1.455986e-07	-1.506911e-07
0.8           	2.513785e-09	1.636809e+00	-2.942345e-07	-1.446035e-07	-1.496310e-07
0.805         	2.481085e-09	1.637404e+00	-2.955857e-07	-1.453118e-07	-1.502740e-07
0.81          	2.448046e-09	1.637161e+00	-2.970647e-07	-1.460843e-07	-1.509804e-07
0.815         	2.415393e-09	1.637308e+00	-2.883958e-07	-1.417825e-07	-1.466133e-07
0.82          	2.383148e-09	1.637673e+00	-2.971817e-07	-1.462077e-07	-1.509740e-07
0.825         	2.350562e-09	1.637985e+00	-2.947132e-07	-1.450060e-07	-1.497072e-07
0.83          	2.318094e-09	1.638339e+00	-2.960078e-07	-1.456858e-07	-1.503220e-07
0.835         	2.285815e-09	1.638680e+00	-2.955061e-07	-1.454672e-07	-1.500389e-07
0.84          	2.253904e-09	1.638989e+00	-2.947191e-07	-1.451056e-07	-1.496134e-07
0.845         	2.222711e-09	1.639415e+00	-3.039384e-07	-1.497465e-07	-1.541919e-07
0.85          	2.190204e-09	1.640020e+00	-2.949883e-07	-1.453039e-07	-1.496844e-07
0.855         	2.158480e-09	1.640535e+00	-2.965741e-07	-1.461286e-07	-1.504455e-07
0.86          	2.127446e-09	1.641086e+00	-2.945575e-07	-1.451513e-07	-1.494062e-07
0.865         	2.096551e-09	1.641181e+00	-2.933296e-07	-1.445682e-07	-1.487613e-07
0.87          	2.064280e-09	1.642074e+00	-2.980826e-07	-1.469770e-07	-1.511056e-07
0.875         	2.033930e-09	1.642139e+00	-2.879235e-07	-1.419278e-07	-1.459957e-07
0.88          	2.001545e-09	1.642315e+00	-2.974436e-07	-1.467203e-07	-1.507234e-07
0.885         	1.969279e-09	1.642280e+00	-3.008814e-07	-1.484714e-07	-1.524100e-07
0.89          	1.936511e-09	1.642880e+00	-2.990264e-07	-1.475767e-07	-1.514497e-07
0.895         	1.907301e-09	1.643574e+00	-2.961500e-07	-1.461677e-07	-1.499823e-07
0.9           	1.876382e-09	1.643344e+00	-3.097987e-07	-1.530229e-07	-1.567757e-07
0.905         	1.844930e-09	1.643836e+00	-2.877701e-07	-1.420401e-07	-1.457300e-07
0.91          	1.813770e-09	1.644361e+00	-3.022273e-07	-1.492999e-07	-1.529274e-07
0.915         	1.785054e-09	1.644981e+00	-2.989032e-07	-1.476665e-07	-1.512366e-07
0.92          	1.755913e-09	1.645912e+00	-2.973751e-07	-1.469317e-07	-1.504435e-07
0.925         	1.728122e-09	1.645691e+00	-3.044656e-07	-1.505047e-07	-1.539609e-07
0.93          	1.698294e-09	1.646144e+00	-2.934874e-07	-1.450454e-07	-1.484420e-07
0.935         	1.669042e-09	1.646879e+00	-3.007628e-07	-1.487123e-07	-1.520504e-07
0.94          	1.641104e-09	1.646983e+00	-2.980809e-07	-1.473993e-07	-1.506815e-07
0.945         	1.614129e-09	1.647479e+00	-3.033739e-07	-1.500728e-07	-1.533011e-07
0.95          	1.586953e-09	1.648006e+00	-2.994698e-07	-1.481480e-07	-1.513219e-07
0.955         	1.559744e-09	1.648623e+00	-2.986073e-07	-1.477439e-07	-1.508634e-07
0.96          	1.530560e-09	1.649488e+00	-3.041776e-07	-1.505582e-07	-1.536193e-07
0.965         	1.505261e-09	1.649291e+00	-3.352928e-07	-1.661411e-07	-1.691517e-07
0.97          	1.475454e-09	1.649749e+00	-2.929192e-07	-1.449841e-07	-1.479350e-07
0.975         	1.447681e-09	1.650270e+00	-2.977961e-07	-1.474504e-07	-1.503457e-07
0.98          	1.420767e-09	1.650775e+00	-2.936611e-07	-1.454098e-07	-1.482513e-07
0.985         	1.393999e-09	1.651321e+00	-2.963626e-07	-1.467873e-07	-1.495753e-07
0.99          	1.366825e-09	1.651844e+00	-3.015066e-07	-1.493865e-07	-1.521201e-07
0.995         	1.341134e-09	1.652370e+00	-2.996100e-07	-1.484638e-07	-1.511461e-07
1             	1.314401e-09	1.652900e+00	-3.021243e-07	-1.497477e-07	-1.523765e-07
1.005         	1.289444e-09	1.653447e+00	-2.998491e-07	-1.486351e-07	-1.512140e-07
1.01          	1.263641e-09	1.654022e+00	-3.002648e-07	-1.488688e-07	-1.513960e-07
1.015         	1.237577e-09	1.654723e+00	-3.008808e-07	-1.492028e-07	-1.516780e-07
1.02          	1.213508e-09	1.655151e+00	-2.995494e-07	-1.485612e-07	-1.509882e-07
1.025         	1.188569e-09	1.655198e+00	-3.238206e-07	-1.607217e-07	-1.630988e-07
1.03          	1.163975e-09	1.655771e+00	-2.829073e-07	-1.402897e-07	-1.426176e-07
1.035         	1.140339e-09	1.656424e+00	-3.018440e-07	-1.497817e-07	-1.520623e-07
1.04          	1.115847e-09	1.657328e+00	-3.045216e-07	-1.511450e-07	-1.533767e-07
1.045         	1.094113e-09	1.657320e+00	-2.953460e-07	-1.465789e-07	-1.487671e-07
1.05          	1.072169e-09	1.658206e+00	-3.065093e-07	-1.521825e-07	-1.543268e-07
1.055         	1.047956e-09	1.658034e+00	-2.939827e-07	-1.459434e-07	-1.480393e-07
1.06          	1.026461e-09	1.658561e+00	-3.113583e-07	-1.546527e-07	-1.567056e-07
1.065         	1.003383e-09	1.659085e+00	-3.013015e-07	-1.496474e-07	-1.516542e-07
1.07          	9.801996e-10	1.659746e+00	-3.016517e-07	-1.498456e-07	-1.518060e-07
1.075         	9.572285e-10	1.660432e+00	-3.047958e-07	-1.514407e-07	-1.533551e-07
1.08          	9.361447e-10	1.660348e+00	-2.906903e-07	-1.444090e-07	-1.462813e-07
1.085         	9.137563e-10	1.660866e+00	-3.166891e-07	-1.574308e-07	-1.592583e-07
1.09          	8.926042e-10	1.661397e+00	-3.035581e-07	-1.508865e-07	-1.526717e-07
1.095         	8.718624e-10	1.662033e+00	-3.016611e-07	-1.499587e-07	-1.517024e-07
1.1           	8.502984e-10	1.662792e+00	-3.048310e-07	-1.515652e-07	-1.532658e-07
1.105         	8.292640e-10	1.662862e+00	-3.131462e-07	-1.557438e-07	-1.574024e-07
1.11          	8.096097e-10	1.663573e+00	-2.932220e-07	-1.458014e-07	-1.474206e-07
1.115         	7.885709e-10	1.663504e+00	-2.914382e-07	-1.449305e-07	-1.465077e-07
1.12          	7.693329e-10	1.663954e+00	-3.163291e-07	-1.573952e-07	-1.589339e-07
1.125         	7.505031e-10	1.664493e+00	-2.987611e-07	-1.486300e-07	-1.501311e-07
1.13          	7.332345e-10	1.664912e+00	-3.029843e-07	-1.507589e-07	-1.522254e-07
1.135         	7.146187e-10	1.665423e+00	-3.061985e-07	-1.523846e-07	-1.538138e-07
1.14          	6.974684e-10	1.665857e+00	-3.038625e-07	-1.512338e-07	-1.526287e-07
1.145         	6.799618e-10	1.666338e+00	-3.044191e-07	-1.515296e-07	-1.528895e-07
1.15          	6.622826e-10	1.666787e+00	-3.037700e-07	-1.512227e-07	-1.525473e-07
1.155         	6.455807e-10	1.667304e+00	-3.111013e-07	-1.549051e-07	-1.561962e-07
1.16          	6.277823e-10	1.667772e+00	-2.985899e-07	-1.486672e-07	-1.499227e-07
1.165         	6.098747e-10	1.668405e+00	-3.013847e-07	-1.500825e-07	-1.513022e-07
1.17          	5.909753e-10	1.668798e+00	-3.059287e-07	-1.523734e-07	-1.535553e-07
1.175         	5.740814e-10	1.668738e+00	-2.801931e-07	-1.395225e-07	-1.406706e-07
1.18          	5.561441e-10	1.669168e+00	-3.270263e-07	-1.629570e-07	-1.640693e-07
1.185         	5.398509e-10	1.669601e+00	-3.047640e-07	-1.518422e-07	-1.529219e-07
1.19          	5.229131e-10	1.670028e+00	-3.047428e-07	-1.518485e-07	-1.528943e-07
1.195         	5.064899e-10	1.670454e+00	-3.060079e-07	-1.524975e-07	-1.535105e-07
1.2           	4.903899e-10	1.670884e+00	-3.050198e-07	-1.520195e-07	-1.530003e-07
1.205         	4.739459e-10	1.671301e+00	-2.976662e-07	-1.483591e-07	-1.493070e-07
1.21          	4.575820e-10	1.671728e+00	-2.999135e-07	-1.494992e-07	-1.504143e-07
1.215         	4.411526e-10	1.672275e+00	-3.025113e-07	-1.508145e-07	-1.516968e-07
1.22          	4.247511e-10	1.672732e+00	-3.084565e-07	-1.538035e-07	-1.546530e-07
1.225         	4.091836e-10	1.672939e+00	-2.852844e-07	-1.422330e-07	-1.430514e-07
1.23          	3.908912e-10	1.673625e+00	-3.159074e-07	-1.575628e-07	-1.583446e-07
1.235         	3.764103e-10	1.673629e+00	-2.852001e-07	-1.422237e-07	-1.429765e-07
1.24          	3.599794e-10	1.673670e+00	-2.795305e-07	-1.394053e-07	-1.401252e-07
1.245         	3.428897e-10	1.674118e+00	-3.336557e-07	-1.664849e-07	-1.671707e-07
1.25          	3.270521e-10	1.674797e+00	-3.000301e-07	-1.496880e-07	-1.503421e-07
1.255         	3.125463e-10	1.674662e+00	-2.852432e-07	-1.423091e-07	-1.429342e-07
1.26          	2.964458e-10	1.674971e+00	-3.506627e-07	-1.750349e-07	-1.756278e-07
1.265         	2.812956e-10	1.675631e+00	-2.809384e-07	-1.401879e-07	-1.407505e-07
1.27          	2.668893e-10	1.675423e+00	-2.951597e-07	-1.473130e-07	-1.478467e-07
1.275         	2.512221e-10	1.675787e+00	-3.362872e-07	-1.678924e-07	-1.683948e-07
1.28          	2.371187e-10	1.676136e+00	-3.044880e-07	-1.520069e-07	-1.524811e-07
1.285         	2.225887e-10	1.676474e+00	-3.056384e-07	-1.525966e-07	-1.530418e-07
1.29          	2.077361e-10	1.676800e+00	-3.011783e-07	-1.503814e-07	-1.507969e-07
1.295         	1.945140e-10	1.677135e+00	-3.070298e-07	-1.533204e-07	-1.537094e-07
1.3           	1.806737e-10	1.677465e+00	-3.030653e-07	-1.513520e-07	-1.517133e-07
1.305         	1.664943e-10	1.677789e+00	-2.887713e-07	-1.442192e-07	-1.445522e-07
1.31          	1.510765e-10	1.678200e+00	-3.082944e-07	-1.539961e-07	-1.542983e-07
1.315         	1.354752e-10	1.678712e+00	-2.756135e-07	-1.376713e-07	-1.379422e-07
1.32          	1.232081e-10	1.678666e+00	-2.865860e-07	-1.431698e-07	-1.434162e-07
1.325         	1.095541e-10	1.678792e+00	-3.055147e-07	-1.526478e-07	-1.528669e-07
1.33          	9.634684e-11	1.679064e+00	-3.064586e-07	-1.531329e-07	-1.533256e-07
1.335         	8.209190e-11	1.679333e+00	-2.971594e-07	-1.484976e-07	-1.486618e-07
1.34          	6.729322e-11	1.679515e+00	-3.043978e-07	-1.521316e-07	-1.522662e-07
1.345         	5.276672e-11	1.679770e+00	-3.272298e-07	-1.635621e-07	-1.636676e-07
1.35          	3.929511e-11	1.680108e+00	-2.947315e-07	-1.473265e-07	-1.474050e-07
1.355         	2.413110e-11	1.680457e+00	-3.012867e-07	-1.506192e-07	-1.506675e-07
1.36          	1.163788e-11	1.680679e+00	-2.786768e-07	-1.393268e-07	-1.393500e-07
1.365         	-2.650577e-12	1.680937e+00	-3.005882e-07	-1.502968e-07	-1.502915e-07
1.37          	-1.722308e-11	1.681201e+00	-3.004757e-07	-1.502551e-07	-1.502206e-07
1.375         	-3.108299e-11	1.681509e+00	-3.264295e-07	-1.632458e-07	-1.631837e-07
1.38          	-4.553625e-11	1.681788e+00	-2.445942e-07	-1.223426e-07	-1.222516e-07
1.385         	-5.822729e-11	1.681660e+00	-2.920706e-07	-1.460935e-07	-1.459771e-07
1.39          	-7.076754e-11	1.681971e+00	-3.192143e-07	-1.596779e-07	-1.595364e-07
1.395         	-8.252817e-11	1.682422e+00	-2.921097e-07	-1.461374e-07	-1.459723e-07
1.4           	-9.494148e-11	1.682156e+00	-3.006781e-07	-1.504340e-07	-1.502441e-07
1.405         	-1.080157e-10	1.682367e+00	-2.929587e-07	-1.465874e-07	-1.463713e-07
1.41          	-1.215539e-10	1.682496e+00	-2.965774e-07	-1.484102e-07	-1.481671e-07
1.415         	-1.350661e-10	1.682609e+00	-2.992357e-07	-1.497529e-07	-1.494828e-07
1.42          	-1.484112e-10	1.682805e+00	-3.010082e-07	-1.506525e-07	-1.503557e-07
1.425         	-1.614269e-10	1.683097e+00	-3.250480e-07	-1.626855e-07	-1.623626e-07
1.43          	-1.740512e-10	1.683215e+00	-2.718576e-07	-1.361029e-07	-1.357548e-07
1.435         	-1.870144e-10	1.683239e+00	-2.982992e-07	-1.493366e-07	-1.489626e-07
1.44          	-1.992605e-10	1.683395e+00	-2.992500e-07	-1.498242e-07	-1.494257e-07
1.445         	-2.120885e-10	1.683544e+00	-2.975644e-07	-1.489943e-07	-1.485701e-07
1.45          	-2.243373e-10	1.683691e+00	-2.968313e-07	-1.486400e-07	-1.481913e-07
1.455         	-2.367056e-10	1.683840e+00	-2.962719e-07	-1.483726e-07	-1.478992e-07
1.46          	-2.489631e-10	1.683992e+00	-2.966575e-07	-1.485777e-07	-1.480798e-07
1.465         	-2.610446e-10	1.684170e+00	-2.974767e-07	-1.489994e-07	-1.484773e-07
1.47          	-2.731051e-10	1.684631e+00	-2.936117e-07	-1.470790e-07	-1.465328e-07
1.475         	-2.854466e-10	1.684281e+00	-3.519814e-07	-1.762762e-07	-1.757053e-07
1.48          	-2.977101e-10	1.684405e+00	-2.341846e-07	-1.173900e-07	-1.167946e-07
1.485         	-3.095599e-10	1.684527e+00	-2.979055e-07	-1.492623e-07	-1.486432e-07
1.49          	-3.216633e-10	1.684608e+00	-2.941857e-07	-1.474145e-07	-1.467712e-07
1.495         	-3.334834e-10	1.684718e+00	-2.947458e-07	-1.477064e-07	-1.470394e-07
1.5           	-3.452867e-10	1.684828e+00	-2.938190e-07	-1.472548e-07	-1.465642e-07
1.505         	-3.570504e-10	1.684943e+00	-2.935279e-07	-1.471210e-07	-1.464069e-07
1.51          	-3.687947e-10	1.685077e+00	-2.940656e-07	-1.474016e-07	-1.466640e-07
1.515         	-3.802536e-10	1.685313e+00	-2.950811e-07	-1.479208e-07	-1.471603e-07
1.52          	-3.916943e-10	1.685274e+00	-2.898204e-07	-1.453019e-07	-1.445185e-07
1.525         	-4.036204e-10	1.684984e+00	-3.020854e-07	-1.514463e-07	-1.506391e-07
1.53          	-4.151384e-10	1.685078e+00	-2.853447e-07	-1.430875e-07	-1.422572e-07
1.535         	-4.269162e-10	1.685190e+00	-2.924143e-07	-1.466341e-07	-1.457802e-07
1.54          	-4.379379e-10	1.685432e+00	-2.926843e-07	-1.467801e-07	-1.459042e-07
1.545         	-4.493486e-10	1.685299e+00	-2.811536e-07	-1.410262e-07	-1.401275e-07
1.55          	-4.610531e-10	1.685162e+00	-2.911508e-07	-1.460365e-07	-1.451144e-07
1.555         	-4.726889e-10	1.685200e+00	-2.920530e-07	-1.464992e-07	-1.455538e-07
1.56          	-4.841020e-10	1.685235e+00	-2.895902e-07	-1.452792e-07	-1.443110e-07
1.565         	-4.955527e-10	1.685269e+00	-2.851378e-07	-1.430644e-07	-1.420733e-07
1.57          	-5.066595e-10	1.685305e+00	-3.345301e-07	-1.677717e-07	-1.667584e-07
1.575         	-5.188758e-10	1.685321e+00	-2.730228e-07	-1.370303e-07	-1.359925e-07
1.58          	-5.295135e-10	1.685339e+00	-3.034342e-07	-1.522466e-07	-1.511876e-07
1.585         	-5.409878e-10	1.685359e+00	-2.822712e-07	-1.416766e-07	-1.405946e-07
1.59          	-5.521729e-10	1.685379e+00	-2.822668e-07	-1.416856e-07	-1.405812e-07
1.595         	-5.634257e-10	1.685410e+00	-2.889895e-07	-1.450582e-07	-1.439313e-07
1.6           	-5.744526e-10	1.685522e+00	-2.865393e-07	-1.438441e-07	-1.426952e-07
1.605         	-5.861194e-10	1.685254e+00	-2.843652e-07	-1.427687e-07	-1.415965e-07
1.61          	-5.956730e-10	1.685437e+00	-2.905571e-07	-1.458742e-07	-1.446829e-07
1.615         	-6.067034e-10	1.685134e+00	-2.576073e-07	-1.294104e-07	-1.281969e-07
1.62          	-6.176154e-10	1.685131e+00	-2.992270e-07	-1.502311e-07	-1.489959e-07
1.625         	-6.285215e-10	1.685123e+00	-2.872552e-07	-1.442561e-07	-1.429991e-07
1.63          	-6.394257e-10	1.685119e+00	-2.866495e-07	-1.439642e-07	-1.426853e-07
1.635         	-6.489281e-10	1.685193e+00	-2.838561e-07	-1.425770e-07	-1.412791e-07
1.64          	-6.589695e-10	1.685076e+00	-2.747301e-07	-1.380240e-07	-1.367061e-07
1.645         	-6.704743e-10	1.684993e+00	-2.646772e-07	-1.330091e-07	-1.316681e-07
1.65          	-6.813097e-10	1.685083e+00	-2.893526e-07	-1.453576e-07	-1.439950e-07
1.655         	-6.914167e-10	1.685054e+00	-2.901607e-07	-1.457718e-07	-1.443890e-07
1.66          	-7.025088e-10	1.684588e+00	-2.774854e-07	-1.394452e-07	-1.380402e-07
1.665         	-7.132814e-10	1.684527e+00	-2.926530e-07	-1.470398e-07	-1.456132e-07
1.67          	-7.233556e-10	1.684463e+00	-2.852302e-07	-1.433385e-07	-1.418918e-07
1.675         	-7.334977e-10	1.684398e+00	-2.832835e-07	-1.423753e-07	-1.409083e-07
1.68          	-7.435943e-10	1.684323e+00	-2.801180e-07	-1.408026e-07	-1.393154e-07
1.685         	-7.534395e-10	1.684264e+00	-2.897517e-07	-1.456293e-07	-1.441224e-07
1.69          	-7.637036e-10	1.684261e+00	-2.822742e-07	-1.419008e-07	-1.403734e-07
1.695         	-7.733553e-10	1.684459e+00	-2.823293e-07	-1.419380e-07	-1.403913e-07
1.7           	-7.842227e-10	1.683984e+00	-2.609008e-07	-1.312346e-07	-1.296662e-07
1.705         	-7.951300e-10	1.683912e+00	-2.862740e-07	-1.439321e-07	-1.423419e-07
1.71          	-8.052074e-10	1.683883e+00	-2.787104e-07	-1.401604e-07	-1.385500e-07
1.715         	-8.153983e-10	1.683804e+00	-2.823963e-07	-1.420136e-07	-1.403828e-07
1.72          	-8.257136e-10	1.683355e+00	-2.707034e-07	-1.361774e-07	-1.345260e-07
1.725         	-8.376141e-10	1.683207e+00	-2.819676e-07	-1.418214e-07	-1.401462e-07
1.73          	-8.472540e-10	1.683111e+00	-2.812924e-07	-1.414934e-07	-1.397989e-07
1.735         	-8.571999e-10	1.683005e+00	-2.794677e-07	-1.405910e-07	-1.388766e-07
1.74          	-8.670713e-10	1.682889e+00	-2.782209e-07	-1.399775e-07	-1.382434e-07
1.745         	-8.770737e-10	1.682771e+00	-2.780582e-07	-1.399062e-07	-1.381520e-07
1.75          	-8.869053e-10	1.682668e+00	-2.768979e-07	-1.393358e-07	-1.375620e-07
1.755         	-8.965675e-10	1.682570e+00	-2.749475e-07	-1.383703e-07	-1.365772e-07
1.76          	-9.065717e-10	1.682385e+00	-2.802448e-07	-1.410290e-07	-1.392158e-07
1.765         	-9.172347e-10	1.682247e+00	-2.716516e-07	-1.367430e-07	-1.349085e-07
1.77          	-9.279514e-10	1.682082e+00	-2.746361e-07	-1.382460e-07	-1.363901e-07
1.775         	-9.377965e-10	1.681917e+00	-2.741273e-07	-1.380014e-07	-1.361258e-07