/*--------------------------------*- C++ -*----------------------------------*\
  =========                 |
  \\      /  F ield         | OpenFOAM: The Open Source CFD Toolbox
   \\    /   O peration     | Website:  https://openfoam.org
    \\  /    A nd           | Version:  7
     \\/     M anipulation  |
\*---------------------------------------------------------------------------*/
FoamFile
{
    version     2.0;
    format      ascii;
    class       volScalarField;
    location    "20";
    object      p;
}
// * * * * * * * * * * * * * * * * * * * * * * * * * * * * * * * * * * * * * //

dimensions      [0 2 -2 0 0 0 0];

internalField   nonuniform List<scalar> 
2625
(
0.158451
0.15413
0.149715
0.145209
0.140612
0.135928
0.131158
0.126307
0.121377
0.107905
0.116372
0.102916
0.111298
0.0978906
0.106158
0.100959
0.215819
0.215858
0.215676
0.215385
0.214964
0.214426
0.213777
0.213021
0.212164
0.211211
0.210165
0.209031
0.207812
0.206512
0.205135
0.203683
0.20216
0.20057
0.198916
0.197201
0.19543
0.193604
0.191729
0.189807
0.187842
0.185837
0.183796
0.181722
0.179619
0.177495
0.215832
0.215872
0.215689
0.215399
0.214978
0.214441
0.213791
0.213036
0.21218
0.211227
0.210182
0.209048
0.20783
0.20653
0.205153
0.203701
0.202179
0.20059
0.198936
0.197222
0.195451
0.193626
0.191751
0.189829
0.187864
0.185859
0.183818
0.181745
0.179642
0.177516
0.215858
0.2159
0.215716
0.215427
0.215006
0.214469
0.21382
0.213066
0.21221
0.211258
0.210214
0.209081
0.207864
0.206565
0.205189
0.203739
0.202217
0.200629
0.198976
0.197263
0.195493
0.193669
0.191794
0.189873
0.187909
0.185904
0.183864
0.18179
0.179688
0.177561
0.215898
0.21594
0.215756
0.215467
0.215047
0.214511
0.213863
0.213109
0.212255
0.211304
0.210261
0.20913
0.207914
0.206617
0.205242
0.203793
0.202274
0.200686
0.199035
0.197323
0.195554
0.193731
0.191858
0.189938
0.187974
0.185971
0.183931
0.181858
0.179756
0.177628
0.21595
0.215992
0.215808
0.21552
0.2151
0.214565
0.213919
0.213167
0.212314
0.211365
0.210323
0.209194
0.20798
0.206685
0.205312
0.203865
0.202347
0.200762
0.199112
0.197402
0.195635
0.193813
0.191941
0.190022
0.18806
0.186058
0.184018
0.181946
0.179845
0.177715
0.216013
0.216056
0.215872
0.215585
0.215166
0.214632
0.213987
0.213237
0.212386
0.211439
0.210399
0.209272
0.20806
0.206768
0.205397
0.203953
0.202437
0.200854
0.199207
0.197499
0.195734
0.193914
0.192044
0.190127
0.188166
0.186164
0.184126
0.182055
0.179954
0.177824
0.216088
0.216131
0.215947
0.215661
0.215243
0.214711
0.214068
0.213319
0.212471
0.211526
0.210489
0.209365
0.208156
0.206866
0.205498
0.204057
0.202544
0.200964
0.199319
0.197614
0.195851
0.194033
0.192165
0.19025
0.18829
0.18629
0.184254
0.182183
0.180084
0.177951
0.216174
0.216217
0.216033
0.215749
0.215332
0.214802
0.21416
0.213414
0.212568
0.211626
0.210592
0.209471
0.208265
0.206978
0.205614
0.204175
0.202666
0.201089
0.199447
0.197745
0.195984
0.19417
0.192304
0.190391
0.188433
0.186435
0.1844
0.18233
0.180232
0.178098
0.216271
0.216314
0.21613
0.215847
0.215432
0.214903
0.214264
0.21352
0.212677
0.211738
0.210708
0.209589
0.208387
0.207104
0.205744
0.204309
0.202803
0.20123
0.199592
0.197892
0.196135
0.194323
0.19246
0.190549
0.188594
0.186598
0.184564
0.182496
0.1804
0.178263
0.216377
0.21642
0.216237
0.215955
0.215541
0.215015
0.214378
0.213638
0.212797
0.211862
0.210835
0.209721
0.208523
0.207244
0.205887
0.204456
0.202955
0.201385
0.199751
0.198055
0.196301
0.194493
0.192633
0.190725
0.188772
0.186778
0.184746
0.182679
0.180585
0.178446
0.216493
0.216537
0.216354
0.216074
0.215661
0.215137
0.214503
0.213766
0.212929
0.211997
0.210974
0.209864
0.20867
0.207396
0.206044
0.204617
0.20312
0.201555
0.199925
0.198233
0.196483
0.194678
0.192821
0.190916
0.188966
0.186974
0.184945
0.18288
0.180788
0.178646
0.216618
0.216662
0.216479
0.216201
0.21579
0.215269
0.214638
0.213904
0.213071
0.212143
0.211124
0.210019
0.20883
0.20756
0.206213
0.204792
0.203299
0.201738
0.200113
0.198426
0.19668
0.194879
0.193025
0.191124
0.189176
0.187187
0.18516
0.183096
0.181007
0.178862
0.216752
0.216796
0.216614
0.216338
0.215929
0.21541
0.214782
0.214052
0.213222
0.212299
0.211285
0.210185
0.209001
0.207736
0.206394
0.204978
0.203491
0.201935
0.200315
0.198632
0.196891
0.195094
0.193244
0.191346
0.189402
0.187416
0.185391
0.183329
0.181243
0.179094
0.216895
0.216939
0.216757
0.216483
0.216076
0.21556
0.214935
0.214209
0.213384
0.212465
0.211457
0.210361
0.209182
0.207923
0.206587
0.205177
0.203695
0.202145
0.20053
0.198852
0.197115
0.195323
0.193478
0.191583
0.189643
0.187659
0.185637
0.183578
0.181495
0.179341
0.217045
0.21709
0.216909
0.216636
0.216231
0.215719
0.215098
0.214375
0.213555
0.212641
0.211637
0.210548
0.209375
0.208121
0.206791
0.205387
0.203911
0.202367
0.200757
0.199085
0.197353
0.195566
0.193725
0.191834
0.189898
0.187918
0.185898
0.183841
0.181762
0.179603
0.217204
0.217248
0.217067
0.216797
0.216395
0.215885
0.215268
0.21455
0.213734
0.212826
0.211828
0.210744
0.209577
0.20833
0.207006
0.205608
0.204138
0.2026
0.200997
0.19933
0.197604
0.195822
0.193986
0.192099
0.190166
0.18819
0.186174
0.184119
0.182043
0.17988
0.217369
0.217413
0.217234
0.216965
0.216565
0.216059
0.215446
0.214732
0.213922
0.213019
0.212027
0.210949
0.209789
0.208548
0.207231
0.20584
0.204377
0.202845
0.201248
0.199588
0.197867
0.19609
0.194259
0.192377
0.190449
0.188476
0.186463
0.18441
0.182339
0.18017
0.217542
0.217586
0.217407
0.217141
0.216744
0.216241
0.215632
0.214923
0.214118
0.21322
0.212235
0.211163
0.21001
0.208776
0.207466
0.206082
0.204626
0.203101
0.20151
0.199856
0.198142
0.196371
0.194545
0.192668
0.190744
0.188775
0.186765
0.184715
0.182649
0.180473
0.217721
0.217765
0.217587
0.217323
0.216928
0.21643
0.215825
0.215121
0.214321
0.21343
0.21245
0.211386
0.210239
0.209013
0.20771
0.206333
0.204885
0.203367
0.201784
0.200136
0.198429
0.196663
0.194843
0.192971
0.191051
0.189086
0.187081
0.185033
0.182972
0.180788
0.217906
0.21795
0.217773
0.217511
0.21712
0.216625
0.216024
0.215325
0.214532
0.213647
0.212674
0.211617
0.210477
0.209259
0.207964
0.206594
0.205153
0.203643
0.202067
0.200427
0.198726
0.196967
0.195152
0.193286
0.191371
0.18941
0.187408
0.185363
0.183308
0.181116
0.218097
0.218141
0.217965
0.217706
0.217317
0.216826
0.21623
0.215537
0.214749
0.213871
0.212905
0.211855
0.210723
0.209513
0.208225
0.206864
0.205431
0.203929
0.202361
0.200728
0.199034
0.197281
0.195473
0.193612
0.191702
0.189745
0.187748
0.185705
0.183657
0.181456
0.218294
0.218338
0.218163
0.217906
0.21752
0.217034
0.216442
0.215755
0.214973
0.214101
0.213143
0.2121
0.210977
0.209774
0.208495
0.207143
0.205718
0.204224
0.202664
0.201038
0.199352
0.197606
0.195804
0.193949
0.192044
0.190092
0.188099
0.186059
0.184017
0.181806
0.218496
0.21854
0.218366
0.218112
0.217729
0.217247
0.21666
0.215978
0.215203
0.214338
0.213387
0.212353
0.211237
0.210043
0.208773
0.207429
0.206013
0.204528
0.202976
0.201359
0.199679
0.197941
0.196145
0.194296
0.192397
0.19045
0.188462
0.186424
0.184389
0.182168
0.218703
0.218747
0.218574
0.218322
0.217943
0.217465
0.216884
0.216208
0.215439
0.214581
0.213638
0.212612
0.211505
0.21032
0.209059
0.207723
0.206317
0.20484
0.203296
0.201688
0.200016
0.198285
0.196497
0.194654
0.19276
0.190818
0.188835
0.1868
0.184773
0.182539
0.218915
0.218959
0.218787
0.218538
0.218162
0.217688
0.217112
0.216442
0.21568
0.21483
0.213895
0.212877
0.211779
0.210603
0.209351
0.208025
0.206628
0.20516
0.203626
0.202025
0.200362
0.198639
0.196858
0.195021
0.193134
0.191196
0.189218
0.187186
0.185167
0.182921
0.219131
0.219175
0.219004
0.218758
0.218385
0.217916
0.217346
0.216682
0.215927
0.215085
0.214157
0.213148
0.212059
0.210892
0.20965
0.208334
0.206946
0.205488
0.203963
0.202372
0.200717
0.199001
0.197228
0.195398
0.193516
0.191585
0.189611
0.187581
0.185572
0.183311
0.219351
0.219395
0.219226
0.218982
0.218613
0.218149
0.217584
0.216926
0.216178
0.215344
0.214425
0.213425
0.212345
0.211188
0.209955
0.208649
0.207271
0.205823
0.204307
0.202726
0.20108
0.199373
0.197607
0.195784
0.193909
0.191982
0.190014
0.187987
0.185987
0.183711
0.219575
0.219619
0.219451
0.21921
0.218845
0.218385
0.217826
0.217175
0.216434
0.215608
0.214698
0.213707
0.212637
0.211489
0.210267
0.208971
0.207603
0.206165
0.20466
0.203087
0.201451
0.199752
0.197994
0.196179
0.19431
0.192389
0.190426
0.188401
0.186412
0.184119
0.219803
0.219847
0.21968
0.219442
0.21908
0.218625
0.218072
0.217428
0.216695
0.215876
0.214975
0.213994
0.212933
0.211796
0.210584
0.209299
0.207941
0.206514
0.205019
0.203456
0.201829
0.200139
0.198389
0.196581
0.19472
0.192804
0.190848
0.188824
0.186846
0.184534
0.220034
0.220078
0.219912
0.219677
0.219319
0.218869
0.218322
0.217684
0.216959
0.216149
0.215257
0.214285
0.213235
0.212108
0.210907
0.209632
0.208286
0.206869
0.205384
0.203832
0.202215
0.200534
0.198793
0.196993
0.195138
0.193228
0.191277
0.189255
0.18729
0.184958
0.220269
0.220312
0.220148
0.219916
0.219561
0.219117
0.218575
0.217945
0.217227
0.216426
0.215543
0.214581
0.213541
0.212425
0.211234
0.209971
0.208636
0.20723
0.205756
0.204215
0.202608
0.200936
0.199204
0.197411
0.195564
0.193659
0.191715
0.189695
0.187742
0.185388
0.220506
0.220549
0.220386
0.220157
0.219806
0.219367
0.218831
0.218208
0.217499
0.216706
0.215833
0.21488
0.213851
0.212746
0.211567
0.210315
0.208991
0.207597
0.206134
0.204604
0.203007
0.201346
0.199622
0.197838
0.195997
0.194099
0.192161
0.190142
0.188202
0.185826
0.220746
0.220789
0.220627
0.220401
0.220054
0.21962
0.219091
0.218475
0.217773
0.21699
0.216126
0.215184
0.214165
0.213071
0.211904
0.210663
0.209351
0.207969
0.206518
0.204998
0.203412
0.201761
0.200047
0.198271
0.196438
0.194546
0.192615
0.190596
0.188671
0.186269
0.220988
0.221031
0.220871
0.220648
0.220305
0.219876
0.219353
0.218744
0.218051
0.217277
0.216423
0.215491
0.214483
0.213401
0.212245
0.211016
0.209717
0.208346
0.206907
0.205399
0.203824
0.202184
0.200479
0.198712
0.196887
0.195
0.193076
0.191058
0.189147
0.186719
0.221233
0.221275
0.221117
0.220896
0.220558
0.220134
0.219618
0.219017
0.218332
0.217566
0.216722
0.215801
0.214805
0.213734
0.21259
0.211374
0.210086
0.208728
0.207301
0.205805
0.204242
0.202612
0.200917
0.199159
0.197342
0.195461
0.193544
0.191526
0.18963
0.187173
0.221479
0.221521
0.221365
0.221147
0.220813
0.220395
0.219884
0.219291
0.218615
0.217859
0.217025
0.216115
0.215129
0.21407
0.212939
0.211735
0.21046
0.209115
0.2077
0.206216
0.204665
0.203046
0.201362
0.199613
0.197804
0.195929
0.194019
0.192
0.190121
0.187633
0.221728
0.221769
0.221614
0.2214
0.221069
0.220657
0.220153
0.219568
0.2189
0.218154
0.21733
0.216431
0.215457
0.21441
0.213291
0.2121
0.210838
0.209505
0.208103
0.206632
0.205093
0.203486
0.201812
0.200072
0.198272
0.196404
0.194501
0.192481
0.190618
0.188098
0.221978
0.222019
0.221866
0.221654
0.221328
0.220921
0.220424
0.219846
0.219187
0.21845
0.217637
0.216749
0.215787
0.214753
0.213646
0.212468
0.211219
0.2099
0.208511
0.207053
0.205526
0.203931
0.202268
0.200538
0.198747
0.196885
0.194989
0.192967
0.191122
0.188567
0.222229
0.22227
0.222118
0.22191
0.221588
0.221187
0.220697
0.220127
0.219476
0.218749
0.217947
0.21707
0.21612
0.215098
0.214004
0.212839
0.211604
0.210298
0.208923
0.207478
0.205964
0.204381
0.20273
0.20101
0.199228
0.197371
0.195484
0.193459
0.191632
0.189039
0.222482
0.222522
0.222372
0.222167
0.221849
0.221454
0.22097
0.220408
0.219767
0.21905
0.218258
0.217393
0.216455
0.175245
0.172849
0.170366
0.167792
0.165126
0.162369
0.15952
0.156577
0.153542
0.150412
0.147189
0.143873
0.140464
0.136963
0.133371
0.12969
0.125921
0.122067
0.11813
0.114112
0.110018
0.10585
0.101613
0.097311
0.0929487
0.175271
0.172879
0.170401
0.167832
0.165172
0.162421
0.159576
0.156639
0.153608
0.150483
0.147265
0.143952
0.140547
0.13705
0.133462
0.129783
0.126017
0.122165
0.118229
0.114213
0.110119
0.105951
0.101713
0.097409
0.0930443
0.175324
0.172939
0.17047
0.167911
0.16526
0.162517
0.159681
0.156752
0.153729
0.150612
0.1474
0.144095
0.140695
0.137203
0.133619
0.129945
0.126182
0.122332
0.118397
0.114381
0.110286
0.106117
0.101876
0.0975692
0.0932
0.175399
0.173018
0.170557
0.168005
0.165362
0.162626
0.159798
0.156875
0.153859
0.150747
0.147541
0.144241
0.140846
0.137358
0.133778
0.130106
0.126345
0.122496
0.118562
0.114545
0.110449
0.106278
0.102034
0.097723
0.093349
0.175495
0.173115
0.17066
0.168114
0.165476
0.162746
0.159923
0.157006
0.153994
0.150887
0.147686
0.144389
0.140998
0.137512
0.133934
0.130264
0.126504
0.122655
0.118721
0.114703
0.110606
0.106431
0.102184
0.0978691
0.0934901
0.175611
0.17323
0.17078
0.168239
0.165605
0.16288
0.160061
0.157147
0.154139
0.151036
0.147837
0.144543
0.141154
0.137671
0.134094
0.130425
0.126665
0.122816
0.118881
0.114862
0.110762
0.106584
0.102334
0.0980139
0.0936297
0.175748
0.173363
0.170918
0.16838
0.165749
0.163026
0.16021
0.1573
0.154294
0.151193
0.147997
0.144705
0.141317
0.137835
0.134259
0.13059
0.12683
0.12298
0.119043
0.115022
0.110919
0.106738
0.102484
0.0981589
0.0937691
0.175905
0.173514
0.171071
0.168535
0.165906
0.163186
0.160371
0.157463
0.154459
0.151359
0.148164
0.144873
0.141486
0.138004
0.134428
0.130758
0.126997
0.123146
0.119207
0.115183
0.111077
0.106893
0.102633
0.0983035
0.0939079
0.176082
0.173681
0.17124
0.168705
0.166077
0.163357
0.160543
0.157635
0.154632
0.151533
0.148338
0.145047
0.14166
0.138178
0.134601
0.13093
0.127167
0.123314
0.119373
0.115346
0.111236
0.107047
0.102783
0.0984475
0.0940458
0.176277
0.173864
0.171424
0.168889
0.16626
0.16354
0.160726
0.157818
0.154814
0.151715
0.148519
0.145228
0.14184
0.138356
0.134777
0.131105
0.12734
0.123484
0.119539
0.115509
0.111395
0.107202
0.102932
0.0985911
0.0941829
0.17649
0.174062
0.171623
0.169086
0.166456
0.163734
0.160919
0.15801
0.155005
0.151904
0.148707
0.145414
0.142024
0.138538
0.134958
0.131283
0.127515
0.123656
0.119708
0.115673
0.111555
0.107356
0.103081
0.0987341
0.0943193
0.17672
0.174275
0.171836
0.169297
0.166664
0.16394
0.161122
0.15821
0.155203
0.1521
0.148901
0.145605
0.142213
0.138725
0.135141
0.131463
0.127692
0.123829
0.119877
0.115838
0.111715
0.107511
0.10323
0.0988766
0.094455
0.176968
0.174503
0.172063
0.169519
0.166883
0.164155
0.161335
0.15842
0.155409
0.152303
0.149101
0.145802
0.142407
0.138916
0.135328
0.131647
0.127871
0.124004
0.120048
0.116004
0.111875
0.107666
0.103379
0.0990186
0.0945899
0.177233
0.174744
0.172303
0.169754
0.167113
0.164381
0.161556
0.158637
0.155623
0.152513
0.149307
0.146005
0.142605
0.13911
0.135519
0.131833
0.128053
0.124181
0.12022
0.11617
0.112036
0.107821
0.103527
0.0991602
0.0947241
0.177514
0.174999
0.172556
0.170001
0.167354
0.164617
0.161787
0.158863
0.155844
0.15273
0.149519
0.146212
0.142808
0.139308
0.135712
0.132021
0.128237
0.12436
0.120393
0.116338
0.112198
0.107976
0.103675
0.0993012
0.0948575
0.17781
0.175267
0.172822
0.170259
0.167606
0.164862
0.162026
0.159097
0.156072
0.152952
0.149736
0.146424
0.143015
0.139509
0.135908
0.132212
0.128422
0.12454
0.120567
0.116506
0.112359
0.108131
0.103823
0.0994418
0.0949903
0.178122
0.175547
0.173099
0.170528
0.167867
0.165117
0.162274
0.159338
0.156307
0.153181
0.149959
0.14664
0.143226
0.139714
0.136108
0.132405
0.128609
0.124721
0.120742
0.116674
0.112521
0.108286
0.103971
0.0995818
0.0951224
0.178449
0.175839
0.173389
0.170808
0.168139
0.16538
0.16253
0.159586
0.156548
0.153415
0.150186
0.146862
0.14344
0.139923
0.13631
0.132601
0.128799
0.124904
0.120918
0.116843
0.112683
0.10844
0.104118
0.0997214
0.0952538
0.17879
0.176143
0.17369
0.171098
0.16842
0.165653
0.162794
0.159842
0.156796
0.153655
0.150419
0.147087
0.143659
0.140134
0.136514
0.132799
0.12899
0.125088
0.121095
0.117013
0.112846
0.108595
0.104266
0.0998605
0.0953845
0.179145
0.176458
0.174002
0.171398
0.16871
0.165933
0.163065
0.160104
0.15705
0.153901
0.150657
0.147317
0.143881
0.140349
0.136721
0.132999
0.129182
0.125273
0.121273
0.117184
0.113008
0.10875
0.104412
0.099999
0.0955145
0.179514
0.176783
0.174325
0.171707
0.169009
0.166221
0.163343
0.160373
0.157309
0.154152
0.150899
0.14755
0.144106
0.140566
0.136931
0.133201
0.129376
0.125459
0.121451
0.117354
0.113171
0.108905
0.104559
0.100137
0.0956439
0.179896
0.177118
0.174659
0.172025
0.169317
0.166517
0.163629
0.160648
0.157575
0.154407
0.151145
0.147788
0.144335
0.140787
0.137143
0.133404
0.129572
0.125647
0.121631
0.117526
0.113334
0.10906
0.104705
0.100275
0.0957726
0.180291
0.177463
0.175003
0.172352
0.169632
0.166821
0.163921
0.160929
0.157846
0.154668
0.151396
0.148029
0.144567
0.14101
0.137357
0.13361
0.129769
0.125835
0.121811
0.117697
0.113498
0.109214
0.104851
0.100412
0.0959006
0.180699
0.177817
0.175357
0.172688
0.169956
0.167132
0.16422
0.161217
0.158122
0.154934
0.151651
0.148274
0.144803
0.141236
0.137574
0.133817
0.129967
0.126025
0.121992
0.117869
0.113661
0.109369
0.104997
0.100548
0.0960279
0.181119
0.178181
0.17572
0.173031
0.170288
0.16745
0.164526
0.16151
0.158403
0.155204
0.151911
0.148523
0.145041
0.141464
0.137792
0.134026
0.130167
0.126215
0.122173
0.118042
0.113824
0.109523
0.105142
0.100684
0.0961547
0.181551
0.178552
0.176093
0.173383
0.170627
0.167774
0.164837
0.161808
0.15869
0.155478
0.152173
0.148775
0.145282
0.141695
0.138013
0.134237
0.130368
0.126407
0.122355
0.118215
0.113988
0.109677
0.105287
0.10082
0.0962807
0.181994
0.178932
0.176475
0.173742
0.170974
0.168105
0.165155
0.162112
0.158981
0.155757
0.15244
0.14903
0.145526
0.141928
0.138235
0.134449
0.13057
0.126599
0.122538
0.118388
0.114151
0.109832
0.105431
0.100955
0.0964061
0.182449
0.17932
0.176865
0.174108
0.171328
0.168442
0.165478
0.162421
0.159277
0.156039
0.152711
0.149288
0.145773
0.142163
0.13846
0.134663
0.130773
0.126792
0.122721
0.118561
0.114315
0.109985
0.105576
0.101089
0.0965308
0.182914
0.179714
0.177264
0.174481
0.171688
0.168785
0.165807
0.162735
0.159577
0.156326
0.152984
0.14955
0.146022
0.1424
0.138686
0.134878
0.130978
0.126986
0.122904
0.118734
0.114478
0.110139
0.105719
0.101223
0.0966549
0.18339
0.180116
0.177672
0.174861
0.172055
0.169134
0.166141
0.163054
0.159881
0.156617
0.153261
0.149814
0.146273
0.14264
0.138914
0.135094
0.131183
0.127181
0.123088
0.118908
0.114642
0.110292
0.105863
0.101357
0.0967783
0.092132
0.183876
0.180524
0.178087
0.175247
0.172428
0.169489
0.166481
0.163378
0.16019
0.156911
0.153542
0.150081
0.146527
0.142881
0.139143
0.135312
0.131389
0.127376
0.123273
0.119082
0.114805
0.110446
0.106006
0.10149
0.096901
0.0922446
0.184371
0.180939
0.178511
0.175639
0.172808
0.169849
0.166825
0.163706
0.160503
0.157209
0.153825
0.15035
0.146784
0.143125
0.139374
0.135531
0.131596
0.127572
0.123457
0.119256
0.114969
0.110598
0.106148
0.101622
0.097023
0.0923564
0.184875
0.181359
0.178941
0.176036
0.173193
0.170214
0.167174
0.164038
0.160819
0.15751
0.154112
0.150622
0.147042
0.14337
0.139606
0.135751
0.131804
0.127768
0.123642
0.11943
0.115132
0.110751
0.10629
0.101754
0.0971444
0.0924675
0.185389
0.181784
0.179379
0.176439
0.173584
0.170584
0.167528
0.164374
0.16114
0.157814
0.154401
0.150897
0.147302
0.143617
0.13984
0.135972
0.132013
0.127965
0.123828
0.119604
0.115295
0.110903
0.106432
0.101885
0.0972651
0.0925778
0.185911
0.182215
0.179823
0.176848
0.17398
0.170959
0.167886
0.164714
0.161463
0.158122
0.154693
0.151174
0.147565
0.143865
0.140075
0.136194
0.132223
0.128162
0.124013
0.119778
0.115458
0.111055
0.106573
0.102015
0.0973851
0.0926873
0.18644
0.182651
0.180274
0.177262
0.174381
0.171338
0.168248
0.165059
0.161791
0.158432
0.154988
0.151453
0.147829
0.144115
0.140311
0.136417
0.132433
0.12836
0.124199
0.119952
0.11562
0.111207
0.106714
0.102145
0.0975045
0.0927961
0.186977
0.183091
0.180731
0.17768
0.174787
0.171722
0.168614
0.165406
0.162121
0.158746
0.155285
0.151734
0.148095
0.144367
0.140548
0.13664
0.132643
0.128558
0.124385
0.120126
0.115783
0.111358
0.106854
0.102275
0.0976231
0.0929041
0.18752
0.183536
0.181193
0.178103
0.175198
0.17211
0.168985
0.165758
0.162455
0.159062
0.155584
0.152018
0.148363
0.144619
0.140787
0.136865
0.132854
0.128756
0.12457
0.120299
0.115945
0.111509
0.106994
0.102403
0.097741
0.0930114
0.18807
0.183985
0.18166
0.178531
0.175613
0.172502
0.169359
0.166112
0.162791
0.159381
0.155886
0.152303
0.148632
0.144874
0.141026
0.13709
0.133066
0.128954
0.124756
0.120473
0.116107
0.111659
0.107133
0.102531
0.0978583
0.0931179
0.188624
0.184439
0.182131
0.178964
0.176032
0.172898
0.169736
0.16647
0.16313
0.159702
0.15619
0.15259
0.148903
0.145129
0.141266
0.137316
0.133278
0.129153
0.124942
0.120647
0.116268
0.111809
0.107271
0.102659
0.0979748
0.0932236
0.184897
0.182606
0.179401
0.176455
0.173298
0.170117
0.166831
0.163472
0.160026
0.156496
0.152879
0.149176
0.145385
0.141508
0.137543
0.13349
0.129352
0.125128
0.12082
0.116429
0.111958
0.107409
0.102785
0.0980906
0.0933286
0.185359
0.183084
0.179842
0.176881
0.173701
0.170501
0.167195
0.163817
0.160351
0.156803
0.153169
0.149449
0.145643
0.141749
0.137769
0.133703
0.129551
0.125314
0.120993
0.11659
0.112107
0.107547
0.102912
0.0982056
0.0934328
0.183564
0.180287
0.177311
0.174108
0.170887
0.167561
0.164164
0.160679
0.157113
0.153461
0.149724
0.145901
0.141992
0.137997
0.133916
0.12975
0.125499
0.121166
0.11675
0.112255
0.107683
0.103037
0.0983199
0.0935362
0.184046
0.180737
0.177743
0.174518
0.171277
0.167931
0.164513
0.161009
0.157424
0.153754
0.15
0.14616
0.142235
0.138225
0.134129
0.129949
0.125685
0.121338
0.11691
0.112403
0.107819
0.103162
0.0984335
0.0936388
0.18119
0.178178
0.174931
0.17167
0.168302
0.164865
0.161341
0.157737
0.154049
0.150277
0.14642
0.142479
0.138453
0.134342
0.130148
0.12587
0.12151
0.11707
0.11255
0.107955
0.103286
0.0985463
0.0937407
0.181647
0.178615
0.175348
0.172064
0.168676
0.165219
0.161675
0.158051
0.154344
0.150554
0.146681
0.142723
0.138681
0.134556
0.130347
0.126055
0.121682
0.117229
0.112697
0.10809
0.103409
0.0986584
0.0938418
0.179055
0.175766
0.172462
0.169053
0.165574
0.16201
0.158367
0.154641
0.150833
0.146942
0.142967
0.13891
0.134769
0.130545
0.12624
0.121853
0.117387
0.112843
0.108224
0.103531
0.0987697
0.0939421
0.179497
0.176188
0.172861
0.169431
0.165931
0.162347
0.158684
0.154939
0.151112
0.147203
0.143212
0.139138
0.134982
0.130744
0.126424
0.122024
0.117545
0.112988
0.108357
0.103653
0.0988802
0.0940416
0.176612
0.173263
0.169811
0.16629
0.162685
0.159002
0.155238
0.151392
0.147466
0.143457
0.139367
0.135195
0.130942
0.126608
0.122194
0.117702
0.113133
0.10849
0.103774
0.09899
0.0941403
0.177038
0.173666
0.170193
0.16665
0.163024
0.159321
0.155537
0.151673
0.147728
0.143702
0.139595
0.135408
0.131139
0.126791
0.122364
0.117859
0.113277
0.108622
0.103895
0.0990989
0.0942382
0.174071
0.170576
0.167012
0.163365
0.159641
0.155837
0.151954
0.147991
0.143947
0.139824
0.13562
0.131337
0.126974
0.122533
0.118015
0.113421
0.108753
0.104014
0.0992071
0.0943353
0.174478
0.170961
0.167374
0.163706
0.159961
0.156137
0.152235
0.148253
0.144193
0.140052
0.135833
0.131534
0.127157
0.122701
0.11817
0.113563
0.108883
0.104133
0.0993144
0.0944316
0.171348
0.167738
0.164049
0.160283
0.156438
0.152517
0.148516
0.144438
0.140281
0.136045
0.131731
0.127339
0.12287
0.118325
0.113705
0.109013
0.104251
0.099421
0.0945272
0.171735
0.168103
0.164392
0.160605
0.15674
0.152799
0.14878
0.144683
0.140509
0.136256
0.131927
0.12752
0.123037
0.118479
0.113846
0.109142
0.104368
0.0995269
0.094622
0.172122
0.168468
0.164734
0.160926
0.15704
0.153079
0.149041
0.144927
0.140735
0.136466
0.132121
0.1277
0.123202
0.118631
0.113986
0.109269
0.104483
0.0996311
0.0947152
0.168829
0.165073
0.161243
0.157338
0.153357
0.1493
0.145167
0.140958
0.136674
0.132313
0.127877
0.123365
0.11878
0.114123
0.109394
0.104597
0.0997331
0.0948064
0.169199
0.165422
0.16157
0.157644
0.153643
0.149567
0.145416
0.14119
0.136889
0.132512
0.128061
0.123535
0.118936
0.114266
0.109525
0.104715
0.0998397
0.0949016
0.169611
0.16581
0.161935
0.157986
0.153964
0.149867
0.145697
0.141452
0.137132
0.132738
0.128271
0.12373
0.119116
0.114431
0.109676
0.104853
0.0999647
0.0950141
0.166157
0.162259
0.158287
0.154243
0.150126
0.145936
0.141673
0.137337
0.132927
0.128445
0.12389
0.119264
0.114567
0.1098
0.104967
0.100069
0.0951089
0.16614
0.162227
0.158243
0.154187
0.150059
0.145859
0.141587
0.137244
0.132828
0.128342
0.123784
0.119156
0.114459
0.109695
0.104864
0.0999698
0.0950145
)
;

boundaryField
{
    inlet
    {
        type            zeroGradient;
    }
    outlet
    {
        type            fixedValue;
        value           nonuniform 0();
    }
    cylinder
    {
        type            zeroGradient;
    }
    top
    {
        type            symmetryPlane;
    }
    bottom
    {
        type            symmetryPlane;
    }
    defaultFaces
    {
        type            empty;
    }
    procBoundary0to1
    {
        type            processor;
        value           nonuniform List<scalar> 
61
(
0.0885313
0.0886239
0.088774
0.0889174
0.0890527
0.0891863
0.0893194
0.0894516
0.0895828
0.089713
0.0898421
0.0899703
0.0900976
0.090224
0.0903495
0.090474
0.0905978
0.0907206
0.0908426
0.0909638
0.0910842
0.0912038
0.0913225
0.0914405
0.0915577
0.0916741
0.0917897
0.0919046
0.0920187
0.0920187
0.0874232
0.0875255
0.087627
0.0877277
0.0878276
0.0879266
0.0880249
0.0881223
0.088219
0.0883148
0.0884099
0.0885041
0.0885976
0.0886902
0.0887821
0.0888731
0.0889634
0.0890529
0.0891416
0.0892294
0.0893165
0.0894028
0.0894883
0.0895731
0.0896571
0.0897397
0.0898203
0.0899044
0.0900046
0.0900903
0.0900013
)
;
    }
    procBoundary0to4
    {
        type            processor;
        value           nonuniform List<scalar> 
77
(
0.170839
0.166806
0.162677
0.162677
0.15086
0.146276
0.141642
0.13696
0.13223
0.127454
0.122631
0.117765
0.112856
0.112856
0.105804
0.100517
0.215445
0.214365
0.213214
0.211992
0.2107
0.209339
0.207907
0.206406
0.204836
0.203197
0.201487
0.199715
0.197864
0.195984
0.193956
0.192147
0.189515
0.222736
0.222776
0.222628
0.222425
0.222112
0.221722
0.221246
0.220691
0.220059
0.219352
0.218571
0.217718
0.215445
0.216792
0.189515
0.189183
0.189183
0.189745
0.185826
0.185826
0.186298
0.184529
0.184529
0.185012
0.182108
0.182108
0.182573
0.17994
0.17994
0.180386
0.177466
0.177466
0.177896
0.174886
0.174886
0.175295
0.175705
0.172506
0.172506
0.172899
0.173336
0.169983
0.169983
0.16998
)
;
    }
    procBoundary0to5
    {
        type            processor;
        value           nonuniform List<scalar> 5(0.0951983 0.0928307 0.0928307 0.095706 0.095706);
    }
}


// ************************************************************************* //
