/*--------------------------------*- C++ -*----------------------------------*\
  =========                 |
  \\      /  F ield         | OpenFOAM: The Open Source CFD Toolbox
   \\    /   O peration     | Website:  https://openfoam.org
    \\  /    A nd           | Version:  7
     \\/     M anipulation  |
\*---------------------------------------------------------------------------*/
FoamFile
{
    version     2.0;
    format      ascii;
    class       surfaceScalarField;
    location    "20";
    object      phi;
}
// * * * * * * * * * * * * * * * * * * * * * * * * * * * * * * * * * * * * * //

dimensions      [0 3 -1 0 0 0 0];

internalField   nonuniform List<scalar> 
5131
(
0.0262159
-0.00346747
0.0265643
-0.00335527
0.0269059
-0.00324153
0.0272403
-0.00312623
0.0275677
-0.00300935
0.0278878
-0.00289088
0.0282006
-0.00277079
0.0285059
-0.00264906
0.0288035
-0.00252567
-0.00211088
0.0273209
0.0290932
-0.0024006
-0.00199216
0.0275772
0.0293748
-0.00227383
-0.00187195
0.0296482
-0.00214534
-0.0020151
0.00352162
-2.6313e-07
0.00352239
-7.71024e-07
0.00352363
-1.23686e-06
0.00352531
-1.67805e-06
0.0035274
-2.09131e-06
0.00352988
-2.4818e-06
0.00353273
-2.85129e-06
0.00353593
-3.20194e-06
0.00353947
-3.53532e-06
0.00354332
-3.85273e-06
0.00354748
-4.15518e-06
0.00355192
-4.44345e-06
0.00355664
-4.71811e-06
0.00356162
-4.97959e-06
0.00356685
-5.22816e-06
0.00357231
-5.46398e-06
0.003578
-5.68714e-06
0.00358389
-5.89767e-06
0.00358999
-6.09554e-06
0.00359627
-6.28069e-06
0.00360272
-6.45299e-06
0.00360934
-6.61223e-06
0.00361609
-6.75806e-06
0.00362298
-6.88977e-06
0.00362999
-7.00604e-06
0.00363709
-7.10442e-06
0.00364427
-7.18032e-06
0.0036515
-7.22534e-06
0.00365872
-7.22398e-06
-7.14758e-06
0.00366587
0.00348049
-5.24873e-07
0.00348125
-1.53015e-06
0.00348247
-2.45953e-06
0.00348413
-3.33543e-06
0.0034862
-4.15721e-06
0.00348865
-4.93339e-06
0.00349147
-5.66791e-06
0.00349463
-6.36496e-06
0.00349812
-7.02769e-06
0.00350193
-7.6587e-06
0.00350603
-8.25998e-06
0.00351042
-8.83308e-06
0.00351508
-9.37917e-06
0.00352
-9.89904e-06
0.00352517
-1.03933e-05
0.00353057
-1.08622e-05
0.00353618
-1.13059e-05
0.00354201
-1.17246e-05
0.00354803
-1.21181e-05
0.00355424
-1.24863e-05
0.00356061
-1.28289e-05
0.00356715
-1.31457e-05
0.00357383
-1.34357e-05
0.00358063
-1.36977e-05
0.00358756
-1.39291e-05
0.00359458
-1.41249e-05
0.00360167
-1.4276e-05
0.00360881
-1.4366e-05
0.00361595
-1.43647e-05
-1.42175e-05
0.00362302
0.00343984
-7.83286e-07
0.00344059
-2.27967e-06
0.0034418
-3.66671e-06
0.00344343
-4.97183e-06
0.00344547
-6.19698e-06
0.00344789
-7.35398e-06
0.00345068
-8.44894e-06
0.0034538
-9.48807e-06
0.00345725
-1.04761e-05
0.00346101
-1.14168e-05
0.00346506
-1.23132e-05
0.00346939
-1.31677e-05
0.003474
-1.3982e-05
0.00347885
-1.47572e-05
0.00348396
-1.54942e-05
0.00348929
-1.61934e-05
0.00349484
-1.68553e-05
0.00350059
-1.74797e-05
0.00350654
-1.80667e-05
0.00351267
-1.86159e-05
0.00351897
-1.91272e-05
0.00352542
-1.95998e-05
0.00353202
-2.00326e-05
0.00353874
-2.04236e-05
0.00354558
-2.07689e-05
0.00355252
-2.10613e-05
0.00355953
-2.12872e-05
0.00356659
-2.14222e-05
0.00357365
-2.14224e-05
-2.12083e-05
0.00358064
0.00339967
-1.03832e-06
0.00340041
-3.01929e-06
0.0034016
-4.85806e-06
0.00340321
-6.58672e-06
0.00340522
-8.20998e-06
0.00340761
-9.74284e-06
0.00341036
-1.11936e-05
0.00341344
-1.25704e-05
0.00341684
-1.38795e-05
0.00342055
-1.5126e-05
0.00342455
-1.63139e-05
0.00342883
-1.74463e-05
0.00343338
-1.85255e-05
0.00343817
-1.95529e-05
0.00344321
-2.05298e-05
0.00344847
-2.14569e-05
0.00345395
-2.23343e-05
0.00345963
-2.31622e-05
0.00346551
-2.39406e-05
0.00347156
-2.4669e-05
0.00347778
-2.53471e-05
0.00348415
-2.5974e-05
0.00349067
-2.65483e-05
0.00349731
-2.70671e-05
0.00350407
-2.75255e-05
0.00351092
-2.79137e-05
0.00351785
-2.82141e-05
0.00352482
-2.83944e-05
0.0035318
-2.83973e-05
-2.81193e-05
0.00353871
0.00335996
-1.28989e-06
0.00336069
-3.7488e-06
0.00336186
-6.03323e-06
0.00336346
-8.17967e-06
0.00336544
-1.01957e-05
0.0033678
-1.20993e-05
0.00337051
-1.39011e-05
0.00337355
-1.56111e-05
0.0033769
-1.72371e-05
0.00338056
-1.87854e-05
0.00338451
-2.02611e-05
0.00338873
-2.16679e-05
0.00339322
-2.30087e-05
0.00339795
-2.42854e-05
0.00340292
-2.54994e-05
0.00340811
-2.66515e-05
0.00341352
-2.77421e-05
0.00341913
-2.87714e-05
0.00342493
-2.97391e-05
0.0034309
-3.0645e-05
0.00343704
-3.14883e-05
0.00344334
-3.22681e-05
0.00344977
-3.29825e-05
0.00345633
-3.36282e-05
0.00346301
-3.41987e-05
0.00346978
-3.46823e-05
0.00347662
-3.50569e-05
0.00348351
-3.52827e-05
0.0034904
-3.52894e-05
-3.495e-05
0.00349723
0.00332072
-1.53792e-06
0.00332143
-4.46804e-06
0.00332259
-7.19192e-06
0.00332416
-9.75028e-06
0.00332612
-1.21535e-05
0.00332845
-1.44229e-05
0.00333111
-1.65708e-05
0.00333411
-1.86094e-05
0.00333742
-2.05481e-05
0.00334103
-2.23943e-05
0.00334493
-2.4154e-05
0.00334909
-2.58317e-05
0.00335351
-2.74308e-05
0.00335818
-2.89537e-05
0.00336308
-3.0402e-05
0.00336821
-3.17766e-05
0.00337354
-3.30781e-05
0.00337908
-3.43065e-05
0.0033848
-3.54617e-05
0.0033907
-3.65432e-05
0.00339676
-3.75502e-05
0.00340297
-3.84816e-05
0.00340933
-3.93351e-05
0.00341581
-4.01066e-05
0.0034224
-4.07886e-05
0.00342908
-4.13669e-05
0.00343584
-4.18156e-05
0.00344264
-4.20873e-05
0.00344945
-4.20988e-05
-4.17001e-05
0.0034562
0.00328193
-1.78237e-06
0.00328264
-5.17683e-06
0.00328378
-8.33385e-06
0.00328533
-1.12982e-05
0.00328726
-1.40831e-05
0.00328955
-1.67129e-05
0.00329218
-1.92021e-05
0.00329514
-2.15648e-05
0.0032984
-2.38118e-05
0.00330196
-2.59518e-05
0.00330579
-2.79917e-05
0.0033099
-2.99368e-05
0.00331426
-3.1791e-05
0.00331886
-3.35571e-05
0.0033237
-3.52368e-05
0.00332875
-3.68315e-05
0.00333402
-3.83415e-05
0.00333948
-3.9767e-05
0.00334512
-4.11078e-05
0.00335094
-4.23633e-05
0.00335693
-4.35326e-05
0.00336306
-4.46143e-05
0.00336933
-4.56057e-05
0.00337572
-4.65023e-05
0.00338223
-4.72951e-05
0.00338883
-4.79679e-05
0.00339551
-4.84904e-05
0.00340223
-4.88083e-05
0.00340895
-4.88256e-05
-4.83695e-05
0.00341562
0.0032436
-2.02318e-06
0.0032443
-5.87505e-06
0.00324542
-9.45879e-06
0.00324695
-1.2823e-05
0.00324885
-1.59841e-05
0.0032511
-1.8969e-05
0.0032537
-2.17945e-05
0.00325661
-2.44767e-05
0.00325982
-2.70276e-05
0.00326333
-2.94573e-05
0.00326711
-3.17737e-05
0.00327116
-3.39826e-05
0.00327545
-3.60886e-05
0.00327999
-3.80949e-05
0.00328476
-4.00034e-05
0.00328974
-4.18155e-05
0.00329493
-4.35318e-05
0.00330032
-4.51524e-05
0.00330589
-4.6677e-05
0.00331163
-4.81049e-05
0.00331753
-4.94351e-05
0.00332358
-5.0666e-05
0.00332977
-5.17944e-05
0.00333608
-5.28152e-05
0.00334251
-5.37183e-05
0.00334903
-5.44851e-05
0.00335562
-5.50816e-05
0.00336225
-5.5446e-05
0.0033689
-5.54699e-05
-5.49579e-05
0.00337549
0.00320571
-2.26031e-06
0.0032064
-6.56256e-06
0.00320751
-1.05665e-05
0.00320901
-1.43246e-05
0.00321088
-1.7856e-05
0.0032131
-2.11907e-05
0.00321566
-2.43476e-05
0.00321852
-2.73444e-05
0.00322169
-3.01949e-05
0.00322515
-3.29103e-05
0.00322887
-3.54992e-05
0.00323286
-3.79685e-05
0.00323709
-4.03231e-05
0.00324156
-4.25665e-05
0.00324626
-4.47011e-05
0.00325117
-4.67282e-05
0.00325629
-4.86486e-05
0.0032616
-5.04623e-05
0.00326709
-5.21689e-05
0.00327275
-5.37678e-05
0.00327858
-5.52576e-05
0.00328455
-5.66365e-05
0.00329065
-5.79011e-05
0.00329688
-5.90455e-05
0.00330322
-6.00583e-05
0.00330966
-6.0919e-05
0.00331617
-6.15893e-05
0.00332272
-6.20006e-05
0.00332928
-6.20321e-05
-6.14656e-05
0.00333579
0.00316827
-2.49371e-06
0.00316895
-7.23925e-06
0.00317004
-1.16569e-05
0.00317152
-1.58026e-05
0.00317336
-1.96987e-05
0.00317555
-2.33778e-05
0.00317806
-2.68609e-05
0.00318088
-3.01677e-05
0.003184
-3.33133e-05
0.0031874
-3.63102e-05
0.00319107
-3.9168e-05
0.003195
-4.1894e-05
0.00319917
-4.44939e-05
0.00320357
-4.69715e-05
0.0032082
-4.93294e-05
0.00321304
-5.15691e-05
0.00321808
-5.36913e-05
0.00322332
-5.56962e-05
0.00322873
-5.75832e-05
0.00323431
-5.93515e-05
0.00324006
-6.09998e-05
0.00324595
-6.25257e-05
0.00325197
-6.39257e-05
0.00325812
-6.5193e-05
0.00326438
-6.63152e-05
0.00327073
-6.72695e-05
0.00327715
-6.80138e-05
0.00328362
-6.84722e-05
0.0032901
-6.85122e-05
-6.78926e-05
0.00329653
0.00313127
-2.72336e-06
0.00313193
-7.90504e-06
0.00313301
-1.27297e-05
0.00313446
-1.72569e-05
0.00313627
-2.15117e-05
0.00313842
-2.55298e-05
0.0031409
-2.93341e-05
0.00314368
-3.29461e-05
0.00314675
-3.63824e-05
0.00315009
-3.96567e-05
0.0031537
-4.27794e-05
0.00315757
-4.57587e-05
0.00316167
-4.86006e-05
0.00316601
-5.13094e-05
0.00317057
-5.38879e-05
0.00317534
-5.63377e-05
0.00318031
-5.86597e-05
0.00318547
-6.08539e-05
0.0031908
-6.29197e-05
0.00319631
-6.48561e-05
0.00320197
-6.66616e-05
0.00320778
-6.83337e-05
0.00321372
-6.98683e-05
0.00321978
-7.1258e-05
0.00322596
-7.24892e-05
0.00323222
-7.35369e-05
0.00323857
-7.43553e-05
0.00324496
-7.48614e-05
0.00325135
-7.49105e-05
-7.42392e-05
0.0032577
0.00309469
-2.94923e-06
0.00309535
-8.55984e-06
0.0030964
-1.37848e-05
0.00309783
-1.86872e-05
0.00309962
-2.3295e-05
0.00310173
-2.76465e-05
0.00310417
-3.17668e-05
0.0031069
-3.56793e-05
0.00310992
-3.94018e-05
0.00311321
-4.29493e-05
0.00311677
-4.63331e-05
0.00312057
-4.9562e-05
0.00312461
-5.26427e-05
0.00312888
-5.55798e-05
0.00313337
-5.83762e-05
0.00313807
-6.10339e-05
0.00314296
-6.35535e-05
0.00314804
-6.59351e-05
0.0031533
-6.81781e-05
0.00315872
-7.02813e-05
0.00316431
-7.22429e-05
0.00317003
-7.40603e-05
0.00317589
-7.57288e-05
0.00318188
-7.72405e-05
0.00318797
-7.85804e-05
0.00319415
-7.97216e-05
0.00320041
-8.06141e-05
0.00320672
-8.11682e-05
0.00321303
-8.12274e-05
-8.05056e-05
0.0032193
0.00305855
-3.1713e-06
0.00305919
-9.20359e-06
0.00306023
-1.48222e-05
0.00306164
-2.00934e-05
0.00306339
-2.50483e-05
0.00306547
-2.97278e-05
0.00306786
-3.41589e-05
0.00307055
-3.8367e-05
0.00307352
-4.23713e-05
0.00307676
-4.61877e-05
0.00308025
-4.98287e-05
0.00308399
-5.33038e-05
0.00308797
-5.662e-05
0.00309217
-5.97824e-05
0.00309659
-6.27941e-05
0.00310122
-6.56572e-05
0.00310603
-6.83724e-05
0.00311104
-7.09397e-05
0.00311622
-7.33583e-05
0.00312157
-7.5627e-05
0.00312707
-7.77438e-05
0.00313271
-7.97056e-05
0.00313849
-8.15075e-05
0.00314439
-8.31406e-05
0.0031504
-8.45891e-05
0.0031565
-8.58236e-05
0.00316268
-8.67906e-05
0.0031689
-8.73931e-05
0.00317514
-8.74632e-05
-8.66921e-05
0.00318132
0.00302282
-3.38955e-06
0.00302346
-9.83624e-06
0.00302448
-1.58417e-05
0.00302586
-2.14754e-05
0.00302758
-2.67714e-05
0.00302963
-3.17734e-05
0.00303198
-3.65102e-05
0.00303462
-4.1009e-05
0.00303754
-4.52905e-05
0.00304072
-4.93717e-05
0.00304416
-5.32661e-05
0.00304784
-5.69837e-05
0.00305175
-6.05322e-05
0.00305589
-6.39169e-05
0.00306024
-6.71413e-05
0.00306479
-7.02075e-05
0.00306953
-7.31162e-05
0.00307446
-7.58674e-05
0.00307956
-7.84602e-05
0.00308483
-8.08932e-05
0.00309025
-8.31641e-05
0.00309581
-8.52696e-05
0.00310151
-8.72043e-05
0.00310732
-8.89587e-05
0.00311325
-9.05156e-05
0.00311927
-9.18434e-05
0.00312536
-9.2885e-05
0.00313151
-9.35364e-05
0.00313766
-9.36183e-05
-9.27992e-05
0.00314377
0.00298752
-3.60397e-06
0.00298814
-1.04578e-05
0.00298914
-1.68432e-05
0.0029905
-2.28332e-05
0.00299219
-2.84644e-05
0.0029942
-3.37831e-05
0.00299651
-3.88204e-05
0.00299911
-4.36051e-05
0.00300198
-4.81592e-05
0.00300511
-5.25012e-05
0.00300848
-5.6645e-05
0.0030121
-6.06016e-05
0.00301595
-6.43791e-05
0.00302002
-6.79833e-05
0.00302429
-7.14177e-05
0.00302877
-7.46846e-05
0.00303344
-7.77848e-05
0.00303829
-8.07182e-05
0.00304331
-8.34838e-05
0.0030485
-8.60798e-05
0.00305384
-8.8504e-05
0.00305932
-9.07526e-05
0.00306494
-9.28196e-05
0.00307067
-9.46948e-05
0.00307652
-9.63599e-05
0.00308246
-9.77812e-05
0.00308847
-9.88977e-05
0.00309453
-9.95985e-05
0.00310061
-9.9693e-05
-9.88271e-05
0.00310663
0.00295262
-3.81455e-06
0.00295323
-1.10681e-05
0.00295422
-1.78268e-05
0.00295555
-2.41666e-05
0.00295721
-3.0127e-05
0.00295919
-3.5757e-05
0.00296146
-4.10895e-05
0.00296401
-4.61552e-05
0.00296683
-5.09775e-05
0.0029699
-5.55758e-05
0.00297322
-5.99652e-05
0.00297678
-6.41573e-05
0.00298056
-6.81606e-05
0.00298456
-7.19812e-05
0.00298876
-7.56231e-05
0.00299316
-7.90884e-05
0.00299776
-8.23782e-05
0.00300253
-8.5492e-05
0.00300748
-8.84289e-05
0.00301258
-9.1187e-05
0.00301784
-9.37635e-05
0.00302325
-9.61545e-05
0.00302878
-9.83534e-05
0.00303443
-0.000100349
0.0030402
-0.000102123
0.00304605
-0.000103637
0.00305198
-0.000104829
0.00305796
-0.00010558
0.00306396
-0.000105688
-0.000104776
0.00306991
0.00291814
-4.02129e-06
0.00291874
-1.16673e-05
0.0029197
-1.87925e-05
0.00292101
-2.54756e-05
0.00292264
-3.17592e-05
0.00292458
-3.76949e-05
0.00292681
-4.33174e-05
0.00292931
-4.86592e-05
0.00293208
-5.3745e-05
0.0029351
-5.85956e-05
0.00293836
-6.32267e-05
0.00294186
-6.76506e-05
0.00294557
-7.18764e-05
0.0029495
-7.59106e-05
0.00295363
-7.97573e-05
0.00295797
-8.34189e-05
0.00296248
-8.68961e-05
0.00296718
-9.01888e-05
0.00297205
-9.32957e-05
0.00297707
-9.62147e-05
0.00298225
-9.89428e-05
0.00298757
-0.000101476
0.00299303
-0.000103806
0.0029986
-0.000105922
0.00300428
-0.000107804
0.00301006
-0.000109412
0.00301591
-0.00011068
0.00302181
-0.000111481
0.00302772
-0.000111603
-0.000110647
0.00303359
0.00288405
-4.22419e-06
0.00288464
-1.22553e-05
0.00288559
-1.97401e-05
0.00288687
-2.67602e-05
0.00288848
-3.33611e-05
0.00289038
-3.95967e-05
0.00289256
-4.5504e-05
0.00289502
-5.1117e-05
0.00289774
-5.64619e-05
0.0029007
-6.15604e-05
0.00290391
-6.64293e-05
0.00290734
-7.10815e-05
0.00291099
-7.55267e-05
0.00291485
-7.97715e-05
0.00291891
-8.38204e-05
0.00292317
-8.76759e-05
0.00292761
-9.13388e-05
0.00293223
-9.48087e-05
0.00293702
-9.80842e-05
0.00294197
-0.000101163
0.00294707
-0.000104042
0.00295231
-0.000106716
0.00295768
-0.000109178
0.00296317
-0.000111414
0.00296877
-0.000113404
0.00297447
-0.000115107
0.00298024
-0.00011645
0.00298606
-0.000117302
0.00299189
-0.00011744
-0.000116441
0.00299769
0.00285037
-4.42324e-06
0.00285094
-1.28322e-05
0.00285187
-2.06697e-05
0.00285313
-2.80204e-05
0.00285471
-3.49325e-05
0.00285657
-4.14626e-05
0.00285872
-4.76494e-05
0.00286113
-5.35286e-05
0.00286379
-5.9128e-05
0.0028667
-6.44702e-05
0.00286985
-6.9573e-05
0.00287322
-7.445e-05
0.0028768
-7.91112e-05
0.00288059
-8.35638e-05
0.00288459
-8.78124e-05
0.00288877
-9.18596e-05
0.00289314
-9.57061e-05
0.00289768
-9.93516e-05
0.00290239
-0.000102794
0.00290726
-0.000106032
0.00291228
-0.000109061
0.00291744
-0.000111876
0.00292273
-0.000114469
0.00292814
-0.000116826
0.00293366
-0.000118924
0.00293927
-0.00012072
0.00294496
-0.00012214
0.00295071
-0.000123043
0.00295646
-0.000123197
-0.000122157
0.00296218
0.00281708
-4.61847e-06
0.00281764
-1.33979e-05
0.00281855
-2.15814e-05
0.00281979
-2.92563e-05
0.00282133
-3.64736e-05
0.00282316
-4.32925e-05
0.00282526
-4.97534e-05
0.00282763
-5.58941e-05
0.00283024
-6.17434e-05
0.0028331
-6.73251e-05
0.00283618
-7.26579e-05
0.00283949
-7.77561e-05
0.00284301
-8.26301e-05
0.00284673
-8.72876e-05
0.00285065
-9.17333e-05
0.00285476
-9.59698e-05
0.00285906
-9.99982e-05
0.00286352
-0.000103818
0.00286815
-0.000107427
0.00287294
-0.000110822
0.00287788
-0.000114
0.00288296
-0.000116956
0.00288817
-0.000119679
0.0028935
-0.000122156
0.00289894
-0.000124363
0.00290448
-0.000126254
0.00291009
-0.00012775
0.00291575
-0.000128706
0.00292143
-0.000128877
-0.000127796
0.00292707
0.00278417
-4.80988e-06
0.00278473
-1.39525e-05
0.00278562
-2.24752e-05
0.00278683
-3.04678e-05
0.00278834
-3.79844e-05
0.00279014
-4.50864e-05
0.0027922
-5.18163e-05
0.00279452
-5.82135e-05
0.00279708
-6.43081e-05
0.00279988
-7.01251e-05
0.00280291
-7.5684e-05
0.00280615
-8.09998e-05
0.00280961
-8.60835e-05
0.00281326
-9.09429e-05
0.00281711
-9.55831e-05
0.00282115
-0.000100007
0.00282537
-0.000104215
0.00282975
-0.000108207
0.00283431
-0.000111981
0.00283902
-0.000115533
0.00284388
-0.00011886
0.00284888
-0.000121955
0.00285401
-0.00012481
0.00285926
-0.000127407
0.00286462
-0.000129722
0.00287007
-0.000131708
0.00287561
-0.000133281
0.00288119
-0.00013429
0.00288679
-0.00013448
-0.000133359
0.00289236
0.00275165
-4.99749e-06
0.0027522
-1.4496e-05
0.00275307
-2.3351e-05
0.00275426
-3.1655e-05
0.00275574
-3.94649e-05
0.0027575
-4.68445e-05
0.00275952
-5.38381e-05
0.00276179
-6.04868e-05
0.00276431
-6.68222e-05
0.00276705
-7.28703e-05
0.00277002
-7.86514e-05
0.0027732
-8.41812e-05
0.00277659
-8.94713e-05
0.00278018
-9.45298e-05
0.00278395
-9.9362e-05
0.00278792
-0.000103971
0.00279206
-0.000108357
0.00279637
-0.00011252
0.00280085
-0.000116457
0.00280548
-0.000120166
0.00281026
-0.000123641
0.00281518
-0.000126876
0.00282023
-0.00012986
0.0028254
-0.000132578
0.00283068
-0.000135002
0.00283606
-0.000137083
0.00284151
-0.000138734
0.00284702
-0.000139796
0.00285254
-0.000140005
-0.000138846
0.00285803
0.00271951
-5.1813e-06
0.00272005
-1.50285e-05
0.0027209
-2.42091e-05
0.00272207
-3.28181e-05
0.00272352
-4.09153e-05
0.00272524
-4.85667e-05
0.00272722
-5.58188e-05
0.00272945
-6.27142e-05
0.00273191
-6.92858e-05
0.0027346
-7.55607e-05
0.00273751
-8.15602e-05
0.00274063
-8.73005e-05
0.00274395
-9.27938e-05
0.00274747
-9.80485e-05
0.00275118
-0.00010307
0.00275507
-0.000107862
0.00275914
-0.000112424
0.00276337
-0.000116756
0.00276777
-0.000120856
0.00277233
-0.00012472
0.00277703
-0.000128342
0.00278187
-0.000131716
0.00278684
-0.000134831
0.00279193
-0.00013767
0.00279713
-0.000140204
0.00280243
-0.00014238
0.0028078
-0.000144109
0.00281323
-0.000145225
0.00281868
-0.000145454
-0.000144258
0.00282409
0.00268775
-5.36135e-06
0.00268827
-1.555e-05
0.00268911
-2.50495e-05
0.00269025
-3.39571e-05
0.00269167
-4.23356e-05
0.00269336
-5.02534e-05
0.0026953
-5.77587e-05
0.00269748
-6.48958e-05
0.00269989
-7.1699e-05
0.00270253
-7.81966e-05
0.00270538
-8.44106e-05
0.00270843
-9.03579e-05
0.00271169
-9.60511e-05
0.00271514
-0.000101499
0.00271878
-0.000106708
0.0027226
-0.00011168
0.00272659
-0.000116416
0.00273075
-0.000120916
0.00273507
-0.000125177
0.00273955
-0.000129195
0.00274417
-0.000132965
0.00274893
-0.000136478
0.00275382
-0.000139724
0.00275884
-0.000142683
0.00276396
-0.000145326
0.00276918
-0.000147599
0.00277448
-0.000149407
0.00277983
-0.000150577
0.0027852
-0.000150828
-0.000149595
0.00279054
0.00265636
-5.53766e-06
0.00265687
-1.60606e-05
0.00265769
-2.58722e-05
0.0026588
-3.50721e-05
0.00266019
-4.3726e-05
0.00266185
-5.19045e-05
0.00266374
-5.96577e-05
0.00266588
-6.70318e-05
0.00266824
-7.40621e-05
0.00267082
-8.07782e-05
0.00267362
-8.72027e-05
0.00267661
-9.33534e-05
0.0026798
-9.92433e-05
0.00268319
-0.000104882
0.00268675
-0.000110275
0.0026905
-0.000115425
0.00269442
-0.000120334
0.0026985
-0.000125
0.00270275
-0.000129421
0.00270714
-0.000133593
0.00271169
-0.000137509
0.00271637
-0.000141161
0.00272118
-0.000144537
0.00272612
-0.000147618
0.00273116
-0.000150371
0.0027363
-0.00015274
0.00274153
-0.000154628
0.0027468
-0.000155853
0.0027521
-0.000156126
-0.000154859
0.00275736
0.00262533
-5.71025e-06
0.00262583
-1.65603e-05
0.00262663
-2.66774e-05
0.00262772
-3.61632e-05
0.00262909
-4.50866e-05
0.0026307
-5.35202e-05
0.00263256
-6.15162e-05
0.00263465
-6.91223e-05
0.00263696
-7.63753e-05
0.00263949
-8.33055e-05
0.00264222
-8.99368e-05
0.00264516
-9.62874e-05
0.00264829
-0.000102371
0.0026516
-0.000108197
0.0026551
-0.000113771
0.00265877
-0.000119098
0.00266261
-0.000124177
0.00266662
-0.000129008
0.00267079
-0.000133588
0.00267511
-0.000137913
0.00267958
-0.000141975
0.00268418
-0.000145766
0.00268892
-0.000149273
0.00269377
-0.000152475
0.00269874
-0.000155338
0.0027038
-0.000157804
0.00270895
-0.000159772
0.00271415
-0.000161053
0.00271937
-0.00016135
-0.000160049
0.00272456
0.00259466
-5.87915e-06
0.00259515
-1.70492e-05
0.00259594
-2.74652e-05
0.00259701
-3.72307e-05
0.00259834
-4.64175e-05
0.00259992
-5.51007e-05
0.00260174
-6.33343e-05
0.00260378
-7.11676e-05
0.00260605
-7.86386e-05
0.00260852
-8.57789e-05
0.0026112
-9.26131e-05
0.00261407
-9.916e-05
0.00261713
-0.000105434
0.00262038
-0.000111444
0.00262381
-0.000117198
0.00262741
-0.000122699
0.00263118
-0.000127947
0.00263511
-0.000132941
0.0026392
-0.000137679
0.00264344
-0.000142155
0.00264783
-0.000146363
0.00265236
-0.000150292
0.00265701
-0.00015393
0.00266179
-0.000157254
0.00266668
-0.000160229
0.00267167
-0.000162792
0.00267674
-0.000164841
0.00268187
-0.000166179
0.00268702
-0.0001665
-0.000165166
0.00269213
0.00256436
-6.0444e-06
0.00256484
-1.75275e-05
0.00256561
-2.82356e-05
0.00256665
-3.82745e-05
0.00256795
-4.7719e-05
0.0025695
-5.66462e-05
0.00257128
-6.51122e-05
0.00257328
-7.31678e-05
0.00257549
-8.08524e-05
0.00257791
-8.81986e-05
0.00258053
-9.52318e-05
0.00258334
-0.000101972
0.00258634
-0.000108432
0.00258952
-0.000114625
0.00259288
-0.000120555
0.00259641
-0.000126228
0.0026001
-0.000131643
0.00260396
-0.000136799
0.00260797
-0.000141693
0.00261214
-0.00014632
0.00261645
-0.000150673
0.0026209
-0.000154741
0.00262548
-0.00015851
0.00263018
-0.000161956
0.00263499
-0.000165043
0.00263991
-0.000167705
0.0026449
-0.000169836
0.00264995
-0.000171231
0.00265503
-0.000171577
-0.000170211
0.00266008
0.00253441
-6.20603e-06
0.00253487
-1.79951e-05
0.00253563
-2.89888e-05
0.00253665
-3.92949e-05
0.00253792
-4.89912e-05
0.00253943
-5.81569e-05
0.00254117
-6.68501e-05
0.00254312
-7.51233e-05
0.00254529
-8.3017e-05
0.00254765
-9.05649e-05
0.00255022
-9.77933e-05
0.00255297
-0.000104722
0.0025559
-0.000111367
0.00255902
-0.000117739
0.0025623
-0.000123843
0.00256576
-0.000129685
0.00256938
-0.000135265
0.00257317
-0.000140581
0.0025771
-0.000145631
0.00258119
-0.000150409
0.00258543
-0.000154907
0.0025898
-0.000159113
0.0025943
-0.000163013
0.00259893
-0.000166582
0.00260366
-0.000169781
0.0026085
-0.000172543
0.00261342
-0.000174756
0.0026184
-0.000176209
0.00262341
-0.000176581
-0.000175185
0.00262838
0.0025048
-6.36408e-06
0.00250526
-1.84522e-05
0.002506
-2.9725e-05
0.00250699
-4.0292e-05
0.00250824
-5.02342e-05
0.00250971
-5.9633e-05
0.00251141
-6.85483e-05
0.00251332
-7.70342e-05
0.00251544
-8.51326e-05
0.00251775
-9.28781e-05
0.00252026
-0.000100298
0.00252295
-0.000107413
0.00252582
-0.000114238
0.00252886
-0.000120786
0.00253208
-0.000127062
0.00253547
-0.000133071
0.00253902
-0.000138814
0.00254273
-0.000144289
0.00254659
-0.000149494
0.0025506
-0.000154421
0.00255476
-0.000159063
0.00255905
-0.000163408
0.00256348
-0.00016744
0.00256803
-0.000171132
0.00257269
-0.000174445
0.00257746
-0.000177307
0.0025823
-0.000179604
0.00258721
-0.000181116
0.00259214
-0.000181515
-0.000180088
0.00259705
0.00247555
-6.51858e-06
0.00247599
-1.88989e-05
0.00247671
-3.04443e-05
0.00247769
-4.12659e-05
0.0024789
-5.14483e-05
0.00248034
-6.10747e-05
0.002482
-7.0207e-05
0.00248387
-7.89009e-05
0.00248594
-8.71995e-05
0.0024882
-9.51385e-05
0.00249064
-0.000102746
0.00249327
-0.000110043
0.00249608
-0.000117046
0.00249906
-0.000123767
0.00250221
-0.000130212
0.00250553
-0.000136386
0.002509
-0.000142291
0.00251264
-0.000147923
0.00251643
-0.000153281
0.00252036
-0.000158357
0.00252444
-0.000163143
0.00252866
-0.000167626
0.00253301
-0.00017179
0.00253748
-0.000175607
0.00254207
-0.000179034
0.00254676
-0.000181997
0.00255154
-0.000184379
0.00255637
-0.00018595
0.00256124
-0.000186377
-0.000184922
0.00256607
0.00244663
-6.66959e-06
0.00244707
-1.93352e-05
0.00244777
-3.11467e-05
0.00244872
-4.2217e-05
0.00244991
-5.26337e-05
0.00245132
-6.24822e-05
0.00245293
-7.18265e-05
0.00245476
-8.07236e-05
0.00245678
-8.9218e-05
0.00245898
-9.73465e-05
0.00246138
-0.000105138
0.00246395
-0.000112614
0.00246669
-0.000119791
0.00246961
-0.000126682
0.00247269
-0.000133294
0.00247593
-0.000139631
0.00247934
-0.000145695
0.0024829
-0.000151483
0.00248661
-0.000156993
0.00249047
-0.000162217
0.00249447
-0.000167146
0.00249862
-0.000171768
0.00250289
-0.000176065
0.00250729
-0.000180006
0.0025118
-0.000183549
0.00251642
-0.000186615
0.00252113
-0.000189082
0.00252589
-0.000190714
0.00253068
-0.00019117
-0.000189686
0.00253545
0.00241806
-6.81714e-06
0.00241848
-1.97613e-05
0.00241917
-3.18325e-05
0.0024201
-4.31452e-05
0.00242125
-5.37906e-05
0.00242263
-6.38558e-05
0.00242421
-7.3407e-05
0.00242599
-8.25027e-05
0.00242796
-9.11885e-05
0.00243011
-9.95024e-05
0.00243245
-0.000107474
0.00243496
-0.000115125
0.00243764
-0.000122474
0.00244049
-0.000129532
0.00244351
-0.000136308
0.00244668
-0.000142806
0.00245001
-0.000149027
0.0024535
-0.00015497
0.00245714
-0.00016063
0.00246092
-0.000166001
0.00246485
-0.000171074
0.00246891
-0.000175835
0.00247311
-0.000180264
0.00247744
-0.000184332
0.00248188
-0.000187991
0.00248643
-0.00019116
0.00249106
-0.000193715
0.00249575
-0.000195408
0.00250048
-0.000195895
-0.000194383
0.00250518
0.00238981
-6.96128e-06
0.00239023
-2.01773e-05
0.0023909
-3.25018e-05
0.0023918
-4.40509e-05
0.00239293
-5.49192e-05
0.00239427
-6.51958e-05
0.00239581
-7.49489e-05
0.00239755
-8.42384e-05
0.00239947
-9.31114e-05
0.00240158
-0.000101607
0.00240386
-0.000109754
0.00240631
-0.000117578
0.00240893
-0.000125095
0.00241171
-0.000132318
0.00241466
-0.000139255
0.00241777
-0.000145911
0.00242103
-0.000152288
0.00242444
-0.000158383
0.002428
-0.000164193
0.00243171
-0.00016971
0.00243556
-0.000174926
0.00243956
-0.000179826
0.00244368
-0.000184389
0.00244793
-0.000188583
0.0024523
-0.00019236
0.00245678
-0.000195635
0.00246134
-0.000198278
0.00246596
-0.000200034
0.00247062
-0.000200551
-0.000199013
0.00247525
0.0023619
-7.10206e-06
0.0023623
-2.05832e-05
0.00236296
-3.31547e-05
0.00236384
-4.49341e-05
0.00236494
-5.60196e-05
0.00236625
-6.65023e-05
0.00236775
-7.64524e-05
0.00236944
-8.59312e-05
0.00237132
-9.4987e-05
0.00237337
-0.000103659
0.0023756
-0.00011198
0.00237799
-0.000119972
0.00238055
-0.000127654
0.00238327
-0.000135038
0.00238615
-0.000142135
0.00238919
-0.000148947
0.00239238
-0.000155477
0.00239572
-0.000161723
0.00239921
-0.000167682
0.00240284
-0.000173345
0.00240662
-0.000178704
0.00241053
-0.000183742
0.00241458
-0.000188439
0.00241876
-0.000192761
0.00242306
-0.000196658
0.00242746
-0.000200039
0.00243196
-0.000202772
0.00243652
-0.000204593
0.00244111
-0.000205142
-0.000203576
0.00244567
0.00233431
-7.23953e-06
0.00233471
-2.09791e-05
0.00233534
-3.37914e-05
0.0023362
-4.5795e-05
0.00233728
-5.70922e-05
0.00233855
-6.77757e-05
0.00234002
-7.79179e-05
0.00234167
-8.75813e-05
0.00234349
-9.68157e-05
0.0023455
-0.000105662
0.00234767
-0.000114151
0.00235
-0.000122308
0.0023525
-0.000130152
0.00235516
-0.000137695
0.00235797
-0.000144948
0.00236094
-0.000151914
0.00236406
-0.000158596
0.00236733
-0.000164991
0.00237074
-0.000171097
0.0023743
-0.000176905
0.002378
-0.000182406
0.00238185
-0.000187583
0.00238582
-0.000192415
0.00238993
-0.000196866
0.00239415
-0.000200884
0.00239849
-0.000204374
0.00240291
-0.000207199
0.00240741
-0.000209085
0.00241193
-0.000209667
-0.000208075
0.00241643
0.00230705
-7.37374e-06
0.00230743
-2.13652e-05
0.00230805
-3.4412e-05
0.00230889
-4.66339e-05
0.00230994
-5.81372e-05
0.00231118
-6.90163e-05
0.0023126
-7.93456e-05
0.00231421
-8.91892e-05
0.00231599
-9.85979e-05
0.00231795
-0.000107613
0.00232006
-0.000116268
0.00232234
-0.000124586
0.00232478
-0.000132589
0.00232737
-0.000140289
0.00233012
-0.000147695
0.00233302
-0.000154813
0.00233607
-0.000161644
0.00233926
-0.000168188
0.00234261
-0.000174439
0.00234609
-0.000180392
0.00234972
-0.000186034
0.00235349
-0.00019135
0.00235739
-0.000196318
0.00236142
-0.000200899
0.00236558
-0.000205039
0.00236984
-0.00020864
0.0023742
-0.00021156
0.00237863
-0.000213512
0.00238309
-0.000214128
-0.000212511
0.00238753
0.0022801
-7.50475e-06
0.00228047
-2.17416e-05
0.00228108
-3.50166e-05
0.0022819
-4.74509e-05
0.00228291
-5.91547e-05
0.00228412
-7.02242e-05
0.00228551
-8.0736e-05
0.00228708
-9.07552e-05
0.00228881
-0.000100334
0.00229072
-0.000109515
0.00229278
-0.000118331
0.002295
-0.000126808
0.00229738
-0.000134966
0.00229991
-0.000142819
0.00230259
-0.000150377
0.00230542
-0.000157644
0.0023084
-0.000164623
0.00231153
-0.000171313
0.0023148
-0.000177709
0.00231821
-0.000183805
0.00232176
-0.000189588
0.00232546
-0.000195044
0.00232928
-0.000200147
0.00233325
-0.00020486
0.00233733
-0.000209124
0.00234153
-0.000212839
0.00234582
-0.000215855
0.00235019
-0.000217877
0.00235459
-0.000218527
-0.000216884
0.00235896
0.00225347
-7.63259e-06
0.00225383
-2.21082e-05
0.00225442
-3.56054e-05
0.00225522
-4.82462e-05
0.00225621
-6.01451e-05
0.00225738
-7.13999e-05
0.00225874
-8.20892e-05
0.00226026
-9.22797e-05
0.00226195
-0.000102025
0.0022638
-0.000111367
0.00226581
-0.000120341
0.00226798
-0.000128973
0.0022703
-0.000137284
0.00227277
0.00227538
0.00227815
0.00228106
0.00228411
0.00228731
0.00229065
0.00229413
0.00229775
0.0023015
0.00230539
0.00230941
0.00231354
0.00231777
0.00232207
0.00232641
0.00233072
0.00222715
0.0022275
0.00222808
0.00222885
0.00222981
0.00223096
0.00223227
0.00223376
0.0022354
0.0022372
0.00223916
0.00224127
0.00355765
0.000108226
0.00345149
0.000106156
0.00334745
0.000104039
0.00324557
0.000101879
0.00314589
9.96783e-05
0.00304846
9.74373e-05
0.0029533
9.51567e-05
0.00286046
9.28365e-05
0.00276999
9.0477e-05
0.00268191
8.80782e-05
0.00259627
8.56398e-05
0.00251311
8.31616e-05
0.00243246
8.06436e-05
0.00235438
7.80851e-05
0.00227889
7.54859e-05
0.00220605
7.28457e-05
0.00213588
7.01638e-05
0.00206844
6.74401e-05
0.00200377
6.46742e-05
0.0019419
6.18653e-05
0.00188289
5.90137e-05
0.00182677
5.61187e-05
0.00177359
5.31803e-05
0.00172339
5.01985e-05
4.71733e-05
0.00351601
0.000215237
0.00341106
0.00021111
0.0033082
0.000206895
0.00320749
0.000202596
0.00310895
0.000198216
0.00301263
0.000193757
0.00291857
0.000189219
0.0028268
0.000184603
0.00273737
0.000179908
0.00265031
0.000175136
0.00256567
0.000170285
0.00248347
0.000165355
0.00240377
0.000160346
0.0023266
0.000155257
0.002252
0.000150088
0.00218001
0.000144836
0.00211067
0.000139503
0.00204402
0.000134086
0.00198011
0.000128585
0.00191898
0.000122999
0.00186066
0.000117328
0.00180521
0.000111571
0.00175266
0.000105728
0.00170306
9.97987e-05
9.3783e-05
0.00347483
0.000321048
0.00337106
0.00031488
0.00326937
0.000308583
0.0031698
0.000302164
0.00307239
0.000295626
0.00297718
0.00028897