/*--------------------------------*- C++ -*----------------------------------*\
  =========                 |
  \\      /  F ield         | OpenFOAM: The Open Source CFD Toolbox
   \\    /   O peration     | Website:  https://openfoam.org
    \\  /    A nd           | Version:  7
     \\/     M anipulation  |
\*---------------------------------------------------------------------------*/
FoamFile
{
    version     2.0;
    format      ascii;
    class       volVectorField;
    location    "20";
    object      U;
}
// * * * * * * * * * * * * * * * * * * * * * * * * * * * * * * * * * * * * * //

dimensions      [0 1 -1 0 0 0 0];

internalField   nonuniform List<vector> 
2625
(
(1.26565 0.211824 -3.39781e-23)
(1.26959 0.208466 3.34514e-23)
(1.27332 0.204968 -4.60904e-22)
(1.27681 0.201329 -7.98394e-22)
(1.28005 0.197547 2.8225e-21)
(1.28304 0.193621 5.4723e-22)
(1.28575 0.189552 -2.46957e-21)
(1.28817 0.185338 2.90618e-21)
(1.29028 0.180979 1.16052e-21)
(1.26378 0.2085 -1.69323e-22)
(1.26775 0.205344 -1.95103e-23)
(1.27153 0.202054 -9.6524e-22)
(1.27509 0.19863 1.42145e-22)
(1.27843 0.195071 -8.08054e-22)
(1.28152 0.191375 6.55585e-22)
(1.28436 0.187541 -1.23323e-21)
(1.28693 0.183569 -2.27955e-21)
(1.28921 0.179458 6.20827e-21)
(1.29119 0.175206 -5.68436e-21)
(1.29285 0.170814 -1.58079e-21)
(1.29418 0.166281 -1.48618e-21)
(1.29516 0.161607 -1.69167e-21)
(1.26181 0.205076 -4.2582e-23)
(1.26581 0.202112 1.36582e-22)
(1.26963 0.199022 3.64496e-22)
(1.27325 0.195805 8.39865e-22)
(1.27666 0.19246 1.01976e-21)
(1.27985 0.188986 2.98731e-21)
(1.28281 0.18538 1.80584e-21)
(1.28551 0.181642 7.62487e-22)
(1.28795 0.177771 -7.60781e-21)
(1.29011 0.173765 -1.11241e-21)
(1.29197 0.169623 2.78673e-22)
(1.29353 0.165346 4.47041e-21)
(1.29475 0.160932 2.40748e-21)
(1.29563 0.156381 2.77851e-21)
(1.29615 0.151695 1.30722e-21)
(1.2963 0.146874 -1.53409e-21)
(1.29605 0.141919 8.86014e-21)
(1.25976 0.201558 1.71481e-22)
(1.26377 0.198776 -8.58135e-23)
(1.26762 0.195877 -9.36973e-23)
(1.27129 0.192859 -7.76736e-22)
(1.27477 0.189719 -2.51244e-21)
(1.27804 0.186457 2.78215e-22)
(1.2811 0.183071 -1.23992e-21)
(1.28393 0.179559 3.56799e-22)
(1.28651 0.175919 8.23896e-21)
(1.28883 0.172151 5.04048e-21)
(1.29088 0.168252 3.66433e-21)
(1.29264 0.164223 -9.85068e-23)
(1.2941 0.160061 5.63321e-21)
(1.29523 0.155768 -6.72873e-21)
(1.29603 0.151341 -7.80681e-21)
(1.29648 0.146782 9.08483e-21)
(1.29656 0.142092 -6.1352e-21)
(1.29626 0.137272 -1.43905e-20)
(1.29555 0.132324 -5.25854e-22)
(1.29443 0.127251 1.66469e-21)
(1.25764 0.19795 -1.01697e-23)
(1.26166 0.195343 2.93319e-22)
(1.26552 0.192626 1.20452e-22)
(1.26923 0.189797 5.95155e-22)
(1.27276 0.186853 2.80561e-21)
(1.2761 0.183795 -1.87811e-21)
(1.27925 0.180618 -4.59547e-22)
(1.28218 0.177323 3.08596e-22)
(1.28489 0.173906 -2.26766e-21)
(1.28736 0.170367 -3.92889e-21)
(1.28958 0.166703 -5.36927e-21)
(1.29154 0.162914 3.79286e-21)
(1.29321 0.158997 -6.02713e-21)
(1.29458 0.154953 1.44262e-21)
(1.29564 0.15078 7.96652e-21)
(1.29637 0.146477 -8.13266e-21)
(1.29676 0.142046 1.66042e-21)
(1.2968 0.137486 8.23112e-21)
(1.29645 0.132799 -9.18073e-21)
(1.29572 0.127988 6.48837e-22)
(1.29458 0.123054 -5.50184e-21)
(1.29302 0.118001 -1.01783e-20)
(1.25545 0.194261 9.12329e-23)
(1.25947 0.191819 -2.15933e-22)
(1.26334 0.189274 -4.63585e-23)
(1.26707 0.186624 -7.89215e-22)
(1.27064 0.183868 -1.10301e-21)
(1.27404 0.181003 -1.80265e-21)
(1.27726 0.178028 1.16065e-21)
(1.28029 0.17494 1.16242e-21)
(1.28311 0.171737 -8.7487e-22)
(1.28572 0.168418 4.43974e-21)
(1.28809 0.16498 8.45811e-22)
(1.29022 0.161422 -8.97563e-21)
(1.29208 0.157742 -4.2148e-22)
(1.29368 0.153939 6.05215e-21)
(1.29498 0.150011 -5.27201e-21)
(1.29598 0.145958 3.49068e-22)
(1.29666 0.141779 4.94085e-21)
(1.29701 0.137474 -3.48652e-21)
(1.29701 0.133044 1.92577e-20)
(1.29664 0.128489 9.97285e-21)
(1.29589 0.123812 5.29358e-21)
(1.29475 0.119015 -7.90681e-21)
(1.2932 0.114101 -7.48258e-21)
(1.29123 0.109075 -3.16638e-21)
(1.28883 0.103943 -7.22256e-21)
(1.25322 0.190497 -5.88814e-23)
(1.25721 0.18821 1.64904e-22)
(1.26109 0.185828 6.07028e-22)
(1.26483 0.183348 9.81098e-22)
(1.26843 0.180769 -1.7473e-21)
(1.27188 0.178088 3.22133e-21)
(1.27516 0.175304 4.52338e-22)
(1.27827 0.172414 -3.53935e-21)
(1.28119 0.169415 -7.43444e-22)
(1.28391 0.166307 -5.49566e-21)
(1.28642 0.163086 4.95152e-21)
(1.2887 0.159751 6.67486e-23)
(1.29075 0.156299 3.07427e-21)
(1.29254 0.152729 2.29715e-24)
(1.29407 0.149038 3.87251e-21)
(1.29531 0.145227 5.11786e-21)
(1.29626 0.141294 -4.58346e-21)
(1.2969 0.137237 7.21837e-23)
(1.29722 0.133057 -7.48555e-21)
(1.2972 0.128755 -1.67141e-20)
(1.29682 0.12433 -2.74878e-21)
(1.29607 0.119785 1.09736e-20)
(1.29495 0.115122 1.08062e-20)
(1.29343 0.110344 -1.03867e-20)
(1.2915 0.105455 -2.22907e-21)
(1.28915 0.100461 -9.81251e-21)
(1.28637 0.0953688 -1.35593e-20)
(1.25094 0.186665 -1.02313e-23)
(1.25491 0.184523 -4.03506e-23)
(1.25877 0.182294 -1.30405e-22)
(1.26252 0.179975 3.04856e-22)
(1.26613 0.177563 2.1342e-21)
(1.26961 0.175057 -2.78293e-21)
(1.27294 0.172454 -1.38758e-21)
(1.27612 0.169751 1.6997e-21)
(1.27912 0.166948 -1.82458e-22)
(1.28194 0.16404 3.22275e-21)
(1.28457 0.161026 -3.86855e-21)
(1.28699 0.157904 1.42093e-22)
(1.2892 0.154671 4.01969e-21)
(1.29117 0.151325 -3.98465e-21)
(1.2929 0.147864 1.55712e-21)
(1.29438 0.144287 -2.8036e-21)
(1.29558 0.140591 3.17503e-21)
(1.29649 0.136776 2.58189e-21)
(1.2971 0.13284 -8.47634e-21)
(1.2974 0.128784 -3.19593e-21)
(1.29737 0.124607 -6.34563e-21)
(1.297 0.12031 -1.89164e-21)
(1.29627 0.115894 -1.06874e-20)
(1.29517 0.111362 5.00334e-21)
(1.29369 0.106717 -1.13302e-20)
(1.29181 0.101962 1.45814e-20)
(1.28953 0.0971034 1.98042e-20)
(1.28683 0.0921467 4.94356e-21)
(1.28371 0.0870999 8.10153e-22)
(1.24863 0.182771 -7.2219e-23)
(1.25257 0.180766 -2.04942e-23)
(1.25641 0.178681 -7.2883e-22)
(1.26014 0.176512 -1.20076e-21)
(1.26377 0.174257 -7.74415e-22)
(1.26726 0.171915 7.11166e-23)
(1.27063 0.169484 1.00201e-21)
(1.27385 0.166959 1.42019e-21)
(1.27693 0.16434 -6.67124e-22)
(1.27983 0.161624 -3.96358e-22)
(1.28257 0.158807 -2.09012e-21)
(1.28511 0.155889 5.85436e-21)
(1.28746 0.152865 -6.12109e-22)
(1.2896 0.149734 -3.16144e-22)
(1.29151 0.146493 -2.64736e-21)
(1.29319 0.143141 -1.17017e-21)
(1.29461 0.139675 -2.7632e-21)
(1.29578 0.136093 -1.88078e-21)
(1.29667 0.132395 5.11207e-21)
(1.29726 0.128578 1.25583e-20)
(1.29755 0.124643 8.06203e-21)
(1.29753 0.12059 -2.01767e-21)
(1.29717 0.116418 -4.03283e-21)
(1.29647 0.11213 1.88802e-20)
(1.29541 0.107726 2.05733e-20)
(1.29399 0.10321 5.30327e-21)
(1.29218 0.0985865 -1.72854e-20)
(1.28998 0.0938595 -1.27841e-20)
(1.28737 0.0890357 -7.25506e-21)
(1.28436 0.0841235 1.7113e-21)
(1.28093 0.0791335 -1.91985e-20)
(1.24629 0.178823 -5.02319e-25)
(1.25019 0.176945 -2.16616e-23)
(1.254 0.174994 3.65575e-22)
(1.25772 0.172966 7.75243e-22)
(1.26133 0.170859 1.11054e-21)
(1.26484 0.168672 7.61444e-22)
(1.26823 0.166401 -1.10676e-21)
(1.27149 0.164045 -3.19105e-21)
(1.27462 0.1616 1.49886e-22)
(1.2776 0.159064 -4.75001e-22)
(1.28042 0.156435 8.68471e-22)
(1.28307 0.15371 -4.9374e-21)
(1.28554 0.150886 2.6542e-21)
(1.28782 0.14796 1.13554e-21)
(1.2899 0.14493 -2.40781e-21)
(1.29176 0.141794 8.26334e-22)
(1.29339 0.138549 3.59567e-21)
(1.29478 0.135193 -4.48864e-21)
(1.29592 0.131724 -2.46722e-21)
(1.29679 0.12814 -1.28328e-20)
(1.29738 0.124441 2.91785e-21)
(1.29768 0.120626 4.47924e-21)
(1.29767 0.116693 -4.06664e-21)
(1.29734 0.112645 -1.49485e-20)
(1.29668 0.108481 -8.15541e-21)
(1.29567 0.104203 -1.2952e-20)
(1.29431 0.0998145 5.0278e-21)
(1.29258 0.095319 1.86241e-20)
(1.29047 0.0907219 -2.09358e-22)
(1.28798 0.0860301 -1.39467e-20)
(1.28508 0.0812531 1.37695e-20)
(1.28179 0.0764031 -3.94336e-22)
(1.27808 0.0714967 -4.44346e-21)
(1.27395 0.0665565 5.95349e-22)
(1.24393 0.174826 9.71082e-23)
(1.24778 0.173068 2.54688e-23)
(1.25156 0.171241 3.40162e-22)
(1.25525 0.169345 -2.63358e-23)
(1.25885 0.167376 -6.74696e-22)
(1.26236 0.165334 2.4383e-22)
(1.26576 0.163214 1.19769e-21)
(1.26904 0.161015 2.67902e-21)
(1.27221 0.158735 -2.11605e-22)
(1.27524 0.15637 7.16981e-22)
(1.27813 0.153918 3.82689e-22)
(1.28087 0.151376 -1.2313e-21)
(1.28345 0.148741 -2.63977e-21)
(1.28586 0.14601 2.84391e-21)
(1.28808 0.143182 4.39133e-21)
(1.2901 0.140252 -2.49758e-21)
(1.29192 0.137219 2.44278e-21)
(1.29352 0.13408 7.25411e-21)
(1.29489 0.130832 -9.70107e-22)
(1.29601 0.127474 9.47903e-21)
(1.29687 0.124004 -6.24567e-21)
(1.29746 0.12042 -1.05523e-20)
(1.29778 0.116722 9.41611e-21)
(1.29779 0.112908 -6.40978e-21)
(1.2975 0.108981 5.17631e-21)
(1.29688 0.104939 4.98438e-21)
(1.29594 0.100785 4.31949e-21)
(1.29465 0.0965216 -1.81242e-21)
(1.29301 0.0921533 1.57758e-21)
(1.291 0.0876859 1.78179e-20)
(1.28863 0.0831274 -6.26234e-21)
(1.28587 0.0784891 -2.22192e-21)
(1.28272 0.0737861 -1.29622e-21)
(1.27917 0.0690395 -2.06961e-21)
(1.27522 0.0642783 -2.03327e-20)
(1.27086 0.0595425 4.69319e-21)
(1.24156 0.170789 -9.95415e-24)
(1.24536 0.16914 -2.5553e-22)
(1.24909 0.16743 2.43412e-22)
(1.25275 0.165656 -9.87031e-23)
(1.25632 0.163816 1.97597e-22)
(1.25982 0.161908 6.88774e-22)
(1.26322 0.15993 8.88127e-22)
(1.26652 0.157879 -9.38611e-22)
(1.26971 0.155752 5.63163e-22)
(1.27278 0.153548 -2.1246e-21)
(1.27573 0.151262 3.63152e-21)
(1.27855 0.148893 4.70645e-21)
(1.28121 0.146438 1.80594e-21)
(1.28372 0.143893 -3.88476e-21)
(1.28607 0.141255 -6.18079e-21)
(1.28824 0.138523 4.67328e-21)
(1.29022 0.135692 1.81809e-22)
(1.292 0.13276 -4.74133e-21)
(1.29357 0.129725 2.73298e-21)
(1.29492 0.126584 -2.70669e-22)
(1.29603 0.123335 8.85453e-22)
(1.2969 0.119976 2.49957e-21)
(1.2975 0.116506 -4.35512e-21)
(1.29784 0.112923 1.5254e-20)
(1.29788 0.109226 -4.4361e-22)
(1.29764 0.105417 1.12723e-20)
(1.29708 0.101496 3.37879e-21)
(1.29621 0.0974646 2.29846e-21)
(1.295 0.0933261 1.69482e-20)
(1.29346 0.0890855 -5.9419e-21)
(1.29156 0.0847497 3.96148e-21)
(1.28931 0.0803286 -5.98393e-21)
(1.28669 0.0758362 -6.63049e-21)
(1.2837 0.0712919 5.66815e-21)
(1.28032 0.0667228 1.52978e-20)
(1.27656 0.0621663 1.18861e-20)
(1.23918 0.166715 -2.09285e-23)
(1.24292 0.165168 1.91904e-22)
(1.2466 0.163566 -5.47996e-22)
(1.25021 0.161905 6.19668e-23)
(1.25376 0.160185 -3.97876e-22)
(1.25723 0.158403 -4.33574e-23)
(1.26063 0.156556 1.6961e-22)
(1.26393 0.154643 7.28255e-22)
(1.26713 0.152661 -4.72305e-22)
(1.27024 0.150607 4.20411e-22)
(1.27323 0.148478 -1.32782e-21)
(1.2761 0.146272 -2.74118e-21)
(1.27884 0.143985 -7.54368e-22)
(1.28144 0.141615 2.84206e-21)
(1.28389 0.139158 2.62649e-21)
(1.28618 0.136612 -2.96867e-21)
(1.28831 0.133974 -7.32147e-21)
(1.29025 0.131241 4.39319e-21)
(1.292 0.128409 -5.36239e-23)
(1.29355 0.125476 -8.44898e-22)
(1.29489 0.12244 5.94556e-21)
(1.296 0.119299 6.13117e-21)
(1.29687 0.116049 -6.50047e-21)
(1.29749 0.11269 -1.16444e-20)
(1.29786 0.109221 -9.14767e-21)
(1.29794 0.10564 -4.04266e-21)
(1.29775 0.101948 -5.20102e-21)
(1.29726 0.0981468 -4.47937e-21)
(1.29646 0.0942377 -1.24085e-20)
(1.29535 0.0902248 -2.96317e-22)
(1.29391 0.0861141 -1.26214e-20)
(1.29213 0.0819142 -2.75043e-21)
(1.29001 0.0776378 2.54884e-20)
(1.28754 0.0733027 1.21639e-21)
(1.28471 0.0689336 -1.06328e-20)
(1.28152 0.0645655 2.25933e-21)
(1.2368 0.162611 -8.67586e-24)
(1.24047 0.161158 9.12506e-23)
(1.2441 0.159656 2.80369e-22)
(1.24766 0.158101 1.06009e-22)
(1.25117 0.156491 1.2572e-22)
(1.25462 0.154826 -1.58174e-21)
(1.25799 0.153102 -1.61514e-21)
(1.26128 0.151317 -1.34932e-21)
(1.26449 0.149469 1.2739e-21)
(1.26761 0.147555 4.12809e-22)
(1.27063 0.145573 2.90785e-22)
(1.27354 0.143519 9.98866e-22)
(1.27634 0.141391 -1.11781e-21)
(1.27901 0.139185 -8.98105e-22)
(1.28155 0.1369 -2.65489e-21)
(1.28395 0.134531 7.91317e-22)
(1.28619 0.132075 3.50194e-21)
(1.28828 0.12953 -5.93246e-22)
(1.29019 0.126892 -6.76922e-22)
(1.29192 0.124158 -3.77534e-21)
(1.29345 0.121327 -4.31204e-21)
(1.29478 0.118394 4.93845e-21)
(1.2959 0.115357 4.82639e-21)
(1.29678 0.112216 5.96516e-21)
(1.29743 0.108967 1.45678e-21)
(1.29783 0.105609 -4.86005e-21)
(1.29796 0.102143 -3.72188e-21)
(1.29783 0.0985686 5.09567e-21)
(1.29741 0.0948869 6.67434e-21)
(1.29669 0.0911013 -4.84076e-21)
(1.29568 0.0872165 1.52225e-20)
(1.29435 0.0832401 1.2784e-20)
(1.2927 0.0791834 -1.98278e-21)
(1.29072 0.0750623 -1.10858e-20)
(1.28841 0.0708995 9.6234e-21)
(1.28575 0.0667269 2.43717e-21)
(1.23442 0.158481 3.83252e-23)
(1.23802 0.157116 -5.69404e-23)
(1.24159 0.155706 -3.23492e-22)
(1.2451 0.154248 -3.38809e-22)
(1.24856 0.152742 1.13808e-22)
(1.25197 0.151184 1.38665e-21)
(1.25531 0.149574 7.01649e-22)
(1.25859 0.147908 7.13077e-22)
(1.26179 0.146185 -4.92105e-22)
(1.26491 0.144402 -3.44241e-22)
(1.26795 0.142556 -5.11001e-22)
(1.27089 0.140645 -5.18712e-22)
(1.27373 0.138665 -3.43822e-21)
(1.27646 0.136614 -1.57372e-21)
(1.27907 0.134489 6.08202e-21)
(1.28155 0.132286 8.20199e-22)
(1.2839 0.130003 -2.74308e-21)
(1.2861 0.127636 4.26974e-22)
(1.28815 0.125182 3.48798e-21)
(1.29004 0.122638 6.20281e-21)
(1.29175 0.120001 7.23922e-21)
(1.29327 0.117268 -8.76374e-21)
(1.2946 0.114437 -4.27777e-21)
(1.29572 0.111505 1.64431e-21)
(1.29663 0.108469 9.47859e-22)
(1.2973 0.105329 -7.00805e-21)
(1.29774 0.102083 7.76384e-21)
(1.29793 0.0987315 1.25759e-21)
(1.29786 0.0952742 -3.71037e-21)
(1.29751 0.0917139 -1.9837e-21)
(1.29689 0.0880543 -1.80742e-20)
(1.29598 0.084302 2.01934e-22)
(1.29476 0.0804668 -1.0127e-20)
(1.29325 0.0765629 4.9266e-21)
(1.29141 0.0726108 5.59712e-21)
(1.28926 0.0686391 -4.83463e-21)
(1.23204 0.154331 -1.81802e-23)
(1.23557 0.153047 -3.02086e-23)
(1.23907 0.151721 3.5001e-22)
(1.24253 0.150354 -1.06262e-22)
(1.24594 0.148942 -2.38915e-22)
(1.2493 0.147485 -4.06745e-22)
(1.25261 0.14598 -2.65353e-22)
(1.25586 0.144425 -6.87659e-22)
(1.25905 0.142817 -4.71524e-22)
(1.26216 0.141155 1.35037e-21)
(1.2652 0.139436 -1.96911e-21)
(1.26816 0.137658 -4.40929e-22)
(1.27103 0.135817 3.14479e-21)
(1.27379 0.13391 3.76357e-21)
(1.27646 0.131935 -2.37835e-21)
(1.27901 0.129888 1.22686e-21)
(1.28145 0.127767 2.88704e-21)
(1.28375 0.125568 -4.12129e-21)
(1.28592 0.123288 4.3528e-22)
(1.28793 0.120924 -1.55762e-21)
(1.28979 0.118473 -5.19929e-21)
(1.29149 0.115931 3.53923e-21)
(1.29301 0.113296 1.26473e-20)
(1.29434 0.110565 2.63236e-21)
(1.29547 0.107735 -2.72089e-21)
(1.2964 0.104805 8.11832e-21)
(1.29711 0.101773 -7.87735e-21)
(1.29759 0.0986388 3.71328e-22)
(1.29784 0.0954016 5.10295e-21)
(1.29783 0.0920632 -2.2353e-21)
(1.29757 0.0886267 7.0965e-21)
(1.29704 0.0850974 -1.6508e-20)
(1.29623 0.0814839 1.50734e-20)
(1.29514 0.0777986 -4.77213e-21)
(1.29376 0.0740597 -1.57243e-20)
(1.29208 0.0702928 -1.56151e-20)
(1.22966 0.150164 -5.47357e-24)
(1.23313 0.148954 2.15582e-24)
(1.23656 0.147708 -1.87626e-22)
(1.23995 0.146424 1.97413e-22)
(1.24331 0.1451 5.01867e-22)
(1.24662 0.143735 4.40479e-22)
(1.24989 0.142327 7.64045e-22)
(1.25311 0.140874 -2.34058e-22)
(1.25627 0.139374 4.56595e-22)
(1.25937 0.137824 -5.11606e-22)
(1.2624 0.136223 -2.62753e-22)
(1.26536 0.134568 1.05056e-21)
(1.26824 0.132855 -7.75616e-22)
(1.27104 0.131083 -1.69264e-21)
(1.27374 0.129248 3.06805e-22)
(1.27635 0.127348 -1.81038e-21)
(1.27885 0.125379 -7.73865e-22)
(1.28123 0.123338 3.79457e-21)
(1.28349 0.121222 3.50693e-21)
(1.28562 0.119027 -5.7647e-21)
(1.28761 0.116751 4.19396e-21)
(1.28946 0.114391 -3.91447e-21)
(1.29114 0.111943 -2.91938e-21)
(1.29265 0.109404 -6.65485e-21)
(1.29399 0.106772 4.19586e-21)
(1.29514 0.104044 2.0923e-21)
(1.29609 0.101219 4.08061e-21)
(1.29684 0.0982954 -3.85599e-21)
(1.29737 0.0952726 -6.70528e-21)
(1.29767 0.0921515 9.11553e-21)
(1.29773 0.0889344 7.49044e-21)
(1.29755 0.0856257 5.28477e-21)
(1.29712 0.0822323 -6.23961e-21)
(1.29643 0.0787653 -6.55443e-21)
(1.29546 0.0752404 -8.80578e-21)
(1.29422 0.0716803 1.70518e-20)
(1.2273 0.145983 1.09988e-23)
(1.23068 0.144843 -3.06821e-23)
(1.23404 0.14367 -3.16872e-24)
(1.23737 0.142462 8.82549e-23)
(1.24067 0.14122 -4.02013e-22)
(1.24393 0.13994 -3.56505e-22)
(1.24715 0.138622 -6.69938e-22)
(1.25033 0.137263 1.7227e-21)
(1.25346 0.135862 -5.12201e-22)
(1.25653 0.134417 1.60831e-21)
(1.25955 0.132924 1.30807e-21)
(1.2625 0.131383 -1.41539e-22)
(1.26539 0.12979 -1.22658e-22)
(1.2682 0.128143 -1.11565e-21)
(1.27093 0.126439 -2.90704e-21)
(1.27357 0.124675 3.08653e-21)
(1.27612 0.122847 -1.10984e-21)
(1.27857 0.120954 -1.50102e-21)
(1.28091 0.118992 -5.4367e-21)
(1.28313 0.116957 1.0427e-21)
(1.28523 0.114847 -6.43278e-21)
(1.28719 0.112658 -1.24984e-21)
(1.28902 0.110387 -7.1996e-21)
(1.29069 0.108031 2.6483e-21)
(1.29221 0.105587 4.31592e-22)
(1.29355 0.103054 -3.35922e-21)
(1.29472 0.100428 -1.32601e-21)
(1.2957 0.0977074 -2.83777e-21)
(1.29648 0.0948925 2.39772e-21)
(1.29706 0.0919829 -6.62618e-21)
(1.29742 0.0889803 -5.87582e-21)
(1.29756 0.085888 4.19962e-21)
(1.29747 0.0827118 -2.20975e-21)
(1.29713 0.0794611 1.71686e-20)
(1.29655 0.0761494 5.15635e-21)
(1.29572 0.0727962 -4.83896e-22)
(1.22494 0.141793 6.72591e-24)
(1.22825 0.140716 1.71904e-23)
(1.23154 0.139611 4.32412e-23)
(1.2348 0.138475 -3.42606e-22)
(1.23804 0.137307 -4.43772e-23)
(1.24124 0.136106 -1.4607e-23)
(1.24441 0.134871 8.3604e-23)
(1.24754 0.1336 -5.55732e-22)
(1.25063 0.13229 8.35454e-22)
(1.25367 0.130941 -8.81954e-22)
(1.25666 0.129549 -7.03401e-22)
(1.2596 0.128113 -1.31297e-21)
(1.26248 0.126631 7.28672e-22)
(1.26529 0.1251 -1.49625e-21)
(1.26803 0.123517 1.1712e-21)
(1.2707 0.121879 -2.11298e-21)
(1.27328 0.120184 7.88902e-22)
(1.27578 0.118429 2.5232e-21)
(1.27818 0.11661 2.43474e-21)
(1.28047 0.114725 2.31633e-21)
(1.28266 0.11277 2.71333e-21)
(1.28473 0.110743 -8.37898e-22)
(1.28667 0.108639 5.61169e-21)
(1.28848 0.106456 9.83602e-22)
(1.29014 0.104192 -2.35155e-21)
(1.29166 0.101843 -6.5905e-21)
(1.29301 0.0994072 8.40551e-21)
(1.2942 0.0968825 -5.94266e-21)
(1.29521 0.0942679 5.71738e-21)
(1.29603 0.091563 -8.86386e-21)
(1.29666 0.0887686 3.95103e-21)
(1.29708 0.0858874 -3.1357e-21)
(1.29729 0.082924 -7.79807e-21)
(1.29729 0.0798861 -4.85709e-21)
(1.29705 0.076785 -3.39803e-21)
(1.29659 0.0736376 2.18597e-21)
(1.22259 0.137594 -5.00123e-24)
(1.22582 0.136578 -6.14007e-24)
(1.22904 0.135535 5.28712e-24)
(1.23224 0.134465 1.89589e-22)
(1.23541 0.133367 -7.139e-23)
(1.23855 0.132239 -4.64156e-22)
(1.24166 0.13108 -2.47314e-22)
(1.24474 0.129889 -3.51797e-22)
(1.24779 0.128664 -6.74645e-22)
(1.25079 0.127403 9.51014e-23)
(1.25375 0.126105 -6.58085e-22)
(1.25666 0.124767 6.09188e-22)
(1.25953 0.123387 1.44182e-21)
(1.26233 0.121963 7.38928e-22)
(1.26507 0.120492 7.02304e-22)
(1.26775 0.118971 -1.42053e-21)
(1.27035 0.117399 1.74973e-21)
(1.27288 0.115772 -4.19465e-21)
(1.27532 0.114087 -1.95187e-21)
(1.27767 0.112342 2.28446e-21)
(1.27993 0.110533 -8.25107e-22)
(1.28208 0.108656 5.36201e-21)
(1.28412 0.10671 -2.4148e-21)
(1.28604 0.104691 -3.22709e-22)
(1.28783 0.102596 1.81866e-21)
(1.28949 0.100423 -2.97277e-21)
(1.291 0.0981677 -5.11123e-21)
(1.29237 0.0958297 1.23716e-20)
(1.29357 0.093407 -7.2608e-21)
(1.29461 0.0908988 1.74147e-20)
(1.29547 0.0883055 3.82884e-21)
(1.29615 0.0856289 2.08046e-21)
(1.29664 0.0828724 9.39086e-21)
(1.29693 0.0800424 -2.58911e-21)
(1.29701 0.0771481 1.80707e-20)
(1.29688 0.0742034 -1.77314e-20)
(1.22025 0.13339 -8.73826e-24)
(1.22341 0.132429 -3.02247e-23)
(1.22655 0.131445 1.70823e-23)
(1.22968 0.130437 -9.18387e-23)
(1.23278 0.129403 -1.7994e-23)
(1.23586 0.128342 3.45603e-22)
(1.23892 0.127255 -2.46387e-22)
(1.24194 0.126138 4.33569e-22)
(1.24494 0.124991 -4.80838e-22)
(1.2479 0.123812 3.80324e-22)
(1.25082 0.1226 7.32651e-22)
(1.2537 0.121351 1.77515e-22)
(1.25654 0.120066 -1.59167e-21)
(1.25932 0.11874 2.09832e-21)
(1.26206 0.117373 -1.39815e-21)
(1.26473 0.115962 8.9685e-22)
(1.26734 0.114503 -2.09582e-21)
(1.26989 0.112995 4.09827e-22)
(1.27236 0.111435 3.38351e-22)
(1.27475 0.109819 -6.95782e-22)
(1.27706 0.108146 8.88252e-22)
(1.27927 0.106411 -2.33229e-21)
(1.28138 0.104612 4.50314e-22)
(1.28339 0.102747 3.14251e-21)
(1.28529 0.100811 3.19011e-21)
(1.28707 0.0988031 9.64518e-21)
(1.28872 0.0967198 4.10791e-21)
(1.29024 0.094559 3.5613e-21)
(1.29161 0.0923192 -1.15066e-21)
(1.29284 0.0899992 -1.51444e-20)
(1.29391 0.0875988 -1.22579e-20)
(1.29481 0.085119 1.35897e-22)
(1.29554 0.0825626 -6.04803e-21)
(1.29609 0.0799342 4.20057e-22)
(1.29645 0.0772413 -8.28402e-21)
(1.29662 0.074495 1.40302e-20)
(1.21792 0.129182 7.43003e-24)
(1.22101 0.128273 5.18211e-23)
(1.22408 0.127344 -8.5929e-23)
(1.22713 0.126393 1.48138e-22)
(1.23017 0.125419 1.19377e-22)
(1.23318 0.124421 1.92392e-22)
(1.23618 0.123399 1.63573e-23)
(1.23915 0.122351 2.48262e-22)
(1.24209 0.121276 1.74923e-22)
(1.245 0.120173 -1.39321e-21)
(1.24788 0.11904 7.09889e-22)
(1.25072 0.117875 7.77494e-22)
(1.25353 0.116676 2.22417e-21)
(1.25629 0.115442 -2.61509e-21)
(1.259 0.114171 2.46748e-21)
(1.26167 0.11286 -7.63253e-22)
(1.26427 0.111506 2.0537e-21)
(1.26682 0.110108 2.90663e-21)
(1.26931 0.108663 2.38721e-21)
(1.27172 0.107168 7.77727e-22)
(1.27406 0.105621 9.07428e-22)
(1.27632 0.104018 1.11153e-21)
(1.2785 0.102357 2.39207e-21)
(1.28058 0.100635 -3.97952e-22)
(1.28256 0.098849 -5.43287e-21)
(1.28444 0.0969964 -1.86151e-21)
(1.2862 0.0950747 -6.57198e-21)
(1.28784 0.0930815 -1.0351e-20)
(1.28936 0.091015 5.65373e-21)
(1.29075 0.0888738 8.66018e-21)
(1.29199 0.0866574 8.49367e-21)
(1.29308 0.0843661 -2.81378e-21)
(1.29402 0.0820017 -7.04615e-21)
(1.2948 0.0795676 -7.1235e-21)
(1.29541 0.0770695 -3.2461e-21)
(1.29585 0.0745161 -5.76652e-21)
(1.21561 0.124971 -1.60946e-24)
(1.21862 0.124112 -2.33157e-23)
(1.22162 0.123234 5.74691e-23)
(1.2246 0.122336 -5.22861e-23)
(1.22757 0.121418 -1.38062e-22)
(1.23052 0.120478 -6.46037e-23)
(1.23345 0.119517 4.61188e-22)
(1.23636 0.118534 -1.08229e-22)
(1.23924 0.117525 4.67753e-22)
(1.2421 0.116492 -9.24827e-23)
(1.24493 0.115432 -1.11074e-21)
(1.24773 0.114344 -1.80318e-22)
(1.2505 0.113226 -2.90928e-22)
(1.25323 0.112076 9.72035e-22)
(1.25592 0.110893 -2.6498e-21)
(1.25856 0.109674 2.73694e-21)
(1.26115 0.108418 -1.99306e-21)
(1.2637 0.107122 -1.25568e-21)
(1.26618 0.105783 8.49327e-23)
(1.26861 0.1044 -4.6643e-21)
(1.27097 0.10297 8.89036e-22)
(1.27326 0.101489 1.57161e-21)
(1.27548 0.0999563 -1.78649e-21)
(1.27761 0.0983679 -1.67223e-21)
(1.27966 0.0967216 5.21485e-21)
(1.28161 0.0950146 6.52948e-22)
(1.28346 0.0932444 1.56537e-21)
(1.28521 0.0914088 9.19852e-21)
(1.28685 0.0895058 -2.27252e-21)
(1.28836 0.0875338 -9.6508e-21)
(1.28976 0.0854918 -7.89994e-21)
(1.29102 0.0833797 -2.54559e-21)
(1.29214 0.0811986 1.03723e-20)
(1.29312 0.0789505 -5.64343e-22)
(1.29394 0.0766396 1.00523e-20)
(1.29462 0.0742723 -7.58638e-22)
(1.21331 0.120759 3.6176e-25)
(1.21624 0.119946 2.00646e-24)
(1.21917 0.119116 -1.20643e-24)
(1.22208 0.118268 -2.97079e-23)
(1.22498 0.117402 1.50882e-22)
(1.22787 0.116518 7.36275e-24)
(1.23074 0.115614 -7.85386e-23)
(1.23358 0.114689 1.417e-22)
(1.23641 0.113743 -5.80227e-22)
(1.23921 0.112774 9.63282e-22)
(1.24199 0.111782 3.36678e-22)
(1.24475 0.110765 -9.09454e-23)
(1.24747 0.109721 -7.75464e-22)
(1.25016 0.108649 -9.17251e-22)
(1.25281 0.107548 1.97935e-21)
(1.25543 0.106414 -2.00967e-21)
(1.258 0.105248 -5.94222e-22)
(1.26053 0.104045 -2.11021e-21)
(1.26301 0.102805 -1.62917e-21)
(1.26543 0.101525 2.45418e-21)
(1.2678 0.100203 -1.67331e-21)
(1.27011 0.0988361 -2.88426e-21)
(1.27235 0.0974218 1.66641e-21)
(1.27452 0.0959577 -4.36461e-22)
(1.27661 0.0944413 -3.07999e-21)
(1.27862 0.09287 6.96755e-22)
(1.28054 0.0912414 -1.17791e-21)
(1.28237 0.0895533 -4.68555e-21)
(1.28411 0.0878037 3.45124e-21)
(1.28573 0.0859907 6.69451e-21)
(1.28725 0.0841133 6.2606e-21)
(1.28864 0.0821707 3.78526e-21)
(1.28992 0.0801633 1.18644e-21)
(1.29107 0.0780922 1.95522e-21)
(1.29208 0.0759601 -7.79e-21)
(1.29296 0.0737711 -4.57264e-21)
(1.21102 0.116546 -3.72423e-24)
(1.21389 0.115776 -4.25772e-24)
(1.21674 0.114992 -5.308e-26)
(1.21959 0.114191 3.29892e-24)
(1.22242 0.113375 -2.49285e-23)
(1.22524 0.112541 -2.50451e-23)
(1.22804 0.11169 -2.07487e-22)
(1.23082 0.110821 -5.60474e-22)
(1.23359 0.109933 3.99198e-22)
(1.23634 0.109025 -5.30795e-22)
(1.23906 0.108095 5.42929e-22)
(1.24176 0.107144 2.15009e-22)
(1.24444 0.106169 -2.69858e-22)
(1.24708 0.105169 -7.7127e-22)
(1.2497 0.104142 -8.3963e-22)
(1.25228 0.103088 3.77752e-22)
(1.25482 0.102004 1.4122e-21)
(1.25733 0.100888 2.52604e-21)
(1.25979 0.0997391 -1.05343e-21)
(1.2622 0.0985544 2.24702e-21)
(1.26457 0.097332 -5.16367e-22)
(1.26688 0.0960697 2.42324e-21)
(1.26913 0.0947652 -6.69522e-22)
(1.27132 0.0934162 -2.84642e-21)
(1.27344 0.0920202 -3.96053e-22)
(1.27549 0.090575 -3.12567e-21)
(1.27747 0.0890782 4.21489e-22)
(1.27936 0.0875276 -3.88822e-21)
(1.28117 0.0859212 -5.15935e-21)
(1.28288 0.0842571 -3.23715e-21)
(1.28449 0.082534 -2.26484e-21)
(1.28601 0.0807509 1.11937e-21)
(1.28741 0.0789073 4.42558e-21)
(1.2887 0.0770036 4.03867e-21)
(1.28987 0.075041 -1.89832e-21)
(1.29092 0.0730219 4.76487e-21)
(1.20875 0.112332 -5.62825e-25)
(1.21155 0.111604 1.26168e-24)
(1.21433 0.110862 -6.79666e-24)
(1.21711 0.110107 3.48492e-23)
(1.21987 0.109336 -6.36325e-24)
(1.22262 0.108551 -7.14368e-23)
(1.22536 0.10775 1.36604e-22)
(1.22808 0.106933 1.59084e-22)
(1.23079 0.106098 -5.82753e-24)
(1.23348 0.105246 5.85785e-22)
(1.23614 0.104376 -8.71711e-24)
(1.23879 0.103485 -3.91559e-22)
(1.24141 0.102574 2.38823e-22)
(1.24401 0.10164 1.78392e-21)
(1.24658 0.100684 6.96407e-22)
(1.24912 0.0997021 -6.77655e-22)
(1.25163 0.0986944 5.3286e-22)
(1.25411 0.0976587 -2.80862e-22)
(1.25654 0.0965933 2.1195e-21)
(1.25894 0.0954965 -1.41099e-21)
(1.26129 0.0943663 -1.57451e-21)
(1.26359 0.0932007 -3.36435e-21)
(1.26584 0.0919976 1.16255e-22)
(1.26804 0.0907548 1.14238e-21)
(1.27018 0.0894703 2.29701e-22)
(1.27226 0.0881418 -1.15295e-21)
(1.27427 0.0867671 -8.68729e-23)
(1.2762 0.0853442 2.67524e-21)
(1.27806 0.083871 2.29136e-21)
(1.27984 0.0823457 2.58214e-21)
(1.28153 0.0807667 -3.68695e-21)
(1.28314 0.0791327 -4.95142e-21)
(1.28464 0.0774428 -5.45854e-21)
(1.28605 0.0756964 -5.7243e-21)
(1.28735 0.0738938 1.45168e-21)
(1.28854 0.0720355 -4.75701e-21)
(1.2065 0.108117 5.49873e-24)
(1.20923 0.107429 -1.5501e-23)
(1.21194 0.106729 3.38253e-24)
(1.21465 0.106015 -6.40654e-24)
(1.21735 0.105289 7.27581e-23)
(1.22003 0.104549 5.32625e-23)
(1.22271 0.103795 -2.6385e-23)
(1.22537 0.103026 2.21436e-22)
(1.22801 0.102243 -6.20942e-23)
(1.23064 0.101443 -4.78059e-22)
(1.23325 0.100627 -3.76559e-22)
(1.23584 0.0997934 3.43887e-22)
(1.23841 0.0989413 -1.35662e-22)
(1.24096 0.0980698 -7.68054e-22)
(1.24348 0.0971776 -1.22937e-21)
(1.24598 0.0962635 1.22928e-21)
(1.24844 0.0953263 -6.11925e-22)
(1.25088 0.0943644 6.7909e-22)
(1.25328 0.0933764 -9.06782e-22)
(1.25565 0.0923606 -4.69297e-23)
(1.25798 0.0913154 -2.83159e-22)
(1.26027 0.0902389 1.22652e-21)
(1.26251 0.0891293 6.35301e-22)
(1.2647 0.0879846 2.56861e-21)
(1.26685 0.0868029 -2.00693e-22)
(1.26893 0.0855822 -6.33705e-22)
(1.27096 0.0843205 1.20141e-21)
(1.27293 0.0830157 -2.60629e-22)
(1.27482 0.0816659 -2.59445e-21)
(1.27665 0.0802694 -3.20234e-22)
(1.2784 0.0788243 4.0435e-21)
(1.28007 0.0773291 7.43428e-21)
(1.28166 0.0757825 1.07309e-21)
(1.28316 0.0741833 1.11684e-21)
(1.28456 0.0725306 -1.979e-21)
(1.28587 0.0708237 1.0322e-20)
(1.20427 0.103901 2.52786e-24)
(1.20693 0.103252 1.31881e-23)
(1.20958 0.10259 3.45957e-24)
(1.21222 0.101918 3.48509e-24)
(1.21485 0.101233 -2.66451e-23)
(1.21747 0.100536 -3.66435e-23)
(1.22008 0.0998265 7.54065e-23)
(1.22268 0.099104 -5.05792e-23)
(1.22526 0.0983679 -1.46783e-22)
(1.22783 0.0976178 3.21752e-22)
(1.23038 0.0968528 1.17797e-22)
(1.23291 0.0960724 -2.22748e-22)
(1.23543 0.0952755 7.26899e-23)
(1.23792 0.0944615 1.73633e-22)
(1.24039 0.0936293 -6.71002e-22)
(1.24284 0.0927778 -4.92507e-22)
(1.24527 0.0919059 -7.63166e-22)
(1.24766 0.0910123 -8.08633e-22)
(1.25003 0.0900957 -5.67368e-22)
(1.25236 0.0891548 -1.6459e-21)
(1.25466 0.0881879 6.48278e-22)
(1.25692 0.0871936 3.67932e-22)
(1.25915 0.0861701 2.78981e-22)
(1.26133 0.0851158 -2.79646e-21)
(1.26346 0.0840289 2.154e-21)
(1.26555 0.0829075 1.19894e-21)
(1.26758 0.0817499 -1.96817e-21)
(1.26956 0.0805541 -1.00259e-21)
(1.27148 0.0793183 2.80325e-22)
(1.27334 0.0780408 -1.90471e-21)
(1.27513 0.0767196 3.3522e-21)
(1.27685 0.0753532 -6.11418e-21)
(1.2785 0.0739396 -1.03263e-21)
(1.28006 0.0724774 9.27152e-21)
(1.28155 0.0709646 2.31903e-21)
(1.28296 0.0693994 -9.0328e-21)
(1.20206 0.0996849 -1.7081e-23)
(1.20466 0.0990716 -1.82991e-24)
(1.20724 0.0984479 -1.47859e-23)
(1.20981 0.0978138 -1.55952e-23)
(1.21238 0.0971689 5.36285e-24)
(1.21494 0.096513 7.43505e-24)
(1.21748 0.0958458 1.64146e-23)
(1.22002 0.0951669 -8.63838e-23)
(1.22254 0.0944758 2.57385e-22)
(1.22505 0.0937722 -1.69104e-22)
(1.22754 0.0930554 -3.68128e-22)
(1.23001 0.0923248 4.05899e-22)
(1.23247 0.0915798 1.79306e-22)
(1.23491 0.0908195 2.50839e-22)
(1.23733 0.0900432 8.63543e-22)
(1.23973 0.0892499 -5.52229e-22)
(1.24211 0.0884386 8.4407e-22)
(1.24446 0.0876083 -4.51886e-22)
(1.24678 0.0867579 1.42343e-21)
(1.24908 0.0858861 1.22182e-21)
(1.25134 0.0849916 -6.49879e-22)
(1.25357 0.084073 -1.11221e-22)
(1.25577 0.0831289 -3.40041e-22)
(1.25793 0.0821578 2.38666e-22)
(1.26004 0.0811581 -6.81442e-22)
(1.26212 0.0801282 1.8534e-21)
(1.26415 0.0790664 6.18601e-22)
(1.26613 0.077971 2.39695e-21)
(1.26806 0.0768403 6.00809e-22)
(1.26993 0.0756724 3.07402e-21)
(1.27175 0.0744655 -2.32601e-21)
(1.2735 0.0732179 1.40851e-21)
(1.27519 0.0719274 -1.28097e-21)
(1.27681 0.0705921 -4.75265e-21)
(1.27836 0.0692092 1.67383e-23)
(1.27983 0.067776 1.05816e-21)
(1.19988 0.0954667 3.6233e-24)
(1.20241 0.0948885 -8.90573e-24)
(1.20493 0.094301 3.28086e-24)
(1.20744 0.0937039 -4.80865e-24)
(1.20994 0.0930971 -1.55709e-24)
(1.21244 0.0924804 8.16989e-24)
(1.21492 0.0918534 -5.44277e-23)
(1.21739 0.091216 1.72499e-23)
(1.21985 0.0905677 -1.05587e-23)
(1.2223 0.0899081 3.24707e-23)
(1.22474 0.0892367 2.92032e-22)
(1.22715 0.0885532 1.46671e-23)
(1.22956 0.0878567 -1.6333e-22)
(1.23194 0.0871469 -5.63012e-23)
(1.23431 0.0864228 -2.51273e-22)
(1.23665 0.0856838 9.60333e-22)
(1.23898 0.0849291 -1.29779e-21)
(1.24128 0.0841577 -4.9785e-22)