/*--------------------------------*- C++ -*----------------------------------*\
  =========                 |
  \\      /  F ield         | OpenFOAM: The Open Source CFD Toolbox
   \\    /   O peration     | Website:  https://openfoam.org
    \\  /    A nd           | Version:  7
     \\/     M anipulation  |
\*---------------------------------------------------------------------------*/
FoamFile
{
    version     2.0;
    format      ascii;
    class       surfaceScalarField;
    location    "5";
    object      phi;
}
// * * * * * * * * * * * * * * * * * * * * * * * * * * * * * * * * * * * * * //

dimensions      [0 3 -1 0 0 0 0];

internalField   nonuniform List<scalar> 
23915
(
-0.000114881
0.000114882
-5.30687e-10
-0.000318446
0.000203565
-7.56689e-10
-0.000573941
0.000255496
-7.07239e-10
-0.000866198
0.000292257
-5.55522e-10
-0.00119022
0.000324026
-3.42899e-10
-0.00153999
0.000349763
-6.41209e-11
-0.0019059
0.000365916
2.78265e-10
-0.00227375
0.000367851
6.79657e-10
-0.00262439
0.000350633
1.12332e-09
-0.00293347
0.000309083
1.58004e-09
-0.00317125
0.000237776
2.0174e-09
-0.00330293
0.000131676
2.37983e-09
-0.00329093
-1.2002e-05
2.46317e-09
-0.00310562
-0.000185317
2.49535e-09
-0.00272343
-0.000382186
2.24059e-09
-0.0021384
-0.000585034
1.74389e-09
-0.00136723
-0.000771169
1.07926e-09
-0.000426747
-0.000940486
3.12262e-10
0.000613628
-0.00104037
-4.24841e-10
-0.00117904
-1.09388e-09
0.00179267
-0.000110416
0.000225298
-0.00030723
0.000400378
-0.000554036
0.000502303
-0.000834907
0.000573127
-0.00114383
0.000632945
-0.00147385
0.000679785
-0.00181457
0.000706634
-0.00215109
0.000704373
-0.00246383
0.000663371
-0.00272842
0.000573679
-0.00291563
0.000424983
-0.00299127
0.000207321
-0.00292131
-8.1966e-05
-0.00267461
-0.000432017
-0.00223051
-0.000826287
-0.00158708
-0.00122846
-0.000761047
-0.0015972
0.000219003
-0.00192054
0.00129745
-0.00211883
-0.00237052
0.00248893
-0.000101792
0.00032709
-0.000285454
0.000584041
-0.00051533
0.000732178
-0.000774107
0.000831905
-0.00105388
0.000912713
-0.00134606
0.000971967
-0.00163886
0.000999434
-0.0019164
0.000981916
-0.0021587
0.000905669
-0.00234192
0.000756898
-0.00243852
0.000521581
-0.0024165
0.000185303
-0.00224677
-0.000251696
-0.0018995
-0.000779285
-0.00135768
-0.00136811
-0.000626229
-0.00195991
0.000275271
-0.0024987
0.00130547
-0.00295073
0.00242206
-0.00323541
-0.00356035
0.00361189
-8.95415e-05
0.000416632
-0.00025431
0.000748809
-0.000459858
0.000937726
-0.000687107
0.00105915
-0.000925654
0.00115126
-0.00116488
0.0012112
-0.00139144
0.001226
-0.00158866
0.00117913
-0.00173673
0.00105374
-0.00181341
0.000833584
-0.00179447
0.000502639
-0.00165191
4.27422e-05
-0.00136243
-0.00054118
-0.000899705
-0.00124201
-0.000249543
-0.00201827
0.000559485
-0.00276894
0.00151905
-0.00345827
0.00257943
-0.00401111
0.00370463
-0.00436061
-0.00470872
0.00485299
-7.44198e-05
0.000491052
-0.000215491
0.00088988
-0.000390498
0.00111273
-0.000578519
0.00124718
-0.000766395
0.00133914
-0.000941423
0.00138622
-0.00108894
0.00137351
-0.00119204
0.00128224
-0.00123201
0.00109371
-0.00118942
0.000790992
-0.00104338
0.000356602
-0.000776253
-0.000224387
-0.000361233
-0.000956201
0.000214625
-0.00181786
0.000949664
-0.00275331
0.00182781
-0.00364708
0.00282011
-0.00445056
0.00386974
-0.00506074
0.00495812
-0.005449
-0.00577116
0.00602056
-5.73512e-05
0.000548403
-0.000171089
0.00100362
-0.000310788
0.00125243
-0.000453917
0.00139031
-0.000584664
0.00146988
-0.000688512
0.00149007
-0.000750026
0.00143502
-0.000752968
0.00128518
-0.000680673
0.00102141
-0.000517488
0.000627807
-0.000247739
8.68533e-05
0.000142882
-0.000615008
0.000671943
-0.00148526
0.00134556
-0.00249148
0.00215946
-0.00356721
0.00307971
-0.00456733
0.0040696
-0.00544045
0.00507011
-0.00606125
0.00607807
-0.00645697
-0.00671472
0.00702164
-3.93664e-05
0.000587769
-0.000123475
0.00108773
-0.000224717
0.00135367
-0.00031948
0.00148507
-0.000389721
0.00154012
-0.000419669
0.00152002
-0.000393838
0.00140919
-0.000297646
0.00118898
-0.000117469
0.000841236
0.000159268
0.000351069
0.000542994
-0.000296872
0.00104529
-0.0011173
0.00167825
-0.00211822
0.00243975
-0.00325298
0.00330996
-0.00443742
0.00424251
-0.00549989
0.00519434
-0.00639229
0.00611244
-0.00697934
0.00700676
-0.00735129
-0.0075233
0.00781534
-2.15307e-05
0.0006093
-7.51545e-05
0.00114135
-0.000136512
0.00141503
-0.00018164
0.0015302
-0.000190951
0.00154943
-0.000148219
0.00147729
-3.89676e-05
0.00129994
0.00015024
0.000999776
0.000429279
0.000562197
0.000806592
-2.6244e-05
0.00129108
-0.000781359
0.00189328
-0.00171951
0.00261926
-0.00284419
0.00345309
-0.00408682
0.00435479
-0.00533911
0.00526753
-0.00641263
0.00614764
-0.00727239
0.00695792
-0.00778963
0.00772093
-0.0081143
-0.00819813
0.00839575
-4.86904e-06
0.000614169
-2.86059e-05
0.00116509
-5.04102e-05
0.00143684
-4.67522e-05
0.00152654
2.13594e-06
0.00150055
0.000113721
0.0013657
0.000300084
0.00111358
0.000571441
0.00072842
0.000935784
0.000197854
0.00140067
-0.000491132
0.00197554
-0.00135623
0.00266984
-0.00241381
0.00347821
-0.00365257
0.00436399
-0.0049726
0.00526602
-0.00624113
0.00612464
-0.00727126
0.006905
-0.00805275
0.00759354
-0.00847817
0.008225
-0.00874575
-0.0087551
0.00878197
9.70901e-06
0.00060446
1.38156e-05
0.00116098
2.96303e-05
0.00142102
7.93675e-05
0.0014768
0.000182974
0.00139694
0.000355745
0.00119293
0.000609281
0.000860043
0.000951645
0.000386056
0.00139028
-0.00024078
0.00193436
-0.00103522
0.00259549
-0.00201735
0.00337718
-0.0031955
0.00425267
-0.00452805
0.00516023
-0.00588016
0.00602487
-0.00710578
0.00679703
-0.00804341
0.00746044
-0.00871617
0.00802779
-0.00904552
0.00854296
-0.00926091
-0.00921933
0.00900718
2.14761e-05
0.000582984
5.01328e-05
0.00113232
0.000100142
0.00137101
0.000191557
0.00138539
0.000343374
0.00124512
0.000569826
0.00096648
0.000881311
0.000548558
0.00128582
-1.84573e-05
0.0017933
-0.000748258
0.00241645
-0.00165837
0.00316503
-0.00276593
0.00402525
-0.00405572
0.00494022
-0.00544302
0.0058284
-0.00676834
0.00661711
-0.00789448
0.00728015
-0.00870646
0.00782469
-0.00926071
0.00828566
-0.00950648
0.00870975
-0.00968501
-0.00961845
0.00910888
2.99472e-05
0.000553037
7.89476e-05
0.00108332
0.000158403
0.00129156
0.000286038
0.00125775
0.00047948
0.00105168
0.000752224
0.000693737
0.00111508
0.000185704
0.00157926
-0.000482641
0.00215861
-0.0013276
0.00286715
-0.00236691
0.00370107
-0.00359985
0.00461651
-0.00497117
0.00552836
-0.00635487
0.00635219
-0.00759217
0.007036
-0.00857829
0.00758379
-0.00925425
0.00802296
-0.00969987
0.0084019
-0.00988542
0.0087627
-0.0100458
-0.0099769
0.00912115
3.49112e-05
0.000518126
9.94155e-05
0.00101882
0.000202908
0.00118806
0.000360946
0.00109971
0.000590122
0.000822503
0.000904551
0.000379308
0.00131825
-0.000227999
0.00184745
-0.00101184
0.0025088
-0.00198895
0.00330647
-0.00316458
0.00420823
-0.0045016
0.00513696
-0.0058999
0.00599617
-0.00721408
0.00672004
-0.00831604
0.00728831
-0.00914655
0.00773195
-0.0096979
0.00808932
-0.0100572
0.00841292
-0.010209
0.0087345
-0.0103674
-0.0103128
0.00907041
3.64533e-05
0.000481672
0.000111506
0.000943767
0.00023359
0.00106598
0.000416917
0.000916386
0.000678354
0.000561066
0.00103501
2.26517e-05
0.00150651
-0.000699502
0.00211303
-0.00161835
0.00286464
-0.00274057
0.00373993
-0.00403987
0.00467087
-0.00543255
0.00556071
-0.00678974
0.00632624
-0.00797961
0.00693438
-0.00892419
0.00739565
-0.00960782
0.00775741
-0.0100597
0.00805885
-0.0103587
0.00835001
-0.0105002
0.00864971
-0.0106671
-0.0106379
0.00897475
3.49518e-05
0.00044672
0.000116032
0.000862687
0.000252074
0.000929939
0.000457592
0.000710868
0.000751989
0.000266669
0.0011581
-0.000383463
0.00170059
-0.00124199
0.00239598
-0.00231375
0.00323219
-0.00357677
0.00415139
-0.00495907
0.00505943
-0.00634058
0.00586479
-0.0075951
0.00651608
-0.0086309
0.00701364
-0.00942175
0.00738891
-0.00998309
0.00769367
-0.0103644
0.00796122
-0.0106262
0.0082363
-0.0107753
0.00852469
-0.0109555
-0.0109588
0.00884562
3.10518e-05
0.000415669
0.000114644
0.000779095
0.000261749
0.000782834
0.000489674
0.000482942
0.000823216
-6.6873e-05
0.00129157
-0.000851818
0.00191873
-0.00186914
0.0027028
-0.00309782
0.00359629
-0.00447026
0.00450981
-0.00587259
0.00534655
-0.00717733
0.00604189
-0.00829043
0.00658038
-0.00916938
0.00698618
-0.00982755
0.00729986
-0.0102968
0.0075688
-0.0106334
0.00781817
-0.0108756
0.00808704
-0.0110441
0.00836926
-0.0112377
-0.0112795
0.00869
2.56135e-05
0.000390055
0.000109709
0.000695
0.000267551
0.000624993
0.000522297
0.000228196
0.000906181
-0.000450757
0.00145122
-0.00139685
0.00216789
-0.00258581
0.0030208
-0.00395073
0.00392675
-0.00537621
0.00478527
-0.00673111
0.00552047
-0.00791253
0.00610262
-0.00887258
0.00654442
-0.00961118
0.00688162
-0.0101648
0.00715506
-0.0105702
0.00740318
-0.0108815
0.00764418
-0.0111166
0.00791145
-0.0113114
0.0081888
-0.0115151
-0.0116027
0.00851195
1.9635e-05
0.00037042
0.000104087
0.000610547
0.000275408
0.000453672
0.000565547
-6.19433e-05
0.0010135
-0.000898705
0.0016443
-0.00202766
0.00243887
-0.00338038
0.00332272
-0.00483458
0.0041929
-0.0062464
0.00496221
-0.00750043
0.00558735
-0.00853767
0.00606875
-0.00935398
0.0064353
-0.00997774
0.00672491
-0.0104544
0.00697379
-0.0108191
0.00721036
-0.011118
0.00744843
-0.0113547
0.00771482
-0.0115778
0.00798678
-0.011787
-0.0119282
0.00831227
1.41473e-05
0.000356273
0.000100789
0.000523905
0.000291392
0.000263069
0.000628402
-0.000398953
0.00115215
-0.00142245
0.00186564
-0.00274115
0.00270915
-0.00422389
0.00357903
-0.00570446
0.00437624
-0.0070436
0.00504222
-0.00816641
0.00556494
-0.00906039
0.00596461
-0.00975364
0.00627619
-0.0102893
0.00653431
-0.0107125
0.0067687
-0.0110535
0.00699886
-0.0113482
0.00723673
-0.0115926
0.0075001
-0.0118412
0.00776589
-0.0120528
-0.01225
0.00808774
1.00863e-05
0.000346187
0.000102591
0.000431401
0.000320754
4.49052e-05
0.000716591
-0.00079479
0.00132065
-0.00202652
0.00209867
-0.00351916
0.00295211
-0.00507733
0.0037693
-0.00652165
0.00447382
-0.00774813
0.00503856
-0.00873115
0.00547443
-0.00949625
0.00581154
-0.0100908
0.00608437
-0.0105621
0.006322
-0.0109501
0.00654746
-0.0112789
0.00677378
-0.0115745
0.00701234
-0.0118311
0.00726957
-0.0120984
0.00752503
-0.0123083
-0.0125814
0.00785646
8.35076e-06
0.000337836
0.000111776
0.000327976
0.000366832
-0.000210151
0.000830252
-0.00125821
0.00150758
-0.00270384
0.00231957
-0.00433116
0.00314441
-0.00590218
0.0038838
-0.00726103
0.00449145
-0.00835578
0.00496614
-0.00920584
0.00533247
-0.00986259
0.00562331
-0.0103816
0.00586917
-0.010808
0.00609316
-0.0111741
0.00631236
-0.0114981
0.00653578
-0.011798
0.006774
-0.0120693
0.00702686
-0.0123512
0.00729203
-0.0125734
-0.0128761
0.00758668
8.97335e-06
0.000328863
0.000129525
0.000207425
0.000431332
-0.000511958
0.000966108
-0.00179299
0.00169932
-0.00343706
0.00251156
-0.0051434
0.00327946
-0.00667007
0.00393093
-0.00791251
0.00444803
-0.00887287
0.00484737
-0.00960518
0.00515982
-0.010175
0.00541665
-0.0106384
0.00564312
-0.0110345
0.00585691
-0.0113879
0.00607044
-0.0117117
0.00629042
-0.0120179
0.00652507
-0.012304
0.00677073
-0.0125969
0.00704739
-0.0128501
-0.0131838
0.00735511
1.23571e-05
0.000316505
0.000156603
6.31789e-05
0.000513121
-0.000868476
0.00111478
-0.00239465
0.00187825
-0.00420053
0.00266029
-0.00592544
0.00335449
-0.00736426
0.00391821
-0.00847623
0.00435569
-0.00931035
0.00469399
-0.00994348
0.00496516
-0.0104462
0.00519661
-0.0108699
0.0054083
-0.0112462
0.00561337
-0.011593
0.00582093
-0.0119192
0.00603611
-0.0122331
0.00626477
-0.0125326
0.00650829
-0.0128404
0.00677511
-0.0131169
-0.0134611
0.00705239
1.8504e-05
0.000298001
0.000192888
-0.000111205
0.000608864
-0.00128445
0.00126499
-0.00305078
0.00203089
-0.00496642
0.00276057
-0.00665512
0.00337467
-0.00797836
0.003857
-0.00895857
0.00422713
-0.00968048
0.00451686
-0.0102332
0.00475626
-0.0106856
0.00496801
-0.0110816
0.00516737
-0.0114455
0.00536401
-0.0117896
0.00556468
-0.0121199
0.00577332
-0.0124418
0.00599548
-0.0127548
0.00623008
-0.013075
0.00648678
-0.0133736
-0.0137369
0.00676259
2.72675e-05
0.000270734
0.000237664
-0.000321601
0.000713396
-0.00176018
0.00140554
-0.00374292
0.00214901
-0.0057099
0.00281323
-0.00731934
0.00334806
-0.00851319
0.00375825
-0.00936875
0.00407268
-0.00999491
0.0043239
-0.0104844
0.00453826
-0.0109
0.00473378
-0.0112771
0.00492183
-0.0116336
0.00510958
-0.0119774
0.00530211
-0.0123124
0.00550287
-0.0126425
0.00571592
-0.0129679
0.00594182
-0.0133009
0.00618832
-0.0136201
-0.0139933
0.0064447
3.84551e-05
0.000232279
0.000289677
-0.000572823
0.000820488
-0.002291
0.00152734
-0.00444977
0.00222953
-0.00641208
0.0028227
-0.00791251
0.00328335
-0.00897385
0.00363138
-0.00971678
0.00390025
-0.0102638
0.0041206
-0.0107048
0.00431444
-0.0110938
0.00449562
-0.0114583
0.00467254
-0.0118105
0.00485057
-0.0121554
0.00503375
-0.0124956
0.00522492
-0.0128337
0.00542781
-0.0131707
0.00564248
-0.0135156
0.00587503
-0.0138527
-0.0142386
0.00612037
5.19361e-05
0.000180343
0.000347162
-0.000868049
0.000923714
-0.00286755
0.00162454
-0.0051506
0.00227312
-0.00706066
0.00279497
-0.00843436
0.00318866
-0.00936754
0.00348403
-0.0100121
0.00371561
-0.0104954
0.00391064
-0.0108998
0.00408681
-0.01127
0.00425453
-0.011626
0.00442
-0.011976
0.00458737
-0.0123228
0.00475991
-0.0126681
0.00494021
-0.013014
0.00513121
-0.0133618
0.0053334
-0.0137178
0.00555249
-0.0140718
-0.0144675
0.00578137
6.76836e-05
0.000112659
0.00040793
-0.0012083
0.00101726
-0.00347688
0.00169445
-0.00582779
0.00228274
-0.00764895
0.00273639
-0.00888801
0.00307102
-0.00970217
0.00332213
-0.0102633
0.00352288
-0.0106961
0.00369644
-0.0110734
0.0038566
-0.0114301
0.0040111
-0.0117805
0.00416457
-0.0121294
0.0043203
-0.0124785
0.00448105
-0.0128289
0.00464912
-0.0131821
0.00482706
-0.0135397
0.00501551
-0.0139062
0.00521885
-0.0142751
-0.0146808
0.00543214
8.57117e-05
2.69475e-05
0.000469539
-0.00159212
0.00109656
-0.0041039
0.00173688
-0.00646811
0.00226248
-0.00817455
0.00265295
-0.00927848
0.00293623
-0.00998545
0.00315013
-0.0104772
0.00332489
-0.0108709
0.00347954
-0.011228
0.00362458
-0.0115752
0.00376573
-0.0119217
0.00390653
-0.0122702
0.0040497
-0.0126217
0.00419759
-0.0129768
0.00435231
-0.0133368
0.004516
-0.0137034
0.00468943
-0.0140797
0.00487646
-0.0144621
-0.0148766
0.00507224
0.000105932
-7.89846e-05
0.000529476
-0.00201567
0.00115871
-0.00473313
0.00175329
-0.00706269
0.00221679
-0.00863804
0.00254995
-0.00961164
0.00278894
-0.0102244
0.00297131
-0.0106595
0.00312358
-0.0110231
0.00326093
-0.0113654
0.00339121
-0.0117055
0.00351869
-0.0120492
0.00364616
-0.0123977
0.00377591
-0.0127514
0.00391
-0.0131109
0.00405034
-0.0134771
0.00419874
-0.0138518
0.00435615
-0.0142371
0.00452553
-0.0146315
-0.0150542
0.00470319
0.000128017
-0.000207001
0.000585286
-0.00247294
0.00120242
-0.00535026
0.00174608
-0.00760635
0.00215001
-0.00904198
0.00243192
-0.00989354
0.00263273
-0.0104253
0.00278801
-0.0108148
0.00292024
-0.0111554
0.00304124
-0.0114864
0.00315684
-0.0118211
0.00327026
-0.0121626
0.00338376
-0.0125112
0.00349933
-0.012867
0.00361878
-0.0132303
0.00374383
-0.0136022
0.00387605
-0.013984
0.00401641
-0.0143774
0.00416735
-0.0147824
-0.0152126
0.00432575
0.000151358
-0.000358359
0.000634685
-0.00295626
0.00122773
-0.00594331
0.00171804
-0.00809666
0.00206612
-0.00939007
0.00230257
-0.01013
0.00247036
-0.0105931
0.00260191
-0.0109464
0.00271575
-0.0112692
0.00282091
-0.0115915
0.00292172
-0.0119219
0.00302066
-0.0122615
0.00311962
-0.0126102
0.00322035
-0.0129677
0.00332444
-0.0133344
0.00343342
-0.0137112
0.00354865
-0.0140992
0.00367115
-0.0144999
0.00380277
-0.0149141
-0.0153511
0.00394121
0.000175152
-0.000533511
0.00067573
-0.00345684
0.00123557
-0.00650315
0.0016721
-0.00853319
0.00196863
-0.00968659
0.00216492
-0.0103263
0.00230388
-0.010732
0.00241416
-0.0110566
0.00251069
-0.0113657
0.00260025
-0.0116811
0.00268608
-0.0120077
0.00277014
-0.0123456
0.00285407
-0.0126941
0.00293938
-0.013053
0.00302749
-0.0134225
0.00311974
-0.0138034
0.00321733
-0.0141968
0.00332122
-0.0146038
0.00343288
-0.0150257
-0.0154687
0.00355054
0.000198536
-0.000732047
0.000707002
-0.00396531
0.00122738
-0.00702353
0.00161112
-0.00891692
0.00186052
-0.009936
0.00202135
-0.0104871
0.00213482
-0.0108455
0.00222561
-0.0111474
0.00230548
-0.0114456
0.00237951
-0.0117551
0.00245014
-0.0120783
0.00251898
-0.0124144
0.00258743
-0.0127626
0.00265683
-0.0131224
0.00272844
-0.0134941
0.00280343
-0.0138784
0.00288282
-0.0142762
0.00296753
-0.0146885
0.00305869
-0.0151169
-0.0155651
0.00315504
0.000220688
-0.000952735
0.000727717
-0.00447234
0.00120484
-0.00750066
0.00153771
-0.0092498
0.00174434
-0.0101426
0.00187372
-0.0106165
0.00196429
-0.0109361
0.00203682
-0.01122
0.00210045
-0.0115092
0.00215892
-0.0118136
0.00221412
-0.0121335
0.00226742
-0.0124677
0.00232004
-0.0128152
0.00237314
-0.0131755
0.00242783
-0.0135488
0.0024851
-0.0139357
0.00254587
-0.014337
0.00261094
-0.0147536
0.00268119
-0.0151871
-0.0156396
0.00275572
0.000240863
-0.0011936
0.000737718
-0.00496919
0.00116971
-0.00793265
0.00145428
-0.00953437
0.00162217
-0.0103105
0.00172347
-0.0107178
0.00179312
-0.0110057
0.00184825
-0.0112751
0.00189583
-0.0115568
0.00193866
-0.0118564
0.00197825
-0.0121731
0.00201575
-0.0125052
0.00205223
-0.0128517
0.00208871
-0.013212
0.00212614
-0.0135862
0.00216537
-0.0139749
0.00220718
-0.0143788
0.00225231
-0.0147987
0.00230138
-0.0152362
-0.015692
0.00235379
0.000258386
-0.00145198
0.000737357
-0.00544816
0.0011237
-0.00831899
0.00136289
-0.00977355
0.00149573
-0.0104434
0.00157173
-0.0107938
0.00162192
-0.0110559
0.0016602
-0.0113134
0.00169184
-0.0115885
0.00171895
-0.0118835
0.00174274
-0.0121969
0.00176423
-0.0125267
0.00178433
-0.0128718
0.00180394
-0.0132316
0.00182386
-0.0136062
0.00184481
-0.0139959
0.00186744
-0.0144014
0.00189241
-0.0148237
0.00192015
-0.015264
-0.0157221
0.0019502
0.000272647
-0.00172463
0.000727339
-0.00590285
0.00106849
-0.00866014
0.00126536
-0.00997043
0.0013664
-0.0105444
0.00141932
-0.0108467
0.00145115
-0.0110877
0.00147295
-0.0113352
0.0014887
-0.0116042
0.00149999
-0.0118948
0.00150784
-0.0122047
0.00151314
-0.012532
0.00151668
-0.0128753
0.00151922
-0.0132341
0.00152144
-0.0136084
0.00152394
-0.0139984
0.00152727
-0.0144047
0.00153197
-0.0148284
0.00153834
-0.0152703
-0.0157297
0.00154597
0.000283138
-0.00200777
0.000708618
-0.00632833
0.0010056
-0.00895712
0.00116322
-0.0101281
0.00123532
-0.0106165
0.00126692
-0.0108783
0.00128116
-0.011102
0.00128672
-0.0113407
0.00128657
-0.0116041
0.00128197
-0.0118902
0.00127377
-0.0121965
0.00126275
-0.012521
0.00124959
-0.0128622
0.00123492
-0.0132195
0.00121933
-0.0135928
0.00120329
-0.0139823
0.00118725
-0.0143887
0.00117164
-0.0148128
0.00115669
-0.0152554
-0.0157149
0.00114188
0.000289503
-0.00229727
0.000682316
-0.00672115
0.000936457
-0.00921126
0.00105775
-0.0102493
0.00110336
-0.0106621
0.00111503
-0.01089
0.00111224
-0.0110992
0.0011017
-0.0113302
0.00108566
-0.011588
0.00106511
-0.0118697
0.00104077
-0.0121722
0.00101332
-0.0124935
0.000983365
-0.0128322
0.000951414
-0.0131875
0.000917923
-0.0135593
0.000883313
-0.0139477
0.000847894
-0.0143533
0.000812012
-0.0147769
0.000775731
-0.0152191
-0.0156779
0.00073872
0.000289834
-0.00258711
0.000646572
-0.00707789
0.000859107
-0.00942379
0.000946817
-0.0103371
0.000968166
-0.0106834
0.000961151
-0.010883
0.0009419
-0.0110799
0.00091553
-0.0113038
0.000883741
-0.0115562
0.000847355
-0.0118333
0.00080698
-0.0121318
0.000763201
-0.0124498
0.000716537
-0.0127855
0.000667403
-0.0131384
0.000616157
-0.0135081
0.000563111
-0.0138947
0.000508528
-0.0142987
0.000452692
-0.0147211
0.000395056
-0.0151615
-0.0156193
0.000336468
0.000287391
-0.0028745
0.000607884
-0.00739838
0.000781087
-0.009597
0.000837768
-0.0103937
0.000836493
-0.0106822
0.00081145
-0.0108579
0.000775848
-0.0110443
0.000733543
-0.0112615
0.000685858
-0.0115085
0.000633441
-0.0117809
0.000576848
-0.0120752
0.00051655
-0.0123895
0.00045297
-0.012722
0.000386462
-0.0130719
0.000317343
-0.0134389
0.000245672
-0.013823
0.00017176
-0.0142248
9.57828e-05
-0.0146451
1.84656e-05
-0.0150841
-0.0155376
-6.32353e-05
0.000280845
-0.00315534
0.000564541
-0.00768208
0.000700286
-0.00973274
0.000728151
-0.0104216
0.000705682
-0.0106597
0.000663234
-0.0108155
0.00061148
-0.0109926
0.000553297
-0.0112033
0.000489733
-0.011445
0.000421297
-0.0117125
0.000348449
-0.0120024
0.000271639
-0.0123126
0.000191101
-0.0126414
0.000107183
-0.012988
2.00163e-05
-0.0133518
-6.99374e-05
-0.013733
-0.000162902
-0.0141318
-0.000258603
-0.0145494
-0.000357954
-0.0149848
-0.0154352
-0.000460365
0.000270545
-0.00342589
0.00051739
-0.00792892
0.000617559
-0.00983291
0.000618588
-0.0104226
0.00057611
-0.0106172
0.000516743
-0.0107561
0.000448995
-0.0109248
0.000374997
-0.0111293
0.000295533
-0.0113655
0.000211189
-0.0116281
0.000121942
-0.0119131
2.84322e-05
-0.0122191
-6.87552e-05
-0.0125442
-0.000169806
-0.0128869
-0.000274559
-0.013247
-0.000383107
-0.0136245
-0.000495108
-0.0140198
-0.000610765
-0.0144337
-0.00073068
-0.0148649
-0.0153113
-0.000854599
0.000256914
-0.0036828
0.00046722
-0.00813923
0.000533668
-0.00989936
0.000509598
-0.0103986
0.000448071
-0.0105557
0.00037216
-0.0106802
0.000288541
-0.0108412
0.000198805
-0.0110396
0.000103327
-0.01127
2.32015e-06
-0.0115271
-0.000102273
-0.0118085
-0.000211837
-0.0121096
-0.000326016
-0.0124301
-0.000444401
-0.0127685
-0.000566965
-0.0131245
-0.000693762
-0.0134977
-0.000824731
-0.0138888
-0.000960099
-0.0142984
-0.0011003
-0.0147247
-0.0151661
-0.00124549
0.000240418
-0.00392322
0.000414753
-0.00831356
0.000449263
-0.00993387
0.000401603
-0.0103509
0.000321815
-0.0104759
0.000229645
-0.010588
0.000130221
-0.0107418
2.44365e-05
-0.0109338
-8.63101e-05
-0.0111593
-0.00020224
-0.0114112
-0.000323727
-0.0116871
-0.000449837
-0.0119835
-0.000580753
-0.0122991
-0.000716331
-0.012633
-0.000856563
-0.0129842
-0.00100151
-0.0133527
-0.00115128
-0.0137391
-0.00130614
-0.0141435
-0.0014665
-0.0145643
-0.015
-0.00163259
0.000221533
-0.00414475
0.000360642
-0.00845267
0.000364886
-0.00993811
0.000294953
-0.010281
0.00019754
-0.0103785
8.92287e-05
-0.0104797
-2.60384e-05
-0.0106265
-0.000146571
-0.0108133
-0.000273174
-0.0110327
-0.000405127
-0.0112792
-0.000542548
-0.0115496
-0.000685046
-0.011841
-0.00083261
-0.0121516
-0.00098525
-0.0124803
-0.00114301
-0.0128265
-0.00130598
-0.0131898
-0.00147438
-0.0135707
-0.00164852
-0.0139694
-0.00182879
-0.0143841
-0.0148133
-0.00201546
0.000200723
-0.00434547
0.000305472
-0.00855742
0.000280997
-0.00991364
0.00018994
-0.0101899
7.52416e-05
-0.0102638
-4.87483e-05
-0.0103557
-0.00017883
-0.0104964
-0.000315236
-0.0106769
-0.000457407
-0.0108905
-0.000605157
-0.0111315
-0.000758444
-0.0113964
-0.000917156
-0.0116822
-0.00108126
-0.0119875
-0.00125083
-0.0123107
-0.00142596
-0.0126513
-0.0016068
-0.0130089
-0.00179362
-0.0133839
-0.00198681
-0.0137762
-0.00218672
-0.0141841
-0.0146064
-0.00239362
0.000178421
-0.0045239
0.000249767
-0.00862877
0.000197977
-0.00986185
8.67748e-05
-0.0100787
-4.46564e-05
-0.0101324
-0.00018369
-0.0102167
-0.000329351
-0.0103508
-0.000481132
-0.0105251
-0.000638731
-0.0107329
-0.000802079
-0.0109681
-0.00097114
-0.0112273
-0.00114591
-0.0115075
-0.00132642
-0.011807
-0.00151276
-0.0121244
-0.00170507
-0.012459
-0.00190358
-0.0128104
-0.0021086
-0.0131788
-0.00232058
-0.0135642
-0.00253981
-0.0139649
-0.0143797
-0.00276654
0.00015503
-0.00467893
0.000193985
-0.00866772
0.000116153
-0.00978402
-1.47748e-05
-0.00994778
-0.000161369
-0.00998577
-0.000316147
-0.0100619
-0.000477073
-0.0101898
-0.000644045
-0.0103581
-0.000816914
-0.01056
-0.000995687
-0.0107894
-0.00118037
-0.0110426
-0.00137104
-0.0113168
-0.00156776
-0.0116102
-0.00177068
-0.0119215
-0.00197999
-0.0122497
-0.00219593
-0.0125945
-0.0024189
-0.0129559
-0.00264937
-0.0133337
-0.00288758
-0.0137267
-0.0141335
-0.00313372
0.000130935
-0.00480986
0.000138532
-0.00867532
3.55878e-05
-0.00968107
-0.000112753
-0.00979944
-0.000275784
-0.00982274
-0.000445823
-0.00989186
-0.000621808
-0.0100139
-0.000803792
-0.0101761
-0.000991749
-0.0103721
-0.00118576
-0.0105953
-0.00138589
-0.0108425
-0.00159225
-0.0111104
-0.00180499
-0.0113975
-0.00202429
-0.0117022
-0.00225035
-0.0120237
-0.00248347
-0.0123614
-0.00272409
-0.0127152
-0.00297274
-0.0130851
-0.00322955
-0.0134699
-0.0138684
-0.00349464
0.000106489
-0.00491635
8.38987e-05
-0.00865273
-4.27885e-05
-0.00955438
-0.000208944
-0.00963328
-0.000387523
-0.00964416
-0.000572566
-0.00970682
-0.000763398
-0.00982303
-0.000960193
-0.00997934
-0.00116303
-0.0101692
-0.00137207
-0.0103863
-0.00158743
-0.0106271
-0.00180928
-0.0108886
-0.00203781
-0.011169
-0.00227323
-0.0114668
-0.00251579
-0.0117811
-0.0027658
-0.0121114
-0.00302376
-0.0124573
-0.00329021
-0.0128186
-0.00356523
-0.0131949
-0.0135849
-0.00384879
8.19712e-05
-0.00499832
3.10504e-05
-0.00860181
-0.000118704
-0.00940463
-0.00030264
-0.00944935
-0.000496458
-0.00945035
-0.000696244
-0.00950703
-0.000901691
-0.00961758
-0.00111307
-0.00976796
-0.00133057
-0.00995174
-0.0015544
-0.0101625
-0.00178475
-0.0103968
-0.00202184
-0.0106515
-0.0022659
-0.0109249
-0.00251719
-0.0112155
-0.00277596
-0.0115223
-0.00304255
-0.0118448
-0.00331749
-0.0121823
-0.00360136
-0.0125347
-0.00389417
-0.0129021
-0.0132834
-0.00419567
5.75748e-05
-0.0050559
-2.18228e-05
-0.00852241
-0.000192915
-0.00923354
-0.000393708
-0.00924856
-0.00060247
-0.00924158
-0.000816734
-0.00929277
-0.00103654
-0.00939777
-0.00126226
-0.00954224
-0.00149415
-0.00971985
-0.00173252
-0.00992411
-0.0019776
-0.0101517
-0.00222966
-0.0103994
-0.00248898
-0.0106656
-0.00275583
-0.0109486
-0.0030305
-0.0112477
-0.00331334
-0.0115619
-0.00360491
-0.0118908
-0.0039058
-0.0122338
-0.00421593
-0.0125919
-0.0129645
-0.00453482
3.37042e-05
-0.0050896
-7.57193e-05
-0.00841299
-0.000265278
-0.00904398
-0.000482028
-0.00903181
-0.000705437
-0.00901817
-0.00093391
-0.00906429
-0.0011678
-0.00916389
-0.00140758
-0.00930246
-0.00165359
-0.00947383
-0.00190621
-0.00967149
-0.00216573
-0.00989217
-0.00243247
-0.0101327
-0.00270673
-0.0103913
-0.00298883
-0.0106665
-0.00327907
-0.0109574
-0.00357781
-0.0112632
-0.00388564
-0.0115829
-0.00420318
-0.0119163
-0.00453013
-0.012265
-0.0126288
-0.00486577
1.14648e-05
-0.00510106
-0.000126439
-0.00827508
-0.000335473
-0.00883494
-0.000567553
-0.00879973
-0.00080526
-0.00878047
-0.00104765
-0.0088219
-0.00129532
-0.00891621
-0.00154886
-0.00904893
-0.0018087
-0.00921399
-0.00207526
-0.00940493
-0.00234891
-0.00961852
-0.00263
-0.00985161
-0.00291888
-0.0101025
-0.00321587
-0.0103695
-0.00352132
-0.010652
-0.00383561
-0.0109489
-0.00415932
-0.0112592
-0.0044931
-0.0115825
-0.00483649
-0.0119216
-0.0122772
-0.00518816
-1.28694e-05
-0.0050882
-0.000175293
-0.00811266
-0.000403296
-0.00860694
-0.00065022
-0.0085528
-0.000901848
-0.00852884
-0.00115784
-0.00856591
-0.00141898
-0.00865508
-0.00168595
-0.00878196
-0.00195927
-0.00894066
-0.00223945
-0.00912475
-0.00252689
-0.00933108
-0.00282199
-0.0095565
-0.00312513
-0.00979933
-0.00343667
-0.010058
-0.00375695
-0.0103317
-0.00408638
-0.0106195
-0.00442555
-0.0109201
-0.00477509
-0.011233
-0.00513455
-0.0115622
-0.0119099
-0.00550177
-3.89486e-05
-0.00504925
-0.000222635
-0.00792897
-0.000468592
-0.00836098
-0.000729942
-0.00829145
-0.000995119
-0.00826366
-0.00126437
-0.00829666
-0.00153862
-0.00838083
-0.00181867
-0.00850191
-0.00210514
-0.0086542
-0.00239857
-0.00883132
-0.00269944
-0.00903021
-0.00300819
-0.00924776
-0.00332522
-0.00948229
-0.00365092
-0.00973228
-0.00398567
-0.00999694
-0.00432991
-0.0102752
-0.00468411
-0.0105659
-0.00504881
-0.0108683
-0.00542388
-0.0111871
-0.0115269
-0.00580686
-6.27801e-05
-0.00498647
-0.000268293
-0.00772346
-0.000531305
-0.00809797
-0.000806641
-0.00801612
-0.00108499
-0.00798531
-0.00136712
-0.00801452
-0.00165412
-0.00809383
-0.00194689
-0.00820914
-0.00224612
-0.00835497
-0.00255243
-0.008525
-0.00286635
-0.0087163
-0.00318835
-0.00892575
-0.00351888
-0.00915177
-0.00385835
-0.00939281
-0.00420721
-0.00964808
-0.00456596
-0.00991648
-0.00493502
-0.0101968
-0.0053147
-0.0104886
-0.00570464
-0.0107971
-0.0111302
-0.00610138
-8.53168e-05
-0.00490115
-0.000312154
-0.00749662
-0.000591415
-0.00781871
-0.000880257
-0.00772727
-0.00117137
-0.0076942
-0.001466
-0.0077199
-0.00176535
-0.00779448
-0.00207043
-0.00790405
-0.00238203
-0.00804337
-0.00270082
-0.00820621
-0.00302738
-0.00838974
-0.00336222
-0.00859091
-0.00370583
-0.00880816
-0.00405866
-0.00903998
-0.00442123
-0.0092855
-0.00479418
-0.00954353
-0.00517791
-0.00981306
-0.00557265
-0.0100939
-0.0059791
-0.0103907
-0.0107301
-0.00637925
-0.000110086
-0.00479106
-0.000357975
-0.00724873
-0.000652503
-0.00752418
-0.000954089
-0.00742569
-0.00125734
-0.00739094
-0.00156385
-0.0074134
-0.00187498
-0.00748335
-0.00219181
-0.00758722
-0.00251522
-0.00771996
-0.00284593
-0.0078755
-0.00318457
-0.0080511
-0.0035317
-0.00824377
-0.00388782
-0.00845204
-0.00425345
-0.00867436
-0.00462915
-0.00890979
-0.00501561
-0.00915708
-0.00541312
-0.00941555
-0.00582038
-0.00968661
-0.00623509
-0.00997599
-0.0102797
-0.0066855
-0.000130423
-0.00466064
-0.00039784
-0.00698131
-0.000707022
-0.007215
-0.00102111
-0.0071116
-0.00133629
-0.00707576
-0.00165444
-0.00709524
-0.00197709
-0.0071607
-0.0023054
-0.0072589
-0.00264033
-0.00738503
-0.00298267
-0.00753317
-0.00333309
-0.00770068
-0.00369219
-0.00788467
-0.00406053
-0.0080837
-0.00443865
-0.00829624
-0.00482716
-0.00852129
-0.0052265
-0.00875774
-0.00563648
-0.00900556
-0.00605678
-0.00926631
-0.00649205
-0.00954071
-0.00982011
-0.0069516
-0.000149826
-0.00451081
-0.000435747
-0.00669539
-0.000758846
-0.0068919
-0.00108491
-0.00678554
-0.00141154
-0.00674913
-0.00174088
-0.00676591
-0.00207458
-0.006827
-0.00241391
-0.00691957
-0.0027599
-0.00703904
-0.0031134
-0.00717967
-0.00347513
-0.00733895
-0.00384574
-0.00751406
-0.00422582
-0.00770363
-0.00461596
-0.00790609
-0.00501678
-0.00812046
-0.00542867
-0.00834585
-0.00585169
-0.00858254
-0.00628676
-0.00883124
-0.00673759
-0.00908988
-0.0093529
-0.0072048
-0.000168261
-0.00434255
-0.00047165
-0.006392
-0.000807923
-0.00655563