/*--------------------------------*- C++ -*----------------------------------*\
  =========                 |
  \\      /  F ield         | OpenFOAM: The Open Source CFD Toolbox
   \\    /   O peration     | Website:  https://openfoam.org
    \\  /    A nd           | Version:  7
     \\/     M anipulation  |
\*---------------------------------------------------------------------------*/
FoamFile
{
    version     2.0;
    format      ascii;
    class       volVectorField;
    location    "5";
    object      U;
}
// * * * * * * * * * * * * * * * * * * * * * * * * * * * * * * * * * * * * * //

dimensions      [0 1 -1 0 0 0 0];

internalField   nonuniform List<vector> 
12100
(
(-0.0220704 0.00794283 -4.34704e-20)
(-0.0860134 0.0125994 -5.38369e-20)
(-0.168871 0.0139678 6.8971e-21)
(-0.243995 0.0142817 -1.83559e-20)
(-0.316149 0.0142012 9.407e-20)
(-0.382313 0.0137598 3.12747e-20)
(-0.442102 0.0128 -4.55285e-20)
(-0.493331 0.0111652 4.91855e-20)
(-0.533938 0.00871327 -7.17326e-20)
(-0.561347 0.00533357 4.23054e-20)
(-0.572816 0.000945977 2.21756e-20)
(-0.565491 -0.00445619 7.57976e-21)
(-0.537099 -0.0107256 -2.23442e-20)
(-0.486677 -0.0177401 -1.08746e-20)
(-0.414886 -0.0246883 -5.95272e-21)
(-0.324163 -0.0308927 1.98385e-20)
(-0.220027 -0.0355527 -1.52326e-20)
(-0.103658 -0.0388313 -9.84381e-22)
(0.00945521 -0.0390694 7.52241e-22)
(0.129562 -0.0404825 -3.30417e-22)
(-0.0223512 0.0235204 2.05555e-21)
(-0.0849371 0.0374437 -3.42175e-20)
(-0.165528 0.0415769 -7.31958e-20)
(-0.23809 0.0425153 6.14116e-20)
(-0.307118 0.042249 4.12577e-20)
(-0.369524 0.0408959 6.90816e-21)
(-0.424837 0.0379979 1.32408e-19)
(-0.470857 0.0330981 -2.04658e-19)
(-0.50555 0.0257827 1.39689e-19)
(-0.526444 0.015734 -1.10874e-19)
(-0.530964 0.00272053 1.43505e-20)
(-0.516458 -0.013301 -6.08642e-20)
(-0.481065 -0.0319313 1.96812e-20)
(-0.423959 -0.0525207 3.43658e-20)
(-0.346019 -0.0729515 4.98853e-20)
(-0.249969 -0.0911146 2.45486e-20)
(-0.142517 -0.104671 4.74963e-20)
(-0.0230897 -0.11364 1.87236e-21)
(0.0879375 -0.114348 -1.15015e-20)
(0.21149 -0.117446 -1.61767e-21)
(-0.0228885 0.0381988 -1.25902e-20)
(-0.0828452 0.0612472 -4.94005e-20)
(-0.159012 0.0682248 7.13134e-20)
(-0.226572 0.0697844 5.75774e-20)
(-0.289528 0.0692652 -2.04539e-19)
(-0.344684 0.0669205 2.84602e-20)
(-0.391431 0.0620351 -2.22348e-19)
(-0.427586 0.0538896 1.22206e-20)
(-0.451219 0.0418393 -5.36609e-20)
(-0.460129 0.0254031 1.09567e-19)
(-0.452143 0.00423469 -3.33083e-20)
(-0.425067 -0.0217697 3.64036e-20)
(-0.377703 -0.0520591 -3.7947e-20)
(-0.309625 -0.085137 -6.22825e-20)
(-0.222268 -0.117977 -5.41631e-20)
(-0.118636 -0.146697 -5.51754e-20)
(-0.00718188 -0.168052 -8.00186e-20)
(0.114903 -0.180815 1.5221e-20)
(0.220703 -0.181829 5.48541e-21)
(0.345752 -0.18404 6.29476e-21)
(-0.0236363 0.0514407 6.2859e-20)
(-0.0798549 0.0833583 2.59821e-19)
(-0.149645 0.0932976 -8.6955e-20)
(-0.21 0.0954779 -1.85165e-19)
(-0.264275 0.0946075 -1.13149e-19)
(-0.309176 0.0911557 1.64547e-19)
(-0.343958 0.0842217 2.15228e-19)
(-0.366548 0.0728866 5.26945e-20)
(-0.375254 0.0563394 -5.05896e-21)
(-0.368354 0.0340076 -3.23604e-19)
(-0.344342 0.00550879 -1.52797e-19)
(-0.301753 -0.0291919 7.0607e-20)
(-0.240072 -0.0700133 6.35585e-21)
(-0.159578 -0.114109 6.12868e-20)
(-0.0624313 -0.157826 -1.44169e-19)
(0.0477103 -0.194586 4.70334e-20)
(0.161271 -0.222327 5.38457e-20)
(0.281926 -0.237057 3.21951e-20)
(0.379043 -0.237983 -1.33712e-20)
(0.498504 -0.236635 -7.38619e-21)
(-0.0245331 0.0627923 -1.73054e-19)
(-0.0761328 0.103183 -5.037e-20)
(-0.137888 0.116214 1.5611e-19)
(-0.189161 0.119021 8.42171e-20)
(-0.232599 0.117686 4.37353e-19)
(-0.264875 0.112996 -4.27465e-19)
(-0.285171 0.10396 -2.5276e-19)
(-0.291659 0.089544 9.58943e-20)
(-0.283054 0.0688473 -6.55786e-21)
(-0.25829 0.0412885 6.37985e-20)
(-0.216631 0.00644883 9.53888e-20)
(-0.157798 -0.0357911 -2.57401e-19)
(-0.0816336 -0.0851914 2.98943e-19)
(0.0109434 -0.138266 1.48085e-19)
(0.116945 -0.190515 1.76088e-19)
(0.2312 -0.233185 -2.28512e-21)
(0.34316 -0.26531 -2.63329e-20)
(0.456794 -0.280133 6.522e-21)
(0.54219 -0.280456 -1.20361e-20)
(0.647956 -0.273572 -1.96124e-20)
(-0.0255083 0.0719088 1.12529e-19)
(-0.0718851 0.120204 1.03298e-20)
(-0.124307 0.136439 -2.9336e-19)
(-0.165012 0.139885 -1.50567e-19)
(-0.195977 0.137974 -5.17213e-19)
(-0.213973 0.13192 -1.82036e-20)
(-0.218208 0.120752 -2.70081e-20)
(-0.207266 0.10342 4.3061e-20)
(-0.180426 0.0790077 7.64397e-20)
(-0.13744 0.0470023 6.78768e-20)
(-0.0784417 0.00696471 5.54317e-19)
(-0.00388916 -0.0415295 -6.32442e-21)
(0.0860184 -0.097398 1.81016e-19)
(0.189595 -0.157173 -3.93042e-19)
(0.302445 -0.2154 5.01473e-20)
(0.417823 -0.26203 -4.76776e-20)
(0.52463 -0.296113 -2.59316e-20)
(0.625882 -0.309035 2.79243e-20)
(0.696562 -0.308182 -3.89487e-20)
(0.782351 -0.294937 1.59541e-20)
(-0.0264906 0.0785736 -2.93161e-19)
(-0.0673441 0.134005 -5.30331e-19)
(-0.109542 0.153493 1.95074e-19)
(-0.138623 0.157593 -5.8082e-20)
(-0.156032 0.155009 4.67436e-19)
(-0.158811 0.147489 4.74561e-19)
(-0.14633 0.134192 -1.71276e-19)
(-0.117746 0.114158 2.48005e-19)
(-0.0730239 0.0865188 -2.74971e-19)
(-0.0127239 0.0508343 4.35657e-20)
(0.0621818 0.00668977 -1.12873e-19)
(0.150961 -0.046289 1.77809e-19)
(0.253393 -0.107078 1.61546e-21)
(0.366729 -0.171417 -1.36621e-19)
(0.484481 -0.233342 3.2613e-19)
(0.597691 -0.281134 -1.0882e-19)
(0.695342 -0.314643 -6.74132e-20)
(0.779798 -0.324138 8.79665e-20)
(0.833124 -0.321587 1.97091e-20)
(0.895427 -0.302343 6.63758e-20)
(-0.0274165 0.0827084 2.16456e-19)
(-0.0627536 0.144282 2.43991e-19)
(-0.0942709 0.166966 1.74934e-19)
(-0.111118 0.171719 6.4403e-19)
(-0.114429 0.168393 -1.48743e-19)
(-0.101729 0.159339 2.38895e-19)
(-0.0727023 0.143969 3.27369e-19)
(-0.0271692 0.121445 -4.25473e-19)
(0.0341075 0.0910617 8.26738e-19)
(0.109942 0.0524129 1.50555e-20)
(0.199001 0.00509048 -7.16199e-19)
(0.300718 -0.051115 -7.74064e-20)
(0.414777 -0.115343 -6.55446e-19)
(0.536705 -0.18213 2.81891e-19)
(0.65673 -0.244882 -1.87974e-19)
(0.763809 -0.290981 1.66255e-19)
(0.847928 -0.321598 1.76523e-19)
(0.91236 -0.326743 4.93107e-20)
(0.946663 -0.32233 -1.07061e-19)
(0.985032 -0.298409 -5.03119e-20)
(-0.0282386 0.0843745 -1.08768e-19)
(-0.0583528 0.150863 6.38769e-20)
(-0.0791677 0.176529 -5.30319e-19)
(-0.0836118 0.181898 -3.15569e-19)
(-0.0727969 0.177802 -2.63758e-19)
(-0.0449141 0.167139 -1.5346e-19)
(-0.000183636 0.149791 -7.92958e-19)
(0.060941 0.125032 1.48057e-19)
(0.137019 0.0923446 -8.31554e-19)
(0.226553 0.0513932 -2.57422e-19)
(0.328495 0.00170332 1.66421e-19)
(0.442826 -0.056864 2.96979e-19)
(0.568262 -0.122943 -8.08976e-20)
(0.696951 -0.189756 3.12967e-19)
(0.815198 -0.250247 1.39222e-20)
(0.911206 -0.292057 -2.55307e-19)
(0.977566 -0.318088 -2.1868e-21)
(1.02028 -0.318761 -2.13353e-19)
(1.03552 -0.312908 3.19115e-20)
(1.05229 -0.286179 -5.52982e-20)
(-0.0289322 0.0837636 4.12814e-19)
(-0.0543592 0.153719 4.79587e-19)
(-0.0648574 0.181954 1.28526e-19)
(-0.0571389 0.18783 5.45236e-19)
(-0.0326221 0.182921 1.60239e-19)
(0.00967322 0.170642 3.71456e-19)
(0.0689138 0.151424 4.37142e-19)
(0.14404 0.124729 4.20999e-19)
(0.233354 0.0901718 4.53337e-19)
(0.335611 0.0474525 -3.39479e-19)
(0.4506 -0.00396009 5.38569e-19)
(0.578337 -0.0638285 5.15935e-19)
(0.714465 -0.129728 6.29152e-19)
(0.846051 -0.193829 -5.64223e-19)
(0.956564 -0.249169 5.80984e-20)
(1.03607 -0.284887 3.55787e-19)
(1.08163 -0.30566 -1.25398e-19)
(1.10293 -0.302584 -3.22768e-21)
(1.10104 -0.296231 -5.96499e-21)
(1.10046 -0.268603 5.88594e-20)
(-0.0294996 0.0811803 -2.5946e-19)
(-0.0509536 0.152974 -4.35772e-19)
(-0.051867 0.183127 7.75411e-19)
(-0.0325913 0.189301 -8.17412e-19)
(0.0048916 0.183503 -6.06123e-19)
(0.0605559 0.169692 -2.77534e-19)
(0.133052 0.148743 -1.25442e-19)
(0.220999 0.120393 -7.15087e-19)
(0.323 0.084439 -3.07534e-19)
(0.438707 0.0404918 -6.76372e-20)
(0.568489 -0.0117612 -2.34657e-19)
(0.710245 -0.0713382 -1.58601e-19)
(0.853895 -0.134533 -3.51167e-19)
(0.981559 -0.193278 -1.53184e-19)
(1.07723 -0.241421 5.55717e-20)
(1.13577 -0.270485 -2.20166e-19)
(1.1598 -0.2864 2.28418e-20)
(1.16222 -0.28089 6.68924e-21)
(1.14672 -0.275141 -9.59899e-20)
(1.13381 -0.24815 4.41402e-20)
(-0.0299724 0.0770142 2.43971e-19)
(-0.0482607 0.148896 1.93107e-19)
(-0.0405731 0.180091 -8.97832e-19)
(-0.0106001 0.186231 -3.08174e-19)
(0.038937 0.179462 3.43989e-19)
(0.106991 0.164199 -1.92006e-19)
(0.191934 0.141741 5.26084e-19)
(0.292639 0.112164 5.32004e-19)
(0.408625 0.0753696 7.75692e-20)
(0.540307 0.0310396 -1.09525e-19)
(0.686761 -0.0206095 7.25019e-19)
(0.840387 -0.0777251 -8.06887e-19)
(0.984405 -0.135676 -6.86462e-19)
(1.09929 -0.187231 8.81594e-19)
(1.17393 -0.227482 -1.72033e-19)
(1.2097 -0.250566 8.2499e-20)
(1.21427 -0.262728 1.00726e-19)
(1.20195 -0.256261 -5.32438e-20)
(1.17712 -0.251992 1.40066e-19)
(1.15652 -0.226612 1.42945e-19)
(-0.0304095 0.0717062 -7.82204e-19)
(-0.0463304 0.14189 -7.60075e-19)
(-0.0311418 0.173066 5.73112e-19)
(0.00858655 0.178709 3.72432e-19)
(0.0693575 0.170867 2.04291e-19)
(0.14932 0.154285 -1.76547e-19)
(0.247048 0.130701 -3.27757e-19)
(0.362246 0.100541 1.7456e-19)
(0.495384 0.0638153 2.84662e-20)
(0.645955 0.0205262 1.55289e-19)
(0.808136 -0.0285196 -4.11859e-19)
(0.966642 -0.0809287 -1.5571e-19)
(1.10081 -0.1319 5.36517e-19)
(1.1948 -0.175766 -6.33909e-19)
(1.24541 -0.208735 -4.07606e-20)
(1.25991 -0.227285 2.00272e-19)
(1.24921 -0.236951 -6.79786e-20)
(1.22686 -0.230786 -7.08353e-20)
(1.19669 -0.228429 1.02197e-20)
(1.17202 -0.205132 -7.43123e-20)
(-0.0308899 0.065711 1.21307e-19)
(-0.0451238 0.132473 7.97939e-19)
(-0.023464 0.162454 -2.52512e-19)
(0.0252429 0.167049 -3.29554e-20)
(0.0969062 0.158044 -2.63533e-19)
(0.189361 0.140408 -1.04178e-19)
(0.301936 0.116358 9.81986e-20)
(0.43529 0.0866354 3.24456e-19)
(0.589279 0.0515004 9.79928e-20)
(0.758966 0.0111593 -8.85577e-19)
(0.930528 -0.0333003 4.28347e-19)
(1.08283 -0.0795201 2.57623e-19)
(1.19722 -0.123124 -2.96285e-19)
(1.26581 -0.160025 4.34582e-19)
(1.29334 -0.187102 2.90266e-19)
(1.29064 -0.202703 -7.66028e-20)
(1.26962 -0.210858 -1.01262e-20)
(1.24144 -0.205891 -2.15305e-20)
(1.20908 -0.205417 -2.14839e-19)
(1.18276 -0.184365 -2.44856e-19)
(-0.0314996 0.0594601 6.82516e-19)
(-0.0444958 0.121242 -1.97249e-19)
(-0.0171004 0.148839 -5.07406e-19)
(0.0403004 0.151824 6.8591e-19)
(0.123466 0.141666 6.25925e-19)
(0.230571 0.123538 4.65061e-19)
(0.361925 0.100109 4.46491e-19)
(0.517804 0.0724213 -1.67253e-19)
(0.693989 0.0407728 3.03707e-19)
(0.877452 0.0051565 2.75882e-19)
(1.04703 -0.0335739 -2.51712e-19)
(1.18164 -0.0733836 1.69319e-19)
(1.27011 -0.110416 1.36352e-19)
(1.31346 -0.141715 -8.81313e-20)
(1.32185 -0.164434 2.0749e-19)
(1.30703 -0.178367 -1.90354e-19)
(1.28015 -0.185586 2.23246e-19)
(1.24928 -0.182389 3.57229e-19)
(1.21686 -0.183418 1.45134e-19)
(1.19035 -0.164669 2.05576e-19)
(-0.0323134 0.0533273 -2.14917e-19)
(-0.0441779 0.108825 1.18489e-19)
(-0.011242 0.132959 2.95721e-19)
(0.0554326 0.133878 -8.32232e-19)
(0.152123 0.122815 -1.46107e-19)
(0.27779 0.105183 -7.45572e-19)
(0.432784 0.0840003 3.14939e-19)
(0.613677 0.0603094 -7.83969e-19)
(0.808034 0.0338019 3.07604e-19)
(0.994258 0.00376276 7.55305e-22)
(1.14922 -0.0293358 3.707e-19)
(1.25834 -0.0635597 9.10573e-20)
(1.31989 -0.0953704 -1.46809e-19)
(1.34167 -0.122449 -3.39639e-19)
(1.33607 -0.142109 -7.20929e-21)
(1.3138 -0.155182 3.36321e-19)
(1.28439 -0.161729 -2.48617e-19)
(1.25284 -0.160656 -4.94999e-19)
(1.22172 -0.162559 -3.20708e-19)
(1.19574 -0.146223 1.18123e-19)
(-0.033374 0.0476018 6.62631e-21)
(-0.0437666 0.0958278 5.23237e-19)
(-0.00470529 0.115658 -1.37068e-19)
(0.0730232 0.114298 -4.70801e-20)
(0.186878 0.102962 1.6146e-19)
(0.336224 0.0873241 5.763e-19)
(0.51851 0.0704125 -2.93155e-19)
(0.722074 0.0524029 -2.67231e-19)
(0.924546 0.0316821 1.75059e-19)
(1.10026 0.00682204 4.15827e-19)
(1.23118 -0.0216591 -7.6969e-19)
(1.31239 -0.0515336 4.87574e-19)
(1.35005 -0.0794357 5.30924e-20)
(1.35546 -0.103387 1.41536e-19)
(1.3407 -0.120942 -2.93197e-19)
(1.31463 -0.133539 -7.99579e-20)
(1.28477 -0.139542 -6.91607e-20)
(1.25375 -0.140783 5.60766e-20)
(1.22465 -0.142741 1.99425e-19)
(1.1994 -0.129113 -3.53116e-19)
(-0.0346725 0.0424708 -5.69433e-20)
(-0.0427226 0.0827918 -5.23396e-20)
(0.0040192 0.0978203 5.89183e-19)
(0.0959726 0.0943344 3.0596e-19)
(0.231992 0.0838733 -2.8325e-19)
(0.409776 0.072193 8.12655e-20)
(0.61912 0.0613846 9.61023e-20)
(0.836951 0.0496964 8.75758e-19)
(1.03423 0.0341168 -7.57664e-19)
(1.18853 0.0131877 -1.0658e-18)
(1.29135 -0.0119453 -5.58941e-19)
(1.3467 -0.0386032 4.65932e-20)
(1.3654 -0.0636092 5.86292e-20)
(1.3595 -0.0852013 -3.16551e-19)
(1.33941 -0.101299 -2.99227e-20)
(1.312 -0.1135 4.82951e-20)
(1.28285 -0.119126 -3.71805e-20)
(1.25304 -0.122647 4.24346e-19)
(1.22617 -0.123704 1.59177e-20)
(1.20152 -0.113462 3.52207e-19)
(-0.0361344 0.0380129 4.90103e-20)
(-0.0403888 0.0701475 -6.59436e-19)
(0.0166557 0.0802845 1.72899e-19)
(0.12733 0.0753091 -5.89271e-19)
(0.290983 0.0674197 7.62129e-19)
(0.499397 0.061725 -5.3134e-19)
(0.729927 0.0579107 2.29521e-20)
(0.949404 0.0518258 -5.30769e-20)
(1.12935 0.039891 -5.73106e-19)
(1.25635 0.0214903 1.43886e-18)
(1.33178 -0.00135354 6.05633e-19)
(1.36566 -0.0256356 6.80794e-20)
(1.37052 -0.0484449 -2.72261e-19)
(1.35745 -0.0682015 -4.60413e-19)
(1.33474 -0.0832508 -6.78525e-21)
(1.3075 -0.0949914 -1.75338e-19)
(1.27957 -0.10052 1.40155e-19)
(1.25139 -0.105905 -6.98293e-20)
(1.2265 -0.105223 -4.49623e-19)
(1.20226 -0.0996334 -1.55666e-19)
(-0.0376126 0.0342018 -3.49257e-19)
(-0.036027 0.0581883 4.53881e-19)
(0.0349811 0.0637851 -3.99318e-19)
(0.169808 0.058521 -4.39257e-19)
(0.365535 0.0552978 -8.31288e-19)
(0.6022 0.057005 3.35858e-19)
(0.843063 0.0596973 -2.39062e-19)
(1.05126 0.057543 -7.12446e-19)
(1.20603 0.0476318 6.31057e-19)
(1.30475 0.0306525 -5.10066e-19)
(1.3563 0.00937175 7.00386e-19)
(1.37367 -0.0131045 6.98458e-19)
(1.36909 -0.0341831 1.55541e-19)
(1.35188 -0.0524689 5.84627e-19)
(1.3283 -0.0667041 -8.51992e-20)
(1.30202 -0.0779278 1.21672e-19)
(1.27554 -0.0836733 -3.83331e-20)
(1.24922 -0.0900599 2.3017e-19)
(1.22578 -0.0875533 1.01272e-19)
(1.2019 -0.0884343 1.04003e-19)
(-0.0388892 0.0309214 1.81472e-18)
(-0.028866 0.0470654 -4.61417e-19)
(0.0606457 0.0489303 4.06574e-19)
(0.22526 0.0451818 5.01187e-19)
(0.454705 0.0486791 7.82551e-19)
(0.712085 0.0579813 -4.24501e-19)
(0.9504 0.0655489 2.57354e-19)
(1.13751 0.0654445 -3.4521e-19)
(1.26407 0.0562832 -6.44697e-19)
(1.33677 0.0400066 3.26762e-19)
(1.36899 0.0198353 -5.91683e-19)
(1.37437 -0.00121061 -3.67148e-19)
(1.36374 -0.0208735 -2.01401e-19)
(1.34445 -0.0379509 1.54949e-19)
(1.32104 -0.0515029 -2.92139e-20)
(1.29605 -0.0622428 2.42091e-19)
(1.27113 -0.0683663 2.14603e-20)
(1.24674 -0.0747726 -5.34512e-19)
(1.22436 -0.0718945 2.13078e-19)
(1.20042 -0.0812013 -1.90302e-19)
(-0.0397148 0.0280185 -1.2738e-18)
(-0.0181419 0.0368078 5.51925e-19)
(0.0950431 0.0362136 -5.78966e-20)
(0.294228 0.0362906 -2.8602e-19)
(0.554814 0.0478679 -8.70311e-19)
(0.821655 0.0636376 6.28526e-19)
(1.04593 0.0740224 -5.82322e-19)
(1.20652 0.0744302 2.67649e-19)
(1.30548 0.0652006 3.32946e-19)
(1.356 0.0492181 -1.36416e-18)
(1.37339 0.0298877 2.55158e-19)
(1.37049 0.0100221 4.08228e-20)
(1.35623 -0.00845233 1.82755e-19)
(1.33617 -0.0245215 -1.05223e-19)
(1.31346 -0.0374875 -5.70116e-20)
(1.28987 -0.0478402 -3.83745e-20)
(1.26651 -0.0542691 2.24761e-19)
(1.24382 -0.0603378 1.51321e-19)
(1.22228 -0.0596655 4.17101e-20)
(1.20237 -0.0653465 1.08177e-19)
(-0.0398276 0.0253127 -9.23407e-20)
(-0.0031234 0.0273316 -8.29903e-19)
(0.139207 0.0260704 4.58686e-19)
(0.375689 0.0324793 3.05471e-19)
(0.660409 0.0522969 -2.50883e-19)
(0.924589 0.0726019 -7.9454e-19)
(1.12677 0.0839539 5.47594e-19)
(1.25926 0.0838172 -1.37753e-19)
(1.3333 0.0740453 1.0927e-19)
(1.36585 0.0581363 8.45608e-19)
(1.37232 0.0394811 -4.3845e-19)
(1.36391 0.0206139 -3.90386e-19)
(1.34767 0.00314829 -3.50839e-19)
(1.32759 -0.0120759 -1.61981e-19)
(1.30584 -0.0245493 -2.17632e-20)
(1.28361 -0.0345906 1.99125e-19)
(1.26172 -0.0411998 -9.82775e-20)
(1.24043 -0.047488 -1.07564e-19)
(1.22067 -0.0469922 -2.15939e-19)
(1.20107 -0.0541852 -1.34419e-19)
(-0.0389501 0.0226108 -3.91714e-20)
(0.0168727 0.0185304 4.86074e-19)
(0.193656 0.019 -8.58876e-19)
(0.466965 0.0338802 1.7202e-19)
(0.765599 0.0608784 6.02644e-19)
(1.01666 0.0836562 1.17261e-19)
(1.19241 0.0945773 1.84667e-19)
(1.2978 0.0932361 3.41125e-19)
(1.35051 0.0826784 -3.75221e-19)
(1.36906 0.0667411 -2.77308e-19)
(1.36776 0.0486578 5.12498e-19)
(1.35587 0.0306469 9.18537e-19)
(1.33869 0.0140371 9.45705e-20)
(1.319 -0.000487697 -1.03593e-19)
(1.29827 -0.0125573 1.22474e-19)
(1.27734 -0.0223412 -2.56401e-19)
(1.25674 -0.029244 5.97889e-20)
(1.23694 -0.0353279 -1.07557e-19)
(1.21797 -0.0362972 -3.74943e-19)
(1.20047 -0.0431354 1.90241e-19)
(-0.0368005 0.0197383 9.51907e-20)
(0.0424915 0.0103727 9.13348e-19)
(0.258243 0.0155591 -2.80058e-19)
(0.564161 0.0400596 7.72727e-19)
(0.865431 0.0724246 -6.39558e-19)
(1.09586 0.0959056 7.63934e-19)
(1.24383 0.105427 -6.28889e-19)
(1.32462 0.102505 4.08464e-19)
(1.3598 0.0910668 -2.58184e-19)
(1.36778 0.0750662 3.05964e-20)
(1.36112 0.0574789 -3.03552e-19)
(1.34713 0.0401982 -5.1326e-19)
(1.32964 0.0243026 -2.41776e-19)
(1.31055 0.0103434 1.63579e-19)
(1.29082 -0.00140241 7.19629e-20)
(1.27105 -0.0110341 -5.74674e-21)
(1.25169 -0.018113 -3.17928e-20)
(1.23298 -0.0243807 3.6216e-19)
(1.21534 -0.0260407 3.22378e-19)
(1.19871 -0.0327575 1.21658e-19)
(-0.0330957 0.0165639 -8.61442e-19)
(0.0743373 0.00300453 -8.23667e-19)
(0.332003 0.0162219 6.42519e-19)
(0.662944 0.0501945 -3.82459e-20)
(0.956547 0.0859455 9.10133e-19)
(1.16186 0.108763 -5.55008e-19)
(1.28276 0.116248 2.44689e-19)
(1.34215 0.111562 -3.16443e-19)
(1.36334 0.0992409 5.92593e-19)
(1.36356 0.083173 -2.28056e-19)
(1.3533 0.0660139 2.19963e-19)
(1.33813 0.049344 -1.49806e-20)
(1.3207 0.0340298 1.66243e-19)
(1.30226 0.0205142 -2.15168e-20)
(1.28347 0.00900388 2.3076e-19)
(1.26477 -0.000523281 -2.73228e-19)
(1.24646 -0.00786836 1.54978e-19)
(1.22891 -0.0141547 -2.47544e-19)
(1.21211 -0.0167052 -8.91896e-20)
(1.19665 -0.0234173 -1.19907e-19)
(-0.0275425 0.013014 1.23744e-18)
(0.112921 -0.00316461 -7.99028e-19)
(0.413119 0.0211783 2.04756e-19)
(0.759359 0.0633727 -8.0981e-19)
(1.03715 0.100727 -5.72681e-19)
(1.21535 0.121864 6.30769e-20)
(1.31116 0.126914 1.1379e-19)
(1.35251 0.120414 -3.14925e-19)
(1.36283 0.107257 5.75347e-20)
(1.35747 0.0911246 4.43027e-19)
(1.34488 0.0743228 -3.19409e-19)
(1.3291 0.0581466 -1.82792e-19)
(1.31191 0.0432878 -9.69371e-20)
(1.29414 0.0301016 -8.32809e-20)
(1.27621 0.0187537 -1.00568e-19)
(1.25846 0.00924107 1.90449e-19)
(1.24116 0.00168129 -4.14273e-20)
(1.22452 -0.004769 2.29957e-20)
(1.20871 -0.00804417 2.16923e-19)
(1.19409 -0.0145829 2.22367e-19)
(-0.0198223 0.00908445 -2.94176e-19)
(0.158545 -0.00744936 7.41981e-19)
(0.499103 0.0302373 4.45505e-19)
(0.850355 0.07881 -5.06723e-19)
(1.10664 0.116283 6.28216e-19)
(1.25758 0.134988 -3.70728e-21)
(1.33094 0.137383 5.66538e-19)
(1.35747 0.129106 3.69559e-19)
(1.35953 0.115178 3.2322e-19)
(1.35025 0.0989768 -3.07866e-19)
(1.33617 0.0824549 2.11879e-19)
(1.32014 0.0666576 2.19255e-19)
(1.3033 0.0521361 3.5348e-19)
(1.28616 0.0391777 -1.80879e-19)
(1.26903 0.0279142 -3.20545e-22)
(1.25214 0.0183672 -1.59211e-19)
(1.23572 0.0105521 8.06691e-21)
(1.21998 0.0039489 6.39428e-21)
(1.20496 -7.99448e-06 -4.02019e-20)
(1.19115 -0.00655496 -4.59351e-20)
(-0.00958179 0.00485493 -2.68174e-19)
(0.211154 -0.00899472 -2.99796e-19)
(0.587149 0.0429167 -1.48351e-20)
(0.933918 0.0959143 4.80416e-19)
(1.16522 0.132287 -4.69939e-19)
(1.28998 0.148014 -5.11188e-19)
(1.34382 0.147663 1.93265e-19)
(1.35844 0.137693 -2.29429e-19)
(1.35433 0.12306 -1.46783e-19)
(1.34235 0.106772 5.62775e-20)
(1.32737 0.0904463 -4.76092e-19)
(1.3113 0.074917 4.29934e-19)
(1.29484 0.0606242 -4.0017e-20)
(1.2783 0.0478002 -8.85472e-20)
(1.26188 0.0365563 7.75195e-20)
(1.24578 0.0269105 -1.11881e-19)
(1.23018 0.0188488 -9.36719e-20)
(1.21522 0.0120322 -4.10387e-21)
(1.20099 0.00742692 -1.25596e-19)
(1.18787 0.000916427 1.68388e-21)
(0.00355846 0.000505001 3.08671e-19)
(0.270223 -0.00698635 5.44298e-19)
(0.67453 0.0586356 -7.39147e-19)
(1.00895 0.114261 -2.74722e-19)
(1.21356 0.148516 -1.24643e-19)
(1.31402 0.160884 7.15289e-19)
(1.35125 0.157789 -1.91577e-19)
(1.35649 0.146234 -1.1648e-19)
(1.34787 0.130949 -1.61922e-19)
(1.33406 0.11454 1.94068e-19)
(1.31855 0.0983221 7.1868e-20)
(1.30256 0.0829559 -8.10153e-20)
(1.28649 0.0687927 -2.10184e-19)
(1.27051 0.0560216 2.0704e-20)
(1.25476 0.0447338 -8.32905e-20)
(1.23938 0.0349466 1.45714e-19)
(1.22452 0.0266179 3.43282e-20)
(1.2103 0.0195559 3.30992e-20)
(1.19677 0.0143555 4.24794e-20)
(1.18427 0.00778348 -1.24097e-19)
(0.0199652 -0.00366834 -5.80471e-19)
(0.334737 -0.000869672 -3.4178e-20)
(0.758889 0.0768587 -1.12784e-19)
(1.07502 0.133546 3.24711e-19)
(1.25259 0.164823 -1.11889e-19)
(1.33107 0.173581 -3.13377e-19)
(1.35445 0.16781 -4.38119e-19)
(1.35242 0.15478 3.06617e-19)
(1.34055 0.138874 -3.55181e-19)
(1.32552 0.122297 1.74523e-19)
(1.30974 0.106098 1.01723e-19)
(1.2939 0.0907973 -5.03906e-20)
(1.27822 0.0766752 1.18551e-19)
(1.26276 0.0638844 1.28326e-19)
(1.24763 0.0524996 -2.66943e-19)
(1.23292 0.0425274 1.9089e-19)
(1.21875 0.0339241 1.38748e-20)
(1.2052 0.0265808 2.9693e-20)
(1.19234 0.0208038 1.40548e-19)
(1.18041 0.0141512 3.32455e-20)
(0.0399339 -0.00724797 1.72774e-19)
(0.403288 0.00953515 -7.06254e-19)
(0.838402 0.0971408 6.6827e-19)
(1.13217 0.153536 3.03594e-19)
(1.28334 0.181114 -2.26275e-19)
(1.34233 0.186115 -3.7199e-19)
(1.35438 0.177773 1.36339e-20)
(1.34682 0.163368 -7.23209e-20)
(1.33264 0.146851 6.09272e-19)
(1.31682 0.130048 -2.75039e-19)
(1.30092 0.113782 -3.11805e-20)
(1.28529 0.0984575 6.95555e-20)
(1.26999 0.0842982 -4.26056e-20)
(1.25503 0.0714251 -8.44003e-20)
(1.24048 0.0598953 2.29014e-19)
(1.22639 0.0497067 -1.827e-19)
(1.21285 0.0408151 1.97301e-20)
(1.19994 0.0331599 -9.62972e-20)
(1.18769 0.0268442 -9.64756e-20)
(1.1763 0.0200597 -2.95313e-20)
(0.063631 -0.00972134 -1.23459e-19)
(0.474237 0.0240682 2.95337e-19)
(0.911799 0.119114 -2.70401e-19)
(1.18073 0.174042 -2.80094e-19)
(1.30681 0.197329 4.63585e-19)
(1.34887 0.198511 4.91094e-19)
(1.35178 0.187719 2.36732e-19)
(1.34008 0.17202 -4.02578e-21)
(1.32429 0.154885 -5.96995e-19)
(1.30799 0.137792 5.02694e-20)
(1.29208 0.121374 1.90154e-20)
(1.27668 0.105946 1.22937e-19)
(1.26176 0.0916817 1.94914e-19)
(1.24728 0.0786721 -1.12638e-20)
(1.23327 0.066958 -4.24467e-20)
(1.21977 0.056526 1.62877e-19)
(1.20684 0.0473366 -1.03726e-19)
(1.19452 0.0393483 1.20859e-19)
(1.18284 0.0325162 -1.04571e-20)
(1.17195 0.0255747 1.14958e-19)
(0.09105 -0.0105358 2.16132e-19)
(0.545896 0.0423607 1.15413e-19)
(0.978318 0.142471 -2.642e-19)
(1.22119 0.194893 -3.27353e-19)
(1.32399 0.213431 -2.38319e-20)
(1.35154 0.210796 -5.41383e-20)
(1.34722 0.19768 2.62954e-19)
(1.33247 0.180744 1.8268e-19)
(1.31559 0.162966 1.95156e-19)
(1.29901 0.145516 -6.9295e-20)
(1.28318 0.128872 9.0181e-20)
(1.26805 0.113269 -8.17684e-20)
(1.2535 0.0988399 -1.61798e-19)
(1.23949 0.0856481 1.96762e-20)
(1.22601 0.0737168 3.97769e-20)
(1.21306 0.0630221 4.51676e-20)
(1.20069 0.0535272 5.82874e-20)
(1.18893 0.0451895 -3.39573e-20)
(1.17781 0.037874 6.32498e-20)
(1.1674 0.0307533 -1.37923e-19)
(0.121995 -0.00917477 2.84107e-19)
(0.616661 0.0639679 -2.62047e-20)
(1.0376 0.166949 3.7062e-19)
(1.25414 0.215938 2.26179e-19)
(1.33573 0.229397 1.00518e-19)
(1.35107 0.222997 -2.47223e-19)
(1.3411 0.20767 -2.33998e-19)
(1.32416 0.189536 -6.44441e-20)
(1.30657 0.171079 -1.70905e-20)
(1.28988 0.153206 -1.67197e-20)
(1.27419 0.136264 -2.17933e-19)
(1.25934 0.120425 4.64797e-20)
(1.24519 0.105781 8.17294e-20)
(1.23164 0.0923688 2.65552e-21)
(1.21866 0.0801946 9.33091e-21)
(1.20624 0.0692235 -2.42726e-20)
(1.19442 0.0594188 -5.48432e-20)
(1.18319 0.0507253 -4.3511e-20)
(1.17259 0.0429561 -8.71048e-20)
(1.16265 0.0356455 1.24593e-20)
(0.15609 -0.00523029 -1.74536e-19)
(0.6851 0.0884478 1.10319e-19)
(1.08957 0.192326 -4.59924e-20)
(1.28021 0.237043 1.09808e-20)
(1.34281 0.245211 -4.15009e-19)
(1.34801 0.235133 1.02928e-19)
(1.33373 0.217693 6.58542e-20)
(1.31526 0.198377 -4.4712e-20)
(1.29726 0.179199 1.602e-19)
(1.28057 0.160839 -2.26194e-21)
(1.26508 0.143537 6.8201e-20)
(1.25055 0.127408 7.79477e-20)
(1.23679 0.112507 -5.23358e-20)
(1.2237 0.098844 -5.99016e-20)
(1.21121 0.0864073 -3.14792e-20)
(1.19931 0.0751517 -3.24727e-20)
(1.18801 0.0650366 2.82598e-20)
(1.1773 0.0559869 3.11219e-20)
(1.1672 0.0478005 4.75635e-20)
(1.1577 0.0402987 5.27557e-20)
(0.192809 0.00155081 -8.09681e-20)
(0.750006 0.115382 -1.66149e-20)
(1.13438 0.218404 -1.48724e-19)
(1.30003 0.258092 1.37988e-19)
(1.34589 0.260855 2.97504e-19)
(1.34282 0.24721 1.62115e-19)
(1.32532 0.227739 -7.29844e-20)
(1.30583 0.207242 -4.18281e-20)
(1.28764 0.187296 -9.43883e-20)
(1.27106 0.168391 9.016e-20)
(1.25582 0.150675 -3.34968e-21)
(1.24164 0.134209 -4.28379e-20)
(1.22829 0.119017 -4.92209e-20)
(1.21565 0.105077 -4.58047e-20)
(1.20366 0.0923646 9.27255e-20)
(1.19227 0.080821 -3.08524e-20)
(1.18147 0.0703984 -3.20418e-20)
(1.17126 0.0610001 -5.28543e-21)
(1.16164 0.0524343 -5.12407e-21)
(1.15257 0.0447446 -2.94006e-20)
(0.231519 0.0112597 -7.95127e-21)
(0.810419 0.144372 -1.09683e-19)
(1.17225 0.244999 5.04604e-20)
(1.31422 0.278985 -1.80826e-19)
(1.34553 0.276312 -1.2637e-19)
(1.33583 0.259225 1.86523e-20)
(1.316 0.237784 -2.03561e-21)
(1.2959 0.216095 8.26712e-21)
(1.27769 0.195334 2.56075e-20)
(1.26131 0.175832 4.45979e-20)
(1.24638 0.157654 -6.02151e-20)
(1.23258 0.140815 2.47338e-20)
(1.21966 0.125302 4.23342e-20)
(1.2075 0.111068 -9.18739e-21)
(1.19599 0.09807 -3.89865e-20)
(1.18509 0.0862392 2.12836e-20)
(1.17479 0.0755155 2.33835e-20)
(1.16507 0.0657813 2.29775e-20)
(1.15592 0.056877 -1.11462e-20)
(1.14727 0.0490079 3.87011e-21)
(0.271514 0.0238524 8.95105e-20)
(0.86563 0.175034 -1.26978e-19)
(1.20351 0.271931 -1.73506e-20)
(1.32334 0.299639 7.37898e-20)
(1.34219 0.291557 1.19101e-19)
(1.3273 0.271157 -3.64438e-20)
(1.30587 0.247794 -1.03668e-19)
(1.28548 0.224894 1.02116e-19)
(1.2674 0.203274 -2.72567e-20)
(1.25131 0.18313 -3.09779e-20)
(1.23674 0.164451 2.77481e-20)
(1.22336 0.147207 -1.34626e-20)
(1.2109 0.131352 -3.90795e-21)
(1.19921 0.116809 9.92465e-21)
(1.1882 0.103522 1.39353e-20)
(1.1778 0.0914078 1.73639e-20)
(1.16798 0.0803921 -2.98999e-20)
(1.15874 0.0703395 -7.11175e-21)
(1.15005 0.0611361 -1.66851e-21)
(1.1418 0.0530962 8.08321e-21)
(0.312022 0.0391937 -4.90863e-20)
(0.915154 0.206997 8.81935e-20)
(1.2285 0.299018 -1.09637e-20)
(1.32792 0.319976 -2.37153e-20)
(1.33626 0.306561 -7.74765e-20)
(1.31743 0.282977 3.62324e-20)
(1.29499 0.257726 2.37121e-20)
(1.27458 0.233592 -2.60474e-20)
(1.25676 0.211074 -4.1881e-21)
(1.24104 0.19025 1.21534e-20)
(1.22689 0.171039 -1.28468e-20)
(1.21396 0.153365 6.38224e-21)
(1.20199 0.137151 -1.34768e-20)
(1.1908 0.12229 7.5675e-21)
(1.18029 0.108713 1.52236e-21)
(1.17038 0.0963231 -6.45454e-21)
(1.16105 0.0850264 3.61996e-21)
(1.15228 0.0746749 -5.32332e-21)
(1.14404 0.0652094 1.67156e-21)
(1.13616 0.0570094 5.7167e-21)
(0.352205 0.0570895 -3.50986e-20)
(0.958696 0.239907 7.68293e-20)
(1.24755 0.326076 -8.05254e-21)
(1.32843 0.339924 -3.03556e-20)
(1.32807 0.321287 -7.11047e-20)
(1.30635 0.294643 3.56712e-20)
(1.28339 0.26753 2.30898e-20)
(1.26317 0.24214 -2.05539e-20)
(1.24574 0.21869 -2.63258e-22)
(1.23047 0.197156 9.4189e-21)
(1.2168 0.177388 -8.2474e-21)
(1.20438 0.159267 -2.2135e-21)
(1.19292 0.142681 -4.71574e-21)
(1.18224 0.127498 2.6881e-21)
(1.17224 0.113633 1.70181e-21)
(1.16284 0.100976 -6.51746e-21)
(1.15399 0.08941 6.96597e-21)
(1.1457 0.0787788 -6.51112e-21)
(1.13791 0.0690898 -1.50461e-21)
(1.13037 0.060736 3.7542e-21)
(0.391254 0.0772784 1.01585e-19)
(0.996017 0.273386 -1.03577e-19)
(1.26093 0.352898 -7.43911e-20)
(1.32525 0.359409 9.69375e-20)
(1.31783 0.335698 1.10424e-19)
(1.29415 0.306112 -4.49295e-20)
(1.27109 0.277157 -7.40996e-20)
(1.25125 0.250491 8.04346e-20)
(1.23433 0.226081 -2.22442e-20)
(1.21959 0.203816 -2.55632e-20)
(1.20646 0.183472 1.96261e-20)
(1.19459 0.16489 -3.73111e-21)
(1.18368 0.147926 -8.80457e-21)
(1.17355 0.132418 2.73342e-21)
(1.16407 0.118269 1.27076e-20)
(1.15518 0.105355 1.43152e-20)
(1.14682 0.0935307 -1.72422e-20)
(1.13901 0.0826372 -4.3573e-21)
(1.13165 0.0727712 -2.74386e-21)
(1.12443 0.0642656 5.38757e-21)
(0.428643 0.0995467 4.51174e-20)
(1.02731 0.307191 -1.63602e-19)
(1.26913 0.379346 4.59719e-20)
(1.31877 0.378365 -1.2003e-19)
(1.30579 0.349731 -1.40029e-19)
(1.2809 0.317308 2.26743e-20)
(1.25809 0.28653 8.86278e-21)
(1.23882 0.258575 -8.83422e-21)
(1.22252 0.233189 2.95857e-20)
(1.2084 0.210182 -1.0106e-21)
(1.19587 0.189253 -1.84353e-20)
(1.1846 0.170198 3.86496e-21)
(1.17428 0.152855 3.48558e-20)
(1.16472 0.137029 -2.776e-21)
(1.15578 0.1226 -1.11604e-20)
(1.14741 0.10944 -6.27481e-21)
(1.13955 0.0973712 2.59401e-20)
(1.13222 0.0862337 1.06142e-20)
(1.12526 0.0762351 -5.80164e-21)
(1.11839 0.0675814 -6.62982e-21)
(0.463753 0.12366 -1.00198e-19)
(1.05262 0.341044 -1.9103e-20)
(1.27245 0.405237 -1.42804e-19)
(1.3093 0.396707 1.60605e-19)
(1.29209 0.363325 1.99963e-19)
(1.26667 0.328168 7.76781e-20)
(1.2444 0.295588 -1.41614e-20)
(1.22585 0.26634 1.59096e-20)
(1.21029 0.239968 -8.05832e-20)
(1.19687 0.216214 5.6695e-20)
(1.18504 0.194699 -1.70151e-20)
(1.17441 0.175167 -1.26754e-20)
(1.16472 0.157449 -3.3506e-20)
(1.15575 0.141311 -9.96974e-21)
(1.14738 0.126614 1.46663e-20)
(1.13953 0.113215 -8.9531e-21)
(1.13218 0.100915 -1.13588e-20)
(1.12533 0.0895666 3.10179e-21)
(1.11876 0.079451 -1.7293e-21)
(1.11224 0.0706478 -1.45984e-20)
(0.496029 0.149355 -1.47742e-19)
(1.07208 0.374674 2.89014e-20)
(1.27122 0.430406 6.91255e-20)
(1.29711 0.414352 -7.58918e-20)
(1.27687 0.376409 -2.74304e-19)
(1.25148 0.338615 2.31066e-20)
(1.23003 0.304259 9.84085e-20)
(1.21236 0.273722 -3.62977e-20)
(1.19765 0.246369 7.70256e-20)
(1.185 0.221859 -2.01518e-20)
(1.17397 0.19977 4.95387e-20)
(1.16404 0.179772 6.60871e-21)
(1.15501 0.161681 8.74863e-22)
(1.14666 0.145243 -2.67669e-20)