/*--------------------------------*- C++ -*----------------------------------*\
  =========                 |
  \\      /  F ield         | OpenFOAM: The Open Source CFD Toolbox
   \\    /   O peration     | Website:  https://openfoam.org
    \\  /    A nd           | Version:  7
     \\/     M anipulation  |
\*---------------------------------------------------------------------------*/
FoamFile
{
    version     2.0;
    format      ascii;
    class       volVectorField;
    location    "30";
    object      U;
}
// * * * * * * * * * * * * * * * * * * * * * * * * * * * * * * * * * * * * * //

dimensions      [0 1 -1 0 0 0 0];

internalField   nonuniform List<vector> 
2625
(
(0.961038 -0.026137 0)
(0.960459 -0.0255453 0)
(0.959918 -0.0249667 0)
(0.959416 -0.0244009 0)
(0.958951 -0.0238477 0)
(0.958524 -0.0233068 0)
(0.958133 -0.0227779 0)
(0.957778 -0.0222604 0)
(0.957459 -0.0217544 0)
(0.957176 -0.0212582 0)
(0.956924 -0.0207736 0)
(0.956712 -0.020296 0)
(0.956525 -0.0198315 0)
(0.956383 -0.0193678 0)
(0.956256 -0.0189237 0)
(0.956187 -0.0184643 0)
(0.95611 -0.0180465 0)
(0.956122 -0.0175694 0)
(0.956083 -0.0172003 0)
(0.956193 -0.0166503 0)
(0.95617 -0.0164011 0)
(0.956411 -0.0156346 0)
(0.956376 -0.0157093 0)
(0.9568 -0.0144029 0)
(1.00062 -0.046108 0)
(0.998692 -0.0452967 0)
(0.996817 -0.04448 0)
(0.994999 -0.0436599 0)
(0.993236 -0.0428381 0)
(0.991528 -0.0420163 0)
(0.989874 -0.0411962 0)
(0.988272 -0.0403792 0)
(0.986723 -0.0395666 0)
(0.985224 -0.0387596 0)
(0.983775 -0.0379595 0)
(0.982375 -0.0371672 0)
(0.981024 -0.0363836 0)
(0.97972 -0.0356096 0)
(0.978464 -0.0348459 0)
(0.977254 -0.0340932 0)
(0.97609 -0.033352 0)
(0.974971 -0.0326227 0)
(0.973897 -0.0319059 0)
(0.972867 -0.0312017 0)
(0.97188 -0.0305106 0)
(0.970937 -0.0298326 0)
(0.970036 -0.0291679 0)
(0.969177 -0.0285166 0)
(0.96836 -0.0278788 0)
(0.967583 -0.0272543 0)
(0.966848 -0.0266431 0)
(0.966152 -0.0260452 0)
(0.965496 -0.0254603 0)
(0.964879 -0.0248883 0)
(0.964301 -0.0243288 0)
(0.963761 -0.0237818 0)
(0.963259 -0.0232468 0)
(0.962794 -0.0227237 0)
(0.962367 -0.0222116 0)
(0.961974 -0.0217108 0)
(0.961619 -0.0212197 0)
(0.961296 -0.02074 0)
(0.961012 -0.0202671 0)
(0.960756 -0.0198071 0)
(0.960544 -0.0193476 0)
(0.960348 -0.0189078 0)
(0.96021 -0.0184522 0)
(0.960067 -0.0180384 0)
(0.96001 -0.0175647 0)
(0.959908 -0.0171997 0)
(0.959947 -0.0166528 0)
(0.95987 -0.0164077 0)
(0.960031 -0.0156448 0)
(0.959961 -0.0157232 0)
(0.960279 -0.0144245 0)
(1.00806 -0.0456761 0)
(1.00604 -0.0448832 0)
(1.00408 -0.0440843 0)
(1.00218 -0.0432813 0)
(1.00033 -0.042476 0)
(0.998535 -0.0416702 0)
(0.996796 -0.0408654 0)
(0.99511 -0.0400632 0)
(0.993475 -0.0392649 0)
(0.991892 -0.0384717 0)
(0.990359 -0.0376849 0)
(0.988875 -0.0369055 0)
(0.987441 -0.0361344 0)
(0.986054 -0.0353724 0)
(0.984715 -0.0346203 0)
(0.983422 -0.0338788 0)
(0.982176 -0.0331484 0)
(0.980976 -0.0324296 0)
(0.97982 -0.0317229 0)
(0.978709 -0.0310286 0)
(0.977642 -0.0303469 0)
(0.976618 -0.0296781 0)
(0.975637 -0.0290223 0)
(0.974699 -0.0283796 0)
(0.973803 -0.0277501 0)
(0.972948 -0.0271336 0)
(0.972135 -0.0265302 0)
(0.971362 -0.0259398 0)
(0.970629 -0.0253621 0)
(0.969936 -0.0247971 0)
(0.969282 -0.0242444 0)
(0.968667 -0.0237039 0)
(0.96809 -0.0231752 0)
(0.96755 -0.0226581 0)
(0.967049 -0.0221518 0)
(0.966583 -0.0216567 0)
(0.966156 -0.021171 0)
(0.965761 -0.0206965 0)
(0.965406 -0.0202285 0)
(0.965078 -0.0197734 0)
(0.964796 -0.0193183 0)
(0.964531 -0.0188832 0)
(0.964324 -0.0184316 0)
(0.964114 -0.0180222 0)
(0.963988 -0.0175522 0)
(0.963823 -0.0171914 0)
(0.96379 -0.0166482 0)
(0.963658 -0.016407 0)
(0.963738 -0.0156487 0)
(0.963632 -0.01573 0)
(0.963844 -0.0144408 0)
(1.01556 -0.0452153 0)
(1.01346 -0.0444415 0)
(1.01141 -0.0436611 0)
(1.00943 -0.0428759 0)
(1.0075 -0.0420877 0)
(1.00562 -0.0412985 0)
(1.0038 -0.0405097 0)
(1.00203 -0.0397229 0)
(1.00031 -0.0389395 0)
(0.998642 -0.0381608 0)
(0.997026 -0.0373879 0)
(0.99546 -0.0366219 0)
(0.993943 -0.0358637 0)
(0.992474 -0.0351143 0)
(0.991053 -0.0343744 0)
(0.989679 -0.0336446 0)
(0.988351 -0.0329256 0)
(0.987069 -0.0322179 0)
(0.985833 -0.0315218 0)
(0.984641 -0.0308378 0)
(0.983494 -0.0301661 0)
(0.982391 -0.0295069 0)
(0.981331 -0.0288605 0)
(0.980314 -0.0282268 0)
(0.979339 -0.027606 0)
(0.978406 -0.026998 0)
(0.977515 -0.0264027 0)
(0.976665 -0.0258202 0)
(0.975855 -0.0252502 0)
(0.975086 -0.0246926 0)
(0.974356 -0.024147 0)
(0.973665 -0.0236134 0)
(0.973014 -0.0230913 0)
(0.9724 -0.0225806 0)
(0.971825 -0.0220805 0)
(0.971286 -0.0215914 0)
(0.970785 -0.0211114 0)
(0.970318 -0.0206425 0)
(0.969892 -0.0201797 0)
(0.969493 -0.0197298 0)
(0.96914 -0.0192796 0)
(0.968806 -0.0188493 0)
(0.968528 -0.0184022 0)
(0.968252 -0.0179973 0)
(0.968055 -0.0175316 0)
(0.967827 -0.0171749 0)
(0.967721 -0.0166361 0)
(0.967534 -0.0163986 0)
(0.967532 -0.0156459 0)
(0.967389 -0.0157293 0)
(0.967495 -0.0144513 0)
(1.02312 -0.0447249 0)
(1.02094 -0.043971 0)
(1.01881 -0.0432096 0)
(1.01674 -0.0424429 0)
(1.01473 -0.0416726 0)
(1.01277 -0.0409005 0)
(1.01087 -0.0401283 0)
(1.00902 -0.0393576 0)
(1.00722 -0.0385897 0)
(1.00547 -0.037826 0)
(1.00377 -0.0370676 0)
(1.00212 -0.0363156 0)
(1.00053 -0.0355711 0)
(0.998976 -0.0348348 0)
(0.997474 -0.0341075 0)
(0.996019 -0.0333901 0)
(0.994611 -0.032683 0)
(0.993249 -0.0319867 0)
(0.991933 -0.0313018 0)
(0.990662 -0.0306286 0)
(0.989435 -0.0299674 0)
(0.988253 -0.0293183 0)
(0.987114 -0.0286817 0)
(0.986019 -0.0280575 0)
(0.984966 -0.0274458 0)
(0.983955 -0.0268467 0)
(0.982987 -0.0262601 0)
(0.98206 -0.0256859 0)
(0.981174 -0.025124 0)
(0.980328 -0.0245741 0)
(0.979523 -0.0240361 0)
(0.978757 -0.0235098 0)
(0.97803 -0.0229947 0)
(0.977342 -0.0224908 0)
(0.976693 -0.0219973 0)
(0.976081 -0.0215145 0)
(0.975508 -0.0210405 0)
(0.974968 -0.0205775 0)
(0.974469 -0.0201204 0)
(0.974 -0.019676 0)
(0.973576 -0.0192309 0)
(0.973172 -0.0188057 0)
(0.972824 -0.0183634 0)
(0.972479 -0.0179634 0)
(0.972212 -0.0175022 0)
(0.97192 -0.0171499 0)
(0.971741 -0.016616 0)
(0.971498 -0.016382 0)
(0.971413 -0.0156361 0)
(0.971234 -0.0157207 0)
(0.971231 -0.0144558 0)
(1.03074 -0.0442043 0)
(1.02848 -0.0434709 0)
(1.02627 -0.0427294 0)
(1.02412 -0.0419817 0)
(1.02203 -0.0412299 0)
(1.01999 -0.0404757 0)
(1.01801 -0.0397208 0)
(1.01608 -0.0389667 0)
(1.0142 -0.038215 0)
(1.01237 -0.0374668 0)
(1.01059 -0.0367235 0)
(1.00886 -0.0359861 0)
(1.00719 -0.0352557 0)
(1.00556 -0.0345331 0)
(1.00397 -0.0338191 0)
(1.00244 -0.0331145 0)
(1.00095 -0.0324198 0)
(0.999511 -0.0317356 0)
(0.998116 -0.0310624 0)
(0.996766 -0.0304004 0)
(0.995461 -0.0297501 0)
(0.9942 -0.0291117 0)
(0.992984 -0.0284853 0)
(0.991811 -0.0278711 0)
(0.99068 -0.0272691 0)
(0.989593 -0.0266793 0)
(0.988548 -0.0261018 0)
(0.987544 -0.0255363 0)
(0.986582 -0.0249828 0)
(0.98566 -0.0244412 0)
(0.98478 -0.0239111 0)
(0.983939 -0.0233925 0)
(0.983138 -0.0228848 0)
(0.982376 -0.0223881 0)
(0.981653 -0.0219014 0)
(0.980967 -0.0214254 0)
(0.980321 -0.0209578 0)
(0.979709 -0.020501 0)
(0.979138 -0.0200499 0)
(0.978597 -0.0196113 0)
(0.978102 -0.0191718 0)
(0.977628 -0.018752 0)
(0.977209 -0.0183148 0)
(0.976797 -0.0179198 0)
(0.976458 -0.0174637 0)
(0.976102 -0.0171158 0)
(0.975849 -0.0165876 0)
(0.975551 -0.0163568 0)
(0.975382 -0.0156187 0)
(0.975167 -0.0157037 0)
(0.975053 -0.0144538 0)
(1.0384 -0.0436531 0)
(1.03606 -0.0429408 0)
(1.03378 -0.0422197 0)
(1.03155 -0.0414919 0)
(1.02938 -0.0407591 0)
(1.02727 -0.0400234 0)
(1.0252 -0.0392864 0)
(1.0232 -0.0385496 0)
(1.02124 -0.0378146 0)
(1.01933 -0.0370826 0)
(1.01748 -0.036355 0)
(1.01567 -0.0356328 0)
(1.01391 -0.0349171 0)
(1.01221 -0.0342087 0)
(1.01055 -0.0335085 0)
(1.00893 -0.0328172 0)
(1.00737 -0.0321355 0)
(1.00585 -0.0314639 0)
(1.00438 -0.0308028 0)
(1.00295 -0.0301527 0)
(1.00157 -0.0295138 0)
(1.00023 -0.0288865 0)
(0.998936 -0.0282708 0)
(0.997686 -0.027667 0)
(0.99648 -0.0270752 0)
(0.995316 -0.0264952 0)
(0.994194 -0.0259271 0)
(0.993115 -0.0253708 0)
(0.992077 -0.0248262 0)
(0.991081 -0.0242932 0)
(0.990125 -0.0237715 0)
(0.989209 -0.0232609 0)
(0.988334 -0.0227611 0)
(0.987498 -0.0222719 0)
(0.986702 -0.0217925 0)
(0.985943 -0.0213235 0)
(0.985223 -0.0208628 0)
(0.984539 -0.0204126 0)
(0.983896 -0.0199677 0)
(0.983284 -0.0195353 0)
(0.982717 -0.0191017 0)
(0.982173 -0.0186876 0)
(0.981683 -0.018256 0)
(0.981203 -0.0178662 0)
(0.980793 -0.0174156 0)
(0.980373 -0.0170723 0)
(0.980045 -0.0165502 0)
(0.979691 -0.0163226 0)
(0.979437 -0.0155934 0)
(0.979186 -0.015678 0)
(0.97896 -0.0144449 0)
(1.04609 -0.0430708 0)
(1.04368 -0.0423803 0)
(1.04132 -0.0416803 0)
(1.03902 -0.0409728 0)
(1.03678 -0.0402598 0)
(1.03459 -0.0395432 0)
(1.03245 -0.0388246 0)
(1.03037 -0.0381057 0)
(1.02834 -0.037388 0)
(1.02635 -0.0366729 0)
(1.02442 -0.0359615 0)
(1.02254 -0.035255 0)
(1.02071 -0.0345546 0)
(1.01892 -0.033861 0)
(1.01719 -0.0331752 0)
(1.0155 -0.0324978 0)
(1.01386 -0.0318295 0)
(1.01226 -0.031171 0)
(1.01071 -0.0305226 0)
(1.00921 -0.0298848 0)
(1.00775 -0.0292578 0)
(1.00634 -0.0286421 0)
(1.00497 -0.0280377 0)
(1.00364 -0.0274448 0)
(1.00236 -0.0268634 0)
(1.00112 -0.0262937 0)
(0.999924 -0.0257355 0)
(0.99877 -0.0251889 0)
(0.997657 -0.0246537 0)
(0.996586 -0.0241297 0)
(0.995556 -0.0236167 0)
(0.994566 -0.0231146 0)
(0.993617 -0.0226229 0)
(0.992707 -0.0221417 0)
(0.991838 -0.02167 0)
(0.991006 -0.0212084 0)
(0.990214 -0.0207549 0)
(0.989458 -0.0203116 0)
(0.988743 -0.0198734 0)
(0.98806 -0.0194474 0)
(0.987421 -0.0190201 0)
(0.986807 -0.018612 0)
(0.986246 -0.0181864 0)
(0.985698 -0.0178021 0)
(0.985216 -0.0173574 0)
(0.984731 -0.0170188 0)
(0.984328 -0.0165036 0)
(0.983918 -0.016279 0)
(0.983579 -0.0155597 0)
(0.983291 -0.015643 0)
(0.982953 -0.0144287 0)
(1.05381 -0.042457 0)
(1.05133 -0.041789 0)
(1.0489 -0.0411106 0)
(1.04653 -0.0404241 0)
(1.04422 -0.0397315 0)
(1.04195 -0.0390345 0)
(1.03974 -0.038335 0)
(1.03759 -0.0376346 0)
(1.03548 -0.0369348 0)
(1.03343 -0.036237 0)
(1.03142 -0.0355425 0)
(1.02947 -0.0348523 0)
(1.02756 -0.0341677 0)
(1.0257 -0.0334895 0)
(1.02389 -0.0328185 0)
(1.02213 -0.0321556 0)
(1.02041 -0.0315013 0)
(1.01874 -0.0308564 0)
(1.01712 -0.0302212 0)
(1.01554 -0.0295962 0)
(1.01401 -0.0289817 0)
(1.01252 -0.028378 0)
(1.01107 -0.0277853 0)
(1.00967 -0.0272037 0)
(1.00832 -0.0266334 0)
(1.007 -0.0260744 0)
(1.00573 -0.0255266 0)
(1.0045 -0.02499 0)
(1.00332 -0.0244645 0)
(1.00217 -0.02395 0)
(1.00107 -0.0234462 0)
(1.00001 -0.022953 0)
(0.998984 -0.0224699 0)
(0.998001 -0.021997 0)
(0.997059 -0.0215334 0)
(0.996154 -0.0210796 0)
(0.99529 -0.0206336 0)
(0.994462 -0.0201976 0)
(0.993676 -0.0197665 0)
(0.992921 -0.0193473 0)
(0.992212 -0.0189265 0)
(0.991528 -0.0185248 0)
(0.990896 -0.0181055 0)
(0.990279 -0.017727 0)
(0.989725 -0.0172887 0)
(0.989176 -0.0169549 0)
(0.988698 -0.0164472 0)
(0.988231 -0.0162253 0)
(0.987807 -0.0155173 0)
(0.987482 -0.0155983 0)
(0.987031 -0.0144048 0)
(1.06154 -0.0418116 0)
(1.05899 -0.0411665 0)
(1.0565 -0.0405105 0)
(1.05406 -0.0398455 0)
(1.05168 -0.0391738 0)
(1.04935 -0.0384971 0)
(1.04707 -0.0378172 0)
(1.04484 -0.0371359 0)
(1.04267 -0.0364546 0)
(1.04054 -0.0357747 0)
(1.03847 -0.0350975 0)
(1.03644 -0.0344242 0)
(1.03446 -0.0337559 0)
(1.03253 -0.0330936 0)
(1.03065 -0.0324381 0)
(1.02881 -0.0317901 0)
(1.02703 -0.0311504 0)
(1.02528 -0.0305195 0)
(1.02359 -0.029898 0)
(1.02194 -0.0292863 0)
(1.02033 -0.0286847 0)
(1.01877 -0.0280936 0)
(1.01725 -0.0275131 0)
(1.01578 -0.0269433 0)
(1.01435 -0.0263845 0)
(1.01296 -0.0258366 0)
(1.01162 -0.0252997 0)
(1.01032 -0.0247736 0)
(1.00906 -0.0242583 0)
(1.00784 -0.0237536 0)
(1.00666 -0.0232594 0)
(1.00553 -0.0227755 0)
(1.00443 -0.0223014 0)
(1.00338 -0.0218373 0)
(1.00236 -0.0213821 0)
(1.00139 -0.0209365 0)
(1.00045 -0.0204984 0)
(0.999551 -0.02007 0)
(0.998693 -0.0196463 0)
(0.997868 -0.0192343 0)
(0.997087 -0.0188206 0)
(0.996333 -0.0184255 0)
(0.99563 -0.0180128 0)
(0.994946 -0.0176403 0)
(0.99432 -0.0172089 0)
(0.993706 -0.0168801 0)
(0.993153 -0.0163806 0)
(0.99263 -0.0161612 0)
(0.99212 -0.0154655 0)
(0.991758 -0.0155435 0)
(0.991192 -0.0143726 0)
(1.06927 -0.0411344 0)
(1.06666 -0.0405128 0)
(1.06411 -0.0398796 0)
(1.06161 -0.0392368 0)
(1.05916 -0.0385865 0)
(1.05677 -0.0379306 0)
(1.05442 -0.0372709 0)
(1.05213 -0.0366092 0)
(1.04989 -0.0359469 0)
(1.04769 -0.0352855 0)
(1.04555 -0.0346262 0)
(1.04345 -0.0339703 0)
(1.04141 -0.0333189 0)
(1.03941 -0.032673 0)
(1.03746 -0.0320334 0)
(1.03555 -0.0314009 0)
(1.03369 -0.0307762 0)
(1.03188 -0.03016 0)
(1.03011 -0.0295527 0)
(1.02839 -0.0289548 0)
(1.02671 -0.0283666 0)
(1.02508 -0.0277885 0)
(1.02349 -0.0272206 0)
(1.02195 -0.0266632 0)
(1.02044 -0.0261163 0)
(1.01899 -0.02558 0)
(1.01757 -0.0250543 0)
(1.0162 -0.0245392 0)
(1.01487 -0.0240345 0)
(1.01358 -0.0235401 0)
(1.01233 -0.0230559 0)
(1.01112 -0.0225817 0)
(1.00996 -0.022117 0)
(1.00883 -0.021662 0)
(1.00774 -0.0212156 0)
(1.0067 -0.0207786 0)
(1.00569 -0.0203488 0)
(1.00472 -0.0199285 0)
(1.00379 -0.0195125 0)
(1.0029 -0.0191081 0)
(1.00204 -0.0187016 0)
(1.00122 -0.0183135 0)
(1.00045 -0.017908 0)
(0.999695 -0.0175417 0)
(0.998998 -0.0171177 0)
(0.99832 -0.0167939 0)
(0.997692 -0.0163033 0)
(0.997112 -0.0160863 0)
(0.996516 -0.015404 0)
(0.996118 -0.0154781 0)
(0.995437 -0.0143318 0)
(1.077 -0.0404254 0)
(1.07433 -0.0398278 0)
(1.07172 -0.0392179 0)
(1.06916 -0.0385977 0)
(1.06665 -0.0379694 0)
(1.0642 -0.0373348 0)
(1.06179 -0.0366959 0)
(1.05943 -0.0360543 0)
(1.05713 -0.0354115 0)
(1.05487 -0.0347691 0)
(1.05266 -0.0341282 0)
(1.0505 -0.0334903 0)
(1.04839 -0.0328563 0)
(1.04632 -0.0322273 0)
(1.0443 -0.0316041 0)
(1.04233 -0.0309876 0)
(1.0404 -0.0303785 0)
(1.03852 -0.0297774 0)
(1.03669 -0.0291847 0)
(1.0349 -0.0286011 0)
(1.03315 -0.0280268 0)
(1.03145 -0.0274622 0)
(1.02979 -0.0269074 0)
(1.02818 -0.0263627 0)
(1.0266 -0.0258282 0)
(1.02508 -0.025304 0)
(1.02359 -0.02479 0)
(1.02215 -0.0242862 0)
(1.02075 -0.0237926 0)
(1.01939 -0.023309 0)
(1.01807 -0.0228352 0)
(1.01679 -0.022371 0)
(1.01555 -0.0219162 0)
(1.01436 -0.0214707 0)
(1.0132 -0.0210335 0)
(1.01208 -0.0206054 0)
(1.01101 -0.0201843 0)
(1.00997 -0.0197724 0)
(1.00897 -0.0193646 0)
(1.008 -0.018968 0)
(1.00708 -0.0185693 0)
(1.00619 -0.0181884 0)
(1.00535 -0.0177904 0)
(1.00453 -0.0174307 0)
(1.00376 -0.0170145 0)
(1.00302 -0.0166958 0)
(1.00231 -0.0162148 0)
(1.00168 -0.016 0)
(1.00099 -0.0153323 0)
(1.00056 -0.0154017 0)
(0.999763 -0.0142818 0)
(1.0847 -0.0396847 0)
(1.08199 -0.0391116 0)
(1.07932 -0.0385254 0)
(1.0767 -0.0379283 0)
(1.07414 -0.0373224 0)
(1.07163 -0.0367097 0)
(1.06916 -0.036092 0)
(1.06675 -0.035471 0)
(1.06438 -0.0348482 0)
(1.06206 -0.0342253 0)
(1.05979 -0.0336034 0)
(1.05757 -0.0329839 0)
(1.05539 -0.0323678 0)
(1.05326 -0.0317562 0)
(1.05118 -0.0311499 0)
(1.04914 -0.0305499 0)
(1.04715 -0.0299568 0)
(1.04521 -0.0293712 0)
(1.0433 -0.0287938 0)
(1.04145 -0.0282249 0)
(1.03963 -0.0276649 0)
(1.03787 -0.0271142 0)
(1.03614 -0.0265731 0)
(1.03446 -0.0260416 0)
(1.03282 -0.0255199 0)
(1.03122 -0.0250082 0)
(1.02967 -0.0245063 0)
(1.02816 -0.0240143 0)
(1.02669 -0.0235322 0)
(1.02526 -0.0230597 0)
(1.02387 -0.0225967 0)
(1.02253 -0.0221431 0)
(1.02122 -0.0216984 0)
(1.01996 -0.0212628 0)
(1.01873 -0.0208353 0)
(1.01754 -0.0204165 0)
(1.0164 -0.0200044 0)
(1.01529 -0.0196012 0)
(1.01422 -0.019202 0)
(1.01319 -0.0188136 0)
(1.0122 -0.018423 0)
(1.01124 -0.0180497 0)
(1.01032 -0.0176596 0)
(1.00944 -0.0173067 0)
(1.0086 -0.0168988 0)
(1.00779 -0.0165854 0)
(1.00701 -0.0161147 0)
(1.00632 -0.0159019 0)
(1.00555 -0.0152499 0)
(1.00508 -0.0153138 0)
(1.00417 -0.0142222 0)
(1.09238 -0.0389126 0)
(1.08961 -0.0383644 0)
(1.08689 -0.0378023 0)
(1.08423 -0.0372288 0)
(1.08161 -0.0366458 0)
(1.07905 -0.0360553 0)
(1.07653 -0.0354592 0)
(1.07406 -0.0348593 0)
(1.07163 -0.034257 0)
(1.06926 -0.033654 0)
(1.06693 -0.0330515 0)
(1.06465 -0.0324508 0)
(1.06241 -0.0318531 0)
(1.06022 -0.0312594 0)
(1.05808 -0.0306706 0)
(1.05598 -0.0300875 0)
(1.05393 -0.0295109 0)
(1.05192 -0.0289414 0)
(1.04996 -0.0283795 0)
(1.04804 -0.0278258 0)
(1.04616 -0.0272807 0)
(1.04433 -0.0267444 0)
(1.04254 -0.0262172 0)
(1.04079 -0.0256994 0)
(1.03909 -0.025191 0)
(1.03742 -0.0246921 0)
(1.0358 -0.0242029 0)
(1.03423 -0.0237231 0)
(1.03269 -0.0232528 0)
(1.03119 -0.0227919 0)
(1.02974 -0.0223401 0)
(1.02833 -0.0218974 0)
(1.02695 -0.0214634 0)
(1.02562 -0.021038 0)
(1.02433 -0.0206205 0)
(1.02307 -0.0202114 0)
(1.02186 -0.0198087 0)
(1.02068 -0.0194147 0)
(1.01955 -0.0190243 0)
(1.01844 -0.0186444 0)
(1.01738 -0.0182623 0)
(1.01636 -0.017897 0)
(1.01537 -0.0175152 0)
(1.01442 -0.0171693 0)
(1.01351 -0.0167702 0)
(1.01264 -0.0164623 0)
(1.01179 -0.0160024 0)
(1.01104 -0.0157916 0)
(1.01019 -0.0151563 0)
(1.00968 -0.015214 0)
(1.00865 -0.0141525 0)
(1.1 -0.0381096 0)
(1.09719 -0.0375865 0)
(1.09443 -0.037049 0)
(1.09172 -0.0364992 0)
(1.08906 -0.0359395 0)
(1.08644 -0.0353717 0)
(1.08387 -0.0347976 0)
(1.08135 -0.0342192 0)
(1.07888 -0.0336378 0)
(1.07645 -0.0330552 0)
(1.07407 -0.0324725 0)
(1.07173 -0.0318912 0)
(1.06944 -0.0313123 0)
(1.0672 -0.0307369 0)
(1.065 -0.0301659 0)
(1.06284 -0.0296002 0)
(1.06073 -0.0290405 0)
(1.05866 -0.0284875 0)
(1.05663 -0.0279417 0)
(1.05465 -0.0274036 0)
(1.05272 -0.0268737 0)
(1.05082 -0.0263523 0)
(1.04897 -0.0258396 0)
(1.04716 -0.0253358 0)
(1.04539 -0.0248411 0)
(1.04367 -0.0243556 0)
(1.04198 -0.0238792 0)
(1.04034 -0.0234121 0)
(1.03874 -0.0229541 0)
(1.03718 -0.0225051 0)
(1.03566 -0.022065 0)
(1.03418 -0.0216336 0)
(1.03274 -0.0212105 0)
(1.03134 -0.0207958 0)
(1.02999 -0.0203887 0)
(1.02866 -0.0199896 0)
(1.02738 -0.0195967 0)
(1.02614 -0.0192122 0)
(1.02494 -0.0188311 0)
(1.02377 -0.0184601 0)
(1.02264 -0.0180868 0)
(1.02155 -0.0177297 0)
(1.0205 -0.0173566 0)
(1.01948 -0.017018 0)
(1.0185 -0.0166282 0)
(1.01757 -0.0163259 0)
(1.01664 -0.0158775 0)
(1.01584 -0.0156686 0)
(1.0149 -0.015051 0)
(1.01435 -0.0151018 0)
(1.01321 -0.0140723 0)
(1.10756 -0.0372761 0)
(1.10472 -0.0367784 0)
(1.10192 -0.0362657 0)
(1.09917 -0.0357401 0)
(1.09646 -0.035204 0)
(1.09381 -0.0346591 0)
(1.09119 -0.0341075 0)
(1.08863 -0.0335509 0)
(1.0861 -0.0329908 0)
(1.08363 -0.0324289 0)
(1.0812 -0.0318665 0)
(1.07881 -0.0313049 0)
(1.07647 -0.0307452 0)
(1.07417 -0.0301885 0)
(1.07191 -0.0296358 0)
(1.0697 -0.0290879 0)
(1.06754 -0.0285456 0)
(1.06541 -0.0280094 0)
(1.06333 -0.0274801 0)
(1.06129 -0.0269581 0)
(1.0593 -0.0264439 0)
(1.05734 -0.0259377 0)
(1.05543 -0.0254398 0)
(1.05356 -0.0249505 0)
(1.05174 -0.0244699 0)
(1.04995 -0.0239981 0)
(1.0482 -0.0235352 0)
(1.0465 -0.0230811 0)
(1.04484 -0.0226357 0)
(1.04321 -0.0221991 0)
(1.04163 -0.0217709 0)
(1.04009 -0.0213512 0)
(1.03859 -0.0209395 0)
(1.03712 -0.0205359 0)
(1.0357 -0.0201394 0)
(1.03431 -0.0197508 0)
(1.03297 -0.0193681 0)
(1.03166 -0.0189934 0)
(1.03039 -0.0186219 0)
(1.02916 -0.0182601 0)
(1.02796 -0.0178961 0)
(1.0268 -0.0175475 0)
(1.02569 -0.0171835 0)
(1.0246 -0.0168525 0)
(1.02356 -0.0164723 0)
(1.02256 -0.0161759 0)
(1.02156 -0.0157396 0)
(1.0207 -0.0155324 0)
(1.01968 -0.0149337 0)
(1.0191 -0.0149769 0)
(1.01784 -0.0139809 0)
(1.11505 -0.036413 0)
(1.11217 -0.0359409 0)
(1.10934 -0.0354531 0)
(1.10656 -0.034952 0)
(1.10382 -0.0344396 0)
(1.10112 -0.033918 0)
(1.09847 -0.0333891 0)
(1.09586 -0.0328546 0)
(1.0933 -0.0323162 0)
(1.09077 -0.0317754 0)
(1.0883 -0.0312336 0)
(1.08587 -0.0306921 0)
(1.08348 -0.030152 0)
(1.08113 -0.0296144 0)
(1.07882 -0.0290803 0)
(1.07656 -0.0285506 0)
(1.07434 -0.028026 0)
(1.07217 -0.0275072 0)
(1.07003 -0.0269947 0)
(1.06794 -0.0264892 0)
(1.06589 -0.025991 0)
(1.06388 -0.0255004 0)
(1.06192 -0.0250178 0)
(1.05999 -0.0245434 0)
(1.05811 -0.0240773 0)
(1.05626 -0.0236196 0)
(1.05446 -0.0231704 0)
(1.05269 -0.0227297 0)
(1.05097 -0.0222974 0)
(1.04929 -0.0218735 0)
(1.04765 -0.0214577 0)
(1.04604 -0.02105 0)
(1.04448 -0.02065 0)
(1.04295 -0.0202578 0)
(1.04147 -0.0198725 0)
(1.04002 -0.0194946 0)
(1.03861 -0.0191224 0)
(1.03724 -0.0187578 0)
(1.0359 -0.0183964 0)
(1.0346 -0.0180441 0)
(1.03335 -0.0176896 0)
(1.03212 -0.0173499 0)
(1.03094 -0.0169954 0)
(1.02979 -0.0166722 0)
(1.02868 -0.0163022 0)
(1.02762 -0.0160117 0)
(1.02655 -0.0155881 0)
(1.02564 -0.0153826 0)
(1.02453 -0.0148037 0)
(1.02392 -0.0148388 0)
(1.02254 -0.013878 0)
(1.12245 -0.0355211 0)
(1.11955 -0.0350747 0)
(1.11669 -0.034612 0)
(1.11388 -0.0341354 0)
(1.1111 -0.0336471 0)
(1.10837 -0.033149 0)
(1.10569 -0.032643 0)
(1.10304 -0.032131 0)
(1.10044 -0.0316145 0)
(1.09788 -0.031095 0)
(1.09536 -0.0305741 0)
(1.09289 -0.030053 0)
(1.09046 -0.0295328 0)
(1.08807 -0.0290147 0)
(1.08572 -0.0284996 0)
(1.08341 -0.0279884 0)
(1.08114 -0.0274819 0)
(1.07892 -0.0269807 0)
(1.07674 -0.0264855 0)
(1.07459 -0.0259968 0)
(1.07249 -0.025515 0)
(1.07043 -0.0250404 0)
(1.06841 -0.0245734 0)
(1.06643 -0.0241142 0)
(1.06449 -0.023663 0)
(1.06259 -0.0232198 0)
(1.06073 -0.0227847 0)
(1.05891 -0.0223577 0)
(1.05713 -0.0219389 0)
(1.05539 -0.021528 0)
(1.05369 -0.021125 0)
(1.05203 -0.0207297 0)
(1.05041 -0.0203417 0)
(1.04882 -0.0199613 0)
(1.04727 -0.0195874 0)
(1.04577 -0.0192207 0)
(1.04429 -0.0188593 0)
(1.04286 -0.0185052 0)
(1.04147 -0.0181541 0)
(1.0401 -0.0178117 0)
(1.03878 -0.0174671 0)
(1.0375 -0.0171366 0)
(1.03625 -0.0167918 0)
(1.03504 -0.0164769 0)
(1.03386 -0.0161173 0)
(1.03274 -0.0158331 0)
(1.0316 -0.0154227 0)
(1.03063 -0.0152189 0)
(1.02945 -0.0146606 0)
(1.0288 -0.014687 0)
(1.02731 -0.0137629 0)
(1.12974 -0.0346015 0)
(1.12682 -0.0341808 0)
(1.12394 -0.0337433 0)
(1.12111 -0.0332914 0)
(1.11831 -0.0328271 0)
(1.11555 -0.0323527 0)
(1.11284 -0.0318698 0)
(1.11016 -0.0313804 0)
(1.10753 -0.030886 0)
(1.10494 -0.0303882 0)
(1.10238 -0.0298884 0)
(1.09987 -0.0293879 0)
(1.0974 -0.028888 0)
(1.09497 -0.0283896 0)
(1.09258 -0.0278938 0)
(1.09023 -0.0274015 0)
(1.08792 -0.0269133 0)
(1.08565 -0.0264302 0)
(1.08342 -0.0259525 0)
(1.08124 -0.0254809 0)
(1.07909 -0.0250159 0)
(1.07698 -0.0245577 0)
(1.07491 -0.0241066 0)
(1.07288 -0.023663 0)
(1.07089 -0.0232269 0)
(1.06894 -0.0227985 0)
(1.06703 -0.0223779 0)
(1.06515 -0.0219651 0)
(1.06332 -0.02156 0)
(1.06152 -0.0211625 0)
(1.05977 -0.0207725 0)
(1.05805 -0.02039 0)
(1.05637 -0.0200144 0)
(1.05473 -0.019646 0)
(1.05312 -0.0192839 0)
(1.05155 -0.0189286 0)
(1.05002 -0.0185784 0)
(1.04853 -0.0182352 0)
(1.04707 -0.0178947 0)
(1.04565 -0.0175625 0)
(1.04427 -0.0172282 0)
(1.04292 -0.0169071 0)
(1.04161 -0.0165725 0)
(1.04034 -0.016266 0)
(1.0391 -0.0159174 0)
(1.03792 -0.0156395 0)
(1.03671 -0.0152429 0)
(1.03569 -0.0150408 0)
(1.03442 -0.0145041 0)
(1.03374 -0.0145213 0)
(1.03213 -0.0136353 0)
(1.13692 -0.0336555 0)
(1.13399 -0.0332603 0)
(1.13109 -0.032848 0)
(1.12824 -0.0324207 0)
(1.12542 -0.0319807 0)
(1.12264 -0.0315299 0)
(1.1199 -0.0310703 0)
(1.11721 -0.0306036 0)
(1.11454 -0.0301315 0)
(1.11192 -0.0296555 0)
(1.10934 -0.029177 0)
(1.1068 -0.0286975 0)
(1.10429 -0.0282179 0)
(1.10183 -0.0277396 0)
(1.0994 -0.0272633 0)
(1.09702 -0.0267901 0)
(1.09467 -0.0263207 0)
(1.09236 -0.0258557 0)
(1.09009 -0.025396 0)
(1.08786 -0.0249418 0)
(1.08567 -0.0244938 0)
(1.08351 -0.0240522 0)
(1.0814 -0.0236174 0)
(1.07932 -0.0231897 0)
(1.07729 -0.0227691 0)
(1.07529 -0.0223559 0)
(1.07333 -0.0219501 0)
(1.0714 -0.0215516 0)
(1.06952 -0.0211606 0)
(1.06767 -0.0207768 0)
(1.06586 -0.0204002 0)
(1.06409 -0.0200307 0)
(1.06235 -0.0196679 0)
(1.06066 -0.0193119 0)
(1.059 -0.0189618 0)
(1.05737 -0.0186183 0)
(1.05579 -0.0182796 0)
(1.05423 -0.0179475 0)
(1.05272 -0.0176179 0)
(1.05124 -0.0172962 0)
(1.0498 -0.0169725 0)
(1.04839 -0.0166611 0)
(1.04702 -0.0163371 0)
(1.04569 -0.0160392 0)
(1.04438 -0.0157019 0)
(1.04315 -0.0154306 0)
(1.04187 -0.0150483 0)
(1.0408 -0.0148479 0)
(1.03945 -0.0143335 0)
(1.03873 -0.0143412 0)
(1.03702 -0.0134946 0)
(1.14396 -0.0326845 0)
(1.14102 -0.0323147 0)
(1.13812 -0.0319274 0)
(1.13525 -0.0315247 0)
(1.13242 -0.0311088 0)
(1.12963 -0.0306817 0)
(1.12688 -0.0302453 0)
(1.12416 -0.0298014 0)
(1.12148 -0.0293517 0)
(1.11883 -0.0288976 0)
(1.11622 -0.0284407 0)
(1.11365 -0.0279821 0)
(1.11112 -0.0275232 0)
(1.10863 -0.027065 0)
(1.10617 -0.0266086 0)
(1.10375 -0.0261547 0)
(1.10137 -0.0257042 0)
(1.09903 -0.0252578 0)
(1.09672 -0.0248161 0)
(1.09445 -0.0243796 0)
(1.09222 -0.0239489 0)
(1.09003 -0.0235243 0)
(1.08787 -0.023106 0)
(1.08575 -0.0226944 0)
(1.08367 -0.0222897 0)
(1.08163 -0.0218919 0)
(1.07962 -0.0215011 0)
(1.07765 -0.0211173 0)
(1.07572 -0.0207406 0)
(1.07382 -0.0203709 0)
(1.07196 -0.020008 0)
(1.07014 -0.0196518 0)
(1.06836 -0.019302 0)
(1.06661 -0.0189586 0)
(1.06489 -0.018621 0)
(1.06322 -0.0182895 0)
(1.06157 -0.0179625 0)
(1.05997 -0.0176418 0)
(1.0584 -0.0173235 0)
(1.05686 -0.0170126 0)
(1.05536 -0.0166997 0)
(1.0539 -0.0163984 0)
(1.05247 -0.0160852 0)
(1.05108 -0.0157962 0)
(1.04971 -0.0154706 0)
(1.04842 -0.0152061 0)
(1.04708 -0.0148385 0)
(1.04595 -0.0146399 0)
(1.04453 -0.0141486 0)
(1.04378 -0.0141464 0)
(1.04195 -0.0133404 0)
(1.15085 -0.0316901 0)
(1.14791 -0.0313455 0)
(1.14501 -0.0309829 0)
(1.14214 -0.0306045 0)
(1.1393 -0.0302126 0)
(1.1365 -0.0298092 0)
(1.13374 -0.029396 0)
(1.131 -0.0289749 0)
(1.12831 -0.0285476 0)
(1.12564 -0.0281155 0)
(1.12302 -0.0276801 0)
(1.12043 -0.0272427 0)
(1.11787 -0.0268046 0)
(1.11535 -0.0263667 0)
(1.11287 -0.0259301 0)
(1.11042 -0.0254957 0)
(1.10801 -0.0250643 0)
(1.10564 -0.0246367 0)
(1.1033 -0.0242133 0)
(1.101 -0.0237948 0)
(1.09873 -0.0233816 0)
(1.0965 -0.0229741 0)
(1.09431 -0.0225726 0)
(1.09215 -0.0221774 0)
(1.09003 -0.0217887 0)
(1.08795 -0.0214065 0)
(1.0859 -0.0210311 0)
(1.08389 -0.0206623 0)
(1.08191 -0.0203002 0)
(1.07997 -0.0199447 0)
(1.07807 -0.0195957 0)
(1.0762 -0.0192531 0)
(1.07436 -0.0189166 0)
(1.07257 -0.0185862 0)
(1.0708 -0.0182612 0)
(1.06908 -0.017942 0)
(1.06738 -0.0176271 0)
(1.06572 -0.0173181 0)
(1.0641 -0.0170113 0)
(1.06251 -0.0167114 0)
(1.06096 -0.0164097 0)
(1.05944 -0.0161187 0)
(1.05795 -0.0158166 0)
(1.05651 -0.0155368 0)
(1.05508 -0.0152232 0)
(1.05373 -0.0149657 0)
(1.05233 -0.0146132 0)
(1.05115 -0.0144165 0)
(1.04965 -0.0139488 0)
(1.04887 -0.0139365 0)
(1.04693 -0.0131721 0)
(1.15758 -0.0306741 0)
(1.15465 -0.0303542 0)
(1.15175 -0.030016 0)
(1.14888 -0.0296618 0)
(1.14605 -0.0292937 0)
(1.14324 -0.0289137 0)
(1.14047 -0.0285236 0)
(1.13773 -0.0281252 0)
(1.13503 -0.0277202 0)
(1.13235 -0.0273101 0)
(1.12971 -0.0268963 0)
(1.12711 -0.0264801 0)
(1.12453 -0.0260627 0)
(1.122 -0.0256453 0)
(1.11949 -0.0252287 0)
(1.11702 -0.024814 0)
(1.11459 -0.0244018 0)
(1.11219 -0.023993 0)
(1.10982 -0.0235881 0)
(1.10749 -0.0231876 0)
(1.1052 -0.0227922 0)
(1.10294 -0.022402 0)
(1.10071 -0.0220175 0)
(1.09852 -0.0216389 0)
(1.09636 -0.0212664 0)
(1.09424 -0.0209002 0)
(1.09216 -0.0205402 0)
(1.09011 -0.0201867 0)
(1.08809 -0.0198394 0)
(1.08611 -0.0194984 0)
(1.08416 -0.0191636 0)
(1.08225 -0.0188348 0)
(1.08037 -0.0185118 0)
(1.07853 -0.0181946 0)
(1.07672 -0.0178824 0)
(1.07494 -0.0175758 0)
(1.0732 -0.0172732 0)
(1.07149 -0.0169761 0)
(1.06982 -0.0166811 0)
(1.06818 -0.0163925 0)
(1.06657 -0.0161022 0)
(1.065 -0.0158217 0)
(1.06346 -0.015531 0)
(1.06196 -0.0152606 0)
(1.06048 -0.0149593 0)
(1.05908 -0.014709 0)
(1.05761 -0.014372 0)
(1.05638 -0.0141773 0)
(1.05481 -0.0137338 0)
(1.05399 -0.0137113 0)
(1.05195 -0.0129894 0)
(1.16413 -0.0296383 0)
(1.16121 -0.0293427 0)
(1.15833 -0.0290286 0)
(1.15547 -0.0286981 0)
(1.15264 -0.0283535 0)
(1.14984 -0.0279966 0)
(1.14707 -0.0276294 0)
(1.14433 -0.0272536 0)
(1.14162 -0.0268708 0)
(1.13894 -0.0264826 0)
(1.13629 -0.0260903 0)
(1.13367 -0.0256952 0)
(1.13109 -0.0252987 0)
(1.12854 -0.0249016 0)
(1.12602 -0.0245052 0)
(1.12353 -0.0241101 0)
(1.12108 -0.0237173 0)
(1.11866 -0.0233274 0)
(1.11627 -0.0229411 0)
(1.11392 -0.0225588 0)
(1.1116 -0.0221812 0)
(1.10931 -0.0218086 0)
(1.10706 -0.0214412 0)
(1.10484 -0.0210794 0)
(1.10265 -0.0207233 0)
(1.1005 -0.0203731 0)
(1.09838 -0.0200288 0)
(1.09629 -0.0196906 0)
(1.09424 -0.0193584 0)
(1.09222 -0.0190321 0)
(1.09024 -0.0187116 0)
(1.08828 -0.0183969 0)
(1.08636 -0.0180876 0)
(1.08448 -0.0177837 0)
(1.08262 -0.0174847 0)
(1.0808 -0.0171908 0)
(1.07902 -0.0169007 0)
(1.07726 -0.0166157 0)
(1.07554 -0.0163328 0)
(1.07385 -0.0160556 0)
(1.0722 -0.015777 0)
(1.07058 -0.0155072 0)
(1.06898 -0.0152282 0)
(1.06743 -0.0149675 0)
(1.06589 -0.0146787 0)
(1.06444 -0.0144359 0)
(1.06291 -0.0141147 0)
(1.06164 -0.0139222 0)
(1.06 -0.0135033 0)
(1.05915 -0.0134705 0)
(1.05701 -0.0127917 0)
(1.17049 -0.028585 0)
(1.16759 -0.028313 0)
(1.16473 -0.0280224 0)
(1.16188 -0.0277152 0)
(1.15907 -0.0273937 0)
(1.15627 -0.0270597 0)
(1.15351 -0.0267151 0)
(1.15078 -0.0263615 0)
(1.14807 -0.0260008 0)
(1.14539 -0.0256342 0)
(1.14274 -0.0252633 0)
(1.14012 -0.0248893 0)
(1.13753 -0.0245135 0)
(1.13497 -0.0241368 0)
(1.13244 -0.0237604 0)
(1.12994 -0.023385 0)
(1.12748 -0.0230115 0)
(1.12504 -0.0226407 0)
(1.12264 -0.022273 0)
(1.12027 -0.021909 0)
(1.11793 -0.0215493 0)
(1.11562 -0.0211943 0)
(1.11334 -0.0208441 0)
(1.11109 -0.0204992 0)
(1.10888 -0.0201596 0)
(1.1067 -0.0198256 0)
(1.10455 -0.0194972 0)
(1.10244 -0.0191745 0)
(1.10035 -0.0188575 0)
(1.0983 -0.018546 0)
(1.09628 -0.01824 0)
(1.09429 -0.0179395 0)
(1.09233 -0.0176441 0)
(1.09041 -0.0173538 0)
(1.08852 -0.017068 0)
(1.08665 -0.0167871 0)
(1.08483 -0.0165097 0)
(1.08303 -0.0162371 0)
(1.08126 -0.0159663 0)
(1.07953 -0.0157009 0)
(1.07783 -0.015434 0)
(1.07616 -0.0151753 0)
(1.07451 -0.0149081 0)
(1.07292 -0.0146573 0)
(1.07132 -0.0143813 0)
(1.06982 -0.0141461 0)
(1.06824 -0.0138409 0)
(1.06692 -0.0136508 0)
(1.06521 -0.0132568 0)
(1.06433 -0.0132139 0)
(1.06209 -0.0125786 0)
(1.17664 -0.0275162 0)
(1.17378 -0.0272672 0)
(1.17093 -0.0269994 0)
(1.16811 -0.0267151 0)
(1.16531 -0.0264161 0)
(1.16254 -0.0261045 0)
(1.15979 -0.0257821 0)
(1.15706 -0.0254506 0)
(1.15436 -0.0251115 0)
(1.15169 -0.0247664 0)
(1.14905 -0.0244167 0)
(1.14643 -0.0240636 0)
(1.14384 -0.0237084 0)
(1.14128 -0.023352 0)
(1.13874 -0.0229955 0)
(1.13624 -0.0226398 0)
(1.13377 -0.0222856 0)
(1.13132 -0.0219337 0)
(1.12891 -0.0215847 0)
(1.12652 -0.021239 0)
(1.12416 -0.0208973 0)
(1.12184 -0.0205598 0)
(1.11954 -0.020227 0)
(1.11728 -0.019899 0)
(1.11504 -0.019576 0)