0 	0.517293 	0 	-0.62304
0 	0.55252 	0 	-0.570015
0 	0.589056 	0 	-0.548255
0 	0.62695 	0 	-0.518094
0 	0.666252 	-1.73472e-18 	-0.492539
0 	0.707014 	-3.46945e-18 	-0.465959
0 	0.749291 	-2.08167e-18 	-0.439728
0 	0.793139 	-6.93889e-19 	-0.413199
0 	0.838615 	-6.93889e-19 	-0.386586
0 	0.885781 	2.42861e-18 	-0.359974
0 	0.9347 	6.93889e-18 	-0.333566
