/*--------------------------------*- C++ -*----------------------------------*\
  =========                 |
  \\      /  F ield         | OpenFOAM: The Open Source CFD Toolbox
   \\    /   O peration     | Website:  https://openfoam.org
    \\  /    A nd           | Version:  7
     \\/     M anipulation  |
\*---------------------------------------------------------------------------*/
FoamFile
{
    version     2.0;
    format      ascii;
    class       volScalarField;
    location    "15";
    object      p;
}
// * * * * * * * * * * * * * * * * * * * * * * * * * * * * * * * * * * * * * //

dimensions      [0 2 -2 0 0 0 0];

internalField   nonuniform List<scalar> 
2625
(
-0.0345017
-0.033443
-0.03239
-0.0313421
-0.0302985
-0.0292586
-0.0282216
-0.0271869
-0.0261539
-0.0251218
-0.0240905
-0.0230588
-0.0220278
-0.0209951
-0.0199641
-0.0189299
-0.0179011
-0.0168657
-0.0158448
-0.014809
-0.0138077
-0.0127704
-0.0118107
-0.0107638
-0.0098872
-0.00880301
-0.0080889
-0.00689334
-0.00649764
-0.00501328
-0.00524953
-0.00307589
-0.00458628
-0.000847812
-0.00496376
0.00222289
-0.00723656
-0.0502673
-0.0490758
-0.0478953
-0.046726
-0.0455675
-0.0444199
-0.0432827
-0.0421558
-0.0410389
-0.0399315
-0.0388333
-0.0377438
-0.0366624
-0.0355886
-0.0345219
-0.0334616
-0.032407
-0.0313575
-0.0303124
-0.0292709
-0.0282325
-0.0271964
-0.0261621
-0.0251287
-0.0240963
-0.0230635
-0.0220314
-0.0209978
-0.0199661
-0.0189311
-0.0179019
-0.016866
-0.0158451
-0.0148088
-0.0138082
-0.0127702
-0.0118124
-0.0107639
-0.00989129
-0.00880316
-0.00809734
-0.00689247
-0.00651372
-0.00500833
-0.00527933
-0.00305986
-0.00464122
-0.000806251
-0.00506441
0.00231607
-0.0074196
-0.0503049
-0.0491128
-0.0479316
-0.0467613
-0.0456018
-0.044453
-0.0433146
-0.0421864
-0.0410681
-0.0399593
-0.0388595
-0.0377685
-0.0366855
-0.0356102
-0.0345419
-0.0334799
-0.0324238
-0.0313727
-0.0303261
-0.0292831
-0.0282433
-0.0272057
-0.0261701
-0.0251354
-0.0241018
-0.0230679
-0.0220348
-0.0210003
-0.0199679
-0.0189321
-0.0179026
-0.016866
-0.0158452
-0.0148084
-0.0138085
-0.0127698
-0.0118138
-0.0107637
-0.00989508
-0.00880311
-0.00810542
-0.00689147
-0.00652936
-0.00500337
-0.00530851
-0.00304409
-0.00469515
-0.000765516
-0.00516337
0.00240738
-0.00759984
-0.0503422
-0.0491494
-0.0479675
-0.0467963
-0.0456358
-0.0444859
-0.0433463
-0.0422167
-0.041097
-0.0399868
-0.0388855
-0.0377929
-0.0367084
-0.0356315
-0.0345616
-0.0334981
-0.0324403
-0.0313877
-0.0303395
-0.0292951
-0.0282538
-0.0272148
-0.0261779
-0.0251419
-0.0241071
-0.0230721
-0.022038
-0.0210025
-0.0199694
-0.0189329
-0.0179029
-0.0168658
-0.0158451
-0.0148078
-0.0138085
-0.0127691
-0.0118149
-0.0107633
-0.00989858
-0.00880286
-0.00811315
-0.00689033
-0.00654455
-0.00499841
-0.00533704
-0.0030286
-0.00474805
-0.000725638
-0.00526059
0.00249676
-0.0077772
-0.050379
-0.0491857
-0.048003
-0.046831
-0.0456695
-0.0445184
-0.0433776
-0.0422468
-0.0411257
-0.040014
-0.0389113
-0.0378171
-0.0367311
-0.0356526
-0.0345811
-0.033516
-0.0324567
-0.0314025
-0.0303528
-0.0293068
-0.0282641
-0.0272237
-0.0261854
-0.0251482
-0.0241122
-0.0230761
-0.0220411
-0.0210046
-0.0199707
-0.0189335
-0.0179031
-0.0168655
-0.0158447
-0.0148069
-0.0138083
-0.0127682
-0.0118158
-0.0107627
-0.00990178
-0.00880243
-0.00812054
-0.00688906
-0.0065593
-0.00499346
-0.00536492
-0.0030134
-0.00479989
-0.000686643
-0.00535603
0.0025842
-0.00795164
-0.0504154
-0.0492216
-0.0480382
-0.0468653
-0.0457028
-0.0445506
-0.0434086
-0.0422765
-0.041154
-0.0400409
-0.0389367
-0.0378411
-0.0367535
-0.0356734
-0.0346003
-0.0335337
-0.0324728
-0.0314171
-0.0303658
-0.0293184
-0.0282742
-0.0272325
-0.0261928
-0.0251543
-0.0241171
-0.0230799
-0.0220439
-0.0210065
-0.0199719
-0.0189339
-0.0179031
-0.0168649
-0.0158441
-0.0148058
-0.0138079
-0.0127672
-0.0118165
-0.0107619
-0.0099047
-0.00880183
-0.00812759
-0.00688769
-0.00657359
-0.00498854
-0.00539214
-0.00299852
-0.00485065
-0.000648558
-0.00544964
0.00266966
-0.00812308
-0.0504514
-0.049257
-0.048073
-0.0468992
-0.0457358
-0.0445825
-0.0434393
-0.0423059
-0.0411821
-0.0400676
-0.0389619
-0.0378648
-0.0367756
-0.035694
-0.0346194
-0.0335511
-0.0324887
-0.0314314
-0.0303787
-0.0293298
-0.0282841
-0.027241
-0.0262
-0.0251602
-0.0241219
-0.0230835
-0.0220465
-0.0210082
-0.0199728
-0.0189342
-0.0179029
-0.0168641
-0.0158433
-0.0148046
-0.0138073
-0.0127659
-0.0118169
-0.0107609
-0.00990734
-0.00880107
-0.0081343
-0.00688622
-0.00658744
-0.00498366
-0.00541869
-0.00298398
-0.0049003
-0.000611408
-0.00554139
0.00275312
-0.00829146
-0.050487
-0.0492921
-0.0481074
-0.0469328
-0.0457684
-0.0446141
-0.0434697
-0.042335
-0.0412099
-0.0400939
-0.0389868
-0.0378882
-0.0367975
-0.0357144
-0.0346382
-0.0335684
-0.0325044
-0.0314456
-0.0303913
-0.0293409
-0.0282939
-0.0272493
-0.026207
-0.025166
-0.0241264
-0.0230869
-0.022049
-0.0210097
-0.0199736
-0.0189342
-0.0179025
-0.0168631
-0.0158423
-0.0148031
-0.0138064
-0.0127644
-0.011817
-0.0107598
-0.00990971
-0.00880015
-0.00814068
-0.00688466
-0.00660082
-0.00497883
-0.00544455
-0.00296978
-0.00494883
-0.000575218
-0.00563124
0.00283454
-0.00845672
-0.0505221
-0.0493267
-0.0481413
-0.046966
-0.0458006
-0.0446452
-0.0434997
-0.0423638
-0.0412373
-0.04012
-0.0390114
-0.0379113
-0.0368191
-0.0357345
-0.0346567
-0.0335854
-0.0325199
-0.0314595
-0.0304038
-0.0293519
-0.0283034
-0.0272575
-0.0262138
-0.0251715
-0.0241308
-0.0230902
-0.0220512
-0.0210111
-0.0199742
-0.018934
-0.0179019
-0.016862
-0.0158412
-0.0148015
-0.0138054
-0.0127627
-0.0118169
-0.0107584
-0.00991182
-0.00879907
-0.00814672
-0.006883
-0.00661375
-0.00497406
-0.00546972
-0.00295595
-0.00499621
-0.000540009
-0.00571914
0.00291389
-0.0086188
-0.0505568
-0.0493609
-0.0481749
-0.0469987
-0.0458324
-0.044676
-0.0435293
-0.0423922
-0.0412644
-0.0401457
-0.0390358
-0.0379342
-0.0368405
-0.0357543
-0.034675
-0.0336021
-0.0325351
-0.0314732
-0.030416
-0.0293626
-0.0283127
-0.0272654
-0.0262205
-0.0251769
-0.024135
-0.0230933
-0.0220533
-0.0210123
-0.0199746
-0.0189337
-0.0179011
-0.0168607
-0.0158398
-0.0147997
-0.0138041
-0.0127609
-0.0118167
-0.0107569
-0.00991366
-0.00879785
-0.00815242
-0.00688127
-0.00662622
-0.00496935
-0.00549418
-0.00294249
-0.00504243
-0.000505806
-0.00580507
0.00299115
-0.00877763
-0.050591
-0.0493947
-0.048208
-0.047031
-0.0458639
-0.0447064
-0.0435586
-0.0424203
-0.0412912
-0.0401711
-0.0390598
-0.0379567
-0.0368616
-0.0357738
-0.0346931
-0.0336187
-0.0325501
-0.0314867
-0.030428
-0.0293732
-0.0283218
-0.0272732
-0.0262269
-0.0251821
-0.024139
-0.0230962
-0.0220553
-0.0210133
-0.0199749
-0.0189333
-0.0179002
-0.0168592
-0.0158383
-0.0147977
-0.0138026
-0.0127589
-0.0118161
-0.0107552
-0.00991524
-0.0087965
-0.0081578
-0.00687948
-0.00663823
-0.00496472
-0.00551794
-0.00292943
-0.00508746
-0.000472627
-0.00588899
0.00306629
-0.00893317
-0.0506247
-0.0494279
-0.0482406
-0.0470629
-0.0458949
-0.0447364
-0.0435875
-0.042448
-0.0413176
-0.0401962
-0.0390834
-0.037979
-0.0368823
-0.0357931
-0.0347108
-0.0336349
-0.0325648
-0.0315
-0.0304398
-0.0293835
-0.0283308
-0.0272807
-0.0262332
-0.0251871
-0.0241429
-0.023099
-0.022057
-0.0210141
-0.019975
-0.0189326
-0.0178991
-0.0168575
-0.0158365
-0.0147955
-0.013801
-0.0127567
-0.0118154
-0.0107534
-0.00991657
-0.00879502
-0.00816286
-0.00687762
-0.00664978
-0.00496019
-0.00554097
-0.00291677
-0.00513129
-0.000440493
-0.00597086
0.00313928
-0.00908535
-0.0506579
-0.0494607
-0.0482728
-0.0470944
-0.0459255
-0.044766
-0.043616
-0.0424753
-0.0413437
-0.0402209
-0.0391068
-0.0380009
-0.0369028
-0.0358121
-0.0347283
-0.0336509
-0.0325794
-0.031513
-0.0304513
-0.0293936
-0.0283395
-0.0272881
-0.0262392
-0.0251919
-0.0241465
-0.0231015
-0.0220586
-0.0210148
-0.0199749
-0.0189318
-0.0178978
-0.0168558
-0.0158347
-0.0147932
-0.0137992
-0.0127544
-0.0118145
-0.0107514
-0.00991767
-0.00879342
-0.0081676
-0.0068757
-0.00666087
-0.00495575
-0.00556328
-0.00290453
-0.00517389
-0.000409421
-0.00605065
0.0032101
-0.00923411
-0.0506905
-0.049493
-0.0483045
-0.0471254
-0.0459556
-0.0447952
-0.0436441
-0.0425022
-0.0413693
-0.0402453
-0.0391298
-0.0380225
-0.036923
-0.0358308
-0.0347456
-0.0336667
-0.0325936
-0.0315258
-0.0304627
-0.0294036
-0.028348
-0.0272953
-0.0262451
-0.0251966
-0.0241501
-0.023104
-0.0220601
-0.0210154
-0.0199747
-0.0189309
-0.0178964
-0.0168538
-0.0158327
-0.0147908
-0.0137972
-0.012752
-0.0118134
-0.0107493
-0.00991852
-0.00879172
-0.00817202
-0.00687375
-0.0066715
-0.00495142
-0.00558486
-0.00289273
-0.00521527
-0.000379428
-0.00612834
0.00327873
-0.00937939
-0.0507227
-0.0495247
-0.0483357
-0.0471559
-0.0459852
-0.0448239
-0.0436717
-0.0425287
-0.0413946
-0.0402693
-0.0391525
-0.0380438
-0.0369428
-0.0358492
-0.0347625
-0.0336822
-0.0326076
-0.0315384
-0.0304738
-0.0294133
-0.0283564
-0.0273023
-0.0262509
-0.0252011
-0.0241534
-0.0231063
-0.0220614
-0.0210158
-0.0199743
-0.0189299
-0.0178949
-0.0168518
-0.0158305
-0.0147883
-0.0137951
-0.0127494
-0.0118121
-0.0107471
-0.00991915
-0.00878991
-0.00817613
-0.00687176
-0.00668167
-0.0049472
-0.00560571
-0.00288137
-0.0052554
-0.000350529
-0.00620389
0.00334515
-0.00952115
-0.0507543
-0.049556
-0.0483664
-0.0471859
-0.0460144
-0.0448521
-0.0436989
-0.0425548
-0.0414195
-0.0402929
-0.0391748
-0.0380647
-0.0369624
-0.0358673
-0.0347792
-0.0336974
-0.0326214
-0.0315507
-0.0304847
-0.0294228
-0.0283645
-0.0273091
-0.0262564
-0.0252055
-0.0241566
-0.0231084
-0.0220626
-0.021016
-0.0199739
-0.0189287
-0.0178933
-0.0168496
-0.0158282
-0.0147856
-0.0137928
-0.0127467
-0.0118107
-0.0107447
-0.00991956
-0.00878802
-0.00817994
-0.00686975
-0.00669139
-0.00494311
-0.00562581
-0.00287046
-0.00529426
-0.000322738
-0.00627727
0.00340933
-0.00965934
-0.0507853
-0.0495866
-0.0483966
-0.0472154
-0.0460431
-0.0448799
-0.0437257
-0.0425805
-0.041444
-0.0403162
-0.0391967
-0.0380853
-0.0369816
-0.0358851
-0.0347955
-0.0337123
-0.0326349
-0.0315628
-0.0304954
-0.0294321
-0.0283725
-0.0273158
-0.0262618
-0.0252097
-0.0241597
-0.0231104
-0.0220636
-0.0210162
-0.0199733
-0.0189274
-0.0178915
-0.0168473
-0.0158258
-0.0147828
-0.0137904
-0.0127439
-0.0118091
-0.0107423
-0.00991976
-0.00878604
-0.00818345
-0.00686771
-0.00670065
-0.00493916
-0.00564518
-0.00286002
-0.00533186
-0.000296067
-0.00634847
0.00347126
-0.00979388
-0.0508158
-0.0496168
-0.0484262
-0.0472444
-0.0460713
-0.0449072
-0.043752
-0.0426057
-0.0414681
-0.040339
-0.0392183
-0.0381055
-0.0370004
-0.0359026
-0.0348116
-0.033727
-0.0326481
-0.0315746
-0.0305058
-0.0294412
-0.0283802
-0.0273222
-0.026267
-0.0252137
-0.0241626
-0.0231123
-0.0220646
-0.0210162
-0.0199726
-0.018926
-0.0178896
-0.0168449
-0.0158233
-0.0147799
-0.0137879
-0.012741
-0.0118073
-0.0107398
-0.00991976
-0.00878399
-0.00818667
-0.00686567
-0.00670946
-0.00493535
-0.0056638
-0.00285004
-0.00536817
-0.000270528
-0.00641745
0.00353093
-0.00992475
-0.0508457
-0.0496463
-0.0484553
-0.0472728
-0.046099
-0.044934
-0.0437779
-0.0426304
-0.0414917
-0.0403614
-0.0392394
-0.0381254
-0.0370189
-0.0359197
-0.0348274
-0.0337413
-0.0326611
-0.0315862
-0.030516
-0.02945
-0.0283877
-0.0273285
-0.0262721
-0.0252176
-0.0241654
-0.023114
-0.0220654
-0.0210162
-0.0199718
-0.0189245
-0.0178876
-0.0168424
-0.0158206
-0.0147769
-0.0137852
-0.012738
-0.0118054
-0.0107371
-0.00991956
-0.00878188
-0.00818961
-0.00686363
-0.00671783
-0.00493169
-0.00568167
-0.00284055
-0.00540319
-0.000246128
-0.00648419
0.00358831
-0.0100519
-0.050875
-0.0496753
-0.0484838
-0.0473007
-0.0461262
-0.0449603
-0.0438032
-0.0426547
-0.0415149
-0.0403834
-0.0392602
-0.0381448
-0.0370371
-0.0359366
-0.0348428
-0.0337554
-0.0326738
-0.0315975
-0.030526
-0.0294587
-0.0283951
-0.0273346
-0.026277
-0.0252213
-0.024168
-0.0231156
-0.022066
-0.021016
-0.0199708
-0.0189229
-0.0178855
-0.0168399
-0.0158179
-0.0147739
-0.0137825
-0.0127349
-0.0118033
-0.0107344
-0.00991918
-0.00877971
-0.00819227
-0.00686159
-0.00672576
-0.00492818
-0.0056988
-0.00283154
-0.00543691
-0.000222875
-0.00654868
0.0036434
-0.0101753
-0.0509036
-0.0497037
-0.0485117
-0.047328
-0.0461528
-0.0449861
-0.043828
-0.0426786
-0.0415376
-0.040405
-0.0392805
-0.0381639
-0.0370549
-0.035953
-0.0348579
-0.0337692
-0.0326862
-0.0316086
-0.0305357
-0.0294671
-0.0284023
-0.0273405
-0.0262817
-0.0252249
-0.0241705
-0.0231171
-0.0220666
-0.0210157
-0.0199698
-0.0189212
-0.0178834
-0.0168372
-0.0158151
-0.0147707
-0.0137796
-0.0127318
-0.0118011
-0.0107317
-0.00991862
-0.0087775
-0.00819466
-0.00685957
-0.00673324
-0.00492484
-0.00571519
-0.00282303
-0.00546932
-0.000200775
-0.0066109
0.00369618
-0.0102948
-0.0509316
-0.0497314
-0.048539
-0.0473547
-0.0461788
-0.0450113
-0.0438523
-0.0427019
-0.0415598
-0.0404261
-0.0393004
-0.0381826
-0.0370723
-0.0359691
-0.0348727
-0.0337826
-0.0326983
-0.0316194
-0.0305452
-0.0294753
-0.0284092
-0.0273462
-0.0262863
-0.0252283
-0.0241729
-0.0231185
-0.0220671
-0.0210153
-0.0199688
-0.0189195
-0.0178812
-0.0168345
-0.0158122
-0.0147675
-0.0137767
-0.0127286
-0.0117989
-0.0107288
-0.0099179
-0.00877525
-0.0081968
-0.00685757
-0.0067403
-0.00492166
-0.00573083
-0.00281501
-0.00550043
-0.000179833
-0.00667082
0.00374665
-0.0104105
-0.050959
-0.0497585
-0.0485657
-0.0473809
-0.0462043
-0.045036
-0.0438761
-0.0427247
-0.0415816
-0.0404467
-0.0393199
-0.0382008
-0.0370893
-0.0359849
-0.0348872
-0.0337958
-0.0327102
-0.0316299
-0.0305545
-0.0294833
-0.028416
-0.0273518
-0.0262907
-0.0252316
-0.0241752
-0.0231198
-0.0220675
-0.0210149
-0.0199676
-0.0189177
-0.0178789
-0.0168318
-0.0158093
-0.0147643
-0.0137737
-0.0127253
-0.0117965
-0.010726
-0.00991703
-0.00877298
-0.00819868
-0.0068556
-0.00674693
-0.00491867
-0.00574573
-0.0028075
-0.00553022
-0.000160049
-0.00672844
0.0037948
-0.0105223
-0.0509857
-0.049785
-0.0485918
-0.0474064
-0.0462291
-0.0450601
-0.0438994
-0.042747
-0.0416028
-0.0404669
-0.0393389
-0.0382187
-0.0371059
-0.0360002
-0.0349013
-0.0338086
-0.0327217
-0.0316402
-0.0305635
-0.0294911
-0.0284225
-0.0273572
-0.0262949
-0.0252348
-0.0241773
-0.023121
-0.0220677
-0.0210144
-0.0199664
-0.0189158
-0.0178765
-0.016829
-0.0158063
-0.014761
-0.0137706
-0.012722
-0.011794
-0.0107231
-0.00991601
-0.00877068
-0.00820032
-0.00685367
-0.00675314
-0.00491585
-0.00575989
-0.00280048
-0.00555869
-0.000141424
-0.00678373
0.00384063
-0.0106301
-0.0510118
-0.0498108
-0.0486172
-0.0474313
-0.0462534
-0.0450836
-0.043922
-0.0427687
-0.0416236
-0.0404866
-0.0393575
-0.0382361
-0.0371221
-0.0360152
-0.034915
-0.0338211
-0.032733
-0.0316502
-0.0305723
-0.0294987
-0.0284289
-0.0273624
-0.026299
-0.0252378
-0.0241793
-0.023122
-0.022068
-0.0210138
-0.0199651
-0.0189139
-0.0178741
-0.0168262
-0.0158033
-0.0147577
-0.0137675
-0.0127187
-0.0117915
-0.0107202
-0.00991486
-0.00876838
-0.00820172
-0.00685178
-0.00675894
-0.00491321
-0.00577332
-0.00279397
-0.00558586
-0.000123957
-0.00683671
0.00388414
-0.010734
-0.0510371
-0.0498359
-0.048642
-0.0474556
-0.046277
-0.0451065
-0.0439441
-0.0427899
-0.0416438
-0.0405057
-0.0393756
-0.0382531
-0.0371379
-0.0360298
-0.0349284
-0.0338333
-0.032744
-0.03166
-0.0305808
-0.029506
-0.0284351
-0.0273674
-0.0263029
-0.0252407
-0.0241812
-0.023123
-0.0220681
-0.0210131
-0.0199637
-0.0189119
-0.0178717
-0.0168233
-0.0158002
-0.0147544
-0.0137643
-0.0127154
-0.0117888
-0.0107172
-0.00991358
-0.00876608
-0.00820291
-0.00684994
-0.00676434
-0.00491077
-0.00578602
-0.00278797
-0.0056117
-0.000107643
-0.00688734
0.00392532
-0.0108339
-0.0510617
-0.0498603
-0.048666
-0.0474792
-0.0463
-0.0451288
-0.0439656
-0.0428105
-0.0416635
-0.0405244
-0.0393932
-0.0382696
-0.0371533
-0.036044
-0.0349415
-0.0338451
-0.0327546
-0.0316694
-0.0305891
-0.0295131
-0.028441
-0.0273723
-0.0263067
-0.0252435
-0.024183
-0.0231239
-0.0220681
-0.0210124
-0.0199623
-0.0189099
-0.0178693
-0.0168204
-0.0157972
-0.0147511
-0.0137612
-0.0127121
-0.0117862
-0.0107143
-0.00991219
-0.00876379
-0.00820388
-0.00684816
-0.00676935
-0.00490851
-0.00579799
-0.00278247
-0.00563624
-9.24769e-05
-0.00693564
0.00396419
-0.0109297
-0.0510857
-0.0498841
-0.0486894
-0.0475021
-0.0463224
-0.0451505
-0.0439865
-0.0428306
-0.0416826
-0.0405426
-0.0394103
-0.0382856
-0.0371682
-0.0360578
-0.0349541
-0.0338566
-0.0327649
-0.0316786
-0.0305971
-0.02952
-0.0284468
-0.027377
-0.0263104
-0.0252461
-0.0241847
-0.0231247
-0.0220681
-0.0210116
-0.0199609
-0.0189079
-0.0178668
-0.0168176
-0.0157941
-0.0147478
-0.013758
-0.0127087
-0.0117835
-0.0107114
-0.00991071
-0.00876152
-0.00820464
-0.00684645
-0.00677396
-0.00490645
-0.00580926
-0.00277746
-0.00565947
-7.84502e-05
-0.00698159
0.00400074
-0.0110215
-0.0511088
-0.049907
-0.0487121
-0.0475243
-0.046344
-0.0451715
-0.0440068
-0.04285
-0.0417012
-0.0405602
-0.0394269
-0.0383012
-0.0371827
-0.0360712
-0.0349664
-0.0338678
-0.0327749
-0.0316874
-0.0306049
-0.0295266
-0.0284524
-0.0273815
-0.0263139
-0.0252486
-0.0241863
-0.0231254
-0.0220681
-0.0210108
-0.0199595
-0.0189059
-0.0178643
-0.0168147
-0.015791
-0.0147445
-0.0137548
-0.0127054
-0.0117807
-0.0107085
-0.00990913
-0.00875927
-0.00820522
-0.0068448
-0.00677821
-0.00490459
-0.00581982
-0.00277296
-0.0056814
-6.55524e-05
-0.00702519
0.004035
-0.0111093
-0.0511312
-0.0499293
-0.048734
-0.0475458
-0.046365
-0.0451918
-0.0440264
-0.0428688
-0.0417191
-0.0405772
-0.039443
-0.0383162
-0.0371967
-0.0360842
-0.0349783
-0.0338785
-0.0327846
-0.031696
-0.0306123
-0.029533
-0.0284577
-0.0273858
-0.0263172
-0.025251
-0.0241878
-0.0231261
-0.0220679
-0.02101
-0.019958
-0.0189039
-0.0178619
-0.0168119
-0.0157879
-0.0147412
-0.0137516
-0.0127021
-0.0117779
-0.0107056
-0.00990748
-0.00875706
-0.00820561
-0.00684323
-0.00678208
-0.00490292
-0.00582968
-0.00276894
-0.00570203
-5.37711e-05
-0.00706645
0.00406696
-0.0111929
-0.0511529
-0.0499508
-0.0487552
-0.0475666
-0.0463853
-0.0452115
-0.0440454
-0.042887
-0.0417365
-0.0405937
-0.0394585
-0.0383308
-0.0372103
-0.0360967
-0.0349897
-0.0338889
-0.032794
-0.0317043
-0.0306196
-0.0295392
-0.0284629
-0.02739
-0.0263204
-0.0252533
-0.0241892
-0.0231267
-0.0220678
-0.0210091
-0.0199565
-0.0189019
-0.0178594
-0.016809
-0.0157849
-0.014738
-0.0137484
-0.0126989
-0.0117752
-0.0107027
-0.00990576
-0.0087549
-0.00820583
-0.00684174
-0.0067856
-0.00490145
-0.00583885
-0.00276541
-0.00572139
-4.3091e-05
-0.00710538
0.00409666
-0.0112724
-0.0511737
-0.0499715
-0.0487756
-0.0475867
-0.0464048
-0.0452305
-0.0440637
-0.0429046
-0.0417533
-0.0406096
-0.0394735
-0.0383449
-0.0372234
-0.0361088
-0.0350008
-0.033899
-0.032803
-0.0317123
-0.0306265
-0.0295452
-0.0284679
-0.027394
-0.0263235
-0.0252555
-0.0241906
-0.0231272
-0.0220676
-0.0210083
-0.0199551
-0.0188999
-0.017857
-0.0168063
-0.0157819
-0.0147348
-0.0137452
-0.0126957
-0.0117724
-0.0106999
-0.00990398
-0.00875278
-0.0082059
-0.00684034
-0.00678878
-0.00490017
-0.00584735
-0.00276235
-0.00573947
-3.34945e-05
-0.00714197
0.00412411
-0.0113478
-0.0511938
-0.0499914
-0.0487953
-0.0476059
-0.0464237
-0.0452487
-0.0440813
-0.0429215
-0.0417694
-0.0406249
-0.039488
-0.0383584
-0.037236
-0.0361204
-0.0350114
-0.0339086
-0.0328116
-0.0317199
-0.0306332
-0.0295509
-0.0284726
-0.0273978
-0.0263264
-0.0252575
-0.0241918
-0.0231277
-0.0220673
-0.0210074
-0.0199536
-0.0188979
-0.0178546
-0.0168035
-0.0157789
-0.0147317
-0.0137421
-0.0126926
-0.0117696
-0.0106972
-0.00990217
-0.00875073
-0.00820582
-0.00683902
-0.00679162
-0.00489909
-0.00585518
-0.00275976
-0.00575629
-2.49614e-05
-0.00717624
0.00414933
-0.011419
-0.051213
-0.0500105
-0.0488142
-0.0476244
-0.0464417
-0.0452662
-0.0440982
-0.0429377
-0.0417849
-0.0406396
-0.0395018
-0.0383714
-0.0372481
-0.0361316
-0.0350217
-0.0339179
-0.0328199
-0.0317273
-0.0306396
-0.0295563
-0.0284771
-0.0274015
-0.0263292
-0.0252595
-0.024193
-0.0231281
-0.022067
-0.0210065
-0.0199521
-0.018896
-0.0178522
-0.0168008
-0.015776
-0.0147286
-0.0137391
-0.0126896
-0.0117669
-0.0106945
-0.00990032
-0.00874874
-0.0082056
-0.0068378
-0.00679415
-0.0048982
-0.00586237
-0.00275763
-0.00577187
-1.74687e-05
-0.00720821
0.00417235
-0.0114862
-0.0512314
-0.0500288
-0.0488322
-0.0476422
-0.046459
-0.045283
-0.0441144
-0.0429533
-0.0417997
-0.0406537
-0.0395151
-0.0383838
-0.0372596
-0.0361423
-0.0350314
-0.0339268
-0.0328279
-0.0317343
-0.0306457
-0.0295615
-0.0284815
-0.0274049
-0.0263318
-0.0252613
-0.024194
-0.0231285
-0.0220667
-0.0210056
-0.0199507
-0.0188941
-0.0178499
-0.0167982
-0.0157732
-0.0147256
-0.0137361
-0.0126866
-0.0117642
-0.0106919
-0.00989846
-0.00874683
-0.00820526
-0.00683668
-0.00679636
-0.0048975
-0.00586892
-0.00275593
-0.00578622
-1.09905e-05
-0.00723788
0.0041932
-0.0115491
-0.0512489
-0.0500462
-0.0488494
-0.0476591
-0.0464755
-0.045299
-0.0441298
-0.0429681
-0.0418138
-0.0406671
-0.0395277
-0.0383957
-0.0372707
-0.0361525
-0.0350408
-0.0339352
-0.0328354
-0.031741
-0.0306515
-0.0295665
-0.0284856
-0.0274082
-0.0263343
-0.0252631
-0.024195
-0.0231288
-0.0220664
-0.0210047
-0.0199493
-0.0188922
-0.0178477
-0.0167957
-0.0157704
-0.0147227
-0.0137332
-0.0126837
-0.0117616
-0.0106894
-0.00989659
-0.008745
-0.00820481
-0.00683565
-0.00679829
-0.00489699
-0.00587485
-0.00275467
-0.00579936
-5.49811e-06
-0.00726528
0.00421193
-0.011608
-0.0512656
-0.0500628
-0.0488658
-0.0476751
-0.0464912
-0.0453142
-0.0441445
-0.0429822
-0.0418273
-0.0406799
-0.0395398
-0.038407
-0.0372812
-0.0361622
-0.0350496
-0.0339432
-0.0328426
-0.0317474
-0.0306571
-0.0295712
-0.0284895
-0.0274113
-0.0263367
-0.0252647
-0.024196
-0.0231291
-0.0220661
-0.0210038
-0.0199479
-0.0188904
-0.0178455
-0.0167932
-0.0157678
-0.01472
-0.0137304
-0.0126809
-0.011759
-0.010687
-0.00989473
-0.00874326
-0.00820427
-0.00683473
-0.00679993
-0.00489665
-0.00588018
-0.00275381
-0.00581131
-9.59802e-07
-0.00729043
0.00422856
-0.0116627
-0.0512813
-0.0500784
-0.0488813
-0.0476903
-0.046506
-0.0453286
-0.0441584
-0.0429956
-0.0418401
-0.040692
-0.0395512
-0.0384176
-0.0372911
-0.0361713
-0.035058
-0.0339509
-0.0328495
-0.0317534
-0.0306623
-0.0295756
-0.0284932
-0.0274143
-0.0263389
-0.0252662
-0.0241968
-0.0231293
-0.0220658
-0.0210029
-0.0199466
-0.0188887
-0.0178434
-0.0167909
-0.0157652
-0.0147173
-0.0137276
-0.0126783
-0.0117565
-0.0106847
-0.00989289
-0.00874161
-0.00820364
-0.00683391
-0.00680131
-0.00489649
-0.00588492
-0.00275334
-0.0058221
2.65946e-06
-0.00731335
0.00424314
-0.0117133
-0.0512962
-0.0500932
-0.0488959
-0.0477047
-0.04652
-0.0453422
-0.0441716
-0.0430082
-0.0418521
-0.0407034
-0.039562
-0.0384277
-0.0373005
-0.03618
-0.035066
-0.033958
-0.0328559
-0.0317591
-0.0306672
-0.0295798
-0.0284966
-0.027417
-0.0263409
-0.0252676
-0.0241976
-0.0231295
-0.0220654
-0.0210021
-0.0199453
-0.018887
-0.0178414
-0.0167886
-0.0157627
-0.0147147
-0.013725
-0.0126757
-0.0117541
-0.0106825
-0.00989108
-0.00874007
-0.00820294
-0.0068332
-0.00680244
-0.00489649
-0.00588909
-0.00275324
-0.00583175
5.39801e-06
-0.00733409
0.00425574
-0.0117598
-0.0501071
-0.0489096
-0.0477181
-0.0465332
-0.045355
-0.0441839
-0.04302
-0.0418634
-0.0407141
-0.0395721
-0.0384372
-0.0373093
-0.0361881
-0.0350734
-0.0339648
-0.0328619
-0.0317644
-0.0306718
-0.0295838
-0.0284999
-0.0274196
-0.0263429
-0.0252689
-0.0241983
-0.0231297
-0.0220651
-0.0210013
-0.019944
-0.0188854
-0.0178395
-0.0167865
-0.0157604
-0.0147123
-0.0137225
-0.0126733
-0.0117518
-0.0106805
-0.00988932
-0.00873863
-0.00820218
-0.00683259
-0.00680333
-0.00489665
-0.00589272
-0.00275349
-0.00584028
7.29766e-06
-0.00735266
0.00426639
-0.0118022
-0.05012
-0.0489223
-0.0477307
-0.0465454
-0.0453669
-0.0441954
-0.043031
-0.0418739
-0.0407241
-0.0395815
-0.038446
-0.0373175
-0.0361957
-0.0350803
-0.033971
-0.0328675
-0.0317693
-0.0306761
-0.0295874
-0.0285029
-0.027422
-0.0263447
-0.0252701
-0.024199
-0.0231298
-0.0220647
-0.0210005
-0.0199429
-0.0188839
-0.0178377
-0.0167845
-0.0157582
-0.01471
-0.0137202
-0.0126711
-0.0117496
-0.0106785
-0.00988761
-0.0087373
-0.00820138
-0.00683208
-0.00680401
-0.00489696
-0.00589582
-0.00275406
-0.00584773
8.4038e-06
-0.00736911
0.00427516
-0.0118406
-0.0501319
-0.0489341
-0.0477423
-0.0465568
-0.0453779
-0.044206
-0.0430412
-0.0418837
-0.0407333
-0.0395902
-0.0384542
-0.0373251
-0.0362027
-0.0350867
-0.0339768
-0.0328727
-0.0317739
-0.0306801
-0.0295908
-0.0285057
-0.0274242
-0.0263463
-0.0252713
-0.0241996
-0.02313
-0.0220644
-0.0209998
-0.0199418
-0.0188825
-0.017836
-0.0167826
-0.0157561
-0.0147079
-0.013718
-0.012669
-0.0117475
-0.0106767
-0.00988596
-0.00873609
-0.00820054
-0.00683168
-0.00680448
-0.00489741
-0.00589841
-0.00275494
-0.00585413
8.76559e-06
-0.00738347
0.00428213
-0.011875
-0.0501429
-0.048945
-0.0477529
-0.0465672
-0.045388
-0.0442158
-0.0430506
-0.0418926
-0.0407418
-0.0395982
-0.0384617
-0.0373321
-0.0362092
-0.0350926
-0.0339822
-0.0328775
-0.0317781
-0.0306837
-0.0295939
-0.0285082
-0.0274262
-0.0263478
-0.0252723
-0.0242001
-0.0231301
-0.0220641
-0.0209991
-0.0199407
-0.0188812
-0.0178344
-0.0167808
-0.0157541
-0.0147059
-0.0137159
-0.012667
-0.0117455
-0.0106751
-0.0098844
-0.008735
-0.00819969
-0.00683138
-0.00680476
-0.00489798
-0.00590052
-0.00275607
-0.00585951
8.43661e-06
-0.0073958
0.00428735
-0.0119054
-0.0501529
-0.0489549
-0.0477626
-0.0465766
-0.0453972
-0.0442247
-0.0430591
-0.0419008
-0.0407496
-0.0396055
-0.0384685
-0.0373384
-0.036215
-0.035098
-0.033987
-0.0328818
-0.031782
-0.0306871
-0.0295967
-0.0285105
-0.027428
-0.0263492
-0.0252732
-0.0242006
-0.0231301
-0.0220638
-0.0209985
-0.0199398
-0.01888
-0.0178329
-0.0167792
-0.0157524
-0.0147041
-0.013714
-0.0126653
-0.0117437
-0.0106736
-0.00988294
-0.00873403
-0.00819884
-0.00683117
-0.00680487
-0.00489867
-0.00590218
-0.00275745
-0.00586391
7.47633e-06
-0.00740615
0.00429093
-0.0119319
-0.0501619
-0.0489637
-0.0477714
-0.0465852
-0.0454055
-0.0442327
-0.0430668
-0.0419081
-0.0407565
-0.0396121
-0.0384747
-0.0373442
-0.0362203
-0.0351028
-0.0339914
-0.0328857
-0.0317854
-0.03069
-0.0295992
-0.0285126
-0.0274297
-0.0263504
-0.025274
-0.0242011
-0.0231302
-0.0220635
-0.0209979
-0.0199389
-0.0188789
-0.0178316
-0.0167778
-0.0157508
-0.0147025
-0.0137123
-0.0126636
-0.0117421
-0.0106722
-0.00988157
-0.00873319
-0.00819799
-0.00683107
-0.00680483
-0.00489945
-0.0059034
-0.00275902
-0.00586737
5.947e-06
-0.00741456
0.00429294
-0.0119545
-0.0501698
-0.0489716
-0.0477791
-0.0465927
-0.0454128
-0.0442397
-0.0430736
-0.0419146
-0.0407627
-0.0396179
-0.0384801
-0.0373492
-0.0362249
-0.0351071
-0.0339952
-0.0328892
-0.0317884
-0.0306927
-0.0296014
-0.0285144
-0.0274311
-0.0263515
-0.0252747
-0.0242014
-0.0231303
-0.0220633
-0.0209974
-0.0199381
-0.0188779
-0.0178304
-0.0167765
-0.0157493
-0.014701
-0.0137107
-0.0126622
-0.0117406
-0.010671
-0.00988032
-0.00873248
-0.00819717
-0.00683105
-0.00680466
-0.00490031
-0.00590422
-0.00276077
-0.00586991
3.89597e-06
-0.00742108
0.00429345
-0.0119733
-0.0501766
-0.0489783
-0.0477857
-0.0465992
-0.0454191
-0.0442458
-0.0430795
-0.0419202
-0.040768
-0.0396229
-0.0384848
-0.0373536
-0.036229
-0.0351107
-0.0339986
-0.0328922
-0.0317911
-0.0306949
-0.0296034
-0.028516
-0.0274324
-0.0263524
-0.0252753
-0.0242018
-0.0231303
-0.0220631
-0.0209969
-0.0199375
-0.018877
-0.0178294
-0.0167754
-0.0157481
-0.0146998
-0.0137094
-0.012661
-0.0117393
-0.01067
-0.0098792
-0.00873191
-0.00819638
-0.00683113
-0.00680436
-0.00490125
-0.00590463
-0.00276267
-0.00587156
1.35548e-06
-0.00742572
0.00429247
-0.0119883
-0.0501824
-0.0489841
-0.0477913
-0.0466047
-0.0454245
-0.044251
-0.0430844
-0.0419249
-0.0407725
-0.0396271
-0.0384888
-0.0373573
-0.0362324
-0.0351139
-0.0340014
-0.0328947
-0.0317933
-0.0306969
-0.029605
-0.0285174
-0.0274334
-0.0263532
-0.0252759
-0.024202
-0.0231303
-0.0220629
-0.0209966
-0.0199369
-0.0188763
-0.0178285
-0.0167744
-0.015747
-0.0146987
-0.0137082
-0.01266
-0.0117381
-0.0106692
-0.00987821
-0.00873146
-0.00819564
-0.00683128
-0.00680397
-0.00490221
-0.00590472
-0.00276463
-0.00587245
-1.47605e-06
-0.00742871
0.00429037
-0.0119997
-0.0501871
-0.0489887
-0.0477959
-0.0466091
-0.0454288
-0.0442551
-0.0430884
-0.0419287
-0.0407761
-0.0396305
-0.038492
-0.0373602
-0.0362351
-0.0351164
-0.0340037
-0.0328967
-0.0317951
-0.0306984
-0.0296063
-0.0285184
-0.0274343
-0.0263538
-0.0252763
-0.0242022
-0.0231304
-0.0220627
-0.0209962
-0.0199364
-0.0188757
-0.0178278
-0.0167736
-0.0157461
-0.0146979
-0.0137073
-0.0126591
-0.0117372
-0.0106685
-0.0098774
-0.0087311
-0.00819502
-0.00683142
-0.00680362
-0.00490304
-0.00590472
-0.00276629
-0.00587306
-3.89458e-06
-0.00743102
0.00428856
-0.0120084
-0.0501906
-0.0489922
-0.0477993
-0.0466125
-0.045432
-0.0442583
-0.0430914
-0.0419316
-0.0407788
-0.0396331
-0.0384944
-0.0373625
-0.0362372
-0.0351183
-0.0340054
-0.0328982
-0.0317964
-0.0306996
-0.0296073
-0.0285193
-0.0274349
-0.0263543
-0.0252766
-0.0242024
-0.0231304
-0.0220626
-0.020996
-0.0199361
-0.0188753
-0.0178273
-0.016773
-0.0157455
-0.0146972
-0.0137065
-0.0126585
-0.0117365
-0.010668
-0.00987677
-0.00873085
-0.00819452
-0.00683156
-0.0068033
-0.00490372
-0.00590465
-0.00276765
-0.00587339
-5.89618e-06
-0.00743265
0.00428702
-0.0120143
-0.050193
-0.0489945
-0.0478016
-0.0466147
-0.0454342
-0.0442604
-0.0430935
-0.0419335
-0.0407807
-0.0396349
-0.038496
-0.037364
-0.0362386
-0.0351195
-0.0340065
-0.0328993
-0.0317973
-0.0307004
-0.029608
-0.0285198
-0.0274354
-0.0263546
-0.0252768
-0.0242025
-0.0231304
-0.0220625
-0.0209958
-0.0199358
-0.018875
-0.0178269
-0.0167727
-0.015745
-0.0146968
-0.013706
-0.0126582
-0.0117359
-0.0106679
-0.00987609
-0.00873104
-0.00819366
-0.00683242
-0.00680197
-0.00490577
-0.0059023
-0.00277184
-0.00586895
-1.38527e-05
-0.00742447
0.00427272
-0.0120096
-0.0501942
-0.0489957
-0.0478028
-0.0466159
-0.0454353
-0.0442615
-0.0430945
-0.0419345
-0.0407816
-0.0396358
-0.0384969
-0.0373648
-0.0362393
-0.0351202
-0.0340071
-0.0328998
-0.0317978
-0.0307008
-0.0296083
-0.0285201
-0.0274356
-0.0263548
-0.0252769
-0.0242025
-0.0231304
-0.0220625
-0.0209958
-0.0199357
-0.0188749
-0.0178267
-0.0167725
-0.0157447
-0.0146967
-0.0137056
-0.0126582
-0.0117353
-0.0106683
-0.00987499
-0.00873227
-0.00819157
-0.00683524
-0.00679784
-0.00491181
-0.00589392
-0.00278425
-0.00585201
-3.87764e-05
-0.00739066
0.00422307
-0.0119814
)
;

boundaryField
{
    inlet
    {
        type            zeroGradient;
    }
    outlet
    {