/*--------------------------------*- C++ -*----------------------------------*\
  =========                 |
  \\      /  F ield         | OpenFOAM: The Open Source CFD Toolbox
   \\    /   O peration     | Website:  https://openfoam.org
    \\  /    A nd           | Version:  7
     \\/     M anipulation  |
\*---------------------------------------------------------------------------*/
FoamFile
{
    version     2.0;
    format      ascii;
    class       volVectorField;
    location    "15";
    object      U;
}
// * * * * * * * * * * * * * * * * * * * * * * * * * * * * * * * * * * * * * //

dimensions      [0 1 -1 0 0 0 0];

internalField   nonuniform List<vector> 
2625
(
(1.14737 -0.0212216 0)
(1.14502 -0.0213698 0)
(1.14266 -0.0215416 0)
(1.14028 -0.0217381 0)
(1.13787 -0.0219605 0)
(1.13544 -0.0222095 0)
(1.13297 -0.0224861 0)
(1.13048 -0.0227908 0)
(1.12795 -0.0231241 0)
(1.12538 -0.0234862 0)
(1.12277 -0.0238769 0)
(1.12011 -0.0242959 0)
(1.1174 -0.0247419 0)
(1.11465 -0.025214 0)
(1.11183 -0.0257096 0)
(1.10896 -0.0262267 0)
(1.10602 -0.0267608 0)
(1.10302 -0.0273095 0)
(1.09994 -0.0278643 0)
(1.0968 -0.0284242 0)
(1.09359 -0.0289736 0)
(1.09031 -0.0295166 0)
(1.08695 -0.0300241 0)
(1.08354 -0.030515 0)
(1.08003 -0.0309311 0)
(1.07651 -0.0313297 0)
(1.07286 -0.0315889 0)
(1.06929 -0.031857 0)
(1.06549 -0.0318714 0)
(1.06194 -0.031989 0)
(1.05799 -0.0316346 0)
(1.05463 -0.0316322 0)
(1.05041 -0.0307196 0)
(1.04755 -0.0307396 0)
(1.04282 -0.0289591 0)
(1.04103 -0.0293421 0)
(1.03514 -0.0262948 0)
(1.18111 -0.0205228 0)
(1.1789 -0.0204745 0)
(1.1767 -0.0204324 0)
(1.17449 -0.0203976 0)
(1.17227 -0.0203714 0)
(1.17005 -0.0203551 0)
(1.16781 -0.0203498 0)
(1.16557 -0.0203569 0)
(1.16332 -0.0203776 0)
(1.16107 -0.0204131 0)
(1.1588 -0.0204646 0)
(1.15651 -0.0205335 0)
(1.15422 -0.0206209 0)
(1.15191 -0.020728 0)
(1.14958 -0.0208561 0)
(1.14723 -0.0210065 0)
(1.14487 -0.0211801 0)
(1.14247 -0.0213781 0)
(1.14006 -0.0216016 0)
(1.13761 -0.0218514 0)
(1.13514 -0.0221284 0)
(1.13263 -0.0224332 0)
(1.13008 -0.0227662 0)
(1.1275 -0.0231276 0)
(1.12487 -0.0235172 0)
(1.12219 -0.0239347 0)
(1.11946 -0.0243789 0)
(1.11668 -0.0248488 0)
(1.11383 -0.0253418 0)
(1.11093 -0.0258562 0)
(1.10796 -0.0263872 0)
(1.10492 -0.0269327 0)
(1.10181 -0.0274843 0)
(1.09863 -0.0280408 0)
(1.09538 -0.028587 0)
(1.09205 -0.0291269 0)
(1.08864 -0.0296318 0)
(1.08519 -0.0301201 0)
(1.08162 -0.030535 0)
(1.07805 -0.0309319 0)
(1.07434 -0.031192 0)
(1.07071 -0.0314597 0)
(1.06685 -0.0314784 0)
(1.06324 -0.0315965 0)
(1.05921 -0.031252 0)
(1.05579 -0.0312494 0)
(1.0515 -0.0303561 0)
(1.04858 -0.0303708 0)
(1.04375 -0.0286258 0)
(1.04193 -0.0289891 0)
(1.03593 -0.0259983 0)
(1.18321 -0.0201027 0)
(1.18102 -0.0200591 0)
(1.17882 -0.0200216 0)
(1.17662 -0.0199914 0)
(1.17441 -0.0199696 0)
(1.1722 -0.0199575 0)
(1.16997 -0.0199563 0)
(1.16774 -0.0199673 0)
(1.16549 -0.0199917 0)
(1.16324 -0.0200307 0)
(1.16097 -0.0200855 0)
(1.15869 -0.0201574 0)
(1.15639 -0.0202476 0)
(1.15408 -0.0203573 0)
(1.15175 -0.0204877 0)
(1.1494 -0.0206399 0)
(1.14703 -0.0208152 0)
(1.14463 -0.0210145 0)
(1.14221 -0.0212389 0)
(1.13976 -0.0214894 0)
(1.13727 -0.0217666 0)
(1.13475 -0.0220712 0)
(1.13219 -0.0224036 0)
(1.12959 -0.022764 0)
(1.12694 -0.0231523 0)
(1.12424 -0.023568 0)
(1.12149 -0.0240102 0)
(1.11868 -0.0244776 0)
(1.11581 -0.0249679 0)
(1.11288 -0.0254792 0)
(1.10987 -0.026007 0)
(1.1068 -0.026549 0)
(1.10366 -0.027097 0)
(1.10044 -0.0276499 0)
(1.09714 -0.0281927 0)
(1.09378 -0.0287291 0)
(1.09032 -0.0292312 0)
(1.08681 -0.0297167 0)
(1.0832 -0.0301301 0)
(1.07957 -0.0305251 0)
(1.0758 -0.030786 0)
(1.07211 -0.031053 0)
(1.06819 -0.0310761 0)
(1.06452 -0.0311944 0)
(1.06042 -0.03086 0)
(1.05695 -0.030857 0)
(1.05257 -0.0299832 0)
(1.04961 -0.0299926 0)
(1.04468 -0.0282834 0)
(1.04283 -0.0286273 0)
(1.0367 -0.0256934 0)
(1.18526 -0.019682 0)
(1.18308 -0.0196431 0)
(1.1809 -0.01961 0)
(1.17871 -0.0195841 0)
(1.17651 -0.0195666 0)
(1.1743 -0.0195586 0)
(1.17208 -0.0195613 0)
(1.16986 -0.0195761 0)
(1.16762 -0.019604 0)
(1.16537 -0.0196463 0)
(1.1631 -0.0197043 0)
(1.16082 -0.019779 0)
(1.15853 -0.0198718 0)
(1.15622 -0.0199838 0)
(1.15389 -0.0201163 0)
(1.15153 -0.0202703 0)
(1.14916 -0.020447 0)
(1.14676 -0.0206474 0)
(1.14433 -0.0208726 0)
(1.14186 -0.0211234 0)
(1.13937 -0.0214006 0)
(1.13683 -0.0217048 0)
(1.13426 -0.0220364 0)
(1.13164 -0.0223956 0)
(1.12897 -0.0227823 0)
(1.12626 -0.0231961 0)
(1.12348 -0.0236359 0)
(1.12065 -0.0241006 0)
(1.11776 -0.0245878 0)
(1.1148 -0.0250958 0)
(1.11176 -0.0256201 0)
(1.10866 -0.0261583 0)
(1.10548 -0.0267025 0)
(1.10223 -0.0272514 0)
(1.09889 -0.0277906 0)
(1.09548 -0.0283233 0)
(1.09198 -0.0288224 0)
(1.08842 -0.0293048 0)
(1.08476 -0.0297164 0)
(1.08108 -0.0301094 0)
(1.07725 -0.0303709 0)
(1.0735 -0.030637 0)
(1.06952 -0.0306644 0)
(1.06579 -0.0307828 0)
(1.06162 -0.0304585 0)
(1.05809 -0.030455 0)
(1.05363 -0.0296008 0)
(1.05063 -0.0296049 0)
(1.0456 -0.0279319 0)
(1.04372 -0.0282566 0)
(1.03747 -0.0253802 0)
(1.18726 -0.0192609 0)
(1.1851 -0.0192264 0)
(1.18293 -0.0191977 0)
(1.18075 -0.019176 0)
(1.17856 -0.0191625 0)
(1.17636 -0.0191584 0)
(1.17415 -0.0191649 0)
(1.17193 -0.0191832 0)
(1.1697 -0.0192145 0)
(1.16745 -0.01926 0)
(1.16519 -0.0193209 0)
(1.16292 -0.0193983 0)
(1.16062 -0.0194936 0)
(1.15831 -0.0196078 0)
(1.15598 -0.0197421 0)
(1.15363 -0.0198976 0)
(1.15125 -0.0200755 0)
(1.14884 -0.0202768 0)
(1.1464 -0.0205025 0)
(1.14393 -0.0207535 0)
(1.14143 -0.0210305 0)
(1.13888 -0.0213341 0)
(1.1363 -0.0216646 0)
(1.13366 -0.0220225 0)
(1.13098 -0.0224073 0)
(1.12825 -0.0228188 0)
(1.12545 -0.023256 0)
(1.1226 -0.0237178 0)
(1.11968 -0.0242017 0)
(1.11669 -0.0247061 0)
(1.11363 -0.0252265 0)
(1.1105 -0.0257607 0)
(1.10728 -0.0263009 0)
(1.10399 -0.0268456 0)
(1.10061 -0.0273808 0)
(1.09716 -0.0279096 0)
(1.09361 -0.0284053 0)
(1.09001 -0.0288843 0)
(1.0863 -0.029294 0)
(1.08257 -0.0296847 0)
(1.07869 -0.0299466 0)
(1.07488 -0.0302118 0)
(1.07083 -0.0302433 0)
(1.06705 -0.0303616 0)
(1.06281 -0.0300474 0)
(1.05923 -0.0300434 0)
(1.05468 -0.0292091 0)
(1.05163 -0.0292078 0)
(1.04651 -0.0275711 0)
(1.0446 -0.027877 0)
(1.03824 -0.0250585 0)
(1.18922 -0.0188394 0)
(1.18707 -0.0188092 0)
(1.18491 -0.0187847 0)
(1.18274 -0.0187671 0)
(1.18056 -0.0187575 0)
(1.17837 -0.0187571 0)
(1.17617 -0.0187672 0)
(1.17396 -0.0187889 0)
(1.17173 -0.0188234 0)
(1.16949 -0.0188719 0)
(1.16724 -0.0189355 0)
(1.16497 -0.0190155 0)
(1.16268 -0.019113 0)
(1.16037 -0.0192291 0)
(1.15804 -0.0193651 0)
(1.15568 -0.019522 0)
(1.1533 -0.019701 0)
(1.15089 -0.019903 0)
(1.14844 -0.020129 0)
(1.14597 -0.0203799 0)
(1.14345 -0.0206564 0)
(1.1409 -0.0209591 0)
(1.1383 -0.0212884 0)
(1.13565 -0.0216446 0)
(1.13296 -0.0220274 0)
(1.1302 -0.0224364 0)
(1.12739 -0.0228707 0)
(1.12451 -0.0233292 0)
(1.12157 -0.0238096 0)
(1.11856 -0.0243101 0)
(1.11547 -0.0248264 0)
(1.1123 -0.0253563 0)
(1.10906 -0.0258921 0)
(1.10573 -0.0264323 0)
(1.10231 -0.0269633 0)
(1.09882 -0.0274878 0)
(1.09523 -0.02798 0)
(1.09158 -0.0284554 0)
(1.08782 -0.028863 0)
(1.08404 -0.0292511 0)
(1.0801 -0.0295132 0)
(1.07624 -0.0297772 0)
(1.07213 -0.0298127 0)
(1.0683 -0.0299309 0)
(1.06398 -0.0296268 0)
(1.06035 -0.0296221 0)
(1.05572 -0.0288079 0)
(1.05263 -0.0288012 0)
(1.04741 -0.0272011 0)
(1.04548 -0.0274884 0)
(1.039 -0.0247284 0)
(1.19112 -0.0184179 0)
(1.18898 -0.0183918 0)
(1.18684 -0.0183713 0)
(1.18468 -0.0183575 0)
(1.18251 -0.0183516 0)
(1.18033 -0.0183548 0)
(1.17814 -0.0183684 0)
(1.17594 -0.0183933 0)
(1.17372 -0.0184308 0)
(1.17149 -0.0184821 0)
(1.16924 -0.0185483 0)
(1.16697 -0.0186306 0)
(1.16469 -0.0187302 0)
(1.16238 -0.0188481 0)
(1.16005 -0.0189856 0)
(1.15769 -0.0191437 0)
(1.15531 -0.0193234 0)
(1.1529 -0.0195259 0)
(1.15045 -0.019752 0)
(1.14797 -0.0200026 0)
(1.14544 -0.0202784 0)
(1.14288 -0.02058 0)
(1.14027 -0.0209079 0)
(1.13761 -0.0212621 0)
(1.1349 -0.0216425 0)
(1.13213 -0.0220488 0)
(1.1293 -0.02248 0)
(1.1264 -0.022935 0)
(1.12343 -0.0234115 0)
(1.1204 -0.0239079 0)
(1.11728 -0.0244198 0)
(1.11409 -0.0249451 0)
(1.1108 -0.0254762 0)
(1.10744 -0.0260117 0)
(1.10399 -0.0265382 0)
(1.10046 -0.0270581 0)
(1.09683 -0.0275465 0)
(1.09313 -0.0280181 0)
(1.08932 -0.0284232 0)
(1.08549 -0.0288086 0)
(1.0815 -0.0290707 0)
(1.07759 -0.0293333 0)
(1.07342 -0.0293728 0)
(1.06953 -0.0294907 0)
(1.06514 -0.0291967 0)
(1.06146 -0.0291912 0)
(1.05676 -0.0283972 0)
(1.05362 -0.028385 0)
(1.0483 -0.0268219 0)
(1.04634 -0.0270908 0)
(1.03975 -0.0243897 0)
(1.19298 -0.0179963 0)
(1.19085 -0.0179741 0)
(1.18872 -0.0179574 0)
(1.18658 -0.0179473 0)
(1.18442 -0.0179451 0)
(1.18225 -0.0179517 0)
(1.18007 -0.0179685 0)
(1.17788 -0.0179965 0)
(1.17567 -0.0180368 0)
(1.17344 -0.0180908 0)
(1.1712 -0.0181594 0)
(1.16894 -0.0182438 0)
(1.16665 -0.0183453 0)
(1.16435 -0.0184648 0)
(1.16202 -0.0186035 0)
(1.15967 -0.0187625 0)
(1.15728 -0.0189429 0)
(1.15486 -0.0191456 0)
(1.15241 -0.0193716 0)
(1.14993 -0.0196217 0)
(1.1474 -0.0198966 0)
(1.14483 -0.0201969 0)
(1.14221 -0.020523 0)
(1.13953 -0.0208751 0)
(1.13681 -0.0212529 0)
(1.13402 -0.0216562 0)
(1.13117 -0.022084 0)
(1.12826 -0.0225352 0)
(1.12527 -0.0230076 0)
(1.12221 -0.0234995 0)
(1.11906 -0.0240068 0)
(1.11584 -0.0245271 0)
(1.11253 -0.0250533 0)
(1.10913 -0.0255838 0)
(1.10564 -0.0261055 0)
(1.10208 -0.0266206 0)
(1.0984 -0.0271048 0)
(1.09467 -0.0275723 0)
(1.0908 -0.0279748 0)
(1.08693 -0.0283571 0)
(1.08288 -0.0286192 0)
(1.07892 -0.0288801 0)
(1.07469 -0.0289234 0)
(1.07074 -0.0290409 0)
(1.06629 -0.028757 0)
(1.06256 -0.0287507 0)
(1.05778 -0.0279769 0)
(1.05459 -0.0279594 0)
(1.04919 -0.0264333 0)
(1.0472 -0.0266842 0)
(1.04049 -0.0240425 0)
(1.19478 -0.0175747 0)
(1.19267 -0.0175564 0)
(1.19055 -0.0175434 0)
(1.18842 -0.0175368 0)
(1.18628 -0.0175379 0)
(1.18412 -0.0175478 0)
(1.18195 -0.0175676 0)
(1.17977 -0.0175985 0)
(1.17757 -0.0176416 0)
(1.17535 -0.017698 0)
(1.17311 -0.0177688 0)
(1.17086 -0.0178552 0)
(1.16858 -0.0179583 0)
(1.16628 -0.0180792 0)
(1.16395 -0.0182191 0)
(1.1616 -0.0183788 0)
(1.15921 -0.0185596 0)
(1.15679 -0.0187624 0)
(1.15434 -0.018988 0)
(1.15185 -0.0192373 0)
(1.14931 -0.0195111 0)
(1.14673 -0.0198099 0)
(1.1441 -0.0201339 0)
(1.14142 -0.0204836 0)
(1.13868 -0.0208586 0)
(1.13588 -0.0212586 0)
(1.13302 -0.0216827 0)
(1.13008 -0.0221298 0)
(1.12707 -0.0225978 0)
(1.12399 -0.023085 0)
(1.12082 -0.0235873 0)
(1.11757 -0.0241025 0)
(1.11423 -0.0246235 0)
(1.1108 -0.0251486 0)
(1.10727 -0.0256652 0)
(1.10367 -0.0261752 0)
(1.09995 -0.0266551 0)
(1.09617 -0.0271181 0)
(1.09227 -0.0275177 0)
(1.08834 -0.0278968 0)
(1.08425 -0.0281585 0)
(1.08023 -0.0284176 0)
(1.07594 -0.0284647 0)
(1.07195 -0.0285815 0)
(1.06743 -0.0283078 0)
(1.06364 -0.0283006 0)
(1.05879 -0.0275472 0)
(1.05556 -0.0275243 0)
(1.05006 -0.0260355 0)
(1.04805 -0.0262686 0)
(1.04123 -0.0236866 0)
(1.19653 -0.0171534 0)
(1.19444 -0.0171387 0)
(1.19234 -0.0171291 0)
(1.19022 -0.017126 0)
(1.18809 -0.0171303 0)
(1.18595 -0.0171433 0)
(1.18379 -0.017166 0)
(1.18161 -0.0171996 0)
(1.17942 -0.0172452 0)
(1.17721 -0.0173038 0)
(1.17498 -0.0173767 0)
(1.17273 -0.0174649 0)
(1.17046 -0.0175695 0)
(1.16816 -0.0176916 0)
(1.16584 -0.0178323 0)
(1.16349 -0.0179926 0)
(1.1611 -0.0181736 0)
(1.15868 -0.0183761 0)
(1.15623 -0.0186012 0)
(1.15373 -0.0188496 0)
(1.15119 -0.019122 0)
(1.14861 -0.0194189 0)
(1.14597 -0.0197407 0)
(1.14328 -0.0200877 0)
(1.14052 -0.0204596 0)
(1.13771 -0.020856 0)
(1.13483 -0.0212762 0)
(1.13188 -0.021719 0)
(1.12885 -0.0221823 0)
(1.12574 -0.0226645 0)
(1.12255 -0.0231615 0)
(1.11927 -0.0236712 0)
(1.1159 -0.0241867 0)
(1.11244 -0.0247061 0)
(1.10888 -0.0252173 0)
(1.10524 -0.025722 0)
(1.10148 -0.0261972 0)
(1.09766 -0.0266555 0)
(1.09371 -0.027052 0)
(1.08974 -0.0274276 0)
(1.08559 -0.0276887 0)
(1.08153 -0.0279459 0)
(1.07718 -0.0279965 0)
(1.07313 -0.0281126 0)
(1.06855 -0.0278489 0)
(1.06471 -0.0278407 0)
(1.05978 -0.0271079 0)
(1.05651 -0.0270796 0)
(1.05092 -0.0256284 0)
(1.04889 -0.0258439 0)
(1.04195 -0.0233221 0)
(1.19824 -0.0167325 0)
(1.19616 -0.0167211 0)
(1.19407 -0.0167149 0)
(1.19197 -0.016715 0)
(1.18985 -0.0167224 0)
(1.18772 -0.0167382 0)
(1.18557 -0.0167637 0)
(1.18341 -0.0167998 0)
(1.18123 -0.0168477 0)
(1.17903 -0.0169084 0)
(1.17681 -0.0169832 0)
(1.17457 -0.0170729 0)
(1.1723 -0.0171788 0)
(1.17001 -0.0173019 0)
(1.16769 -0.0174433 0)
(1.16534 -0.0176039 0)
(1.16295 -0.0177849 0)
(1.16053 -0.0179871 0)
(1.15808 -0.0182113 0)
(1.15558 -0.0184585 0)
(1.15303 -0.0187293 0)
(1.15044 -0.0190241 0)
(1.1478 -0.0193435 0)
(1.14509 -0.0196875 0)
(1.14233 -0.020056 0)
(1.1395 -0.0204486 0)
(1.13661 -0.0208646 0)
(1.13364 -0.0213027 0)
(1.13059 -0.0217611 0)
(1.12746 -0.022238 0)
(1.12424 -0.0227295 0)
(1.12094 -0.0232334 0)
(1.11754 -0.023743 0)
(1.11405 -0.0242565 0)
(1.11046 -0.0247621 0)
(1.10678 -0.025261 0)
(1.10299 -0.0257312 0)
(1.09913 -0.0261846 0)
(1.09513 -0.0265777 0)
(1.09112 -0.0269496 0)
(1.08692 -0.02721 0)
(1.08281 -0.0274649 0)
(1.0784 -0.027519 0)
(1.0743 -0.0276342 0)
(1.06966 -0.0273805 0)
(1.06577 -0.0273713 0)
(1.06077 -0.026659 0)
(1.05745 -0.0266255 0)
(1.05178 -0.0252119 0)
(1.04971 -0.0254102 0)
(1.04267 -0.0229489 0)
(1.19989 -0.0163119 0)
(1.19783 -0.0163038 0)
(1.19576 -0.0163008 0)
(1.19367 -0.0163039 0)
(1.19157 -0.0163142 0)
(1.18945 -0.0163327 0)
(1.18732 -0.0163607 0)
(1.18516 -0.0163992 0)
(1.18299 -0.0164492 0)
(1.1808 -0.0165119 0)
(1.17859 -0.0165883 0)
(1.17635 -0.0166794 0)
(1.17409 -0.0167864 0)
(1.17181 -0.0169103 0)
(1.16949 -0.0170522 0)
(1.16714 -0.017213 0)
(1.16476 -0.0173937 0)
(1.16234 -0.0175952 0)
(1.15989 -0.0178185 0)
(1.15739 -0.0180642 0)
(1.15484 -0.0183331 0)
(1.15224 -0.0186257 0)
(1.14959 -0.0189423 0)
(1.14688 -0.0192831 0)
(1.1441 -0.0196479 0)
(1.14126 -0.0200365 0)
(1.13835 -0.0204479 0)
(1.13537 -0.0208812 0)
(1.1323 -0.0213343 0)
(1.12915 -0.0218055 0)
(1.12591 -0.0222912 0)
(1.12258 -0.022789 0)
(1.11916 -0.0232925 0)
(1.11564 -0.0237998 0)
(1.11201 -0.0242993 0)
(1.1083 -0.0247923 0)
(1.10447 -0.0252573 0)
(1.10057 -0.0257055 0)
(1.09653 -0.0260948 0)
(1.09247 -0.0264628 0)
(1.08823 -0.0267222 0)
(1.08407 -0.0269747 0)
(1.07961 -0.0270321 0)
(1.07546 -0.0271463 0)
(1.07075 -0.0269026 0)
(1.06681 -0.0268922 0)
(1.06174 -0.0262006 0)
(1.05838 -0.0261618 0)
(1.05262 -0.0247861 0)
(1.05053 -0.0249674 0)
(1.04338 -0.022567 0)
(1.2015 -0.0158919 0)
(1.19946 -0.0158869 0)
(1.1974 -0.0158869 0)
(1.19532 -0.0158928 0)
(1.19324 -0.0159058 0)
(1.19113 -0.0159269 0)
(1.18901 -0.0159573 0)
(1.18687 -0.015998 0)
(1.18471 -0.0160499 0)
(1.18253 -0.0161143 0)
(1.18033 -0.0161922 0)
(1.1781 -0.0162845 0)
(1.17585 -0.0163924 0)
(1.17357 -0.0165169 0)
(1.17125 -0.016659 0)
(1.16891 -0.0168197 0)
(1.16653 -0.017 0)
(1.16411 -0.0172007 0)
(1.16166 -0.0174227 0)
(1.15915 -0.0176667 0)
(1.1566 -0.0179335 0)
(1.154 -0.0182235 0)
(1.15134 -0.0185371 0)
(1.14862 -0.0188745 0)
(1.14584 -0.0192354 0)
(1.14299 -0.0196197 0)
(1.14006 -0.0200263 0)
(1.13706 -0.0204543 0)
(1.13398 -0.0209019 0)
(1.13081 -0.0213672 0)
(1.12755 -0.0218467 0)
(1.1242 -0.0223382 0)
(1.12074 -0.0228353 0)
(1.1172 -0.023336 0)
(1.11354 -0.0238292 0)
(1.1098 -0.0243159 0)
(1.10593 -0.0247754 0)
(1.10199 -0.025218 0)
(1.09791 -0.0256035 0)
(1.09381 -0.0259672 0)
(1.08951 -0.0262253 0)
(1.08531 -0.0264753 0)
(1.0808 -0.0265358 0)
(1.0766 -0.0266488 0)
(1.07183 -0.026415 0)
(1.06784 -0.0264035 0)
(1.0627 -0.0257326 0)
(1.0593 -0.0256887 0)
(1.05345 -0.0243509 0)
(1.05134 -0.0245156 0)
(1.04408 -0.0221763 0)
(1.20306 -0.0154725 0)
(1.20103 -0.0154705 0)
(1.19899 -0.0154732 0)
(1.19693 -0.0154818 0)
(1.19486 -0.0154974 0)
(1.19276 -0.0155209 0)
(1.19066 -0.0155535 0)
(1.18853 -0.0155961 0)
(1.18638 -0.0156499 0)
(1.18421 -0.0157158 0)
(1.18202 -0.0157949 0)
(1.1798 -0.0158883 0)
(1.17755 -0.0159969 0)
(1.17528 -0.0161218 0)
(1.17297 -0.016264 0)
(1.17063 -0.0164244 0)
(1.16826 -0.0166039 0)
(1.16584 -0.0168036 0)
(1.16338 -0.0170241 0)
(1.16088 -0.0172662 0)
(1.15833 -0.0175307 0)
(1.15572 -0.0178179 0)
(1.15306 -0.0181282 0)
(1.15033 -0.0184618 0)
(1.14754 -0.0188186 0)
(1.14468 -0.0191982 0)
(1.14174 -0.0195998 0)
(1.13872 -0.0200223 0)
(1.13562 -0.020464 0)
(1.13244 -0.0209231 0)
(1.12916 -0.0213962 0)
(1.12578 -0.021881 0)
(1.1223 -0.0223713 0)
(1.11873 -0.0228652 0)
(1.11504 -0.0233518 0)
(1.11126 -0.0238319 0)
(1.10736 -0.0242856 0)
(1.10339 -0.0247224 0)
(1.09926 -0.0251036 0)
(1.09512 -0.0254629 0)
(1.09078 -0.0257196 0)
(1.08653 -0.0259667 0)
(1.08196 -0.0260302 0)
(1.07772 -0.0261419 0)
(1.07289 -0.025918 0)
(1.06885 -0.0259052 0)
(1.06364 -0.025255 0)
(1.0602 -0.025206 0)
(1.05428 -0.0239063 0)
(1.05214 -0.0240548 0)
(1.04477 -0.021777 0)
(1.20456 -0.0150539 0)
(1.20255 -0.0150546 0)
(1.20053 -0.01506 0)
(1.19849 -0.0150711 0)
(1.19643 -0.015089 0)
(1.19435 -0.0151148 0)
(1.19226 -0.0151493 0)
(1.19014 -0.0151938 0)
(1.18801 -0.0152492 0)
(1.18585 -0.0153165 0)
(1.18366 -0.0153967 0)
(1.18145 -0.0154908 0)
(1.17922 -0.0156 0)
(1.17695 -0.0157251 0)
(1.17465 -0.0158671 0)
(1.17232 -0.0160269 0)
(1.16994 -0.0162056 0)
(1.16753 -0.0164039 0)
(1.16507 -0.0166227 0)
(1.16257 -0.0168627 0)
(1.16001 -0.0171246 0)
(1.1574 -0.0174087 0)
(1.15473 -0.0177156 0)
(1.152 -0.0180452 0)
(1.1492 -0.0183975 0)
(1.14633 -0.0187722 0)
(1.14338 -0.0191684 0)
(1.14035 -0.0195852 0)
(1.13724 -0.0200207 0)
(1.13403 -0.0204733 0)
(1.13073 -0.0209397 0)
(1.12733 -0.0214174 0)
(1.12383 -0.0219007 0)
(1.12023 -0.0223874 0)
(1.11651 -0.0228671 0)
(1.11271 -0.0233403 0)
(1.10877 -0.0237878 0)
(1.10476 -0.0242186 0)
(1.1006 -0.0245953 0)
(1.09641 -0.0249498 0)
(1.09203 -0.0252049 0)
(1.08773 -0.025449 0)
(1.08311 -0.0255152 0)
(1.07882 -0.0256256 0)
(1.07393 -0.0254113 0)
(1.06985 -0.0253974 0)
(1.06457 -0.0247679 0)
(1.06109 -0.0247139 0)
(1.05508 -0.0234524 0)
(1.05292 -0.0235849 0)
(1.04545 -0.0213688 0)
(1.20602 -0.0146361 0)
(1.20403 -0.0146394 0)
(1.20202 -0.0146472 0)
(1.2 -0.0146607 0)
(1.19795 -0.0146808 0)
(1.19589 -0.0147086 0)
(1.19381 -0.014745 0)
(1.19171 -0.0147911 0)
(1.18958 -0.0148479 0)
(1.18744 -0.0149163 0)
(1.18526 -0.0149974 0)
(1.18306 -0.0150922 0)
(1.18084 -0.0152017 0)
(1.17858 -0.0153267 0)
(1.17628 -0.0154684 0)
(1.17395 -0.0156275 0)
(1.17159 -0.0158051 0)
(1.16918 -0.0160019 0)
(1.16672 -0.0162187 0)
(1.16422 -0.0164564 0)
(1.16166 -0.0167154 0)
(1.15905 -0.0169962 0)
(1.15637 -0.0172993 0)
(1.15364 -0.0176246 0)
(1.15083 -0.0179722 0)
(1.14795 -0.0183417 0)
(1.14499 -0.0187323 0)
(1.14195 -0.019143 0)
(1.13882 -0.0195721 0)
(1.13559 -0.0200179 0)
(1.13227 -0.0204771 0)
(1.12886 -0.0209476 0)
(1.12533 -0.0214235 0)
(1.1217 -0.0219027 0)
(1.11796 -0.0223752 0)
(1.11412 -0.0228412 0)
(1.11015 -0.0232823 0)
(1.1061 -0.0237067 0)
(1.1019 -0.0240786 0)
(1.09768 -0.0244281 0)
(1.09325 -0.0246812 0)
(1.08891 -0.0249222 0)
(1.08424 -0.024991 0)
(1.0799 -0.0250998 0)
(1.07496 -0.0248952 0)
(1.07083 -0.0248799 0)
(1.06549 -0.0242712 0)
(1.06197 -0.0242124 0)
(1.05588 -0.0229891 0)
(1.05369 -0.023106 0)
(1.04612 -0.0209519 0)
(1.20743 -0.0142192 0)
(1.20546 -0.0142249 0)
(1.20347 -0.014235 0)
(1.20146 -0.0142507 0)
(1.19943 -0.0142728 0)
(1.19738 -0.0143024 0)
(1.19532 -0.0143405 0)
(1.19323 -0.0143881 0)
(1.19112 -0.0144461 0)
(1.18898 -0.0145155 0)
(1.18682 -0.0145973 0)
(1.18463 -0.0146925 0)
(1.18241 -0.0148021 0)
(1.18016 -0.0149269 0)
(1.17787 -0.015068 0)
(1.17555 -0.0152262 0)
(1.17319 -0.0154024 0)
(1.17078 -0.0155975 0)
(1.16833 -0.0158122 0)
(1.16582 -0.0160472 0)
(1.16327 -0.0163031 0)
(1.16065 -0.0165804 0)
(1.15797 -0.0168794 0)
(1.15523 -0.0172002 0)
(1.15242 -0.0175428 0)
(1.14953 -0.0179068 0)
(1.14656 -0.0182914 0)
(1.1435 -0.0186958 0)
(1.14036 -0.0191181 0)
(1.13712 -0.0195568 0)
(1.13378 -0.0200087 0)
(1.13035 -0.0204715 0)
(1.1268 -0.0209397 0)
(1.12315 -0.0214111 0)
(1.11938 -0.0218761 0)
(1.11551 -0.0223346 0)
(1.1115 -0.022769 0)
(1.10742 -0.0231867 0)
(1.10319 -0.0235536 0)
(1.09892 -0.0238978 0)
(1.09445 -0.0241488 0)
(1.09007 -0.0243862 0)
(1.08535 -0.0244575 0)
(1.08097 -0.0245646 0)
(1.07597 -0.0243695 0)
(1.0718 -0.024353 0)
(1.06639 -0.0237649 0)
(1.06283 -0.0237014 0)
(1.05666 -0.0225164 0)
(1.05445 -0.0226181 0)
(1.04678 -0.0205262 0)
(1.2088 -0.0138032 0)
(1.20684 -0.0138112 0)
(1.20487 -0.0138235 0)
(1.20287 -0.0138411 0)
(1.20086 -0.0138651 0)
(1.19883 -0.0138964 0)
(1.19678 -0.013936 0)
(1.1947 -0.0139848 0)
(1.19261 -0.0140438 0)
(1.19048 -0.0141141 0)
(1.18833 -0.0141964 0)
(1.18615 -0.0142919 0)
(1.18394 -0.0144013 0)
(1.1817 -0.0145258 0)
(1.17942 -0.014666 0)
(1.1771 -0.0148231 0)
(1.17474 -0.0149977 0)
(1.17234 -0.0151908 0)
(1.16989 -0.0154031 0)
(1.16739 -0.0156352 0)
(1.16483 -0.0158878 0)
(1.16222 -0.0161613 0)
(1.15954 -0.016456 0)
(1.15679 -0.016772 0)
(1.15397 -0.0171093 0)
(1.15107 -0.0174676 0)
(1.14809 -0.017846 0)
(1.14503 -0.0182437 0)
(1.14187 -0.018659 0)
(1.13862 -0.0190903 0)
(1.13526 -0.0195344 0)
(1.1318 -0.0199893 0)
(1.12823 -0.0204495 0)
(1.12456 -0.0209128 0)
(1.12076 -0.0213699 0)
(1.11687 -0.0218206 0)
(1.11283 -0.0222479 0)
(1.10872 -0.0226586 0)
(1.10444 -0.0230202 0)
(1.10015 -0.0233589 0)
(1.09563 -0.0236075 0)
(1.09121 -0.0238413 0)
(1.08644 -0.0239148 0)
(1.08201 -0.02402 0)
(1.07696 -0.0238344 0)
(1.07275 -0.0238165 0)
(1.06727 -0.0232491 0)
(1.06367 -0.023181 0)
(1.05743 -0.0220343 0)
(1.0552 -0.0221211 0)
(1.04743 -0.0200917 0)
(1.21011 -0.0133884 0)
(1.20818 -0.0133984 0)
(1.20622 -0.0134126 0)
(1.20424 -0.0134321 0)
(1.20225 -0.0134577 0)
(1.20023 -0.0134905 0)
(1.19819 -0.0135314 0)
(1.19613 -0.0135814 0)
(1.19405 -0.0136413 0)
(1.19194 -0.0137121 0)
(1.1898 -0.0137948 0)
(1.18763 -0.0138903 0)
(1.18543 -0.0139995 0)
(1.18319 -0.0141233 0)
(1.18092 -0.0142625 0)
(1.17861 -0.0144182 0)
(1.17626 -0.0145911 0)
(1.17386 -0.014782 0)
(1.17141 -0.0149916 0)
(1.16891 -0.0152206 0)
(1.16636 -0.0154696 0)
(1.16374 -0.015739 0)
(1.16106 -0.0160291 0)
(1.15831 -0.0163401 0)
(1.15548 -0.0166719 0)
(1.15258 -0.0170241 0)
(1.14959 -0.017396 0)
(1.14652 -0.0177867 0)
(1.14335 -0.0181947 0)
(1.14008 -0.0186182 0)
(1.13671 -0.0190544 0)
(1.13323 -0.019501 0)
(1.12964 -0.0199529 0)
(1.12594 -0.0204077 0)
(1.12212 -0.0208567 0)
(1.1182 -0.0212992 0)
(1.11413 -0.0217192 0)
(1.10999 -0.0221226 0)
(1.10568 -0.0224786 0)
(1.10134 -0.0228115 0)
(1.09679 -0.0230574 0)
(1.09232 -0.0232873 0)
(1.08751 -0.0233628 0)
(1.08304 -0.0234661 0)
(1.07793 -0.0232897 0)
(1.07368 -0.0232705 0)
(1.06814 -0.0227237 0)
(1.0645 -0.0226513 0)
(1.05819 -0.0215429 0)
(1.05593 -0.0216152 0)
(1.04807 -0.0196484 0)
(1.21138 -0.0129746 0)
(1.20946 -0.0129865 0)
(1.20752 -0.0130025 0)
(1.20557 -0.0130237 0)
(1.20359 -0.0130508 0)
(1.20159 -0.0130849 0)
(1.19956 -0.013127 0)
(1.19752 -0.0131778 0)
(1.19544 -0.0132384 0)
(1.19335 -0.0133097 0)
(1.19122 -0.0133925 0)
(1.18906 -0.0134878 0)
(1.18687 -0.0135965 0)
(1.18465 -0.0137195 0)
(1.18238 -0.0138576 0)
(1.18008 -0.0140117 0)
(1.17773 -0.0141825 0)
(1.17534 -0.014371 0)
(1.1729 -0.0145777 0)
(1.1704 -0.0148034 0)
(1.16784 -0.0150485 0)
(1.16523 -0.0153136 0)
(1.16254 -0.0155989 0)
(1.15979 -0.0159046 0)
(1.15696 -0.0162305 0)
(1.15405 -0.0165764 0)
(1.15105 -0.0169415 0)
(1.14797 -0.017325 0)
(1.14478 -0.0177253 0)
(1.1415 -0.0181408 0)
(1.13812 -0.0185686 0)
(1.13462 -0.0190067 0)
(1.13101 -0.0194499 0)
(1.12729 -0.019896 0)
(1.12345 -0.0203365 0)
(1.1195 -0.0207705 0)
(1.1154 -0.0211828 0)
(1.11123 -0.0215787 0)
(1.10688 -0.0219287 0)
(1.10251 -0.0222556 0)
(1.09792 -0.0224985 0)
(1.09341 -0.0227244 0)
(1.08856 -0.0228018 0)
(1.08405 -0.0229029 0)
(1.07889 -0.0227357 0)
(1.07459 -0.0227151 0)
(1.06899 -0.0221888 0)
(1.06532 -0.0221122 0)
(1.05893 -0.0210421 0)
(1.05665 -0.0211004 0)
(1.0487 -0.0191963 0)
(1.21261 -0.012562 0)
(1.2107 -0.0125756 0)
(1.20878 -0.0125933 0)
(1.20684 -0.0126159 0)
(1.20488 -0.0126444 0)
(1.20289 -0.0126797 0)
(1.20089 -0.0127227 0)
(1.19885 -0.0127743 0)
(1.1968 -0.0128354 0)
(1.19471 -0.0129069 0)
(1.1926 -0.0129897 0)
(1.19045 -0.0130846 0)
(1.18827 -0.0131926 0)
(1.18605 -0.0133146 0)
(1.1838 -0.0134512 0)
(1.1815 -0.0136035 0)
(1.17916 -0.0137721 0)
(1.17677 -0.0139579 0)
(1.17434 -0.0141615 0)
(1.17184 -0.0143836 0)
(1.16929 -0.0146247 0)
(1.16667 -0.0148852 0)
(1.16399 -0.0151654 0)
(1.16123 -0.0154655 0)
(1.1584 -0.0157853 0)
(1.15548 -0.0161245 0)
(1.15248 -0.0164826 0)
(1.14938 -0.0168585 0)
(1.14619 -0.0172508 0)
(1.14289 -0.017658 0)
(1.13949 -0.0180772 0)
(1.13598 -0.0185064 0)
(1.13235 -0.0189406 0)
(1.12861 -0.0193776 0)
(1.12474 -0.0198093 0)
(1.12077 -0.0202345 0)
(1.11664 -0.0206389 0)
(1.11244 -0.0210269 0)
(1.10806 -0.0213707 0)
(1.10366 -0.0216912 0)
(1.09903 -0.021931 0)
(1.09448 -0.0221526 0)
(1.08959 -0.0222315 0)
(1.08503 -0.0223305 0)
(1.07982 -0.0221723 0)
(1.07548 -0.0221504 0)
(1.06983 -0.0216445 0)
(1.06612 -0.0215638 0)
(1.05966 -0.020532 0)
(1.05736 -0.0205767 0)
(1.04931 -0.0187354 0)
(1.21378 -0.0121506 0)
(1.2119 -0.0121658 0)
(1.21 -0.0121849 0)
(1.20807 -0.0122089 0)
(1.20612 -0.0122385 0)
(1.20416 -0.0122748 0)
(1.20216 -0.0123186 0)
(1.20015 -0.0123707 0)
(1.1981 -0.0124322 0)
(1.19603 -0.0125037 0)
(1.19393 -0.0125863 0)
(1.19179 -0.0126807 0)
(1.18962 -0.0127878 0)
(1.18742 -0.0129085 0)
(1.18517 -0.0130435 0)
(1.18288 -0.0131938 0)
(1.18055 -0.01336 0)
(1.17817 -0.0135429 0)
(1.17573 -0.0137431 0)
(1.17324 -0.0139614 0)
(1.17069 -0.0141981 0)
(1.16807 -0.0144538 0)
(1.16539 -0.0147286 0)
(1.16263 -0.0150228 0)
(1.15979 -0.0153363 0)
(1.15687 -0.0156686 0)
(1.15386 -0.0160193 0)
(1.15076 -0.0163874 0)
(1.14756 -0.0167714 0)
(1.14425 -0.0171699 0)
(1.14083 -0.0175802 0)
(1.13731 -0.0180001 0)
(1.13366 -0.0184251 0)
(1.1299 -0.0188527 0)
(1.12601 -0.0192753 0)
(1.12201 -0.0196914 0)
(1.11786 -0.0200875 0)
(1.11362 -0.0204673 0)
(1.10922 -0.0208046 0)
(1.10478 -0.0211185 0)
(1.10011 -0.0213548 0)
(1.09553 -0.021572 0)
(1.09059 -0.0216523 0)
(1.08599 -0.0217489 0)
(1.08074 -0.0215995 0)
(1.07636 -0.0215762 0)
(1.07064 -0.0210907 0)
(1.0669 -0.0210061 0)
(1.06038 -0.0200125 0)
(1.05805 -0.020044 0)
(1.04991 -0.0182657 0)
(1.21491 -0.0117405 0)
(1.21305 -0.0117571 0)
(1.21116 -0.0117775 0)
(1.20926 -0.0118026 0)
(1.20733 -0.0118332 0)
(1.20537 -0.0118703 0)
(1.2034 -0.0119147 0)
(1.20139 -0.0119673 0)
(1.19936 -0.0120288 0)
(1.1973 -0.0121003 0)
(1.19521 -0.0121824 0)
(1.19309 -0.0122761 0)
(1.19093 -0.0123821 0)
(1.18874 -0.0125013 0)
(1.1865 -0.0126346 0)
(1.18422 -0.0127826 0)
(1.18189 -0.0129461 0)
(1.17952 -0.0131259 0)
(1.17709 -0.0133225 0)
(1.1746 -0.0135367 0)
(1.17205 -0.0137689 0)
(1.16944 -0.0140195 0)
(1.16675 -0.0142887 0)
(1.16399 -0.0145768 0)
(1.16115 -0.0148835 0)
(1.15823 -0.0152087 0)
(1.15521 -0.0155517 0)
(1.1521 -0.0159116 0)
(1.14889 -0.0162871 0)
(1.14557 -0.0166767 0)
(1.14214 -0.0170777 0)
(1.1386 -0.0174881 0)
(1.13493 -0.0179035 0)
(1.13115 -0.0183213 0)
(1.12724 -0.0187344 0)
(1.12322 -0.0191412 0)
(1.11904 -0.0195286 0)
(1.11478 -0.0198999 0)
(1.11034 -0.0202304 0)
(1.10587 -0.0205375 0)
(1.10117 -0.02077 0)
(1.09655 -0.0209825 0)
(1.09157 -0.0210639 0)
(1.08693 -0.0211581 0)
(1.08163 -0.0210173 0)
(1.07721 -0.0209928 0)
(1.07144 -0.0205274 0)
(1.06767 -0.0204393 0)
(1.06107 -0.0194838 0)
(1.05873 -0.0195026 0)
(1.0505 -0.0177873 0)
(1.216 -0.0113316 0)
(1.21415 -0.0113495 0)
(1.21229 -0.011371 0)
(1.2104 -0.0113971 0)
(1.20848 -0.0114285 0)
(1.20655 -0.0114663 0)
(1.20458 -0.0115111 0)
(1.2026 -0.0115639 0)
(1.20058 -0.0116254 0)
(1.19853 -0.0116965 0)
(1.19646 -0.0117781 0)
(1.19435 -0.0118708 0)
(1.1922 -0.0119756 0)
(1.19001 -0.0120932 0)
(1.18779 -0.0122244 0)
(1.18551 -0.0123699 0)
(1.18319 -0.0125306 0)
(1.18082 -0.012707 0)
(1.1784 -0.0128999 0)
(1.17592 -0.0131097 0)
(1.17337 -0.013337 0)
(1.17076 -0.0135823 0)
(1.16807 -0.0138457 0)
(1.16531 -0.0141273 0)
(1.16247 -0.0144271 0)
(1.15954 -0.0147448 0)
(1.15652 -0.0150799 0)
(1.1534 -0.0154314 0)
(1.15018 -0.015798 0)
(1.14685 -0.0161782 0)
(1.14341 -0.0165697 0)
(1.13985 -0.0169702 0)
(1.13617 -0.0173757 0)
(1.13238 -0.0177835 0)
(1.12844 -0.0181868 0)
(1.12439 -0.0185838 0)
(1.12019 -0.0189623 0)
(1.11591 -0.0193249 0)
(1.11144 -0.0196482 0)
(1.10694 -0.0199482 0)
(1.1022 -0.0201767 0)
(1.09755 -0.0203843 0)
(1.09252 -0.0204666 0)
(1.08785 -0.0205582 0)
(1.0825 -0.0204259 0)
(1.07804 -0.0204001 0)
(1.07222 -0.0199548 0)
(1.06841 -0.0198633 0)
(1.06176 -0.0189459 0)
(1.05939 -0.0189524 0)
(1.05108 -0.0173002 0)
(1.21704 -0.0109241 0)
(1.21521 -0.010943 0)
(1.21336 -0.0109655 0)
(1.21149 -0.0109924 0)
(1.20959 -0.0110245 0)
(1.20767 -0.0110627 0)
(1.20573 -0.0111079 0)
(1.20375 -0.0111607 0)
(1.20175 -0.011222 0)
(1.19972 -0.0112926 0)
(1.19766 -0.0113734 0)
(1.19556 -0.011465 0)
(1.19342 -0.0115683 0)
(1.19124 -0.011684 0)
(1.18903 -0.011813 0)
(1.18676 -0.0119559 0)
(1.18445 -0.0121134 0)
(1.18209 -0.0122863 0)
(1.17967 -0.0124751 0)
(1.17719 -0.0126804 0)
(1.17465 -0.0129027 0)
(1.17204 -0.0131423 0)
(1.16935 -0.0133995 0)
(1.16659 -0.0136745 0)
(1.16375 -0.0139671 0)
(1.16081 -0.0142771 0)
(1.15779 -0.0146039 0)
(1.15466 -0.0149466 0)
(1.15143 -0.015304 0)
(1.1481 -0.0156747 0)
(1.14464 -0.0160563 0)
(1.14107 -0.0164467 0)
(1.13738 -0.0168419 0)
(1.13356 -0.0172393 0)
(1.12961 -0.0176325 0)
(1.12554 -0.0180195 0)
(1.12132 -0.0183887 0)
(1.117 -0.0187422 0)
(1.11251 -0.0190581 0)
(1.10797 -0.0193507 0)
(1.1032 -0.0195749 0)
(1.09852 -0.0197774 0)
(1.09346 -0.0198604 0)
(1.08875 -0.0199493 0)
(1.08335 -0.0198253 0)
(1.07886 -0.0197982 0)
(1.07299 -0.0193728 0)
(1.06914 -0.0192782 0)
(1.06242 -0.0183987 0)
(1.06003 -0.0183935 0)
(1.05164 -0.0168044 0)
(1.21804 -0.0105178 0)
(1.21623 -0.0105377 0)
(1.2144 -0.0105609 0)
(1.21254 -0.0105885 0)
(1.21066 -0.0106212 0)
(1.20876 -0.0106597 0)
(1.20683 -0.0107049 0)
(1.20487 -0.0107576 0)
(1.20288 -0.0108186 0)
(1.20086 -0.0108885 0)
(1.19881 -0.0109683 0)
(1.19672 -0.0110586 0)
(1.1946 -0.0111602 0)
(1.19243 -0.011274 0)
(1.19022 -0.0114005 0)
(1.18797 -0.0115405 0)
(1.18567 -0.0116947 0)
(1.18331 -0.0118638 0)
(1.1809 -0.0120483 0)
(1.17842 -0.0122488 0)
(1.17588 -0.0124658 0)
(1.17328 -0.0126995 0)
(1.17059 -0.0129504 0)
(1.16783 -0.0132184 0)
(1.16498 -0.0135035 0)
(1.16205 -0.0138055 0)