/*--------------------------------*- C++ -*----------------------------------*\
  =========                 |
  \\      /  F ield         | OpenFOAM: The Open Source CFD Toolbox
   \\    /   O peration     | Website:  https://openfoam.org
    \\  /    A nd           | Version:  7
     \\/     M anipulation  |
\*---------------------------------------------------------------------------*/
FoamFile
{
    version     2.0;
    format      ascii;
    class       volVectorField;
    location    "25";
    object      U;
}
// * * * * * * * * * * * * * * * * * * * * * * * * * * * * * * * * * * * * * //

dimensions      [0 1 -1 0 0 0 0];

internalField   nonuniform List<vector> 
657
(
(1.00974 -0.0508048 0)
(1.00527 -0.0493595 0)
(1.00105 -0.0478417 0)
(1.20785 0.00778163 0)
(1.19995 -0.00382712 0)
(1.18707 -0.0137269 0)
(1.17429 -0.0221741 0)
(1.16196 -0.0292354 0)
(1.15011 -0.0350837 0)
(1.13883 -0.0399119 0)
(1.12812 -0.043864 0)
(1.11798 -0.0470586 0)
(1.10837 -0.0495935 0)
(1.09927 -0.0515501 0)
(1.09065 -0.0529973 0)
(1.08248 -0.0539942 0)
(1.07473 -0.0545921 0)
(1.06738 -0.0548362 0)
(1.06041 -0.0547675 0)
(1.0538 -0.0544229 0)
(1.04752 -0.0538369 0)
(1.04157 -0.0530413 0)
(1.03592 -0.0520661 0)
(1.03057 -0.0509391 0)
(1.02549 -0.0496863 0)
(1.02068 -0.0483321 0)
(1.01613 -0.0468986 0)
(1.22172 0.0117982 0)
(1.21484 0.000978985 0)
(1.20352 -0.00869788 0)
(1.19178 -0.0172145 0)
(1.18013 -0.0245162 0)
(1.1687 -0.030664 0)
(1.15765 -0.0358034 0)
(1.14706 -0.040059 0)
(1.13693 -0.0435411 0)
(1.12726 -0.0463445 0)
(1.11804 -0.04855 0)
(1.10927 -0.050227 0)
(1.10091 -0.0514356 0)
(1.09294 -0.0522285 0)
(1.08535 -0.0526524 0)
(1.07813 -0.0527495 0)
(1.07124 -0.0525581 0)
(1.06469 -0.0521137 0)
(1.05844 -0.0514493 0)
(1.0525 -0.0505956 0)
(1.04684 -0.0495812 0)
(1.04145 -0.048433 0)
(1.03633 -0.0471759 0)
(1.03146 -0.0458326 0)
(1.23419 0.0154372 0)
(1.22809 0.00536272 0)
(1.21828 -0.00398682 0)
(1.2077 -0.0124262 0)
(1.19692 -0.019842 0)
(1.18611 -0.0262025 0)
(1.17548 -0.0315961 0)
(1.16515 -0.0361191 0)
(1.15517 -0.0398664 0)
(1.14557 -0.0429251 0)
(1.13635 -0.0453723 0)
(1.1275 -0.0472761 0)
(1.11903 -0.0486964 0)
(1.11093 -0.0496862 0)
(1.10317 -0.0502932 0)
(1.09574 -0.0505603 0)
(1.08864 -0.050527 0)
(1.08184 -0.0502295 0)
(1.07535 -0.0497017 0)
(1.06914 -0.0489751 0)
(1.06321 -0.0480791 0)
(1.05754 -0.0470412 0)
(1.05213 -0.0458867 0)
(1.04697 -0.0446393 0)
(1.24526 0.0187518 0)
(1.23982 0.00933988 0)
(1.23138 0.00036805 0)
(1.22201 -0.00788733 0)
(1.21222 -0.0153015 0)
(1.20218 -0.0217808 0)
(1.19214 -0.0273594 0)
(1.18223 -0.0321008 0)
(1.17254 -0.0360795 0)
(1.16312 -0.0393708 0)
(1.154 -0.0420449 0)
(1.1452 -0.0441664 0)
(1.13671 -0.0457932 0)
(1.12854 -0.0469778 0)
(1.12068 -0.0477678 0)
(1.11312 -0.0482065 0)
(1.10585 -0.0483337 0)
(1.09888 -0.0481866 0)
(1.09218 -0.0477994 0)
(1.08575 -0.0472044 0)
(1.07959 -0.0464315 0)
(1.07367 -0.0455087 0)
(1.06801 -0.0444619 0)
(1.06258 -0.0433153 0)
(1.25494 0.0217658 0)
(1.25008 0.0129266 0)
(1.24287 0.00434824 0)
(1.23468 -0.00365372 0)
(1.22594 -0.0109697 0)
(1.21679 -0.0174768 0)
(1.20746 -0.023165 0)
(1.19811 -0.0280665 0)
(1.18885 -0.0322331 0)
(1.17975 -0.0357251 0)
(1.17085 -0.0386033 0)
(1.16219 -0.0409264 0)
(1.15377 -0.042749 0)
(1.14562 -0.0441215 0)
(1.13774 -0.0450904 0)
(1.13012 -0.0456989 0)
(1.12276 -0.0459867 0)
(1.11566 -0.045991 0)
(1.10881 -0.0457466 0)
(1.10221 -0.0452859 0)
(1.09586 -0.0446395 0)
(1.08975 -0.0438356 0)
(1.08386 -0.0429008 0)
(1.07821 -0.0418593 0)
(1.26322 0.0244806 0)
(1.25891 0.0161338 0)
(1.25281 0.00794632 0)
(1.24575 0.000237965 0)
(1.23807 -0.00690593 0)
(1.22987 -0.0133592 0)
(1.22135 -0.0190822 0)
(1.21267 -0.0240805 0)
(1.20395 -0.0283842 0)
(1.19528 -0.0320372 0)
(1.18671 -0.0350894 0)
(1.1783 -0.0375914 0)
(1.17006 -0.039593 0)
(1.16203 -0.0411412 0)
(1.1542 -0.0422808 0)
(1.14659 -0.0430534 0)
(1.13921 -0.0434984 0)
(1.13205 -0.0436527 0)
(1.12512 -0.0435509 0)
(1.11841 -0.0432256 0)
(1.11192 -0.0427073 0)
(1.10565 -0.0420248 0)
(1.0996 -0.0412048 0)
(1.09375 -0.0402718 0)
(1.27008 0.0268824 0)
(1.26635 0.0189649 0)
(1.26124 0.011159 0)
(1.25525 0.00376482 0)
(1.2486 -0.00315432 0)
(1.24137 -0.00948585 0)
(1.23372 -0.0151742 0)
(1.2258 -0.0202056 0)
(1.21772 -0.0245915 0)
(1.20958 -0.0283604 0)
(1.20145 -0.0315498 0)
(1.19339 -0.0342019 0)
(1.18542 -0.0363599 0)
(1.17759 -0.0380667 0)
(1.16991 -0.0393638 0)
(1.1624 -0.0402911 0)
(1.15507 -0.0408865 0)
(1.14792 -0.0411861 0)
(1.14097 -0.041224 0)
(1.13421 -0.0410326 0)
(1.12764 -0.0406424 0)
(1.12127 -0.040082 0)
(1.11509 -0.0393782 0)
(1.10911 -0.0385558 0)
(1.27556 0.0289479 0)
(1.27242 0.0214163 0)
(1.2682 0.013983 0)
(1.26321 0.00691257 0)
(1.25755 0.000253535 0)
(1.25128 -0.00590257 0)
(1.24453 -0.0114957 0)
(1.23742 -0.0164998 0)
(1.23006 -0.0209126 0)
(1.22254 -0.0247488 0)
(1.21493 -0.0280345 0)
(1.20731 -0.0308027 0)
(1.19971 -0.0330894 0)
(1.19217 -0.0349324 0)
(1.18473 -0.0363694 0)
(1.1774 -0.0374375 0)
(1.17019 -0.0381727 0)
(1.16313 -0.0386097 0)
(1.15622 -0.0387817 0)
(1.14947 -0.0387203 0)
(1.14289 -0.0384557 0)
(1.13647 -0.0380162 0)
(1.13022 -0.0374284 0)
(1.12415 -0.0367172 0)
(1.27968 0.0306488 0)
(1.27715 0.0234787 0)
(1.27377 0.0164128 0)
(1.26969 0.00967152 0)
(1.26496 0.00329584 0)
(1.25963 -0.00264416 0)
(1.25377 -0.00809141 0)
(1.2475 -0.0130142 0)
(1.2409 -0.0174008 0)
(1.23406 -0.0212553 0)
(1.22706 -0.0245939 0)
(1.21995 -0.0274404 0)
(1.2128 -0.029824 0)
(1.20564 -0.0317767 0)
(1.19851 -0.0333317 0)
(1.19144 -0.0345228 0)
(1.18444 -0.0353835 0)
(1.17754 -0.0359465 0)
(1.17074 -0.0362437 0)
(1.16407 -0.0363056 0)
(1.15753 -0.0361617 0)
(1.15113 -0.0358397 0)
(1.14488 -0.0353658 0)
(1.13877 -0.0347646 0)
(1.28251 0.0319562 0)
(1.2806 0.0251392 0)
(1.27799 0.0184407 0)
(1.27476 0.0120339 0)
(1.27091 0.00595764 0)
(1.26646 0.000264107 0)
(1.26148 -0.00499651 0)
(1.25605 -0.00979133 0)
(1.25023 -0.0141032 0)
(1.24411 -0.017929 0)
(1.23776 -0.0212765 0)
(1.23124 -0.024162 0)
(1.2246 -0.0266078 0)
(1.21789 -0.0286402 0)
(1.21114 -0.0302877 0)
(1.2044 -0.0315804 0)
(1.19768 -0.0325487 0)
(1.19101 -0.033223 0)
(1.1844 -0.0336335 0)
(1.17788 -0.0338093 0)
(1.17145 -0.0337785 0)
(1.16513 -0.0335683 0)
(1.15892 -0.0332041 0)
(1.15283 -0.03271 0)
(1.2841 0.0328432 0)
(1.28284 0.0263836 0)
(1.28094 0.0200574 0)
(1.2785 0.0139928 0)
(1.27547 0.00822854 0)
(1.27186 0.00280455 0)
(1.26771 -0.002237 0)
(1.26309 -0.00686472 0)
(1.25805 -0.0110593 0)
(1.25267 -0.0148127 0)
(1.247 -0.0181269 0)
(1.24111 -0.0210119 0)
(1.23504 -0.023484 0)
(1.22883 -0.025564 0)
(1.22254 -0.0272759 0)
(1.21619 -0.0286457 0)
(1.20981 -0.0297008 0)
(1.20343 -0.0304689 0)
(1.19708 -0.0309778 0)
(1.19077 -0.0312551 0)
(1.18451 -0.0313275 0)
(1.17833 -0.031221 0)
(1.17223 -0.0309601 0)
(1.16622 -0.0305682 0)
(1.28458 0.0332883 0)
(1.28394 0.0271987 0)
(1.28271 0.0212539 0)
(1.281 0.0155416 0)
(1.27873 0.0101013 0)
(1.27589 0.00496539 0)
(1.27253 0.000168925 0)
(1.26869 -0.00425942 0)
(1.26442 -0.00829998 0)
(1.25977 -0.0119422 0)
(1.2548 -0.015184 0)
(1.24955 -0.0180305 0)
(1.24407 -0.0204931 0)
(1.23842 -0.0225878 0)
(1.23262 -0.0243344 0)
(1.22672 -0.025755 0)
(1.22074 -0.0268736 0)
(1.21472 -0.0277153 0)
(1.20868 -0.0283054 0)
(1.20263 -0.0286695 0)
(1.19661 -0.0288327 0)
(1.19062 -0.0288195 0)
(1.18469 -0.0286534 0)
(1.17881 -0.0283568 0)
(1.28406 0.033277 0)
(1.28402 0.0275751 0)
(1.28341 0.0220229 0)
(1.28238 0.0166754 0)
(1.2808 0.0115713 0)
(1.27868 0.00673954 0)
(1.27605 0.00220969 0)
(1.27295 -0.00199251 0)
(1.26941 -0.00584801 0)
(1.26547 -0.0093451 0)
(1.26118 -0.0124791 0)
(1.25658 -0.0152518 0)
(1.25172 -0.0176706 0)
(1.24664 -0.0197478 0)
(1.24137 -0.021499 0)
(1.23595 -0.022943 0)
(1.23042 -0.0241006 0)
(1.2248 -0.0249939 0)
(1.21911 -0.025646 0)
(1.21339 -0.0260801 0)
(1.20765 -0.0263196 0)
(1.20192 -0.0263874 0)
(1.1962 -0.0263057 0)
(1.19051 -0.0260956 0)
(1.28268 0.0328034 0)
(1.2832 0.0275084 0)
(1.28317 0.0223612 0)
(1.28274 0.0173918 0)
(1.2818 0.0126367 0)
(1.28034 0.00812405 0)
(1.27839 0.00387938 0)
(1.27597 -7.40774e-05 0)
(1.27311 -0.0037182 0)
(1.26985 -0.0070409 0)
(1.26622 -0.010036 0)
(1.26226 -0.0127029 0)
(1.25801 -0.0150462 0)
(1.25351 -0.0170749 0)
(1.24878 -0.0188014 0)
(1.24387 -0.0202415 0)
(1.23881 -0.021413 0)
(1.23362 -0.0223352 0)
(1.22834 -0.0230287 0)
(1.22298 -0.0235148 0)
(1.21757 -0.0238147 0)
(1.21213 -0.0239495 0)
(1.20667 -0.02394 0)
(1.20123 -0.0238062 0)
(1.2806 0.0318712 0)
(1.28163 0.027001 0)
(1.28213 0.0222706 0)
(1.28225 0.0176923 0)
(1.28188 0.0132995 0)
(1.28102 0.00911999 0)
(1.27968 0.00517713 0)
(1.27788 0.00149204 0)
(1.27566 -0.00191811 0)
(1.27303 -0.00504121 0)
(1.27002 -0.00787023 0)
(1.26667 -0.010403 0)
(1.26301 -0.012642 0)
(1.25908 -0.0145936 0)
(1.2549 -0.0162679 0)
(1.2505 -0.0176778 0)
(1.24593 -0.0188384 0)
(1.24119 -0.0197667 0)
(1.23633 -0.0204809 0)
(1.23136 -0.0209999 0)
(1.22631 -0.0213432 0)
(1.2212 -0.0215301 0)
(1.21605 -0.0215797 0)
(1.21088 -0.0215104 0)
(1.27799 0.0304926 0)
(1.27948 0.0260624 0)
(1.28045 0.021759 0)
(1.28105 0.0175837 0)
(1.2812 0.0135657 0)
(1.28086 0.00973278 0)
(1.28007 0.00610697 0)
(1.27884 0.0027077 0)
(1.27719 -0.000448729 0)
(1.27514 -0.00335032 0)
(1.27271 -0.00598957 0)
(1.26993 -0.00836326 0)
(1.26684 -0.0104722 0)
(1.26345 -0.0123211 0)
(1.25979 -0.0139177 0)
(1.2559 -0.0152728 0)
(1.25181 -0.0163991 0)
(1.24753 -0.0173114 0)
(1.2431 -0.0180257 0)
(1.23854 -0.018559 0)
(1.23387 -0.0189285 0)
(1.22912 -0.019152 0)
(1.2243 -0.0192467 0)
(1.21943 -0.0192296 0)
(1.27503 0.0286881 0)
(1.27691 0.0247091 0)
(1.27828 0.0208403 0)
(1.27931 0.0170778 0)
(1.2799 0.0134461 0)
(1.28004 0.0099724 0)
(1.27974 0.00667768 0)
(1.27901 0.00358008 0)
(1.27787 0.000695017 0)
(1.27634 -0.00196574 0)
(1.27444 -0.00439442 0)
(1.27218 -0.00658707 0)
(1.2696 -0.0085434 0)
(1.26672 -0.0102665 0)
(1.26356 -0.0117626 0)
(1.26016 -0.0130404 0)
(1.25652 -0.0141108 0)
(1.2527 -0.0149865 0)
(1.24869 -0.0156816 0)
(1.24454 -0.0162109 0)
(1.24026 -0.01659 0)
(1.23587 -0.0168348 0)
(1.2314 -0.0169607 0)
(1.22686 -0.0169834 0)
(1.27188 0.026484 0)
(1.27408 0.0229629 0)
(1.27581 0.0195343 0)
(1.2772 0.0161922 0)
(1.27817 0.0129567 0)
(1.27871 0.00985351 0)
(1.27884 0.0069028 0)
(1.27855 0.00412138 0)
(1.27786 0.00152373 0)
(1.27679 -0.000878817 0)
(1.27535 -0.00307839 0)
(1.27357 -0.00507057 0)
(1.27146 -0.00685422 0)
(1.26904 -0.00843127 0)
(1.26634 -0.00980646 0)
(1.26338 -0.0109869 0)
(1.26019 -0.011982 0)
(1.25678 -0.0128024 0)
(1.25319 -0.0134603 0)
(1.24943 -0.013969 0)
(1.24553 -0.0143421 0)
(1.24151 -0.0145936 0)
(1.23738 -0.0147376 0)
(1.23317 -0.0147877 0)
(1.26871 0.0239096 0)
(1.27117 0.0208497 0)
(1.27319 0.0178645 0)
(1.27487 0.0149485 0)
(1.27617 0.0121175 0)
(1.27706 0.0093952 0)
(1.27754 0.0068004 0)
(1.27763 0.00434857 0)
(1.27734 0.00205309 0)
(1.27667 -7.53431e-05 0)
(1.27563 -0.002029 0)
(1.27426 -0.00380324 0)
(1.27256 -0.0053963 0)
(1.27055 -0.00680921 0)
(1.26826 -0.00804553 0)
(1.26571 -0.00911104 0)
(1.26291 -0.0100134 0)
(1.2599 -0.0107619 0)
(1.25669 -0.0113669 0)
(1.2533 -0.01184 0)
(1.24976 -0.0121929 0)
(1.24609 -0.012438 0)
(1.2423 -0.0125877 0)
(1.23842 -0.012654 0)
(1.26566 0.0209947 0)
(1.26832 0.018397 0)
(1.27058 0.0158572 0)
(1.2725 0.0133716 0)
(1.27406 0.0109524 0)
(1.27524 0.00862038 0)
(1.27602 0.0063926 0)
(1.27643 0.00428297 0)
(1.27646 0.00230351 0)
(1.27613 0.00046403 0)
(1.27544 -0.00122818 0)
(1.27442 -0.00276849 0)
(1.27307 -0.00415478 0)
(1.27142 -0.00538737 0)
(1.26949 -0.00646883 0)
(1.26729 -0.00740373 0)
(1.26485 -0.00819834 0)
(1.26218 -0.00886038 0)
(1.25931 -0.0093987 0)
(1.25627 -0.00982299 0)
(1.25306 -0.0101435 0)
(1.24971 -0.0103708 0)
(1.24623 -0.0105154 0)
(1.24265 -0.010588 0)
(1.26286 0.0177673 0)
(1.26568 0.0156316 0)
(1.26811 0.0135393 0)
(1.27023 0.0114882 0)
(1.272 0.00948776 0)
(1.2734 0.00755506 0)
(1.27444 0.00570505 0)
(1.2751 0.00394979 0)
(1.2754 0.00229965 0)
(1.27535 0.000763243 0)
(1.27495 -0.000652875 0)
(1.27422 -0.00194434 0)
(1.27317 -0.00310892 0)
(1.27182 -0.00414645 0)
(1.27018 -0.00505868 0)
(1.26828 -0.0058491 0)
(1.26614 -0.00652271 0)
(1.26377 -0.00708576 0)
(1.2612 -0.00754551 0)
(1.25845 -0.00790996 0)
(1.25553 -0.00818765 0)
(1.25246 -0.0083874 0)
(1.24927 -0.00851811 0)
(1.24597 -0.00858858 0)
(1.26043 0.0142515 0)
(1.26336 0.0125789 0)
(1.26594 0.0109373 0)
(1.2682 0.00932595 0)
(1.27013 0.00775159 0)
(1.27171 0.00622769 0)
(1.27293 0.00476645 0)
(1.2738 0.00337774 0)
(1.27431 0.00207003 0)
(1.27448 0.000850478 0)
(1.27431 -0.000275401 0)
(1.27381 -0.0013038 0)
(1.273 -0.00223262 0)
(1.27188 -0.0030614 0)
(1.27049 -0.00379126 0)
(1.26884 -0.00442475 0)
(1.26694 -0.00496565 0)
(1.26482 -0.0054188 0)
(1.26249 -0.00578988 0)
(1.25998 -0.0060852 0)
(1.2573 -0.00631154 0)
(1.25448 -0.00647591 0)
(1.25153 -0.00658543 0)
(1.24847 -0.00664712 0)
(1.25848 0.0104676 0)
(1.26148 0.00926219 0)
(1.26416 0.00807715 0)
(1.26653 0.00691283 0)
(1.26857 0.00577357 0)
(1.27028 0.00466904 0)
(1.27164 0.00360835 0)
(1.27265 0.0025989 0)
(1.27333 0.00164703 0)
(1.27366 0.000758132 0)
(1.27366 -6.35662e-05 0)
(1.27333 -0.000815042 0)
(1.2727 -0.00149457 0)
(1.27177 -0.00210165 0)
(1.27057 -0.00263691 0)
(1.2691 -0.00310206 0)
(1.26739 -0.00349975 0)
(1.26545 -0.00383343 0)
(1.26331 -0.00410718 0)
(1.26099 -0.00432561 0)
(1.25851 -0.00449364 0)
(1.25588 -0.00461642 0)
(1.25312 -0.00469916 0)
(1.25024 -0.00474703 0)
(1.2571 0.00643478 0)
(1.26014 0.00570468 0)
(1.26288 0.00498578 0)
(1.26532 0.00427856 0)
(1.26743 0.00358555 0)
(1.26922 0.00291267 0)
(1.27068 0.00226565 0)
(1.27179 0.00164917 0)
(1.27257 0.00106722 0)
(1.27301 0.000523203 0)
(1.27313 1.98119e-05 0)
(1.27292 -0.000440961 0)
(1.27241 -0.00085799 0)
(1.27161 -0.00123087 0)
(1.27053 -0.00155991 0)
(1.26919 -0.00184609 0)
(1.2676 -0.00209097 0)
(1.2658 -0.00229662 0)
(1.26379 -0.00246554 0)
(1.2616 -0.00260052 0)
(1.25925 -0.00270459 0)
(1.25675 -0.00278091 0)
(1.25413 -0.00283269 0)
(1.25139 -0.00286311 0)
(1.25639 0.00217969 0)
(1.25944 0.00193454 0)
(1.26221 0.00169297 0)
(1.26467 0.00145509 0)
(1.26682 0.00122172 0)
(1.26865 0.000994872 0)
(1.27015 0.000776539 0)
(1.27132 0.00056835 0)
(1.27215 0.000371685 0)
(1.27265 0.000187721 0)
(1.27282 1.73995e-05 0)
(1.27268 -0.000138587 0)
(1.27223 -0.000279834 0)
(1.27149 -0.000406188 0)
(1.27048 -0.000517736 0)
(1.2692 -0.000614794 0)
(1.26769 -0.000697883 0)
(1.26595 -0.000767697 0)
(1.26401 -0.000825071 0)
(1.26189 -0.000870953 0)
(1.25961 -0.000906366 0)
(1.25718 -0.000932382 0)
(1.25462 -0.000950089 0)
(1.25196 -0.000960571 0)
(1.2492 -0.000964882 0)
(1.21742 0.0163372 -4.11988e-20)
(1.22911 0.0197158 8.57535e-20)
(1.20754 0.0104651 2.89708e-19)
(1.23967 0.0230577 -6.71676e-20)
(1.22068 0.0139819 -1.93735e-19)
(1.24907 0.0262768 1.38551e-20)
(1.23265 0.0175141 4.83757e-20)
(1.25736 0.02933 9.53314e-20)
(1.24342 0.0209663 5.66827e-23)
(1.26454 0.032172 1.331e-20)
(1.25294 0.0242543 -1.1304e-19)
(1.2706 0.034753 -1.70616e-19)
(1.26119 0.0273064 1.46046e-19)
(1.27556 0.037027 3.6832e-20)
(1.26814 0.0300649 -4.90128e-20)
(1.27942 0.0389523 1.12105e-19)
(1.27379 0.0324817 -1.37466e-19)
(1.28219 0.0404912 1.75552e-20)
(1.27817 0.0345151 1.08235e-19)
(1.28392 0.041611 -7.24911e-20)
(1.2813 0.0361291 -4.05963e-20)
(1.28466 0.0422853 -7.82102e-20)
(1.28324 0.037293 -1.14759e-20)
(1.28448 0.0424946 2.62094e-21)
(1.28407 0.037983 -3.23371e-20)
(1.28346 0.0422279 9.55267e-20)
(1.28388 0.0381826 1.12263e-19)
(1.28173 0.0414828 -6.77437e-21)
(1.2828 0.0378844 -8.2842e-20)
(1.2794 0.0402661 -2.60128e-20)
(1.28097 0.0370903 4.79892e-20)
(1.27661 0.038593 -9.54922e-21)
(1.27853 0.035812 1.17346e-20)
(1.2735 0.0364862 1.5161e-20)
(1.27566 0.0340701 -1.38191e-20)
(1.27021 0.0339739 -8.7686e-21)
(1.27251 0.031892 -1.16044e-20)
(1.26688 0.0310872 1.70517e-20)
(1.26924 0.0293101 1.3214e-20)
(1.26362 0.0278573 -2.10495e-20)
(1.266 0.0263583 9.88451e-21)
(1.26056 0.0243125 2.43323e-21)
(1.26292 0.0230688 -9.44842e-21)
(1.2578 0.0204763 1.25239e-20)
(1.26011 0.0194699 6.18937e-21)
(1.25542 0.016366 -3.99417e-21)
(1.25769 0.0155845 -7.80419e-21)
(1.25352 0.0119923 5.68034e-21)
(1.25575 0.0114292 5.90037e-21)
(1.25218 0.00736289 -1.96244e-21)
(1.25439 0.0070183 -3.27804e-21)
(1.25148 0.00249887 -2.89865e-23)
(1.25369 0.00237662 6.06103e-22)
)
;

boundaryField
{
    inlet
    {
        type            uniformFixedValue;
        uniformValue    constant (1 0 0);
        value           nonuniform 0();
    }
    outlet
    {
        type            pressureInletOutletVelocity;
        value           nonuniform 0();
    }
    cylinder
    {
        type            fixedValue;
        value           nonuniform 0();
    }
    top
    {
        type            symmetryPlane;
    }
    bottom
    {
        type            symmetryPlane;
    }
    defaultFaces
    {
        type            empty;
    }
    procBoundary14to9
    {
        type            processor;
        value           nonuniform List<vector> 8((1.23309 0.0251863 -1.07551e-21) (1.24264 0.0285229 -1.05394e-19) (1.25129 0.0317042 4.62802e-20) (1.25897 0.0346719 1.07982e-19) (1.26567 0.0373989 5.69788e-21) (1.27136 0.0398568 -5.34973e-20) (1.27605 0.0420089 -5.0929e-20) (1.27973 0.0438192 1.03057e-19));
    }
    procBoundary14to10
    {
        type            processor;
        value           nonuniform List<vector> 
29
(
(0.994263 -0.0517934 0)
(0.990145 -0.0502634 0)
(0.986284 -0.0486674 0)
(1.19254 0.00329697 0)
(1.19254 0.00329697 0)
(1.18331 -0.00906081 0)
(1.16891 -0.0190075 0)
(1.15534 -0.0272053 0)
(1.14258 -0.0339041 0)
(1.13053 -0.0393827 0)
(1.1192 -0.0438601 0)
(1.10855 -0.0474872 0)
(1.09853 -0.0503834 0)
(1.08909 -0.0526454 0)
(1.0802 -0.0543528 0)
(1.07182 -0.0555727 0)
(1.06391 -0.0563621 0)
(1.05644 -0.0567701 0)
(1.04938 -0.0568404 0)
(1.04271 -0.056612 0)
(1.03641 -0.0561207 0)
(1.03045 -0.0553996 0)
(1.02482 -0.0544794 0)
(1.0195 -0.0533892 0)
(1.01448 -0.0521559 0)
(1.01448 -0.0521559 0)
(1.20463 0.0130329 -1.02943e-20)
(1.19333 0.00710975 1.62421e-19)
(1.19333 0.00710975 1.62421e-19)
)
;
    }
    procBoundary14to11
    {
        type            processor;
        value           uniform (0.997084 -0.0462714 0);
    }
    procBoundary14to13
    {
        type            processor;
        value           nonuniform List<vector> 
19
(
(1.2824 0.0452552 6.00996e-20)
(1.2841 0.0462887 6.5256e-20)
(1.28488 0.0468963 -1.18925e-19)
(1.28477 0.0470605 4.34916e-20)
(1.28387 0.0467706 -2.6753e-21)
(1.28227 0.0460233 -1.73683e-20)
(1.28006 0.0448232 -4.63309e-21)
(1.27737 0.0431821 1.61918e-20)
(1.27433 0.0411192 -9.86663e-21)
(1.27106 0.0386587 1.84322e-20)
(1.26768 0.0358286 -3.03741e-20)
(1.26432 0.0326577 2.38779e-20)
(1.26107 0.0291735 5.0858e-22)
(1.25805 0.0253994 -9.41856e-21)
(1.25533 0.0213532 8.70546e-22)
(1.253 0.0170461 -1.2262e-20)
(1.25114 0.0124827 8.13375e-21)
(1.24982 0.00766441 -9.14397e-22)
(1.24913 0.00260765 1.45643e-21)
)
;
    }
    procBoundary14to15
    {
        type            processor;
        value           nonuniform List<vector> 
26
(
(1.01182 -0.0454064 0)
(1.02683 -0.0444243 0)
(1.04204 -0.0433203 0)
(1.05738 -0.0420908 0)
(1.07277 -0.0407336 0)
(1.08812 -0.0392486 0)
(1.10331 -0.0376376 0)
(1.11825 -0.0359053 0)
(1.13281 -0.0340589 0)
(1.14687 -0.0321085 0)
(1.16031 -0.0300672 0)
(1.17301 -0.0279507 0)
(1.18487 -0.0257773 0)
(1.19579 -0.0235668 0)
(1.2057 -0.0213398 0)
(1.21453 -0.019117 0)
(1.22226 -0.0169174 0)
(1.22889 -0.0147573 0)
(1.23445 -0.0126488 0)
(1.23899 -0.0105987 0)
(1.24258 -0.00860739 0)
(1.24531 -0.00666785 0)
(1.24727 -0.00476507 0)
(1.24855 -0.00287529 0)
(1.24855 -0.00287529 0)
(1.24635 -0.000964029 0)
)
;
    }
}


// ************************************************************************* //
