/*--------------------------------*- C++ -*----------------------------------*\
  =========                 |
  \\      /  F ield         | OpenFOAM: The Open Source CFD Toolbox
   \\    /   O peration     | Website:  https://openfoam.org
    \\  /    A nd           | Version:  7
     \\/     M anipulation  |
\*---------------------------------------------------------------------------*/
FoamFile
{
    version     2.0;
    format      ascii;
    class       volVectorField;
    location    "10";
    object      U;
}
// * * * * * * * * * * * * * * * * * * * * * * * * * * * * * * * * * * * * * //

dimensions      [0 1 -1 0 0 0 0];

internalField   nonuniform List<vector> 
12100
(
(-0.0090262 0.00344232 -2.23138e-20)
(-0.0380121 0.00591155 -2.65554e-20)
(-0.0778202 0.00678649 3.28676e-21)
(-0.114773 0.00707616 -8.44159e-21)
(-0.15076 0.00720652 4.11452e-20)
(-0.184901 0.00735548 1.30556e-20)
(-0.217998 0.00755589 -1.83452e-20)
(-0.250317 0.00778946 1.98144e-20)
(-0.282057 0.00801381 -2.7521e-20)
(-0.313152 0.00817379 1.62783e-20)
(-0.343328 0.00820373 8.62157e-21)
(-0.372068 0.00802785 3.17172e-21)
(-0.398626 0.0075623 -1.05662e-20)
(-0.422034 0.00672272 -6.14108e-21)
(-0.441074 0.00540517 -4.06034e-21)
(-0.454405 0.00356521 1.69264e-20)
(-0.460337 0.00108427 -1.97319e-20)
(-0.457198 -0.00217913 -4.07243e-21)
(-0.444614 -0.00528923 4.55797e-21)
(-0.417146 -0.0102774 -1.25516e-20)
(-0.0093081 0.0102267 1.13172e-21)
(-0.038001 0.0175949 -1.6762e-20)
(-0.0770114 0.020212 -3.48658e-20)
(-0.11295 0.0210697 2.81234e-20)
(-0.147657 0.0214401 1.79949e-20)
(-0.180217 0.021856 2.7915e-21)
(-0.211365 0.0224174 5.30878e-20)
(-0.241302 0.0230706 -8.6431e-20)
(-0.270157 0.0236893 5.34172e-20)
(-0.297791 0.0241093 -4.23997e-20)
(-0.32386 0.0241361 5.0673e-21)
(-0.347785 0.0235476 -2.5617e-20)
(-0.368769 0.0220987 9.41068e-21)
(-0.385842 0.0195544 1.92691e-20)
(-0.397778 0.0156065 3.24951e-20)
(-0.403385 0.0101412 1.97371e-20)
(-0.401229 0.00291485 5.4486e-20)
(-0.388985 -0.00691951 4.90243e-21)
(-0.369316 -0.0156179 -4.24849e-20)
(-0.33016 -0.0308303 2.90651e-20)
(-0.0098606 0.0167185 -6.35582e-21)
(-0.0379895 0.0288675 -2.40196e-20)
(-0.07544 0.0332014 3.41632e-20)
(-0.109392 0.0345938 2.63597e-20)
(-0.141592 0.0351448 -8.91132e-20)
(-0.171074 0.0357385 1.16796e-20)
(-0.198448 0.0365466 -8.91824e-20)
(-0.223802 0.0374839 7.32112e-21)
(-0.247146 0.0383434 -2.04981e-20)
(-0.268231 0.0388565 4.20595e-20)
(-0.28661 0.0387082 -1.29264e-20)
(-0.301629 0.0375447 1.53822e-20)
(-0.312438 0.0349762 -1.58279e-20)
(-0.318126 0.0306663 -3.06595e-20)
(-0.317476 0.024117 -3.58158e-20)
(-0.309512 0.0151756 -4.4199e-20)
(-0.293825 0.00390231 -8.89165e-20)
(-0.265269 -0.0124595 3.22086e-20)
(-0.235619 -0.0256693 2.65292e-20)
(-0.176149 -0.0509364 7.89661e-20)
(-0.0106624 0.0227426 3.1983e-20)
(-0.037998 0.0394735 1.27166e-19)
(-0.0731941 0.0454773 -4.12535e-20)
(-0.104263 0.0473499 -8.41735e-20)
(-0.13284 0.0479876 -4.87739e-20)
(-0.157899 0.0486198 6.80961e-20)
(-0.1799 0.049498 8.57428e-20)
(-0.198795 0.0505126 -6.18728e-21)
(-0.214467 0.051384 -1.82307e-21)
(-0.22656 0.0517486 -1.2083e-19)
(-0.234546 0.0511853 -5.84163e-20)
(-0.23775 0.0492338 2.76776e-20)
(-0.235314 0.0453775 3.31392e-21)
(-0.226529 0.0392464 2.81496e-20)
(-0.210248 0.0301806 -8.61828e-20)
(-0.185394 0.017989 3.37209e-20)
(-0.154484 0.00348849 4.95263e-20)
(-0.105041 -0.018628 5.59598e-20)
(-0.0666638 -0.0370452 -2.94347e-20)
(0.0178733 -0.067839 -6.45755e-20)
(-0.0116843 0.0281496 -8.71244e-20)
(-0.0380546 0.0491813 -2.4829e-20)
(-0.0703969 0.0567807 7.39587e-20)
(-0.0977942 0.0590579 3.85097e-20)
(-0.121774 0.0596606 1.89296e-19)
(-0.141274 0.0601545 -1.76346e-19)
(-0.156598 0.0608812 -9.98229e-20)
(-0.167576 0.0617186 -4.83214e-21)
(-0.173987 0.0623274 -2.03536e-21)
(-0.175412 0.0622653 2.45811e-20)
(-0.171307 0.0610261 3.70793e-20)
(-0.161073 0.0580766 -1.01324e-19)
(-0.143896 0.0527916 1.24999e-19)
(-0.119436 0.0448351 6.50304e-20)
(-0.0867826 0.0334004 1.02078e-19)
(-0.043908 0.0185487 -2.42804e-21)
(0.00107226 -3.51325e-05 -2.4675e-20)
(0.0724844 -0.0243727 2.85368e-21)
(0.117671 -0.0497115 -3.56411e-20)
(0.228758 -0.0817842 -6.19465e-20)
(-0.012892 0.0328233 5.66986e-20)
(-0.0381925 0.0577918 4.59284e-21)
(-0.0671957 0.066878 -1.37864e-19)
(-0.0902623 0.0694629 -6.80885e-20)
(-0.108842 0.0698892 -2.23433e-19)
(-0.121878 0.0700449 -7.92498e-21)
(-0.129544 0.0703733 -1.1531e-20)
(-0.131587 0.0707563 -1.98253e-20)
(-0.127728 0.0708131 9.08804e-21)
(-0.117554 0.0700446 2.51763e-20)
(-0.100575 0.067886 2.04747e-19)
(-0.0763735 0.0637652 -9.60353e-22)
(-0.044194 0.0569808 7.54784e-20)
(-0.00416323 0.0472557 -1.86713e-19)
(0.0442404 0.0334525 2.4081e-20)
(0.104338 0.0169424 -3.89856e-20)
(0.161697 -0.0067183 -3.09537e-20)
(0.255188 -0.0305331 2.90114e-20)
(0.303206 -0.0615759 -6.26144e-20)
(0.441076 -0.0950253 6.06215e-20)
(-0.0142494 0.036686 -1.45245e-19)
(-0.038446 0.0651452 -2.55402e-19)
(-0.0637494 0.0755672 9.16546e-20)
(-0.0819639 0.0783413 -2.54738e-20)
(-0.0945149 0.0784374 2.01155e-19)
(-0.100415 0.0780468 1.94391e-19)
(-0.099751 0.0777262 -6.71653e-20)
(-0.092237 0.0773799 9.38787e-20)
(-0.0775979 0.0766084 -1.29967e-19)
(-0.0554848 0.0748814 1.56554e-20)
(-0.0255086 0.0716078 -4.23181e-20)
(0.0124968 0.0661774 6.70906e-20)
(0.0592464 0.0578682 -2.66615e-21)
(0.114095 0.0465924 -6.50171e-20)
(0.177277 0.0302472 1.71436e-19)
(0.253613 0.0131038 -6.70216e-20)
(0.322315 -0.0149355 -5.64808e-20)
(0.435172 -0.0382545 8.75935e-20)
(0.486703 -0.0729601 3.23203e-20)
(0.64489 -0.106552 1.35751e-19)
(-0.015722 0.0397014 1.07597e-19)
(-0.0388468 0.0711261 1.17595e-19)
(-0.0602128 0.0826834 8.10992e-20)
(-0.0731883 0.0855051 2.88257e-19)
(-0.0792443 0.0851126 -6.39557e-20)
(-0.0775343 0.0839742 9.73059e-20)
(-0.0681146 0.0827706 1.27458e-19)
(-0.0507144 0.081448 -1.61285e-19)
(-0.0251044 0.0796131 3.95479e-19)
(0.00896541 0.0767278 5.53473e-21)
(0.0517665 0.0722061 -2.61465e-19)
(0.103224 0.0654139 -2.72044e-20)
(0.164126 0.055592 -2.64356e-19)
(0.23319 0.0431668 1.27346e-19)
(0.310921 0.0243599 -9.56731e-20)
(0.401697 0.00720199 1.00555e-19)
(0.483896 -0.0239809 1.40372e-19)
(0.609126 -0.0465505 5.32424e-20)
(0.668629 -0.0834532 -1.46947e-19)
(0.834526 -0.114623 -1.21674e-19)
(-0.0172799 0.0418735 -5.29206e-20)
(-0.0394188 0.0756662 3.08775e-20)
(-0.0567198 0.0881039 -2.46456e-19)
(-0.0641849 0.0908077 -1.40932e-19)
(-0.0634073 0.0897695 -1.12631e-19)
(-0.0537497 0.0877034 -6.30014e-20)
(-0.0352839 0.085421 -3.10911e-19)
(-0.00778404 0.0829309 5.65429e-20)
(0.0289232 0.0798714 -3.23308e-19)
(0.0750054 0.0757186 -9.35885e-20)
(0.130658 0.0699219 6.08798e-20)
(0.195615 0.0618793 1.12795e-19)
(0.270805 0.0507082 -3.49797e-20)
(0.354149 0.0375282 1.35657e-19)
(0.447184 0.0170038 7.81088e-21)
(0.550192 -0.000178462 -1.50461e-19)
(0.648167 -0.0324487 9.63915e-21)
(0.776568 -0.0537208 -2.0911e-19)
(0.846827 -0.0912971 3.94617e-20)
(1.00273 -0.117264 -7.77623e-20)
(-0.0189005 0.0432438 2.01981e-19)
(-0.0401731 0.0787448 2.29293e-19)
(-0.0533649 0.0917526 5.9898e-20)
(-0.0551281 0.0941488 2.44946e-19)
(-0.0472465 0.0923168 6.83173e-20)
(-0.0293394 0.0891791 1.52823e-19)
(-0.00151425 0.0856854 1.72843e-19)
(0.0364213 0.0819272 1.60647e-19)
(0.0846204 0.0776019 1.50281e-19)
(0.14323 0.0722269 -1.24698e-19)
(0.212405 0.0653227 1.9712e-19)
(0.291774 0.0563392 1.97202e-19)
(0.382111 0.0442689 2.5921e-19)
(0.48045 0.0307329 -2.51282e-19)
(0.588906 0.0098582 2.24747e-20)
(0.701911 -0.00725823 2.20315e-19)
(0.813027 -0.0384345 -7.83606e-20)
(0.935115 -0.0577292 4.17116e-22)
(1.01193 -0.0941853 -5.69491e-21)
(1.13933 -0.113522 9.71148e-20)
(-0.0205695 0.0438847 -1.26573e-19)
(-0.0411014 0.0803862 -2.0824e-19)
(-0.0501838 0.093604 3.60105e-19)
(-0.0460781 0.095481 -3.67936e-19)
(-0.0308041 0.0927243 -2.62602e-19)
(-0.00424436 0.0884261 -1.13324e-19)
(0.0334845 0.0836821 -4.961e-20)
(0.0825998 0.0786906 -2.74339e-19)
(0.143302 0.0732408 -1.63185e-19)
(0.215767 0.0669262 -2.65525e-20)
(0.300011 0.0593334 -8.58727e-20)
(0.395445 0.0499883 -5.83207e-20)
(0.501883 0.0378219 -1.40049e-19)
(0.615422 0.0245497 -6.9415e-20)
(0.736492 0.00476494 2.58072e-20)
(0.855544 -0.0116842 -1.37822e-19)
(0.970229 -0.0401927 1.51632e-20)
(1.07712 -0.057124 6.71927e-21)
(1.14891 -0.0909289 -9.64008e-20)
(1.23601 -0.104279 6.44787e-20)
(-0.0222812 0.0438921 1.18505e-19)
(-0.0421688 0.0806541 9.22588e-20)
(-0.0471328 0.0936851 -4.18138e-19)
(-0.0369413 0.094817 -1.39958e-19)
(-0.0138516 0.0910349 1.48532e-19)
(0.0220378 0.0855663 -7.87679e-20)
(0.0706827 0.0796658 2.13566e-19)
(0.132408 0.0736699 2.05291e-19)
(0.207481 0.0674913 -2.70808e-19)
(0.29598 0.0608167 -8.58063e-20)
(0.397369 0.0532662 2.72943e-19)
(0.51025 0.0444223 -3.13593e-19)
(0.632301 0.0332074 -2.86493e-19)
(0.758391 0.0209857 4.01419e-19)
(0.885164 0.00334975 -8.90119e-20)
(1.00235 -0.0118382 4.5567e-20)
(1.10719 -0.0371031 6.1269e-20)
(1.1913 -0.0518558 -5.29362e-20)
(1.24573 -0.0825476 1.42763e-19)
(1.29249 -0.0917973 1.69237e-19)
(-0.0240365 0.0433748 -3.79662e-19)
(-0.0433092 0.079652 -3.62958e-19)
(-0.0440656 0.0920713 2.67568e-19)
(-0.0274291 0.0922356 1.68984e-19)
(0.00417532 0.0873782 8.98793e-20)
(0.05054 0.0808421 -7.35166e-20)
(0.111802 0.0740635 -1.32616e-19)
(0.188411 0.0675519 6.7493e-20)
(0.280501 0.0613528 9.35371e-21)
(0.387518 0.0552156 1.35612e-19)
(0.507496 0.0487364 -1.56221e-19)
(0.637092 0.0413575 -6.63405e-20)
(0.770971 0.032059 2.21764e-19)
(0.902372 0.0214017 -2.92679e-19)
(1.02451 0.00629235 -1.67876e-20)
(1.12895 -0.00772813 1.20607e-19)
(1.21243 -0.0300761 -4.82663e-20)
(1.26959 -0.0434091 -5.89471e-20)
(1.30143 -0.0714855 7.48927e-21)
(1.3175 -0.0783652 -7.7791e-20)
(-0.0258368 0.0424446 5.87989e-20)
(-0.0444199 0.0775142 3.81064e-19)
(-0.0407163 0.0888831 -1.18368e-19)
(-0.0170201 0.0878869 -1.51304e-20)
(0.0242288 0.0819872 -1.16964e-19)
(0.0828625 0.0746449 -4.40922e-20)
(0.159248 0.0675138 3.97398e-20)
(0.253731 0.0612871 1.3023e-19)
(0.365657 0.0561004 3.7137e-20)
(0.492722 0.0516301 -2.82202e-19)
(0.630313 0.0472955 1.68169e-19)
(0.772059 0.0421026 9.87526e-20)
(0.909772 0.0351253 -1.29055e-19)
(1.03557 0.0258702 2.04648e-19)
(1.14203 0.0128345 1.56731e-19)
(1.22443 -0.000820166 -4.10046e-20)
(1.28142 -0.0209606 6.7847e-22)
(1.31327 -0.033865 -6.79806e-21)
(1.32579 -0.0598675 -1.86149e-19)
(1.32349 -0.0653445 -2.46004e-19)
(-0.0276795 0.0412081 3.3137e-19)
(-0.0453472 0.0743844 -9.44518e-20)
(-0.0366909 0.0842906 -2.39573e-19)
(-0.00493809 0.0819986 3.16948e-19)
(0.0476648 0.0752134 2.79427e-19)
(0.121117 0.0675436 2.0147e-19)
(0.21583 0.0608868 1.85776e-19)
(0.331321 0.0560661 -6.47965e-20)
(0.464851 0.0531388 1.19638e-19)
(0.610868 0.0514245 1.14646e-19)
(0.761151 0.0499148 -9.75346e-20)
(0.906333 0.0470003 6.9889e-20)
(1.03701 0.0418543 6.01135e-20)
(1.1462 0.0331884 -4.71152e-20)
(1.2292 0.0212048 1.064e-19)
(1.28601 0.00701032 -1.18745e-19)
(1.3186 -0.0114489 1.41682e-19)
(1.33159 -0.0246914 2.70049e-19)
(1.33165 -0.0486387 1.31167e-19)
(1.32033 -0.0532506 2.00969e-19)
(-0.0295541 0.0397569 -1.04495e-19)
(-0.0458788 0.0704069 5.67492e-20)
(-0.0314552 0.0785064 1.38942e-19)
(0.00984914 0.0748764 -3.84539e-19)
(0.0762033 0.0675402 -6.5173e-20)
(0.167731 0.0602996 -3.25232e-19)
(0.284215 0.0552672 1.32808e-19)
(0.422898 0.0531951 -3.19437e-19)
(0.577192 0.0536953 1.24982e-19)
(0.737142 0.0553678 -3.00537e-19)
(0.891193 0.0565608 1.28146e-20)
(1.0288 0.0552042 3.83453e-20)
(1.14213 0.0506753 -6.53687e-20)
(1.22762 0.041592 -1.66364e-19)
(1.28525 0.0296657 -5.79705e-21)
(1.31915 0.0145139 1.98929e-19)
(1.33369 -0.00239565 -1.65563e-19)
(1.33514 -0.0164102 -3.6826e-19)
(1.32847 -0.0379294 -2.65129e-19)
(1.31353 -0.0422571 9.80792e-20)
(-0.0314334 0.0381588 3.29307e-21)
(-0.045744 0.0657252 2.51899e-19)
(-0.024335 0.0717714 -6.57454e-20)
(0.0286064 0.0669027 -2.23103e-20)
(0.111813 0.0595915 7.35216e-20)
(0.225085 0.053862 2.53324e-19)
(0.366131 0.0518643 -1.24654e-19)
(0.527828 0.0538322 -1.12448e-19)
(0.698228 0.058421 7.47517e-20)
(0.863244 0.0632703 1.68901e-19)
(1.01012 0.0661603 -2.77441e-19)
(1.13022 0.0650692 2.11435e-19)
(1.21992 0.059836 2.82229e-20)
(1.28044 0.0496753 7.23237e-20)
(1.31597 0.0372663 -1.60822e-19)
(1.33286 0.021347 -4.62501e-20)
(1.33603 0.00601721 -4.18397e-20)
(1.33133 -0.00902773 4.62434e-20)
(1.32135 -0.027602 1.57698e-19)
(1.30564 -0.0324803 -3.14845e-19)
(-0.0332688 0.0364569 -2.78735e-20)
(-0.0446115 0.060471 -2.46144e-20)
(-0.0145297 0.0643464 2.80213e-19)
(0.0527749 0.058534 1.43844e-19)
(0.156508 0.0521307 -1.30013e-19)
(0.29498 0.0493137 3.72799e-20)
(0.461495 0.0518027 4.14255e-20)
(0.642455 0.0586316 3.68087e-19)
(0.8205 0.0670894 -3.12189e-19)
(0.979766 0.0740008 -4.45119e-19)
(1.10971 0.0770712 -4.41963e-19)
(1.20642 0.0749513 -9.91744e-20)
(1.27152 0.0681729 2.76389e-20)
(1.31036 0.0568244 -1.56092e-19)
(1.32938 0.0438423 -1.33126e-20)
(1.33517 0.0276844 3.08974e-20)
(1.33186 0.0137817 -2.18315e-20)
(1.32417 -0.00236014 3.02215e-19)
(1.3127 -0.0174267 5.82809e-21)
(1.29775 -0.0240638 2.97703e-19)
(-0.0349881 0.0346694 2.37951e-20)
(-0.0420896 0.0547546 -3.18233e-19)
(-0.00113602 0.0565055 8.27804e-20)
(0.0838807 0.0503017 -2.77301e-19)
(0.212049 0.0460461 3.51349e-19)
(0.377997 0.0477402 -2.37181e-19)
(0.567765 0.0558236 9.75574e-21)
(0.760426 0.0674608 -1.97296e-20)
(0.935509 0.0786292 -2.4587e-19)
(1.07922 0.0859631 6.08986e-19)
(1.18628 0.0877903 2.58983e-19)
(1.25855 0.0838319 -3.72201e-20)
(1.30208 0.0753108 -1.29979e-19)
(1.3244 0.0630243 -2.348e-19)
(1.33231 0.0496161 -6.15021e-21)
(1.33143 0.0337605 -1.05624e-19)
(1.32468 0.0208438 9.08746e-20)
(1.31568 0.00397749 -4.7085e-20)
(1.30355 -0.00720747 -3.38085e-19)
(1.2902 -0.0173658 -1.26513e-19)
(-0.0364916 0.0327885 -1.71427e-19)
(-0.037733 0.0486629 2.19568e-19)
(0.0168181 0.048537 -1.90877e-19)
(0.123404 0.0428224 -2.08115e-19)
(0.279545 0.0423086 -3.84753e-19)
(0.472896 0.0500089 1.51555e-19)
(0.679969 0.0640075 -1.05127e-19)
(0.874189 0.0794016 -3.061e-19)
(1.03624 0.0915452 2.6697e-19)
(1.15798 0.0977346 -2.17209e-19)
(1.24067 0.0974235 3.11957e-19)
(1.29106 0.0914074 3.59386e-19)
(1.31768 0.0813754 1.94423e-19)
(1.32848 0.0684896 2.95408e-19)
(1.32941 0.0548848 -4.87496e-20)
(1.32477 0.0396681 7.09629e-20)
(1.31635 0.027202 -2.48142e-20)
(1.30689 0.0105507 1.53714e-19)
(1.29435 0.00272846 7.50289e-20)
(1.28302 -0.0127627 8.42379e-20)
(-0.0376445 0.0307775 8.92268e-19)
(-0.0310548 0.0422683 -2.23183e-19)
(0.0403287 0.0407601 1.94782e-19)
(0.172598 0.0368204 2.36629e-19)
(0.358991 0.041859 3.62878e-19)
(0.57636 0.0565024 -1.91998e-19)
(0.791664 0.0756974 1.13317e-19)
(0.977062 0.0930907 -1.53161e-19)
(1.11884 0.104474 -2.83383e-19)
(1.2163 0.108453 1.46484e-19)
(1.27647 0.105704 -2.64949e-19)
(1.30913 0.0978131 -1.68185e-19)
(1.32351 0.0866523 1.86883e-20)
(1.32673 0.0734613 8.01454e-20)
(1.32353 0.0598839 -1.48462e-20)
(1.31686 0.0453735 1.40728e-19)
(1.30778 0.0330727 1.5021e-20)
(1.29826 0.0176865 -3.56371e-19)
(1.28575 0.0111391 1.54451e-19)
(1.27536 -0.0116017 -1.4043e-19)
(-0.0382932 0.0286002 -6.26628e-19)
(-0.0215308 0.035644 2.67092e-19)
(0.0703887 0.0335367 -2.78458e-20)
(0.232265 0.0330954 -1.35421e-19)
(0.448872 0.045367 -4.03979e-19)
(0.683359 0.0669178 2.8695e-19)
(0.896496 0.0897046 -2.60902e-19)
(1.06472 0.107191 1.15769e-19)
(1.18271 0.116523 1.4343e-19)
(1.25682 0.11782 -6.10481e-19)
(1.29805 0.112751 1.17562e-19)
(1.31734 0.103342 2.09612e-20)
(1.32331 0.0914239 2.57251e-19)
(1.3218 0.0781489 -3.11633e-20)
(1.31625 0.0647471 -3.29308e-20)
(1.30856 0.0508563 -2.41968e-20)
(1.29934 0.0388037 1.39412e-19)
(1.28987 0.0248873 1.04192e-19)
(1.27783 0.0163128 3.046e-20)
(1.26892 0.00176195 8.6269e-20)
(-0.0382702 0.0262178 -4.56828e-20)
(-0.00860517 0.0288529 -4.01825e-19)
(0.107939 0.0272913 2.19618e-19)
(0.302497 0.0324418 1.44603e-19)
(0.546158 0.0530132 -1.17267e-19)
(0.788362 0.0803815 -3.63411e-19)
(0.989836 0.104767 2.45258e-19)
(1.13576 0.120767 -6.34559e-20)
(1.22963 0.127323 4.64898e-20)
(1.28322 0.125903 3.81739e-19)
(1.30951 0.118832 -2.04561e-19)
(1.31918 0.10828 -1.88894e-19)
(1.31962 0.0958981 -1.73683e-19)
(1.31525 0.0826806 -3.24059e-20)
(1.30841 0.0695105 -1.25118e-20)
(1.30027 0.0561703 1.14078e-19)
(1.29113 0.0445072 -5.9662e-20)
(1.28176 0.0309683 -6.77294e-20)
(1.27063 0.0240182 -1.52416e-19)
(1.26168 0.00790064 -9.87194e-20)
(-0.0373817 0.0235864 -1.93454e-20)
(0.0083036 0.0219832 2.35211e-19)
(0.153749 0.0225841 -4.11189e-19)
(0.382344 0.0355193 8.14072e-20)
(0.646625 0.064429 2.80659e-19)
(0.886446 0.0957814 5.30546e-20)
(1.06919 0.119884 8.42858e-20)
(1.19081 0.13333 1.53176e-19)
(1.26237 0.136848 -1.72849e-19)
(1.29899 0.132928 -1.29023e-19)
(1.31403 0.124232 2.40163e-19)
(1.31706 0.11286 4.45383e-19)
(1.31398 0.100226 4.93136e-20)
(1.30794 0.0871366 -1.74408e-19)
(1.30044 0.0742098 6.03251e-21)
(1.29214 0.0613872 -1.47483e-19)
(1.28314 0.0498174 3.59679e-20)
(1.27407 0.0374828 -6.83447e-20)
(1.26342 0.0294117 -2.56622e-19)
(1.25536 0.0154489 1.33586e-19)
(-0.0354157 0.0206722 4.69558e-20)
(0.0298018 0.0151824 4.41474e-19)
(0.208273 0.0201165 -1.33792e-19)
(0.469689 0.0426273 3.65248e-19)
(0.745721 0.0788103 -2.98231e-19)
(0.974186 0.112076 3.52388e-19)
(1.13404 0.134417 -2.87355e-19)
(1.23175 0.14472 1.86679e-19)
(1.2839 0.145247 -1.21623e-19)
(1.30711 0.139158 1.30269e-20)
(1.314 0.129193 -1.44249e-19)
(1.3126 0.117255 -2.51543e-19)
(1.30734 0.1045 -1.23534e-19)
(1.30034 0.0915568 8.5777e-20)
(1.29251 0.0788687 2.88068e-20)
(1.28418 0.066408 7.88197e-20)
(1.27542 0.0551509 -1.87936e-20)
(1.26654 0.0431052 2.30097e-19)
(1.25666 0.0354358 2.16996e-19)
(1.2488 0.0219952 8.72759e-20)
(-0.0321451 0.0174588 -4.24991e-19)
(0.0565083 0.00870341 -3.98217e-19)
(0.271436 0.0206493 3.0721e-19)
(0.561453 0.0535818 -1.83798e-20)
(0.839473 0.0951978 4.25175e-19)
(1.04985 0.128488 -2.56393e-19)
(1.18522 0.148051 1.11655e-19)
(1.26092 0.154985 -1.44888e-19)
(1.29694 0.152744 2.72833e-19)
(1.30993 0.144842 -1.08408e-19)
(1.31109 0.133907 1.06577e-19)
(1.30679 0.121578 -7.12766e-21)
(1.30019 0.10877 8.40851e-20)
(1.29266 0.095964 -1.12145e-20)
(1.28467 0.0834629 1.26966e-19)
(1.27641 0.0713451 2.64178e-20)
(1.26786 0.0601392 -4.77042e-21)
(1.25929 0.0487697 -1.5631e-19)
(1.24993 0.0406533 -5.87811e-20)
(1.24248 0.0279408 -8.37722e-20)
(-0.0273235 0.0139527 6.10364e-19)
(0.0890116 0.00295897 -3.8588e-19)
(0.342448 0.024821 9.7689e-20)
(0.65411 0.0677983 -3.82377e-19)
(0.925041 0.11273 -2.67712e-19)
(1.11309 0.144525 2.91154e-20)
(1.2243 0.16069 5.23574e-20)
(1.28065 0.164274 -1.4663e-19)
(1.30372 0.159569 2.67683e-20)
(1.30916 0.150183 2.08788e-19)
(1.30638 0.138507 -1.53939e-19)
(1.30022 0.125898 -9.18864e-20)
(1.29282 0.113061 -5.0392e-20)
(1.28498 0.100356 -4.54152e-20)
(1.27695 0.0880134 -5.78419e-20)
(1.26878 0.0761008 1.08536e-19)
(1.26047 0.0650542 -5.25766e-20)
(1.25215 0.0539454 -1.08423e-20)
(1.24337 0.0457324 1.41258e-19)
(1.23613 0.0336508 1.50587e-19)
(-0.0206779 0.0101892 -1.4511e-19)
(0.127784 -0.00144157 3.58287e-19)
(0.419742 0.0329434 2.12217e-19)
(0.744318 0.084516 -2.39171e-19)
(1.00081 0.130756 2.94551e-19)
(1.16449 0.159925 -1.75867e-21)
(1.25311 0.172375 2.63963e-19)
(1.29306 0.172775 1.7235e-19)
(1.30603 0.165931 1.52875e-19)
(1.306 0.155339 -1.47215e-19)
(1.30057 0.143083 1.02895e-19)
(1.29322 0.130253 1.08863e-19)
(1.28534 0.117379 1.81776e-19)
(1.27734 0.104737 -9.58136e-20)
(1.26931 0.09249 -1.99131e-22)
(1.26127 0.0807487 -9.09075e-20)
(1.25318 0.0697236 3.74306e-21)
(1.24516 0.058951 -3.92353e-20)
(1.23683 0.0504701 -8.3307e-20)
(1.22984 0.0388196 -3.13876e-20)
(-0.0119014 0.00624427 -1.32221e-19)
(0.173057 -0.00371512 -1.44735e-19)
(0.501121 0.0449111 -7.39679e-21)
(0.829397 0.10301 2.26732e-19)
(1.0662 0.14884 -2.2028e-19)
(1.20517 0.174583 -2.39606e-19)
(1.27345 0.183216 9.13592e-20)
(1.29989 0.18068 -1.07763e-19)
(1.30517 0.172002 -6.86247e-20)
(1.30128 0.160421 2.69492e-20)
(1.29409 0.147688 -2.32877e-19)
(1.28599 0.134656 2.14373e-19)
(1.27781 0.121722 -2.07841e-20)
(1.26973 0.109093 -4.736e-20)
(1.26175 0.0969028 4.24944e-20)
(1.25384 0.0852385 -6.4175e-20)
(1.24598 0.0742603 -5.67177e-20)
(1.23823 0.0636515 -3.08906e-21)
(1.23034 0.0549428 -4.12311e-20)
(1.22353 0.04373 7.69815e-20)
(-0.000655458 0.00225226 1.52179e-19)
(0.224686 -0.00301782 2.62744e-19)
(0.584075 0.0602884 -3.51803e-19)
(0.907511 0.122696 -1.29876e-19)
(1.12134 0.166709 -5.86251e-20)
(1.23646 0.188492 3.35564e-19)
(1.28699 0.193357 -8.94081e-20)
(1.30257 0.188164 -5.56066e-20)
(1.30212 0.177917 -7.73065e-20)
(1.29553 0.165502 9.2893e-20)
(1.28717 0.152349 3.44623e-20)
(1.2786 0.139109 -4.02625e-20)
(1.27024 0.12608 -1.07671e-19)
(1.26213 0.113419 1.10302e-20)
(1.25422 0.101231 -4.61604e-20)
(1.24646 0.0896038 8.24927e-20)
(1.23883 0.0786066 2.01351e-20)
(1.23134 0.0681312 2.08673e-20)
(1.22384 0.0591753 2.79843e-20)
(1.21722 0.0482665 -8.12826e-20)
(0.0134108 -0.00157391 -2.86197e-19)
(0.282076 0.00137364 -1.65108e-20)
(0.666136 0.0784949 -5.37222e-20)
(0.977616 0.143148 1.53491e-19)
(1.16683 0.18421 -5.28784e-20)
(1.25974 0.201705 -1.4746e-19)
(1.29515 0.202947 -2.06895e-19)
(1.30217 0.195375 1.45147e-19)
(1.29752 0.183771 -1.7034e-19)
(1.28909 0.170625 8.46068e-20)
(1.27996 0.157073 4.98241e-20)
(1.27109 0.143605 -2.61042e-20)
(1.26263 0.130441 6.15734e-20)
(1.25453 0.117702 6.89606e-20)
(1.24671 0.105476 -1.46425e-19)
(1.23911 0.093825 1.09255e-19)
(1.23169 0.0827999 9.31438e-21)
(1.22447 0.0723717 1.85462e-20)
(1.21733 0.0631624 8.91524e-20)
(1.2109 0.0525339 2.19993e-20)
(0.0306164 -0.00492477 8.5142e-20)
(0.34419 0.00989276 -3.40864e-19)
(0.745161 0.0989613 3.18351e-19)
(1.03928 0.164067 1.4416e-19)
(1.20351 0.201268 -1.07085e-19)
(1.27628 0.214304 -1.76201e-19)
(1.29909 0.212124 6.05361e-21)
(1.2995 0.202426 -3.46117e-20)
(1.29183 0.189627 2.93027e-19)
(1.28214 0.175812 -1.33671e-19)
(1.27252 0.161858 -1.53962e-20)
(1.26345 0.14813 3.52735e-20)
(1.25495 0.134791 -2.19123e-20)
(1.24689 0.121934 -4.48796e-20)
(1.23918 0.109626 1.25952e-19)
(1.23175 0.097914 -1.03293e-19)
(1.22456 0.0868244 1.23717e-20)
(1.21759 0.0763945 -5.78194e-20)
(1.21077 0.0669389 -6.05362e-20)
(1.20454 0.0565171 -1.93435e-20)
(0.051193 -0.00739469 -6.11138e-20)
(0.409661 0.022612 1.4255e-19)
(0.819475 0.121198 -1.28774e-19)
(1.09253 0.185237 -1.32707e-19)
(1.23233 0.217857 2.19402e-19)
(1.28726 0.226384 2.32364e-19)
(1.29976 0.22101 1.12256e-19)
(1.29514 0.209404 -1.8822e-21)
(1.28533 0.195522 -2.87931e-19)
(1.2748 0.181064 2.43168e-20)
(1.26487 0.166691 9.19335e-21)
(1.2557 0.152669 6.20145e-20)
(1.24719 0.139115 1.01487e-19)
(1.2392 0.1261 -5.43455e-21)
(1.23161 0.113674 -2.31127e-20)
(1.22436 0.101863 9.26054e-20)
(1.2174 0.0906903 -6.04106e-20)
(1.21068 0.0802053 7.36491e-20)
(1.20416 0.0705032 -6.5546e-21)
(1.19815 0.0602539 7.44796e-20)
(0.0752357 -0.00850859 1.06706e-19)
(0.476945 0.0392966 5.57485e-20)
(0.88791 0.144804 -1.26302e-19)
(1.13763 0.206498 -1.55584e-19)
(1.25424 0.233986 -1.09891e-20)
(1.29366 0.238042 -2.54863e-20)
(1.29787 0.229702 1.25501e-19)
(1.28952 0.216363 8.74489e-20)
(1.27821 0.201471 9.40958e-20)
(1.26714 0.186374 -3.41831e-20)
(1.25701 0.171554 4.50866e-20)
(1.2478 0.157202 -4.14522e-20)
(1.23933 0.143397 -8.41878e-20)
(1.23143 0.130191 1.02521e-20)
(1.22399 0.117612 2.1801e-20)
(1.21693 0.105674 2.58282e-20)
(1.21019 0.0943928 3.42952e-20)
(1.20373 0.0838122 -2.05407e-20)
(1.1975 0.0738766 3.94971e-20)
(1.1917 0.063755 -8.98405e-20)
(0.102669 -0.00777507 1.40657e-19)
(0.544481 0.0595304 -1.26733e-20)
(0.949756 0.169451 1.77346e-19)
(1.17504 0.227716 1.0769e-19)
(1.27014 0.249677 4.81104e-20)
(1.29631 0.249361 -1.17755e-19)
(1.29398 0.238271 -1.11698e-19)
(1.28289 0.223336 -3.10599e-20)
(1.27058 0.207473 -8.38276e-21)
(1.25916 0.191724 -8.16841e-21)
(1.24894 0.176426 -1.08733e-19)
(1.23974 0.16171 2.38198e-20)
(1.23134 0.147621 4.29934e-20)
(1.22357 0.134192 1.32745e-21)
(1.2163 0.121434 5.14987e-21)
(1.20944 0.109342 -1.32748e-20)
(1.20294 0.097933 -3.19102e-20)
(1.19672 0.0872226 -2.63132e-20)
(1.19077 0.0770634 -5.45571e-20)
(1.18519 0.0670378 8.22646e-21)
(0.13324 -0.00475449 -8.63987e-20)
(0.610801 0.0828364 5.33736e-20)
(1.00467 0.194873 -2.19907e-20)
(1.20532 0.248777 5.11908e-21)
(1.28086 0.264959 -1.97807e-19)
(1.29589 0.260415 4.89267e-20)
(1.28849 0.246765 3.14993e-20)
(1.27545 0.230332 -2.177e-20)
(1.26249 0.213515 7.78405e-20)
(1.25088 0.197092 -1.26505e-21)
(1.24064 0.181285 3.40935e-20)
(1.2315 0.166171 3.98499e-20)
(1.22322 0.151769 -2.72589e-20)
(1.21561 0.138091 -3.21076e-20)
(1.20852 0.125128 -1.73967e-20)
(1.20188 0.112864 -1.85522e-20)
(1.19561 0.101308 1.63049e-20)
(1.18964 0.0904417 1.86727e-20)
(1.18396 0.0800757 2.9814e-20)
(1.1786 0.0701152 3.41616e-20)
(0.166536 0.00087973 -4.02223e-20)
(0.674606 0.108746 -7.92513e-21)
(1.0526 0.220852 -7.14291e-20)
(1.22905 0.269587 6.59757e-20)
(1.28712 0.27986 1.41998e-19)
(1.29294 0.271258 7.74859e-20)
(1.28169 0.25521 -3.48696e-20)
(1.26732 0.237346 -2.0368e-20)
(1.25396 0.219574 -4.61228e-20)
(1.24229 0.20245 4.43623e-20)
(1.2321 0.186102 -1.71746e-21)
(1.22308 0.170564 -2.19712e-20)
(1.21495 0.155824 -2.58353e-20)
(1.20752 0.141874 -2.47033e-20)
(1.20064 0.128686 5.11903e-20)
(1.19423 0.116234 -1.73297e-20)
(1.1882 0.104515 -1.86754e-20)
(1.18249 0.0934749 -3.19913e-21)
(1.17708 0.0829183 -3.24258e-21)
(1.17193 0.072997 -1.90294e-20)
(0.20202 0.00930647 -3.98284e-21)
(0.734806 0.136819 -5.29693e-20)
(1.09365 0.247198 2.43879e-20)
(1.24684 0.290065 -8.66416e-20)
(1.28954 0.294402 -6.04189e-20)
(1.28789 0.281924 9.00174e-21)
(1.2738 0.263611 -8.84406e-22)
(1.25855 0.244357 3.96426e-21)
(1.24501 0.225619 1.25384e-20)
(1.23338 0.207769 2.21805e-20)
(1.22331 0.190852 -3.01452e-20)
(1.21445 0.174864 1.28013e-20)
(1.20651 0.159765 2.23455e-20)
(1.1993 0.145525 -4.88398e-21)
(1.19266 0.132098 -2.16088e-20)
(1.18649 0.119444 1.20921e-20)
(1.18071 0.107551 1.37869e-20)
(1.17526 0.0963259 1.39301e-20)
(1.17011 0.0855977 -7.03137e-21)
(1.16517 0.0756929 2.51142e-21)
(0.239067 0.0205578 4.45851e-20)
(0.790533 0.166644 -6.16337e-20)
(1.12807 0.273741 -8.37092e-21)
(1.25925 0.310145 3.54301e-20)
(1.28865 0.308595 5.70578e-20)
(1.28106 0.29243 -1.74661e-20)
(1.26494 0.271958 -4.9847e-20)
(1.24919 0.251337 4.94085e-20)
(1.23564 0.231616 -1.33352e-20)
(1.22414 0.213013 -1.53607e-20)
(1.21426 0.195505 1.39781e-20)
(1.20561 0.179048 -6.93438e-21)
(1.19791 0.163573 -2.02771e-21)
(1.19094 0.14903 5.39968e-21)
(1.18455 0.135352 7.74926e-21)
(1.17865 0.122489 9.92554e-21)
(1.17314 0.110413 -1.76445e-20)
(1.16794 0.0989976 -4.35072e-21)
(1.16305 0.0881155 -1.07218e-21)
(1.15833 0.0782076 5.22359e-21)
(0.27697 0.0345489 -2.44641e-20)
(0.841135 0.197829 4.28216e-20)
(1.15615 0.300317 -5.2949e-21)
(1.26683 0.329772 -1.139e-20)
(1.2849 0.322441 -3.71329e-20)
(1.27269 0.302773 1.7389e-20)
(1.25523 0.280224 1.14177e-20)
(1.23927 0.258247 -1.26235e-20)
(1.22585 0.237526 -2.06453e-21)
(1.21456 0.21815 6.00767e-21)
(1.20493 0.200032 -6.50534e-21)
(1.19655 0.183091 3.27438e-21)
(1.18912 0.167228 -7.10276e-21)
(1.18243 0.152372 4.0662e-21)
(1.17633 0.138436 8.38881e-22)
(1.17071 0.12536 -3.69517e-21)
(1.16547 0.113096 2.11807e-21)
(1.16055 0.101491 -3.28052e-21)
(1.15592 0.0904718 1.06783e-21)
(1.1514 0.0805459 3.78742e-21)
(0.314938 0.0511099 -1.75465e-20)
(0.886167 0.229996 3.74596e-20)
(1.17822 0.326758 -3.90951e-21)
(1.27009 0.348895 -1.46404e-20)
(1.27865 0.335932 -3.41837e-20)
(1.26298 0.312935 1.71363e-20)
(1.24471 0.288376 1.11294e-20)
(1.22879 0.265045 -9.97584e-21)
(1.21562 0.243308 -1.15924e-22)
(1.20463 0.223142 4.70212e-21)
(1.19532 0.204401 -4.14752e-21)
(1.18725 0.186967 -1.13096e-21)
(1.18015 0.170708 -2.48869e-21)
(1.17377 0.155535 1.48235e-21)
(1.16798 0.141338 9.58414e-22)
(1.16267 0.128047 -3.76791e-21)
(1.15772 0.115595 4.18583e-21)
(1.15308 0.103807 -4.01687e-21)
(1.14871 0.092664 -9.71268e-22)
(1.14439 0.0827072 2.50362e-21)
(0.352199 0.0699862 5.07976e-20)
(0.925292 0.262751 -5.05044e-20)
(1.19452 0.352876 -3.61082e-20)
(1.26941 0.36746 4.67655e-20)
(1.27018 0.349054 5.30947e-20)
(1.25204 0.322892 -2.1583e-20)
(1.23342 0.296375 -3.57227e-20)
(1.21774 0.27169 3.90799e-20)
(1.20494 0.248924 -1.09032e-20)
(1.19435 0.227957 -1.27076e-20)
(1.18542 0.208585 9.93818e-21)
(1.17773 0.190653 -1.91597e-21)
(1.17098 0.173996 -4.65989e-21)
(1.16497 0.158504 1.4943e-21)
(1.15951 0.144048 7.13165e-21)
(1.15452 0.130543 8.31467e-21)
(1.14987 0.117904 -1.03968e-20)
(1.14554 0.10594 -2.75122e-21)
(1.14143 0.0946947 -1.77706e-21)
(1.13729 0.084697 3.78315e-21)
(0.388221 0.0909532 2.26164e-20)
(0.9586 0.295834 -8.01829e-20)
(1.20552 0.378554 2.22911e-20)
(1.26524 0.385423 -5.79881e-20)
(1.25975 0.361766 -6.73855e-20)
(1.23997 0.332588 1.09024e-20)
(1.22139 0.304154 4.28267e-21)
(1.20613 0.278119 -4.30379e-21)
(1.19382 0.25432 1.45025e-20)
(1.1837 0.232549 -5.8501e-22)
(1.17523 0.212545 -9.45888e-21)
(1.16797 0.194116 1.9186e-21)
(1.16163 0.177062 1.84365e-20)
(1.15601 0.161256 -1.54682e-21)
(1.15092 0.146547 -6.27076e-21)
(1.14627 0.132834 -3.61029e-21)
(1.14195 0.12001 1.57666e-20)
(1.13794 0.107878 6.74321e-21)
(1.13411 0.096568 -3.95255e-21)
(1.13013 0.0865304 -4.60062e-21)
(0.422385 0.113769 -5.01974e-20)
(0.986068 0.32896 -9.55331e-21)
(1.21152 0.403628 -6.95756e-20)
(1.2579 0.40272 7.76314e-20)
(1.24754 0.374026 9.62759e-20)
(1.22686 0.341969 3.73286e-20)
(1.20863 0.31166 -6.87389e-21)
(1.19396 0.284281 7.79957e-21)
(1.18225 0.259453 -3.94601e-20)
(1.17269 0.236882 2.83574e-20)
(1.16474 0.21625 -8.61463e-21)
(1.15798 0.197331 -6.57187e-21)
(1.1521 0.179887 -1.78694e-20)
(1.1469 0.163773 -5.43948e-21)
(1.14222 0.148822 8.44314e-21)
(1.13793 0.134915 -5.4431e-21)
(1.13396 0.121907 -7.14942e-21)
(1.13028 0.109619 2.06525e-21)
(1.1267 0.0982796 -1.28673e-21)
(1.12292 0.0881917 -1.07051e-20)
(0.454122 0.138171 -7.41325e-20)
(1.00778 0.361858 1.407e-20)
(1.21287 0.427945 3.3666e-20)
(1.2477 0.419285 -3.66567e-20)
(1.23373 0.385777 -1.32046e-19)
(1.21275 0.350971 1.10995e-20)
(1.19516 0.318826 4.75095e-20)
(1.18123 0.290119 -1.75232e-20)
(1.17023 0.264271 3.79103e-20)
(1.16132 0.240912 -9.99661e-21)
(1.15398 0.219663 2.52686e-20)