/*--------------------------------*- C++ -*----------------------------------*\
  =========                 |
  \\      /  F ield         | OpenFOAM: The Open Source CFD Toolbox
   \\    /   O peration     | Website:  https://openfoam.org
    \\  /    A nd           | Version:  7
     \\/     M anipulation  |
\*---------------------------------------------------------------------------*/
FoamFile
{
    version     2.0;
    format      ascii;
    class       volScalarField;
    location    "20";
    object      p;
}
// * * * * * * * * * * * * * * * * * * * * * * * * * * * * * * * * * * * * * //

dimensions      [0 2 -2 0 0 0 0];

internalField   nonuniform List<scalar> 
6050
(
-0.3177
-0.318251
-0.318512
-0.318467
-0.318097
-0.317378
-0.316285
-0.314772
-0.312782
-0.310307
-0.307152
-0.303594
-0.298892
-0.317871
-0.318423
-0.318687
-0.318647
-0.318285
-0.317578
-0.316502
-0.315012
-0.313032
-0.310618
-0.307383
-0.303964
-0.298809
-0.318197
-0.318748
-0.319015
-0.318984
-0.318634
-0.317945
-0.316895
-0.315448
-0.313462
-0.311202
-0.30773
-0.304713
-0.298593
-0.318649
-0.319194
-0.31946
-0.319433
-0.319094
-0.31842
-0.317389
-0.316004
-0.313936
-0.312004
-0.307979
-0.305809
-0.298186
-0.319188
-0.319716
-0.319971
-0.319937
-0.319597
-0.318928
-0.31789
-0.316601
-0.314294
-0.312952
-0.30789
-0.307077
-0.297853
-0.32026
-0.320488
-0.320432
-0.320073
-0.31939
-0.318296
-0.31715
-0.31448
-0.313592
-0.307978
-0.30763
-0.297651
-0.320773
-0.320953
-0.320852
-0.320449
-0.319731
-0.318558
-0.31743
-0.314512
-0.313899
-0.307624
-0.307754
-0.297346
-0.321199
-0.321308
-0.321139
-0.320661
-0.319873
-0.318586
-0.317429
-0.314199
-0.313708
-0.306924
-0.306996
-0.296867
-0.321492
-0.321503
-0.321239
-0.32066
-0.319753
-0.318302
-0.317008
-0.313528
-0.312698
-0.305902
-0.305024
-0.295811
-0.321612
-0.321498
-0.321105
-0.320376
-0.319297
-0.317635
-0.316015
-0.312402
-0.310675
-0.304308
-0.301816
-0.293555
-0.321528
-0.321256
-0.320694
-0.319757
-0.318426
-0.316463
-0.31433
-0.310564
-0.30764
-0.301688
-0.297528
-0.2898
-0.320749
-0.31996
-0.31873
-0.317039
-0.314627
-0.311844
-0.307718
-0.303655
-0.297754
-0.292289
-0.284606
-0.319944
-0.318842
-0.3172
-0.315006
-0.311975
-0.30844
-0.303719
-0.298742
-0.292552
-0.286255
-0.278401
-0.318798
-0.31726
-0.315062
-0.312189
-0.308405
-0.304042
-0.298622
-0.29296
-0.28637
-0.27966
-0.271685
-0.317249
-0.315117
-0.312209
-0.308497
-0.303891
-0.298688
-0.292625
-0.28648
-0.279573
-0.272781
-0.264783
-0.312326
-0.308565
-0.303927
-0.298507
-0.292538
-0.28599
-0.27952
-0.272454
-0.265819
-0.257866
-0.308832
-0.304126
-0.298568
-0.292413
-0.285816
-0.278958
-0.272255
-0.265187
-0.258837
-0.250988
-0.298966
-0.292576
-0.285803
-0.278742
-0.271704
-0.264804
-0.257854
-0.251734
-0.244105
-0.293214
-0.286121
-0.278859
-0.271484
-0.264334
-0.257274
-0.250482
-0.244301
-0.237088
-0.279357
-0.271723
-0.264148
-0.256912
-0.249767
-0.24309
-0.236502
-0.229824
-0.272399
-0.264488
-0.256785
-0.249482
-0.242334
-0.235697
-0.228845
-0.222351
-0.257207
-0.249416
-0.242073
-0.234952
-0.228287
-0.221569
-0.215364
-0.249901
-0.242049
-0.234689
-0.227597
-0.221003
-0.214422
-0.208471
-0.234684
-0.227317
-0.220288
-0.213774
-0.207348
-0.201728
-0.219951
-0.212994
-0.206588
-0.200357
-0.194969
-0.2057
-0.199411
-0.193357
-0.188198
-0.19221
-0.186343
-0.181376
-0.179275
-0.174486
-0.179274
-0.174486
-0.19221
-0.186343
-0.181376
-0.2057
-0.199411
-0.193357
-0.188198
-0.219951
-0.212993
-0.206588
-0.200357
-0.194969
-0.234684
-0.227317
-0.220288
-0.213774
-0.207347
-0.201728
-0.249901
-0.242049
-0.234689
-0.227597
-0.221003
-0.214422
-0.208471
-0.257206
-0.249415
-0.242073
-0.234952
-0.228287
-0.221569
-0.215364
-0.272398
-0.264488
-0.256785
-0.249482
-0.242334
-0.235697
-0.228845
-0.222351
-0.279357
-0.271723
-0.264148
-0.256912
-0.249767
-0.24309
-0.236502
-0.229824
-0.293214
-0.286121
-0.278859
-0.271484
-0.264334
-0.257274
-0.250482
-0.244301
-0.237088
-0.298966
-0.292576
-0.285803
-0.278742
-0.271704
-0.264804
-0.257854
-0.251734
-0.244105
-0.308832
-0.304126
-0.298568
-0.292413
-0.285816
-0.278958
-0.272255
-0.265187
-0.258837
-0.250988
-0.312326
-0.308565
-0.303926
-0.298507
-0.292538
-0.28599
-0.279519
-0.272454
-0.265819
-0.257866
-0.317249
-0.315117
-0.312208
-0.308497
-0.30389
-0.298688
-0.292625
-0.28648
-0.279573
-0.272781
-0.264783
-0.318798
-0.317259
-0.315062
-0.312188
-0.308404
-0.304042
-0.298622
-0.29296
-0.28637
-0.27966
-0.271685
-0.319944
-0.318842
-0.3172
-0.315005
-0.311975
-0.308439
-0.303719
-0.298741
-0.292552
-0.286255
-0.278401
-0.320749
-0.31996
-0.31873
-0.317038
-0.314627
-0.311843
-0.307717
-0.303655
-0.297754
-0.292289
-0.284606
-0.321528
-0.321256
-0.320694
-0.319757
-0.318425
-0.316462
-0.31433
-0.310564
-0.30764
-0.301688
-0.297528
-0.2898
-0.321612
-0.321497
-0.321105
-0.320375
-0.319297
-0.317634
-0.316015
-0.312402
-0.310675
-0.304308
-0.301816
-0.293555
-0.321492
-0.321503
-0.321239
-0.32066
-0.319753
-0.318302
-0.317007
-0.313527
-0.312698
-0.305902
-0.305024
-0.295811
-0.321199
-0.321308
-0.321139
-0.320661
-0.319873
-0.318585
-0.317429
-0.314199
-0.313708
-0.306924
-0.306996
-0.296867
-0.320772
-0.320952
-0.320852
-0.320448
-0.31973
-0.318557
-0.31743
-0.314512
-0.313898
-0.307624
-0.307754
-0.297346
-0.32026
-0.320488
-0.320431
-0.320073
-0.319389
-0.318295
-0.31715
-0.31448
-0.313592
-0.307978
-0.30763
-0.29765
-0.319188
-0.319715
-0.31997
-0.319937
-0.319597
-0.318927
-0.317889
-0.3166
-0.314294
-0.312951
-0.307889
-0.307077
-0.297853
-0.318649
-0.319194
-0.31946
-0.319433
-0.319094
-0.31842
-0.317389
-0.316004
-0.313936
-0.312004
-0.307979
-0.305809
-0.298186
-0.318197
-0.318748
-0.319015
-0.318983
-0.318634
-0.317945
-0.316895
-0.315448
-0.313462
-0.311202
-0.307729
-0.304713
-0.298593
-0.317871
-0.318423
-0.318687
-0.318647
-0.318285
-0.317578
-0.316502
-0.315012
-0.313032
-0.310618
-0.307383
-0.303964
-0.298809
-0.3177
-0.318251
-0.318512
-0.318467
-0.318097
-0.317378
-0.316285
-0.314772
-0.312782
-0.310306
-0.307152
-0.303594
-0.298892
-0.295792
-0.293137
-0.290307
-0.28723
-0.283884
-0.280224
-0.276195
-0.271737
-0.266777
-0.261238
-0.255036
-0.248083
-0.240292
-0.231581
-0.221882
-0.211151
-0.199372
-0.186573
-0.172822
-0.158258
-0.143053
-0.127449
-0.111711
-0.0961477
-0.0810658
-0.0667546
-0.0534785
-0.0414525
-0.030823
-0.0216697
-0.0140053
-0.00776979
-0.00287377
0.000842104
0.00351181
0.00533504
0.00643904
0.00701806
0.0071567
0.00703168
0.0066564
0.00620968
0.00560622
0.0050659
0.00436999
0.00384242
0.00306395
0.00256415
0.00158371
0.000991421
-0.296066
-0.293408
-0.290587
-0.287542
-0.284229
-0.280604
-0.276615
-0.272201
-0.267288
-0.261799
-0.255651
-0.248754
-0.241018
-0.23236
-0.222711
-0.212023
-0.200276
-0.187504
-0.173781
-0.15922
-0.144006
-0.128377
-0.112589
-0.0969961
-0.0818692
-0.0675082
-0.0541787
-0.0420983
-0.0314145
-0.0222078
-0.0144921
-0.00820764
-0.0032655
0.00049336
0.00320346
0.00506338
0.00620197
0.00681155
0.0069789
0.00687827
0.00652584
0.00609796
0.00551275
0.00498639
0.00430535
0.00378741
0.00302213
0.00252796
0.00156298
0.000970273
-0.296498
-0.293842
-0.291076
-0.288076
-0.28481
-0.281243
-0.277322
-0.272984
-0.268158
-0.262763
-0.256713
-0.249916
-0.242282
-0.233724
-0.224169
-0.213567
-0.201894
-0.189189
-0.175457
-0.160923
-0.145705
-0.130057
-0.114246
-0.0985877
-0.0833894
-0.068949
-0.0555317
-0.0433586
-0.0325798
-0.0232774
-0.0154675
-0.00909046
-0.00405934
-0.000215599
0.00257511
0.00450942
0.00571821
0.00639044
0.00661657
0.0065664
0.00626083
0.00587173
0.00532387
0.00482615
0.00417536
0.00367715
0.00293855
0.00245595
0.00152185
0.000929155
-0.297485
-0.294434
-0.291632
-0.288686
-0.285477
-0.281978
-0.278138
-0.273894
-0.269172
-0.263868
-0.257942
-0.25127
-0.243764
-0.235335
-0.225905
-0.21542
-0.203852
-0.191223
-0.177603
-0.163114
-0.147925
-0.132277
-0.116447
-0.100747
-0.085488
-0.0709703
-0.0574607
-0.0451828
-0.03429
-0.0248662
-0.016931
-0.0104263
-0.00526814
-0.00130004
0.00161107
0.00365844
0.00497447
0.00574365
0.0060602
0.00608887
0.00585594
0.00552718
0.0050369
0.00458363
0.0039792
0.00351156
0.00281351
0.002349
0.00146092
0.000870416
-0.297962
-0.295064
-0.292125
-0.289185
-0.28604
-0.282606
-0.278839
-0.27468
-0.270055
-0.264883
-0.259075
-0.252536
-0.245171
-0.236888
-0.227608
-0.217272
-0.205851
-0.193357
-0.179848
-0.165462
-0.150361
-0.134777
-0.118984
-0.103294
-0.0880162
-0.0734551
-0.0598776
-0.0475083
-0.0365038
-0.02695
-0.0188714
-0.0122129
-0.00689542
-0.00276703
0.000302908
0.00250177
0.0039627
0.00486416
0.00530405
0.00544102
0.0053079
0.00506227
0.0046506
0.00425849
0.00371692
0.00329145
0.00264794
0.00220881
0.00138112
0.000797469
-0.297988
-0.295589
-0.292487
-0.289463
-0.286356
-0.28298
-0.279272
-0.275183
-0.270642
-0.265565
-0.259868
-0.253455
-0.24623
-0.2381
-0.228985
-0.218823
-0.207583
-0.195273
-0.181948
-0.167734
-0.152793
-0.13735
-0.121673
-0.106066
-0.0908371
-0.0762898
-0.0626904
-0.050262
-0.0391644
-0.0294856
-0.0212562
-0.0144266
-0.00892377
-0.00460389
-0.00134017
0.00104622
0.00268804
0.00375605
0.00435148
0.00462561
0.00461902
0.00447939
0.00416716
0.00385304
0.00339051
0.00301917
0.00244369
0.00203805
0.0012837
0.000714445
-0.297385
-0.295456
-0.292436
-0.28935
-0.286243
-0.282902
-0.279237
-0.275203
-0.270731
-0.265738
-0.260138
-0.25384
-0.246749
-0.238774
-0.229833
-0.219869
-0.208848
-0.196776
-0.183702
-0.169738
-0.155044
-0.139834
-0.124364
-0.108929
-0.0938303
-0.0793669
-0.0658031
-0.0533594
-0.0421972
-0.0324077
-0.0240283
-0.0170177
-0.0113104
-0.00677402
-0.00328715
-0.000682035
0.00117227
0.00243746
0.00321728
0.00365512
0.00379906
0.00378675
0.00359322
0.00337303
0.00300453
0.00269901
0.00220385
0.0018404
0.00117033
0.000625648
-0.295969
-0.294286
-0.291576
-0.28859
-0.285487
-0.282154
-0.278525
-0.274546
-0.270138
-0.265219
-0.259708
-0.253523
-0.246571
-0.238761
-0.230016
-0.220277
-0.209511
-0.197723
-0.184967
-0.171342
-0.156992
-0.142113
-0.126949
-0.111777
-0.096892
-0.0825856
-0.0691187
-0.0567071
-0.0455133
-0.0356327
-0.02711
-0.019915
-0.0139914
-0.00922055
-0.00548843
-0.0026403
-0.000548394
0.000938823
0.00192667
0.00255023
0.00286498
0.00299793
0.00293959
0.00282745
0.00256595
0.00233699
0.0019327
0.0016203
0.00104314
0.00053497
-0.293662
-0.29185
-0.289549
-0.286849
-0.283815
-0.280494
-0.276912
-0.273012
-0.268687
-0.263851
-0.258441
-0.252383
-0.245586
-0.237965
-0.229445
-0.219971
-0.209511
-0.198067
-0.185687
-0.172469
-0.158555
-0.144112
-0.12935
-0.114531
-0.0999375
-0.0858563
-0.0725435
-0.0602099
-0.0490175
-0.0390676
-0.0304126
-0.0230356
-0.0168905
-0.0118751
-0.00788369
-0.00477616
-0.00242913
-0.00070202
0.000511251
0.00133703
0.001838
0.00213036
0.00221992
0.00222743
0.00208341
0.00194034
0.00163538
0.00138262
0.0009046
0.000445443
-0.290078
-0.287909
-0.286125
-0.283895
-0.281019
-0.277743
-0.274252
-0.270477
-0.26627
-0.261549
-0.256272
-0.250373
-0.243767
-0.236372
-0.22812
-0.218959
-0.208858
-0.197817
-0.18588
-0.173134
-0.159716
-0.145791
-0.131524
-0.117138
-0.102904
-0.0891047
-0.0759945
-0.0637787
-0.0526182
-0.0426207
-0.0338472
-0.0262954
-0.0199304
-0.0146676
-0.0104107
-0.00703536
-0.0044233
-0.00244549
-0.000995777
4.31541e-05
0.000740743
0.0012026
0.00144913
0.00158486
0.00156614
0.00151668
0.00131741
0.00113213
0.000757362
0.000359069
-0.285159
-0.28235
-0.281193
-0.2796
-0.276994
-0.273858
-0.270542
-0.266956
-0.262917
-0.258359
-0.253262
-0.247569
-0.241198
-0.234075
-0.226138
-0.217339
-0.207648
-0.197065
-0.185624
-0.173406
-0.160533
-0.147167
-0.133458
-0.11957
-0.105748
-0.0922756
-0.0794048
-0.0673383
-0.0562356
-0.046211
-0.0373343
-0.0296187
-0.0230409
-0.0175342
-0.0130129
-0.00936819
-0.00648797
-0.00425498
-0.00256355
-0.00130556
-0.000405432
0.000232192
0.000641492
0.000911416
0.00102309
0.0010732
0.00098403
0.000873141
0.000604005
0.000276874
-0.278781
-0.275877
-0.27518
-0.274112
-0.271834
-0.268963
-0.265935
-0.262612
-0.258798
-0.254458
-0.249595
-0.244156
-0.238067
-0.231259
-0.22368
-0.215284
-0.206043
-0.195953
-0.185045
-0.173388
-0.16109
-0.148301
-0.135172
-0.121822
-0.10845
-0.095333
-0.0827266
-0.070832
-0.0598075
-0.0497743
-0.0408104
-0.0329444
-0.0261648
-0.0204229
-0.0156434
-0.0117334
-0.00858733
-0.00609974
-0.00416596
-0.00268713
-0.00158221
-0.000765675
-0.000190622
0.000217263
0.000462417
0.000616334
0.000639919
0.000609176
0.000446825
0.000199127
-0.271454
-0.268528
-0.268748
-0.268083
-0.265976
-0.263418
-0.260762
-0.257758
-0.254213
-0.250136
-0.245548
-0.240401
-0.234625
-0.228164
-0.220969
-0.212999
-0.204227
-0.194648
-0.184284
-0.173197
-0.16148
-0.149269
-0.13671
-0.123906
-0.111003
-0.0982579
-0.0859301
-0.0742219
-0.0632911
-0.0532651
-0.0442296
-0.0362279
-0.0292601
-0.0232947
-0.0182671
-0.0140998
-0.010694
-0.00795599
-0.00578265
-0.00408423
-0.002775
-0.00177882
-0.00103715
-0.000489335
-0.000109285
0.000151481
0.000289081
0.000342963
0.000287687
0.000125575
-0.264034
-0.2612
-0.26203
-0.261814
-0.259791
-0.257529
-0.255271
-0.252626
-0.249398
-0.245627
-0.241349
-0.23652
-0.231082
-0.224987
-0.218191
-0.210656
-0.202356
-0.193285
-0.18346
-0.172932
-0.161783
-0.150133
-0.13812
-0.125846
-0.11341
-0.101044
-0.089001
-0.0774872
-0.0666611
-0.0566553
-0.0475627
-0.0394403
-0.0322988
-0.0261234
-0.0208598
-0.0164455
-0.0127884
-0.0098066
-0.00739874
-0.00548407
-0.00397293
-0.00279805
-0.00189042
-0.00120201
-0.000686877
-0.000317295
-6.5327e-05
7.65615e-05
0.000128024
5.56646e-05
-0.256812
-0.254165
-0.255465
-0.255617
-0.253953
-0.251724
-0.249765
-0.247491
-0.244612
-0.241177
-0.237226
-0.232725
-0.22763
-0.221902
-0.215501
-0.208392
-0.200551
-0.19197
-0.182662
-0.172669
-0.162061
-0.150942
-0.139443
-0.127667
-0.115685
-0.103693
-0.0919357
-0.0806196
-0.0699053
-0.0599306
-0.0507939
-0.0425647
-0.0352643
-0.0288929
-0.0234063
-0.0187563
-0.0148578
-0.0116401
-0.00900413
-0.00687784
-0.00516837
-0.00381685
-0.00274491
-0.00191612
-0.00126656
-0.000786991
-0.000420989
-0.000188659
-3.10771e-05
-1.12674e-05
-0.249936
-0.247579
-0.249123
-0.249358
-0.24797
-0.246239
-0.244473
-0.242429
-0.239876
-0.236795
-0.233189
-0.229033
-0.224294
-0.21894
-0.212936
-0.206248
-0.198853
-0.190744
-0.181929
-0.172441
-0.162343
-0.151726
-0.140706
-0.129392
-0.117839
-0.106212
-0.0947371
-0.0836193
-0.0730215
-0.0630862
-0.053917
-0.0455942
-0.0381488
-0.031595
-0.0258985
-0.0210245
-0.0168948
-0.0134497
-0.0105925
-0.00825983
-0.00635622
-0.00483075
-0.00359676
-0.00262837
-0.00184559
-0.00125545
-0.000776209
-0.000451846
-0.000188893
-7.58532e-05
-0.243451
-0.241498
-0.243147
-0.243458
-0.24247
-0.24117
-0.239555
-0.237738
-0.23549
-0.232737
-0.229455
-0.225624
-0.221222
-0.216221
-0.21059
-0.204298
-0.197323
-0.189655
-0.1813
-0.172284
-0.16266
-0.152509
-0.141934
-0.131044
-0.119891
-0.108614
-0.0974144
-0.0864931
-0.0760143
-0.0661247
-0.0569324
-0.0485274
-0.0409495
-0.034226
-0.0283319
-0.0232451
-0.0188944
-0.0152303
-0.0121592
-0.00962577
-0.00753264
-0.0058364
-0.00444308
-0.00333633
-0.00242195
-0.00172113
-0.00112981
-0.000712517
-0.00034502
-0.000138673
-0.237411
-0.23596
-0.237451
-0.237629
-0.236889
-0.235937
-0.234622
-0.232968
-0.231006
-0.228613
-0.225705
-0.222242
-0.218209
-0.213586
-0.208343
-0.202452
-0.195892
-0.188655
-0.180742
-0.172176
-0.163
-0.153286
-0.143126
-0.132625
-0.121843
-0.110896
-0.099963
-0.0892347
-0.0788764
-0.0690383
-0.0598322
-0.0513565
-0.0436593
-0.0367795
-0.0307011
-0.0254137
-0.0208529
-0.0169792
-0.0137019
-0.010974
-0.00869633
-0.00683278
-0.00528311
-0.00403933
-0.00299517
-0.00218362
-0.00148155
-0.000970685
-0.000499556
-0.000200403
-0.231871
-0.231007
-0.232136
-0.232329
-0.232111
-0.231677
-0.230702
-0.22912
-0.227289
-0.225127
-0.222491
-0.219321
-0.215597
-0.211298
-0.206396
-0.200863
-0.194679
-0.187832
-0.180323
-0.172168
-0.163404
-0.154092
-0.144315
-0.134175
-0.12374
-0.11311
-0.102437
-0.0918993
-0.081663
-0.0718806
-0.0626675
-0.0541294
-0.0463218
-0.0392943
-0.0330397
-0.0275585
-0.0227935
-0.0187148
-0.0152352
-0.0123152
-0.00985508
-0.00782514
-0.0061203
-0.00473938
-0.00356635
-0.00264327
-0.00183151
-0.00122624
-0.000652505
-0.000261848
-0.227055
-0.22652
-0.226668
-0.226543
-0.2265
-0.226233
-0.225537
-0.224336
-0.222914
-0.221111
-0.218869
-0.216103
-0.21278
-0.20888
-0.20438
-0.199255
-0.193484
-0.187056
-0.179969
-0.172237
-0.163888
-0.154974
-0.145564
-0.135748
-0.125613
-0.11527
-0.10484
-0.0944846
-0.0843637
-0.0746323
-0.0654098
-0.056809
-0.0488935
-0.0417227
-0.0352981
-0.0296304
-0.0246695
-0.0203939
-0.0167199
-0.0136152
-0.0109795
-0.00878926
-0.00693441
-0.00542079
-0.00412285
-0.00309131
-0.00217281
-0.00147562
-0.000800546
-0.000323033
-0.223804
-0.2244
-0.223789
-0.22372
-0.223815
-0.223683
-0.223259
-0.222389
-0.220618
-0.218838
-0.216691
-0.214037
-0.210844
-0.207088
-0.202742
-0.197781
-0.192185
-0.185943
-0.179051
-0.171523
-0.163386
-0.154688
-0.145493
-0.135891
-0.125965
-0.115819
-0.105571
-0.0953798
-0.0853951
-0.0757698
-0.0666199
-0.0580601
-0.0501533
-0.0429646
-0.0364966
-0.0307679
-0.0257291
-0.0213685
-0.0176007
-0.0144039
-0.0116727
-0.00939483
-0.00745201
-0.0058603
-0.00448446
-0.00338631
-0.00239794
-0.00164324
-0.000896998
-0.000364662
-0.221126
-0.22218
-0.22152
-0.221506
-0.221651
-0.221518
-0.221012
-0.21997
-0.218586
-0.216901
-0.214821
-0.21224
-0.209125
-0.205454
-0.201198
-0.196334
-0.190843
-0.184714
-0.177945
-0.170549
-0.162552
-0.154001
-0.144958
-0.135508
-0.125735
-0.115739
-0.105638
-0.095583
-0.0857189
-0.0761954
-0.0671259
-0.0586248
-0.0507547
-0.0435828
-0.0371129
-0.0313679
-0.0262998
-0.0219017
-0.018089
-0.0148451
-0.0120638
-0.00973784
-0.00774648
-0.00611051
-0.00469071
-0.00355389
-0.00252589
-0.00173719
-0.000951609
-0.000387285
-0.218099
-0.219576
-0.219002
-0.219023
-0.219222
-0.219121
-0.218635
-0.217742
-0.216416
-0.214774
-0.21274
-0.21022
-0.207175
-0.203582
-0.199412
-0.194644
-0.189258
-0.183245
-0.176602
-0.169343
-0.161493
-0.153098
-0.144217
-0.134932
-0.125324
-0.115494
-0.105554
-0.0956517
-0.085925
-0.0765199
-0.067547
-0.0591199
-0.0513007
-0.0441583
-0.0376981
-0.031946
-0.0268566
-0.0224269
-0.0185744
-0.0152864
-0.0124576
-0.0100845
-0.00804553
-0.00636511
-0.0049014
-0.00372496
-0.00265702
-0.00183281
-0.00100799
-0.00040978
-0.215065
-0.216885
-0.216436
-0.216475
-0.21673
-0.216687
-0.21626
-0.215449
-0.214198
-0.212607
-0.210625
-0.208169
-0.205197
-0.201684
-0.197604
-0.192934
-0.187656
-0.181762
-0.175249
-0.168131
-0.160431
-0.152194
-0.143477
-0.134359
-0.124919
-0.115256
-0.10548
-0.0957307
-0.0861424
-0.0768568
-0.0679816
-0.0596293
-0.0518618
-0.0447495
-0.0382991
-0.03254
-0.027429
-0.0229671
-0.0190741
-0.015741
-0.0128636
-0.0104421
-0.0083543
-0.00662807
-0.00511916
-0.00390171
-0.00279259
-0.00193151
-0.00106638
-0.000432559
-0.211946
-0.214112
-0.213821
-0.213875
-0.214183
-0.214209
-0.213841
-0.21309
-0.211922
-0.210396
-0.208475
-0.206087
-0.203191
-0.199762
-0.195775
-0.191207
-0.186041
-0.180268
-0.173888
-0.166912
-0.159365
-0.151289
-0.142738
-0.133789
-0.124519
-0.115025
-0.105413
-0.0958193
-0.0863706
-0.0772057
-0.0684293
-0.060153
-0.0524381
-0.0453564
-0.0389163
-0.0331502
-0.0280175
-0.023523
-0.0195886
-0.0162095
-0.0132823
-0.0108112
-0.00867317
-0.00689973
-0.00534427
-0.00408442
-0.00293278
-0.00203343
-0.00112681
-0.000455657
-0.208745
-0.211246
-0.211136
-0.211209
-0.211565
-0.211664
-0.211359
-0.210672
-0.209586
-0.20813
-0.206274
-0.203957
-0.201141
-0.1978
-0.193908
-0.189444
-0.184392
-0.178744
-0.172499
-0.165669
-0.158277
-0.150364
-0.141982
-0.133205
-0.124107
-0.114785
-0.105341
-0.0959037
-0.0865971
-0.0775553
-0.0688802
-0.0606821
-0.053022
-0.0459727
-0.0395445
-0.0337724
-0.0286185
-0.0240916
-0.0201158
-0.0166901
-0.0137126
-0.0111907
-0.00900153
-0.00717965
-0.00557642
-0.00427284
-0.00307746
-0.00213843
-0.00118924
-0.000479004
-0.205517
-0.208294
-0.208376
-0.208478
-0.208876
-0.209052
-0.208817
-0.208198
-0.207193
-0.20581
-0.204022
-0.20178
-0.199047
-0.195795
-0.192001
-0.187645
-0.18271
-0.177189
-0.171081
-0.164399
-0.157165
-0.149418
-0.141208
-0.132605
-0.123682
-0.114535
-0.105259
-0.0959817
-0.0868195
-0.0779032
-0.0693319
-0.0612144
-0.0536113
-0.0465964
-0.0401816
-0.0344048
-0.0292308
-0.0246718
-0.0206547
-0.0171821
-0.0141537
-0.0115804
-0.00933901
-0.00746752
-0.00581542
-0.0044668
-0.00322652
-0.00224638
-0.00125366
-0.000502551
-0.20227
-0.205263
-0.205546
-0.20569
-0.206125
-0.206377
-0.206221
-0.205674
-0.204747
-0.203438
-0.201724
-0.19956
-0.196911
-0.193752
-0.190059
-0.185812
-0.180997
-0.175606
-0.169638
-0.163107
-0.156032
-0.148453
-0.140416
-0.13199
-0.123246
-0.114274
-0.10517
-0.0960535
-0.0870378
-0.0782491
-0.0697838
-0.0617491
-0.0542051
-0.0472266
-0.0408269
-0.0350467
-0.0298535
-0.0252629
-0.0212047
-0.017685
-0.0146053
-0.0119796
-0.00968529
-0.0077631
-0.00606107
-0.00466612
-0.00337986
-0.00235718
-0.00132003
-0.000526261
-0.198993
-0.202161
-0.202648
-0.202849
-0.203319
-0.203645
-0.203572
-0.2031
-0.202251
-0.20102
-0.199382
-0.197299
-0.194739
-0.191674
-0.188084
-0.18395
-0.179256
-0.173997
-0.168172
-0.161793
-0.15488
-0.147471
-0.13961
-0.131362
-0.122798
-0.114004
-0.105072
-0.0961189
-0.0872514
-0.0785923
-0.070235
-0.0622851
-0.0548024
-0.0478619
-0.0414791
-0.0356967
-0.0304854
-0.0258638
-0.0217649
-0.018198
-0.0150666
-0.012388
-0.01004
-0.00806603
-0.00631312
-0.00487061
-0.00353733
-0.00247071
-0.0013883
-0.000550096
-0.195691
-0.199001
-0.199689
-0.199959
-0.200465
-0.200862
-0.200875
-0.200482
-0.199712
-0.19856
-0.197002
-0.195003
-0.192532
-0.189566
-0.186081
-0.182061
-0.177492
-0.172367
-0.166686
-0.160461
-0.153712
-0.146474
-0.13879
-0.130722
-0.122339
-0.113724
-0.104967
-0.0961774
-0.0874595
-0.0789315
-0.0706842
-0.062821
-0.0554015
-0.048501
-0.0421368
-0.0363536
-0.0311253
-0.0264735
-0.0223343
-0.0187201
-0.015537
-0.0128048
-0.0104025
-0.00837587
-0.00657122
-0.00507996
-0.00369875
-0.0025868
-0.00145839
-0.000574019
-0.192375
-0.195793
-0.196676
-0.197028
-0.19757
-0.198034
-0.198134
-0.197824
-0.197133
-0.196062
-0.194587
-0.192675
-0.190297
-0.18743
-0.184053
-0.18015
-0.175707
-0.170717
-0.165183
-0.159113
-0.152529
-0.145463
-0.137957
-0.130071
-0.12187
-0.113435
-0.104853
-0.0962284
-0.0876613
-0.0792658
-0.07113
-0.0633553
-0.0560008
-0.0491421
-0.0427981
-0.0370157
-0.0317717
-0.0270904
-0.0229116
-0.0192504
-0.0160154
-0.0132293
-0.0107722
-0.00869207
-0.00683493
-0.00529381
-0.00386385
-0.00270523
-0.00153019
-0.000597992
-0.189052
-0.192546
-0.193614
-0.194059
-0.194642
-0.19517
-0.195357
-0.195132
-0.194522
-0.193533
-0.192143
-0.19032
-0.188037
-0.185272
-0.182005
-0.17822
-0.173904
-0.169053
-0.163665
-0.157753
-0.151334
-0.144441
-0.137114
-0.12941
-0.121391
-0.113137
-0.10473
-0.0962714
-0.087856
-0.079594
-0.071571
-0.0638863
-0.0565986
-0.0497834
-0.0434615
-0.0376813
-0.0324228
-0.0277131
-0.0234954
-0.0197874
-0.0165009
-0.0136605
-0.0111483
-0.00901394
-0.00710371
-0.00551172
-0.00403232
-0.00282577
-0.00160356
-0.000621977
-0.185727
-0.189271
-0.190515
-0.191062
-0.19169
-0.192278
-0.19255
-0.192413
-0.191886
-0.19098
-0.189676
-0.187945
-0.185759
-0.183098
-0.179942
-0.176277
-0.17209
-0.167377
-0.162137
-0.156382
-0.150129
-0.143409
-0.136262
-0.12874
-0.120904
-0.112831
-0.104599
-0.0963062
-0.0880427
-0.0799149
-0.0720059
-0.0644125
-0.0571931
-0.050423
-0.0441248
-0.0383483
-0.0330769
-0.0283399
-0.0240841
-0.0203298
-0.016992
-0.0140973
-0.0115299
-0.00934068
-0.00737692
-0.00573316
-0.00420377
-0.0029481
-0.00167833
-0.000645939
-0.182409
-0.185979
-0.187387
-0.188043
-0.188723
-0.189368
-0.189722
-0.189674
-0.189232
-0.188411
-0.187195
-0.185556
-0.183469
-0.180913
-0.17787
-0.174325
-0.170268
-0.165694
-0.160603
-0.155006
-0.148919
-0.142373
-0.135403
-0.128063
-0.12041
-0.112517
-0.10446
-0.0963324
-0.0882208
-0.0802274
-0.072433
-0.0649319
-0.0577822
-0.0510588
-0.0447859
-0.0390147
-0.0337318
-0.0289686
-0.0246759
-0.020876
-0.0174874
-0.0145384
-0.0119158
-0.00967136
-0.00765378
-0.00595749
-0.00437772
-0.00307188
-0.00175428
-0.00066984
-0.179113
-0.182686
-0.184244
-0.185014
-0.185751
-0.186452
-0.186884
-0.186925
-0.18657
-0.185834
-0.184706
-0.183162
-0.181175
-0.178725
-0.175795
-0.172372
-0.168446
-0.164011
-0.159068
-0.153628
-0.147707
-0.141333
-0.134541
-0.127382
-0.11991
-0.112197
-0.104313
-0.0963499
-0.0883895
-0.0805304
-0.0728509
-0.0654429
-0.058364
-0.0516885
-0.0454425
-0.0396781
-0.0343852
-0.0295972
-0.0252686
-0.0214239
-0.0179852
-0.0149823
-0.0123047
-0.0100049
-0.00793338
-0.00618397
-0.0045536
-0.00319671
-0.00183115
-0.000693637
-0.175851
-0.179404
-0.181099
-0.181986
-0.182786
-0.183542
-0.184049
-0.184177
-0.18391
-0.18326
-0.182221
-0.180771
-0.178885
-0.176542
-0.173726
-0.170425
-0.166628
-0.162332
-0.157538
-0.152254
-0.146498
-0.140294
-0.133679
-0.126699
-0.119407
-0.11187
-0.104159
-0.0963584
-0.0885481
-0.0808227
-0.073258
-0.0659433
-0.058936
-0.0523096
-0.046092
-0.0403358
-0.0350346
-0.0302231
-0.0258601
-0.0219716
-0.0184837
-0.0154273
-0.0126951
-0.0103399
-0.00821465
-0.00641173
-0.00473077
-0.00332212
-0.00190864
-0.000717284
-0.172637
-0.176151
-0.177967
-0.178973
-0.179841
-0.180652
-0.181229
-0.181443
-0.181263
-0.1807
-0.17975
-0.178395
-0.176609
-0.174373
-0.171671
-0.168491
-0.164824
-0.160666
-0.156019
-0.15089
-0.145296
-0.139261
-0.13282
-0.126016
-0.118901
-0.11154
-0.103998
-0.0963582
-0.0886963
-0.0811032
-0.0736525
-0.0664312
-0.059496
-0.0529196
-0.0467315
-0.0409851
-0.0356771
-0.0308436
-0.0264476
-0.0225165
-0.0189805
-0.0158714
-0.0130854
-0.010675
-0.00849636
-0.00663978
-0.00490843
-0.00344756
-0.00198637
-0.000740724
-0.16949
-0.172945
-0.174865
-0.175989
-0.17693
-0.177796
-0.17844
-0.178735
-0.178642
-0.178166
-0.177306
-0.176044
-0.174358
-0.172228
-0.169639
-0.16658
-0.163042
-0.159021
-0.154518
-0.149542
-0.144107
-0.138239
-0.131968
-0.125338
-0.118397
-0.111207
-0.103832
-0.0963493
-0.0888333
-0.0813708
-0.074033
-0.0669044
-0.0600413
-0.0535155
-0.0473581
-0.0416227
-0.0363095
-0.0314556
-0.0270282
-0.0230559
-0.0194732
-0.0163123
-0.0134735
-0.0110084
-0.00877708
-0.00686695
-0.00508568
-0.00357242
-0.00206394
-0.000763886
-0.166425
-0.169804
-0.171813
-0.173052
-0.17407
-0.174991
-0.175699
-0.176071
-0.176063
-0.175674
-0.174901
-0.173732
-0.172145
-0.17012
-0.167643
-0.164703
-0.161291
-0.157404
-0.153043
-0.148216
-0.142938
-0.137232
-0.131128
-0.124667
-0.117896
-0.110873
-0.10366
-0.0963323
-0.088959
-0.0816243
-0.0743976
-0.0673606
-0.0605693
-0.0540944
-0.0479684
-0.0422454
-0.0369284
-0.0320557
-0.0275987
-0.0235868
-0.0199589
-0.0167475
-0.0138571
-0.0113383
-0.00905516
-0.00709192
-0.00526147
-0.00369598
-0.00214086
-0.00078668
-0.163463
-0.166751
-0.168832
-0.170181
-0.171279
-0.172256
-0.173023
-0.173469
-0.173544
-0.173239
-0.172553
-0.171474
-0.169984
-0.168062
-0.165695
-0.162871
-0.159582
-0.155826
-0.151603
-0.146922
-0.141796
-0.136248
-0.130306
-0.124009
-0.117402
-0.110542
-0.103486
-0.0963076
-0.089073
-0.0818629
-0.0747446
-0.0677975
-0.0610771
-0.0546529
-0.0485589
-0.0428492
-0.0375299
-0.0326402
-0.0281554
-0.0241057
-0.0204345
-0.0171742
-0.0142338
-0.0116624
-0.00932872
-0.00731319
-0.00543461
-0.00381743
-0.00221659
-0.000808991
-0.160624
-0.163808
-0.165945
-0.167398
-0.168576
-0.16961
-0.170433
-0.170948
-0.171101
-0.170878
-0.170277
-0.169287
-0.16789
-0.166069
-0.163808
-0.161096
-0.157928
-0.154298
-0.150209
-0.145669
-0.140689
-0.135293
-0.129506
-0.123368
-0.116919
-0.110215
-0.103311
-0.096276
-0.0891751
-0.0820854
-0.0750722
-0.0682126
-0.0615616
-0.0551875
-0.0491257
-0.0434302
-0.03811
-0.0332049
-0.0286943
-0.0246088
-0.0208963
-0.017589
-0.0146005
-0.0119781
-0.00959561
-0.00752901
-0.00560371
-0.00393584
-0.00229052
-0.000830677
-0.157929
-0.161
-0.163177
-0.164726
-0.165984
-0.167075
-0.167952
-0.16853
-0.168756
-0.168612
-0.168093
-0.167188
-0.165882
-0.164156
-0.161998
-0.159395
-0.156341
-0.152833
-0.148872
-0.144466
-0.139627
-0.134375
-0.128737
-0.122749
-0.116451
-0.109896
-0.103136
-0.0962387
-0.0892655
-0.0822909
-0.0753786
-0.0686033
-0.0620195
-0.0556944
-0.0496645
-0.0439838
-0.038664
-0.0337452
-0.0292108
-0.0250917
-0.0213404
-0.0179884
-0.0149541
-0.0122828
-0.00985341
-0.00773745
-0.00576722
-0.00405015
-0.00236194
-0.000851561
-0.155401
-0.158353
-0.160556
-0.162192
-0.163528
-0.164675
-0.165602
-0.166239
-0.166533
-0.166463
-0.166022
-0.165198
-0.163978
-0.162344
-0.160282
-0.157782
-0.154837
-0.151445
-0.147605
-0.143326
-0.138619
-0.133504
-0.128006
-0.122159
-0.116004
-0.109588
-0.102965
-0.0961969
-0.0893442
-0.0824786
-0.0756619
-0.0689667
-0.0624473
-0.0561694
-0.0501708
-0.0445051
-0.0391866
-0.0342559
-0.0296999
-0.0255498
-0.0217622
-0.0183682
-0.0152908
-0.012573
-0.0100994
-0.00793628
-0.00592336
-0.00415916
-0.00243008
-0.000871428
-0.153064
-0.155896
-0.158112
-0.159825
-0.161236
-0.162438
-0.163412
-0.164101
-0.164457
-0.164456
-0.164088
-0.163341
-0.1622
-0.160652
-0.158681
-0.156277
-0.153434
-0.150149
-0.146422
-0.142261
-0.137677
-0.132689
-0.127321
-0.121606
-0.115582
-0.109297
-0.1028
-0.0961522
-0.0894116
-0.0826474
-0.07592
-0.0693
-0.0628411
-0.056608
-0.0506394
-0.0449886
-0.0396725
-0.0347315
-0.0301561
-0.0259776
-0.0221568
-0.0187238
-0.0156065
-0.0128453
-0.0103303
-0.00812298
-0.00607013
-0.00426149
-0.00249409
-0.000890019
-0.150946
-0.153659
-0.155878
-0.157657
-0.159139
-0.160394
-0.161412
-0.162147
-0.162558
-0.16262
-0.162318
-0.161641
-0.160574
-0.159104
-0.157216
-0.154901
-0.15215
-0.148963
-0.14534
-0.141287
-0.136815
-0.131942
-0.126693
-0.121098
-0.115194
-0.109027
-0.102645
-0.0961065
-0.089468
-0.0827965
-0.0761509
-0.0695998
-0.0631968
-0.0570052
-0.0510648
-0.0454284
-0.0401151
-0.0351654
-0.0305731
-0.0263691
-0.0225184
-0.0190501
-0.0158964
-0.0130956
-0.0105429
-0.00829474
-0.00620529
-0.00435557
-0.00255298
-0.000907034
-0.149075
-0.151677
-0.15389
-0.155726
-0.157271
-0.158575
-0.159633
-0.160409
-0.160868
-0.160985
-0.160742
-0.160128
-0.159127
-0.157726
-0.155912
-0.153675
-0.151008
-0.147908
-0.144376
-0.140419
-0.136046
-0.131276
-0.126132
-0.120643
-0.114846
-0.108783
-0.102503
-0.0960619
-0.0895141