/*--------------------------------*- C++ -*----------------------------------*\
  =========                 |
  \\      /  F ield         | OpenFOAM: The Open Source CFD Toolbox
   \\    /   O peration     | Website:  https://openfoam.org
    \\  /    A nd           | Version:  7
     \\/     M anipulation  |
\*---------------------------------------------------------------------------*/
FoamFile
{
    version     2.0;
    format      ascii;
    class       surfaceScalarField;
    location    "20";
    object      phi;
}
// * * * * * * * * * * * * * * * * * * * * * * * * * * * * * * * * * * * * * //

dimensions      [0 3 -1 0 0 0 0];

internalField   nonuniform List<scalar> 
11919
(
-0.000768559
0.000125501
-9.96576e-10
-0.000899992
0.000131434
-9.45003e-10
-0.00103745
0.000137463
-8.18536e-10
-0.00118092
0.000143466
-5.93071e-10
-0.00133016
0.000149238
-2.433e-10
-0.00148464
0.000154483
2.52008e-10
-0.00164348
0.000158834
9.10373e-10
-0.0018051
0.000161627
1.73677e-09
-0.0019669
0.000161788
2.72145e-09
-0.00212791
0.000161012
3.82776e-09
-0.00227894
0.00015102
5.01458e-09
-0.00243126
0.000152314
6.16152e-09
0.000129344
7.23722e-09
-0.00256061
-0.000744511
0.000244597
-0.000867788
0.000254711
-0.00099495
0.000264625
-0.00112551
0.000274029
-0.00125873
0.000282451
-0.00139348
0.000289232
-0.00152825
0.000293608
-0.00166099
0.000294366
-0.00178767
0.000288474
-0.00190895
0.000282289
-0.00200893
0.000250995
-0.00210721
0.000250598
0.000184143
-0.00216201
-0.000697135
0.000351101
-0.000804417
0.000361993
-0.000911442
0.000371651
-0.00101688
0.000379464
-0.00111901
0.00038458
-0.00121565
0.000385875
-0.00130412
0.000382082
-0.00138169
0.000371931
-0.00144122
0.000348011
-0.00148768
0.000328745
-0.00149296
0.000256278
-0.00148947
0.000247109
0.000108806
-0.00141414
-0.000627732
0.000439207
-0.000711735
0.000445995
-0.00078959
0.000449505
-0.000858816
0.00044869
-0.000916419
0.000442183
-0.000958835
0.000428291
-0.000981728
0.000404976
-0.000981952
0.000372156
-0.00094758
0.000313638
-0.000889176
0.000270342
-0.000768592
0.000135694
-0.000619124
9.76406e-05
-0.000123142
-0.000387177
-0.000537996
-0.000592087
0.000500086
-0.000632644
0.000490063
-0.000655846
0.000471892
-0.000657207
0.000443543
-0.000631647
0.000402732
-0.00057277
0.000346099
-0.000476881
0.000276267
-0.000330172
0.000166929
-0.000134503
7.46728e-05
0.000123578
-0.000122387
0.000454166
-0.000232947
-0.000540275
0.000871299
-0.000447851
0.000518199
-0.000443727
0.000485938
-0.000412061
0.000440227
-0.000346723
0.000378205
-0.000241042
0.00029705
-8.76384e-05
0.000192695
0.000123561
6.50673e-05
0.000397405
-0.000106915
0.000742124
-0.000270047
0.00117963
-0.000559896
0.00168571
-0.000739019
-0.00117885
0.00232428
-0.000280939
0.000494572
-0.000225061
0.00043006
-0.000130015
0.00034518
1.20377e-05
0.000236153
0.000209868
9.92201e-05
0.000471601
-6.90378e-05
0.000808778
-0.000272109
0.00122864
-0.000526781
0.0017394
-0.000780798
0.00236134
-0.00118184
0.00306267
-0.00144035
-0.00204234
0.00392616
-9.22771e-05
0.000423307
2.27377e-05
0.000315045
0.000190192
0.000177726
0.000419723
6.62251e-06
0.000721961
-0.000203018
0.00110463
-0.000451706
0.00158434
-0.000751822
0.0021587
-0.00110114
0.00284781
-0.00146991
0.00365429
-0.00198833
0.00454919
-0.00233524
-0.0031041
0.00561094
0.000118663
0.000297831
0.000301186
0.000132522
0.000551349
-7.24368e-05
0.00088012
-0.000322148
0.00129994
-0.000622834
0.00181648
-0.000968249
0.00244851
-0.00138385
0.00318417
-0.00183681
0.0040475
-0.00233324
0.00501787
-0.0029587
0.00608392
-0.00340128
-0.00429302
0.00727285
0.000354207
0.000110339
0.0006141
-0.000127371
0.00095858
-0.000416917
0.00139935
-0.000762915
0.0019479
-0.00117138
0.00260813
-0.00162848
0.00339082
-0.00216653
0.00428064
-0.00272663
0.00529132
-0.00334392
0.00637551
-0.00404289
0.00755639
-0.00458216
-0.00550371
0.00876707
0.000618528
0.000967065
-0.000475907
0.00141788
-0.000867735
0.00198146
-0.00132649
0.00266377
-0.0018537
0.0034658
-0.00243051
0.00438049
-0.00308122
0.00539128
-0.00373742
0.00649267
-0.00444531
0.00761711
-0.00516733
0.00881785
-0.0057829
-0.00663184
0.00994597
0.00136579
-0.000924586
0.00193245
-0.0014344
0.00262255
-0.00201658
0.00343151
-0.00266267
0.00435242
-0.00335142
0.00535827
-0.00408707
0.00642896
-0.00480812
0.00753854
-0.00555488
0.00862185
-0.00625065
0.0097329
-0.00689395
-0.00760483
0.0107059
0.00181291
-0.00148224
0.00249759
-0.00211909
0.00330421
-0.00282319
0.00421415
-0.00357261
0.00520722
-0.00434449
0.00624196
-0.00512181
0.00729498
-0.00586114
0.00832799
-0.00658789
0.00930101
-0.00722367
0.0102485
-0.00784148
-0.00840813
0.0110518
0.00230365
-0.00215042
0.00309534
-0.00291078
0.00399003
-0.00371788
0.00495465
-0.00453723
0.0059563
-0.00534614
0.00694941
-0.00611492
0.0079134
-0.00682513
0.00881286
-0.00748734
0.0096408
-0.00805161
0.0104152
-0.00861584
-0.00907691
0.0110839
0.00282165
0.00369223
-0.00378136
0.00462888
-0.00465453
0.00558882
-0.00549717
0.00653453
-0.00629185
0.00742885
-0.00700924
0.00826232
-0.00765861
0.00901433
-0.00823935
0.00970582
-0.0087431
0.0103453
-0.0092553
-0.00965977
0.0109281
0.00424362
-0.00468724
0.00516714
-0.00557805
0.00606579
-0.00639582
0.00690898
-0.00713504
0.00767769
-0.00777795
0.00837711
-0.00835802
0.00900342
-0.00886566
0.00959359
-0.00933327
0.0101452
-0.00980689
-0.0101931
0.0106785
0.004705
0.00556568
-0.00643872
0.00636506
-0.0071952
0.00708804
-0.00785802
0.00773569
-0.00842561
0.00832365
-0.00894598
0.00885985
-0.00940186
0.00938358
-0.009857
0.00987955
-0.0103029
-0.0106979
0.0103844
0.00581163
-0.00720483
0.0064992
-0.00788277
0.00710988
-0.00846871
0.00765916
-0.00897489
0.00816542
-0.00945224
0.00864226
-0.0098787
0.00912113
-0.0103359
0.00957927
-0.010761
-0.0111865
0.0100679
0.00591783
0.00650161
-0.00846655
0.00702103
-0.00898813
0.00749762
-0.00945147
0.007947
-0.00990163
0.0083845
-0.0103162
0.00882817
-0.0107795
0.00925869
-0.0111915
-0.011666
0.00973811
0.00640999
-0.0089646
0.0068607
-0.00943883
0.00728518
-0.00987596
0.00769475
-0.0103112
0.00810418
-0.0107256
0.00851644
-0.0111918
0.00892012
-0.0115952
-0.012143
0.00939719
0.00625369
0.0066541
-0.00983924
0.00704064
-0.0102625
0.00742095
-0.0106915
0.00780738
-0.0111121
0.00819488
-0.0115793
0.00859072
-0.011991
-0.0125335
0.00898117
0.00642243
-0.0102021
0.0067797
-0.0106198
0.00713639
-0.0110482
0.00750085
-0.0114765
0.00786563
-0.0119441
0.0082483
-0.0123737
-0.0129127
0.00862757
0.00617379
0.00650688
-0.0109529
0.00684246
-0.0113838
0.00718567
-0.0118197
0.0075331
-0.0122915
0.00789126
-0.0127319
-0.0132734
0.00825187
0.00622548
0.00654085
-0.0116991
0.00686443
-0.0121433
0.00719078
-0.0126178
0.00753038
-0.0130715
-0.0136189
0.00787589
0.00623298
0.00653592
-0.0124463
0.00684311
-0.012925
0.00716291
-0.0133913
-0.0139401
0.00748415
0.0062018
0.00648845
-0.0132117
0.00678655
-0.0136894
-0.014241
0.00708741
0.00612775
0.00640434
-0.013966
-0.0145184
0.00668176
0.00601514
0.00626966
0.00601514
0.013966
0.0145184
0.00626966
0.00612775
0.0132117
0.00640434
0.0136894
0.014241
0.00668176
0.0062018
0.0124463
0.00648845
0.012925
0.00678655
0.0133913
0.0139401
0.00708741
0.00623298
0.0116991
0.00653592
0.0121433
0.00684312
0.0126178
0.00716291
0.0130715
0.0136189
0.00748415
0.00622548
0.0109529
0.00654085
0.0113838
0.00686443
0.0118197
0.00719078
0.0122915
0.00753039
0.0127319
0.0132734
0.0078759
0.00617379
0.0102021
0.00650688
0.0106198
0.00684246
0.0110482
0.00718567
0.0114765
0.0075331
0.0119441
0.00789126
0.0123737
0.0129127
0.00825187
0.00642243
0.00983924
0.0067797
0.0102625
0.00713639
0.0106915
0.00750085
0.0111121
0.00786563
0.0115793
0.0082483
0.011991
0.0125335
0.00862757
0.00625369
0.0089646
0.0066541
0.00943883
0.00704064
0.00987596
0.00742095
0.0103112
0.00780738
0.0107256
0.00819488
0.0111918
0.00859072
0.0115952
0.012143
0.00898117
0.00640999
0.00846655
0.0068607
0.00898812
0.00728518
0.00945147
0.00769475
0.00990162
0.00810418
0.0103162
0.00851644
0.0107795
0.00892012
0.0111915
0.011666
0.00939719
0.00591783
0.00720483
0.00650161
0.00788277
0.00702103
0.0084687
0.00749762
0.00897488
0.007947
0.00945224
0.0083845
0.0098787
0.00882817
0.0103359
0.00925869
0.010761
0.0111865
0.00973811
0.00581163
0.00643872
0.0064992
0.0071952
0.00710988
0.00785802
0.00765916
0.00842561
0.00816542
0.00894598
0.00864226
0.00940186
0.00912113
0.009857
0.00957927
0.0103029
0.0106979
0.0100679
0.004705
0.00468724
0.00556567
0.00557805
0.00636506
0.00639582
0.00708803
0.00713504
0.00773569
0.00777795
0.00832365
0.00835802
0.00885985
0.00886566
0.00938359
0.00933326
0.00987955
0.00980689
0.0101931
0.0103844
0.00424362
0.00378136
0.00516714
0.00465453
0.00606579
0.00549717
0.00690898
0.00629185
0.00767769
0.00700924
0.00837711
0.0076586
0.00900342
0.00823935
0.00959359
0.0087431
0.0101452
0.0092553
0.00965976
0.0106785
0.00282165
0.00215042
0.00369222
0.00291078
0.00462887
0.00371788
0.00558882
0.00453722
0.00653453
0.00534614
0.00742885
0.00611492
0.00826232
0.00682513
0.00901433
0.00748734
0.00970582
0.00805161
0.0103453
0.00861584
0.0090769
0.0109281
0.00230365
0.00148224
0.00309534
0.00211909
0.00399003
0.00282319
0.00495464
0.0035726
0.00595629
0.00434449
0.00694941
0.00512181
0.0079134
0.00586114
0.00881286
0.00658788
0.0096408
0.00722366
0.0104152
0.00784147
0.00840813
0.0110839
0.00181291
0.000924586
0.00249759
0.0014344
0.0033042
0.00201658
0.00421414
0.00266266
0.00520722
0.00335141
0.00624196
0.00408707
0.00729498
0.00480811
0.00832799
0.00555488
0.00930101
0.00625064
0.0102485
0.00689394
0.00760483
0.0110518
0.00136579
0.000475907
0.00193245
0.000867735
0.00262254
0.00132649
0.00343151
0.0018537
0.00435242
0.00243051
0.00535826
0.00308122
0.00642896
0.00373741
0.00753854
0.0044453
0.00862185
0.00516732
0.0097329
0.00578289
0.00663183
0.0107059
0.000618527
-0.000110339
0.000967063
0.000127371
0.00141788
0.000416917
0.00198146
0.000762915
0.00266377
0.00117138
0.00346579
0.00162848
0.00438048
0.00216653
0.00539127
0.00272662
0.00649267
0.00334391
0.00761711
0.00404289
0.00881785
0.00458215
0.00550371
0.00994597
0.000354206
-0.00029783
0.000614098
-0.000132521
0.000958578
7.24373e-05
0.00139934
0.000322148
0.00194789
0.000622833
0.00260813
0.000968247
0.00339081
0.00138385
0.00428064
0.0018368
0.00529132
0.00233323
0.00637551
0.00295869
0.00755639
0.00340128
0.00429302
0.00876707
0.000118662
-0.000423305
0.000301185
-0.000315044
0.000551347
-0.000177725
0.000880118
-6.62239e-06
0.00129993
0.000203017
0.00181648
0.000451704
0.0024485
0.000751819
0.00318417
0.00110113
0.0040475
0.00146991
0.00501787
0.00198832
0.00608392
0.00233523
0.00310409
0.00727285
-9.22781e-05
-0.00049457
2.27366e-05
-0.000430058
0.000190191
-0.000345179
0.000419721
-0.000236153
0.000721959
-9.92206e-05
0.00110463
6.90362e-05
0.00158434
0.000272107
0.0021587
0.000526777
0.00284781
0.000780792
0.00365429
0.00118184
0.00454918
0.00144034
0.00204233
0.00561094
-0.00028094
-0.000518198
-0.000225062
-0.000485937
-0.000130016
-0.000440226
1.20365e-05
-0.000378205
0.000209866
-0.00029705
0.0004716
-0.000192697
0.000808776
-6.50702e-05
0.00122864
0.00010691
0.00173939
0.000270041
0.00236134
0.000559888
0.00306267
0.00073901
0.00117884
0.00392616
-0.000447852
-0.000500084
-0.000443728
-0.000490061
-0.000412062
-0.000471891
-0.000346724
-0.000443543
-0.000241042
-0.000402732
-8.76393e-05
-0.0003461
0.00012356
-0.00027627
0.000397404
-0.000166933
0.000742124
-7.46793e-05
0.00117963
0.000122378
0.00168571
0.000232937
0.000540263
0.00232428
-0.000537997
-0.000439205
-0.000592087
-0.000445994
-0.000632645
-0.000449504
-0.000655847
-0.000448689
-0.000657208
-0.000442182
-0.000631648
-0.000428292
-0.000572771
-0.000404977
-0.000476882
-0.000372159
-0.000330172
-0.000313643
-0.000134503
-0.000270348
0.000123578
-0.000135703
0.000454167
-9.76514e-05
0.000123129
0.000871301
-0.000627733
-0.000351099
-0.000711736
-0.000361991
-0.00078959
-0.000371649
-0.000858817
-0.000379463
-0.000916419
-0.00038458
-0.000958835
-0.000385876
-0.000981728
-0.000382084
-0.000981953
-0.000371934
-0.00094758
-0.000348016
-0.000889176
-0.000328752
-0.000768592
-0.000256287
-0.000619123
-0.00024712
-0.000108819
-0.000387175
-0.000697135
-0.000244595
-0.000804417
-0.000254709
-0.000911442
-0.000264624
-0.00101688
-0.000274028
-0.00111901
-0.000282451
-0.00121565
-0.000289233
-0.00130412
-0.00029361
-0.00138169
-0.00029437
-0.00144122
-0.00028848
-0.00148768
-0.000282297
-0.00149296
-0.000251004
-0.00148947
-0.000250609
-0.000184157
-0.00141413
-0.000744511
-0.000125499
-0.000867788
-0.000131432
-0.00099495
-0.000137462
-0.00112551
-0.000143465
-0.00125873
-0.000149238
-0.00139348
-0.000154483
-0.00152825
-0.000158836
-0.00166099
-0.00016163
-0.00178767
-0.000161794
-0.00190895
-0.00016102
-0.00200893
-0.00015103
-0.00210721
-0.000152326
-0.000129358
-0.00216201
-0.000768559
-0.000899992
-0.00103745
-0.00118092
-0.00133016
-0.00148464
-0.00164348
-0.0018051
-0.0019669
-0.00212791
-0.00227894
-0.00243126
-0.00256061
-0.00257344
1.28277e-05
4.85578e-09
-0.0025828
9.35181e-06
5.12301e-09
-0.00258878
5.98081e-06
5.30753e-09
-0.00259076
1.97503e-06
5.31773e-09
-0.00258803
-2.74273e-06
5.0668e-09
-0.00257976
-8.27289e-06
4.72009e-09
-0.00256479
-1.49774e-05
4.22448e-09
-0.00254179
-2.29985e-05
3.50371e-09
-0.00250929
-3.25063e-05
2.54121e-09
-0.00246561
-4.36768e-05
1.33418e-09
-0.00240899
-5.66248e-05
-1.22327e-10
-0.00233742
-7.1563e-05
-1.77607e-09
-0.00224884
-8.85796e-05
-3.59991e-09
-0.00214111
-0.000107726
-5.52196e-09
-0.00201212
-0.000128976
-7.45453e-09
-0.0018599
-0.000152211
-9.29073e-09
-0.00168269
-0.0001772
-1.09092e-08
-0.00147923
-0.000203453
-1.21835e-08
-0.00124816
-0.00023105
-1.29915e-08
-0.000990038
-0.000258113
-1.32018e-08
-0.000704932
-0.000285093
-1.2744e-08
-0.000394038
-0.000310883
-1.15805e-08
-5.9214e-05
-0.000334814
-9.74256e-09
0.000295762
-0.000354968
-7.26696e-09
0.000668349
-0.000372583
-4.34865e-09
0.00105443
-0.000386083
-1.12185e-09
0.00144971
-0.000395283
2.15511e-09
0.00184945
-0.000399743
5.2758e-09
0.00224927
-0.00039983
8.00826e-09
0.00264458
-0.000395319
1.01547e-08
0.00303175
-0.000387177
1.15728e-08
0.00340693
-0.000375194
1.21837e-08
0.00376779
-0.000360875
1.19785e-08
0.00411158
-0.000343802
1.10163e-08
0.00443744
-0.00032587
9.41007e-09
0.00474362
-0.000306186
7.32326e-09
0.00503071
-0.00028709
4.94059e-09
0.00529743
-0.000266721
2.45702e-09
0.00554583
-0.000248408
7.10819e-11
0.00577434
-0.000228501
-2.06019e-09
0.00598666
-0.000212314
-3.76164e-09
0.00618006
-0.000193404
-5.03018e-09
0.00636024
-0.000180165
-5.6571e-09
0.00652243
-0.000162186
-5.88455e-09
0.00667497
-0.00015254
-5.43135e-09
0.00681
-0.000135025
-4.79068e-09
0.0069396
-0.00012959
-3.65725e-09
0.00705196
-0.000112357
-2.47539e-09
0.00716281
-0.000110854
-1.41861e-09
-9.41861e-05
1.74399e-10
-0.00216567
1.64912e-05
-0.00216672
1.03981e-05
-0.00216391
3.17145e-06
-0.00215722
-4.70979e-06
-0.00214598
-1.39857e-05
-0.00212908
-2.51715e-05
-0.00210551
-3.85462e-05
-0.00207406
-5.44506e-05
-0.00203333
-7.3242e-05
-0.00198171
-9.52891e-05
-0.00191763
-0.000120706
-0.0018392
-0.000149993
-0.00174448
-0.000183302
-0.00163149
-0.000220718
-0.00149829
-0.000262179
-0.00134306
-0.000307432
-0.00116423
-0.000356039
-0.000960557
-0.000407121
-0.000730999
-0.000460607
-0.000475985
-0.000513127
-0.000195852
-0.000565227
0.000107722
-0.000614457
0.000432451
-0.000659543
0.000776442
-0.00069896
0.00113605
-0.000732188
0.00150736
-0.000757394
0.00188628
-0.000774202
0.0022683
-0.000781766
0.00264928
-0.00078081
0.00302488
-0.00077092
0.00339171
-0.000754002
0.00374624
-0.000729725
0.00408633
-0.00070097
0.00440957
-0.00066704
0.0047152
-0.000631496
0.00500175
-0.000592743
0.00526984
-0.000555173
0.00551844
-0.000515325
0.00574952
-0.000479486
0.00596174
-0.000440724
0.00615859
-0.000409169
0.00633768
-0.00037249
0.00650428
-0.000346763
0.0066541
-0.000312002
0.00679486
-0.0002933
0.00691939
-0.000259556
0.00703881
-0.000249011
0.00714244
-0.000215994
0.00724457
-0.000212976
-0.000181209
-0.00140047
2.82319e-06
-0.00138664
-3.42835e-06
-0.00136986
-1.36153e-05
-0.00134889
-2.56758e-05
-0.00132302
-3.98529e-05
-0.00129157
-5.66252e-05
-0.00125359
-7.65215e-05
-0.00120802
-0.000100028
-0.0011536
-0.000127653
-0.00108896
-0.000159933
-0.00101269
-0.000196978
-0.000923162
-0.00023952
-0.000818688
-0.000287776
-0.000697552
-0.000341854
-0.000558078
-0.000401653
-0.000398723
-0.000466786
-0.000218152
-0.00053661
-1.49545e-05
-0.000610319
0.000208848
-0.00068441
0.000455504
-0.000759783
0.000723884
-0.000833607
0.00101269
-0.000903263
0.00131995
-0.000966807
0.00164299
-0.001022
0.0019784
-0.0010676
0.00232256
-0.00110155
0.00267167
-0.00112332
0.00302163
-0.00113172
0.00336869
-0.00112787
0.00370902
-0.00111124
0.00403963
-0.00108461
0.00435753
-0.00104762
0.0046609
-0.00100435
0.00494783
-0.000953973
0.00521777
-0.000901432
0.0054697
-0.000844673
0.00570426
-0.00078973
0.00592084
-0.000731904
0.00612125
-0.000679901
0.0063046
-0.000624075
0.00647398
-0.000578545
0.00662755
-0.000526065
0.00676991
-0.000489124
0.00689757
-0.000439655
0.00701716
-0.000412888
0.00712278
-0.000365181
0.00722382
-0.000350047
0.00731165
-0.000303825
0.0073979
-0.000299227
-0.000255164
-0.000354021
-3.0333e-05
-0.000324209
-3.32398e-05
-0.000291655
-4.61699e-05
-0.000254521
-6.28092e-05
-0.000212563
-8.18111e-05
-0.000165145
-0.000104043
-0.000111391
-0.000130276
-5.03713e-05
-0.000161047
1.88523e-05
-0.000196877
9.69936e-05
-0.000238075
0.000185661
-0.000285645
0.000286073
-0.000339933
0.000399559
-0.000401261
0.000527449
-0.000469744
0.000671024
-0.000545229
0.000831428
-0.00062719
0.00100956
-0.000714745
0.00120597
-0.000806727
0.00142146
-0.000899894
0.00165534
-0.000993672
0.00190674
-0.001085
0.00217432
-0.00117084
0.00245614
-0.00124863
0.0027497
-0.00131555
0.00305196
-0.00136986
0.00335963
-0.00140922
0.00366934
-0.00143302
0.00397748
-0.00143986
0.00428083
-0.00143123
0.00457617
-0.00140658
0.004861
-0.00136945
0.00513293
-0.00131955
0.00539054
-0.00126195
0.00563244
-0.00119587
0.0058583
-0.00112729
0.00606755
-0.00105393
0.00626087
-0.000983048
0.00643806
-0.000909093
0.00660074
-0.000842577
0.0067485
-0.000771836
0.00688393
-0.000713977
0.00700589
-0.000648029
0.00711813
-0.000601355
0.00721813
-0.00053966
0.00731118
-0.000505937
0.00739301
-0.000447014
0.00747079
-0.000427821
0.00753854
-0.00037158
0.00760455
-0.000365236
-0.000312325
0.000909201
-6.82358e-05
0.000949926
-7.39643e-05
0.000993763
-9.00068e-05
0.00104214
-0.00011119
0.00109558
-0.00013525
0.00115455
-0.00016301
0.00121969
-0.000195414
0.00129165
-0.000233016
0.00137115
-0.000276373
0.00145908
-0.000326
0.00155622
-0.00038279
0.00166347
-0.000447187
0.00178176
-0.000519545
0.001912
-0.000599986
0.00205508
-0.000688312
0.00221177
-0.000783874
0.0023826
-0.000885577
0.00256776
-0.000991884
0.00276781
-0.00109995
0.00298193
-0.00120779
0.00320921
-0.00131228
0.00344828
-0.00140992
0.00369732
-0.00149767
0.00395407
-0.00157231
0.00421597
-0.00163176
0.00448017
-0.00167343
0.00474386
-0.00169671
0.00500406
-0.00170006
0.00525815
-0.00168532
0.00550355
-0.00165198
0.00573831
-0.00160421
0.00596064
-0.00154188
0.00616944
-0.00147076
0.00636383
-0.00139026
0.00654361
-0.00130707
0.0067086
-0.00121892
0.00685938
-0.00113383
0.00699612
-0.00104584
0.00712014
-0.000966596
0.0072315
-0.000883188
0.00733218
-0.000814666
0.00742175
-0.000737598
0.00750302
-0.000682625
0.00757453
-0.000611164
0.00764008
-0.000571487
0.00769715
-0.000504089
0.00775056
-0.000481232
0.00779719
-0.000418204
0.00784179
-0.000409839
-0.00035153
0.00235151
-9.5469e-05
0.00239002
-0.000112475
0.00243466
-0.000134644
0.00248446
-0.000160992
0.0025399
-0.00019069
0.00260144
-0.000224552
0.00266944
-0.000263407
0.00274417
-0.000307751
0.002826
-0.0003582
0.00291547
-0.000415468
0.00301301
-0.00048033
0.00311913
-0.000553307
0.00323433
-0.000634751
0.00335912
-0.00072477
0.00349394
-0.000823133
0.00363916
-0.000929093
0.00379498
-0.0010414
0.00396137
-0.00115828
0.00413837
-0.00127695
0.00432525
-0.00139467
0.00452105
-0.00150808
0.00472448
-0.00161334
0.0049339
-0.00170709
0.00514742
-0.00178583
0.005363
-0.00184734
0.00557843
-0.00188885
0.00579153
-0.00190981
0.00600005
-0.00190858
0.00620204
-0.0018873
0.00639562
-0.00184556
0.00657935
-0.00178794
0.00675202
-0.00171454
0.00691281
-0.00163155
0.00706122
-0.00153867
0.00719708
-0.00144293
0.00732046
-0.00134229
0.00743177
-0.00124514
0.00753136
-0.00114544
0.00762018
-0.00105541
0.00769858
-0.000961593
0.00776796
-0.000884046
0.00782841
-0.000798044
0.00788186
-0.000736075
0.00792774
-0.000657041
0.00796848
-0.000612227
0.00800314
-0.000538753
0.00803435
-0.000512446
0.00806162
-0.000445475
0.00808654
-0.00043476
-0.000373984
0.0039372
-0.000106509
0.00396055
-0.000135824
0.00399277
-0.000166866
0.00403147
-0.000199686
0.00407661
-0.000235829
0.00412866
-0.000276604
0.00418775
-0.000322496
0.00425379
-0.000373798
0.0043268
-0.000431208
0.00440693
-0.0004956
0.00449431
-0.000567707
0.00458902
-0.000648012
0.0046911
-0.000736839
0.00480061
-0.000834279
0.00491755
-0.000940069
0.00504189
-0.00105343
0.00517358
-0.00117309
0.00531239
-0.00129709
0.00545805
-0.00142261
0.00560987
-0.00154648
0.0057669
-0.00166511
0.00592797
-0.00177441
0.00609174
-0.00187086
0.00625674
-0.00195083
0.00642153
-0.00201214
0.00658459
-0.00205191
0.00674446
-0.00206968
0.00689967
-0.00206379
0.00704891
-0.00203655
0.00719104
-0.00198769
0.00732508
-0.00192198
0.00745032
-0.00183977
0.00756614
-0.00174738
0.00767232
-0.00164485
0.00776864
-0.00153925
0.00785526
-0.00142892
0.00793232
-0.0013222
0.00800025
-0.00121336
0.00805951
-0.00111467
0.00811063
-0.00101272
0.00815438
-0.000927792
0.00819119
-0.000834854
0.00822221
-0.000767097
0.00824752
-0.000682352
0.00826837
-0.00063307
0.00828506
-0.000555442
0.0082984
-0.000525786
0.00831002
-0.000457099
0.00831901
-0.000443755
-0.000382632
0.00560119
-9.67608e-05
0.00560178
-0.000136416
0.00561152
-0.000176606
0.00562851
-0.000216672
0.00565249
-0.00025981
0.00568387
-0.000307984
0.00572262
-0.000361243
0.00576841
-0.000419586
0.00582101
-0.000483814
0.00588034
-0.000554926
0.00594622
-0.000633592
0.00601842
-0.000720211
0.00609665
-0.000815072
0.00618061
-0.00091823
0.00626991
-0.00102938
0.00636415
-0.00114767
0.00646286
-0.0012718
0.00656554
-0.00139976
0.00667188
-0.00152896
0.00678141
-0.001656
0.00689335
-0.00177705
0.00700674
-0.0018878
0.00712056
-0.00198468
0.0072338
-0.00206407
0.00734561
-0.00212395
0.00745519
-0.00216148
0.00756176
-0.00217625
0.00766459
-0.00216662
0.00776299
-0.00213496
0.00785642
-0.00208112
0.00794429
-0.00200985
0.00802627
-0.00192175
0.00810188
-0.00182299
0.00817103
-0.00171401
0.00823339
-0.00160161
0.0082891
-0.00148463
0.008338
-0.00137109
0.00838044
-0.00125581
0.00841645
-0.00115067
0.00844654
-0.00104281
0.00847093
-0.000952177
0.00849019
-0.000854116
0.00850484
-0.000781742
0.00851533
-0.000692845
0.00852197
-0.000639712
0.00852592
-0.000559388
0.00852661
-0.000526483
0.00852716
-0.000457651
0.00852496
-0.000441549
-0.000381354
0.00723847
-6.23778e-05
0.00721315
-0.000111097
0.00719576
-0.000159221
0.00718518
-0.000206088
0.0071816
-0.00025623
0.00718535
-0.000311741
0.00719619
-0.000372076
0.00721365
-0.000437045
0.00723745
-0.000507623
0.00726738
-0.000584855
0.00730308
-0.000669284
0.00734407
-0.000761208
0.00738988
-0.000860875
0.00743995
-0.0009683
0.00749369
-0.00108312
0.00755048
-0.00120446
0.00760966
-0.00133098
0.00767058
-0.00146068
0.00773266
-0.00159104
0.00779544
-0.00171879
0.00785876
-0.00184037
0.00792211
-0.00195116
0.00798484
-0.00204741
0.00804638
-0.00212561
0.00810642
-0.00218399
0.00816478
-0.00221984
0.00822129
-0.00223276
0.00827582
-0.00222115
0.00832817
-0.00218731
0.00837824
-0.00213119
0.00842572
-0.00205732
0.00847049
-0.00196652
0.00851214
-0.00186464
0.00855058
-0.00175245
0.00858533
-0.00163636
0.00861644
-0.00151573
0.00864344
-0.00139809
0.00866654
-0.00127891
0.00868538
-0.00116951
0.00870039
-0.00105783
0.00871132
-0.000963104
0.00871873
-0.000861524
0.00872266
-0.000785677
0.00872374
-0.000693921
0.0087216
-0.000637574
0.00871784
-0.000555628
0.00871102
-0.000519661
0.00870506
-0.000451689
0.00869642
-0.000432908
-0.00037422
0.00871083
-6.13352e-06
0.00866135
-6.16168e-05
0.00861763
-0.000115502
0.00857954
-0.000167997
0.00854803
-0.000224714
0.00852325
-0.000286962
0.00850462
-0.000353449
0.00849166
-0.000424081
0.00848413
-0.000500097
0.00848177
-0.000582488
0.00848409
-0.000671612
0.00849057
-0.000767681
0.0085006
-0.000870913
0.00851357
-0.000981272
0.0085288
-0.00109834
0.00854558
-0.00122124
0.00856324
-0.00134864
0.00858115
-0.00147859
0.00859877
-0.00160866
0.0086157
-0.00173572
0.00863176
-0.00185643
0.00864728
-0.00196668
0.00866219
-0.00206232
0.00867636
-0.00213978
0.00868989
-0.00219753
0.00870309
-0.00223304
0.00871623
-0.0022459
0.00872962
-0.00223453
0.00874338
-0.00220107
0.00875768
-0.00214549
0.00877236
-0.002072
0.0087874
-0.00198156
0.00880234
-0.00187958
0.00881705
-0.00176715
0.00883087
-0.00165019
0.00884372
-0.00152857
0.00885486
-0.00140924
0.00886436
-0.00128842
0.00887155
-0.00117669
0.00887671
-0.00106298
0.00887927
-0.00096567
0.00887968
-0.000861931
0.00887769
-0.000783691
0.0088739
-0.000690128
0.00886756
-0.000631238
0.00886038
-0.000548449
0.00885046
-0.000509733
0.00884197
-0.0004432
0.00883108
-0.000422023
-0.000364949
0.0098704
6.94369e-05
0.00980777
1.01907e-06
0.00974589
-5.36243e-05
0.00968767
-0.000109777
0.00963473
-0.000171772
0.00958714
-0.000239375
0.00954419
-0.000310498
0.00950548
-0.000385377
0.00947089
-0.000465502
0.0094401
-0.000551704
0.00941264
-0.00064415
0.00938797
-0.000743006
0.00936552
-0.00084847
0.0093447
-0.000960452
0.00932486
-0.0010785
0.00930537
-0.00120175
0.00928563
-0.0013289
0.00926516
-0.00145812
0.00924358
-0.00158708
0.00922072
-0.00171286
0.00919655
-0.00183226
0.00917154
-0.00194167
0.00914643
-0.0020372
0.0091216
-0.00211495
0.00909748
-0.00217341
0.00907469
-0.00221024
0.00905379
-0.002225
0.00903535
-0.00221609
0.00901968
-0.0021854
0.00900708
-0.00213289
0.00899743
-0.00206236
0.00899072
-0.00197485
0.00898644
-0.0018753
0.00898436
-0.00176507
0.00898369
-0.00164953
0.00898419
-0.00152907
0.00898497
-0.00141001
0.00898591
-0.00128936
0.00898616
-0.00117694
0.00898583
-0.00106266
0.0089842
-0.000964035
0.0089815
-0.000859235
0.00897738
-0.000779576
0.00897229
-0.000685033
0.00896533
-0.000624281
0.00895809
-0.000541208
0.00894853
-0.000500172
0.00894069
-0.000435363
0.0089309
-0.000412228
-0.000356625
0.0106324
0.000142885
0.0105612
7.22754e-05
0.0104946
1.29409e-05
0.0104289
-4.40468e-05
0.0103662
-0.000109094
0.0103067
-0.000179849
0.0102497
-0.000253527
0.0101952
-0.000330841
0.0101431
-0.000413385
0.0100931
-0.00050173
0.0100448
-0.00059589
0.00999785
-0.000696024
0.00995169
-0.000802302
0.00990582
-0.000914584
0.00985972
-0.00103241
0.00981291
-0.00115494
0.00976497
-0.00128096
0.00971558
-0.00140873
0.0096646
-0.0015361
0.00961207
-0.00166033
0.00955829
-0.00177848
0.0095037
-0.00188708
0.00944946
-0.00198297
0.0093965
-0.00206199
0.00934556
-0.00212247
0.00929744
-0.00216212
0.00925286
-0.00218042
0.00921252
-0.00217576
0.00917684
-0.00214972
0.00914616
-0.00210221
0.00912038
-0.00203658
0.00909945
-0.00195393
0.00908283
-0.00185868
0.0090702
-0.00175244
0.0090607
-0.00164003
0.00905396
-0.00152233
0.009049
-0.00140505
0.00904558
-0.00128594
0.00904272
-0.00117408
0.00904039
-0.00106033
0.0090378
-0.000961448
0.009035
-0.000856434
0.00903162
-0.000776194
0.00902789
-0.000681303
0.00902295
-0.000619347
0.00901813
-0.000536382
0.00901149
-0.000493532
0.00900668
-0.000430555
0.00900043
-0.000405981
-0.000351619
0.0109903
0.000204404
0.0109292
0.000133429
0.0108651
7.70137e-05
0.0108034
1.76509e-05
0.0107427
-4.83877e-05
0.0106822
-0.000119325
0.0106221
-0.000193492
0.0105627
-0.000271449
0.010504
-0.000354651
0.0104457
-0.000443408
0.0103874
-0.000537656
0.010329
-0.000637572
0.01027
-0.000743281
0.01021
-0.000854604
0.0101487
-0.000971088
0.0100857
-0.00109195
0.0100208
-0.00121607
0.00995388
-0.00134181
0.009885
-0.00146721
0.00981437
-0.0015897
0.00974254
-0.00170665
0.00967011
-0.00181464
0.00959825
-0.00191111
0.00952826
-0.00199199
0.00946117
-0.00205539
0.00939793
-0.00209888
0.00933932
-0.00212181
0.00928613
-0.00212257
0.00923881
-0.0021024
0.00919774
-0.00206113
0.00916283
-0.00200167
0.00913403
-0.00192513
0.00911079
-0.00183543
0.00909273
-0.00173438
0.00907898
-0.00162628
0.0090691
-0.00151245
0.00906208
-0.00139803
0.00905756
-0.00128142
0.00905456
-0.00117107
0.00905289
-0.00105867
0.00905179
-0.000960352
0.00905112
-0.000855754
0.00905055
-0.00077563
0.00905011
-0.000680862
0.00904907
-0.000618306
0.00904842
-0.000535729
0.00904649
-0.000491603
0.0090464
-0.000430464
0.00904541
-0.000404992
-0.000351657
0.0110382
0.000250184
0.0109902
0.000181343
0.0109382
0.000129076
0.0108829
7.29003e-05
0.0108324
2.16556e-06
0.0107786
-6.55305e-05
0.0107232
-0.00013813
0.0106668
-0.000215068
0.0106096
-0.000297454
0.0105514
-0.000385206
0.010492
-0.000478222
0.0104311
-0.000576697
0.0103686
-0.000680708
0.010304
-0.000790049
0.0102372
-0.000904299
0.010168
-0.00102273
0.0100963
-0.00114433
0.010022
-0.00126756
0.00994546
-0.00139067
0.00986699
-0.00151123
0.00978724
-0.0016269
0.009707
-0.00173441
0.00962733
-0.00183144
0.00954969
-0.00191435
0.00947533
-0.00198103
0.0094053
-0.00202885
0.00934045
-0.00205695
0.00928159
-0.00206371
0.00922922
-0.00205003
0.00918375
-0.00201566
0.00914514
-0.00196306
0.00911334
-0.00189333
0.00908783
-0.00180993
0.00906826
-0.0017148
0.00905375
-0.00161178
0.00904384
-0.00150254
0.00903752
-0.00139171
0.00903437
-0.00127827
0.00903342
-0.00117013
0.00903439
-0.00105963
0.00903656
-0.000962522
0.00903961
-0.000858808
0.00904335
-0.000779364
0.00904756
-0.000685071
0.0090517
-0.00062245
0.00905644
-0.000540466
0.00906043
-0.000495597
0.00906623
-0.000436258
0.00907164
-0.000410404
-0.000357943
0.0108952
0.000283094
0.0108591
0.000217448
0.010819
0.000169202
0.0107762
0.000115717
0.0107299
4.84414e-05
0.0106861
-2.16976e-05
0.0106385
-9.05625e-05
0.0105889
-0.000165471
0.0105375
-0.000246008
0.010484
-0.000331754
0.0104285