/*--------------------------------*- C++ -*----------------------------------*\
  =========                 |
  \\      /  F ield         | OpenFOAM: The Open Source CFD Toolbox
   \\    /   O peration     | Website:  https://openfoam.org
    \\  /    A nd           | Version:  7
     \\/     M anipulation  |
\*---------------------------------------------------------------------------*/
FoamFile
{
    version     2.0;
    format      ascii;
    class       volVectorField;
    location    "20";
    object      U;
}
// * * * * * * * * * * * * * * * * * * * * * * * * * * * * * * * * * * * * * //

dimensions      [0 1 -1 0 0 0 0];

internalField   nonuniform List<vector> 
6050
(
(-0.165938 0.00383478 1.7886e-20)
(-0.180893 0.00362378 -2.43784e-20)
(-0.194393 0.00343492 1.41781e-20)
(-0.206631 0.0032588 7.37681e-21)
(-0.21773 0.00308425 2.66724e-21)
(-0.227755 0.00289809 -8.61523e-21)
(-0.236724 0.00268641 -4.88502e-21)
(-0.244567 0.00242646 -3.20248e-21)
(-0.251126 0.00208582 1.32724e-20)
(-0.256405 0.00173662 -1.55444e-20)
(-0.259752 0.00111318 -3.29285e-21)
(-0.261989 0.000940579 3.81668e-21)
(-0.260908 7.44668e-05 -1.07162e-20)
(-0.161947 0.0114006 -7.79692e-20)
(-0.175697 0.0107553 4.74001e-20)
(-0.187794 0.0101736 -3.68522e-20)
(-0.198403 0.00962752 4.40733e-21)
(-0.207618 0.00908402 -2.11913e-20)
(-0.215473 0.00850453 7.67197e-21)
(-0.221964 0.0078492 1.53265e-20)
(-0.227012 0.007057 2.55306e-20)
(-0.230369 0.00600271 1.53152e-20)
(-0.232296 0.00500222 4.25301e-20)
(-0.231456 0.00297469 4.03094e-21)
(-0.230013 0.00258981 -3.45448e-20)
(-0.222872 -0.000424697 2.56273e-20)
(-0.154029 0.0186599 6.58192e-21)
(-0.165402 0.0175448 -1.83303e-20)
(-0.17474 0.0165272 3.62396e-20)
(-0.182157 0.0155607 -1.12924e-20)
(-0.187698 0.0145919 1.27942e-20)
(-0.191343 0.0135596 -1.29118e-20)
(-0.193046 0.0124022 -2.45659e-20)
(-0.192749 0.0110497 -2.81829e-20)
(-0.189915 0.00918036 -3.43086e-20)
(-0.185661 0.0077042 -6.91861e-20)
(-0.17663 0.00385464 2.56521e-20)
(-0.168929 0.00364905 2.15183e-20)
(-0.150248 -0.00230623 6.69664e-20)
(-0.142302 0.025419 -5.68378e-21)
(-0.150177 0.0237809 -1.77818e-21)
(-0.155474 0.0222633 -1.04962e-19)
(-0.158246 0.0208025 -4.95372e-20)
(-0.158475 0.0193265 2.3085e-20)
(-0.15608 0.0177563 2.85478e-21)
(-0.150948 0.0160096 2.25346e-20)
(-0.143174 0.0140753 -6.71185e-20)
(-0.131422 0.0112348 2.61429e-20)
(-0.119031 0.00953248 3.80755e-20)
(-0.0979411 0.00355324 4.3907e-20)
(-0.082746 0.00368372 -2.34141e-20)
(-0.0475571 -0.00508656 -5.41197e-20)
(-0.126902 0.031499 -4.35268e-21)
(-0.130211 0.0292749 -1.58033e-21)
(-0.130264 0.0271833 2.14192e-20)
(-0.127046 0.0251452 3.12307e-20)
(-0.120478 0.0230715 -8.41968e-20)
(-0.110423 0.0208742 1.01708e-19)
(-0.096639 0.0184457 5.18601e-20)
(-0.0797068 0.0158931 7.97246e-20)
(-0.0565333 0.0120522 -2.02233e-21)
(-0.0348219 0.0098727 -1.88329e-20)
(0.00185812 0.00290928 1.8797e-21)
(0.0249356 0.00161222 -2.82809e-20)
(0.0808006 -0.00761907 -5.03384e-20)
(-0.10565 0.033867 7.99404e-21)
(-0.0993003 0.0311311 2.2081e-20)
(-0.0888097 0.0284417 1.74464e-19)
(-0.0740389 0.0256943 -1.11293e-21)
(-0.05483 0.0228041 6.08489e-20)
(-0.0306927 0.0196675 -1.47932e-19)
(-0.00314415 0.0162751 1.91107e-20)
(0.0336231 0.0118878 -2.98425e-20)
(0.0655771 0.00849442 -2.37056e-20)
(0.121445 0.00187331 2.23881e-20)
(0.150328 -0.00211449 -4.93438e-20)
(0.233681 -0.00973691 4.96768e-20)
(-0.0765183 0.0374321 -1.16024e-19)
(-0.0625798 0.0340018 1.35658e-20)
(-0.0435006 0.0306188 -3.57402e-20)
(-0.0190785 0.0271679 5.60526e-20)
(0.0108227 0.0235581 -1.49945e-21)
(0.0469829 0.0198062 -5.13375e-20)
(0.0866222 0.015359 1.33957e-19)
(0.139369 0.0110947 -5.16369e-20)
(0.181115 0.00575973 -4.35382e-20)
(0.260904 0.00050553 6.73887e-20)
(0.291926 -0.00615057 2.519e-20)
(0.407697 -0.0116815 1.08496e-19)
(-0.0426236 0.0398886 3.52559e-19)
(-0.0197863 0.0357544 4.4962e-21)
(0.00935371 0.0316942 -2.24119e-19)
(0.0450518 0.0275954 -2.34059e-20)
(0.0873647 0.023306 -2.15956e-19)
(0.137393 0.019213 1.01665e-19)
(0.190575 0.0136128 -7.5069e-20)
(0.261258 0.0103176 7.79835e-20)
(0.313108 0.00240222 1.08426e-19)
(0.417776 -3.35008e-05 4.20738e-20)
(0.450166 -0.00937439 -1.1725e-19)
(0.595964 -0.0126367 -1.00804e-19)
(-0.00346786 0.0412128 -2.8943e-19)
(0.0298184 0.0364337 -8.27292e-20)
(0.0707667 0.0318035 5.15162e-20)
(0.119637 0.0272273 9.45663e-20)
(0.176295 0.0224419 -2.83399e-20)
(0.241911 0.0184764 1.0988e-19)
(0.310512 0.0118613 6.31433e-21)
(0.398565 0.0102553 -1.17608e-19)
(0.463223 0.00030197 8.19442e-21)
(0.586156 0.000750247 -1.63769e-19)
(0.623459 -0.00998056 3.01142e-20)
(0.786684 -0.0109169 -6.42856e-20)
(0.0418413 0.041466 1.34302e-19)
(0.0874631 0.0362075 -1.10333e-19)
(0.142281 0.0312485 1.7113e-19)
(0.20643 0.0265412 1.6719e-19)
(0.279394 0.0216762 2.14337e-19)
(0.361558 0.0182929 -2.03653e-19)
(0.447221 0.011608 1.88289e-20)
(0.548671 0.0113405 1.73099e-19)
(0.629087 0.00155036 -6.13365e-20)
(0.756847 0.00365242 9.35061e-22)
(0.803694 -0.00687551 -6.83664e-21)
(0.963339 -0.00555018 8.10894e-20)
(0.0946422 0.0408342 -1.47433e-19)
(0.154841 0.035419 -2.34103e-20)
(0.225788 0.0305626 -7.42642e-20)
(0.30717 0.0262678 -4.91399e-20)
(0.397709 0.0220345 -1.15547e-19)
(0.496006 0.0195333 -5.75886e-20)
(0.597844 0.0142623 2.18976e-20)
(0.706658 0.0145263 -1.11707e-19)
(0.800577 0.00693893 1.21387e-20)
(0.918653 0.00941369 7.09968e-21)
(0.974595 -4.67571e-06 -8.27307e-20)
(1.10881 0.00279152 5.44567e-20)
(0.233895 0.0346388 -7.67931e-20)
(0.323003 0.0305373 2.39177e-19)
(0.422687 0.027353 -2.6856e-19)
(0.530188 0.024615 -2.40672e-19)
(0.642074 0.0233282 3.32702e-19)
(0.754559 0.0203771 -7.18209e-20)
(0.863975 0.0208804 3.47916e-20)
(0.961397 0.0158565 5.00923e-20)
(1.05963 0.0177825 -4.44804e-20)
(1.11653 0.00945516 1.21157e-19)
(1.21142 0.0119682 1.51354e-19)
(0.326308 0.0346842 1.21551e-19)
(0.434565 0.032172 -1.36364e-19)
(0.551613 0.0308532 -5.7876e-20)
(0.672473 0.0302651 1.88301e-19)
(0.792239 0.0305 -2.43849e-19)
(0.905866 0.0296907 -1.35245e-20)
(1.00802 0.0303036 9.92296e-20)
(1.09555 0.0267443 -3.95151e-20)
(1.16935 0.0274155 -5.162e-20)
(1.21608 0.0193067 6.50296e-21)
(1.27115 0.0200913 -6.85045e-20)
(0.432658 0.0365563 -2.54151e-19)
(0.558894 0.0364811 1.49518e-19)
(0.689236 0.037581 8.53792e-20)
(0.816514 0.0392797 -1.10126e-19)
(0.935162 0.0408264 1.72848e-19)
(1.03934 0.0412269 1.33468e-19)
(1.12589 0.0412671 -3.42474e-20)
(1.19371 0.0377108 1.1767e-21)
(1.24287 0.0365166 -5.29762e-21)
(1.27328 0.0276644 -1.68248e-19)
(1.29831 0.0264329 -2.34839e-19)
(0.551394 0.0412387 1.03091e-19)
(0.691265 0.0441467 -8.57755e-20)
(0.827393 0.0476718 6.0479e-20)
(0.951638 0.0510874 5.16846e-20)
(1.05902 0.0530183 -3.91594e-20)
(1.14516 0.0533622 9.35846e-20)
(1.21046 0.0517768 -1.03065e-19)
(1.2557 0.0472749 1.2284e-19)
(1.28387 0.0438184 2.40395e-19)
(1.29925 0.0339916 1.19296e-19)
(1.30661 0.0312553 1.88592e-19)
(0.823863 0.0551404 1.14023e-20)
(0.956003 0.0603569 3.35321e-20)
(1.06749 0.064259 -5.70592e-20)
(1.15566 0.0653183 -1.44007e-19)
(1.21956 0.0644214 -2.51099e-21)
(1.26306 0.0605057 1.73948e-19)
(1.28876 0.0548711 -1.4604e-19)
(1.30211 0.049122 -3.34196e-19)
(1.30746 0.0388466 -2.49659e-19)
(1.30618 0.0351435 9.39825e-20)
(0.947366 0.0685713 -2.4905e-19)
(1.06595 0.0741487 1.8861e-19)
(1.15756 0.0770799 2.44753e-20)
(1.22318 0.0762678 6.4178e-20)
(1.26561 0.0734429 -1.40299e-19)
(1.29105 0.0672143 -4.04216e-20)
(1.30289 0.0607603 -3.79945e-20)
(1.3075 0.0529378 3.99075e-20)
(1.30717 0.0430368 1.46016e-19)
(1.30226 0.0384048 -3.12322e-19)
(1.15195 0.0874294 -8.87304e-20)
(1.22098 0.0882861 2.43297e-20)
(1.26534 0.0852103 -1.38051e-19)
(1.29044 0.080377 -1.16129e-20)
(1.3031 0.0723957 2.81316e-20)
(1.30645 0.0654742 -2.06034e-20)
(1.30649 0.0558854 2.82157e-19)
(1.30298 0.0471293 5.45509e-21)
(1.29711 0.041061 2.93428e-19)
(1.2136 0.0990767 -3.35794e-20)
(1.26149 0.0974185 -1.1799e-19)
(1.28866 0.0922397 -2.12286e-19)
(1.30147 0.085708 -5.93405e-21)
(1.30602 0.0766781 -9.68602e-20)
(1.30464 0.0693889 8.34696e-20)
(1.30238 0.0585039 -4.22437e-20)
(1.29697 0.0514404 -3.27116e-19)
(1.29167 0.0429112 -1.28801e-19)
(1.28479 0.104659 1.76249e-19)
(1.29949 0.0978021 2.68191e-19)
(1.30432 0.0900115 -4.51286e-20)
(1.30409 0.0804802 6.49195e-20)
(1.30027 0.0727221 -2.40353e-20)
(1.29682 0.0613238 1.47951e-19)
(1.29018 0.0558479 7.29432e-20)
(1.28625 0.0436157 8.37325e-20)
(1.29634 0.110456 1.75435e-20)
(1.30266 0.102374 7.42068e-20)
(1.30264 0.0937357 -1.39912e-20)
(1.29973 0.0839868 1.31459e-19)
(1.29477 0.0757292 1.41367e-20)
(1.29064 0.0646694 -3.43214e-19)
(1.28347 0.0594983 1.54373e-19)
(1.28055 0.042692 -1.42566e-19)
(1.30138 0.106343 -2.87491e-20)
(1.29856 0.0971594 -3.1017e-20)
(1.29422 0.0872937 -2.25572e-20)
(1.28878 0.0787185 1.33231e-19)
(1.28418 0.0682168 1.01185e-19)
(1.27722 0.0613613 3.24696e-20)
(1.27424 0.0499278 8.93126e-20)
(1.29765 0.109966 -3.03568e-20)
(1.29327 0.100418 -1.18768e-20)
(1.28819 0.0905017 1.08624e-19)
(1.28258 0.0817883 -5.71538e-20)
(1.27772 0.0711713 -6.68256e-20)
(1.27096 0.0652582 -1.52889e-19)
(1.26792 0.0524946 -1.0296e-19)
(1.28738 0.103599 6.17199e-21)
(1.28193 0.0936896 -1.40233e-19)
(1.27628 0.0846776 3.44793e-20)
(1.27126 0.074618 -6.84551e-20)
(1.26477 0.0677442 -2.5949e-19)
(1.26188 0.0561708 1.35272e-19)
(1.27556 0.0967928 7.59881e-20)
(1.26993 0.0876869 -1.84482e-20)
(1.26482 0.0775859 2.27319e-19)
(1.25867 0.070783 2.1889e-19)
(1.25564 0.0593197 9.09352e-20)
(1.26353 0.0905415 -4.37875e-21)
(1.25839 0.0807027 -1.553e-19)
(1.25254 0.073397 -5.97447e-20)
(1.24947 0.0622158 -8.69636e-20)
(1.25195 0.0835882 -1.08518e-20)
(1.2464 0.0760089 1.43027e-19)
(1.24317 0.0650679 1.55941e-19)
(1.24019 0.0784833 -8.4504e-20)
(1.23683 0.067679 -3.21992e-20)
(1.24019 -0.0784833 -2.99212e-20)
(1.23683 -0.0676791 -2.18363e-19)
(1.25195 -0.0835883 7.03597e-20)
(1.2464 -0.0760089 1.55238e-19)
(1.24317 -0.0650679 8.35479e-20)
(1.26353 -0.0905416 9.00795e-20)
(1.25839 -0.0807027 -7.52367e-20)
(1.25254 -0.073397 -1.25571e-19)
(1.24947 -0.0622159 2.06479e-20)
(1.27556 -0.0967928 -1.94524e-19)
(1.26993 -0.0876869 -2.93093e-21)
(1.26482 -0.077586 2.5546e-19)
(1.25867 -0.070783 1.04684e-19)
(1.25564 -0.0593198 8.8903e-20)
(1.28738 -0.103599 -4.80357e-20)
(1.28193 -0.0936897 2.98643e-20)
(1.27628 -0.0846776 -2.75632e-20)
(1.27126 -0.0746181 2.85196e-20)
(1.26477 -0.0677442 -1.60397e-19)
(1.26188 -0.0561708 9.13399e-20)
(1.29765 -0.109966 3.85685e-21)
(1.29327 -0.100418 8.84247e-20)
(1.28819 -0.0905017 4.18738e-20)
(1.28258 -0.0817884 -1.03714e-19)
(1.27772 -0.0711714 -2.08786e-20)
(1.27096 -0.0652583 -1.01122e-20)
(1.26792 -0.0524947 -1.60979e-19)
(1.30138 -0.106343 -1.14122e-20)
(1.29856 -0.0971595 5.98998e-21)
(1.29422 -0.0872938 -5.68571e-20)
(1.28878 -0.0787186 5.26145e-20)
(1.28418 -0.0682169 3.9874e-20)
(1.27722 -0.0613614 -3.52682e-21)
(1.27424 -0.0499278 1.25198e-19)
(1.29634 -0.110456 -1.05208e-19)
(1.30266 -0.102374 -1.64309e-19)
(1.30264 -0.0937358 1.3135e-19)
(1.29973 -0.0839869 8.60877e-20)
(1.29477 -0.0757293 -3.87312e-20)
(1.29064 -0.0646695 -3.19759e-19)
(1.28347 -0.0594985 3.19217e-20)
(1.28055 -0.0426921 1.80649e-20)
(1.28479 -0.104659 2.06078e-19)
(1.29949 -0.0978022 2.17664e-19)
(1.30432 -0.0900116 -7.16659e-20)
(1.30409 -0.0804803 1.82153e-20)
(1.30027 -0.0727222 5.46271e-20)
(1.29682 -0.0613239 5.1043e-20)
(1.29018 -0.0558481 1.54814e-19)
(1.28625 -0.0436158 5.90873e-20)
(1.2136 -0.0990767 -5.75697e-20)
(1.26149 -0.0974185 -9.44866e-20)
(1.28866 -0.0922398 -1.46308e-19)
(1.30147 -0.0857081 3.45449e-20)
(1.30602 -0.0766783 -1.34147e-19)
(1.30464 -0.0693891 -4.81077e-21)
(1.30238 -0.058504 -1.09846e-19)
(1.29697 -0.0514405 -1.51777e-19)
(1.29167 -0.0429113 -9.50618e-20)
(1.15195 -0.0874295 3.96742e-20)
(1.22098 -0.0882862 -5.43204e-20)
(1.26534 -0.0852104 -1.19454e-19)
(1.29044 -0.0803771 -7.67861e-20)
(1.3031 -0.0723958 1.14914e-19)
(1.30645 -0.0654743 -7.4848e-20)
(1.30649 -0.0558856 3.35695e-19)
(1.30298 -0.0471295 1.72855e-19)
(1.29711 -0.0410612 2.91756e-20)
(0.947366 -0.0685712 3.62337e-20)
(1.06595 -0.0741487 -1.46163e-20)
(1.15756 -0.07708 -5.47573e-20)
(1.22318 -0.0762679 2.73091e-19)
(1.26561 -0.073443 -1.76346e-19)
(1.29105 -0.0672145 -1.64185e-19)
(1.30289 -0.0607604 3.44857e-20)
(1.3075 -0.052938 3.1814e-20)
(1.30717 -0.043037 3.86785e-19)
(1.30226 -0.038405 -3.68455e-19)
(0.823863 -0.0551404 1.29235e-19)
(0.956003 -0.0603569 1.22808e-20)
(1.06749 -0.0642591 -3.35271e-20)
(1.15566 -0.0653184 -1.04532e-19)
(1.21956 -0.0644215 4.23397e-20)
(1.26306 -0.0605059 8.22499e-20)
(1.28876 -0.0548713 -1.25761e-19)
(1.30211 -0.0491222 -2.96971e-19)
(1.30746 -0.0388468 -1.66785e-19)
(1.30618 -0.0351437 8.48574e-20)
(0.551394 -0.0412386 4.73216e-19)
(0.691265 -0.0441466 -2.06452e-19)
(0.827392 -0.0476718 1.0362e-20)
(0.951637 -0.0510874 1.48985e-19)
(1.05902 -0.0530184 1.19291e-19)
(1.14516 -0.0533623 -7.31891e-20)
(1.21046 -0.051777 3.57555e-20)
(1.2557 -0.0472752 1.06668e-19)
(1.28387 -0.0438186 7.80851e-20)
(1.29925 -0.0339918 1.50146e-19)
(1.30661 -0.0312555 3.38779e-19)
(0.432658 -0.0365562 -2.92e-19)
(0.558894 -0.036481 1.82e-19)
(0.689236 -0.037581 1.21001e-19)
(0.816514 -0.0392797 -2.42946e-19)
(0.935162 -0.0408264 3.39203e-19)
(1.03934 -0.0412271 -2.26364e-20)
(1.12589 -0.0412673 -6.33738e-20)
(1.19371 -0.037711 -4.25608e-20)
(1.24287 -0.0365168 -1.65502e-20)
(1.27328 -0.0276647 -2.33916e-20)
(1.29831 -0.0264332 -1.24898e-19)
(0.326308 -0.0346841 1.06832e-19)
(0.434564 -0.0321719 -1.30198e-19)
(0.551613 -0.0308531 -6.5514e-20)
(0.672473 -0.0302651 1.96977e-19)
(0.792239 -0.0305 -3.2083e-19)
(0.905866 -0.0296908 -1.72055e-21)
(1.00802 -0.0303039 1.37524e-19)
(1.09555 -0.0267446 -8.65618e-20)
(1.16935 -0.0274158 7.21168e-20)
(1.21608 -0.0193071 -1.48246e-19)
(1.27115 -0.0200916 -1.23561e-19)
(0.233895 -0.0346386 5.18048e-20)
(0.323003 -0.0305372 1.41458e-19)
(0.422686 -0.027353 -2.17352e-19)
(0.530187 -0.024615 -2.28031e-19)
(0.642074 -0.0233283 2.99629e-19)
(0.754559 -0.0203773 -6.80136e-20)
(0.863975 -0.0208806 1.08812e-19)
(0.961396 -0.0158568 9.24005e-20)
(1.05963 -0.0177828 -1.37048e-19)
(1.11653 -0.00945552 1.41461e-19)
(1.21142 -0.0119686 1.12536e-19)
(0.094642 -0.040834 2.09377e-19)
(0.154841 -0.0354188 6.23042e-20)
(0.225788 -0.0305624 -2.80848e-19)
(0.307169 -0.0262677 5.37547e-20)
(0.397709 -0.0220345 -1.64409e-19)
(0.496006 -0.0195334 -1.38043e-20)
(0.597844 -0.0142624 7.10201e-20)
(0.706657 -0.0145265 -1.31237e-19)
(0.800577 -0.00693923 -3.44819e-20)
(0.918652 -0.00941405 -3.39901e-20)
(0.974594 4.26498e-06 1.85155e-20)
(1.10881 -0.00279191 -2.49214e-20)
(0.0418411 -0.0414658 1.29397e-19)
(0.0874629 -0.0362074 -6.8286e-20)
(0.142281 -0.0312484 2.48847e-19)
(0.20643 -0.0265411 -2.93235e-20)
(0.279393 -0.0216762 2.25338e-19)
(0.361558 -0.018293 -5.56686e-20)
(0.447221 -0.0116081 4.14397e-20)
(0.548671 -0.0113407 -5.47981e-20)
(0.629087 -0.00155069 6.2641e-20)
(0.756847 -0.00365282 4.04535e-20)
(0.803693 0.00687505 2.84842e-20)
(0.963339 0.00554973 -4.15265e-20)
(-0.00346802 -0.0412126 -3.5893e-19)
(0.0298182 -0.0364335 -4.2728e-20)
(0.0707665 -0.0318033 6.02362e-20)
(0.119637 -0.0272272 9.08447e-20)
(0.176295 -0.0224418 9.91454e-20)
(0.241911 -0.0184764 1.56891e-20)
(0.310512 -0.0118615 -1.1645e-20)
(0.398564 -0.0102556 -1.82533e-19)
(0.463223 -0.000302333 -2.81541e-20)
(0.586155 -0.000750684 4.01544e-20)
(0.623459 0.00998004 -7.93329e-20)
(0.786683 0.0109164 -1.39989e-19)
(-0.0426237 -0.0398884 2.45251e-19)
(-0.0197865 -0.0357542 -3.34315e-20)
(0.00935352 -0.031694 -1.73243e-19)
(0.0450516 -0.0275953 -1.33059e-19)
(0.0873645 -0.0233059 -4.47035e-20)
(0.137393 -0.019213 -5.00018e-20)
(0.190575 -0.013613 4.06829e-20)
(0.261258 -0.0103179 5.71073e-20)
(0.313108 -0.00240263 7.92237e-20)
(0.417776 3.3015e-05 -3.38076e-21)
(0.450165 0.0093738 1.54622e-20)
(0.595963 0.0126361 -1.07862e-19)
(-0.0765184 -0.0374319 -1.47421e-19)
(-0.0625799 -0.0340016 9.5324e-20)
(-0.0435008 -0.0306187 -3.46739e-20)
(-0.0190787 -0.0271678 6.83749e-20)
(0.0108225 -0.0235581 -1.41447e-20)
(0.0469827 -0.0198063 -1.83874e-20)
(0.086622 -0.0153592 5.93521e-20)
(0.139369 -0.011095 -5.41132e-20)
(0.181115 -0.00576017 5.24972e-20)
(0.260904 -0.000506071 5.68266e-21)
(0.291926 0.00614991 4.30137e-20)
(0.407697 0.0116808 2.10448e-19)
(-0.10565 -0.0338668 3.02039e-20)
(-0.0993004 -0.0311309 5.76966e-20)
(-0.0888098 -0.0284416 1.35108e-19)
(-0.074039 -0.0256942 -4.08692e-20)
(-0.0548301 -0.0228042 4.61577e-20)
(-0.0306929 -0.0196676 -6.29822e-20)
(-0.00314433 -0.0162754 -6.3103e-20)
(0.0336229 -0.0118882 7.18147e-20)
(0.0655769 -0.0084949 -1.35987e-20)
(0.121445 -0.00187391 -8.89686e-20)
(0.150328 0.00211376 6.34861e-20)
(0.233681 0.00973613 -4.83735e-20)
(-0.126902 -0.0314988 1.0279e-19)
(-0.130211 -0.0292747 -1.56145e-20)
(-0.130264 -0.0271832 5.52054e-21)
(-0.127046 -0.0251451 -1.86532e-20)
(-0.120478 -0.0230715 -2.10538e-21)
(-0.110424 -0.0208742 8.25211e-20)
(-0.0966392 -0.0184458 9.2059e-20)
(-0.0797069 -0.0158933 1.50143e-20)
(-0.0565335 -0.0120526 4.17074e-20)
(-0.034822 -0.00987323 -8.06222e-20)
(0.00185802 -0.00290994 1.06616e-19)
(0.0249356 -0.001613 -1.12026e-19)
(0.0808006 0.00761821 -2.97383e-20)
(-0.142303 -0.0254188 1.46889e-20)
(-0.150177 -0.0237807 -2.81569e-20)
(-0.155474 -0.0222632 -4.89795e-20)
(-0.158246 -0.0208024 -7.73419e-20)
(-0.158475 -0.0193265 4.23227e-20)
(-0.15608 -0.0177564 -1.02663e-20)
(-0.150948 -0.0160098 5.44746e-20)
(-0.143174 -0.0140755 -9.17855e-20)
(-0.131422 -0.0112352 4.21217e-20)
(-0.119031 -0.00953303 4.72593e-20)
(-0.0979411 -0.00355395 -4.74432e-20)
(-0.082746 -0.00368455 4.19685e-20)
(-0.0475571 0.00508563 -6.83857e-20)
(-0.154029 -0.0186596 -5.74965e-21)
(-0.165402 -0.0175446 -3.3082e-20)
(-0.17474 -0.016527 1.48682e-20)
(-0.182157 -0.0155605 1.64425e-20)
(-0.187698 -0.0145918 2.62318e-20)
(-0.191343 -0.0135596 -3.39329e-20)
(-0.193046 -0.0124024 -1.65433e-20)
(-0.192749 -0.01105 2.62324e-21)
(-0.189915 -0.00918079 -7.67569e-20)
(-0.185661 -0.00770479 -3.88538e-20)
(-0.17663 -0.00385538 -2.16132e-20)
(-0.168929 -0.00364993 7.14325e-20)
(-0.150248 0.00230525 2.42291e-20)
(-0.161947 -0.0114004 -6.72293e-20)
(-0.175697 -0.0107551 4.63683e-20)
(-0.187795 -0.0101735 -3.7589e-20)
(-0.198403 -0.0096274 2.12105e-20)
(-0.207618 -0.00908397 -2.92396e-20)
(-0.215473 -0.00850457 -4.63076e-21)
(-0.221964 -0.00784936 8.65238e-21)
(-0.227012 -0.0070573 3.19232e-20)
(-0.230369 -0.00600316 1.87242e-20)
(-0.232296 -0.00500283 5.16387e-20)
(-0.231456 -0.00297545 -1.61872e-20)
(-0.230013 -0.00259071 -2.21504e-20)
(-0.222872 0.000423674 -3.04107e-22)
(-0.165938 -0.00383456 1.90334e-20)
(-0.180893 -0.00362358 -2.07082e-20)
(-0.194393 -0.00343475 7.96287e-21)
(-0.206631 -0.00325868 1.63157e-20)
(-0.21773 -0.0030842 -7.4965e-21)
(-0.227755 -0.00289814 1.61864e-21)
(-0.236724 -0.00268657 -1.06039e-20)
(-0.244567 -0.00242676 -2.28211e-21)
(-0.251126 -0.00208627 1.08439e-20)
(-0.256405 -0.00173724 -6.29843e-21)
(-0.259752 -0.00111396 -8.20699e-21)
(-0.261989 -0.000941503 -3.79788e-21)
(-0.260908 -7.55105e-05 -1.34239e-20)
(-0.261579 0.000997878 -9.52092e-21)
(-0.263206 0.000760182 4.3764e-21)
(-0.264174 0.000565196 -3.46862e-21)
(-0.264868 0.000355204 6.7357e-21)
(-0.26511 0.000110476 -8.16964e-22)
(-0.264846 -0.000174395 -4.83012e-21)
(-0.263961 -0.000500682 1.44601e-21)
(-0.262329 -0.00087222 3.49022e-22)
(-0.259802 -0.00129291 -1.19688e-21)
(-0.256213 -0.00176563 5.15261e-21)
(-0.251383 -0.00229051 -5.12383e-21)
(-0.24511 -0.00287103 -2.14875e-22)
(-0.237175 -0.00350549 2.93655e-21)
(-0.227353 -0.00419033 -5.9904e-22)
(-0.215415 -0.00491894 -3.98963e-22)
(-0.201137 -0.0056815 1.13972e-21)
(-0.184312 -0.00646445 -1.77311e-21)
(-0.164774 -0.00724499 1.27046e-21)
(-0.142358 -0.00801699 -9.23462e-22)
(-0.117021 -0.00873387 1.74693e-21)
(-0.0887869 -0.00940367 -1.2672e-21)
(-0.0576848 -0.0100009 -6.46627e-22)
(-0.0238954 -0.0104979 -2.6805e-22)
(0.0123748 -0.0108254 2.19052e-22)
(0.0508268 -0.0110663 1.22617e-21)
(0.0910046 -0.0111664 -2.71443e-22)
(0.132544 -0.0111322 -1.89892e-22)
(0.17497 -0.0109629 1.7396e-22)
(0.217816 -0.0106798 -7.84606e-23)
(0.260638 -0.0102868 -6.11276e-23)
(0.30292 -0.00981771 4.28089e-23)
(0.344451 -0.00927439 5.56423e-23)
(0.38456 -0.00869959 -1.1208e-23)
(0.423535 -0.00808723 3.50664e-25)
(0.460327 -0.00748386 7.76208e-24)
(0.496009 -0.00687057 -3.44509e-24)
(0.52885 -0.00629852 -2.68669e-23)
(0.561014 -0.00572929 5.6947e-24)
(0.589672 -0.00522889 8.32598e-24)
(0.618527 -0.00472292 -7.46351e-24)
(0.642975 -0.00431024 4.3016e-24)
(0.669084 -0.00386892 -3.77452e-24)
(0.689334 -0.00354764 3.87384e-24)
(0.713543 -0.00316212 1.43011e-23)
(0.729485 -0.00293179 5.85802e-25)
(0.752925 -0.00258771 2.68148e-25)
(0.764179 -0.00244689 -1.04749e-24)
(0.788357 -0.00213652 1.33818e-24)
(0.79423 -0.00206957 -1.04809e-24)
(0.821015 -0.00179422 4.51027e-24)
(-0.220523 0.0022995 -2.45919e-20)
(-0.221581 0.0017003 9.48086e-21)
(-0.221583 0.0011344 -1.71402e-20)
(-0.221296 0.000503605 7.43866e-21)
(-0.220573 -0.000235507 5.51019e-21)
(-0.219326 -0.00108025 5.46823e-21)
(-0.217447 -0.00204246 -1.3273e-20)
(-0.214819 -0.00313532 8.96026e-21)
(-0.211302 -0.00437036 -9.15706e-21)
(-0.206739 -0.00575771 -1.31226e-22)
(-0.200964 -0.00729819 5.3167e-21)
(-0.19379 -0.0090031 6.4317e-21)
(-0.185013 -0.0108654 -9.22865e-21)
(-0.174423 -0.0128737 6.16001e-21)
(-0.16181 -0.0150081 2.78328e-21)
(-0.146969 -0.017239 -4.21909e-21)
(-0.129711 -0.0195273 -2.09136e-21)
(-0.109902 -0.0218101 4.21107e-21)
(-0.0873697 -0.0241257 -1.66636e-21)
(-0.0620972 -0.0262063 -3.56847e-22)
(-0.0341459 -0.0281465 -2.23825e-21)
(-0.00354844 -0.0298304 4.54133e-21)
(0.0295622 -0.0312145 -3.35536e-21)
(0.0649098 -0.0322039 2.63201e-21)
(0.102197 -0.0328672 -5.00698e-22)
(0.141018 -0.0331205 -1.39626e-21)
(0.181005 -0.0329805 1.58689e-21)
(0.221693 -0.0324447 -6.40112e-22)
(0.262654 -0.0315749 7.16271e-23)
(0.303456 -0.0303838 -4.25518e-22)
(0.343634 -0.0289716 9.28398e-23)
(0.382984 -0.0273457 2.69174e-23)
(0.420897 -0.0256303 5.32713e-23)
(0.457647 -0.0238104 -1.75989e-24)
(0.492268 -0.0220193 4.46671e-23)
(0.525777 -0.0202046 -6.40939e-23)
(0.556566 -0.0185125 5.71108e-23)
(0.586674 -0.0168322 1.35013e-24)
(0.613464 -0.0153553 -6.30464e-23)
(0.640412 -0.0138661 1.44326e-23)
(0.663219 -0.0126512 -1.86674e-24)
(0.687575 -0.0113551 -2.21614e-23)
(0.706436 -0.0104109 1.7235e-23)
(0.729024 -0.00928058 1.85304e-23)
(0.74385 -0.00860459 -2.91531e-23)
(0.765757 -0.00759771 5.68782e-24)
(0.776204 -0.00718441 2.29534e-24)
(0.79886 -0.00627886 -9.66319e-25)
(0.804296 -0.00608108 2.30371e-24)
(0.829454 -0.00528002 2.77835e-24)
(-0.143153 0.00208768 -3.10993e-20)
(-0.143021 0.00119565 2.00595e-20)
(-0.141442 0.000194612 2.00274e-21)
(-0.139515 -0.000868976 -1.10373e-20)
(-0.137143 -0.00207959 -4.88771e-21)
(-0.134214 -0.00344643 1.49948e-20)
(-0.130644 -0.00499612 -2.04945e-20)
(-0.126328 -0.00675356 4.8448e-21)
(-0.121145 -0.00874205 -1.0602e-21)
(-0.114949 -0.0109847 -3.17662e-21)
(-0.107598 -0.0134514 2.31709e-21)
(-0.0989328 -0.0161808 1.41808e-20)
(-0.0887734 -0.01916 -1.5632e-20)
(-0.0769413 -0.0223698 7.31794e-21)
(-0.0632574 -0.0257773 -3.00546e-21)
(-0.0475533 -0.0293339 4.00837e-21)
(-0.0296683 -0.0329785 -3.7945e-21)
(-0.00957424 -0.0366323 3.97406e-21)
(0.0129744 -0.0401582 -1.68041e-21)
(0.0380174 -0.0434766 4.12543e-21)
(0.0653334 -0.0465187 -2.63732e-21)
(0.0949076 -0.0491262 -6.34991e-21)
(0.126595 -0.0512336 4.18847e-21)
(0.16013 -0.0527713 -2.10267e-22)
(0.195239 -0.0537146 3.69325e-23)
(0.23152 -0.0540017 -1.58226e-21)
(0.268642 -0.0536587 7.60811e-22)
(0.306155 -0.0526827 -8.43311e-22)
(0.343696 -0.0511749 -2.89671e-22)
(0.38086 -0.0491578 4.9345e-22)
(0.417263 -0.0467939 3.84199e-22)
(0.452718 -0.0440995 -4.11288e-22)
(0.486716 -0.0412709 7.01553e-23)
(0.519511 -0.0382902 -7.20628e-24)
(0.550276 -0.0353637 4.03137e-23)
(0.579928 -0.0324152 6.06612e-23)
(0.607075 -0.0296687 1.39559e-23)
(0.633529 -0.0269521 -3.70924e-23)
(0.656999 -0.0245643 1.28812e-24)
(0.680551 -0.0221689 -5.46146e-23)
(0.700431 -0.0202139 9.58965e-23)
(0.721648 -0.0181389 -5.35972e-23)
(0.738023 -0.0166251 -2.13883e-23)
(0.757692 -0.0148221 -2.41345e-23)
(0.770513 -0.0137412 5.12671e-23)
(0.789641 -0.0121418 -9.16686e-25)
(0.79863 -0.0114809 -1.76139e-23)
(0.818508 -0.0100516 -8.35417e-24)
(0.823154 -0.00973111 -1.0953e-23)
(0.845323 -0.00847429 -2.11313e-24)
(-0.0361827 -0.00102661 -1.6616e-20)
(-0.0348977 -0.00153224 -1.44333e-20)
(-0.031457 -0.00282699 2.60759e-20)
(-0.0275938 -0.00431052 3.10174e-20)
(-0.0233367 -0.00593118 -4.70795e-20)
(-0.0185247 -0.00775649 -8.53333e-21)
(-0.0130669 -0.00983028 4.06888e-20)
(-0.00687621 -0.0121776 -3.94301e-20)
(0.000135116 -0.0148209 9.40744e-21)
(0.00812646 -0.0177682 -1.559e-21)
(0.0172149 -0.0210377 1.03565e-20)
(0.0274872 -0.0246435 1.51662e-20)
(0.0391047 -0.028572 -1.4636e-20)
(0.0522061 -0.032797 -1.64391e-20)
(0.0669302 -0.0372738 3.13682e-20)
(0.0834005 -0.041936 -9.21574e-21)
(0.101732 -0.0467009 -1.45907e-20)
(0.121978 -0.0514813 2.46093e-20)
(0.144199 -0.0559777 -1.06945e-20)
(0.168448 -0.0602878 2.62568e-21)
(0.194592 -0.0641823 -4.46333e-21)
(0.22251 -0.0675071 1.20663e-21)
(0.252061 -0.0701547 -1.98141e-21)
(0.282979 -0.0720176 -1.07959e-21)
(0.315018 -0.0730662 3.23737e-21)
(0.347801 -0.0732389 -4.2474e-22)
(0.381049 -0.0725732 3.00456e-22)
(0.414341 -0.0710694 5.2199e-22)
(0.447397 -0.068867 -3.93381e-22)
(0.479847 -0.0660001 6.0964e-22)
(0.511404 -0.0626871 -1.12278e-21)
(0.541903 -0.0589554 2.54464e-22)
(0.570954 -0.0550619 -4.80039e-23)
(0.59878 -0.0509921 -1.26845e-23)
(0.624723 -0.0470091 4.34875e-23)
(0.649567 -0.0430227 6.7164e-23)
(0.672185 -0.0393159 -1.92321e-22)
(0.694097 -0.0356696 1.10553e-22)
(0.713445 -0.0324637 -1.80987e-22)
(0.732765 -0.0292686 4.86279e-23)
(0.749004 -0.0266597 -5.83798e-24)
(0.766291 -0.023911 1.24123e-22)
(0.77956 -0.0219012 -9.69446e-23)
(0.795547 -0.0195263 5.78336e-23)
(0.805846 -0.0180963 -5.42481e-23)
(0.821431 -0.0160039 -2.76974e-23)
(0.828577 -0.0151288 3.12833e-23)
(0.844874 -0.013278 -4.77015e-24)
(0.848521 -0.0128451 2.15813e-23)
(0.866804 -0.0112328 -1.28002e-23)
(0.0949502 -0.00636605 1.87162e-21)
(0.0977334 -0.0064691 -3.35485e-21)
(0.101946 -0.00782443 2.67583e-20)
(0.107194 -0.00965115 1.60632e-20)
(0.112965 -0.0116454 -2.53618e-20)
(0.119273 -0.0138744 -4.30171e-20)
(0.126239 -0.0164041 3.12157e-20)
(0.133952 -0.0192579 -7.20576e-21)
(0.142478 -0.0224512 -2.16874e-20)
(0.151902 -0.0259798 3.15093e-20)
(0.162324 -0.0299072 -1.65191e-20)
(0.173828 -0.0342186 2.67559e-22)
(0.18651 -0.0389007 3.24181e-20)
(0.200465 -0.0439216 -1.68644e-20)
(0.215784 -0.049227 3.78875e-21)
(0.232541 -0.0547351 -1.94681e-20)
(0.250803 -0.0603411 2.41778e-20)
(0.270588 -0.0659231 -6.7094e-21)
(0.291903 -0.0712713 -1.52932e-20)
(0.314752 -0.0762747 1.17536e-20)
(0.33902 -0.0807539 -1.12805e-20)
(0.364549 -0.0845288 1.40699e-20)
(0.391196 -0.0874704 -1.23699e-20)
(0.418704 -0.0894543 4.55859e-21)
(0.446871 -0.0904381 2.07819e-21)
(0.475357 -0.0903586 -4.23852e-22)
(0.503947 -0.0892685 -3.10067e-22)
(0.532274 -0.0871726 1.31286e-22)
(0.56014 -0.0842457 2.00743e-21)
(0.587233 -0.0805351 -1.70538e-22)
(0.61336 -0.0763057 -1.75189e-22)
(0.638389 -0.0715989 -4.75357e-23)
(0.662046 -0.0667183 3.96674e-23)
(0.684516 -0.061658 -5.53936e-24)
(0.705312 -0.0567216 -5.17617e-23)
(0.725064 -0.0518145 3.54011e-23)
(0.742924 -0.0472593 2.02694e-23)
(0.76008 -0.0428071 -3.25099e-23)
(0.775136 -0.0388907 -1.08758e-22)
(0.790045 -0.0350144 1.37772e-22)
(0.802507 -0.0318454 -1.21948e-22)
(0.815689 -0.0285382 -5.92961e-24)
(0.825731 -0.0261116 -2.46261e-23)
(0.837844 -0.0232749 8.23852e-24)
(0.845514 -0.0215543 -2.57763e-23)
(0.857326 -0.0190786 7.36535e-23)
(0.862542 -0.0180232 1.64224e-23)
(0.874971 -0.0158656 2.33285e-24)
(0.877577 -0.0153296 -3.29975e-23)
(0.891613 -0.0134733 -2.21402e-24)
(0.246942 -0.0111954 -1.46386e-20)
(0.250835 -0.0122306 -6.51077e-20)
(0.2548 -0.013932 8.94728e-22)
(0.26021 -0.0160768 1.61969e-20)
(0.266489 -0.0184512 -4.06848e-21)
(0.27338 -0.0210878 2.7461e-20)
(0.280959 -0.0240445 3.30986e-20)
(0.289314 -0.0273429 -4.36007e-20)
(0.298484 -0.0310037 2.12863e-20)
(0.308512 -0.0350461 -2.45047e-20)
(0.319461 -0.0394968 4.0911e-20)
(0.331381 -0.0443559 -1.35551e-20)
(0.344321 -0.0496082 -3.85574e-21)
(0.358326 -0.0552183 -2.50943e-21)
(0.373437 -0.0611255 1.06344e-20)
(0.389678 -0.0672361 1.14394e-20)
(0.407065 -0.073428 -1.35088e-20)
(0.425579 -0.0795573 -2.67704e-21)
(0.445184 -0.0854183 -1.11894e-20)
(0.465824 -0.0908512 1.26383e-21)
(0.487395 -0.0956642 1.72674e-21)
(0.509722 -0.0996559 1.29806e-20)
(0.532667 -0.102681 -6.16552e-21)
(0.555991 -0.104604 -7.2529e-21)
(0.579542 -0.105381 8.69835e-22)
(0.603036 -0.104949 -2.11192e-21)
(0.626336 -0.103375 4.66372e-22)
(0.649143 -0.10067 1.66885e-21)
(0.67135 -0.0970375 1.62905e-21)
(0.692716 -0.0925391 -1.59003e-21)
(0.713141 -0.0874735 -2.97686e-22)
(0.732529 -0.0818986 3.38177e-22)
(0.750715 -0.076148 2.76104e-22)
(0.767841 -0.0702299 3.1452e-22)
(0.783582 -0.0644712 -4.77135e-23)
(0.798398 -0.0587817 4.1133e-23)
(0.81171 -0.0535053 -9.52657e-23)
(0.82436 -0.0483804 1.23179e-22)
(0.835398 -0.0438685 -8.97218e-23)
(0.846188 -0.0394338 4.04742e-23)
(0.855159 -0.0357977 1.68174e-22)
(0.86453 -0.0320434 -2.17583e-22)
(0.871608 -0.0292755 8.84009e-23)
(0.880116 -0.0260814 3.39835e-23)
(0.885376 -0.0241233 -1.18608e-23)
(0.893638 -0.021368 -2.7952e-23)
(0.897085 -0.0201609 -6.77644e-23)
(0.905819 -0.0178059 4.416e-23)
(0.907479 -0.0171738 1.70429e-23)
(0.917408 -0.0151775 -1.71726e-24)
(0.416981 -0.0146567 7.36171e-20)
(0.420714 -0.017157 1.28399e-20)
(0.423887 -0.019676 5.44631e-20)
(0.428253 -0.0222996 -6.25897e-20)
(0.433686 -0.0251334 -5.18043e-21)
(0.439889 -0.028257 3.90962e-20)
(0.44686 -0.0316935 -4.98215e-20)
(0.454651 -0.035448 -1.56856e-21)
(0.463272 -0.0395486 5.97524e-20)
(0.472729 -0.0440288 -2.78471e-20)
(0.483046 -0.0489124 2.6165e-20)
(0.494239 -0.0541986 -5.02385e-20)
(0.506314 -0.0598697 1.61368e-21)
(0.519266 -0.0658876 -1.19335e-20)
(0.53309 -0.0721888 3.3735e-20)
(0.547762 -0.0786751 -1.56508e-20)
(0.563251 -0.0852197 1.87252e-20)