/*--------------------------------*- C++ -*----------------------------------*\
  =========                 |
  \\      /  F ield         | OpenFOAM: The Open Source CFD Toolbox
   \\    /   O peration     | Website:  https://openfoam.org
    \\  /    A nd           | Version:  7
     \\/     M anipulation  |
\*---------------------------------------------------------------------------*/
FoamFile
{
    version     2.0;
    format      ascii;
    class       surfaceScalarField;
    location    "30";
    object      phi;
}
// * * * * * * * * * * * * * * * * * * * * * * * * * * * * * * * * * * * * * //

dimensions      [0 3 -1 0 0 0 0];

internalField   nonuniform List<scalar> 
1260
(
0.0197739
4.44008e-05
0.0197283
4.5624e-05
0.0196816
4.66758e-05
0.019634
4.75826e-05
0.0195857
4.83708e-05
0.0195366
4.90657e-05
0.0194869
4.96914e-05
0.0194366
5.02702e-05
0.0193858
5.08223e-05
0.0193344
5.13651e-05
0.0192825
5.19141e-05
0.0192301
5.24805e-05
0.019177
5.30749e-05
0.0191233
5.37014e-05
0.0190689
5.43655e-05
0.0190138
5.5065e-05
0.018958
5.57973e-05
0.0189015
5.65635e-05
0.0188442
5.7327e-05
0.018786
5.81551e-05
0.0187272
5.88311e-05
0.0186674
5.98199e-05
0.0186074
5.9993e-05
0.0185456
6.17549e-05
0.0184855
6.00565e-05
6.34424e-05
0.0188406
8.78229e-05
0.018796
9.02163e-05
0.0187505
9.22723e-05
0.018704
9.40421e-05
0.0186568
9.55763e-05
0.0186089
9.69243e-05
0.0185605
9.81327e-05
0.0185115
9.92447e-05
0.018462
0.0001003
0.0184121
0.000101332
0.0183616
0.00010237
0.0183107
0.000103438
0.0182592
0.000104556
0.0182071
0.00010573
0.0181545
0.000106978
0.0181013
0.000108281
0.0180474
0.000109666
0.0179929
0.000111067
0.0179377
0.000112555
0.0178819
0.000113977
0.0178253
0.000115468
0.0177682
0.000116868
0.0177102
0.000117983
0.0176521
0.000119838
0.017593
0.000119166
0.000122652
0.0179418
0.000131165
0.0178973
0.000134674
0.0178519
0.000137683
0.0178057
0.000140265
0.0177588
0.000142495
0.0177113
0.000144442
0.0176632
0.000146175
0.0176147
0.000147757
0.0175658
0.000149246
0.0175164
0.000150689
0.0174666
0.000152132
0.0174165
0.000153606
0.0173659
0.000155145
0.0173149
0.000156753
0.0172634
0.000158465
0.0172114
0.000160238
0.0171589
0.000162143
0.017106
0.000164026
0.0170524
0.000166107
0.0169985
0.000167936
0.0169438
0.000170154
0.016889
0.000171676
0.0168331
0.000173819
0.0167778
0.000175194
0.0167209
0.000176034
0.00017864
0.017076
0.000175083
0.0170311
0.000179641
0.0169852
0.000183537
0.0169386
0.000186866
0.0168914
0.000189722
0.0168436
0.000192197
0.0167954
0.000194379
0.0167468
0.000196348
0.0166979
0.000198178
0.0166487
0.000199933
0.0165991
0.000201671
0.0165493
0.000203433
0.0164992
0.000205263
0.0164488
0.000207166
0.016398
0.000209194
0.016347
0.000211277
0.0162956
0.000213542
0.0162439
0.000215724
0.0161918
0.000218238
0.0161394
0.000220253
0.0160865
0.000223082
0.0160338
0.000224405
0.01598
0.000227633
0.0159273
0.000227914
0.0158726
0.000230722
0.000231426
0.0162417
0.000220019
0.0161958
0.000225536
0.0161491
0.000230231
0.0161017
0.000234218
0.0160538
0.00023761
0.0160055
0.000240519
0.0159569
0.00024305
0.0159079
0.0002453
0.0158587
0.000247359
0.0158094
0.000249305
0.0157598
0.00025121
0.0157101
0.00025312
0.0156603
0.000255094
0.0156103
0.000257134
0.0155602
0.000259313
0.01551
0.00026153
0.0154595
0.000263976
0.015409
0.000266259
0.0153582
0.000269028
0.0153075
0.000270998
0.0152562
0.000274297
0.0152055
0.000275105
0.0151537
0.000279426
0.0151036
0.000278038
0.0150512
0.000283178
0.00028101
0.0154371
0.000266222
0.0153901
0.00027258
0.0153423
0.000277958
0.0152941
0.000282487
0.0152454
0.000286299
0.0151964
0.000289523
0.0151471
0.000292281
0.0150978
0.000294685
0.0150483
0.000296842
0.0149987
0.000298841
0.0149492
0.000300766
0.0148996
0.000302671
0.0148501
0.000304629
0.0148006
0.000306637
0.0147511
0.000308793
0.0147017
0.000310958
0.0146523
0.0003134
0.0146029
0.000315584
0.0145535
0.000318421
0.0145044
0.00032012
0.014455
0.000323734
0.0144064
0.000323731
0.0143567
0.000329113
0.0143092
0.000325539
0.014259
0.000333296
0.000327368
0.0146609
0.000313766
0.0146126
0.000320817
0.0145639
0.000326732
0.0145147
0.00033166
0.0144652
0.00033575
0.0144156
0.000339147
0.0143659
0.000341989
0.0143162
0.000344404
0.0142665
0.000346511
0.0142169
0.000348411
0.0141675
0.0003502
0.0141182
0.00035194
0.0140691
0.000353716
0.0140203
0.000355519
0.0139716
0.000357475
0.0139231
0.000359405
0.0138749
0.000361658
0.0138269
0.000363546
0.0137791
0.000366268
0.0137317
0.000367482
0.0136842
0.000371251
0.0136377
0.00037017
0.0135903
0.000376557
0.0135455
0.000370351
0.0134979
0.000380938
0.000370464
0.0139118
0.000362567
0.0138625
0.000370134
0.0138128
0.000376415
0.0137629
0.000381575
0.0137129
0.00038578
0.0136628
0.00038919
0.0136129
0.000391958
0.013563
0.000394226
0.0135134
0.000396126
0.0134641
0.000397768
0.013415
0.000399262
0.0133663
0.000400674
0.0133179
0.000402103
0.0132699
0.000403532
0.0132222
0.000405116
0.013175
0.000406634
0.0131281
0.000408523
0.0130817
0.000409931
0.0130357
0.000412364
0.0129902
0.000412898
0.0129448
0.000416667
0.0129007
0.000414279
0.0128557
0.000421592
0.0128136
0.000412388
0.0127686
0.000425951
0.00041027
0.0131892
0.000412408
0.013139
0.00042029
0.0130887
0.000426744
0.0130383
0.000431952
0.012988
0.000436094
0.0129378
0.000439345
0.0128879
0.000441873
0.0128383
0.000443831
0.0127891
0.000445363
0.0127402
0.00044659
0.0126919
0.000447631
0.012644
0.000448556
0.0125966
0.000449478
0.0125498
0.000450374
0.0125035
0.000451426
0.0124577
0.000452369
0.0124125
0.000453732
0.012368
0.000454494
0.0123238
0.000456479
0.0122806
0.000456163
0.0122375
0.000459786
0.0121958
0.000455904
0.0121534
0.000464047
0.0121142
0.000451568
0.012072
0.000468183
0.000446776
0.0124924
0.000462963
0.0124417
0.000470944
0.0123911
0.000477366
0.0123406
0.000482427
0.0122904
0.000486322
0.0122405
0.000489239
0.012191
0.000491359
0.012142
0.000492845
0.0120935
0.000493853
0.0120456
0.000494511
0.0119983
0.000494948
0.0119516
0.000495239
0.0119055
0.000495508
0.0118602
0.000495725
0.0118155
0.000496099
0.0117716
0.000496323
0.0117283
0.000497016
0.0116858
0.000496988
0.0116439
0.000498383
0.011603
0.000497076
0.0115623
0.000500419
0.0115233
0.000494901
0.0114836
0.000503769
0.0114474
0.000487823
0.011408
0.000507502
0.000479995
0.0118212
0.000513827
0.0117704
0.000521683
0.0117199
0.000527865
0.0116698
0.000532585
0.0116201
0.00053605
0.0115708
0.000538462
0.0115222
0.000540011
0.0114742
0.000540872
0.0114268
0.000541208
0.0113802
0.000541156
0.0113343
0.000540853
0.0112891
0.000540376
0.0112448
0.000539863
0.0112012
0.000539271
0.0111585
0.000538842
0.0111166
0.000538223
0.0110755
0.000538122
0.0110353
0.000537185
0.0109958
0.00053787
0.0109574
0.00053546
0.0109194
0.000538403
0.0108832
0.00053115
0.0108463
0.000540628
0.010813
0.000521113
0.0107767
0.000543803
0.000509967
0.0111756
0.000564546
0.0111252
0.000572058
0.0110753
0.000577798
0.0110259
0.000581989
0.0109771
0.000584852
0.0109289
0.000586597
0.0108815
0.000587426
0.0108349
0.00058752
0.010789
0.000587053
0.010744
0.000586165
0.0106999
0.000585003
0.0106566
0.000583643
0.0106142
0.000582235
0.0105728
0.000580728
0.0105322
0.00057939
0.0104926
0.000577825
0.0104539
0.000576829
0.0104162
0.00057489
0.0103793
0.000574763
0.0103436
0.00057117
0.0103084
0.000573608
0.010275
0.000564566
0.0102411
0.000574533
0.0102108
0.000551426
0.0101775
0.000577018
0.000536763
0.0105556
0.000614649
0.010506
0.00062161
0.0104571
0.000626718
0.0104089
0.000630209
0.0103614
0.000632311
0.0103148
0.000633246
0.010269
0.000633221
0.0102241
0.000632427
0.0101801
0.000631042
0.0101371
0.000629212
0.010095
0.000627089
0.0100539
0.000624752
0.0100137
0.000622359
0.00997461
0.000619851
0.00993648
0.00061752
0.00989938
0.00061493
0.00986324
0.000612961
0.00982819
0.000609947
0.00979402
0.000608932
0.00976109
0.000604101
0.00972875
0.000605946
0.00969822
0.000595099
0.00966732
0.000605432
0.00963996
0.000578781
0.00960986
0.000607116
0.000560479
0.00996134
0.000663671
0.00991305
0.000669895
0.00986557
0.000674202
0.00981894
0.000676839
0.00977321
0.000678043
0.00972841
0.000678043
0.00968458
0.000677053
0.00964173
0.000675268
0.0095999
0.000672872
0.0095591
0.000670014
0.00951934
0.000666852
0.00948063
0.000663463
0.00944297
0.000660015
0.00940638
0.000656442
0.00937084
0.000653056
0.00933639
0.000649385
0.00930297
0.000646384
0.00927066
0.00064225
0.00923931
0.000640288
0.00920922
0.000634192
0.00917979
0.000635372
0.00915215
0.000622738
0.00912427
0.000633313
0.00909982
0.000603229
0.00907283
0.000634105
0.000581237
0.00939292
0.00071118
0.00934631
0.000716502
0.00930065
0.000719863
0.00925597
0.000721518
0.0092123
0.000721711
0.00916967
0.000720675
0.00912809
0.00071863
0.00908759
0.000715774
0.00904816
0.000712295
0.00900983
0.000708344
0.0089726
0.000704084
0.00893647
0.000699591
0.00890145
0.00069504
0.00886753
0.000690356
0.00883472
0.000685874
0.00880301
0.000681087
0.00877238
0.000677016
0.0087429
0.000671737
0.00871439
0.000668789
0.00868716
0.000661424
0.00866065
0.000661881
0.00863589
0.000647506
0.00861099
0.000658204
0.00858937
0.000624851
0.00856545
0.000658031
0.000599177
0.00885037
0.000756787
0.0088058
0.000761072
0.00876229
0.00076337
0.00871987
0.00076394
0.00867855
0.000763033
0.00863834
0.000760883
0.00859926
0.000757715
0.0085613
0.00075373
0.00852448
0.000749117
0.00848879
0.000744031
0.00845424
0.000738634
0.00842083
0.000733004
0.00838855
0.000727321
0.0083574
0.000721503
0.00832737
0.0007159
0.00829848
0.000709981
0.00827068
0.000704821
0.00824402
0.000698392
0.00821838
0.000694434
0.00819398
0.000685816
0.00817036
0.000685507
0.0081484
0.000669464
0.00812644
0.000680168
0.00810754
0.00064375
0.0080866
0.000678972
0.000614458
0.00833364
0.000800164
0.0082914
0.000803306
0.00825032
0.00080445
0.00821041
0.000803859
0.00817165
0.000801786
0.00813407
0.000798469
0.00809765
0.000794133
0.0080624
0.000788981
0.00802831
0.000783205
0.00799538
0.000776958
0.00796361
0.000770405
0.00793299
0.000763624
0.00790352
0.000756796
0.00787518
0.000749837
0.00784797
0.000743109
0.0078219
0.000736058
0.00779691
0.000729805
0.00777307
0.000722237
0.00775024
0.000717264
0.00772863
0.000707425
0.00770782
0.000706319
0.00768858
0.000688699
0.00766945
0.000699298
0.00765315
0.000660051
0.00763509
0.000697036
0.000627247
0.00784254
0.000841046
0.00780288
0.000842968
0.00776443
0.000842894
0.0077272
0.00084109
0.00769118
0.00083781
0.00765635
0.000833293
0.00762272
0.000827765
0.00759027
0.00082143
0.007559
0.000814478
0.00752889
0.000807063
0.00749995
0.000799352
0.00747215
0.00079142
0.00744549
0.000783452
0.00741997
0.000775361
0.00739556
0.000767516
0.00737227
0.000759348
0.00735006
0.000752014
0.00732897
0.000743331
0.00730889
0.000737348
0.00728997
0.000726336
0.00727188
0.000724414
0.00725526
0.000705321
0.00723884
0.000715714
0.007225
0.000673892
0.00720968
0.000712352
0.00063772
0.00737676
0.000879234
0.00733984
0.000879886
0.00730418
0.000878556
0.00726976
0.000875511
0.00723656
0.000871004
0.00720458
0.000865275
0.0071738
0.000858549
0.0071442
0.000851029
0.00711577
0.000842906
0.0070885
0.000834332
0.00706238
0.000825474
0.00703739
0.000816407
0.00701353
0.000807318
0.00699077
0.000798115
0.00696911
0.000789175
0.00694854
0.000779917
0.00692903
0.000771525
0.0069106
0.000761763
0.00689316
0.000754788
0.00687684
0.000742659
0.00686134
0.000739911
0.0068472
0.000719461
0.00683336
0.000729553
0.00682183
0.000685427
0.00680911
0.000725071
0.000646058
0.00693585
0.000914595
0.00690179
0.000913951
0.00686899
0.00091135
0.00683745
0.000907055
0.00680713
0.00090132
0.00677803
0.000894384
0.0067501
0.00088647
0.00672335
0.00087778
0.00669776
0.000868503
0.0066733
0.000858793
0.00664996
0.000848813
0.00662773
0.000838639
0.00660659
0.000828456
0.00658653
0.000818173
0.00656753
0.000808171
0.00654959
0.00079786
0.00653267
0.000788441
0.00651679
0.000777647
0.00650187
0.000769704
0.00648801
0.000756524
0.00647497
0.00075295
0.00646317
0.000731265
0.00645175
0.000740969
0.00644236
0.000694815
0.00643208
0.000735354
0.00065244
0.00651925
0.000947054
0.00648809
0.000945111
0.0064582
0.000941241
0.00642954
0.000935707
0.00640211
0.00092876
0.00637585
0.000920636
0.00635077
0.000911557
0.00632682
0.000901724
0.006304
0.000891324
0.00628228
0.000880509
0.00626165
0.000869442
0.0062421
0.000858197
0.00622359
0.000846959
0.00620613
0.000835638
0.00618969
0.000824612
0.00617425
0.000813294
0.00615981
0.000802888
0.00614634
0.000791113
0.00613381
0.000782236
0.00612226
0.000768075
0.00611153
0.000763682
0.00610191
0.000740886
0.00609275
0.000750125
0.00608535
0.000702216
0.00607733
0.000743374
0.000657042
0.00612626
0.000976593
0.00609801
0.000973365
0.006071
0.000968247
0.00604521
0.000961497
0.00602061
0.000953365
0.00599716
0.000944085
0.00597484
0.000933877
0.00595362
0.000922938
0.00593349
0.000911454
0.00591443
0.000899575
0.00589641
0.000887463
0.00587941
0.000875192
0.00586343
0.000862943
0.00584843
0.000850631
0.00583442
0.000838628
0.00582136
0.000826353
0.00580924
0.000815004
0.00579805
0.000802306
0.00578775
0.000792533
0.00577836
0.000777465
0.00576978
0.000772267
0.00576218
0.000748483
0.00575511
0.000757192
0.00574953
0.000707796
0.0057436
0.000749307
0.000660037
0.00575611
0.00100324
0.00573072
0.000998755
0.00570654
0.000992421
0.00568355
0.000984492
0.0056617
0.000975215
0.00564096
0.00096482
0.00562132
0.000953525
0.00560273
0.000941524
0.00558518
0.000929002
0.00556865
0.000916108
0.00555311
0.000902998
0.00553855
0.000889751
0.00552495
0.000876542
0.0055123
0.00086329
0.00550056
0.00085036
0.00548973
0.000837183
0.00547979
0.000824942
0.00547072
0.00081138
0.0054625
0.000800754
0.00545511
0.000784854
0.00544851
0.000778868
0.00544277
0.00075422
0.00543762
0.00076234
0.00543371
0.000711716
0.00542968
0.000753329
0.000661591
0.00540792
0.00102705
0.00538532
0.00102136
0.00536389
0.00101385
0.00534359
0.00100479
0.00532439
0.000994413
0.00530626
0.000982951
0.00528916
0.000970619
0.00527308
0.000957608
0.00525798
0.000944099
0.00524385
0.000930241
0.00523066
0.000916187
0.0052184
0.000902017
0.00520704
0.000887902
0.00519656
0.000873765
0.00518696
0.000859962
0.0051782
0.00084594
0.00517029
0.000832858
0.00516317
0.000818494
0.00515687
0.000807059
0.00515132
0.000790402
0.00514654
0.000783652
0.0051425
0.000758257
0.0051391
0.000765739
0.00513668
0.000714132
0.0051344
0.000755616
0.000661861
0.00508078
0.00104814
0.00506086
0.00104128
0.00504205
0.00103265
0.00502433
0.00102251
0.00500766
0.00101109
0.004992
0.000998612
0.00497732
0.0049636
0.00495081
0.00493893
0.00492794
0.00491782
0.00490854
0.0049001
0.00489247
0.00488563
0.00487958
0.00487426
0.00486971
0.00486584
0.00486271
0.00486022
0.0048584
0.00485734
0.00485661
0.00477372
0.00475635
0.00474004
0.00472476
0.00471047
)
;

boundaryField
{
    inlet
    {
        type            calculated;
        value           nonuniform 0();
    }
    outlet
    {
        type            calculated;
        value           nonuniform List<scalar> 
25
(
0.0184221
0.0175338
0.0166649
0.0158198
0.0150016
0.0142127
0.0134548
0.0127288
0.0120355
0.0113748
0.0107467
0.0101507
0.00958615
0.00905207
0.00854751
0.00807131
0.0076223
0.00719921
0.00680077
0.0064257
0.00607273
0.00574061
0.00542813
0.00513413
0.00485748
)
;
    }
    cylinder
    {
        type            calculated;
        value           nonuniform 0();
    }
    top
    {
        type            symmetryPlane;
        value           nonuniform 0();
    }
    bottom
    {
        type            symmetryPlane;
        value           uniform 0;
    }
    defaultFaces
    {
        type            empty;
        value           nonuniform 0();
    }
    procBoundary3to2
    {
        type            processor;
        value           nonuniform List<scalar> 
25
(
-0.0198183
-0.0188841
-0.0179851
-0.0171199
-0.0162866
-0.0154833
-0.0147084
-0.0139606
-0.013239
-0.0125429
-0.011872
-0.0112263
-0.0106057
-0.0100104
-0.00944043
-0.00889598
-0.00837702
-0.00788342
-0.00741495
-0.00697121
-0.00655171
-0.0061558
-0.00578275
-0.00543174
-0.00510187
)
;
    }
    procBoundary3to6
    {
        type            processor;
        value           uniform -0.0047922;
    }
    procBoundary3to7
    {
        type            processor;
        value           nonuniform List<scalar> 
27
(
0.000985296
0.000971328
0.000956888
0.000942121
0.000927179
0.000912141
0.000897175
0.00088221
0.00086759
0.000852781
0.000838912
0.000823808
0.000811611
0.000794271
0.000786781
0.000760752
0.000767556
0.000715197
0.000756339
0.000660994
0.00106662
0.00105865
0.00104896
0.00103779
0.00102538
0.00469713
0.00101195
)
;
    }
}


// ************************************************************************* //
