/*--------------------------------*- C++ -*----------------------------------*\
  =========                 |
  \\      /  F ield         | OpenFOAM: The Open Source CFD Toolbox
   \\    /   O peration     | Website:  https://openfoam.org
    \\  /    A nd           | Version:  7
     \\/     M anipulation  |
\*---------------------------------------------------------------------------*/
FoamFile
{
    version     2.0;
    format      ascii;
    class       volVectorField;
    location    "30";
    object      U;
}
// * * * * * * * * * * * * * * * * * * * * * * * * * * * * * * * * * * * * * //

dimensions      [0 1 -1 0 0 0 0];

internalField   nonuniform List<vector> 
656
(
(0.159921 0.0168522 1.49887e-20)
(0.321123 0.0179322 -8.62302e-20)
(0.159921 -0.0168522 -1.49887e-20)
(0.321123 -0.0179322 8.62302e-20)
(0.450901 -0.0166109 6.98978e-20)
(0.56423 -0.014322 1.90853e-20)
(0.651291 -0.0120465 -1.09562e-20)
(0.721749 -0.0100277 5.79857e-20)
(0.777077 -0.00836398 8.65064e-21)
(0.821791 -0.00700184 1.80781e-20)
(0.857868 -0.00589346 -1.43318e-20)
(0.162223 -0.05044 4.8594e-20)
(0.323437 -0.0536932 7.0975e-20)
(0.452987 -0.0497498 -1.062e-19)
(0.565993 -0.0429034 -4.80182e-20)
(0.652767 -0.0360914 1.81264e-20)
(0.72298 -0.0300457 -6.12495e-20)
(0.778114 -0.0250616 7.73371e-20)
(0.822671 -0.0209803 1.12573e-21)
(0.858637 -0.0176583 2.62158e-20)
(0.166808 -0.0836863 -1.24442e-19)
(0.328047 -0.089149 -1.37829e-19)
(0.457146 -0.0826447 3.1412e-19)
(0.569511 -0.0713 1.00665e-19)
(0.655713 -0.0599942 -2.29628e-19)
(0.725439 -0.0499519 -2.44914e-20)
(0.780186 -0.0416682 -1.92877e-19)
(0.82443 -0.0348829 -8.42557e-20)
(0.860174 -0.0293558 -2.14856e-20)
(0.173633 -0.116369 2.07077e-19)
(0.33492 -0.124099 2.35705e-19)
(0.463353 -0.115135 -3.6044e-19)
(0.574764 -0.0993903 -2.66055e-20)
(0.660115 -0.0836616 1.59212e-20)
(0.729113 -0.0696727 -2.69686e-19)
(0.783285 -0.0581238 -2.08732e-20)
(0.827061 -0.0486591 3.69863e-20)
(0.862474 -0.0409413 -1.99219e-19)
(0.182638 -0.14827 1.85998e-20)
(0.344004 -0.158347 1.20158e-19)
(0.471567 -0.147062 2.98102e-20)
(0.581725 -0.127054 -3.80743e-19)
(0.665953 -0.107001 5.82788e-19)
(0.73399 -0.0891356 3.8711e-19)
(0.787398 -0.0743694 -1.75763e-19)
(0.830556 -0.0622597 -1.28925e-19)
(0.865531 -0.0523706 1.3544e-19)
(0.193742 -0.179178 -1.98372e-19)
(0.355231 -0.1917 -8.48075e-19)
(0.481739 -0.178271 -1.81804e-19)
(0.590356 -0.154173 -2.87264e-19)
(0.6732 -0.129921 -5.47831e-19)
(0.740047 -0.108269 1.95529e-19)
(0.792512 -0.0903469 4.6123e-19)
(0.834902 -0.0756364 -5.15086e-20)
(0.869337 -0.0636005 -2.78082e-19)
(0.206847 -0.208888 9.9711e-21)
(0.368516 -0.22397 7.47099e-19)
(0.493803 -0.20861 -2.19253e-19)
(0.600613 -0.180631 2.61127e-19)
(0.681822 -0.152334 -3.96197e-20)
(0.747261 -0.127004 -1.31839e-19)
(0.798607 -0.106 -1.85095e-20)
(0.840087 -0.088742 6.11449e-19)
(0.873883 -0.0745885 4.40552e-19)
(0.221834 -0.237205 5.90932e-19)
(0.38376 -0.254978 -7.65178e-19)
(0.507684 -0.237932 1.82627e-20)
(0.612441 -0.206317 3.3521e-19)
(0.69178 -0.174153 6.99163e-19)
(0.755603 -0.145272 -8.72606e-19)
(0.805661 -0.121274 4.05283e-19)
(0.846092 -0.101531 -3.02049e-19)
(0.879155 -0.0852933 -4.10795e-20)
(0.400847 -0.284552 5.51293e-19)
(0.523294 -0.266096 6.67476e-19)
(0.625775 -0.231121 -1.70512e-19)
(0.703027 -0.195295 -1.697e-19)
(0.765036 -0.163009 7.21539e-19)
(0.813648 -0.136116 -5.31384e-19)
(0.852899 -0.11396 1.86412e-19)
(0.88514 -0.0956749 -3.61276e-19)
(0.419649 -0.312529 4.65564e-19)
(0.540533 -0.292966 -1.66817e-20)
(0.640546 -0.25494 2.17868e-20)
(0.715512 -0.215679 -2.9061e-19)
(0.775524 -0.180152 -6.79623e-20)
(0.822538 -0.150476 -5.55094e-19)
(0.860486 -0.125988 -1.89081e-19)
(0.891821 -0.105695 3.73237e-19)
(0.44002 -0.338757 -5.02311e-19)
(0.559292 -0.318415 2.91671e-19)
(0.656672 -0.277674 9.27596e-20)
(0.729175 -0.235229 3.89521e-20)
(0.787022 -0.196641 -2.01637e-20)
(0.832299 -0.164307 9.61935e-19)
(0.868826 -0.137576 -4.88674e-20)
(0.89918 -0.115318 -8.11069e-20)
(0.461807 -0.363096 3.732e-19)
(0.579449 -0.342323 -9.02806e-19)
(0.674067 -0.299229 8.20859e-19)
(0.743953 -0.253873 3.4758e-19)
(0.799482 -0.212421 -4.39596e-19)
(0.842893 -0.177564 -4.50904e-19)
(0.877893 -0.148688 2.68697e-19)
(0.907193 -0.12451 3.16502e-19)
(0.48484 -0.385417 -6.7695e-19)
(0.600874 -0.364576 1.17605e-19)
(0.692636 -0.319516 -6.17863e-19)
(0.759776 -0.271541 -1.06997e-18)
(0.812854 -0.22744 5.47623e-19)
(0.854283 -0.190205 -1.17733e-19)
(0.887656 -0.159291 -5.21299e-19)
(0.915835 -0.133241 -3.78682e-19)
(0.50894 -0.405603 4.3393e-19)
(0.623426 -0.385072 4.7312e-19)
(0.712275 -0.338452 5.35279e-20)
(0.77657 -0.288171 9.05805e-19)
(0.82708 -0.241647 -2.7446e-19)
(0.866423 -0.202194 3.27378e-19)
(0.898083 -0.169356 3.60065e-19)
(0.925076 -0.141481 7.98088e-20)
(0.53392 -0.423554 3.86174e-19)
(0.646956 -0.403717 -4.10662e-19)
(0.732877 -0.35596 -7.72326e-19)
(0.794254 -0.303703 6.40409e-20)
(0.842102 -0.254998 7.31205e-19)
(0.879269 -0.213495 -3.36321e-19)
(0.909138 -0.178855 -6.67435e-19)
(0.934879 -0.149209 -1.35532e-19)
(0.559581 -0.439182 -1.21711e-19)
(0.671307 -0.420428 2.95185e-19)
(0.754325 -0.371971 5.70362e-19)
(0.812745 -0.318082 -9.12004e-19)
(0.857857 -0.267452 -5.24749e-19)
(0.892771 -0.224077 2.47791e-19)
(0.920784 -0.187765 4.38438e-19)
(0.945204 -0.156407 2.30747e-19)
(0.696315 -0.435132 -5.86713e-20)
(0.776497 -0.386423 9.44667e-20)
(0.831951 -0.331259 -8.11955e-20)
(0.874278 -0.278971 -2.23106e-19)
(0.906879 -0.233911 -4.18117e-19)
(0.932983 -0.196066 2.42706e-19)
(0.955999 -0.163058 1.5327e-19)
(0.721807 -0.447766 4.45173e-19)
(0.799267 -0.399259 9.32571e-20)
(0.851781 -0.343189 6.8334e-19)
(0.891295 -0.28952 9.08373e-20)
(0.92154 -0.242973 2.37768e-19)
(0.945699 -0.203731 -6.36675e-19)
(0.967204 -0.169113 1.78881e-19)
(0.747607 -0.45828 -6.89899e-19)
(0.8225 -0.410431 6.99399e-20)
(0.872136 -0.353834 -5.86924e-19)
(0.908839 -0.299072 1.62123e-19)
(0.936701 -0.251239 -5.89554e-20)
(0.958893 -0.210711 -3.17078e-19)
(0.978699 -0.174525 -8.67866e-19)
(0.773532 -0.466634 2.34256e-19)
(0.846059 -0.419899 -2.17719e-19)
(0.892915 -0.363159 2.13325e-19)
(0.926836 -0.307599 -1.37106e-19)
(0.95232 -0.258683 -1.76734e-19)
(0.972565 -0.216953 7.30363e-19)
(0.990316 -0.179479 4.05177e-19)
(0.8698 -0.427629 1.82876e-19)
(0.914013 -0.371137 3.22407e-19)
(0.94521 -0.315084 6.07488e-19)
(0.968356 -0.265297 2.29992e-19)
(0.98686 -0.222531 -8.43052e-19)
(1.00305 -0.184702 1.59464e-19)
(0.893577 -0.433595 -5.26616e-19)
(0.935319 -0.377744 -3.40094e-20)
(0.963879 -0.32151 -5.9096e-19)
(0.984715 -0.271103 1.08938e-19)
(1.00155 -0.227581 2.90677e-19)
(1.01582 -0.18998 2.65976e-19)
(0.917238 -0.43778 3.68807e-19)
(0.956721 -0.382961 2.33966e-20)
(0.982756 -0.326865 -8.65712e-20)
(1.00131 -0.276091 -1.37097e-19)
(1.01642 -0.232009 4.33413e-19)
(1.02872 -0.194613 -9.97162e-20)
(0.978101 -0.386775 1.05659e-20)
(1.00175 -0.331136 1.22741e-19)
(1.01806 -0.280242 3.08018e-19)
(1.03135 -0.23576 -6.71597e-19)
(1.04169 -0.198516 -1.79669e-19)
(0.999337 -0.389177 -2.87457e-19)
(1.02077 -0.334312 2.59334e-20)
(1.03491 -0.283544 8.47298e-20)
(1.0463 -0.238828 2.34927e-19)
(1.05469 -0.20172 2.90316e-19)
(1.02031 -0.390164 2.41579e-19)
(1.03972 -0.336389 -7.52161e-20)
(1.05177 -0.285987 -8.93156e-20)
(1.06124 -0.24121 3.58198e-19)
(1.06774 -0.204244 -3.48998e-19)
(1.0585 -0.337362 -6.21145e-20)
(1.06858 -0.287566 -1.46359e-19)
(1.07614 -0.242903 -2.09697e-19)
(1.08081 -0.206105 3.02194e-19)
(1.07703 -0.337232 2.1608e-19)
(1.08527 -0.288278 3.47275e-20)
(1.09096 -0.243906 2.08935e-19)
(1.09388 -0.207318 -1.87077e-19)
(1.10177 -0.288125 9.54443e-20)
(1.10566 -0.244222 1.88264e-20)
(1.10693 -0.2079 1.55762e-19)
(1.1202 -0.243854 -2.35142e-19)
(1.11992 -0.207867 -2.2308e-19)
(0.99996 -0.00181662 6.37262e-21)
(0.999292 -0.0054391 1.36839e-21)
(0.998051 -0.0095541 -6.29919e-21)
(0.996391 -0.0144903 1.23359e-20)
(0.994347 -0.0205578 -3.00137e-21)
(0.992054 -0.0279854 3.13175e-20)
(0.989625 -0.0369699 -7.93794e-20)
(0.987292 -0.0476366 7.95441e-20)
(0.985236 -0.0600954 3.08641e-20)
(0.983847 -0.0742965 -5.19409e-20)
(0.983263 -0.0902833 -1.84272e-20)
(0.984143 -0.107621 1.04315e-21)
(0.986091 -0.126494 7.06182e-20)
(0.990499 -0.145091 -1.069e-20)
(0.993764 -0.164503 -8.33451e-21)
(0.999953 -0.00174374 3.24043e-21)
(0.999216 -0.00522311 -1.18312e-20)
(0.997838 -0.00917142 9.81911e-21)
(0.995982 -0.0138983 -3.39475e-20)
(0.993671 -0.0196951 9.45141e-21)
(0.991028 -0.026781 3.01052e-20)
(0.988152 -0.0353471 -4.83061e-20)
(0.985253 -0.0455161 -7.25242e-21)
(0.982505 -0.0574092 8.17771e-20)
(0.980265 -0.0709889 -3.84377e-20)
(0.978692 -0.0863372 -4.53319e-20)
(0.978359 -0.103062 -3.52693e-20)
(0.979011 -0.121393 -3.32845e-20)
(0.981529 -0.1396 1.40236e-19)
(0.983189 -0.158152 -4.54288e-20)
(0.999949 -0.00166663 8.47309e-21)
(0.999148 -0.0049945 5.18559e-21)
(0.997644 -0.00876398 -8.90355e-21)
(0.995607 -0.0132729 3.28806e-22)
(0.993049 -0.0187865 -1.69104e-20)
(0.990082 -0.0255202 5.6739e-21)
(0.986789 -0.0336599 4.88846e-20)
(0.983361 -0.0433294 -7.34769e-20)
(0.979957 -0.0546612 1.12635e-20)
(0.976902 -0.0676381 7.1856e-20)
(0.974358 -0.0823682 -2.3335e-20)
(0.972827 -0.0985251 -1.15347e-19)
(0.972141 -0.116299 1.71787e-19)
(0.97292 -0.134148 1.22656e-20)
(0.972969 -0.152098 -8.53588e-20)
(0.999946 -0.00158706 -3.03918e-20)
(0.999089 -0.00476023 -2.30549e-20)
(0.997468 -0.00835078 1.67269e-20)
(0.995262 -0.0126348 9.66979e-21)
(0.992475 -0.0178754 1.15721e-23)
(0.989204 -0.0242681 3.03998e-20)
(0.985521 -0.031998 -3.2651e-20)
(0.981594 -0.0411913 6.05172e-20)
(0.977567 -0.0519896 -6.72507e-20)
(0.97373 -0.064395 4.55749e-20)
(0.970244 -0.0785314 -2.73584e-20)
(0.967543 -0.09413 5.80153e-20)
(0.965523 -0.111331 -1.49503e-20)
(0.964665 -0.128779 -3.96264e-20)
(0.963176 -0.146187 1.30753e-19)
(0.999944 -0.00150448 7.64501e-21)
(0.999035 -0.00451719 -4.38495e-21)
(0.997307 -0.00792585 -3.5207e-21)
(0.994944 -0.0119566 1.51387e-20)
(0.991942 -0.0169405 -5.79957e-20)
(0.988389 -0.0229891 -7.67468e-21)
(0.984342 -0.0303039 -1.99853e-21)
(0.979947 -0.0390127 7.40946e-20)
(0.97533 -0.0492623 1.40843e-20)
(0.97075 -0.0610712 9.26854e-21)
(0.966359 -0.0745708 -1.02487e-20)
(0.962533 -0.0895452 -6.19207e-20)
(0.959216 -0.106093 -5.48045e-20)
(0.956811 -0.123027 8.66201e-20)
(0.953838 -0.139844 -7.63435e-20)
(0.999942 -0.00141891 -8.13743e-22)
(0.998987 -0.00426498 3.61682e-20)
(0.997164 -0.00748338 1.98791e-20)
(0.994651 -0.0112816 -3.88621e-20)
(0.991447 -0.0159764 3.53855e-20)
(0.987635 -0.0216719 -3.58005e-20)
(0.983248 -0.0285604 2.83704e-20)
(0.978415 -0.0367695 -4.35171e-20)
(0.973245 -0.046448 8.60789e-20)
(0.967964 -0.0576282 -3.19205e-20)
(0.962713 -0.0704447 -7.33127e-21)
(0.957817 -0.084731 -4.46226e-20)
(0.953256 -0.100551 9.53758e-20)
(0.949383 -0.116878 -8.05854e-20)
(0.944967 -0.133059 4.09567e-20)
(0.999941 -0.00133071 -1.2482e-21)
(0.998944 -0.00400453 -1.42011e-20)
(0.99703 -0.00702678 -2.89977e-20)
(0.994384 -0.0106127 -3.46402e-20)
(0.990994 -0.0149808 2.12367e-20)
(0.98694 -0.0203203 -2.1453e-21)
(0.982238 -0.0267738 -5.34497e-21)
(0.976996 -0.0344711 2.95348e-20)
(0.97131 -0.0435607 -4.31654e-21)
(0.965372 -0.0540867 -5.92201e-21)
(0.95931 -0.0661833 -3.83854e-20)
(0.953404 -0.0797283 -4.12023e-20)
(0.947662 -0.0947606 -1.65088e-20)
(0.942398 -0.110392 3.15142e-20)
(0.93659 -0.125877 1.33692e-19)
(0.999941 -0.00124021 -8.68002e-21)
(0.998905 -0.00373667 -6.59209e-21)
(0.996908 -0.00655717 1.69874e-20)
(0.99414 -0.00990376 2.07516e-20)
(0.990581 -0.01396 1.85234e-20)
(0.986299 -0.0189385 2.13615e-20)
(0.981307 -0.0249491 1.42561e-20)
(0.975688 -0.0321241 1.92692e-20)
(0.969522 -0.040609 -5.66586e-20)
(0.96297 -0.0504576 4.76811e-20)
(0.95615 -0.0618006 8.89742e-20)
(0.949299 -0.074554 -2.77694e-20)
(0.942444 -0.0887387 4.88687e-20)
(0.935872 -0.10359 1.44185e-21)
(0.928734 -0.118307 3.75445e-21)
(0.999941 -0.00114767 -1.76023e-20)
(0.99887 -0.003462 3.76882e-20)
(0.996798 -0.00607548 3.01677e-20)
(0.99392 -0.00917197 -1.86468e-20)
(0.990203 -0.0129291 -1.68254e-20)
(0.985713 -0.0175288 5.16053e-21)
(0.980454 -0.0230889 -3.58636e-20)
(0.974486 -0.0297312 -2.75686e-20)
(0.967877 -0.0375963 6.18065e-21)
(0.960759 -0.0467447 9.42224e-20)
(0.953235 -0.0573019 -9.38202e-20)
(0.945506 -0.0692152 -5.12838e-20)
(0.937612 -0.0824946 4.06147e-20)
(0.929816 -0.0964827 1.43117e-19)
(0.921421 -0.110357 -9.49034e-20)
(0.999941 -0.00105333 1.34503e-20)
(0.998839 -0.00318112 -4.06625e-20)
(0.996698 -0.00558297 -7.2621e-20)
(0.993719 -0.00842588 2.49221e-20)
(0.98986 -0.0118825 3.2362e-20)
(0.985181 -0.0160906 1.32743e-20)
(0.979677 -0.021195 -4.99282e-20)
(0.973391 -0.027295 1.86111e-20)
(0.966374 -0.0345258 -2.55139e-20)
(0.958736 -0.0429527 9.65635e-21)
(0.950564 -0.0526938 -3.53582e-20)
(0.942026 -0.0637223 -5.54083e-21)
(0.933171 -0.0760415 1.56724e-20)
(0.92424 -0.0890886 -2.97732e-20)
(0.914667 -0.102045 4.2214e-20)
(0.999941 -0.000957407 2.79217e-20)
(0.998811 -0.00289463 1.41924e-20)
(0.996609 -0.0050807 7.15023e-20)
(0.993538 -0.00766617 -6.26848e-21)
(0.989552 -0.0108106 -5.32063e-20)
(0.984701 -0.0146211 9.17066e-21)
(0.978974 -0.0192696 8.05861e-21)
(0.972398 -0.0248187 -1.32532e-20)
(0.965012 -0.0314021 2.70972e-20)
(0.9569 -0.0390876 1.75747e-20)
(0.948136 -0.0479851 -6.79968e-21)
(0.938861 -0.0580876 3.8353e-20)
(0.929125 -0.0693955 -6.39152e-20)
(0.91915 -0.081429 1.19088e-19)
(0.908489 -0.0933943 -1.86824e-19)
(0.999942 -0.000860094 2.05394e-21)
(0.998787 -0.00260313 6.52024e-21)
(0.99653 -0.00456959 -5.2506e-20)
(0.993376 -0.00689355 -3.842e-21)
(0.989279 -0.00971923 1.33457e-20)
(0.984272 -0.0131281 -6.4737e-20)
(0.978342 -0.017316 6.46569e-20)
(0.971508 -0.0223058 -3.05709e-20)
(0.963788 -0.0282297 5.38898e-21)
(0.95525 -0.0351556 -6.54914e-20)
(0.945953 -0.0431845 6.56101e-20)
(0.936012 -0.0523239 -3.008e-20)
(0.925477 -0.0625732 -5.24547e-22)
(0.914553 -0.0735261 1.16832e-20)
(0.902898 -0.084431 5.14255e-21)
(0.999942 -0.000761576 6.41771e-21)
(0.998766 -0.00230718 -8.84962e-21)
(0.99646 -0.00405054 1.97024e-20)
(0.993234 -0.0061095 2.02694e-20)
(0.989039 -0.00861246 -2.2187e-20)
(0.983892 -0.0116352 3.84549e-20)
(0.977781 -0.0153386 -1.07015e-20)
(0.970718 -0.0197602 4.75965e-20)
(0.962703 -0.0250134 -3.10014e-20)
(0.953785 -0.0311634 -1.16304e-21)
(0.944012 -0.0383013 4.96383e-20)
(0.933477 -0.046444 -7.78697e-20)
(0.92223 -0.0555917 2.29689e-20)
(0.910453 -0.0654031 -3.18619e-20)
(0.897904 -0.0751833 -3.63452e-21)
(0.999943 -0.000662025 -2.31613e-20)
(0.998747 -0.00200734 2.09809e-20)
(0.9964 -0.00352452 5.74379e-21)
(0.99311 -0.00531547 -3.19179e-20)
(0.988828 -0.00749246 1.67232e-20)
(0.983562 -0.0101328 -1.22195e-21)
(0.977294 -0.0133389 -2.47517e-20)
(0.970029 -0.0171853 4.19938e-20)
(0.961754 -0.0217582 6.34854e-21)
(0.952505 -0.0271177 -1.31965e-20)
(0.942315 -0.0333445 -2.42373e-22)
(0.931259 -0.0404612 -4.35048e-20)
(0.919384 -0.0484687 3.40552e-20)
(0.906856 -0.0570842 3.25374e-20)
(0.893517 -0.0656817 4.27503e-20)
(0.999944 -0.000561599 1.788e-20)
(0.998732 -0.00170414 -2.01559e-20)
(0.996349 -0.00299247 2.12923e-20)
(0.993005 -0.00451271 9.07458e-21)
(0.988647 -0.00636018 -8.83819e-21)
(0.98328 -0.0086036 1.12078e-20)
(0.976879 -0.0113191 -6.24786e-21)
(0.969439 -0.014585 1.76341e-20)
(0.960942 -0.0184689 -2.02417e-20)
(0.951408 -0.0230254 5.88152e-21)
(0.94086 -0.0283237 1.00157e-20)
(0.929357 -0.0343888 2.4063e-20)
(0.916942 -0.0412224 -5.84359e-20)
(0.903765 -0.0485943 -3.33607e-20)
(0.889743 -0.0559578 -9.66195e-21)
(0.999944 -0.00046045 2.15681e-21)
(0.998719 -0.00139812 -9.04104e-21)
(0.996307 -0.00245532 -1.15881e-20)
(0.992917 -0.00370247 5.12753e-21)
(0.988497 -0.00521752 -1.05456e-20)
(0.983047 -0.00705793 -1.28824e-20)
(0.976534 -0.00928277 3.76567e-21)
(0.968948 -0.0119629 -4.92114e-21)
(0.960266 -0.0151506 2.38673e-20)
(0.950495 -0.0188933 -2.28542e-20)
(0.939648 -0.0232486 -2.7082e-20)
(0.927771 -0.0282404 3.6999e-20)
(0.914904 -0.0338712 -3.79565e-20)
(0.901184 -0.0399588 1.62691e-20)
(0.886588 -0.0460443 1.50614e-20)
(0.999945 -0.000358719 -2.02795e-20)
(0.998709 -0.0010898 1.47962e-20)
(0.996273 -0.001914 -3.3551e-21)
(0.992847 -0.00288608 5.62801e-21)
(0.988377 -0.00406658 1.3078e-20)
(0.98286 -0.00550111 2.86699e-21)
(0.976258 -0.00723322 1.15402e-20)
(0.968555 -0.00932298 1.28589e-21)
(0.959725 -0.0118086 -3.25409e-20)
(0.949764 -0.0147287 1.51577e-20)
(0.938678 -0.0181287 2.41418e-20)
(0.926502 -0.0220296 6.63666e-21)
(0.913273 -0.0264339 1.90285e-20)
(0.899116 -0.0312037 -3.8818e-20)
(0.884059 -0.0359749 5.1336e-20)
(0.999945 -0.000256542 5.69786e-22)
(0.998702 -0.0007797 8.55814e-22)
(0.996248 -0.00136945 4.6515e-21)
(0.992795 -0.00206491 1.42771e-20)
(0.988288 -0.00290926 -1.33305e-20)
(0.982721 -0.00393561 9.33435e-21)
(0.976052 -0.00517354 -2.27167e-21)
(0.968261 -0.00666916 4.40753e-22)
(0.95932 -0.00844794 1.72041e-21)
(0.949216 -0.0105387 9.71873e-22)
(0.937951 -0.012974 9.07234e-21)
(0.92555 -0.0157702 -3.63828e-20)
(0.912048 -0.0189294 2.11101e-20)
(0.897563 -0.0223552 -2.58294e-20)
(0.882158 -0.0257837 4.67047e-20)
(0.999946 -0.00015405 5.5674e-21)
(0.998697 -0.000468326 -2.33104e-21)
(0.996231 -0.000822587 -7.35649e-21)
(0.992761 -0.00124031 -6.92084e-21)
(0.988228 -0.00174737 5.28376e-21)
(0.982628 -0.00236384 2.80794e-22)
(0.975914 -0.00310681 -5.30334e-21)
(0.968065 -0.00400542 3.72602e-21)
(0.95905 -0.00507404 -1.02971e-21)
(0.948851 -0.00633043 1.86733e-21)
(0.937466 -0.00779431 1.90378e-21)
(0.924915 -0.00947593 1.21371e-20)
(0.911231 -0.0113768 2.74094e-21)
(0.896526 -0.0134398 -5.42779e-21)
(0.880889 -0.015505 1.42844e-22)
(0.999946 -5.13704e-05 -2.0474e-22)
(0.998694 -0.000156192 2.96266e-21)
(0.996223 -0.000274345 -1.1703e-21)
(0.992743 -0.000413657 1.21638e-21)
(0.988198 -0.000582748 7.84171e-22)
(0.982582 -0.000788341 -2.03328e-21)
(0.975846 -0.00103602 2.1905e-21)
(0.967967 -0.00133576 -7.3346e-22)
(0.958915 -0.00169218 -8.96399e-22)
(0.948668 -0.00211129 -2.54158e-21)
(0.937224 -0.00259968 3.47434e-21)
(0.924598 -0.00316086 -3.48753e-21)
(0.910823 -0.00379535 -4.53874e-21)
(0.896007 -0.00448425 -6.86568e-22)
(0.880255 -0.005174 8.00321e-22)
(0.998663 -0.0219131 0)
(0.998476 -0.0294777 0)
(0.998615 -0.0383888 0)
(0.999331 -0.0486715 0)
(1.00078 -0.0602481 0)
(1.00333 -0.072992 0)
(1.00695 -0.0866132 0)
(1.01229 -0.100896 0)
(1.01854 -0.11519 0)
(1.02756 -0.129342 0)
(1.03506 -0.140421 0)
(0.999989 -0.0019827 0)
(0.999722 -0.00590413 0)
(0.999235 -0.0103143 0)
(0.99865 -0.0155353 0)
(0.998033 -0.0218532 0)
(0.997546 -0.0294484 0)
(0.997327 -0.0384315 0)
(0.997632 -0.0488426 0)
(0.998625 -0.0606286 0)
(1.00069 -0.0736732 0)
(1.00382 -0.0877204 0)
(1.00871 -0.102534 0)
(1.01451 -0.117514 0)
(1.02333 -0.132388 0)
(1.03045 -0.144199 0)
(0.999986 -0.00196709 0)
(0.999653 -0.00586 0)
(0.999043 -0.0102451 0)
(0.998282 -0.0154475 0)
(0.997434 -0.0217596 0)
(0.99666 -0.0293714 0)
(0.996095 -0.0384086 0)
(0.996001 -0.0489261 0)
(0.996545 -0.0608959 0)
(0.998127 -0.0742119 0)
(1.00076 -0.0886567 0)
(1.00517 -0.10397 0)
(1.01051 -0.119625 0)
(1.01906 -0.135193 0)
(1.02579 -0.147798 0)
(0.999982 -0.00194894 0)
(0.999588 -0.0058088 0)
(0.99886 -0.0101633 0)
(0.997934 -0.01534 0)
(0.996867 -0.0216368 0)
(0.995818 -0.0292524 0)
(0.994923 -0.0383273 0)
(0.99444 -0.0489303 0)
(0.994545 -0.0610585 0)
(0.995646 -0.0746161 0)
(0.99777 -0.0894279 0)
(1.00168 -0.105206 0)
(1.00653 -0.12152 0)
(1.01476 -0.137747 0)
(1.02106 -0.151223 0)
(0.999978 -0.00192868 0)
(0.999526 -0.00575179 0)
(0.998688 -0.010071 0)
(0.997605 -0.0152159 0)
(0.996332 -0.0214891 0)
(0.995023 -0.0290973 0)
(0.99381 -0.0381946 0)
(0.992953 -0.0488635 0)
(0.992629 -0.0611258 0)
(0.993254 -0.0748961 0)
(0.994871 -0.090043 0)
(0.998258 -0.106249 0)
(1.0026 -0.123201 0)
(1.01042 -0.140046 0)
(1.01627 -0.154498 0)
(0.999974 -0.00190688 0)
(0.999467 -0.00569072 0)
(0.998527 -0.00997136 0)
(0.997297 -0.0150803 0)
(0.995829 -0.0213238 0)
(0.994273 -0.0289164 0)
(0.992758 -0.0380252 0)
(0.991541 -0.0487459 0)
(0.990801 -0.0611245 0)
(0.990956 -0.0750865 0)
(0.992067 -0.0905452 0)
(0.994912 -0.107155 0)
(0.998734 -0.124726 0)
(1.00604 -0.142164 0)
(1.0114 -0.15777 0)
(0.99997 -0.00188409 0)
(0.999412 -0.00562741 0)
(0.998375 -0.00986795 0)
(0.997008 -0.0149392 0)
(0.995357 -0.0211508 0)
(0.993568 -0.0287251 0)
(0.991767 -0.0378416 0)
(0.990203 -0.0486091 0)
(0.989061 -0.061098 0)
(0.988752 -0.0752455 0)
(0.989361 -0.0910087 0)
(0.991645 -0.108016 0)
(0.994933 -0.1262 0)
(1.00159 -0.144228 0)
(1.00647 -0.161297 0)
(0.999966 -0.00185937 0)
(0.99936 -0.00555893 0)
(0.998234 -0.00975566 0)
(0.996738 -0.014784 0)
(0.994915 -0.0209564 0)
(0.992906 -0.0285014 0)
(0.990833 -0.0376096 0)
(0.988939 -0.0484013 0)
(0.987407 -0.0609684 0)
(0.986642 -0.0752582 0)
(0.986751 -0.0912689 0)
(0.988459 -0.108603 0)
(0.991198 -0.127305 0)
(0.997025 -0.145819 0)
(1.00149 -0.164454 0)
(1.04041 -0.147209 -4.61755e-20)
(1.03605 -0.151141 -2.1771e-19)
(1.04595 -0.153038 3.85684e-20)
(1.03169 -0.15492 1.09804e-19)
(1.042 -0.157118 9.79237e-20)
(1.05131 -0.159202 1.90737e-19)
(1.02736 -0.15858 1.81574e-19)
(1.03809 -0.161148 -1.14366e-19)
(1.04777 -0.163562 -1.14734e-21)
(1.05775 -0.165675 6.74778e-20)
(1.02313 -0.162156 -1.9722e-19)
(1.03428 -0.165151 -1.19131e-20)
(1.04439 -0.167922 -9.17809e-20)
(1.05482 -0.170348 -6.45051e-20)
(1.06551 -0.172419 2.0774e-19)
(1.01917 -0.165699 2.88709e-19)
(1.0307 -0.169145 5.92482e-20)
(1.04129 -0.172289 6.13876e-20)
(1.05218 -0.175035 4.03673e-20)
(1.06329 -0.177368 -1.01788e-19)
(1.07455 -0.179254 -1.27674e-19)
(1.01534 -0.169668 4.46887e-21)
(1.02716 -0.173586 1.15031e-20)
(1.03829 -0.177077 -2.28654e-19)
(1.04967 -0.18009 1.60278e-19)
(1.06124 -0.182622 4.10969e-20)
(1.07292 -0.184647 5.60378e-20)
(1.0847 -0.186159 -4.96377e-20)
)
;

boundaryField
{
    inlet
    {
        type            uniformFixedValue;
        uniformValue    constant (1 0 0);
        value           uniform (1 0 0);
    }
    outlet
    {
        type            pressureInletOutletVelocity;
        value           nonuniform 0();
    }
    cylinder
    {
        type            fixedValue;
        value           nonuniform 0();
    }
    top
    {
        type            symmetryPlane;
    }
    bottom
    {
        type            symmetryPlane;
    }
    defaultFaces
    {
        type            empty;
    }
    procBoundary4to0
    {
        type            processor;
        value           nonuniform List<vector> 
35
(
(1.09656 -0.187162 1.51448e-19)
(1.10845 -0.187659 7.54737e-20)
(1.13281 -0.207235 -4.66784e-22)
(1.12034 -0.18766 2.21643e-20)
(0.999324 -0.0219339 0)
(0.999448 -0.0294525 0)
(0.999957 -0.0382723 0)
(1.00109 -0.0484032 0)
(1.003 -0.0597439 0)
(1.00603 -0.0721574 0)
(1.01014 -0.0853257 0)
(1.0159 -0.0990491 0)
(1.02256 -0.112651 0)
(1.03174 -0.12606 0)
(1.03958 -0.136451 0)
(0.999993 -0.00199535 0)
(0.999794 -0.00593989 0)
(0.999438 -0.0103686 0)
(0.999037 -0.0156001 0)
(0.999037 -0.0156001 0)
(1.04473 -0.143107 9.04605e-22)
(1.04473 -0.143107 9.04605e-22)
(1.04989 -0.148856 1.7226e-20)
(1.04989 -0.148856 1.7226e-20)
(1.05492 -0.154824 5.05328e-20)
(1.05492 -0.154824 5.05328e-20)
(1.06087 -0.16102 6.38933e-20)
(1.06087 -0.16102 6.38933e-20)
(1.06801 -0.167477 2.08111e-19)
(1.06801 -0.167477 2.08111e-19)
(1.07636 -0.174101 -2.33086e-19)
(1.07636 -0.174101 -2.33086e-19)
(1.08594 -0.180678 -5.78393e-20)
(1.08594 -0.180678 -5.78393e-20)
(1.09656 -0.187162 1.51448e-19)
)
;
    }
    procBoundary4to5
    {
        type            processor;
        value           nonuniform List<vector> 
38
(
(0.0372874 -0.00980839 1.34473e-20)
(0.0387128 -0.0293435 2.16954e-20)
(0.0415481 -0.0486411 1.44801e-19)
(0.0457627 -0.0675489 -1.41177e-19)
(0.0513114 -0.0859183 5.97246e-19)
(0.0581349 -0.103606 -1.02836e-18)
(0.0661603 -0.120475 3.18922e-19)
(0.0753022 -0.136397 3.56452e-19)
(0.23857 -0.263947 1.28667e-19)
(0.23857 -0.263947 1.28667e-19)
(0.256904 -0.288943 9.16054e-20)
(0.276671 -0.312035 6.75145e-19)
(0.297693 -0.333082 -9.85167e-19)
(0.31978 -0.351958 1.71042e-19)
(0.34273 -0.368556 6.58601e-19)
(0.366335 -0.382785 3.162e-20)
(0.390377 -0.394576 -8.63699e-20)
(0.585718 -0.452417 3.37703e-19)
(0.585718 -0.452417 3.37703e-19)
(0.612122 -0.463201 2.51576e-19)
(0.638576 -0.471497 -6.08095e-19)
(0.664862 -0.47728 4.00676e-20)
(0.79939 -0.472798 -6.68851e-20)
(0.79939 -0.472798 -6.68851e-20)
(0.824992 -0.476758 -3.60556e-20)
(0.850145 -0.478515 -1.80613e-19)
(0.940629 -0.440177 -4.60198e-20)
(0.940629 -0.440177 -4.60198e-20)
(0.963593 -0.440784 9.57824e-20)
(0.98597 -0.439607 -2.52436e-19)
(1.04089 -0.389736 -8.06812e-20)
(1.04089 -0.389736 -8.06812e-20)
(1.06095 -0.3879 1.93972e-19)
(1.0952 -0.336 4.66519e-20)
(1.0952 -0.336 4.66519e-20)
(1.11802 -0.287108 2.12743e-20)
(1.11802 -0.287108 2.12743e-20)
(1.13454 -0.242809 -2.43842e-20)
)
;
    }
    procBoundary4to8
    {
        type            processor;
        value           nonuniform List<vector> 
25
(
(0.162223 0.05044 3.85957e-20)
(0.323437 0.0536932 7.11086e-20)
(0.450901 0.0166109 6.53817e-20)
(0.450901 0.0166109 6.53817e-20)
(0.56423 0.014322 3.04927e-20)
(0.651291 0.0120465 -1.9645e-20)
(0.721749 0.0100277 5.98533e-20)
(0.777077 0.00836398 7.01627e-21)
(0.821791 0.00700184 2.5687e-20)
(0.857868 0.00589346 -2.31417e-20)
(0.999946 5.13704e-05 -6.28339e-23)
(0.998694 0.000156192 2.44207e-21)
(0.996223 0.000274346 -6.44985e-22)
(0.992743 0.000413658 1.58135e-21)
(0.988198 0.000582748 -1.22729e-21)
(0.982582 0.000788342 3.04236e-22)
(0.975846 0.00103602 1.22371e-21)
(0.967967 0.00133576 -1.30043e-21)
(0.958915 0.00169218 9.83038e-22)
(0.948668 0.00211129 -1.29196e-21)
(0.937224 0.00259968 -3.42842e-21)
(0.924598 0.00316086 7.95866e-22)
(0.910823 0.00379535 8.14341e-22)
(0.896007 0.00448425 8.14772e-23)
(0.880255 0.005174 -3.31901e-22)
)
;
    }
    procBoundary4to9
    {
        type            processor;
        value           uniform (0.0372874 0.00980839 1.08035e-20);
    }
}


// ************************************************************************* //
