/*--------------------------------*- C++ -*----------------------------------*\
  =========                 |
  \\      /  F ield         | OpenFOAM: The Open Source CFD Toolbox
   \\    /   O peration     | Website:  https://openfoam.org
    \\  /    A nd           | Version:  7
     \\/     M anipulation  |
\*---------------------------------------------------------------------------*/
FoamFile
{
    version     2.0;
    format      ascii;
    class       surfaceScalarField;
    location    "15";
    object      phi;
}
// * * * * * * * * * * * * * * * * * * * * * * * * * * * * * * * * * * * * * //

dimensions      [0 3 -1 0 0 0 0];

internalField   nonuniform List<scalar> 
23915
(
-3.95628e-05
3.95622e-05
6.55052e-10
-0.000115499
7.59353e-05
8.91099e-10
-0.000211826
9.63259e-05
7.27327e-10
-0.000320361
0.000108535
4.21419e-10
-0.000438216
0.000117854
3.95269e-11
-0.000564809
0.000126594
-4.32785e-10
-0.000700654
0.000135846
-1.02875e-09
-0.000846667
0.000146015
-1.77443e-09
-0.0010039
0.000157231
-2.68331e-09
-0.00117337
0.000169476
-3.75439e-09
-0.00135598
0.000182617
-4.97098e-09
-0.00155234
0.000196366
-6.29431e-09
-0.00176256
0.000210232
-7.65721e-09
-0.00198611
0.000223559
-8.9621e-09
-0.00222128
0.000235177
-1.00779e-08
-0.00246492
0.000243653
-1.08332e-08
-0.00271397
0.000249061
-1.10333e-08
-0.00295899
0.000245029
-1.052e-08
-0.00320366
0.000244683
-9.16095e-09
0.000220873
-6.74219e-09
-0.00342453
-3.87861e-05
7.83483e-05
-0.000113313
0.000150462
-0.000207659
0.000190672
-0.000313531
0.000214408
-0.000427811
0.000232134
-0.000549621
0.000248403
-0.000679107
0.000265332
-0.000816743
0.000283651
-0.000963047
0.000303535
-0.00111841
0.000324843
-0.001283
0.000347205
-0.00145657
0.000369932
-0.00163827
0.000391934
-0.00182655
0.000411838
-0.00201869
0.000427319
-0.00220983
0.000434795
-0.00239749
0.000436717
-0.00256562
0.000413156
-0.00272677
0.000405836
0.000332221
-0.00283812
-3.72813e-05
0.00011563
-0.000109047
0.000222228
-0.000199502
0.000281127
-0.000300142
0.000315047
-0.000407412
0.000339405
-0.000519869
0.00036086
-0.00063697
0.000382433
-0.000758367
0.000405048
-0.000883602
0.00042877
-0.00101193
0.000453167
-0.00114217
0.000477454
-0.00127262
0.000500378
-0.00140076
0.000520078
-0.00152332
0.000534391
-0.00163616
0.000540164
-0.00173097
0.000529606
-0.00180872
0.000514467
-0.00183914
0.000443571
-0.00185164
0.000418337
0.000257541
-0.00177696
-3.51227e-05
0.000150752
-0.000102883
0.000289988
-0.000187667
0.000365911
-0.000280679
0.000408059
-0.000377763
0.000436489
-0.000476695
0.000459792
-0.000575991
0.000481729
-0.000674206
0.000503263
-0.000769605
0.000524169
-0.000859975
0.000543537
-0.000942505
0.000559983
-0.00101366
0.000571532
-0.00106899
0.000575412
-0.00110313
0.000568533
-0.00111107
0.000548098
-0.00107906
0.000497594
-0.00101561
0.000451022
-0.00087394
0.0003019
-0.000691082
0.000235478
-2.71127e-05
-0.000406428
-3.24157e-05
0.000183168
-9.50739e-05
0.000352646
-0.00017259
0.000443427
-0.000255824
0.000491293
-0.000339892
0.000520558
-0.00042164
0.00054154
-0.000498482
0.000558571
-0.000567711
0.000572491
-0.000626169
0.000582627
-0.000670059
0.000587427
-0.000694844
0.000584769
-0.000695156
0.000571844
-0.000664677
0.000544932
-0.000595804
0.00049966
-0.000483276
0.00043557
-0.00031039
0.000324708
-7.74245e-05
0.000218056
0.000234399
-9.92314e-06
0.000633745
-0.000163868
-0.000540822
0.00114745
-2.92908e-05
0.000212459
-8.59353e-05
0.000409291
-0.00015481
0.000512302
-0.000226397
0.00056288
-0.00029501
0.000589171
-0.000356469
0.000603
-0.000406998
0.000609099
-0.000442559
0.000608052
-0.000458538
0.000598606
-0.000449561
0.00057845
-0.000409451
0.000544659
-0.000331132
0.000493525
-0.000206655
0.000420455
-2.79227e-05
0.000320928
0.000216899
0.000190749
0.000536983
4.62393e-06
0.000935146
-0.000180107
0.0014469
-0.000521674
0.00203691
-0.000753881
-0.00129736
0.00279345
-2.58953e-05
0.000238354
-7.58224e-05
0.000459218
-0.000134928
0.000571407
-0.000193296
0.000621248
-0.000244393
0.000640268
-0.000282961
0.000641568
-0.000303982
0.000630119
-0.000302055
0.000606126
-0.000271108
0.000567659
-0.000204223
0.000511566
-9.36688e-05
0.000434104
6.91852e-05
0.000330671
0.000294161
0.000195479
0.000590286
2.48022e-05
0.000970163
-0.000189129
0.00144277
-0.000467984
0.00201543
-0.000752769
0.00271695
-0.00122319
0.00350257
-0.0015395
-0.00227774
0.00448294
-2.23844e-05
0.000260738
-6.51078e-05
0.000501941
-0.000113565
0.000619865
-0.000157421
0.000665104
-0.000189259
0.000672106
-0.000202692
0.000655001
-0.000191395
0.000618823
-0.000148541
0.000563271
-6.65307e-05
0.000485649
6.31556e-05
0.000381879
0.000249832
0.000247428
0.000503613
7.68906e-05
0.000836297
-0.000137205
0.00125543
-0.000394334
0.00178028
-0.000713978
0.00240735
-0.00109505
0.00315892
-0.00150435
0.00404117
-0.00210544
0.00501769
-0.00251602
-0.00343845
0.0061784
-1.89111e-05
0.000279649
-5.41567e-05
0.000537187
-9.13156e-05
0.000657024
-0.00011959
0.000693377
-0.000130623
0.000683139
-0.000116804
0.000641181
-7.03637e-05
0.000572382
1.71316e-05
0.000475776
0.000155002
0.000347779
0.000353571
0.000183311
0.000623849
-2.28509e-05
0.000977314
-0.000276574
0.0014273
-0.000587195
0.00197944
-0.000946468
0.00265541
-0.00138995
0.00344115
-0.00188079
0.00436589
-0.00242909
0.0054013
-0.00314085
0.00654717
-0.00366189
-0.00470074
0.00780946
-1.56162e-05
0.000295266
-4.32997e-05
0.000564871
-6.86979e-05
0.000682422
-8.04563e-05
0.000705136
-6.91629e-05
0.000671846
-2.57893e-05
0.000597808
5.91456e-05
0.000487447
0.000196008
0.000338914
0.000396168
0.000147619
0.000671957
-9.2478e-05
0.00103597
-0.000386863
0.00150055
-0.00074115
0.00207801
-0.00116466
0.00277294
-0.0016414
0.00359807
-0.00221509
0.00453515
-0.00281786
0.00560554
-0.00349948
0.00674197
-0.00427727
0.00799384
-0.00491375
-0.0059558
0.00924889
-1.26186e-05
0.000307884
-3.28061e-05
0.000585058
-4.61006e-05
0.000695716
-4.04179e-05
0.000699453
-5.07399e-06
0.000636502
7.07277e-05
0.000522006
0.000198588
0.000359587
0.00039125
0.000146251
0.000662415
-0.000123546
0.00102625
-0.00045631
0.00149595
-0.000856566
0.00208295
-0.00132815
0.00279377
-0.00187548
0.00363064
-0.00247827
0.00458667
-0.00317111
0.00564204
-0.00387323
0.00679623
-0.00465368
0.00796086
-0.0054419
0.00920941
-0.0061623
-0.00709486
0.0103485
-1.00059e-05
0.00031789
-2.28565e-05
0.000597909
-2.37294e-05
0.000696589
4.80932e-07
0.000675243
6.21028e-05
0.00057488
0.00017417
0.000409939
0.000350981
0.000182776
0.000608011
-0.000110779
0.0009611
-0.000476635
0.00142502
-0.000920226
0.00201092
-0.00144247
0.00272525
-0.00204247
0.00356349
-0.00271372
0.00451949
-0.00343426
0.00556405
-0.00421568
0.00667452
-0.0049837
0.00782288
-0.00580204
0.00893257
-0.00655159
0.010061
-0.0072907
-0.00804999
0.0110161
-7.82662e-06
0.000325717
-1.35167e-05
0.000603599
-1.56951e-06
0.000684642
4.2621e-05
0.000631052
0.000133539
0.000483963
0.000287113
0.000256365
0.000520821
-5.09322e-05
0.000852751
-0.000442709
0.00129953
-0.000923413
0.00187344
-0.00149414
0.00257888
-0.00214791
0.00341118
-0.00287478
0.0043509
-0.00365344
0.0053774
-0.00446076
0.00644486
-0.00528314
0.00752837
-0.00606721
0.00858263
-0.0068563
0.00956529
-0.00753425
0.0105051
-0.00823051
-0.00882356
0.0112787
-6.08599e-06
0.000331803
-4.69966e-06
0.000602213
2.07299e-05
0.000659212
8.69116e-05
0.000564871
0.00021126
0.000359614
0.000413247
5.43779e-05
0.000713607
-0.000351292
0.00113175
-0.000860853
0.00168177
-0.00147343
0.00236815
-0.00218052
0.00318243
-0.00296219
0.00410348
-0.00379583
0.00509627
-0.00464623
0.00612628
-0.00549077
0.00714275
-0.00629961
0.00812487
-0.00704934
0.00902951
-0.00776093
0.00985282
-0.00835756
0.0106062
-0.00898393
-0.00945935
0.011242
-4.74816e-06
0.000336551
3.73858e-06
0.000593726
4.3736e-05
0.000619215
0.000134799
0.000473808
0.000298099
0.000196314
0.000557079
-0.000204603
0.000934777
-0.00072899
0.00144866
-0.00137473
0.00210459
-0.00212936
0.00289265
-0.00296858
0.00378661
-0.00385616
0.00474808
-0.0047573
0.00573167
-0.00562982
0.0066977
-0.00645681
0.00760496
-0.00720686
0.00844504
-0.00788942
0.00919116
-0.00850705
0.00987073
-0.00903713
0.010486
-0.00959923
-0.010011
0.0110377
-3.68906e-06
0.00034024
1.21604e-05
0.000577876
6.84047e-05
0.000562971
0.000188274
0.000353938
0.000397532
-1.29434e-05
0.000723249
-0.000530319
0.00118795
-0.00119369
0.00180137
-0.00198815
0.00255397
-0.00288196
0.00341623
-0.00383083
0.00434419
-0.00478413
0.0052884
-0.00570151
0.00620407
-0.00654548
0.00705886
-0.00731159
0.00783194
-0.00797995
0.00853001
-0.00858748
0.00914523
-0.00912227
0.00972179
-0.0096137
0.0102489
-0.0101263
-0.0105141
0.010752
-2.73926e-06
0.000342979
2.11601e-05
0.000553977
9.59804e-05
0.00048815
0.000249777
0.000200141
0.000513293
-0.000276459
0.000915363
-0.000932389
0.00147259
-0.00175093
0.00217921
-0.00269477
0.00300437
-0.00370712
0.00389893
-0.00472539
0.00480835
-0.00569354
0.005684
-0.00657717
0.00649354
-0.00735502
0.00722109
-0.00803914
0.00786775
-0.00862661
0.00845007
-0.0091698
0.00897366
-0.00964585
0.00948367
-0.0101237
0.0099544
-0.010597
-0.0109907
0.010431
-1.69261e-06
0.000344672
3.13446e-05
0.00052094
0.000127948
0.000391547
0.000322003
6.08642e-06
0.000648702
-0.000603158
0.00113439
-0.00141807
0.00178175
-0.00239829
0.00256224
-0.00347526
0.00342284
-0.00456772
0.0043022
-0.00560475
0.0051474
-0.00653874
0.00592281
-0.00735258
0.00661509
-0.0080473
0.0072259
-0.00864995
0.00777141
-0.00917212
0.00826987
-0.00966826
0.00873388
-0.0101099
0.00919835
-0.0105882
0.00963027
-0.011029
-0.0114541
0.0100936
-1.52873e-07
0.000344825
4.34403e-05
0.000477347
0.000165947
0.00026904
0.000407581
-0.000235547
0.000805694
-0.00100127
0.00137689
-0.00198927
0.0021011
-0.0031225
0.00292409
-0.00429825
0.00377741
-0.00542103
0.0046002
-0.00642754
0.005353
-0.00729154
0.00601958
-0.00801916
0.00660452
-0.00863224
0.00712164
-0.00916707
0.00759302
-0.0096435
0.00803336
-0.0101086
0.00845801
-0.0105345
0.00888547
-0.0110156
0.00928939
-0.0114329
-0.0119128
0.00974811
1.48425e-06
0.000343341
5.81938e-05
0.000420637
0.000211649
0.000115585
0.000508604
-0.000532502
0.000983643
-0.00147631
0.00163395
-0.00263958
0.00241055
-0.0038991
0.00323828
-0.00512598
0.00404595
-0.0062287
0.00478562
-0.00716721
0.00543747
-0.00794339
0.00600372
-0.00858542
0.00650084
-0.00912936
0.00694794
-0.00961418
0.0073663
-0.0100619
0.00776605
-0.0105084
0.00816252
-0.010931
0.00855636
-0.0114095
0.00893271
-0.0118092
-0.0123756
0.00939554
4.09837e-06
0.000339242
7.65041e-05
0.000348231
0.00026643
-7.43411e-05
0.000625471
-0.000891543
0.00117729
-0.00202813
0.00189007
-0.00335237
0.00268667
-0.00469569
0.00348297
-0.00592228
0.0042184
-0.00696413
0.00486494
-0.00781376
0.00542183
-0.00850027
0.00590422
-0.00906781
0.00633378
-0.00955891
0.00672978
-0.0100102
0.00710947
-0.0104415
0.00747949
-0.0108784
0.00785266
-0.0113041
0.00822105
-0.0117779
0.0085943
-0.0121825
-0.0127334
0.00895205
7.4921e-06
0.00033175
9.88399e-05
0.000256884
0.000331659
-0.00030716
0.000758101
-0.00131799
0.00138001
-0.00265003
0.00213104
-0.0041034
0.00291488
-0.00547954
0.00365292
-0.00666032
0.00430396
-0.00761517
0.00486037
-0.00837017
0.00533562
-0.00897553
0.00575157
-0.00948375
0.00613017
-0.00993752
0.00648808
-0.0103681
0.00683792
-0.0107914
0.00718402
-0.0112245
0.00753476
-0.0116549
0.0078806
-0.0121237
0.00824304
-0.0125449
-0.0130851
0.0085948
1.20386e-05
0.000319711
0.000126017
0.000142905
0.000407854
-0.000588997
0.000902775
-0.00181291
0.00157975
-0.00332701
0.0023403
-0.00486394
0.00308354
-0.00622278
0.00374779
-0.00732457
0.00431356
-0.00818094
0.00478976
-0.00884636
0.00519828
-0.00938405
0.00556269
-0.00984816
0.00590248
-0.0102773
0.00623063
-0.0106962
0.00655585
-0.0111166
0.0068806
-0.0115492
0.00720994
-0.0119842
0.00753967
-0.0124534
0.00787736
-0.0128826
-0.0134199
0.00821209
1.78908e-05
0.000301821
0.000158567
2.22928e-06
0.000494596
-0.000925027
0.00105356
-0.00237187
0.00176424
-0.00403769
0.00250679
-0.00560649
0.00319035
-0.00690634
0.00377561
-0.00790983
0.00426241
-0.00866774
0.00467078
-0.00925473
0.00502608
-0.00973935
0.0053504
-0.0101725
0.00565956
-0.0105865
0.00596297
-0.0109996
0.00626635
-0.01142
0.0065708
-0.0118537
0.00688077
-0.0122942
0.0071898
-0.0127625
0.00751042
-0.0132032
-0.0137425
0.00783301
2.51822e-05
0.000276638
0.000196849
-0.000169437
0.00059016
-0.00131834
0.00120258
-0.00298429
0.00192273
-0.00475785
0.00262518
-0.00630893
0.00323911
-0.00752028
0.00374754
-0.00841826
0.00416502
-0.00908521
0.00451764
-0.00960736
0.00483067
-0.0100524
0.00512301
-0.0104648
0.00540668
-0.0108701
0.00568816
-0.0112811
0.00597098
-0.0117028
0.00625594
-0.0121387
0.00654548
-0.0125837
0.00683647
-0.0130535
0.00713838
-0.0135051
-0.0140415
0.00743736
3.40415e-05
0.000242597
0.000240946
-0.000376341
0.000691377
-0.00176877
0.00134135
-0.00363426
0.0020479
-0.0054644
0.00269538
-0.00695641
0.00323709
-0.00806199
0.00367509
-0.00885625
0.00403364
-0.00944377
0.00434093
-0.00991465
0.00461986
-0.0103313
0.00488562
-0.0107306
0.00514686
-0.0111314
0.00540785
-0.0115421
0.0056708
-0.0119657
0.00593603
-0.0124039
0.00620588
-0.0128536
0.00647713
-0.0133247
0.00675825
-0.0137862
-0.0143225
0.00703925
4.46137e-05
0.000197983
0.0002905
-0.000622228
0.000793854
-0.00227212
0.00146234
-0.00430275
0.0021364
-0.00613846
0.00272095
-0.00754096
0.00319282
-0.00853386
0.00356861
-0.00923205
0.00387793
-0.00975309
0.00414817
-0.0101849
0.00439879
-0.0105819
0.00464138
-0.0109732
0.00488188
-0.0113719
0.00512308
-0.0117833
0.00536628
-0.0122089
0.00561189
-0.0126495
0.00586137
-0.0131031
0.00611291
-0.0135763
0.00637377
-0.0140471
-0.0145814
0.0066327
5.70754e-05
0.000140908
0.000344571
-0.000909723
0.000892507
-0.00282006
0.00156011
-0.00497035
0.00218827
-0.00676662
0.00270737
-0.00806006
0.00311467
-0.00894116
0.00343677
-0.00955415
0.00370511
-0.0100214
0.00394452
-0.0104243
0.00417072
-0.0108081
0.00439216
-0.0111946
0.00461283
-0.0115926
0.00483447
-0.0120049
0.00505797
-0.0124324
0.00528363
-0.0128751
0.00551273
-0.0133322
0.00574398
-0.0138075
0.00598301
-0.0142861
-0.0148193
0.00622089
7.16178e-05
6.929e-05
0.000401605
-0.00123971
0.000982302
-0.00340076
0.00163176
-0.00561981
0.00220587
-0.00734072
0.00266082
-0.00851502
0.00301014
-0.00929048
0.00328642
-0.00983042
0.0035204
-0.0102554
0.00373344
-0.0106373
0.00393772
-0.0110124
0.00413917
-0.0113961
0.00434041
-0.0117938
0.00454257
-0.0122071
0.00474623
-0.0126361
0.0049518
-0.0130807
0.00516017
-0.0135406
0.00537064
-0.014018
0.00558788
-0.0145034
-0.015035
0.00580359
8.83764e-05
-1.90864e-05
0.000459568
-0.0016109
0.00105898
-0.00400017
0.00167669
-0.00623753
0.00219291
-0.00785694
0.00258734
-0.00890945
0.00288554
-0.00958868
0.00312281
-0.0100677
0.00332751
-0.0104601
0.00351726
-0.0108271
0.00370113
-0.0111963
0.0038832
-0.0115781
0.00406518
-0.0119758
0.00424779
-0.0123897
0.00443151
-0.0128198
0.00461672
-0.0132659
0.00480415
-0.013728
0.0049935
-0.0142073
0.00518823
-0.0146981
-0.0152284
0.00538162
0.000107315
-0.000126402
0.000516155
-0.00201974
0.00111956
-0.00460357
0.00169595
-0.00681391
0.00215364
-0.00831464
0.00249241
-0.00924821
0.00274599
-0.00984226
0.00294985
-0.0102716
0.00312901
-0.0106393
0.00329749
-0.0109956
0.00346185
-0.0113606
0.00362484
-0.0117411
0.00378757
-0.0121385
0.00395056
-0.0125527
0.00411419
-0.0129835
0.00427886
-0.0134306
0.00444514
-0.0138943
0.00461294
-0.0143751
0.00478498
-0.0148701
-0.015399
0.00495562
0.000128128
-0.00025453
0.000568999
-0.00246061
0.00116255
-0.00519713
0.00169161
-0.00734297
0.00209235
-0.00871538
0.00238077
-0.00953663
0.00259553
-0.010057
0.0027704
-0.0104464
0.00292668
-0.0107956
0.00307517
-0.011144
0.00322052
-0.011506
0.00336455
-0.0118852
0.003508
-0.012282
0.00365128
-0.012696
0.00379471
-0.0131269
0.00393866
-0.0135745
0.00408358
-0.0140392
0.00422959
-0.0145211
0.00437861
-0.0150192
-0.0155466
0.00452622
0.000150218
-0.000404748
0.000615857
-0.00292625
0.00118773
-0.005769
0.00166631
-0.00782155
0.00201304
-0.0090621
0.0022564
-0.00977999
0.00243725
-0.0102379
0.00258652
-0.0105957
0.00272175
-0.0109308
0.00285106
-0.0112733
0.00297765
-0.0116326
0.00310276
-0.0120103
0.00322688
-0.0124061
0.00335036
-0.0128195
0.00347348
-0.01325
0.00359659
-0.0136976
0.00372001
-0.0141626
0.00384395
-0.0146451
0.0039698
-0.015145
-0.0156709
0.00409409
0.000172788
-0.000577536
0.000654795
-0.00340826
0.00119579
-0.00631
0.00162287
-0.00824862
0.00191927
-0.0093585
0.0021225
-0.00998323
0.00227352
-0.0103889
0.00239969
-0.0107219
0.00251511
-0.0110462
0.00262569
-0.0113839
0.00273366
-0.0117406
0.00283984
-0.0121164
0.0029446
-0.0125108
0.00304822
-0.0129231
0.00315096
-0.0133527
0.00325311
-0.0137998
0.00335492
-0.0142644
0.00345664
-0.0147468
0.00355918
-0.0152476
-0.0157716
0.00365991
0.00019497
-0.000772507
0.000684383
-0.00389767
0.00118802
-0.00681364
0.00156407
-0.00862468
0.00181415
-0.00960858
0.00198168
-0.0101508
0.0021061
-0.0105133
0.002211
-0.0108268
0.00230739
-0.0111426
0.00239953
-0.0114761
0.00248894
-0.01183
0.00257617
-0.0122037
0.00266154
-0.0125962
0.00274527
-0.0130068
0.00282759
-0.0134351
0.00290872
-0.0138809
0.00298885
-0.0143445
0.00306822
-0.0148262
0.0031474
-0.0153268
-0.0158486
0.00322438
0.000215934
-0.000988441
0.000703799
-0.00438554
0.00116598
-0.00727581
0.00149254
-0.00895124
0.00170029
-0.00981633
0.00183595
-0.0102864
0.00193632
-0.0106137
0.00202123
-0.0109117
0.0020991
-0.0112205
0.00217296
-0.0115499
0.00224383
-0.0119008
0.00231213
-0.012272
0.0023781
-0.0126622
0.00244193
-0.0130706
0.00250381
-0.0134969
0.0025639
-0.013941
0.00262233
-0.014403
0.00267931
-0.0148832
0.00273512
-0.0153826
-0.0159017
0.00278823
0.000234927
-0.00122337
0.000712827
-0.00486344
0.00113137
-0.00769435
0.00141067
-0.00923055
0.00157989
-0.00998555
0.00168691
-0.0103934
0.00176517
-0.0106919
0.00183098
-0.0109775
0.00189066
-0.0112802
0.00194632
-0.0116056
0.00199869
-0.0119532
0.00204807
-0.0123214
0.00209466
-0.0127088
0.00213861
-0.0131146
0.00218007
-0.0135384
0.00221914
-0.0139801
0.00225589
-0.0144397
0.0022905
-0.0149178
0.00232297
-0.015415
-0.0159309
0.00235217
0.000251282
-0.00147465
0.000711757
-0.00532391
0.00108588
-0.00806848
0.00132057
-0.00946525
0.00145474
-0.0101197
0.00153579
-0.0104745
0.0015934
-0.0107495
0.00164072
-0.0110248
0.00168242
-0.0113218
0.00171996
-0.0116431
0.00175385
-0.0119871
0.00178435
-0.0123519
0.0018116
-0.012736
0.00183573
-0.0131387
0.00185682
-0.0135595
0.00187493
-0.0139982
0.00189008
-0.0144549
0.00190237
-0.01493
0.00191163
-0.0154243
-0.0159363
0.00191696
0.000264409
-0.00173906
0.000701239
-0.00576074
0.00103116
-0.00839839
0.00122408
-0.00965817
0.00132631
-0.010222
0.00138354
-0.0105317
0.00142159
-0.0107876
0.00145084
-0.0110541
0.00147469
-0.0113457
0.00149417
-0.0116626
0.00150966
-0.0120026
0.00152133
-0.0123635
0.00152932
-0.012744
0.0015337
-0.0131431
0.00153451
-0.0135603
0.00153176
-0.0139954
0.00152541
-0.0144485
0.0015155
-0.0149201
0.00150173
-0.0154105
-0.0159178
0.0014833
0.000273834
-0.00201289
0.000682166
-0.00616907
0.000968725
-0.00868495
0.00112275
-0.00981219
0.00119578
-0.010295
0.00123092
-0.0105668
0.0012502
-0.0108069
0.00126167
-0.0110655
0.00126779
-0.0113518
0.00126928
-0.0116641
0.00126642
-0.0119997
0.00125936
-0.0123565
0.00124818
-0.0127328
0.00123291
-0.0131278
0.00121357
-0.013541
0.00119009
-0.0139719
0.00116241
-0.0144209
0.00113045
-0.0148882
0.00109388
-0.015374
-0.0158759
0.00105193
0.000277652
-0.00229055
0.000652926
-0.00654435
0.000896917
-0.00892894
0.00101481
-0.00993009
0.00106114
-0.0103413
0.0010757
-0.0105814
0.00107694
-0.0108081
0.00107101
-0.0110596
0.00105965
-0.0113405
0.00104338
-0.0116478
0.00102242
-0.0119788
0.000996869
-0.0123309
0.000966787
-0.0127027
0.00093217
-0.0130932
0.000892974
-0.0135018
0.000849099
-0.0139281
0.000800448
-0.0143722
0.000746853
-0.0148346
0.000687781
-0.0153149
-0.015811
0.000622887
0.000278649
-0.00256919
0.000619662
-0.00688536
0.000823095
-0.00913237
0.000907569
-0.0100146
0.000929125
-0.0103629
0.00092402
-0.0105763
0.000907497
-0.0107916
0.000884166
-0.0110363
0.000855277
-0.0113116
0.0008212
-0.0116138
0.000782103
-0.0119397
0.000738051
-0.0122869
0.000689067
-0.0126538
0.000635105
-0.0130393
0.000576075
-0.0134427
0.000511829
-0.0138638
0.000442268
-0.0143026
0.000367276
-0.0147596
0.000285817
-0.0152334
-0.0157232
0.000198051
0.000275482
-0.00284468
0.000580898
-0.00719078
0.000745467
-0.00929694
0.000798899
-0.010068
0.000797363
-0.0103613
0.000773407
-0.0105523
0.000739437
-0.0107576
0.000698854
-0.0109957
0.000652548
-0.0112653
0.000600784
-0.011562
0.000543688
-0.0118826
0.000481283
-0.0122245
0.000413554
-0.012586
0.000340445
-0.0129662
0.000261785
-0.0133641
0.000177389
-0.0137794
8.70024e-05
-0.0142123
-9.66794e-06
-0.0146629
-0.000111767
-0.0151313
-0.0156124
-0.000222609
0.000268365
-0.00311304
0.000537538
-0.00745995
0.000665025
-0.00942443
0.000689572
-0.0100925
0.000666357
-0.0103381
0.000624193
-0.0105102
0.000573032
-0.0107065
0.000515336
-0.010938
0.000451744
-0.0112017
0.000382423
-0.0114927
0.000307474
-0.0118076
0.0002269
-0.0121439
0.000140561
-0.0124997
4.84231e-05
-0.012874
-4.95622e-05
-0.0132661
-0.000153705
-0.0136753
-0.000264244
-0.0141017
-0.000381216
-0.0145459
-0.000506104
-0.0150064
-0.0154801
-0.000638408
0.000257623
-0.00337066
0.000490434
-0.00769276
0.000582655
-0.00951665
0.00058024
-0.0100901
0.000536507
-0.0102944
0.000476642
-0.0104503
0.000408503
-0.0106383
0.000333837
-0.0108633
0.000253091
-0.0111209
0.000166347
-0.0114059
7.36285e-05
-0.0117149
-2.50294e-05
-0.0120452
-0.000129456
-0.0123953
-0.000240128
-0.0127633
-0.000357262
-0.013149
-0.000481028
-0.0135515
-0.000611562
-0.0139712
-0.000749301
-0.0144082
-0.000895127
-0.0148606
-0.0153262
-0.00104897
0.000243665
-0.00361433
0.000440374
-0.00788947
0.000499122
-0.0095754
0.000471442
-0.0100624
0.000408149
-0.0102311
0.000330996
-0.0103732
0.000246051
-0.0105534
0.000154558
-0.0107718
5.66566e-05
-0.011023
-4.72501e-05
-0.011302
-0.000157168
-0.011605
-0.000273391
-0.011929
-0.0003961
-0.0122726
-0.000525297
-0.0126341
-0.000661283
-0.013013
-0.000804288
-0.0134085
-0.000954552
-0.0138209
-0.00111256
-0.0142502
-0.00127888
-0.0146943
-0.0151513
-0.0014538
0.000226947
-0.00384128
0.000388077
-0.0080506
0.000415083
-0.0096024
0.000363624
-0.010011
0.000281566
-0.010149
0.000187447
-0.010279
8.57528e-05
-0.0104517
-2.25867e-05
-0.0106635
-0.000136773
-0.0109088
-0.000257565
-0.0111812
-0.000384883
-0.0114777
-0.000518707
-0.0117952
-0.000659248
-0.012132
-0.000806655
-0.0124867
-0.000961185
-0.0128584
-0.00112311
-0.0132466
-0.00129275
-0.0136513
-0.00147056
-0.0140724
-0.00165702
-0.0145078
-0.0149559
-0.00185246
0.000207931
-0.00404921
0.000334197
-0.00817686
0.000331086
-0.00959929
0.000257152
-0.00993705
0.000156971
-0.0100489
4.59327e-05
-0.010168
-7.18811e-05
-0.0103339
-0.00019619
-0.0105392
-0.000327298
-0.0107777
-0.000464952
-0.0110436
-0.000609297
-0.0113333
-0.000760434
-0.011644
-0.000918543
-0.0119739
-0.00108385
-0.0123214
-0.00125661
-0.0126857
-0.00143713
-0.0130661
-0.00162576
-0.0134627
-0.00182295
-0.0138752
-0.00202911
-0.0143017
-0.0147404
-0.00224456
0.000187067
-0.00423627
0.000279323
-0.00826912
0.000247603
-0.00956757
0.000152331
-0.00984178
3.41393e-05
-0.00993066
-9.25931e-05
-0.0100413
-0.000226525
-0.0101999
-0.000367267
-0.0103984
-0.000514757
-0.0106302
-0.000668997
-0.0108893
-0.000830112
-0.0111722
-0.000998274
-0.0114759
-0.00117368
-0.0117985
-0.00135658
-0.0121385
-0.00154724
-0.012495
-0.00174599
-0.0128673
-0.00195322
-0.0132554
-0.00216939
-0.013659
-0.00239481
-0.0140762
-0.0145055
-0.00262974
0.000164776
-0.00440105
0.000223968
-0.00832831
0.000165049
-0.00950866
4.93095e-05
-0.00972604
-8.5344e-05
-0.00979601
-0.000228438
-0.00989817
-0.000378444
-0.0100499
-0.000535259
-0.0102416
-0.000698886
-0.0104666
-0.000869436
-0.0107188
-0.00104706
-0.0109946
-0.00123196
-0.011291
-0.00142436
-0.0116061
-0.00162453
-0.0119384
-0.00183275
-0.0122868
-0.00204938
-0.0126507
-0.00227481
-0.01303
-0.00250953
-0.0134243
-0.00275376
-0.013832
-0.0142516
-0.00300767
0.000141464
-0.00454251
0.000168568
-0.00835542
8.37793e-05
-0.00942387
-5.13552e-05
-0.00959091
-0.00020239
-0.00964497
-0.000361528
-0.00973904
-0.000527332
-0.00988413
-0.000699946
-0.010069
-0.000879455
-0.0102871
-0.00106604
-0.0105322
-0.00125988
-0.0108007
-0.00146122
-0.0110896
-0.0016703
-0.011397
-0.00188741
-0.0117213
-0.00211285
-0.0120613
-0.00234697
-0.0124166
-0.00259021
-0.0127867
-0.00284307
-0.0131714
-0.00310567
-0.0135694
-0.0139792
-0.00337805
0.000117529
-0.00466004
0.000113552
-0.00835144
2.6151e-06
-0.00931293
-0.000149546
-0.00943874
-0.000316841
-0.00947768
-0.000491647
-0.00956423
-0.000672992
-0.00970279
-0.000861134
-0.00988087
-0.00105625
-0.010092
-0.00125858
-0.0103299
-0.00146834
-0.010591
-0.0016858
-0.0108722
-0.00191124
-0.0111716
-0.00214495
-0.0114875
-0.00238724
-0.011819
-0.00263847
-0.0121654
-0.00289912
-0.0125261
-0.00316969
-0.0129009
-0.00345022
-0.0132889
-0.0136888
-0.00374058
9.33216e-05
-0.00475336
5.96118e-05
-0.00831773
-7.36302e-05
-0.00917969
-0.000245274
-0.0092671
-0.000428492
-0.00929446
-0.000618651
-0.00937407
-0.000815253
-0.00950618
-0.00101864
-0.00967748
-0.00122906
-0.00988157
-0.00144683
-0.0101121
-0.00167219
-0.0103656
-0.00190545
-0.0106389
-0.0021469
-0.0109301
-0.00239687
-0.0112376
-0.00265565
-0.0115603
-0.00292361
-0.0118974
-0.00320125
-0.0122485
-0.00348912
-0.012613
-0.00378714
-0.0129909
-0.013381
-0.00409497
6.90765e-05
-0.00482244
8.61798e-06
-0.00825727
-0.000149068
-0.009022
-0.000338446
-0.00907772
-0.000537205
-0.0090957
-0.000742401
-0.00916888
-0.000953953
-0.00929463
-0.00117228
-0.00945916
-0.0013977
-0.00965615
-0.00163057
-0.00987923
-0.0018712
-0.010125
-0.00211992
-0.0103902
-0.00237704
-0.010673
-0.0026429
-0.0109717
-0.00291781
-0.0112854
-0.00320211
-0.0116131
-0.00349635
-0.0119542
-0.0038011
-0.0123083
-0.00411614
-0.0126758
-0.0130562
-0.00444092
4.49485e-05
-0.00486739
-4.66378e-05
-0.00816568
-0.000222835
-0.0088458
-0.000428873
-0.00887169
-0.000642831
-0.00888174
-0.000862759
-0.00894895
-0.00108894
-0.00906845
-0.00132187
-0.00922623
-0.00156196
-0.00941606
-0.0018096
-0.00963159
-0.00206515
-0.00986944
-0.00232897
-0.0101264
-0.0026014
-0.0104006
-0.00288278
-0.0106903
-0.00317343
-0.0109947
-0.00347371
-0.0113128
-0.00378418
-0.0116437
-0.00410541
-0.011987
-0.00443701
-0.0123442
-0.0127151
-0.00477814
2.16778e-05
-0.00488907
-9.86472e-05
-0.00804536
-0.000294517
-0.00864993
-0.000516476
-0.00864973
-0.000745254
-0.00865297
-0.000979593
-0.00871461
-0.00122006
-0.00882798
-0.00146726
-0.00897903
-0.00172165
-0.00916167
-0.00198371
-0.00936954
-0.00225381
-0.00959933
-0.00253236
-0.00984784
-0.00281972
-0.0101132
-0.00311625
-0.0103938
-0.00342225
-0.0106887
-0.00373812
-0.010997
-0.00406444
-0.0113174
-0.00440179
-0.0116497
-0.00474958
-0.0119964
-0.0123583
-0.00510635
9.47228e-07
-0.00489001
-0.000148285
-0.00789613
-0.000363916
-0.0084343
-0.000601202
-0.00841244
-0.000844374
-0.00840979
-0.00109278
-0.00846621
-0.00134717
-0.00857359
-0.00160827
-0.00871794
-0.0018766
-0.00889333
-0.00215269
-0.00909345
-0.00243698
-0.00931505
-0.00272988
-0.00955494
-0.00303178
-0.00981131
-0.00334306
-0.0100825
-0.00366403
-0.0103677
-0.0039951
-0.0106659
-0.00433682
-0.0109757
-0.00468981
-0.0112967
-0.00505348
-0.0116328
-0.0119863
-0.00542547
-2.67533e-05
-0.00486326
-0.000196483
-0.0077264
-0.000430792
-0.00819999
-0.00068295
-0.00816028
-0.000940099
-0.00815264
-0.00120219
-0.00820412
-0.00147014
-0.00830564
-0.00174474
-0.00844333
-0.00202663
-0.00861145
-0.00231636
-0.00880371
-0.00261443
-0.00901698
-0.00292128
-0.00924808
-0.00323733
-0.00949526
-0.00356297
-0.0097569
-0.00389853
-0.0100322
-0.00424445
-0.01032
-0.00460118
-0.010619
-0.00496922
-0.0109286
-0.00534834
-0.0112537
-0.0115988
-0.00573582
-5.11328e-05
-0.00481213
-0.000243049
-0.00753448
-0.000495047
-0.00794799
-0.000761624
-0.00789371
-0.00103234
-0.00788193
-0.00130772
-0.00792874
-0.00158881
-0.00802454
-0.00187653
-0.00815562
-0.00217156
-0.00831642
-0.00247452
-0.00850075
-0.00278595
-0.00870555
-0.00310635
-0.00892769
-0.00343613
-0.00916547
-0.00377572
-0.00941732
-0.00412551
-0.00968236
-0.004486
-0.00995949
-0.00485756
-0.0102474
-0.00524048
-0.0105457
-0.0056343
-0.0108598
-0.0111979
-0.00603522
-7.4053e-05
-0.00473807
-0.00028784
-0.00732069
-0.000556659
-0.00767918
-0.000837152
-0.00761321
-0.00112101
-0.00759807
-0.00140925
-0.0076405
-0.00170308
-0.00773072
-0.00200347
-0.00785522
-0.00231121
-0.00800868
-0.00262698
-0.00818498
-0.00295136
-0.00838118
-0.00328485
-0.00859419
-0.00362794
-0.00882239
-0.00398104
-0.00906421
-0.00434468
-0.00931873
-0.00471943
-0.00958474
-0.00510565
-0.00986119
-0.00550351
-0.0101479
-0.00591369
-0.0104497
-0.0107939
-0.00631772
-9.90938e-05
-0.00463898
-0.000334519
-0.00708527
-0.00061915
-0.00739454
-0.000912783
-0.00731958
-0.00120914
-0.00730171
-0.00150962
-0.00734002
-0.00181558
-0.00742476
-0.00212807
-0.00754273
-0.00244794
-0.0076888
-0.00277594
-0.00785698
-0.00311268
-0.00804444
-0.0034587
-0.00824816
-0.00381451
-0.00846658
-0.00418058
-0.00869814
-0.00455746
-0.00894184
-0.00494578
-0.00919641
-0.00534581
-0.00946117
-0.0057561
-0.00973757
-0.00617429
-0.0100315
-0.0103386
-0.0066296
-0.000119793
-0.00451919
-0.000375314
-0.00682975
-0.000675081
-0.00709478
-0.000981575
-0.00701309
-0.00129018
-0.00699311
-0.00160264
-0.00702756
-0.00192043
-0.00710697
-0.00224472
-0.00721845
-0.00257641
-0.0073571
-0.00291631
-0.00751708
-0.00326508
-0.00769567
-0.00362331
-0.00788994
-0.00399151
-0.00809838
-0.00437023
-0.00831943
-0.00476003
-0.00855205
-0.0051613
-0.00879514
-0.00557381
-0.00904866
-0.00599714
-0.00931424
-0.00643607
-0.00959254
-0.00987461
-0.00690004
-0.00013956
-0.00437963
-0.000414126
-0.00655518
-0.000728257
-0.00678065
-0.00104706
-0.00669428
-0.00136743
-0.00667274
-0.00169138
-0.00670361
-0.00202053
-0.00677782
-0.00235612
-0.00688286
-0.00269915
-0.00701406
-0.00305047
-0.00716576
-0.00341079
-0.00733536
-0.00378073
-0.00752
-0.00416085
-0.00771825