/*--------------------------------*- C++ -*----------------------------------*\
  =========                 |
  \\      /  F ield         | OpenFOAM: The Open Source CFD Toolbox
   \\    /   O peration     | Website:  https://openfoam.org
    \\  /    A nd           | Version:  7
     \\/     M anipulation  |
\*---------------------------------------------------------------------------*/
FoamFile
{
    version     2.0;
    format      ascii;
    class       volVectorField;
    location    "15";
    object      U;
}
// * * * * * * * * * * * * * * * * * * * * * * * * * * * * * * * * * * * * * //

dimensions      [0 1 -1 0 0 0 0];

internalField   nonuniform List<vector> 
12100
(
(-0.00716995 0.00273277 -3.91496e-20)
(-0.0303927 0.00471892 -4.74961e-20)
(-0.0620038 0.00528459 5.95126e-21)
(-0.0903374 0.00529398 -1.54082e-20)
(-0.116661 0.00511595 7.52532e-20)
(-0.140242 0.00492693 2.38465e-20)
(-0.161792 0.00478248 -3.34141e-20)
(-0.18172 0.00469597 3.58348e-20)
(-0.200447 0.00466279 -4.92171e-20)
(-0.218275 0.00467219 2.88226e-20)
(-0.235422 0.00470971 1.50969e-20)
(-0.252014 0.0047561 5.50115e-21)
(-0.268087 0.00478658 -1.79716e-20)
(-0.28359 0.00477313 -1.03072e-20)
(-0.298335 0.0046733 -6.81646e-21)
(-0.312021 0.0044427 2.85016e-20)
(-0.324382 0.00410174 -3.3776e-20)
(-0.334661 0.0034591 -7.27596e-21)
(-0.342822 0.00298868 8.45121e-21)
(-0.347099 0.00190002 -2.38212e-20)
(-0.00745788 0.00813695 2.00499e-21)
(-0.0306018 0.0140674 -2.99559e-20)
(-0.0617569 0.0157602 -6.31284e-20)
(-0.0894825 0.0157851 5.13e-20)
(-0.115046 0.0152444 3.29241e-20)
(-0.137712 0.0146652 5.05694e-21)
(-0.15816 0.0142141 9.66264e-20)
(-0.176763 0.013931 -1.56221e-19)
(-0.193899 0.0138019 9.56547e-20)
(-0.209823 0.0137944 -7.4936e-20)
(-0.224706 0.0138653 8.96892e-21)
(-0.238622 0.0139577 -4.38487e-20)
(-0.251555 0.0139985 1.601e-20)
(-0.263411 0.0139067 3.23359e-20)
(-0.273967 0.0135605 5.43158e-20)
(-0.282838 0.0128068 3.29158e-20)
(-0.289918 0.0117868 9.22903e-20)
(-0.293925 0.0096924 8.83114e-21)
(-0.295874 0.00844195 -7.64762e-20)
(-0.291345 0.00473862 5.71286e-20)
(-0.00802506 0.0133616 -1.11265e-20)
(-0.0310189 0.0231522 -4.28938e-20)
(-0.0612759 0.0259578 6.19042e-20)
(-0.0878002 0.0259889 4.80986e-20)
(-0.111861 0.0250666 -1.62927e-19)
(-0.132726 0.0240625 2.12498e-20)
(-0.151011 0.0232538 -1.62441e-19)
(-0.167025 0.0227069 1.32087e-20)
(-0.18107 0.022398 -3.69343e-20)
(-0.193322 0.0222726 7.38194e-20)
(-0.203865 0.0222595 -2.30199e-20)
(-0.212693 0.0222667 2.64482e-20)
(-0.219704 0.0221765 -2.68329e-20)
(-0.224744 0.0218639 -5.15686e-20)
(-0.227565 0.0211525 -5.99753e-20)
(-0.227552 0.0196999 -7.36963e-20)
(-0.225268 0.0180722 -1.50188e-19)
(-0.217685 0.0140119 5.64211e-20)
(-0.209516 0.0124786 4.77566e-20)
(-0.188799 0.00527381 1.49762e-19)
(-0.00885499 0.0182973 5.60469e-20)
(-0.0316414 0.031807 2.27254e-19)
(-0.0605855 0.0356983 -7.4672e-20)
(-0.0853422 0.0357194 -1.5341e-19)
(-0.107194 0.0343857 -8.91021e-20)
(-0.125418 0.0329033 1.24408e-19)
(-0.140553 0.0316591 1.56189e-19)
(-0.152826 0.030746 -1.13344e-20)
(-0.162442 0.0301306 -3.52108e-21)
(-0.169483 0.0297362 -2.13308e-19)
(-0.173937 0.0294653 -1.01494e-19)
(-0.175712 0.0291946 4.75926e-20)
(-0.174615 0.028768 5.9139e-21)
(-0.170428 0.0280282 4.72037e-20)
(-0.163012 0.0268097 -1.42702e-19)
(-0.151091 0.0243952 5.60052e-20)
(-0.137294 0.0223337 8.23873e-20)
(-0.113912 0.0157558 9.66102e-20)
(-0.0948383 0.0140983 -5.16826e-20)
(-0.0524059 0.00366729 -1.21192e-19)
(-0.00992463 0.0228479 -1.52455e-19)
(-0.0324651 0.0398779 -4.44052e-20)
(-0.0597182 0.0448112 1.33855e-19)
(-0.0821784 0.0447984 7.02587e-20)
(-0.10116 0.0430153 3.46052e-19)
(-0.115967 0.0409878 -3.22124e-19)
(-0.127057 0.0392123 -1.81402e-19)
(-0.134566 0.0378086 -8.70988e-21)
(-0.138608 0.0367346 -3.2556e-21)
(-0.139167 0.035893 4.35482e-20)
(-0.136149 0.0351628 6.40954e-20)
(-0.129392 0.0343939 -1.73705e-19)
(-0.118639 0.0334013 2.11452e-19)
(-0.103583 0.0320057 1.08531e-19)
(-0.0845211 0.0301201 1.69296e-19)
(-0.0585536 0.0265509 -4.33042e-21)
(-0.0329055 0.0237822 -4.0771e-20)
(0.00936375 0.0156791 3.99042e-21)
(0.0379295 0.0119776 -6.28426e-20)
(0.105899 0.000709589 -1.12998e-19)
(-0.0112062 0.0269339 9.92251e-20)
(-0.0334831 0.047227 8.11643e-21)
(-0.0587109 0.053138 -2.49279e-19)
(-0.0783877 0.0530581 -1.24114e-19)
(-0.0938861 0.0507815 -4.08532e-19)
(-0.104564 0.0481362 -1.49314e-20)
(-0.110801 0.0457266 -2.1502e-20)
(-0.112652 0.0437014 -3.58665e-20)
(-0.110142 0.0420129 1.61484e-20)
(-0.103178 0.0405458 4.47922e-20)
(-0.0916026 0.0391616 3.56649e-19)
(-0.075217 0.0376883 -2.08709e-21)
(-0.0537395 0.0359254 1.2662e-19)
(-0.0266991 0.0337177 -3.10791e-19)
(0.00468584 0.0308313 4.02345e-20)
(0.0461601 0.0263431 -6.43947e-20)
(0.0831171 0.0221095 -5.19026e-20)
(0.147409 0.0137683 4.89305e-20)
(0.181007 0.00664632 -1.09344e-19)
(0.279803 -0.00408039 1.11398e-19)
(-0.012669 0.0304958 -2.53607e-19)
(-0.0346853 0.0537367 -4.55653e-19)
(-0.0575985 0.0605346 1.65732e-19)
(-0.0740466 0.0603431 -4.62999e-20)
(-0.0854938 0.0575262 3.67758e-19)
(-0.0913812 0.0541912 3.55037e-19)
(-0.0920212 0.0510496 -1.2231e-19)
(-0.0873968 0.0482825 1.70313e-19)
(-0.0774564 0.0458421 -2.3356e-19)
(-0.0620439 0.0436011 2.75417e-20)
(-0.0409602 0.0414122 -7.325e-20)
(-0.0139891 0.0390886 1.15313e-19)
(0.0191365 0.0364113 -3.61738e-21)
(0.0590843 0.0333612 -1.07875e-19)
(0.103272 0.0291238 2.83399e-19)
(0.16188 0.0243598 -1.10271e-19)
(0.208344 0.0177699 -9.42793e-20)
(0.298515 0.0101438 1.47065e-19)
(0.332873 2.52721e-05 5.55727e-20)
(0.464769 -0.0105101 2.43049e-19)
(-0.014282 0.0334957 1.87958e-19)
(-0.0360565 0.0593121 2.09808e-19)
(-0.0564072 0.0668746 1.46468e-19)
(-0.0692154 0.0665133 5.24916e-19)
(-0.0760719 0.0631079 -1.1689e-19)
(-0.0765294 0.0590195 1.77791e-19)
(-0.0708415 0.0550652 2.32033e-19)
(-0.0589242 0.0514642 -2.928e-19)
(-0.0406538 0.0481772 7.09798e-19)
(-0.0158131 0.0450746 9.22442e-21)
(0.015829 0.0420145 -4.57232e-19)
(0.0544927 0.0388059 -4.77895e-20)
(0.100395 0.0351702 -4.47712e-19)
(0.15444 0.0314811 2.12772e-19)
(0.212271 0.0256556 -1.58513e-19)
(0.289078 0.0215296 1.66214e-19)
(0.345358 0.011901 2.33858e-19)
(0.460585 0.0062332 9.19151e-20)
(0.496222 -0.00635209 -2.58139e-19)
(0.656381 -0.0164107 -2.26678e-19)
(-0.0160156 0.0359177 -9.22005e-20)
(-0.0375749 0.0638824 5.5093e-20)
(-0.055146 0.0720512 -4.45274e-19)
(-0.0639219 0.0714461 -2.56586e-19)
(-0.0656499 0.0674051 -2.05927e-19)
(-0.0600137 0.0625145 -1.15373e-19)
(-0.0472066 0.0576965 -5.67431e-19)
(-0.0270675 0.053217 1.02886e-19)
(0.000609909 0.0490583 -5.82167e-19)
(0.0361157 0.0451023 -1.67304e-19)
(0.0797024 0.0412311 1.05375e-19)
(0.13157 0.0372698 1.94286e-19)
(0.191839 0.0328137 -5.89264e-20)
(0.261288 0.028928 2.28914e-19)
(0.334664 0.0216572 1.32881e-20)
(0.428267 0.0187655 -2.50009e-19)
(0.498223 0.00689052 1.83065e-20)
(0.629896 0.00327445 -3.56601e-19)
(0.672111 -0.0107359 6.64747e-20)
(0.846101 -0.0191003 -1.42128e-19)
(-0.0178434 0.0377667 3.52129e-19)
(-0.0392097 0.0674018 4.08893e-19)
(-0.0537973 0.0759802 1.0822e-19)
(-0.0581421 0.0750398 4.46787e-19)
(-0.0541656 0.0703195 1.24907e-19)
(-0.0416831 0.0646009 2.80319e-19)
(-0.0208076 0.0589127 3.16472e-19)
(0.00872753 0.0535803 2.92801e-19)
(0.0472337 0.0486261 2.70182e-19)
(0.0950794 0.0439627 -2.23036e-19)
(0.152482 0.0395126 3.48114e-19)
(0.219515 0.0351416 3.42696e-19)
(0.296068 0.0302998 4.43144e-19)
(0.381853 0.0266422 -4.24499e-19)
(0.472739 0.0190108 3.87811e-20)
(0.578864 0.0169866 3.68418e-19)
(0.666168 0.00505389 -1.30564e-19)
(0.799806 0.00288418 2.10246e-21)
(0.853745 -0.0114846 -1.43773e-20)
(1.01916 -0.0172079 1.80529e-19)
(-0.0197432 0.0390662 -2.20596e-19)
(-0.0409174 0.0698491 -3.71361e-19)
(-0.0523058 0.0786022 6.51005e-19)
(-0.0517789 0.0772179 -6.71315e-19)
(-0.0414286 0.0717825 -4.82007e-19)
(-0.0211753 0.0652436 -2.07527e-19)
(0.00899086 0.0587432 -9.09385e-20)
(0.0494828 0.0526842 -5.00883e-19)
(0.100721 0.0471528 -2.9602e-19)
(0.163094 0.0421149 -4.73554e-20)
(0.236586 0.0375386 -1.51151e-19)
(0.320867 0.0333246 -1.00778e-19)
(0.415121 0.0288774 -2.38801e-19)
(0.51714 0.025789 -1.19523e-19)
(0.624613 0.0193391 4.53155e-20)
(0.73765 0.0176411 -2.3645e-19)
(0.839146 0.00748924 2.58816e-20)
(0.960583 0.00602705 1.47943e-20)
(1.02422 -0.00785903 -1.78071e-19)
(1.15867 -0.0114239 1.20524e-19)
(-0.0216974 0.0398546 2.06478e-19)
(-0.0426383 0.0712264 1.64561e-19)
(-0.0505663 0.0798848 -7.56324e-19)
(-0.0446373 0.0779341 -2.55955e-19)
(-0.02708 0.0717642 2.72375e-19)
(0.00213977 0.064464 -1.4448e-19)
(0.0432147 0.0573022 3.93953e-19)
(0.0967231 0.0507851 3.75445e-19)
(0.163114 0.0450871 -4.91878e-19)
(0.24256 0.0402409 -1.54964e-19)
(0.334354 0.0362374 4.85789e-19)
(0.43722 0.0329426 -5.49474e-19)
(0.548701 0.0298121 -4.9611e-19)
(0.66472 0.0277457 6.90652e-19)
(0.782749 0.0233754 -1.5076e-19)
(0.896302 0.021942 7.40638e-20)
(1.0002 0.0139154 1.05672e-19)
(1.10018 0.0123805 -9.57788e-20)
(1.16278 -0.000830937 2.6111e-19)
(1.25383 -0.00384841 3.27367e-19)
(-0.023692 0.0401811 -6.6163e-19)
(-0.0442903 0.0715558 -6.47714e-19)
(-0.0484108 0.0798261 4.84247e-19)
(-0.036399 0.07718 3.08893e-19)
(-0.0105508 0.0702874 1.65409e-19)
(0.0292114 0.0623632 -1.35364e-19)
(0.0833122 0.0548249 -2.44539e-19)
(0.15242 0.0483128 1.2324e-19)
(0.236727 0.0431007 1.56166e-20)
(0.335627 0.0392593 2.45159e-19)
(0.446943 0.0367248 -2.77172e-19)
(0.56764 0.0351794 -1.18202e-19)
(0.692728 0.034072 3.87186e-19)
(0.816892 0.0334106 -5.05794e-19)
(0.935381 0.0310064 -2.81383e-20)
(1.04118 0.0296979 2.09054e-19)
(1.13297 0.0228899 -8.4007e-20)
(1.20725 0.020496 -1.09413e-19)
(1.25649 0.00734028 1.37688e-20)
(1.30613 0.00363553 -1.47915e-19)
(-0.0257151 0.0401006 1.02324e-19)
(-0.0457627 0.0708761 6.80102e-19)
(-0.0455932 0.0784556 -2.14377e-19)
(-0.0265972 0.074995 -2.77299e-20)
(0.00897457 0.0674467 -2.15809e-19)
(0.0613375 0.0591524 -8.14872e-20)
(0.131118 0.051712 7.32166e-20)
(0.218777 0.0459162 2.40531e-19)
(0.323595 0.0421019 6.72893e-20)
(0.44321 0.0402541 -5.12369e-19)
(0.572999 0.0400988 3.03042e-19)
(0.707368 0.0409029 1.74277e-19)
(0.838857 0.042 -2.2651e-19)
(0.961584 0.0425196 3.57753e-19)
(1.06945 0.041248 2.77573e-19)
(1.15846 0.039265 -7.15285e-20)
(1.22833 0.0324757 2.90248e-21)
(1.27674 0.028474 -1.05188e-20)
(1.30729 0.014722 -3.54835e-19)
(1.32702 0.00996618 -4.94674e-19)
(-0.0277548 0.0396691 5.77725e-19)
(-0.0469117 0.0692421 -1.68695e-19)
(-0.0417735 0.0758337 -4.34537e-19)
(-0.014592 0.0714744 5.8152e-19)
(0.0325817 0.0634295 5.16046e-19)
(0.100148 0.0551908 3.73831e-19)
(0.188697 0.0485722 3.44413e-19)
(0.297777 0.044477 -1.18759e-19)
(0.424621 0.04316 2.19813e-19)
(0.563842 0.0442637 2.07773e-19)
(0.707637 0.0470712 -1.74139e-19)
(0.847792 0.0502359 1.23629e-19)
(0.975754 0.0529689 1.06159e-19)
(1.08628 0.0537126 -8.17012e-20)
(1.17465 0.0523556 1.92925e-19)
(1.24106 0.0486048 -2.15061e-19)
(1.28668 0.0411094 2.56828e-19)
(1.31334 0.0349953 5.04635e-19)
(1.32794 0.0207314 2.51724e-19)
(1.33071 0.0152564 3.98936e-19)
(-0.0297933 0.0389374 -1.82278e-19)
(-0.0475558 0.0667225 1.01354e-19)
(-0.036508 0.0720535 2.51784e-19)
(0.000446389 0.0667797 -7.05539e-19)
(0.0616245 0.0585405 -1.20374e-19)
(0.147507 0.0510208 -6.04077e-19)
(0.258007 0.0462389 2.46616e-19)
(0.390476 0.0450436 -5.91581e-19)
(0.538567 0.0472893 2.31295e-19)
(0.692865 0.0519264 -5.47737e-19)
(0.842579 0.0575787 2.31804e-20)
(0.978236 0.0623424 6.8429e-20)
(1.0925 0.0654439 -1.16878e-19)
(1.18258 0.0651667 -2.96862e-19)
(1.24737 0.0625625 -6.54318e-21)
(1.29098 0.0564196 3.61423e-19)
(1.31609 0.0481499 -3.04855e-19)
(1.32784 0.0398738 -6.97482e-19)
(1.33217 0.0257621 -5.19354e-19)
(1.32677 0.0198478 1.95747e-19)
(-0.0317999 0.037945 5.77024e-21)
(-0.0474663 0.0633903 4.50515e-19)
(-0.0292449 0.067246 -1.19581e-19)
(0.0195382 0.0611518 -4.10647e-20)
(0.097676 0.0532275 1.3622e-19)
(0.205296 0.0473888 4.71032e-19)
(0.340349 0.0457237 -2.32117e-19)
(0.496136 0.0486384 -2.09523e-19)
(0.661344 0.0551096 1.38638e-19)
(0.822652 0.0631216 3.09107e-19)
(0.967973 0.0706495 -5.04256e-19)
(1.08916 0.0756459 3.83556e-19)
(1.18243 0.0776368 5.04305e-20)
(1.24884 0.0753962 1.31664e-19)
(1.29127 0.0709003 -2.90318e-19)
(1.31626 0.0624987 -8.38759e-20)
(1.32712 0.0538085 -7.83631e-20)
(1.33032 0.0435431 8.49731e-20)
(1.32874 0.0304468 3.04534e-19)
(1.32002 0.0239667 -6.45244e-19)
(-0.0337241 0.0367149 -4.87125e-20)
(-0.0463628 0.0593241 -4.37889e-20)
(-0.0193211 0.0615814 5.09022e-19)
(0.0438755 0.0549208 2.64592e-19)
(0.142413 0.0481002 -2.41105e-19)
(0.275036 0.0452265 6.96979e-20)
(0.435652 0.0480634 7.71281e-20)
(0.61154 0.0559424 6.84782e-19)
(0.78618 0.0665198 -5.77731e-19)
(0.944253 0.0768676 -8.20563e-19)
(1.07532 0.0847114 -8.09193e-19)
(1.17522 0.0884699 -1.80321e-19)
(1.24494 0.088274 4.98299e-20)
(1.28933 0.083762 -2.83246e-19)
(1.31398 0.0773364 -2.38159e-20)
(1.32594 0.0673315 5.80054e-20)
(1.32814 0.0585231 -4.19451e-20)
(1.32693 0.0465349 5.82835e-19)
(1.32183 0.0352743 1.05869e-20)
(1.31247 0.0274565 6.05609e-19)
(-0.0354875 0.035253 4.15098e-20)
(-0.0439137 0.0546122 -5.69433e-19)
(-0.00596562 0.055264 1.50506e-19)
(0.0747769 0.0485182 -5.10096e-19)
(0.197408 0.0439372 6.5177e-19)
(0.357351 0.0455579 -4.41839e-19)
(0.541813 0.05405 1.80452e-20)
(0.731006 0.0669782 -3.69558e-20)
(0.905022 0.080615 -4.57758e-19)
(1.04996 0.0916434 1.12456e-18)
(1.15999 0.0982105 4.75375e-19)
(1.23627 0.0996884 -6.80999e-20)
(1.28419 0.0969274 -2.39916e-19)
(1.31097 0.0903737 -4.33607e-19)
(1.32311 0.0823504 -1.21306e-20)
(1.32683 0.0714971 -1.98888e-19)
(1.32421 0.062564 1.72197e-19)
(1.32073 0.049364 -8.81128e-20)
(1.31332 0.0404871 -6.71101e-19)
(1.30506 0.0300396 -2.62131e-19)
(-0.0370026 0.0335771 -2.99763e-19)
(-0.0397133 0.0493274 3.93084e-19)
(0.0116853 0.0485353 -3.46943e-19)
(0.113601 0.0424964 -3.83026e-19)
(0.263795 0.0416641 -7.13937e-19)
(0.451372 0.0493023 2.82536e-19)
(0.654482 0.0639269 -1.96118e-19)
(0.847426 0.0810049 -5.70398e-19)
(1.0107 0.0959784 4.95611e-19)
(1.13537 0.105972 -4.00846e-19)
(1.22177 0.110139 5.77852e-19)
(1.27597 0.108941 6.64523e-19)
(1.30617 0.103804 3.58392e-19)
(1.32027 0.0956659 5.47049e-19)
(1.32432 0.0864918 -9.20619e-20)
(1.32313 0.075342 1.33238e-19)
(1.31802 0.0660878 -4.87802e-20)
(1.31323 0.0525792 3.01562e-19)
(1.30424 0.0458679 1.49269e-19)
(1.29808 0.0312498 1.71996e-19)
(-0.0381667 0.0316844 1.56079e-18)
(-0.0333026 0.0435332 -3.99562e-19)
(0.0345664 0.0416999 3.54154e-19)
(0.161597 0.0375554 4.35445e-19)
(0.341826 0.0422585 6.73263e-19)
(0.554334 0.0569957 -3.5798e-19)
(0.76768 0.0772236 2.11442e-19)
(0.954058 0.0967483 -2.86475e-19)
(1.09875 0.111199 -5.28548e-19)
(1.19989 0.118877 2.73672e-19)
(1.26367 0.120165 -4.90325e-19)
(1.29947 0.116415 -3.10676e-19)
(1.31648 0.109353 3.5277e-20)
(1.32207 0.100088 1.50671e-19)
(1.32118 0.0901754 -2.82977e-20)
(1.3172 0.0789874 2.68038e-19)
(1.31088 0.0693428 2.90592e-20)
(1.30522 0.0564931 -6.99291e-19)
(1.29561 0.0503297 3.12361e-19)
(1.29103 0.0305253 -2.88943e-19)
(-0.0388437 0.0295588 -1.09625e-18)
(-0.0241875 0.0373265 4.78253e-19)
(0.0636569 0.0351309 -5.06582e-20)
(0.219697 0.0345171 -2.49098e-19)
(0.430414 0.0465138 -7.49341e-19)
(0.661688 0.0685268 5.35209e-19)
(0.875111 0.0928619 -4.87462e-19)
(1.04611 0.112839 2.16088e-19)
(1.16788 0.125275 2.66929e-19)
(1.24568 0.129984 -1.13808e-18)
(1.28996 0.128431 2.19287e-19)
(1.31159 0.122518 3.93053e-20)
(1.31941 0.114016 4.81568e-19)
(1.31958 0.104002 -5.84628e-20)
(1.3158 0.0936473 -6.29559e-20)
(1.31027 0.0824905 -4.61765e-20)
(1.30339 0.0726514 2.70791e-19)
(1.29709 0.0606551 2.05954e-19)
(1.28782 0.0526607 6.41769e-20)
(1.28299 0.0396488 1.80605e-19)
(-0.0388798 0.0271836 -8.00172e-20)
(-0.0118274 0.0308067 -7.19595e-19)
(0.0999347 0.0292797 3.99174e-19)
(0.288245 0.0342484 2.6606e-19)
(0.526982 0.0547868 -2.17497e-19)
(0.768091 0.083159 -6.77787e-19)
(0.971829 0.109572 4.58125e-19)
(1.12161 0.128242 -1.18923e-19)
(1.21942 0.137756 8.66865e-20)
(1.27625 0.139361 7.13117e-19)
(1.30488 0.135286 -3.8262e-19)
(1.31619 0.127663 -3.54269e-19)
(1.31789 0.118132 -3.25565e-19)
(1.31474 0.107638 -6.14182e-20)
(1.3093 0.0970144 -2.40517e-20)
(1.30294 0.0859374 2.19937e-19)
(1.29578 0.0760906 -1.1593e-19)
(1.28914 0.0641205 -1.34505e-19)
(1.28009 0.0574508 -3.08373e-19)
(1.275 0.0429093 -2.0638e-19)
(-0.0380933 0.024538 -3.38772e-20)
(0.00436068 0.024098 4.21191e-19)
(0.144262 0.0247408 -7.47303e-19)
(0.366619 0.0375314 1.49695e-19)
(0.62761 0.0668709 5.20418e-19)
(0.868474 0.0998125 9.88228e-20)
(1.05487 0.126274 1.57724e-19)
(1.18075 0.142383 2.86683e-19)
(1.25595 0.148592 -3.2431e-19)
(1.29518 0.147283 -2.41617e-19)
(1.3119 0.141109 4.50731e-19)
(1.31603 0.132189 8.37589e-19)
(1.31379 0.121943 9.32182e-20)
(1.30866 0.111141 -3.30873e-19)
(1.30229 0.100348 1.23288e-20)
(1.29546 0.0893965 -2.8415e-19)
(1.28819 0.0793381 6.99068e-20)
(1.28131 0.0681869 -1.3707e-19)
(1.27255 0.0604583 -5.20649e-19)
(1.26766 0.0475958 2.73258e-19)
(-0.0362815 0.0216071 8.22165e-20)
(0.0249974 0.0173772 7.90579e-19)
(0.197233 0.0222595 -2.43045e-19)
(0.453023 0.0448167 6.71324e-19)
(0.727795 0.0820469 -5.5267e-19)
(0.95907 0.117394 6.572e-19)
(1.12332 0.14224 -5.37521e-19)
(1.22519 0.15506 3.50124e-19)
(1.28044 0.157956 -2.28895e-19)
(1.30563 0.154082 2.41017e-20)
(1.31366 0.14623 -2.71131e-19)
(1.31294 0.136348 -4.74058e-19)
(1.30825 0.125605 -2.34684e-19)
(1.30195 0.11459 1.63552e-19)
(1.29505 0.103689 5.55335e-20)
(1.28797 0.0927781 1.53098e-19)
(1.28065 0.0827481 -3.70285e-20)
(1.27362 0.0716495 4.57522e-19)
(1.26526 0.0641737 4.39104e-19)
(1.26011 0.0515669 1.81898e-19)
(-0.0332221 0.0183881 -7.44244e-19)
(0.0507272 0.0109135 -7.13117e-19)
(0.258959 0.022661 5.58151e-19)
(0.544588 0.0560511 -3.39364e-20)
(0.823386 0.0993489 7.88024e-19)
(1.03778 0.135042 -4.77935e-19)
(1.17775 0.157097 2.09011e-19)
(1.2572 0.166319 -2.71717e-19)
(1.29572 0.166117 5.12211e-19)
(1.31013 0.160076 -2.04747e-19)
(1.31201 0.150911 2.01426e-19)
(1.30812 0.140315 -1.36644e-20)
(1.30192 0.129207 1.59149e-19)
(1.29493 0.118029 -2.10577e-20)
(1.28772 0.107022 2.44922e-19)
(1.28048 0.0961778 5.05732e-20)
(1.27315 0.0859728 -8.85747e-21)
(1.26606 0.0753025 -3.11755e-19)
(1.25802 0.067335 -1.19282e-19)
(1.25282 0.0552039 -1.73816e-19)
(-0.0286712 0.0148939 1.06899e-18)
(0.082178 0.00512024 -6.91106e-19)
(0.328843 0.0266744 1.7744e-19)
(0.637824 0.0707125 -7.02548e-19)
(0.911255 0.117852 -4.96077e-19)
(1.10397 0.152198 5.43467e-20)
(1.21961 0.17073 9.80047e-20)
(1.27917 0.176334 -2.75515e-19)
(1.30417 0.173358 5.02523e-20)
(1.31056 0.165529 3.93269e-19)
(1.3082 0.155341 -2.90712e-19)
(1.30228 0.144199 -1.74824e-19)
(1.29515 0.132802 -9.65267e-20)
(1.28774 0.121469 -8.72329e-20)
(1.28034 0.110369 -1.12213e-19)
(1.27301 0.0994982 2.11566e-19)
(1.2657 0.0892433 -1.03537e-19)
(1.25859 0.0786558 -2.16556e-20)
(1.25089 0.0704983 2.85775e-19)
(1.2455 0.0587692 3.11043e-19)
(-0.0223569 0.0111601 -2.54112e-19)
(0.11988 0.000597238 6.41716e-19)
(0.405481 0.0347116 3.85394e-19)
(0.729272 0.0880277 -4.3933e-19)
(0.989512 0.136834 5.45814e-19)
(1.15805 0.16856 -3.24314e-21)
(1.2507 0.183183 4.94482e-19)
(1.29329 0.185331 3.23642e-19)
(1.30768 0.179939 2.87979e-19)
(1.30827 0.17065 -2.7821e-19)
(1.30305 0.15965 1.95065e-19)
(1.29582 0.148064 2.066e-19)
(1.28812 0.136411 3.47203e-19)
(1.28045 0.12492 -1.83992e-19)
(1.27293 0.1137 -2.76346e-22)
(1.26556 0.102799 -1.77716e-19)
(1.25827 0.092392 6.94512e-21)
(1.2512 0.0819729 -7.92212e-20)
(1.24377 0.0734792 -1.68629e-19)
(1.23826 0.0620051 -6.45053e-20)
(-0.0139725 0.00725679 -2.31655e-19)
(0.164143 -0.00187629 -2.5927e-19)
(0.486762 0.0467418 -1.34337e-20)
(0.816048 0.107214 4.1645e-19)
(1.05736 0.1558 -4.08159e-19)
(1.20107 0.184006 -4.46925e-19)
(1.27287 0.194587 1.71268e-19)
(1.30141 0.193541 -2.02764e-19)
(1.30769 0.186076 -1.29316e-19)
(1.30416 0.175588 5.07391e-20)
(1.29705 0.163921 -4.41709e-19)
(1.28899 0.151946 4.08151e-19)
(1.28092 0.140044 -3.96404e-20)
(1.27309 0.128375 -9.13622e-20)
(1.26549 0.117024 8.25246e-20)
(1.2581 0.106027 -1.26051e-19)
(1.25086 0.0955106 -1.12675e-19)
(1.24384 0.0851229 -6.62069e-21)
(1.23667 0.0763288 -8.36943e-20)
(1.23102 0.0651293 1.58542e-19)
(-0.00317706 0.00330639 2.66775e-19)
(0.214917 -0.0014378 4.70812e-19)
(0.570167 0.0623514 -6.38866e-19)
(0.896105 0.127623 -2.38616e-19)
(1.1148 0.174447 -1.08646e-19)
(1.23433 0.198534 6.26018e-19)
(1.28785 0.205111 -1.67518e-19)
(1.30504 0.201176 -1.04733e-19)
(1.30526 0.191941 -1.45848e-19)
(1.29886 0.180448 1.75771e-19)
(1.29049 0.1682 6.53582e-20)
(1.2819 0.155859 -7.66015e-20)
(1.2736 0.143697 -2.06165e-19)
(1.26565 0.13183 2.11664e-20)
(1.25801 0.120319 -8.97133e-20)
(1.25063 0.109208 1.61309e-19)
(1.24345 0.0985389 3.9794e-20)
(1.23651 0.0881673 4.19228e-20)
(1.22956 0.079061 5.71226e-20)
(1.22382 0.0680387 -1.66899e-19)
(0.0103893 -0.000495078 -5.01877e-19)
(0.271695 0.00268283 -2.9469e-20)
(0.653148 0.0809342 -9.76131e-20)
(0.968228 0.148775 2.82028e-19)
(1.16236 0.192604 -9.80272e-20)
(1.25923 0.212207 -2.75125e-19)
(1.2971 0.214932 -3.87926e-19)
(1.30533 0.208414 2.73142e-19)
(1.30112 0.197657 -3.21775e-19)
(1.29275 0.185293 1.60377e-19)
(1.28355 0.172513 9.47036e-20)
(1.27461 0.159805 -4.99857e-20)
(1.26615 0.147364 1.18225e-19)
(1.25813 0.135274 1.33323e-19)
(1.25048 0.123582 -2.84713e-19)
(1.24312 0.112316 2.14637e-19)
(1.23602 0.101503 1.9005e-20)
(1.22917 0.0910813 3.7265e-20)
(1.22243 0.0816624 1.8064e-19)
(1.21663 0.0708095 4.52786e-20)
(0.0270644 -0.00385706 1.49241e-19)
(0.333506 0.0109811 -6.1109e-19)
(0.733435 0.101874 5.78385e-19)
(1.03187 0.170337 2.65051e-19)
(1.20084 0.210194 -1.98581e-19)
(1.27709 0.225126 -3.28838e-19)
(1.30188 0.224218 1.13187e-20)
(1.30317 0.2154 -6.52012e-20)
(1.29575 0.203313 5.53613e-19)
(1.28605 0.190162 -2.53369e-19)
(1.27631 0.176864 -2.92455e-20)
(1.26715 0.163776 6.7385e-20)
(1.25858 0.151034 -4.20425e-20)
(1.25053 0.138698 -8.66624e-20)
(1.24289 0.1268 2.45096e-19)
(1.23558 0.11536 -2.02484e-19)
(1.22856 0.104382 2.49101e-20)
(1.22182 0.093875 -1.15324e-19)
(1.21526 0.0841564 -1.2235e-19)
(1.20945 0.0734227 -3.97737e-20)
(0.047109 -0.00638978 -1.07503e-19)
(0.399011 0.0235826 2.55576e-19)
(0.809226 0.124633 -2.34024e-19)
(1.08697 0.192077 -2.43914e-19)
(1.2312 0.227197 4.06906e-19)
(1.28911 0.237405 4.33703e-19)
(1.30318 0.233112 2.10545e-19)
(1.29919 0.222241 -3.58883e-21)
(1.28951 0.20896 -5.44169e-19)
(1.2789 0.195068 4.61177e-20)
(1.26882 0.181251 1.74712e-20)
(1.25951 0.167762 1.18501e-19)
(1.25089 0.154695 1.95081e-19)
(1.24283 0.142089 -1.0322e-20)
(1.23522 0.129965 -4.4931e-20)
(1.22798 0.118327 1.8183e-19)
(1.22107 0.107179 -1.19445e-19)
(1.21444 0.0965466 1.47495e-19)
(1.20806 0.0865357 -1.32718e-20)
(1.20227 0.0759023 1.52556e-19)
(0.0706546 -0.0076251 1.87348e-19)
(0.466655 0.0402781 1.00071e-19)
(0.879237 0.148773 -2.29752e-19)
(1.13376 0.213823 -2.86207e-19)
(1.25441 0.243631 -2.03958e-20)
(1.29634 0.249159 -4.76227e-20)
(1.30176 0.241733 2.35397e-19)
(1.29384 0.229011 1.64694e-19)
(1.28258 0.214629 1.77854e-19)
(1.27138 0.200013 -6.48462e-20)
(1.26108 0.185662 8.58551e-20)
(1.25169 0.171749 -7.92391e-20)
(1.24305 0.158332 -1.61814e-19)
(1.23502 0.145436 1.97341e-20)
(1.22747 0.133066 4.24162e-20)
(1.22032 0.121216 5.07662e-20)
(1.21352 0.109885 6.79608e-20)
(1.20703 0.0990966 -4.10609e-20)
(1.20081 0.0888132 7.96888e-20)
(1.19508 0.0782509 -1.84187e-19)
(0.097664 -0.00706514 2.47365e-19)
(0.534832 0.0606478 -2.26803e-20)
(0.942673 0.173938 3.2272e-19)
(1.1727 0.235443 1.98118e-19)
(1.27139 0.259531 8.92513e-20)
(1.29964 0.260492 -2.19838e-19)
(1.29824 0.250172 -2.09526e-19)
(1.28743 0.235755 -5.8483e-20)
(1.27509 0.220327 -1.58356e-20)
(1.26352 0.204986 -1.54692e-20)
(1.2531 0.19008 -2.07026e-19)
(1.24368 0.175718 4.55916e-20)
(1.23507 0.161931 8.27097e-20)
(1.2271 0.148726 2.48346e-21)
(1.21963 0.136093 1.00518e-20)
(1.2126 0.124017 -2.58644e-20)
(1.20592 0.112494 -6.30447e-20)
(1.19957 0.101526 -5.25452e-20)
(1.19352 0.0909875 -1.10141e-19)
(1.18788 0.0804772 1.69708e-20)
(0.127919 -0.00425014 -1.51944e-19)
(0.602017 0.0841919 9.59592e-20)
(0.999134 0.199845 -3.99544e-20)
(1.20432 0.256827 9.42672e-21)
(1.283 0.274938 -3.67034e-19)
(1.29973 0.271491 9.1355e-20)
(1.29302 0.25849 5.90784e-20)
(1.28016 0.242495 -4.09515e-20)
(1.26712 0.226049 1.47076e-19)
(1.25534 0.20997 -2.36202e-21)
(1.24487 0.194484 6.48764e-20)
(1.23548 0.179651 7.61884e-20)
(1.22693 0.165475 -5.23883e-20)
(1.21905 0.151944 -6.20918e-20)
(1.2117 0.139036 -3.38179e-20)
(1.20479 0.126724 -3.64364e-20)
(1.19826 0.115 3.21127e-20)
(1.19207 0.103835 3.7205e-20)
(1.18619 0.0930642 6.01222e-20)
(1.18064 0.0825857 6.96657e-20)
(0.161032 0.00117574 -7.08583e-20)
(0.666848 0.110414 -1.4139e-20)
(1.04852 0.226262 -1.30106e-19)
(1.22922 0.277886 1.21514e-19)
(1.28999 0.289893 2.63522e-19)
(1.29718 0.282225 1.44625e-19)
(1.28645 0.266726 -6.54278e-20)
(1.27216 0.249234 -3.82926e-20)
(1.25869 0.231777 -8.71286e-20)
(1.24682 0.214941 8.41003e-20)
(1.23638 0.198852 -3.30054e-21)
(1.22707 0.183527 -4.19916e-20)
(1.21863 0.168945 -4.96135e-20)
(1.21087 0.155076 -4.77418e-20)
(1.20366 0.141882 9.95372e-20)
(1.19691 0.129328 -3.38395e-20)
(1.19054 0.117396 -3.6826e-20)
(1.18451 0.106022 -6.35991e-21)
(1.17881 0.0950427 -6.57727e-21)
(1.17336 0.0845792 -3.8727e-20)
(0.196482 0.00942225 -7.04795e-21)
(0.728176 0.138848 -9.51761e-20)
(1.09092 0.252997 4.44699e-20)
(1.248 0.298545 -1.59592e-19)
(1.29301 0.304429 -1.12125e-19)
(1.29245 0.292742 1.67724e-20)
(1.27873 0.274894 -1.70239e-21)
(1.26351 0.255957 7.50432e-21)
(1.24984 0.237486 2.36493e-20)
(1.23798 0.219871 4.20011e-20)
(1.22763 0.203158 -5.72891e-20)
(1.21845 0.187324 2.44538e-20)
(1.21016 0.172323 4.28861e-20)
(1.20256 0.158106 -9.37906e-21)
(1.19552 0.14462 -4.19564e-20)
(1.18894 0.13182 2.36715e-20)
(1.18275 0.119674 2.71805e-20)
(1.1769 0.108086 2.76862e-20)
(1.17137 0.0969235 -1.41623e-20)
(1.16605 0.0864598 5.14687e-21)
(0.233647 0.0205463 7.86434e-20)
(0.785085 0.169062 -1.10917e-19)
(1.12657 0.27988 -1.52552e-20)
(1.26128 0.318748 6.52678e-20)
(1.29261 0.318569 1.0588e-19)
(1.28588 0.303068 -3.25793e-20)
(1.27002 0.282992 -9.33897e-20)
(1.25426 0.262641 9.28932e-20)
(1.24055 0.243143 -2.51589e-20)
(1.2288 0.22473 -2.90593e-20)
(1.21861 0.207374 2.65344e-20)
(1.20961 0.191019 -1.32237e-20)
(1.20151 0.17559 -3.90604e-21)
(1.19411 0.161017 1.04352e-20)
(1.18727 0.147236 1.50495e-20)
(1.18089 0.134188 1.93812e-20)
(1.17489 0.121825 -3.47516e-20)
(1.16924 0.110026 -8.68524e-21)
(1.16389 0.0987039 -2.16464e-21)
(1.15869 0.0882262 1.05951e-20)
(0.271816 0.034477 -4.31647e-20)
(0.836882 0.200652 7.70943e-20)
(1.15576 0.30675 -9.66189e-21)
(1.26959 0.338443 -2.09903e-20)
(1.28926 0.332322 -6.89064e-20)
(1.27773 0.313207 3.24266e-20)
(1.26044 0.290999 2.13785e-20)
(1.24443 0.26925 -2.3715e-20)
(1.23082 0.248714 -3.88797e-21)
(1.21928 0.229484 1.13557e-20)
(1.20932 0.211473 -1.23396e-20)
(1.20055 0.194587 6.23042e-21)
(1.19268 0.178723 -1.35873e-20)
(1.18552 0.163794 7.81453e-21)
(1.17891 0.149716 1.62231e-21)
(1.17275 0.136422 -7.20695e-21)
(1.16697 0.123843 4.15881e-21)
(1.16152 0.111839 -6.52118e-21)
(1.15637 0.100379 2.13868e-21)
(1.1513 0.0898765 7.67366e-21)
(0.310187 0.0510482 -3.10048e-20)
(0.883087 0.233229 6.75318e-20)
(1.17881 0.333442 -7.1369e-21)
(1.27347 0.357587 -2.69683e-20)
(1.28334 0.345688 -6.33691e-20)
(1.2682 0.323151 3.19171e-20)
(1.25004 0.298884 2.07968e-20)
(1.23403 0.275746 -1.86873e-20)
(1.22067 0.254158 -2.17492e-22)
(1.20941 0.234099 8.85075e-21)
(1.19974 0.215424 -7.8274e-21)
(1.19126 0.198002 -2.14849e-21)
(1.18367 0.181703 -4.72803e-21)
(1.17679 0.166417 2.83719e-21)
(1.17044 0.152045 1.84729e-21)
(1.16453 0.138509 -7.30638e-21)
(1.15898 0.125718 8.19411e-21)
(1.15377 0.11352 -7.91428e-21)
(1.1488 0.101943 -1.94005e-21)
(1.14387 0.0914054 5.02011e-21)
(0.347968 0.0700016 8.97683e-20)
(0.92333 0.266387 -9.10845e-20)
(1.19599 0.35977 -6.59429e-20)
(1.27331 0.376131 8.61545e-20)
(1.27514 0.358659 9.84088e-20)
(1.25741 0.332879 -4.01923e-20)
(1.23886 0.306614 -6.66801e-20)
(1.22308 0.28209 7.30931e-20)
(1.21007 0.259439 -2.04225e-20)
(1.19918 0.238544 -2.38831e-20)
(1.18987 0.219201 1.87318e-20)
(1.18174 0.201244 -3.61506e-21)
(1.17449 0.184511 -8.80172e-21)
(1.16792 0.168871 2.81497e-21)
(1.16186 0.154212 1.36617e-20)
(1.15623 0.14044 1.60831e-20)
(1.15094 0.127441 -2.02535e-20)
(1.14597 0.115062 -5.36601e-21)
(1.14122 0.103391 -3.51963e-21)
(1.13642 0.0928104 7.57388e-21)
(0.384604 0.0911068 4.0008e-20)
(0.957683 0.299861 -1.4472e-19)
(1.20777 0.385621 4.07332e-20)
(1.26959 0.394041 -1.06771e-19)
(1.26495 0.371203 -1.24776e-19)
(1.24549 0.342338 2.02823e-20)
(1.22693 0.314124 8.05492e-21)
(1.21156 0.288219 -8.16741e-21)
(1.19902 0.264505 2.7162e-20)
(1.18859 0.242772 -1.06874e-21)
(1.17972 0.222764 -1.77439e-20)
(1.172 0.204276 3.60508e-21)
(1.16513 0.187116 3.48524e-20)
(1.15891 0.171131 -2.99714e-21)
(1.15319 0.156195 -1.19979e-20)
(1.14786 0.142197 -7.00803e-21)
(1.14285 0.128998 3.06417e-20)
(1.13815 0.116449 1.32465e-20)
(1.13363 0.10472 -7.82166e-21)
(1.12893 0.0940942 -9.27678e-21)
(0.419454 0.114115 -8.87919e-20)
(0.986118 0.333359 -1.72935e-20)
(1.21445 0.410833 -1.27028e-19)
(1.26263 0.411259 1.42901e-19)
(1.25295 0.383281 1.78054e-19)
(1.23251 0.35148 6.92247e-20)
(1.21428 0.321361 -1.26201e-20)
(1.19948 0.294086 1.43395e-20)
(1.18753 0.269312 -7.34469e-20)
(1.17765 0.246749 5.27667e-20)
(1.16929 0.226084 -1.59898e-20)
(1.16203 0.207075 -1.22828e-20)
(1.1556 0.1895 -3.36006e-20)
(1.14978 0.173179 -1.02417e-20)
(1.14443 0.15798 1.59582e-20)
(1.13942 0.143771 -1.04921e-20)
(1.13472 0.130382 -1.38256e-20)
(1.13031 0.117672 4.00114e-21)
(1.126 0.105919 -2.47537e-21)
(1.12146 0.0952534 -2.12889e-20)
(0.451923 0.138759 -1.31283e-19)
(1.00871 0.366607 2.53403e-20)
(1.2164 0.435257 6.14254e-20)
(1.25275 0.427724 -6.75344e-20)
(1.23932 0.39484 -2.43931e-19)
(1.21853 0.360241 2.0288e-20)
(1.20091 0.328262 8.81436e-20)
(1.18685 0.299633 -3.26828e-20)
(1.1756 0.273811 7.03865e-20)
(1.16636 0.25043 -1.88414e-20)
(1.15858 0.229124 4.69525e-20)
(1.15186 0.209609 6.41462e-21)
(1.14592 0.191635 8.29088e-22)