/*--------------------------------*- C++ -*----------------------------------*\
  =========                 |
  \\      /  F ield         | OpenFOAM: The Open Source CFD Toolbox
   \\    /   O peration     | Website:  https://openfoam.org
    \\  /    A nd           | Version:  7
     \\/     M anipulation  |
\*---------------------------------------------------------------------------*/
FoamFile
{
    version     2.0;
    format      ascii;
    class       volScalarField;
    location    "5";
    object      p;
}
// * * * * * * * * * * * * * * * * * * * * * * * * * * * * * * * * * * * * * //

dimensions      [0 2 -2 0 0 0 0];

internalField   nonuniform List<scalar> 
48400
(
-0.335118
-0.343056
-0.345287
-0.349256
-0.3533
-0.358359
-0.36426
-0.371027
-0.378547
-0.386702
-0.395337
-0.404268
-0.413283
-0.422135
-0.430553
-0.438236
-0.444862
-0.450094
-0.453584
-0.454987
-0.453962
-0.450192
-0.443392
-0.433321
-0.419802
-0.402728
-0.382105
-0.358051
-0.3308
-0.300729
-0.268348
-0.234294
-0.1993
-0.164163
-0.129693
-0.096667
-0.0657854
-0.0376065
-0.0126623
0.00903615
-0.335401
-0.343268
-0.345493
-0.349449
-0.35349
-0.358549
-0.364453
-0.371226
-0.378756
-0.386926
-0.39558
-0.404536
-0.41358
-0.42247
-0.430932
-0.438667
-0.445354
-0.450656
-0.454225
-0.455716
-0.454789
-0.451128
-0.444446
-0.434503
-0.421116
-0.404181
-0.383698
-0.359778
-0.332651
-0.302687
-0.270394
-0.236402
-0.201444
-0.166315
-0.13183
-0.0987666
-0.0678324
-0.0395738
-0.0145641
0.00733822
-0.335959
-0.343687
-0.3459
-0.349831
-0.353866
-0.358923
-0.364834
-0.371619
-0.379168
-0.387366
-0.396056
-0.40506
-0.414163
-0.423125
-0.431673
-0.439509
-0.446313
-0.451748
-0.45547
-0.457132
-0.456395
-0.452943
-0.446489
-0.43679
-0.423659
-0.406986
-0.386775
-0.363113
-0.336224
-0.306468
-0.274343
-0.240472
-0.205585
-0.170476
-0.135966
-0.102832
-0.0718012
-0.0433944
-0.0182693
0.0039921
-0.336785
-0.344308
-0.3465
-0.350394
-0.354419
-0.359474
-0.365392
-0.372193
-0.37977
-0.388005
-0.396748
-0.405818
-0.415005
-0.424069
-0.432739
-0.440718
-0.447688
-0.453314
-0.457251
-0.459154
-0.458686
-0.455529
-0.449396
-0.44004
-0.42727
-0.410973
-0.391138
-0.367838
-0.341284
-0.311821
-0.279934
-0.246235
-0.211452
-0.176383
-0.141844
-0.108618
-0.0774635
-0.0488685
-0.0235972
-0.000898055
-0.337865
-0.345118
-0.347284
-0.351126
-0.355138
-0.360186
-0.366111
-0.372931
-0.38054
-0.388822
-0.397627
-0.406779
-0.416069
-0.425258
-0.434078
-0.442234
-0.449408
-0.455268
-0.459469
-0.461669
-0.46153
-0.458736
-0.452996
-0.444061
-0.431733
-0.415901
-0.396517
-0.373659
-0.347515
-0.318413
-0.286821
-0.253341
-0.218697
-0.183684
-0.149125
-0.115808
-0.0845337
-0.055727
-0.0303076
-0.00716963
-0.339181
-0.346105
-0.348236
-0.352014
-0.356005
-0.361043
-0.366973
-0.373811
-0.381453
-0.389785
-0.398659
-0.407902
-0.417306
-0.426636
-0.435625
-0.44398
-0.451384
-0.457507
-0.462007
-0.46454
-0.464771
-0.462383
-0.457083
-0.448619
-0.436785
-0.421467
-0.402598
-0.380237
-0.354556
-0.325865
-0.294612
-0.261391
-0.22692
-0.191979
-0.157432
-0.124054
-0.0926776
-0.0636722
-0.0381243
-0.014606
-0.340713
-0.347252
-0.349339
-0.353038
-0.357002
-0.362022
-0.367952
-0.374805
-0.382478
-0.390859
-0.399804
-0.40914
-0.418663
-0.42814
-0.437306
-0.44587
-0.453517
-0.459917
-0.46473
-0.467615
-0.468235
-0.466274
-0.461438
-0.453468
-0.442166
-0.427382
-0.409055
-0.387222
-0.362034
-0.333786
-0.302904
-0.269971
-0.235695
-0.200881
-0.166382
-0.132981
-0.10155
-0.0723923
-0.0467537
-0.0229512
-0.342436
-0.348541
-0.350575
-0.354181
-0.358107
-0.363101
-0.369023
-0.375883
-0.38358
-0.392005
-0.401015
-0.41044
-0.420079
-0.4297
-0.43904
-0.447811
-0.455699
-0.462375
-0.467501
-0.470735
-0.471745
-0.470211
-0.465838
-0.458364
-0.447587
-0.433347
-0.415567
-0.39427
-0.369585
-0.341796
-0.311292
-0.278682
-0.244648
-0.209996
-0.175598
-0.142234
-0.110814
-0.0815774
-0.0559012
-0.0319306
-0.344324
-0.349952
-0.351923
-0.355419
-0.359297
-0.364253
-0.370157
-0.377013
-0.384724
-0.393181
-0.402245
-0.411747
-0.42149
-0.431242
-0.440745
-0.449709
-0.457823
-0.46476
-0.470181
-0.473749
-0.475128
-0.474001
-0.470073
-0.463081
-0.452806
-0.439091
-0.421843
-0.401072
-0.376874
-0.349538
-0.319444
-0.287169
-0.253411
-0.218971
-0.184736
-0.151484
-0.120155
-0.0909349
-0.065287
-0.0412721
-0.34635
-0.351464
-0.353361
-0.356731
-0.360547
-0.365452
-0.371322
-0.378161
-0.38587
-0.394344
-0.403444
-0.413006
-0.422833
-0.432696
-0.442338
-0.451471
-0.459785
-0.466955
-0.472643
-0.476511
-0.478227
-0.477474
-0.473954
-0.467406
-0.457602
-0.444378
-0.427627
-0.407346
-0.38363
-0.356734
-0.327044
-0.295122
-0.261673
-0.2275
-0.1935
-0.160445
-0.129296
-0.100202
-0.0746594
-0.0507233
-0.348484
-0.353055
-0.354866
-0.358094
-0.361833
-0.366669
-0.37249
-0.379292
-0.38698
-0.39545
-0.404565
-0.414162
-0.424046
-0.433992
-0.443743
-0.453012
-0.461491
-0.468856
-0.47477
-0.478897
-0.480907
-0.480481
-0.477326
-0.471171
-0.461791
-0.449009
-0.432714
-0.412886
-0.389615
-0.363139
-0.333845
-0.30229
-0.269184
-0.235334
-0.201646
-0.168883
-0.13801
-0.109158
-0.0838037
-0.0600641
-0.350698
-0.354704
-0.356417
-0.359485
-0.36313
-0.367879
-0.373629
-0.380373
-0.388017
-0.396458
-0.40556
-0.415162
-0.425073
-0.435068
-0.444889
-0.454255
-0.462857
-0.470371
-0.476465
-0.480802
-0.483054
-0.482905
-0.480058
-0.474245
-0.465233
-0.45284
-0.436947
-0.417524
-0.394656
-0.368573
-0.339662
-0.308483
-0.275754
-0.242286
-0.208988
-0.176615
-0.146121
-0.117625
-0.0925482
-0.069113
-0.352963
-0.356389
-0.357992
-0.360882
-0.364414
-0.369054
-0.374712
-0.381373
-0.388946
-0.397328
-0.406387
-0.415962
-0.425863
-0.435867
-0.445719
-0.455137
-0.463814
-0.47143
-0.477651
-0.482148
-0.484588
-0.48466
-0.482064
-0.476533
-0.467831
-0.455766
-0.440216
-0.421145
-0.398633
-0.372908
-0.344365
-0.313571
-0.281253
-0.248227
-0.2154
-0.183517
-0.153503
-0.125475
-0.100765
-0.0777297
-0.355251
-0.358091
-0.35957
-0.362266
-0.365664
-0.370173
-0.375711
-0.382262
-0.389735
-0.398028
-0.407009
-0.41652
-0.426372
-0.436344
-0.446182
-0.455606
-0.46431
-0.47198
-0.478277
-0.482877
-0.485452
-0.485688
-0.483287
-0.477979
-0.469523
-0.457725
-0.442455
-0.423676
-0.401468
-0.376066
-0.347874
-0.317473
-0.285602
-0.253081
-0.22081
-0.189515
-0.160082
-0.132625
-0.108367
-0.0858141
-0.357535
-0.359792
-0.361135
-0.363619
-0.36686
-0.371212
-0.376604
-0.383015
-0.390356
-0.398526
-0.407394
-0.416804
-0.426567
-0.436465
-0.446244
-0.45563
-0.464314
-0.471983
-0.478308
-0.482962
-0.485618
-0.485964
-0.483702
-0.478557
-0.470285
-0.458688
-0.443634
-0.425084
-0.403127
-0.378009
-0.350153
-0.320157
-0.288775
-0.256825
-0.225194
-0.194583
-0.165827
-0.139033
-0.115306
-0.0933029
-0.359792
-0.361475
-0.362668
-0.364923
-0.367986
-0.372154
-0.377371
-0.383611
-0.390788
-0.3988
-0.407519
-0.416789
-0.426425
-0.436207
-0.445886
-0.455186
-0.463806
-0.471431
-0.477737
-0.482396
-0.485085
-0.48549
-0.483311
-0.47827
-0.470118
-0.458654
-0.443747
-0.425363
-0.403603
-0.378734
-0.351204
-0.321632
-0.290784
-0.259475
-0.22857
-0.198734
-0.170743
-0.144691
-0.121567
-0.100164
-0.361999
-0.363125
-0.364157
-0.366167
-0.369028
-0.372985
-0.377996
-0.384033
-0.391013
-0.398833
-0.407368
-0.416462
-0.425931
-0.435559
-0.445098
-0.454273
-0.462788
-0.470329
-0.476573
-0.481195
-0.483871
-0.484285
-0.482136
-0.477138
-0.469042
-0.457642
-0.442811
-0.424528
-0.402914
-0.378265
-0.35106
-0.32194
-0.291682
-0.261089
-0.230992
-0.202013
-0.174866
-0.149621
-0.127158
-0.106392
-0.36414
-0.364729
-0.36559
-0.36734
-0.369974
-0.373693
-0.378468
-0.384271
-0.39102
-0.398615
-0.406931
-0.415815
-0.425083
-0.434522
-0.443886
-0.452902
-0.461277
-0.468698
-0.474844
-0.47939
-0.482011
-0.482388
-0.480214
-0.475199
-0.467089
-0.45568
-0.440855
-0.42261
-0.401099
-0.376651
-0.349782
-0.321154
-0.29155
-0.261748
-0.232539
-0.204491
-0.17825
-0.153862
-0.132106
-0.111999
-0.366194
-0.366278
-0.366959
-0.368434
-0.37082
-0.374273
-0.378782
-0.384319
-0.390806
-0.398144
-0.40621
-0.414853
-0.42389
-0.43311
-0.442269
-0.451098
-0.459302
-0.466573
-0.47259
-0.477026
-0.479552
-0.479845
-0.47759
-0.472493
-0.464298
-0.452806
-0.437916
-0.419654
-0.398212
-0.373962
-0.347456
-0.319375
-0.290494
-0.261558
-0.233308
-0.20625
-0.180965
-0.157467
-0.13645
-0.117012
-0.36815
-0.367766
-0.368257
-0.369445
-0.37156
-0.374721
-0.378936
-0.384177
-0.390372
-0.397424
-0.405213
-0.413587
-0.422368
-0.431345
-0.440277
-0.448895
-0.456907
-0.464004
-0.469864
-0.474156
-0.476548
-0.476707
-0.474312
-0.469064
-0.460708
-0.449059
-0.434039
-0.415716
-0.394327
-0.370291
-0.344193
-0.316722
-0.288636
-0.260637
-0.233406
-0.207383
-0.183086
-0.160495
-0.140236
-0.121467
-0.37
-0.369188
-0.36948
-0.370371
-0.372195
-0.37504
-0.378932
-0.38385
-0.389727
-0.396468
-0.403955
-0.41204
-0.420545
-0.429261
-0.437948
-0.446338
-0.45414
-0.461043
-0.46672
-0.470837
-0.473051
-0.473023
-0.470423
-0.464951
-0.456358
-0.444481
-0.429279
-0.410866
-0.389534
-0.365748
-0.340116
-0.313328
-0.28611
-0.259109
-0.23294
-0.20798
-0.184686
-0.163006
-0.143511
-0.125403
-0.371737
-0.37054
-0.370628
-0.371215
-0.372728
-0.375234
-0.37878
-0.38335
-0.388885
-0.395294
-0.402461
-0.410241
-0.418455
-0.426898
-0.435328
-0.443479
-0.451057
-0.457747
-0.463217
-0.467122
-0.469113
-0.468837
-0.465962
-0.460189
-0.451285
-0.439119
-0.423696
-0.405187
-0.383941
-0.360458
-0.335366
-0.309334
-0.283048
-0.257092
-0.232015
-0.208128
-0.185837
-0.165058
-0.146325
-0.128863
-0.37336
-0.371823
-0.371703
-0.371979
-0.373165
-0.375313
-0.378491
-0.382693
-0.387866
-0.393926
-0.40076
-0.408223
-0.416139
-0.424301
-0.432469
-0.440372
-0.447714
-0.454172
-0.459406
-0.463061
-0.464774
-0.464185
-0.46096
-0.454809
-0.445527
-0.433025
-0.417366
-0.398781
-0.377668
-0.354561
-0.330084
-0.304879
-0.279578
-0.254698
-0.230722
-0.207904
-0.186602
-0.166706
-0.148721
-0.131886
-0.374867
-0.37304
-0.372708
-0.37267
-0.373516
-0.375288
-0.378081
-0.381897
-0.386694
-0.392394
-0.398886
-0.406026
-0.413641
-0.42152
-0.429422
-0.437072
-0.444165
-0.450371
-0.455336
-0.458693
-0.460067
-0.459093
-0.455441
-0.448842
-0.439128
-0.426266
-0.410379
-0.39176
-0.37085
-0.348197
-0.324412
-0.300094
-0.275814
-0.252023
-0.229144
-0.207374
-0.187037
-0.167996
-0.150741
-0.134511
-0.376265
-0.374193
-0.373649
-0.373295
-0.37379
-0.375176
-0.37757
-0.380988
-0.385399
-0.390731
-0.396877
-0.403695
-0.411009
-0.418606
-0.426241
-0.43363
-0.44046
-0.446386
-0.451043
-0.454046
-0.455014
-0.45358
-0.449427
-0.44232
-0.432141
-0.418917
-0.402839
-0.384251
-0.363624
-0.341506
-0.31848
-0.295094
-0.271855
-0.24915
-0.227346
-0.206594
-0.187189
-0.168971
-0.152423
-0.136776
-0.377559
-0.37529
-0.374533
-0.373865
-0.374002
-0.374991
-0.376977
-0.37999
-0.384011
-0.388974
-0.394775
-0.401273
-0.40829
-0.415608
-0.422974
-0.430093
-0.43664
-0.442254
-0.446552
-0.44914
-0.449628
-0.447659
-0.442942
-0.435286
-0.42463
-0.411072
-0.394861
-0.376383
-0.356124
-0.334618
-0.312405
-0.289978
-0.267782
-0.246145
-0.225384
-0.20561
-0.187099
-0.169668
-0.1538
-0.138712
-0.378759
-0.376337
-0.375368
-0.37439
-0.374165
-0.374754
-0.376328
-0.378933
-0.382563
-0.387159
-0.392621
-0.398806
-0.405531
-0.412572
-0.419664
-0.426501
-0.432737
-0.437996
-0.44188
-0.443982
-0.443917
-0.441347
-0.436016
-0.42779
-0.416675
-0.402833
-0.386565
-0.368285
-0.348476
-0.327645
-0.306284
-0.284826
-0.263659
-0.243058
-0.223298
-0.204459
-0.186798
-0.170117
-0.154902
-0.14035
-0.379879
-0.377344
-0.376167
-0.374882
-0.374295
-0.374484
-0.375646
-0.377845
-0.381089
-0.385326
-0.390456
-0.396335
-0.402775
-0.409539
-0.41635
-0.422882
-0.428773
-0.433627
-0.43703
-0.438576
-0.437889
-0.43466
-0.428688
-0.419898
-0.408367
-0.394312
-0.378074
-0.360079
-0.340793
-0.320684
-0.300193
-0.279699
-0.259534
-0.239928
-0.221122
-0.203169
-0.186316
-0.170346
-0.155756
-0.141717
-0.380933
-0.378322
-0.376939
-0.375354
-0.374409
-0.374201
-0.374956
-0.376757
-0.379623
-0.38351
-0.388319
-0.393902
-0.400059
-0.406544
-0.413058
-0.419257
-0.424758
-0.429147
-0.432003
-0.432921
-0.431552
-0.427629
-0.42101
-0.411689
-0.399804
-0.385621
-0.369502
-0.35187
-0.333164
-0.313809
-0.294192
-0.274641
-0.255439
-0.236781
-0.218879
-0.201763
-0.185674
-0.170378
-0.156386
-0.142838
-0.381938
-0.379281
-0.377697
-0.375821
-0.374523
-0.373927
-0.374284
-0.375697
-0.378198
-0.381747
-0.386246
-0.39154
-0.397416
-0.403611
-0.409807
-0.415636
-0.420694
-0.424554
-0.426792
-0.42702
-0.424924
-0.420293
-0.413048
-0.403249
-0.391088
-0.376865
-0.36095
-0.343749
-0.325664
-0.307076
-0.288321
-0.26968
-0.251398
-0.233638
-0.216586
-0.20026
-0.184891
-0.170232
-0.156812
-0.143733
-0.382912
-0.380236
-0.378454
-0.376297
-0.374655
-0.373681
-0.373654
-0.374693
-0.376843
-0.380069
-0.384269
-0.389278
-0.39487
-0.40076
-0.406606
-0.412019
-0.416574
-0.419837
-0.421393
-0.420881
-0.418034
-0.412703
-0.404874
-0.394668
-0.382318
-0.368142
-0.352505
-0.335784
-0.318346
-0.300522
-0.282605
-0.264837
-0.247424
-0.230511
-0.214257
-0.198672
-0.183983
-0.169926
-0.157054
-0.144421
-0.383876
-0.381199
-0.379224
-0.376796
-0.374822
-0.373485
-0.373089
-0.373772
-0.375587
-0.378504
-0.382413
-0.38714
-0.392437
-0.397998
-0.403456
-0.408398
-0.412387
-0.414988
-0.415806
-0.41452
-0.410919
-0.404918
-0.396568
-0.386036
-0.373584
-0.359533
-0.344233
-0.328028
-0.311245
-0.294172
-0.27706
-0.26012
-0.243526
-0.227407
-0.2119
-0.197013
-0.182962
-0.169474
-0.157127
-0.14492
-0.38485
-0.382183
-0.380021
-0.377332
-0.37504
-0.373357
-0.372612
-0.372956
-0.374454
-0.377074
-0.3807
-0.38514
-0.390127
-0.395327
-0.400349
-0.404762
-0.40812
-0.41
-0.410038
-0.407964
-0.403627
-0.397007
-0.388208
-0.377434
-0.364961
-0.351103
-0.336184
-0.320516
-0.304382
-0.288036
-0.271691
-0.255532
-0.239706
-0.22433
-0.209521
-0.195291
-0.181837
-0.168889
-0.157045
-0.145241
-0.385857
-0.383205
-0.38086
-0.377921
-0.375326
-0.373316
-0.372241
-0.372267
-0.373464
-0.375798
-0.379143
-0.383286
-0.387938
-0.392738
-0.397272
-0.401093
-0.40376
-0.404872
-0.404105
-0.401248
-0.396212
-0.389037
-0.379869
-0.368935
-0.356513
-0.342901
-0.328393
-0.313266
-0.297768
-0.282117
-0.266499
-0.251072
-0.235965
-0.221284
-0.207126
-0.193513
-0.180619
-0.168183
-0.156821
-0.145399
-0.386918
-0.384277
-0.381755
-0.378577
-0.375694
-0.373377
-0.371994
-0.371721
-0.372632
-0.374689
-0.377749
-0.381581
-0.385866
-0.390219
-0.394207
-0.397377
-0.3993
-0.399608
-0.39803
-0.394414
-0.388733
-0.381075
-0.371617
-0.360598
-0.348286
-0.334958
-0.320878
-0.306288
-0.291403
-0.276413
-0.261478
-0.246736
-0.2323
-0.218267
-0.204717
-0.191684
-0.179312
-0.167368
-0.156465
-0.145404
-0.388054
-0.385415
-0.382719
-0.379312
-0.37616
-0.373556
-0.371885
-0.371331
-0.371971
-0.373753
-0.376521
-0.380017
-0.383897
-0.387753
-0.391136
-0.393598
-0.394735
-0.394221
-0.391843
-0.387509
-0.381246
-0.373181
-0.363508
-0.352468
-0.340314
-0.327295
-0.313647
-0.299581
-0.285282
-0.270916
-0.256621
-0.242519
-0.228708
-0.21528
-0.202295
-0.189809
-0.177918
-0.166452
-0.155986
-0.145268
-0.389286
-0.386632
-0.383767
-0.38014
-0.376735
-0.373865
-0.371926
-0.371109
-0.371485
-0.372992
-0.375453
-0.378584
-0.382015
-0.385319
-0.388041
-0.389748
-0.390069
-0.388732
-0.38558
-0.380581
-0.373804
-0.365404
-0.355585
-0.344577
-0.332615
-0.319921
-0.306701
-0.293138
-0.279396
-0.265615
-0.251919
-0.238414
-0.225186
-0.212321
-0.199864
-0.187888
-0.176437
-0.165436
-0.15537
-0.144987
-0.390633
-0.387942
-0.384911
-0.381073
-0.377432
-0.374314
-0.372126
-0.371059
-0.371177
-0.372404
-0.374536
-0.377266
-0.3802
-0.382897
-0.384906
-0.38582
-0.385312
-0.383164
-0.379279
-0.373674
-0.366454
-0.357788
-0.34788
-0.336946
-0.325198
-0.312834
-0.300031
-0.28695
-0.273731
-0.260499
-0.247362
-0.234414
-0.22173
-0.20939
-0.197426
-0.185924
-0.174872
-0.164314
-0.154564
-0.14453
-0.392115
-0.389357
-0.386163
-0.382122
-0.378259
-0.374911
-0.37249
-0.371184
-0.371046
-0.371978
-0.373756
-0.376045
-0.378431
-0.380468
-0.38172
-0.381815
-0.380477
-0.377545
-0.372978
-0.36683
-0.359233
-0.350363
-0.340414
-0.329586
-0.318066
-0.306028
-0.293627
-0.281002
-0.268276
-0.255557
-0.24294
-0.230511
-0.218336
-0.206486
-0.194986
-0.183924
-0.173241
-0.163085
-0.153489
-0.143861
-0.39375
-0.390891
-0.387533
-0.383292
-0.379221
-0.375658
-0.373016
-0.371477
-0.371077
-0.371699
-0.37309
-0.374892
-0.376679
-0.378009
-0.37847
-0.377735
-0.375581
-0.371904
-0.366709
-0.360084
-0.352173
-0.343151
-0.3332
-0.322498
-0.311213
-0.299494
-0.287477
-0.275282
-0.263016
-0.250776
-0.238645
-0.226701
-0.215001
-0.20361
-0.192548
-0.181899
-0.171577
-0.161782
-0.152192
-0.143014
-0.395565
-0.392556
-0.389029
-0.384586
-0.380314
-0.376546
-0.373692
-0.37192
-0.371249
-0.371537
-0.372505
-0.373776
-0.374918
-0.3755
-0.375149
-0.373584
-0.370641
-0.366267
-0.360505
-0.353464
-0.345295
-0.336164
-0.32624
-0.31568
-0.304629
-0.293218
-0.281564
-0.269772
-0.257937
-0.246144
-0.234467
-0.222975
-0.21172
-0.200759
-0.190113
-0.179852
-0.169895
-0.160455
-0.151018
-0.142246
-0.39754
-0.394353
-0.390662
-0.386023
-0.381564
-0.377602
-0.374543
-0.372537
-0.371581
-0.371507
-0.372012
-0.372703
-0.373152
-0.372953
-0.371775
-0.369391
-0.365691
-0.360669
-0.354395
-0.346994
-0.338614
-0.32941
-0.319533
-0.309121
-0.2983
-0.287182
-0.275871
-0.264457
-0.253024
-0.241648
-0.230394
-0.219325
-0.208487
-0.197932
-0.187677
-0.177788
-0.16819
-0.15908
-0.150011
-0.141797
-0.399696
-0.396293
-0.392438
-0.387603
-0.382964
-0.378814
-0.375552
-0.373305
-0.372045
-0.371575
-0.371574
-0.371639
-0.371355
-0.370349
-0.368341
-0.365159
-0.360744
-0.355125
-0.348396
-0.340685
-0.332134
-0.322885
-0.31307
-0.302808
-0.292209
-0.28137
-0.27038
-0.25932
-0.248262
-0.237275
-0.226417
-0.215744
-0.205298
-0.195124
-0.185241
-0.175706
-0.166455
-0.157678
-0.148971
-0.141126
-0.402047
-0.398385
-0.39436
-0.389326
-0.38451
-0.380176
-0.376709
-0.374208
-0.372618
-0.371718
-0.371166
-0.370561
-0.36951
-0.367683
-0.364853
-0.360904
-0.355818
-0.349656
-0.342523
-0.334547
-0.325859
-0.316585
-0.30684
-0.296728
-0.286341
-0.275765
-0.265077
-0.254346
-0.24364
-0.233016
-0.222528
-0.212226
-0.202148
-0.192334
-0.182802
-0.173605
-0.164687
-0.156226
-0.147859
-0.140331
-0.404598
-0.400631
-0.396433
-0.391194
-0.386203
-0.381684
-0.378004
-0.375233
-0.373286
-0.371915
-0.370767
-0.369452
-0.367608
-0.364955
-0.36132
-0.356638
-0.35093
-0.344276
-0.336785
-0.328582
-0.319783
-0.3105
-0.300831
-0.290865
-0.28068
-0.270351
-0.259944
-0.249522
-0.239143
-0.228859
-0.218718
-0.208764
-0.199032
-0.189558
-0.180358
-0.171482
-0.162881
-0.15472
-0.146664
-0.139407
-0.407353
-0.403038
-0.398659
-0.393208
-0.388041
-0.383332
-0.379429
-0.376367
-0.374029
-0.372145
-0.370359
-0.368298
-0.365642
-0.362165
-0.35775
-0.352376
-0.346093
-0.338993
-0.331188
-0.322789
-0.313902
-0.304621
-0.295029
-0.285203
-0.275209
-0.265111
-0.254968
-0.244835
-0.234761
-0.224795
-0.214979
-0.205352
-0.195945
-0.186792
-0.177907
-0.169335
-0.161033
-0.153155
-0.145387
-0.138381
-0.410315
-0.405607
-0.401042
-0.395369
-0.390021
-0.385116
-0.380975
-0.377595
-0.374829
-0.372389
-0.369921
-0.367084
-0.363605
-0.359317
-0.354153
-0.348129
-0.341317
-0.333816
-0.325732
-0.317164
-0.308205
-0.298933
-0.289419
-0.279726
-0.269912
-0.260031
-0.250135
-0.24027
-0.230483
-0.220815
-0.211304
-0.201984
-0.192884
-0.184033
-0.175446
-0.167161
-0.159143
-0.151531
-0.144033
-0.137261
-0.413484
-0.408341
-0.403581
-0.397676
-0.392142
-0.387029
-0.382631
-0.378903
-0.375668
-0.372626
-0.369438
-0.3658
-0.361497
-0.356416
-0.350536
-0.343905
-0.336609
-0.328746
-0.320414
-0.311701
-0.302682
-0.293424
-0.283985
-0.274419
-0.264773
-0.255096
-0.245429
-0.235817
-0.226298
-0.21691
-0.207684
-0.198653
-0.189842
-0.181277
-0.172971
-0.16496
-0.15721
-0.149849
-0.142605
-0.136054
-0.416862
-0.411242
-0.40628
-0.40013
-0.394401
-0.389066
-0.384386
-0.380275
-0.376527
-0.372838
-0.368894
-0.364439
-0.359316
-0.353465
-0.346907
-0.339712
-0.331973
-0.323784
-0.315231
-0.306389
-0.297321
-0.28808
-0.278714
-0.269266
-0.259779
-0.250291
-0.240841
-0.231464
-0.222197
-0.21307
-0.204114
-0.195355
-0.186817
-0.178522
-0.170482
-0.162729
-0.155234
-0.148109
-0.141106
-0.134766
-0.420446
-0.414311
-0.409138
-0.402732
-0.396796
-0.39122
-0.38623
-0.381696
-0.377388
-0.373008
-0.368277
-0.362995
-0.357063
-0.350471
-0.343273
-0.335555
-0.32741
-0.318925
-0.310174
-0.301219
-0.292108
-0.282886
-0.273589
-0.264254
-0.254914
-0.245604
-0.236356
-0.227201
-0.218169
-0.209289
-0.200586
-0.192084
-0.183803
-0.175763
-0.167976
-0.160467
-0.153213
-0.146314
-0.13954
-0.133401
-0.424235
-0.417548
-0.412157
-0.40548
-0.399325
-0.393486
-0.388153
-0.38315
-0.378233
-0.37312
-0.367577
-0.361463
-0.354739
-0.347438
-0.339639
-0.331436
-0.32292
-0.314166
-0.305237
-0.296179
-0.287032
-0.277828
-0.268597
-0.259367
-0.250166
-0.241023
-0.231964
-0.223017
-0.214207
-0.205559
-0.197095
-0.188835
-0.180797
-0.172999
-0.16545
-0.158174
-0.151149
-0.144464
-0.137908
-0.131961
-0.428227
-0.420955
-0.415337
-0.408376
-0.401985
-0.395857
-0.390141
-0.384621
-0.379046
-0.37316
-0.366784
-0.359842
-0.352347
-0.34437
-0.336008
-0.327356
-0.318499
-0.309501
-0.300408
-0.291259
-0.282079
-0.272894
-0.263724
-0.254593
-0.245523
-0.236535
-0.227655
-0.218903
-0.210302
-0.201872
-0.193633
-0.185602
-0.177795
-0.170226
-0.162904
-0.155848
-0.14904
-0.14256
-0.136212
-0.130449
-0.432419
-0.42453
-0.418679
-0.411419
-0.404774
-0.398325
-0.392182
-0.386093
-0.379808
-0.373114
-0.365892
-0.35813
-0.349889
-0.34127
-0.332381
-0.323315
-0.314144
-0.30492
-0.29568
-0.286446
-0.277237
-0.268069
-0.258958
-0.24992
-0.240971
-0.232131
-0.223418
-0.214851
-0.206447
-0.198223
-0.190197
-0.182383
-0.174793
-0.167441
-0.160334
-0.153488
-0.146888
-0.140602
-0.134453
-0.128866
-0.436808
-0.428275
-0.422184
-0.414608
-0.407687
-0.400882
-0.394263
-0.387549
-0.380506
-0.372971
-0.364895
-0.356326
-0.347367
-0.338141
-0.328759
-0.319308
-0.309848
-0.300417
-0.291039
-0.281728
-0.272493
-0.263342
-0.254286
-0.245335
-0.236502
-0.2278
-0.219245
-0.210851
-0.202633
-0.194605
-0.18678
-0.179171
-0.171789
-0.164643
-0.15774
-0.151094
-0.144691
-0.138591
-0.132633
-0.127214
-0.441388
-0.432188
-0.425851
-0.417944
-0.410722
-0.403518
-0.396369
-0.388972
-0.381123
-0.372722
-0.36379
-0.35443
-0.344783
-0.334984
-0.325142
-0.315333
-0.305605
-0.295983
-0.286478
-0.277094
-0.267834
-0.2587
-0.249696
-0.240827
-0.232103
-0.223533
-0.215127
-0.206897
-0.198855
-0.191012
-0.183378
-0.175964
-0.168777
-0.161828
-0.15512
-0.148664
-0.142449
-0.136528
-0.130752
-0.125495
-0.446157
-0.436267
-0.42968
-0.421424
-0.41387
-0.406222
-0.398484
-0.390345
-0.381646
-0.372358
-0.362572
-0.352444
-0.342139
-0.331799
-0.321526
-0.311385
-0.301408
-0.291607
-0.281984
-0.272534
-0.263251
-0.254133
-0.245178
-0.236387
-0.227766
-0.219319
-0.211055
-0.202981
-0.195106
-0.187438
-0.179985
-0.172756
-0.165757
-0.158994
-0.152471
-0.146197
-0.140163
-0.134411
-0.128811
-0.123709
-0.451109
-0.440512
-0.433669
-0.425045
-0.417126
-0.408981
-0.400591
-0.391651
-0.382061
-0.371872
-0.361241
-0.350367
-0.339434
-0.328584
-0.317909
-0.307457
-0.297248
-0.287281
-0.277547
-0.268035
-0.258731
-0.249629
-0.24072
-0.232004
-0.223481
-0.215152
-0.207022
-0.199096
-0.191379
-0.183878
-0.176598
-0.169545
-0.162724
-0.156139
-0.149793
-0.143693
-0.137831
-0.132243
-0.126811
-0.121858
-0.456237
-0.444919
-0.437815
-0.428802
-0.420479
-0.41178
-0.402672
-0.392873
-0.382357
-0.371257
-0.359793
-0.348199
-0.336669
-0.325338
-0.314285
-0.303543
-0.293117
-0.282995
-0.273158
-0.263587
-0.254265
-0.245177
-0.236314
-0.227669
-0.219239
-0.211023
-0.203021
-0.195235
-0.18767
-0.180328
-0.173212
-0.166327
-0.159675
-0.15326
-0.147084
-0.141151
-0.135453
-0.130022
-0.124752
-0.119941
-0.461534
-0.449483
-0.442115
-0.432688
-0.423919
-0.414603
-0.404707
-0.393994
-0.382523
-0.370508
-0.358227
-0.345939
-0.333841
-0.322058
-0.310651
-0.299637
-0.289007
-0.27874
-0.268806
-0.259182
-0.249842
-0.24077
-0.23195
-0.223374
-0.215033
-0.206924
-0.199044
-0.191393
-0.183972
-0.176782
-0.169823
-0.163098
-0.156609
-0.150357
-0.144343
-0.138568
-0.133029
-0.127748
-0.122633
-0.117961
-0.466992
-0.4542
-0.446562
-0.436695
-0.42743
-0.41743
-0.406678
-0.395
-0.382549
-0.36962
-0.356541
-0.343587
-0.33095
-0.31874
-0.306999
-0.29573
-0.28491
-0.274506
-0.264482
-0.254808
-0.245453
-0.236397
-0.22762
-0.219109
-0.210854
-0.202848
-0.195086
-0.187564
-0.180281
-0.173236
-0.166427
-0.159856
-0.153522
-0.147426
-0.141567
-0.135946
-0.130558
-0.125422
-0.120457
-0.115917
-0.4726
-0.459063
-0.451148
-0.440812
-0.430997
-0.420241
-0.408565
-0.395874
-0.382424
-0.368589
-0.354732
-0.34114
-0.327992
-0.315378
-0.303325
-0.291816
-0.280817
-0.270285
-0.260177
-0.250456
-0.241089
-0.232049
-0.223314
-0.214868
-0.206696
-0.198789
-0.19114
-0.183742
-0.176592
-0.169685
-0.163021
-0.156598
-0.150413
-0.144466
-0.138756
-0.133282
-0.128039
-0.123043
-0.118222
-0.113809
-0.478347
-0.464063
-0.455864
-0.445025
-0.434601
-0.423014
-0.410346
-0.396601
-0.382141
-0.367409
-0.3528
-0.338596
-0.324963
-0.311969
-0.299621
-0.287886
-0.276719
-0.266067
-0.255882
-0.246119
-0.236741
-0.227719
-0.219026
-0.210642
-0.202552
-0.194741
-0.187201
-0.179922
-0.172899
-0.166127
-0.159602
-0.15332
-0.147279
-0.141475
-0.135908
-0.130576
-0.125473
-0.120612
-0.11593
-0.111639
-0.484219
-0.469189
-0.460698
-0.449318
-0.438219
-0.425725
-0.412001
-0.397168
-0.381691
-0.366077
-0.35074
-0.335953
-0.321859
-0.308507
-0.29588
-0.283934
-0.272609
-0.261845
-0.251587
-0.241787
-0.232402
-0.223399
-0.214748
-0.206426
-0.198415
-0.190698
-0.183263
-0.1761
-0.1692
-0.162558
-0.156166
-0.15002
-0.144117
-0.138452
-0.133023
-0.127827
-0.12286
-0.118128
-0.11358
-0.109407
-0.490201
-0.474429
-0.465633
-0.453672
-0.441829
-0.428351
-0.413511
-0.39756
-0.381067
-0.364589
-0.348549
-0.333205
-0.318676
-0.304985
-0.292096
-0.279951
-0.268478
-0.25761
-0.247286
-0.237453
-0.228064
-0.219081
-0.210473
-0.202213
-0.194279
-0.186654
-0.179322
-0.172271
-0.165491
-0.158973
-0.15271
-0.146696
-0.140926
-0.135395
-0.130099
-0.125035
-0.120197
-0.115591
-0.111172
-0.107113
-0.496274
-0.479768
-0.470654
-0.458066
-0.445405
-0.430864
-0.414855
-0.397764
-0.38026
-0.36294
-0.346224
-0.33035
-0.315408
-0.301397
-0.288262
-0.275929
-0.264318
-0.253355
-0.242971
-0.233109
-0.223718
-0.214759
-0.206194
-0.197996
-0.190139
-0.182603
-0.175372
-0.16843
-0.161766
-0.15537
-0.149232
-0.143346
-0.137705
-0.132303
-0.127136
-0.122198
-0.117487
-0.113001
-0.108707
-0.104757
-0.50242
-0.485189
-0.475741
-0.462475
-0.448918
-0.433241
-0.416014
-0.397769
-0.379263
-0.361124
-0.34376
-0.327382
-0.312049
-0.297736
-0.28437
-0.271862
-0.260123
-0.249071
-0.238633
-0.228748
-0.21936
-0.210426
-0.201906
-0.19377
-0.18599
-0.178543
-0.17141
-0.164575
-0.158024
-0.151745
-0.145729
-0.139967
-0.134451
-0.129174
-0.124131
-0.119317
-0.114727
-0.110359
-0.106185
-0.102341
-0.508614
-0.490672
-0.48087
-0.466872
-0.452339
-0.435454
-0.416968
-0.397561
-0.378069
-0.359137
-0.341153
-0.324295
-0.308594
-0.293996
-0.280412
-0.267741
-0.255884
-0.244752
-0.234267
-0.224363
-0.214982
-0.206076
-0.197603
-0.189529
-0.181826
-0.174466
-0.167431
-0.1607
-0.15426
-0.148097
-0.1422
-0.136558
-0.131163
-0.126008
-0.121086
-0.116391
-0.111918
-0.107664
-0.103607
-0.0998645
-0.514834
-0.496196
-0.486016
-0.471228
-0.455638
-0.437477
-0.417699
-0.397129
-0.376671
-0.356972
-0.338397
-0.321085
-0.305035
-0.29017
-0.276383
-0.26356
-0.251594
-0.24039
-0.229865
-0.219948
-0.210578
-0.201703
-0.193279
-0.18527
-0.177642
-0.170371
-0.163431
-0.156804
-0.150473
-0.144423
-0.138641
-0.133116
-0.12784
-0.122803
-0.117998
-0.113419
-0.109061
-0.104917
-0.100973
-0.0973282
-0.521052
-0.501736
-0.491152
-0.47551
-0.458782
-0.439285
-0.41819
-0.396462
-0.375061
-0.354626
-0.335486
-0.317744
-0.301366
-0.286251
-0.272274
-0.259312
-0.247247
-0.23598
-0.225422
-0.215497
-0.206142
-0.197302
-0.188929
-0.180986
-0.173436
-0.166252
-0.159408
-0.152883
-0.146658
-0.140719
-0.13505
-0.129641
-0.12448
-0.119558
-0.114867
-0.110401
-0.106154
-0.102118
-0.0982832
-0.0947329
-0.527238
-0.507266
-0.496247
-0.479687
-0.46174
-0.440852
-0.418423
-0.39555
-0.373231
-0.35209
-0.332415
-0.314267
-0.297581
-0.282232
-0.26808
-0.254989
-0.242837
-0.231514
-0.22093
-0.211004
-0.201669
-0.192868
-0.184549
-0.176673
-0.169202
-0.162105
-0.155357
-0.148933
-0.142815
-0.136984
-0.131427
-0.12613
-0.121082
-0.116273
-0.111694
-0.107338
-0.103199
-0.0992674
-0.0955383
-0.0920794
-0.533363
-0.512756
-0.501269
-0.483721
-0.464478
-0.442154
-0.418381
-0.39438
-0.371174
-0.349359
-0.329176
-0.310647
-0.293673
-0.278107
-0.263793
-0.250587
-0.238356
-0.226988
-0.216385
-0.206464
-0.197155
-0.188395
-0.180135
-0.172328
-0.164937
-0.157929
-0.151276
-0.144953
-0.13894
-0.133217
-0.12777
-0.122583
-0.117646
-0.112947
-0.108477
-0.104229
-0.100195
-0.0963654
-0.092739
-0.0893685
-0.539391
-0.518176
-0.506181
-0.487577
-0.466964
-0.443166
-0.418049
-0.392943
-0.368883
-0.346426
-0.325765
-0.306878
-0.289635
-0.273868
-0.259408
-0.246097
-0.233799
-0.222394
-0.211781
-0.201872
-0.192593
-0.183881
-0.175681
-0.167946
-0.160637
-0.153719
-0.147161
-0.14094
-0.135031
-0.129415
-0.124076
-0.118999
-0.114171
-0.10958
-0.105217
-0.101074
-0.0971421
-0.0934127
-0.0898861
-0.0866011
-0.545288
-0.523491
-0.510948
-0.491215
-0.469165
-0.443864
-0.417411
-0.391229
-0.36635
-0.343283
-0.322173
-0.302952
-0.28546
-0.26951
-0.254917
-0.241515
-0.22916
-0.217728
-0.207112
-0.197222
-0.18798
-0.179319
-0.171184
-0.163525
-0.156299
-0.149472
-0.143012
-0.136891
-0.131086
-0.125577
-0.120345
-0.115376
-0.110655
-0.106171
-0.101914
-0.097873
-0.0940418
-0.09041
-0.0869804
-0.0837784
-0.551016
-0.528668
-0.51553
-0.494599
-0.471051
-0.444228
-0.416453
-0.389228
-0.363566
-0.339926
-0.318394
-0.298863
-0.281143
-0.265025
-0.250314
-0.236835
-0.224435
-0.212985
-0.202376
-0.192511
-0.183312
-0.174708
-0.166641
-0.15906
-0.151921
-0.145187
-0.138824
-0.132805
-0.127104
-0.121701
-0.116577
-0.111714
-0.1071
-0.102721
-0.0985662
-0.0946269
-0.0908941
-0.0873581
-0.0840229
-0.0809014