/*--------------------------------*- C++ -*----------------------------------*\
  =========                 |
  \\      /  F ield         | OpenFOAM: The Open Source CFD Toolbox
   \\    /   O peration     | Website:  https://openfoam.org
    \\  /    A nd           | Version:  7
     \\/     M anipulation  |
\*---------------------------------------------------------------------------*/
FoamFile
{
    version     2.0;
    format      ascii;
    class       surfaceScalarField;
    location    "5";
    object      phi;
}
// * * * * * * * * * * * * * * * * * * * * * * * * * * * * * * * * * * * * * //

dimensions      [0 3 -1 0 0 0 0];

internalField   nonuniform List<scalar> 
96230
(
-1.36867e-05
1.36865e-05
1.55819e-10
-4.37758e-05
3.00888e-05
2.68557e-10
-8.51803e-05
4.14042e-05
2.72551e-10
-0.000134562
4.93812e-05
2.13506e-10
-0.000190085
5.55234e-05
1.18886e-10
-0.000250707
6.06218e-05
1.81962e-12
-0.000315876
6.5169e-05
-1.31034e-10
-0.000385271
6.93957e-05
-2.76688e-10
-0.000458648
7.33773e-05
-4.3282e-10
-0.000535739
7.70914e-05
-5.97265e-10
-0.000616202
8.0464e-05
-7.67509e-10
-0.000699596
8.33945e-05
-9.40632e-10
-0.000785364
8.57692e-05
-1.113e-09
-0.00087283
8.7467e-05
-1.28113e-09
-0.00096119
8.83623e-05
-1.44141e-09
-0.00104951
8.83259e-05
-1.58822e-09
-0.00113674
8.72264e-05
-1.71643e-09
-0.00122167
8.49305e-05
-1.82151e-09
-0.00130297
8.13034e-05
-1.89859e-09
-0.00137918
7.62104e-05
-1.94306e-09
-0.00144869
6.95175e-05
-1.95084e-09
-0.00150979
6.10949e-05
-1.9183e-09
-0.0015606
5.08198e-05
-1.84253e-09
-0.00159919
3.85837e-05
-1.72133e-09
-0.00162349
2.43021e-05
-1.55575e-09
-0.0016314
7.91122e-06
-1.34893e-09
-0.00162087
-1.05226e-05
-1.08675e-09
-0.00158991
-3.09625e-05
-7.93807e-10
-0.00153664
-5.32661e-05
-4.67712e-10
-0.00145948
-7.71661e-05
-1.16778e-10
-0.00135717
-0.000102307
2.47435e-10
-0.00122893
-0.000128243
6.14559e-10
-0.00107448
-0.000154446
9.70605e-10
-0.000894123
-0.000180361
1.30127e-09
-0.000688723
-0.000205402
1.59848e-09
-0.000459669
-0.000229056
1.84653e-09
-0.000208833
-0.000250838
2.03434e-09
6.19078e-05
-0.000270743
2.17539e-09
0.000349815
-0.00028791
2.24202e-09
-0.000305067
2.25982e-09
0.00065488
-1.35341e-05
2.72207e-05
-4.33368e-05
5.98914e-05
-8.43772e-05
8.24447e-05
-0.000133339
9.83434e-05
-0.000188388
0.000110572
-0.000248468
0.000120702
-0.000313013
0.000129714
-0.000381685
0.000138069
-0.000454224
0.000145916
-0.000530346
0.000153213
-0.000609693
0.000159811
-0.000691807
0.000165508
-0.000776116
0.000170078
-0.000861926
0.000173277
-0.00094842
0.000174856
-0.00103465
0.000174555
-0.00111954
0.000172114
-0.00120187
0.000167268
-0.00128032
0.00015975
-0.0013534
0.000149293
-0.00141952
0.000135635
-0.00147695
0.00011852
-0.00152384
9.7709e-05
-0.00155824
7.29892e-05
-0.00157814
4.4199e-05
-0.00158143
1.1202e-05
-0.00156613
-2.58243e-05
-0.00153023
-6.68577e-05
-0.00147192
-0.000111574
-0.00138965
-0.000159441
-0.00128221
-0.000209744
-0.00114887
-0.000261584
-0.000989422
-0.000313894
-0.000804214
-0.000365568
-0.000594211
-0.000415405
-0.000360879
-0.000462388
-0.000106179
-0.000505538
0.000167776
-0.000544699
0.000458049
-0.000578183
-0.000611796
0.000764778
-1.32359e-05
4.04566e-05
-4.24726e-05
8.91281e-05
-8.27913e-05
0.000122763
-0.000130921
0.000146473
-0.000185025
0.000164676
-0.000244029
0.000179705
-0.000307334
0.00019302
-0.000374573
0.000205307
-0.000445451
0.000216794
-0.000519652
0.000227414
-0.000596788
0.000236947
-0.000676371
0.000245091
-0.000757796
0.000251503
-0.000840339
0.000255821
-0.000923152
0.000257668
-0.00100526
0.000256662
-0.00108556
0.000252411
-0.00116281
0.000244525
-0.00123567
0.000232611
-0.00130266
0.000216279
-0.00136217
0.000195144
-0.00141248
0.000168836
-0.00145178
0.000137008
-0.00147815
9.93579e-05
-0.00148962
5.56637e-05
-0.00148411
5.69286e-06
-0.00145976
-5.01766e-05
-0.00141457
-0.000112039
-0.00134684
-0.000179306
-0.00125509
-0.000251191
-0.00113822
-0.000326614
-0.000995597
-0.00040421
-0.000827132
-0.000482359
-0.000633288
-0.000559413
-0.000415198
-0.000633495
-0.000174462
-0.000703124
8.66719e-05
-0.000766671
0.000366058
-0.000824085
0.000660156
-0.00087228
-0.000920991
0.000969351
-1.27974e-05
5.3254e-05
-4.11972e-05
0.000117528
-8.0446e-05
0.000162012
-0.00012734
0.000193368
-0.000180043
0.000217378
-0.000237448
0.00023711
-0.000298916
0.000254488
-0.000364031
0.000270422
-0.00043245
0.000285213
-0.000503814
0.000298778
-0.000577689
0.000310822
-0.000653542
0.000320944
-0.000730727
0.000328688
-0.000808477
0.00033357
-0.000885902
0.000335093
-0.000961989
0.000332749
-0.0010356
0.000326026
-0.00110549
0.000314413
-0.00117028
0.000297401
-0.00122849
0.000274487
-0.00127853
0.000245181
-0.0013187
0.000209012
-0.00134724
0.000165546
-0.00136229
0.000114405
-0.00136192
5.52926e-05
-0.00134429
-1.19355e-05
-0.00130743
-8.70313e-05
-0.0012496
-0.000169873
-0.00116917
-0.000259737
-0.0010648
-0.000355556
-0.00093554
-0.000455878
-0.000780895
-0.000558856
-0.000600958
-0.000662296
-0.000396336
-0.000764034
-0.000168351
-0.000861479
8.10676e-05
-0.000952543
0.000349566
-0.00103517
0.000634809
-0.00110933
0.000932729
-0.0011702
-0.0012321
0.00124384
-1.22266e-05
6.54805e-05
-3.95315e-05
0.000144833
-7.73761e-05
0.000199857
-0.000122647
0.000238638
-0.000173506
0.000268238
-0.000228812
0.000292417
-0.00028787
0.000313545
-0.000350201
0.000332753
-0.000415405
0.000350417
-0.000483064
0.000366437
-0.000552689
0.000380448
-0.000623695
0.000391949
-0.000695381
0.000400374
-0.000766932
0.000405121
-0.000837413
0.000405574
-0.00090577
0.000401106
-0.000970837
0.000391094
-0.00103134
0.000374916
-0.0010859
0.000351961
-0.00113304
0.000321632
-0.00117122
0.000283351
-0.00119877
0.000236571
-0.00121402
0.000180789
-0.00121519
0.000115577
-0.00120047
4.05724e-05
-0.00116818
-4.42264e-05
-0.00111648
-0.000138731
-0.00104377
-0.000242586
-0.000948596
-0.000354907
-0.000829803
-0.000474349
-0.0006866
-0.000599081
-0.000518695
-0.00072676
-0.000326412
-0.00085458
-0.000110401
-0.000980045
0.000127416
-0.0010993
0.000385213
-0.00121034
0.00066035
-0.00131031
0.000950242
-0.00139922
0.00125055
-0.00147051
-0.00154324
0.00156168
-1.15339e-05
7.70144e-05
-3.75024e-05
0.000170801
-7.36271e-05
0.000235982
-0.000116905
0.000281916
-0.000165502
0.000316835
-0.000218234
0.000345148
-0.000274339
0.00036965
-0.000333268
0.000391682
-0.000394551
0.0004117
-0.000457702
0.000429588
-0.00052217
0.000444916
-0.000587308
0.000457087
-0.000652361
0.000465427
-0.00071646
0.000469221
-0.000778626
0.00046774
-0.000837769
0.000460249
-0.000892698
0.000446022
-0.000942128
0.000424346
-0.000984691
0.000394524
-0.00101895
0.000355887
-0.00104339
0.000307793
-0.00105646
0.000249644
-0.00105657
0.000180894
-0.00104209
0.000101104
-0.00101134
9.81974e-06
-0.000962841
-9.27249e-05
-0.000894914
-0.000206657
-0.000806154
-0.000331346
-0.000695309
-0.000465752
-0.000561421
-0.000608237
-0.000403904
-0.000756598
-0.000222637
-0.000908027
-1.7976e-05
-0.00105924
0.000208161
-0.00120618
0.00045482
-0.00134596
0.000719521
-0.00147504
0.000999365
-0.00159015
0.00129159
-0.00169145
0.00159183
-0.00177075
-0.00185152
0.00190012
-1.07319e-05
8.77463e-05
-3.51428e-05
0.000195212
-6.92545e-05
0.000270093
-0.000110195
0.000322856
-0.000156137
0.000362778
-0.00020585
0.000394861
-0.0002585
0.000422299
-0.000313457
0.000446639
-0.000370173
0.000468416
-0.000428089
0.000487504
-0.000486586
0.000503413
-0.000544954
0.000515455
-0.000602382
0.000522855
-0.000657952
0.000524792
-0.000710645
0.000520433
-0.000759345
0.000508948
-0.000802848
0.000489525
-0.000839878
0.000461376
-0.000869097
0.000423743
-0.000889119
0.000375909
-0.000898522
0.000317196
-0.000895858
0.00024698
-0.000879667
0.000164704
-0.000848457
6.98939e-05
-0.000800888
-3.77499e-05
-0.000735407
-0.000158205
-0.000650721
-0.000291344
-0.000545594
-0.000436473
-0.000418982
-0.000592364
-0.000270147
-0.000757071
-9.86753e-05
-0.000928069
9.50874e-05
-0.00110179
0.000310345
-0.0012745
0.000545988
-0.00144182
0.00079976
-0.00159973
0.00106915
-0.00174443
0.00135117
-0.00187217
0.00164284
-0.00198311
0.00194004
-0.00206795
-0.0021536
0.00224212
-9.835e-06
9.75813e-05
-3.24906e-05
0.000217868
-6.43229e-05
0.000301926
-0.000102609
0.000361142
-0.000145535
0.000405704
-0.000191822
0.000441148
-0.000240558
0.000471035
-0.00029103
0.000497111
-0.000342603
0.000519989
-0.000394643
0.000539544
-0.00044646
0.00055523
-0.000497285
0.00056628
-0.000546254
0.000571824
-0.000592408
0.000570945
-0.000634697
0.000562722
-0.000671994
0.000546245
-0.000703102
0.000520633
-0.000726775
0.000485049
-0.000741725
0.000438694
-0.000746649
0.000380833
-0.000740232
0.000310779
-0.000721162
0.000227909
-0.000688139
0.000131681
-0.000639853
2.16075e-05
-0.00057513
-0.000102473
-0.000492665
-0.00024067
-0.000391337
-0.000392672
-0.00027014
-0.00055767
-0.000128208
-0.000734296
3.49417e-05
-0.000920222
0.000219249
-0.00111238
0.000424435
-0.00130698
0.000649382
-0.00149945
0.000892419
-0.00168486
0.00115117
-0.00185848
0.00142278
-0.00201605
0.00170419
-0.00215358
0.0019922
-0.00227112
0.00228322
-0.00235898
-0.00244606
0.00257568
-8.85925e-06
0.000106441
-2.95885e-05
0.000238597
-5.89049e-05
0.000331242
-9.42522e-05
0.00039649
-0.000133836
0.000445288
-0.000176331
0.000483643
-0.000220745
0.00051545
-0.000266277
0.000542643
-0.000312208
0.00056592
-0.000357823
0.00058516
-0.000402368
0.000599775
-0.000445015
0.000608927
-0.000484856
0.000611665
-0.000520903
0.000606992
-0.000552093
0.000593912
-0.000577303
0.000571455
-0.000595363
0.000538693
-0.000605078
0.000494764
-0.000605239
0.000438855
-0.000594645
0.000370239
-0.000572111
0.000288244
-0.000536476
0.000192274
-0.000486593
8.17982e-05
-0.00042141
-4.35752e-05
-0.000339813
-0.00018407
-0.000240792
-0.000339691
-0.000123384
-0.000510081
1.32442e-05
-0.000694298
0.000169566
-0.000890618
0.000345944
-0.0010966
0.000542201
-0.00130863
0.000757523
-0.0015223
0.000990489
-0.00173241
0.00123903
-0.0019334
0.0015005
-0.00211994
0.00177175
-0.0022873
0.00204969
-0.00243151
0.00233094
-0.00255238
0.00261267
-0.00264071
-0.00272569
0.00289231
-7.82184e-06
0.000114262
-2.64825e-05
0.000257258
-5.30802e-05
0.00035784
-8.52398e-05
0.000428649
-0.000121194
0.000481242
-0.000159575
0.000522024
-0.000199314
0.000555189
-0.000239519
0.000582848
-0.000279386
0.000605787
-0.000318128
0.000623901
-0.000354924
0.000636571
-0.000388901
0.000642904
-0.000419117
0.000641881
-0.000444568
0.000632443
-0.000464194
0.000613538
-0.000476897
0.000584158
-0.000481557
0.000543353
-0.000477052
0.000490259
-0.000462271
0.000424075
-0.000436136
0.000344104
-0.000397602
0.00024971
-0.00034567
0.000140343
-0.000279357
1.54845e-05
-0.000197783
-0.000125149
-0.000100008
-0.000281844
1.4815e-05
-0.000454514
0.000147433
-0.000642698
0.00029847
-0.000845336
0.000468332
-0.00106048
0.000656975
-0.00128524
0.000863893
-0.00151555
0.00108791
-0.00174632
0.00132719
-0.00197169
0.00157922
-0.00218543
0.00184106
-0.00238178
0.0021093
-0.00255555
0.00238091
-0.00270312
0.00265242
-0.00282389
0.00292193
-0.00291022
-0.00298971
0.00318594
-6.74078e-06
0.000121003
-2.32218e-05
0.000273739
-4.69337e-05
0.000381552
-7.56955e-05
0.000457411
-0.000107776
0.000513322
-0.000141771
0.000556019
-0.000176536
0.000589954
-0.000211095
0.000617407
-0.000244564
0.000639256
-0.000276082
0.00065542
-0.000304777
0.000665266
-0.000329735
0.000667862
-0.000349995
0.000662142
-0.000364554
0.000647002
-0.000372374
0.000621358
-0.000372403
0.000584187
-0.000363588
0.000534539
-0.000344903
0.000471574
-0.000315351
0.000394523
-0.000273985
0.000302738
-0.000219908
0.000195633
-0.000152265
7.26999e-05
-7.02723e-05
-6.6508e-05
2.6884e-05
-0.000222306
0.000139935
-0.000394895
0.000269593
-0.000584173
0.000416476
-0.000789581
0.00058101
-0.00100987
0.000763337
-0.00124281
0.00096312
-0.00148503
0.00117944
-0.00173187
0.00141064
-0.00197753
0.00165442
-0.00221547
0.0019078
-0.00243881
0.00216755
-0.00264153
0.00243008
-0.00281808
0.00269253
-0.00296556
0.00295151
-0.00308287
0.00320617
-0.00316487
-0.00323587
0.00345233
-5.63452e-06
0.000126638
-1.9857e-05
0.000287961
-4.0555e-05
0.00040225
-6.57504e-05
0.000482606
-9.37573e-05
0.000541329
-0.000123144
0.000585405
-0.000152698
0.000619508
-0.000181364
0.000646074
-0.000208183
0.000666074
-0.000232231
0.000679468
-0.00025259
0.000685625
-0.000268321
0.000683592
-0.000278458
0.000672279
-0.000282015
0.000650558
-0.000277995
0.000617338
-0.000265409
0.000571602
-0.000243294
0.000512423
-0.000210731
0.000439011
-0.000166844
0.000350636
-0.000110827
0.00024672
-4.19196e-05
0.000126726
4.05929e-05
-9.81258e-06
0.000137381
-0.000163296
0.000249122
-0.000334046
0.000376452
-0.000522225
0.000519967
-0.000727688
0.000680138
-0.000949752
0.000857196
-0.00118693
0.00105099
-0.0014366
0.00126079
-0.00169482
0.00148517
-0.00195625
0.00172194
-0.0022143
0.00196824
-0.00246177
0.00222065
-0.00269123
0.00247571
-0.00289658
0.00272981
-0.00307219
0.00298038
-0.00321613
0.00322437
-0.00332685
0.00346198
-0.00340248
-0.00346262
0.00368872
-4.52156e-06
0.000131159
-1.64401e-05
0.00029988
-3.40358e-05
0.000419845
-5.55399e-05
0.000504111
-7.93216e-05
0.000565111
-0.000103931
0.000610014
-0.000128097
0.000643674
-0.000150695
0.000668672
-0.000170697
0.000686076
-0.000187128
0.000695899
-0.000199035
0.000697532
-0.000205465
0.000690023
-0.000205465
0.000672279
-0.000198082
0.000643175
-0.000182376
0.000601632
-0.00015744
0.000546666
-0.000122407
0.00047739
-7.64814e-05
0.000393085
-1.89122e-05
0.000293067
5.09897e-05
0.000176818
0.000133852
4.38638e-05
0.000230275
-0.000106236
0.000340853
-0.000273874
0.000466174
-0.000459367
0.000606808
-0.000662859
0.000763251
-0.000884131
0.000935824
-0.00112232
0.00112451
-0.00137562
0.0013288
-0.00164088
0.00154744
-0.00191347
0.00177842
-0.00218723
0.00201892
-0.0024548
0.00226553
-0.00270837
0.00251445
-0.00294015
0.00276212
-0.00314425
0.00300511
-0.00331518
0.00324132
-0.00345235
0.00346827
-0.0035538
0.00368722
-0.00362144
-0.00366916
0.00389376
-3.42005e-06
0.000134579
-1.30228e-05
0.000309483
-2.74691e-05
0.000434291
-4.52025e-05
0.000521844
-6.46563e-05
0.000584565
-8.43734e-05
0.000629731
-0.000103037
0.000662338
-0.000119463
0.000685098
-0.000132565
0.000699178
-0.000141329
0.000704663
-0.000144779
0.000700981
-0.000141963
0.000687208
-0.000131954
0.000662269
-0.000113846
0.000625067
-8.67723e-05
0.000574559
-4.99207e-05
0.000509814
-2.54608e-06
0.000430015
5.60867e-05
0.000334453
0.000126557
0.000222597
0.000209448
9.39277e-05
0.000305303
-5.19918e-05
0.000414655
-0.000215588
0.000538045
-0.000397264
0.000676022
-0.000597344
0.000829105
-0.000815942
0.00099769
-0.00105272
0.0011819
-0.00130654
0.0013814
-0.00157512
0.00159517
-0.00185465
0.00182136
-0.00213966
0.00205725
-0.00242312
0.00229935
-0.0026969
0.00254376
-0.00295278
0.00278647
-0.00318286
0.003024
-0.00338178
0.00325337
-0.00354454
0.00347313
-0.00367211
0.00368158
-0.00376225
0.00388097
-0.00382083
-0.00385551
0.00406732
-2.34745e-06
0.000136927
-9.65555e-06
0.000316791
-2.09472e-05
0.000445583
-3.48767e-05
0.000535773
-4.99503e-05
0.000599638
-6.47165e-05
0.000644498
-7.7825e-05
0.000675446
-8.80439e-05
0.000695317
-9.42455e-05
0.00070538
-9.53844e-05
0.000705802
-9.04762e-05
0.000696073
-7.85848e-05
0.000675316
-5.8819e-05
0.000642503
-3.03375e-05
0.000596585
7.64279e-06
0.000536579
5.58501e-05
0.000461607
0.000114926
0.00037094
0.000185443
0.000263936
0.000267936
0.000140104
0.000362894
-1.03005e-06
0.000470803
-0.000159901
0.000592166
-0.000336952
0.000727518
-0.000532615
0.000877393
-0.00074722
0.00104226
-0.000980808
0.00122237
-0.00123283
0.00141757
-0.00150174
0.00162705
-0.0017846
0.00184918
-0.00207678
0.00208135
-0.00237183
0.0023201
-0.00266187
0.00256132
-0.00293812
0.00280076
-0.00319222
0.00303443
-0.00341653
0.0032592
-0.00360655
0.00347276
-0.00375811
0.00367451
-0.00387386
0.0038637
-0.00395143
0.00404342
-0.00400055
-0.00402246
0.00421037
-1.32033e-06
0.000138247
-6.38706e-06
0.000321858
-1.45602e-05
0.000453756
-2.46991e-05
0.000545912
-3.5391e-05
0.00061033
-4.52024e-05
0.000654309
-5.27638e-05
0.000683008
-5.68108e-05
0.000699364
-5.6186e-05
0.000704755
-4.9828e-05
0.000699444
-3.67565e-05
0.000683002
-1.60623e-05
0.000654622
1.3097e-05
0.000613344
5.14947e-05
0.000558188
9.98274e-05
0.000488246
0.000158715
0.000402719
0.000228712
0.000300943
0.000310303
0.000182345
0.000403947
4.64594e-05
0.000510093
-0.000107177
0.000629216
-0.000279024
0.000761835
-0.00046957
0.000908502
-0.000679282
0.00106974
-0.000908462
0.00124593
-0.001157
0.00143709
-0.00142398
0.00164264
-0.00170728
0.00186116
-0.00200312
0.00209023
-0.00230585
0.00232644
-0.00260804
0.00256558
-0.002901
0.00280308
-0.00317563
0.0030346
-0.00342374
0.00325644
-0.00363837
0.00346612
-0.00381622
0.00366224
-0.00395423
0.00384513
-0.00405675
0.00401505
-0.00412135
0.00417575
-0.00416126
-0.0041715
0.00432479
-3.5556e-07
0.000138603
-3.26276e-06
0.000324765
-8.39385e-06
0.000458887
-1.48019e-05
0.00055232
-2.1161e-05
0.000616689
-2.60683e-05
0.000659216
-2.81501e-05
0.00068509
-2.61247e-05
0.000697338
-1.88197e-05
0.00069745
-5.17139e-06
0.000685795
1.57863e-05
0.000662044
4.49249e-05
0.000625484
8.30289e-05
0.00057524
0.000130796
0.00051042
0.000188841
0.000430201
0.000257697
0.000333863
0.000337838
0.000220803
0.00042969
9.04928e-05
0.000533682
-5.75321e-05
0.000650264
-0.000223759
0.000779945
-0.000408705
0.000923291
-0.000612916
0.00108088
-0.000836869
0.00125318
-0.00108077
0.0014404
-0.00134421
0.00164216
-0.00162574
0.0018573
-0.00192242
0.00208361
-0.00222944
0.00231779
-0.00254004
0.0025556
-0.00284584
0.00279224
-0.00313765
0.00302295
-0.00340633
0.00324358
-0.00364437
0.00345108
-0.00384587
0.00364386
-0.00400901
0.00382159
-0.00413196
0.00398555
-0.00422071
0.00413697
-0.00427277
0.00428004
-0.00430433
-0.00430463
0.00441317
5.46263e-07
0.000138056
-3.20082e-07
0.000325631
-2.52838e-06
0.000461096
-5.30979e-06
0.000555102
-7.4342e-06
0.000618814
-7.54105e-06
0.000659323
-4.26754e-06
0.000681816
3.66986e-06
0.000689401
1.74447e-05
0.000683675
3.81108e-05
0.000665129
6.66058e-05
0.000633549
0.000103758
0.000588331
0.000150293
0.000528705
0.000206836
0.000453877
0.000273926
0.00036311
0.000352032
0.000255757
0.000441576
0.000131259
0.000542965
-1.08965e-05
0.000656642
-0.00017121
0.000783108
-0.000350224
0.000922937
-0.000548534
0.00107675
-0.000766728
0.00124511
-0.00100523
0.00142835
-0.00126401
0.00162634
-0.00154219
0.00183814
-0.00183754
0.00206179
-0.00214608
0.00229418
-0.00246182
0.00253109
-0.00277695
0.00276757
-0.00308233
0.00299852
-0.00336859
0.00321929
-0.0036271
0.00342632
-0.0038514
0.00361749
-0.00403704
0.00379229
-0.0041838
0.00395149
-0.00429115
0.00409723
-0.00436646
0.0042316
-0.00440714
0.00435897
-0.0044317
-0.00442416
0.00447851
1.35325e-06
0.000136703
2.38883e-06
0.000324596
2.96291e-06
0.000460522
3.66173e-06
0.000554403
5.62717e-06
0.000616848
1.0167e-05
0.000654783
1.86191e-05
0.000673364
3.22535e-05
0.000675766
5.22304e-05
0.000663698
7.95825e-05
0.000637777
0.000115213
0.000597918
0.000159904
0.000543641
0.00021432
0.000474289
0.000279028
0.000389169
0.000354511
0.000287627
0.000441199
0.000169069
0.000539504
3.29542e-05
0.000649862
-0.000121255
0.000772774
-0.000294121
0.000908825
-0.000486275
0.00105867
-0.000698378
0.00122295
-0.000931004
0.00140212
-0.0011844
0.00159623
-0.00145813
0.00180461
-0.00175057
0.00202555
-0.00205848
0.00225615
-0.00237668
0.00249231
-0.00269798
0.00272901
-0.00301365
0.00296087
-0.00331419
0.00318281
-0.00359053
0.00339072
-0.00383501
0.00358196
-0.00404265
0.00375555
-0.00421063
0.0039121
-0.00434036
0.00405342
-0.00443248
0.00418238
-0.00449542
0.00430167
-0.00452642
0.00441561
-0.00454565
-0.00453255
0.004524
2.06768e-06
0.000134635
4.84934e-06
0.000321814
8.01662e-06
0.000457354
1.20097e-05
0.00055041
1.78767e-05
0.000610981
2.68632e-05
0.000645797
4.02688e-05
0.000659958
5.93368e-05
0.000656698
8.52022e-05
0.000637833
0.000118867
0.000604112
0.000161197
0.000555588
0.000212926
0.000491912
0.000274673
0.000412543
0.00034696
0.000316882
0.000430245
0.000204342
0.000524958
7.4356e-05
0.000631547
-7.36348e-05
0.000750519
-0.000240227
0.000882475
-0.000426077
0.0010281
-0.000631897
0.00118809
-0.000858367
0.00136301
-0.00110593
0.0015531
-0.00137448
0.00175787
-0.00166291
0.00197592
-0.00196861
0.00220457
-0.00228713
0.0024399
-0.00261201
0.00267692
-0.002935
0.00291005
-0.00324678
0.00313383
-0.00353797
0.00334365
-0.00380035
0.0035363
-0.00402765
0.0037103
-0.00421665
0.00386589
-0.00436622
0.00400477
-0.00447923
0.0041296
-0.00455731
0.00424374
-0.00460957
0.00435023
-0.00463291
0.00445317
-0.00464859
-0.00463214
0.00455277
2.68116e-06
0.000131954
7.02902e-06
0.000317466
1.25791e-05
0.000451804
1.96463e-05
0.000543343
2.91873e-05
0.00060144
4.23793e-05
0.000632605
6.04726e-05
0.000641865
8.46721e-05
0.000632499
0.000116078
0.000606427
0.000155657
0.000564533
0.000204236
0.000507009
0.000262511
0.000433636
0.000331071
0.000343983
0.000410423
0.000237531
0.000501034
0.000113731
0.00060338
-2.79899e-05
0.000717991
-0.000188246
0.000845485
-0.000367721
0.000986575
-0.000567167
0.00114201
-0.000787336
0.00131247
-0.00102882
0.00149829
-0.00129176
0.00169924
-0.00157543
0.00191413
-0.0018778
0.00214057
-0.00219505
0.00237484
-0.0025214
0.00261203
-0.00284921
0.00284649
-0.00316946
0.00307247
-0.00347276
0.00328489
-0.00375038
0.00347997
-0.00399544
0.00365572
-0.0042034
0.00381192
-0.00437285
0.00394998
-0.00450428
0.00407251
-0.00460176
0.00418277
-0.00466757
0.00428438
-0.00471117
0.00438046
-0.00472899
0.00447475
-0.00474289
-0.00472511
0.00456772
3.18842e-06
0.000128766
8.90887e-06
0.000311746
1.66082e-05
0.000444105
2.65001e-05
0.000533451
3.94549e-05
0.000588486
5.65773e-05
0.000615482
7.90601e-05
0.000619382
0.000108061
0.000603498
0.00014464
0.000569848
0.000189727
0.000519446
0.000244118
0.000452618
0.000308488
0.000369267
0.000383417
0.000269053
0.000469434
0.000151513
0.000567061
1.61041e-05
0.000676864
-0.000137793
0.000799492
-0.000310874
0.000935692
-0.000503921
0.00108626
-0.00071774
0.00125196
-0.000953027
0.00143325
-0.00121011
0.00163008
-0.00148859
0.00184149
-0.00178685
0.00206537
-0.00210167
0.00229822
-0.0024279
0.0025353
-0.00275848
0.00277094
-0.00308485
0.00299919
-0.00339771
0.00321457
-0.00368814
0.00341281
-0.00394862
0.00359133
-0.00417396
0.00374944
-0.00436151
0.00388818
-0.00451159
0.00400995
-0.00462605
0.00411801
-0.00470982
0.00421596
-0.00476552
0.00430741
-0.00480263
0.0043954
-0.00481698
0.00448321
-0.00483069
-0.00481329
0.00457139
3.58676e-06
0.000125179
1.04767e-05
0.000304856
2.00747e-05
0.000434507
3.25195e-05
0.000521006
4.86022e-05
0.000572403
6.93543e-05
0.00059473
9.59061e-05
0.00059283
0.000129364
0.00057004
0.000170747
0.000528466
0.000220953
0.00046924
0.000280761
0.00039281
0.000350846
0.000299182
0.000431817
0.000188082
0.000524264
5.90673e-05
0.000628806
-8.84379e-05
0.000746137
-0.000255124
0.000877046
-0.000441783
0.00102239
-0.00064926
0.00118297
-0.000878327
0.0013594
-0.00112946
0.00155177
-0.00140248
0.00175935
-0.00169616
0.00198026
-0.00200776
0.00221128
-0.00233269
0.00244784
-0.00266446
0.00268434
-0.00299498
0.00291471
-0.00331522
0.00313316
-0.00361616
0.00333496
-0.00388994
0.003517
-0.00413065
0.00367804
-0.004335
0.00381872
-0.00450218
0.00394114
-0.00463401
0.00404845
-0.00473336
0.00414426
-0.00480563
0.00423225
-0.00485352
0.00431585
-0.00488623
0.00439785
-0.00489898
0.00448102
-0.00491386
-0.00489819
0.00456592
3.87587e-06
0.000121303
1.17273e-05
0.000297004
2.29631e-05
0.000423271
3.76738e-05
0.000506295
5.65816e-05
0.000553495
8.06473e-05
0.000570665
0.000110938
0.000562539
0.000148511
0.000532468
0.000194346
0.00048263
0.000249324
0.000414261
0.000314226
0.000327908
0.00038976
0.000223648
0.0004766
0.000101243
0.000575438
-3.97716e-05
0.000687032
-0.000200031
0.000812221
-0.000380314
0.000951915
-0.000581478
0.001107
-0.000804349
0.00127819
-0.00104951
0.00146571
-0.00131698
0.00166903
-0.00160581
0.00188654
-0.00191367
0.00211524
-0.00223646
0.0023508
-0.00256825
0.00258773
-0.00290139
0.00281991
-0.00322717
0.00304133
-0.00353664
0.00324686
-0.00382169
0.00343287
-0.00407595
0.00359762
-0.0042954
0.00374125
-0.00447863
0.00386552
-0.00462646
0.00397338
-0.00474186
0.0040684
-0.00482838
0.00415428
-0.00489151
0.0042346
-0.00493383
0.00431241
-0.00496404
0.0043902
-0.00497677
0.00447023
-0.00499389
-0.00498097
0.00455301
4.05778e-06
0.000117245
1.26631e-05
0.000288399
2.5272e-05
0.000410662
4.1955e-05
0.000489612
6.33781e-05
0.000532072
9.0438e-05
0.000543605
0.000124144
0.000528834
0.000165506
0.000491105
0.000215483
0.000432654
0.000274954
0.00035479
0.000344733
0.00025813
0.000425593
0.000142788
0.000518315
8.51981e-06
0.000623734
-0.00014519
0.000742757
-0.000319055
0.000876362
-0.000513918
0.00102551
-0.000730629
0.00119101
-0.000969847
0.00137324
-0.00123174
0.00157186
-0.00151559
0.00178546
-0.00181941
0.00201134
-0.00213954
0.00224537
-0.00247049
0.00248221
-0.0028051
0.00271578
-0.00313496
0.00293991
-0.00345129
0.00314912
-0.00374585
0.00333934
-0.00401191
0.0035083
-0.00424491
0.00365565
-0.00444276
0.00378277
-0.00460575
0.00389232
-0.00473601
0.00398774
-0.00483728
0.00407276
-0.0049134
0.00415097
-0.00496973
0.00422564
-0.0050085
0.00429943
-0.00503783
0.00437445
-0.00505179
0.0044525
-0.00507194
-0.00506249
0.00453401
4.13675e-06
0.000113109
1.32934e-05
0.000279242
2.70145e-05
0.000396941
4.53789e-05
0.000471248
6.90116e-05
0.000508439
9.87559e-05
0.00051386
0.000135572
0.000492018
0.00018044
0.000446237
0.000234312
0.000378782
0.000298094
0.000291008
0.000372663
0.00018356
0.0004589
5.65506e-05
0.000557729
-9.03083e-05
0.000670139
-0.0002576
0.000797185
-0.000446102
0.000939921
-0.000656653
0.00109925
-0.000889957
0.00127569
-0.00114629
0.00146909
-0.00142514
0.00167827
-0.00172477
0.00190075
-0.0020419
0.00213268
-0.00237147
0.00236889
-0.0027067
0.00260335
-0.00303956
0.0028298
-0.00336141
0.0030425
-0.00366399
0.00323696
-0.00394032
0.00341043
-0.00418538
0.00356206
-0.00439655
0.0036928
-0.00457349
0.00380498
-0.00471793
0.00390186
-0.00483289
0.0039871
-0.00492251
0.00406435
-0.00499065
0.0041369
-0.00504228
0.00420766
-0.00507926
0.00427882
-0.00510899
0.00435218
-0.00512515
0.0044291
-0.00514885
-0.00514333
0.00450994
4.11923e-06
0.000108989
1.3635e-05
0.000269726
2.82184e-05
0.000382358
4.79853e-05
0.000451481
7.35378e-05
0.000482887
0.000105681
0.000481717
0.000145343
0.000452356
0.000193492
0.000398088
0.000251098
0.000321176
0.000319128
0.000222978
0.000398561
0.000104128
0.000490415
-3.53039e-05
0.000595777
-0.00019567
0.00071579
-0.000377613
0.000851603
-0.000581915
0.00100423
-0.000809283
0.00117435
-0.00106007
0.00136196
-0.00133391
0.00156613
-0.0016293
0.00178463
-0.00194327
0.00201385
-0.00227112
0.00224882
-0.00260644
0.00248362
-0.0029415
0.00271193
-0.00326787
0.00292781
-0.00357729
0.00312641
-0.00386259
0.00330452
-0.00411842
0.00346079
-0.00434165
0.00359571
-0.00453147
0.00371128
-0.00468906
0.00381051
-0.00481715
0.00389694
-0.00491932
0.00397419
-0.00499977
0.00404568
-0.00506213
0.00411429
-0.0051109
0.00418252
-0.00514748
0.00425212
-0.00517859
0.00432462
-0.00519764
0.00440099
-0.00522523
-0.00522389
0.00448154
4.01373e-06
0.000104976
1.37115e-05
0.000260029
2.89258e-05
0.000367143
4.98382e-05
0.000430568
7.70485e-05
0.000455676
0.000111344
0.000447421
0.000153642
0.000410058
0.000204925
0.000346805
0.000266216
0.000259886
0.000338573
0.00015062
0.000423111
1.95901e-05
0.00052101
-0.000133204
0.000633517
-0.000308176
0.000761885
-0.000505982
0.000907256
-0.000727285
0.00107045
-0.000972474
0.00125167
-0.00124129
0.0014502
-0.00153243
0.00166407
-0.00184318
0.00188993
-0.00216913
0.00212303
-0.00250422
0.00235757
-0.00284098
0.00258724
-0.00317116
0.00280591
-0.00348655
0.00300843
-0.00377981
0.00319115
-0.00404531
0.00335226
-0.00427952
0.00349178
-0.00448117
0.00361132
-0.00465101
0.00371363
-0.00479136
0.00380207
-0.00490559
0.00388022
-0.00499748
0.00395149
-0.00507104
0.0040189
-0.00512955
0.00408494
-0.00517694
0.00415168
-0.00521423
0.00422051
-0.00524742
0.00429268
-0.00526982
0.00436888
-0.00530142
-0.00530439
0.00444938
3.83062e-06
0.000101145
1.35528e-05
0.000250307
2.91924e-05
0.000351504
5.10245e-05
0.000408736
7.9671e-05
0.00042703
0.000115926
0.000411166
0.000160723
0.00036526
0.000215092
0.000292437
0.000280139
0.000194838
0.000357054
7.37054e-05
0.000447109
-7.04642e-05
0.000551649
-0.000237744
0.000672044
-0.000428571
0.000809569
-0.000643507
0.000965207
-0.000882923
0.00113937
-0.00114664
0.00133157
-0.00143349
0.00154012
-0.00174099
0.00176193
-0.00206499
0.00199249
-0.00239969
0.00222615
-0.00273788
0.00245661
-0.00307144
0.00267764
-0.00339219
0.00288378
-0.00369269
0.00307099
-0.00396703
0.00323701
-0.00421133
0.0033814
-0.00442391
0.00350535
-0.00460513
0.0036113
-0.00475697
0.00370244
-0.0048825
0.00378223
-0.00498539
0.00385409
-0.00506933
0.00392106
-0.00513801
0.00398577
-0.00519426
0.00405027
-0.00524144
0.00411629
-0.00528024
0.00418485
-0.00531598
0.00425706
-0.00534203
0.00433328
-0.00537764
-0.00538495
0.00441384
3.58198e-06
9.75631e-05
1.31948e-05
0.000240694
2.90859e-05
0.000335613
5.16526e-05
0.00038617
8.15647e-05
0.000397118
0.000119653
0.000373078
0.000166899
0.000318014
0.000224414
0.000234922
0.000293427
0.000125825
0.000375281
-8.14824e-06
0.000471415
-0.000166598
0.000583313
-0.000349642
0.000712393
-0.000557652
0.000859815
-0.000790928
0.00102621
-0.00104931
0.00121134
-0.00133177
0.00141381
-0.00163597
0.00163082
-0.001958
0.00185812
-0.00229228
0.00209023
-0.0026318
0.00232089
-0.00296855
0.00254378
-0.00329434
0.0027532
-0.00360161
0.00294472
-0.00388421
0.00311562
-0.00413793
0.00326502
-0.00436072
0.0033937
-0.00455258
0.00350375
-0.00471518
0.00359814
-0.00485135
0.00368021
-0.00496457
0.00375332
-0.0050585
0.00382058
-0.00513658
0.00388462
-0.00520205
0.00394767
-0.0052573
0.00401139
-0.00530517
0.00407718
-0.00534603
0.00414579
-0.00538459
0.00421823
-0.00541447
0.00429456
-0.00545398
-0.00546563
0.00437524
3.2813e-06
9.42818e-05
1.26782e-05
0.000231297
2.86853e-05
0.000319606
5.18494e-05
0.000363006
8.29179e-05
0.000366049