/*--------------------------------*- C++ -*----------------------------------*\
  =========                 |
  \\      /  F ield         | OpenFOAM: The Open Source CFD Toolbox
   \\    /   O peration     | Website:  https://openfoam.org
    \\  /    A nd           | Version:  7
     \\/     M anipulation  |
\*---------------------------------------------------------------------------*/
FoamFile
{
    version     2.0;
    format      ascii;
    class       volVectorField;
    location    "5";
    object      U;
}
// * * * * * * * * * * * * * * * * * * * * * * * * * * * * * * * * * * * * * //

dimensions      [0 1 -1 0 0 0 0];

internalField   nonuniform List<vector> 
48400
(
(-0.00401576 0.00194267 3.06724e-21)
(-0.0233438 0.00404969 6.50028e-21)
(-0.0550464 0.00524211 1.37129e-22)
(-0.0891108 0.00589934 5.4763e-21)
(-0.12502 0.00625485 -1.53317e-22)
(-0.160781 0.00644715 -4.99521e-22)
(-0.196042 0.00655176 -4.64111e-21)
(-0.230464 0.00660578 -4.54976e-22)
(-0.263942 0.0066223 1.18795e-21)
(-0.296371 0.00660161 -3.14039e-21)
(-0.327645 0.00653794 1.2688e-21)
(-0.357627 0.0064232 -1.8522e-21)
(-0.386149 0.00624882 -3.10889e-21)
(-0.413018 0.0060065 -5.95658e-21)
(-0.438019 0.00568847 4.95248e-21)
(-0.460918 0.0052876 4.89482e-21)
(-0.481465 0.00479744 2.37086e-21)
(-0.499404 0.00421229 1.92918e-21)
(-0.514467 0.00352713 -3.81783e-21)
(-0.526384 0.00273772 1.03776e-21)
(-0.534883 0.00184068 -3.74878e-21)
(-0.539693 0.000833661 2.97336e-21)
(-0.54055 -0.000284338 3.20037e-21)
(-0.537198 -0.00151248 -9.16873e-23)
(-0.529395 -0.00284722 1.90258e-22)
(-0.516922 -0.00428156 1.07743e-21)
(-0.49961 -0.00580334 1.0678e-21)
(-0.477338 -0.00739941 -2.21664e-21)
(-0.450042 -0.00904529 -1.21391e-22)
(-0.417742 -0.010712 -2.63916e-21)
(-0.380559 -0.0123651 -3.90475e-21)
(-0.338723 -0.0139663 2.28763e-21)
(-0.292577 -0.0154741 8.86493e-22)
(-0.242575 -0.0168492 5.31135e-22)
(-0.189267 -0.018054 5.69107e-22)
(-0.133285 -0.019061 5.3029e-22)
(-0.0753219 -0.0198485 2.07267e-22)
(-0.0159861 -0.0204293 -1.45429e-22)
(0.043789 -0.0207636 6.27714e-23)
(0.104397 -0.0210391 2.65938e-23)
(-0.00411836 0.00580467 -1.23623e-20)
(-0.0234246 0.0121101 -1.28553e-20)
(-0.0549487 0.0156843 3.94539e-21)
(-0.0887911 0.0176565 -7.13427e-21)
(-0.124443 0.0187245 -4.25861e-21)
(-0.159925 0.019302 -1.60066e-21)
(-0.19488 0.0196154 1.08163e-20)
(-0.228967 0.0197761 -6.52454e-21)
(-0.262075 0.0198237 -5.67041e-21)
(-0.294095 0.0197592 3.64846e-21)
(-0.324918 0.0195655 8.51746e-21)
(-0.354402 0.0192187 1.63115e-20)
(-0.382378 0.018693 1.38033e-21)
(-0.40865 0.0179638 1.69174e-20)
(-0.433002 0.0170079 8.06008e-21)
(-0.455197 0.0158039 1.34789e-21)
(-0.474987 0.014333 9.56629e-21)
(-0.492115 0.012578 -6.1385e-21)
(-0.506316 0.0105243 1.15967e-20)
(-0.517322 0.00815937 7.80206e-21)
(-0.524864 0.00547344 5.57971e-21)
(-0.528679 0.00245973 2.06707e-21)
(-0.528506 -0.000884504 -4.00657e-21)
(-0.524099 -0.00455652 8.75194e-21)
(-0.515225 -0.00854521 4.57184e-21)
(-0.501673 -0.0128295 -5.92184e-21)
(-0.483288 -0.0173762 -2.28173e-21)
(-0.459958 -0.0221409 9.49802e-21)
(-0.431627 -0.0270522 -8.32315e-22)
(-0.39833 -0.0320235 6.98029e-21)
(-0.3602 -0.0369518 4.54708e-21)
(-0.317479 -0.0417216 -4.63559e-21)
(-0.270525 -0.0462086 -1.09757e-21)
(-0.219805 -0.0502952 3.83461e-22)
(-0.165886 -0.053868 -6.5079e-22)
(-0.10941 -0.0568454 -1.27484e-21)
(-0.0511022 -0.0591587 3.9088e-22)
(0.00845949 -0.0608413 3.12626e-22)
(0.0681497 -0.0617762 4.70668e-23)
(0.128887 -0.0625489 -1.21508e-22)
(-0.00432118 0.00959879 2.51155e-20)
(-0.0235844 0.0200558 2.27952e-20)
(-0.0547545 0.0260016 -1.12811e-20)
(-0.0881561 0.029291 2.33566e-20)
(-0.123297 0.031076 1.58282e-21)
(-0.158222 0.0320413 -4.43013e-21)
(-0.192571 0.032563 -1.5088e-20)
(-0.225991 0.0328269 -1.06878e-21)
(-0.258364 0.0329 1.04314e-20)
(-0.289573 0.032785 -1.57448e-21)
(-0.3195 0.0324541 -1.70736e-20)
(-0.347999 0.0318678 -5.74045e-21)
(-0.374894 0.0309837 -5.52253e-21)
(-0.399987 0.029761 -2.43609e-20)
(-0.423057 0.0281617 -2.73626e-20)
(-0.443868 0.0261508 -1.91151e-20)
(-0.462171 0.0236973 -9.41198e-21)
(-0.477709 0.0207737 -3.09299e-20)
(-0.490223 0.0173562 -1.01314e-20)
(-0.49945 0.0134252 -2.43581e-20)
(-0.505133 0.00896523 -9.31851e-21)
(-0.507016 0.00396601 3.25038e-21)
(-0.504857 -0.00157612 -1.53548e-20)
(-0.498423 -0.00765564 4.89385e-21)
(-0.487502 -0.0142517 -8.85848e-21)
(-0.471902 -0.0213253 4.13e-21)
(-0.45149 -0.0288474 3.95425e-21)
(-0.426176 -0.0367122 -6.50228e-21)
(-0.395925 -0.0448118 9.87134e-21)
(-0.360796 -0.0530032 -1.38545e-20)
(-0.320946 -0.0611154 1.1665e-21)
(-0.276641 -0.0689556 -5.43787e-23)
(-0.228266 -0.0763159 2.26364e-21)
(-0.176313 -0.0830037 -2.17484e-21)
(-0.121378 -0.0888261 -1.45253e-23)
(-0.0641201 -0.0936459 -1.16003e-21)
(-0.00531806 -0.0973444 -9.90152e-22)
(0.0545228 -0.0999777 6.203e-23)
(0.113877 -0.101329 2.02348e-22)
(0.174737 -0.102444 2.53407e-22)
(-0.00461964 0.0132823 -2.63531e-20)
(-0.0238199 0.0278135 -8.01049e-22)
(-0.0544663 0.036113 2.33359e-20)
(-0.0872139 0.0407224 -9.72614e-21)
(-0.121595 0.0432319 -1.59074e-21)
(-0.155694 0.0445893 1.77137e-20)
(-0.18914 0.0453183 1.87907e-20)
(-0.221572 0.0456801 -3.47223e-21)
(-0.252855 0.0457699 -1.17076e-20)
(-0.282863 0.0455937 -1.01392e-20)
(-0.311466 0.0451137 2.09175e-21)
(-0.33851 0.0442759 -2.24197e-20)
(-0.363813 0.043022 4.12391e-20)
(-0.387173 0.0412957 2.76055e-20)
(-0.408365 0.0390447 -6.86669e-21)
(-0.427151 0.0362213 -1.03922e-20)
(-0.443285 0.0327833 -2.13893e-20)
(-0.456515 0.028694 3.90358e-20)
(-0.466589 0.0239221 7.59651e-22)
(-0.473256 0.018442 3.32617e-20)
(-0.476273 0.0122341 2.37521e-20)
(-0.475406 0.00528605 -1.32274e-20)
(-0.470433 -0.00240552 2.4622e-20)
(-0.461149 -0.0108316 -6.80931e-21)
(-0.447367 -0.0199636 1.19369e-20)
(-0.428944 -0.0297449 1.61961e-21)
(-0.405767 -0.0401331 5.01686e-21)
(-0.377766 -0.0509819 -1.26108e-20)
(-0.344954 -0.0621429 -7.68354e-21)
(-0.307422 -0.0734174 7.89185e-21)
(-0.26536 -0.0845671 6.88351e-21)
(-0.219066 -0.0953219 -1.02343e-20)
(-0.168964 -0.10539 7.02375e-21)
(-0.115572 -0.114514 1.55857e-21)
(-0.0595258 -0.122401 2.00321e-21)
(-0.00150072 -0.128867 5.80562e-21)
(0.057639 -0.133749 -1.02055e-21)
(0.117552 -0.13713 -6.2841e-22)
(0.176093 -0.138654 -1.05482e-21)
(0.236839 -0.139881 -5.29323e-22)
(-0.00500708 0.0168145 1.17051e-20)
(-0.0241262 0.0353118 -3.42606e-20)
(-0.0540877 0.0459394 -1.81376e-20)
(-0.085977 0.0518721 -1.2737e-20)
(-0.11936 0.0551157 5.64228e-21)
(-0.152371 0.0568708 2.5645e-20)
(-0.18463 0.0578063 -2.70976e-20)
(-0.215761 0.0582585 6.54112e-21)
(-0.245616 0.0583533 1.21794e-20)
(-0.27405 0.0581012 -9.16915e-21)
(-0.300922 0.0574566 1.1562e-20)
(-0.326069 0.0563516 1.07407e-20)
(-0.349304 0.0547131 -2.83827e-20)
(-0.370416 0.0524702 -2.21752e-20)
(-0.389181 0.0495573 -1.01778e-21)
(-0.405363 0.0459154 2.42542e-20)
(-0.418718 0.0414925 1.65339e-20)
(-0.429005 0.0362443 -7.32289e-21)
(-0.435983 0.0301335 -1.88497e-20)
(-0.439422 0.0231306 1.23814e-20)
(-0.4391 0.015214 -6.44657e-21)
(-0.434813 0.00637103 -5.11824e-21)
(-0.426371 -0.00339989 1.30109e-20)
(-0.413606 -0.0140848 1.13799e-21)
(-0.396367 -0.0256485 5.21575e-21)
(-0.374561 -0.0380274 -8.20109e-21)
(-0.348115 -0.0511282 -2.10406e-20)
(-0.316995 -0.0648025 -8.94041e-21)
(-0.28126 -0.0788536 -6.34885e-22)
(-0.24104 -0.0930276 3.9871e-21)
(-0.196566 -0.107022 -1.48381e-20)
(-0.148172 -0.120489 8.26366e-21)
(-0.0963372 -0.133055 -1.66742e-21)
(-0.0415959 -0.144401 6.62218e-21)
(0.0153702 -0.154113 -7.98052e-21)
(0.0738693 -0.161995 2.77598e-21)
(0.132914 -0.167832 -4.26367e-21)
(0.192455 -0.171719 4.62248e-22)
(0.24952 -0.173171 9.47341e-22)
(0.309669 -0.174243 3.32446e-23)
(-0.005475 0.0201573 -1.20344e-22)
(-0.0244972 0.0424836 1.38675e-20)
(-0.0536234 0.0554045 1.48739e-20)
(-0.0844614 0.0626631 -9.26298e-21)
(-0.116618 0.0666525 -1.82275e-20)
(-0.148293 0.0688123 -5.68891e-20)
(-0.179092 0.069953 -9.0847e-21)
(-0.208629 0.070487 -1.22995e-21)
(-0.236733 0.0705724 -5.97074e-21)
(-0.263244 0.0702269 4.45513e-20)
(-0.288009 0.0693986 9.77346e-21)
(-0.310852 0.0680076 -6.05962e-21)
(-0.331581 0.0659673 -3.00923e-20)
(-0.349984 0.0631933 5.94382e-21)
(-0.365835 0.0596082 -1.9848e-20)
(-0.378903 0.055143 7.44313e-22)
(-0.388955 0.0497378 -2.31449e-20)
(-0.395763 0.0433426 -7.62897e-21)
(-0.399108 0.0359164 2.26524e-21)
(-0.398784 0.0274282 -5.64629e-20)
(-0.394602 0.0178565 -3.01426e-20)
(-0.386394 0.00719039 2.53725e-20)
(-0.374014 -0.00456788 -3.54877e-20)
(-0.357338 -0.0173956 -6.97671e-21)
(-0.336266 -0.0312435 -4.34833e-20)
(-0.31075 -0.0460706 -1.2047e-20)
(-0.280767 -0.0617176 3.96301e-20)
(-0.246334 -0.0780254 3.72191e-20)
(-0.207553 -0.0947589 9.42494e-22)
(-0.164598 -0.111612 1.03986e-21)
(-0.117744 -0.128223 -8.31764e-21)
(-0.0673675 -0.144167 -1.75698e-20)
(-0.0140049 -0.158997 3.65872e-21)
(0.0417906 -0.172263 -2.00083e-20)
(0.0992931 -0.183561 8.9975e-21)
(0.157787 -0.192609 1.14988e-21)
(0.216142 -0.199154 -2.84855e-21)
(0.274711 -0.203287 -5.00834e-21)
(0.329553 -0.204452 1.8901e-21)
(0.388426 -0.205088 1.12671e-21)
(-0.00601321 0.0232765 2.27713e-20)
(-0.0249251 0.049266 8.89641e-21)
(-0.0530793 0.0644362 -1.31368e-20)
(-0.0826869 0.0730216 2.62277e-20)
(-0.113404 0.0777693 1.38715e-20)
(-0.143507 0.0803419 -1.16439e-20)
(-0.172592 0.0816869 5.68192e-20)
(-0.200258 0.0822928 3.09739e-20)
(-0.226314 0.0823524 1.30617e-21)
(-0.250581 0.0818935 -2.62933e-20)
(-0.272893 0.0808601 -1.74864e-20)
(-0.293066 0.0791624 1.66394e-20)
(-0.310903 0.0767016 -2.81267e-20)
(-0.326191 0.0733818 4.07047e-20)
(-0.33871 0.0691152 -1.961e-20)
(-0.348239 0.0638247 2.89174e-20)
(-0.354559 0.0574445 3.33691e-20)
(-0.357464 0.0499211 4.44985e-20)
(-0.356763 0.0412124 3.72601e-20)
(-0.352283 0.0312882 5.14377e-20)
(-0.343876 0.0201295 4.37585e-20)
(-0.331418 0.00772933 1.15969e-20)
(-0.314812 -0.00590469 9.89686e-21)
(-0.293982 -0.0207421 -2.57037e-20)
(-0.268901 -0.0367295 1.40936e-20)
(-0.239558 -0.0538067 2.1438e-20)
(-0.205966 -0.0717988 -3.07569e-21)
(-0.168214 -0.0905207 -3.28576e-20)
(-0.12644 -0.109704 -3.4452e-21)
(-0.0808684 -0.12899 1.29835e-20)
(-0.0318179 -0.147962 2.82078e-21)
(0.0202862 -0.166109 3.52978e-21)
(0.0748837 -0.182921 1.07185e-20)
(0.131336 -0.197831 6.32906e-21)
(0.188861 -0.210446 -6.55821e-21)
(0.246806 -0.220379 3.96284e-21)
(0.303823 -0.22737 3.87463e-21)
(0.360742 -0.231485 8.29116e-22)
(0.412626 -0.23218 -6.89722e-21)
(0.469426 -0.232098 -1.12763e-21)
(-0.00661018 0.0261418 1.93807e-20)
(-0.0254015 0.0556022 -5.24037e-21)
(-0.0524622 0.0729668 4.46568e-20)
(-0.0806766 0.0828769 -5.13146e-20)
(-0.109757 0.0883957 2.16067e-20)
(-0.138071 0.0913899 2.23611e-20)
(-0.165205 0.0929384 9.25817e-21)
(-0.190746 0.0936055 -5.76225e-20)
(-0.214481 0.0936218 2.06096e-20)
(-0.236215 0.0930276 -2.54557e-20)
(-0.255767 0.0917662 2.15308e-20)
(-0.272949 0.08974 1.53486e-20)
(-0.287561 0.0868401 3.61803e-20)
(-0.299394 0.0829607 -6.71793e-20)
(-0.308239 0.0780058 3.25439e-20)
(-0.313888 0.071892 -5.15593e-20)
(-0.316148 0.0645501 -3.86092e-20)
(-0.314839 0.0559256 -6.03689e-20)
(-0.309805 0.0459772 -3.52017e-20)
(-0.300915 0.0346784 -1.93891e-20)
(-0.288069 0.0220146 1.63237e-20)
(-0.271193 0.00798478 -1.71382e-20)
(-0.250242 -0.00739635 -5.30282e-21)
(-0.225196 -0.0240913 -2.285e-20)
(-0.196081 -0.0420582 7.85722e-21)
(-0.162935 -0.0611738 -4.52588e-21)
(-0.125823 -0.0812922 -1.64388e-20)
(-0.0848778 -0.102194 2.24835e-20)
(-0.0402789 -0.123579 6.32376e-20)
(0.00770014 -0.145036 -1.06244e-20)
(0.0586975 -0.166083 2.81909e-20)
(0.112233 -0.186144 -1.54751e-21)
(0.167686 -0.20463 -1.08648e-21)
(0.224369 -0.220928 9.32109e-21)
(0.281413 -0.234546 -1.06721e-20)
(0.338233 -0.245055 -9.58893e-21)
(0.393264 -0.252225 -9.41669e-21)
(0.447828 -0.256055 7.33677e-21)
(0.496087 -0.256129 1.22493e-21)
(0.549962 -0.25506 4.61509e-21)
(-0.00725334 0.0287276 -8.23473e-20)
(-0.025917 0.0614415 1.93341e-20)
(-0.0517798 0.080934 -2.78298e-20)
(-0.0784563 0.0921625 5.53395e-20)
(-0.105723 0.0984644 -3.57041e-20)
(-0.132049 0.101889 4.38525e-21)
(-0.157016 0.10364 -3.20947e-20)
(-0.180202 0.104358 8.67212e-21)
(-0.201373 0.104312 3.84162e-21)
(-0.220317 0.103561 8.8343e-20)
(-0.236844 0.102048 1.94531e-20)
(-0.250762 0.099671 -7.98017e-22)
(-0.261873 0.0963141 1.57921e-20)
(-0.269978 0.0918636 -4.16658e-20)
(-0.274883 0.086217 -3.03212e-20)
(-0.276403 0.0792873 -3.84499e-20)
(-0.274372 0.0710039 4.1919e-20)
(-0.268649 0.0613136 7.68781e-20)
(-0.259118 0.0501785 5.7953e-20)
(-0.245696 0.0375776 8.19701e-21)
(-0.228333 0.0235028 -1.48081e-20)
(-0.207009 0.00795999 3.35391e-20)
(-0.181732 -0.00902861 3.62252e-20)
(-0.152543 -0.0274211 6.26276e-20)
(-0.119505 -0.0471655 -7.13838e-20)
(-0.0827003 -0.068127 -4.67932e-20)
(-0.0422432 -0.0901518 4.78011e-20)
(0.00169419 -0.112996 -5.38007e-20)
(0.0488945 -0.136321 -5.51662e-20)
(0.0990446 -0.159679 -1.74898e-20)
(0.151713 -0.182514 -5.50583e-20)
(0.206362 -0.204198 -7.66512e-21)
(0.262299 -0.224053 -3.62144e-21)
(0.318777 -0.241406 -1.50744e-20)
(0.374835 -0.255707 1.77962e-20)
(0.429951 -0.266475 -2.52498e-20)
(0.482373 -0.273551 1.71391e-20)
(0.533873 -0.276833 -1.01671e-20)
(0.577925 -0.276162 -1.94849e-21)
(0.628024 -0.273862 1.52949e-21)
(-0.00792938 0.0310135 4.73162e-20)
(-0.0264614 0.0667405 -4.88781e-20)
(-0.0510406 0.0882819 7.56807e-21)
(-0.0760547 0.100817 -5.57862e-20)
(-0.10135 0.107911 1.40898e-22)
(-0.125511 0.111775 1.7587e-20)
(-0.148119 0.113729 -1.07704e-20)
(-0.168746 0.114486 -2.06981e-20)
(-0.187139 0.11436 -1.08533e-20)
(-0.203074 0.113428 5.63887e-21)
(-0.216354 0.11164 -6.12928e-21)
(-0.226786 0.108892 -9.19584e-20)
(-0.234179 0.105062 6.01711e-20)
(-0.23835 0.100032 -3.98819e-21)
(-0.239126 0.093695 -9.87964e-21)
(-0.236352 0.0859626 3.36852e-20)
(-0.229898 0.0767651 4.07787e-21)
(-0.219663 0.066053 -1.64679e-20)
(-0.205581 0.0537934 -6.19376e-20)
(-0.187619 0.0399727 -2.34267e-20)
(-0.16578 0.02459 -4.64428e-20)
(-0.140098 0.00765965 -2.10677e-20)
(-0.110628 -0.0107889 1.86863e-20)
(-0.0774588 -0.03072 -3.56614e-21)
(-0.0406938 -0.0520486 6.43275e-20)
(-0.000448463 -0.0746557 1.03591e-19)
(0.0431262 -0.0983669 -6.30179e-20)
(0.0898304 -0.122919 -1.26211e-20)
(0.139398 -0.147929 -1.50327e-20)
(0.191468 -0.172917 4.1479e-20)
(0.245541 -0.197258 5.93232e-22)
(0.300995 -0.220249 2.9183e-20)
(0.357045 -0.241143 3.97814e-20)
(0.412878 -0.259201 4.05558e-21)
(0.467437 -0.273847 3.14598e-21)
(0.520259 -0.284546 2.86351e-20)
(0.569471 -0.291254 -6.4657e-21)
(0.617211 -0.293739 3.19953e-21)
(0.656563 -0.292224 1.07378e-20)
(0.702079 -0.288497 -6.47953e-21)
(-0.00862468 0.0329846 -2.94785e-20)
(-0.0270244 0.0714635 -4.74739e-20)
(-0.0502536 0.0949611 -3.95095e-20)
(-0.0735023 0.108782 3.94747e-20)
(-0.0966919 0.116676 -3.71042e-20)
(-0.118533 0.120987 7.80574e-21)
(-0.138615 0.123142 -8.08188e-23)
(-0.156506 0.123929 2.89234e-20)
(-0.17194 0.123705 2.89681e-20)
(-0.184684 0.12257 -2.93837e-20)
(-0.194538 0.120484 -3.7947e-20)
(-0.201312 0.117346 2.87172e-20)
(-0.20483 0.11303 -2.616e-20)
(-0.204927 0.107415 4.39098e-22)
(-0.20146 0.100394 9.44969e-20)
(-0.19431 0.0918781 5.84815e-20)
(-0.183386 0.0818011 2.41297e-20)
(-0.168638 0.0701192 -6.3786e-20)
(-0.150048 0.0568049 9.75188e-21)
(-0.127636 0.041854 7.05243e-20)
(-0.101456 0.0252726 -3.50889e-21)
(-0.0715884 0.00708276 -7.25148e-20)
(-0.038138 -0.012682 -7.88629e-20)
(-0.00122257 -0.0339798 -8.79489e-20)
(0.0390294 -0.0567176 -8.24242e-20)
(0.0824714 -0.0807763 -4.94947e-20)
(0.128928 -0.105964 1.68112e-20)
(0.178172 -0.131994 -1.80328e-20)
(0.229889 -0.158453 5.10391e-20)
(0.28365 -0.184797 -7.0777e-20)
(0.338869 -0.210345 2.90686e-20)
(0.394818 -0.234315 -2.31715e-20)
(0.450598 -0.255897 -2.65373e-20)
(0.505319 -0.274293 3.4111e-21)
(0.557843 -0.28893 1.36898e-20)
(0.607764 -0.299231 -1.95113e-20)
(0.653181 -0.305303 6.19538e-21)
(0.696496 -0.306772 -8.23122e-21)
(0.730742 -0.304346 -3.48276e-21)
(0.770969 -0.299067 -8.24322e-21)
(-0.00932565 0.0346312 3.6341e-20)
(-0.0275954 0.075583 4.08829e-20)
(-0.0494286 0.10093 7.26868e-22)
(-0.0708314 0.116009 -5.41053e-20)
(-0.0918048 0.124703 6.95829e-20)
(-0.111197 0.129467 3.51734e-20)
(-0.128609 0.131823 9.16685e-20)
(-0.143616 0.132629 8.27627e-20)
(-0.155944 0.132289 -7.10384e-20)
(-0.165354 0.130931 7.32035e-22)
(-0.171646 0.128527 -1.67799e-20)
(-0.174641 0.124981 5.23174e-20)
(-0.174181 0.120168 6.76424e-21)
(-0.170129 0.113968 -1.09712e-20)
(-0.162375 0.106274 1.74581e-20)
(-0.15084 0.0970008 -4.85501e-20)
(-0.135481 0.0860853 -8.98508e-20)
(-0.116297 0.0734923 5.91816e-20)
(-0.0933222 0.0591995 -4.1836e-20)
(-0.0666265 0.0432125 -1.75544e-20)
(-0.0363106 0.0255442 -2.84023e-20)
(-0.00249449 0.00622175 1.5143e-19)
(0.0346858 -0.0147195 1.50248e-20)
(0.0750894 -0.037222 5.93695e-20)
(0.118574 -0.0612026 2.03032e-20)
(0.164976 -0.0865317 -3.07911e-21)
(0.214103 -0.113001 2.99588e-20)
(0.26569 -0.140295 6.79099e-20)
(0.319365 -0.167959 -9.1109e-21)
(0.374607 -0.195387 5.17449e-20)
(0.430712 -0.221829 2.77196e-20)
(0.486822 -0.24643 -1.12707e-20)
(0.541909 -0.268328 1.62043e-20)
(0.595002 -0.286682 2.00274e-22)
(0.644915 -0.300948 -1.43991e-20)
(0.691308 -0.310533 1.85901e-21)
(0.73236 -0.315726 -2.36299e-22)
(0.770647 -0.31601 2.40174e-20)
(0.79948 -0.312641 -1.5405e-20)
(0.833861 -0.305772 1.9712e-20)
(-0.0100191 0.0359496 -2.93668e-21)
(-0.0281641 0.0790801 4.86502e-20)
(-0.0485756 0.106154 5.97392e-20)
(-0.0680754 0.122452 5.26578e-20)
(-0.0867469 0.131942 -8.92704e-20)
(-0.103585 0.13716 -8.90005e-20)
(-0.118213 0.139716 -1.19971e-20)
(-0.130218 0.140532 -9.1809e-20)
(-0.139324 0.140061 1.23189e-20)
(-0.145293 0.13846 -1.06037e-19)
(-0.147931 0.13572 8.5109e-20)
(-0.147076 0.131751 2.46246e-22)
(-0.142591 0.126435 2.52643e-20)
(-0.134373 0.119654 -3.13133e-20)
(-0.122349 0.111303 -6.95817e-20)
(-0.106488 0.101303 1.17649e-19)
(-0.0867937 0.0895956 9.46834e-21)
(-0.0633184 0.0761548 4.21706e-21)
(-0.0361441 0.0609637 -3.7869e-20)
(-0.00538498 0.0440363 1.8275e-20)
(0.028819 0.0253919 -5.42114e-20)
(0.0663201 0.00506115 -9.27146e-20)
(0.106966 -0.0169175 -9.23235e-21)
(0.150607 -0.040484 4.94826e-21)
(0.197096 -0.0655541 -1.55118e-20)
(0.246264 -0.0919868 2.27978e-20)
(0.297893 -0.119554 -7.13239e-20)
(0.351671 -0.147903 -5.51887e-20)
(0.407138 -0.176527 4.71805e-21)
(0.46365 -0.204752 -1.97382e-20)
(0.520353 -0.231757 1.67805e-20)
(0.576234 -0.25662 -2.5167e-20)
(0.630131 -0.278443 -1.53248e-20)
(0.68101 -0.296367 -2.12842e-20)
(0.727685 -0.30991 1.73576e-20)
(0.769915 -0.318491 2.55547e-20)
(0.806068 -0.322604 3.81604e-20)
(0.838826 -0.3216 -6.65429e-21)
(0.862051 -0.317305 9.70272e-21)
(0.89023 -0.308904 -1.64721e-20)
(-0.0106926 0.0369413 3.27938e-20)
(-0.0287207 0.0819446 -8.74852e-20)
(-0.0477049 0.110609 -2.04891e-20)
(-0.0652682 0.128073 4.93574e-20)
(-0.081578 0.138346 9.07408e-20)
(-0.0957837 0.144018 1.94513e-20)
(-0.107539 0.14677 -1.06293e-19)
(-0.116454 0.147587 7.58441e-21)
(-0.122256 0.14697 2.61292e-21)
(-0.124714 0.145109 9.13901e-20)
(-0.123649 0.142017 -9.89821e-20)
(-0.118916 0.137615 -4.19223e-20)
(-0.110409 0.131793 -2.61463e-20)
(-0.0980601 0.124438 4.25026e-20)
(-0.0818416 0.115452 4.25371e-20)
(-0.0617691 0.10476 -1.26848e-19)
(-0.0378951 0.0923131 -5.90579e-20)
(-0.01032 0.0780879 1.01364e-19)
(0.020827 0.0620814 6.74408e-20)
(0.0553991 0.044309 7.67305e-20)
(0.0932292 0.0247956 4.99862e-20)
(0.134156 0.00357329 9.00929e-20)
(0.178025 -0.0193172 2.82627e-20)
(0.224693 -0.0438176 -2.65985e-20)
(0.274015 -0.0698361 2.27732e-20)
(0.325813 -0.0972169 9.08678e-20)
(0.379832 -0.125703 2.48368e-20)
(0.435683 -0.154894 1.02876e-19)
(0.492782 -0.184222 -7.01671e-20)
(0.550323 -0.212938 -3.7915e-20)
(0.607265 -0.24015 -2.72072e-20)
(0.662431 -0.264883 3.48574e-21)
(0.714543 -0.286232 7.90113e-20)
(0.762545 -0.303346 -7.24955e-21)
(0.805318 -0.315845 -9.58426e-22)
(0.84277 -0.323187 -4.24109e-20)
(0.87356 -0.326081 -3.5657e-20)
(0.900431 -0.323766 -2.43671e-20)
(0.91799 -0.318614 3.05703e-22)
(0.939846 -0.308831 7.09659e-21)
(-0.0113349 0.0376133 -7.37766e-20)
(-0.029256 0.0841751 -6.2534e-21)
(-0.046827 0.114279 4.95304e-20)
(-0.0624438 0.132845 1.53975e-20)
(-0.0763575 0.143877 9.17076e-21)
(-0.087879 0.149996 -3.14949e-20)
(-0.0967024 0.152938 9.14985e-20)
(-0.102468 0.153748 -8.00549e-21)
(-0.104916 0.152972 -9.07537e-22)
(-0.10383 0.150837 -6.76039e-20)
(-0.0990485 0.147379 9.17251e-20)
(-0.0904532 0.142536 9.6765e-20)
(-0.0779716 0.136209 -4.57243e-20)
(-0.0615761 0.128292 -1.26752e-19)
(-0.0412833 0.118694 -4.31507e-20)
(-0.0171571 0.107349 7.2225e-20)
(0.0107012 0.0942167 1.79676e-19)
(0.042152 0.0792748 -1.99371e-19)
(0.0770281 0.0625338 -8.69775e-20)
(0.115159 0.0440089 -9.4648e-20)
(0.156367 0.0237273 -6.95715e-20)
(0.200495 0.00172126 -2.06819e-20)
(0.247399 -0.0219688 4.88728e-20)
(0.296951 -0.0472824 -5.56131e-20)
(0.349007 -0.0741172 1.15705e-20)
(0.403368 -0.102294 -9.82831e-21)
(0.459712 -0.131516 2.06142e-20)
(0.517531 -0.161324 -6.05179e-20)
(0.576068 -0.191076 4.83932e-20)
(0.634313 -0.219946 3.87188e-20)
(0.691022 -0.246985 -3.04122e-20)
(0.744863 -0.271185 2.01253e-20)
(0.794488 -0.291664 -5.09342e-20)
(0.838884 -0.307625 2.03556e-20)
(0.877087 -0.31881 -1.62925e-20)
(0.909215 -0.324753 -3.77924e-21)
(0.934293 -0.326369 3.75468e-20)
(0.955101 -0.322801 -2.14566e-20)
(0.967094 -0.316916 8.81393e-22)
(0.982753 -0.305977 1.34422e-20)
(-0.0119361 0.0379777 -3.60808e-20)
(-0.0297619 0.0857785 5.31586e-20)
(-0.0459522 0.117154 -4.608e-20)
(-0.0596353 0.136743 -3.11514e-20)
(-0.0711445 0.148503 3.37657e-21)
(-0.0799564 0.155053 1.16538e-19)
(-0.0858153 0.158178 -2.4811e-20)
(-0.0884012 0.15897 2.7777e-20)
(-0.0874765 0.158024 -5.72844e-21)
(-0.0828463 0.155603 7.98748e-20)
(-0.0743726 0.151769 6.41881e-20)
(-0.0619685 0.146481 -1.27137e-19)
(-0.0455984 0.139652 1.36136e-19)
(-0.0252771 0.131188 5.03892e-20)
(-0.00106691 0.121008 1.48153e-19)
(0.0269241 0.109051 4.15034e-20)
(0.0585513 0.0952857 -8.362e-20)
(0.0936423 0.0796976 9.29878e-20)
(0.132008 0.0622995 1.49069e-19)
(0.173467 0.0431088 4.85393e-20)
(0.217851 0.0221525 9.79709e-20)
(0.265017 -0.000538828 3.03944e-20)
(0.314846 -0.0249243 2.55607e-20)
(0.367224 -0.0509374 1.26423e-19)
(0.421998 -0.0784581 3.89574e-20)
(0.478911 -0.107273 -7.53574e-20)
(0.537531 -0.137031 4.93832e-20)
(0.597174 -0.167202 -4.01727e-20)
(0.656865 -0.197066 -4.31775e-20)
(0.715358 -0.225726 -7.53747e-21)
(0.77121 -0.252195 7.7693e-20)
(0.822979 -0.275462 2.47484e-23)
(0.869322 -0.29471 -1.35856e-20)
(0.909363 -0.309229 -8.06282e-21)
(0.942381 -0.318912 6.49818e-20)
(0.968764 -0.323383 -2.16356e-20)
(0.987943 -0.323747 -3.16071e-20)
(1.00273 -0.319063 -2.67566e-20)
(1.00942 -0.312615 3.13513e-20)
(1.01924 -0.300798 1.50861e-20)
(-0.0124882 0.0380509 -1.23443e-20)
(-0.0302318 0.0867702 8.23328e-20)
(-0.0450909 0.119238 3.14838e-20)
(-0.0568746 0.139756 -8.60669e-20)
(-0.0659955 0.152197 -7.64263e-20)
(-0.0720987 0.159158 -1.20595e-19)
(-0.0749877 0.162453 -6.65456e-20)
(-0.0743922 0.163217 8.89444e-20)
(-0.0701052 0.16209 8.46607e-21)
(-0.0619605 0.159372 -6.24099e-20)
(-0.0498505 0.155156 -1.33732e-19)
(-0.0337231 0.149421 -1.81062e-20)
(-0.0135821 0.142098 -6.92164e-20)
(0.0105152 0.133105 7.31008e-20)
(0.0384633 0.122371 -1.28266e-19)
(0.0701148 0.109845 9.27103e-20)
(0.105292 0.095503 -1.56651e-19)
(0.143801 0.0793348 -1.21286e-20)
(0.185447 0.061354 -9.7888e-20)
(0.230057 0.0415793 8.93868e-20)
(0.277483 0.0200349 -5.54488e-20)
(0.327614 -0.0032496 -5.77383e-20)
(0.380354 -0.0282304 -1.38761e-19)
(0.435589 -0.0548283 -1.17638e-19)
(0.493124 -0.0828953 -1.11134e-20)
(0.552599 -0.11217 -2.0528e-20)
(0.613409 -0.142236 -6.06437e-21)
(0.674638 -0.172482 3.10318e-20)
(0.735047 -0.202113 8.25558e-21)
(0.793155 -0.230177 -8.18423e-20)
(0.84736 -0.255677 -8.92087e-20)
(0.896192 -0.277642 2.54298e-20)
(0.938416 -0.295356 2.91277e-20)
(0.973396 -0.30823 -1.0189e-20)
(1.00073 -0.316317 -1.83054e-20)
(1.02113 -0.319338 5.7481e-20)
(1.03443 -0.31856 2.11651e-20)
(1.04344 -0.31296 1.13803e-20)
(1.04525 -0.306151 1.4011e-21)
(1.0498 -0.293759 -2.07948e-20)
(-0.0129846 0.0378524 7.00156e-20)
(-0.0306604 0.0871741 -3.01512e-20)
(-0.0442527 0.120543 -1.25224e-19)
(-0.0541916 0.14188 -1.27496e-21)
(-0.0609641 0.154943 6.88595e-20)
(-0.0643843 0.162283 4.72781e-20)
(-0.0643239 0.16573 2.83924e-20)
(-0.0605714 0.166454 -5.13851e-20)
(-0.0529594 0.165135 5.64404e-20)
(-0.0413578 0.162112 -1.10906e-19)
(-0.025694 0.157509 -1.48206e-20)
(-0.00595422 0.15133 1.16081e-19)
(0.0178178 0.143523 2.4405e-20)
(0.0455243 0.134022 2.97145e-20)
(0.0770222 0.122768 3.76227e-20)
(0.112133 0.109717 -1.22158e-19)
(0.15066 0.0948519 5.42952e-20)
(0.192403 0.0781669 1.01816e-19)
(0.237178 0.0596753 -6.72727e-20)
(0.284836 0.0393937 -1.54445e-20)
(0.335268 0.0173443 -5.2388e-20)
(0.38839 -0.00644277 -5.66142e-20)
(0.444121 -0.0319153 7.68903e-20)
(0.502314 -0.0589721 9.96817e-20)
(0.562679 -0.0874247 1.94751e-20)
(0.624689 -0.116951 4.41232e-20)
(0.687495 -0.147057 -3.65653e-20)
(0.749901 -0.177054 -5.23912e-20)
(0.810393 -0.206081 2.16085e-20)
(0.86729 -0.23316 1.74599e-19)
(0.918914 -0.25732 3.88445e-20)
(0.963882 -0.277674 2.21078e-20)
(1.00119 -0.293638 -7.2918e-20)
(1.03052 -0.304763 5.24543e-20)
(1.05187 -0.311262 -1.37789e-20)
(1.06626 -0.312946 -5.4558e-20)
(1.0739 -0.311201 -7.04725e-21)
(1.0776 -0.304923 -1.71204e-20)
(1.07508 -0.297972 -2.96486e-20)
(1.07505 -0.2853 -6.12937e-21)
(-0.0134205 0.0374061 -1.35359e-21)
(-0.0310441 0.0870218 1.33192e-20)
(-0.043447 0.121086 1.4024e-19)
(-0.0516136 0.143119 7.11149e-20)
(-0.0560989 0.156731 -2.61926e-20)
(-0.0568852 0.164409 -3.11768e-20)
(-0.05392 0.167984 -9.6533e-20)
(-0.0470593 0.168652 -3.29906e-21)
(-0.0361834 0.167131 -3.84622e-20)
(-0.0212048 0.163797 1.55626e-19)
(-0.00209068 0.158806 4.915e-20)
(0.0211334 0.152188 -1.47495e-19)
(0.0483849 0.143911 -3.45955e-20)
(0.0795307 0.133926 -2.94429e-20)
(0.114399 0.122185 -2.3061e-20)
(0.152792 0.108655 -2.86369e-20)
(0.194509 0.0933206 4.28031e-20)
(0.239363 0.0761817 -3.72956e-22)
(0.287198 0.0572488 1.16873e-20)
(0.337905 0.0365366 -3.90937e-20)
(0.39141 0.0140664 4.26149e-20)
(0.447652 -0.0101265 5.51757e-20)
(0.506527 -0.0359738 -3.6113e-20)
(0.567804 -0.0633411 -9.37235e-20)
(0.631028 -0.0919866 2.86293e-20)
(0.695428 -0.121518 -7.25413e-20)
(0.759856 -0.15136 1.73549e-20)
(0.822808 -0.180754 -7.36262e-20)
(0.882527 -0.208799 5.68641e-20)
(0.937215 -0.234527 -1.19598e-19)
(0.985241 -0.257036 4.05038e-20)
(1.02544 -0.275555 -2.00517e-20)
(1.05714 -0.289656 3.72741e-20)
(1.08045 -0.299037 -1.94251e-20)
(1.09574 -0.304053 -3.25126e-20)
(1.10434 -0.304581 3.22487e-20)
(1.10676 -0.302093 5.43336e-20)
(1.10575 -0.29539 2.90633e-20)
(1.09954 -0.288507 4.14521e-21)
(1.09571 -0.275824 3.26995e-21)
(-0.0137942 0.0367399 -9.3272e-20)
(-0.031381 0.0863499 -1.33538e-20)
(-0.042682 0.120897 -2.33828e-20)
(-0.0491638 0.143487 -1.73709e-20)
(-0.0514428 0.157562 -6.46057e-20)
(-0.0496651 0.165526 1.81706e-19)
(-0.0438612 0.169197 2.01461e-19)
(-0.0339619 0.169791 -5.37587e-20)
(-0.0199031 0.168057 -1.46953e-19)
(-0.00164483 0.164407 -5.49598e-20)
(0.020803 0.159029 2.895e-20)
(0.0473758 0.15198 -9.46627e-20)
(0.0779565 0.143251 -9.01564e-21)
(0.112385 0.132808 -1.15862e-19)
(0.15047 0.120617 1.2213e-19)
(0.192015 0.106654 1.55994e-20)
(0.23683 0.0909071 -5.49306e-20)
(0.284759 0.0733781 -6.0038e-20)
(0.335689 0.0540755 6.39168e-20)
(0.389552 0.0330132 9.33587e-20)
(0.446303 0.0102152 1.14759e-19)
(0.505869 -0.0142718 -4.80855e-22)
(0.568068 -0.0403533 -8.21341e-20)
(0.632513 -0.0678503 7.88993e-20)
(0.698503 -0.0964575 2.04239e-21)
(0.764952 -0.125707 -1.00256e-20)
(0.830381 -0.154951 7.23538e-20)
(0.893001 -0.183381 7.03486e-20)
(0.950894 -0.21009 -4.90147e-20)
(1.00227 -0.234157 -1.57954e-20)
(1.04569 -0.254789 1.58602e-20)
(1.08034 -0.271356 -8.13945e-21)
(1.10598 -0.283592 3.72942e-20)
(1.12312 -0.291331 5.8485e-20)
(1.13252 -0.295044 4.87983e-20)
(1.13577 -0.294647 -4.61689e-20)
(1.13357 -0.291656 -5.38703e-20)
(1.12857 -0.284773 -1.29058e-20)
(1.11936 -0.278148 -1.66508e-21)
(1.1125 -0.265676 -9.16924e-23)
(-0.0141057 0.0358824 1.66398e-19)
(-0.0316708 0.0852004 6.68377e-20)
(-0.0419654 0.120013 -4.34158e-20)
(-0.0468618 0.14301 -1.44291e-20)
(-0.0470308 0.157447 1.53752e-19)
(-0.0427769 0.165632 -5.54032e-20)
(-0.0342184 0.169361 -9.61219e-21)
(-0.0213675 0.169858 9.82905e-20)
(-0.00422097 0.167899 1.31694e-19)
(0.0172093 0.163929 -2.83346e-20)
(0.04287 0.158168 -6.84113e-20)
(0.0726606 0.150699 1.14855e-19)
(0.106436 0.141539 4.87852e-20)
(0.14402 0.13067 2.16088e-19)
(0.185221 0.11807 -9.39635e-21)
(0.229854 0.103724 5.83529e-20)
(0.277764 0.0876248 1.65001e-19)
(0.328836 0.0697747 7.83927e-20)
(0.383007 0.0501815 5.73958e-20)
(0.440242 0.0288611 -1.86408e-20)
(0.500489 0.00584515 -5.25538e-20)
(0.56361 -0.0188 -1.49441e-20)
(0.62927 -0.0449435 3.56844e-20)
(0.696837 -0.0723522 6.67483e-20)
(0.765289 -0.100653 -1.03563e-19)
(0.833184 -0.129306 2.07785e-20)
(0.898722 -0.157609 -7.8552e-21)
(0.959909 -0.184733 -7.12255e-20)
(1.01479 -0.209803 -4.80116e-22)
(1.06175 -0.231986 8.11474e-20)
(1.09969 -0.250621 -9.63228e-20)
(1.12823 -0.265231 -1.83542e-20)
(1.1476 -0.275701 -3.58546e-20)
(1.15872 -0.281981 -3.50693e-20)
(1.16265 -0.28462 -2.44676e-20)
(1.16116 -0.283548 8.82055e-20)
(1.15503 -0.28029 4.6021e-21)
(1.1468 -0.273442 -8.10244e-21)
(1.13526 -0.267229 3.67907e-21)
(1.12611 -0.255138 -1.80027e-20)
(-0.014357 0.0348637 4.37731e-20)
(-0.0319153 0.0836209 -8.38215e-20)
(-0.0413032 0.118477 1.73828e-19)
(-0.0447219 0.141719 9.03844e-20)
(-0.0428893 0.156405 -1.91333e-20)
(-0.0362605 0.164737 -6.5708e-20)
(-0.0250454 0.168477 -1.09289e-19)
(-0.00934126 0.16885 -8.64257e-20)
(0.0107898 0.166653 -9.31451e-20)
(0.0352826 0.16236 1.02245e-19)
(0.0640424 0.156222 -1.19807e-20)
(0.0969381 0.148351 1.48234e-19)
(0.133808 0.138785 -5.52958e-20)
(0.174472 0.127526 -6.63633e-20)
(0.218755 0.114565 1.48585e-20)
(0.266504 0.0998935 8.37619e-20)
(0.317609 0.0835106 4.75984e-20)
(0.372008 0.0654188 -1.55239e-20)
(0.429674 0.0456282 -5.31447e-20)
(0.490572 0.0241602 5.59337e-21)
(0.554594 0.00106079 3.89886e-20)