/*--------------------------------*- C++ -*----------------------------------*\
  =========                 |
  \\      /  F ield         | OpenFOAM: The Open Source CFD Toolbox
   \\    /   O peration     | Website:  https://openfoam.org
    \\  /    A nd           | Version:  7
     \\/     M anipulation  |
\*---------------------------------------------------------------------------*/
FoamFile
{
    version     2.0;
    format      ascii;
    class       volScalarField;
    location    "10";
    object      p;
}
// * * * * * * * * * * * * * * * * * * * * * * * * * * * * * * * * * * * * * //

dimensions      [0 2 -2 0 0 0 0];

internalField   nonuniform List<scalar> 
10500
(
-0.414355
-0.40243
-0.383661
-0.357569
-0.331299
-0.30308
-0.276586
-0.249351
-0.228217
-0.202087
-0.415373
-0.402953
-0.384128
-0.357898
-0.331588
-0.303317
-0.276806
-0.249464
-0.228454
-0.201643
-0.417398
-0.403992
-0.385057
-0.358553
-0.332162
-0.303785
-0.277242
-0.249689
-0.228923
-0.200771
-0.420411
-0.405537
-0.386437
-0.359522
-0.333012
-0.304477
-0.277885
-0.25002
-0.229614
-0.199499
-0.424383
-0.407573
-0.388252
-0.360794
-0.334124
-0.305381
-0.278722
-0.250452
-0.230512
-0.197867
-0.42928
-0.410075
-0.390482
-0.362352
-0.335481
-0.306481
-0.279737
-0.250978
-0.231596
-0.195931
-0.43506
-0.413015
-0.393104
-0.364176
-0.337065
-0.30776
-0.280908
-0.251591
-0.232834
-0.193754
-0.441646
-0.416384
-0.396088
-0.366244
-0.338852
-0.309198
-0.282212
-0.25228
-0.234191
-0.191408
-0.448988
-0.420141
-0.399406
-0.368533
-0.340819
-0.310772
-0.283623
-0.253038
-0.23562
-0.188971
-0.45703
-0.424245
-0.403025
-0.371016
-0.34294
-0.312459
-0.285111
-0.253855
-0.237069
-0.186521
-0.465699
-0.428659
-0.406911
-0.373667
-0.345188
-0.314237
-0.286646
-0.254722
-0.238475
-0.184138
-0.474918
-0.433348
-0.411028
-0.376459
-0.347536
-0.316079
-0.288195
-0.255627
-0.239771
-0.181893
-0.484608
-0.43827
-0.415341
-0.379366
-0.349957
-0.317961
-0.289723
-0.256561
-0.240882
-0.179852
-0.494687
-0.443385
-0.419811
-0.382358
-0.352424
-0.319855
-0.291195
-0.257511
-0.241728
-0.178076
-0.505071
-0.448648
-0.424402
-0.38541
-0.354906
-0.321734
-0.292575
-0.258463
-0.24223
-0.176642
-0.515671
-0.454017
-0.429073
-0.38849
-0.357373
-0.323565
-0.293825
-0.259401
-0.24231
-0.175636
-0.526398
-0.459446
-0.433786
-0.391568
-0.359794
-0.325315
-0.294909
-0.260308
-0.241859
-0.174999
-0.537165
-0.464892
-0.4385
-0.394613
-0.362135
-0.326945
-0.295794
-0.261174
-0.240703
-0.174415
-0.54788
-0.470308
-0.443174
-0.39759
-0.364357
-0.328412
-0.296454
-0.261998
-0.238788
-0.174714
-0.558412
-0.475618
-0.447741
-0.400448
-0.36641
-0.32966
-0.296851
-0.262709
-0.236639
-0.181578
-0.56858
-0.480703
-0.452107
-0.403115
-0.368231
-0.330624
-0.296922
-0.263079
-0.234834
-0.202328
-0.578497
-0.485677
-0.456333
-0.405614
-0.369805
-0.331257
-0.296602
-0.262886
-0.232296
-0.209042
-0.587995
-0.490421
-0.460319
-0.407864
-0.371057
-0.331484
-0.295821
-0.261976
-0.22923
-0.209912
-0.59693
-0.49484
-0.463978
-0.409791
-0.371915
-0.331233
-0.294517
-0.260309
-0.22591
-0.208604
-0.605193
-0.498865
-0.467242
-0.411328
-0.372308
-0.330437
-0.29263
-0.257868
-0.222241
-0.205646
-0.612674
-0.502425
-0.470035
-0.412404
-0.372162
-0.329025
-0.290101
-0.254639
-0.218108
-0.201293
-0.619255
-0.505442
-0.472275
-0.412939
-0.371399
-0.326931
-0.286872
-0.250612
-0.213442
-0.195838
-0.624819
-0.507831
-0.473873
-0.412852
-0.369939
-0.324088
-0.282891
-0.245782
-0.20819
-0.189505
-0.62924
-0.509504
-0.474736
-0.412053
-0.3677
-0.320433
-0.27811
-0.240145
-0.202311
-0.182437
-0.632395
-0.510366
-0.474765
-0.410453
-0.364603
-0.315905
-0.27249
-0.233701
-0.195779
-0.174729
-0.634158
-0.51032
-0.47386
-0.407961
-0.360568
-0.310453
-0.265998
-0.226451
-0.188575
-0.166441
-0.634402
-0.509267
-0.471916
-0.404484
-0.355522
-0.304027
-0.25861
-0.2184
-0.180694
-0.157611
-0.633001
-0.507104
-0.468829
-0.399933
-0.349395
-0.296587
-0.250307
-0.209556
-0.172135
-0.148263
-0.629831
-0.503727
-0.464495
-0.394222
-0.342125
-0.288101
-0.24108
-0.199929
-0.162909
-0.138415
-0.624771
-0.499033
-0.458812
-0.387269
-0.333658
-0.278543
-0.230925
-0.189533
-0.153028
-0.128081
-0.617703
-0.492919
-0.451683
-0.378998
-0.323946
-0.267897
-0.219847
-0.178385
-0.142511
-0.117274
-0.60852
-0.485288
-0.443016
-0.369343
-0.312955
-0.256156
-0.207857
-0.166507
-0.13138
-0.106007
-0.597129
-0.476053
-0.432731
-0.358249
-0.300658
-0.243319
-0.194971
-0.153921
-0.11966
-0.0942991
-0.583444
-0.465129
-0.420753
-0.345668
-0.287041
-0.229397
-0.181211
-0.140654
-0.107377
-0.0821674
-0.56726
-0.452378
-0.406989
-0.331553
-0.272095
-0.214406
-0.166604
-0.126736
-0.0945617
-0.0696336
-0.548253
-0.437602
-0.391332
-0.315859
-0.25582
-0.198368
-0.151184
-0.1122
-0.0812431
-0.0567221
-0.527103
-0.421099
-0.373914
-0.29865
-0.23826
-0.181324
-0.134988
-0.0970796
-0.0674552
-0.0434634
-0.503531
-0.40269
-0.354647
-0.2799
-0.219431
-0.163309
-0.118057
-0.0814139
-0.0532327
-0.0298853
-0.477403
-0.382286
-0.333495
-0.259615
-0.199369
-0.144369
-0.100435
-0.0652432
-0.0386187
-0.0160136
-0.44872
-0.359875
-0.310471
-0.237825
-0.178121
-0.124555
-0.0821709
-0.0486088
-0.023658
-0.0018815
-0.417512
-0.335463
-0.285601
-0.214578
-0.155746
-0.103924
-0.0633164
-0.0315534
-0.00834214
0.0124361
-0.383815
-0.309066
-0.25893
-0.189929
-0.132311
-0.0825399
-0.0439266
-0.0141315
0.00725863
0.0269345
-0.347688
-0.280719
-0.230514
-0.163948
-0.107889
-0.0604692
-0.0240594
0.00361597
0.0231013
0.0415717
-0.309207
-0.250474
-0.200429
-0.136718
-0.0825625
-0.0377846
-0.00377445
0.021639
0.0391475
0.0563039
-0.268472
-0.218401
-0.168767
-0.108329
-0.0564201
-0.014561
0.0168645
0.0398853
0.0553564
0.0710878
-0.225602
-0.184589
-0.135634
-0.0788843
-0.0295571
0.0091221
0.0377922
0.0583015
0.0716856
0.0858778
-0.180738
-0.149149
-0.101147
-0.0484988
-0.00207373
0.0331822
0.0589411
0.0768329
0.0880923
0.100626
-0.134038
-0.11221
-0.0654374
-0.0172913
0.0259245
0.0575339
0.080242
0.0954234
0.104533
0.115282
-0.0856751
-0.0738915
-0.0286755
0.0146099
0.054328
0.0820896
0.101624
0.114016
0.120965
0.129789
-0.0358477
-0.0343714
0.00899718
0.0470698
0.0830239
0.10676
0.123014
0.132552
0.137342
0.144085
0.0152207
0.00618986
0.0474112
0.079947
0.111896
0.131453
0.144338
0.150972
0.153621
0.158099
0.0673097
0.0475988
0.0863862
0.113096
0.140827
0.156078
0.165522
0.169219
0.169767
0.171764
0.120157
0.089647
0.125733
0.146366
0.169698
0.180541
0.186491
0.187239
0.185769
0.184987
0.173503
0.132124
0.165261
0.179607
0.198387
0.20475
0.207167
0.204981
0.201563
0.197534
0.227291
0.174892
0.204798
0.21267
0.226776
0.228612
0.227479
0.22238
0.216866
0.208899
0.281656
0.217878
0.244192
0.245413
0.254746
0.252034
0.247359
0.239367
0.231394
0.218664
0.335072
0.260396
0.283089
0.277643
0.282174
0.274929
0.26674
0.255889
0.245735
0.23063
0.387674
0.302383
0.321345
0.309222
0.308944
0.297209
0.285554
0.271881
0.259562
0.242953
0.439368
0.343672
0.358784
0.340005
0.334944
0.318786
0.303733
0.287293
0.272766
0.254833
0.489859
0.38402
0.395207
0.369846
0.360062
0.339577
0.321212
0.302076
0.28536
0.266134
0.538844
0.423184
0.430417
0.3986
0.384189
0.359501
0.337927
0.316184
0.29734
0.27687
0.58604
0.460933
0.464226
0.426127
0.407221
0.378479
0.35382
0.32957
0.308677
0.287022
0.631174
0.497043
0.496454
0.452294
0.429059
0.396437
0.368833
0.342192
0.319344
0.296558
0.673983
0.5313
0.526928
0.476974
0.449608
0.413305
0.382913
0.35401
0.329315
0.305448
0.714212
0.563495
0.555482
0.500048
0.468777
0.429016
0.396009
0.364986
0.338563
0.313674
0.751619
0.593434
0.581962
0.521402
0.486484
0.443508
0.408074
0.375084
0.347063
0.321214
0.785979
0.620933
0.606225
0.540931
0.50265
0.456722
0.419063
0.384271
0.35479
0.328054
0.817082
0.645823
0.628138
0.55854
0.517205
0.468606
0.428937
0.392518
0.361722
0.334175
0.844736
0.667952
0.647581
0.574143
0.530085
0.479111
0.437659
0.399796
0.367837
0.339565
0.868771
0.687181
0.664449
0.587662
0.541232
0.488197
0.445196
0.406081
0.373117
0.344211
0.889038
0.703392
0.67865
0.599031
0.550598
0.495825
0.451521
0.411353
0.377543
0.3481
0.90541
0.716483
0.690104
0.608194
0.558141
0.501966
0.45661
0.415592
0.381102
0.351224
0.917783
0.726372
0.69875
0.615105
0.563827
0.506593
0.460444
0.418784
0.383782
0.353574
0.926081
0.732998
0.704539
0.61973
0.567632
0.509688
0.463008
0.420919
0.385575
0.355144
0.930251
0.736323
0.707443
0.622048
0.569538
0.511238
0.464292
0.421988
0.386472
0.355931
0.930251
0.736323
0.707443
0.622048
0.569538
0.511238
0.464292
0.421988
0.386472
0.355931
0.926081
0.732998
0.704539
0.61973
0.567632
0.509688
0.463008
0.420919
0.385575
0.355144
0.917783
0.726372
0.69875
0.615105
0.563827
0.506593
0.460444
0.418784
0.383782
0.353574
0.90541
0.716483
0.690104
0.608194
0.558141
0.501966
0.45661
0.415592
0.381102
0.351224
0.889038
0.703392
0.67865
0.599031
0.550598
0.495825
0.451521
0.411353
0.377543
0.3481
0.868771
0.687181
0.664449
0.587662
0.541232
0.488197
0.445196
0.406081
0.373117
0.344211
0.844736
0.667952
0.647581
0.574143
0.530085
0.479111
0.437659
0.399796
0.367837
0.339565
0.817082
0.645823
0.628138
0.55854
0.517205
0.468606
0.428937
0.392518
0.361722
0.334175
0.785979
0.620933
0.606225
0.540931
0.50265
0.456722
0.419063
0.384271
0.35479
0.328054
0.751619
0.593434
0.581962
0.521402
0.486484
0.443508
0.408074
0.375084
0.347063
0.321214
0.714212
0.563495
0.555482
0.500048
0.468777
0.429016
0.396009
0.364986
0.338563
0.313674
0.673983
0.5313
0.526928
0.476974
0.449608
0.413305
0.382913
0.35401
0.329315
0.305448
0.631174
0.497043
0.496454
0.452294
0.429059
0.396437
0.368833
0.342192
0.319344
0.296558
0.58604
0.460933
0.464226
0.426127
0.407221
0.378479
0.35382
0.32957
0.308677
0.287022
0.538844
0.423184
0.430417
0.3986
0.384189
0.359501
0.337927
0.316184
0.29734
0.27687
0.489859
0.38402
0.395207
0.369846
0.360062
0.339577
0.321212
0.302076
0.28536
0.266134
0.439368
0.343672
0.358784
0.340005
0.334944
0.318786
0.303733
0.287293
0.272766
0.254833
0.387674
0.302383
0.321345
0.309222
0.308944
0.297209
0.285554
0.271881
0.259562
0.242953
0.335072
0.260396
0.283089
0.277643
0.282174
0.274929
0.26674
0.255889
0.245736
0.230631
0.281656
0.217878
0.244192
0.245413
0.254746
0.252034
0.247359
0.239367
0.231394
0.218664
0.227291
0.174892
0.204798
0.21267
0.226776
0.228612
0.227479
0.22238
0.216866
0.208899
0.173503
0.132124
0.165261
0.179607
0.198387
0.20475
0.207167
0.204981
0.201563
0.197534
0.120157
0.089647
0.125733
0.146366
0.169698
0.180542
0.186491
0.187239
0.185769
0.184987
0.0673097
0.0475988
0.0863862
0.113096
0.140827
0.156078
0.165522
0.169219
0.169767
0.171764
0.0152207
0.0061899
0.0474112
0.0799471
0.111896
0.131453
0.144338
0.150972
0.153621
0.158099
-0.0358477
-0.0343714
0.00899722
0.0470698
0.083024
0.10676
0.123014
0.132552
0.137342
0.144085
-0.0856751
-0.0738915
-0.0286754
0.01461
0.0543281
0.0820896
0.101624
0.114016
0.120965
0.129789
-0.134038
-0.11221
-0.0654373
-0.0172913
0.0259245
0.0575339
0.080242
0.0954234
0.104533
0.115282
-0.180738
-0.149149
-0.101147
-0.0484987
-0.00207368
0.0331822
0.0589412
0.0768329
0.0880924
0.100626
-0.225602
-0.184589
-0.135634
-0.0788842
-0.029557
0.00912215
0.0377922
0.0583016
0.0716857
0.0858778
-0.268472
-0.2184
-0.168767
-0.108329
-0.0564201
-0.0145609
0.0168645
0.0398853
0.0553565
0.0710878
-0.309207
-0.250473
-0.200429
-0.136717
-0.0825624
-0.0377845
-0.0037744
0.021639
0.0391476
0.056304
-0.347688
-0.280719
-0.230513
-0.163948
-0.107889
-0.0604692
-0.0240593
0.00361601
0.0231013
0.0415717
-0.383815
-0.309066
-0.25893
-0.189929
-0.132311
-0.0825399
-0.0439266
-0.0141315
0.00725868
0.0269345
-0.417512
-0.335463
-0.285601
-0.214578
-0.155746
-0.103924
-0.0633164
-0.0315533
-0.00834209
0.0124361
-0.44872
-0.359875
-0.310471
-0.237825
-0.178121
-0.124555
-0.0821709
-0.0486088
-0.0236579
-0.00188145
-0.477403
-0.382286
-0.333495
-0.259614
-0.199369
-0.144369
-0.100435
-0.0652431
-0.0386187
-0.0160135
-0.503531
-0.40269
-0.354646
-0.2799
-0.219431
-0.163309
-0.118056
-0.0814139
-0.0532326
-0.0298852
-0.527103
-0.421099
-0.373914
-0.29865
-0.238259
-0.181324
-0.134988
-0.0970796
-0.0674551
-0.0434634
-0.548253
-0.437602
-0.391332
-0.315859
-0.25582
-0.198368
-0.151184
-0.1122
-0.081243
-0.0567221
-0.56726
-0.452377
-0.406989
-0.331553
-0.272095
-0.214406
-0.166604
-0.126736
-0.0945616
-0.0696335
-0.583444
-0.465129
-0.420753
-0.345668
-0.287041
-0.229397
-0.181211
-0.140654
-0.107377
-0.0821674
-0.597129
-0.476053
-0.432731
-0.358249
-0.300658
-0.243319
-0.194971
-0.153921
-0.11966
-0.094299
-0.608519
-0.485288
-0.443016
-0.369343
-0.312955
-0.256156
-0.207857
-0.166507
-0.13138
-0.106007
-0.617703
-0.492919
-0.451683
-0.378998
-0.323946
-0.267897
-0.219847
-0.178385
-0.142511
-0.117274
-0.624771
-0.499033
-0.458812
-0.387269
-0.333658
-0.278543
-0.230925
-0.189533
-0.153028
-0.128081
-0.629831
-0.503727
-0.464495
-0.394222
-0.342125
-0.288101
-0.24108
-0.199929
-0.162909
-0.138415
-0.633001
-0.507104
-0.468829
-0.399933
-0.349395
-0.296587
-0.250307
-0.209556
-0.172135
-0.148263
-0.634402
-0.509267
-0.471916
-0.404484
-0.355522
-0.304027
-0.25861
-0.2184
-0.180693
-0.157611
-0.634158
-0.51032
-0.473859
-0.407961
-0.360568
-0.310453
-0.265998
-0.226451
-0.188575
-0.166441
-0.632395
-0.510366
-0.474765
-0.410453
-0.364603
-0.315905
-0.27249
-0.233701
-0.195779
-0.174729
-0.62924
-0.509504
-0.474735
-0.412053
-0.3677
-0.320433
-0.27811
-0.240145
-0.202311
-0.182437
-0.624818
-0.507831
-0.473873
-0.412852
-0.369939
-0.324088
-0.282891
-0.245782
-0.20819
-0.189505
-0.619255
-0.505442
-0.472275
-0.412939
-0.371399
-0.326931
-0.286872
-0.250612
-0.213442
-0.195838
-0.612673
-0.502425
-0.470035
-0.412404
-0.372162
-0.329025
-0.290101
-0.254639
-0.218108
-0.201293
-0.605193
-0.498865
-0.467242
-0.411328
-0.372308
-0.330437
-0.29263
-0.257868
-0.222241
-0.205646
-0.59693
-0.49484
-0.463978
-0.409791
-0.371915
-0.331233
-0.294517
-0.260309
-0.22591
-0.208604
-0.587995
-0.490421
-0.460319
-0.407864
-0.371057
-0.331483
-0.295821
-0.261976
-0.22923
-0.209912
-0.578497
-0.485677
-0.456333
-0.405614
-0.369805
-0.331256
-0.296602
-0.262886
-0.232296
-0.209042
-0.56858
-0.480703
-0.452107
-0.403115
-0.368231
-0.330623
-0.296922
-0.263079
-0.234834
-0.202328
-0.558411
-0.475618
-0.447741
-0.400448
-0.36641
-0.32966
-0.296851
-0.262709
-0.236639
-0.181578
-0.547879
-0.470308
-0.443174
-0.39759
-0.364357
-0.328412
-0.296454
-0.261997
-0.238788
-0.174714
-0.537165
-0.464892
-0.4385
-0.394613
-0.362135
-0.326945
-0.295794
-0.261174
-0.240703
-0.174415
-0.526398
-0.459446
-0.433786
-0.391568
-0.359794
-0.325315
-0.294909
-0.260308
-0.241859
-0.174999
-0.515671
-0.454017
-0.429073
-0.38849
-0.357373
-0.323565
-0.293825
-0.259401
-0.24231
-0.175636
-0.505071
-0.448648
-0.424401
-0.38541
-0.354906
-0.321734
-0.292575
-0.258463
-0.24223
-0.176642
-0.494687
-0.443385
-0.419811
-0.382358
-0.352424
-0.319855
-0.291195
-0.257511
-0.241728
-0.178076
-0.484608
-0.43827
-0.415341
-0.379365
-0.349957
-0.317961
-0.289723
-0.256561
-0.240882
-0.179852
-0.474918
-0.433348
-0.411028
-0.376459
-0.347536
-0.316079
-0.288195
-0.255627
-0.239771
-0.181893
-0.465699
-0.428659
-0.406911
-0.373667
-0.345188
-0.314237
-0.286646
-0.254722
-0.238475
-0.184137
-0.45703
-0.424244
-0.403025
-0.371016
-0.342939
-0.312459
-0.285111
-0.253855
-0.237069
-0.186521
-0.448988
-0.420141
-0.399406
-0.368533
-0.340819
-0.310772
-0.283623
-0.253038
-0.23562
-0.188971
-0.441646
-0.416384
-0.396088
-0.366244
-0.338852
-0.309197
-0.282212
-0.25228
-0.234191
-0.191408
-0.43506
-0.413015
-0.393104
-0.364176
-0.337065
-0.30776
-0.280908
-0.251591
-0.232834
-0.193754
-0.42928
-0.410075
-0.390482
-0.362352
-0.335481
-0.306481
-0.279737
-0.250978
-0.231596
-0.195931
-0.424382
-0.407573
-0.388252
-0.360794
-0.334124
-0.305381
-0.278722
-0.250452
-0.230512
-0.197867
-0.420411
-0.405537
-0.386437
-0.359522
-0.333012
-0.304477
-0.277885
-0.25002
-0.229614
-0.199499
-0.417398
-0.403992
-0.385057
-0.358553
-0.332162
-0.303785
-0.277242
-0.249689
-0.228923
-0.200771
-0.415373
-0.402953
-0.384128
-0.357898
-0.331588
-0.303317
-0.276806
-0.249464
-0.228454
-0.201643
-0.414355
-0.40243
-0.383661
-0.357569
-0.331299
-0.30308
-0.276586
-0.249351
-0.228217
-0.202087
-0.193747
-0.185781
-0.177475
-0.169488
-0.161608
-0.153857
-0.146287
-0.138912
-0.131748
-0.124805
-0.118091
-0.111612
-0.105367
-0.0993566
-0.0935755
-0.0880169
-0.0826715
-0.0775279
-0.0725731
-0.0677929
-0.0631721
-0.0586958
-0.0543491
-0.0501186
-0.0459927
-0.0419626
-0.0380232
-0.0341738
-0.0304187
-0.0267683
-0.023239
-0.019853
-0.0166382
-0.0136265
-0.0108525
-0.00834915
-0.00614847
-0.00426888
-0.00272936
-0.00151206
-0.000625897
1.37086e-05
0.00035951
0.000630965
0.000582462
0.000793131
0.000368042
0.000984072
-0.000217828
0.00183183
-0.194345
-0.186211
-0.177761
-0.169733
-0.161821
-0.154042
-0.146452
-0.139063
-0.131887
-0.124935
-0.118214
-0.111728
-0.105478
-0.0994633
-0.0936783
-0.0881163
-0.0827678
-0.0776215
-0.0726643
-0.0678818
-0.063259
-0.0587808
-0.0544322
-0.0501999
-0.0460721
-0.0420401
-0.0380986
-0.0342468
-0.0304891
-0.0268357
-0.0233031
-0.0199134
-0.0166945
-0.0136783
-0.0108996
-0.00839128
-0.00618549
-0.00430079
-0.00275633
-0.00153439
-0.000643996
-6.85194e-07
0.000348335
0.000622314
0.000576143
0.000787967
0.000365068
0.000979963
-0.00021762
0.00182448
-0.195528
-0.187064
-0.17833
-0.170222
-0.162244
-0.154411
-0.146782
-0.139364
-0.132165
-0.125194
-0.118458
-0.11196
-0.1057
-0.0996757
-0.0938829
-0.088314
-0.0829595
-0.0778078
-0.0728457
-0.0680588
-0.0634319
-0.0589497
-0.0545975
-0.0503614
-0.0462299
-0.042194
-0.0382482
-0.0343917
-0.0306288
-0.0269696
-0.0234303
-0.0200333
-0.0168064
-0.0137814
-0.0109932
-0.008475
-0.00625909
-0.00436428
-0.00281001
-0.00157885
-0.000680045
-2.93667e-05
0.00032606
0.000605061
0.000563539
0.000777665
0.000359135
0.00097177
-0.000217207
0.00180983
-0.197266
-0.188329
-0.179178
-0.17095
-0.162875
-0.15496
-0.147273
-0.139812
-0.132578
-0.12558
-0.118822
-0.112305
-0.106029
-0.0999918
-0.0941873
-0.0886082
-0.0832447
-0.0780848
-0.0731153
-0.0683217
-0.0636885
-0.0592005
-0.0548426
-0.0506011
-0.0464639
-0.042422
-0.0384699
-0.0346064
-0.0308358
-0.0271679
-0.0236189
-0.020211
-0.0169722
-0.0139342
-0.0111321
-0.0085993
-0.00636842
-0.00445865
-0.00288987
-0.00164504
-0.000733753
-7.21282e-05
0.000292828
0.000579308
0.000544718
0.000762276
0.000350273
0.000959539
-0.000216597
0.00178802
-0.199512
-0.189983
-0.180295
-0.171909
-0.163707
-0.155685
-0.147921
-0.140402
-0.133123
-0.126089
-0.119301
-0.11276
-0.106464
-0.100408
-0.0945887
-0.088996
-0.0836204
-0.0784497
-0.0734703
-0.0686676
-0.0640261
-0.0595301
-0.0551647
-0.0509156
-0.0467709
-0.0427211
-0.0387605
-0.0348879
-0.031107
-0.0274278
-0.0238661
-0.0204441
-0.0171897
-0.0141347
-0.0113146
-0.00876268
-0.00651225
-0.00458291
-0.00299512
-0.00173236
-0.000804684
-0.000128659
0.000248856
0.000545205
0.000519783
0.00074188
0.000338525
0.000943343
-0.000215798
0.00175922
-0.202201
-0.191996
-0.181666
-0.173089
-0.164732
-0.156577
-0.148719
-0.141128
-0.133793
-0.126715
-0.119891
-0.11332
-0.106998
-0.100922
-0.095083
-0.0894736
-0.084083
-0.0788986
-0.0739069
-0.0690927
-0.0644406
-0.0599346
-0.0555596
-0.051301
-0.0471468
-0.0430872
-0.0391161
-0.0352321
-0.0314388
-0.0277456
-0.0241685
-0.0207293
-0.017456
-0.0143805
-0.0115382
-0.00896318
-0.00668895
-0.00473576
-0.00312474
-0.00184005
-0.000892275
-0.000198556
0.000194428
0.000502949
0.000488868
0.000716581
0.00032395
0.000923274
-0.000214825
0.00172369
-0.205248
-0.194323
-0.18327
-0.174473
-0.165936
-0.157626
-0.149658
-0.141983
-0.134582
-0.127452
-0.120586
-0.11398
-0.107629
-0.101527
-0.0956657
-0.0900365
-0.084628
-0.0794274
-0.0744207
-0.0695927
-0.0649276
-0.0604095
-0.0560226
-0.0517527
-0.0475869
-0.0435155
-0.039532
-0.0356345
-0.0318265
-0.0281171
-0.024522
-0.0210629
-0.0177676
-0.0146682
-0.0118005
-0.00919851
-0.00689661
-0.00491564
-0.00327753
-0.00196718
-0.000995847
-0.000281332
0.000129885
0.00045278
0.000452136
0.000686505
0.00030662
0.000899447
-0.000213694
0.00168171
-0.208555
-0.196906
-0.185079
-0.17604
-0.167303
-0.158819
-0.150725
-0.142955
-0.13548
-0.128291
-0.121378
-0.114733
-0.108349
-0.102218
-0.0963316
-0.0906797
-0.0852505
-0.080031
-0.0750068
-0.0701625
-0.0654821
-0.0609495
-0.0565488
-0.0522653
-0.048086
-0.0440008
-0.0400029
-0.0360901
-0.0322653
-0.0285376
-0.0249222
-0.0214407
-0.0181208
-0.0149947
-0.0120982
-0.00946608
-0.00713308
-0.00512081
-0.00345211
-0.00211271
-0.00111462
-0.000376427
5.56219e-05
0.000394975
0.000409779
0.0006518
0.000286619
0.000871998
-0.000212425
0.00163362
-0.212002
-0.199672
-0.187053
-0.177761
-0.168809
-0.160138
-0.151907
-0.144033
-0.136477
-0.129224
-0.122259
-0.115571
-0.109151
-0.102989
-0.0970748
-0.0913976
-0.0859452
-0.0807042
-0.0756599
-0.0707969
-0.0660989
-0.0615495
-0.0571327
-0.0528334
-0.0486386
-0.0445377
-0.0405234
-0.0365933
-0.03275
-0.0290019
-0.0253642
-0.0218581
-0.0185114
-0.015356
-0.0124283
-0.00976308
-0.00739599
-0.00534935
-0.00364695
-0.00227547
-0.00124773
-0.000483217
-2.79189e-05
0.000329846
0.000362011
0.000612634
0.000264041
0.000841079
-0.00021104
0.00157983
-0.215456
-0.20253
-0.189144
-0.179601
-0.170426
-0.16156
-0.153185
-0.145202
-0.137561
-0.13024
-0.123221
-0.116488
-0.110029
-0.103834
-0.0978892
-0.0921844
-0.0867065
-0.0814416
-0.0763748
-0.0714906
-0.0667724
-0.0622038
-0.0577686
-0.0534515
-0.0492391
-0.0451204
-0.0410879
-0.0371388
-0.033275
-0.0295049
-0.0258431
-0.0223107
-0.0189351
-0.0157485
-0.0127872
-0.0100866
-0.00768287
-0.00559922
-0.00386045
-0.00245422
-0.00139426
-0.000601026
-0.000120256
0.000257738
0.000309069
0.000569196
0.000238991
0.000806861
-0.000209567
0.00152075
-0.218774
-0.205375
-0.191291
-0.181512
-0.172119
-0.163059
-0.15454
-0.146446
-0.138717
-0.131328
-0.124253
-0.117474
-0.110976
-0.104745
-0.0987687
-0.0930343
-0.0875287
-0.0822376
-0.077146
-0.0722381
-0.0674974
-0.0629072
-0.0584513
-0.0541141
-0.0498819
-0.0457435
-0.041691
-0.037721
-0.0338353
-0.0300416
-0.0263541
-0.0227938
-0.0193877
-0.0161681
-0.0131715
-0.0104335
-0.00799117
-0.00586834
-0.00409093
-0.00264767
-0.00155321
-0.000729137
-0.000220874
0.000179018
0.000251213
0.000521689
0.000211585
0.00076953
-0.000208033
0.00145684
-0.221808
-0.208089
-0.193422
-0.183442
-0.173846
-0.164604
-0.155946
-0.147744
-0.139931
-0.132475
-0.125345
-0.118521
-0.111983
-0.105716
-0.0997067
-0.0939414
-0.0884063
-0.083087
-0.0779683
-0.0730344
-0.0682687
-0.0636545
-0.0591755
-0.0548159
-0.0505618
-0.0464017
-0.0423273
-0.0383348
-0.0344256
-0.0306068
-0.0268925
-0.0233029
-0.0198651
-0.0166112
-0.0135778
-0.010801
-0.00831836
-0.00615459
-0.0043367
-0.00285448
-0.0017236
-0.000866807
-0.000329236
9.40748e-05
0.000188712
0.000470332
0.000181945
0.000729286
-0.000206471
0.0013886
-0.224409
-0.210542
-0.195455
-0.185326
-0.175558
-0.166158
-0.157378
-0.149078
-0.141187
-0.133668
-0.126487
-0.119619
-0.113042
-0.10674
-0.100697
-0.0949
-0.089334
-0.0839847
-0.0788369
-0.0738747
-0.0690816
-0.0644411
-0.0599366
-0.0555523
-0.0512741
-0.0470902
-0.0429921
-0.0389755
-0.0350412
-0.0311961
-0.0274536
-0.0238338
-0.0203633
-0.0170741
-0.0140029
-0.0111861
-0.00866196
-0.00645593
-0.00459609
-0.00307337
-0.00190444
-0.00101332
-0.000444833
3.27406e-06
0.000121821
0.000415332
0.000150185
0.000686331
-0.000204919
0.00131652
-0.226442
-0.212607
-0.1973
-0.187093
-0.177201
-0.167682
-0.158804
-0.150424
-0.142467
-0.134894
-0.127668
-0.12076
-0.114147
-0.10781
-0.101734
-0.0959048
-0.0903069
-0.0849261
-0.0797472
-0.0747546
-0.0699319
-0.0652626
-0.0607302
-0.0563189
-0.0520143
-0.0478047
-0.043681
-0.0396386
-0.0356779
-0.0318052
-0.0280335
-0.0243825
-0.0208785
-0.0175533
-0.0144436
-0.0115861
-0.00901961
-0.00677037
-0.00486752
-0.00330309
-0.00209481
-0.00116801
-0.00056718
-9.3037e-05
5.07822e-05
0.00035689
0.000116414
0.000640869
-0.000203422
0.00124114
-0.227796
-0.214158
-0.198857
-0.188657
-0.178708
-0.169126
-0.160188
-0.151753
-0.143749
-0.136135
-0.128873
-0.121931
-0.115285
-0.108917
-0.10281
-0.0969483
-0.0913182
-0.0859049
-0.0806936
-0.0756688
-0.0708145
-0.0661141
-0.0615516
-0.057111
-0.0527781
-0.0485407
-0.0443896
-0.0403198
-0.0363313
-0.0324299
-0.0286282
-0.0249453
-0.0214072
-0.0180454
-0.0148968
-0.0119982
-0.00938882
-0.00709574
-0.00514913
-0.0035421
-0.00229342
-0.00132984
-0.000695472
-0.000194232
-2.39425e-05
0.000295378
8.08483e-05
0.000593181
-0.000202007
0.001163
-0.228329
-0.215031
-0.199995
-0.189913
-0.179999
-0.17043
-0.161485
-0.153031
-0.145006
-0.137369
-0.130083
-0.123116
-0.116445
-0.11005
-0.103914
-0.0980218
-0.0923601
-0.0869143
-0.0816699
-0.0766118
-0.0717243
-0.0669913
-0.0623968
-0.0579252
-0.053562
-0.0492951
-0.045115
-0.0410164
-0.0369989
-0.0330678
-0.0292351
-0.0255195
-0.0219467
-0.018548
-0.0153599
-0.0124197
-0.00976695
-0.00742946
-0.00543842
-0.00378803
-0.00249811
-0.00149688
-0.000828058
-0.000298948
-0.000101296
0.000231612
4.40043e-05
0.000543737
-0.000200614
0.00108267
-0.227793
-0.215065
-0.200639
-0.190823
-0.181066
-0.171603
-0.162709
-0.154276
-0.146256
-0.138614
-0.131316
-0.124333
-0.117641
-0.111222
-0.105058
-0.099137
-0.0934434
-0.0879641
-0.0826851
-0.0775918
-0.072669
-0.067901
-0.0632721
-0.0587668
-0.0543709
-0.0500721
-0.0458609
-0.0417314
-0.037683
-0.0337205
-0.0298555
-0.0261061
-0.0224975
-0.0190608
-0.0158327
-0.0128501
-0.0101534
-0.00777092
-0.00573485
-0.00404046
-0.0027086
-0.00166897
-0.00096486
-0.000407157
-0.000181263
0.000165625
5.91334e-06
0.000492656
-0.000199245
0.00100061
-0.226472
-0.214516
-0.200935
-0.191474
-0.181982
-0.172714
-0.163929
-0.155557
-0.147567
-0.139936
-0.132635
-0.125639
-0.118928
-0.112484
-0.106291
-0.100337
-0.0946071
-0.0890894
-0.0837703
-0.0786359
-0.0736717
-0.0688625
-0.0641929
-0.059648
-0.0552137
-0.0508777
-0.0466304
-0.042466
-0.0383832
-0.0343866
-0.0304873
-0.0267029
-0.0230582
-0.0195839
-0.0163164
-0.0132928
-0.0105536
-0.00812756
-0.00604769
-0.00431003
-0.00293622
-0.00185742
-0.00111638
-0.000528004
-0.000271161
9.19364e-05
-3.70284e-05
0.000437732
-0.000198805
0.000916822
-0.225841
-0.213266
-0.200288
-0.191174
-0.182107
-0.173211
-0.164682
-0.156485
-0.148614
-0.14106
-0.133806
-0.126837
-0.120136
-0.11369
-0.107485
-0.10151
-0.0957532
-0.0902028
-0.0848468
-0.0796724
-0.0746662
-0.0698138
-0.065101
-0.0605133
-0.0560372
-0.0516611
-0.0473753
-0.0431743
-0.0390567
-0.0350268
-0.0310952
-0.0272792
-0.0236031
-0.0200969
-0.0167967
-0.0137393
-0.0109649
-0.00850223
-0.0063844
-0.00460774
-0.0031942
-0.00207632
-0.00129627
-0.000673624
-0.000380983
3.10619e-06
-9.00678e-05
0.000376129
-0.000201205
0.000831545
-0.22024
-0.208001
-0.196673
-0.188308
-0.180034
-0.171819
-0.163806
-0.156
-0.148428
-0.141103
-0.134025
-0.127191
-0.120595
-0.114229
-0.108085
-0.102153
-0.0964272
-0.0908963
-0.0855508
-0.0803794
-0.0753704
-0.0705105
-0.0657865
-0.0611852
-0.0566935
-0.0523003
-0.0479965
-0.0437765
-0.0396389
-0.0355878
-0.0316336
-0.0277932
-0.0240904
-0.020555
-0.017223
-0.0141309
-0.0113195
-0.00881788
-0.00666019
-0.00484373
-0.00339167
-0.00223805
-0.00142501
-0.000775549
-0.000456574
-5.97581e-05
-0.000127025
0.000326073
-0.00020179
0.000750306
-0.193043
-0.204776
-0.196425
-0.188362
-0.180245
-0.172065
-0.164049
-0.156232
-0.148649
-0.141315
-0.134233
-0.1274
-0.120809
-0.114453
-0.108322
-0.10241
-0.0967058
-0.0912009
-0.0858842
-0.080744
-0.0757674
-0.0709403
-0.0662482
-0.0616765
-0.0572107
-0.0528381
-0.0485481
-0.0443334
-0.0401914
-0.036125
-0.0321437
-0.0282639
-0.0245099
-0.0209119
-0.0175076
-0.014336
-0.0114417
-0.00885817
-0.00662545
-0.00474622
-0.00324913
-0.00207075
-0.00125387
-0.000619015
-0.000326011
3.38579e-05
-6.14233e-05
0.000347114
-0.000179463
0.000700363
-0.182453
-0.199847
-0.192972
-0.185754
-0.178262
-0.170505
-0.162813
-0.155254
-0.14788
-0.140718
-0.133779
-0.127066
-0.120576
-0.114306
-0.108249
-0.102398
-0.0967475
-0.0912878
-0.0860094
-0.0809016
-0.0759522
-0.0711479
-0.0664746
-0.061918
-0.0574643
-0.0531007
-0.0488167
-0.0446051
-0.0404632
-0.0363939
-0.0324063
-0.028517
-0.0247498
-0.0211352
-0.0177108
-0.0145162
-0.0115963
-0.00898579
-0.00672595
-0.00482108
-0.00330116
-0.00210455
-0.00127356
-0.000631203
-0.000331763
2.49919e-05
-6.34458e-05
0.000328415
-0.000173731
0.000654527
-0.178316
-0.194515
-0.188545
-0.182186
-0.17541
-0.168191
-0.160927
-0.153717
-0.146629
-0.139705
-0.132965
-0.126419
-0.120071
-0.113919
-0.107963
-0.102198
-0.0966185
-0.091218
-0.0859883
-0.08092
-0.0760023
-0.0712231
-0.0665693
-0.0620277
-0.0575854
-0.0532304
-0.0489531
-0.0447468
-0.0406093
-0.0365436
-0.0325593
-0.0286727
-0.0249076
-0.0212942
-0.0178698
-0.0146735
-0.0117499
-0.00913334
-0.0068648
-0.00494899
-0.00341553
-0.00220469
-0.00135719
-0.000701332
-0.000384478
-2.10944e-05
-8.91053e-05
0.000291876
-0.000172165
0.000601521
-0.175368
-0.189432
-0.184336
-0.178655
-0.172514
-0.16581
-0.158967
-0.152105
-0.145307
-0.138626
-0.13209
-0.125717
-0.119515
-0.113489
-0.107639
-0.101963
-0.0964589
-0.0911214
-0.0859438
-0.0809183
-0.0760351
-0.0712834
-0.0666513
-0.0621266
-0.0576973
-0.0533523
-0.0490827
-0.0448824
-0.0407498
-0.0366881
-0.0327073
-0.0288235
-0.0250606
-0.0214483
-0.0180239
-0.0148259
-0.0118985
-0.00927605
-0.00699902
-0.00507267
-0.00352613
-0.00230174
-0.00143831
-0.000769839
-0.00043595
-6.70056e-05
-0.000114285
0.000254217
-0.000169827
0.000545532
-0.172712
-0.184466
-0.180245
-0.175125
-0.169558
-0.163355
-0.15693
-0.150421
-0.14392
-0.13749
-0.131168
-0.124976
-0.118928
-0.113033
-0.107294
-0.101713
-0.0962887
-0.0910181
-0.0858961
-0.0809163
-0.0760703
-0.0713484
-0.06674
-0.0622338
-0.0578188
-0.0534848
-0.0492236
-0.0450297
-0.040902
-0.0368441
-0.0328661
-0.0289842
-0.0252221
-0.0216095
-0.0181832
-0.0149816
-0.0120485
-0.00941821
-0.00713093
-0.00519265
-0.00363205
-0.00239375
-0.00151445
-0.00083407
-0.000483852
-0.000110706
-0.000137721
0.000216491
-0.000166588
0.000486853
-0.170181
-0.179547
-0.176108
-0.171492
-0.16646
-0.160754
-0.154755
-0.148612
-0.142424
-0.13626
-0.130165
-0.124166
-0.118284
-0.11253
-0.106912
-0.101433
-0.0960944
-0.0908959
-0.085834
-0.0809035
-0.0760976
-0.071408