/*--------------------------------*- C++ -*----------------------------------*\
  =========                 |
  \\      /  F ield         | OpenFOAM: The Open Source CFD Toolbox
   \\    /   O peration     | Website:  https://openfoam.org
    \\  /    A nd           | Version:  7
     \\/     M anipulation  |
\*---------------------------------------------------------------------------*/
FoamFile
{
    version     2.0;
    format      ascii;
    class       surfaceScalarField;
    location    "10";
    object      phi;
}
// * * * * * * * * * * * * * * * * * * * * * * * * * * * * * * * * * * * * * //

dimensions      [0 3 -1 0 0 0 0];

internalField   nonuniform List<scalar> 
20715
(
-1.2915e-05
1.29151e-05
-1.03106e-10
-9.20604e-06
-3.70872e-06
-1.99037e-10
2.29262e-05
-3.2132e-05
-2.61544e-10
9.48731e-05
-7.19466e-05
-2.7491e-10
0.000213219
-0.000118345
-2.52715e-10
0.00038537
-0.000172151
-1.9113e-10
0.000618127
-0.000232757
-9.16206e-11
0.00091984
-0.000301713
6.51742e-11
0.00129087
-0.000371028
3.26413e-10
-0.000453142
7.30776e-10
0.00174401
-1.23349e-05
2.525e-05
-7.29837e-06
-8.7453e-06
2.69209e-05
-6.63513e-05
0.000101763
-0.000146789
0.000223924
-0.000240506
0.000400925
-0.000349152
0.000639711
-0.000471544
0.000948749
-0.000610751
0.00132868
-0.000750963
-0.000916517
0.00179206
-1.1182e-05
3.6432e-05
-3.50311e-06
-1.64242e-05
3.4868e-05
-0.000104722
0.000115464
-0.000227385
0.000245198
-0.000370239
0.000431813
-0.000535767
0.000682533
-0.000722264
0.00100604
-0.000934258
0.00140355
-0.00114848
-0.00140002
0.00188705
-9.46887e-06
4.59008e-05
2.13679e-06
-2.80298e-05
4.6677e-05
-0.000149263
0.000135811
-0.000316519
0.000276762
-0.00051119
0.000477589
-0.000736594
0.000745908
-0.000990583
0.00109068
-0.00127903
0.00151398
-0.00157178
-0.00191286
0.00202683
-7.21411e-06
5.3115e-05
9.56298e-06
-4.48069e-05
6.22146e-05
-0.000201914
0.000162558
-0.000416862
0.000318205
-0.000666838
0.000537597
-0.000955987
0.000828824
-0.00128181
0.00120114
-0.00165135
0.00165777
-0.0020284
-0.00246328
0.00220819
-4.44018e-06
5.75551e-05
1.86926e-05
-6.79397e-05
8.13072e-05
-0.000264529
0.000195387
-0.000530941
0.000368991
-0.000840441
0.00061098
-0.00119798
0.00092996
-0.00160079
0.00133544
-0.00205682
0.001832
-0.00252497
-0.00305826
0.00242698
-1.15092e-06
5.87061e-05
2.94304e-05
-9.85211e-05
0.000103744
-0.000338843
0.000233912
-0.000661109
0.000428466
-0.001035
0.00069669
-0.0014662
0.0010477
-0.0019518
0.00149112
-0.00250025
0.00203315
-0.003067
-0.00370321
0.0026781
2.5509e-06
5.61552e-05
4.16639e-05
-0.000137634
0.000129283
-0.000426462
0.000277683
-0.000809509
0.000495871
-0.00125318
0.000793512
-0.00176384
0.00118017
-0.00233846
0.00166538
-0.00298545
0.00225708
-0.0036587
-0.00440182
0.00295568
6.66695e-06
4.94882e-05
5.52705e-05
-0.000186238
0.000157652
-0.000528843
0.000326198
-0.000978055
0.000570351
-0.00149734
0.000900076
-0.00209357
0.00132525
-0.00276364
0.00185504
-0.00351524
0.00249915
-0.0043028
-0.00515581
0.00325315
1.11703e-05
3.83179e-05
7.01177e-05
-0.000245185
0.000188556
-0.000647281
0.000378906
-0.00116841
0.000650971
-0.0017694
0.00101488
-0.00245748
0.00148064
-0.0032294
0.00205666
-0.00409126
0.00275433
-0.00500048
-0.00596488
0.0035634
1.60121e-05
2.23058e-05
8.60643e-05
-0.000315237
0.000221679
-0.000782896
0.000435216
-0.00138194
0.000736725
-0.00207091
0.00113632
-0.00285707
0.00164385
-0.00373694
0.00226657
-0.00471397
0.0030173
-0.00575121
-0.00682659
0.00387901
2.11494e-05
1.15639e-06
0.000102964
-0.000397051
0.000256691
-0.000936623
0.000494508
-0.00161976
0.000826548
-0.00240295
0.00126267
-0.00329319
0.00181228
-0.00428655
0.00248097
-0.00538266
0.00328256
-0.0065528
-0.00773645
0.00419242
2.65395e-05
-2.53831e-05
0.000120665
-0.000491177
0.00029325
-0.00110921
0.000556131
-0.00188264
0.00091933
-0.00276615
0.00139219
-0.00376605
0.00198324
-0.0048776
0.00269599
-0.00609542
0.0035446
-0.0074014
-0.00868803
0.00449618
3.21405e-05
-5.75236e-05
0.000139017
-0.000598053
0.000331005
-0.0013012
0.00061942
-0.00217106
0.00101393
-0.00316066
0.00152303
-0.00427515
0.00215397
-0.00550854
0.00290777
-0.00684922
0.00379803
-0.00829166
-0.0096732
0.00478319
3.79112e-05
-9.54348e-05
0.000157864
-0.000718006
0.000369599
-0.00151293
0.000683692
-0.00248515
0.00110917
-0.00358614
0.00165336
-0.00481934
0.00232173
-0.00617691
0.00311254
-0.00764004
0.00403772
-0.00921683
-0.0106824
0.00504695
4.38111e-05
-0.000139246
0.000177055
-0.00085125
0.00040867
-0.00174455
0.000748254
-0.00282473
0.00120388
-0.00404176
0.00178131
-0.00539677
0.0024838
-0.0068794
0.00330671
-0.00846294
0.00425894
-0.0101691
-0.0117054
0.00528193
4.98009e-05
-0.000189047
0.000196435
-0.000997883
0.000447856
-0.00199597
0.000812411
-0.00318929
0.00129687
-0.00452622
0.00190506
-0.00600497
0.00263755
-0.00761189
0.0034869
-0.0093123
0.0044574
-0.0111396
-0.0127319
0.0054839
5.58421e-05
-0.000244889
0.000215851
-0.00115789
0.000486793
-0.00226691
0.000875463
-0.00357796
0.00138695
-0.0050377
0.00202278
-0.0066408
0.00278047
-0.00836957
0.00365014
-0.010182
0.00462929
-0.0121187
-0.0137527
0.0056501
6.18964e-05
-0.000306785
0.000235151
-0.00133115
0.000525117
-0.00255688
0.000936714
-0.00398956
0.00147297
-0.00557396
0.00213274
-0.00730057
0.00291023
-0.00914707
0.0037939
-0.0110656
0.00477172
-0.0130965
-0.0147631
0.00578205
6.79263e-05
-0.000374712
0.000254183
-0.0015174
0.000562465
-0.00286516
0.000995476
-0.00442257
0.00155379
-0.00613228
0.00223325
-0.00798002
0.00302463
-0.00993845
0.00391561
-0.0119566
0.0048857
-0.0140666
-0.0157649
0.0058875
7.35783e-05
-0.00044829
0.0002722
-0.00171603
0.000597713
-0.00319067
0.00105028
-0.00487513
0.00162766
-0.00670966
0.00232234
-0.0086747
0.00312155
-0.0107377
0.00401191
-0.012847
0.00497437
-0.0150291
-0.0169524
0.00616191
7.94022e-05
-0.000527692
0.000290164
-0.00192679
0.000631938
-0.00353244
0.00110196
-0.00534516
0.00169481
-0.00730251
0.00239934
-0.00937922
0.00319914
-0.0115375
0.00407896
-0.0137268
0.00501362
-0.0159637
-0.0180414
0.00610261
8.50853e-05
-0.000612777
0.000307395
-0.0021491
0.000664101
-0.00388915
0.00114918
-0.00583023
0.0017537
-0.00790703
0.00246269
-0.0100882
0.00325615
-0.0123309
0.00411612
-0.0145867
0.00501196
-0.0168596
-0.0190351
0.00600567
9.05884e-05
-0.000703366
0.000323741
-0.00238225
0.000693859
-0.00425927
0.00119133
-0.0063277
0.00180347
-0.00851918
0.00251144
-0.0107962
0.00329185
-0.0131114
0.00412406
-0.015419
0.00497621
-0.0177117
-0.0199416
0.00588268
9.58716e-05
-0.000799237
0.00033905
-0.00262543
0.000720877
-0.00464109
0.00122786
-0.00683469
0.00184342
-0.00913473
0.00254485
-0.0114976
0.0033059
-0.0138724
0.00410373
-0.0162168
0.00490784
-0.0185158
-0.0207679
0.00573417
0.000100894
-0.000900131
0.00035317
-0.0028777
0.000744834
-0.00503276
0.00125828
-0.00734813
0.00187292
-0.00974937
0.00256244
-0.0121871
0.00329828
-0.0146082
0.00405622
-0.0169747
0.00480867
-0.0192683
-0.0215196
0.00556036
0.000105614
-0.00100574
0.000365953
-0.00313804
0.000765427
-0.00543223
0.00128212
-0.00786483
0.00189149
-0.0103587
0.00256395
-0.0128596
0.00326929
-0.0153136
0.00398285
-0.0176883
0.00468085
-0.0199663
-0.0222008
0.00536205
0.000109988
-0.00111573
0.000377252
-0.00340531
0.000782371
-0.00583735
0.00129902
-0.00838147
0.0018988
-0.0109585
0.00254932
-0.0135101
0.00321949
-0.0159838
0.00388512
-0.0183539
0.0045267
-0.0206079
-0.0228147
0.00514066
0.000113973
-0.00122971
0.000386926
-0.00367826
0.000795408
-0.00624583
0.00130864
-0.0088947
0.00189464
-0.0115445
0.00251874
-0.0141342
0.00314972
-0.0166147
0.00376472
-0.0189689
0.00434868
-0.0211918
-0.0233641
0.00489808
0.000117525
-0.00134723
0.000394839
-0.00395558
0.000804308
-0.0066553
0.00131075
-0.00940115
0.00187894
-0.0121127
0.00247255
-0.0147278
0.00306099
-0.0172032
0.00362344
-0.0195314
0.00414929
-0.0217177
-0.0238513
0.00463648
0.000120601
-0.00146783
0.000400866
-0.00423584
0.000808875
-0.00706331
0.0013052
-0.00989747
0.00185175
-0.0126593
0.00241128
-0.0152873
0.00295448
-0.0177464
0.00346319
-0.0200401
0.00393101
-0.0221855
-0.0242785
0.00435815
0.000123157
-0.00159099
0.000404888
-0.00451757
0.000808949
-0.00746737
0.00129188
-0.0103804
0.00181328
-0.0131807
0.00233562
-0.0158097
0.00283152
-0.0182423
0.00328587
-0.0204944
0.00369625
-0.0225959
-0.0246476
0.00406536
0.000125151
-0.00171614
0.000406803
-0.00479922
0.000804409
-0.00786498
0.00127081
-0.0108468
0.00176383
-0.0136737
0.00224637
-0.0162922
0.0026935
-0.0186894
0.00309342
-0.0208943
0.00344732
-0.0229498
-0.0249606
0.00376033
0.000126545
-0.00184268
0.000406521
-0.0050792
0.000795178
-0.00825364
0.00124205
-0.0112937
0.00170382
-0.0141355
0.00214444
-0.0167328
0.00254185
-0.0190868
0.0028877
-0.0212402
0.00318637
-0.0232485
-0.0252193
0.00344512
0.0001273
-0.00196998
0.000403969
-0.00535587
0.00078122
-0.00863089
0.00120577
-0.0117182
0.00163375
-0.0145634
0.0020308
-0.0171299
0.00237804
-0.0194341
0.00267052
-0.0215327
0.0029154
-0.0234933
-0.0254256
0.00312164
0.000127384
-0.00209737
0.000399091
-0.00562758
0.000762545
-0.00899434
0.00116217
-0.0121178
0.00155421
-0.0149555
0.00190648
-0.0174822
0.00220349
-0.0197311
0.00244359
-0.0217728
0.00263623
-0.023686
-0.025581
0.00279165
0.000126767
-0.00222414
0.000391851
-0.00589266
0.000739202
-0.00934169
0.00111155
-0.0124902
0.00146584
-0.0153098
0.00177254
-0.0177889
0.00201963
-0.0199782
0.00220852
-0.0219617
0.00235055
-0.023828
-0.0256872
0.00245673
0.000125424
-0.00234956
0.000382232
-0.00614947
0.000711288
-0.00967075
0.00105425
-0.0128332
0.00136935
-0.0156249
0.00163005
-0.0180496
0.0018278
-0.0201759
0.00196682
-0.0221007
0.00205986
-0.023921
-0.0257456
0.00211832
0.000123334
-0.00247289
0.000370237
-0.00639637
0.000678935
-0.00997945
0.000990654
-0.0131449
0.00126546
-0.0158997
0.00148007
-0.0182642
0.0016293
-0.0203252
0.00171987
-0.0221912
0.00176553
-0.0239667
-0.0257578
0.00177769
0.000120486
-0.00259338
0.000355891
-0.00663178
0.000642314
-0.0102659
0.000921203
-0.0134238
0.00115493
-0.0161334
0.00132362
-0.0184329
0.00142534
-0.0204269
0.00146893
-0.0222348
0.00146879
-0.0239666
-0.025725
0.00143601
0.000115869
-0.00270925
0.000337758
-0.00685367
0.000600075
-0.0105282
0.000845028
-0.0136687
0.00103761
-0.016326
0.00116141
-0.0185567
0.00121744
-0.0204829
0.00121627
-0.0222337
0.00117261
-0.0239229
-0.0256494
0.001097
0.000111433
-0.00282068
0.000318796
-0.00706103
0.000555508
-0.0107649
0.000765242
-0.0138784
0.00091604
-0.0164768
0.000995006
-0.0186356
0.00100592
-0.0204938
0.000960743
-0.0221885
0.000874218
-0.0238364
-0.0255314
0.000756172
0.000106222
-0.0029269
0.000297656
-0.00725246
0.00050736
-0.0109746
0.000681051
-0.0140521
0.000790084
-0.0165858
0.000825035
-0.0186706
0.000792135
-0.0204609
0.000704414
-0.0221008
0.000576394
-0.0237084
-0.025372
0.00041707
0.000100249
-0.00302715
0.000274442
-0.00742665
0.000455918
-0.0111561
0.000592974
-0.0141892
0.000660479
-0.0166533
0.000652362
-0.0186625
0.000577001
-0.0203856
0.000448161
-0.0219719
0.000279938
-0.0235401
-0.0251725
8.04347e-05
9.35355e-05
-0.00312069
0.000249274
-0.00758239
0.000401484
-0.0113083
0.000501534
-0.0142892
0.000527936
-0.0166797
0.000477808
-0.0186123
0.000361351
-0.0202691
0.000192776
-0.0218033
-1.41608e-05
-0.0233332
-0.0249337
-0.000252977
8.61063e-05
-0.00320679
0.000222282
-0.00771857
0.000344373
-0.0114304
0.00040725
-0.0143521
0.000393138
-0.0166656
0.000302141
-0.0185213
0.00014596
-0.0201129
-6.10638e-05
-0.0215963
-0.000305991
-0.0230883
-0.0246571
-0.000582628
7.79945e-05
-0.00328479
0.000193612
-0.00783419
0.000284907
-0.0115217
0.000310634
-0.0143778
0.000256737
-0.0166117
0.000126075
-0.0183907
-6.84594e-05
-0.0199184
-0.000312572
-0.0213522
-0.000594215
-0.0228066
-0.0243434
-0.00090793
6.92384e-05
-0.00335403
0.000163418
-0.00792837
0.000223417
-0.0115817
0.000212188
-0.0143666
0.000119354
-0.0165189
-4.97242e-05
-0.0182216
-0.000281257
-0.0196869
-0.000561252
-0.0210722
-0.000878521
-0.0224894
-0.0239935
-0.00122837
5.98818e-05
-0.00341391
0.000131864
-0.00800035
0.000160231
-0.01161
0.000112397
-0.0143188
-1.84275e-05
-0.0163881
-0.000224634
-0.0180154
-0.000491833
-0.0194197
-0.00080651
-0.0207575
-0.0011584
-0.0221375
-0.0236084
-0.00154348
4.99729e-05
-0.00346388
9.91181e-05
-0.00804949
9.56812e-05
-0.0116066
1.17305e-05
-0.0142348
-0.000156056
-0.0162203
-0.000398089
-0.0177734
-0.000699635
-0.0191181
-0.00104783
-0.0204093
-0.00143337
-0.0217519
-0.023189
-0.00185282
3.95644e-05
-0.00350345
6.53563e-05
-0.00807529
3.0095e-05
-0.0115713
-8.93625e-05
-0.0141154
-0.000293014
-0.0160166
-0.000569561
-0.0174968
-0.000904153
-0.0187835
-0.00128471
-0.0200288
-0.00170297
-0.0213337
-0.022736
-0.002156
2.87128e-05
-0.00353216
3.07573e-05
-0.00807733
-3.6219e-05
-0.0115044
-0.000190453
-0.0139611
-0.000428822
-0.0157783
-0.000738562
-0.0171871
-0.00110492
-0.0184172
-0.00151672
-0.019617
-0.00196679
-0.0208836
-0.0222501
-0.00245265
1.74785e-05
-0.00354964
-4.46263e-06
-0.00805539
-0.000102938
-0.0114059
-0.000291134
-0.0137729
-0.000563031
-0.0155064
-0.000904645
-0.0168455
-0.00130149
-0.0180203
-0.0017434
-0.0191751
-0.00222438
-0.0204026
-0.0217321
-0.00274239
5.91277e-06
-0.00355555
-4.02287e-05
-0.00800925
-0.000169762
-0.0112764
-0.00039102
-0.0135517
-0.000695225
-0.0152022
-0.0010674
-0.0164733
-0.00149347
-0.0175942
-0.00196435
-0.0187042
-0.00247533
-0.0198916
-0.0211825
-0.00302489
-5.92337e-06
-0.00354963
-7.62657e-05
-0.0079389
-0.000236399
-0.0111162
-0.00048975
-0.0132983
-0.000825022
-0.0148669
-0.00122645
-0.0160719
-0.0016805
-0.0171402
-0.00217917
-0.0182055
-0.00271923
-0.0193516
-0.0206019
-0.00329981
-1.79283e-05
-0.0035317
-0.000112425
-0.00784441
-0.000302571
-0.0109261
-0.000586985
-0.0130139
-0.000952067
-0.0145018
-0.00138146
-0.0156425
-0.00186223
-0.0166594
-0.00238748
-0.0176803
-0.00295562
-0.0187834
-0.0199908
-0.00356679
-3.00718e-05
-0.00350163
-0.000148536
-0.00772594
-0.000368012
-0.0107066
-0.000682409
-0.0126995
-0.00107604
-0.0141082
-0.00153211
-0.0151864
-0.00203836
-0.0161532
-0.00258895
-0.0171297
-0.00318407
-0.0181883
-0.0193494
-0.00382544
-4.22819e-05
-0.00345934
-0.00018443
-0.0075838
-0.000432468
-0.0104586
-0.000775726
-0.0123563
-0.00119664
-0.0136873
-0.00167813
-0.0147049
-0.00220861
-0.0156227
-0.00278324
-0.0165551
-0.00340415
-0.0175674
-0.0186781
-0.0040754
-5.44936e-05
-0.00340485
-0.000219945
-0.00741834
-0.000495699
-0.0101828
-0.000866662
-0.0119853
-0.00131359
-0.0132403
-0.00181927
-0.0141992
-0.00237276
-0.0150692
-0.00297007
-0.0159578
-0.0036153
-0.0169222
-0.0179777
-0.00431578
-6.664e-05
-0.00333821
-0.000254923
-0.00723006
-0.00055748
-0.00988025
-0.000954965
-0.0115878
-0.00142666
-0.0127686
-0.00195531
-0.0136706
-0.00253062
-0.0144939
-0.00314919
-0.0153392
-0.00381582
-0.0162555
-0.0172478
-0.00454564
-8.02945e-05
-0.00325792
-0.000291397
-0.00701896
-0.00061971
-0.00955194
-0.00104212
-0.0111654
-0.00153681
-0.0122739
-0.00208665
-0.0131207
-0.00268206
-0.0138985
-0.00331997
-0.0147013
-0.00400043
-0.0155751
-0.0165279
-0.00472039
-9.21024e-05
-0.00316581
-0.000324811
-0.00678625
-0.000677899
-0.00919885
-0.00112441
-0.0107189
-0.00164139
-0.011757
-0.0022119
-0.0125502
-0.00282703
-0.0132834
-0.00348424
-0.0140441
-0.00418431
-0.014875
-0.0157869
-0.00492528
-0.000103681
-0.00306213
-0.000357275
-0.00653266
-0.000734042
-0.00882208
-0.0012034
-0.0102495
-0.00174145
-0.0112189
-0.0023315
-0.0119602
-0.00296535
-0.0126495
-0.00364105
-0.0133684
-0.00436009
-0.014156
-0.0150246
-0.00512238
-0.000114968
-0.00294717
-0.000388653
-0.00625897
-0.000787964
-0.00842277
-0.00127892
-0.00975858
-0.00183683
-0.010661
-0.00244529
-0.0113517
-0.00309685
-0.0119979
-0.00379012
-0.0126751
-0.00452696
-0.0134191
-0.0142426
-0.00530901
-0.000125905
-0.00282126
-0.000418822
-0.00596605
-0.000839502
-0.00800209
-0.0013508
-0.00924728
-0.00192736
-0.0100845
-0.00255312
-0.0107259
-0.00322136
-0.0113297
-0.00393123
-0.0119652
-0.00468494
-0.0126654
-0.0134424
-0.00548508
-0.000136438
-0.00268482
-0.000447664
-0.00565483
-0.000888507
-0.00756125
-0.00141889
-0.0087169
-0.00201289
-0.00949046
-0.00265485
-0.010084
-0.00333876
-0.0106458
-0.00406426
-0.0112397
-0.00483389
-0.0118958
-0.0126254
-0.00565095
-0.000146514
-0.00253831
-0.00047507
-0.00532627
-0.000934839
-0.00710148
-0.00148303
-0.00816871
-0.00209328
-0.00888021
-0.00275036
-0.0094269
-0.00344892
-0.00994723
-0.00418908
-0.0104996
-0.0049737
-0.0111112
-0.0117924
-0.00580663
-0.000156085
-0.00238222
-0.000500938
-0.00498142
-0.000978371
-0.00662405
-0.00154311
-0.00760397
-0.00216843
-0.00825488
-0.00283954
-0.00875579
-0.00355172
-0.00923505
-0.00430557
-0.00974573
-0.00510425
-0.0103125
-0.0109447
-0.00595202
-0.000165103
-0.00221712
-0.000525174
-0.00462135
-0.00101899
-0.00613023
-0.001599
-0.00702396
-0.00223821
-0.00761567
-0.00292227
-0.00807174
-0.00364707
-0.00851025
-0.00441363
-0.00897917
-0.00522542
-0.0095007
-0.0100831
-0.00608703
-0.000173525
-0.0020436
-0.000547692
-0.00424718
-0.00105658
-0.00562134
-0.00165059
-0.00642995
-0.00230253
-0.00696373
-0.00299846
-0.0073758
-0.00373486
-0.00777386
-0.00451314
-0.00820088
-0.00533708
-0.00867676
-0.00920862
-0.00621152
-0.000181312
-0.00186228
-0.000568413
-0.00386008
-0.00109106
-0.0050987
-0.00169779
-0.00582321
-0.00236129
-0.00630023
-0.00306802
-0.00666907
-0.00381499
-0.00702688
-0.00460401
-0.00741187
-0.0054391
-0.00784167
-0.00832238
-0.00632534
-0.000188427
-0.00167386
-0.000587267
-0.00346124
-0.00112233
-0.00456364
-0.00174052
-0.00520503
-0.00241441
-0.00562635
-0.00313087
-0.00595261
-0.00388739
-0.00627035
-0.00468613
-0.00661314
-0.00553136
-0.00699643
-0.0074254
-0.00642835
-0.000194838
-0.00147902
-0.000604189
-0.00305189
-0.00115032
-0.00401751
-0.00177869
-0.00457666
-0.00246181
-0.00494322
-0.00318693
-0.0052275
-0.00395197
-0.00550531
-0.00475939
-0.00580572
-0.00561372
-0.0061421
-0.00651875
-0.00652036
-0.000200516
-0.0012785
-0.000619124
-0.00263328
-0.00117496
-0.00346167
-0.00181224
-0.00393938
-0.00250343
-0.00425203
-0.00323613
-0.0044948
-0.00400865
-0.00473278
-0.00482372
-0.00499065
-0.00568607
-0.00527975
-0.00560358
-0.00660124
-0.000205435
-0.00107307
-0.000632022
-0.00220669
-0.0011962
-0.0028975
-0.00184111
-0.00329447
-0.00253922
-0.00355391
-0.00327842
-0.0037556
-0.00405737
-0.00395383
-0.00487902
-0.004169
-0.0057483
-0.00441047
-0.00468104
-0.00667084
-0.000209572
-0.000863496
-0.000642841
-0.00177342
-0.00121398
-0.00232636
-0.00186525
-0.0026432
-0.00256912
-0.00285004
-0.00331374
-0.00301099
-0.00409806
-0.00316952
-0.00492522
-0.00334184
-0.0058003
-0.00353538
-0.00375231
-0.00672903
-0.000212912
-0.000650585
-0.000651547
-0.00133479
-0.00122826
-0.00174965
-0.00188461
-0.00198685
-0.0025931
-0.00214155
-0.00334205
-0.00226203
-0.00413067
-0.0023809
-0.00496225
-0.00251025
-0.005842
-0.00265563
-0.0028186
-0.00677571
-0.000215437
-0.000435148
-0.000658113
-0.000892112
-0.00123901
-0.00116876
-0.00189917
-0.00132668
-0.00261111
-0.00142961
-0.00336332
-0.00150982
-0.00415516
-0.00158906
-0.00499007
-0.00167535
-0.00587333
-0.00177237
-0.00188115
-0.00681078
-0.000217139
-0.000218009
-0.000662516
-0.000446735
-0.0012462
-0.000585077
-0.00190891
-0.000663971
-0.00262314
-0.000715378
-0.00337751
-0.00075545
-0.00417151
-0.000795064
-0.00500863
-0.000838224
-0.00589423
-0.000886768
-0.000941197
-0.00683419
-0.000218009
5.93996e-11
-0.000664744
6.66276e-11
-0.00124982
4.21819e-11
-0.00191379
4.65714e-11
-0.00262917
7.46862e-11
-0.00338462
7.37768e-11
-0.00417968
6.56742e-11
-0.00501791
5.31981e-11
-0.00590468
4.09484e-11
2.9848e-11
-0.00684587
-0.000218009
0.000218009
-0.000664744
0.000446735
-0.00124982
0.000585077
-0.00191379
0.000663971
-0.00262917
0.000715378
-0.00338462
0.00075545
-0.00417968
0.000795064
-0.00501791
0.000838224
-0.00590468
0.000886768
0.000941197
-0.00684587
-0.000217139
0.000435148
-0.000662516
0.000892113
-0.0012462
0.00116876
-0.00190891
0.00132668
-0.00262314
0.00142961
-0.00337751
0.00150982
-0.00417151
0.00158906
-0.00500863
0.00167535
-0.00589423
0.00177237
0.00188115
-0.00683419
-0.000215437
0.000650585
-0.000658113
0.00133479
-0.00123901
0.00174965
-0.00189917
0.00198685
-0.00261111
0.00214155
-0.00336332
0.00226203
-0.00415516
0.0023809
-0.00499007
0.00251025
-0.00587333
0.00265563
0.0028186
-0.00681078
-0.000212912
0.000863496
-0.000651547
0.00177342
-0.00122826
0.00232636
-0.00188461
0.0026432
-0.0025931
0.00285004
-0.00334205
0.00301099
-0.00413067
0.00316952
-0.00496225
0.00334184
-0.005842
0.00353538
0.00375231
-0.00677571
-0.000209572
0.00107307
-0.000642841
0.00220669
-0.00121398
0.0028975
-0.00186525
0.00329447
-0.00256912
0.00355391
-0.00331374
0.0037556
-0.00409806
0.00395383
-0.00492522
0.004169
-0.0058003
0.00441047
0.00468104
-0.00672903
-0.000205435
0.0012785
-0.000632022
0.00263328
-0.0011962
0.00346167
-0.00184111
0.00393938
-0.00253922
0.00425203
-0.00327842
0.0044948
-0.00405737
0.00473278
-0.00487902
0.00499065
-0.0057483
0.00527975
0.00560358
-0.00667084
-0.000200516
0.00147902
-0.000619124
0.00305189
-0.00117496
0.00401751
-0.00181224
0.00457666
-0.00250343
0.00494323
-0.00323613
0.0052275
-0.00400865
0.00550531
-0.00482372
0.00580572
-0.00568607
0.0061421
0.00651875
-0.00660124
-0.000194838
0.00167386
-0.000604189
0.00346124
-0.00115032
0.00456364
-0.00177869
0.00520503
-0.00246181
0.00562635
-0.00318693
0.00595261
-0.00395197
0.00627035
-0.00475939
0.00661314
-0.00561372
0.00699643
0.0074254
-0.00652036
-0.000188427
0.00186228
-0.000587267
0.00386008
-0.00112233
0.0050987
-0.00174052
0.00582322
-0.00241441
0.00630023
-0.00313087
0.00666907
-0.00388739
0.00702688
-0.00468613
0.00741187
-0.00553136
0.00784167
0.00832238
-0.00642835
-0.000181312
0.0020436
-0.000568413
0.00424718
-0.00109106
0.00562135
-0.00169779
0.00642995
-0.00236129
0.00696373
-0.00306802
0.0073758
-0.00381499
0.00777386
-0.00460401
0.00820088
-0.0054391
0.00867676
0.00920862
-0.00632534
-0.000173525
0.00221712
-0.000547692
0.00462135
-0.00105658
0.00613023
-0.00165059
0.00702396
-0.00230253
0.00761567
-0.00299846
0.00807174
-0.00373486
0.00851025
-0.00451314
0.00897917
-0.00533708
0.0095007
0.0100831
-0.00621152
-0.000165103
0.00238222
-0.000525174
0.00498142
-0.00101899
0.00662405
-0.001599
0.00760397
-0.00223821
0.00825488
-0.00292227
0.00875579
-0.00364707
0.00923505
-0.00441362
0.00974573
-0.00522542
0.0103125
0.0109447
-0.00608703
-0.000156085
0.00253831
-0.000500938
0.00532627
-0.000978371
0.00710148
-0.00154311
0.00816871
-0.00216843
0.00888021
-0.00283954
0.0094269
-0.00355172
0.00994723
-0.00430557
0.0104996
-0.00510425
0.0111112
0.0117924
-0.00595202
-0.000146514
0.00268482
-0.00047507
0.00565483
-0.000934839
0.00756125
-0.00148303
0.0087169
-0.00209328
0.00949046
-0.00275036
0.010084
-0.00344892
0.0106458
-0.00418908
0.0112397
-0.0049737
0.0118958
0.0126254
-0.00580663
-0.000136438
0.00282126
-0.000447664
0.00596605
-0.000888507
0.00800209
-0.00141889
0.00924728
-0.00201289
0.0100845
-0.00265485
0.0107259
-0.00333876
0.0113297
-0.00406426
0.0119652
-0.00483389
0.0126654
0.0134424
-0.00565095
-0.000125905
0.00294717
-0.000418822
0.00625897
-0.000839502
0.00842277
-0.0013508
0.00975858
-0.00192736
0.010661
-0.00255312
0.0113517
-0.00322136
0.0119979
-0.00393123
0.0126751
-0.00468494
0.0134191
0.0142426
-0.00548508
-0.000114968
0.00306213
-0.000388653
0.00653266
-0.000787964
0.00882208
-0.00127892
0.0102495
-0.00183683
0.0112189
-0.00244529
0.0119602
-0.00309685
0.0126495
-0.00379012
0.0133684
-0.00452696
0.014156
0.0150246
-0.00530901
-0.000103681
0.00316581
-0.000357275
0.00678625
-0.000734042
0.00919885
-0.0012034
0.0107189
-0.00174145
0.011757
-0.0023315
0.0125502
-0.00296535
0.0132834
-0.00364105
0.0140441
-0.00436009
0.014875
0.0157869
-0.00512238
-9.21024e-05
0.00325792
-0.000324811
0.00701896
-0.000677899
0.00955194
-0.00112441
0.0111654
-0.00164139
0.0122739
-0.0022119
0.0131207
-0.00282703
0.0138985
-0.00348424
0.0147013
-0.00418431
0.0155751
0.0165279
-0.00492528
-8.02945e-05
0.00333821
-0.000291397
0.00723006
-0.00061971
0.00988025
-0.00104212
0.0115878
-0.00153681
0.0127686
-0.00208665
0.0136706
-0.00268206
0.0144939
-0.00331997
0.0153392
-0.00400043
0.0162555
0.0172478
-0.00472039
-6.664e-05
0.00340485
-0.000254923
0.00741834
-0.00055748
0.0101828
-0.000954965
0.0119853
-0.00142666
0.0132403
-0.00195531
0.0141992
-0.00253062
0.0150692
-0.00314919
0.0159578
-0.00381582
0.0169222
0.0179777
-0.00454564
-5.44936e-05
0.00345934
-0.000219945
0.0075838
-0.000495699
0.0104586
-0.000866662
0.0123563
-0.00131359
0.0136873
-0.00181927
0.0147049
-0.00237276
0.0156227
-0.00297007
0.0165551
-0.0036153
0.0175674
0.0186781
-0.00431578
-4.22818e-05
0.00350163
-0.00018443
0.00772594
-0.000432468
0.0107066
-0.000775725
0.0126995
-0.00119664
0.0141082
-0.00167813
0.0151864
-0.00220861
0.0161532
-0.00278324
0.0171297
-0.00340415
0.0181883
0.0193494
-0.0040754
-3.00718e-05
0.0035317
-0.000148536
0.00784441
-0.000368012
0.0109261
-0.000682409
0.0130139
-0.00107604
0.0145018
-0.00153211
0.0156425
-0.00203836
0.0166594
-0.00258895
0.0176803
-0.00318407
0.0187834
0.0199908
-0.00382544
-1.79283e-05
0.00354963
-0.000112425
0.0079389
-0.000302571
0.0111162
-0.000586985
0.0132983
-0.000952067
0.0148669
-0.00138146
0.0160719
-0.00186223
0.0171402
-0.00238748
0.0182055
-0.00295562
0.0193516
0.0206019
-0.00356679
-5.92336e-06
0.00355555
-7.62657e-05
0.00800925
-0.000236399
0.0112764
-0.00048975
0.0135517
-0.000825021
0.0152022
-0.00122645
0.0164733
-0.0016805
0.0175942
-0.00217917
0.0187042
-0.00271923
0.0198916
0.0211825
-0.00329981
5.91277e-06
0.00354964
-4.02287e-05
0.00805539
-0.000169762
0.0114059
-0.00039102
0.0137729
-0.000695225
0.0155064
-0.0010674
0.0168455
-0.00149347
0.0180203
-0.00196435
0.0191751
-0.00247533
0.0204026
0.0217321
-0.00302489
1.74785e-05
0.00353216
-4.4626e-06
0.00807733
-0.000102938
0.0115044
-0.000291134
0.0139611
-0.000563031
0.0157783
-0.000904645
0.0171871
-0.00130149
0.0184172
-0.0017434
0.019617
-0.00222438
0.0208836
0.0222501
-0.00274239
2.87128e-05
0.00350345
3.07573e-05
0.00807529
-3.6219e-05
0.0115713
-0.000190453
0.0141154
-0.000428822
0.0160166
-0.000738562
0.0174968
-0.00110492
0.0187835
-0.00151672
0.0200288
-0.00196679
0.0213337
0.022736
-0.00245265
3.95644e-05
0.00346388
6.53563e-05
0.00804949
3.0095e-05
0.0116066
-8.93624e-05
0.0142348
-0.000293014
0.0162203
-0.000569561
0.0177734
-0.000904153
0.0191181
-0.00128471
0.0204093
-0.00170297
0.0217519
0.023189
-0.002156
4.99729e-05
0.00341391
9.91182e-05
0.00800035
9.56812e-05
0.01161
1.17306e-05
0.0143188
-0.000156056
0.0163881
-0.000398089
0.0180154
-0.000699634
0.0194197
-0.00104783
0.0207575
-0.00143337
0.0221375
0.0236084
-0.00185282
5.98818e-05
0.00335403
0.000131864
0.00792837
0.000160231
0.0115817
0.000112397
0.0143666
-1.84274e-05
0.0165189
-0.000224634
0.0182216
-0.000491832
0.0196869
-0.00080651
0.0210722
-0.0011584
0.0224894
0.0239935
-0.00154348
6.92384e-05
0.00328479
0.000163418
0.00783419
0.000223417
0.0115217
0.000212188
0.0143778
0.000119354
0.0166117
-4.9724e-05
0.0183907
-0.000281256
0.0199184
-0.000561252
0.0213522
-0.00087852
0.0228066
0.0243434
-0.00122837
7.79945e-05
0.00320679
0.000193612
0.00771857
0.000284907
0.0114304
0.000310635
0.0143521
0.000256738
0.0166656
0.000126075
0.0185213
-6.84593e-05
0.0201129
-0.000312572
0.0215963
-0.000594215
0.0230883
0.0246571
-0.00090793
8.61063e-05
0.00312069
0.000222282
0.00758239
0.000344373
0.0113083
0.00040725
0.0142892
0.000393138
0.0166797
0.000302141
0.0186123
0.000145961
0.0202691
-6.10635e-05
0.0218033
-0.000305991
0.0233332
0.0249337
-0.000582628
9.35355e-05
0.00302715
0.000249274
0.00742665
0.000401484
0.0111561
0.000501534
0.0141892
0.000527936
0.0166533
0.000477809
0.0186625
0.000361351
0.0203856
0.000192776
0.0219719
-1.41605e-05
0.0235401
0.0251725
-0.000252977
0.000100249
0.0029269
0.000274442
0.00725246
0.000455918
0.0109746
0.000592974
0.0140521
0.00066048
0.0165858
0.000652362
0.0186706
0.000577001
0.0204609
0.000448161
0.0221008
0.000279938
0.0237084
0.025372
8.04349e-05
0.000106222
0.00282068
0.000297656
0.00706103
0.00050736
0.0107649
0.000681051
0.0138784
0.000790084
0.0164768
0.000825035
0.0186356
0.000792136
0.0204938
0.000704415
0.0221885
0.000576394
0.0238364
0.0255314
0.00041707
0.000111433
0.00270925
0.000318796
0.00685366
0.000555508
0.0105282
0.000765242
0.0136687
0.00091604
0.016326
0.000995007
0.0185567
0.00100592
0.0204829
0.000960743
0.0222337
0.000874218
0.0239229
0.0256494
0.000756173
0.000115869
0.00259338
0.000337758
0.00663178
0.000600075
0.0102659
0.000845028
0.0134238
0.00103761
0.0161334
0.00116141
0.0184329
0.00121744
0.0204269
0.00121627
0.0222348
0.00117261
0.0239666
0.025725
0.001097
0.000120486
0.00247289
0.000355891
0.00639637
0.000642314
0.00997945
0.000921203
0.0131449
0.00115493
0.0158997
0.00132362
0.0182642
0.00142534
0.0203251
0.00146893
0.0221912
0.00146879
0.0239667
0.0257578
0.00143601
0.000123334
0.00234956
0.000370237
0.00614947
0.000678935
0.00967075
0.000990654
0.0128332
0.00126546
0.0156249
0.00148007
0.0180496
0.0016293
0.0201759
0.00171987
0.0221007
0.00176553
0.023921
0.0257456
0.00177769
0.000125424
0.00222414
0.000382232
0.00589266
0.000711288
0.00934169
0.00105425
0.0124902
0.00136935
0.0153098
0.00163005
0.0177889
0.0018278
0.0199782
0.00196682
0.0219617
0.00205986
0.023828
0.0256872
0.00211832
0.000126767
0.00209737
0.000391851
0.00562758
0.000739203
0.00899434
0.00111155
0.0121178
0.00146584
0.0149555
0.00177255
0.0174822
0.00201963
0.0197311
0.00220852
0.0217728
0.00235055
0.023686
0.025581
0.00245673
0.000127384
0.00196998
0.000399091
0.00535587
0.000762545
0.00863089
0.00116217
0.0117182
0.00155421
0.0145634
0.00190648
0.0171299
0.00220349
0.0194341
0.00244359
0.0215327
0.00263623
0.0234933
0.0254256
0.00279165
0.0001273
0.00184268
0.000403969
0.0050792
0.00078122
0.00825363
0.00120577
0.0112937
0.00163375
0.0141354
0.0020308
0.0167328
0.00237804
0.0190868
0.00267052
0.0212402
0.0029154
0.0232485
0.0252193
0.00312164
0.000126545
0.00171614
0.000406521
0.00479922
0.000795178
0.00786498
0.00124205
0.0108468
0.00170382
0.0136737
0.00214444
0.0162922
0.00254185
0.0186894
0.0028877
0.0208943
0.00318637
0.0229498
0.0249606