/*--------------------------------*- C++ -*----------------------------------*\
  =========                 |
  \\      /  F ield         | OpenFOAM: The Open Source CFD Toolbox
   \\    /   O peration     | Website:  https://openfoam.org
    \\  /    A nd           | Version:  7
     \\/     M anipulation  |
\*---------------------------------------------------------------------------*/
FoamFile
{
    version     2.0;
    format      ascii;
    class       volVectorField;
    location    "10";
    object      U;
}
// * * * * * * * * * * * * * * * * * * * * * * * * * * * * * * * * * * * * * //

dimensions      [0 1 -1 0 0 0 0];

internalField   nonuniform List<vector> 
10500
(
(-0.00462471 0.00053973 -5.92221e-21)
(-0.0063455 -0.000277957 8.32276e-21)
(0.000246771 -0.0013094 -4.59108e-20)
(0.0148715 -0.00244714 -3.93316e-20)
(0.0365542 -0.00346132 -1.0822e-20)
(0.0634248 -0.0043883 6.33183e-21)
(0.0943846 -0.00520295 -3.45541e-20)
(0.129296 -0.00593337 -4.93138e-21)
(0.165111 -0.00640528 -1.03057e-20)
(0.205208 -0.00688465 7.77317e-21)
(-0.0046214 0.00159394 -9.89832e-21)
(-0.005879 -0.000866833 -2.07413e-20)
(0.00141166 -0.003952 -3.84099e-20)
(0.0168016 -0.00735044 5.98211e-20)
(0.039308 -0.0103743 2.73336e-20)
(0.067033 -0.0131342 -1.04835e-20)
(0.098862 -0.015556 3.75423e-20)
(0.134699 -0.0177204 -4.4318e-20)
(0.171293 -0.0191197 -8.41976e-22)
(0.212644 -0.0205026 -1.44131e-20)
(-0.0046077 0.00257287 -6.55651e-20)
(-0.00493624 -0.00155434 6.56991e-20)
(0.00374843 -0.00666598 7.37347e-20)
(0.0206636 -0.012281 -1.79619e-19)
(0.0448093 -0.0172587 -5.78916e-20)
(0.0742323 -0.0217882 1.34189e-19)
(0.107786 -0.0257505 1.76681e-20)
(0.145453 -0.0292686 1.10853e-19)
(0.183587 -0.0315466 4.84374e-20)
(0.227406 -0.0336685 1.19152e-20)
(-0.00456961 0.00342844 6.34192e-20)
(-0.00349789 -0.00240328 -1.1426e-19)
(0.00727094 -0.00949604 -1.3066e-19)
(0.0264608 -0.0172541 2.07158e-19)
(0.0530458 -0.0240929 1.48202e-20)
(0.0849888 -0.0302875 -7.68829e-21)
(0.121094 -0.0356805 1.53306e-19)
(0.161458 -0.0404199 1.26671e-20)
(0.201853 -0.0434982 -2.14504e-20)
(0.249278 -0.0460886 1.08592e-19)
(-0.00448653 0.00411558 -2.85894e-19)
(-0.00153548 -0.00347167 5.68631e-22)
(0.0119996 -0.0124817 -7.1551e-20)
(0.0341981 -0.0222805 -1.64565e-20)
(0.0639986 -0.0308517 2.26082e-19)
(0.0992511 -0.0385666 -3.48618e-19)
(0.138695 -0.0452391 -2.55153e-19)
(0.182565 -0.0510179 1.04616e-19)
(0.225882 -0.0547925 7.66089e-20)
(0.277934 -0.0574816 -7.33115e-20)
(-0.00433159 0.0045929 4.98175e-19)
(0.000987984 -0.00481058 1.30272e-19)
(0.0179609 -0.0156557 4.88415e-19)
(0.0438813 -0.0273644 1.12436e-19)
(0.0776423 -0.0375045 1.79019e-19)
(0.116951 -0.0465568 3.32681e-19)
(0.160465 -0.0543181 -1.2933e-19)
(0.208573 -0.0609088 -2.73626e-19)
(0.255399 -0.0652549 3.21496e-20)
(0.312939 -0.0675843 1.50614e-19)
(-0.00407189 0.0048233 -1.5619e-19)
(0.0041172 -0.00646201 3.48228e-20)
(0.0251863 -0.0190421 -4.41935e-19)
(0.0555164 -0.0325021 1.42855e-19)
(0.0939443 -0.0440142 -1.54088e-19)
(0.138003 -0.0541848 2.78526e-20)
(0.18625 -0.0628081 1.17737e-19)
(0.239233 -0.069942 9.58211e-21)
(0.290065 -0.0747194 -3.72803e-19)
(0.353754 -0.0761582 -2.39226e-19)
(-0.00366968 0.00477777 -1.89928e-19)
(0.00790436 -0.00845994 -3.79478e-19)
(0.0337118 -0.0226552 4.74098e-19)
(0.0691094 -0.0376803 -1.6943e-21)
(0.112864 -0.0503357 -2.10733e-19)
(0.162302 -0.0613724 -4.48429e-19)
(0.215868 -0.0705983 5.23933e-19)
(0.274247 -0.0779719 -2.55948e-19)
(0.329476 -0.0830293 1.82589e-19)
(0.399737 -0.0829963 2.00091e-20)
(-0.00308407 0.00443521 1.23185e-19)
(0.0124073 -0.0108286 5.16196e-19)
(0.0435768 -0.0264972 -3.85108e-19)
(0.0846646 -0.042875 -4.39689e-19)
(0.134353 -0.0564151 1.12431e-19)
(0.189729 -0.068036 1.0479e-19)
(0.249106 -0.0775768 4.26221e-19)
(0.313272 -0.0848595 3.1801e-19)
(0.373176 -0.0900383 -1.23184e-19)
(0.450152 -0.0879298 1.99709e-19)
(-0.00227041 0.00377981 -1.98758e-19)
(0.0176876 -0.0135782 -5.25146e-20)
(0.0548228 -0.0305577 -2.62651e-19)
(0.102184 -0.04805 4.53772e-21)
(0.158353 -0.0621889 -1.4383e-20)
(0.220141 -0.0740865 1.95852e-19)
(0.285718 -0.0836309 4.53151e-20)
(0.355918 -0.0904744 4.13414e-19)
(0.420651 -0.0956109 1.20225e-19)
(0.504183 -0.090834 -2.10617e-19)
(-0.00118126 0.00280298 2.07555e-20)
(0.0238097 -0.0167056 -5.02908e-19)
(0.0674916 -0.0348123 4.15199e-19)
(0.121664 -0.0531563 -2.26901e-19)
(0.184794 -0.0675836 -6.7622e-20)
(0.253378 -0.0794294 -2.56464e-20)
(0.325433 -0.0886482 1.46245e-20)
(0.401753 -0.0946976 -6.24216e-19)
(0.471343 -0.0996231 3.27182e-20)
(0.560942 -0.0916336 4.74478e-20)
(0.000232313 0.00150474 -4.89061e-19)
(0.0308398 -0.0201941 7.89839e-19)
(0.0816237 -0.039222 -2.76991e-19)
(0.143097 -0.0581315 6.82669e-19)
(0.213594 -0.0725153 -6.29097e-19)
(0.289259 -0.0839658 -2.61272e-19)
(0.367948 -0.0925185 3.24356e-19)
(0.450307 -0.0974255 3.34871e-19)
(0.524654 -0.101964 -1.92167e-19)
(0.619496 -0.0903057 -1.82778e-19)
(0.00201972 -0.000106497 4.06634e-19)
(0.0388436 -0.0240134 -1.09946e-19)
(0.097256 -0.0437331 5.22893e-19)
(0.166466 -0.0629 -8.76077e-20)
(0.244655 -0.0768909 4.69043e-19)
(0.327579 -0.0875932 8.32579e-19)
(0.412928 -0.0951356 -4.0569e-19)
(0.501076 -0.0985728 3.56549e-20)
(0.57995 -0.102537 3.719e-19)
(0.678884 -0.0868812 2.22446e-19)
(0.00422993 -0.00201405 -1.96807e-19)
(0.0478846 -0.0281188 -6.01312e-19)
(0.11442 -0.0482771 -3.71847e-19)
(0.191744 -0.067373 -4.16382e-19)
(0.277864 -0.0806082 -5.0029e-20)
(0.368113 -0.0902078 -7.25677e-19)
(0.460013 -0.0964002 2.21003e-19)
(0.553528 -0.0980775 -3.17612e-19)
(0.636579 -0.101262 -2.7208e-19)
(0.738142 -0.0814465 -4.20368e-20)
(0.00691055 -0.00419319 3.36523e-19)
(0.0580222 -0.0324519 -5.19762e-20)
(0.13314 -0.0527709 -3.2382e-19)
(0.218891 -0.0714494 3.72641e-19)
(0.313088 -0.0835583 6.99451e-19)
(0.41061 -0.0917068 -6.42689e-20)
(0.508813 -0.0962238 -6.11324e-19)
(0.607113 -0.095905 2.94138e-19)
(0.693876 -0.0980796 5.15853e-19)
(0.796335 -0.0741497 8.48422e-20)
(0.0101068 -0.0066114 2.14057e-19)
(0.0693098 -0.0369408 8.16721e-20)
(0.153428 -0.0571178 1.1492e-19)
(0.247851 -0.0750175 -3.03825e-19)
(0.350174 -0.0856271 -5.17731e-19)
(0.454796 -0.0919908 8.41301e-19)
(0.558914 -0.0945322 4.42063e-19)
(0.661271 -0.0920511 -3.58807e-20)
(0.75118 -0.0929565 -3.2291e-19)
(0.852578 -0.0652089 -1.50021e-19)
(0.0138605 -0.00922877 5.56966e-19)
(0.0817929 -0.0415008 -1.39164e-19)
(0.175287 -0.0612089 1.77687e-19)
(0.278552 -0.0779565 1.45644e-19)
(0.388946 -0.0866987 -9.3636e-20)
(0.500371 -0.0909675 1.16857e-19)
(0.609878 -0.0912702 2.12067e-19)
(0.715443 -0.0865459 3.63893e-19)
(0.807835 -0.0858782 -2.6799e-19)
(0.906049 -0.0548689 -9.54757e-20)
(0.0182098 -0.0119989 -9.07208e-19)
(0.0955072 -0.0460361 6.63989e-19)
(0.198702 -0.0649247 -3.50958e-19)
(0.3109 -0.0801395 -5.79956e-19)
(0.429204 -0.086658 -1.06321e-19)
(0.547015 -0.088555 -6.96309e-19)
(0.661253 -0.0864071 -7.54003e-20)
(0.76909 -0.0794555 -2.05805e-19)
(0.863207 -0.0768246 5.49916e-19)
(0.955929 -0.043302 -1.30141e-19)
(0.023188 -0.0148698 -1.35786e-19)
(0.110477 -0.0504413 -3.03926e-19)
(0.223643 -0.0681376 9.0611e-19)
(0.344782 -0.0814359 8.39209e-19)
(0.470725 -0.0853947 -1.01334e-19)
(0.594385 -0.0846858 6.7752e-19)
(0.712572 -0.0799424 -1.67479e-19)
(0.821714 -0.0708818 6.23191e-20)
(0.916731 -0.0657639 3.29589e-19)
(1.00152 -0.0308927 6.27741e-19)
(0.0288203 -0.0177812 1.8337e-19)
(0.126712 -0.0546 1.71153e-19)
(0.250059 -0.0707116 5.87788e-21)
(0.380059 -0.0817133 -2.92096e-19)
(0.51326 -0.0828059 2.85647e-19)
(0.642119 -0.0793088 -2.27888e-19)
(0.763367 -0.0719093 1.63799e-19)
(0.872862 -0.0609518 2.0322e-19)
(0.967991 -0.0528304 2.82623e-19)
(1.04324 -0.0195869 -2.03397e-19)
(0.0351163 -0.0206598 -2.38731e-19)
(0.144198 -0.058381 -8.55609e-20)
(0.277871 -0.0725014 -6.90376e-19)
(0.416562 -0.0808383 3.52627e-19)
(0.556535 -0.0787978 -2.84853e-19)
(0.68984 -0.0723915 -4.31227e-19)
(0.813164 -0.0623706 -7.53582e-19)
(0.922062 -0.0498057 -2.31036e-19)
(1.01643 -0.038694 8.5505e-19)
(1.0846 -0.0128629 -4.82893e-20)
(0.0420844 -0.023436 9.67392e-19)
(0.162906 -0.0616562 -4.02819e-19)
(0.306982 -0.0733687 3.63718e-19)
(0.4541 -0.07869 1.28361e-19)
(0.600254 -0.0732964 9.75471e-19)
(0.737159 -0.0639252 3.72206e-20)
(0.861501 -0.0514084 7.69558e-19)
(0.968787 -0.0375929 -1.23381e-19)
(1.06058 -0.0245514 -2.92397e-19)
(1.12379 -0.00890669 -3.39653e-19)
(0.0497385 -0.0260496 -8.17889e-19)
(0.182808 -0.0643074 7.73461e-19)
(0.337284 -0.0731865 -2.48389e-19)
(0.492471 -0.0751638 5.81319e-19)
(0.644115 -0.0662491 -7.14521e-19)
(0.783693 -0.0539248 -4.62392e-20)
(0.907957 -0.0391173 1.53208e-19)
(1.01261 -0.0243925 1.91468e-19)
(1.10011 -0.0102634 -4.98252e-19)
(1.15861 -0.00150481 9.45631e-20)
(0.0580763 -0.0284303 -6.36431e-19)
(0.20385 -0.0662077 -5.63985e-19)
(0.368641 -0.0718265 -2.55784e-19)
(0.531444 -0.0701636 -1.07874e-18)
(0.687803 -0.0576209 4.41571e-20)
(0.829072 -0.0424268 -8.76695e-20)
(0.952156 -0.025605 -1.87978e-19)
(1.05321 -0.0102949 -4.31258e-19)
(1.13513 0.00422796 8.23441e-19)
(1.18836 0.00850339 1.94274e-19)
(0.0670838 -0.0305041 6.35589e-19)
(0.225955 -0.0672297 -1.50967e-19)
(0.400894 -0.0691677 -2.30696e-20)
(0.570771 -0.0636092 1.90277e-19)
(0.730994 -0.0473993 -2.96407e-19)
(0.872937 -0.0294925 6.53258e-19)
(0.99378 -0.0109975 -4.84531e-20)
(1.09036 0.00455978 -1.51211e-19)
(1.16586 0.0188211 -2.78689e-19)
(1.2135 0.0200497 -3.55642e-19)
(0.0767382 -0.0321976 4.34287e-19)
(0.249027 -0.0672513 2.09941e-20)
(0.433863 -0.0651021 3.88496e-19)
(0.610187 -0.0554411 1.20288e-19)
(0.773365 -0.0355972 1.01854e-18)
(0.914957 -0.0152079 -6.79044e-19)
(1.03256 0.00456357 1.71983e-19)
(1.1239 0.0200032 1.20159e-19)
(1.19246 0.0334043 -5.05914e-19)
(1.23433 0.0324081 4.34529e-19)
(0.087007 -0.0334381 -5.80175e-19)
(0.272954 -0.0661577 -1.68847e-19)
(0.467346 -0.0595369 4.40275e-19)
(0.649415 -0.0456225 -1.05268e-19)
(0.8146 -0.0222531 -7.4908e-19)
(0.954831 0.00031861 7.27303e-19)
(1.06829 0.0209249 2.17976e-19)
(1.15375 0.0358593 2.75009e-19)
(1.21513 0.0478753 3.2319e-19)
(1.25117 0.0450827 -4.22251e-19)
(0.0978486 -0.0341556 -4.80944e-19)
(0.297605 -0.0638438 1.07838e-19)
(0.501128 -0.0523975 -5.90526e-19)
(0.688173 -0.0341406 1.44732e-19)
(0.854392 -0.00743013 -6.18795e-19)
(0.992294 0.0169594 -8.01858e-19)
(1.10082 0.0379261 -5.9482e-19)
(1.17993 0.0519547 -8.12007e-20)
(1.23405 0.0621375 -3.60377e-19)
(1.26435 0.0577194 2.61684e-19)
(0.109211 -0.0342829 1.59513e-18)
(0.322832 -0.0602163 5.43299e-19)
(0.534977 -0.0436294 3.20427e-19)
(0.726173 -0.0210081 -6.79588e-19)
(0.892454 0.00878462 5.40645e-19)
(1.02712 0.0345714 3.53999e-19)
(1.13004 0.0554044 1.98837e-19)
(1.20247 0.0681264 -3.05397e-19)
(1.24946 0.0761024 -6.76433e-20)
(1.27421 0.0700758 -2.69784e-19)
(0.121033 -0.0337575 -9.99025e-19)
(0.348471 -0.055196 -9.28126e-19)
(0.568652 -0.0331999 -4.86076e-19)
(0.763133 -0.00626277 3.09773e-19)
(0.928521 0.0262827 2.84844e-20)
(1.05912 0.053 -6.17334e-19)
(1.1559 0.0731986 2.33702e-20)
(1.22147 0.0842257 6.37523e-19)
(1.26159 0.0896927 4.69517e-19)
(1.2811 0.0819973 3.66033e-19)
(0.133244 -0.0325223 -2.24304e-19)
(0.374343 -0.0487195 4.01188e-20)
(0.601902 -0.0210997 9.84393e-19)
(0.798777 0.0100325 -1.37887e-20)
(0.962354 0.0449366 1.13545e-19)
(1.08816 0.0720836 6.85047e-19)
(1.17841 0.0911531 -4.96606e-20)
(1.23709 0.100121 -2.93376e-19)
(1.27068 0.102844 -3.88004e-19)
(1.28535 0.0933922 -1.99742e-20)
(0.145764 -0.0305268 3.17379e-19)
(0.400261 -0.0407414 5.27845e-19)
(0.634474 -0.00734357 -9.22897e-19)
(0.832841 0.0277913 4.75266e-19)
(0.993743 0.0646033 -4.76213e-20)
(1.11414 0.0916569 -1.40061e-19)
(1.1976 0.10912 4.077e-19)
(1.24949 0.115701 -2.68458e-19)
(1.277 0.115505 1.2153e-19)
(1.28729 0.104213 1.88167e-19)
(0.158505 -0.0277284 2.50058e-19)
(0.426025 -0.0312353 1.04739e-19)
(0.666115 0.00802941 3.41761e-19)
(0.865075 0.046905 -4.42553e-19)
(1.02251 0.0851271 -1.88511e-19)
(1.13701 0.111555 -1.96566e-19)
(1.21355 0.126962 -2.33357e-19)
(1.25886 0.130867 5.14321e-19)
(1.28078 0.127637 -9.45818e-20)
(1.28718 0.114443 -2.18631e-19)
(0.171372 -0.0240931 -3.10758e-19)
(0.451428 -0.0201949 1.69842e-20)
(0.696575 0.0249562 -1.43328e-19)
(0.895254 0.0672451 1.13098e-19)
(1.04852 0.106343 5.36282e-19)
(1.15673 0.131616 3.15908e-19)
(1.22637 0.144554 -1.31328e-19)
(1.2654 0.145543 -1.16355e-19)
(1.28227 0.139211 2.3862e-19)
(1.28529 0.124083 4.57826e-20)
(0.184263 -0.0195966 -2.57953e-19)
(0.476261 -0.00763523 2.11397e-19)
(0.725614 0.0433503 -2.31301e-19)
(0.92317 0.0886656 7.10519e-20)
(1.07166 0.12808 -1.67722e-19)
(1.17332 0.151683 -2.24041e-20)
(1.23618 0.161782 1.14424e-19)
(1.26933 0.159663 -1.21498e-19)
(1.28169 0.150207 -2.8232e-21)
(1.28183 0.133145 3.10756e-20)
(0.197071 -0.0142251 4.00371e-19)
(0.500313 0.00640752 -3.28755e-19)
(0.753001 0.0631032 6.80651e-20)
(0.948645 0.111006 1.57216e-20)
(1.09184 0.150163 -3.80724e-20)
(1.18684 0.171607 2.1347e-20)
(1.24312 0.178545 -8.02838e-22)
(1.27083 0.173176 5.11558e-20)
(1.27927 0.160615 -4.85851e-20)
(1.27702 0.141645 -1.87948e-20)
(0.209682 -0.00797625 1.48629e-19)
(0.523374 0.0218754 1.31787e-19)
(0.778522 0.0840858 1.48971e-19)
(0.971526 0.134093 -2.22859e-19)
(1.10904 0.17242 -2.00629e-19)
(1.19734 0.191248 2.17509e-20)
(1.24737 0.194753 -1.30237e-19)
(1.27013 0.186039 -6.02647e-20)
(1.2752 0.170425 1.30632e-20)
(1.27102 0.149603 -1.39326e-21)
(0.221986 -0.000859663 -1.36741e-19)
(0.545239 0.038689 8.17962e-20)
(0.801979 0.10615 7.49344e-20)
(0.991688 0.157746 1.76453e-19)
(1.12323 0.194677 5.85964e-20)
(1.20493 0.210475 -1.05649e-19)
(1.24908 0.210328 -7.57923e-21)
(1.26742 0.198222 -9.44584e-22)
(1.26966 0.179636 -3.1057e-20)
(1.26398 0.157036 3.91975e-22)
(0.233868 0.0071027 8.23269e-21)
(0.565715 0.0567485 -1.40816e-19)
(0.823196 0.129132 -1.10821e-19)
(1.00904 0.181775 -5.05013e-20)
(1.13442 0.216765 -2.2852e-20)
(1.20971 0.229165 9.21721e-21)
(1.24842 0.225203 1.53421e-20)
(1.26288 0.209697 2.75442e-20)
(1.26282 0.188244 5.51528e-21)
(1.25604 0.163957 1.75622e-21)
(0.245205 0.015877 6.60135e-21)
(0.584609 0.0759354 -1.12329e-20)
(0.842015 0.152854 4.99183e-20)
(1.0235 0.205989 3.60348e-20)
(1.14266 0.238523 1.44731e-20)
(1.21181 0.247209 -6.76484e-21)
(1.24556 0.239316 -1.6529e-20)
(1.25669 0.220443 3.72009e-22)
(1.25483 0.19625 6.34597e-21)
(1.2473 0.170378 -4.14447e-21)
(0.255834 0.0254152 7.67718e-21)
(0.60172 0.0961097 -8.90044e-21)
(0.858291 0.177124 4.3723e-20)
(1.03504 0.230193 3.53487e-20)
(1.14801 0.259793 8.017e-21)
(1.21135 0.264503 -5.20428e-21)
(1.24068 0.252618 -1.54444e-20)
(1.249 0.230444 3.68574e-21)
(1.24581 0.203653 3.3268e-21)
(1.23785 0.176306 -2.24651e-21)
(0.265639 0.0356505 1.17377e-20)
(0.616883 0.117105 -1.28959e-19)
(0.871912 0.201735 -8.37448e-20)
(1.04363 0.25419 -5.15806e-20)
(1.15054 0.280424 -2.80432e-20)
(1.20849 0.280953 9.6272e-21)
(1.23393 0.265061 1.39747e-20)
(1.23997 0.239685 1.5593e-20)
(1.23589 0.210449 -4.39865e-22)
(1.2278 0.181742 3.67518e-21)
(0.274564 0.0465104 -1.00749e-19)
(0.629992 0.13875 8.06489e-20)
(0.88282 0.22648 5.43124e-20)
(1.04929 0.277789 1.35607e-19)
(1.15035 0.300277 3.71614e-20)
(1.20338 0.296478 -6.82347e-20)
(1.22547 0.276608 -5.28297e-21)
(1.22975 0.248152 -6.67858e-21)
(1.22517 0.216635 -1.20937e-20)
(1.2172 0.186685 2.08898e-23)
(0.282518 0.0579124 9.66015e-20)
(0.640932 0.160865 1.17485e-19)
(0.890963 0.251153 1.08014e-19)
(1.05208 0.300808 -1.61949e-19)
(1.14757 0.319222 -9.92066e-20)
(1.19616 0.311001 -7.00017e-21)
(1.21546 0.287224 -4.48654e-20)
(1.21845 0.255835 -2.76673e-20)
(1.21375 0.222209 6.35256e-21)
(1.20614 0.191131 1.93208e-21)
(0.289407 0.0697633 2.78362e-19)
(0.649601 0.183259 -2.7376e-19)
(0.896313 0.275542 5.9626e-20)
(1.05204 0.323066 1.41305e-20)
(1.14231 0.337138 3.53943e-21)
(1.18699 0.324456 6.73667e-21)
(1.20404 0.29688 1.10786e-20)
(1.20621 0.262722 1.56886e-20)
(1.20172 0.227166 -3.19301e-21)
(1.19465 0.195072 8.38398e-22)
(0.295148 0.0819599 -2.08432e-19)
(0.655921 0.205729 1.55141e-19)
(0.898867 0.299436 -1.67084e-19)
(1.04925 0.344393 6.93477e-20)
(1.13472 0.353912 -6.5964e-20)
(1.17602 0.336783 9.42906e-22)
(1.19135 0.305549 2.87774e-20)
(1.19311 0.268801 -7.58157e-21)
(1.18915 0.231499 5.06794e-21)
(1.18282 0.198501 -2.92942e-21)
(0.299673 0.0943909 -1.46954e-19)
(0.659839 0.22807 -2.24633e-20)
(0.898648 0.322628 -6.14748e-20)
(1.04382 0.364625 3.92129e-20)
(1.12493 0.369442 2.17266e-19)
(1.1634 0.347927 7.58988e-20)
(1.17752 0.313209 -7.81137e-21)
(1.17928 0.274064 4.26122e-21)
(1.1761 0.235198 -1.55109e-20)
(1.17068 0.201405 -4.89285e-21)
(0.302923 0.106938 1.70885e-19)
(0.661326 0.250071 2.66173e-20)
(0.895702 0.344914 2.03572e-19)
(1.03586 0.383607 -2.02671e-19)
(1.1131 0.383635 -5.13252e-20)
(1.14929 0.357841 -5.14252e-20)
(1.16268 0.319837 -2.45045e-21)
(1.16479 0.2785 -1.24936e-20)
(1.16264 0.238253 6.89857e-21)
(1.15829 0.203772 6.50141e-20)
(0.304854 0.119476 1.24584e-19)
(0.660374 0.271521 2.2582e-19)
(0.890098 0.366097 -3.44865e-19)
(1.02549 0.401196 1.66207e-19)
(1.09938 0.396404 -2.699e-20)
(1.13383 0.366485 -4.5897e-21)
(1.14696 0.325417 2.12283e-20)
(1.14975 0.282099 8.86862e-21)
(1.14884 0.240658 -2.38608e-20)
(1.14569 0.205585 -6.34051e-20)
(0.305434 0.131877 -1.07116e-19)
(0.657002 0.29221 -2.42709e-20)
(0.881928 0.385988 3.51798e-19)
(1.01285 0.417257 -3.66875e-21)
(1.08392 0.407676 1.07303e-20)
(1.11717 0.373821 1.82256e-20)
(1.13045 0.329932 -7.98305e-22)
(1.13422 0.284854 7.45625e-20)
(1.13474 0.242401 1.05356e-19)
(1.13292 0.206831 7.11279e-22)
(0.304649 0.144008 -3.29134e-19)
(0.651249 0.31193 -3.41604e-19)
(0.871301 0.404407 -1.35642e-19)
(0.998116 0.431668 3.39602e-20)
(1.0669 0.417382 -2.03228e-21)
(1.09945 0.37982 -3.73921e-21)
(1.11328 0.333369 3.42838e-21)
(1.1183 0.286756 -1.46667e-19)
(1.12039 0.243474 -1.83054e-20)
(1.12002 0.207492 -1.9209e-19)
(0.302496 0.155738 4.53561e-19)
(0.643181 0.33048 1.72317e-19)
(0.858345 0.421187 6.37769e-20)
(0.981433 0.444318 -9.10597e-20)
(1.04848 0.425466 -2.32138e-20)
(1.0808 0.384456 -3.78352e-20)
(1.09556 0.335718 -4.42475e-20)
(1.10204 0.287798 -9.74632e-20)
(1.10585 0.24387 3.29056e-20)
(1.10703 0.207552 1.14715e-19)
(0.29899 0.166932 -1.61085e-19)
(0.632883 0.347668 2.24283e-20)
(0.843206 0.43617 -8.12184e-20)
(0.962979 0.455109 1.60951e-20)
(1.02881 0.431878 8.91912e-21)
(1.06137 0.387708 1.58451e-19)
(1.07737 0.336971 1.11617e-19)
(1.08553 0.287976 1.32183e-20)
(1.09114 0.24358 1.24e-19)
(1.09398 0.206996 -1.45849e-19)
(0.29416 0.177461 -9.71039e-20)
(0.620463 0.363308 -2.10626e-20)
(0.826045 0.449215 3.63819e-20)
(0.942932 0.463952 1.60157e-20)
(1.00807 0.436577 1.33627e-19)
(1.04129 0.389561 -1.72711e-19)
(1.05883 0.337122 -8.36952e-20)
(1.06883 0.287286 -9.58948e-20)
(1.07632 0.242601 -1.5596e-19)
(1.08091 0.205807 2.19149e-19)
(0.288049 0.187197 3.3255e-20)
(0.606045 0.377229 -1.5114e-20)
(0.807037 0.460193 -2.47281e-20)
(0.921477 0.470774 -1.41466e-20)
(0.986421 0.439532 -1.7707e-19)
(1.02069 0.390004 1.31846e-19)
(1.04003 0.336168 -5.48373e-20)
(1.05201 0.285729 -6.6893e-20)
(1.06142 0.240931 2.27209e-19)
(1.06784 0.203969 -2.34675e-19)
(0.280715 0.196018 -6.11697e-20)
(0.589774 0.38927 -1.39722e-20)
(0.786368 0.46899 -1.3701e-20)
(0.898802 0.475514 -6.79084e-20)
(0.96402 0.440719 1.00686e-19)
(0.999704 0.389032 -1.89856e-19)
(1.02107 0.33411 -6.89713e-20)
(1.03514 0.283306 1.32427e-19)
(1.04648 0.23857 1.72615e-19)
(1.0548 0.201466 2.74374e-19)
(0.272232 0.20381 2.47759e-20)
(0.571812 0.399288 6.40119e-20)
(0.764233 0.475509 4.45658e-20)
(0.875099 0.478122 3.40507e-19)
(0.941034 0.440123 6.34013e-20)
(0.97845 0.386644 3.00704e-20)
(1.00204 0.33095 1.67815e-19)
(1.01829 0.280024 2.41795e-19)
(1.03152 0.235523 -6.33141e-19)
(1.04179 0.198281 -1.04798e-19)
(0.262686 0.210468 1.80615e-19)
(0.552335 0.407155 -1.38768e-19)
(0.740838 0.479668 8.01391e-20)
(0.850562 0.478561 -1.40823e-19)
(0.917622 0.437735 3.59307e-19)
(0.957054 0.382843 -2.41708e-20)
(0.983034 0.326696 -3.19545e-20)
(1.00153 0.27589 -1.35543e-19)
(1.01659 0.231791 4.22385e-19)
(1.02882 0.194396 -2.01013e-19)
(0.25218 0.215898 -2.83901e-19)
(0.531536 0.412762 9.61503e-20)
(0.716392 0.481403 -1.57655e-19)
(0.825384 0.476808 -2.39919e-20)
(0.893941 0.433558 -5.06396e-19)
(0.935637 0.377638 -5.55433e-20)
(0.964146 0.321356 -4.5015e-19)
(0.98493 0.270919 5.95313e-20)
(1.00172 0.227381 2.8293e-19)
(1.01592 0.18978 2.29243e-19)
(0.240811 0.220003 5.0519e-20)
(0.509608 0.416012 7.74346e-20)
(0.69111 0.480665 2.94166e-19)
(0.79976 0.472852 3.12173e-20)
(0.870145 0.427599 1.70252e-19)
(0.914315 0.371043 3.10738e-19)
(0.945466 0.314943 5.2238e-19)
(0.968564 0.265129 1.88104e-19)
(0.987022 0.222348 -6.29316e-19)
(1.00315 0.184517 1.36907e-19)
(0.228642 0.22265 -1.41844e-19)
(0.486739 0.416805 -2.43686e-20)
(0.665203 0.477412 8.55154e-22)
(0.77388 0.46669 1.82435e-19)
(0.846385 0.419876 -2.0367e-19)
(0.893203 0.363075 2.11953e-19)
(0.927082 0.307472 -1.78167e-19)
(0.952522 0.25853 -1.94735e-19)
(0.972724 0.216786 8.52066e-19)
(0.990426 0.179309 3.7095e-19)
(0.215812 0.223771 1.81271e-20)
(0.463159 0.415076 1.88702e-19)
(0.638895 0.471627 -4.80362e-19)
(0.747934 0.458338 -6.32764e-19)
(0.822809 0.410415 8.48102e-20)
(0.872411 0.35376 -4.47094e-19)
(0.909075 0.298957 1.60699e-19)
(0.936897 0.251099 -1.09732e-19)
(0.959048 0.210558 -2.84353e-19)
(0.978812 0.17437 -8.32641e-19)
(0.202514 0.223375 6.27027e-19)
(0.43912 0.410821 -4.27033e-19)
(0.612419 0.463329 2.7723e-19)
(0.722114 0.447825 3.57155e-19)
(0.799559 0.399248 1.5258e-19)
(0.852043 0.343124 5.77916e-19)
(0.891522 0.289417 1.6032e-19)
(0.921729 0.242847 2.10942e-19)
(0.945852 0.203593 -5.70243e-19)
(0.967318 0.168971 8.84401e-20)
(0.188897 0.221439 -4.31562e-19)
(0.41485 0.404037 1.23116e-19)
(0.585995 0.452541 -2.99634e-19)
(0.696603 0.435192 -7.52826e-20)
(0.776774 0.386417 -1.21354e-21)
(0.832201 0.331202 7.39088e-20)
(0.874496 0.278878 -3.20741e-19)
(0.907063 0.233797 -4.65436e-19)
(0.933133 0.19594 2.93866e-19)
(0.956115 0.162928 2.39592e-19)
(0.175099 0.217941 -2.13441e-19)
(0.390574 0.394731 -1.30086e-19)
(0.559839 0.439303 -5.45134e-19)
(0.671578 0.420488 1.66229e-19)
(0.754587 0.371969 5.08403e-19)
(0.812983 0.318032 -6.52792e-19)
(0.858067 0.267369 -5.72267e-19)
(0.89295 0.223973 2.30034e-19)
(0.92093 0.187651 5.2359e-19)
(0.945319 0.156289 7.72412e-20)
(0.161264 0.212876 -4.50667e-19)
(0.366515 0.382934 1.28443e-21)
(0.53416 0.42367 2.8227e-19)
(0.647211 0.403776 -3.37299e-19)
(0.733126 0.355961 -8.01268e-19)
(0.794483 0.30366 -6.0889e-20)
(0.842304 0.254924 8.80036e-19)
(0.879442 0.213402 -4.11357e-19)
(0.909282 0.178751 -5.36105e-19)
(0.934994 0.149101 -1.2846e-19)
(0.147538 0.206257 2.83314e-19)
(0.342895 0.368697 5.68036e-19)
(0.509164 0.405713 4.11123e-19)
(0.623665 0.38513 3.56723e-19)
(0.712511 0.338455 1.64004e-19)
(0.776788 0.288134 8.55073e-19)
(0.827275 0.241581 -3.57566e-19)
(0.866591 0.20211 2.91724e-19)
(0.898224 0.169262 5.21601e-19)
(0.92519 0.141384 1.25116e-19)
(0.134067 0.19811 -5.23761e-19)
(0.31993 0.352091 1.86965e-19)
(0.485048 0.385521 -6.1719e-19)
(0.601099 0.364632 1.68273e-19)
(0.69286 0.319522 -7.3992e-19)
(0.759985 0.271509 -9.7482e-19)
(0.813042 0.227381 4.77214e-19)
(0.854446 0.190131 -4.20639e-20)
(0.887794 0.159207 -4.51909e-19)
(0.915948 0.133153 -3.03761e-19)
(0.120992 0.188479 7.04297e-19)
(0.29783 0.333206 -9.74146e-19)
(0.462 0.363194 3.41264e-19)
(0.579661 0.342376 -7.22276e-19)
(0.674281 0.299237 5.73639e-19)
(0.744153 0.253845 4.48387e-19)
(0.799664 0.21237 -4.05053e-19)
(0.843052 0.177497 -4.65081e-19)
(0.878028 0.148613 3.21888e-19)
(0.907304 0.124432 2.41028e-19)
(0.108452 0.17742 -8.34943e-20)
(0.276795 0.31215 5.63305e-19)
(0.4402 0.338848 -6.13238e-19)
(0.559492 0.318466 4.34031e-19)
(0.656876 0.277683 -3.53483e-20)
(0.729367 0.235206 3.00656e-20)
(0.787197 0.196596 3.56008e-20)
(0.832453 0.164248 9.994e-19)
(0.868958 0.137509 -1.59456e-19)
(0.89929 0.115248 -3.59349e-20)
(0.0965798 0.165004 2.85444e-19)
(0.257017 0.289048 5.76735e-21)
(0.419816 0.312613 3.16996e-19)
(0.540723 0.293013 1.66296e-20)
(0.64074 0.25495 1.55703e-19)
(0.715697 0.21566 -3.27741e-19)
(0.775694 0.180112 -3.81399e-20)
(0.822688 0.150424 -5.52164e-19)
(0.860615 0.125929 -2.46785e-19)
(0.89193 0.105633 2.49675e-19)
(0.0855019 0.151316 -1.94152e-19)
(0.238673 0.264043 -7.16835e-19)
(0.401004 0.284627 5.46284e-19)
(0.523473 0.266139 6.39507e-19)
(0.625962 0.231131 -6.7108e-20)
(0.703206 0.195279 -2.15495e-19)
(0.765201 0.162975 6.78943e-19)
(0.813794 0.136071 -4.93967e-19)
(0.853026 0.113909 2.22697e-19)
(0.885247 0.0956206 -3.57324e-19)
(0.0753357 0.136453 3.75182e-19)
(0.221928 0.23729 -3.52103e-19)
(0.383907 0.255045 -7.55319e-19)
(0.507855 0.237971 5.50722e-20)
(0.61262 0.206326 3.81522e-19)
(0.691953 0.17414 5.72674e-19)
(0.755763 0.145243 -7.17935e-19)
(0.805804 0.121235 3.73482e-19)
(0.846217 0.101487 -2.81758e-19)
(0.879261 0.0852462 -1.42258e-19)
(0.0661893 0.120524 2.18868e-19)
(0.206933 0.208962 -3.83915e-20)
(0.368655 0.224029 7.45517e-19)
(0.493966 0.208644 -2.39603e-19)
(0.600786 0.18064 2.37922e-19)
(0.68199 0.152324 4.23888e-20)
(0.747418 0.12698 -2.81109e-19)
(0.798748 0.105967 1.35263e-19)
(0.840209 0.0887041 5.3375e-19)
(0.873987 0.0745483 5.07737e-19)
(0.05816 0.103648 -1.04723e-18)
(0.193822 0.179241 -2.14502e-19)
(0.355362 0.19175 -8.19897e-19)
(0.481895 0.178301 -2.35382e-19)
(0.590523 0.154181 -2.54185e-19)
(0.673364 0.129913 -5.31017e-19)
(0.7402 0.108249 1.78893e-19)
(0.79265 0.0903197 4.23191e-19)
(0.835023 0.0756048 4.65948e-21)
(0.86944 0.063567 -3.61856e-19)
(0.0513333 0.0859526 5.44762e-19)
(0.182712 0.148322 -1.06343e-20)
(0.34413 0.158389 1.21346e-19)
(0.471718 0.147087 2.83311e-20)
(0.581887 0.127061 -3.3272e-19)
(0.666113 0.106994 4.8773e-19)
(0.73414 0.0891197 4.46419e-19)
(0.787534 0.0743475 -2.35591e-19)
(0.830675 0.0622343 -1.16561e-19)
(0.865633 0.0523435 1.77281e-19)
(0.045782 0.0675756 -1.34144e-19)
(0.173702 0.11641 2.12053e-19)
(0.335041 0.124132 2.27342e-19)
(0.463499 0.115154 -3.93694e-19)
(0.574923 0.0993958 2.13647e-20)
(0.660272 0.0836567 -9.91879e-21)
(0.729261 0.0696606 -2.47561e-19)
(0.783419 0.058107 1.51148e-20)
(0.827179 0.0486395 4.49336e-20)
(0.862575 0.0409204 -1.82903e-19)
(0.0415655 0.0486602 1.40178e-19)
(0.166873 0.0837154 -1.40585e-19)
(0.328164 0.0891725 -1.19482e-19)
(0.45729 0.0826585 3.21097e-19)
(0.569667 0.0713041 8.74588e-20)
(0.655868 0.0599909 -2.13915e-19)
(0.725585 0.0499433 -1.62945e-20)
(0.780319 0.0416563 -1.7146e-19)
(0.824547 0.034869 -1.1172e-19)
(0.860275 0.029341 1.76359e-20)
(0.0387289 0.0293551 1.24234e-20)
(0.162287 0.0504575 3.77919e-20)
(0.323551 0.0537074 6.95791e-20)
(0.453129 0.0497582 -1.05426e-19)
(0.566148 0.0429058 -5.47837e-20)
(0.652921 0.0360894 2.9764e-20)
(0.723126 0.0300406 -6.25004e-20)
(0.778246 0.0250545 6.82451e-20)
(0.822788 0.0209721 2.62599e-20)
(0.858737 0.0176495 1.00944e-20)
(0.0373028 0.00981224 1.06299e-20)
(0.159983 0.0168581 1.46832e-20)
(0.321236 0.0179369 -8.43966e-20)
(0.451042 0.0166137 6.38022e-20)
(0.564384 0.0143228 2.96879e-20)
(0.651444 0.0120458 -1.90739e-20)
(0.721893 0.0100261 5.79288e-20)
(0.777208 0.00836162 6.76967e-21)
(0.821907 0.00699908 2.46965e-20)
(0.857968 0.00589052 -2.2181e-20)
(0.0373028 -0.00981225 1.32302e-20)
(0.159983 -0.0168581 -1.46832e-20)
(0.321236 -0.0179369 8.43966e-20)
(0.451042 -0.0166137 6.82051e-20)
(0.564384 -0.0143228 1.85849e-20)
(0.651444 -0.0120458 -1.06312e-20)
(0.721893 -0.0100261 5.61181e-20)
(0.777208 -0.00836163 8.34399e-21)
(0.821907 -0.00699909 1.73861e-20)
(0.857968 -0.00589053 -1.37332e-20)
(0.0387289 -0.0293551 2.13328e-20)
(0.162287 -0.0504575 4.76134e-20)
(0.323551 -0.0537074 6.94498e-20)
(0.453129 -0.0497582 -1.03628e-19)
(0.566148 -0.0429058 -4.67502e-20)
(0.652921 -0.0360894 1.75907e-20)
(0.723126 -0.0300406 -5.92747e-20)
(0.778246 -0.0250545 7.45981e-20)
(0.822788 -0.0209721 1.09667e-21)
(0.858737 -0.0176495 2.51418e-20)
(0.0415655 -0.0486603 1.42424e-19)
(0.166873 -0.0837154 -1.21875e-19)
(0.328164 -0.0891725 -1.34902e-19)
(0.45729 -0.0826585 3.06425e-19)
(0.569667 -0.0713041 9.79759e-20)
(0.655868 -0.0599909 -2.22823e-19)
(0.725585 -0.0499433 -2.36803e-20)
(0.780319 -0.0416563 -1.8599e-19)
(0.824547 -0.034869 -8.09784e-20)
(0.860275 -0.029341 -2.05704e-20)
(0.045782 -0.0675756 -1.3887e-19)
(0.173702 -0.11641 2.02749e-19)
(0.335041 -0.124132 2.30547e-19)
(0.463499 -0.115154 -3.51599e-19)
(0.574923 -0.0993958 -2.59249e-20)
(0.660272 -0.0836567 1.55174e-20)
(0.729261 -0.0696606 -2.6083e-19)
(0.783419 -0.058107 -2.00657e-20)
(0.827179 -0.0486395 3.56206e-20)
(0.862575 -0.0409204 -1.90733e-19)
(0.0513333 -0.0859526 5.87047e-19)
(0.182712 -0.148322 1.81863e-20)
(0.344129 -0.158389 1.17368e-19)
(0.471718 -0.147087 2.90999e-20)
(0.581887 -0.127061 -3.70321e-19)
(0.666113 -0.106994 5.65188e-19)
(0.73414 -0.0891197 3.74338e-19)
(0.787534 -0.0743475 -1.69323e-19)
(0.830675 -0.0622343 -1.23872e-19)
(0.865633 -0.0523435 1.29731e-19)
(0.05816 -0.103648 -1.01068e-18)
(0.193822 -0.179241 -1.9401e-19)
(0.355362 -0.19175 -8.28898e-19)
(0.481895 -0.178301 -1.77059e-19)
(0.590523 -0.154181 -2.79134e-19)
(0.673364 -0.129913 -5.31109e-19)
(0.7402 -0.108249 1.88834e-19)
(0.79265 -0.0903197 4.44331e-19)
(0.835023 -0.0756049 -4.93979e-20)
(0.86944 -0.063567 -2.66074e-19)
(0.0661893 -0.120524 3.13364e-19)
(0.206933 -0.208962 9.91848e-21)
(0.368655 -0.224029 7.2985e-19)
(0.493966 -0.208644 -2.13284e-19)
(0.600786 -0.18064 2.54024e-19)
(0.68199 -0.152324 -3.82139e-20)
(0.747418 -0.12698 -1.275e-19)
(0.798748 -0.105967 -1.79468e-20)
(0.840209 -0.0887041 5.86802e-19)
(0.873987 -0.0745483 4.21525e-19)
(0.0753357 -0.136453 3.49903e-19)
(0.221928 -0.23729 5.77056e-19)
(0.383907 -0.255045 -7.469e-19)
(0.507855 -0.237971 1.80664e-20)
(0.61262 -0.206326 3.25641e-19)
(0.691953 -0.17414 6.768e-19)
(0.755763 -0.145243 -8.42073e-19)
(0.805804 -0.121235 3.89702e-19)
(0.846217 -0.101487 -2.89861e-19)
(0.879261 -0.0852462 -3.93153e-20)
(0.0855019 -0.151316 -2.2044e-19)
(0.238673 -0.264043 1.2597e-19)
(0.401004 -0.284627 5.37846e-19)
(0.523473 -0.266139 6.49045e-19)
(0.625962 -0.231131 -1.65428e-19)
(0.703206 -0.195279 -1.64411e-19)
(0.765201 -0.162975 6.96166e-19)