/*--------------------------------*- C++ -*----------------------------------*\
  =========                 |
  \\      /  F ield         | OpenFOAM: The Open Source CFD Toolbox
   \\    /   O peration     | Website:  https://openfoam.org
    \\  /    A nd           | Version:  7
     \\/     M anipulation  |
\*---------------------------------------------------------------------------*/
FoamFile
{
    version     2.0;
    format      ascii;
    class       volScalarField;
    location    "15";
    object      p;
}
// * * * * * * * * * * * * * * * * * * * * * * * * * * * * * * * * * * * * * //

dimensions      [0 2 -2 0 0 0 0];

internalField   nonuniform List<scalar> 
12100
(
-0.312031
-0.316515
-0.317505
-0.319384
-0.321022
-0.322718
-0.324341
-0.325894
-0.327373
-0.328788
-0.330151
-0.331467
-0.332725
-0.33389
-0.334878
-0.335561
-0.3358
-0.335208
-0.333822
-0.330609
-0.312333
-0.316747
-0.317722
-0.319584
-0.321211
-0.322898
-0.324515
-0.326063
-0.327537
-0.328951
-0.330316
-0.33164
-0.332914
-0.334109
-0.335146
-0.335881
-0.336248
-0.335645
-0.334537
-0.330941
-0.312926
-0.317202
-0.318149
-0.319973
-0.321578
-0.323245
-0.324845
-0.326379
-0.327843
-0.329248
-0.330611
-0.331943
-0.333238
-0.334476
-0.335593
-0.336379
-0.337021
-0.33626
-0.335834
-0.331357
-0.313796
-0.317868
-0.318768
-0.320533
-0.322098
-0.323731
-0.325301
-0.326807
-0.328245
-0.329629
-0.330976
-0.332303
-0.333604
-0.33487
-0.336079
-0.336816
-0.337948
-0.336647
-0.337447
-0.331541
-0.314917
-0.318725
-0.319557
-0.321234
-0.322739
-0.324317
-0.325838
-0.327297
-0.32869
-0.330029
-0.331336
-0.332631
-0.33391
-0.33515
-0.336474
-0.33696
-0.338859
-0.33646
-0.33877
-0.331641
-0.316263
-0.319751
-0.320487
-0.322046
-0.323462
-0.32496
-0.326407
-0.327794
-0.329114
-0.330382
-0.331618
-0.332846
-0.334063
-0.3352
-0.336659
-0.336778
-0.339077
-0.336256
-0.33903
-0.331362
-0.317802
-0.32092
-0.321528
-0.32293
-0.324225
-0.325612
-0.326956
-0.328242
-0.329462
-0.330627
-0.33176
-0.332884
-0.334
-0.335019
-0.336419
-0.336249
-0.33876
-0.335283
-0.338358
-0.330475
-0.319501
-0.322206
-0.32265
-0.323852
-0.324988
-0.326229
-0.327438
-0.328593
-0.329684
-0.330717
-0.331717
-0.332702
-0.333676
-0.33452
-0.335798
-0.335271
-0.337715
-0.333773
-0.336361
-0.328811
-0.321333
-0.323585
-0.323822
-0.324776
-0.325711
-0.326769
-0.327811
-0.328807
-0.329742
-0.330619
-0.331458
-0.332275
-0.333062
-0.333678
-0.334701
-0.333871
-0.335672
-0.331708
-0.332794
-0.325836
-0.323269
-0.325035
-0.325019
-0.325674
-0.326364
-0.327201
-0.328045
-0.328856
-0.329613
-0.330311
-0.330966
-0.331578
-0.332123
-0.332451
-0.333016
-0.331932
-0.332501
-0.328725
-0.327671
-0.320941
-0.325291
-0.32654
-0.326222
-0.326524
-0.326922
-0.327503
-0.32812
-0.328723
-0.329283
-0.329779
-0.330219
-0.33057
-0.330798
-0.330717
-0.330626
-0.329143
-0.328204
-0.324343
-0.321139
-0.313992
-0.327386
-0.328088
-0.327416
-0.327312
-0.327374
-0.327663
-0.328028
-0.328403
-0.328745
-0.329007
-0.329182
-0.329184
-0.328981
-0.328301
-0.327387
-0.325193
-0.322796
-0.318365
-0.313401
-0.305444
-0.32955
-0.329676
-0.328596
-0.328034
-0.327718
-0.327682
-0.327773
-0.327898
-0.327991
-0.32797
-0.327795
-0.327319
-0.326516
-0.325031
-0.323138
-0.319957
-0.316287
-0.310981
-0.304791
-0.296117
-0.33179
-0.331307
-0.329771
-0.328694
-0.327963
-0.327575
-0.327367
-0.327213
-0.327008
-0.326624
-0.325966
-0.324853
-0.323237
-0.320789
-0.317791
-0.313531
-0.308808
-0.302626
-0.295718
-0.28664
-0.334121
-0.332984
-0.330954
-0.329311
-0.328131
-0.327364
-0.326827
-0.326349
-0.325766
-0.324896
-0.323585
-0.321658
-0.31904
-0.315546
-0.311412
-0.306176
-0.300634
-0.293791
-0.286601
-0.277299
-0.336575
-0.334728
-0.332165
-0.329913
-0.328252
-0.327077
-0.326169
-0.325296
-0.324217
-0.3227
-0.320548
-0.317647
-0.313922
-0.309393
-0.304211
-0.298216
-0.292064
-0.284819
-0.277653
-0.268328
-0.339189
-0.336565
-0.333432
-0.330536
-0.328365
-0.326743
-0.325402
-0.324026
-0.322296
-0.319948
-0.316792
-0.312813
-0.307988
-0.302514
-0.29646
-0.289935
-0.283316
-0.275909
-0.268951
-0.259698
-0.342011
-0.338527
-0.334796
-0.331221
-0.328508
-0.326387
-0.32452
-0.322498
-0.319936
-0.316581
-0.312315
-0.307236
-0.301412
-0.295134
-0.288414
-0.281531
-0.274524
-0.26713
-0.260334
-0.25133
-0.345089
-0.340653
-0.3363
-0.332013
-0.328717
-0.326021
-0.323503
-0.32066
-0.317081
-0.312586
-0.307178
-0.301059
-0.294383
-0.287455
-0.280259
-0.273118
-0.265802
-0.258499
-0.251547
-0.243025
-0.348456
-0.343007
-0.337991
-0.332953
-0.32901
-0.32564
-0.322316
-0.318459
-0.313705
-0.307999
-0.301485
-0.29444
-0.287068
-0.279631
-0.272108
-0.264761
-0.257256
-0.250014
-0.242533
-0.234652
-0.352196
-0.345613
-0.339908
-0.334058
-0.32939
-0.325226
-0.320911
-0.315853
-0.309812
-0.302892
-0.295357
-0.287521
-0.279591
-0.271765
-0.264011
-0.256502
-0.248928
-0.241681
-0.233873
-0.226234
-0.35635
-0.348525
-0.342111
-0.335371
-0.329887
-0.324777
-0.319258
-0.312831
-0.305445
-0.297357
-0.28891
-0.28041
-0.272034
-0.263909
-0.255986
-0.248366
-0.240776
-0.233464
-0.225823
-0.218523
-0.36098
-0.35179
-0.344623
-0.336891
-0.330492
-0.324242
-0.317301
-0.309382
-0.300648
-0.291477
-0.282233
-0.27318
-0.264444
-0.256086
-0.248038
-0.240348
-0.232758
-0.22551
-0.21804
-0.211045
-0.366143
-0.355456
-0.347454
-0.338627
-0.331192
-0.323559
-0.314997
-0.305518
-0.295483
-0.285327
-0.275393
-0.265876
-0.256843
-0.248297
-0.240159
-0.232427
-0.224886
-0.217721
-0.210446
-0.203858
-0.371888
-0.359559
-0.350602
-0.340603
-0.331943
-0.322656
-0.312316
-0.301265
-0.290002
-0.278964
-0.268429
-0.258517
-0.249234
-0.240536
-0.232332
-0.224587
-0.217114
-0.210071
-0.203041
-0.196747
-0.378258
-0.364121
-0.354069
-0.342839
-0.332663
-0.321459
-0.309244
-0.296652
-0.28425
-0.272422
-0.261361
-0.251106
-0.241608
-0.232785
-0.224536
-0.216798
-0.209418
-0.202512
-0.195707
-0.18971
-0.385291
-0.369134
-0.357874
-0.345313
-0.333248
-0.319905
-0.305776
-0.291704
-0.278254
-0.265721
-0.254194
-0.243636
-0.233952
-0.225027
-0.21675
-0.209039
-0.201764
-0.195001
-0.188431
-0.182687
-0.393012
-0.374563
-0.362071
-0.347936
-0.333588
-0.317946
-0.301909
-0.286438
-0.272032
-0.258863
-0.246919
-0.236093
-0.226246
-0.21724
-0.208952
-0.201282
-0.194122
-0.187506
-0.181159
-0.175653
-0.401422
-0.38035
-0.36671
-0.350563
-0.333579
-0.315543
-0.297644
-0.280865
-0.265584
-0.251841
-0.239522
-0.228459
-0.218473
-0.209405
-0.20112
-0.193507
-0.186467
-0.179996
-0.17387
-0.168582
-0.410481
-0.386437
-0.371784
-0.353032
-0.333126
-0.31266
-0.292975
-0.274981
-0.258903
-0.244641
-0.231986
-0.220713
-0.210611
-0.201501
-0.193234
-0.18569
-0.178775
-0.172451
-0.166539
-0.161452
-0.420089
-0.392788
-0.377177
-0.355187
-0.332142
-0.309268
-0.28789
-0.268776
-0.251974
-0.237243
-0.224289
-0.212836
-0.202642
-0.193509
-0.185276
-0.177814
-0.171027
-0.16485
-0.159147
-0.154247
-0.430077
-0.399387
-0.382649
-0.356885
-0.330553
-0.305331
-0.282373
-0.262234
-0.244775
-0.229625
-0.216411
-0.204807
-0.194547
-0.185412
-0.17723
-0.169862
-0.163206
-0.157179
-0.15168
-0.146952
-0.440217
-0.406224
-0.387873
-0.357985
-0.328292
-0.300816
-0.276399
-0.25533
-0.237283
-0.221765
-0.208328
-0.196608
-0.186309
-0.177195
-0.16908
-0.161819
-0.1553
-0.149425
-0.144127
-0.139558
-0.450244
-0.413263
-0.392505
-0.358344
-0.3253
-0.295689
-0.26994
-0.248039
-0.229472
-0.213637
-0.200022
-0.188221
-0.177912
-0.168843
-0.160815
-0.153674
-0.147298
-0.141582
-0.136478
-0.132057
-0.459882
-0.420408
-0.396236
-0.357816
-0.321519
-0.289913
-0.262964
-0.24033
-0.221315
-0.205221
-0.191473
-0.179629
-0.169343
-0.160345
-0.152424
-0.145417
-0.139193
-0.133642
-0.12873
-0.124447
-0.468874
-0.427473
-0.398827
-0.356263
-0.316892
-0.283452
-0.255439
-0.232174
-0.212788
-0.196493
-0.182663
-0.170817
-0.160589
-0.15169
-0.143899
-0.137042
-0.130979
-0.125601
-0.120878
-0.116725
-0.476989
-0.434179
-0.400108
-0.353564
-0.311361
-0.27627
-0.247333
-0.223542
-0.203865
-0.187436
-0.173576
-0.161775
-0.151641
-0.142872
-0.135234
-0.128544
-0.122655
-0.11746
-0.112922
-0.108894
-0.484027
-0.440171
-0.399964
-0.349621
-0.304871
-0.268333
-0.238614
-0.214407
-0.194527
-0.178032
-0.164201
-0.152492
-0.142492
-0.133884
-0.126424
-0.119921
-0.11422
-0.109217
-0.104864
-0.10096
-0.489815
-0.445049
-0.398309
-0.344367
-0.297378
-0.259608
-0.229257
-0.204749
-0.184755
-0.168269
-0.154528
-0.142961
-0.133136
-0.124724
-0.117469
-0.111173
-0.105675
-0.100875
-0.0967068
-0.0929307
-0.494166
-0.448404
-0.395059
-0.337754
-0.288844
-0.250069
-0.219241
-0.194549
-0.174536
-0.158138
-0.14455
-0.133178
-0.123572
-0.11539
-0.108369
-0.102301
-0.0970251
-0.0924394
-0.0884572
-0.0848186
-0.496879
-0.449875
-0.390109
-0.329738
-0.279228
-0.239684
-0.20854
-0.183788
-0.163858
-0.147627
-0.134261
-0.123138
-0.113796
-0.105882
-0.0991241
-0.0933088
-0.0882724
-0.0839167
-0.0801301
-0.0766294
-0.497972
-0.449276
-0.383393
-0.320285
-0.268492
-0.228418
-0.19713
-0.17245
-0.152707
-0.136731
-0.123655
-0.11284
-0.103809
-0.0962022
-0.0897394
-0.0842003
-0.0794225
-0.0753168
-0.0717489
-0.068362
-0.49723
-0.446349
-0.374813
-0.309362
-0.256615
-0.216257
-0.185
-0.160527
-0.141079
-0.125445
-0.112732
-0.102286
-0.0936153
-0.0863553
-0.0802233
-0.074986
-0.0704874
-0.0666517
-0.0633182
-0.0600338
-0.494474
-0.440943
-0.364316
-0.296952
-0.243586
-0.203188
-0.17214
-0.148014
-0.128971
-0.113772
-0.101498
-0.0914821
-0.0832253
-0.0763513
-0.0705855
-0.0656776
-0.0614886
-0.0579455
-0.0548005
-0.051689
-0.489533
-0.432951
-0.351861
-0.283044
-0.229396
-0.189203
-0.158544
-0.134909
-0.116388
-0.101722
-0.0899639
-0.0804416
-0.0726532
-0.066207
-0.0608295
-0.0562817
-0.0524329
-0.0491898
-0.0462398
-0.0433323
-0.482226
-0.422305
-0.337426
-0.267635
-0.214042
-0.174295
-0.144213
-0.121222
-0.10335
-0.0893169
-0.0781526
-0.0691775
-0.0618966
-0.0559228
-0.0509693
-0.0468123
-0.0433282
-0.0403956
-0.0376615
-0.0349757
-0.472373
-0.408969
-0.321007
-0.250724
-0.197515
-0.158474
-0.12917
-0.10698
-0.0898919
-0.0765613
-0.0660575
-0.0576949
-0.0509729
-0.0455118
-0.0410192
-0.0372833
-0.0341864
-0.0315792
-0.0290818
-0.026636
-0.459805
-0.39293
-0.302615
-0.232316
-0.179812
-0.141781
-0.113469
-0.0922181
-0.0759905
-0.0634655
-0.0536987
-0.0460102
-0.0398988
-0.0349903
-0.0309941
-0.027709
-0.0250217
-0.0227568
-0.0205153
-0.0183316
-0.444372
-0.374194
-0.282275
-0.21243
-0.160977
-0.124292
-0.0971072
-0.0769242
-0.0616778
-0.0500518
-0.0410974
-0.0341429
-0.0286919
-0.0243759
-0.0209106
-0.0181051
-0.0158499
-0.0139449
-0.0119772
-0.01008
-0.425956
-0.35278
-0.259991
-0.191143
-0.141157
-0.105952
-0.0801025
-0.0611319
-0.0469833
-0.0363466
-0.0282775
-0.0221152
-0.0173722
-0.0136879
-0.0107865
-0.00848862
-0.00668755
-0.00515996
-0.00348445
-0.00189914
-0.404481
-0.328745
-0.235731
-0.168611
-0.120355
-0.0868066
-0.0624927
-0.0448795
-0.0319403
-0.0223797
-0.0152654
-0.00995123
-0.00596171
-0.00294656
-0.000640894
0.00112235
0.00244792
0.00358035
0.00494375
0.00619286
-0.379917
-0.302229
-0.209503
-0.144897
-0.0985962
-0.0669229
-0.0443243
-0.0282092
-0.0165856
-0.00818415
-0.00209053
0.00232256
0.00551575
0.00782623
0.00950588
0.010709
0.0115385
0.0122571
0.0132863
0.0141764
-0.352281
-0.273444
-0.181642
-0.11976
-0.0759348
-0.0463701
-0.0256522
-0.0111678
-0.00096045
0.00620385
0.0112149
0.0146776
0.0170346
0.0186073
0.0196327
0.0202519
0.0205664
0.0208519
0.0215222
0.0220312
-0.321645
-0.242432
-0.152175
-0.0934288
-0.0524449
-0.0252208
-0.00653801
0.00619302
0.0148903
0.0207447
0.0246162
0.027083
0.0285674
0.0293721
0.029717
0.0297312
0.0295151
0.0293503
0.0296353
0.0297395
-0.288155
-0.208774
-0.121609
-0.0660827
-0.0282146
-0.00355099
0.0129511
0.0238165
0.0309176
0.0353959
0.0380761
0.0395063
0.0400852
0.0400942
0.0397348
0.0391261
0.0383692
0.0377427
0.0376171
0.0372894
-0.252042
-0.172732
-0.0898514
-0.0378821
-0.00334808
0.0185568
0.032743
0.0416413
0.0470688
0.0501118
0.0515549
0.0519129
0.0515577
0.0507462
0.0496609
0.0484153
0.0471137
0.046018
0.0454521
0.0446637
-0.213394
-0.134761
-0.0569279
-0.00896586
0.0220392
0.0410127
0.0527606
0.0596018
0.063288
0.0648442
0.0650111
0.0642665
0.0629528
0.0612994
0.0594706
0.0575797
0.0557335
0.0541505
0.0530818
0.0517867
-0.171905
-0.0958264
-0.0230094
0.0205347
0.0478254
0.0637195
0.0729222
0.0776287
0.0795161
0.0795426
0.0784012
0.0765298
0.0742378
0.0717257
0.0691424
0.0666063
0.0642155
0.0620947
0.0603797
0.0584486
-0.12829
-0.0559109
0.0116873
0.050477
0.0738826
0.0865735
0.0931417
0.0956498
0.095692
0.094155
0.0916806
0.088664
0.0853791
0.0819976
0.0786578
0.0754853
0.0725449
0.0697982
0.0672154
0.0644389
-0.0828025
-0.0151241
0.0469326
0.0807016
0.100078
0.109466
0.11333
0.11359
0.111753
0.108628
0.104804
0.10063
0.0963428
0.0920878
0.087997
0.0841976
0.0806898
0.0772184
0.073617
0.0701855
-0.0356519
0.0263371
0.0825058
0.111049
0.126278
0.132288
0.133396
0.131374
0.127634
0.122906
0.117723
0.112386
0.107094
0.101968
0.0971354
0.0927068
0.0885928
0.0843483
0.0798325
0.0770781
0.0123786
0.0681774
0.118195
0.141363
0.152356
0.154932
0.153248
0.148923
0.143269
0.136934
0.13039
0.12389
0.117598
0.11161
0.106044
0.100971
0.0962092
0.0912621
0.0862792
0.0839251
0.0609619
0.110138
0.153767
0.171461
0.178163
0.177276
0.172788
0.166156
0.158589
0.150652
0.142755
0.135101
0.127818
0.120983
0.11469
0.108965
0.103558
0.0980245
0.0927728
0.0904311
0.109707
0.151915
0.188989
0.201162
0.203554
0.199204
0.191919
0.182992
0.173527
0.164003
0.154768
0.145976
0.13772
0.130052
0.12304
0.116663
0.110643
0.104622
0.0991413
0.0965575
0.158202
0.193204
0.223628
0.230284
0.228384
0.220597
0.210543
0.19935
0.188015
0.17693
0.166382
0.156475
0.147268
0.138786
0.131068
0.124052
0.117459
0.111008
0.105277
0.102331
0.206036
0.233702
0.257451
0.258647
0.252508
0.241337
0.228563
0.215149
0.201985
0.189376
0.177547
0.166555
0.156424
0.147152
0.138745
0.131114
0.123986
0.117138
0.11113
0.107767
0.252802
0.273106
0.29023
0.28607
0.275782
0.261308
0.245884
0.23031
0.21537
0.201284
0.188216
0.176176
0.165154
0.155119
0.146047
0.137827
0.1302
0.122975
0.116677
0.112873
0.2981
0.311123
0.321741
0.312378
0.298067
0.280396
0.262413
0.244756
0.228107
0.212601
0.198344
0.185299
0.173423
0.162657
0.152949
0.144171
0.136075
0.128494
0.1219
0.117649
0.341544
0.34747
0.351769
0.337401
0.319225
0.298491
0.278059
0.258413
0.240132
0.223273
0.207884
0.193884
0.181198
0.169738
0.159426
0.150123
0.141588
0.13367
0.126786
0.122088
0.38277
0.381869
0.380105
0.360974
0.339127
0.315487
0.292735
0.271208
0.251386
0.23325
0.216794
0.201895
0.188447
0.176334
0.165456
0.155661
0.146719
0.138487
0.131321
0.126187
0.421442
0.41405
0.406551
0.382941
0.357648
0.331283
0.306361
0.283073
0.261812
0.242484
0.225034
0.209298
0.19514
0.18242
0.171015
0.160765
0.151447
0.142926
0.135493
0.129937
0.457244
0.443754
0.43092
0.403156
0.374672
0.345787
0.318858
0.293946
0.271357
0.250931
0.232565
0.216059
0.201249
0.18797
0.176083
0.165415
0.155755
0.14697
0.139288
0.133331
0.489878
0.470752
0.453038
0.421484
0.39009
0.35891
0.330155
0.303766
0.279972
0.258549
0.239352
0.222148
0.206747
0.192964
0.18064
0.169595
0.159628
0.150607
0.142695
0.136364
0.519069
0.494839
0.47275
0.437802
0.403804
0.370573
0.340188
0.312481
0.287611
0.265301
0.245364
0.227539
0.211613
0.19738
0.184667
0.173288
0.16305
0.153822
0.145704
0.13903
0.544568
0.515832
0.489913
0.451998
0.415727
0.380706
0.348898
0.320043
0.294236
0.271152
0.250572
0.232206
0.215823
0.2012
0.188149
0.17648
0.166008
0.156601
0.148302
0.141324
0.566159
0.533572
0.504406
0.463978
0.425783
0.389246
0.356236
0.326409
0.29981
0.276074
0.25495
0.236129
0.219361
0.204408
0.191072
0.17916
0.168491
0.158935
0.150482
0.143241
0.583659
0.547926
0.516126
0.47366
0.433904
0.396141
0.362157
0.331544
0.304306
0.280041
0.258479
0.239289
0.222209
0.206991
0.193425
0.181316
0.17049
0.160814
0.152236
0.144778
0.596918
0.558785
0.524988
0.480977
0.440041
0.401348
0.366627
0.33542
0.307697
0.283033
0.261139
0.241671
0.224357
0.208938
0.195198
0.18294
0.171995
0.16223
0.153557
0.145933
0.605822
0.566069
0.530929
0.48588
0.444152
0.404835
0.369621
0.338015
0.309968
0.285036
0.26292
0.243265
0.225793
0.21024
0.196384
0.184026
0.173002
0.163177
0.15444
0.146703
0.610296
0.569725
0.533909
0.48834
0.446213
0.406584
0.371121
0.339316
0.311106
0.28604
0.263812
0.244064
0.226513
0.210892
0.196978
0.18457
0.173507
0.163652
0.154883
0.147089
0.610296
0.569725
0.533909
0.48834
0.446213
0.406584
0.371121
0.339316
0.311106
0.28604
0.263812
0.244064
0.226513
0.210892
0.196978
0.18457
0.173507
0.163652
0.154883
0.147089
0.605822
0.566069
0.530929
0.48588
0.444152
0.404835
0.369621
0.338015
0.309968
0.285036
0.26292
0.243265
0.225793
0.21024
0.196384
0.184026
0.173002
0.163177
0.15444
0.146703
0.596918
0.558785
0.524988
0.480977
0.440041
0.401348
0.366627
0.33542
0.307697
0.283033
0.261139
0.241671
0.224357
0.208938
0.195198
0.18294
0.171995
0.16223
0.153557
0.145933
0.583659
0.547926
0.516126
0.47366
0.433904
0.396141
0.362157
0.331544
0.304306
0.280041
0.258479
0.239289
0.222209
0.206991
0.193425
0.181316
0.17049
0.160814
0.152236
0.144778
0.566159
0.533572
0.504406
0.463978
0.425783
0.389246
0.356236
0.326409
0.29981
0.276074
0.25495
0.236129
0.219361
0.204408
0.191072
0.17916
0.168491
0.158935
0.150482
0.143241
0.544568
0.515832
0.489913
0.451998
0.415727
0.380706
0.348898
0.320043
0.294236
0.271152
0.250572
0.232206
0.215823
0.2012
0.188149
0.17648
0.166008
0.156601
0.148302
0.141324
0.519069
0.494839
0.47275
0.437802
0.403804
0.370573
0.340188
0.312481
0.287611
0.265301
0.245364
0.227539
0.211613
0.19738
0.184667
0.173288
0.16305
0.153822
0.145704
0.13903
0.489878
0.470752
0.453038
0.421484
0.39009
0.35891
0.330155
0.303766
0.279972
0.258549
0.239352
0.222148
0.206747
0.192964
0.18064
0.169595
0.159628
0.150607
0.142695
0.136364
0.457244
0.443754
0.43092
0.403156
0.374672
0.345787
0.318858
0.293946
0.271357
0.250931
0.232565
0.216059
0.201249
0.18797
0.176083
0.165415
0.155755
0.14697
0.139288
0.133331
0.421442
0.41405
0.406551
0.382941
0.357648
0.331283
0.306361
0.283073
0.261812
0.242484
0.225034
0.209298
0.19514
0.18242
0.171015
0.160765
0.151447
0.142926
0.135493
0.129937
0.38277
0.381869
0.380105
0.360974
0.339127
0.315487
0.292735
0.271208
0.251386
0.23325
0.216794
0.201895
0.188447
0.176334
0.165456
0.155661
0.146719
0.138487
0.131321
0.126186
0.341544
0.34747
0.351769
0.337401
0.319225
0.298491
0.278059
0.258413
0.240132
0.223273
0.207884
0.193884
0.181198
0.169738
0.159426
0.150123
0.141588
0.13367
0.126786
0.122088
0.2981
0.311123
0.321741
0.312378
0.298067
0.280396
0.262413
0.244756
0.228107
0.212601
0.198344
0.185299
0.173423
0.162657
0.152949
0.144171
0.136075
0.128494
0.1219
0.117649
0.252802
0.273106
0.29023
0.28607
0.275782
0.261308
0.245884
0.23031
0.21537
0.201284
0.188216
0.176176
0.165154
0.155119
0.146047
0.137827
0.1302
0.122975
0.116677
0.112873
0.206036
0.233702
0.257451
0.258647
0.252508
0.241337
0.228563
0.215149
0.201985
0.189376
0.177547
0.166555
0.156424
0.147152
0.138745
0.131114
0.123986
0.117138
0.11113
0.107767
0.158202
0.193204
0.223628
0.230284
0.228384
0.220597
0.210543
0.19935
0.188015
0.17693
0.166382
0.156475
0.147268
0.138786
0.131068
0.124052
0.117459
0.111008
0.105277
0.102331
0.109707
0.151915
0.188989
0.201162
0.203554
0.199204
0.191919
0.182992
0.173527
0.164003
0.154768
0.145976
0.13772
0.130052
0.12304
0.116663
0.110643
0.104622
0.0991413
0.0965575
0.0609619
0.110138
0.153767
0.171461
0.178163
0.177276
0.172788
0.166156
0.158589
0.150652
0.142755
0.135101
0.127818
0.120983
0.11469
0.108965
0.103558
0.0980245
0.0927728
0.0904311
0.0123786
0.0681774
0.118195
0.141363
0.152356
0.154932
0.153248
0.148923
0.143269
0.136934
0.13039
0.12389
0.117598
0.11161
0.106044
0.100971
0.0962092
0.0912621
0.0862792
0.0839251
-0.0356519
0.0263371
0.0825058
0.111049
0.126278
0.132288
0.133396
0.131374
0.127634
0.122906
0.117723
0.112386
0.107094
0.101968
0.0971354
0.0927068
0.0885928
0.0843483
0.0798325
0.0770781
-0.0828025
-0.0151241
0.0469326
0.0807016
0.100078
0.109466
0.11333
0.11359
0.111753
0.108628
0.104804
0.10063
0.0963428
0.0920878
0.087997
0.0841976
0.0806898
0.0772184
0.073617
0.0701855
-0.12829
-0.0559109
0.0116873
0.050477
0.0738825
0.0865735
0.0931417
0.0956498
0.0956919
0.094155
0.0916806
0.088664
0.0853791
0.0819976
0.0786578
0.0754853
0.0725449
0.0697982
0.0672154
0.0644389
-0.171905
-0.0958264
-0.0230094
0.0205347
0.0478253
0.0637195
0.0729222
0.0776287
0.0795161
0.0795426
0.0784012
0.0765298
0.0742378
0.0717257
0.0691424
0.0666063
0.0642155
0.0620947
0.0603797
0.0584486
-0.213394
-0.134761
-0.056928
-0.00896587
0.0220392
0.0410127
0.0527606
0.0596018
0.063288
0.0648442
0.0650111
0.0642665
0.0629528
0.0612994
0.0594706
0.0575797
0.0557335
0.0541505
0.0530818
0.0517867
-0.252042
-0.172732
-0.0898515
-0.0378821
-0.0033481
0.0185568
0.032743
0.0416413
0.0470688
0.0501118
0.0515549
0.0519129
0.0515577
0.0507461
0.0496609
0.0484152
0.0471137
0.046018
0.0454521
0.0446637
-0.288155
-0.208774
-0.121609
-0.0660827
-0.0282147
-0.003551
0.0129511
0.0238165
0.0309175
0.0353959
0.0380761
0.0395063
0.0400852
0.0400942
0.0397348
0.0391261
0.0383691
0.0377427
0.0376171
0.0372894
-0.321645
-0.242432
-0.152175
-0.0934288
-0.0524449
-0.0252208
-0.00653802
0.00619301
0.0148903
0.0207447
0.0246162
0.027083
0.0285674
0.0293721
0.029717
0.0297312
0.029515
0.0293503
0.0296353
0.0297395
-0.352281
-0.273444
-0.181642
-0.11976
-0.0759348
-0.0463701
-0.0256522
-0.0111678
-0.000960463
0.00620384
0.0112149
0.0146775
0.0170345
0.0186073
0.0196327
0.0202519
0.0205664
0.0208519
0.0215222
0.0220312
-0.379917
-0.302229
-0.209503
-0.144897
-0.0985962
-0.0669229
-0.0443244
-0.0282092
-0.0165857
-0.00818416
-0.00209054
0.00232255
0.00551574
0.00782623
0.00950587
0.010709
0.0115385
0.0122571
0.0132863
0.0141764
-0.404481
-0.328746
-0.235731
-0.168611
-0.120355
-0.0868067
-0.0624927
-0.0448795
-0.0319403
-0.0223797
-0.0152654
-0.00995124
-0.00596172
-0.00294657
-0.000640903
0.00112234
0.00244792
0.00358035
0.00494374
0.00619285
-0.425956
-0.35278
-0.259991
-0.191143
-0.141157
-0.105952
-0.0801025
-0.0611319
-0.0469833
-0.0363466
-0.0282775
-0.0221152
-0.0173722
-0.0136879
-0.0107865
-0.00848863
-0.00668756
-0.00515997
-0.00348446
-0.00189914
-0.444372
-0.374194
-0.282275
-0.21243
-0.160977
-0.124292
-0.0971073
-0.0769242
-0.0616778
-0.0500518
-0.0410974
-0.0341429
-0.0286919
-0.024376
-0.0209106
-0.0181051
-0.0158499
-0.0139449
-0.0119772
-0.01008
-0.459805
-0.39293
-0.302615
-0.232316
-0.179812
-0.141781
-0.113469
-0.0922182
-0.0759905
-0.0634655
-0.0536987
-0.0460102
-0.0398988
-0.0349903
-0.0309942
-0.027709
-0.0250217
-0.0227568
-0.0205153
-0.0183316
-0.472373
-0.40897
-0.321007
-0.250724
-0.197515
-0.158474
-0.12917
-0.10698
-0.0898919
-0.0765613
-0.0660576
-0.057695
-0.050973
-0.0455118
-0.0410192
-0.0372833
-0.0341864
-0.0315792
-0.0290818
-0.026636
-0.482226
-0.422306
-0.337426
-0.267635
-0.214042
-0.174295
-0.144213
-0.121222
-0.10335
-0.089317
-0.0781526
-0.0691775
-0.0618966
-0.0559229
-0.0509694
-0.0468123
-0.0433283
-0.0403956
-0.0376615
-0.0349757
-0.489533
-0.432951
-0.351861
-0.283044
-0.229396
-0.189203
-0.158544
-0.134909
-0.116388
-0.101723
-0.0899639
-0.0804416
-0.0726532
-0.066207
-0.0608295
-0.0562817
-0.0524329
-0.0491898
-0.0462398
-0.0433323
-0.494474
-0.440943
-0.364316
-0.296952
-0.243586
-0.203188
-0.17214
-0.148014
-0.128971
-0.113772
-0.101498
-0.0914821
-0.0832253
-0.0763513
-0.0705855
-0.0656776
-0.0614886
-0.0579455
-0.0548005
-0.051689
-0.49723
-0.446349
-0.374813
-0.309362
-0.256615
-0.216257
-0.185
-0.160527
-0.141079
-0.125445
-0.112732
-0.102286
-0.0936153
-0.0863553
-0.0802233
-0.074986
-0.0704874
-0.0666517
-0.0633182
-0.0600338
-0.497972
-0.449276
-0.383393
-0.320286
-0.268492
-0.228418
-0.19713
-0.17245
-0.152707
-0.136731
-0.123655
-0.11284
-0.103809
-0.0962022
-0.0897394
-0.0842003
-0.0794225
-0.0753168
-0.0717489
-0.068362
-0.496879
-0.449875
-0.390109
-0.329738
-0.279228
-0.239684
-0.20854
-0.183788
-0.163858
-0.147628
-0.134261
-0.123138
-0.113796
-0.105882
-0.0991241
-0.0933088
-0.0882724
-0.0839167
-0.0801301
-0.0766294
-0.494166
-0.448404
-0.39506
-0.337754
-0.288844
-0.250069
-0.219241
-0.194549
-0.174536
-0.158138
-0.14455
-0.133178
-0.123572
-0.11539
-0.108369
-0.102301
-0.0970251
-0.0924394
-0.0884572
-0.0848186
-0.489815
-0.445049
-0.398309
-0.344367
-0.297378
-0.259608
-0.229257
-0.204749
-0.184755
-0.168269
-0.154528
-0.142961
-0.133136
-0.124724
-0.117469
-0.111173
-0.105675
-0.100875
-0.0967068
-0.0929307
-0.484027
-0.440172
-0.399964
-0.349621
-0.304871
-0.268333
-0.238614
-0.214407
-0.194527
-0.178032
-0.164201
-0.152492
-0.142492
-0.133884
-0.126424
-0.119921
-0.11422
-0.109217
-0.104864
-0.10096
-0.476989
-0.434179
-0.400108
-0.353564
-0.311361
-0.27627
-0.247333
-0.223542
-0.203865
-0.187436
-0.173576
-0.161775
-0.151641
-0.142872
-0.135234
-0.128544
-0.122655
-0.11746
-0.112922
-0.108894
-0.468874
-0.427473
-0.398827
-0.356263
-0.316892
-0.283452
-0.255439
-0.232174
-0.212788
-0.196493
-0.182663
-0.170817
-0.160589
-0.15169
-0.143899
-0.137042
-0.130979
-0.125601
-0.120878
-0.116725
-0.459882
-0.420408
-0.396236
-0.357816
-0.321519
-0.289913
-0.262964
-0.24033
-0.221315
-0.205221
-0.191473
-0.179629
-0.169343
-0.160345
-0.152424
-0.145417
-0.139193
-0.133642
-0.12873
-0.124447
-0.450244
-0.413263
-0.392505
-0.358344
-0.3253
-0.295689
-0.26994
-0.248039
-0.229472
-0.213637
-0.200022
-0.188221
-0.177912
-0.168843
-0.160815
-0.153674
-0.147298
-0.141582
-0.136478
-0.132057
-0.440217
-0.406224
-0.387873
-0.357985
-0.328292
-0.300816
-0.276399
-0.25533
-0.237283
-0.221765
-0.208328
-0.196608
-0.186309
-0.177195
-0.16908
-0.161819
-0.1553
-0.149425
-0.144127
-0.139558
-0.430077
-0.399387
-0.382649
-0.356885
-0.330553
-0.305331
-0.282373
-0.262234
-0.244775
-0.229625
-0.216411
-0.204807
-0.194547
-0.185412
-0.17723
-0.169862
-0.163206
-0.157179
-0.15168
-0.146952
-0.420089
-0.392788
-0.377177
-0.355187
-0.332142
-0.309268
-0.287891
-0.268776
-0.251974
-0.237243
-0.224289
-0.212836
-0.202642
-0.193509
-0.185276
-0.177814
-0.171027
-0.16485
-0.159147
-0.154247
-0.410481
-0.386437
-0.371784
-0.353032
-0.333126
-0.31266
-0.292975
-0.274981
-0.258903
-0.244641
-0.231986
-0.220713
-0.210611
-0.201501
-0.193234
-0.18569
-0.178775
-0.172451
-0.166539
-0.161452
-0.401422
-0.38035
-0.36671
-0.350563
-0.333579
-0.315543
-0.297644
-0.280865
-0.265584
-0.251841
-0.239522
-0.228459
-0.218473
-0.209405
-0.20112
-0.193507
-0.186467
-0.179996
-0.17387
-0.168582
-0.393013
-0.374563
-0.362071
-0.347936
-0.333588
-0.317946
-0.301909
-0.286438
-0.272032
-0.258863
-0.246919
-0.236093
-0.226247
-0.21724
-0.208952
-0.201282
-0.194122
-0.187506
-0.181159
-0.175653
-0.385291
-0.369134
-0.357874
-0.345313
-0.333248
-0.319905
-0.305776
-0.291704
-0.278254
-0.265721
-0.254194
-0.243636
-0.233952
-0.225027
-0.21675
-0.209039
-0.201764
-0.195001
-0.188431
-0.182687
-0.378258
-0.364121
-0.354069
-0.342839
-0.332663
-0.321459
-0.309244
-0.296652
-0.28425
-0.272422
-0.261361
-0.251106
-0.241608
-0.232785
-0.224536
-0.216798
-0.209418
-0.202512
-0.195707
-0.18971
-0.371888
-0.359559
-0.350603
-0.340603
-0.331943
-0.322656
-0.312316
-0.301265
-0.290002
-0.278964
-0.268429
-0.258517
-0.249234
-0.240536
-0.232332
-0.224587
-0.217114
-0.210071
-0.203041
-0.196747
-0.366143
-0.355456
-0.347454
-0.338627
-0.331192
-0.323559
-0.314997
-0.305518
-0.295483
-0.285327
-0.275393
-0.265876
-0.256843
-0.248297
-0.240159
-0.232427
-0.224886
-0.217721
-0.210445
-0.203858
-0.36098
-0.35179
-0.344623
-0.336891
-0.330492
-0.324242
-0.317301
-0.309382
-0.300649
-0.291477
-0.282233
-0.27318
-0.264444
-0.256086
-0.248038
-0.240348
-0.232758
-0.22551
-0.21804
-0.211045
-0.35635
-0.348525
-0.342111
-0.335371
-0.329887
-0.324777
-0.319259
-0.312831
-0.305445
-0.297357
-0.28891
-0.28041
-0.272034
-0.263909
-0.255986
-0.248366
-0.240776
-0.233464
-0.225823
-0.218523
-0.352196
-0.345614
-0.339908
-0.334058
-0.32939
-0.325226
-0.320911
-0.315853
-0.309812
-0.302892
-0.295357
-0.287521
-0.279591
-0.271765
-0.264011
-0.256502
-0.248928
-0.241681
-0.233873
-0.226234
-0.348456
-0.343007
-0.337991
-0.332953
-0.32901
-0.32564
-0.322316
-0.318459
-0.313705
-0.307999
-0.301485
-0.29444
-0.287068
-0.279631
-0.272108
-0.264761
-0.257256
-0.250014
-0.242533
-0.234652
-0.345089
-0.340653
-0.3363
-0.332014
-0.328717
-0.326021
-0.323503
-0.32066
-0.317081
-0.312586
-0.307178
-0.301059
-0.294383
-0.287455
-0.280259
-0.273118
-0.265802
-0.258499
-0.251547
-0.243024
-0.342011
-0.338527
-0.334796
-0.331221
-0.328508
-0.326387
-0.32452
-0.322498
-0.319936
-0.316581
-0.312315
-0.307236
-0.301412
-0.295134
-0.288414
-0.281531
-0.274524
-0.26713
-0.260334
-0.25133
-0.339189
-0.336565
-0.333432
-0.330536
-0.328365
-0.326743
-0.325402
-0.324026
-0.322296
-0.319948
-0.316792
-0.312813
-0.307988
-0.302514
-0.29646
-0.289935
-0.283315
-0.275908
-0.268951
-0.259698
-0.336575
-0.334728
-0.332165
-0.329913
-0.328252
-0.327077
-0.326169
-0.325296
-0.324217
-0.3227
-0.320548
-0.317647
-0.313922
-0.309393
-0.304211
-0.298216
-0.292064
-0.284819
-0.277653
-0.268328
-0.334121
-0.332984
-0.330954
-0.329311
-0.328131
-0.327364
-0.326827
-0.326349
-0.325766
-0.324896
-0.323585
-0.321658
-0.31904
-0.315546
-0.311412
-0.306176
-0.300634
-0.293791
-0.2866
-0.277299
-0.33179
-0.331307
-0.329771
-0.328694
-0.327963
-0.327575
-0.327367
-0.327213
-0.327008
-0.326624
-0.325966
-0.324853
-0.323237
-0.320789
-0.317791
-0.313531
-0.308808
-0.302626
-0.295718
-0.28664
-0.32955
-0.329676
-0.328597
-0.328034
-0.327718
-0.327682
-0.327773
-0.327898
-0.327991
-0.327971
-0.327795
-0.327319
-0.326516
-0.325031
-0.323138
-0.319957
-0.316287
-0.31098
-0.30479
-0.296117
-0.327386
-0.328088
-0.327416
-0.327312
-0.327374
-0.327663
-0.328028
-0.328403
-0.328745
-0.329007
-0.329182
-0.329184
-0.328981
-0.328301
-0.327387
-0.325193
-0.322796
-0.318365
-0.313401
-0.305444
-0.325291
-0.32654
-0.326222
-0.326524
-0.326922
-0.327503
-0.32812
-0.328723
-0.329283
-0.329779
-0.330219
-0.33057
-0.330798
-0.330717
-0.330626
-0.329143
-0.328204
-0.324343
-0.321139
-0.313991
-0.323269
-0.325035
-0.325019
-0.325674
-0.326364
-0.327201
-0.328045