/*--------------------------------*- C++ -*----------------------------------*\
  =========                 |
  \\      /  F ield         | OpenFOAM: The Open Source CFD Toolbox
   \\    /   O peration     | Website:  https://openfoam.org
    \\  /    A nd           | Version:  7
     \\/     M anipulation  |
\*---------------------------------------------------------------------------*/
FoamFile
{
    version     2.0;
    format      ascii;
    class       volVectorField;
    location    "15";
    object      U;
}
// * * * * * * * * * * * * * * * * * * * * * * * * * * * * * * * * * * * * * //

dimensions      [0 1 -1 0 0 0 0];

internalField   nonuniform List<vector> 
12100
(
(-0.00702343 0.00270045 -2.16477e-20)
(-0.029996 0.00466012 -2.56895e-20)
(-0.0612576 0.00521866 3.17145e-21)
(-0.0892002 0.00522532 -8.11677e-21)
(-0.115182 0.00504358 3.92717e-20)
(-0.138407 0.00484894 1.235e-20)
(-0.159592 0.00469649 -1.7197e-20)
(-0.179135 0.00460005 1.83458e-20)
(-0.197452 0.00455542 -2.50828e-20)
(-0.21484 0.00455231 1.46328e-20)
(-0.231517 0.00457685 7.63901e-21)
(-0.247609 0.0046105 2.77531e-21)
(-0.263156 0.00462924 -9.03969e-21)
(-0.278112 0.00460634 -5.17073e-21)
(-0.2923 0.00449962 -3.4122e-21)
(-0.305418 0.00426102 1.42392e-20)
(-0.317232 0.00393437 -1.68405e-20)
(-0.326835 0.00323628 -3.61892e-21)
(-0.334699 0.00288069 4.19978e-21)
(-0.338265 0.00160874 -1.1846e-20)
(-0.0073092 0.00804056 1.10872e-21)
(-0.0302031 0.0138917 -1.6202e-20)
(-0.0610119 0.0155631 -3.36418e-20)
(-0.0883512 0.0155799 2.70235e-20)
(-0.113578 0.0150283 1.71821e-20)
(-0.135895 0.0144327 2.61843e-21)
(-0.155988 0.0139582 4.97295e-20)
(-0.174219 0.013646 -7.99774e-20)
(-0.190961 0.0134834 4.87513e-20)
(-0.206467 0.0134393 -3.80426e-20)
(-0.220906 0.0134723 4.54047e-21)
(-0.234355 0.0135276 -2.21142e-20)
(-0.246802 0.0135342 8.05288e-21)
(-0.25816 0.0134153 1.6222e-20)
(-0.268221 0.0130517 2.71905e-20)
(-0.276582 0.0122703 1.64425e-20)
(-0.283261 0.0113184 4.60246e-20)
(-0.286584 0.0090182 4.39879e-21)
(-0.288587 0.00814002 -3.80218e-20)
(-0.283357 0.00385209 2.83961e-20)
(-0.00787213 0.0132033 -6.15199e-21)
(-0.0306161 0.0228623 -2.3198e-20)
(-0.0605331 0.0256318 3.29907e-20)
(-0.08668 0.0256495 2.53374e-20)
(-0.110414 0.0247097 -8.50253e-20)
(-0.130943 0.0236794 1.10042e-20)
(-0.148892 0.0228333 -8.36039e-20)
(-0.164558 0.0222399 6.76163e-21)
(-0.17824 0.0218774 -1.88273e-20)
(-0.190113 0.0216936 3.74693e-20)
(-0.200262 0.02162 -1.16533e-20)
(-0.208685 0.0215683 1.33403e-20)
(-0.215282 0.0214242 -1.35005e-20)
(-0.219909 0.0210687 -2.5881e-20)
(-0.222352 0.0203411 -3.00237e-20)
(-0.221895 0.0188252 -3.68139e-20)
(-0.219511 0.0173884 -7.48991e-20)
(-0.211152 0.0129174 2.8083e-20)
(-0.203635 0.0120318 2.37588e-20)
(-0.18233 0.0039238 7.43737e-20)
(-0.00869584 0.0180807 3.09902e-20)
(-0.031232 0.0314074 1.22912e-19)
(-0.0598449 0.0352475 -3.97932e-20)
(-0.0842368 0.0352498 -8.08109e-20)
(-0.105776 0.033893 -4.64979e-20)
(-0.123683 0.032376 6.4432e-20)
(-0.138506 0.0310825 8.03875e-20)
(-0.150462 0.0301082 -5.80508e-21)
(-0.159758 0.0294223 -1.79811e-21)
(-0.166472 0.0289513 -1.08294e-19)
(-0.170598 0.0286014 -5.13495e-20)
(-0.172046 0.028254 2.40101e-20)
(-0.170631 0.0277576 2.97795e-21)
(-0.166132 0.0269599 2.36932e-20)
(-0.158507 0.0257464 -7.14428e-20)
(-0.146152 0.0232246 2.79798e-20)
(-0.132676 0.0214886 4.11134e-20)
(-0.108399 0.0143847 4.80895e-20)
(-0.0904136 0.01344 -2.56825e-20)
(-0.0477575 0.00213644 -6.01332e-20)
(-0.00975745 0.0225775 -8.42949e-20)
(-0.0320464 0.0393743 -2.40177e-20)
(-0.0589787 0.0442411 7.13322e-20)
(-0.0810894 0.0442041 3.70108e-20)
(-0.0997751 0.0423931 1.80592e-19)
(-0.114287 0.0403248 -1.66832e-19)
(-0.125093 0.0384909 -9.336e-20)
(-0.132323 0.0370147 -4.45908e-21)
(-0.13609 0.0358576 -1.65447e-21)
(-0.136381 0.0349261 2.21109e-20)
(-0.133106 0.0341035 3.24244e-20)
(-0.12611 0.0332454 -8.76279e-20)
(-0.115144 0.0321731 1.06387e-19)
(-0.0998661 0.0307081 5.44725e-20)
(-0.0807999 0.0288419 8.47632e-20)
(-0.0543995 0.0252075 -2.17795e-21)
(-0.0293871 0.0226077 -2.03646e-20)
(0.013545 0.0143303 1.93514e-21)
(0.0411905 0.0111322 -3.1312e-20)
(0.108327 -0.000747355 -5.60232e-20)
(-0.0110293 0.0266153 5.48639e-20)
(-0.0330519 0.0466269 4.38743e-21)
(-0.0579698 0.0524553 -1.3284e-19)
(-0.0773141 0.0523456 -6.53788e-20)
(-0.0925349 0.0500378 -2.132e-19)
(-0.102941 0.0473477 -7.73806e-21)
(-0.108923 0.0448738 -1.10735e-20)
(-0.110531 0.0427689 -1.83638e-20)
(-0.107792 0.0409894 8.22948e-21)
(-0.100616 0.0394248 2.27468e-20)
(-0.0888534 0.0379413 1.80475e-19)
(-0.0723103 0.036373 -1.06073e-21)
(-0.0507278 0.0345298 6.36925e-20)
(-0.0235501 0.0322746 -1.55964e-19)
(0.0077004 0.0293229 2.01602e-20)
(0.0493903 0.0249768 -3.21652e-20)
(0.0857912 0.0205621 -2.58643e-20)
(0.150111 0.0125602 2.43959e-20)
(0.183342 0.00572424 -5.43445e-20)
(0.280146 -0.00526569 5.5253e-20)
(-0.012481 0.0301352 -1.40218e-19)
(-0.0342376 0.0530483 -2.46423e-19)
(-0.0568513 0.0597474 8.83184e-20)
(-0.0729843 0.0595205 -2.43858e-20)
(-0.0841715 0.0566699 1.91921e-19)
(-0.0898087 0.0532886 1.8388e-19)
(-0.0902203 0.0500801 -6.29516e-20)
(-0.0853856 0.0472305 8.72057e-20)
(-0.0752567 0.0446965 -1.1906e-19)
(-0.0596826 0.0423564 1.39828e-20)
(-0.0384708 0.0400682 -3.70626e-20)
(-0.0114117 0.0376515 5.81833e-20)
(0.0217311 0.0349004 -1.80517e-21)
(0.0616871 0.031845 -5.41316e-20)
(0.105701 0.0274293 1.41935e-19)
(0.164145 0.02303 -5.50948e-20)
(0.210366 0.0160597 -4.70077e-20)
(0.299524 0.00905608 7.31942e-20)
(0.334354 -0.00104067 2.76783e-20)
(0.463162 -0.0113299 1.20279e-19)
(-0.0140816 0.0330996 1.03922e-19)
(-0.0355877 0.0585446 1.13469e-19)
(-0.0556473 0.0659919 7.8047e-20)
(-0.0681567 0.0655895 2.76497e-19)
(-0.0747688 0.0621492 -6.10018e-20)
(-0.0749946 0.0580151 9.20807e-20)
(-0.0690999 0.0539947 1.19424e-19)
(-0.0569981 0.0503128 -1.49929e-19)
(-0.038571 0.0469347 3.61824e-19)
(-0.0136087 0.0437375 4.67609e-21)
(0.0181102 0.0405845 -2.3141e-19)
(0.0567989 0.0372928 -2.41304e-20)
(0.102636 0.0335934 -2.25301e-19)
(0.15654 0.0299233 1.06805e-19)
(0.214173 0.0239035 -7.93981e-20)
(0.290282 0.0202329 8.3068e-20)
(0.346741 0.0101523 1.16712e-19)
(0.459713 0.00531149 4.57675e-20)
(0.49649 -0.00753012 -1.28436e-19)
(0.652662 -0.0169787 -1.12104e-19)
(-0.0158014 0.0354925 -5.09745e-20)
(-0.0370794 0.0630452 2.97962e-20)
(-0.0543645 0.0710832 -2.37274e-19)
(-0.0628553 0.0704312 -1.35156e-19)
(-0.0643509 0.066355 -1.07464e-19)
(-0.0584967 0.0614217 -5.97572e-20)
(-0.0454979 0.0565414 -2.92067e-19)
(-0.025193 0.0519863 5.26881e-20)
(0.00261635 0.0477438 -2.96789e-19)
(0.0382077 0.043703 -8.4976e-20)
(0.081818 0.0397503 5.33219e-20)
(0.133634 0.0357221 9.80386e-20)
(0.193721 0.031218 -2.96444e-20)
(0.262842 0.0273608 1.14949e-19)
(0.335895 0.0199501 6.65525e-21)
(0.42826 0.0174876 -1.2497e-19)
(0.498455 0.00521344 9.09002e-21)
(0.627021 0.00244282 -1.77576e-19)
(0.670352 -0.0118618 3.3056e-20)
(0.839915 -0.0195682 -7.03782e-20)
(-0.017614 0.0373185 1.94683e-19)
(-0.0386806 0.0665048 2.21121e-19)
(-0.0529828 0.0749378 5.76694e-20)
(-0.0570522 0.0739448 2.35344e-19)
(-0.0528506 0.06919 6.51836e-20)
(-0.0401582 0.0634335 1.45192e-19)
(-0.0191006 0.0576895 1.62906e-19)
(0.0105855 0.0522904 1.49942e-19)
(0.0491973 0.0472634 1.37738e-19)
(0.0970804 0.0425288 -1.13282e-19)
(0.154425 0.038011 1.76233e-19)
(0.221281 0.0335922 1.72965e-19)
(0.297445 0.0287189 2.23049e-19)
(0.382659 0.0250892 -2.13161e-19)
(0.472829 0.0173972 1.94665e-20)
(0.577396 0.0156894 1.8419e-19)
(0.664283 0.00352672 -6.52254e-20)
(0.794725 0.0019903 1.02948e-21)
(0.848984 -0.0124997 -7.15617e-21)
(1.01019 -0.0176465 8.93331e-20)
(-0.0194969 0.0386004 -1.21961e-19)
(-0.0403466 0.0689019 -2.00823e-19)
(-0.0514444 0.0774969 3.46897e-19)
(-0.0506468 0.076055 -3.53619e-19)
(-0.0400736 0.0705874 -2.51554e-19)
(-0.0196135 0.0640157 -1.07487e-19)
(0.0107264 0.0574688 -4.68124e-20)
(0.0513485 0.0513546 -2.5651e-19)
(0.102647 0.0457635 -1.50935e-19)
(0.164968 0.0406688 -2.40452e-20)
(0.238254 0.0360368 -7.65179e-20)
(0.32213 0.0317912 -5.08677e-20)
(0.415662 0.0273167 -1.2021e-19)
(0.516772 0.0242518 -6.00422e-20)
(0.622892 0.0177907 2.274e-20)
(0.734244 0.0162784 -1.18269e-19)
(0.834263 0.00607448 1.29235e-20)
(0.952995 0.00498062 7.4124e-21)
(1.01589 -0.00883259 -8.87355e-20)
(1.14709 -0.01188 5.96634e-20)
(-0.021432 0.0393758 1.14154e-19)
(-0.0420162 0.0702379 8.89887e-20)
(-0.0496417 0.0787293 -4.03021e-19)
(-0.0434406 0.0767163 -1.34827e-19)
(-0.0256588 0.0705177 1.42151e-19)
(0.00376549 0.0631912 -7.48336e-20)
(0.0449984 0.0559942 2.02822e-19)
(0.098592 0.0494341 1.92282e-19)
(0.164949 0.0436886 -2.50816e-19)
(0.244173 0.0387955 -7.87251e-20)
(0.335503 0.0347403 2.45983e-19)
(0.437594 0.0314159 -2.77404e-19)
(0.547903 0.0282424 -2.49811e-19)
(0.662544 0.0261861 3.46975e-19)
(0.778606 0.0218036 -7.55609e-20)
(0.890353 0.0204644 3.70161e-20)
(0.992004 0.0124845 5.28279e-20)
(1.08996 0.0111583 -4.77547e-20)
(1.15114 -0.00186016 1.30119e-19)
(1.2404 -0.00429123 1.6246e-19)
(-0.0234048 0.0396924 -3.65791e-19)
(-0.0436057 0.0705344 -3.50247e-19)
(-0.0474058 0.078635 2.58042e-19)
(-0.0351133 0.0759199 1.62715e-19)
(-0.00903744 0.0690044 8.63323e-20)
(0.0309191 0.0610629 -7.01173e-20)
(0.0851383 0.0535005 -1.25899e-19)
(0.154235 0.0469555 6.31132e-20)
(0.238327 0.0417018 7.94722e-21)
(0.336713 0.0378107 1.24564e-19)
(0.447169 0.0352122 -1.40344e-19)
(0.566585 0.0336128 -5.96944e-20)
(0.690008 0.0324291 1.95027e-19)
(0.812274 0.031744 -2.54149e-19)
(0.92846 0.0293035 -1.41095e-20)
(1.03236 0.0280438 1.0463e-19)
(1.12181 0.0213268 -4.19739e-20)
(1.19477 0.0190871 -5.46531e-20)
(1.24262 0.00625761 6.87832e-21)
(1.29181 0.00304806 -7.32861e-20)
(-0.0254027 0.0396042 5.65702e-20)
(-0.0450018 0.0698286 3.67759e-19)
(-0.0444889 0.0772424 -1.14237e-19)
(-0.0252002 0.0737073 -1.46075e-20)
(0.0105998 0.0661442 -1.1264e-19)
(0.063126 0.0578422 -4.22125e-20)
(0.132936 0.0503866 3.76954e-20)
(0.2204 0.0445606 1.23217e-19)
(0.324698 0.0406957 3.43118e-20)
(0.443365 0.0387729 -2.60363e-19)
(0.571775 0.038516 1.53509e-19)
(0.70431 0.0392143 8.80131e-20)
(0.833707 0.0401919 -1.14109e-19)
(0.954181 0.0406473 1.79831e-19)
(1.05978 0.0393247 1.39309e-19)
(1.14704 0.0373967 -3.58318e-20)
(1.21501 0.0307274 1.43715e-21)
(1.26287 0.0269332 -5.28028e-21)
(1.29243 0.0135513 -1.77281e-19)
(1.31308 0.00948118 -2.46505e-19)
(-0.0274133 0.039166 3.19405e-19)
(-0.0460604 0.0681752 -9.12181e-20)
(-0.0405487 0.0746098 -2.31562e-19)
(-0.0130653 0.0701761 3.06342e-19)
(0.0343239 0.0621254 2.69358e-19)
(0.101981 0.0538872 1.93683e-19)
(0.190388 0.047255 1.77348e-19)
(0.298967 0.0431158 -6.08288e-20)
(0.424837 0.0417138 1.1213e-19)
(0.562563 0.0426879 1.05584e-19)
(0.704422 0.0453304 -8.81965e-20)
(0.842298 0.0483266 6.24367e-20)
(0.967948 0.0509032 5.34957e-20)
(1.07621 0.0515667 -4.10366e-20)
(1.16271 0.0501799 9.69556e-20)
(1.22776 0.0465348 -1.07819e-19)
(1.27226 0.0392063 1.28598e-19)
(1.29898 0.0333799 2.52392e-19)
(1.31314 0.0195196 1.25773e-19)
(1.31734 0.0147417 1.98427e-19)
(-0.0294175 0.0384269 -1.00777e-19)
(-0.0466008 0.0656431 5.48051e-20)
(-0.0351436 0.0708305 1.34172e-19)
(0.00211346 0.0654868 -3.71679e-19)
(0.0634639 0.057252 -6.28319e-20)
(0.149294 0.0497357 -3.12994e-19)
(0.259364 0.0449258 1.27002e-19)
(0.390877 0.0436455 -3.03109e-19)
(0.537423 0.0457381 1.18021e-19)
(0.689654 0.0501649 -2.78413e-19)
(0.836987 0.0555791 1.17531e-20)
(0.970179 0.0601285 3.45711e-20)
(1.08222 0.0630689 -5.89265e-20)
(1.17041 0.06274 -1.49359e-19)
(1.23392 0.0601687 -3.15937e-21)
(1.2767 0.0542001 1.8131e-19)
(1.30146 0.0461599 -1.52716e-19)
(1.31364 0.0382118 -3.49189e-19)
(1.31792 0.0245522 -2.601e-19)
(1.31441 0.0193235 9.75072e-20)
(-0.0313817 0.0374235 3.18779e-21)
(-0.0463952 0.0623052 2.43594e-19)
(-0.0277274 0.0660364 -6.37311e-20)
(0.0213412 0.05988 -2.16356e-20)
(0.0995546 0.0519688 7.11125e-20)
(0.206875 0.0461237 2.44078e-19)
(0.341062 0.0443884 -1.1955e-19)
(0.495308 0.0471402 -1.07384e-19)
(0.65837 0.0533603 7.07664e-20)
(0.817159 0.0610745 1.57156e-19)
(0.959918 0.0683124 -2.55594e-19)
(1.07878 0.0730912 1.93929e-19)
(1.17022 0.0749634 2.54271e-20)
(1.23531 0.0727394 6.63359e-20)
(1.27708 0.0683549 -1.45868e-19)
(1.30175 0.0601957 -4.20867e-20)
(1.31283 0.0517707 -3.93399e-20)
(1.3166 0.0418781 4.2374e-20)
(1.31534 0.0292565 1.52379e-19)
(1.30863 0.0233266 -3.22558e-19)
(-0.0332534 0.0361781 -2.69343e-20)
(-0.0451635 0.0582392 -2.36773e-20)
(-0.0176455 0.060397 2.71273e-19)
(0.0457862 0.0536842 1.39402e-19)
(0.14422 0.0468788 -1.25876e-19)
(0.276156 0.0439644 3.61297e-20)
(0.435327 0.046649 3.97294e-20)
(0.609039 0.0542518 3.50986e-19)
(0.781042 0.0644721 -2.94865e-19)
(0.936403 0.0744593 -4.17369e-19)
(1.06505 0.08201 -4.10354e-19)
(1.16304 0.0855982 -9.11808e-20)
(1.23148 0.0853626 2.51319e-20)
(1.27515 0.0809473 -1.42657e-19)
(1.29963 0.0747046 -1.19735e-20)
(1.31167 0.0649848 2.91633e-20)
(1.31446 0.0564631 -2.11257e-20)
(1.31383 0.0448847 2.92384e-19)
(1.30944 0.0340471 5.35193e-21)
(1.30211 0.0267451 3.02708e-19)
(-0.0349566 0.0347009 2.29544e-20)
(-0.042573 0.0535291 -3.0789e-19)
(-0.00413922 0.0541159 8.02148e-20)
(0.076733 0.0473279 -2.68757e-19)
(0.198963 0.0427477 3.40302e-19)
(0.357679 0.0442541 -2.28997e-19)
(0.540027 0.0524691 9.29485e-21)
(0.72649 0.064993 -1.89182e-20)
(0.897625 0.0781926 -2.33749e-19)
(1.03997 0.0888498 5.72129e-19)
(1.14798 0.0951747 2.41102e-19)
(1.2229 0.0965646 -3.44433e-20)
(1.27009 0.0938525 -1.21238e-19)
(1.29664 0.087464 -2.18707e-19)
(1.30898 0.0796745 -6.1291e-21)
(1.31306 0.0691249 -1.00066e-19)
(1.31124 0.0604975 8.64642e-20)
(1.30836 0.0477123 -4.40918e-20)
(1.30209 0.0392049 -3.36964e-19)
(1.29555 0.0292319 -1.31443e-19)
(-0.0364056 0.033008 -1.65756e-19)
(-0.0382224 0.048246 2.12533e-19)
(0.0136394 0.0474345 -1.84907e-19)
(0.115496 0.0413572 -2.01825e-19)
(0.264842 0.0404798 -3.72791e-19)
(0.450522 0.0478803 1.46461e-19)
(0.650879 0.0620761 -1.0106e-19)
(0.840758 0.0786431 -2.92465e-19)
(1.00122 0.0931538 2.53046e-19)
(1.12367 0.102823 -2.03942e-19)
(1.20858 0.106835 2.93347e-19)
(1.26197 0.10564 3.36577e-19)
(1.29189 0.100628 1.81083e-19)
(1.30612 0.0927036 2.7601e-19)
(1.3106 0.0837936 -4.6443e-20)
(1.31001 0.072953 6.70301e-20)
(1.30579 0.0640173 -2.46008e-20)
(1.30171 0.050899 1.51786e-19)
(1.29419 0.0444975 7.49895e-20)
(1.2892 0.0303965 8.6003e-20)
(-0.0374938 0.0310928 8.63012e-19)
(-0.0316628 0.0424585 -2.16033e-19)
(0.036602 0.040657 1.88763e-19)
(0.163269 0.0364609 2.29445e-19)
(0.342045 0.0410237 3.51592e-19)
(0.551936 0.0553554 -1.85583e-19)
(0.762061 0.0750112 1.08964e-19)
(0.945337 0.0939722 -1.46967e-19)
(1.08754 0.107996 -2.70058e-19)
(1.18698 0.115436 1.39422e-19)
(1.24979 0.116665 -2.48923e-19)
(1.28523 0.112999 -1.57324e-19)
(1.30232 0.106118 1.78631e-20)
(1.30829 0.0970983 7.6143e-20)
(1.308 0.0874645 -1.42994e-20)
(1.30477 0.0765862 1.3511e-19)
(1.29941 0.0672605 1.4601e-20)
(1.29463 0.0547578 -3.52029e-19)
(1.28658 0.0489096 1.57378e-19)
(1.28256 0.0295497 -1.44841e-19)
(-0.0380843 0.0289403 -6.06159e-19)
(-0.0224082 0.0362661 2.58562e-19)
(0.0656977 0.0341536 -2.70066e-20)
(0.220923 0.033442 -1.31272e-19)
(0.429454 0.0451427 -3.91358e-19)
(0.657475 0.0665667 2.77521e-19)
(0.867482 0.0902342 -2.51298e-19)
(1.03562 0.109661 1.10803e-19)
(1.15538 0.121752 1.3632e-19)
(1.232 0.126323 -5.79757e-19)
(1.27577 0.124799 1.11436e-19)
(1.29739 0.119032 1.99612e-20)
(1.30553 0.110748 2.43794e-19)
(1.30626 0.100997 -2.95385e-20)
(1.30321 0.090928 -3.18127e-20)
(1.29854 0.0800777 -2.32507e-20)
(1.29269 0.0705451 1.36529e-19)
(1.28742 0.058877 1.03691e-19)
(1.27958 0.0511885 3.25441e-20)
(1.27562 0.0383566 9.05631e-20)
(-0.0380248 0.0265368 -4.42317e-20)
(-0.0099274 0.0297692 -3.89042e-19)
(0.101867 0.0283706 2.12771e-19)
(0.288748 0.0331403 1.40211e-19)
(0.524524 0.0531758 -1.13616e-19)
(0.761958 0.0808036 -3.51491e-19)
(0.962377 0.106522 2.36189e-19)
(1.10972 0.124709 -6.10769e-20)
(1.20605 0.13398 4.42429e-20)
(1.26216 0.135543 3.6338e-19)
(1.29065 0.131569 -1.94539e-19)
(1.30221 0.124135 -1.79803e-19)
(1.3044 0.114847 -1.64843e-19)
(1.30193 0.104625 -3.10905e-20)
(1.29733 0.0942888 -1.21603e-20)
(1.29191 0.0835109 1.11124e-19)
(1.28586 0.0739606 -5.84929e-20)
(1.28031 0.0623064 -6.79765e-20)
(1.27276 0.0558527 -1.5551e-19)
(1.26865 0.0416139 -1.03771e-19)
(-0.0371358 0.0238641 -1.87289e-20)
(0.00634943 0.023095 2.27716e-19)
(0.145929 0.0238922 -3.98349e-19)
(0.366091 0.0363081 7.88943e-20)
(0.623435 0.064923 2.71856e-19)
(0.860488 0.0970283 5.12415e-20)
(1.0439 0.122832 8.13573e-20)
(1.16784 0.138557 1.47139e-19)
(1.24204 0.144627 -1.65959e-19)
(1.28095 0.143358 -1.2325e-19)
(1.2978 0.137338 2.29273e-19)
(1.30235 0.128638 4.25271e-19)
(1.30075 0.118649 4.72689e-20)
(1.2964 0.108124 -1.67491e-19)
(1.29094 0.0976163 6.27531e-21)
(1.28514 0.0869563 -1.43524e-19)
(1.27902 0.0771895 3.52728e-20)
(1.27333 0.0663149 -6.93934e-20)
(1.26605 0.0588416 -2.63031e-19)
(1.26217 0.0462075 1.37242e-19)
(-0.0352168 0.0209098 4.5457e-20)
(0.0270253 0.0164236 4.2737e-19)
(0.198431 0.0214441 -1.29566e-19)
(0.451176 0.0433768 3.5384e-19)
(0.721826 0.0796951 -2.88757e-19)
(0.949431 0.114188 3.4093e-19)
(1.11115 0.138459 -2.77294e-19)
(1.21159 0.151003 1.79817e-19)
(1.26627 0.153854 -1.17262e-19)
(1.29143 0.150086 1.22343e-20)
(1.29979 0.142426 -1.37983e-19)
(1.29964 0.132785 -2.40814e-19)
(1.29568 0.122306 -1.19138e-19)
(1.29024 0.111569 8.28905e-20)
(1.28432 0.100952 2.81158e-20)
(1.27832 0.0903273 7.75107e-20)
(1.27221 0.0805747 -1.87587e-20)
(1.26644 0.0697548 2.3125e-19)
(1.25955 0.0625017 2.21884e-19)
(1.25554 0.0501309 9.1573e-20)
(-0.0320487 0.0176737 -4.1145e-19)
(0.0527213 0.0100261 -3.855e-19)
(0.259444 0.021823 2.97544e-19)
(0.541204 0.054296 -1.7886e-20)
(0.815685 0.0965655 4.11741e-19)
(1.02675 0.13145 -2.47983e-19)
(1.16471 0.153035 1.07802e-19)
(1.24319 0.162087 -1.39563e-19)
(1.28146 0.161919 2.62132e-19)
(1.29608 0.156032 -1.04615e-19)
(1.29844 0.147087 1.02663e-19)
(1.29522 0.136745 -6.96837e-21)
(1.28982 0.125906 8.0714e-20)
(1.28376 0.115006 -1.06274e-20)
(1.2776 0.10428 1.2414e-19)
(1.27151 0.093716 2.55371e-20)
(1.26542 0.0837867 -4.48477e-21)
(1.25964 0.0733741 -1.5773e-19)
(1.25307 0.0656438 -6.03997e-20)
(1.24908 0.0537408 -8.75733e-20)
(-0.0273917 0.0141719 5.90949e-19)
(0.0840363 0.00431266 -3.7355e-19)
(0.328359 0.0257286 9.4589e-20)
(0.632795 0.068569 -3.70331e-19)
(0.901989 0.114644 -2.59226e-19)
(1.09184 0.148267 2.81867e-20)
(1.20596 0.166442 5.0567e-20)
(1.26495 0.171971 -1.4163e-19)
(1.28996 0.169093 2.57267e-20)
(1.29673 0.161455 2.008e-19)
(1.29496 0.151505 -1.48118e-19)
(1.28978 0.140625 -8.90375e-20)
(1.28353 0.1295 -4.91262e-20)
(1.27711 0.118445 -4.42522e-20)
(1.27081 0.107624 -5.68911e-20)
(1.26468 0.0970302 1.07221e-19)
(1.25865 0.0870421 -5.24412e-20)
(1.2529 0.0767129 -1.09902e-20)
(1.24666 0.068787 1.44691e-19)
(1.24254 0.0572748 1.56987e-19)
(-0.0209789 0.0104427 -1.40492e-19)
(0.121467 -0.00012831 3.46837e-19)
(0.403791 0.0335572 2.05448e-19)
(0.722605 0.0854573 -2.31588e-19)
(0.978903 0.133229 2.8526e-19)
(1.14509 0.164341 -1.68797e-21)
(1.23666 0.178717 2.55325e-19)
(1.279 0.180872 1.66394e-19)
(1.29361 0.175627 1.47619e-19)
(1.2947 0.166556 -1.42217e-19)
(1.29016 0.155807 9.95087e-20)
(1.28374 0.144488 1.05111e-19)
(1.27697 0.13311 1.76542e-19)
(1.27034 0.121897 -9.34276e-20)
(1.26397 0.110954 -1.16726e-22)
(1.25784 0.100326 -9.01713e-20)
(1.25187 0.090184 3.52124e-21)
(1.24619 0.0800157 -4.0193e-20)
(1.24023 0.0717562 -8.54294e-20)
(1.23603 0.0604995 -3.25062e-20)
(-0.0125109 0.00655893 -1.28031e-19)
(0.165289 -0.00254064 -1.40125e-19)
(0.483688 0.0452842 -7.18945e-21)
(0.807844 0.10421 2.19538e-19)
(1.04564 0.151839 -2.13317e-19)
(1.1875 0.179549 -2.32078e-19)
(1.25863 0.189983 8.85286e-20)
(1.28716 0.189012 -1.04298e-19)
(1.29382 0.181732 -6.62317e-20)
(1.29088 0.171481 2.59093e-20)
(1.28451 0.160073 -2.254e-19)
(1.27732 0.14837 2.07936e-19)
(1.27023 0.136744 -2.01267e-20)
(1.26348 0.125353 -4.64832e-20)
(1.25707 0.114278 4.1961e-20)
(1.25096 0.103553 -6.40911e-20)
(1.24508 0.093297 -5.71977e-20)
(1.23947 0.0831598 -3.41689e-21)
(1.23377 0.0746005 -4.25037e-20)
(1.22948 0.0636119 8.01715e-20)
(-0.00165677 0.00264502 1.47385e-19)
(0.21543 -0.00209298 2.54411e-19)
(0.565614 0.0605205 -3.40559e-19)
(0.886524 0.124198 -1.25791e-19)
(1.1022 0.170172 -5.67968e-20)
(1.22036 0.193881 3.25084e-19)
(1.27351 0.200401 -8.65026e-20)
(1.2909 0.196594 -5.39495e-20)
(1.29161 0.187573 -7.48257e-20)
(1.28588 0.17633 8.98915e-20)
(1.27831 0.164349 3.33285e-20)
(1.27063 0.152283 -3.90206e-20)
(1.26335 0.140399 -1.04959e-19)
(1.25653 0.128811 1.07304e-20)
(1.25011 0.117575 -4.5584e-20)
(1.24404 0.106734 8.19111e-20)
(1.23825 0.0963247 2.02136e-20)
(1.23274 0.086202 2.12474e-20)
(1.22725 0.0773306 2.89747e-20)
(1.2229 0.0665191 -8.45106e-20)
(0.01193 -0.00110268 -2.77229e-19)
(0.271374 0.00195468 -1.59564e-20)
(0.647104 0.0786891 -5.20206e-20)
(0.957454 0.144957 1.48665e-19)
(1.14909 0.188057 -5.12594e-20)
(1.24499 0.207396 -1.42904e-19)
(1.28277 0.21014 -2.00518e-19)
(1.29135 0.203793 1.40585e-19)
(1.28771 0.193271 -1.65193e-19)
(1.28006 0.181167 8.21399e-20)
(1.27171 0.168658 4.8395e-20)
(1.26373 0.156229 -2.55615e-20)
(1.25633 0.144068 6.02674e-20)
(1.24947 0.132258 6.79275e-20)
(1.24308 0.120842 -1.44944e-19)
(1.23706 0.109847 1.09228e-19)
(1.23136 0.0992908 9.70736e-21)
(1.22596 0.0891187 1.89302e-20)
(1.22068 0.0799351 9.18257e-20)
(1.21629 0.0692904 2.29426e-20)
(0.0285708 -0.00439604 8.24541e-20)
(0.332169 0.0100798 -3.30144e-19)
(0.725964 0.0991967 3.08261e-19)
(1.02009 0.166155 1.39735e-19)
(1.18707 0.205414 -1.03841e-19)
(1.26272 0.220187 -1.7091e-19)
(1.28762 0.219361 5.80381e-21)
(1.28937 0.210748 -3.36063e-20)
(1.28259 0.198911 2.84321e-19)
(1.27365 0.186028 -1.29772e-19)
(1.2648 0.173008 -1.49318e-20)
(1.25663 0.160201 3.43896e-20)
(1.24917 0.147742 -2.14473e-20)
(1.24231 0.135687 -4.41513e-20)
(1.23595 0.124066 1.2483e-19)
(1.23 0.112897 -1.0312e-19)
(1.22441 0.102176 1.27312e-20)
(1.21913 0.0919192 -5.87037e-20)
(1.21402 0.0824346 -6.22522e-20)
(1.20964 0.071909 -2.01876e-20)
(0.0485088 -0.00685202 -5.9298e-20)
(0.39651 0.0224074 1.38072e-19)
(0.800443 0.121523 -1.24703e-19)
(1.07437 0.187564 -1.28585e-19)
(1.21708 0.222218 2.12772e-19)
(1.27469 0.232363 2.25377e-19)
(1.28903 0.228203 1.08875e-19)
(1.28558 0.217563 -1.86179e-21)
(1.27659 0.204545 -2.79617e-19)
(1.26679 0.190928 2.3636e-20)
(1.25762 0.177393 8.95066e-21)
(1.24934 0.16419 6.05588e-20)
(1.24185 0.151408 9.96538e-20)
(1.23502 0.139085 -5.24678e-21)
(1.22872 0.12724 -2.28884e-20)
(1.22286 0.115873 9.266e-20)
(1.21739 0.104981 -6.08608e-20)
(1.21223 0.0946011 7.51497e-20)
(1.20729 0.0848228 -6.77667e-21)
(1.20294 0.0743972 7.75868e-20)
(0.0718595 -0.00801405 1.03428e-19)
(0.462892 0.0387427 5.40319e-20)
(0.869288 0.145238 -1.22414e-19)
(1.12051 0.209014 -1.50865e-19)
(1.24006 0.238482 -1.06278e-20)
(1.28193 0.244032 -2.47241e-20)
(1.28776 0.236781 1.21844e-19)
(1.28043 0.22431 8.4899e-20)
(1.2699 0.2102 9.13995e-20)
(1.25954 0.195866 -3.32879e-20)
(1.25019 0.181802 4.4035e-20)
(1.24186 0.168179 -4.05368e-20)
(1.23438 0.155052 -8.26924e-20)
(1.2276 0.142441 1.00732e-20)
(1.22138 0.130351 2.16826e-20)
(1.21563 0.118773 2.59243e-20)
(1.21027 0.107698 3.4683e-20)
(1.20525 0.0971649 -2.093e-20)
(1.20047 0.0871115 4.06705e-20)
(1.19618 0.0767577 -9.37747e-20)
(0.0985735 -0.00739964 1.36463e-19)
(0.529768 0.0586869 -1.22712e-20)
(0.931709 0.169995 1.71935e-19)
(1.15893 0.23037 1.0445e-19)
(1.25691 0.254236 4.67298e-20)
(1.2853 0.255293 -1.14338e-19)
(1.28438 0.245183 -1.08455e-19)
(1.27422 0.231032 -3.01814e-20)
(1.26264 0.215885 -8.16272e-21)
(1.25194 0.200834 -7.95987e-21)
(1.2425 0.186219 -1.06118e-19)
(1.23416 0.172152 2.33423e-20)
(1.22674 0.158658 4.23583e-20)
(1.22003 0.145741 1.30292e-21)
(1.21392 0.133391 5.144e-21)
(1.20829 0.121587 -1.31786e-20)
(1.20307 0.110323 -3.22006e-20)
(1.19818 0.0996113 -2.68475e-20)
(1.19357 0.0892994 -5.62333e-20)
(1.18936 0.078999 8.62505e-21)
(0.128426 -0.00456572 -8.38188e-20)
(0.595664 0.0817614 5.17672e-20)
(0.987302 0.195511 -2.13007e-20)
(1.19017 0.251521 4.95558e-21)
(1.26846 0.269517 -1.9205e-19)
(1.28548 0.266231 4.74922e-20)
(1.27933 0.253467 3.06026e-20)
(1.26715 0.237752 -2.11799e-20)
(1.25489 0.221595 7.57376e-20)
(1.24401 0.205812 -1.26077e-21)
(1.23454 0.190624 3.32984e-20)
(1.22625 0.176089 3.90691e-20)
(1.21891 0.16221 -2.68106e-20)
(1.21231 0.148971 -3.17599e-20)
(1.20632 0.136348 -1.7345e-20)
(1.20083 0.12431 -1.86361e-20)
(1.19576 0.112846 1.64235e-20)
(1.19102 0.10194 1.90142e-20)
(1.18658 0.0913919 3.07456e-20)
(1.18247 0.0811256 3.55887e-20)
(0.16103 0.000828635 -3.90646e-20)
(0.659266 0.107487 -7.65376e-21)
(1.03595 0.221558 -6.93114e-20)
(1.2148 0.272375 6.40599e-20)
(1.27545 0.284362 1.37905e-19)
(1.28306 0.276911 7.52669e-20)
(1.27292 0.261671 -3.38734e-20)
(1.25934 0.244469 -1.98221e-20)
(1.24668 0.22731 -4.49006e-20)
(1.23573 0.210777 4.32336e-20)
(1.22631 0.194992 -1.67942e-21)
(1.21812 0.179972 -2.15559e-20)
(1.21089 0.16569 -2.5459e-20)
(1.20443 0.152116 -2.44853e-20)
(1.1986 0.139211 5.10144e-20)
(1.19327 0.126932 -1.73438e-20)
(1.18836 0.115262 -1.88666e-20)
(1.18378 0.10415 -3.2654e-21)
(1.17951 0.0933886 -3.35573e-21)
(1.17549 0.0831403 -1.98129e-20)
(0.195871 0.00898261 -3.87791e-21)
(0.719458 0.135412 -5.1349e-20)
(1.07775 0.247944 2.36956e-20)
(1.23341 0.292854 -8.41536e-20)
(1.27851 0.2988 -5.86921e-20)
(1.27845 0.287378 8.74869e-21)
(1.26537 0.269808 -8.5465e-22)
(1.25087 0.251173 3.85255e-21)
(1.23803 0.233007 1.22101e-20)
(1.2271 0.215703 2.16488e-20)
(1.21779 0.1993 -2.94586e-20)
(1.20974 0.183776 1.258e-20)
(1.20268 0.16908 2.20448e-20)
(1.19639 0.155162 -4.82644e-21)
(1.19073 0.141967 -2.15537e-20)
(1.18558 0.129443 1.2138e-20)
(1.18084 0.117563 1.39625e-20)
(1.17644 0.10624 1.42164e-20)
(1.17234 0.09529 -7.2611e-21)
(1.16844 0.085045 2.62519e-21)
(0.232342 0.0199483 4.33377e-20)
(0.775339 0.165115 -5.98201e-20)
(1.11291 0.274496 -8.13092e-21)
(1.24658 0.312896 3.44241e-20)
(1.27818 0.31285 5.54437e-20)
(1.27201 0.297656 -1.69723e-20)
(1.25682 0.277874 -4.84496e-20)
(1.24179 0.257836 4.80513e-20)
(1.22893 0.238653 -1.29857e-20)
(1.21813 0.220558 -1.49849e-20)
(1.20899 0.203519 1.36702e-20)
(1.20113 0.187479 -6.80852e-21)
(1.19426 0.172359 -1.99511e-21)
(1.18818 0.158091 5.36242e-21)
(1.18272 0.144603 7.73454e-21)
(1.17777 0.131834 9.97036e-21)
(1.17323 0.11974 -1.78701e-20)
(1.16901 0.108209 -4.45403e-21)
(1.16509 0.0970931 -1.11174e-21)
(1.16131 0.0868387 5.43254e-21)
(0.269747 0.0336557 -2.37835e-20)
(0.826224 0.196198 4.15692e-20)
(1.14172 0.301052 -5.14549e-21)
(1.25486 0.332449 -1.10692e-20)
(1.27493 0.326523 -3.60851e-20)
(1.264 0.307751 1.68982e-20)
(1.24739 0.28585 1.10978e-20)
(1.23213 0.264427 -1.22773e-20)
(1.21938 0.244213 -2.01156e-21)
(1.20879 0.225309 5.85786e-21)
(1.19989 0.207622 -6.36604e-21)
(1.19227 0.191057 3.21206e-21)
(1.18565 0.175508 -7.00329e-21)
(1.1798 0.160887 4.02573e-21)
(1.17457 0.147106 8.35229e-22)
(1.16985 0.134093 -3.71197e-21)
(1.16551 0.121787 2.13981e-21)
(1.1615 0.110053 -3.35818e-21)
(1.15775 0.098793 1.10288e-21)
(1.1541 0.0885192 3.95309e-21)
(0.307307 0.049944 -1.70746e-20)
(0.871634 0.228278 3.64007e-20)
(1.16449 0.327448 -3.80275e-21)
(1.25874 0.351467 -1.42346e-20)
(1.26913 0.339815 -3.32227e-20)
(1.25461 0.317651 1.66502e-20)
(1.23714 0.293705 1.08137e-20)
(1.22189 0.270904 -9.69692e-21)
(1.20939 0.249647 -1.11286e-22)
(1.19909 0.229923 4.58595e-21)
(1.19048 0.211579 -4.05002e-21)
(1.18316 0.194484 -1.10853e-21)
(1.17682 0.178505 -2.44987e-21)
(1.17125 0.163532 1.47205e-21)
(1.16628 0.14946 9.56943e-22)
(1.1618 0.136207 -3.78476e-21)
(1.1577 0.123695 4.24412e-21)
(1.1539 0.111768 -4.09868e-21)
(1.15034 0.100382 -1.00355e-21)
(1.14682 0.0900807 2.60272e-21)
(0.344256 0.0685623 4.94331e-20)
(0.911203 0.260954 -4.90841e-20)
(1.18146 0.353497 -3.51239e-20)
(1.25863 0.369898 4.54748e-20)
(1.26106 0.352718 5.16005e-20)
(1.24396 0.327336 -2.09696e-20)
(1.2261 0.301405 -3.46985e-20)
(1.21108 0.277229 3.7974e-20)
(1.19894 0.254921 -1.06014e-20)
(1.18901 0.234369 -1.23818e-20)
(1.18077 0.215364 9.71006e-21)
(1.1738 0.197739 -1.8753e-21)
(1.16779 0.181331 -4.58166e-21)
(1.16253 0.16601 1.47447e-21)
(1.15786 0.151654 7.10227e-21)
(1.15364 0.138168 8.35065e-21)
(1.14979 0.125454 -1.0527e-20)
(1.14623 0.113346 -2.8047e-21)
(1.14288 0.101858 -1.82995e-21)
(1.13947 0.0915213 3.95648e-21)
(0.380059 0.0892853 2.20219e-20)
(0.944999 0.293961 -7.80082e-20)
(1.19311 0.379087 2.16854e-20)
(1.25499 0.387708 -5.63888e-20)
(1.251 0.365199 -6.54769e-20)
(1.23218 0.336755 1.05905e-20)
(1.21431 0.308886 4.1708e-21)
(1.1997 0.283342 -4.20267e-21)
(1.18803 0.259979 1.41008e-20)
(1.17856 0.238599 -5.75936e-22)
(1.17076 0.218937 -9.24451e-21)
(1.16419 0.200788 1.86591e-21)
(1.15856 0.183958 1.81284e-20)
(1.15365 0.168296 -1.54473e-21)
(1.1493 0.153667 -6.2427e-21)
(1.14538 0.139959 -3.6262e-21)
(1.14179 0.127051 1.59687e-20)
(1.13849 0.11477 6.90086e-21)
(1.13537 0.103217 -4.09616e-21)
(1.13205 0.0928488 -4.82166e-21)
(0.414094 0.111869 -4.88757e-20)
(0.972984 0.327011 -9.33131e-21)
(1.19973 0.404057 -6.77092e-20)
(1.24813 0.404833 7.54893e-20)
(1.23914 0.377217 9.35148e-20)
(1.21933 0.345858 3.62198e-20)
(1.20179 0.316096 -6.6449e-21)
(1.18775 0.289195 7.54455e-21)
(1.17666 0.264782 -3.82853e-20)
(1.16774 0.24258 2.75647e-20)
(1.16044 0.222268 -8.37672e-21)
(1.15433 0.203605 -6.42144e-21)
(1.14913 0.186364 -1.75613e-20)
(1.1446 0.170373 -5.36349e-21)
(1.14061 0.155484 8.39811e-21)
(1.13701 0.14157 -5.4963e-21)
(1.13372 0.128477 -7.26174e-21)
(1.13071 0.116032 2.11463e-21)
(1.12778 0.104455 -1.33037e-21)
(1.1246 0.0940556 -1.12162e-20)
(0.445789 0.136049 -7.22193e-20)
(0.995228 0.359831 1.36627e-20)
(1.20167 0.428258 3.2753e-20)
(1.23838 0.421213 -3.56541e-20)
(1.22565 0.388721 -1.28206e-19)
(1.20548 0.354583 1.07149e-20)
(1.18854 0.322971 4.6062e-20)
(1.17524 0.29473 -1.70002e-20)
(1.16484 0.269279 3.67735e-20)
(1.15655 0.246269 -9.75018e-21)
(1.14983 0.225321 2.4602e-20)
(1.14424 0.206159 3.36407e-21)
(1.13952 0.188526 3.58675e-22)
(1.13542 0.17222 -1.48395e-20)