/*--------------------------------*- C++ -*----------------------------------*\
  =========                 |
  \\      /  F ield         | OpenFOAM: The Open Source CFD Toolbox
   \\    /   O peration     | Website:  https://openfoam.org
    \\  /    A nd           | Version:  7
     \\/     M anipulation  |
\*---------------------------------------------------------------------------*/
FoamFile
{
    version     2.0;
    format      ascii;
    class       volScalarField;
    location    "15";
    object      p;
}
// * * * * * * * * * * * * * * * * * * * * * * * * * * * * * * * * * * * * * //

dimensions      [0 2 -2 0 0 0 0];

internalField   nonuniform List<scalar> 
2625
(
-0.0654154
-0.0638806
-0.062341
-0.0607988
-0.0592565
-0.0577162
-0.0561798
-0.0546491
-0.0531259
-0.0516115
-0.0501073
-0.0486144
-0.0471338
-0.0456664
-0.0442128
-0.0427736
-0.0413492
-0.0399399
-0.0385457
-0.0371668
-0.0358031
-0.0344543
-0.0331202
-0.0318006
-0.0304951
-0.0292031
-0.0279245
-0.0266586
-0.0254053
-0.024164
-0.0229348
-0.0217173
-0.0205118
-0.0193184
-0.0181377
-0.0169705
-0.0158178
-0.0146812
-0.0135624
-0.0124646
-0.0113888
-0.0103431
-0.00932133
-0.00835173
-0.00738756
-0.00655116
-0.00559562
-0.00508189
-0.0038252
-0.00440365
-0.00133664
-0.00643722
-0.065411
-0.0638752
-0.0623346
-0.0607917
-0.0592487
-0.0577079
-0.0561711
-0.0546401
-0.0531167
-0.0516022
-0.0500979
-0.0486051
-0.0471246
-0.0456574
-0.0442041
-0.0427652
-0.0413411
-0.0399321
-0.0385384
-0.0371599
-0.0357965
-0.0344482
-0.0331146
-0.0317955
-0.0304904
-0.029199
-0.0279207
-0.0266554
-0.0254025
-0.0241617
-0.0229328
-0.0217158
-0.0205106
-0.0193176
-0.0181371
-0.0169701
-0.0158176
-0.0146812
-0.0135626
-0.0124648
-0.011389
-0.0103434
-0.00932098
-0.00835207
-0.00738557
-0.00655297
-0.00558805
-0.00509182
-0.00379691
-0.00444851
-0.00122282
-0.00652323
-0.0654025
-0.0638646
-0.0623223
-0.0607779
-0.0592337
-0.0576919
-0.0561543
-0.0546228
-0.0530989
-0.0515842
-0.05008
-0.0485872
-0.047107
-0.0456401
-0.0441872
-0.0427489
-0.0413254
-0.0399171
-0.0385241
-0.0371464
-0.035784
-0.0344365
-0.0331038
-0.0317856
-0.0304814
-0.0291909
-0.0279136
-0.0266491
-0.0253971
-0.0241571
-0.022929
-0.0217127
-0.0205083
-0.0193158
-0.018136
-0.0169695
-0.0158174
-0.0146813
-0.0135628
-0.0124652
-0.0113892
-0.0103436
-0.00932057
-0.00835196
-0.00738321
-0.00655306
-0.00558045
-0.00509594
-0.00377397
-0.00446936
-0.00115732
-0.00657371
-0.0653901
-0.0638493
-0.0623045
-0.0607579
-0.059212
-0.0576687
-0.05613
-0.0545977
-0.0530733
-0.0515583
-0.050054
-0.0485614
-0.0470815
-0.0456151
-0.0441629
-0.0427253
-0.0413028
-0.0398955
-0.0385036
-0.0371271
-0.0357658
-0.0344196
-0.0330882
-0.0317713
-0.0304684
-0.0291792
-0.0279033
-0.02664
-0.0253892
-0.0241505
-0.0229236
-0.0217083
-0.0205048
-0.0193133
-0.0181343
-0.0169685
-0.0158169
-0.0146813
-0.0135631
-0.0124656
-0.0113895
-0.0103439
-0.00932
-0.0083515
-0.00738019
-0.00655213
-0.00557148
-0.00509746
-0.00375006
-0.00448219
-0.00110225
-0.00660651
-0.065374
-0.0638294
-0.0622813
-0.0607321
-0.0591839
-0.0576388
-0.0560987
-0.0545654
-0.0530403
-0.0515249
-0.0500205
-0.0485281
-0.0470487
-0.045583
-0.0441316
-0.042695
-0.0412737
-0.0398677
-0.0384772
-0.0371021
-0.0357424
-0.0343979
-0.0330682
-0.0317529
-0.0304518
-0.0291643
-0.0278899
-0.0266284
-0.0253792
-0.0241419
-0.0229165
-0.0217026
-0.0205004
-0.0193101
-0.018132
-0.0169671
-0.0158163
-0.0146812
-0.0135633
-0.0124661
-0.0113899
-0.010344
-0.00931918
-0.00835071
-0.00737635
-0.00655047
-0.0055606
-0.00509785
-0.0037225
-0.0044936
-0.00104186
-0.00663204
-0.0653542
-0.0638051
-0.0622532
-0.0607007
-0.0591498
-0.0576026
-0.0560608
-0.0545262
-0.0530004
-0.0514846
-0.0499801
-0.048488
-0.0470091
-0.0455442
-0.0440938
-0.0426585
-0.0412386
-0.0398341
-0.0384453
-0.0370721
-0.0357143
-0.0343717
-0.033044
-0.0317308
-0.0304316
-0.0291462
-0.0278739
-0.0266143
-0.025367
-0.0241316
-0.0229079
-0.0216956
-0.020495
-0.019306
-0.0181292
-0.0169653
-0.0158154
-0.014681
-0.0135635
-0.0124665
-0.0113901
-0.0103441
-0.00931808
-0.00834952
-0.00737173
-0.00654801
-0.00554802
-0.00509693
-0.00369198
-0.00450271
-0.000978201
-0.00664929
-0.0653308
-0.0637766
-0.0622202
-0.060664
-0.0591101
-0.0575604
-0.0560167
-0.0544808
-0.052954
-0.0514378
-0.0499333
-0.0484415
-0.0469632
-0.0454993
-0.0440501
-0.0426162
-0.0411979
-0.0397953
-0.0384085
-0.0370373
-0.0356817
-0.0343414
-0.0330159
-0.0317051
-0.0304083
-0.0291252
-0.0278552
-0.0265979
-0.0253528
-0.0241195
-0.0228978
-0.0216875
-0.0204885
-0.0193012
-0.0181258
-0.0169631
-0.0158142
-0.0146805
-0.0135635
-0.0124667
-0.0113901
-0.0103439
-0.00931661
-0.00834784
-0.00736633
-0.00654462
-0.00553397
-0.00509438
-0.00365932
-0.00450837
-0.000914078
-0.00665613
-0.0653038
-0.0637439
-0.0621827
-0.0606224
-0.059065
-0.0575126
-0.0559669
-0.0544294
-0.0529017
-0.051385
-0.0498805
-0.0483891
-0.0469116
-0.0454487
-0.0440009
-0.0425686
-0.0411522
-0.0397516
-0.038367
-0.0369982
-0.035645
-0.0343072
-0.0329844
-0.0316762
-0.0303821
-0.0291015
-0.0278341
-0.0265794
-0.0253367
-0.0241058
-0.0228864
-0.0216781
-0.0204812
-0.0192955
-0.0181217
-0.0169604
-0.0158126
-0.0146797
-0.0135633
-0.0124667
-0.0113899
-0.0103434
-0.00931473
-0.00834559
-0.00736015
-0.00654023
-0.00551861
-0.00509001
-0.00362509
-0.00451004
-0.000850751
-0.00665136
-0.0652734
-0.0637073
-0.0621407
-0.0605759
-0.0590149
-0.0574596
-0.0559116
-0.0543726
-0.0528439
-0.0513267
-0.0498221
-0.0483312
-0.0468545
-0.0453928
-0.0439466
-0.0425162
-0.0411018
-0.0397035
-0.0383213
-0.0369551
-0.0356046
-0.0342696
-0.0329496
-0.0316443
-0.0303531
-0.0290754
-0.0278109
-0.0265588
-0.0253189
-0.0240906
-0.0228736
-0.0216677
-0.0204728
-0.0192891
-0.018117
-0.0169572
-0.0158105
-0.0146785
-0.0135627
-0.0124664
-0.0113894
-0.0103424
-0.00931235
-0.00834268
-0.00735318
-0.00653474
-0.00550207
-0.00508368
-0.00358972
-0.00450734
-0.000789047
-0.00663428
-0.0652395
-0.0636668
-0.0620945
-0.060525
-0.0589601
-0.0574016
-0.0558513
-0.0543106
-0.0527808
-0.0512632
-0.0497587
-0.0482682
-0.0467925
-0.0453322
-0.0438876
-0.0424592
-0.041047
-0.0396512
-0.0382717
-0.0369083
-0.0355607
-0.0342287
-0.0329119
-0.0316096
-0.0303215
-0.029047
-0.0277855
-0.0265365
-0.0252994
-0.0240739
-0.0228595
-0.0216561
-0.0204635
-0.0192819
-0.0181116
-0.0169533
-0.015808
-0.0146769
-0.0135617
-0.0124656
-0.0113884
-0.0103409
-0.0093094
-0.008339
-0.00734541
-0.00652805
-0.00548449
-0.00507522
-0.00355363
-0.0044999
-0.000729758
-0.00660432
-0.0652022
-0.0636225
-0.0620443
-0.0604697
-0.0589007
-0.0573391
-0.0557863
-0.0542438
-0.052713
-0.0511949
-0.0496905
-0.0482007
-0.046726
-0.0452672
-0.0438244
-0.0423981
-0.0409884
-0.0395952
-0.0382185
-0.0368581
-0.0355137
-0.0341849
-0.0328714
-0.0315724
-0.0302877
-0.0290164
-0.0277582
-0.0265124
-0.0252784
-0.0240558
-0.0228442
-0.0216434
-0.0204532
-0.0192738
-0.0181055
-0.0169488
-0.0158048
-0.0146747
-0.0135602
-0.0124642
-0.0113869
-0.0103388
-0.00930581
-0.00833447
-0.00733682
-0.00652006
-0.00546599
-0.00506447
-0.00351721
-0.00448738
-0.000673625
-0.00656101
-0.0651616
-0.0635745
-0.0619901
-0.0604104
-0.0588372
-0.0572721
-0.0557168
-0.0541726
-0.0526407
-0.0511222
-0.049618
-0.0481289
-0.0466554
-0.0451981
-0.0437574
-0.0423333
-0.0409262
-0.0395358
-0.0381621
-0.0368049
-0.0354638
-0.0341385
-0.0328283
-0.0315329
-0.0302517
-0.0289839
-0.0277291
-0.0264866
-0.0252558
-0.0240363
-0.0228277
-0.0216296
-0.020442
-0.0192648
-0.0180985
-0.0169435
-0.015801
-0.0146719
-0.013558
-0.0124622
-0.0113847
-0.0103359
-0.00930152
-0.00832899
-0.00732742
-0.00651068
-0.00544669
-0.00505129
-0.00348081
-0.0044695
-0.000621313
-0.006504
-0.0651176
-0.063523
-0.0619322
-0.0603471
-0.0587696
-0.0572012
-0.0556433
-0.0540973
-0.0525644
-0.0510455
-0.0495416
-0.0480532
-0.046581
-0.0451254
-0.0436867
-0.0422651
-0.0408607
-0.0394733
-0.0381028
-0.0367489
-0.0354113
-0.0340895
-0.032783
-0.0314913
-0.0302137
-0.0289496
-0.0276983
-0.0264593
-0.0252319
-0.0240156
-0.02281
-0.0216148
-0.0204298
-0.0192549
-0.0180908
-0.0169375
-0.0157964
-0.0146683
-0.0135552
-0.0124595
-0.0113818
-0.0103323
-0.00929646
-0.00832247
-0.00731719
-0.0064998
-0.00542669
-0.00503552
-0.00344477
-0.00444599
-0.000573418
-0.00643305
-0.0650704
-0.063468
-0.0618707
-0.0602802
-0.0586983
-0.0571264
-0.055566
-0.0540183
-0.0524844
-0.0509652
-0.0494615
-0.047974
-0.0465032
-0.0450494
-0.0436129
-0.0421939
-0.0407923
-0.039408
-0.0380408
-0.0366904
-0.0353564
-0.0340383
-0.0327356
-0.0314477
-0.0301739
-0.0289135
-0.0276659
-0.0264305
-0.0252066
-0.0239936
-0.0227912
-0.0215989
-0.0204166
-0.0192441
-0.0180821
-0.0169306
-0.015791
-0.0146639
-0.0135516
-0.012456
-0.0113782
-0.0103277
-0.00929058
-0.00831482
-0.00730613
-0.00648734
-0.00540612
-0.00501703
-0.00340941
-0.00441662
-0.000530468
-0.00634801
-0.0650199
-0.0634098
-0.0618058
-0.0602098
-0.0586235
-0.0570481
-0.0554852
-0.0539358
-0.0524009
-0.0508815
-0.0493782
-0.0478916
-0.0464222
-0.0449704
-0.0435362
-0.0421199
-0.0407212
-0.0393402
-0.0379764
-0.0366297
-0.0352994
-0.0339851
-0.0326863
-0.0314023
-0.0301324
-0.0288759
-0.0276321
-0.0264004
-0.02518
-0.0239705
-0.0227712
-0.0215819
-0.0204023
-0.0192324
-0.0180725
-0.0169228
-0.0157848
-0.0146587
-0.0135471
-0.0124516
-0.0113737
-0.0103221
-0.00928381
-0.00830597
-0.00729424
-0.00647322
-0.00538507
-0.0049957
-0.003375
-0.00438119
-0.000492932
-0.00624882
-0.0649663
-0.0633483
-0.0617377
-0.0601362
-0.0585454
-0.0569666
-0.0554011
-0.0538501
-0.0523143
-0.0507947
-0.0492919
-0.0478063
-0.0463385
-0.0448887
-0.043457
-0.0420434
-0.0406478
-0.0392701
-0.0379099
-0.0365668
-0.0352404
-0.0339301
-0.0326353
-0.0313553
-0.0300894
-0.0288368
-0.0275969
-0.0263689
-0.0251522
-0.0239461
-0.0227501
-0.0215638
-0.0203871
-0.0192196
-0.018062
-0.0169141
-0.0157776
-0.0146525
-0.0135417
-0.0124462
-0.0113682
-0.0103154
-0.00927613
-0.00829584
-0.00728153
-0.00645734
-0.00536366
-0.00497143
-0.00334183
-0.00433957
-0.000461214
-0.00613552
-0.0649097
-0.0632838
-0.0616665
-0.0600595
-0.0584643
-0.0568821
-0.0553142
-0.0537615
-0.0522249
-0.0507052
-0.0492029
-0.0477185
-0.0462524
-0.0448047
-0.0433754
-0.0419647
-0.0405723
-0.039198
-0.0378415
-0.0365022
-0.0351798
-0.0338735
-0.0325827
-0.0313068
-0.0300449
-0.0287964
-0.0275604
-0.0263363
-0.0251232
-0.0239206
-0.022728
-0.0215447
-0.0203708
-0.0192059
-0.0180505
-0.0169044
-0.0157695
-0.0146453
-0.0135354
-0.0124397
-0.0113618
-0.0103076
-0.00926748
-0.00828436
-0.00726799
-0.00643965
-0.00534198
-0.00494411
-0.00331012
-0.00429164
-0.000435658
-0.0060082
-0.0648502
-0.0632163
-0.0615924
-0.0599799
-0.0583803
-0.0567948
-0.0552245
-0.0536703
-0.052133
-0.0506133
-0.0491116
-0.0476284
-0.046164
-0.0447185
-0.0432919
-0.0418841
-0.040495
-0.0391242
-0.0377714
-0.036436
-0.0351175
-0.0338153
-0.0325287
-0.0312569
-0.0299992
-0.0287547
-0.0275227
-0.0263024
-0.0250931
-0.023894
-0.0227047
-0.0215246
-0.0203535
-0.0191911
-0.0180379
-0.0168937
-0.0157603
-0.0146371
-0.013528
-0.0124321
-0.0113544
-0.0102986
-0.00925784
-0.00827148
-0.00725366
-0.00642009
-0.00532012
-0.00491368
-0.00328011
-0.00423733
-0.000416543
-0.00586707
-0.0647879
-0.0631461
-0.0615156
-0.0598977
-0.0582938
-0.0567051
-0.0551325
-0.0535768
-0.0520388
-0.0505192
-0.0490182
-0.0475363
-0.0460738
-0.0446305
-0.0432066
-0.0418019
-0.0404161
-0.0390489
-0.0376998
-0.0363684
-0.0350539
-0.0337559
-0.0324734
-0.0312058
-0.0299523
-0.0287119
-0.0274839
-0.0262675
-0.0250619
-0.0238664
-0.0226804
-0.0215034
-0.0203351
-0.0191752
-0.0180243
-0.0168819
-0.0157501
-0.0146277
-0.0135195
-0.0124234
-0.0113458
-0.0102884
-0.00924718
-0.00825716
-0.00723853
-0.00639861
-0.00529818
-0.00488009
-0.00325197
-0.00417661
-0.000404085
-0.00571241
-0.0647229
-0.0630733
-0.0614362
-0.0598131
-0.058205
-0.0566131
-0.0550382
-0.0534812
-0.0519427
-0.0504232
-0.048923
-0.0474425
-0.0459818
-0.0445409
-0.0431198
-0.0417181
-0.0403357
-0.0389722
-0.0376269
-0.0362995
-0.0349892
-0.0336953
-0.032417
-0.0311537
-0.0299043
-0.028668
-0.0274441
-0.0262316
-0.0250297
-0.0238377
-0.0226551
-0.0214811
-0.0203157
-0.0191583
-0.0180097
-0.0168689
-0.0157387
-0.0146172
-0.0135099
-0.0124135
-0.0113362
-0.0102768
-0.00923549
-0.00824135
-0.00722264
-0.00637518
-0.00527623
-0.0048433
-0.00322586
-0.0041095
-0.000398438
-0.00554456
-0.0646553
-0.062998
-0.0613546
-0.0597262
-0.0581141
-0.0565191
-0.0549421
-0.0533838
-0.0518448
-0.0503255
-0.0488263
-0.0473472
-0.0458885
-0.04445
-0.0430317
-0.0416332
-0.0402542
-0.0388943
-0.037553
-0.0362295
-0.0349234
-0.0336337
-0.0323597
-0.0311005
-0.0298553
-0.0286232
-0.0274033
-0.0261946
-0.0249965
-0.0238081
-0.0226288
-0.0214578
-0.0202953
-0.0191403
-0.0179939
-0.0168549
-0.0157263
-0.0146056
-0.0134992
-0.0124023
-0.0113254
-0.010264
-0.00922275
-0.00822403
-0.007206
-0.00634978
-0.00525435
-0.0048033
-0.00320193
-0.00403605
-0.000399691
-0.00536394
-0.0645853
-0.0629205
-0.0612707
-0.0596373
-0.0580212
-0.0564233
-0.0548443
-0.0532849
-0.0517455
-0.0502265
-0.0487282
-0.0472507
-0.045794
-0.044358
-0.0429425
-0.0415473
-0.0401718
-0.0388156
-0.0374781
-0.0361587
-0.0348567
-0.0335712
-0.0323014
-0.0310465
-0.0298055
-0.0285775
-0.0273615
-0.0261568
-0.0249624
-0.0237774
-0.0226014
-0.0214336
-0.0202738
-0.0191213
-0.0179771
-0.0168398
-0.0157127
-0.0145927
-0.0134873
-0.0123899
-0.0113134
-0.0102497
-0.00920896
-0.0082052
-0.00718864
-0.00632241
-0.00523261
-0.0047601
-0.00318027
-0.00395637
-0.000407874
-0.00517105
-0.064513
-0.0628408
-0.061185
-0.0595466
-0.0579267
-0.0563259
-0.054745
-0.0531845
-0.0516449
-0.0501263
-0.0486291
-0.0471532
-0.0456986
-0.0442651
-0.0428525
-0.0414605
-0.0400885
-0.038736
-0.0374025
-0.0360871
-0.0347892
-0.033508
-0.0322424
-0.0309917
-0.0297548
-0.0285309
-0.027319
-0.0261181
-0.0249273
-0.0237459
-0.0225732
-0.0214083
-0.0202513
-0.0191011
-0.0179591
-0.0168235
-0.015698
-0.0145787
-0.0134742
-0.0123762
-0.0113003
-0.0102342
-0.00919413
-0.00818484
-0.00717057
-0.00629307
-0.00521107
-0.00471375
-0.00316097
-0.0038706
-0.000422957
-0.00496642
-0.0644387
-0.0627592
-0.0610975
-0.0594543
-0.0578307
-0.0562272
-0.0546446
-0.0530831
-0.0515433
-0.0500252
-0.0485291
-0.0470549
-0.0456024
-0.0441715
-0.0427619
-0.0413731
-0.0400046
-0.0386559
-0.0373263
-0.036015
-0.0347212
-0.0334441
-0.0321828
-0.0309362
-0.0297035
-0.0284837
-0.0272757
-0.0260785
-0.0248915
-0.0237135
-0.022544
-0.021382
-0.0202278
-0.01908
-0.0179401
-0.016806
-0.0156821
-0.0145634
-0.0134599
-0.0123613
-0.0112861
-0.0102172
-0.00917827
-0.00816297
-0.00715184
-0.00626179
-0.00518977
-0.0046643
-0.00314406
-0.00377892
-0.000444851
-0.00475067
-0.0643624
-0.0626759
-0.0610084
-0.0593606
-0.0577334
-0.0561274
-0.0545431
-0.0529808
-0.0514409
-0.0499234
-0.0484285
-0.046956
-0.0455057
-0.0440774
-0.0426708
-0.0412852
-0.0399203
-0.0385753
-0.0372496
-0.0359423
-0.0346527
-0.0333798
-0.0321226
-0.0308802
-0.0296516
-0.0284357
-0.0272316
-0.0260383
-0.0248548
-0.0236802
-0.0225139
-0.0213548
-0.0202032
-0.0190577
-0.01792
-0.0167875
-0.015665
-0.0145469
-0.0134445
-0.0123451
-0.0112707
-0.010199
-0.00916138
-0.0081396
-0.00713246
-0.00622861
-0.00516875
-0.00461182
-0.00312957
-0.00368154
-0.000473416
-0.00452444
-0.0642843
-0.062591
-0.0609179
-0.0592657
-0.0576351
-0.0560267
-0.0544408
-0.0528779
-0.0513379
-0.0498211
-0.0483274
-0.0468567
-0.0454086
-0.043983
-0.0425793
-0.0411971
-0.0398357
-0.0384945
-0.0371726
-0.0358694
-0.0345838
-0.033315
-0.032062
-0.0308237
-0.0295991
-0.0283872
-0.027187
-0.0259973
-0.0248174
-0.0236461
-0.0224829
-0.0213267
-0.0201777
-0.0190345
-0.0178988
-0.0167678
-0.0156468
-0.0145293
-0.0134278
-0.0123276
-0.0112541
-0.0101793
-0.0091435
-0.00811476
-0.00711247
-0.00619357
-0.00514804
-0.00455643
-0.00311748
-0.00357872
-0.000508461
-0.00428844
-0.0642047
-0.0625048
-0.0608262
-0.0591698
-0.057536
-0.0559253
-0.054338
-0.0527744
-0.0512345
-0.0497185
-0.0482261
-0.0467572
-0.0453114
-0.0438884
-0.0424878
-0.0411088
-0.0397509
-0.0384134
-0.0370955
-0.0357962
-0.0345147
-0.0332499
-0.032001
-0.0307668
-0.0295462
-0.0283382
-0.0271418
-0.0259557
-0.0247793
-0.0236112
-0.0224511
-0.0212977
-0.0201513
-0.0190102
-0.0178766
-0.016747
-0.0156275
-0.0145104
-0.01341
-0.0123088
-0.0112364
-0.0101584
-0.00912463
-0.00808849
-0.0070919
-0.00615674
-0.00512767
-0.00449824
-0.00310778
-0.00347075
-0.000549747
-0.0040434
-0.0641236
-0.0624173
-0.0607336
-0.0590731
-0.0574362
-0.0558233
-0.0542348
-0.0526706
-0.051131
-0.0496157
-0.0481247
-0.0466576
-0.0452142
-0.0437939
-0.0423962
-0.0410205
-0.0396662
-0.0383324
-0.0370182
-0.0357229
-0.0344454
-0.0331847
-0.0319398
-0.0307096
-0.0294929
-0.0282888
-0.027096
-0.0259136
-0.0247405
-0.0235757
-0.0224185
-0.0212678
-0.020124
-0.018985
-0.0178534
-0.0167251
-0.0156071
-0.0144904
-0.0133911
-0.0122889
-0.0112176
-0.0101363
-0.00910482
-0.00806084
-0.00707076
-0.00611819
-0.00510765
-0.00443739
-0.00310039
-0.00335794
-0.000596995
-0.00379007
-0.0640412
-0.0623288
-0.0606401
-0.0589757
-0.0573359
-0.0557211
-0.0541313
-0.0525668
-0.0510274
-0.049513
-0.0480234
-0.0465582
-0.0451171
-0.0436995
-0.0423048
-0.0409324
-0.0395816
-0.0382514
-0.0369411
-0.0356496
-0.0343761
-0.0331193
-0.0318784
-0.0306521
-0.0294393
-0.0282389
-0.0270499
-0.0258709
-0.0247011
-0.0235394
-0.0223852
-0.0212372
-0.0200958
-0.0189589
-0.0178291
-0.0167022
-0.0155857
-0.0144693
-0.0133711
-0.0122678
-0.0111977
-0.0101128
-0.00908409
-0.00803186
-0.0070491
-0.006078
-0.00508799
-0.00437404
-0.00309524
-0.00324062
-0.000649889
-0.00352925
-0.0639578
-0.0622395
-0.060546
-0.0588779
-0.0572353
-0.0556186
-0.0540278
-0.052463
-0.0509239
-0.0494105
-0.0479223
-0.0464591
-0.0450203
-0.0436054
-0.0422137
-0.0408446
-0.0394972
-0.0381706
-0.036864
-0.0355764
-0.0343068
-0.033054
-0.0318169
-0.0305945
-0.0293855
-0.0281888
-0.0270033
-0.0258277
-0.0246612
-0.0235026
-0.0223512
-0.0212057
-0.0200667
-0.0189318
-0.017804
-0.0166783
-0.0155632
-0.0144471
-0.01335
-0.0122455
-0.0111768
-0.0100883
-0.00906247
-0.00800162
-0.00702693
-0.00603627
-0.00506867
-0.00430835
-0.00309223
-0.00311916
-0.00070808
-0.00326173
-0.0638734
-0.0621494
-0.0604514
-0.0587798
-0.0571346
-0.0555162
-0.0539245
-0.0523594
-0.0508208
-0.0493083
-0.0478216
-0.0463604
-0.0449239
-0.0435117
-0.042123
-0.0407571
-0.0394131
-0.0380902
-0.0367873
-0.0355035
-0.0342376
-0.0329887
-0.0317554
-0.0305368
-0.0293315
-0.0281384
-0.0269564
-0.0257842
-0.0246208
-0.0234651
-0.0223166
-0.0211736
-0.0200369
-0.0189039
-0.0177779
-0.0166534
-0.0155397
-0.0144238
-0.0133279
-0.0122221
-0.0111549
-0.0100625
-0.00904001
-0.00797018
-0.00700429
-0.00599311
-0.00504969
-0.0042405
-0.00309125
-0.00299393
-0.000771195
-0.00298832
-0.0637884
-0.0620589
-0.0603566
-0.0586815
-0.057034
-0.055414
-0.0538214
-0.0522562
-0.050718
-0.0492066
-0.0477215
-0.0462622
-0.0448281
-0.0434186
-0.0420329
-0.0406702
-0.0393296
-0.0380101
-0.0367109
-0.0354308
-0.0341687
-0.0329235
-0.031694
-0.0304791
-0.0292774
-0.0280879
-0.0269092
-0.0257402
-0.02458
-0.0234272
-0.0222813
-0.0211408
-0.0200063
-0.0188752
-0.0177509
-0.0166276
-0.0155152
-0.0143996
-0.0133048
-0.0121977
-0.0111321
-0.0100357
-0.00901675
-0.00793761
-0.00698119
-0.00594861
-0.00503104
-0.0041707
-0.00309217
-0.00286531
-0.000838834
-0.00270984
-0.0637027
-0.061968
-0.0602615
-0.0585833
-0.0569335
-0.055312
-0.0537188
-0.0521535
-0.0506159
-0.0491056
-0.047622
-0.0461647
-0.044733
-0.0433262
-0.0419434
-0.0405838
-0.0392465
-0.0379306
-0.0366349
-0.0353585
-0.0341001
-0.0328586
-0.0316328
-0.0304214
-0.0292233
-0.0280372
-0.0268618
-0.025696
-0.0245388
-0.0233888
-0.0222455
-0.0211073
-0.019975
-0.0188457
-0.0177232
-0.016601
-0.0154899
-0.0143744
-0.0132807
-0.0121723
-0.0111083
-0.0100079
-0.00899272
-0.007904
-0.00695767
-0.00590291
-0.00501268
-0.00409913
-0.00309483
-0.0027337
-0.000910584
-0.00242709
-0.0636166
-0.061877
-0.0601665
-0.0584853
-0.0568334
-0.0552106
-0.0536167
-0.0520515
-0.0505145
-0.0490053
-0.0475234
-0.046068
-0.0446387
-0.0432345
-0.0418546
-0.0404981
-0.0391642
-0.0378516
-0.0365595
-0.0352866
-0.0340318
-0.0327939
-0.0315717
-0.0303639
-0.0291692
-0.0279864
-0.0268143
-0.0256516
-0.0244972
-0.0233499
-0.0222092
-0.0210733
-0.0199431
-0.0188155
-0.0176947
-0.0165735
-0.0154637
-0.0143483
-0.0132558
-0.012146
-0.0110837
-0.00997921
-0.00896796
-0.00786943
-0.00693375
-0.0058561
-0.0049946
-0.004026
-0.0030991
-0.00259951
-0.000986019
-0.00214086
-0.0635302
-0.0617859
-0.0600717
-0.0583877
-0.0567338
-0.0551097
-0.0535153
-0.0519502
-0.0504139
-0.0489059
-0.0474255
-0.0459722
-0.0445452
-0.0431436
-0.0417666
-0.0404133
-0.0390825
-0.0377733
-0.0364847
-0.0352153
-0.033964
-0.0327296
-0.0315109
-0.0303065
-0.0291152
-0.0279356
-0.0267667
-0.0256069
-0.0244554
-0.0233107
-0.0221725
-0.0210387
-0.0199106
-0.0187846
-0.0176654
-0.0165452
-0.0154367
-0.0143213
-0.0132301
-0.0121188
-0.0110583
-0.0099496
-0.00894254
-0.00783399
-0.00690945
-0.00580832
-0.00497677
-0.00395153
-0.0031048
-0.00246315
-0.0010647
-0.00185195
-0.0634437
-0.0616949
-0.0599771
-0.0582905
-0.0566347
-0.0550096
-0.0534148
-0.0518498
-0.0503142
-0.0488074
-0.0473287
-0.0458774
-0.0444527
-0.0430537
-0.0416796
-0.0403292
-0.0390017
-0.0376958
-0.0364105
-0.0351445
-0.0338967
-0.0326658
-0.0314504
-0.0302494
-0.0290613
-0.0278849
-0.026719
-0.0255621
-0.0244134
-0.0232712
-0.0221353
-0.0210037
-0.0198775
-0.0187532
-0.0176355
-0.0165163
-0.015409
-0.0142936
-0.0132035
-0.0120908
-0.0110321
-0.00991918
-0.00891647
-0.00779775
-0.00688479
-0.0057597
-0.00495914
-0.00387593
-0.00311178
-0.00232501
-0.0011462
-0.00156112
-0.0633572
-0.0616041
-0.059883
-0.0581939
-0.0565364
-0.0549103
-0.0533151
-0.0517504
-0.0502156
-0.04871
-0.047233
-0.0457837
-0.0443613
-0.0429649
-0.0415935
-0.0402461
-0.0389217
-0.037619
-0.036337
-0.0350744
-0.0338299
-0.0326024
-0.0313903
-0.0301925
-0.0290077
-0.0278343
-0.0266713
-0.0255173
-0.0243711
-0.0232314
-0.0220979
-0.0209682
-0.019844
-0.0187211
-0.017605
-0.0164866
-0.0153806
-0.0142652
-0.0131762
-0.0120621
-0.0110053
-0.00988804
-0.00888982
-0.00776081
-0.0068598
-0.00571035
-0.00494169
-0.0037994
-0.00311985
-0.0021855
-0.00123008
-0.00126911
-0.0632709
-0.0615137
-0.0597894
-0.058098
-0.0564389
-0.0548119
-0.0532165
-0.0516521
-0.0501181
-0.0486138
-0.0471384
-0.0456911
-0.044271
-0.0428771
-0.0415085
-0.040164
-0.0388426
-0.0375432
-0.0362644
-0.035005
-0.0337638
-0.0325395
-0.0313307
-0.030136
-0.0289542
-0.0277839
-0.0266237
-0.0254724
-0.0243288
-0.0231915
-0.0220601
-0.0209324
-0.01981
-0.0186886
-0.017574
-0.0164564
-0.0153515
-0.0142361
-0.0131483
-0.0120326
-0.0109777
-0.00985625
-0.00886263
-0.00772327
-0.0068345
-0.0056604
-0.00492437
-0.00372216
-0.00312886
-0.002045
-0.0013159
-0.000976639
-0.0631849
-0.0614238
-0.0596965
-0.0580029
-0.0563424
-0.0547146
-0.053119
-0.051555
-0.0500218
-0.0485188
-0.047045
-0.0455997
-0.0441819
-0.0427905
-0.0414246
-0.040083
-0.0387646
-0.0374682
-0.0361925
-0.0349364
-0.0336984
-0.0324772
-0.0312715
-0.0300799
-0.0289011
-0.0277336
-0.0265762
-0.0254275
-0.0242864
-0.0231513
-0.0220221
-0.0208963
-0.0197757
-0.0186557
-0.0175424
-0.0164257
-0.0153219
-0.0142064
-0.0131198
-0.0120026
-0.0109496
-0.00982387
-0.00883494
-0.00768519
-0.0068089
-0.00560998
-0.00490715
-0.00364441
-0.00313863
-0.0019039
-0.00140324
-0.00068439
-0.0630992
-0.0613344
-0.0596044
-0.0579087
-0.0562469
-0.0546184
-0.0530227
-0.0514591
-0.0499268
-0.0484251
-0.046953
-0.0455096
-0.044094
-0.0427051
-0.0413418
-0.0400031
-0.0386876
-0.0373942
-0.0361216
-0.0348685
-0.0336336
-0.0324155
-0.0312129
-0.0300243
-0.0288483
-0.0276836
-0.0265289
-0.0253827
-0.024244
-0.0231111
-0.0219839
-0.02086
-0.019741
-0.0186224
-0.0175104
-0.0163945
-0.0152918
-0.0141762
-0.0130907
-0.011972
-0.010921
-0.00979098
-0.00880681
-0.00764669
-0.00678304
-0.00555921
-0.00488999
-0.00356635
-0.00314899
-0.00176257
-0.00149168
-0.000393018
-0.063014
-0.0612458
-0.0595131
-0.0578155
-0.0561525
-0.0545234
-0.0529277
-0.0513645
-0.0498331
-0.0483327
-0.0468623
-0.0454208
-0.0440074
-0.042621
-0.0412603
-0.0399243
-0.0386117
-0.0373212
-0.0360516
-0.0348015
-0.0335696
-0.0323545
-0.0311548
-0.0299691
-0.0287959
-0.0276339
-0.0264818
-0.025338
-0.0242016
-0.0230708
-0.0219456
-0.0208234
-0.0197061
-0.0185887
-0.0174781
-0.0163628
-0.0152612
-0.0141455
-0.0130611
-0.011941
-0.0108919
-0.00975765
-0.00877826
-0.00760783
-0.00675692
-0.0055082
-0.00487286
-0.00348818
-0.00315977
-0.00162137
-0.00158084
-0.000103142
-0.0629295
-0.0611579
-0.0594228
-0.0577234
-0.0560593
-0.0544297
-0.052834
-0.0512713
-0.0497409
-0.0482417
-0.0467729
-0.0453335
-0.0439222
-0.0425382
-0.04118
-0.0398467
-0.0385369
-0.0372493
-0.0359826
-0.0347354
-0.0335064
-0.0322942
-0.0310974
-0.0299144
-0.028744
-0.0275846
-0.0264349
-0.0252934
-0.0241593
-0.0230305
-0.0219072
-0.0207867
-0.0196709
-0.0185548
-0.0174454
-0.0163308
-0.0152302
-0.0141144
-0.0130311
-0.0119095
-0.0108623
-0.00972395
-0.00874935
-0.0075687
-0.00673057
-0.00545708
-0.0048557
-0.00341009
-0.00317083
-0.00148063
-0.00167032
0.000184655
-0.0628456
-0.061071
-0.0593335
-0.0576324
-0.0559673
-0.0543373
-0.0527417
-0.0511796
-0.0496501
-0.0481523
-0.0466851
-0.0452475
-0.0438384
-0.0424567
-0.0411011
-0.0397703
-0.0384632
-0.0371784
-0.0359145
-0.0346702
-0.0334441
-0.0322347
-0.0310406
-0.0298603
-0.0286925
-0.0275356
-0.0263883
-0.0252491
-0.0241171
-0.0229903
-0.0218688
-0.0207499
-0.0196356
-0.0185207
-0.0174124
-0.0162985
-0.0151989
-0.0140829
-0.0130007
-0.0118777
-0.0108324
-0.00968996
-0.00872013
-0.00752939
-0.00670401
-0.00540594
-0.0048385
-0.00333226
-0.003182
-0.00134067
-0.00175975
0.000469827
-0.0627625
-0.060985
-0.0592452
-0.0575427
-0.0558767
-0.0542463
-0.0526508
-0.0510893
-0.0495608
-0.0480643
-0.0465987
-0.045163
-0.0437561
-0.0423766
-0.0410234
-0.0396952
-0.0383908
-0.0371087
-0.0358475
-0.034606
-0.0333826
-0.0321759
-0.0309845
-0.0298068
-0.0286415
-0.027487
-0.026342
-0.025205
-0.024075
-0.0229501
-0.0218304
-0.020713
-0.0196002
-0.0184864
-0.0173793
-0.0162659
-0.0151673
-0.0140512
-0.01297
-0.0118455
-0.0108022
-0.00965574
-0.00869063
-0.00748997
-0.00667725
-0.0053549
-0.00482121
-0.00325485
-0.00319315
-0.0012018
-0.0018488
0.000751867
-0.0626803
-0.0609
-0.0591582
-0.0574543
-0.0557874
-0.0541568
-0.0525614
-0.0510005
-0.049473
-0.0479778
-0.0465139
-0.04508
-0.0436751
-0.0422979
-0.0409471
-0.0396214
-0.0383195
-0.0370401
-0.0357816
-0.0345427
-0.033322
-0.032118
-0.0309291
-0.029754
-0.0285911
-0.0274389
-0.0262962
-0.0251612
-0.0240332
-0.0229101
-0.0217921
-0.0206761
-0.0195647
-0.0184519
-0.0173459
-0.0162332
-0.0151354
-0.0140192
-0.012939
-0.0118132
-0.0107717
-0.00962134
-0.00866089
-0.00745052
-0.00665033
-0.00530405
-0.00480381
-0.00317803
-0.00320413
-0.0010643
-0.00193712
0.0010303
-0.062599
-0.0608161
-0.0590724
-0.0573672
-0.0556996
-0.0540687
-0.0524736
-0.0509133
-0.0493868
-0.0478929
-0.0464306
-0.0449986
-0.0435957
-0.0422206
-0.0408722
-0.0395489
-0.0382496
-0.0369726
-0.0357168
-0.0344805
-0.0332624
-0.0320608
-0.0308745
-0.0297018
-0.0285412
-0.0273913
-0.0262507
-0.0251178
-0.0239916
-0.0228703
-0.0217538
-0.0206393
-0.0195292
-0.0184174
-0.0173125
-0.0162003
-0.0151034
-0.0139871
-0.0129078
-0.0117807
-0.010741
-0.00958685
-0.00863096
-0.0074111
-0.00662325
-0.0052535
-0.00478628
-0.00310194
-0.00321482
-0.000928444
-0.00202442
0.00130471
-0.0625187
-0.0607333
-0.0589879
-0.0572814
-0.0556132
-0.0539821
-0.0523873
-0.0508277
-0.0493022
-0.0478096
-0.0463488
-0.0449186
-0.0435177
-0.0421448
-0.0407986
-0.0394778
-0.0381808
-0.0369064
-0.035653
-0.0344193
-0.0332036
-0.0320046
-0.0308206
-0.0296502
-0.0284919
-0.0273442
-0.0262056
-0.0250746
-0.0239503
-0.0228306
-0.0217157
-0.0206026
-0.0194937
-0.0183829
-0.017279
-0.0161673
-0.0150712
-0.0139548
-0.0128764
-0.0117481
-0.0107101
-0.00955231
-0.00860089
-0.0073718
-0.00659604
-0.00520333
-0.00476858
-0.00302674
-0.00322511
-0.000794468
-0.00211041
0.00157468
-0.0624394
-0.0606518
-0.0589046
-0.0571971
-0.0555283
-0.0538971
-0.0523026
-0.0507437
-0.0492192
-0.0477279
-0.0462687
-0.0448402
-0.0434413
-0.0420705
-0.0407265
-0.0394079
-0.0381134
-0.0368414
-0.0355904
-0.0343591
-0.0331459
-0.0319492
-0.0307676
-0.0295994
-0.0284433
-0.0272976
-0.0261611
-0.0250319
-0.0239093
-0.0227912
-0.0216778
-0.0205659
-0.0194582
-0.0183485
-0.0172455
-0.0161343
-0.015039
-0.0139224
-0.0128449
-0.0117154
-0.0106791
-0.00951779
-0.00857069
-0.00733266
-0.00656871
-0.00515362
-0.00475069
-0.00295253
-0.00323488
-0.000662595
-0.00219483
0.00183988
-0.0623613
-0.0605715
-0.0588228
-0.0571142
-0.0554449
-0.0538137
-0.0522195
-0.0506613
-0.0491378
-0.0476478
-0.0461901
-0.0447634
-0.0433664
-0.0419976
-0.0406558
-0.0393395
-0.0380472
-0.0367775
-0.0355289
-0.0343
-0.0330891
-0.0318947
-0.0307153
-0.0295493
-0.0283953
-0.0272516
-0.026117
-0.0249896
-0.0238687
-0.0227521
-0.0216401
-0.0205295
-0.0194229
-0.0183141
-0.017212
-0.0161013
-0.0150067
-0.01389
-0.0128134
-0.0116827
-0.010648
-0.00948332
-0.00854042
-0.00729375
-0.00654129
-0.00510444
-0.00473259
-0.00287945
-0.00324403
-0.00053303
-0.00227744
0.00209997
-0.0622843
-0.0604925
-0.0587423
-0.0570329
-0.0553631
-0.0537318
-0.0521381
-0.0505805
-0.0490581
-0.0475694
-0.0461132
-0.0446882
-0.043293
-0.0419262
-0.0405865
-0.0392723
-0.0379823
-0.0367149
-0.0354686
-0.0342419
-0.0330333
-0.0318411
-0.0306639
-0.0295
-0.028348
-0.0272062
-0.0260734
-0.0249478
-0.0238284
-0.0227134
-0.0216027
-0.0204932
-0.0193878
-0.0182798
-0.0171785
-0.0160683
-0.0149744
-0.0138577
-0.0127818
-0.01165
-0.0106169
-0.00944897
-0.00851009
-0.00725512
-0.00651379
-0.00505587
-0.00471427
-0.0028076
-0.00325248
-0.000405954
-0.00235802
0.00235468
-0.0622085
-0.0604147
-0.0586633
-0.056953
-0.0552828
-0.0536516
-0.0520582
-0.0505014
-0.04898
-0.0474925
-0.0460378
-0.0446145
-0.0432211
-0.0418563
-0.0405186
-0.0392066
-0.0379187
-0.0366535
-0.0354094
-0.0341849
-0.0329785
-0.0317884
-0.0306133
-0.0294515
-0.0283014
)
;

boundaryField
{
    inlet
    {
        type            zeroGradient;
    }
    outlet
    {
        type            fixedValue;
        value           uniform 0;
    }
    cylinder