/*--------------------------------*- C++ -*----------------------------------*\
  =========                 |
  \\      /  F ield         | OpenFOAM: The Open Source CFD Toolbox
   \\    /   O peration     | Website:  https://openfoam.org
    \\  /    A nd           | Version:  7
     \\/     M anipulation  |
\*---------------------------------------------------------------------------*/
FoamFile
{
    version     2.0;
    format      ascii;
    class       volVectorField;
    location    "20";
    object      U;
}
// * * * * * * * * * * * * * * * * * * * * * * * * * * * * * * * * * * * * * //

dimensions      [0 1 -1 0 0 0 0];

internalField   nonuniform List<vector> 
2625
(
(1.12284 0.0525465 8.31533e-21)
(1.11832 0.0533667 -1.92052e-21)
(1.11896 0.0716777 -2.02809e-20)
(1.11383 0.054168 -5.19997e-20)
(1.10938 0.0549459 -8.60698e-21)
(1.10496 0.0556956 6.06023e-20)
(1.10059 0.0564125 9.67573e-21)
(1.09626 0.0570923 -6.34275e-20)
(1.09199 0.0577305 -5.49964e-21)
(1.08777 0.0583231 4.49893e-20)
(1.08361 0.058866 -1.05599e-20)
(1.07951 0.0593556 3.86758e-21)
(1.07549 0.0597884 9.46413e-20)
(1.05984 0.0516037 1.29367e-19)
(1.06337 0.0512378 1.37842e-19)
(1.06699 0.0508157 -9.64551e-20)
(1.07068 0.0503406 -1.20711e-19)
(1.07445 0.0498163 1.03287e-19)
(1.07829 0.0492464 2.74922e-21)
(1.0822 0.0486349 4.68861e-20)
(1.08619 0.047986 -1.03526e-21)
(1.09024 0.0473041 1.74241e-20)
(1.09435 0.0465936 4.43368e-20)
(1.09853 0.0458589 -9.62264e-21)
(1.10276 0.0451047 5.9534e-20)
(1.10704 0.0443354 -1.25308e-20)
(1.11137 0.0435556 -5.99746e-21)
(1.11574 0.0427697 1.728e-20)
(1.12015 0.0419819 -1.13808e-20)
(1.05982 0.0506863 -5.8699e-20)
(1.06334 0.0503301 1.38931e-20)
(1.06694 0.0499194 6.8014e-20)
(1.07061 0.0494575 5.18427e-20)
(1.07436 0.0489478 -3.1494e-20)
(1.07819 0.048394 -1.93173e-20)
(1.08209 0.0477997 -1.43539e-20)
(1.08607 0.0471692 -9.78938e-21)
(1.09011 0.0465065 2.5809e-20)
(1.09421 0.0458159 -1.15695e-20)
(1.09838 0.0451018 4.80495e-20)
(1.1026 0.0443685 -3.24278e-20)
(1.10688 0.0436205 9.29166e-22)
(1.11121 0.0428621 2.20088e-20)
(1.11558 0.0420976 -2.21017e-20)
(1.11999 0.0413311 6.31009e-21)
(1.05641 0.0500999 -5.09946e-20)
(1.05982 0.049806 -6.65107e-20)
(1.06332 0.0494568 -1.20774e-19)
(1.06689 0.049055 1.06291e-20)
(1.07055 0.0486037 -5.00061e-20)
(1.07429 0.0481062 -4.73182e-20)
(1.0781 0.047566 2.90991e-20)
(1.08199 0.0469868 -1.55181e-20)
(1.08596 0.0463723 -1.14061e-21)
(1.08999 0.0457268 -4.70308e-20)
(1.09408 0.0450541 -2.98416e-20)
(1.09824 0.0443587 -2.36672e-20)
(1.10246 0.0436446 1.63558e-21)
(1.10673 0.0429161 -1.96721e-20)
(1.11105 0.0421775 -2.77521e-20)
(1.11542 0.0414329 1.90537e-20)
(1.11983 0.0406862 -2.23401e-20)
(1.05645 0.0492269 -1.6561e-20)
(1.05984 0.0489365 1.86951e-20)
(1.06331 0.0485929 1.38812e-19)
(1.06687 0.0481987 -4.34062e-20)
(1.07051 0.0477568 4.26548e-20)
(1.07423 0.0472703 1.40567e-20)
(1.07803 0.0467427 -3.13348e-20)
(1.08191 0.0461773 -1.19522e-20)
(1.08586 0.045578 -2.72911e-20)
(1.08988 0.0449486 5.63424e-21)
(1.09397 0.0442931 1.4924e-20)
(1.09812 0.0436155 4.52188e-21)
(1.10233 0.0429198 1.79858e-20)
(1.10659 0.0422103 2.55679e-20)
(1.11091 0.0414909 -5.49519e-21)
(1.11527 0.0407656 -1.07892e-20)
(1.11967 0.0400382 1.13664e-20)
(1.05651 0.0483651 -2.97774e-20)
(1.05988 0.0480769 3.37991e-20)
(1.06333 0.0477377 -4.14345e-20)
(1.06687 0.0473498 -1.79877e-20)
(1.07049 0.0469162 -2.7876e-20)
(1.0742 0.0464397 4.00983e-20)
(1.07798 0.0459235 2.73275e-20)
(1.08184 0.0453711 -6.27548e-22)
(1.08578 0.044786 5.37997e-20)
(1.08978 0.0441719 2.12951e-20)
(1.09386 0.0435327 -5.62019e-21)
(1.098 0.0428722 -2.51632e-20)
(1.1022 0.0421944 -2.58694e-20)
(1.10646 0.0415032 6.81369e-21)
(1.11077 0.0408024 4.76437e-21)
(1.11513 0.040096 1.90574e-20)
(1.11953 0.0393876 1.03992e-20)
(1.05334 0.0477522 -1.36579e-20)
(1.0566 0.0475161 2.92128e-20)
(1.05994 0.0472289 1.14398e-20)
(1.06337 0.0468929 -1.92084e-20)
(1.06689 0.0465103 1.89599e-20)
(1.07049 0.0460837 -5.43883e-21)
(1.07418 0.045616 2.85724e-20)
(1.07794 0.0451103 -4.37661e-20)
(1.08179 0.0445698 1.43386e-20)
(1.08571 0.043998 -5.67679e-20)
(1.0897 0.0433983 -4.23052e-20)
(1.09377 0.0427746 3.06513e-20)
(1.0979 0.0421304 4.13285e-20)
(1.10209 0.0414696 2.71852e-21)
(1.10634 0.0407961 1.67182e-20)
(1.11064 0.0401134 -2.48014e-21)
(1.11499 0.0394254 -1.38653e-20)
(1.11938 0.0387354 4.40655e-21)
(1.05347 0.0469171 -9.08253e-20)
(1.0567 0.0466788 4.81268e-20)
(1.06002 0.0463917 -2.2087e-20)
(1.06343 0.0460578 3.53666e-20)
(1.06692 0.0456794 1.35489e-20)
(1.0705 0.045259 3.28739e-20)
(1.07417 0.0447992 -3.49502e-20)
(1.07792 0.044303 2.13955e-20)
(1.08175 0.0437735 1.70422e-20)
(1.08565 0.0432139 9.73959e-21)
(1.08963 0.0426279 4.16148e-20)
(1.09368 0.0420187 -3.14002e-20)
(1.0978 0.0413902 -2.58669e-20)
(1.10198 0.0407458 2.30094e-20)
(1.10622 0.0400892 -2.11742e-20)
(1.11052 0.039424 3.57707e-20)
(1.11486 0.0387538 -1.49077e-21)
(1.11925 0.0380818 -1.57301e-20)
(1.0505 0.0462862 -2.76622e-20)
(1.05361 0.0460927 1.07586e-19)
(1.05682 0.0458513 -8.74161e-20)
(1.06011 0.0455636 1.86815e-20)
(1.0635 0.0452312 -2.44004e-20)
(1.06697 0.0448562 -7.0408e-21)
(1.07053 0.044441 -6.0124e-20)
(1.07418 0.0439883 -3.67507e-20)
(1.07791 0.0435007 6.85879e-21)
(1.08172 0.0429814 1.6351e-20)
(1.08561 0.0424334 3.88495e-21)
(1.08957 0.0418601 -1.18276e-20)
(1.09361 0.0412649 -4.70492e-21)
(1.09772 0.0406513 5.58866e-21)
(1.10189 0.0400226 -5.16342e-21)
(1.10612 0.0393824 -2.14521e-21)
(1.1104 0.0387341 -3.18033e-20)
(1.11474 0.0380812 -3.61796e-21)
(1.11912 0.0374267 -1.38111e-20)
(1.05067 0.0454764 -6.42223e-20)
(1.05376 0.0452771 -8.37092e-20)
(1.05694 0.0450324 8.92647e-20)
(1.06022 0.0447434 3.08225e-21)
(1.06358 0.0444118 4.81272e-20)
(1.06703 0.0440396 -3.77886e-20)
(1.07057 0.0436291 6.44432e-20)
(1.0742 0.0431827 6.0827e-20)
(1.07791 0.0427031 -1.18083e-20)
(1.0817 0.0421932 -2.52092e-20)
(1.08558 0.0416561 1.55552e-20)
(1.08953 0.0410949 -7.11177e-21)
(1.09355 0.0405129 2.61892e-20)
(1.09764 0.0399135 -3.44314e-21)
(1.1018 0.0392999 -4.00027e-21)
(1.10602 0.0386756 2.55201e-20)
(1.1103 0.0380437 -2.48165e-21)
(1.11462 0.0374075 -1.30947e-20)
(1.11899 0.0367701 1.76253e-20)
(1.04789 0.0448355 5.458e-20)
(1.05087 0.0446742 1.04928e-20)
(1.05393 0.0444691 6.90158e-20)
(1.05709 0.0442207 4.381e-21)
(1.06034 0.0439301 1.44039e-20)
(1.06368 0.0435989 -5.32605e-20)
(1.06711 0.043229 3.16149e-20)
(1.07063 0.0428225 -2.88255e-20)
(1.07423 0.0423818 -6.91225e-20)
(1.07793 0.0419095 2.7712e-20)
(1.0817 0.0414085 -3.52634e-20)
(1.08556 0.0408816 -1.9143e-20)
(1.08949 0.0403319 4.48458e-20)
(1.0935 0.0397626 -1.02361e-20)
(1.09758 0.0391768 -2.16273e-20)
(1.10172 0.0385778 -2.27186e-20)
(1.10593 0.0379687 -4.84465e-20)
(1.1102 0.0373527 1.57772e-20)
(1.11451 0.0367328 1.17624e-20)
(1.11888 0.0361121 -9.67983e-21)
(1.04812 0.0440475 6.85963e-20)
(1.05106 0.0438782 6.64859e-20)
(1.0541 0.0436673 -4.8973e-20)
(1.05724 0.0434151 1.28365e-20)
(1.06046 0.0431227 -3.40522e-20)
(1.06378 0.0427916 4.31871e-20)
(1.06719 0.0424235 -5.63794e-21)
(1.07069 0.0420206 -3.00223e-20)
(1.07428 0.0415851 1.75799e-20)
(1.07795 0.0411197 -1.82054e-20)
(1.08171 0.0406269 1.49784e-20)
(1.08555 0.0401097 2.50183e-20)
(1.08946 0.0395709 -2.32134e-20)
(1.09346 0.0390137 1.52398e-20)
(1.09752 0.038441 1.8172e-20)
(1.10165 0.037856 2.07509e-20)
(1.10585 0.0372617 2.34117e-20)
(1.1101 0.0366611 2.21299e-20)
(1.11441 0.0360571 2.93175e-20)
(1.11876 0.0354525 3.17032e-20)
(1.04552 0.0434014 -3.8366e-20)
(1.04835 0.0432638 -4.35551e-20)
(1.05127 0.043087 -1.54863e-21)
(1.05429 0.0428704 8.33174e-20)
(1.0574 0.0426144 -5.41471e-21)
(1.0606 0.0423201 2.26974e-20)
(1.0639 0.0419889 -2.3827e-20)
(1.06729 0.0416224 -1.16977e-20)
(1.07077 0.0412228 9.57071e-21)
(1.07433 0.0407922 4.39099e-20)
(1.07799 0.0403331 2.87257e-20)
(1.08173 0.0398482 4.28492e-20)
(1.08555 0.0393401 -1.06131e-20)
(1.08945 0.0388118 -1.39551e-20)
(1.09342 0.0382661 1.07059e-20)
(1.09747 0.037706 1.26006e-20)
(1.10159 0.0371345 -1.74525e-20)
(1.10577 0.0365545 1.98751e-20)
(1.11002 0.0359688 -2.33008e-20)
(1.11431 0.0353803 -7.09263e-21)
(1.11866 0.0347916 -1.80521e-20)
(1.04578 0.0426294 -5.74489e-20)
(1.04858 0.0424831 -2.98418e-20)
(1.05148 0.0422992 1.09303e-20)
(1.05448 0.0420773 -1.61501e-20)
(1.05757 0.0418177 -1.72794e-21)
(1.06075 0.0415215 -5.1722e-20)
(1.06403 0.04119 1.1049e-20)
(1.06739 0.040825 5.14876e-20)
(1.07085 0.0404284 -4.47221e-21)
(1.0744 0.0400023 -2.3155e-20)
(1.07803 0.0395493 -6.21961e-20)
(1.08175 0.0390718 -2.66271e-20)
(1.08556 0.0385725 -2.90066e-22)
(1.08944 0.0380541 -4.71103e-21)
(1.0934 0.0375196 -1.29795e-20)
(1.09744 0.0369717 2.08001e-20)
(1.10154 0.0364132 2.09696e-20)
(1.10571 0.0358471 -2.98509e-20)
(1.10994 0.0352759 -3.77044e-21)
(1.11422 0.0347024 -2.92913e-20)
(1.11856 0.0341291 -4.92806e-21)
(1.04334 0.0419773 -8.47366e-20)
(1.04604 0.0418583 -1.42078e-21)
(1.04882 0.0417042 -1.83242e-20)
(1.0517 0.0415137 1.06113e-20)
(1.05468 0.0412868 -1.57234e-20)
(1.05774 0.0410239 -7.67354e-21)
(1.06091 0.040726 1.9671e-20)
(1.06416 0.0403943 1.58535e-20)
(1.06751 0.0400306 -5.06019e-20)
(1.07094 0.0396368 2.23484e-20)
(1.07447 0.0392151 1.3792e-20)
(1.07809 0.0387678 3.45483e-20)
(1.08179 0.0382975 3.33715e-20)
(1.08557 0.0378066 -2.9205e-22)
(1.08944 0.0372978 1.26539e-20)
(1.09339 0.036774 -2.53783e-20)
(1.0974 0.0362378 -2.65346e-20)
(1.10149 0.0356921 4.88727e-21)
(1.10565 0.0351393 -4.59138e-21)
(1.10986 0.0345823 1.17108e-20)
(1.11414 0.0340235 -6.85632e-21)
(1.11846 0.0334652 2.15584e-20)
(1.04362 0.0412139 -6.66157e-21)
(1.0463 0.0410868 3.99259e-22)
(1.04906 0.0409257 -1.45667e-20)
(1.05192 0.0407295 9.16706e-21)
(1.05488 0.0404981 -3.63171e-20)
(1.05793 0.0402322 -9.27951e-21)
(1.06107 0.0399327 2.8213e-20)
(1.0643 0.0396009 -4.01815e-20)
(1.06763 0.0392386 -3.70365e-20)
(1.07105 0.0388476 -4.38473e-20)
(1.07455 0.0384301 -1.56309e-20)
(1.07815 0.0379883 4.92329e-21)
(1.08183 0.0375248 -4.2063e-20)
(1.0856 0.037042 -1.74396e-20)
(1.08945 0.0365426 1.46948e-20)
(1.09338 0.0360292 1.53368e-20)
(1.09738 0.0355044 1.5359e-20)
(1.10145 0.0349709 6.44992e-21)
(1.1056 0.0344312 -9.41654e-22)
(1.1098 0.0338879 -9.32016e-21)
(1.11406 0.0333434 1.90361e-20)
(1.11837 0.0327999 -1.22049e-20)
(1.04134 0.0405478 -1.75136e-20)
(1.0439 0.0404481 -5.65032e-21)
(1.04656 0.0403141 2.96167e-20)
(1.04931 0.0401469 5.53121e-20)
(1.05215 0.0399455 -5.2554e-20)
(1.05508 0.0397102 5.23789e-20)
(1.05811 0.0394417 -6.17812e-21)
(1.06123 0.0391408 -4.54264e-20)
(1.06445 0.0388091 3.13462e-20)
(1.06775 0.0384483 2.80446e-20)
(1.07115 0.0380601 6.1216e-20)
(1.07464 0.0376467 4.96774e-21)
(1.07822 0.0372104 2.24752e-20)
(1.08189 0.0367535 -1.95051e-20)
(1.08563 0.0362786 -1.35516e-20)
(1.08947 0.0357882 -5.08863e-20)
(1.09338 0.0352848 1.3192e-20)
(1.09736 0.0347711 -2.36642e-20)
(1.10142 0.0342495 -1.34656e-20)
(1.10555 0.0337226 4.17281e-20)
(1.10974 0.0331927 -1.74041e-20)
(1.11399 0.0326621 1.58578e-20)
(1.11829 0.032133 -9.05429e-21)
(1.04163 0.0397847 4.03872e-20)
(1.04418 0.0396791 4.89013e-20)
(1.04682 0.0395392 3.50828e-21)
(1.04955 0.0393668 -5.03688e-20)
(1.05238 0.0391609 5.50939e-20)
(1.05529 0.0389223 8.00158e-21)
(1.0583 0.0386516 1.78489e-20)
(1.0614 0.0383498 2.27499e-20)
(1.0646 0.0380184 -3.18167e-20)
(1.06789 0.0376591 2.57576e-20)
(1.07127 0.0372738 7.58845e-21)
(1.07474 0.0368645 3.46129e-20)
(1.0783 0.0364335 -2.69487e-20)
(1.08194 0.0359832 1.73777e-20)
(1.08568 0.035516 3.49285e-20)
(1.08949 0.0350343 1.22013e-20)
(1.09338 0.0345408 -2.76145e-20)
(1.09735 0.0340379 3.65224e-20)
(1.1014 0.0335279 1.65202e-20)
(1.10551 0.0330134 -9.44979e-21)
(1.10969 0.0324966 3.40073e-20)
(1.11392 0.0319797 -1.09421e-20)
(1.11821 0.0314646 -4.46751e-21)
(1.03944 0.0390997 3.3985e-21)
(1.04192 0.0390168 -5.81323e-20)
(1.04445 0.0389064 2.75036e-20)
(1.04708 0.0387614 -9.44387e-21)
(1.0498 0.0385846 2.43508e-20)
(1.0526 0.038375 -3.52987e-20)
(1.0555 0.0381337 -5.47456e-20)
(1.05849 0.0378612 9.03523e-21)
(1.06158 0.0375589 -1.81117e-20)
(1.06476 0.0372281 -5.05654e-21)
(1.06803 0.0368705 -1.39792e-20)
(1.07139 0.0364882 -6.38035e-20)
(1.07484 0.036083 -6.22535e-20)
(1.07838 0.0356574 6.66164e-21)
(1.08201 0.0352135 1.1439e-20)
(1.08572 0.0347539 -3.12849e-20)
(1.08952 0.0342809 1.03288e-21)
(1.0934 0.0337969 5.3346e-20)
(1.09735 0.0333045 -1.76358e-20)
(1.10138 0.032806 2.1356e-20)
(1.10548 0.0323036 -2.06318e-20)
(1.10964 0.0317996 -2.46935e-20)
(1.11386 0.031296 -7.78597e-21)
(1.11814 0.0307947 1.88674e-20)
(1.03746 0.038371 -2.47804e-20)
(1.03974 0.0383307 1.18397e-20)
(1.04221 0.0382437 6.00343e-20)
(1.04472 0.0381292 -4.08623e-20)
(1.04734 0.0379801 -4.0355e-20)
(1.05004 0.0377996 2.6238e-20)
(1.05283 0.0375871 6.18443e-20)
(1.05571 0.0373436 3.14551e-20)
(1.05869 0.03707 -3.89197e-20)
(1.06176 0.0367675 4.81742e-20)
(1.06492 0.0364376 9.58151e-23)
(1.06817 0.0360821 1.80641e-22)
(1.07151 0.0357028 2.6686e-20)
(1.07495 0.0353019 1.56591e-20)
(1.07847 0.0348816 6.10756e-21)
(1.08208 0.0344442 1.18427e-20)
(1.08578 0.033992 2.04965e-20)
(1.08956 0.0335275 3.70438e-20)
(1.09342 0.033053 -5.37318e-20)
(1.09736 0.0325709 -1.90158e-21)
(1.10137 0.0320835 -4.63957e-20)
(1.10545 0.031593 2.01676e-21)
(1.1096 0.0311015 -3.64164e-21)
(1.1138 0.030611 3.05192e-21)
(1.11807 0.0301233 -3.8887e-21)
(1.03776 0.0375984 1.9897e-21)
(1.04004 0.0375553 -1.2584e-20)
(1.04249 0.0374649 -4.41729e-20)
(1.04499 0.0373471 -9.20207e-22)
(1.04759 0.0371947 6.30454e-20)
(1.05028 0.0370114 -2.48416e-20)
(1.05306 0.0367966 -2.32587e-20)
(1.05593 0.0365515 1.00219e-20)
(1.05889 0.0362772 1.09076e-20)
(1.06194 0.035975 8.08214e-21)
(1.06508 0.0356464 3.38719e-20)
(1.06832 0.0352932 -1.00979e-20)
(1.07164 0.0349172 3.02656e-20)
(1.07506 0.0345207 2.94725e-20)
(1.07857 0.0341059 2.47224e-20)
(1.08216 0.0336749 -3.26665e-20)
(1.08584 0.0332301 8.59761e-21)
(1.0896 0.032774 -1.80977e-21)
(1.09344 0.0323088 5.20862e-20)
(1.09737 0.0318369 1.36211e-20)
(1.10136 0.0313604 7.20851e-22)
(1.10543 0.0308816 -1.2396e-20)
(1.10956 0.0304024 2.51294e-20)
(1.11375 0.0299247 -1.17424e-20)
(1.118 0.0294502 -1.46982e-20)
(1.03564 0.0368588 8.79464e-21)
(1.03805 0.0368189 -1.23839e-20)
(1.04033 0.0367732 -2.77691e-20)
(1.04277 0.0366802 -4.10605e-20)
(1.04526 0.0365597 4.04375e-20)
(1.04785 0.0364048 1.78653e-21)
(1.05052 0.0362193 9.21479e-21)
(1.05328 0.0360028 -1.80731e-20)
(1.05614 0.0357569 6.68835e-21)
(1.05908 0.0354825 3.03184e-20)
(1.06212 0.035181 -4.51413e-20)
(1.06525 0.034854 -2.51945e-20)
(1.06847 0.0345034 3.62109e-20)
(1.07178 0.034131 -1.03359e-20)
(1.07518 0.0337391 -4.74035e-20)
(1.07867 0.0333297 -7.86554e-21)
(1.08224 0.0329052 -6.3524e-21)
(1.0859 0.0324679 1.45536e-20)
(1.08965 0.0320201 1.06023e-20)
(1.09348 0.0315641 -5.70356e-20)
(1.09738 0.0311022 -1.97099e-20)
(1.10136 0.0306366 1.90302e-20)
(1.10541 0.0301692 2.04012e-20)
(1.10953 0.0297021 -1.80847e-20)
(1.11371 0.0292369 1.52091e-20)
(1.11794 0.0287755 1.01515e-20)
(1.03595 0.0360738 -6.10626e-20)
(1.03834 0.0360324 6.13136e-20)
(1.04061 0.0359844 4.34951e-20)
(1.04304 0.0358892 5.83511e-20)
(1.04552 0.0357666 2.0796e-21)
(1.0481 0.0356099 -3.73824e-20)
(1.05076 0.0354229 -5.83412e-20)
(1.05351 0.0352055 -3.48245e-20)
(1.05635 0.0349592 -3.57414e-20)
(1.05928 0.0346852 -4.50292e-20)
(1.0623 0.0343849 -5.81068e-21)
(1.06542 0.03406 -4.15988e-22)
(1.06862 0.0337123 -1.54753e-21)
(1.07191 0.0333438 -1.48857e-20)
(1.0753 0.0329566 5.88053e-20)
(1.07877 0.0325529 -3.62342e-20)
(1.08233 0.032135 4.58881e-20)
(1.08597 0.0317051 -1.57755e-20)
(1.0897 0.0312657 -4.92369e-20)
(1.09351 0.0308188 2.201e-20)
(1.0974 0.0303668 1.52303e-20)
(1.10137 0.0299118 -1.96647e-20)
(1.1054 0.0294557 -3.18881e-21)
(1.1095 0.0290005 -2.7445e-22)
(1.11367 0.0285477 -5.06346e-21)
(1.11789 0.0280991 -3.20673e-21)
(1.03625 0.0352813 6.75812e-20)
(1.03863 0.0352387 -3.18204e-20)
(1.04089 0.0351885 -2.27597e-20)
(1.0433 0.0350919 3.69341e-20)
(1.04578 0.0349677 2.27028e-21)
(1.04834 0.0348097 6.24997e-21)
(1.05099 0.0346218 8.13647e-20)
(1.05373 0.0344041 2.21744e-20)
(1.05656 0.034158 -7.27994e-21)
(1.05948 0.0338849 5.43672e-20)
(1.06249 0.0335863 -2.04663e-20)
(1.06559 0.0332639 4.29585e-20)
(1.06877 0.0329195 -3.89274e-20)
(1.07205 0.0325551 -8.56876e-21)
(1.07542 0.0321729 -2.10061e-20)
(1.07888 0.0317751 2.86509e-20)
(1.08242 0.0313639 -5.33941e-20)
(1.08605 0.0309415 -1.88112e-20)
(1.08976 0.0305104 -6.87273e-21)
(1.09356 0.0300727 1.05287e-20)
(1.09743 0.0296305 -2.13064e-20)
(1.10137 0.029186 7.38956e-21)
(1.10539 0.0287411 -2.35688e-20)
(1.10948 0.0282976 9.47343e-21)
(1.11363 0.027857 -7.74838e-22)
(1.11784 0.0274209 -5.86447e-21)
(1.03654 0.0344813 -7.75042e-20)
(1.03891 0.0344377 -9.17781e-21)
(1.04116 0.0343856 7.57599e-21)
(1.04357 0.0342878 -8.33256e-20)
(1.04603 0.0341626 -3.21942e-20)
(1.04859 0.0340039 -1.8028e-20)
(1.05123 0.0338158 -8.90071e-21)
(1.05395 0.0335982 2.83432e-20)
(1.05677 0.033353 4.51802e-20)
(1.05968 0.0330813 -5.32806e-20)
(1.06267 0.0327849 -4.29612e-21)
(1.06576 0.0324653 -3.33412e-20)
(1.06893 0.0321246 3.60214e-20)
(1.07219 0.0317647 -3.7928e-21)
(1.07555 0.0313877 -2.09974e-20)
(1.07899 0.0309959 -2.2046e-20)
(1.08252 0.0305915 2.65623e-20)
(1.08613 0.0301769 5.39306e-21)
(1.08982 0.0297541 3.01929e-20)
(1.0936 0.0293255 -1.37421e-20)
(1.09746 0.0288932 1.2666e-20)
(1.10139 0.0284591 5.7571e-21)
(1.10539 0.0280252 1.55428e-20)
(1.10946 0.0275933 3.18514e-21)
(1.1136 0.0271647 6.05768e-21)
(1.11779 0.026741 -5.66592e-21)
(1.03683 0.0336737 6.50769e-20)
(1.03918 0.0336293 6.10623e-20)
(1.04143 0.0335755 -3.48995e-20)
(1.04382 0.033477 7.83024e-20)
(1.04628 0.0333511 -2.57393e-21)
(1.04883 0.0331923 2.5996e-20)
(1.05146 0.0330044 -2.94435e-20)
(1.05417 0.0327876 -3.09151e-20)
(1.05698 0.0325437 -3.96493e-20)
(1.05987 0.032274 4.48409e-20)
(1.06285 0.0319802 1.25884e-20)
(1.06593 0.0316639 2.69293e-20)
(1.06909 0.0313272 -9.86306e-21)
(1.07234 0.0309721 2.6915e-20)
(1.07568 0.0306007 2.61168e-20)
(1.0791 0.0302152 -2.43763e-20)
(1.08261 0.0298178 -2.80707e-20)
(1.08621 0.0294109 4.51303e-20)
(1.08989 0.0289966 4.17623e-21)
(1.09365 0.0285771 3.17794e-20)
(1.09749 0.0281545 -1.33102e-20)
(1.10141 0.0277309 -2.01964e-20)
(1.1054 0.027308 -5.89151e-21)
(1.10945 0.0268874 -1.11012e-20)
(1.11357 0.0264708 -2.85535e-22)
(1.11775 0.0260593 1.12131e-20)
(1.03711 0.0328584 -1.30015e-20)
(1.03944 0.0328134 -9.70653e-20)
(1.04169 0.032758 1.92497e-20)
(1.04407 0.0326593 -6.66468e-20)
(1.04652 0.0325331 -1.51908e-20)
(1.04906 0.0323746 -4.0381e-20)
(1.05168 0.0321875 5.09703e-20)
(1.05439 0.031972 -3.81374e-21)
(1.05718 0.03173 3.80107e-20)
(1.06007 0.0314627 -8.3005e-21)
(1.06304 0.0311719 4.53701e-20)
(1.0661 0.0308594 -4.57593e-20)
(1.06925 0.0305271 3.33598e-21)
(1.07248 0.0301771 2.44146e-20)
(1.07581 0.0298115 1.02664e-20)
(1.07922 0.0294325 2.07806e-20)
(1.08271 0.0290424 3.93016e-20)
(1.0863 0.0286433 -3.64047e-20)
(1.08996 0.0282375 2.95755e-20)
(1.09371 0.0278273 -2.54936e-20)
(1.09753 0.0274145 -3.23366e-20)
(1.10143 0.0270012 2.63872e-20)
(1.1054 0.0265892 2.4379e-21)
(1.10944 0.02618 -2.90249e-21)
(1.11355 0.0257751 -4.65375e-21)
(1.11772 0.0253757 -3.55739e-21)
(1.03739 0.0320353 -1.62152e-20)
(1.0397 0.0319899 6.88598e-21)
(1.04195 0.0319333 -5.14338e-21)
(1.04432 0.0318345 -1.77357e-20)
(1.04676 0.0317085 2.59336e-20)
(1.04929 0.0315508 -8.3268e-21)
(1.0519 0.0313649 -9.39326e-21)
(1.0546 0.0311511 3.37256e-22)
(1.05739 0.0309114 -2.42841e-21)
(1.06026 0.030647 2.48851e-20)
(1.06322 0.0303598 -1.26021e-20)
(1.06627 0.0300514 3.98236e-20)
(1.0694 0.029724 2.64745e-20)
(1.07263 0.0293794 -7.92222e-22)
(1.07594 0.0290199 2.81532e-22)
(1.07934 0.0286477 -3.04485e-21)
(1.08282 0.028265 1.70837e-20)
(1.08639 0.027874 1.18444e-20)
(1.09003 0.0274769 -8.96779e-22)
(1.09376 0.0270759 -9.1086e-21)
(1.09757 0.0266729 4.25174e-20)
(1.10146 0.02627 -5.56484e-21)
(1.10541 0.0258688 1.11349e-20)
(1.10944 0.0254708 -4.58059e-21)
(1.11353 0.0250775 3.88225e-21)
(1.11768 0.0246901 -2.48166e-21)
(1.03765 0.0312045 4.27228e-20)
(1.03996 0.0311588 6.40916e-20)
(1.04219 0.0311011 1.78607e-20)
(1.04456 0.0310027 2.36461e-20)
(1.047 0.0308771 -5.47813e-20)
(1.04952 0.0307205 2.04372e-21)
(1.05212 0.0305363 -7.95176e-20)
(1.05481 0.0303247 -5.64272e-22)
(1.05759 0.0300878 -3.80143e-20)
(1.06045 0.0298268 -2.35578e-20)
(1.0634 0.0295435 -1.16913e-20)
(1.06644 0.0292397 -2.61926e-20)
(1.06956 0.0289174 -1.45498e-20)
(1.07277 0.0285787 -3.56832e-20)
(1.07607 0.0282256 -2.27668e-20)
(1.07946 0.0278605 2.92329e-20)
(1.08292 0.0274854 -1.07403e-20)
(1.08648 0.0271026 8.44729e-21)
(1.09011 0.0267144 -3.17346e-20)
(1.09383 0.0263227 6.74878e-21)
(1.09762 0.0259296 -1.40834e-20)
(1.10149 0.025537 -2.59729e-21)
(1.10543 0.0251466 5.91177e-21)
(1.10944 0.0247599 1.27325e-20)
(1.11352 0.0243781 -1.0317e-20)
(1.11765 0.0240025 6.0773e-21)
(1.03791 0.030366 -7.40248e-20)
(1.0402 0.0303201 -4.72067e-21)
(1.04244 0.0302615 -6.02369e-21)
(1.0448 0.0301636 1.1085e-20)
(1.04723 0.0300389 1.91967e-20)
(1.04974 0.0298838 6.69723e-20)
(1.05234 0.0297016 4.9682e-20)
(1.05502 0.0294927 3.20342e-20)
(1.05779 0.0292589 2.00226e-20)
(1.06064 0.0290017 -2.76257e-20)
(1.06358 0.0287228 9.28503e-21)
(1.06661 0.028424 -2.59926e-20)
(1.06972 0.0281073 -7.78285e-22)
(1.07292 0.0277747 1.54409e-20)
(1.07621 0.0274284 -6.19391e-22)
(1.07958 0.0270706 -4.9772e-20)
(1.08303 0.0267034 7.90429e-21)
(1.08657 0.0263291 -2.98922e-20)
(1.09019 0.0259498 -2.42141e-20)
(1.09389 0.0255676 -2.94682e-21)
(1.09767 0.0251845 6.84301e-21)
(1.10152 0.0248023 1.99764e-21)
(1.10545 0.0244226 -5.12332e-21)
(1.10944 0.024047 5.92159e-21)
(1.1135 0.0236767 9.84082e-21)
(1.11763 0.0233128 5.29513e-21)
(1.03816 0.0295196 4.85041e-20)
(1.04044 0.0294737 2.76581e-20)
(1.04267 0.0294145 -5.47361e-21)
(1.04503 0.0293173 -6.53556e-21)
(1.04745 0.0291937 3.94735e-20)
(1.04996 0.0290405 -7.48066e-20)
(1.05255 0.0288606 -1.31308e-20)
(1.05522 0.0286548 9.10474e-21)
(1.05798 0.0284246 -2.29656e-20)
(1.06083 0.0281716 1.20337e-20)
(1.06376 0.0278975 -3.61815e-20)
(1.06678 0.0276041 2.53827e-20)
(1.06988 0.0272933 -2.98241e-21)
(1.07307 0.0269673 -4.79104e-20)
(1.07634 0.0266281 -1.46239e-21)
(1.0797 0.0262778 4.04549e-20)
(1.08314 0.0259188 -1.52812e-20)
(1.08666 0.0255531 1.59385e-20)
(1.09027 0.025183 2.87861e-20)
(1.09396 0.0248104 -2.36473e-21)
(1.09772 0.0244373 9.60627e-21)
(1.10156 0.0240655 -2.43674e-21)
(1.10547 0.0236966 -5.7449e-21)
(1.10945 0.0233322 -7.01544e-21)
(1.1135 0.0229733 -1.08434e-20)
(1.1176 0.022621 -3.18246e-21)
(1.03841 0.0286655 3.11006e-20)
(1.04067 0.0286196 -5.97839e-20)
(1.0429 0.0285599 1.31106e-20)
(1.04525 0.0284638 4.71912e-20)
(1.04767 0.0283414 -7.09714e-20)
(1.05017 0.0281904 6.72839e-20)
(1.05275 0.0280133 3.20929e-22)
(1.05542 0.0278109 -3.46158e-20)
(1.05818 0.0275847 4.71556e-20)
(1.06101 0.0273363 4.51606e-21)
(1.06394 0.0270673 3.41897e-21)
(1.06694 0.0267797 -3.21615e-20)
(1.07004 0.0264753 2.18276e-21)
(1.07321 0.0261561 5.6478e-20)
(1.07648 0.0258243 -3.99002e-20)
(1.07982 0.025482 -1.14395e-20)
(1.08325 0.0251314 8.40007e-21)
(1.08676 0.0247746 -7.45998e-21)
(1.09035 0.0244137 -1.66396e-20)
(1.09402 0.0240509 -1.30821e-21)
(1.09777 0.0236879 1.84476e-21)
(1.1016 0.0233266 7.2715e-23)
(1.10549 0.0229686 -5.92705e-22)
(1.10946 0.0226152 2.07702e-21)
(1.11349 0.0222677 1.52938e-20)
(1.11759 0.021927 2.58676e-21)
(1.03865 0.0278034 -5.99302e-20)
(1.0409 0.0277578 5.2291e-20)
(1.04313 0.0276978 -1.53974e-20)
(1.04547 0.0276029 1.34152e-20)
(1.04788 0.0274822 8.75488e-21)
(1.05038 0.0273336 -2.41035e-20)
(1.05296 0.0271596 2.35398e-21)
(1.05562 0.0269608 7.30191e-22)
(1.05836 0.026739 -5.35308e-20)
(1.06119 0.0264956 -1.50221e-20)
(1.06411 0.0262322 6.13076e-20)
(1.06711 0.0259507 3.4856e-20)
(1.07019 0.025653 -4.09503e-20)
(1.07336 0.0253411 -2.45559e-20)
(1.07661 0.025017 2.74403e-20)
(1.07994 0.0246829 -1.14286e-20)
(1.08336 0.0243409 -8.96705e-21)
(1.08686 0.0239932 -2.9612e-21)
(1.09044 0.0236419 5.18648e-22)
(1.0941 0.0232889 -3.0808e-21)
(1.09783 0.0229362 -1.44138e-20)
(1.10164 0.0225855 1.14297e-20)
(1.10552 0.0222383 8.13664e-22)
(1.10947 0.0218961 -4.12905e-21)
(1.11349 0.0215599 -1.34442e-20)
(1.11757 0.0212306 -8.37439e-21)
(1.03888 0.0269336 -1.63449e-20)
(1.04112 0.0268882 -7.42086e-20)
(1.04334 0.0268282 -3.07954e-22)
(1.04568 0.0267346 -4.19548e-20)
(1.04809 0.0266158 2.09221e-20)
(1.05058 0.0264699 8.44508e-21)
(1.05315 0.0262993 -3.02183e-20)
(1.05581 0.0261046 -1.57087e-20)
(1.05855 0.0258875 4.97756e-20)
(1.06137 0.0256494 2.47941e-20)
(1.06428 0.0253919 -1.90844e-20)
(1.06727 0.0251169 -1.20674e-20)
(1.07035 0.0248263 -5.67664e-21)
(1.0735 0.0245219 -1.57261e-20)
(1.07674 0.0242059 3.54516e-20)
(1.08007 0.0238803 1.81688e-20)
(1.08347 0.0235473 -1.11796e-20)
(1.08696 0.0232089 -2.10293e-21)
(1.09052 0.0228673 7.41235e-21)
(1.09417 0.0225244 9.15778e-22)
(1.09789 0.0221821 -5.88217e-21)
(1.10168 0.021842 -1.662e-20)
(1.10555 0.0215058 -9.81796e-23)
(1.10949 0.0211746 -8.27246e-22)
(1.11349 0.0208497 8.03785e-21)
(1.11756 0.0205319 6.58832e-22)
(1.0391 0.0260559 5.10253e-20)
(1.04133 0.0260109 1.46739e-21)
(1.04356 0.025951 -1.33577e-20)
(1.04589 0.025859 -1.84327e-20)
(1.04829 0.0257422 2.77962e-20)
(1.05078 0.0255993 -1.11286e-20)
(1.05335 0.0254323 1.79823e-20)
(1.056 0.025242 4.48222e-20)
(1.05873 0.0250299 4.74595e-21)
(1.06155 0.0247975 -1.06578e-20)
(1.06445 0.0245463 -2.97727e-20)
(1.06743 0.0242782 -8.22812e-21)
(1.0705 0.0239949 -1.79964e-20)
(1.07365 0.0236984 5.68987e-20)
(1.07688 0.0233908 -3.03356e-20)
(1.08019 0.023074 -2.47958e-20)
(1.08358 0.0227502 1.26473e-20)
(1.08706 0.0224215 9.79964e-21)
(1.09061 0.0220898 9.10418e-21)
(1.09424 0.0217571 2.67669e-20)
(1.09795 0.0214253 1.59857e-21)
(1.10173 0.021096 9.55136e-21)
(1.10558 0.0207707 -6.09653e-21)
(1.1095 0.0204508 4.9824e-21)
(1.11349 0.0201371 1.04942e-20)
(1.03931 0.0251704 -9.1881e-21)
(1.04154 0.0251258 4.26346e-20)
(1.04376 0.0250662 2.50744e-20)
(1.04609 0.0249759 2.26508e-20)
(1.04849 0.0248615 2.69815e-20)
(1.05097 0.0247218 4.00625e-20)
(1.05353 0.0245587 1.94772e-20)
(1.05618 0.024373 -1.99762e-20)
(1.05891 0.0241663 -3.06984e-20)
(1.06172 0.0239398 -3.35571e-20)
(1.06461 0.0236953 4.21244e-20)
(1.06759 0.0234343 3.10911e-21)
(1.07065 0.0231588 1.70975e-20)
(1.07379 0.0228706 -4.5985e-20)
(1.07701 0.0225716 4.28802e-21)
(1.08031 0.0222639 2.58439e-20)
(1.0837 0.0219496 1.71671e-20)
(1.08716 0.0216307 -1.72299e-20)
(1.0907 0.0213092 6.25875e-21)
(1.09432 0.020987 -1.65005e-20)
(1.09801 0.0206658 1.62082e-20)
(1.10178 0.0203474 6.21206e-21)
(1.10562 0.0200332 4.30464e-23)
(1.10952 0.0197244 -1.09291e-20)
(1.1135 0.0194221 -1.93602e-20)
(1.03952 0.024277 2.03458e-20)
(1.04174 0.024233 -5.15454e-20)
(1.04396 0.0241738 3.25029e-20)
(1.04628 0.0240855 5.16384e-21)
(1.04868 0.0239735 -2.73838e-20)
(1.05116 0.0238372 -1.61052e-20)
(1.05372 0.0236783 1.76935e-20)
(1.05636 0.0234975 2.40708e-20)
(1.05908 0.0232964 -1.12963e-20)
(1.06189 0.0230763 3.55852e-20)
(1.06478 0.0228387 -1.01655e-20)
(1.06775 0.0225853 1.94509e-20)
(1.0708 0.0223178 1.5518e-20)
(1.07393 0.0220381 -5.84044e-21)
(1.07714 0.0217481 1.54256e-20)
(1.08043 0.0214499 -2.69345e-20)
(1.08381 0.0211453 -6.96882e-21)
(1.08726 0.0208365 2.18761e-20)
(1.09079 0.0205254 -1.99282e-21)
(1.09439 0.0202137 3.50682e-21)
(1.09807 0.0199034 -1.53112e-20)
(1.10183 0.019596 -2.16325e-20)
(1.10565 0.0192929 -1.43257e-21)
(1.10955 0.0189953 1.16749e-20)
(1.11351 0.0187044 2.14747e-20)
(1.03972 0.0233757 -5.02454e-20)
(1.04193 0.0233324 6.5677e-20)
(1.04415 0.0232739 -1.25095e-20)
(1.04647 0.0231875 3.47218e-20)
(1.04886 0.0230782 -4.62345e-22)
(1.05134 0.0229456 -4.30268e-20)
(1.0539 0.022791 -6.02e-21)
(1.05654 0.0226155 -8.72871e-21)
(1.05925 0.0224203 1.96661e-20)
(1.06206 0.0222068 -8.26953e-21)
(1.06494 0.0219764 -9.91911e-22)
(1.0679 0.0217308 -1.9522e-20)
(1.07094 0.0214717 2.22976e-20)
(1.07407 0.0212009 4.71521e-21)
(1.07727 0.0209202 -1.54457e-20)
(1.08055 0.0206317 2.08708e-20)
(1.08392 0.0203372 -1.17588e-20)
(1.08736 0.0200387 -2.5419e-20)
(1.09087 0.0197382 -1.6215e-20)
(1.09447 0.0194373 -5.27187e-21)
(1.09813 0.019138 9.20404e-21)
(1.10188 0.0188417 9.08689e-21)
(1.10569 0.0185498 1.15863e-20)
(1.10957 0.0182636 -1.41922e-20)
(1.11352 0.0179839 -2.19205e-22)
(1.03991 0.0224667 -1.43448e-20)
(1.04211 0.022424 7.85362e-22)
(1.04433 0.0223663 -3.25809e-20)
(1.04665 0.0222821 -4.73276e-20)
(1.04904 0.0221757 2.83688e-20)
(1.05152 0.0220469 4.99654e-20)
(1.05407 0.021897 4.98862e-21)
(1.05671 0.0217269 1.55195e-21)
(1.05942 0.0215379 8.00987e-21)
(1.06222 0.0213312 -1.58166e-20)
(1.06509 0.0211084 8.56161e-22)
(1.06805 0.0208709 -3.11444e-21)
(1.07109 0.0206205 -1.58004e-20)
(1.0742 0.0203589 2.00034e-20)
(1.0774 0.0200878 1.1661e-20)
(1.08067 0.0198092 8.37913e-21)
(1.08403 0.0195251 1.11706e-22)
(1.08745 0.0192372 8.91034e-22)
(1.09096 0.0189474 -2.88619e-21)
(1.09454 0.0186576 -8.02862e-21)
(1.0982 0.0183695 7.57242e-21)
(1.10193 0.0180844 -5.45403e-21)
(1.10573 0.0178039 3.41806e-21)
(1.10959 0.017529 7.09168e-21)
(1.11353 0.0172607 -1.62223e-20)
(1.04009 0.0215498 1.71615e-20)
(1.04229 0.0215079 -4.56156e-20)
(1.04451 0.0214512 -1.07968e-20)
(1.04683 0.0213692 3.49237e-22)
(1.04922 0.0212659 -5.30897e-20)
(1.05169 0.0211411 -5.08292e-20)
(1.05424 0.020996 -3.9988e-20)
(1.05687 0.0208316 -2.47884e-20)
(1.05958 0.020649 -3.52176e-20)
(1.06237 0.0204495 3.90884e-20)
(1.06525 0.0202345 -2.18813e-20)
(1.0682 0.0200055 1.92305e-20)
(1.07123 0.0197641 -2.10287e-21)
(1.07434 0.0195119 -2.01931e-20)
(1.07752 0.0192507 -6.34165e-21)
(1.08079 0.0189824 -9.10869e-21)
(1.08413 0.0187088 -8.47323e-21)
(1.08755 0.0184318 -2.37433e-21)
(1.09105 0.0181531 -6.09444e-21)
(1.09462 0.0178745 -3.42753e-21)
(1.09826 0.0175976 -2.27003e-20)
(1.10198 0.017324 9.08045e-21)
(1.10576 0.0170549 -3.22527e-21)
(1.10962 0.0167914 9.43602e-21)
(1.11354 0.0165346 -6.09856e-21)
(1.04027 0.0206251 2.20708e-20)
(1.04246 0.0205841 4.14317e-22)
(1.04468 0.0205284 -2.08146e-20)
(1.047 0.0204489 6.90129e-21)
(1.04939 0.0203488 1.923e-20)
(1.05186 0.0202282 2.03965e-20)