/*--------------------------------*- C++ -*----------------------------------*\
  =========                 |
  \\      /  F ield         | OpenFOAM: The Open Source CFD Toolbox
   \\    /   O peration     | Website:  https://openfoam.org
    \\  /    A nd           | Version:  7
     \\/     M anipulation  |
\*---------------------------------------------------------------------------*/
FoamFile
{
    version     2.0;
    format      ascii;
    class       surfaceScalarField;
    location    "5";
    object      phi;
}
// * * * * * * * * * * * * * * * * * * * * * * * * * * * * * * * * * * * * * //

dimensions      [0 3 -1 0 0 0 0];

internalField   nonuniform List<scalar> 
5145
(
0.0031778
-4.57065e-05
0.00322156
-4.37614e-05
0.00326328
-4.17153e-05
0.00330286
-3.95837e-05
0.00334025
-3.73831e-05
0.00337538
-3.51314e-05
0.00340823
-3.28468e-05
0.00343877
-3.05481e-05
0.00346703
-2.82539e-05
0.00349301
-2.59822e-05
0.00351676
-2.37504e-05
0.00353834
-2.15744e-05
0.00355781
-1.94683e-05
0.00357525
-1.74446e-05
0.00359077
-1.55136e-05
0.00360445
-1.36832e-05
0.00361641
-1.19592e-05
0.00362675
-1.0345e-05
0.0036356
-8.84196e-06
0.00364305
-7.44956e-06
0.00364921
-6.16553e-06
0.0036542
-4.9862e-06
0.0036581
-3.90682e-06
0.00366103
-2.92177e-06
0.00366305
-2.02492e-06
0.00366426
-1.20981e-06
0.00366473
-4.69876e-07
-4.13487e-11
0.00366453
2.01418e-07
-4.68427e-11
0.00366372
8.10167e-07
-4.79397e-11
0.00366236
1.36249e-06
-4.91374e-11
0.00366049
1.86396e-06
-4.9623e-11
0.00365817
2.31976e-06
-4.97215e-11
0.00365544
2.73468e-06
-4.8963e-11
0.00365233
3.11307e-06
-4.74368e-11
0.00364887
3.4589e-06
-4.46772e-11
0.00364509
3.77573e-06
-4.09311e-11
0.00364103
4.06677e-06
-3.60852e-11
0.00363669
4.33491e-06
-3.03203e-11
0.00363211
4.58272e-06
-2.38159e-11
0.0036273
4.81251e-06
-1.68567e-11
0.00362227
5.02634e-06
-9.68289e-12
0.00361704
5.22607e-06
-2.59281e-12
0.00361163
5.41336e-06
4.09303e-12
0.00360604
5.58967e-06
1.01886e-11
0.00360028
5.75638e-06
1.54452e-11
0.00359437
5.91462e-06
1.97839e-11
0.0035883
6.06558e-06
2.31714e-11
0.00358209
6.21002e-06
2.54948e-11
0.00357574
6.34921e-06
2.68124e-11
0.00356926
6.48319e-06
2.72619e-11
0.00356265
6.61403e-06
2.66602e-11
0.00355591
6.73992e-06
2.54808e-11
0.00354904
6.86575e-06
2.3192e-11
0.00354206
6.98446e-06
2.09643e-11
7.11001e-06
1.73601e-11
0.00317771
-9.13205e-05
0.00322138
-8.74372e-05
0.00326302
-8.33521e-05
0.00330253
-7.90959e-05
0.00333985
-7.47018e-05
0.00337492
-7.02052e-05
0.00340772
-6.56427e-05
0.00343822
-6.10518e-05
0.00346644
-5.64695e-05
0.00349239
-5.19322e-05
0.00351611
-4.74741e-05
0.00353767
-4.31271e-05
0.00355712
-3.89198e-05
0.00357455
-3.48768e-05
0.00359005
-3.10187e-05
0.00360373
-2.73615e-05
0.00361569
-2.39166e-05
0.00362604
-2.06911e-05
0.00363488
-1.76876e-05
0.00364234
-1.4905e-05
0.00364851
-1.23389e-05
0.00365351
-9.98199e-06
0.00365742
-7.8247e-06
0.00366036
-5.85591e-06
0.0036624
-4.06333e-06
0.00366362
-2.43409e-06
0.00366411
-9.55088e-07
0.00366392
3.86714e-07
0.00366313
1.60351e-06
0.00366178
2.70753e-06
0.00365994
3.70989e-06
0.00365764
4.62096e-06
0.00365492
5.4503e-06
0.00365183
6.20663e-06
0.00364839
6.89785e-06
0.00364463
7.53109e-06
0.00364059
8.11277e-06
0.00363627
8.64865e-06
0.00363171
9.14388e-06
0.00362692
9.60308e-06
0.00362192
1.00304e-05
0.00361671
1.04295e-05
0.00361132
1.08037e-05
0.00360576
1.11559e-05
0.00360002
1.1489e-05
0.00359413
1.18051e-05
0.00358809
1.21066e-05
0.00358191
1.23951e-05
0.00357558
1.26731e-05
0.00356913
1.29407e-05
0.00356254
1.3202e-05
0.00355583
1.34534e-05
0.00354899
1.37046e-05
0.00354203
1.39417e-05
1.41924e-05
0.0031775
-0.00013675
0.00322101
-0.000130942
0.00326249
-0.000124832
0.00330186
-0.000118465
0.00333905
-0.000111892
0.003374
-0.000105164
0.0034067
-9.83367e-05
0.00343711
-9.14664e-05
0.00346525
-8.46084e-05
0.00349114
-7.7817e-05
0.00351481
-7.11437e-05
0.00353632
-6.4636e-05
0.00355573
-5.83369e-05
0.00357314
-5.22834e-05
0.00358863
-4.65062e-05
0.00360229
-4.10295e-05
0.00361425
-3.58703e-05
0.0036246
-3.10392e-05
0.00363345
-2.65403e-05
0.00364092
-2.23721e-05
0.0036471
-1.85279e-05
0.00365212
-1.49968e-05
0.00365606
-1.17646e-05
0.00365902
-8.81471e-06
0.00366108
-6.1287e-06
0.00366234
-3.68733e-06
0.00366285
-1.47104e-06
0.0036627
5.39719e-07
0.00366194
2.36315e-06
0.00366063
4.01761e-06
0.00365882
5.51972e-06
0.00365656
6.88501e-06
0.00365388
8.1278e-06
0.00365082
9.26112e-06
0.00364743
1.02968e-05
0.00364371
1.12457e-05
0.00363971
1.21171e-05
0.00363544
1.292e-05
0.00363092
1.36618e-05
0.00362617
1.43497e-05
0.00362121
1.49897e-05
0.00361605
1.55873e-05
0.00361071
1.61477e-05
0.00360519
1.66751e-05
0.00359951
1.71738e-05
0.00359366
1.7647e-05
0.00358767
1.80984e-05
0.00358154
1.85301e-05
0.00357526
1.89462e-05
0.00356886
1.93466e-05
0.00356232
1.97376e-05
0.00355566
2.01137e-05
0.00354888
2.04896e-05
0.00354197
2.08442e-05
2.12192e-05
0.00317718
-0.000181903
0.00322043
-0.000174192
0.00326167
-0.000166078
0.00330083
-0.000157622
0.00333783
-0.000148889
0.00337261
-0.000139951
0.00340516
-0.000130879
0.00343544
-0.000121748
0.00346346
-0.000112633
0.00348925
-0.000103605
0.00351284
-9.47328e-05
0.00353428
-8.60799e-05
0.00355365
-7.77032e-05
0.00357102
-6.96522e-05
0.00358648
-6.19679e-05
0.00360013
-5.46823e-05
0.00361208
-4.78184e-05
0.00362243
-4.13904e-05
0.0036313
-3.54039e-05
0.00363878
-2.98567e-05
0.00364499
-2.47403e-05
0.00365004
-2.00403e-05
0.00365401
-1.57377e-05
0.00365701
-1.18106e-05
0.00365911
-8.23461e-06
0.00366041
-4.98413e-06
0.00366097
-2.03317e-06
0.00366087
6.44189e-07
0.00366016
3.07219e-06
0.0036589
5.27521e-06
0.00365714
7.27533e-06
0.00365494
9.09326e-06
0.00365232
1.0748e-05
0.00364932
1.2257e-05
0.00364598
1.36359e-05
0.00364233
1.48989e-05
0.00363839
1.6059e-05
0.00363418
1.71276e-05
0.00362972
1.81149e-05
0.00362504
1.90302e-05
0.00362015
1.98818e-05
0.00361506
2.06769e-05
0.00360979
2.14223e-05
0.00360434
2.21238e-05
0.00359873
2.27868e-05
0.00359296
2.3416e-05
0.00358704
2.40161e-05
0.00358098
2.459e-05
0.00357478
2.5143e-05
0.00356845
2.5675e-05
0.003562
2.61945e-05
0.00355542
2.66942e-05
0.00354871
2.71935e-05
0.00354189
2.76645e-05
2.81626e-05
0.00317671
-0.000226693
0.00321963
-0.000217106
0.00326057
-0.000207016
0.00329944
-0.000196497
0.00333618
-0.000185633
0.00337075
-0.000174511
0.00340309
-0.00016322
0.00343319
-0.000151855
0.00346107
-0.000140507
0.00348673
-0.000129265
0.00351021
-0.000118216
0.00353157
-0.000107438
0.00355087
-9.70026e-05
0.00356819
-8.69714e-05
0.00358361
-7.73956e-05
0.00359725
-6.83155e-05
0.00360919
-5.97598e-05
0.00361955
-5.17463e-05
0.00362842
-4.42822e-05
0.00363593
-3.73651e-05
0.00364218
-3.09843e-05
0.00364726
-2.51221e-05
0.00365128
-1.97552e-05
0.00365432
-1.48561e-05
0.00365648
-1.03947e-05
0.00365784
-6.33907e-06
0.00365846
-2.65696e-06
0.00365842
6.83919e-07
0.00365778
3.71369e-06
0.00365659
6.46276e-06
0.00365491
8.95863e-06
0.00365277
1.12271e-05
0.00365023
1.32918e-05
0.00364731
1.51746e-05
0.00364405
1.68949e-05
0.00364048
1.84706e-05
0.00363662
1.99176e-05
0.0036325
2.12503e-05
0.00362813
2.24815e-05
0.00362354
2.36227e-05
0.00361874
2.46843e-05
0.00361374
2.56753e-05
0.00360856
2.66042e-05
0.0036032
2.74782e-05
0.00359769
2.83042e-05
0.00359201
2.90879e-05
0.0035862
2.98351e-05
0.00358024
3.05497e-05
0.00357414
3.1238e-05
0.00356792
3.19002e-05
0.00356156
3.25466e-05
0.00355509
3.31683e-05
0.00354849
3.37895e-05
0.00354178
3.43752e-05
3.49948e-05
0.00317609
-0.000271033
0.00321859
-0.000259604
0.00325915
-0.000247572
0.00329768
-0.000235026
0.00333411
-0.000222064
0.00336839
-0.000208791
0.00340048
-0.000195315
0.00343037
-0.000181746
0.00345806
-0.000168194
0.00348356
-0.000154768
0.00350691
-0.000141568
0.00352817
-0.000128691
0.00354738
-0.00011622
0.00356464
-0.00010423
0.00358003
-9.27821e-05
0.00359364
-8.19251e-05
0.00360557
-7.16935e-05
0.00361593
-6.21086e-05
0.00362483
-5.31795e-05
0.00363237
-4.49035e-05
0.00363865
-3.72681e-05
0.00364378
-3.02523e-05
0.00364786
-2.38284e-05
0.00365097
-1.79638e-05
0.00365319
-1.26226e-05
0.00365462
-7.76679e-06
0.00365532
-3.3579e-06
0.00365536
6.42669e-07
0.00365481
4.27073e-06
0.00365371
7.56273e-06
0.00365211
1.05515e-05
0.00365007
1.32679e-05
0.00364762
1.57402e-05
0.0036448
1.79943e-05
0.00364165
2.00539e-05
0.00363818
2.194e-05
0.00363442
2.3672e-05
0.0036304
2.52668e-05
0.00362615
2.67399e-05
0.00362166
2.81051e-05
0.00361697
2.93748e-05
0.00361209
3.05599e-05
0.00360702
3.16704e-05
0.00360179
3.2715e-05
0.00359639
3.37021e-05
0.00359084
3.46383e-05
0.00358514
3.55308e-05
0.00357931
3.6384e-05
0.00357334
3.72058e-05
0.00356724
3.79962e-05
0.00356102
3.87677e-05
0.00355468
3.95094e-05
0.00354822
4.02505e-05
0.00354165
4.0949e-05
4.16881e-05
0.00317529
-0.000314841
0.00321729
-0.000301611
0.0032574
-0.000287677
0.00329552
-0.000273144
0.00333158
-0.000258124
0.00336553
-0.00024274
0.00339733
-0.000227116
0.00342696
-0.000211381
0.00345443
-0.000195662
0.00347975
-0.000180085
0.00350295
-0.000164767
0.00352407
-0.000149819
0.0035432
-0.00013534
0.00356038
-0.000121417
0.00357572
-0.000108121
0.0035893
-9.55077e-05
0.00360123
-8.36189e-05
0.0036116
-7.24795e-05
0.00362052
-6.21003e-05
0.0036281
-5.24785e-05
0.00363443
-4.36e-05
0.00363962
-3.54407e-05
0.00364376
-2.79687e-05
0.00364694
-2.11463e-05
0.00364925
-1.4932e-05
0.00365076
-9.28197e-06
0.00365156
-4.15149e-06
0.0036517
5.04166e-07
0.00365124
4.72639e-06
0.00365025
8.5576e-06
0.00364876
1.20359e-05
0.00364683
1.5197e-05
0.0036445
1.8074e-05
0.0036418
2.06968e-05
0.00363876
2.30929e-05
0.00363541
2.5287e-05
0.00363178
2.73014e-05
0.00362789
2.9156e-05
0.00362376
3.08687e-05
0.00361941
3.24556e-05
0.00361486
3.3931e-05
0.00361011
3.53078e-05
0.00360518
3.65976e-05
0.00360008
3.78107e-05
0.00359483
3.89565e-05
0.00358943
4.0043e-05
0.00358388
4.10785e-05
0.00357819
4.20682e-05
0.00357238
4.30211e-05
0.00356644
4.39374e-05
0.00356037
4.48316e-05
0.00355419
4.5691e-05
0.00354789
4.65496e-05
0.00354148
4.73585e-05
4.82147e-05
0.00317426
-0.000358039
0.00321571
-0.000343053
0.00325529
-0.000327264
0.00329294
-0.000310791
0.00332858
-0.00029376
0.00336215
-0.00027631
0.00339361
-0.000258583
0.00342296
-0.000240724
0.00345017
-0.000222879
0.00347528
-0.000205189
0.0034983
-0.00018779
0.00351929
-0.000170806
0.0035383
-0.000154351
0.0035554
-0.000138524
0.00357069
-0.000123405
0.00358424
-0.00010906
0.00359616
-9.55362e-05
0.00360654
-8.28617e-05
0.00361549
-7.10495e-05
0.00362311
-6.00971e-05
0.0036295
-4.99888e-05
0.00363475
-4.06976e-05
0.00363897
-3.21876e-05
0.00364224
-2.44164e-05
0.00364465
-1.73368e-05
0.00364627
-1.08993e-05
0.00364717
-5.05328e-06
0.00364742
2.52163e-07
0.00364708
5.06375e-06
0.00364621
9.42986e-06
0.00364485
1.33937e-05
0.00364305
1.6996e-05
0.00364085
2.02741e-05
0.00363829
2.32625e-05
0.00363539
2.59921e-05
0.00363218
2.84912e-05
0.0036287
3.07851e-05
0.00362496
3.28966e-05
0.00362098
3.48462e-05
0.00361679
3.6652e-05
0.00361239
3.83306e-05
0.0036078
3.98965e-05
0.00360303
4.1363e-05
0.0035981
4.27418e-05
0.00359301
4.40437e-05
0.00358778
4.52779e-05
0.0035824
4.64537e-05
0.00357689
4.75772e-05
0.00357126
4.86586e-05
0.0035655
4.96981e-05
0.00355962
5.07122e-05
0.00355362
5.16866e-05
0.00354751
5.266e-05
0.00354129
5.35766e-05
5.45469e-05
0.00317299
-0.000400553
0.0032138
-0.000383863
0.00325281
-0.000366272
0.00328993
-0.00034791
0.00332509
-0.000328921
0.00335823
-0.000309456
0.00338932
-0.000289675
0.00341834
-0.000269741
0.00344528
-0.000249815
0.00347014
-0.000230056
0.00349297
-0.000210616
0.0035138
-0.000191635
0.00353269
-0.00017324
0.00354971
-0.000155541
0.00356493
-0.000138631
0.00357845
-0.000122581
0.00359036
-0.000107446
0.00360076
-9.32581e-05
0.00360974
-8.00323e-05
0.00361741
-6.77664e-05
0.00362386
-5.64434e-05
0.0036292
-4.60334e-05
0.00363351
-3.6497e-05
0.00363688
-2.77869e-05
0.00363939
-1.98508e-05
0.00364113
-1.26336e-05
0.00364215
-6.07888e-06
0.00364254
-1.2956e-07
0.00364233
5.26582e-06
0.0036416
1.0162e-05
0.00364039
1.4607e-05
0.00363874
1.86462e-05
0.00363669
2.23217e-05
0.00363428
2.56718e-05
0.00363154
2.87315e-05
0.0036285
3.15322e-05
0.00362518
3.41025e-05
0.00362161
3.64678e-05
0.00361781
3.8651e-05
0.00361379
4.06727e-05
0.00360957
4.25513e-05
0.00360516
4.43033e-05
0.00360058
4.59435e-05
0.00359584
4.7485e-05
0.00359094
4.894e-05
0.0035859
5.03188e-05
0.00358072
5.16319e-05
0.00357541
5.28861e-05
0.00356998
5.4093e-05
0.00356442
5.52526e-05
0.00355875
5.63836e-05
0.00355297
5.74698e-05
0.00354707
5.85548e-05
0.00354107
5.95759e-05
6.06572e-05
0.00317142
-0.000442314
0.00321154
-0.000423978
0.00324991
-0.000404642
0.00328644
-0.00038445
0.00332108
-0.000363558
0.00335376
-0.000342135
0.00338444
-0.000320355
0.0034131
-0.000298398
0.00343973
-0.000276443
0.00346433
-0.000254664
0.00348695
-0.000233229
0.0035076
-0.000212293
0.00352636
-0.000191997
0.00354328
-0.000172463
0.00355844
-0.000153793
0.00357193
-0.000136069
0.00358384
-0.00011935
0.00359425
-0.000103672
0.00360327
-8.90546e-05
0.003611
-7.54941e-05
0.00361753
-6.29729e-05
0.00362295
-5.14588e-05
0.00362737
-4.09087e-05
0.00363085
-3.12709e-05
0.00363349
-2.24881e-05
0.00363535
-1.44997e-05
0.00363652
-7.24368e-06
0.00363705
-6.5778e-07
0.003637
5.31593e-06
0.00363642
1.07365e-05
0.00363537
1.56576e-05
0.00363389
2.01291e-05
0.00363201
2.41976e-05
0.00362978
2.79055e-05
0.00362722
3.12913e-05
0.00362436
3.43899e-05
0.00362123
3.72328e-05
0.00361785
3.98483e-05
0.00361424
4.22617e-05
0.00361042
4.44958e-05
0.0036064
4.65711e-05
0.00360219
4.85057e-05
0.00359782
5.03161e-05
0.00359329
5.20169e-05
0.00358861
5.36217e-05
0.00358379
5.51417e-05
0.00357883
5.65887e-05
0.00357374
5.79703e-05
0.00356854
5.92991e-05
0.00356322
6.05754e-05
0.00355778
6.18198e-05
0.00355223
6.30144e-05
0.00354658
6.42075e-05
0.00354083
6.53295e-05
6.65182e-05
0.00316952
-0.000483258
0.00320888
-0.000463339
0.00324656
-0.000442321
0.00328247
-0.000420361
0.00331654
-0.000397629
0.00334871
-0.000374309
0.00337895
-0.00035059
0.00340722
-0.000326668
0.00343351
-0.000302738
0.00345784
-0.000278991
0.00348022
-0.00025561
0.0035007
-0.000232766
0.00351931
-0.000210612
0.00353613
-0.000189282
0.00355123
-0.000168889
0.00356468
-0.000149523
0.00357658
-0.000131249
0.00358702
-0.000114109
0.00359609
-9.81225e-05
0.00360388
-8.32881e-05
0.00361049
-6.95869e-05
0.00361602
-5.69846e-05
0.00362054
-4.54347e-05
0.00362416
-3.48814e-05
0.00362693
-2.52626e-05
0.00362894
-1.65125e-05
0.00363026
-8.56353e-06
0.00363095
-1.3484e-06
0.00363107
5.19693e-06
0.00363067
1.1136e-05
0.0036298
1.65275e-05
0.00362851
2.14264e-05
0.00362682
2.58831e-05
0.00362478
2.99441e-05
0.00362242
3.36517e-05
0.00361977
3.7044e-05
0.00361684
4.01555e-05
0.00361368
4.30172e-05
0.00361028
4.56569e-05
0.00360668
4.80996e-05
0.00360288
5.03677e-05
0.0035989
5.24811e-05
0.00359476
5.44581e-05
0.00359046
5.63145e-05
0.00358602
5.80652e-05
0.00358144
5.97227e-05
0.00357673
6.12999e-05
0.00357189
6.28049e-05
0.00356694
6.42519e-05
0.00356188
6.5641e-05
0.0035567
6.6995e-05
0.00355142
6.8294e-05
0.00354604
6.95913e-05
0.00354056
7.08104e-05
7.21023e-05
0.00316724
-0.000523329
0.00320579
-0.000501892
0.00324273
-0.00047926
0.00327797
-0.0004556
0.00331143
-0.000431095
0.00334307
-0.000405943
0.00337283
-0.000380349
0.00340068
-0.000354524
0.00342662
-0.000328678
0.00345065
-0.00030302
0.00347279
-0.000277747
0.00349307
-0.000253044
0.00351153
-0.000229078
0.00352825
-0.000205995
0.00354327
-0.000183918
0.0035567
-0.000162945
0.0035686
-0.000143148
0.00357906
-0.000124573
0.00358818
-0.000107243
0.00359605
-9.11568e-05
0.00360276
-7.62953e-05
0.00360839
-6.2622e-05
0.00361305
-5.00874e-05
0.0036168
-3.86318e-05
0.00361972
-2.81886e-05
0.0036219
-1.86869e-05
0.00362339
-1.00541e-05
0.00362426
-2.21773e-06
0.00362456
4.8919e-06
0.00362436
1.13429e-05
0.00362368
1.71989e-05
0.00362259
2.25194e-05
0.00362112
2.73591e-05
0.00361929
3.17684e-05
0.00361715
3.5793e-05
0.00361472
3.94744e-05
0.00361202
4.28501e-05
0.00360909
4.59537e-05
0.00360593
4.88154e-05
0.00360257
5.14625e-05
0.00359902
5.39192e-05
0.00359529
5.62074e-05
0.0035914
5.83467e-05
0.00358736
6.03545e-05
0.00358318
6.22471e-05
0.00357886
6.40378e-05
0.00357442
6.5741e-05
0.00356986
6.73654e-05
0.00356519
6.89264e-05
0.0035604
7.04242e-05
0.00355552
7.18834e-05
0.00355053
7.32827e-05
0.00354544
7.46797e-05
0.00354026
7.59916e-05
7.73823e-05
0.00316452
-0.000562474
0.00320222
-0.000539592
0.00323838
-0.000515417
0.00327291
-0.000490128
0.00330573
-0.000463922
0.0033368
-0.000437008
0.00336606
-0.000409606
0.00339348
-0.000381943
0.00341904
-0.000354246
0.00344276
-0.000326736
0.00346464
-0.000299627
0.00348471
-0.000273118
0.00350302
-0.000247389
0.00351963
-0.000222598
0.00353459
-0.000198878
0.00354798
-0.000176336
0.00355988
-0.00015505
0.00357038
-0.000135071
0.00357956
-0.000116423
0.00358751
-9.91093e-05
0.00359432
-8.31083e-05
0.00360008
-6.83824e-05
0.00360487
-5.48793e-05
0.00360878
-4.25356e-05
0.00361187
-3.12804e-05
0.00361422
-2.10381e-05
0.0036159
-1.17312e-05
0.00361696
-3.28214e-06
0.00361747
4.38397e-06
0.00361747
1.13397e-05
0.00361702
1.76538e-05
0.00361615
2.33899e-05
0.0036149
2.86069e-05
0.00361331
3.3359e-05
0.00361141
3.76955e-05
0.00360922
4.16611e-05
0.00360677
4.52961e-05
0.00360409
4.86368e-05
0.00360119
5.1716e-05
0.00359809
5.45628e-05
0.00359481
5.72036e-05
0.00359135
5.9662e-05
0.00358774
6.19592e-05
0.00358398
6.4114e-05
0.00358008
6.61439e-05
0.00357606
6.80634e-05
0.00357191
6.98881e-05
0.00356765
7.16273e-05
0.00356328
7.32977e-05
0.0035588
7.48995e-05
0.00355423
7.64594e-05
0.00354955
7.79543e-05
0.00354479
7.94464e-05
0.00353993
8.08463e-05
8.2331e-05
0.00316133
-0.000600649
0.00319814
-0.000576396
0.00323347
-0.000550753
0.00326726
-0.000523912
0.00329941
-0.000496078
0.00332988
-0.000467476
0.00335861
-0.000438338
0.00338558
-0.000408907
0.00341076
-0.000379424
0.00343415
-0.000350126
0.00345576
-0.00032124
0.00347562
-0.000292981
0.00349377
-0.000265541
0.00351027
-0.00023909
0.00352516
-0.000213771
0.00353852
-0.000189699
0.00355043
-0.000166959
0.00356097
-0.000145607
0.00357022
-0.000125672
0.00357826
-0.000107155
0.00358519
-9.00366e-05
0.00359108
-7.42777e-05
0.00359603
-5.98232e-05
0.0036001
-4.66064e-05
0.00360337
-3.45524e-05
0.00360591
-2.35812e-05
0.00360779
-1.36105e-05
0.00360907
-4.55804e-06
0.0036098
3.6562e-06
0.00361003
1.11092e-05
0.00360981
1.78743e-05
0.00360918
2.40195e-05
0.00360818
2.96077e-05
0.00360684
3.46969e-05
0.0036052
3.93397e-05
0.00360327
4.35841e-05
0.0036011
4.74732e-05
0.00359869
5.1046e-05
0.00359606
5.43375e-05
0.00359325
5.73792e-05
0.00359025
6.01992e-05
0.00358709
6.28229e-05
0.00358378
6.5273e-05
0.00358032
6.75699e-05
0.00357673
6.97323e-05
0.00357302
7.17758e-05
0.00356919
7.3717e-05
0.00356525
7.55662e-05
0.00356121
7.73411e-05
0.00355707
7.9042e-05
0.00355283
8.06976e-05
0.0035485
8.2283e-05
0.00354408
8.38651e-05
0.00353958
8.53479e-05
8.69215e-05
0.00315761
-0.000637814
0.00319348
-0.000612268
0.00322797
-0.000585238
0.00326098
-0.000556922
0.00329244
-0.000527539
0.00332229
-0.000497325
0.00335048
-0.000466527
0.00337697
-0.0004354
0.00340175
-0.0004042
0.0034248
-0.000373179
0.00344614
-0.00034258
0.00346579
-0.000312629
0.00348378
-0.000283532
0.00350016
-0.00025547
0.00351499
-0.000228598
0.00352833
-0.000203037
0.00354025
-0.000178881
0.00355083
-0.000156191
0.00356016
-0.000134996
0.00356831
-0.000115303
0.00357536
-9.70912e-05
0.0035814
-8.03197e-05
0.00358651
-6.49319e-05
0.00359076
-5.08579e-05
0.00359423
-3.80191e-05
0.00359698
-2.63313e-05
0.00359908
-1.57079e-05
0.00360058
-6.06182e-06
0.00360155
2.69171e-06
0.00360202
1.06338e-05
0.00360205
1.78425e-05
0.00360168
2.43898e-05
0.00360095
3.03428e-05
0.00359988
3.57628e-05
0.00359852
4.07061e-05
0.00359688
4.52235e-05
0.00359499
4.93612e-05
0.00359287
5.31606e-05
0.00359055
5.66591e-05
0.00358804
5.98902e-05
0.00358536
6.28842e-05
0.00358251
6.56679e-05
0.00357952
6.82658e-05
0.00357639
7.06996e-05
0.00357313
7.29892e-05
0.00356976
7.51515e-05
0.00356627
7.7204e-05
0.00356268
7.91578e-05
0.00355899
8.10319e-05
0.0035552
8.28266e-05
0.00355133
8.45724e-05
0.00354737
8.62431e-05
0.00354332
8.79097e-05
0.0035392
8.947e-05
9.11267e-05
0.00315331
-0.000673938
0.00318822
-0.000647181
0.00322183
-0.000618845
0.00325404
-0.000589136
0.00328479
-0.000558285
0.003314
-0.000526539
0.00334163
-0.000494158
0.00336764
-0.00046141
0.00339201
-0.000428565
0.00341472
-0.000395891
0.00343578
-0.000363642
0.00345521
-0.000332059
0.00347304
-0.000301361
0.00348931
-0.000271741
0.00350408
-0.000243363
0.0035174
-0.000216357
0.00352934
-0.000190824
0.00353998
-0.000166829
0.00354939
-0.000144407
0.00355765
-0.000123565
0.00356484
-0.000104284
0.00357104
-8.6521e-05
0.00357633
-7.02187e-05
0.00358077
-5.53041e-05
0.00358445
-4.16952e-05
0.00358742
-2.93039e-05
0.00358975
-1.80392e-05
0.0035915
-7.80988e-06
0.00359272
1.4736e-06
0.00359346
9.89614e-06
0.00359376
1.75406e-05
0.00359367
2.44828e-05
0.00359322
3.07935e-05
0.00359244
3.65378e-05
0.00359137
4.17752e-05
0.00359004
4.65596e-05
0.00358846
5.09398e-05
0.00358666
5.496e-05
0.00358466
5.86597e-05
0.00358247
6.20747e-05
0.00358012
6.52369e-05
0.00357761
6.81751e-05
0.00357496
7.09152e-05
0.00357218
7.34802e-05
0.00356928
7.58915e-05
0.00356627
7.81669e-05
0.00356314
8.03252e-05
0.00355992
8.2378e-05
0.00355661
8.43456e-05
0.00355321
8.62284e-05
0.00354972
8.80588e-05
0.00354616
8.98088e-05
0.00354251
9.15541e-05
0.0035388
9.3186e-05
9.49199e-05
0.00314837
0.0031823
-0.000681111
0.003215
-0.000651553
0.0032464
-0.000620536
0.00327642
-0.0005883
0.00330498
-0.000555104
0.00333205
-0.00052122
0.00335756
-0.000486928
0.00338151
-0.000452513
0.00340388
-0.000418255
0.00342466
-0.000384423
0.00344387
-0.000351272
0.00346154
-0.000319031
0.00347771
-0.000287906
0.00349241
-0.00025807
0.00350572
-0.000229664
0.00351769
-0.000202794
0.00352839
-0.00017753
0.0035379
-0.000153914
0.00354629
-0.000131951
0.00355363
-0.000111626
0.00356
-9.28942e-05
0.00356548
-7.56971e-05
0.00357013
-5.99592e-05
0.00357403
-4.55955e-05
0.00357724
-3.25141e-05
0.00357983
-2.06204e-05
0.00358183
-9.81867e-06
0.00358332
-1.49911e-08
0.00358434
8.87898e-06
0.00358493
1.69509e-05
0.00358513
2.42801e-05
0.00358498
3.09413e-05
0.00358452
3.7003e-05
0.00358377
4.25277e-05
0.00358275
4.75725e-05
0.0035815
5.21891e-05
0.00358004
5.64238e-05
0.00357838
6.03187e-05
0.00357655
6.39114e-05
0.00357455
6.72359e-05
0.0035724
7.03226e-05
0.00357012
7.3199e-05
0.00356771
7.58894e-05
0.00356518
7.84164e-05
0.00356255
8.07989e-05
0.00355982
8.3057e-05
0.00355699
8.52028e-05
0.00355408
8.72579e-05
0.00355109
8.92227e-05
0.00354801
9.11315e-05
0.00354487
9.29548e-05
0.00354165
9.47725e-05
0.00353836
9.64699e-05
9.82745e-05
0.00317567
-0.000714042
0.00320746
-0.000683347
0.00323804
-0.000651109
0.00326731
-0.000617574
0.00329522
-0.000583012
0.0033217
-0.000547706
0.00334673
-0.00051195
0.00337025
-0.000476041
0.00339227
-0.000440272
0.00341277
-0.000404925
0.00343177
-0.000370269
0.00344928
-0.000336545
0.00346535
-0.00030397
0.00348
-0.000272727
0.0034933
-0.000242966
0.00350531
-0.0002148
0.00351609
-0.000188305
0.0035257
-0.000163526
0.00353422
-0.000140474
0.00354172
-0.000119129
0.00354828
-9.94524e-05
0.00355397
-8.13808e-05
0.00355884
-6.48376e-05
0.00356298
-4.97349e-05
0.00356645
-3.59776e-05
0.00356929
-2.34673e-05
0.00357158
-1.21044e-05
0.00357336
-1.79128e-06
0.00357467
7.56513e-06
0.00357557
1.60557e-05
0.00357608
2.37638e-05
0.00357626
3.07677e-05
0.00357612
3.71393e-05
0.0035757
4.29444e-05
0.00357503
4.82429e-05
0.00357413
5.30889e-05
0.00357302
5.75317e-05
0.00357173
6.16153e-05
0.00357026
6.53794e-05
0.00356864
6.88599e-05
0.00356687
7.20888e-05
0.00356497
7.50951e-05
0.00356296
7.79045e-05
0.00356083
8.0541e-05
0.00355861
8.30244e-05
0.00355629
8.53758e-05
0.00355388
8.76083e-05
0.0035514
8.97445e-05
0.00354884
9.1785e-05
0.0035462
9.37657e-05
0.0035435
9.56558e-05
0.00354073
9.75393e-05
0.00353791
9.92955e-05
0.000101164
0.00316829
-0.000745962
0.00319916
-0.00071422
0.0032289
-0.000680847
0.00325743
-0.0006461
0.00328467
-0.000610258
0.00331058
-0.000573614
0.0033351
-0.000536474
0.00335821
-0.000499148
0.00337988
-0.000461942
0.00340011
-0.000425151
0.00341889
-0.000389054
0.00343626
-0.000353908
0.00345223
-0.000319939
0.00346684
-0.000287341
0.00348014
-0.000256271
0.0034922
-0.000226851
0.00350306
-0.000199164
0.00351279
-0.000173257
0.00352146
-0.000149144
0.00352913
-0.000126808
0.00353589
-0.000106209
0.00354179
-8.72837e-05
0.00354691
-6.99537e-05
0.0035513
-5.41284e-05
0.00355504
-3.97098e-05
0.00355816
-2.65959e-05
0.00356074
-1.46837e-05
0.00356282
-3.87179e-06
0.00356445
5.93717e-06
0.00356567
1.48373e-05
0.00356652
2.29157e-05
0.00356703
3.02543e-05
0.00356724
3.69282e-05
0.00356718
4.30062e-05
0.00356687
4.8551e-05
0.00356634
5.36197e-05
0.00356561
5.82635e-05
0.0035647
6.2529e-05
0.00356362
6.64578e-05
0.00356239
7.00875e-05
0.00356103
7.34519e-05
0.00355954
7.65816e-05
0.00355794
7.95034e-05
0.00355624
8.22427e-05
0.00355445
8.48203e-05
0.00355256
8.72584e-05
0.0035506
8.95709e-05
0.00354856
9.17814e-05
0.00354646
9.38907e-05
0.00354429
9.59366e-05
0.00354206
9.78865e-05
0.00353977
9.98289e-05
0.00353742
0.000101637
0.000103562
0.00316011
-0.000776867
0.00319006
-0.000744166
0.00321896
-0.000709749
0.00324674
-0.000673879
0.00327332
-0.000636842
0.00329866
-0.000598945
0.00332269
-0.000560504
0.00334538
-0.000521839
0.0033667
-0.00048327
0.00338666
-0.000445105
0.00340524
-0.000407635
0.00342246
-0.000371128
0.00343834
-0.000335822
0.00345292
-0.00030192
0.00346624
-0.00026959
0.00347835
-0.00023896
0.0034893
-0.000210118
0.00349916
-0.000183117
0.00350799
-0.000157974
0.00351586
-0.000134675
0.00352283
-0.000113178
0.00352897
-9.34201e-05
0.00353433
-7.53222e-05
0.003539
-5.87912e-05
0.00354301
-4.37263e-05
0.00354644
-3.00224e-05
0.00354933
-1.75731e-05
0.00355173
-6.27332e-06
0.00355369
3.97791e-06
0.00355525
1.32782e-05
0.00355645
2.1718e-05
0.00355732
2.93828e-05
0.0035579
3.63509e-05
0.00355821
4.2694e-05
0.00355828
4.84777e-05
0.00355814
5.37615e-05
0.0035578
5.85992e-05
0.00355729
6.30394e-05
0.00355663
6.71258e-05
0.00355582
7.08978e-05
0.00355488
7.43907e-05
0.00355382
7.76366e-05
0.00355266
8.06639e-05
0.0035514
8.3499e-05
0.00355006
8.61638e-05
0.00354864
8.86817e-05
0.00354714
9.10671e-05
0.00354558
9.33448e-05
0.00354395
9.55158e-05
0.00354227
9.76195e-05
0.00354053
9.96221e-05
0.00353875
0.000101616
0.00353692
0.000103469
0.000105443
0.0031511
-0.000806758
0.00318012
-0.00077319
0.00320819
-0.000737817
0.00323522
-0.000700912
0.00326115
-0.00066277
0.00328591
-0.000623705
0.00330945
-0.000584044
0.00333173
-0.00054412
0.00335273
-0.000504264
0.00337242
-0.000464796
0.0033908
-0.00042602
0.00340789
-0.000388214
0.00342369
-0.000351628
0.00343825
-0.000316476
0.00345159
-0.000282934
0.00346377
-0.000251136
0.00347483
-0.000221179
0.00348483
-0.00019312
0.00349384
-0.000166978
0.0035019
-0.000142742
0.0035091
-0.000120372
0.00351548
-9.98045e-05
0.00352112
-8.09581e-05
0.00352607
-6.37386e-05
0.00353038
-4.80428e-05
0.00353412
-3.37627e-05
0.00353734
-2.07888e-05
0.00354008
-9.0127e-06
0.00354239
1.67021e-06
0.0035443
1.13607e-05
0.00354587
2.01527e-05
0.00354712
2.8135e-05
0.00354808
3.53888e-05
0.00354878
4.19889e-05
0.00354926
4.80036e-05
0.00354953
5.34948e-05
0.00354961
5.85188e-05
0.00354952
6.31262e-05
0.00354928
6.73628e-05
0.00354891
7.12697e-05
0.00354842
7.48838e-05
0.00354781
7.82387e-05
0.00354711
8.13641e-05
0.00354633
8.42877e-05
0.00354546
8.70324e-05
0.00354452
8.96225e-05
0.00354351
9.20734e-05
0.00354244
9.4411e-05
0.00354132
9.66361e-05
0.00354015
9.87902e-05
0.00353894
0.000100838
0.00353768
0.000102875
0.00353638
0.000104765
0.000106781
0.0031412
-0.000835643
0.00316931
-0.000801296
0.00319655
-0.000765059
0.00322285
-0.000727209
0.00324813
-0.000688048
0.00327232
-0.000647901
0.00329538
-0.000607104
0.00331726
-0.000566001
0.00333793
-0.000524934
0.00335737
-0.000484235
0.00337557
-0.000444219
0.00339253
-0.000405178
0.00340828
-0.00036737
0.00342282
-0.00033102
0.0034362
-0.000296314
0.00344846
-0.000263393
0.00345964
-0.000232361
0.0034698
-0.000203278
0.00347899
-0.00017617
0.00348727
-0.000151026
0.00349471
-0.000127807
0.00350135
-0.000106451
0.00350727
-8.68763e-05
0.00351252
-6.8986e-05
0.00351715
-5.2675e-05
0.00352122
-3.7833e-05
0.00352478
-2.43474e-05
0.00352787
-1.21067e-05
0.00353055
-1.00301e-06
0.00353284
9.06761e-06
0.00353479
1.82021e-05
0.00353643
2.64928e-05
0.0035378
3.40236e-05
0.00353891
4.08722e-05
0.00353981
4.71096e-05
0.0035405
5.28003e-05
0.00354102
5.80026e-05
0.00354138
6.27695e-05
0.00354159
6.71484e-05
0.00354168
7.11824e-05
0.00354165
7.49101e-05
0.00354152
7.83664e-05
0.00354131
8.15822e-05
0.00354101
8.45865e-05
0.00354064
8.74034e-05
0.0035402
9.00582e-05
0.00353971
9.25668e-05
0.00353916
9.49563e-05
0.00353857
9.72278e-05
0.00353794
9.94243e-05
0.00353726
0.000101509
0.00353656
0.000103582
0.00353582
0.000105501
0.00010755
0.00313038
-0.000863532
0.00315759
-0.000828499
0.00318401
-0.000791488
0.00320959
-0.000752782
0.00323423
-0.000712691
0.00325788
-0.000671547
0.00328047
-0.000629697
0.00330196
-0.000587494
0.00332232
-0.000545292
0.00334152
-0.000503433
0.00335954
-0.000462246
0.0033764
-0.000422031
0.00339209
-0.000383059
0.00340663
-0.000345566
0.00342006
-0.000309743
0.00343241
-0.000275744
0.00344373
-0.000243676
0.00345406
-0.000213606
0.00346345
-0.000185562
0.00347196
-0.000159539
0.00347965
-0.000135497
0.00348658
-0.000113376
0.00349279
-9.30921e-05
0.00349836
-7.45488e-05
0.00350332
-5.76388e-05
0.00350774
-4.22493e-05
0.00351165
-2.82651e-05
0.00351512
-1.5572e-05
0.00351817
-4.05891e-06
0.00352086
6.38145e-06
0.00352321
1.58486e-05
0.00352527
2.44381e-05
0.00352706
3.22369e-05
0.0035286
3.93253e-05
0.00352994
4.57769e-05
0.00353108
5.16585e-05
0.00353205
5.7031e-05
0.00353287
6.19491e-05
0.00353355
6.64624e-05
0.00353412
7.06155e-05
0.00353458
7.44487e-05
0.00353495
7.79983e-05
0.00353524
8.12966e-05
0.00353545
8.43737e-05
0.0035356
8.72547e-05
0.00353569
8.9966e-05
0.00353573
9.25242e-05
0.00353573
9.49576e-05
0.00353569
9.72673e-05
0.00353562