# Probe 0 (2 -0.5 0)
# Probe 1 (2 0.5 0)
#       Probe             0             1
#        Time
        0.005      -11.0714      -11.0714
         0.01      0.778986      0.778984
        0.015    -0.0851674    -0.0851666
         0.02    -0.0965347    -0.0965344
        0.025     -0.117853     -0.117852
         0.03     -0.126059     -0.126059
        0.035     -0.129268     -0.129267
         0.04     -0.129584     -0.129583
        0.045      -0.12817      -0.12817
         0.05     -0.125711     -0.125711
        0.055     -0.122633     -0.122633
         0.06      -0.11921     -0.119209
        0.065      -0.11562      -0.11562
         0.07     -0.111994     -0.111994
        0.075     -0.108414     -0.108413
         0.08     -0.104912     -0.104912
        0.085     -0.101544     -0.101544
         0.09    -0.0983134    -0.0983132
        0.095    -0.0952368    -0.0952367
          0.1    -0.0923138    -0.0923137
        0.105     -0.089545    -0.0895449
         0.11    -0.0869277    -0.0869276
        0.115    -0.0844345    -0.0844344
         0.12    -0.0820968    -0.0820968
        0.125    -0.0798874    -0.0798874
         0.13    -0.0777907    -0.0777906
        0.135    -0.0758074    -0.0758074
         0.14    -0.0739293    -0.0739293
        0.145    -0.0721503    -0.0721503
         0.15    -0.0704617    -0.0704615
        0.155    -0.0688498    -0.0688496
         0.16    -0.0673229    -0.0673228
        0.165    -0.0658759    -0.0658757
         0.17    -0.0644935    -0.0644934
        0.175    -0.0631753    -0.0631752
         0.18    -0.0619176    -0.0619175
        0.185    -0.0607155    -0.0607155
         0.19    -0.0595667    -0.0595667
        0.195    -0.0584643    -0.0584643
          0.2    -0.0574031    -0.0574031
        0.205    -0.0563903    -0.0563902
         0.21    -0.0554146    -0.0554145
        0.215    -0.0544843    -0.0544843
         0.22    -0.0535876    -0.0535876
        0.225    -0.0527223    -0.0527223
         0.23    -0.0518882    -0.0518882
        0.235    -0.0510844    -0.0510844
         0.24    -0.0503093    -0.0503093
        0.245    -0.0495593    -0.0495593
         0.25    -0.0488263    -0.0488263
        0.255    -0.0481345    -0.0481345
         0.26    -0.0474565    -0.0474565
        0.265    -0.0467997    -0.0467997
         0.27    -0.0461633    -0.0461633
        0.275    -0.0455454    -0.0455454
         0.28    -0.0449494    -0.0449494
        0.285    -0.0443739    -0.0443739
         0.29    -0.0438114    -0.0438114
        0.295    -0.0432653    -0.0432653
          0.3    -0.0427351    -0.0427351
        0.305    -0.0422204    -0.0422204
         0.31    -0.0417233    -0.0417233
        0.315     -0.041229     -0.041229
         0.32    -0.0407533    -0.0407533
        0.325    -0.0402928    -0.0402928
         0.33    -0.0398436    -0.0398436
        0.335    -0.0394058    -0.0394058
         0.34    -0.0389789    -0.0389789
        0.345    -0.0385577    -0.0385577
         0.35     -0.038162     -0.038162
        0.355    -0.0377642    -0.0377642
         0.36     -0.037382    -0.0373821
        0.365    -0.0370062    -0.0370062
         0.37    -0.0366389    -0.0366389
        0.375    -0.0362773    -0.0362773
         0.38    -0.0359337    -0.0359337
        0.385    -0.0355927    -0.0355927
         0.39    -0.0352597    -0.0352597
        0.395    -0.0349358    -0.0349358
          0.4    -0.0346167    -0.0346167
        0.405    -0.0343036    -0.0343036
         0.41    -0.0340007    -0.0340008
        0.415    -0.0337052    -0.0337052
         0.42     -0.033416    -0.0334161
        0.425    -0.0331337    -0.0331338
         0.43    -0.0328579    -0.0328579
        0.435    -0.0325883    -0.0325884
         0.44     -0.032325     -0.032325
        0.445    -0.0320673    -0.0320673
         0.45    -0.0318155    -0.0318154
        0.455    -0.0315697    -0.0315696
         0.46    -0.0313286    -0.0313285
        0.465     -0.031088    -0.0310879
         0.47    -0.0308673    -0.0308673
        0.475    -0.0306422    -0.0306422
         0.48    -0.0304227    -0.0304227
        0.485    -0.0302083    -0.0302083
         0.49    -0.0299987    -0.0299987
        0.495    -0.0297944    -0.0297944
          0.5    -0.0295943    -0.0295942
        0.505    -0.0293994    -0.0293994
         0.51    -0.0292094    -0.0292094
        0.515    -0.0290212    -0.0290212
         0.52    -0.0288391    -0.0288391
        0.525    -0.0286616    -0.0286616
         0.53    -0.0284898    -0.0284898
        0.535     -0.028321     -0.028321
         0.54    -0.0281562    -0.0281562
        0.545    -0.0279954    -0.0279954
         0.55    -0.0278388    -0.0278388
        0.555     -0.027686     -0.027686
         0.56    -0.0275373    -0.0275373
        0.565    -0.0273922    -0.0273922
         0.57    -0.0272509    -0.0272509
        0.575    -0.0271133    -0.0271133
         0.58    -0.0269795    -0.0269795
        0.585    -0.0268493    -0.0268493
         0.59    -0.0267226    -0.0267226
        0.595    -0.0265989    -0.0265989
          0.6    -0.0264795    -0.0264795
        0.605    -0.0263634    -0.0263634
         0.61    -0.0262501    -0.0262501
        0.615    -0.0261347    -0.0261347
         0.62    -0.0260394    -0.0260393
        0.625    -0.0259373    -0.0259373
         0.63    -0.0258376    -0.0258375
        0.635    -0.0257417    -0.0257417
         0.64     -0.025649    -0.0256489
        0.645    -0.0255595    -0.0255594
         0.65    -0.0254731    -0.0254731
        0.655    -0.0253904    -0.0253903
         0.66    -0.0253106    -0.0253105
        0.665    -0.0252339    -0.0252339
         0.67    -0.0251604    -0.0251603
        0.675    -0.0250908    -0.0250908
         0.68    -0.0250237    -0.0250237
        0.685    -0.0249569    -0.0249569
         0.69    -0.0248959    -0.0248959
        0.695    -0.0248382    -0.0248382
          0.7     -0.024783     -0.024783
        0.705    -0.0247309    -0.0247308
         0.71    -0.0246814    -0.0246813
        0.715    -0.0246347    -0.0246346
         0.72    -0.0245861    -0.0245861
        0.725     -0.024551     -0.024551
         0.73    -0.0245129    -0.0245129
        0.735    -0.0244758    -0.0244757
         0.74    -0.0244466    -0.0244466
        0.745    -0.0244173    -0.0244173
         0.75    -0.0243905    -0.0243905
        0.755    -0.0243666    -0.0243665
         0.76    -0.0243458    -0.0243457
        0.765    -0.0243276    -0.0243275
         0.77    -0.0243123    -0.0243122
        0.775    -0.0242994    -0.0242994
         0.78    -0.0242899    -0.0242899
        0.785    -0.0242829    -0.0242829
         0.79    -0.0242786    -0.0242785
        0.795     -0.024277    -0.0242769
          0.8    -0.0242783    -0.0242783
        0.805    -0.0242827    -0.0242826
         0.81    -0.0242888    -0.0242888
        0.815    -0.0242975    -0.0242975
         0.82    -0.0243093    -0.0243093
        0.825    -0.0243247    -0.0243246
         0.83     -0.024341     -0.024341
        0.835     -0.024361     -0.024361
         0.84    -0.0243835    -0.0243835
        0.845     -0.024409     -0.024409
         0.85    -0.0244369    -0.0244369
        0.855    -0.0244674    -0.0244674
         0.86    -0.0245004    -0.0245004
        0.865    -0.0245362    -0.0245362
         0.87    -0.0245745    -0.0245745
        0.875    -0.0246154    -0.0246154
         0.88    -0.0246588    -0.0246588
        0.885    -0.0247049    -0.0247049
         0.89    -0.0247535    -0.0247535
        0.895    -0.0248047    -0.0248046
          0.9    -0.0248583    -0.0248583
        0.905    -0.0249148    -0.0249147
         0.91    -0.0249736    -0.0249736
        0.915    -0.0250349    -0.0250349
         0.92    -0.0250989    -0.0250988
        0.925    -0.0251653    -0.0251653
         0.93    -0.0252343    -0.0252343
        0.935    -0.0253059    -0.0253059
         0.94    -0.0253803    -0.0253803
        0.945     -0.025457    -0.0254569
         0.95    -0.0255342    -0.0255342
        0.955    -0.0256159    -0.0256159
         0.96    -0.0256999    -0.0256999
        0.965    -0.0257863    -0.0257863
         0.97    -0.0258751     -0.025875
        0.975    -0.0259662    -0.0259662
         0.98    -0.0260594    -0.0260594
        0.985    -0.0261541    -0.0261541
         0.99    -0.0262482    -0.0262482
        0.995    -0.0263602    -0.0263602
            1    -0.0264633    -0.0264633
        1.005    -0.0265686    -0.0265686
         1.01    -0.0266765    -0.0266765
        1.015    -0.0267869    -0.0267868
         1.02    -0.0268997    -0.0268997
        1.025    -0.0270151     -0.027015
         1.03    -0.0271327    -0.0271327
        1.035    -0.0272524    -0.0272524
         1.04    -0.0273748    -0.0273748
        1.045    -0.0275013    -0.0275013
         1.05    -0.0276284    -0.0276284
        1.055    -0.0277575    -0.0277575
         1.06    -0.0278893    -0.0278893
        1.065    -0.0280215    -0.0280215
         1.07    -0.0281623    -0.0281623
        1.075    -0.0283012    -0.0283012
         1.08    -0.0284423    -0.0284423
        1.085    -0.0285861    -0.0285861
         1.09    -0.0287319    -0.0287319
        1.095      -0.02888      -0.02888
          1.1    -0.0290313    -0.0290313
        1.105    -0.0291839    -0.0291839
         1.11    -0.0293387    -0.0293387
        1.115    -0.0294959    -0.0294959
         1.12    -0.0296554    -0.0296554
        1.125    -0.0298173    -0.0298173
         1.13    -0.0299813    -0.0299813
        1.135    -0.0301473    -0.0301473
         1.14    -0.0303155    -0.0303155
        1.145    -0.0304864    -0.0304864
         1.15    -0.0306591    -0.0306591
        1.155     -0.030834     -0.030834
         1.16     -0.031011     -0.031011
        1.165    -0.0311905    -0.0311905
         1.17    -0.0313722    -0.0313722
        1.175    -0.0315557    -0.0315557
         1.18    -0.0317412    -0.0317412
        1.185    -0.0319286    -0.0319286
         1.19    -0.0321185    -0.0321185
        1.195    -0.0323101    -0.0323101
          1.2    -0.0325048    -0.0325048
        1.205    -0.0327009    -0.0327009
         1.21     -0.032899     -0.032899
        1.215    -0.0330992    -0.0330992
         1.22    -0.0333017    -0.0333017
        1.225    -0.0335061    -0.0335061
         1.23    -0.0337124    -0.0337124
        1.235    -0.0339208    -0.0339208
         1.24    -0.0341313    -0.0341313
        1.245    -0.0343436    -0.0343436
         1.25     -0.034558    -0.0345581
        1.255    -0.0347743    -0.0347743
         1.26    -0.0349923    -0.0349924
        1.265    -0.0352124    -0.0352124
         1.27    -0.0354344    -0.0354344
        1.275    -0.0356582    -0.0356582
         1.28    -0.0358844    -0.0358844
        1.285    -0.0361121    -0.0361122
         1.29    -0.0363418    -0.0363418
        1.295    -0.0365732    -0.0365732
          1.3    -0.0368066    -0.0368066
        1.305    -0.0370417    -0.0370418
         1.31    -0.0372787    -0.0372788
        1.315    -0.0375174    -0.0375174
         1.32    -0.0377583    -0.0377583
        1.325    -0.0380008    -0.0380008
         1.33    -0.0382449     -0.038245
        1.335    -0.0384909    -0.0384909
         1.34    -0.0387385    -0.0387386
        1.345     -0.038988     -0.038988
         1.35    -0.0392393    -0.0392393
        1.355    -0.0394923    -0.0394923
         1.36    -0.0397468    -0.0397468
        1.365    -0.0400035    -0.0400035
         1.37    -0.0402623    -0.0402623
        1.375    -0.0405274    -0.0405275
         1.38    -0.0407792    -0.0407792
        1.385    -0.0410421    -0.0410421
         1.39    -0.0413071    -0.0413071
        1.395    -0.0415737    -0.0415737
          1.4    -0.0418409    -0.0418409
        1.405    -0.0421101      -0.04211
         1.41    -0.0423806    -0.0423805
        1.415    -0.0426538    -0.0426537
         1.42    -0.0429276    -0.0429275
        1.425    -0.0432029    -0.0432028
         1.43    -0.0434796    -0.0434795
        1.435    -0.0437579    -0.0437578
         1.44    -0.0440377    -0.0440376
        1.445    -0.0443189    -0.0443188
         1.45    -0.0446016    -0.0446015
        1.455    -0.0448857    -0.0448856
         1.46    -0.0451708    -0.0451708
        1.465    -0.0454589    -0.0454589
         1.47    -0.0457464    -0.0457464
        1.475    -0.0460355    -0.0460354
         1.48    -0.0463265    -0.0463264
        1.485    -0.0466188    -0.0466188
         1.49    -0.0469125    -0.0469125
        1.495    -0.0472075    -0.0472074
          1.5    -0.0475037    -0.0475036
        1.505    -0.0478011    -0.0478011
         1.51    -0.0480998    -0.0480997
        1.515    -0.0483998    -0.0483997
         1.52    -0.0487013    -0.0487013
        1.525    -0.0490037    -0.0490037
         1.53    -0.0493073    -0.0493072
        1.535     -0.049612     -0.049612
         1.54    -0.0499179    -0.0499179
        1.545    -0.0502249    -0.0502248
         1.55    -0.0505328    -0.0505328
        1.555    -0.0508411     -0.050841
         1.56    -0.0511515    -0.0511515
        1.565    -0.0514601      -0.05146
         1.57    -0.0517807    -0.0517806
        1.575    -0.0520952    -0.0520951
         1.58    -0.0524094    -0.0524093
        1.585    -0.0527246    -0.0527246
         1.59    -0.0530412    -0.0530412
        1.595    -0.0533589    -0.0533589
          1.6    -0.0536776    -0.0536776
        1.605    -0.0539974    -0.0539974
         1.61    -0.0543181    -0.0543181
        1.615    -0.0546398    -0.0546398
         1.62     -0.054962     -0.054962
        1.625    -0.0552858    -0.0552857
         1.63    -0.0556114    -0.0556113
        1.635    -0.0559368    -0.0559367
         1.64     -0.056263    -0.0562629
        1.645    -0.0565901    -0.0565901
         1.65    -0.0569182    -0.0569182
        1.655    -0.0572472    -0.0572472
         1.66    -0.0575769    -0.0575769
        1.665    -0.0579074    -0.0579074
         1.67    -0.0582387    -0.0582386
        1.675    -0.0585707    -0.0585706
         1.68    -0.0589029    -0.0589029
        1.685    -0.0592374    -0.0592373
         1.69    -0.0595717    -0.0595717
        1.695    -0.0599067    -0.0599067
          1.7    -0.0602425    -0.0602424
        1.705    -0.0605789    -0.0605789
         1.71     -0.060916     -0.060916
        1.715    -0.0612538    -0.0612538
         1.72    -0.0615922    -0.0615922
        1.725    -0.0619312    -0.0619312
         1.73    -0.0622709    -0.0622709
        1.735    -0.0626111    -0.0626111
         1.74    -0.0629516    -0.0629516
        1.745    -0.0632939    -0.0632939
         1.75     -0.063636     -0.063636
        1.755    -0.0639785    -0.0639785
         1.76    -0.0643215    -0.0643215
        1.765    -0.0646651    -0.0646651
         1.77    -0.0650093    -0.0650093
        1.775    -0.0653539    -0.0653539
         1.78     -0.065699     -0.065699
        1.785    -0.0660446    -0.0660446
         1.79    -0.0663907    -0.0663907
        1.795    -0.0667371    -0.0667371
          1.8    -0.0670836    -0.0670836
        1.805    -0.0674318    -0.0674318
         1.81    -0.0677795    -0.0677796
        1.815    -0.0681276    -0.0681276
         1.82    -0.0684761    -0.0684761
        1.825    -0.0688249    -0.0688249
         1.83    -0.0691741    -0.0691741
        1.835    -0.0695236    -0.0695236
         1.84    -0.0698734    -0.0698735
        1.845    -0.0702236    -0.0702236
         1.85    -0.0705741    -0.0705741
        1.855    -0.0709248    -0.0709248
         1.86    -0.0712755    -0.0712755
        1.865    -0.0716273    -0.0716273
         1.87    -0.0719791    -0.0719791
        1.875    -0.0723309    -0.0723309
         1.88    -0.0726829    -0.0726829
        1.885    -0.0730351    -0.0730352
         1.89    -0.0733875    -0.0733876
        1.895    -0.0737402    -0.0737402
          1.9     -0.074093     -0.074093
        1.905     -0.074446     -0.074446
         1.91    -0.0747991    -0.0747991
        1.915    -0.0751523    -0.0751524
         1.92    -0.0755056    -0.0755056
        1.925    -0.0758589    -0.0758589
         1.93    -0.0762134    -0.0762135
        1.935    -0.0765667    -0.0765667
         1.94    -0.0769203    -0.0769203
        1.945    -0.0772741    -0.0772741
         1.95     -0.077628    -0.0776281
        1.955     -0.077982     -0.077982
         1.96     -0.078336     -0.078336
        1.965    -0.0786898    -0.0786898
         1.97    -0.0790436    -0.0790437
        1.975    -0.0793973    -0.0793973
         1.98      -0.07975      -0.07975
        1.985    -0.0801032    -0.0801032
         1.99    -0.0804615    -0.0804615
        1.995    -0.0808163    -0.0808163
            2    -0.0811701    -0.0811701
        2.005    -0.0815239    -0.0815239
         2.01    -0.0818776    -0.0818776
        2.015    -0.0822313    -0.0822313
         2.02    -0.0825849    -0.0825849
        2.025    -0.0829384    -0.0829384
         2.03    -0.0832917    -0.0832918
        2.035    -0.0836452    -0.0836453
         2.04    -0.0839982    -0.0839983
        2.045    -0.0843511    -0.0843511
         2.05    -0.0847039     -0.084704
        2.055    -0.0850578    -0.0850578
         2.06    -0.0854103    -0.0854103
        2.065    -0.0857625    -0.0857626
         2.07    -0.0861147    -0.0861147
        2.075    -0.0864667    -0.0864668
         2.08    -0.0868185    -0.0868186
        2.085    -0.0871702    -0.0871703
         2.09    -0.0875217    -0.0875217
        2.095     -0.087873     -0.087873
          2.1     -0.088224     -0.088224
        2.105    -0.0885747    -0.0885748
         2.11     -0.088925     -0.088925
        2.115    -0.0892758    -0.0892758
         2.12    -0.0896258    -0.0896259
        2.125    -0.0899758    -0.0899758
         2.13    -0.0903253    -0.0903254
        2.135    -0.0906743    -0.0906744
         2.14     -0.091023    -0.0910231
        2.145    -0.0913717    -0.0913717
         2.15    -0.0917194    -0.0917195
        2.155    -0.0920675    -0.0920675
         2.16    -0.0924151    -0.0924151
        2.165    -0.0927623    -0.0927624
         2.17    -0.0931089     -0.093109
        2.175     -0.093456     -0.093456
         2.18    -0.0938023    -0.0938023
        2.185     -0.094148    -0.0941481
         2.19    -0.0944934    -0.0944934
        2.195    -0.0948382    -0.0948383
          2.2    -0.0951827    -0.0951827
        2.205    -0.0955275    -0.0955275
         2.21    -0.0958713    -0.0958713
        2.215    -0.0962146    -0.0962146
         2.22    -0.0965576    -0.0965576
        2.225    -0.0969001    -0.0969001
         2.23     -0.097242     -0.097242
        2.235    -0.0975841    -0.0975841
         2.24    -0.0979255    -0.0979255
        2.245    -0.0982662    -0.0982663
         2.25    -0.0986066    -0.0986066
        2.255    -0.0989473    -0.0989473
         2.26    -0.0992857    -0.0992857
        2.265    -0.0996249     -0.099625
         2.27    -0.0999631    -0.0999631
        2.275     -0.100301     -0.100301
         2.28     -0.100638     -0.100638
        2.285     -0.100975     -0.100975
         2.29     -0.101312     -0.101312
        2.295     -0.101649     -0.101649
          2.3     -0.101983     -0.101983
        2.305     -0.102319     -0.102319
         2.31     -0.102653     -0.102653
        2.315     -0.102987     -0.102987
         2.32      -0.10332      -0.10332
        2.325     -0.103653     -0.103653
         2.33     -0.103985     -0.103985
        2.335     -0.104317     -0.104317
         2.34     -0.104648     -0.104648
        2.345     -0.104978     -0.104978
         2.35     -0.105308     -0.105309
        2.355     -0.105638     -0.105638
         2.36     -0.105966     -0.105966
        2.365     -0.106295     -0.106295
         2.37     -0.106622     -0.106622
        2.375      -0.10695      -0.10695
         2.38     -0.107276     -0.107276
        2.385     -0.107602     -0.107602
         2.39     -0.107927     -0.107927
        2.395     -0.108252     -0.108252
          2.4     -0.108576     -0.108576
        2.405       -0.1089       -0.1089
         2.41     -0.109222     -0.109222
        2.415     -0.109544     -0.109544
         2.42     -0.109866     -0.109866
        2.425     -0.110187     -0.110187
         2.43     -0.110507     -0.110507
        2.435     -0.110827     -0.110827
         2.44     -0.111146     -0.111147
        2.445     -0.111468     -0.111468
         2.45     -0.111783     -0.111783
        2.455     -0.112095     -0.112095
         2.46     -0.112412     -0.112412
        2.465     -0.112728     -0.112728
         2.47     -0.113044     -0.113044
        2.475     -0.113359     -0.113359
         2.48     -0.113672     -0.113672
        2.485     -0.113985     -0.113985
         2.49     -0.114298     -0.114298
        2.495     -0.114609     -0.114609
          2.5      -0.11492      -0.11492
        2.505     -0.115231     -0.115231
         2.51      -0.11554      -0.11554
        2.515     -0.115849     -0.115849
         2.52     -0.116157     -0.116157
        2.525     -0.116465     -0.116465
         2.53     -0.116772     -0.116772
        2.535     -0.117078     -0.117078
         2.54     -0.117383     -0.117383
        2.545     -0.117688     -0.117688
         2.55     -0.117992     -0.117992
        2.555     -0.118295     -0.118295
         2.56     -0.118597     -0.118597
        2.565     -0.118899     -0.118899
         2.57       -0.1192       -0.1192
        2.575       -0.1195       -0.1195
         2.58       -0.1198       -0.1198
        2.585     -0.120099     -0.120099
         2.59     -0.120397     -0.120397
        2.595     -0.120695     -0.120695
          2.6     -0.120991     -0.120991
        2.605     -0.121287     -0.121287
         2.61     -0.121582     -0.121582
        2.615     -0.121877     -0.121877
         2.62     -0.122171     -0.122171
        2.625     -0.122464     -0.122464
         2.63     -0.122756     -0.122756
        2.635     -0.123047     -0.123047
         2.64     -0.123338     -0.123338
        2.645     -0.123628     -0.123628
         2.65     -0.123917     -0.123917
        2.655     -0.124206     -0.124206
         2.66     -0.124494     -0.124494
        2.665     -0.124781     -0.124781
         2.67     -0.125067     -0.125067
        2.675     -0.125352     -0.125352
         2.68     -0.125637     -0.125637
        2.685     -0.125921     -0.125921
         2.69     -0.126204     -0.126204
        2.695     -0.126487     -0.126487
          2.7     -0.126769     -0.126769
        2.705     -0.127049     -0.127049
         2.71      -0.12733      -0.12733
        2.715     -0.127609     -0.127609
         2.72     -0.127888     -0.127888
        2.725     -0.128165     -0.128165
         2.73     -0.128443     -0.128443
        2.735     -0.128719     -0.128719
         2.74     -0.128994     -0.128994
        2.745     -0.129269     -0.129269
         2.75     -0.129543     -0.129543
        2.755     -0.129816     -0.129816
         2.76     -0.130089     -0.130089
        2.765     -0.130361      -0.13036
         2.77     -0.130631     -0.130631
        2.775     -0.130901     -0.130901
         2.78     -0.131171     -0.131171
        2.785     -0.131438     -0.131438
         2.79     -0.131707     -0.131707
        2.795     -0.131975     -0.131975
          2.8     -0.132241     -0.132241
        2.805     -0.132506     -0.132506
         2.81      -0.13277      -0.13277
        2.815     -0.133036     -0.133036
         2.82     -0.133302     -0.133301
        2.825     -0.133563     -0.133563
         2.83     -0.133825     -0.133825
        2.835     -0.134085     -0.134085
         2.84     -0.134345     -0.134345
        2.845     -0.134603     -0.134603
         2.85     -0.134862     -0.134862
        2.855      -0.13512      -0.13512
         2.86     -0.135377     -0.135376
        2.865     -0.135633     -0.135633
         2.87     -0.135888     -0.135888
        2.875     -0.136143     -0.136143
         2.88     -0.136397     -0.136397
        2.885      -0.13665      -0.13665
         2.89     -0.136902     -0.136902
        2.895     -0.137154     -0.137154
          2.9     -0.137405     -0.137405
        2.905     -0.137655     -0.137655
         2.91     -0.137904     -0.137904
        2.915     -0.138152     -0.138152
         2.92       -0.1384       -0.1384
        2.925     -0.138648     -0.138648
         2.93     -0.138894     -0.138894
        2.935     -0.139139     -0.139139
         2.94     -0.139384     -0.139384
        2.945     -0.139628     -0.139628
         2.95     -0.139871     -0.139871
        2.955     -0.140114     -0.140113
         2.96     -0.140355     -0.140355
        2.965     -0.140596     -0.140596
         2.97     -0.140836     -0.140836
        2.975     -0.141075     -0.141075
         2.98     -0.141314     -0.141314
        2.985     -0.141552     -0.141552
         2.99     -0.141789     -0.141789
        2.995     -0.142025     -0.142025
            3      -0.14226      -0.14226
        3.005     -0.142495     -0.142495
         3.01     -0.142729     -0.142729
        3.015     -0.142962     -0.142962
         3.02     -0.143195     -0.143195
        3.025     -0.143427     -0.143427
         3.03     -0.143658     -0.143658
        3.035     -0.143888     -0.143888
         3.04     -0.144117     -0.144117
        3.045     -0.144345     -0.144345
         3.05     -0.144574     -0.144574
        3.055     -0.144802     -0.144801
         3.06     -0.145028     -0.145028
        3.065     -0.145254     -0.145254
         3.07     -0.145479     -0.145479
        3.075     -0.145703     -0.145703
         3.08     -0.145926     -0.145926
        3.085     -0.146149     -0.146149
         3.09     -0.146371     -0.146371
        3.095     -0.146592     -0.146592
          3.1     -0.146812     -0.146812
        3.105     -0.147032     -0.147032
         3.11     -0.147251     -0.147251
        3.115      -0.14747      -0.14747
         3.12     -0.147687     -0.147687
        3.125     -0.147904     -0.147904
         3.13      -0.14812      -0.14812
        3.135     -0.148336     -0.148336
         3.14      -0.14855      -0.14855
        3.145     -0.148764     -0.148764
         3.15     -0.148977     -0.148977
        3.155      -0.14919      -0.14919
         3.16     -0.149402     -0.149401
        3.165     -0.149613     -0.149612
         3.17     -0.149823     -0.149823
        3.175     -0.150032     -0.150032
         3.18     -0.150241     -0.150241
        3.185     -0.150449     -0.150449
         3.19     -0.150657     -0.150657
        3.195     -0.150864     -0.150864
          3.2      -0.15107      -0.15107
        3.205     -0.151275     -0.151275
         3.21      -0.15148     -0.151479
        3.215     -0.151683     -0.151683
         3.22     -0.151887     -0.151886
        3.225     -0.152089     -0.152089
         3.23     -0.152291     -0.152291
        3.235     -0.152492     -0.152492
         3.24     -0.152692     -0.152692
        3.245     -0.152892     -0.152892
         3.25     -0.153091     -0.153091
        3.255     -0.153289     -0.153289
         3.26     -0.153486     -0.153486
        3.265     -0.153683     -0.153683
         3.27     -0.153879     -0.153879
        3.275     -0.154075     -0.154075
         3.28      -0.15427      -0.15427
        3.285     -0.154464     -0.154464
         3.29     -0.154657     -0.154657
        3.295      -0.15485      -0.15485
          3.3     -0.155042     -0.155042
        3.305     -0.155233     -0.155233
         3.31     -0.155424     -0.155424
        3.315     -0.155614     -0.155614
         3.32     -0.155803     -0.155803
        3.325     -0.155991     -0.155991
         3.33     -0.156179     -0.156179
        3.335     -0.156367     -0.156367
         3.34     -0.156554     -0.156554
        3.345      -0.15674      -0.15674
         3.35     -0.156925     -0.156925
        3.355      -0.15711      -0.15711
         3.36     -0.157294     -0.157294
        3.365     -0.157477     -0.157477
         3.37      -0.15766     -0.157659
        3.375     -0.157842     -0.157841
         3.38     -0.158023     -0.158023
        3.385     -0.158203     -0.158203
         3.39     -0.158383     -0.158383
        3.395     -0.158563     -0.158563
          3.4     -0.158742     -0.158741
        3.405      -0.15892     -0.158919
         3.41     -0.159097     -0.159097
        3.415     -0.159274     -0.159274
         3.42      -0.15945      -0.15945
        3.425     -0.159625     -0.159625
         3.43       -0.1598       -0.1598
        3.435     -0.159975     -0.159974
         3.44     -0.160148     -0.160148
        3.445     -0.160321     -0.160321
         3.45     -0.160493     -0.160493
        3.455     -0.160665     -0.160665
         3.46     -0.160836     -0.160836
        3.465     -0.161007     -0.161006
         3.47     -0.161176     -0.161176
        3.475     -0.161345     -0.161345
         3.48     -0.161514     -0.161513
        3.485     -0.161681     -0.161681
         3.49     -0.161849     -0.161849
        3.495     -0.162016     -0.162016
          3.5     -0.162182     -0.162182
        3.505     -0.162348     -0.162348
         3.51     -0.162513     -0.162512
        3.515     -0.162677     -0.162677
         3.52      -0.16284      -0.16284
        3.525     -0.163004     -0.163004
         3.53     -0.163166     -0.163166
        3.535     -0.163328     -0.163328
         3.54     -0.163489     -0.163489
        3.545      -0.16365     -0.163649
         3.55     -0.163809     -0.163809
        3.555     -0.163969     -0.163969