# Probe 0 (2 -0.5 0)
# Probe 1 (2 0.5 0)
#       Probe             0             1
#        Time
        0.005             (0.948887 0.0350426 1.54989e-18)             (0.948887 -0.0350426 -1.39489e-18)
         0.01             (0.952392 0.0303394 -9.96905e-20)             (0.952392 -0.0303394 8.88617e-20)
        0.015             (0.95117 0.031334 1.4792e-20)             (0.95117 -0.031334 -1.36136e-20)
         0.02             (0.95045 0.0320506 1.44829e-20)             (0.95045 -0.0320506 -1.31405e-20)
        0.025             (0.949716 0.0327704 1.69524e-20)             (0.949716 -0.0327704 -1.53096e-20)
         0.03             (0.948981 0.0334676 1.78604e-20)             (0.948981 -0.0334676 -1.61009e-20)
        0.035             (0.94824 0.0341413 1.81907e-20)             (0.94824 -0.0341413 -1.63848e-20)
         0.04             (0.947495 0.0347914 1.8173e-20)             (0.947495 -0.0347914 -1.63615e-20)
        0.045             (0.946749 0.035419 1.79429e-20)             (0.946749 -0.0354191 -1.61501e-20)
         0.05             (0.946005 0.0360257 1.75821e-20)             (0.946005 -0.0360257 -1.58229e-20)
        0.055             (0.945265 0.0366131 1.71436e-20)             (0.945265 -0.0366132 -1.54268e-20)
         0.06             (0.94453 0.037183 1.66617e-20)             (0.94453 -0.037183 -1.49923e-20)
        0.065             (0.9438 0.0377368 1.61589e-20)             (0.9438 -0.0377368 -1.45393e-20)
         0.07             (0.943077 0.0382762 1.5652e-20)             (0.943078 -0.0382762 -1.40827e-20)
        0.075             (0.942362 0.0388025 1.51517e-20)             (0.942362 -0.0388025 -1.36322e-20)
         0.08             (0.941654 0.039317 1.46622e-20)             (0.941654 -0.039317 -1.31914e-20)
        0.085             (0.940953 0.0398208 1.41911e-20)             (0.940953 -0.0398209 -1.27672e-20)
         0.09             (0.940259 0.040315 1.37386e-20)             (0.94026 -0.0403151 -1.23597e-20)
        0.095             (0.939573 0.0408006 1.33071e-20)             (0.939573 -0.0408006 -1.1971e-20)
          0.1             (0.938894 0.0412783 1.28965e-20)             (0.938894 -0.0412784 -1.16012e-20)
        0.105             (0.938222 0.041749 1.2507e-20)             (0.938222 -0.041749 -1.12503e-20)
         0.11             (0.937556 0.0422134 1.21382e-20)             (0.937556 -0.0422134 -1.0918e-20)
        0.115             (0.936897 0.042672 1.17864e-20)             (0.936897 -0.042672 -1.0601e-20)
         0.12             (0.936244 0.0431255 1.14562e-20)             (0.936244 -0.0431256 -1.03034e-20)
        0.125             (0.935596 0.0435745 1.11437e-20)             (0.935596 -0.0435746 -1.00218e-20)
         0.13             (0.934954 0.0440194 1.08468e-20)             (0.934954 -0.0440194 -9.75407e-21)
        0.135             (0.934317 0.0444606 1.05656e-20)             (0.934317 -0.0444607 -9.50059e-21)
         0.14             (0.933685 0.0448986 1.02991e-20)             (0.933685 -0.0448986 -9.26027e-21)
        0.145             (0.933057 0.0453337 1.00464e-20)             (0.933057 -0.0453337 -9.03242e-21)
         0.15             (0.932434 0.0457662 9.80637e-21)             (0.932434 -0.0457663 -8.81592e-21)
        0.155             (0.931815 0.0461966 9.57711e-21)             (0.931815 -0.0461966 -8.60916e-21)
         0.16             (0.931199 0.046625 9.3598e-21)             (0.931199 -0.046625 -8.41316e-21)
        0.165             (0.930588 0.0470517 9.15372e-21)             (0.930588 -0.0470518 -8.22728e-21)
         0.17             (0.929979 0.047477 8.95672e-21)             (0.929979 -0.0474771 -8.04958e-21)
        0.175             (0.929374 0.0479011 8.7688e-21)             (0.929374 -0.0479012 -7.88005e-21)
         0.18             (0.928771 0.0483242 8.58944e-21)             (0.928771 -0.0483243 -7.71824e-21)
        0.185             (0.928171 0.0487466 8.41795e-21)             (0.928171 -0.0487467 -7.56352e-21)
         0.19             (0.927574 0.0491683 8.25399e-21)             (0.927574 -0.0491684 -7.41559e-21)
        0.195             (0.926979 0.0495896 8.0966e-21)             (0.926979 -0.0495897 -7.27359e-21)
          0.2             (0.926387 0.0500106 7.94511e-21)             (0.926387 -0.0500107 -7.1369e-21)
        0.205             (0.925796 0.0504315 7.8005e-21)             (0.925796 -0.0504316 -7.00642e-21)
         0.21             (0.925208 0.0508523 7.66118e-21)             (0.925208 -0.0508524 -6.88071e-21)
        0.215             (0.924621 0.0512733 7.5283e-21)             (0.924621 -0.0512734 -6.76081e-21)
         0.22             (0.924035 0.0516946 7.40021e-21)             (0.924035 -0.0516947 -6.64522e-21)
        0.225             (0.923451 0.0521163 7.27659e-21)             (0.923452 -0.0521164 -6.53367e-21)
         0.23             (0.922869 0.0525384 7.15744e-21)             (0.922869 -0.0525385 -6.42616e-21)
        0.235             (0.922288 0.0529611 7.04262e-21)             (0.922288 -0.0529612 -6.32254e-21)
         0.24             (0.921708 0.0533844 6.93192e-21)             (0.921708 -0.0533845 -6.22264e-21)
        0.245             (0.921129 0.0538086 6.82481e-21)             (0.921129 -0.0538087 -6.12598e-21)
         0.25             (0.92055 0.0542336 6.72015e-21)             (0.92055 -0.0542337 -6.03154e-21)
        0.255             (0.919973 0.0546595 6.62133e-21)             (0.919973 -0.0546596 -5.94237e-21)
         0.26             (0.919396 0.0550864 6.52455e-21)             (0.919396 -0.0550865 -5.85502e-21)
        0.265             (0.91882 0.0555145 6.4308e-21)             (0.91882 -0.0555146 -5.77043e-21)
         0.27             (0.918245 0.0559436 6.33998e-21)             (0.918245 -0.0559438 -5.68847e-21)
        0.275             (0.91767 0.0563741 6.25182e-21)             (0.91767 -0.0563742 -5.60892e-21)
         0.28             (0.917095 0.0568058 6.16678e-21)             (0.917095 -0.0568059 -5.53218e-21)
        0.285             (0.916521 0.0572388 6.08467e-21)             (0.916521 -0.0572389 -5.45808e-21)
         0.29             (0.915947 0.0576733 6.00446e-21)             (0.915947 -0.0576734 -5.3857e-21)
        0.295             (0.915373 0.0581092 5.92659e-21)             (0.915373 -0.0581093 -5.31543e-21)
          0.3             (0.914799 0.0585467 5.851e-21)             (0.914799 -0.0585468 -5.24722e-21)
        0.305             (0.914225 0.0589857 5.77764e-21)             (0.914225 -0.0589858 -5.18101e-21)
         0.31             (0.913651 0.0594263 5.70677e-21)             (0.913651 -0.0594264 -5.11706e-21)
        0.315             (0.913077 0.0598686 5.63637e-21)             (0.913077 -0.0598687 -5.05353e-21)
         0.32             (0.912503 0.0603126 5.56862e-21)             (0.912503 -0.0603127 -4.9924e-21)
        0.325             (0.911928 0.0607583 5.50306e-21)             (0.911928 -0.0607584 -4.93324e-21)
         0.33             (0.911354 0.0612058 5.43912e-21)             (0.911354 -0.0612059 -4.87554e-21)
        0.335             (0.910779 0.0616552 5.37682e-21)             (0.910779 -0.0616553 -4.81933e-21)
         0.34             (0.910203 0.0621064 5.31608e-21)             (0.910203 -0.0621065 -4.76451e-21)
        0.345             (0.909627 0.0625595 5.25618e-21)             (0.909627 -0.0625596 -4.71047e-21)
         0.35             (0.909051 0.0630145 5.19987e-21)             (0.909051 -0.0630146 -4.65965e-21)
        0.355             (0.908474 0.0634715 5.14334e-21)             (0.908474 -0.0634716 -4.60864e-21)
         0.36             (0.907896 0.0639304 5.089e-21)             (0.907896 -0.0639306 -4.5596e-21)
        0.365             (0.907318 0.0643914 5.03559e-21)             (0.907318 -0.0643915 -4.51142e-21)
         0.37             (0.906739 0.0648544 4.98343e-21)             (0.906739 -0.0648546 -4.46435e-21)
        0.375             (0.90616 0.0653195 4.93211e-21)             (0.90616 -0.0653196 -4.41804e-21)
         0.38             (0.905579 0.0657867 4.88331e-21)             (0.905579 -0.0657868 -4.37401e-21)
        0.385             (0.904998 0.0662559 4.83492e-21)             (0.904998 -0.0662561 -4.33034e-21)
         0.39             (0.904416 0.0667273 4.78768e-21)             (0.904416 -0.0667275 -4.28772e-21)
        0.395             (0.903833 0.0672009 4.74174e-21)             (0.903833 -0.067201 -4.24627e-21)
          0.4             (0.903249 0.0676766 4.69653e-21)             (0.903249 -0.0676767 -4.20547e-21)
        0.405             (0.902664 0.0681545 4.65216e-21)             (0.902665 -0.0681546 -4.16543e-21)
         0.41             (0.902079 0.0686345 4.60926e-21)             (0.902079 -0.0686347 -4.12673e-21)
        0.415             (0.901492 0.0691168 4.56741e-21)             (0.901492 -0.0691169 -4.08897e-21)
         0.42             (0.900904 0.0696013 4.52649e-21)             (0.900904 -0.0696014 -4.05205e-21)
        0.425             (0.900315 0.070088 4.48655e-21)             (0.900315 -0.0700881 -4.016e-21)
         0.43             (0.899725 0.0705769 4.44753e-21)             (0.899725 -0.0705771 -3.9808e-21)
        0.435             (0.899133 0.0710681 4.40943e-21)             (0.899133 -0.0710682 -3.94642e-21)
         0.44             (0.898541 0.0715615 4.37221e-21)             (0.898541 -0.0715616 -3.91284e-21)
        0.445             (0.897947 0.0720571 4.33581e-21)             (0.897947 -0.0720573 -3.87998e-21)
         0.45             (0.897352 0.072555 4.30024e-21)             (0.897352 -0.0725552 -3.84789e-21)
        0.455             (0.896755 0.0730552 4.26555e-21)             (0.896756 -0.0730553 -3.81659e-21)
         0.46             (0.896158 0.0735576 4.23155e-21)             (0.896158 -0.0735577 -3.78591e-21)
        0.465             (0.895559 0.0740622 4.19765e-21)             (0.895559 -0.0740623 -3.75533e-21)
         0.47             (0.894958 0.0745691 4.16652e-21)             (0.894958 -0.0745692 -3.72724e-21)
        0.475             (0.894356 0.0750782 4.13483e-21)             (0.894356 -0.0750783 -3.69865e-21)
         0.48             (0.893753 0.0755895 4.10394e-21)             (0.893753 -0.0755897 -3.67078e-21)
        0.485             (0.893148 0.0761031 4.07377e-21)             (0.893148 -0.0761032 -3.64357e-21)
         0.49             (0.892542 0.0766189 4.04431e-21)             (0.892542 -0.076619 -3.61698e-21)
        0.495             (0.891934 0.0771368 4.0156e-21)             (0.891934 -0.077137 -3.59108e-21)
          0.5             (0.891325 0.077657 3.9875e-21)             (0.891325 -0.0776572 -3.56573e-21)
        0.505             (0.890714 0.0781794 3.96016e-21)             (0.890714 -0.0781795 -3.54106e-21)
         0.51             (0.890101 0.0787039 3.93351e-21)             (0.890101 -0.078704 -3.51702e-21)
        0.515             (0.889487 0.0792305 3.90715e-21)             (0.889487 -0.0792307 -3.49324e-21)
         0.52             (0.888871 0.0797593 3.88165e-21)             (0.888871 -0.0797595 -3.47024e-21)
        0.525             (0.888254 0.0802902 3.85682e-21)             (0.888254 -0.0802904 -3.44784e-21)
         0.53             (0.887634 0.0808232 3.83281e-21)             (0.887635 -0.0808234 -3.42617e-21)
        0.535             (0.887014 0.0813583 3.80923e-21)             (0.887014 -0.0813585 -3.4049e-21)
         0.54             (0.886391 0.0818954 3.78624e-21)             (0.886391 -0.0818956 -3.38416e-21)
        0.545             (0.885766 0.0824346 3.76383e-21)             (0.885767 -0.0824348 -3.36395e-21)
         0.55             (0.88514 0.0829758 3.74201e-21)             (0.88514 -0.0829759 -3.34427e-21)
        0.555             (0.884512 0.0835189 3.72076e-21)             (0.884512 -0.0835191 -3.3251e-21)
         0.56             (0.883882 0.084064 3.70009e-21)             (0.883883 -0.0840642 -3.30645e-21)
        0.565             (0.883251 0.084611 3.67995e-21)             (0.883251 -0.0846112 -3.28829e-21)
         0.57             (0.882617 0.0851599 3.66036e-21)             (0.882617 -0.0851601 -3.27062e-21)
        0.575             (0.881982 0.0857107 3.64131e-21)             (0.881982 -0.0857109 -3.25344e-21)
         0.58             (0.881345 0.0862633 3.62281e-21)             (0.881345 -0.0862635 -3.23675e-21)
        0.585             (0.880705 0.0868178 3.60482e-21)             (0.880705 -0.086818 -3.22053e-21)
         0.59             (0.880064 0.087374 3.58736e-21)             (0.880064 -0.0873741 -3.20478e-21)
        0.595             (0.879421 0.0879319 3.57032e-21)             (0.879421 -0.0879321 -3.18941e-21)
          0.6             (0.878776 0.0884915 3.55392e-21)             (0.878776 -0.0884917 -3.17462e-21)
        0.605             (0.878129 0.0890528 3.53798e-21)             (0.878129 -0.089053 -3.16025e-21)
         0.61             (0.87748 0.0896157 3.52246e-21)             (0.87748 -0.0896159 -3.14626e-21)
        0.615             (0.876829 0.0901801 3.50669e-21)             (0.876829 -0.0901803 -3.13204e-21)
         0.62             (0.876176 0.0907462 3.49368e-21)             (0.876176 -0.0907464 -3.1203e-21)
        0.625             (0.87552 0.0913137 3.4798e-21)             (0.875521 -0.0913139 -3.10779e-21)
         0.63             (0.874863 0.0918827 3.46626e-21)             (0.874863 -0.0918829 -3.09559e-21)
        0.635             (0.874204 0.0924532 3.45328e-21)             (0.874204 -0.0924534 -3.08389e-21)
         0.64             (0.873542 0.093025 3.44075e-21)             (0.873543 -0.0930252 -3.0726e-21)
        0.645             (0.872879 0.0935981 3.4287e-21)             (0.872879 -0.0935983 -3.06174e-21)
         0.65             (0.872213 0.0941726 3.4171e-21)             (0.872213 -0.0941728 -3.05129e-21)
        0.655             (0.871546 0.0947482 3.40603e-21)             (0.871546 -0.0947484 -3.04131e-21)
         0.66             (0.870876 0.0953251 3.39539e-21)             (0.870876 -0.0953253 -3.03173e-21)
        0.665             (0.870204 0.0959031 3.38522e-21)             (0.870204 -0.0959034 -3.02256e-21)
         0.67             (0.869529 0.0964823 3.37549e-21)             (0.869529 -0.0964825 -3.01381e-21)
        0.675             (0.868853 0.0970625 3.36634e-21)             (0.868853 -0.0970627 -3.00556e-21)
         0.68             (0.868174 0.0976437 3.35755e-21)             (0.868174 -0.0976439 -2.99765e-21)
        0.685             (0.867493 0.0982258 3.34882e-21)             (0.867494 -0.098226 -2.9898e-21)
         0.69             (0.86681 0.0988089 3.34094e-21)             (0.866811 -0.0988091 -2.9827e-21)
        0.695             (0.866125 0.0993928 3.33352e-21)             (0.866125 -0.099393 -2.97603e-21)
          0.7             (0.865438 0.0999775 3.32648e-21)             (0.865438 -0.0999777 -2.9697e-21)
        0.705             (0.864748 0.100563 3.31988e-21)             (0.864748 -0.100563 -2.96376e-21)
         0.71             (0.864056 0.101149 3.31368e-21)             (0.864056 -0.101149 -2.95819e-21)
        0.715             (0.863362 0.101736 3.30788e-21)             (0.863362 -0.101736 -2.95299e-21)
         0.72             (0.862665 0.102323 3.30186e-21)             (0.862666 -0.102323 -2.94758e-21)
        0.725             (0.861967 0.102911 3.29771e-21)             (0.861967 -0.102911 -2.94385e-21)
         0.73             (0.861266 0.1035 3.29318e-21)             (0.861266 -0.1035 -2.93979e-21)
        0.735             (0.860562 0.104088 3.28881e-21)             (0.860563 -0.104089 -2.93587e-21)
         0.74             (0.859857 0.104678 3.28556e-21)             (0.859857 -0.104678 -2.93296e-21)
        0.745             (0.859149 0.105267 3.28232e-21)             (0.859149 -0.105267 -2.93007e-21)
         0.75             (0.858439 0.105857 3.27945e-21)             (0.858439 -0.105857 -2.92751e-21)
        0.755             (0.857726 0.106447 3.27699e-21)             (0.857727 -0.106447 -2.92532e-21)
         0.76             (0.857012 0.107037 3.275e-21)             (0.857012 -0.107037 -2.92355e-21)
        0.765             (0.856295 0.107627 3.27338e-21)             (0.856295 -0.107627 -2.92213e-21)
         0.77             (0.855575 0.108217 3.2722e-21)             (0.855575 -0.108218 -2.92109e-21)
        0.775             (0.854854 0.108808 3.27137e-21)             (0.854854 -0.108808 -2.92037e-21)
         0.78             (0.85413 0.109398 3.27104e-21)             (0.85413 -0.109398 -2.92011e-21)
        0.785             (0.853403 0.109988 3.27107e-21)             (0.853404 -0.109988 -2.92017e-21)
         0.79             (0.852675 0.110578 3.27149e-21)             (0.852675 -0.110578 -2.92058e-21)
        0.795             (0.851944 0.111167 3.27232e-21)             (0.851944 -0.111167 -2.92137e-21)
          0.8             (0.851211 0.111756 3.27357e-21)             (0.851211 -0.111757 -2.92253e-21)
        0.805             (0.850475 0.112345 3.27527e-21)             (0.850475 -0.112345 -2.9241e-21)
         0.81             (0.849737 0.112934 3.27724e-21)             (0.849737 -0.112934 -2.92591e-21)
        0.815             (0.848997 0.113522 3.27958e-21)             (0.848997 -0.113522 -2.92807e-21)
         0.82             (0.848255 0.114109 3.28238e-21)             (0.848255 -0.114109 -2.93063e-21)
        0.825             (0.84751 0.114696 3.28568e-21)             (0.84751 -0.114696 -2.93365e-21)
         0.83             (0.846763 0.115282 3.28915e-21)             (0.846763 -0.115282 -2.93682e-21)
        0.835             (0.846013 0.115867 3.29315e-21)             (0.846014 -0.115868 -2.94047e-21)
         0.84             (0.845262 0.116452 3.29751e-21)             (0.845262 -0.116452 -2.94445e-21)
        0.845             (0.844508 0.117036 3.30231e-21)             (0.844508 -0.117036 -2.94883e-21)
         0.85             (0.843751 0.117619 3.30747e-21)             (0.843752 -0.117619 -2.95352e-21)
        0.855             (0.842993 0.118201 3.313e-21)             (0.842993 -0.118201 -2.95856e-21)
         0.86             (0.842232 0.118782 3.31891e-21)             (0.842232 -0.118782 -2.96393e-21)
        0.865             (0.841469 0.119362 3.32522e-21)             (0.841469 -0.119362 -2.96967e-21)
         0.87             (0.840703 0.119941 3.33189e-21)             (0.840703 -0.119941 -2.97574e-21)
        0.875             (0.839936 0.120518 3.33895e-21)             (0.839936 -0.120518 -2.98216e-21)
         0.88             (0.839166 0.121095 3.34637e-21)             (0.839166 -0.121095 -2.9889e-21)
        0.885             (0.838393 0.12167 3.35419e-21)             (0.838394 -0.12167 -2.99601e-21)
         0.89             (0.837619 0.122243 3.36238e-21)             (0.837619 -0.122244 -3.00344e-21)
        0.895             (0.836842 0.122816 3.37093e-21)             (0.836842 -0.122816 -3.01121e-21)
          0.9             (0.836063 0.123387 3.37985e-21)             (0.836063 -0.123387 -3.01931e-21)
        0.905             (0.835282 0.123956 3.38918e-21)             (0.835282 -0.123956 -3.02778e-21)
         0.91             (0.834499 0.124524 3.39886e-21)             (0.834499 -0.124524 -3.03656e-21)
        0.915             (0.833713 0.12509 3.4089e-21)             (0.833713 -0.125091 -3.04567e-21)
         0.92             (0.832925 0.125655 3.41931e-21)             (0.832925 -0.125655 -3.05512e-21)
        0.925             (0.832135 0.126218 3.4301e-21)             (0.832135 -0.126218 -3.06491e-21)
         0.93             (0.831343 0.126779 3.44125e-21)             (0.831343 -0.126779 -3.07503e-21)
        0.935             (0.830549 0.127338 3.45278e-21)             (0.830549 -0.127339 -3.08548e-21)
         0.94             (0.829752 0.127896 3.46472e-21)             (0.829752 -0.127896 -3.09631e-21)
        0.945             (0.828953 0.128451 3.47698e-21)             (0.828954 -0.128452 -3.10743e-21)
         0.95             (0.828153 0.129005 3.48935e-21)             (0.828153 -0.129005 -3.11864e-21)
        0.955             (0.82735 0.129556 3.50233e-21)             (0.82735 -0.129557 -3.13041e-21)
         0.96             (0.826545 0.130106 3.51566e-21)             (0.826545 -0.130106 -3.1425e-21)
        0.965             (0.825737 0.130653 3.52933e-21)             (0.825738 -0.130653 -3.15489e-21)
         0.97             (0.824928 0.131198 3.54335e-21)             (0.824928 -0.131199 -3.16759e-21)
        0.975             (0.824117 0.131741 3.5577e-21)             (0.824117 -0.131741 -3.1806e-21)
         0.98             (0.823303 0.132282 3.57237e-21)             (0.823304 -0.132282 -3.19389e-21)
        0.985             (0.822488 0.13282 3.58724e-21)             (0.822488 -0.132821 -3.20736e-21)
         0.99             (0.821671 0.133356 3.60206e-21)             (0.821671 -0.133357 -3.22079e-21)
        0.995             (0.820851 0.13389 3.61932e-21)             (0.820851 -0.13389 -3.23641e-21)
            1             (0.82003 0.134421 3.6354e-21)             (0.82003 -0.134421 -3.25098e-21)
        1.005             (0.819206 0.13495 3.6518e-21)             (0.819206 -0.13495 -3.26583e-21)
         1.01             (0.818381 0.135476 3.66855e-21)             (0.818381 -0.135476 -3.28101e-21)
        1.015             (0.817553 0.136 3.68567e-21)             (0.817553 -0.136 -3.29651e-21)
         1.02             (0.816724 0.13652 3.70314e-21)             (0.816724 -0.136521 -3.31233e-21)
        1.025             (0.815892 0.137039 3.72095e-21)             (0.815893 -0.137039 -3.32846e-21)
         1.03             (0.815059 0.137554 3.7391e-21)             (0.815059 -0.137555 -3.34489e-21)
        1.035             (0.814224 0.138067 3.75754e-21)             (0.814224 -0.138067 -3.36158e-21)
         1.04             (0.813387 0.138577 3.77636e-21)             (0.813387 -0.138577 -3.37862e-21)
        1.045             (0.812548 0.139084 3.79574e-21)             (0.812548 -0.139085 -3.39616e-21)
         1.05             (0.811707 0.139589 3.81524e-21)             (0.811708 -0.139589 -3.4138e-21)
        1.055             (0.810865 0.14009 3.83499e-21)             (0.810865 -0.140091 -3.43168e-21)
         1.06             (0.81002 0.140589 3.85514e-21)             (0.810021 -0.140589 -3.44991e-21)
        1.065             (0.809174 0.141084 3.87536e-21)             (0.809174 -0.141085 -3.46821e-21)
         1.07             (0.808326 0.141577 3.89673e-21)             (0.808326 -0.141577 -3.48754e-21)
        1.075             (0.807477 0.142067 3.91786e-21)             (0.807477 -0.142067 -3.50666e-21)
         1.08             (0.806625 0.142553 3.93932e-21)             (0.806625 -0.142553 -3.52607e-21)
        1.085             (0.805772 0.143036 3.96113e-21)             (0.805772 -0.143037 -3.5458e-21)
         1.09             (0.804917 0.143516 3.98323e-21)             (0.804917 -0.143517 -3.56579e-21)
        1.095             (0.804061 0.143993 4.00565e-21)             (0.804061 -0.143994 -3.58607e-21)
          1.1             (0.803202 0.144467 4.02851e-21)             (0.803203 -0.144467 -3.60674e-21)
        1.105             (0.802343 0.144938 4.05156e-21)             (0.802343 -0.144938 -3.62758e-21)
         1.11             (0.801481 0.145405 4.0749e-21)             (0.801481 -0.145405 -3.64869e-21)
        1.115             (0.800618 0.145869 4.09857e-21)             (0.800618 -0.145869 -3.67009e-21)
         1.12             (0.799753 0.14633 4.12257e-21)             (0.799753 -0.14633 -3.69178e-21)
        1.125             (0.798887 0.146787 4.14688e-21)             (0.798887 -0.146787 -3.71376e-21)
         1.13             (0.798019 0.147241 4.17149e-21)             (0.798019 -0.147241 -3.73601e-21)
        1.135             (0.79715 0.147691 4.19637e-21)             (0.79715 -0.147692 -3.75849e-21)
         1.14             (0.796279 0.148139 4.22155e-21)             (0.796279 -0.148139 -3.78125e-21)
        1.145             (0.795407 0.148582 4.2471e-21)             (0.795407 -0.148582 -3.80433e-21)
         1.15             (0.794533 0.149022 4.27289e-21)             (0.794533 -0.149022 -3.82764e-21)
        1.155             (0.793658 0.149459 4.29898e-21)             (0.793658 -0.149459 -3.85122e-21)
         1.16             (0.792781 0.149892 4.32535e-21)             (0.792781 -0.149892 -3.87504e-21)
        1.165             (0.791903 0.150321 4.35206e-21)             (0.791903 -0.150322 -3.89917e-21)
         1.17             (0.791024 0.150747 4.37906e-21)             (0.791024 -0.150747 -3.92356e-21)
        1.175             (0.790143 0.15117 4.40631e-21)             (0.790143 -0.15117 -3.94817e-21)
         1.18             (0.789261 0.151588 4.43383e-21)             (0.789261 -0.151588 -3.97302e-21)
        1.185             (0.788378 0.152003 4.46159e-21)             (0.788378 -0.152003 -3.99809e-21)
         1.19             (0.787493 0.152415 4.48968e-21)             (0.787493 -0.152415 -4.02346e-21)
        1.195             (0.786607 0.152822 4.51802e-21)             (0.786607 -0.152823 -4.04905e-21)
          1.2             (0.78572 0.153226 4.54674e-21)             (0.78572 -0.153227 -4.07498e-21)
        1.205             (0.784832 0.153627 4.57566e-21)             (0.784832 -0.153627 -4.10109e-21)
         1.21             (0.783942 0.154023 4.60485e-21)             (0.783942 -0.154023 -4.12744e-21)
        1.215             (0.783051 0.154416 4.63431e-21)             (0.783051 -0.154416 -4.15403e-21)
         1.22             (0.782159 0.154805 4.66406e-21)             (0.782159 -0.154805 -4.18088e-21)
        1.225             (0.781266 0.15519 4.69407e-21)             (0.781266 -0.15519 -4.20796e-21)
         1.23             (0.780372 0.155572 4.72432e-21)             (0.780372 -0.155572 -4.23526e-21)
        1.235             (0.779477 0.155949 4.75484e-21)             (0.779477 -0.155949 -4.2628e-21)
         1.24             (0.778581 0.156323 4.78565e-21)             (0.778581 -0.156323 -4.29059e-21)
        1.245             (0.777683 0.156693 4.81667e-21)             (0.777683 -0.156693 -4.31858e-21)
         1.25             (0.776785 0.157059 4.84798e-21)             (0.776785 -0.157059 -4.34682e-21)
        1.255             (0.775886 0.157421 4.87952e-21)             (0.775886 -0.157421 -4.37526e-21)
         1.26             (0.774985 0.15778 4.91128e-21)             (0.774985 -0.15778 -4.40392e-21)
        1.265             (0.774084 0.158134 4.94331e-21)             (0.774084 -0.158134 -4.43279e-21)
         1.27             (0.773182 0.158485 4.97557e-21)             (0.773182 -0.158485 -4.46188e-21)
        1.275             (0.772279 0.158832 5.00806e-21)             (0.772279 -0.158832 -4.49118e-21)
         1.28             (0.771375 0.159174 5.04087e-21)             (0.771375 -0.159175 -4.52076e-21)
        1.285             (0.77047 0.159513 5.07386e-21)             (0.77047 -0.159513 -4.5505e-21)
         1.29             (0.769564 0.159848 5.10709e-21)             (0.769564 -0.159848 -4.58045e-21)
        1.295             (0.768658 0.160179 5.14055e-21)             (0.768658 -0.160179 -4.6106e-21)
          1.3             (0.76775 0.160507 5.17424e-21)             (0.767751 -0.160507 -4.64097e-21)
        1.305             (0.766842 0.16083 5.20816e-21)             (0.766843 -0.16083 -4.67153e-21)
         1.31             (0.765934 0.161149 5.2423e-21)             (0.765934 -0.161149 -4.7023e-21)
        1.315             (0.765024 0.161464 5.27664e-21)             (0.765024 -0.161464 -4.73324e-21)
         1.32             (0.764114 0.161776 5.31128e-21)             (0.764114 -0.161776 -4.76443e-21)
        1.325             (0.763203 0.162083 5.3461e-21)             (0.763203 -0.162083 -4.7958e-21)
         1.33             (0.762292 0.162387 5.38112e-21)             (0.762292 -0.162387 -4.82734e-21)
        1.335             (0.76138 0.162686 5.41635e-21)             (0.76138 -0.162686 -4.85907e-21)
         1.34             (0.760467 0.162982 5.4518e-21)             (0.760467 -0.162982 -4.89099e-21)
        1.345             (0.759554 0.163273 5.48746e-21)             (0.759554 -0.163273 -4.9231e-21)
         1.35             (0.75864 0.163561 5.52334e-21)             (0.75864 -0.163561 -4.9554e-21)
        1.355             (0.757725 0.163844 5.55943e-21)             (0.757725 -0.163845 -4.98789e-21)
         1.36             (0.75681 0.164124 5.59569e-21)             (0.756811 -0.164124 -5.02053e-21)
        1.365             (0.755895 0.1644 5.63223e-21)             (0.755895 -0.1644 -5.05341e-21)
         1.37             (0.754979 0.164672 5.66901e-21)             (0.754979 -0.164672 -5.08652e-21)
        1.375             (0.754063 0.16494 5.70663e-21)             (0.754063 -0.16494 -5.12036e-21)
         1.38             (0.753146 0.165204 5.7424e-21)             (0.753146 -0.165204 -5.15256e-21)
        1.385             (0.752229 0.165463 5.77965e-21)             (0.752229 -0.165464 -5.18607e-21)
         1.39             (0.751312 0.165719 5.81716e-21)             (0.751312 -0.16572 -5.21981e-21)
        1.395             (0.750394 0.165972 5.85484e-21)             (0.750394 -0.165972 -5.2537e-21)
          1.4             (0.749476 0.16622 5.89258e-21)             (0.749476 -0.16622 -5.28764e-21)
        1.405             (0.748557 0.166464 5.93054e-21)             (0.748557 -0.166464 -5.32176e-21)
         1.41             (0.747639 0.166704 5.96866e-21)             (0.747639 -0.166704 -5.35604e-21)
        1.415             (0.74672 0.166941 6.0071e-21)             (0.74672 -0.166941 -5.3906e-21)
         1.42             (0.745801 0.167173 6.0456e-21)             (0.745801 -0.167173 -5.42521e-21)
        1.425             (0.744881 0.167402 6.08426e-21)             (0.744881 -0.167402 -5.45996e-21)
         1.43             (0.743962 0.167626 6.12309e-21)             (0.743962 -0.167626 -5.49485e-21)