/*--------------------------------*- C++ -*----------------------------------*\
  =========                 |
  \\      /  F ield         | OpenFOAM: The Open Source CFD Toolbox
   \\    /   O peration     | Website:  https://openfoam.org
    \\  /    A nd           | Version:  7
     \\/     M anipulation  |
\*---------------------------------------------------------------------------*/
FoamFile
{
    version     2.0;
    format      ascii;
    class       volScalarField;
    location    "15";
    object      p;
}
// * * * * * * * * * * * * * * * * * * * * * * * * * * * * * * * * * * * * * //

dimensions      [0 2 -2 0 0 0 0];

internalField   nonuniform List<scalar> 
12100
(
-0.314069
-0.31861
-0.31963
-0.321565
-0.32327
-0.325046
-0.326763
-0.328423
-0.330024
-0.331577
-0.333096
-0.334587
-0.336037
-0.337413
-0.338626
-0.339545
-0.340025
-0.339681
-0.33853
-0.335425
-0.314374
-0.318845
-0.31985
-0.321767
-0.323462
-0.325229
-0.326939
-0.328594
-0.33019
-0.331742
-0.333263
-0.334762
-0.336229
-0.337637
-0.3389
-0.339872
-0.340485
-0.340128
-0.339268
-0.335764
-0.314975
-0.319306
-0.320283
-0.322162
-0.323833
-0.32558
-0.327273
-0.328914
-0.330499
-0.332042
-0.333561
-0.335068
-0.336557
-0.33801
-0.339356
-0.340381
-0.341278
-0.340756
-0.340605
-0.336206
-0.315855
-0.319981
-0.32091
-0.322729
-0.32436
-0.326072
-0.327734
-0.329346
-0.330905
-0.332426
-0.333929
-0.33543
-0.336926
-0.338408
-0.33985
-0.340825
-0.342229
-0.341144
-0.342259
-0.336417
-0.31699
-0.32085
-0.321709
-0.32344
-0.325009
-0.326665
-0.328277
-0.32984
-0.331352
-0.332827
-0.334289
-0.335758
-0.33723
-0.338689
-0.340249
-0.340962
-0.343149
-0.340932
-0.343639
-0.336492
-0.318352
-0.321889
-0.322652
-0.324262
-0.325741
-0.327315
-0.328851
-0.33034
-0.331778
-0.333179
-0.334568
-0.335969
-0.337377
-0.338732
-0.340428
-0.340749
-0.343388
-0.340721
-0.343871
-0.336196
-0.319909
-0.323073
-0.323706
-0.325158
-0.326513
-0.327974
-0.329404
-0.330789
-0.332124
-0.33342
-0.334701
-0.335996
-0.337299
-0.33853
-0.340173
-0.340197
-0.343048
-0.339688
-0.34314
-0.335273
-0.321628
-0.324375
-0.324842
-0.32609
-0.327284
-0.328596
-0.329888
-0.331139
-0.33234
-0.333501
-0.334645
-0.335797
-0.336952
-0.337999
-0.33952
-0.33917
-0.341955
-0.338101
-0.341034
-0.333533
-0.323479
-0.32577
-0.326028
-0.327026
-0.328014
-0.329139
-0.33026
-0.331348
-0.332389
-0.333388
-0.334368
-0.335347
-0.336308
-0.337123
-0.338377
-0.337715
-0.339829
-0.335943
-0.337296
-0.330398
-0.325436
-0.327238
-0.327239
-0.327933
-0.328672
-0.329572
-0.330491
-0.331389
-0.332248
-0.333062
-0.333853
-0.334621
-0.335332
-0.335853
-0.336629
-0.33571
-0.336532
-0.332839
-0.331938
-0.32522
-0.327477
-0.32876
-0.328455
-0.328791
-0.329234
-0.329872
-0.330559
-0.331244
-0.331901
-0.332508
-0.333078
-0.33358
-0.333964
-0.334066
-0.334158
-0.332833
-0.332069
-0.328285
-0.32512
-0.317876
-0.329591
-0.330324
-0.329661
-0.329586
-0.329686
-0.330027
-0.330457
-0.330909
-0.331342
-0.331711
-0.33201
-0.332152
-0.332095
-0.331577
-0.330814
-0.328751
-0.326454
-0.322068
-0.317051
-0.30888
-0.331773
-0.331928
-0.330852
-0.330311
-0.330028
-0.330038
-0.330188
-0.330385
-0.330565
-0.330645
-0.330586
-0.330237
-0.329563
-0.328208
-0.326426
-0.323328
-0.319692
-0.314374
-0.308061
-0.299114
-0.33403
-0.333574
-0.332035
-0.330973
-0.330268
-0.32992
-0.329765
-0.329678
-0.329554
-0.329263
-0.32871
-0.327705
-0.326193
-0.323832
-0.320897
-0.316662
-0.311912
-0.305667
-0.298581
-0.289134
-0.336378
-0.335267
-0.333224
-0.33159
-0.330428
-0.329694
-0.329205
-0.328789
-0.32828
-0.327493
-0.326268
-0.324422
-0.32187
-0.318415
-0.314291
-0.309023
-0.303404
-0.296449
-0.289031
-0.279373
-0.338846
-0.337024
-0.334442
-0.33219
-0.33054
-0.329391
-0.328525
-0.327706
-0.326692
-0.325242
-0.323151
-0.320295
-0.316591
-0.31205
-0.306828
-0.300751
-0.294488
-0.287097
-0.279692
-0.269997
-0.341476
-0.338876
-0.335715
-0.332809
-0.33064
-0.329039
-0.327732
-0.326402
-0.324721
-0.322417
-0.319289
-0.315314
-0.310463
-0.304932
-0.298793
-0.292149
-0.285395
-0.277814
-0.270619
-0.261008
-0.344314
-0.340853
-0.337084
-0.33349
-0.330771
-0.328662
-0.326821
-0.324831
-0.322298
-0.318957
-0.31468
-0.309562
-0.303667
-0.297294
-0.290454
-0.283428
-0.276269
-0.268685
-0.261667
-0.252313
-0.347413
-0.342993
-0.338594
-0.334277
-0.330965
-0.328273
-0.325769
-0.32294
-0.319364
-0.314846
-0.309386
-0.303187
-0.296404
-0.289349
-0.28201
-0.27471
-0.267228
-0.259728
-0.25257
-0.243731
-0.350805
-0.345361
-0.340292
-0.335213
-0.331244
-0.327866
-0.32454
-0.320674
-0.315889
-0.310122
-0.303517
-0.296356
-0.288848
-0.281262
-0.273579
-0.266063
-0.258383
-0.250944
-0.243272
-0.235124
-0.354572
-0.347989
-0.342219
-0.336316
-0.331609
-0.327422
-0.323086
-0.317989
-0.31188
-0.30486
-0.297199
-0.289218
-0.28113
-0.273139
-0.265214
-0.257531
-0.249777
-0.242339
-0.234344
-0.22651
-0.358758
-0.350925
-0.344434
-0.337628
-0.33209
-0.326941
-0.321376
-0.314874
-0.307381
-0.299157
-0.290554
-0.281886
-0.273337
-0.265036
-0.256937
-0.24914
-0.241371
-0.233877
-0.226062
-0.218617
-0.36343
-0.35422
-0.346963
-0.339147
-0.332679
-0.326369
-0.31935
-0.311317
-0.30244
-0.2931
-0.283676
-0.274438
-0.265518
-0.256977
-0.24875
-0.240885
-0.233121
-0.225702
-0.218075
-0.210958
-0.368644
-0.357923
-0.349816
-0.340883
-0.333364
-0.325645
-0.316966
-0.307334
-0.29712
-0.28677
-0.276635
-0.266921
-0.257696
-0.248965
-0.240647
-0.232742
-0.225035
-0.217711
-0.210294
-0.203595
-0.374452
-0.362072
-0.352989
-0.342862
-0.334099
-0.324693
-0.314195
-0.302952
-0.291479
-0.280224
-0.269474
-0.259355
-0.249876
-0.24099
-0.232608
-0.224696
-0.217064
-0.209875
-0.202716
-0.196319
-0.3809
-0.36669
-0.356482
-0.345107
-0.334804
-0.323439
-0.311023
-0.298202
-0.285563
-0.2735
-0.262214
-0.251745
-0.242048
-0.233038
-0.224615
-0.216714
-0.209185
-0.202143
-0.19522
-0.189129
-0.388029
-0.371771
-0.360319
-0.347598
-0.335371
-0.321821
-0.307446
-0.293112
-0.279403
-0.266619
-0.254858
-0.244083
-0.234198
-0.225088
-0.216641
-0.208775
-0.201359
-0.19447
-0.187794
-0.181964
-0.395868
-0.377275
-0.364555
-0.350244
-0.335688
-0.319789
-0.303465
-0.287702
-0.273016
-0.259585
-0.2474
-0.236354
-0.226307
-0.217119
-0.208666
-0.200849
-0.193557
-0.186826
-0.180382
-0.1748
-0.40442
-0.383144
-0.369251
-0.352899
-0.33565
-0.317304
-0.29908
-0.281982
-0.266404
-0.25239
-0.239826
-0.228541
-0.218357
-0.209111
-0.200667
-0.192914
-0.185752
-0.179176
-0.172963
-0.167608
-0.413647
-0.389318
-0.374405
-0.355395
-0.33516
-0.314334
-0.294286
-0.27595
-0.259561
-0.24502
-0.232117
-0.220623
-0.210325
-0.201042
-0.192623
-0.184948
-0.177919
-0.1715
-0.165511
-0.160366
-0.423453
-0.395761
-0.3799
-0.357573
-0.334131
-0.310847
-0.289074
-0.269597
-0.252471
-0.237456
-0.224252
-0.212578
-0.202192
-0.192892
-0.184515
-0.17693
-0.170039
-0.163777
-0.158007
-0.153057
-0.43366
-0.40246
-0.385488
-0.359291
-0.332488
-0.30681
-0.283426
-0.262906
-0.245113
-0.229674
-0.216208
-0.204387
-0.19394
-0.184645
-0.176326
-0.168844
-0.162095
-0.155992
-0.150435
-0.145666
-0.444035
-0.409413
-0.39083
-0.360405
-0.330165
-0.302188
-0.277318
-0.255852
-0.237463
-0.221652
-0.207965
-0.196031
-0.185549
-0.176283
-0.16804
-0.160674
-0.154071
-0.148132
-0.142784
-0.138183
-0.454301
-0.416591
-0.395566
-0.360769
-0.327102
-0.296947
-0.270721
-0.248409
-0.229493
-0.213364
-0.199501
-0.187489
-0.177005
-0.167791
-0.159645
-0.152408
-0.145959
-0.140187
-0.135045
-0.130601
-0.464177
-0.423899
-0.39938
-0.360233
-0.323241
-0.29105
-0.263603
-0.240546
-0.221178
-0.204789
-0.190795
-0.178747
-0.168293
-0.159159
-0.151129
-0.144037
-0.137748
-0.132152
-0.127211
-0.122913
-0.473395
-0.431151
-0.402028
-0.358655
-0.318524
-0.284461
-0.255931
-0.232233
-0.212491
-0.195903
-0.18183
-0.169788
-0.159399
-0.150374
-0.142483
-0.135551
-0.129435
-0.124022
-0.119279
-0.115121
-0.481721
-0.43806
-0.403341
-0.355911
-0.312891
-0.277143
-0.247671
-0.223441
-0.203407
-0.186686
-0.172591
-0.1606
-0.150315
-0.141428
-0.133701
-0.126947
-0.121015
-0.115796
-0.111248
-0.107224
-0.488952
-0.444256
-0.403207
-0.351903
-0.306287
-0.26906
-0.238793
-0.214142
-0.193904
-0.177122
-0.163062
-0.151172
-0.14103
-0.132316
-0.124778
-0.118222
-0.112489
-0.107472
-0.103119
-0.0992277
-0.494913
-0.449323
-0.40154
-0.346561
-0.298664
-0.260181
-0.22927
-0.204314
-0.183965
-0.167198
-0.153235
-0.141497
-0.131541
-0.123033
-0.115713
-0.109375
-0.103857
-0.0990534
-0.0948949
-0.0911412
-0.499419
-0.452837
-0.398255
-0.339838
-0.289985
-0.250476
-0.219079
-0.193939
-0.173575
-0.156902
-0.143103
-0.13157
-0.121845
-0.113579
-0.106504
-0.100407
-0.0951216
-0.0905434
-0.086581
-0.0829751
-0.50227
-0.454426
-0.393244
-0.33169
-0.280207
-0.239912
-0.208194
-0.182997
-0.16272
-0.146225
-0.132657
-0.121386
-0.111937
-0.103951
-0.0971515
-0.0913187
-0.0862855
-0.0819484
-0.0781922
-0.0747354
-0.503483
-0.453897
-0.386439
-0.322081
-0.269291
-0.228455
-0.19659
-0.171469
-0.151388
-0.135157
-0.121893
-0.110942
-0.101816
-0.0941509
-0.0876597
-0.0821157
-0.0773527
-0.0732758
-0.0697532
-0.0664204
-0.502844
-0.450989
-0.377738
-0.310976
-0.257214
-0.216087
-0.184255
-0.159348
-0.139572
-0.123696
-0.110808
-0.100239
-0.0914882
-0.0841835
-0.0780356
-0.072807
-0.0683347
-0.0645364
-0.0612694
-0.0580449
-0.50017
-0.445547
-0.367087
-0.29836
-0.243964
-0.202796
-0.171179
-0.146628
-0.127269
-0.111842
-0.0994073
-0.0892831
-0.0809628
-0.0740582
-0.068288
-0.0634037
-0.059253
-0.0557624
-0.052692
-0.0496551
-0.495284
-0.437465
-0.354442
-0.284218
-0.229532
-0.188571
-0.157353
-0.133306
-0.114484
-0.0996045
-0.0877034
-0.0780853
-0.070253
-0.0637901
-0.0584231
-0.0539109
-0.0501141
-0.0469379
-0.0440709
-0.0412534
-0.487999
-0.426675
-0.33978
-0.268546
-0.213913
-0.173407
-0.142778
-0.119388
-0.101236
-0.087003
-0.0757167
-0.0666643
-0.0593532
-0.0533789
-0.0484513
-0.0443428
-0.0409243
-0.0380719
-0.0354319
-0.0328506
-0.478126
-0.413138
-0.323093
-0.251343
-0.197098
-0.15731
-0.127475
-0.104901
-0.0875602
-0.0740491
-0.0634394
-0.0550195
-0.0482824
-0.0428371
-0.0383858
-0.0347124
-0.0316946
-0.0291804
-0.0267899
-0.024463
-0.465487
-0.396841
-0.304392
-0.232613
-0.179085
-0.140321
-0.111496
-0.0898901
-0.0734278
-0.0607466
-0.0508922
-0.0431662
-0.0370565
-0.0321804
-0.0282411
-0.0250329
-0.0224382
-0.0202792
-0.0181579
-0.0161078
-0.449923
-0.377786
-0.283697
-0.212374
-0.159917
-0.122512
-0.0948451
-0.0743335
-0.0588741
-0.0471169
-0.0380959
-0.0311238
-0.0256926
-0.0214258
-0.0180331
-0.0153192
-0.01317
-0.0113837
-0.00955006
-0.00780165
-0.431307
-0.355994
-0.261015
-0.190698
-0.139732
-0.10384
-0.0775354
-0.0582649
-0.0439286
-0.0331864
-0.0250734
-0.0189143
-0.0142099
-0.0105918
-0.00777889
-0.00558741
-0.00390572
-0.00250938
-0.000982016
0.000438941
-0.409555
-0.331519
-0.236323
-0.16773
-0.118541
-0.0843408
-0.0596039
-0.0417223
-0.0286242
-0.0189849
-0.0118508
-0.00656132
-0.0026297
0.000301815
0.00250297
0.00414518
0.0053383
0.00632717
0.00752842
0.00859699
-0.38463
-0.304498
-0.209636
-0.143536
-0.0963627
-0.0640821
-0.0410973
-0.0247484
-0.0129971
-0.0045452
0.00154295
0.00590903
0.00902458
0.0112338
0.0127929
0.0138605
0.0145449
0.0151082
0.0159614
0.0166542
-0.356546
-0.275142
-0.181238
-0.117921
-0.0732559
-0.0431332
-0.0220705
-0.00738987
0.00291161
0.0100965
0.0150758
0.0184685
0.0207277
0.0221815
0.0230704
0.0235397
0.0236971
0.0238163
0.0242969
0.0245914
-0.325369
-0.243491
-0.151193
-0.091076
-0.0492962
-0.0215671
-0.00258546
0.0103012
0.0190569
0.0249007
0.0287132
0.0310864
0.0324527
0.0331207
0.0333133
0.0331637
0.0327789
0.0324378
0.0325198
0.0323913
-0.291249
-0.209143
-0.119992
-0.0631799
-0.0245722
0.000539058
0.0172901
0.0282677
0.0353895
0.0398246
0.0424177
0.0437303
0.0441707
0.0440254
0.0434981
0.042712
0.0417757
0.0409641
0.0406224
0.0400428
-0.254423
-0.172333
-0.0875614
-0.0343954
0.000811493
0.0231016
0.0374833
0.0464477
0.0518565
0.0548224
0.0561496
0.0563655
0.0558513
0.0548681
0.0535998
0.0521636
0.0506733
0.049386
0.0485927
0.0475308
-0.214983
-0.133521
-0.0539247
-0.00486505
0.0267379
0.0460295
0.0579159
0.0647748
0.0684011
0.0698454
0.069867
0.0689557
0.0674625
0.0656204
0.0635936
0.0614995
0.0594572
0.057681
0.0563786
0.0547864
-0.172602
-0.0937097
-0.0192555
0.0252766
0.0530831
0.0692237
0.078505
0.0831786
0.0849636
0.0848425
0.0835258
0.0814629
0.0789713
0.0762537
0.0734577
0.0707063
0.0681151
0.0658074
0.0638605
0.0616078
-0.128003
-0.0528887
0.0162243
0.0558836
0.0797167
0.0925787
0.0991628
0.101586
0.101482
0.0997607
0.0970809
0.093848
0.0903435
0.0867399
0.0831727
0.079774
0.0766337
0.0737154
0.0709052
0.0677657
-0.0814534
-0.0111653
0.0522793
0.0867932
0.106503
0.115984
0.119798
0.11992
0.117892
0.114546
0.110486
0.106071
0.101545
0.0970511
0.0927186
0.0886843
0.084983
0.0813625
0.0775259
0.0736086
-0.0331696
0.0312626
0.0886838
0.117841
0.133307
0.139327
0.140319
0.138103
0.134127
0.129141
0.123692
0.118089
0.112539
0.107158
0.10207
0.0974011
0.0931053
0.0887329
0.083955
0.0804515
0.0160462
0.0740965
0.125221
0.148869
0.159995
0.162498
0.16063
0.156056
0.15012
0.143489
0.136649
0.12986
0.12329
0.117032
0.111198
0.105883
0.100951
0.0958827
0.0905826
0.0873537
0.065855
0.117071
0.161652
0.179688
0.186418
0.185373
0.180632
0.173694
0.1658
0.15753
0.149307
0.14134
0.133761
0.126639
0.120068
0.114101
0.108534
0.102872
0.0972451
0.0939993
0.115853
0.159874
0.197737
0.210113
0.212426
0.207831
0.200224
0.190935
0.181098
0.171205
0.161614
0.152486
0.143915
0.135947
0.128649
0.12203
0.115855
0.109693
0.10379
0.1003
0.165616
0.202193
0.233237
0.239956
0.237869
0.22975
0.219305
0.207695
0.195943
0.184453
0.173521
0.163255
0.153715
0.14492
0.136909
0.129653
0.122907
0.116302
0.110121
0.106285
0.214718
0.243714
0.267913
0.26903
0.262597
0.251009
0.237777
0.22389
0.210265
0.197216
0.184976
0.173604
0.163123
0.153526
0.14482
0.136949
0.12967
0.122657
0.116186
0.111966
0.26274
0.284128
0.301529
0.297152
0.286464
0.271488
0.255539
0.23944
0.223996
0.209436
0.19593
0.183489
0.172102
0.161731
0.152355
0.143897
0.136118
0.128723
0.121961
0.117346
0.30927
0.323131
0.333855
0.324138
0.309323
0.291069
0.272496
0.254262
0.237069
0.221056
0.206335
0.192869
0.180614
0.169503
0.159488
0.150472
0.142224
0.134469
0.127426
0.122428
0.353908
0.360431
0.364667
0.349815
0.331035
0.309638
0.288553
0.268281
0.249417
0.23202
0.216143
0.201704
0.188625
0.176811
0.166191
0.15665
0.147962
0.139871
0.132565
0.127204
0.396277
0.395743
0.393752
0.37401
0.351463
0.327085
0.303622
0.281421
0.260979
0.242276
0.22531
0.209955
0.196101
0.183627
0.172439
0.162406
0.153307
0.144906
0.137363
0.131664
0.436027
0.428786
0.420904
0.396564
0.370479
0.343306
0.317617
0.293612
0.271696
0.251774
0.233792
0.217583
0.203009
0.189922
0.178205
0.167716
0.158237
0.149554
0.141797
0.135775
0.472835
0.459294
0.445928
0.417324
0.387963
0.358204
0.330456
0.304787
0.281511
0.260466
0.241549
0.224556
0.209319
0.195669
0.183468
0.172559
0.162734
0.153796
0.145841
0.139492
0.506391
0.487029
0.468647
0.43615
0.403802
0.371687
0.342067
0.314884
0.290373
0.268309
0.248544
0.23084
0.215003
0.200843
0.188203
0.176917
0.166781
0.157614
0.149469
0.142809
0.53641
0.511777
0.488897
0.452915
0.417894
0.383674
0.352381
0.323847
0.298235
0.275263
0.254743
0.236406
0.220036
0.205423
0.192393
0.180771
0.170362
0.160993
0.152672
0.145731
0.562638
0.533349
0.506532
0.467503
0.430147
0.394089
0.361337
0.331625
0.305055
0.281292
0.260115
0.241228
0.224394
0.209387
0.196019
0.184106
0.173461
0.163917
0.155444
0.148259
0.584848
0.551581
0.521426
0.479814
0.440482
0.402869
0.368884
0.338176
0.310795
0.286364
0.264633
0.245282
0.228058
0.212719
0.199065
0.186907
0.176064
0.166373
0.157773
0.150385
0.602852
0.566335
0.53347
0.489765
0.448832
0.409959
0.374975
0.343461
0.315425
0.290454
0.268275
0.248549
0.231009
0.215402
0.201518
0.189163
0.17816
0.168352
0.159651
0.152099
0.616494
0.577497
0.542579
0.497287
0.45514
0.415314
0.379574
0.347451
0.318919
0.29354
0.271022
0.251013
0.233235
0.217425
0.203367
0.190863
0.17974
0.169844
0.161068
0.153393
0.625656
0.584985
0.548685
0.502328
0.459367
0.418901
0.382654
0.350123
0.321258
0.295606
0.272861
0.252662
0.234724
0.218779
0.204605
0.192001
0.180798
0.170842
0.162017
0.154259
0.63026
0.588743
0.551749
0.504857
0.461487
0.4207
0.384198
0.351462
0.32243
0.296641
0.273782
0.253488
0.23547
0.219457
0.205225
0.192571
0.181327
0.171343
0.162492
0.154694
0.63026
0.588743
0.551749
0.504857
0.461487
0.4207
0.384198
0.351462
0.32243
0.296641
0.273782
0.253488
0.23547
0.219457
0.205225
0.192571
0.181327
0.171343
0.162492
0.154694
0.625656
0.584985
0.548685
0.502328
0.459367
0.418901
0.382654
0.350123
0.321258
0.295606
0.272861
0.252662
0.234724
0.218779
0.204605
0.192001
0.180798
0.170842
0.162017
0.154259
0.616494
0.577497
0.542579
0.497287
0.45514
0.415314
0.379574
0.347451
0.318919
0.29354
0.271022
0.251013
0.233235
0.217425
0.203367
0.190863
0.17974
0.169844
0.161068
0.153393
0.602852
0.566335
0.53347
0.489765
0.448832
0.409959
0.374975
0.343461
0.315425
0.290454
0.268275
0.248549
0.231009
0.215402
0.201518
0.189163
0.17816
0.168352
0.159651
0.152099
0.584848
0.551581
0.521426
0.479814
0.440482
0.402869
0.368884
0.338176
0.310795
0.286364
0.264633
0.245282
0.228058
0.212719
0.199065
0.186907
0.176064
0.166373
0.157773
0.150385
0.562638
0.533349
0.506532
0.467503
0.430147
0.394089
0.361337
0.331625
0.305055
0.281292
0.260115
0.241228
0.224394
0.209387
0.196019
0.184106
0.173461
0.163917
0.155444
0.148259
0.53641
0.511777
0.488897
0.452915
0.417893
0.383674
0.352381
0.323847
0.298235
0.275263
0.254743
0.236406
0.220036
0.205423
0.192393
0.180771
0.170362
0.160993
0.152672
0.145731
0.506391
0.487029
0.468647
0.43615
0.403802
0.371687
0.342067
0.314884
0.290373
0.268309
0.248544
0.23084
0.215003
0.200843
0.188203
0.176917
0.166781
0.157614
0.149469
0.142809
0.472834
0.459294
0.445928
0.417324
0.387963
0.358204
0.330456
0.304787
0.281511
0.260466
0.241549
0.224556
0.209319
0.195669
0.183468
0.172559
0.162734
0.153796
0.145841
0.139492
0.436027
0.428786
0.420904
0.396564
0.370479
0.343306
0.317617
0.293612
0.271696
0.251774
0.233792
0.217583
0.203009
0.189922
0.178205
0.167716
0.158237
0.149554
0.141797
0.135775
0.396277
0.395743
0.393752
0.37401
0.351463
0.327085
0.303622
0.281421
0.260979
0.242276
0.22531
0.209955
0.196101
0.183627
0.172439
0.162406
0.153307
0.144906
0.137363
0.131664
0.353908
0.360431
0.364667
0.349815
0.331035
0.309638
0.288553
0.268281
0.249417
0.23202
0.216143
0.201704
0.188625
0.176811
0.166191
0.15665
0.147962
0.139871
0.132565
0.127204
0.30927
0.323131
0.333855
0.324138
0.309323
0.291069
0.272496
0.254262
0.237069
0.221056
0.206335
0.192869
0.180614
0.169503
0.159488
0.150472
0.142224
0.134469
0.127426
0.122428
0.26274
0.284128
0.301529
0.297152
0.286464
0.271488
0.255539
0.23944
0.223996
0.209436
0.19593
0.183489
0.172102
0.161731
0.152355
0.143897
0.136118
0.128723
0.121961
0.117346
0.214718
0.243714
0.267913
0.26903
0.262597
0.251009
0.237777
0.22389
0.210265
0.197216
0.184976
0.173604
0.163123
0.153526
0.14482
0.136949
0.12967
0.122657
0.116186
0.111966
0.165616
0.202193
0.233237
0.239956
0.237869
0.22975
0.219305
0.207695
0.195943
0.184453
0.173521
0.163255
0.153715
0.14492
0.136909
0.129653
0.122907
0.116302
0.110121
0.106285
0.115853
0.159874
0.197737
0.210113
0.212426
0.207831
0.200224
0.190935
0.181098
0.171205
0.161614
0.152486
0.143915
0.135947
0.128649
0.12203
0.115855
0.109693
0.10379
0.1003
0.065855
0.117071
0.161652
0.179688
0.186418
0.185373
0.180632
0.173694
0.1658
0.15753
0.149307
0.14134
0.133761
0.126639
0.120068
0.114101
0.108534
0.102872
0.0972451
0.0939993
0.0160462
0.0740965
0.125221
0.148869
0.159995
0.162498
0.16063
0.156056
0.15012
0.143489
0.136649
0.12986
0.12329
0.117032
0.111198
0.105883
0.100951
0.0958827
0.0905825
0.0873537
-0.0331696
0.0312626
0.0886837
0.117841
0.133307
0.139327
0.140319
0.138103
0.134127
0.129141
0.123692
0.118089
0.112539
0.107158
0.10207
0.0974011
0.0931053
0.0887329
0.083955
0.0804515
-0.0814534
-0.0111653
0.0522793
0.0867932
0.106503
0.115984
0.119798
0.11992
0.117892
0.114546
0.110486
0.106071
0.101545
0.0970511
0.0927186
0.0886843
0.084983
0.0813625
0.0775259
0.0736086
-0.128003
-0.0528887
0.0162243
0.0558836
0.0797167
0.0925786
0.0991628
0.101586
0.101482
0.0997607
0.0970809
0.093848
0.0903435
0.0867399
0.0831727
0.079774
0.0766337
0.0737154
0.0709052
0.0677657
-0.172602
-0.0937097
-0.0192555
0.0252765
0.0530831
0.0692237
0.078505
0.0831786
0.0849636
0.0848425
0.0835258
0.0814629
0.0789712
0.0762537
0.0734577
0.0707063
0.0681151
0.0658074
0.0638605
0.0616078
-0.214983
-0.133521
-0.0539247
-0.00486506
0.0267379
0.0460295
0.0579159
0.0647747
0.0684011
0.0698454
0.069867
0.0689557
0.0674625
0.0656204
0.0635936
0.0614995
0.0594572
0.057681
0.0563786
0.0547864
-0.254423
-0.172333
-0.0875614
-0.0343954
0.000811479
0.0231016
0.0374833
0.0464477
0.0518565
0.0548224
0.0561496
0.0563655
0.0558513
0.0548681
0.0535997
0.0521635
0.0506733
0.049386
0.0485927
0.0475307
-0.291249
-0.209143
-0.119992
-0.0631799
-0.0245722
0.000539044
0.0172901
0.0282677
0.0353895
0.0398246
0.0424177
0.0437303
0.0441707
0.0440254
0.0434981
0.042712
0.0417757
0.0409641
0.0406224
0.0400428
-0.325369
-0.243491
-0.151193
-0.0910761
-0.0492963
-0.0215671
-0.00258547
0.0103012
0.0190569
0.0249007
0.0287132
0.0310864
0.0324527
0.0331207
0.0333133
0.0331637
0.0327789
0.0324378
0.0325198
0.0323913
-0.356546
-0.275142
-0.181238
-0.117921
-0.073256
-0.0431332
-0.0220705
-0.00738988
0.0029116
0.0100965
0.0150758
0.0184684
0.0207277
0.0221815
0.0230704
0.0235397
0.0236971
0.0238163
0.0242969
0.0245913
-0.38463
-0.304498
-0.209636
-0.143536
-0.0963627
-0.0640821
-0.0410973
-0.0247484
-0.0129971
-0.00454521
0.00154294
0.00590902
0.00902457
0.0112338
0.0127929
0.0138604
0.0145449
0.0151082
0.0159614
0.0166542
-0.409555
-0.331519
-0.236323
-0.16773
-0.118541
-0.0843408
-0.0596039
-0.0417223
-0.0286242
-0.0189849
-0.0118508
-0.00656133
-0.00262971
0.000301807
0.00250297
0.00414518
0.00533829
0.00632716
0.00752842
0.00859698
-0.431307
-0.355994
-0.261015
-0.190698
-0.139732
-0.10384
-0.0775354
-0.0582649
-0.0439287
-0.0331865
-0.0250734
-0.0189143
-0.0142099
-0.0105918
-0.0077789
-0.00558742
-0.00390573
-0.00250938
-0.000982021
0.000438936
-0.449923
-0.377786
-0.283697
-0.212374
-0.159917
-0.122512
-0.0948452
-0.0743335
-0.0588741
-0.0471169
-0.0380959
-0.0311239
-0.0256926
-0.0214258
-0.0180331
-0.0153192
-0.0131701
-0.0113837
-0.00955007
-0.00780166
-0.465487
-0.396841
-0.304392
-0.232613
-0.179085
-0.140321
-0.111496
-0.0898901
-0.0734278
-0.0607467
-0.0508922
-0.0431662
-0.0370565
-0.0321804
-0.0282411
-0.025033
-0.0224382
-0.0202792
-0.0181579
-0.0161078
-0.478126
-0.413138
-0.323093
-0.251343
-0.197098
-0.15731
-0.127475
-0.104901
-0.0875602
-0.0740491
-0.0634394
-0.0550195
-0.0482824
-0.0428371
-0.0383858
-0.0347124
-0.0316946
-0.0291804
-0.0267899
-0.024463
-0.487999
-0.426675
-0.33978
-0.268546
-0.213913
-0.173407
-0.142778
-0.119388
-0.101236
-0.087003
-0.0757167
-0.0666643
-0.0593532
-0.053379
-0.0484513
-0.0443428
-0.0409243
-0.0380719
-0.0354319
-0.0328506
-0.495284
-0.437465
-0.354442
-0.284218
-0.229532
-0.188571
-0.157353
-0.133306
-0.114484
-0.0996045
-0.0877034
-0.0780853
-0.0702531
-0.0637901
-0.0584231
-0.0539109
-0.0501141
-0.0469379
-0.0440709
-0.0412534
-0.50017
-0.445547
-0.367087
-0.29836
-0.243964
-0.202796
-0.171179
-0.146628
-0.127269
-0.111842
-0.0994074
-0.0892831
-0.0809628
-0.0740583
-0.068288
-0.0634037
-0.059253
-0.0557624
-0.052692
-0.0496551
-0.502844
-0.450989
-0.377738
-0.310976
-0.257214
-0.216087
-0.184255
-0.159348
-0.139572
-0.123696
-0.110808
-0.100239
-0.0914882
-0.0841835
-0.0780356
-0.072807
-0.0683347
-0.0645364
-0.0612694
-0.0580449
-0.503483
-0.453897
-0.386439
-0.322081
-0.269291
-0.228455
-0.19659
-0.171469
-0.151388
-0.135157
-0.121893
-0.110942
-0.101816
-0.0941509
-0.0876597
-0.0821157
-0.0773527
-0.0732758
-0.0697532
-0.0664204
-0.50227
-0.454426
-0.393244
-0.33169
-0.280207
-0.239912
-0.208194
-0.182997
-0.16272
-0.146225
-0.132657
-0.121386
-0.111937
-0.103951
-0.0971515
-0.0913187
-0.0862856
-0.0819484
-0.0781922
-0.0747354
-0.499419
-0.452837
-0.398255
-0.339838
-0.289985
-0.250476
-0.219079
-0.193939
-0.173575
-0.156902
-0.143103
-0.13157
-0.121845
-0.113579
-0.106504
-0.100407
-0.0951217
-0.0905434
-0.086581
-0.0829751
-0.494913
-0.449323
-0.40154
-0.346561
-0.298664
-0.260181
-0.22927
-0.204314
-0.183965
-0.167198
-0.153235
-0.141497
-0.131541
-0.123033
-0.115713
-0.109375
-0.103857
-0.0990534
-0.0948949
-0.0911412
-0.488952
-0.444256
-0.403207
-0.351903
-0.306287
-0.26906
-0.238793
-0.214142
-0.193904
-0.177122
-0.163062
-0.151172
-0.14103
-0.132316
-0.124778
-0.118222
-0.112489
-0.107472
-0.103119
-0.0992277
-0.481721
-0.43806
-0.403341
-0.355911
-0.312891
-0.277143
-0.247671
-0.223441
-0.203407
-0.186686
-0.172591
-0.1606
-0.150315
-0.141428
-0.133701
-0.126947
-0.121015
-0.115796
-0.111249
-0.107224
-0.473395
-0.431151
-0.402028
-0.358655
-0.318524
-0.284461
-0.255931
-0.232233
-0.212491
-0.195903
-0.18183
-0.169788
-0.159399
-0.150374
-0.142483
-0.135551
-0.129435
-0.124022
-0.119279
-0.115121
-0.464177
-0.423899
-0.39938
-0.360233
-0.323241
-0.29105
-0.263603
-0.240546
-0.221178
-0.204789
-0.190795
-0.178747
-0.168293
-0.159159
-0.151129
-0.144037
-0.137748
-0.132152
-0.127211
-0.122913
-0.454301
-0.416591
-0.395566
-0.360769
-0.327102
-0.296947
-0.270721
-0.248409
-0.229493
-0.213364
-0.199501
-0.187489
-0.177005
-0.167791
-0.159645
-0.152408
-0.145959
-0.140187
-0.135045
-0.130601
-0.444035
-0.409413
-0.39083
-0.360405
-0.330165
-0.302188
-0.277318
-0.255852
-0.237463
-0.221652
-0.207965
-0.196031
-0.185549
-0.176283
-0.16804
-0.160674
-0.154071
-0.148132
-0.142784
-0.138183
-0.43366
-0.40246
-0.385488
-0.359291
-0.332488
-0.30681
-0.283426
-0.262906
-0.245113
-0.229674
-0.216208
-0.204387
-0.19394
-0.184645
-0.176326
-0.168844
-0.162095
-0.155992
-0.150435
-0.145666
-0.423454
-0.395761
-0.3799
-0.357573
-0.334131
-0.310847
-0.289074
-0.269597
-0.252472
-0.237456
-0.224252
-0.212578
-0.202192
-0.192892
-0.184515
-0.17693
-0.170039
-0.163777
-0.158007
-0.153057
-0.413647
-0.389318
-0.374405
-0.355395
-0.33516
-0.314334
-0.294286
-0.27595
-0.259562
-0.24502
-0.232117
-0.220623
-0.210325
-0.201042
-0.192623
-0.184948
-0.177919
-0.1715
-0.165511
-0.160366
-0.40442
-0.383144
-0.369251
-0.352899
-0.33565
-0.317304
-0.29908
-0.281982
-0.266404
-0.25239
-0.239826
-0.228541
-0.218357
-0.209111
-0.200667
-0.192914
-0.185752
-0.179176
-0.172963
-0.167608
-0.395868
-0.377275
-0.364555
-0.350244
-0.335688
-0.319789
-0.303465
-0.287702
-0.273016
-0.259585
-0.2474
-0.236354
-0.226307
-0.217119
-0.208666
-0.200849
-0.193557
-0.186826
-0.180382
-0.1748
-0.388029
-0.371771
-0.360319
-0.347598
-0.335371
-0.321821
-0.307446
-0.293113
-0.279403
-0.266619
-0.254858
-0.244083
-0.234198
-0.225088
-0.216641
-0.208775
-0.201359
-0.19447
-0.187794
-0.181964
-0.3809
-0.36669
-0.356482
-0.345107
-0.334804
-0.323439
-0.311023
-0.298202
-0.285563
-0.2735
-0.262214
-0.251745
-0.242048
-0.233038
-0.224615
-0.216714
-0.209185
-0.202143
-0.19522
-0.189129
-0.374452
-0.362072
-0.352989
-0.342862
-0.334099
-0.324693
-0.314195
-0.302952
-0.291479
-0.280224
-0.269474
-0.259355
-0.249876
-0.24099
-0.232608
-0.224696
-0.217064
-0.209875
-0.202716
-0.196319
-0.368644
-0.357923
-0.349816
-0.340883
-0.333364
-0.325645
-0.316966
-0.307334
-0.29712
-0.28677
-0.276635
-0.266921
-0.257696
-0.248965
-0.240647
-0.232742
-0.225035
-0.217711
-0.210294
-0.203594
-0.36343
-0.35422
-0.346963
-0.339147
-0.332679
-0.326369
-0.31935
-0.311317
-0.30244
-0.2931
-0.283676
-0.274438
-0.265518
-0.256977
-0.24875
-0.240885
-0.233121
-0.225702
-0.218075
-0.210958
-0.358758
-0.350925
-0.344434
-0.337628
-0.33209
-0.326941
-0.321376
-0.314874
-0.307381
-0.299157
-0.290554
-0.281886
-0.273337
-0.265036
-0.256937
-0.24914
-0.241371
-0.233877
-0.226062
-0.218617
-0.354572
-0.347989
-0.342219
-0.336317
-0.331609
-0.327422
-0.323086
-0.317989
-0.31188
-0.30486
-0.297199
-0.289218
-0.28113
-0.273139
-0.265214
-0.257531
-0.249777
-0.242339
-0.234344
-0.22651
-0.350805
-0.345361
-0.340292
-0.335213
-0.331244
-0.327866
-0.32454
-0.320675
-0.315889
-0.310122
-0.303517
-0.296356
-0.288848
-0.281262
-0.273579
-0.266063
-0.258383
-0.250944
-0.243272
-0.235123
-0.347413
-0.342993
-0.338594
-0.334278
-0.330965
-0.328273
-0.325769
-0.32294
-0.319364
-0.314846
-0.309386
-0.303187
-0.296404
-0.289349
-0.28201
-0.27471
-0.267228
-0.259728
-0.25257
-0.243731
-0.344315
-0.340853
-0.337084
-0.33349
-0.330771
-0.328662
-0.326821
-0.324831
-0.322298
-0.318957
-0.31468
-0.309562
-0.303667
-0.297294
-0.290454
-0.283428
-0.276269
-0.268685
-0.261667
-0.252313
-0.341476
-0.338876
-0.335715
-0.332809
-0.33064
-0.329039
-0.327732
-0.326402
-0.324721
-0.322417
-0.319289
-0.315314
-0.310463
-0.304932
-0.298793
-0.292149
-0.285395
-0.277814
-0.270619
-0.261008
-0.338847
-0.337024
-0.334442
-0.33219
-0.33054
-0.329391
-0.328525
-0.327706
-0.326692
-0.325242
-0.323151
-0.320295
-0.316591
-0.31205
-0.306828
-0.300751
-0.294488
-0.287097
-0.279691
-0.269997
-0.336378
-0.335267
-0.333224
-0.33159
-0.330428
-0.329695
-0.329205
-0.328789
-0.32828
-0.327493
-0.326268
-0.324422
-0.32187
-0.318415
-0.314291
-0.309023
-0.303404
-0.296449
-0.289031
-0.279373
-0.33403
-0.333574
-0.332035
-0.330973
-0.330268
-0.32992
-0.329765
-0.329678
-0.329554
-0.329263
-0.32871
-0.327705
-0.326193
-0.323832
-0.320897
-0.316662
-0.311912
-0.305667
-0.29858
-0.289134
-0.331773
-0.331928
-0.330852
-0.330311
-0.330028
-0.330039
-0.330188
-0.330385
-0.330565
-0.330645
-0.330586
-0.330237
-0.329563
-0.328208
-0.326426
-0.323328
-0.319692
-0.314374
-0.308061
-0.299114
-0.329591
-0.330324
-0.329661
-0.329586
-0.329686
-0.330027
-0.330457
-0.330909
-0.331342
-0.331711
-0.33201
-0.332152
-0.332095
-0.331577
-0.330814
-0.328751
-0.326454
-0.322068
-0.317051
-0.30888
-0.327477
-0.32876
-0.328455
-0.328791
-0.329234
-0.329872
-0.330559
-0.331244
-0.331901
-0.332508
-0.333078
-0.33358
-0.333964
-0.334066
-0.334158
-0.332833
-0.332069
-0.328285
-0.32512
-0.317876
-0.325436
-0.327238
-0.327239
-0.327933
-0.328672
-0.329572
-0.330491
-0.331389