/*--------------------------------*- C++ -*----------------------------------*\
  =========                 |
  \\      /  F ield         | OpenFOAM: The Open Source CFD Toolbox
   \\    /   O peration     | Website:  https://openfoam.org
    \\  /    A nd           | Version:  7
     \\/     M anipulation  |
\*---------------------------------------------------------------------------*/
FoamFile
{
    version     2.0;
    format      ascii;
    class       volVectorField;
    location    "15";
    object      U;
}
// * * * * * * * * * * * * * * * * * * * * * * * * * * * * * * * * * * * * * //

dimensions      [0 1 -1 0 0 0 0];

internalField   nonuniform List<vector> 
12100
(
(-0.00710644 0.00273251 -2.17891e-20)
(-0.0303513 0.00471498 -2.58596e-20)
(-0.0619808 0.00528044 3.19271e-21)
(-0.0902584 0.00528975 -8.17206e-21)
(-0.116572 0.00511083 3.95471e-20)
(-0.140123 0.00492097 1.24395e-20)
(-0.161645 0.00477541 -1.73253e-20)
(-0.181541 0.00468768 1.8488e-20)
(-0.200233 0.00465327 -2.52866e-20)
(-0.218023 0.00466156 1.47567e-20)
(-0.235129 0.00469834 7.70642e-21)
(-0.25168 0.00474466 2.80101e-21)
(-0.267714 0.00477606 -9.13036e-21)
(-0.283185 0.00476556 -5.2265e-21)
(-0.297906 0.00466957 -3.45083e-21)
(-0.311572 0.00444217 1.44083e-20)
(-0.32395 0.00412558 -1.70541e-20)
(-0.334151 0.0034335 -3.66943e-21)
(-0.34263 0.00309206 4.25914e-21)
(-0.346593 0.00180397 -1.20106e-20)
(-0.00739517 0.00813602 1.11571e-21)
(-0.030561 0.0140555 -1.63097e-20)
(-0.0617346 0.0157477 -3.38673e-20)
(-0.0894054 0.0157725 2.72081e-20)
(-0.114959 0.0152292 1.73024e-20)
(-0.137597 0.0146476 2.6379e-21)
(-0.158019 0.0141934 5.01014e-20)
(-0.176592 0.0139068 -8.05984e-20)
(-0.193696 0.0137742 4.91457e-20)
(-0.209586 0.0137636 -3.8366e-20)
(-0.224432 0.0138323 4.57852e-21)
(-0.238311 0.0139245 -2.23259e-20)
(-0.251209 0.0139677 8.13386e-21)
(-0.263037 0.0138843 1.63969e-20)
(-0.273576 0.0135504 2.74976e-20)
(-0.282415 0.0127992 1.66388e-20)
(-0.289573 0.0118768 4.66032e-20)
(-0.293378 0.00958594 4.45806e-21)
(-0.295892 0.00875676 -3.85586e-20)
(-0.290871 0.00443135 2.88014e-20)
(-0.00796392 0.01336 -6.19244e-21)
(-0.0309789 0.0231326 -2.33528e-20)
(-0.061255 0.0259373 3.3211e-20)
(-0.0877267 0.0259681 2.55101e-20)
(-0.11178 0.0250418 -8.56223e-20)
(-0.132619 0.0240339 1.10849e-20)
(-0.150882 0.0232203 -8.42273e-20)
(-0.166871 0.0226679 6.81471e-21)
(-0.180889 0.0223534 -1.89767e-20)
(-0.193113 0.0222228 3.77942e-20)
(-0.203627 0.022206 -1.17516e-20)
(-0.212428 0.0222124 1.34667e-20)
(-0.219411 0.0221248 -1.36327e-20)
(-0.22443 0.0218238 -2.61505e-20)
(-0.227253 0.0211378 -3.03631e-20)
(-0.227152 0.0196596 -3.72519e-20)
(-0.225113 0.0182692 -7.58434e-20)
(-0.217029 0.0137839 2.84647e-20)
(-0.209862 0.0129845 2.41021e-20)
(-0.188422 0.00478895 7.54441e-20)
(-0.00879617 0.0182952 3.11935e-20)
(-0.0316027 0.0317803 1.23729e-19)
(-0.0605665 0.0356703 -4.00603e-20)
(-0.0852738 0.0356912 -8.13647e-20)
(-0.107121 0.0343522 -4.68256e-20)
(-0.125322 0.0328648 6.48982e-20)
(-0.140441 0.0316141 8.09867e-20)
(-0.152693 0.0306938 -5.84806e-21)
(-0.162291 0.030071 -1.80944e-21)
(-0.169312 0.0296697 -1.09214e-19)
(-0.173749 0.0293935 -5.18104e-20)
(-0.175508 0.0291208 2.42337e-20)
(-0.174395 0.0286958 3.00511e-21)
(-0.170192 0.0279662 2.39372e-20)
(-0.162832 0.0267972 -7.22512e-20)
(-0.150681 0.0243013 2.83073e-20)
(-0.137417 0.0226289 4.16244e-20)
(-0.113144 0.0154579 4.87429e-20)
(-0.0953871 0.0146449 -2.60323e-20)
(-0.0521941 0.00314706 -6.1001e-20)
(-0.00986881 0.0228454 -8.48506e-20)
(-0.032428 0.0398447 -2.41767e-20)
(-0.0597015 0.0447767 7.18113e-20)
(-0.0821163 0.0447636 3.72633e-20)
(-0.101095 0.042974 1.81862e-19)
(-0.115885 0.0409408 -1.68041e-19)
(-0.126963 0.0391576 -9.40612e-20)
(-0.134461 0.0377455 -4.49385e-21)
(-0.138492 0.0366629 -1.67235e-21)
(-0.139042 0.035813 2.22974e-20)
(-0.136018 0.035076 3.27199e-20)
(-0.12926 0.0343039 -8.84513e-20)
(-0.118507 0.0333115 1.07437e-19)
(-0.103426 0.0319218 5.50353e-20)
(-0.0845187 0.030098 8.57132e-20)
(-0.0581475 0.0264627 -2.20478e-21)
(-0.033269 0.0239777 -2.06231e-20)
(0.0100003 0.0155702 1.94566e-21)
(0.0374603 0.0123878 -3.17771e-20)
(0.105612 0.000303277 -5.68396e-20)
(-0.011154 0.0269311 5.52257e-20)
(-0.0334478 0.0471882 4.41866e-21)
(-0.0586966 0.0530977 -1.33737e-19)
(-0.0783325 0.0530175 -6.58278e-20)
(-0.0938319 0.0507338 -2.147e-19)
(-0.104497 0.0480823 -7.78982e-21)
(-0.110728 0.0456643 -1.11501e-20)
(-0.112575 0.0436301 -1.85056e-20)
(-0.110063 0.0419323 8.29726e-21)
(-0.103101 0.0404564 2.29353e-20)
(-0.0915312 0.0390645 1.82075e-19)
(-0.0751583 0.0375868 -1.06355e-21)
(-0.0537009 0.0358239 6.43352e-20)
(-0.0266227 0.0336363 -1.57617e-19)
(0.0045448 0.0307326 2.03717e-20)
(0.0464181 0.0263749 -3.25615e-20)
(0.0827162 0.0220604 -2.6215e-20)
(0.147687 0.0138888 2.47246e-20)
(0.180749 0.00688505 -5.51066e-20)
(0.279007 -0.00428204 5.60815e-20)
(-0.012621 0.0304927 -1.41151e-19)
(-0.034652 0.0536932 -2.4808e-19)
(-0.0575866 0.0604897 8.89149e-20)
(-0.0739986 0.0602979 -2.45569e-20)
(-0.0854499 0.0574733 1.93274e-19)
(-0.0913299 0.0541322 1.85215e-19)
(-0.0919694 0.0509821 -6.3423e-20)
(-0.087347 0.0482061 8.78772e-20)
(-0.077413 0.0457564 -1.20013e-19)
(-0.0620118 0.0435067 1.41026e-20)
(-0.040944 0.0413103 -3.73961e-20)
(-0.0139971 0.0389819 5.87233e-20)
(0.0190962 0.0363031 -1.83672e-21)
(0.059057 0.0333046 -5.47112e-20)
(0.103067 0.028923 1.43514e-19)
(0.161913 0.0245192 -5.57314e-20)
(0.208006 0.017536 -4.76021e-20)
(0.29832 0.0103803 7.41414e-20)
(0.332868 4.31972e-05 2.80697e-20)
(0.463721 -0.0104998 1.22015e-19)
(-0.0142386 0.0334924 1.04613e-19)
(-0.0360252 0.0592646 1.14231e-19)
(-0.0563973 0.0668262 7.85794e-20)
(-0.0691745 0.0664647 2.78411e-19)
(-0.0760379 0.0630515 -6.14319e-20)
(-0.0764922 0.0589573 9.27518e-20)
(-0.0708088 0.0549949 1.20322e-19)
(-0.058899 0.0513857 -1.51082e-19)
(-0.0406414 0.0480903 3.64735e-19)
(-0.0158193 0.04498 4.72284e-21)
(0.0157992 0.0419138 -2.33445e-19)
(0.0544289 0.0387016 -2.43398e-20)
(0.100298 0.0350599 -2.27512e-19)
(0.154312 0.0314489 1.07921e-19)
(0.212053 0.0254035 -8.02716e-20)
(0.288855 0.0217606 8.40243e-20)
(0.345175 0.0115367 1.18174e-19)
(0.459974 0.00660424 4.6367e-20)
(0.496325 -0.00654583 -1.30204e-19)
(0.65539 -0.0163025 -1.138e-19)
(-0.0159773 0.0359142 -5.13176e-20)
(-0.0375456 0.0638318 2.99951e-20)
(-0.0551376 0.0720005 -2.38892e-19)
(-0.0638873 0.0713953 -1.36092e-19)
(-0.0656245 0.0673466 -1.08227e-19)
(-0.0599887 0.0624511 -6.01901e-20)
(-0.0471896 0.0576258 -2.94252e-19)
(-0.0270623 0.0531392 5.30898e-20)
(0.00059798 0.0489738 -2.99162e-19)
(0.0360802 0.045012 -8.56765e-20)
(0.0796385 0.0411372 5.38017e-20)
(0.131464 0.0371747 9.89501e-20)
(0.191702 0.032709 -2.99451e-20)
(0.261074 0.0289152 1.16117e-19)
(0.334463 0.0214081 6.7277e-21)
(0.427829 0.0190244 -1.26385e-19)
(0.498125 0.00648872 9.21982e-21)
(0.629123 0.00366986 -1.79861e-19)
(0.672111 -0.0109868 3.35164e-20)
(0.845369 -0.0189956 -7.13643e-20)
(-0.0178105 0.037763 1.95988e-19)
(-0.0391821 0.0673487 2.2262e-19)
(-0.0537896 0.0759286 5.80611e-20)
(-0.0581127 0.074988 2.36978e-19)
(-0.0541468 0.0702604 6.5647e-20)
(-0.0416674 0.064538 1.46246e-19)
(-0.0208024 0.0588438 1.64118e-19)
(0.00871862 0.0535061 1.51092e-19)
(0.0472051 0.0485473 1.38845e-19)
(0.0950242 0.0438807 -1.14222e-19)
(0.152395 0.0394299 1.77754e-19)
(0.21938 0.0350612 1.74548e-19)
(0.295903 0.03021 2.25218e-19)
(0.381579 0.0266387 -2.15343e-19)
(0.472524 0.0188181 1.9649e-20)
(0.578338 0.0171958 1.86314e-19)
(0.665987 0.00474669 -6.59859e-20)
(0.799087 0.00316555 1.03545e-21)
(0.853529 -0.0116723 -7.21455e-21)
(1.01867 -0.017094 9.06656e-20)
(-0.019716 0.039062 -1.2278e-19)
(-0.0408911 0.0697942 -2.02186e-19)
(-0.052298 0.0785508 3.49275e-19)
(-0.0517533 0.0771662 -3.56072e-19)
(-0.0414143 0.0717245 -2.53333e-19)
(-0.0211654 0.0651827 -1.08271e-19)
(0.00898897 0.058678 -4.71607e-20)
(0.0494657 0.052616 -2.58476e-19)
(0.100683 0.0470826 -1.52131e-19)
(0.163027 0.0420442 -2.42522e-20)
(0.236484 0.0374702 -7.71842e-20)
(0.320712 0.0332628 -5.13332e-20)
(0.414928 0.0288106 -1.21374e-19)
(0.516836 0.0257869 -6.06378e-20)
(0.624337 0.0192299 2.29568e-20)
(0.737136 0.0177598 -1.19582e-19)
(0.838805 0.00733362 1.30728e-20)
(0.959966 0.00617186 7.48159e-21)
(1.02383 -0.00794304 -8.97696e-20)
(1.15834 -0.0112606 6.05314e-20)
(-0.0216762 0.0398497 1.14923e-19)
(-0.0426127 0.0711698 8.95944e-20)
(-0.0505574 0.0798352 -4.05784e-19)
(-0.0446135 0.0778832 -1.35763e-19)
(-0.0270678 0.0717086 1.43157e-19)
(0.00214728 0.0644064 -7.53802e-20)
(0.0432104 0.0572425 2.04312e-19)
(0.0967029 0.0507247 1.93753e-19)
(0.163071 0.0450276 -2.52799e-19)
(0.242485 0.040184 -7.93693e-20)
(0.334239 0.0361857 2.48085e-19)
(0.437047 0.0329014 -2.79907e-19)
(0.548475 0.0297719 -2.5218e-19)
(0.664399 0.0277482 3.50414e-19)
(0.782404 0.0233373 -7.63696e-20)
(0.895815 0.0220026 3.74533e-20)
(0.999753 0.0138792 5.33919e-20)
(1.09963 0.0124597 -4.83166e-20)
(1.16233 -0.000821463 1.31662e-19)
(1.25361 -0.0036086 1.64446e-19)
(-0.023677 0.0401748 -3.68259e-19)
(-0.0442645 0.0714974 -3.52641e-19)
(-0.0484002 0.0797803 2.59812e-19)
(-0.0363751 0.0771304 1.63844e-19)
(-0.0105378 0.0702352 8.69389e-20)
(0.0292198 0.0623103 -7.06263e-20)
(0.0833091 0.0547721 -1.26827e-19)
(0.1524 0.0482618 6.36017e-20)
(0.236681 0.0430533 8.02498e-21)
(0.335544 0.0392178 1.25574e-19)
(0.446813 0.0366908 -1.41555e-19)
(0.567447 0.035159 -6.02177e-20)
(0.692471 0.0340573 1.96833e-19)
(0.816555 0.0334263 -2.56643e-19)
(0.934995 0.0310163 -1.42569e-20)
(1.04071 0.0297484 1.05744e-19)
(1.13251 0.0229267 -4.24454e-20)
(1.20674 0.0205726 -5.52127e-20)
(1.25607 0.0074271 6.95091e-21)
(1.30596 0.00395251 -7.41866e-20)
(-0.0257068 0.0400923 5.6951e-20)
(-0.0457351 0.0708151 3.70274e-19)
(-0.0455802 0.0784151 -1.15021e-19)
(-0.026572 0.0749474 -1.47088e-20)
(0.00899114 0.0673986 -1.13432e-19)
(0.0613495 0.0591052 -4.25172e-20)
(0.131118 0.0516671 3.7974e-20)
(0.218758 0.0458757 1.24141e-19)
(0.323546 0.0420676 3.45864e-20)
(0.443116 0.0402283 -2.62459e-19)
(0.57285 0.0400823 1.54783e-19)
(0.707152 0.0409019 8.87937e-20)
(0.838575 0.0420086 -1.15157e-19)
(0.961238 0.0425547 1.81541e-19)
(1.06905 0.0412911 1.40621e-19)
(1.15803 0.0393326 -3.61867e-20)
(1.22789 0.0325616 1.46099e-21)
(1.27629 0.0285754 -5.30713e-21)
(1.30695 0.0148875 -1.78892e-19)
(1.32691 0.0103521 -2.48617e-19)
(-0.0277541 0.0396584 3.21562e-19)
(-0.0468805 0.0691775 -9.18431e-20)
(-0.0417564 0.0757994 -2.3315e-19)
(-0.0145644 0.0714297 3.08459e-19)
(0.0326039 0.0633863 2.71246e-19)
(0.100165 0.0551503 1.95059e-19)
(0.188701 0.0485361 1.78639e-19)
(0.297758 0.0444475 -6.12954e-20)
(0.424563 0.0431388 1.12993e-19)
(0.563731 0.0442528 1.06439e-19)
(0.707465 0.0470715 -8.89492e-20)
(0.847555 0.0502526 6.29917e-20)
(0.975458 0.0529988 5.39755e-20)
(1.08594 0.0537693 -4.14564e-20)
(1.17427 0.0524246 9.77476e-20)
(1.24067 0.0487028 -1.08789e-19)
(1.28628 0.0412311 1.29754e-19)
(1.31295 0.0351367 2.5463e-19)
(1.32763 0.0209643 1.26911e-19)
(1.33061 0.0156826 2.00274e-19)
(-0.0298013 0.0389233 -1.01457e-19)
(-0.0475206 0.0666546 5.51807e-20)
(-0.0364848 0.0720256 1.35093e-19)
(0.000477543 0.0667379 -3.74248e-19)
(0.0616538 0.0585025 -6.32725e-20)
(0.147531 0.0509874 -3.15209e-19)
(0.258014 0.046212 1.2792e-19)
(0.390452 0.0450251 -3.05357e-19)
(0.538495 0.0472805 1.18904e-19)
(0.692735 0.051929 -2.80617e-19)
(0.842386 0.0575942 1.18408e-20)
(0.977985 0.0623752 3.48688e-20)
(1.0922 0.0654936 -5.943e-20)
(1.18226 0.0652435 -1.50659e-19)
(1.24703 0.0626551 -3.30878e-21)
(1.29064 0.0565494 1.8284e-19)
(1.31574 0.0483 -1.54009e-19)
(1.3275 0.0400577 -3.51926e-19)
(1.3319 0.0260526 -2.61848e-19)
(1.32672 0.0203386 9.81949e-20)
(-0.0318168 0.0379255 3.2109e-21)
(-0.0474276 0.06332 2.45269e-19)
(-0.0292139 0.0672245 -6.41654e-20)
(0.0195741 0.0611128 -2.17829e-20)
(0.097713 0.0531952 7.16043e-20)
(0.205325 0.0473629 2.45795e-19)
(0.340355 0.0457059 -1.20407e-19)
(0.496101 0.0486302 -1.08158e-19)
(0.661254 0.0551118 7.12765e-20)
(0.8225 0.063136 1.58375e-19)
(0.967765 0.0706785 -2.57612e-19)
(1.08891 0.075693 1.95463e-19)
(1.18215 0.0777043 2.56403e-20)
(1.24855 0.0754904 6.68248e-20)
(1.29097 0.0710151 -1.47091e-19)
(1.31596 0.0626548 -4.24342e-20)
(1.3268 0.0539807 -3.95942e-20)
(1.33002 0.0437745 4.28677e-20)
(1.32849 0.0307871 1.53476e-19)
(1.31996 0.0244776 -3.24264e-19)
(-0.0337497 0.036688 -2.71153e-20)
(-0.0463203 0.0592511 -2.38402e-20)
(-0.0192816 0.0615666 2.73128e-19)
(0.0439172 0.0548844 1.40355e-19)
(0.142458 0.0480739 -1.26742e-19)
(0.275068 0.0452083 3.6372e-20)
(0.435652 0.0480542 4.00111e-20)
(0.61149 0.0559431 3.53513e-19)
(0.78607 0.0665314 -2.97042e-19)
(0.944085 0.0768921 -4.20458e-19)
(1.07511 0.084752 -4.13425e-19)
(1.17498 0.0885296 -9.1897e-20)
(1.24469 0.0883565 2.53381e-20)
(1.28907 0.0838701 -1.4376e-19)
(1.31372 0.07747 -1.20705e-20)
(1.32568 0.0675052 2.93441e-20)
(1.32787 0.0587161 -2.11996e-20)
(1.32668 0.0468129 2.94092e-19)
(1.32159 0.0356461 5.31778e-21)
(1.31243 0.0279912 3.04239e-19)
(-0.0355243 0.0352197 2.31068e-20)
(-0.0438648 0.0545327 -3.10007e-19)
(-0.00591758 0.0552563 8.07606e-20)
(0.0748244 0.0484846 -2.70591e-19)
(0.197459 0.043917 3.42627e-19)
(0.357382 0.0455469 -2.30584e-19)
(0.541801 0.0540483 9.36158e-21)
(0.730937 0.0669862 -1.90795e-20)
(0.904893 0.0806343 -2.35375e-19)
(1.04978 0.0916764 5.76258e-19)
(1.15977 0.0982606 2.42884e-19)
(1.23604 0.0997584 -3.47075e-20)
(1.28395 0.0970211 -1.22011e-19)
(1.31074 0.0904921 -2.20087e-19)
(1.32289 0.082498 -6.14503e-21)
(1.3266 0.0716806 -1.00625e-19)
(1.32399 0.0627786 8.69956e-20)
(1.32051 0.0496758 -4.44478e-20)
(1.31311 0.0408615 -3.38369e-19)
(1.30506 0.0305999 -1.31757e-19)
(-0.0370524 0.0335343 -1.6687e-19)
(-0.0396575 0.0492382 2.13996e-19)
(0.0117425 0.0485361 -1.86167e-19)
(0.113654 0.0424657 -2.03188e-19)
(0.26385 0.0416495 -3.75324e-19)
(0.451397 0.0492977 1.47457e-19)
(0.654455 0.063931 -1.01752e-19)
(0.847337 0.0810186 -2.94502e-19)
(1.01056 0.0960038 2.54849e-19)
(1.13519 0.106011 -2.05411e-19)
(1.22156 0.110197 2.95258e-19)
(1.27576 0.109019 3.38687e-19)
(1.30595 0.103905 1.82261e-19)
(1.32006 0.0957913 2.77672e-19)
(1.32412 0.0866481 -4.66513e-20)
(1.32294 0.0755306 6.74109e-20)
(1.31784 0.0663217 -2.46541e-20)
(1.31306 0.0528953 1.52232e-19)
(1.30411 0.0462244 7.52624e-20)
(1.29812 0.0318806 8.63601e-20)
(-0.0382273 0.0316269 8.68837e-19)
(-0.0332417 0.0434348 -2.1752e-19)
(0.0346323 0.0417105 1.90044e-19)
(0.161654 0.0375273 2.31001e-19)
(0.341881 0.0422491 3.53957e-19)
(0.554348 0.0569962 -1.86842e-19)
(0.767634 0.0772319 1.09708e-19)
(0.953952 0.0967661 -1.47919e-19)
(1.0986 0.111228 -2.71802e-19)
(1.19971 0.118922 1.40252e-19)
(1.26347 0.120227 -2.50536e-19)
(1.29928 0.116498 -1.58341e-19)
(1.31629 0.109458 1.79443e-20)
(1.32189 0.100218 7.64831e-20)
(1.32102 0.0903353 -1.43428e-20)
(1.31705 0.0791791 1.35634e-19)
(1.31074 0.0695851 1.46801e-20)
(1.3051 0.0567886 -3.53011e-19)
(1.29555 0.0507033 1.57592e-19)
(1.29107 0.0311418 -1.44969e-19)
(-0.0389136 0.0294836 -6.10251e-19)
(-0.0241217 0.0372185 2.60349e-19)
(0.0637308 0.0351515 -2.71881e-20)
(0.219758 0.0344913 -1.3215e-19)
(0.430465 0.0465086 -3.93973e-19)
(0.661687 0.068531 2.7936e-19)
(0.875046 0.0928729 -2.52939e-19)
(1.04599 0.112859 1.11578e-19)
(1.16773 0.125308 1.37267e-19)
(1.2455 0.130032 -5.83247e-19)
(1.28978 0.128497 1.1205e-19)
(1.31141 0.122604 2.00339e-20)
(1.31924 0.114123 2.44915e-19)
(1.31942 0.104133 -2.9675e-20)
(1.31565 0.0938074 -3.19052e-20)
(1.31015 0.0826824 -2.3362e-20)
(1.30328 0.072888 1.36864e-19)
(1.29701 0.0609405 1.03969e-19)
(1.28779 0.0530378 3.24231e-20)
(1.28305 0.0400254 9.06614e-20)
(-0.0389582 0.0270889 -4.45369e-20)
(-0.0117562 0.0306878 -3.91733e-19)
(0.100016 0.0293102 2.14215e-19)
(0.288307 0.0342245 1.41152e-19)
(0.527025 0.0547845 -1.14358e-19)
(0.768072 0.0831651 -3.538e-19)
(0.971745 0.109584 2.37726e-19)
(1.12148 0.128264 -6.14113e-20)
(1.21926 0.137791 4.45778e-20)
(1.27608 0.139411 3.65463e-19)
(1.30471 0.135353 -1.95512e-19)
(1.31603 0.127749 -1.8057e-19)
(1.31774 0.118239 -1.65574e-19)
(1.3146 0.107769 -3.11786e-20)
(1.30918 0.0971723 -1.21897e-20)
(1.30284 0.0861247 1.11314e-19)
(1.29571 0.0763177 -5.85974e-20)
(1.2891 0.0643938 -6.79368e-20)
(1.28009 0.0577502 -1.55596e-19)
(1.27508 0.0432267 -1.03623e-19)
(-0.0381799 0.0244223 -1.88584e-20)
(0.004438 0.0239666 2.29293e-19)
(0.14435 0.024781 -4.01053e-19)
(0.366678 0.0375088 7.94234e-20)
(0.627641 0.0668699 2.73643e-19)
(0.868436 0.0998192 5.1586e-20)
(1.05477 0.126286 8.18487e-20)
(1.18061 0.142404 1.4804e-19)
(1.25579 0.148627 -1.66788e-19)
(1.29501 0.147333 -1.23828e-19)
(1.31175 0.141176 2.30316e-19)
(1.31588 0.132274 4.26916e-19)
(1.31366 0.122049 4.74097e-20)
(1.30854 0.111269 -1.67964e-19)
(1.3022 0.100501 6.25059e-21)
(1.29539 0.0895763 -1.43806e-19)
(1.28815 0.0795542 3.53351e-20)
(1.2813 0.0684288 -6.92446e-20)
(1.27259 0.06073 -2.62753e-19)
(1.26773 0.0478656 1.37196e-19)
(-0.0363757 0.0214694 4.57726e-20)
(0.0250815 0.0172321 4.30375e-19)
(0.197327 0.0223093 -1.30447e-19)
(0.453078 0.0447944 3.56186e-19)
(0.727811 0.0820456 -2.90617e-19)
(0.959015 0.1174 3.43086e-19)
(1.12321 0.14225 -2.78946e-19)
(1.22504 0.15508 1.80805e-19)
(1.28029 0.15799 -1.17721e-19)
(1.30548 0.154131 1.23497e-20)
(1.31351 0.146295 -1.38543e-19)
(1.31281 0.136432 -2.41625e-19)
(1.30814 0.125707 -1.19364e-19)
(1.30186 0.114714 8.30291e-20)
(1.29498 0.103836 2.81471e-20)
(1.28792 0.0929494 7.74944e-20)
(1.28063 0.0829476 -1.87228e-20)
(1.27363 0.0718718 2.31072e-19)
(1.26532 0.064408 2.21594e-19)
(1.26019 0.0517915 9.13643e-20)
(-0.0333238 0.0182273 -4.14339e-19)
(0.0508189 0.0107533 -3.88206e-19)
(0.259056 0.0227206 2.99566e-19)
(0.544634 0.0560274 -1.8009e-20)
(0.823385 0.0993457 4.14393e-19)
(1.03771 0.135047 -2.4951e-19)
(1.17763 0.157105 1.08466e-19)
(1.25706 0.166337 -1.40315e-19)
(1.29557 0.166149 2.63417e-19)
(1.30999 0.160123 -1.04936e-19)
(1.31187 0.150974 1.02928e-19)
(1.308 0.140396 -6.96591e-21)
(1.30182 0.129306 8.09398e-20)
(1.29485 0.118148 -1.06874e-20)
(1.28766 0.107162 1.24143e-19)
(1.28045 0.0963388 2.55926e-20)
(1.27315 0.0861584 -4.47698e-21)
(1.26609 0.0755005 -1.57464e-19)
(1.25808 0.0675449 -6.02022e-20)
(1.2529 0.0554089 -8.73219e-20)
(-0.0287805 0.014709 5.95155e-19)
(0.082279 0.00494359 -3.76231e-19)
(0.328941 0.026744 9.5238e-20)
(0.637858 0.0706855 -3.72779e-19)
(0.911236 0.117846 -2.60878e-19)
(1.10388 0.1522 2.83725e-20)
(1.21948 0.170736 5.08603e-20)
(1.27903 0.17635 -1.42279e-19)
(1.30402 0.173388 2.58431e-20)
(1.31043 0.165574 2.01545e-19)
(1.30808 0.155402 -1.48548e-19)
(1.30217 0.144276 -8.91121e-20)
(1.29506 0.132897 -4.9098e-20)
(1.28768 0.121582 -4.42852e-20)
(1.2803 0.110501 -5.68773e-20)
(1.273 0.0996492 1.07091e-19)
(1.26571 0.0894132 -5.23475e-20)
(1.25863 0.0788357 -1.09394e-20)
(1.25096 0.0706883 1.44224e-19)
(1.24558 0.0589479 1.56309e-19)
(-0.0224732 0.0109495 -1.4148e-19)
(0.119992 0.000404357 3.49338e-19)
(0.405579 0.0347916 2.0687e-19)
(0.729293 0.0879951 -2.33122e-19)
(0.989478 0.136823 2.87044e-19)
(1.15796 0.168557 -1.69288e-21)
(1.25057 0.183185 2.56621e-19)
(1.29315 0.185344 1.6713e-19)
(1.30754 0.179966 1.48102e-19)
(1.30814 0.170692 -1.42582e-19)
(1.30294 0.159708 9.96767e-20)
(1.29573 0.148139 1.05302e-19)
(1.28805 0.136502 1.76592e-19)
(1.2804 0.125028 -9.34074e-20)
(1.27291 0.113824 -1.38901e-22)
(1.26556 0.10294 -8.996e-20)
(1.2583 0.0925481 3.50944e-21)
(1.25125 0.0821358 -4.00206e-20)
(1.24384 0.0736512 -8.51034e-20)
(1.23833 0.0621684 -3.24256e-20)
(-0.0140941 0.00701849 -1.28978e-19)
(0.164265 -0.00208299 -1.41149e-19)
(0.486856 0.0468323 -7.20233e-21)
(0.816054 0.107174 2.20993e-19)
(1.05731 0.155784 -2.14653e-19)
(1.20097 0.184 -2.33338e-19)
(1.27274 0.194585 8.8886e-20)
(1.30128 0.193551 -1.04709e-19)
(1.30757 0.186101 -6.65016e-20)
(1.30405 0.175628 2.60015e-20)
(1.29695 0.163975 -2.25705e-19)
(1.28891 0.152017 2.08036e-19)
(1.28087 0.14013 -2.01601e-20)
(1.27305 0.128477 -4.63846e-20)
(1.26548 0.11714 4.1832e-20)
(1.25811 0.106158 -6.38118e-20)
(1.2509 0.095653 -5.69733e-20)
(1.24389 0.0852711 -3.34795e-21)
(1.23674 0.0764867 -4.22416e-20)
(1.2311 0.065276 7.97165e-20)
(-0.00330015 0.00303796 1.48533e-19)
(0.215044 -0.00165309 2.56306e-19)
(0.570258 0.0624511 -3.42961e-19)
(0.896096 0.127573 -1.26631e-19)
(1.11474 0.174424 -5.71399e-20)
(1.23422 0.198523 3.26841e-19)
(1.28771 0.205105 -8.69336e-20)
(1.30491 0.201183 -5.40864e-20)
(1.30514 0.191963 -7.50053e-20)
(1.29876 0.180484 9.00788e-20)
(1.29041 0.168252 3.33954e-20)
(1.28184 0.155925 -3.90426e-20)
(1.27355 0.143778 -1.04857e-19)
(1.26563 0.131925 1.07445e-20)
(1.25801 0.120427 -4.54742e-20)
(1.25065 0.109329 8.1653e-20)
(1.24349 0.0986688 2.01206e-20)
(1.23656 0.0883027 2.1176e-20)
(1.22963 0.0792054 2.88304e-20)
(1.22389 0.0681726 -8.39429e-20)
(0.0102726 -0.000795884 -2.79457e-19)
(0.271819 0.00246647 -1.60509e-20)
(0.653236 0.08104 -5.24142e-20)
(0.968204 0.148714 1.49663e-19)
(1.16228 0.192574 -5.15562e-20)
(1.25912 0.212192 -1.43641e-19)
(1.29697 0.214923 -2.01321e-19)
(1.30521 0.208418 1.41047e-19)
(1.301 0.197677 -1.65478e-19)
(1.29265 0.185327 8.21908e-20)
(1.28348 0.17256 4.83912e-20)
(1.27456 0.159866 -2.54794e-20)
(1.26612 0.147439 6.01316e-20)
(1.25812 0.135363 6.76878e-20)
(1.25049 0.123682 -1.4432e-19)
(1.24315 0.112429 1.08654e-19)
(1.23606 0.101621 9.61305e-21)
(1.22923 0.0912055 1.88241e-20)
(1.22249 0.0817951 9.11682e-20)
(1.2167 0.0709313 2.27811e-20)
(0.0269645 -0.00418992 8.30945e-20)
(0.333615 0.0107721 -3.32686e-19)
(0.733523 0.10198 3.10531e-19)
(1.03183 0.170265 1.40652e-19)
(1.20076 0.210157 -1.04441e-19)
(1.27697 0.225107 -1.71689e-19)
(1.30176 0.224204 5.87158e-21)
(1.30305 0.215402 -3.36702e-20)
(1.29565 0.203329 2.84699e-19)
(1.28596 0.190192 -1.29844e-19)
(1.27625 0.176909 -1.49429e-20)
(1.2671 0.163834 3.43455e-20)
(1.25856 0.151104 -2.13833e-20)
(1.25053 0.13878 -4.39968e-20)
(1.2429 0.126893 1.24237e-19)
(1.23561 0.115464 -1.02499e-19)
(1.22861 0.104489 1.25983e-20)
(1.22188 0.0939895 -5.82519e-20)
(1.21532 0.0842777 -6.17481e-20)
(1.20952 0.0735337 -2.00158e-20)
(0.0470361 -0.00674991 -5.98763e-20)
(0.39909 0.0233868 1.39132e-19)
(0.809318 0.124733 -1.25647e-19)
(1.08692 0.191995 -1.29442e-19)
(1.23111 0.227154 2.14004e-19)
(1.289 0.237383 2.26433e-19)
(1.30306 0.233095 1.09262e-19)
(1.29908 0.22224 -1.85428e-21)
(1.28941 0.208974 -2.79839e-19)
(1.27882 0.195096 2.36338e-20)
(1.26876 0.181292 8.92735e-21)
(1.25947 0.167816 6.03988e-20)
(1.25087 0.15476 9.92217e-20)
(1.24284 0.142165 -5.23921e-21)
(1.23524 0.130051 -2.27745e-20)
(1.22802 0.118423 9.20443e-20)
(1.22112 0.107276 -6.03938e-20)
(1.21451 0.0966526 7.45043e-20)
(1.20812 0.0866462 -6.69882e-21)
(1.20234 0.0760034 7.67971e-20)
(0.0706174 -0.00800269 1.04335e-19)
(0.466694 0.0400972 5.44892e-20)
(0.879337 0.14886 -1.23369e-19)
(1.1337 0.213734 -1.51885e-19)
(1.25432 0.243582 -1.07245e-20)
(1.29622 0.249134 -2.48628e-20)
(1.30165 0.241714 1.2216e-19)
(1.29374 0.229007 8.5043e-20)
(1.28249 0.21464 9.1459e-20)
(1.27131 0.200038 -3.32314e-20)
(1.26103 0.185699 4.38698e-20)
(1.25166 0.171798 -4.03872e-20)
(1.24305 0.158393 -8.22997e-20)
(1.23504 0.145506 1.00182e-20)
(1.2275 0.133145 2.15009e-20)
(1.22037 0.121303 2.56991e-20)
(1.21358 0.109973 3.43635e-20)
(1.20709 0.0991951 -2.07406e-20)
(1.20087 0.088913 4.02175e-20)
(1.19515 0.0783429 -9.27486e-20)
(0.0976672 -0.00744571 1.37746e-19)
(0.534829 0.0604787 -1.23527e-20)
(0.942778 0.174007 1.73295e-19)
(1.17263 0.235352 1.0514e-19)
(1.2713 0.259476 4.69422e-20)
(1.29953 0.260464 -1.14776e-19)
(1.29813 0.25015 -1.08732e-19)
(1.28733 0.23575 -3.01987e-20)
(1.27501 0.220336 -8.14347e-21)
(1.26346 0.205008 -7.92757e-21)
(1.25306 0.190113 -1.0578e-19)
(1.24366 0.175763 2.32374e-20)
(1.23507 0.161986 4.20675e-20)
(1.22712 0.14879 1.26105e-21)
(1.21967 0.136166 5.0954e-21)
(1.21264 0.124097 -1.30913e-20)
(1.20598 0.112574 -3.18767e-20)
(1.19963 0.101618 -2.65418e-20)
(1.19358 0.0910767 -5.55859e-20)
(1.18794 0.0805606 8.54782e-21)
(0.127961 -0.00461674 -8.4603e-20)
(0.601977 0.0840282 5.22454e-20)
(0.999239 0.19989 -2.14505e-20)
(1.20425 0.256737 5.00792e-21)
(1.28291 0.274877 -1.93033e-19)
(1.29963 0.271461 4.76933e-20)
(1.29293 0.258467 3.06583e-20)
(1.28007 0.242488 -2.11462e-20)
(1.26705 0.226055 7.56303e-20)
(1.25528 0.209989 -1.21116e-21)
(1.24483 0.194514 3.31484e-20)
(1.23547 0.179692 3.88318e-20)
(1.22694 0.165525 -2.66443e-20)
(1.21908 0.152003 -3.15222e-20)
(1.21174 0.139103 -1.71424e-20)
(1.20484 0.126796 -1.84446e-20)
(1.19832 0.115072 1.62365e-20)
(1.19213 0.103921 1.87924e-20)
(1.18624 0.0931427 3.03426e-20)
(1.1807 0.0826611 3.51022e-20)
(0.161106 0.000839055 -3.94555e-20)
(0.666785 0.110248 -7.69477e-21)
(1.04862 0.226282 -6.98678e-20)
(1.22914 0.2778 6.44919e-20)
(1.2899 0.289828 1.38591e-19)
(1.29709 0.282194 7.5505e-20)
(1.28636 0.266701 -3.39518e-20)
(1.27208 0.249225 -1.97731e-20)
(1.25863 0.231781 -4.48028e-20)
(1.24678 0.214957 4.30956e-20)
(1.23636 0.198879 -1.68619e-21)
(1.22706 0.183564 -2.1402e-20)
(1.21864 0.168991 -2.52333e-20)
(1.2109 0.155129 -2.42375e-20)
(1.20371 0.141943 5.04537e-20)
(1.19696 0.129393 -1.71293e-20)
(1.1906 0.117461 -1.862e-20)
(1.18457 0.106103 -3.21257e-21)
(1.17886 0.0951103 -3.31938e-21)
(1.17343 0.0846472 -1.9519e-20)
(0.196576 0.00912681 -3.9213e-21)
(0.728105 0.138673 -5.18087e-20)
(1.09101 0.252991 2.38807e-20)
(1.24793 0.298465 -8.47025e-20)
(1.29292 0.304359 -5.89678e-20)
(1.29236 0.29271 8.75655e-21)
(1.27864 0.274868 -8.82995e-22)
(1.26343 0.255947 3.87423e-21)
(1.24978 0.237487 1.21608e-20)
(1.23794 0.219885 2.15228e-20)
(1.22761 0.203182 -2.92706e-20)
(1.21845 0.187357 1.24635e-20)
(1.21017 0.172365 2.18116e-20)
(1.20259 0.158155 -4.76141e-21)
(1.19557 0.144675 -2.1267e-20)
(1.189 0.131878 1.19825e-20)
(1.18281 0.119732 1.37435e-20)
(1.17696 0.108162 1.39846e-20)
(1.17142 0.0969803 -7.14755e-21)
(1.16611 0.0865206 2.5945e-21)
(0.233747 0.0202967 4.37894e-20)
(0.785017 0.168874 -6.03898e-20)
(1.12665 0.279848 -8.19553e-21)
(1.2612 0.318672 3.46402e-20)
(1.29253 0.318494 5.56834e-20)
(1.28579 0.303034 -1.70086e-20)
(1.26994 0.282965 -4.84608e-20)
(1.25419 0.26263 4.79636e-20)
(1.24049 0.243143 -1.29366e-20)
(1.22877 0.224741 -1.48905e-20)
(1.2186 0.207395 1.3557e-20)
(1.20961 0.191048 -6.73956e-21)
(1.20153 0.175627 -1.9864e-21)
(1.19415 0.161062 5.2976e-21)
(1.18732 0.147286 7.6282e-21)
(1.18095 0.134239 9.81087e-21)
(1.17495 0.121878 -1.75715e-20)
(1.16929 0.110098 -4.38702e-21)
(1.16394 0.0987495 -1.09253e-21)
(1.15876 0.0882799 5.34306e-21)
(0.271908 0.034271 -2.40333e-20)
(0.836822 0.200444 4.19747e-20)
(1.15584 0.306691 -5.18781e-21)
(1.26952 0.338373 -1.11407e-20)
(1.28918 0.332244 -3.62379e-20)
(1.27764 0.313174 1.69283e-20)
(1.26036 0.290971 1.10932e-20)
(1.24437 0.269239 -1.22445e-20)
(1.23078 0.248711 -1.99915e-21)
(1.21925 0.229493 5.81869e-21)
(1.20931 0.211491 -6.30444e-21)
(1.20055 0.194613 3.17529e-21)
(1.19271 0.178756 -6.91015e-21)
(1.18556 0.163833 3.96703e-21)
(1.17896 0.149761 8.22276e-22)
(1.17281 0.136467 -3.64815e-21)
(1.16703 0.123891 2.10277e-21)
(1.16158 0.111907 -3.29389e-21)
(1.15641 0.100413 1.07944e-21)
(1.15137 0.0899228 3.8715e-21)
(0.310257 0.0508789 -1.72628e-20)
(0.883037 0.232996 3.6772e-20)
(1.17889 0.333356 -3.83229e-21)
(1.2734 0.357524 -1.43148e-20)
(1.28327 0.345609 -3.33264e-20)
(1.26812 0.323119 1.66624e-20)
(1.24997 0.298856 1.07913e-20)
(1.23398 0.275734 -9.6485e-21)
(1.22063 0.254154 -1.11821e-22)
(1.20938 0.234106 4.53512e-21)
(1.19973 0.215439 -3.99899e-21)
(1.19127 0.198025 -1.09493e-21)
(1.18371 0.181733 -2.40449e-21)
(1.17683 0.166452 1.44034e-21)
(1.17049 0.152085 9.3635e-22)
(1.16459 0.138548 -3.69856e-21)
(1.15905 0.125762 4.14318e-21)
(1.15382 0.113585 -3.99734e-21)
(1.14885 0.101963 -9.79233e-22)
(1.14395 0.0914429 2.53363e-21)
(0.348009 0.0698588 4.99795e-20)
(0.923298 0.266124 -4.95968e-20)
(1.19607 0.359659 -3.54045e-20)
(1.27324 0.376078 4.57319e-20)
(1.27508 0.35858 5.1753e-20)
(1.25734 0.332849 -2.09818e-20)
(1.2388 0.306585 -3.45989e-20)
(1.22302 0.282077 3.7738e-20)
(1.21003 0.259434 -1.05005e-20)
(1.19916 0.238549 -1.22372e-20)
(1.18987 0.219213 9.5698e-21)
(1.18176 0.201263 -1.84228e-21)
(1.17452 0.184536 -4.47607e-21)
(1.16796 0.168902 1.42895e-21)
(1.16192 0.154247 6.92457e-21)
(1.15629 0.140472 8.14135e-21)
(1.151 0.127482 -1.02405e-20)
(1.14602 0.115123 -2.71e-21)
(1.14128 0.103395 -1.77671e-21)
(1.13649 0.0928383 3.82416e-21)
(0.384609 0.0909775 2.2274e-20)
(0.957679 0.299565 -7.8819e-20)
(1.20785 0.385489 2.18692e-20)
(1.26953 0.393999 -5.6678e-20)
(1.2649 0.371127 -6.56203e-20)
(1.24542 0.342311 1.05878e-20)
(1.22688 0.314095 4.17921e-21)
(1.21151 0.288207 -4.2166e-21)
(1.19899 0.264498 1.39652e-20)
(1.18857 0.242775 -5.47663e-22)
(1.17972 0.222774 -9.06489e-21)
(1.17202 0.204293 1.83702e-21)
(1.16516 0.187138 1.77235e-20)
(1.15896 0.171158 -1.52153e-21)
(1.15325 0.156225 -6.08108e-21)
(1.14792 0.142225 -3.5472e-21)
(1.14291 0.129037 1.54925e-20)
(1.13819 0.116502 6.69036e-21)
(1.13369 0.104708 -3.94998e-21)
(1.129 0.0941164 -4.68518e-21)
(0.419422 0.113986 -4.94353e-20)
(0.986149 0.333029 -9.42802e-21)
(1.21454 0.410684 -6.82004e-20)
(1.26257 0.411229 7.5856e-20)
(1.2529 0.383208 9.36369e-20)
(1.23244 0.351457 3.61373e-20)
(1.21423 0.321332 -6.54749e-21)
(1.19944 0.294074 7.40277e-21)
(1.1875 0.269304 -3.77603e-20)
(1.17763 0.246749 2.70344e-20)
(1.16929 0.226091 -8.16812e-21)
(1.16205 0.207089 -6.25912e-21)
(1.15564 0.189518 -1.70866e-20)
(1.14983 0.173202 -5.19863e-21)
(1.14449 0.158005 8.08883e-21)
(1.13949 0.143795 -5.31149e-21)
(1.13478 0.13042 -6.99022e-21)
(1.13036 0.117714 2.02158e-21)
(1.12607 0.105894 -1.25083e-21)
(1.12152 0.0952723 -1.07557e-20)
(0.451856 0.138614 -7.30912e-20)
(1.00879 0.366245 1.37956e-20)
(1.21649 0.435095 3.29805e-20)
(1.2527 0.427706 -3.5848e-20)
(1.23928 0.394773 -1.2828e-19)
(1.21846 0.360222 1.05907e-20)
(1.20086 0.328233 4.57313e-20)
(1.1868 0.299621 -1.68727e-20)
(1.17557 0.273802 3.61854e-20)
(1.16634 0.250429 -9.65298e-21)
(1.15859 0.229128 2.39848e-20)
(1.15188 0.209619 3.26869e-21)
(1.14596 0.19165 4.21277e-22)