/*--------------------------------*- C++ -*----------------------------------*\
  =========                 |
  \\      /  F ield         | OpenFOAM: The Open Source CFD Toolbox
   \\    /   O peration     | Website:  https://openfoam.org
    \\  /    A nd           | Version:  7
     \\/     M anipulation  |
\*---------------------------------------------------------------------------*/
FoamFile
{
    version     2.0;
    format      ascii;
    class       volScalarField;
    location    "5";
    object      p;
}
// * * * * * * * * * * * * * * * * * * * * * * * * * * * * * * * * * * * * * //

dimensions      [0 2 -2 0 0 0 0];

internalField   nonuniform List<scalar> 
10500
(
-0.419118
-0.406811
-0.387062
-0.359525
-0.331458
-0.301021
-0.271937
-0.241609
-0.217138
-0.186851
-0.420188
-0.407365
-0.387565
-0.359896
-0.331802
-0.301329
-0.272254
-0.241847
-0.217538
-0.186584
-0.422316
-0.408468
-0.388567
-0.360633
-0.332484
-0.30194
-0.272879
-0.242318
-0.218328
-0.186062
-0.425479
-0.410107
-0.390054
-0.361724
-0.333491
-0.302841
-0.273799
-0.24301
-0.219485
-0.185308
-0.429647
-0.412266
-0.392008
-0.363155
-0.334809
-0.304016
-0.274993
-0.243908
-0.220975
-0.184357
-0.434782
-0.414917
-0.394407
-0.364905
-0.336415
-0.305443
-0.276435
-0.244991
-0.222755
-0.183251
-0.440836
-0.418031
-0.397225
-0.366952
-0.338285
-0.307097
-0.278094
-0.246238
-0.224769
-0.182036
-0.447727
-0.421596
-0.40043
-0.36927
-0.340392
-0.308949
-0.279932
-0.247621
-0.226953
-0.180765
-0.4554
-0.425567
-0.40399
-0.371831
-0.342706
-0.31097
-0.281911
-0.249114
-0.229234
-0.179487
-0.463792
-0.429902
-0.407868
-0.374606
-0.345195
-0.313129
-0.283989
-0.25069
-0.231532
-0.178252
-0.472825
-0.434561
-0.412027
-0.377565
-0.347827
-0.315391
-0.286122
-0.252321
-0.233764
-0.177103
-0.482416
-0.439504
-0.416429
-0.380676
-0.35057
-0.317725
-0.288264
-0.253977
-0.235839
-0.176077
-0.49248
-0.44469
-0.421035
-0.38391
-0.35339
-0.320096
-0.29037
-0.255629
-0.237667
-0.175199
-0.502931
-0.450072
-0.425804
-0.387235
-0.356255
-0.322469
-0.292394
-0.25725
-0.239158
-0.174495
-0.513678
-0.455607
-0.430697
-0.39062
-0.359131
-0.324809
-0.29429
-0.258809
-0.240224
-0.174007
-0.52463
-0.461247
-0.43567
-0.394032
-0.361982
-0.327077
-0.296012
-0.26028
-0.240785
-0.173791
-0.535694
-0.466947
-0.440682
-0.397437
-0.364772
-0.329232
-0.297518
-0.261633
-0.240731
-0.173769
-0.546779
-0.47266
-0.445692
-0.4008
-0.367462
-0.331231
-0.298769
-0.262851
-0.239894
-0.173638
-0.557789
-0.478338
-0.450653
-0.404084
-0.370009
-0.333024
-0.299732
-0.263926
-0.238222
-0.174171
-0.568591
-0.483902
-0.455497
-0.407233
-0.37236
-0.334553
-0.300367
-0.26479
-0.236212
-0.180695
-0.579001
-0.489228
-0.460126
-0.410172
-0.374446
-0.335747
-0.300612
-0.265226
-0.234421
-0.200186
-0.589134
-0.494435
-0.464603
-0.412924
-0.376253
-0.336562
-0.300403
-0.265026
-0.231848
-0.206545
-0.598819
-0.499399
-0.468821
-0.415403
-0.377699
-0.336919
-0.299672
-0.264054
-0.228694
-0.207278
-0.607912
-0.504023
-0.472693
-0.417531
-0.378711
-0.336748
-0.298363
-0.262278
-0.225232
-0.205815
-0.6163
-0.508234
-0.476146
-0.419238
-0.379217
-0.335982
-0.29642
-0.25969
-0.221388
-0.202706
-0.623874
-0.511961
-0.479102
-0.420452
-0.379141
-0.334553
-0.293791
-0.256285
-0.217069
-0.198223
-0.630517
-0.515122
-0.481476
-0.42109
-0.378406
-0.332398
-0.290423
-0.252062
-0.212215
-0.192661
-0.636107
-0.517631
-0.483179
-0.421068
-0.376931
-0.329452
-0.286272
-0.247022
-0.206785
-0.186239
-0.640522
-0.519398
-0.484113
-0.420298
-0.374637
-0.325658
-0.281297
-0.24117
-0.200744
-0.179101
-0.643636
-0.520326
-0.484179
-0.418688
-0.371444
-0.320961
-0.275466
-0.234512
-0.194068
-0.171339
-0.645325
-0.520316
-0.483275
-0.416147
-0.367277
-0.31531
-0.268752
-0.227053
-0.186745
-0.163013
-0.64546
-0.519269
-0.481295
-0.412584
-0.362065
-0.308665
-0.261134
-0.218803
-0.178767
-0.154162
-0.643917
-0.517078
-0.478136
-0.407909
-0.355742
-0.300988
-0.2526
-0.209772
-0.170137
-0.14481
-0.640572
-0.513641
-0.473692
-0.40204
-0.348249
-0.292252
-0.243145
-0.199974
-0.160861
-0.134973
-0.635305
-0.508853
-0.467863
-0.394895
-0.339535
-0.282436
-0.232767
-0.189422
-0.150952
-0.124664
-0.627998
-0.502612
-0.460552
-0.386402
-0.329557
-0.271526
-0.221475
-0.178136
-0.140425
-0.113895
-0.618545
-0.494821
-0.45167
-0.376497
-0.318284
-0.25952
-0.209279
-0.166134
-0.129301
-0.102678
-0.606857
-0.485392
-0.441136
-0.365128
-0.305694
-0.24642
-0.196198
-0.153442
-0.1176
-0.0910301
-0.592846
-0.474244
-0.42888
-0.35225
-0.291774
-0.232238
-0.182255
-0.140083
-0.105349
-0.078967
-0.57631
-0.461236
-0.41481
-0.33782
-0.27652
-0.216992
-0.167477
-0.126087
-0.0925724
-0.0665086
-0.556922
-0.446173
-0.398822
-0.321797
-0.259934
-0.200707
-0.151897
-0.111483
-0.079299
-0.0536778
-0.535374
-0.429358
-0.381052
-0.304246
-0.242063
-0.183423
-0.135552
-0.0963071
-0.0655609
-0.040504
-0.511387
-0.410613
-0.361414
-0.285145
-0.222926
-0.165178
-0.118482
-0.0805945
-0.0513909
-0.0270123
-0.484827
-0.389851
-0.339875
-0.264503
-0.202558
-0.146017
-0.100732
-0.0643837
-0.0368261
-0.0132287
-0.455698
-0.36706
-0.316452
-0.242354
-0.181011
-0.125991
-0.0823479
-0.0477146
-0.0219036
0.000802815
-0.424031
-0.342251
-0.291174
-0.218745
-0.158344
-0.105158
-0.0633816
-0.0306316
-0.00664469
0.0150425
-0.389866
-0.315443
-0.264087
-0.193737
-0.134623
-0.08358
-0.0438871
-0.0131828
0.00890461
0.0294618
-0.353264
-0.286673
-0.235252
-0.1674
-0.109924
-0.061325
-0.0239211
0.00458871
0.0247021
0.044021
-0.314305
-0.255995
-0.204747
-0.139819
-0.0843297
-0.0384643
-0.00354306
0.0226338
0.0407081
0.0586788
-0.273088
-0.223483
-0.172667
-0.111085
-0.0579284
-0.0150727
0.0171844
0.0409013
0.0568817
0.0733921
-0.229737
-0.189228
-0.13912
-0.0813035
-0.0308167
0.00877068
0.0381967
0.0593387
0.0731808
0.0881161
-0.184394
-0.153343
-0.104223
-0.0505908
-0.00309427
0.0329839
0.0594269
0.0778916
0.0895626
0.102803
-0.137219
-0.115958
-0.0681157
-0.0190656
0.0251334
0.057482
0.0808062
0.0965044
0.105984
0.117403
-0.0883877
-0.0772041
-0.0309588
0.013143
0.0537568
0.0821777
0.102264
0.11512
0.122402
0.13186
-0.0381028
-0.0372499
0.0070968
0.045899
0.082663
0.106982
0.123727
0.133681
0.13877
0.146109
0.0134155
0.0037374
0.0458811
0.0790608
0.111736
0.131804
0.145124
0.152127
0.155044
0.160083
0.0659429
0.045563
0.0852136
0.112482
0.140859
0.156551
0.166378
0.170402
0.171191
0.173714
0.119215
0.0880168
0.124904
0.146014
0.169911
0.181132
0.187415
0.188451
0.1872
0.18691
0.172972
0.130887
0.164761
0.179503
0.198774
0.205454
0.208158
0.206223
0.203008
0.199434
0.227157
0.174035
0.204613
0.212802
0.227328
0.229423
0.228535
0.223654
0.218329
0.210761
0.281906
0.217386
0.244306
0.245769
0.255453
0.252948
0.248477
0.240672
0.232871
0.220443
0.335684
0.260253
0.283486
0.27821
0.283028
0.275941
0.267918
0.257227
0.247228
0.232357
0.388631
0.302573
0.32201
0.309988
0.309938
0.298314
0.286791
0.273251
0.261071
0.244648
0.440651
0.344177
0.359701
0.340959
0.336069
0.319979
0.305027
0.288693
0.274289
0.256508
0.491449
0.384822
0.396359
0.370975
0.361309
0.340853
0.322559
0.303508
0.286899
0.267798
0.540721
0.424265
0.431788
0.399892
0.38555
0.360855
0.339326
0.317646
0.298894
0.278529
0.588186
0.462275
0.465802
0.427571
0.408689
0.379906
0.355268
0.331062
0.310247
0.288681
0.633569
0.498628
0.498219
0.453878
0.430625
0.397933
0.370327
0.343713
0.320929
0.298219
0.676607
0.533107
0.528865
0.478687
0.451264
0.414865
0.384451
0.355558
0.330915
0.307114
0.717045
0.565507
0.557577
0.501878
0.470517
0.430634
0.397587
0.36656
0.340177
0.315344
0.754643
0.59563
0.584199
0.523338
0.488298
0.445179
0.409688
0.376682
0.348691
0.322891
0.789173
0.623296
0.608589
0.542962
0.504532
0.458441
0.420711
0.385891
0.356431
0.329736
0.820427
0.648334
0.630615
0.560655
0.519147
0.470367
0.430615
0.394157
0.363375
0.335864
0.848213
0.670591
0.650157
0.576331
0.53208
0.480911
0.439363
0.401453
0.369501
0.34126
0.872362
0.689931
0.667108
0.589913
0.543272
0.490029
0.446923
0.407754
0.374789
0.34591
0.892722
0.706233
0.681378
0.601334
0.552675
0.497684
0.453267
0.413038
0.379224
0.349804
0.909169
0.719397
0.692888
0.610539
0.560248
0.503846
0.458372
0.417288
0.382789
0.352932
0.921598
0.729341
0.701575
0.617481
0.565956
0.508489
0.462217
0.420488
0.385474
0.355285
0.929933
0.736004
0.707393
0.622127
0.569775
0.511595
0.464788
0.422628
0.38727
0.356857
0.934122
0.739348
0.71031
0.624455
0.571689
0.513151
0.466077
0.4237
0.388169
0.357645
0.934122
0.739348
0.71031
0.624455
0.571689
0.513151
0.466077
0.4237
0.388169
0.357645
0.929933
0.736004
0.707393
0.622127
0.569775
0.511595
0.464788
0.422628
0.38727
0.356857
0.921598
0.729341
0.701575
0.617481
0.565956
0.508489
0.462217
0.420488
0.385474
0.355285
0.909169
0.719397
0.692888
0.610539
0.560248
0.503846
0.458372
0.417288
0.382789
0.352932
0.892722
0.706233
0.681378
0.601334
0.552675
0.497684
0.453267
0.413038
0.379224
0.349804
0.872361
0.689931
0.667108
0.589913
0.543272
0.490029
0.446923
0.407754
0.374789
0.34591
0.848213
0.670591
0.650156
0.576331
0.532079
0.480911
0.439363
0.401453
0.369501
0.34126
0.820427
0.648334
0.630615
0.560655
0.519147
0.470367
0.430615
0.394157
0.363375
0.335864
0.789173
0.623296
0.608589
0.542962
0.504532
0.458441
0.420711
0.385891
0.356431
0.329736
0.754643
0.59563
0.584199
0.523338
0.488298
0.445179
0.409688
0.376681
0.348691
0.322891
0.717045
0.565506
0.557576
0.501878
0.470517
0.430634
0.397587
0.36656
0.340177
0.315344
0.676607
0.533107
0.528865
0.478687
0.451264
0.414865
0.38445
0.355558
0.330915
0.307114
0.633569
0.498627
0.498218
0.453878
0.430625
0.397933
0.370327
0.343713
0.320929
0.298219
0.588185
0.462275
0.465802
0.427571
0.408689
0.379906
0.355268
0.331062
0.310247
0.288681
0.540721
0.424265
0.431788
0.399892
0.38555
0.360855
0.339326
0.317646
0.298894
0.278529
0.491448
0.384822
0.396359
0.370975
0.361309
0.340853
0.322559
0.303508
0.286899
0.267798
0.44065
0.344177
0.3597
0.340959
0.336068
0.319979
0.305027
0.288693
0.274289
0.256508
0.388631
0.302573
0.32201
0.309988
0.309938
0.298314
0.286791
0.273251
0.261071
0.244648
0.335684
0.260253
0.283486
0.278209
0.283028
0.275941
0.267918
0.257227
0.247228
0.232357
0.281905
0.217386
0.244306
0.245769
0.255453
0.252948
0.248477
0.240672
0.232871
0.220443
0.227156
0.174035
0.204613
0.212802
0.227328
0.229423
0.228535
0.223654
0.218329
0.21076
0.172972
0.130887
0.164761
0.179502
0.198774
0.205454
0.208158
0.206223
0.203007
0.199434
0.119215
0.0880166
0.124904
0.146014
0.169911
0.181132
0.187415
0.188451
0.1872
0.18691
0.0659427
0.0455628
0.0852134
0.112482
0.140859
0.156551
0.166378
0.170402
0.171191
0.173714
0.0134153
0.00373723
0.045881
0.0790607
0.111736
0.131804
0.145124
0.152127
0.155044
0.160083
-0.038103
-0.03725
0.00709664
0.0458988
0.0826629
0.106982
0.123727
0.133681
0.13877
0.146109
-0.0883879
-0.0772043
-0.030959
0.0131429
0.0537567
0.0821776
0.102264
0.11512
0.122401
0.131859
-0.137219
-0.115958
-0.0681159
-0.0190657
0.0251333
0.0574819
0.0808061
0.0965044
0.105984
0.117403
-0.184394
-0.153344
-0.104223
-0.0505909
-0.00309438
0.0329838
0.0594269
0.0778915
0.0895626
0.102803
-0.229738
-0.189229
-0.13912
-0.0813036
-0.0308168
0.00877059
0.0381966
0.0593386
0.0731807
0.0881161
-0.273088
-0.223483
-0.172667
-0.111086
-0.0579285
-0.0150728
0.0171843
0.0409013
0.0568816
0.0733921
-0.314305
-0.255995
-0.204747
-0.139819
-0.0843298
-0.0384644
-0.00354314
0.0226337
0.0407081
0.0586787
-0.353265
-0.286673
-0.235252
-0.167401
-0.109924
-0.0613251
-0.0239212
0.00458863
0.024702
0.044021
-0.389867
-0.315443
-0.264087
-0.193737
-0.134623
-0.0835801
-0.0438872
-0.0131829
0.00890454
0.0294617
-0.424031
-0.342251
-0.291174
-0.218745
-0.158344
-0.105158
-0.0633817
-0.0306317
-0.00664477
0.0150424
-0.455698
-0.367061
-0.316452
-0.242354
-0.181011
-0.125991
-0.082348
-0.0477147
-0.0219037
0.00080271
-0.484827
-0.389851
-0.339876
-0.264503
-0.202558
-0.146017
-0.100732
-0.0643837
-0.0368261
-0.0132288
-0.511387
-0.410613
-0.361414
-0.285146
-0.222926
-0.165178
-0.118482
-0.0805946
-0.051391
-0.0270125
-0.535374
-0.429358
-0.381052
-0.304246
-0.242063
-0.183423
-0.135552
-0.0963072
-0.065561
-0.0405041
-0.556922
-0.446173
-0.398822
-0.321797
-0.259934
-0.200707
-0.151897
-0.111483
-0.0792991
-0.053678
-0.57631
-0.461236
-0.414811
-0.337821
-0.27652
-0.216992
-0.167477
-0.126087
-0.0925725
-0.0665087
-0.592846
-0.474244
-0.42888
-0.35225
-0.291774
-0.232238
-0.182255
-0.140083
-0.105349
-0.0789672
-0.606857
-0.485393
-0.441136
-0.365128
-0.305694
-0.24642
-0.196198
-0.153442
-0.117601
-0.0910303
-0.618545
-0.494821
-0.45167
-0.376497
-0.318284
-0.25952
-0.209279
-0.166135
-0.129301
-0.102679
-0.627998
-0.502612
-0.460552
-0.386402
-0.329558
-0.271526
-0.221475
-0.178136
-0.140425
-0.113895
-0.635305
-0.508853
-0.467863
-0.394895
-0.339535
-0.282436
-0.232767
-0.189422
-0.150952
-0.124664
-0.640572
-0.513641
-0.473692
-0.40204
-0.348249
-0.292252
-0.243145
-0.199974
-0.160861
-0.134973
-0.643917
-0.517078
-0.478136
-0.407909
-0.355742
-0.300988
-0.2526
-0.209773
-0.170137
-0.14481
-0.64546
-0.519269
-0.481295
-0.412584
-0.362065
-0.308665
-0.261134
-0.218803
-0.178767
-0.154163
-0.645325
-0.520316
-0.483275
-0.416147
-0.367277
-0.315311
-0.268752
-0.227053
-0.186745
-0.163014
-0.643636
-0.520326
-0.484179
-0.418688
-0.371444
-0.320961
-0.275466
-0.234512
-0.194069
-0.171339
-0.640522
-0.519398
-0.484113
-0.420298
-0.374637
-0.325658
-0.281298
-0.24117
-0.200744
-0.179101
-0.636107
-0.517631
-0.483179
-0.421068
-0.376931
-0.329452
-0.286272
-0.247022
-0.206785
-0.18624
-0.630517
-0.515122
-0.481476
-0.42109
-0.378406
-0.332398
-0.290423
-0.252062
-0.212216
-0.192662
-0.623874
-0.511961
-0.479102
-0.420452
-0.379141
-0.334553
-0.293791
-0.256285
-0.217069
-0.198224
-0.6163
-0.508234
-0.476146
-0.419238
-0.379217
-0.335982
-0.29642
-0.25969
-0.221388
-0.202706
-0.607912
-0.504023
-0.472693
-0.417531
-0.378711
-0.336748
-0.298363
-0.262278
-0.225232
-0.205815
-0.598819
-0.499399
-0.468821
-0.415403
-0.377699
-0.336919
-0.299672
-0.264054
-0.228694
-0.207278
-0.589134
-0.494435
-0.464603
-0.412924
-0.376253
-0.336562
-0.300403
-0.265026
-0.231848
-0.206545
-0.579001
-0.489228
-0.460126
-0.410172
-0.374446
-0.335747
-0.300612
-0.265226
-0.234421
-0.200186
-0.568591
-0.483902
-0.455497
-0.407233
-0.37236
-0.334553
-0.300367
-0.26479
-0.236212
-0.180695
-0.557789
-0.478338
-0.450653
-0.404084
-0.370009
-0.333024
-0.299732
-0.263926
-0.238222
-0.174171
-0.546778
-0.47266
-0.445692
-0.4008
-0.367462
-0.331231
-0.298769
-0.262851
-0.239894
-0.173638
-0.535694
-0.466947
-0.440682
-0.397437
-0.364772
-0.329232
-0.297518
-0.261633
-0.240731
-0.173769
-0.52463
-0.461247
-0.43567
-0.394032
-0.361982
-0.327077
-0.296013
-0.26028
-0.240785
-0.173791
-0.513678
-0.455607
-0.430697
-0.39062
-0.359131
-0.324809
-0.29429
-0.25881
-0.240224
-0.174008
-0.502931
-0.450072
-0.425804
-0.387235
-0.356255
-0.322469
-0.292394
-0.25725
-0.239158
-0.174496
-0.49248
-0.444689
-0.421035
-0.38391
-0.35339
-0.320096
-0.29037
-0.255629
-0.237667
-0.175199
-0.482416
-0.439504
-0.416429
-0.380676
-0.35057
-0.317725
-0.288264
-0.253977
-0.235839
-0.176077
-0.472825
-0.434561
-0.412027
-0.377565
-0.347827
-0.315391
-0.286122
-0.252321
-0.233764
-0.177104
-0.463792
-0.429902
-0.407868
-0.374606
-0.345195
-0.313129
-0.283989
-0.250691
-0.231533
-0.178253
-0.4554
-0.425567
-0.40399
-0.371831
-0.342706
-0.31097
-0.281911
-0.249114
-0.229234
-0.179488
-0.447727
-0.421596
-0.40043
-0.36927
-0.340392
-0.308949
-0.279932
-0.247621
-0.226953
-0.180765
-0.440836
-0.418031
-0.397225
-0.366952
-0.338285
-0.307097
-0.278094
-0.246238
-0.224769
-0.182036
-0.434782
-0.414917
-0.394407
-0.364905
-0.336415
-0.305443
-0.276436
-0.244992
-0.222755
-0.183251
-0.429647
-0.412266
-0.392008
-0.363155
-0.334809
-0.304016
-0.274993
-0.243908
-0.220975
-0.184357
-0.425479
-0.410107
-0.390054
-0.361724
-0.333491
-0.302841
-0.273799
-0.24301
-0.219485
-0.185308
-0.422316
-0.408468
-0.388567
-0.360633
-0.332484
-0.30194
-0.272879
-0.242318
-0.218328
-0.186062
-0.420188
-0.407365
-0.387565
-0.359896
-0.331802
-0.301329
-0.272254
-0.241847
-0.217538
-0.186584
-0.419118
-0.406811
-0.387062
-0.359525
-0.331458
-0.301021
-0.271937
-0.241609
-0.217138
-0.186851
-0.175819
-0.165583
-0.154765
-0.144099
-0.133354
-0.122564
-0.111803
-0.101121
-0.0905709
-0.0802177
-0.0701328
-0.0603946
-0.0510867
-0.0422953
-0.0341056
-0.0265974
-0.0198401
-0.0138879
-0.00877501
-0.00451219
-0.00108453
0.00154878
0.00345251
0.00471126
0.00542351
0.00569454
0.0056292
0.00532525
0.00486841
0.00432922
0.0037621
0.00320608
0.0026867
0.00221865
0.00180823
0.00145596
0.00115779
0.000916453
0.00071804
0.000557745
0.000428984
0.000327893
0.000246992
0.000186789
0.000135364
0.000104372
6.56952e-05
6.18793e-05
1.37985e-05
5.40533e-05
-0.176673
-0.166262
-0.155294
-0.14459
-0.133816
-0.123001
-0.112224
-0.101527
-0.0909649
-0.0805994
-0.0705016
-0.0607491
-0.0514253
-0.0426162
-0.0344069
-0.0268775
-0.0200975
-0.0141215
-0.00898429
-0.00469719
-0.00124585
0.00141005
0.00333481
0.00461268
0.00534194
0.00562776
0.00557506
0.00528173
0.00483367
0.00430166
0.00374035
0.003189
0.00267336
0.00220829
0.00180023
0.00144983
0.00115276
0.000912876
0.000715313
0.000555671
0.000427419
0.00032672
0.000246122
0.000186145
0.0001349
0.000104027
6.54717e-05
6.16828e-05
1.37475e-05
5.38718e-05
-0.178352
-0.167602
-0.156338
-0.145559
-0.134728
-0.123864
-0.113052
-0.102329
-0.0917422
-0.0813527
-0.0712296
-0.0614493
-0.0520945
-0.0432507
-0.0350032
-0.0274319
-0.0206073
-0.0145846
-0.00939957
-0.0050646
-0.00156645
0.00113412
0.00310052
0.00441631
0.00517932
0.00549458
0.00546703
0.00519483
0.00476427
0.00424659
0.00369689
0.00315487
0.0026467
0.00218757
0.00178425
0.00143758
0.00114265
0.000905745
0.000709864
0.000551526
0.000424291
0.000324378
0.000244383
0.000184859
0.000133971
0.000103337
6.50252e-05
6.12905e-05
1.36455e-05
5.35098e-05
-0.180798
-0.169566
-0.157873
-0.146982
-0.136066
-0.12513
-0.114268
-0.103505
-0.0928822
-0.0824579
-0.0722984
-0.0624781
-0.0530786
-0.0441849
-0.0358818
-0.02825
-0.0213604
-0.0152695
-0.0100145
-0.00560934
-0.00204241
0.000723978
0.00275185
0.00412374
0.00493678
0.00529572
0.00530558
0.00506487
0.00466042
0.00416413
0.00363178
0.00310374
0.00260673
0.00215651
0.00176029
0.00141929
0.00112695
0.000895098
0.000701704
0.000545317
0.000419607
0.00032087
0.00024178
0.000182935
0.000132583
0.000102304
6.43573e-05
6.07038e-05
1.34928e-05
5.29693e-05
-0.183924
-0.172101
-0.159858
-0.148823
-0.137796
-0.126765
-0.115838
-0.105023
-0.0943546
-0.0838864
-0.0736811
-0.0638107
-0.054355
-0.0453981
-0.0370248
-0.0293158
-0.0223432
-0.0161649
-0.0108198
-0.00632398
-0.00266789
0.000184041
0.00229207
0.0037373
0.00461593
0.0050323
0.00509144
0.00489231
0.0045224
0.00405446
0.00354515
0.00303566
0.00255352
0.00211514
0.00172839
0.00139507
0.00110548
0.000880993
0.000690845
0.000537051
0.000413374
0.000316204
0.000238319
0.000180376
0.000130737
0.000100932
6.34698e-05
5.99249e-05
1.32895e-05
5.22537e-05
-0.187616
-0.175131
-0.162243
-0.151034
-0.139872
-0.128728
-0.11772
-0.106844
-0.0961219
-0.0856026
-0.0753443
-0.065416
-0.0558952
-0.0468648
-0.0384092
-0.0306095
-0.0235388
-0.0172565
-0.0118037
-0.00719904
-0.0034355
-0.000480036
0.00172536
0.00326001
0.00421889
0.00470574
0.00482556
0.00467774
0.0043506
0.00391781
0.00343712
0.00295073
0.0024871
0.00206349
0.00168855
0.0013652
0.0011002
0.000863627
0.000677282
0.000526742
0.000405603
0.000310391
0.000234008
0.00017719
0.000128439
9.92246e-05
6.23656e-05
5.89566e-05
1.30361e-05
5.1367e-05
-0.191737
-0.178567
-0.164964
-0.153558
-0.142243
-0.130967
-0.119869
-0.108922
-0.0981405
-0.0875652
-0.0772494
-0.0672582
-0.0576665
-0.0485555
-0.0400089
-0.0321081
-0.0249272
-0.0185275
-0.0129524
-0.0082234
-0.00433649
-0.00126155
0.00105672
0.00269548
0.00374819
0.00431775
0.00450905
0.00442191
0.00414545
0.00375447
0.00330787
0.00284905
0.00240756
0.00200161
0.00164075
0.0013287
0.00106893
0.000842254
0.000661021
0.000514399
0.000396309
0.000303441
0.000228857
0.000173386
0.000125696
9.71869e-05
6.10479e-05
5.78023e-05
1.2733e-05
5.03145e-05
-0.196131
-0.182298
-0.167948
-0.156331
-0.144847
-0.133428
-0.12223
-0.111208
-0.100363
-0.0897297
-0.0793547
-0.0692988
-0.0596334
-0.050438
-0.0417951
-0.0337863
-0.0264867
-0.0199595
-0.0142507
-0.00938467
-0.00536104
-0.00215297
0.000291789
0.00204781
0.00320672
0.00387033
0.00414325
0.00412564
0.00390749
0.00356474
0.0031576
0.00273075
0.00231496
0.00192955
0.00158503
0.00128585
0.00103395
0.000817157
0.000642065
0.000500041
0.000385507
0.000295369
0.000222877
0.000168971
0.000122515
9.48248e-05
5.95207e-05
5.64662e-05
1.23807e-05
4.91023e-05
-0.200632
-0.186201
-0.171109
-0.159279
-0.14762
-0.136051
-0.124749
-0.11365
-0.102741
-0.0920501
-0.0816172
-0.0714976
-0.0617593
-0.0524789
-0.043738
-0.0356178
-0.0281944
-0.0215329
-0.0156821
-0.0106696
-0.00649861
-0.00314609
-0.000563259
0.00132152
0.00259767
0.00336567
0.00372959
0.00378987
0.00363729
0.00334899
0.00298651
0.00259594
0.00220938
0.00184735
0.00152142
0.00123686
0.000995319
0.000788405
0.000620448
0.00048369
0.000373218
0.000286192
0.000216084
0.000163959
0.000118904
9.21453e-05
5.77885e-05
5.49531e-05
1.19799e-05
4.77372e-05
-0.205063
-0.19014
-0.174358
-0.162324
-0.150492
-0.138774
-0.127369
-0.116194
-0.105225
-0.0944804
-0.083994
-0.0738151
-0.0640075
-0.054645
-0.0458075
-0.0375759
-0.0300272
-0.023228
-0.0172301
-0.0120644
-0.00773818
-0.00423231
-0.00150188
0.000521439
0.0019245
0.00280614
0.00326968
0.00341563
0.00333551
0.0031076
0.00279484
0.00244477
0.00209092
0.00175508
0.00144999
0.00118183
0.000952531
0.000755856
0.00059621
0.000465372
0.000359463
0.000275928
0.000208492
0.00015836
0.000114874
8.91561e-05
5.58565e-05
5.32683e-05
1.1531e-05
4.62273e-05
-0.209251
-0.19397
-0.177593
-0.165384
-0.153391
-0.141534
-0.130033
-0.11879
-0.107767
-0.0969765
-0.0864441
-0.0762131
-0.0663429
-0.0569041
-0.0479746
-0.0396348
-0.0319621
-0.025025
-0.0188778
-0.0135553
-0.0090685
-0.00540274
-0.00251725
-0.000347352
0.00119089
0.00219431
0.00276524
0.00300405
0.00300285
0.00284101
0.00258285
0.00227741
0.00195968
0.00165283
0.00137081
0.00112084
0.000905477
0.000719546
0.000569416
0.000445117
0.000344268
0.0002646
0.000200118
0.00015219
0.000110436
8.58662e-05
5.37304e-05
5.14178e-05
1.1035e-05
4.45812e-05
-0.213027
-0.197544
-0.180712
-0.168374
-0.156245
-0.14427
-0.132689
-0.121388
-0.110323
-0.0994979
-0.0889298
-0.0786567
-0.0687331
-0.0592263
-0.0502121
-0.0417699
-0.0339774
-0.0269048
-0.0206091
-0.0151285
-0.0104783
-0.00664842
-0.00360239
-0.00127959
0.000400671
0.0015329
0.00221813
0.00255634
0.00264008
0.00254969
0.00235084
0.00209403
0.00181577
0.00154066
0.00128394
0.00105394
0.000854152
0.000685064
0.000540134
0.000422953
0.000327661
0.00025223
0.000190983
0.000145464
0.000105601
8.22851e-05
5.14165e-05
4.94081e-05
1.04924e-05
4.2808e-05
-0.216239
-0.200716
-0.183609
-0.171207
-0.158982
-0.146922
-0.135285
-0.123946
-0.112855
-0.102008
-0.0914176
-0.0811147
-0.0711493
-0.0615851
-0.0524955
-0.0439589
-0.0360531
-0.0288499
-0.0224087
-0.0167712
-0.0119571
-0.00796079
-0.00475065
-0.00227028
-0.000442561
0.00082437
0.00162992
0.00207347
0.00224773
0.00223391
0.00209889
0.00189465
0.00165918
0.00141856
0.00118937
0.000981135
0.000798301
0.000641877
0.00050809
0.000398887
0.000309667
0.000238838
0.000181104
0.000138197
0.000100381
7.84221e-05
4.89209e-05
4.72458e-05
9.90396e-06
4.09179e-05
-0.218758
-0.203354
-0.186182
-0.173796
-0.161531
-0.149434
-0.137774
-0.126422
-0.115325
-0.104475
-0.0938779
-0.0835595
-0.0735656
-0.0639563
-0.0548025
-0.0461815
-0.038171
-0.030844
-0.0242624
-0.0184714
-0.0134949
-0.00933207
-0.00595613
-0.00331517
-0.00133593
7.04931e-05
0.00100159
0.0015558
0.00182582
0.00189346
0.00182674
0.00167898
0.00148967
0.00128634
0.00108698
0.000902333
0.000737914
0.000595541
0.000473356
0.000372899
0.0002903
0.000224439
0.000170494
0.000130401
9.47867e-05
7.42863e-05
4.62497e-05
4.49378e-05
9.27025e-06
3.89212e-05
-0.220488
-0.205335
-0.188325
-0.176048
-0.163815
-0.151742
-0.140104
-0.128772
-0.117697
-0.106866
-0.0962802
-0.0859632
-0.0759561
-0.0663158
-0.0571108
-0.048417
-0.0403121
-0.0328701
-0.0261551
-0.0202158
-0.0150803
-0.0107526
-0.00721086
-0.00440782
-0.00227435
-0.000724784
0.000336128
0.00100561
0.00137603
0.00152964
0.00153536
0.00144778
0.00130781
0.00114446
0.000977109
0.000817823
0.000673248
0.00054627
0.000436494
0.000345092
0.000269623
0.000209093
0.000159197
0.000122108
8.88412e-05
6.98949e-05
4.34135e-05
4.24938e-05
8.59243e-06
3.68294e-05
-0.221314
-0.206513
-0.189916
-0.177863
-0.165758
-0.153791
-0.142232
-0.130964
-0.119943
-0.109157
-0.0986047
-0.0883075
-0.0783034
-0.0686466
-0.0594033
-0.0506483
-0.042459
-0.0349104
-0.0280688
-0.0219864
-0.0166955
-0.012205
-0.00849795
-0.00553219
-0.00324289
-0.00154785
-0.000354311
0.000433489
0.000907409
0.00114994
0.00123085
0.00120591
0.00111742
0.00099584
0.000861988
0.00072926
0.000605508
0.000494719
0.000397504
0.000315964
0.000247906
0.000193001
0.000147355
0.000113413
8.26058e-05
6.52878e-05
4.04355e-05
3.99301e-05
7.87452e-06
3.46551e-05
-0.22106
-0.206791
-0.19093
-0.179247
-0.167391
-0.155623
-0.144206
-0.133044
-0.122109
-0.11139
-0.100889
-0.0906254
-0.0806357
-0.0709717
-0.0616982
-0.0528885
-0.0446202
-0.0369692
-0.0300043
-0.0237809
-0.0183357
-0.0136826
-0.00981
-0.00668063
-0.00423416
-0.00239199
-0.00106395
-0.000155804
0.000423707
0.00075726
0.000915362
0.000954922
0.00091958
0.000841235
0.000742121
0.000636985
0.00053491
0.000441005
0.000356993
0.000285662
0.000225199
0.000176194
0.00013499
0.000104332
7.60931e-05
6.04741e-05
3.73228e-05
3.72532e-05
7.11918e-06
3.24086e-05
-0.220086
-0.206457
-0.191513
-0.18027
-0.168762
-0.157278
-0.14606
-0.135046
-0.124225
-0.113594
-0.10316
-0.0929433
-0.0829797
-0.0733199
-0.0640274
-0.0551746
-0.0468388
-0.0390969
-0.0320196
-0.0256654
-0.020075
-0.0152666
-0.0112334
-0.00794281
-0.00533863
-0.00334579
-0.00187689
-0.000839678
-0.000144115
0.000291864
0.000538728
0.000653844
0.000681704
0.000655345
0.000598312
0.00052673
0.000451047
0.000377676
0.000309702
0.000250389
0.00019919
0.000157031
0.000121023
9.41842e-05
6.88815e-05
5.51999e-05
3.39361e-05
3.43894e-05
6.3011e-06
3.00863e-05
-0.219508
-0.205077
-0.190792
-0.179978
-0.16897
-0.157943
-0.147072
-0.136328
-0.125721
-0.115264
-0.104971
-0.0948689
-0.0849963
-0.0754044
-0.0661561
-0.057323
-0.0489821
-0.0412103
-0.0340789
-0.027648
-0.0219605
-0.0170377
-0.0128759
-0.00944577
-0.00669481
-0.00455155
-0.00293231
-0.0017485
-0.000913596
-0.000348537
1.48073e-05
0.000232317
0.000347917
0.000394932
0.000397879
0.000374322
0.000336385
0.000292236
0.000246736
0.000204212
0.000165556
0.000132799
0.000103698
8.18557e-05
6.02861e-05
4.90621e-05
3.00459e-05
3.1229e-05
5.35971e-06
2.76919e-05
-0.214185
-0.199738
-0.187136
-0.177122
-0.166962
-0.156685
-0.146407
-0.136137
-0.125913
-0.115767
-0.105729
-0.0958367
-0.0861342
-0.0766767
-0.0675292
-0.0587648
-0.0504614
-0.042697
-0.0355449
-0.0290677
-0.0233118
-0.0183022
-0.0140398
-0.0104997
-0.00763393
-0.00537514
-0.0036433
-0.00235284
-0.00141951
-0.000765826
-0.000324515
-3.99015e-05
0.000132267
0.000226056
0.000266991
0.000273794
0.000259773
0.000234257
0.000203224
0.000171673
0.000141313
0.000114866
9.04924e-05
7.21182e-05
5.32825e-05
4.39067e-05
2.66589e-05
2.8367e-05
4.43351e-06
2.53782e-05
-0.191134
-0.198567
-0.18883
-0.179143
-0.169195
-0.159001
-0.148748
-0.13847
-0.128209
-0.117993
-0.107852
-0.0978196
-0.0879392
-0.0782661
-0.068867
-0.0598182
-0.0512031
-0.0431074
-0.035614
-0.0287977
-0.0227182
-0.0174155
-0.0129052
-0.00917556
-0.00618746
-0.00387736
-0.00216266
-0.000949192
-0.000139356
0.00036028
0.000633156
0.000749194
0.000763597
0.000717532
0.000639992
0.000550247
0.000460132
0.000376384
0.00030196
0.000238742
0.000185759
0.000143469
0.00010824
8.26037e-05
5.90406e-05
4.66017e-05
2.77314e-05
2.81441e-05
4.38745e-06
2.39273e-05
-0.180706
-0.193673
-0.185424
-0.176588
-0.167283
-0.157541
-0.147646
-0.137661
-0.127644
-0.117633
-0.107665
-0.0977775
-0.0880173
-0.0784414
-0.0691176
-0.0601228
-0.051541
-0.0434588
-0.0359604
-0.0291224
-0.0230075
-0.0176592
-0.0130973
-0.00931424
-0.00627539
-0.00392075
-0.00217024
-0.00093092
-0.000105059
0.000401983
0.000675549
0.000787719
0.000795716
0.00074235
0.000657764
0.000561906
0.000466902
0.000379526
0.000302628
0.000237813
0.000183927
0.000141195
0.000105887
8.03385e-05
5.70561e-05
4.47916e-05
2.64322e-05
2.67767e-05
4.00021e-06
2.25919e-05
-0.175593
-0.187691
-0.180394
-0.172435
-0.163861
-0.154683
-0.145252
-0.135662
-0.125985
-0.116276
-0.106577
-0.0969347
-0.0873986
-0.0780282
-0.0688922
-0.0600675
-0.0516371
-0.0436863
-0.0362981
-0.0295479
-0.0234977
-0.0181912
-0.0136486
-0.00986438
-0.00680631
-0.00441781
-0.00262271
-0.00133214
-0.000452258
0.000108221
0.000432044
0.000589545
0.000637023
0.000617042
0.00056
0.000486408
0.000409111
0.000335639
0.000269575
0.000213077
0.000165554
0.00012762
9.59729e-05
7.3097e-05
5.19307e-05
4.10149e-05
2.40437e-05
2.47261e-05
3.43592e-06
2.10375e-05
-0.171749
-0.182002
-0.175589
-0.168344
-0.160425
-0.151791
-0.142818
-0.133621
-0.124287
-0.114881
-0.105454
-0.0960576
-0.0867457
-0.07758
-0.0686301
-0.059973
-0.051691
-0.0438685
-0.0365874
-0.0299223
-0.0239348
-0.0186688
-0.0141457
-0.0103615
-0.00728681
-0.00486829
-0.00303341
-0.00169706
-0.000768899
-0.000160633
0.000208189
0.000406373
0.000489405
0.000499634
0.000467667
0.000414496
0.000353576
0.000293086
0.000237238
0.000188662
0.000147266
0.000113996
8.59487e-05
6.57169e-05
4.66767e-05
3.71104e-05
2.15696e-05
2.25755e-05
2.85543e-06
1.9383e-05
-0.168244
-0.176478
-0.170921
-0.164281
-0.156963
-0.148861
-0.140344
-0.131546
-0.122563
-0.113466
-0.104317
-0.0951709
-0.0860857
-0.0771254
-0.0683605
-0.0598684
-0.0517309
-0.0440318
-0.0368523
-0.0302665
-0.0243362
-0.0191057
-0.014598
-0.0108113
-0.007719
-0.00527116
-0.00339881
-0.00202034
-0.00104854
-0.000397685
1.0805e-05
0.000244564
0.00035853
0.000394983
0.000384799
0.000349426
0.000302863
0.000253844
0.000207106
0.000165671
0.000129861
0.000100889
7.62035e-05
5.84607e-05
4.14604e-05