/*--------------------------------*- C++ -*----------------------------------*\
  =========                 |
  \\      /  F ield         | OpenFOAM: The Open Source CFD Toolbox
   \\    /   O peration     | Website:  https://openfoam.org
    \\  /    A nd           | Version:  7
     \\/     M anipulation  |
\*---------------------------------------------------------------------------*/
FoamFile
{
    version     2.0;
    format      ascii;
    class       surfaceScalarField;
    location    "5";
    object      phi;
}
// * * * * * * * * * * * * * * * * * * * * * * * * * * * * * * * * * * * * * //

dimensions      [0 3 -1 0 0 0 0];

internalField   nonuniform List<scalar> 
20715
(
-1.37059e-05
1.37056e-05
3.33754e-10
-1.03271e-05
-3.37975e-06
9.60608e-10
2.26706e-05
-3.29992e-05
1.48268e-09
9.76141e-05
-7.49455e-05
2.05467e-09
0.000222188
-0.000124576
2.57826e-09
0.000405412
-0.000183227
2.99908e-09
0.000656442
-0.000251033
3.19167e-09
0.000987044
-0.000330606
3.07649e-09
0.00140219
-0.000415153
2.67643e-09
-0.000518226
1.92057e-09
0.00192042
-1.30873e-05
2.67928e-05
-8.30131e-06
-8.1657e-06
2.69137e-05
-6.82142e-05
0.000104947
-0.000152979
0.000233615
-0.000253244
0.00042207
-0.000371682
0.000679621
-0.000508584
0.00101813
-0.000669114
0.00144284
-0.000839864
-0.00104721
0.00197182
-1.18583e-05
3.86512e-05
-4.27373e-06
-1.57503e-05
3.53481e-05
-0.000107836
0.000119516
-0.000237147
0.000256298
-0.000390027
0.000455103
-0.000570487
0.000725528
-0.000779008
0.0010796
-0.00102319
0.00152309
-0.00128336
-0.00159723
0.00207312
-1.00345e-05
4.86857e-05
1.70407e-06
-2.74889e-05
4.78655e-05
-0.000153997
0.000141117
-0.000330398
0.000289891
-0.000538802
0.000503946
-0.000784541
0.000793275
-0.00106834
0.0011701
-0.00140001
0.00164095
-0.00175421
-0.00217766
0.00222138
-7.63775e-06
5.63234e-05
9.56379e-06
-4.46904e-05
6.43062e-05
-0.00020874
0.000169456
-0.000435548
0.000333887
-0.000703233
0.000567773
-0.00101843
0.000881565
-0.00138213
0.00128763
-0.00180607
0.00179348
-0.00226006
-0.00279655
0.00241237
-4.69511e-06
6.10185e-05
1.9207e-05
-6.85925e-05
8.4464e-05
-0.000273997
0.000204147
-0.000555231
0.000387627
-0.000886713
0.000645516
-0.00127632
0.000988727
-0.00172534
0.00142965
-0.002247
0.00197692
-0.00280733
-0.00346032
0.00264068
-1.2154e-06
6.22339e-05
3.05221e-05
-0.00010033
0.000108091
-0.000351565
0.00024473
-0.00069187
0.000450324
-0.00109231
0.000735893
-0.00156189
0.00111276
-0.00210221
0.00159312
-0.00272735
0.00218679
-0.003401
-0.00417345
0.00289993
2.69266e-06
5.95413e-05
4.33785e-05
-0.000141016
0.000134902
-0.000443089
0.000290676
-0.000847644
0.00052107
-0.0013227
0.000837441
-0.00187826
0.00125138
-0.00251615
0.00177459
-0.00325057
0.00241806
-0.00404447
-0.00493837
0.00318297
7.02481e-06
5.25165e-05
5.76348e-05
-0.000191626
0.000164584
-0.000550038
0.000341397
-0.00102446
0.000598865
-0.00158017
0.000948542
-0.00222793
0.00140209
-0.0029697
0.00197033
-0.0038188
0.00266524
-0.00473938
-0.00575528
0.00348215
1.17483e-05
4.07681e-05
7.31395e-05
-0.000253017
0.000196799
-0.000673697
0.000396263
-0.00122392
0.00068263
-0.00186654
0.00106746
-0.00261276
0.00156221
-0.00346445
0.00217636
-0.00443295
0.00292262
-0.00548564
-0.0066222
0.00378954
1.68087e-05
2.39594e-05
8.9733e-05
-0.000325941
0.000231191
-0.000815155
0.000454607
-0.00144734
0.000771228
-0.00218316
0.00119238
-0.00303391
0.00172897
-0.00400104
0.00238863
-0.00509261
0.00318437
-0.00628138
-0.00753505
0.00409722
2.21576e-05
1.80183e-06
0.000107252
-0.000411036
0.000267392
-0.000975295
0.000515738
-0.00169568
0.000863479
-0.0025309
0.00132141
-0.00349185
0.0018995
-0.00457913
0.00260303
-0.00579613
0.00344473
-0.00712308
-0.0084878
0.00439748
2.77478e-05
-2.59459e-05
0.000125531
-0.000508818
0.000305028
-0.00115479
0.000578949
-0.0019696
0.00095818
-0.00291013
0.00145267
-0.00398633
0.00207096
-0.00519743
0.00281554
-0.00654072
0.00369814
-0.00800567
-0.00947275
0.00468309
3.35332e-05
-5.94792e-05
0.000144404
-0.000619689
0.00034372
-0.00135411
0.000643524
-0.00226941
0.00105412
-0.00332072
0.00158422
-0.00451643
0.00224051
-0.00585372
0.00302228
-0.00732249
0.00393938
-0.00892278
-0.0104809
0.00494749
3.94695e-05
-9.89487e-05
0.000163707
-0.000743927
0.000383089
-0.00157349
0.000708746
-0.00259507
0.00115007
-0.00376205
0.00171418
-0.00508054
0.00240538
-0.00654492
0.00321956
-0.00813666
0.00416371
-0.00986693
-0.0115021
0.00518498
4.55137e-05
-0.000144462
0.00018328
-0.000881693
0.000422758
-0.00181297
0.0007739
-0.00294621
0.00124484
-0.00423298
0.00184068
-0.00567639
0.00256294
-0.00726717
0.00340398
-0.00897771
0.0043669
-0.0108298
-0.0125262
0.00539099
5.16248e-05
-0.000196087
0.000202962
-0.00103303
0.000462355
-0.00207236
0.000838278
-0.00332213
0.00133723
-0.00473193
0.00196194
-0.0063011
0.00271066
-0.0080159
0.0035725
-0.00983954
0.00454529
-0.0118026
-0.0135432
0.00556231
5.77632e-05
-0.00025385
0.000222598
-0.00119787
0.00050151
-0.00235127
0.000901179
-0.0037218
0.00142608
-0.00525683
0.0020762
-0.00695122
0.00284624
-0.00878593
0.00372246
-0.0107158
0.00469573
-0.0127759
-0.0145447
0.00569722
6.38905e-05
-0.000317741
0.000242035
-0.00137601
0.00053986
-0.0026491
0.000961918
-0.00414386
0.00151028
-0.00580519
0.00218183
-0.00762277
0.00296756
-0.00957167
0.00385175
-0.0116
0.00481602
-0.0137402
-0.0155267
0.00579796
6.99692e-05
-0.00038771
0.000261121
-0.00156716
0.000577047
-0.00296502
0.00101982
-0.00458664
0.00158874
-0.00637411
0.00227728
-0.00831131
0.0030727
-0.0103671
0.00395827
-0.0124855
0.00490766
-0.0146896
-0.0164905
0.00587153
7.56361e-05
-0.000463346
0.00027909
-0.00177062
0.000611929
-0.00329786
0.00107343
-0.00504813
0.00165974
-0.00696042
0.00236069
-0.00901226
0.00315982
-0.0111662
0.00403925
-0.013365
0.00497436
-0.0156247
-0.0176194
0.00610324
8.14619e-05
-0.000544808
0.00029695
-0.0019861
0.000645646
-0.00364656
0.00112365
-0.00552614
0.00172365
-0.00756041
0.00243161
-0.00972022
0.00322736
-0.011962
0.00409134
-0.0142289
0.00499383
-0.0165272
-0.01865
0.00602436
8.71257e-05
-0.000631934
0.000314004
-0.00221298
0.000677148
-0.0040097
0.00116915
-0.00601814
0.00177897
-0.00817023
0.0024886
-0.0104299
0.00327436
-0.0127477
0.00411435
-0.0150689
0.00497461
-0.0173874
-0.0195862
0.00591083
9.25899e-05
-0.000724524
0.000330106
-0.0024505
0.000706108
-0.0043857
0.00120939
-0.00652142
0.00182495
-0.0087858
0.00253087
-0.0111358
0.00330031
-0.0135172
0.00410921
-0.0158778
0.00492344
-0.0182017
-0.0204368
0.00577407
9.78161e-05
-0.00082234
0.000345111
-0.00269779
0.000732208
-0.0047728
0.00124383
-0.00703304
0.00186094
-0.00940291
0.00255782
-0.0118326
0.00330506
-0.0142644
0.00407706
-0.0166498
0.00484196
-0.0189666
-0.0212095
0.00561469
0.000102765
-0.000925105
0.000358874
-0.0029539
0.000755147
-0.00516907
0.00127203
-0.00754992
0.00188642
-0.0100173
0.0025691
-0.0125153
0.00328877
-0.0149841
0.00401913
-0.0173802
0.00473202
-0.0196794
-0.0219103
0.00543281
0.000107397
-0.0010325
0.000371253
-0.00321776
0.000774638
-0.00557246
0.00129357
-0.00806886
0.00190097
-0.0106247
0.00256456
-0.0131789
0.00325184
-0.0156714
0.00393678
-0.0180651
0.00459569
-0.0203384
-0.0225437
0.00522906
0.00011167
-0.00114417
0.000382108
-0.0034882
0.000790416
-0.00598077
0.00130811
-0.00858655
0.00190434
-0.0112209
0.00254424
-0.0138188
0.00319496
-0.0163221
0.00383154
-0.0187017
0.00443517
-0.020942
-0.0231131
0.00500462
0.000115543
-0.00125971
0.000391305
-0.00376396
0.000802242
-0.0063917
0.00131538
-0.00909969
0.00189636
-0.0118019
0.00250839
-0.0144309
0.00311898
-0.0169327
0.00370506
-0.0192878
0.00425273
-0.0214897
-0.0236215
0.00476111
0.000118973
-0.00137869
0.000398716
-0.0040437
0.000809903
-0.00680289
0.00131516
-0.00960494
0.00187703
-0.0123638
0.00245742
-0.0150113
0.00302494
-0.0175002
0.00355908
-0.0198219
0.00405068
-0.0219813
-0.0240713
0.00450041
0.000121919
-0.00150061
0.00040422
-0.004326
0.000813222
-0.00721189
0.00130733
-0.010099
0.00184645
-0.0129029
0.00239191
-0.0155567
0.00291404
-0.0180223
0.0033954
-0.0203033
0.00383128
-0.0224171
-0.0244645
0.00422451
0.000124338
-0.00162494
0.000407707
-0.00460937
0.000812053
-0.00761624
0.00129183
-0.0105788
0.00180485
-0.0134159
0.00231254
-0.0160644
0.00278756
-0.0184973
0.00321583
-0.0207315
0.00359673
-0.022798
-0.0248031
0.00393539
0.00012619
-0.00175113
0.00040908
-0.00489226
0.000806293
-0.00801345
0.00126869
-0.0110412
0.00175256
-0.0138998
0.00222012
-0.016532
0.00264683
-0.0189241
0.00302214
-0.0211069
0.0033491
-0.023125
-0.025089
0.00363498
0.000127438
-0.00187857
0.000408255
-0.00517308
0.000795876
-0.00840107
0.001238
-0.0114833
0.00169002
-0.0143518
0.00211557
-0.0169575
0.00249324
-0.0193017
0.00281609
-0.0214297
0.00309035
-0.0233993
-0.0253238
0.00332513
0.000128045
-0.00200662
0.000405166
-0.0054502
0.00078078
-0.00877669
0.00119993
-0.0119025
0.00161774
-0.0147696
0.00199982
-0.0173396
0.00232818
-0.0196301
0.00259936
-0.0217009
0.00282229
-0.0236222
-0.025509
0.00300752
0.000127981
-0.0021346
0.000399762
-0.00572198
0.000761025
-0.00913795
0.0011547
-0.0122962
0.00153631
-0.0151512
0.00187388
-0.0176772
0.002153
-0.0199092
0.00237352
-0.0219214
0.00254659
-0.0237953
-0.0256462
0.00268373
0.000127215
-0.00226181
0.000392011
-0.00598678
0.00073667
-0.00948261
0.00110263
-0.0126621
0.00144636
-0.015495
0.00173877
-0.0179696
0.00196905
-0.0201395
0.00214008
-0.0220924
0.00226476
-0.0239199
-0.0257366
0.00235519
0.000125726
-0.00238754
0.0003819
-0.00624295
0.000707817
-0.00980853
0.00104404
-0.0129984
0.00134858
-0.0157995
0.00159552
-0.0182165
0.00177759
-0.0203216
0.00190043
-0.0222153
0.00197821
-0.0239977
-0.0257816
0.00202319
0.000123493
-0.00251103
0.000369438
-0.0064889
0.000674604
-0.0101137
0.000979337
-0.0133031
0.00124368
-0.0160638
0.00144515
-0.018418
0.00157985
-0.0204563
0.00165585
-0.0222913
0.00168817
-0.02403
-0.0257823
0.00168893
0.000120505
-0.00263154
0.000354651
-0.00672304
0.000637206
-0.0103962
0.000908943
-0.0135748
0.0011324
-0.0162873
0.00128863
-0.0185742
0.00137698
-0.0205446
0.00140753
-0.0223218
0.0013958
-0.0240183
-0.02574
0.00135347
0.00011574
-0.00274728
0.000336089
-0.00694339
0.000594257
-0.0106544
0.000831977
-0.0138125
0.00101458
-0.0164699
0.00112663
-0.0186863
0.00117042
-0.0205884
0.00115764
-0.0223091
0.001104
-0.0239647
-0.0256565
0.00102048
0.000111176
-0.00285845
0.000316748
-0.00714896
0.000549084
-0.0108868
0.000751569
-0.014015
0.000892725
-0.0166111
0.000960694
-0.0187542
0.000960449
-0.0205881
0.000904997
-0.0222536
0.000809922
-0.0238696
-0.025532
0.000685418
0.000105843
-0.00296429
0.000295263
-0.00733838
0.000500414
-0.0110919
0.000666902
-0.0141815
0.00076668
-0.0167108
0.000791381
-0.0187789
0.000748366
-0.0205451
0.000651592
-0.0221568
0.000516309
-0.0237343
-0.0253675
0.000351815
9.97565e-05
-0.00306405
0.000271738
-0.00751037
0.000448532
-0.0112687
0.000578486
-0.0143115
0.000637158
-0.0167695
0.000619533
-0.0187613
0.000535039
-0.0204606
0.000398262
-0.0220201
0.000223939
-0.02356
-0.0251638
2.0306e-05
9.29365e-05
-0.00315699
0.000246292
-0.00766372
0.000393737
-0.0114161
0.00048683
-0.0144046
0.000504846
-0.0167875
0.000445935
-0.0187024
0.000321266
-0.020336
0.000145756
-0.0218445
-6.64295e-05
-0.0233478
-0.024922
-0.000308217
8.54097e-05
-0.0032424
0.000219058
-0.00779737
0.000336339
-0.0115334
0.000392444
-0.0144607
0.000370404
-0.0167655
0.000271325
-0.0186033
0.000107789
-0.0201724
-0.000105227
-0.0216315
-0.000354369
-0.0230986
-0.0246431
-0.000633337
7.72091e-05
-0.00331961
0.00019018
-0.00791034
0.000276658
-0.0116199
0.000295826
-0.0144798
0.000234465
-0.0167041
9.63905e-05
-0.0184652
-0.00010471
-0.0199713
-0.00035401
-0.0213822
-0.000639084
-0.0228136
-0.0243277
-0.00095443
6.83732e-05
-0.00338798
0.00015981
-0.00800178
0.000215016
-0.0116751
0.000197466
-0.0144623
9.76298e-05
-0.0166043
-7.8225e-05
-0.0182894
-0.000315603
-0.0197339
-0.000600054
-0.0210978
-0.000920087
-0.0224935
-0.0239768
-0.00127098
5.89458e-05
-0.00344693
0.000128112
-0.00807094
0.000151739
-0.0116987
9.78368e-05
-0.0144084
-3.95353e-05
-0.0164669
-0.000251923
-0.018077
-0.00052431
-0.0194616
-0.000842796
-0.0207793
-0.00119687
-0.0221395
-0.0235912
-0.0015825
4.89752e-05
-0.0034959
9.52526e-05
-0.00811722
8.71519e-05
-0.0116906
-2.59975e-06
-0.0143186
-0.000176494
-0.016293
-0.000424155
-0.0178293
-0.000730293
-0.0191554
-0.00108172
-0.0204279
-0.00146896
-0.0217522
-0.0231716
-0.00188856
3.85137e-05
-0.00353441
6.14053e-05
-0.00814011
2.15793e-05
-0.0116508
-0.000103413
-0.0141936
-0.000312746
-0.0160837
-0.000594404
-0.0175477
-0.000933055
-0.0188168
-0.00131636
-0.0200446
-0.00173589
-0.0213327
-0.0227187
-0.00218875
2.76178e-05
-0.00356203
2.6748e-05
-0.00813924
-4.4685e-05
-0.0115794
-0.000204176
-0.0140341
-0.000447822
-0.01584
-0.000762198
-0.0172333
-0.00113213
-0.0184468
-0.00154624
-0.0196305
-0.00199723
-0.0208817
-0.0222333
-0.00248266
1.6347e-05
-0.00357838
-8.52241e-06
-0.00811437
-0.000111313
-0.0114766
-0.000304494
-0.013841
-0.000581283
-0.0155632
-0.0009271
-0.0168875
-0.0013271
-0.0180468
-0.00177094
-0.0191866
-0.00225254
-0.0204001
-0.0217159
-0.00276992
4.74904e-06
-0.00358313
-4.42876e-05
-0.00806534
-0.000178014
-0.0113429
-0.00040399
-0.013615
-0.000712726
-0.0152545
-0.00108871
-0.0165115
-0.00151756
-0.017618
-0.00199004
-0.0187141
-0.0025014
-0.0198887
-0.0211672
-0.00305018
-7.10233e-06
-0.00357603
-8.03183e-05
-0.00799212
-0.000244502
-0.0111787
-0.00050231
-0.0133572
-0.000841773
-0.014915
-0.00124665
-0.0161066
-0.00170314
-0.0171615
-0.00220314
-0.0182141
-0.00274338
-0.0193485
-0.0205875
-0.00332308
-1.91236e-05
-0.0035569
-0.000116454
-0.00789479
-0.000310502
-0.0109846
-0.000599121
-0.0130686
-0.00096808
-0.0145461
-0.00140059
-0.0156741
-0.00188352
-0.0166786
-0.00240987
-0.0176878
-0.00297803
-0.0187803
-0.0199772
-0.00358824
-3.12753e-05
-0.00352563
-0.000152526
-0.00777354
-0.000375753
-0.0107614
-0.000694112
-0.0127502
-0.00109133
-0.0141489
-0.00155023
-0.0152152
-0.00205838
-0.0161704
-0.00260987
-0.0171363
-0.00320489
-0.0181853
-0.0193369
-0.00384526
-4.3488e-05
-0.00348214
-0.000188369
-0.00762866
-0.000440007
-0.0105098
-0.000786995
-0.0124032
-0.00121122
-0.0137246
-0.00169529
-0.0147312
-0.00222745
-0.0156383
-0.00280282
-0.0165609
-0.00342353
-0.0175646
-0.0186666
-0.00409376
-5.56972e-05
-0.00342644
-0.000223822
-0.00746053
-0.000503026
-0.0102306
-0.000877499
-0.0120287
-0.0013275
-0.0132746
-0.00183551
-0.0142231
-0.0023905
-0.0150833
-0.00298842
-0.015963
-0.00363339
-0.0169196
-0.0179672
-0.00433282
-6.78366e-05
-0.00335861
-0.000258728
-0.00726964
-0.000564587
-0.0099247
-0.000965375
-0.011628
-0.00143991
-0.0128001
-0.00197069
-0.0136924
-0.00254733
-0.0145066
-0.00316642
-0.0153439
-0.00383277
-0.0162533
-0.0172385
-0.00456147
-8.14894e-05
-0.00327712
-0.000295133
-0.007056
-0.000626603
-0.00959323
-0.00105212
-0.0112024
-0.00154943
-0.0123028
-0.00210122
-0.0131406
-0.00269782
-0.01391
-0.00333616
-0.0147056
-0.00401628
-0.0155732
-0.0165201
-0.00473468
-9.32829e-05
-0.00318383
-0.000328463
-0.00682082
-0.000684567
-0.00923713
-0.001134
-0.010753
-0.00165342
-0.0117834
-0.00222571
-0.0125683
-0.00284191
-0.0132938
-0.0034995
-0.014048
-0.00419925
-0.0148734
-0.0157804
-0.00493899
-0.000104845
-0.00307899
-0.000360838
-0.00656482
-0.000740488
-0.00885748
-0.0012126
-0.0102809
-0.00175292
-0.0112431
-0.0023446
-0.0119766
-0.00297943
-0.012659
-0.00365546
-0.0133719
-0.00437422
-0.0141547
-0.0150191
-0.00513553
-0.000116112
-0.00296288
-0.000392126
-0.00628881
-0.000794192
-0.00845541
-0.00128775
-0.00978734
-0.00184777
-0.010683
-0.00245773
-0.0113666
-0.00311018
-0.0120065
-0.00380375
-0.0126784
-0.00454037
-0.0134181
-0.0142378
-0.00532161
-0.000127028
-0.00283585
-0.000422204
-0.00599364
-0.000845518
-0.0080321
-0.00135927
-0.00927358
-0.00193779
-0.0101045
-0.00256494
-0.0107395
-0.003234
-0.0113375
-0.00394416
-0.0119682
-0.00469767
-0.0126645
-0.0134383
-0.00549715
-0.00013754
-0.00269831
-0.000450955
-0.00568022
-0.000894317
-0.00758873
-0.00142702
-0.00874088
-0.00202286
-0.00950867
-0.00266611
-0.0100962
-0.00335077
-0.0106528
-0.00407653
-0.0112425
-0.00484601
-0.0118951
-0.0126218
-0.00566252
-0.000147594
-0.00255071
-0.000478271
-0.00534954
-0.000940452
-0.00712655
-0.00149084
-0.00819049
-0.00210282
-0.00889669
-0.0027611
-0.00943797
-0.00346035
-0.00995358
-0.00420075
-0.0105021
-0.00498525
-0.0111106
-0.0117894
-0.00581772
-0.000157142
-0.00239357
-0.000504052
-0.00500263
-0.000983798
-0.00664681
-0.00155062
-0.00762367
-0.00217757
-0.00826974
-0.00284979
-0.00876574
-0.00356262
-0.00924075
-0.0043167
-0.00974797
-0.00511528
-0.010312
-0.010942
-0.00596266
-0.000166139
-0.00222743
-0.000528205
-0.00464057
-0.00102424
-0.00615077
-0.00160623
-0.00704168
-0.00224698
-0.00762899
-0.00293209
-0.00808064
-0.00365749
-0.00851535
-0.00442427
-0.00898118
-0.00523598
-0.00950028
-0.0100807
-0.00609724
-0.00017454
-0.00205289
-0.000550645
-0.00426446
-0.00106167
-0.00563975
-0.00165757
-0.00644578
-0.00231096
-0.00697559
-0.00300788
-0.00738372
-0.00374484
-0.00777839
-0.00452334
-0.00820268
-0.00534721
-0.00867641
-0.00920658
-0.00622134
-0.000182306
-0.00187059
-0.000571293
-0.00387547
-0.001096
-0.00511505
-0.00170454
-0.00583724
-0.00236941
-0.00631072
-0.00307708
-0.00667606
-0.00382459
-0.00703088
-0.00461381
-0.00741347
-0.00544885
-0.00784138
-0.00832061
-0.00633482
-0.000189402
-0.00168119
-0.000590079
-0.0034748
-0.00112713
-0.004578
-0.00174705
-0.00521731
-0.00242226
-0.00563551
-0.00313961
-0.00595871
-0.00389664
-0.00627384
-0.00469557
-0.00661454
-0.00554076
-0.00699619
-0.00742387
-0.0064375
-0.000195796
-0.00148539
-0.00060694
-0.00306365
-0.001155
-0.00402994
-0.00178504
-0.00458727
-0.00246942
-0.00495113
-0.00319538
-0.00523275
-0.00396092
-0.00550831
-0.00476853
-0.00580693
-0.00562281
-0.00614191
-0.00651745
-0.00652923
-0.000201457
-0.00128393
-0.000621819
-0.00264329
-0.00117953
-0.00347222
-0.00181843
-0.00394838
-0.00251084
-0.00425872
-0.00324434
-0.00449924
-0.00401733
-0.00473532
-0.00483258
-0.00499167
-0.0056949
-0.00527959
-0.00560249
-0.00660986
-0.000206362
-0.00107757
-0.00063467
-0.00221498
-0.00120067
-0.00290622
-0.00184715
-0.0033019
-0.00254644
-0.00355943
-0.00328642
-0.00375926
-0.00406582
-0.00395593
-0.00488765
-0.00416984
-0.0057569
-0.00441034
-0.00468015
-0.00667924
-0.000210488
-0.000867083
-0.000645449
-0.00178002
-0.00121837
-0.0023333
-0.00187118
-0.0026491
-0.00257619
-0.00285441
-0.00332157
-0.00301388
-0.00410632
-0.00317118
-0.00493366
-0.00334251
-0.00580872
-0.00353529
-0.00375161
-0.00673726
-0.000213817
-0.000653266
-0.000654123
-0.00133972
-0.00123259
-0.00175483
-0.00189045
-0.00199124
-0.00260005
-0.00214481
-0.00334975
-0.00226419
-0.00413879
-0.00238214
-0.00497054
-0.00251075
-0.00585027
-0.00265556
-0.00281808
-0.00678379
-0.000216335
-0.000436931
-0.000660664
-0.000895388
-0.00124329
-0.0011722
-0.00190494
-0.00132959
-0.00261797
-0.00143177
-0.00337091
-0.00151125
-0.00416317
-0.00158988
-0.00499825
-0.00167568
-0.00588148
-0.00177232
-0.00188081
-0.00681876
-0.000218032
-0.000218899
-0.000665051
-0.000448369
-0.00125046
-0.000586791
-0.00191463
-0.000665425
-0.00262995
-0.000716455
-0.00338504
-0.000756162
-0.00417944
-0.000795471
-0.00501673
-0.000838389
-0.00590231
-0.000886745
-0.000941025
-0.00684209
-0.0002189
6.41621e-10
-0.00066727
1.09649e-09
-0.00125406
1.25239e-09
-0.00191949
1.38041e-09
-0.00263594
1.50231e-09
-0.00339211
1.51391e-09
-0.00418758
1.49507e-09
-0.00502597
1.46136e-09
-0.00591272
1.42825e-09
1.39795e-09
-0.00685374
-0.0002189
0.0002189
-0.00066727
0.000448372
-0.00125406
0.000586793
-0.00191949
0.000665428
-0.00263594
0.000716458
-0.00339211
0.000756165
-0.00418758
0.000795474
-0.00502597
0.000838392
-0.00591272
0.000886748
0.000941028
-0.00685374
-0.000218032
0.000436932
-0.000665051
0.00089539
-0.00125046
0.0011722
-0.00191463
0.0013296
-0.00262995
0.00143178
-0.00338504
0.00151126
-0.00417944
0.00158988
-0.00501673
0.00167568
-0.00590231
0.00177233
0.00188081
-0.00684209
-0.000216335
0.000653267
-0.000660663
0.00133972
-0.00124329
0.00175483
-0.00190494
0.00199124
-0.00261797
0.00214481
-0.00337091
0.00226419
-0.00416317
0.00238214
-0.00499825
0.00251076
-0.00588148
0.00265556
0.00281808
-0.00681876
-0.000213817
0.000867084
-0.000654123
0.00178002
-0.00123259
0.0023333
-0.00189045
0.0026491
-0.00260005
0.00285441
-0.00334975
0.00301389
-0.00413879
0.00317118
-0.00497054
0.00334251
-0.00585027
0.00353529
0.00375161
-0.00678379
-0.000210488
0.00107757
-0.000645449
0.00221499
-0.00121837
0.00290622
-0.00187118
0.0033019
-0.00257619
0.00355943
-0.00332157
0.00375926
-0.00410632
0.00395593
-0.00493366
0.00416985
-0.00580872
0.00441035
0.00468015
-0.00673726
-0.000206362
0.00128393
-0.00063467
0.00264329
-0.00120067
0.00347223
-0.00184715
0.00394838
-0.00254644
0.00425872
-0.00328642
0.00449924
-0.00406582
0.00473533
-0.00488765
0.00499168
-0.0057569
0.00527959
0.0056025
-0.00667924
-0.000201457
0.00148539
-0.000621819
0.00306366
-0.00117953
0.00402994
-0.00181842
0.00458727
-0.00251084
0.00495113
-0.00324434
0.00523275
-0.00401733
0.00550832
-0.00483258
0.00580693
-0.0056949
0.00614191
0.00651746
-0.00660986
-0.000195795
0.00168119
-0.000606939
0.0034748
-0.001155
0.004578
-0.00178504
0.00521732
-0.00246942
0.00563552
-0.00319538
0.00595871
-0.00396092
0.00627385
-0.00476853
0.00661454
-0.00562281
0.0069962
0.00742387
-0.00652923
-0.000189402
0.00187059
-0.000590079
0.00387548
-0.00112713
0.00511505
-0.00174705
0.00583724
-0.00242226
0.00631072
-0.00313961
0.00667606
-0.00389664
0.00703088
-0.00469557
0.00741347
-0.00554076
0.00784138
0.00832061
-0.0064375
-0.000182306
0.00205289
-0.000571293
0.00426446
-0.001096
0.00563975
-0.00170454
0.00644579
-0.00236941
0.0069756
-0.00307708
0.00738372
-0.00382459
0.00777839
-0.00461381
0.00820269
-0.00544885
0.00867642
0.00920658
-0.00633482
-0.000174539
0.00222743
-0.000550645
0.00464057
-0.00106167
0.00615078
-0.00165757
0.00704168
-0.00231096
0.00762899
-0.00300788
0.00808064
-0.00374484
0.00851536
-0.00452334
0.00898119
-0.00534721
0.00950028
0.0100807
-0.00622134
-0.000166138
0.00239357
-0.000528205
0.00500264
-0.00102424
0.00664681
-0.00160623
0.00762368
-0.00224698
0.00826974
-0.00293209
0.00876575
-0.00365749
0.00924076
-0.00442427
0.00974797
-0.00523598
0.010312
0.010942
-0.00609724
-0.000157142
0.00255071
-0.000504052
0.00534955
-0.000983798
0.00712656
-0.00155062
0.0081905
-0.00217757
0.00889669
-0.00284979
0.00943797
-0.00356262
0.00995358
-0.0043167
0.0105021
-0.00511528
0.0111106
0.0117894
-0.00596266
-0.000147594
0.00269831
-0.000478271
0.00568022
-0.000940452
0.00758874
-0.00149084
0.00874089
-0.00210282
0.00950867
-0.0027611
0.0100962
-0.00346034
0.0106528
-0.00420075
0.0112425
-0.00498525
0.0118951
0.0126218
-0.00581772
-0.00013754
0.00283585
-0.000450955
0.00599364
-0.000894317
0.0080321
-0.00142702
0.00927359
-0.00202286
0.0101045
-0.00266611
0.0107395
-0.00335077
0.0113375
-0.00407653
0.0119682
-0.00484601
0.0126645
0.0134383
-0.00566252
-0.000127028
0.00296288
-0.000422204
0.00628881
-0.000845517
0.00845541
-0.00135927
0.00978734
-0.00193779
0.010683
-0.00256494
0.0113667
-0.003234
0.0120065
-0.00394415
0.0126784
-0.00469767
0.0134181
0.0142378
-0.00549715
-0.000116112
0.00307899
-0.000392126
0.00656483
-0.000794192
0.00885748
-0.00128775
0.0102809
-0.00184777
0.0112431
-0.00245773
0.0119766
-0.00311018
0.012659
-0.00380375
0.013372
-0.00454037
0.0141547
0.0150191
-0.00532161
-0.000104845
0.00318383
-0.000360838
0.00682082
-0.000740488
0.00923713
-0.0012126
0.010753
-0.00175292
0.0117834
-0.0023446
0.0125683
-0.00297943
0.0132938
-0.00365546
0.014048
-0.00437422
0.0148734
0.0157804
-0.00513553
-9.32828e-05
0.00327712
-0.000328463
0.007056
-0.000684567
0.00959323
-0.001134
0.0112024
-0.00165342
0.0123028
-0.00222571
0.0131406
-0.00284191
0.01391
-0.0034995
0.0147056
-0.00419925
0.0155732
0.0165201
-0.00493899
-8.14894e-05
0.00335861
-0.000295133
0.00726964
-0.000626602
0.0099247
-0.00105212
0.011628
-0.00154943
0.0128001
-0.00210122
0.0136924
-0.00269782
0.0145066
-0.00333616
0.0153439
-0.00401628
0.0162533
0.0172385
-0.00473468
-6.78366e-05
0.00342644
-0.000258728
0.00746053
-0.000564587
0.0102306
-0.000965375
0.0120287
-0.00143991
0.0132747
-0.00197069
0.0142231
-0.00254733
0.0150833
-0.00316642
0.015963
-0.00383277
0.0169196
0.0179672
-0.00456147
-5.56972e-05
0.00348214
-0.000223822
0.00762866
-0.000503025
0.0105098
-0.000877499
0.0124032
-0.0013275
0.0137247
-0.00183551
0.0147312
-0.0023905
0.0156383
-0.00298842
0.0165609
-0.00363339
0.0175646
0.0186667
-0.00433282
-4.34879e-05
0.00352563
-0.000188369
0.00777354
-0.000440007
0.0107614
-0.000786995
0.0127502
-0.00121122
0.0141489
-0.00169529
0.0152152
-0.00222745
0.0161704
-0.00280282
0.0171363
-0.00342353
0.0181853
0.0193369
-0.00409376
-3.12753e-05
0.0035569
-0.000152526
0.00789479
-0.000375753
0.0109846
-0.000694112
0.0130686
-0.00109133
0.0145461
-0.00155023
0.0156741
-0.00205838
0.0166786
-0.00260987
0.0176878
-0.00320489
0.0187803
0.0199772
-0.00384526
-1.91236e-05
0.00357603
-0.000116454
0.00799212
-0.000310502
0.0111787
-0.00059912
0.0133572
-0.000968079
0.0149151
-0.00140059
0.0161066
-0.00188352
0.0171615
-0.00240987
0.0182141
-0.00297803
0.0193485
0.0205875
-0.00358824
-7.10229e-06
0.00358313
-8.03182e-05
0.00806534
-0.000244501
0.0113429
-0.000502309
0.013615
-0.000841773
0.0152545
-0.00124665
0.0165115
-0.00170314
0.017618
-0.00220314
0.0187141
-0.00274338
0.0198887
0.0211672
-0.00332308
4.74908e-06
0.00357838
-4.42874e-05
0.00811437
-0.000178014
0.0114766
-0.00040399
0.013841
-0.000712725
0.0155633
-0.00108871
0.0168875
-0.00151756
0.0180468
-0.00199004
0.0191866
-0.0025014
0.0204001
0.0217159
-0.00305018
1.63471e-05
0.00356203
-8.52228e-06
0.00813924
-0.000111313
0.0115794
-0.000304494
0.0140342
-0.000581283
0.01584
-0.000927099
0.0172333
-0.0013271
0.0184468
-0.00177094
0.0196305
-0.00225254
0.0208817
0.0222333
-0.00276992
2.76178e-05
0.00353441
2.67482e-05
0.00814011
-4.46847e-05
0.0116508
-0.000204176
0.0141936
-0.000447821
0.0160837
-0.000762198
0.0175477
-0.00113213
0.0188168
-0.00154624
0.0200446
-0.00199723
0.0213327
0.0227187
-0.00248266
3.85137e-05
0.0034959
6.14054e-05
0.00811722
2.15795e-05
0.0116906
-0.000103413
0.0143186
-0.000312746
0.016293
-0.000594404
0.0178293
-0.000933054
0.0191554
-0.00131635
0.0204279
-0.00173589
0.0217522
0.0231716
-0.00218875
4.89752e-05
0.00344693
9.52528e-05
0.00807094
8.71522e-05
0.0116987
-2.59937e-06
0.0144084
-0.000176494
0.0164669
-0.000424154
0.018077
-0.000730292
0.0194616
-0.00108172
0.0207793
-0.00146896
0.0221395
0.0235912
-0.00188856
5.89459e-05
0.00338798
0.000128112
0.00800178
0.00015174
0.0116751
9.78371e-05
0.0144623
-3.95348e-05
0.0166043
-0.000251923
0.0182894
-0.000524309
0.019734
-0.000842795
0.0210978
-0.00119687
0.0224935
0.0239768
-0.0015825
6.83733e-05
0.00331961
0.00015981
0.00791034
0.000215016
0.0116199
0.000197466
0.0144798
9.76303e-05
0.0167041
-7.82244e-05
0.0184652
-0.000315602
0.0199713
-0.000600053
0.0213822
-0.000920087
0.0228136
0.0243277
-0.00127098
7.72091e-05
0.0032424
0.00019018
0.00779737
0.000276658
0.0115334
0.000295827
0.0144607
0.000234466
0.0167655
9.63911e-05
0.0186033
-0.000104709
0.0201724
-0.000354009
0.0216315
-0.000639084
0.0230986
0.0246431
-0.00095443
8.54097e-05
0.00315699
0.000219058
0.00766372
0.000336339
0.0114161
0.000392445
0.0144046
0.000370405
0.0167875
0.000271326
0.0187024
0.00010779
0.020336
-0.000105226
0.0218446
-0.000354368
0.0233478
0.0249221
-0.000633337
9.29365e-05
0.00306405
0.000246292
0.00751037
0.000393737
0.0112687
0.000486831
0.0143115
0.000504846
0.0167695
0.000445936
0.0187613
0.000321267
0.0204606
0.000145757
0.0220201
-6.64288e-05
0.02356
0.0251638
-0.000308216
9.97566e-05
0.00296429
0.000271738
0.00733838
0.000448532
0.0110919
0.000578486
0.0141815
0.000637159
0.0167108
0.000619534
0.0187789
0.000535039
0.0205451
0.000398263
0.0221568
0.00022394
0.0237343
0.0253675
2.03065e-05
0.000105843
0.00285845
0.000295263
0.00714896
0.000500415
0.0108868
0.000666902
0.014015
0.000766681
0.0166111
0.000791382
0.0187542
0.000748367
0.0205881
0.000651593
0.0222536
0.00051631
0.0238696
0.025532
0.000351815
0.000111176
0.00274728
0.000316748
0.00694339
0.000549085
0.0106544
0.000751569
0.0138125
0.000892726
0.0164699
0.000960694
0.0186863
0.00096045
0.0205884
0.000904998
0.0223091
0.000809923
0.0239647
0.0256565
0.000685419
0.00011574
0.00263154
0.000336089
0.00672304
0.000594258
0.0103962
0.000831977
0.0135748
0.00101458
0.0162873
0.00112664
0.0185742
0.00117042
0.0205446
0.00115765
0.0223218
0.001104
0.0240183
0.02574
0.00102048
0.000120505
0.00251103
0.000354651
0.0064889
0.000637207
0.0101137
0.000908944
0.0133031
0.0011324
0.0160638
0.00128863
0.018418
0.00137698
0.0204563
0.00140753
0.0222913
0.0013958
0.02403
0.0257823
0.00135347
0.000123493
0.00238754
0.000369438
0.00624295
0.000674604
0.00980853
0.000979338
0.0129984
0.00124368
0.0157995
0.00144515
0.0182165
0.00157985
0.0203216
0.00165585
0.0222153
0.00168817
0.0239977
0.0257816
0.00168893
0.000125726
0.00226181
0.0003819
0.00598678
0.000707817
0.00948261
0.00104404
0.0126621
0.00134858
0.015495
0.00159552
0.0179696
0.00177759
0.0201395
0.00190043
0.0220924
0.00197821
0.0239199
0.0257366
0.00202319
0.000127215
0.0021346
0.000392011
0.00572198
0.00073667
0.00913795
0.00110263
0.0122962
0.00144636
0.0151512
0.00173877
0.0176772
0.00196905
0.0199092
0.00214009
0.0219214
0.00226476
0.0237953
0.0256462
0.00235519
0.000127981
0.00200662
0.000399762
0.0054502
0.000761025
0.00877669
0.00115471
0.0119025
0.00153631
0.0147696
0.00187388
0.0173396
0.002153
0.0196301
0.00237353
0.0217009
0.00254659
0.0236222
0.025509
0.00268373
0.000128045
0.00187857
0.000405166
0.00517308
0.000780781
0.00840107
0.00119993
0.0114833
0.00161774
0.0143518
0.00199982
0.0169575
0.00232818
0.0193017
0.00259936
0.0214297
0.00282229
0.0233993
0.0253238
0.00300752
0.000127438
0.00175113
0.000408256
0.00489226
0.000795876
0.00801345
0.001238
0.0110412
0.00169002
0.0138998
0.00211557
0.016532
0.00249325
0.0189241
0.0028161
0.0211069
0.00309035
0.023125
0.025089
0.00332513
0.00012619
0.00162494
0.00040908