/*--------------------------------*- C++ -*----------------------------------*\
  =========                 |
  \\      /  F ield         | OpenFOAM: The Open Source CFD Toolbox
   \\    /   O peration     | Website:  https://openfoam.org
    \\  /    A nd           | Version:  7
     \\/     M anipulation  |
\*---------------------------------------------------------------------------*/
FoamFile
{
    version     2.0;
    format      ascii;
    class       volVectorField;
    location    "5";
    object      U;
}
// * * * * * * * * * * * * * * * * * * * * * * * * * * * * * * * * * * * * * //

dimensions      [0 1 -1 0 0 0 0];

internalField   nonuniform List<vector> 
10500
(
(-0.00486053 0.000573701 -5.99051e-21)
(-0.00679584 -0.000271385 8.41456e-21)
(-9.11002e-05 -0.00135098 -4.63161e-20)
(0.0150949 -0.00255647 -3.95432e-20)
(0.0378467 -0.00365552 -1.0832e-20)
(0.0663709 -0.00469252 6.28517e-21)
(0.0996969 -0.00565255 -3.39822e-20)
(0.13792 -0.00657588 -4.77556e-21)
(0.178125 -0.00729881 -9.82638e-21)
(0.224279 -0.00808147 7.17967e-21)
(-0.00485566 0.00169431 -1.00138e-20)
(-0.00630356 -0.000848925 -2.09683e-20)
(0.00113846 -0.00407823 -3.8763e-20)
(0.0171381 -0.00767942 6.01474e-20)
(0.0407742 -0.0109572 2.73539e-20)
(0.0702264 -0.0140461 -1.04111e-20)
(0.104509 -0.0169021 3.69244e-20)
(0.143756 -0.019642 -4.30007e-20)
(0.184843 -0.0217906 -8.98466e-22)
(0.232371 -0.0240736 -1.34152e-20)
(-0.00483855 0.00273483 -6.635e-20)
(-0.00530929 -0.00153109 6.64371e-20)
(0.00360363 -0.00688222 7.44075e-20)
(0.0212239 -0.0128337 -1.80672e-19)
(0.0466184 -0.0182324 -5.79412e-20)
(0.0779121 -0.0233065 1.33411e-19)
(0.114088 -0.0279865 1.73833e-20)
(0.155356 -0.0324527 1.07512e-19)
(0.198176 -0.0359668 4.61914e-20)
(0.248398 -0.0395571 1.09916e-20)
(-0.00479462 0.00364417 6.41705e-20)
(-0.00379378 -0.00238438 -1.15552e-19)
(0.0073165 -0.00981095 -1.31913e-19)
(0.0273512 -0.0180371 2.08433e-19)
(0.0553579 -0.0254607 1.48301e-20)
(0.0893784 -0.0324103 -7.5451e-21)
(0.128348 -0.0387953 1.51149e-19)
(0.172581 -0.0448394 1.23238e-20)
(0.217928 -0.049622 -2.067e-20)
(0.27205 -0.0542048 1.00767e-19)
(-0.00470242 0.00437462 -2.89502e-19)
(-0.00172867 -0.00347016 5.63113e-22)
(0.0122948 -0.0129069 -7.23045e-20)
(0.0355182 -0.0233024 -1.65387e-20)
(0.066961 -0.0326178 2.26565e-19)
(0.104552 -0.0412908 -3.47087e-19)
(0.147158 -0.0492172 -2.51805e-19)
(0.195221 -0.0566361 1.02166e-19)
(0.243806 -0.0625581 7.37773e-20)
(0.302872 -0.0677084 -6.80692e-20)
(-0.00453403 0.00488252 5.04553e-19)
(0.000922899 -0.00484231 1.31814e-19)
(0.0185617 -0.016205 4.93322e-19)
(0.0457223 -0.0286353 1.13299e-19)
(0.0813861 -0.0396732 1.79768e-19)
(0.123335 -0.0498777 3.31559e-19)
(0.170351 -0.0591399 -1.28027e-19)
(0.223005 -0.0676805 -2.66871e-19)
(0.275433 -0.0745858 3.12743e-20)
(0.340273 -0.0797855 1.41378e-19)
(-0.00425532 0.00512901 -1.58183e-19)
(0.0042054 -0.00654492 3.52763e-20)
(0.0261447 -0.0197312 -4.46548e-19)
(0.0579597 -0.0340331 1.44105e-19)
(0.0985814 -0.0465897 -1.54401e-19)
(0.14561 -0.0580959 2.79017e-20)
(0.19772 -0.0684498 1.16539e-19)
(0.255605 -0.0778148 9.12353e-21)
(0.312358 -0.0855263 -3.60339e-19)
(0.383545 -0.0901869 -2.24649e-19)
(-0.00382726 0.00508388 -1.92551e-19)
(0.00817074 -0.00861334 -3.84265e-19)
(0.0350752 -0.0235006 4.79386e-19)
(0.0722253 -0.0394826 -1.46035e-21)
(0.118486 -0.0533213 -2.11652e-19)
(0.171237 -0.065865 -4.48153e-19)
(0.229025 -0.0770319 5.19902e-19)
(0.292636 -0.0868874 -2.51972e-19)
(0.35406 -0.095212 1.76201e-19)
(0.431872 -0.0987028 1.85675e-20)
(-0.00320759 0.00472546 1.24915e-19)
(0.0128764 -0.0110724 5.22832e-19)
(0.045388 -0.0275158 -3.89447e-19)
(0.0885117 -0.0449591 -4.43529e-19)
(0.141028 -0.0598122 1.13053e-19)
(0.200058 -0.0730987 1.04504e-19)
(0.263996 -0.0847701 4.23214e-19)
(0.33367 -0.0947547 3.12327e-19)
(0.399964 -0.103487 -1.20654e-19)
(0.484362 -0.105168 1.90046e-19)
(-0.00235041 0.00403792 -2.01742e-19)
(0.0183834 -0.0139321 -5.3111e-20)
(0.0571193 -0.0317653 -2.65858e-19)
(0.106808 -0.0504248 4.49684e-21)
(0.166127 -0.0659967 -1.45413e-20)
(0.231893 -0.0797044 1.96042e-19)
(0.302331 -0.0915477 4.49748e-20)
(0.378235 -0.101283 4.08702e-19)
(0.449452 -0.110207 1.16875e-19)
(0.540058 -0.109467 -2.0052e-19)
(-0.00120707 0.00301328 2.09885e-20)
(0.0247558 -0.0171881 -5.09838e-19)
(0.0703057 -0.0362233 4.20396e-19)
(0.1271 -0.0558285 -2.29532e-19)
(0.19369 -0.071798 -6.82135e-20)
(0.266547 -0.0855839 -2.56332e-20)
(0.343703 -0.0972483 1.46271e-20)
(0.425826 -0.106351 -6.18473e-19)
(0.501868 -0.115244 3.18423e-20)
(0.597973 -0.111535 4.58678e-20)
(0.000272357 0.00165267 -4.96972e-19)
(0.0320587 -0.020822 8.0111e-19)
(0.0849823 -0.0408485 -2.80649e-19)
(0.149367 -0.0611047 6.90159e-19)
(0.223614 -0.0771285 -6.34932e-19)
(0.303803 -0.0906341 -2.62776e-19)
(0.38776 -0.101758 3.24701e-19)
(0.475911 -0.109854 3.32187e-19)
(0.556537 -0.118483 -1.8948e-19)
(0.657105 -0.111359 -1.77344e-19)
(0.0021381 -3.38618e-05 4.13024e-19)
(0.0403569 -0.0248009 -1.11373e-19)
(0.101181 -0.045584 5.30102e-19)
(0.17358 -0.066174 -8.85776e-20)
(0.255781 -0.0818907 4.73325e-19)
(0.343426 -0.0947483 8.38427e-19)
(0.434128 -0.104966 -4.06205e-19)
(0.527934 -0.111707 3.54271e-20)
(0.612769 -0.119828 3.66717e-19)
(0.71647 -0.108978 2.16218e-19)
(0.00443967 -0.00202764 -2.00267e-19)
(0.0497127 -0.0290769 -6.10365e-19)
(0.118927 -0.0503575 -3.77052e-19)
(0.199701 -0.0709432 -4.21727e-19)
(0.290058 -0.0859778 -5.06387e-20)
(0.385164 -0.097818 -7.3133e-19)
(0.482408 -0.106771 2.2214e-19)
(0.581328 -0.111847 -3.17412e-19)
(0.669873 -0.119205 -2.69121e-19)
(0.775116 -0.104482 -4.14774e-20)
(0.00722494 -0.00430159 3.42144e-19)
(0.0601839 -0.033588 -5.28409e-20)
(0.138239 -0.0550817 -3.28696e-19)
(0.227678 -0.0753067 3.77581e-19)
(0.326296 -0.089276 7.07981e-19)
(0.428742 -0.099736 -6.5004e-20)
(0.532184 -0.107081 -6.1502e-19)
(0.635521 -0.110241 2.94495e-19)
(0.727169 -0.116561 5.11671e-19)
(0.832153 -0.0980183 8.35859e-20)
(0.0105391 -0.00682062 2.17744e-19)
(0.0718223 -0.0382581 8.28961e-20)
(0.159126 -0.0596553 1.16504e-19)
(0.257448 -0.0791477 -3.08217e-19)
(0.364326 -0.0916666 -5.24031e-19)
(0.473868 -0.100399 8.50558e-19)
(0.583023 -0.105821 4.44804e-19)
(0.689944 -0.106884 -3.63196e-20)
(0.784001 -0.111876 -3.20676e-19)
(0.886773 -0.089797 -1.48209e-19)
(0.0144236 -0.00954214 5.66876e-19)
(0.0846711 -0.0429983 -1.41522e-19)
(0.181583 -0.0639646 1.8045e-19)
(0.288927 -0.0823407 1.47716e-19)
(0.403959 -0.0930291 -9.489e-20)
(0.520228 -0.0997109 1.18831e-19)
(0.634477 -0.102933 2.14003e-19)
(0.744044 -0.101806 3.6597e-19)
(0.839742 -0.10515 -2.67197e-19)
(0.938243 -0.0800539 -9.56128e-20)
(0.018916 -0.0124171 -9.23382e-19)
(0.0987637 -0.0477085 6.75127e-19)
(0.205592 -0.0678853 -3.56806e-19)
(0.322015 -0.0847539 -5.89295e-19)
(0.444985 -0.0932446 -1.07901e-19)
(0.567491 -0.0975875 -7.05174e-19)
(0.686092 -0.0983875 -7.59268e-20)
(0.797297 -0.0950728 -2.06909e-19)
(0.893799 -0.0963802 5.47919e-19)
(0.985851 -0.0689624 -1.30031e-19)
(0.0240486 -0.0153906 -1.38278e-19)
(0.114122 -0.0522789 -3.09002e-19)
(0.231116 -0.0712852 9.21396e-19)
(0.35659 -0.0862527 8.52751e-19)
(0.487172 -0.0921997 -1.03026e-19)
(0.615311 -0.093959 6.871e-19)
(0.737407 -0.0921826 -1.69405e-19)
(0.84923 -0.0867834 6.27002e-20)
(0.945662 -0.0855542 3.29105e-19)
(1.02899 -0.0569065 6.25151e-19)
(0.0298454 -0.0184 1.86691e-19)
(0.130752 -0.0565889 1.74204e-19)
(0.2581 -0.0740241 6.18108e-21)
(0.392505 -0.086701 -2.97e-19)
(0.530265 -0.089789 2.90218e-19)
(0.663324 -0.0887737 -2.30984e-19)
(0.787966 -0.0843523 1.65836e-19)
(0.899423 -0.0770624 2.0512e-19)
(0.994975 -0.0728149 2.82066e-19)
(1.06813 -0.0456993 -2.0363e-19)
(0.0363143 -0.0213692 -2.43115e-19)
(0.148635 -0.0605034 -8.70148e-20)
(0.286459 -0.0759525 -7.02552e-19)
(0.429588 -0.0859622 3.58831e-19)
(0.573987 -0.0859174 -2.89706e-19)
(0.711156 -0.0819991 -4.37866e-19)
(0.837317 -0.0749598 -7.62943e-19)
(0.947445 -0.0660478 -2.3267e-19)
(1.04126 -0.0588042 8.53459e-19)
(1.1066 -0.0385832 -4.8244e-20)
(0.0434619 -0.0242263 9.85172e-19)
(0.16774 -0.0638907 -4.10111e-19)
(0.31609 -0.0769291 3.70314e-19)
(0.46764 -0.0839133 1.30814e-19)
(0.618038 -0.0805104 9.92582e-19)
(0.758426 -0.073628 3.7783e-20)
(0.885022 -0.064089 7.79254e-19)
(0.992821 -0.0538878 -1.24583e-19)
(1.08321 -0.0446545 -2.92069e-19)
(1.14278 -0.0339324 -3.35648e-19)
(0.0513005 -0.0269097 -8.32937e-19)
(0.188036 -0.0666303 7.87635e-19)
(0.346883 -0.0768248 -2.52939e-19)
(0.506455 -0.0804493 5.92313e-19)
(0.662119 -0.0735166 -7.27139e-19)
(0.804763 -0.0636775 -4.69166e-20)
(0.930689 -0.051837 1.55336e-19)
(1.03518 -0.0406684 1.92914e-19)
(1.12055 -0.0302485 -4.97073e-19)
(1.17476 -0.0259113 9.40214e-20)
(0.0598261 -0.0293476 -6.48118e-19)
(0.209463 -0.068593 -5.74409e-19)
(0.378695 -0.0755098 -2.60631e-19)
(0.545801 -0.0754738 -1.09898e-18)
(0.705915 -0.0649025 4.49452e-20)
(0.849808 -0.0521873 -8.91418e-20)
(0.973973 -0.038315 -1.90539e-19)
(1.07424 -0.0264877 -4.34784e-19)
(1.15347 -0.0155463 8.20781e-19)
(1.20198 -0.015313 1.91261e-19)
(0.0690225 -0.0314648 6.47282e-19)
(0.231941 -0.0696499 -1.53836e-19)
(0.411365 -0.0728623 -2.35924e-20)
(0.585426 -0.0689074 1.93919e-19)
(0.749109 -0.0546581 -3.01919e-19)
(0.89322 -0.0392219 6.64091e-19)
(1.01459 -0.0236523 -4.91199e-20)
(1.10982 -0.0114915 -1.52136e-19)
(1.18219 -0.000658115 -2.77976e-19)
(1.22485 -0.0031565 -3.50207e-19)
(0.0788649 -0.0331867 4.42214e-19)
(0.255371 -0.0696778 2.13386e-20)
(0.444706 -0.0687741 3.95937e-19)
(0.625065 -0.0606922 1.22679e-19)
(0.791382 -0.042799 1.03764e-18)
(0.934685 -0.0248707 -6.90494e-19)
(1.05229 -0.00799374 1.74051e-19)
(1.1418 0.00414781 1.20906e-19)
(1.20691 0.014296 -5.03463e-19)
(1.24371 0.00985409 4.28044e-19)
(0.0893188 -0.0344405 -5.90701e-19)
(0.279636 -0.0685616 -1.72102e-19)
(0.478516 -0.0631535 4.48875e-19)
(0.664442 -0.0507935 -1.0732e-19)
(0.832425 -0.0293668 -7.6318e-19)
(0.973919 -0.00924563 7.39425e-19)
(1.0869 0.00850437 2.20663e-19)
(1.17015 0.0202508 2.76762e-19)
(1.22784 0.0292046 3.21185e-19)
(1.25885 0.0232317 -4.15138e-19)
(0.10034 -0.0351556 -4.89547e-19)
(0.304602 -0.0661966 1.09893e-19)
(0.512575 -0.0559273 -6.02106e-19)
(0.703274 -0.0392016 1.47618e-19)
(0.871942 -0.0144284 -6.30451e-19)
(1.01067 0.00752269 -8.15074e-19)
(1.1183 0.0256792 -6.02057e-19)
(1.19488 0.036641 -8.17303e-20)
(1.2452 0.0439627 -3.57702e-19)
(1.27058 0.0366248 2.57933e-19)
(0.111876 -0.0352651 1.62374e-18)
(0.330118 -0.0624903 5.5386e-19)
(0.546651 -0.0470429 3.26747e-19)
(0.741278 -0.0259321 -6.93186e-19)
(0.909655 0.00192595 5.50897e-19)
(1.04474 0.0252884 3.59821e-19)
(1.14639 0.0433655 2.01075e-19)
(1.21606 0.0531522 -3.06637e-19)
(1.2592 0.0584737 -6.70202e-20)
(1.27924 0.0497888 -2.64666e-19)
(0.123862 -0.0347067 -1.01682e-18)
(0.356016 -0.057365 -9.46234e-19)
(0.580499 -0.0364705 -4.95717e-19)
(0.778174 -0.0110264 3.15981e-19)
(0.945308 0.0195845 2.90415e-20)
(1.07596 0.0438945 -6.27086e-19)
(1.17116 0.0613999 2.36038e-20)
(1.23381 0.0696325 6.39549e-19)
(1.27008 0.072653 4.65143e-19)
(1.28513 0.0625624 3.58876e-19)
(0.136226 -0.0334239 -2.28194e-19)
(0.382117 -0.0507592 4.08699e-20)
(0.613871 -0.0242038 1.00395e-18)
(0.813689 0.00544917 -1.40573e-20)
(0.978673 0.038417 1.15601e-19)
(1.10419 0.0631772 6.95811e-19)
(1.19261 0.0796247 -5.00382e-20)
(1.24828 0.0859469 -2.9423e-19)
(1.2781 0.0864289 -3.84338e-19)
(1.28858 0.0748451 -1.97312e-20)
(0.148888 -0.0313673 3.22971e-19)
(0.408229 -0.0426298 5.38207e-19)
(0.646512 -0.0102608 -9.41232e-19)
(0.847566 0.0234047 4.84786e-19)
(1.00955 0.0582774 -4.85059e-20)
(1.12936 0.0829694 -1.4226e-19)
(1.2108 0.0978898 4.11597e-19)
(1.25963 0.101978 -2.68686e-19)
(1.28347 0.0997429 1.20423e-19)
(1.28986 0.086579 1.83799e-19)
(0.161757 -0.0284951 2.54348e-19)
(0.434151 -0.032953 1.06764e-19)
(0.678171 0.00531604 3.48544e-19)
(0.87956 0.0427282 -4.51383e-19)
(1.03778 0.0790077 -1.91861e-19)
(1.15142 0.103104 -1.99361e-19)
(1.2258 0.116056 -2.35592e-19)
(1.26806 0.117626 5.14955e-19)
(1.28646 0.112549 -9.338e-20)
(1.28924 0.0977358 -2.1376e-19)
(0.174737 -0.0247746 -3.16081e-19)
(0.459677 -0.0217253 1.72813e-20)
(0.708599 0.0224602 -1.46168e-19)
(0.909451 0.0632882 1.15353e-19)
(1.06322 0.100441 5.45865e-19)
(1.17036 0.123419 3.2043e-19)
(1.23773 0.133994 -1.32573e-19)
(1.27376 0.132807 -1.16601e-19)
(1.28727 0.124812 2.35559e-19)
(1.28695 0.108306 4.4424e-20)
(0.187725 -0.0201828 -2.62242e-19)
(0.484596 -0.00896467 2.15561e-19)
(0.737558 0.0410817 -2.35853e-19)
(0.937038 0.0849358 7.24641e-20)
(1.08577 0.122404 -1.70728e-19)
(1.18619 0.143754 -2.27466e-20)
(1.24672 0.151589 1.15234e-19)
(1.27694 0.147452 -1.21491e-19)
(1.28613 0.136507 -2.81273e-21)
(1.28319 0.118292 3.01818e-20)
(0.200613 -0.0147076 4.07077e-19)
(0.508696 0.00528954 -3.35236e-19)
(0.764821 0.061069 6.94215e-20)
(0.962149 0.107508 1.60206e-20)
(1.10537 0.144721 -3.87592e-20)
(1.19898 0.16396 2.1604e-20)
(1.25292 0.168735 -9.23666e-22)
(1.2778 0.161503 5.09957e-20)
(1.28323 0.147615 -4.80034e-20)
(1.27815 0.127702 -1.83619e-20)
(0.213288 -0.00834799 1.51086e-19)
(0.531769 0.0209763 1.34399e-19)
(0.790176 0.0822897 1.5189e-19)
(0.984636 0.130829 -2.27171e-19)
(1.12197 0.167217 -2.04039e-19)
(1.20878 0.183894 2.19959e-20)
(1.25648 0.185342 -1.3121e-19)
(1.27652 0.174915 -6.01789e-20)
(1.27877 0.158123 1.2744e-20)
(1.27199 0.136549 -1.38441e-21)
(0.225637 -0.00111525 -1.38983e-19)
(0.553611 0.0380134 8.33899e-20)
(0.813429 0.104593 7.63889e-20)
(1.00438 0.154716 1.79859e-19)
(1.13557 0.189718 5.95881e-20)
(1.21571 0.203422 -1.07018e-19)
(1.25756 0.201327 -7.64517e-21)
(1.27331 0.187651 -9.54312e-22)
(1.27292 0.168024 -3.05875e-20)
(1.26484 0.144842 2.903e-22)
(0.237547 0.00696705 8.36273e-21)
(0.574029 0.0562981 -1.43584e-19)
(0.834409 0.127813 -1.12961e-19)
(1.02129 0.178979 -5.14571e-20)
(1.14619 0.212054 -2.32295e-20)
(1.21986 0.222423 9.32343e-21)
(1.25633 0.216618 1.54225e-20)
(1.26833 0.199679 2.74444e-20)
(1.26582 0.177311 5.39907e-21)
(1.25682 0.152593 1.64734e-21)
(0.248894 0.0158635 6.70703e-21)
(0.592832 0.0757089 -1.14531e-20)
(0.852959 0.151768 5.08803e-20)
(1.03531 0.203424 3.67199e-20)
(1.15386 0.234061 1.47087e-20)
(1.22137 0.240783 -6.85421e-21)
(1.25296 0.231154 -1.66332e-20)
(1.26175 0.210976 3.61714e-22)
(1.25761 0.18598 6.21443e-21)
(1.24803 0.159809 -3.98293e-21)
(0.259516 0.0255244 7.7984e-21)
(0.609822 0.0961037 -9.07476e-21)
(0.86894 0.176266 4.45586e-20)
(1.04639 0.227855 3.60112e-20)
(1.15866 0.255581 8.14649e-21)
(1.22037 0.258397 -5.2588e-21)
(1.24761 0.24488 -1.55017e-20)
(1.25374 0.221521 3.67038e-21)
(1.24842 0.194027 3.24414e-21)
(1.23857 0.166494 -2.09726e-21)
(0.269297 0.0358816 1.19257e-20)
(0.624836 0.117313 -1.31486e-19)
(0.882244 0.201096 -8.53455e-20)
(1.05452 0.252073 -5.25531e-20)
(1.16066 0.276462 -2.84922e-20)
(1.21699 0.27517 9.7459e-21)
(1.24043 0.257747 1.40406e-20)
(1.24442 0.231295 1.54539e-20)
(1.23837 0.201447 -4.23991e-22)
(1.22851 0.172648 3.4814e-21)
(0.278181 0.0468608 -1.02313e-19)
(0.637769 0.139165 8.22361e-20)
(0.892816 0.226052 5.53471e-20)
(1.05973 0.275888 1.3815e-19)
(1.15996 0.296563 3.77489e-20)
(1.2114 0.291017 -6.90139e-20)
(1.23159 0.269714 -5.28845e-21)
(1.23394 0.240284 -6.6178e-21)
(1.22754 0.208235 -1.15971e-20)
(1.21793 0.17827 1.13029e-22)
(0.286079 0.0583787 9.80891e-20)
(0.64851 0.161477 1.19788e-19)
(0.900608 0.250925 1.1009e-19)
(1.06205 0.299115 -1.64995e-19)
(1.15669 0.315755 -1.00817e-19)
(1.20373 0.305861 -7.08653e-21)
(1.22124 0.280744 -4.49459e-20)
(1.22243 0.248473 -2.72636e-20)
(1.21603 0.214386 6.23513e-21)
(1.20688 0.183358 1.66783e-21)
(0.292898 0.0703404 2.82711e-19)
(0.65696 0.184056 -2.79228e-19)
(0.905595 0.275504 6.08079e-20)
(1.06156 0.321575 1.43897e-20)
(1.15096 0.333914 3.55778e-21)
(1.19415 0.319633 6.79531e-21)
(1.2095 0.290806 1.11745e-20)
(1.20998 0.25585 1.5491e-20)
(1.20392 0.219894 -2.59065e-21)
(1.19543 0.187904 1.23356e-21)
(0.298557 0.0826421 -2.11674e-19)
(0.663043 0.206699 1.58237e-19)
(0.907778 0.299576 -1.70321e-19)
(1.05832 0.343096 7.06897e-20)
(1.14291 0.350926 -6.71544e-20)
(1.18279 0.332272 9.22491e-22)
(1.19652 0.299872 2.8873e-20)
(1.19671 0.262402 -7.21292e-21)
(1.19129 0.224752 5.26958e-21)
(1.18363 0.191898 -3.53794e-21)
(0.302987 0.0951713 -1.49242e-19)
(0.666709 0.2292 -2.29064e-20)
(0.907181 0.322933 -6.27155e-20)
(1.05245 0.363513 4.00416e-20)
(1.1327 0.36669 2.21041e-19)
(1.16981 0.343723 7.6883e-20)
(1.18243 0.307916 -7.71678e-21)
(1.18272 0.268118 4.99557e-21)
(1.17819 0.228949 -1.80891e-20)
(1.17152 0.19533 -5.04318e-21)
(0.306132 0.107809 1.73663e-19)
(0.667931 0.251346 2.72064e-20)
(0.903856 0.345372 2.07796e-19)
(1.04405 0.382671 -2.06984e-19)
(1.12045 0.381108 -5.22448e-20)
(1.15536 0.353936 -5.21624e-20)
(1.16735 0.314917 -2.25228e-21)
(1.1681 0.272988 -1.49247e-20)
(1.16469 0.232477 8.21072e-21)
(1.15917 0.198189 6.8478e-20)
(0.307949 0.12043 1.26722e-19)
(0.666705 0.272927 2.3092e-19)
(0.897872 0.366695 -3.52399e-19)
(1.03327 0.400426 1.69934e-19)
(1.10634 0.394097 -2.75754e-20)
(1.13958 0.362868 -4.74521e-21)
(1.1514 0.320855 2.0906e-20)
(1.15292 0.277001 9.927e-21)
(1.15085 0.235328 -2.43728e-20)
(1.1466 0.200461 -6.64004e-20)
(0.308407 0.132904 -1.08823e-19)
(0.66305 0.293732 -2.45039e-20)
(0.889323 0.386713 3.5985e-19)
(1.02023 0.416644 -3.60884e-21)
(1.09052 0.405579 1.10006e-20)
(1.12262 0.370484 1.93318e-20)
(1.13469 0.325714 -8.39429e-22)
(1.13728 0.280148 7.62166e-20)
(1.13672 0.237491 1.08208e-19)
(1.13386 0.202132 6.67151e-22)
(0.307494 0.145101 -3.35307e-19)
(0.657011 0.313553 -3.5016e-19)
(0.878321 0.405246 -1.39015e-19)
(1.0051 0.431202 3.54904e-20)
(1.07314 0.415488 -2.02141e-21)
(1.10462 0.376751 -4.58714e-21)
(1.11732 0.32948 3.45661e-21)
(1.12125 0.282421 -1.49242e-19)
(1.12235 0.23896 -1.82263e-20)
(1.12099 0.203188 -1.96597e-19)
(0.305207 0.156886 4.6281e-19)
(0.648652 0.332189 1.77026e-19)
(0.864997 0.422127 6.57984e-20)
(0.988033 0.443989 -9.46588e-20)
(1.05438 0.423765 -2.17667e-20)
(1.08571 0.381643 -3.77527e-20)
(1.09942 0.332141 -4.45629e-20)
(1.10489 0.283813 -9.89603e-20)
(1.10777 0.239726 3.38077e-20)
(1.10803 0.203615 1.17724e-19)
(0.301564 0.168126 -1.64287e-19)
(0.638063 0.349447 2.35285e-20)
(0.849496 0.437198 -8.47629e-20)
(0.969213 0.454906 1.6643e-20)
(1.0344 0.43036 7.63695e-21)
(1.06603 0.38514 1.58322e-19)
(1.08106 0.33369 1.12351e-19)
(1.08828 0.284321 1.33895e-20)
(1.09304 0.239783 1.25691e-19)
(1.09501 0.203398 -1.48178e-19)
(0.296593 0.178692 -1.0016e-19)
(0.625353 0.365143 -2.13795e-20)
(0.831981 0.450318 3.83373e-20)
(0.948814 0.463866 1.56349e-20)
(1.01335 0.435233 1.32676e-19)
(1.04571 0.387225 -1.7283e-19)
(1.06236 0.334121 -8.4317e-20)
(1.07149 0.28394 -9.67894e-20)
(1.07819 0.239128 -1.5776e-19)
(1.08196 0.202521 2.22918e-19)
(0.29034 0.188455 3.52163e-20)
(0.610647 0.379105 -1.49935e-20)
(0.812628 0.461359 -2.34786e-20)
(0.92702 0.470794 -1.35829e-20)
(0.991409 0.438351 -1.76125e-19)
(1.02489 0.387887 1.32184e-19)
(1.04341 0.33343 -5.51579e-20)
(1.05459 0.282673 -6.73019e-20)
(1.06326 0.23776 2.29491e-19)
(1.06891 0.200972 -2.37847e-19)
(0.282864 0.197295 -5.96368e-20)
(0.594094 0.391175 -1.45996e-20)
(0.791625 0.470207 -1.43735e-20)
(0.904021 0.475629 -6.7261e-20)
(0.968734 0.43969 1.00466e-19)
(1.00369 0.387121 -1.90292e-19)
(1.0243 0.331619 -6.93334e-20)
(1.03764 0.280521 1.33527e-19)
(1.04829 0.23568 1.73943e-19)
(1.05588 0.198734 2.77974e-19)
(0.274239 0.205097 2.29611e-20)
(0.575854 0.401207 6.19435e-20)
(0.769167 0.476766 4.36648e-20)
(0.880008 0.478322 3.39082e-19)
(0.945487 0.439234 6.33936e-20)
(0.98224 0.384926 3.01976e-20)
(1.00514 0.32869 1.68728e-19)
(1.02071 0.27749 2.43495e-19)
(1.03331 0.232894 -6.38507e-19)
(1.04289 0.195794 -1.05953e-19)
(0.264554 0.211756 1.7945e-19)
(0.556107 0.409076 -1.36161e-19)
(0.745459 0.480953 7.97064e-20)
(0.855174 0.478836 -1.3996e-19)
(0.921827 0.436977 3.5989e-19)
(0.960655 0.381305 -2.42566e-20)
(0.986002 0.324651 -3.21344e-20)
(1.00387 0.273591 -1.36478e-19)
(1.01835 0.229404 4.25694e-19)
(1.02993 0.192133 -2.02892e-19)
(0.253911 0.217179 -2.82949e-19)
(0.535045 0.414673 9.50743e-20)
(0.720714 0.482705 -1.57171e-19)
(0.829715 0.477148 -2.38249e-20)
(0.89791 0.43292 -5.07296e-19)
(0.939059 0.376267 -5.57551e-20)
(0.96699 0.319511 -4.52271e-19)
(0.9872 0.268837 5.98857e-20)
(1.00346 0.225219 2.84849e-19)
(1.01704 0.187721 2.31571e-19)
(0.242407 0.22127 5.03053e-20)
(0.512864 0.417901 7.72883e-20)
(0.695146 0.481973 2.93997e-19)
(0.803822 0.473246 3.11628e-20)
(0.873891 0.42707 1.70642e-19)
(0.917567 0.369826 3.11846e-19)
(0.948192 0.313284 5.24814e-19)
(0.970764 0.263248 1.89086e-19)
(0.988729 0.220392 -6.33561e-19)
(1.00429 0.182643 1.38107e-19)
(0.230108 0.223895 -1.42105e-19)
(0.489751 0.418662 -2.41252e-20)
(0.668965 0.478718 1.12527e-21)
(0.777687 0.46713 1.8273e-19)
(0.849921 0.419446 -2.04254e-19)
(0.896294 0.362 2.12742e-19)
(0.929694 0.305984 -1.7899e-19)
(0.954653 0.256834 -1.95885e-19)
(0.974402 0.215023 8.57505e-19)
(0.991605 0.177609 3.73798e-19)
(0.217151 0.224986 1.80288e-20)
(0.465937 0.416891 1.88793e-19)
(0.642396 0.472921 -4.81035e-19)
(0.751501 0.458814 -6.34148e-19)
(0.826145 0.410072 8.50311e-20)
(0.875349 0.352815 -4.48715e-19)
(0.91158 0.297627 1.61438e-19)
(0.938963 0.249575 -1.10307e-19)
(0.960698 0.208973 -2.86162e-19)
(0.980025 0.172833 -8.38924e-19)
(0.203732 0.224555 6.2865e-19)
(0.441675 0.412585 -4.2725e-19)
(0.615674 0.464601 2.77702e-19)
(0.725453 0.448329 3.57908e-19)
(0.802707 0.398984 1.53054e-19)
(0.854837 0.342298 5.80052e-19)
(0.893924 0.288232 1.60979e-19)
(0.92373 0.241479 2.11975e-19)
(0.947471 0.202168 -5.73533e-19)
(0.968554 0.167582 8.9174e-20)
(0.189999 0.222578 -4.32719e-19)
(0.417194 0.40574 1.23202e-19)
(0.589017 0.453784 -3.0044e-19)
(0.699729 0.435714 -7.55201e-20)
(0.779745 0.386222 -1.20615e-21)
(0.834858 0.330483 7.42081e-20)
(0.8768 0.277825 -3.22103e-19)
(0.909001 0.232573 -4.67733e-19)
(0.934722 0.194661 2.95551e-19)
(0.957362 0.161675 2.41208e-19)
(0.176091 0.219034 -2.14155e-19)
(0.392718 0.396366 -1.30443e-19)
(0.562642 0.440509 -5.46724e-19)
(0.674503 0.421021 1.66719e-19)
(0.757392 0.371834 5.10183e-19)
(0.815512 0.317411 -6.55234e-19)
(0.860277 0.266437 -5.74632e-19)
(0.894826 0.222881 2.31142e-19)
(0.922487 0.186505 5.26432e-19)
(0.946569 0.15516 7.77255e-20)
(0.162153 0.213917 -4.52305e-19)
(0.368471 0.384494 1.21229e-21)
(0.536758 0.424831 2.83136e-19)
(0.649948 0.404312 -3.38412e-19)
(0.735775 0.355877 -8.04091e-19)
(0.79689 0.303125 -6.11347e-20)
(0.844427 0.254102 8.83683e-19)
(0.88126 0.21243 -4.13255e-19)
(0.910805 0.177727 -5.38917e-19)
(0.936239 0.148087 -1.29239e-19)
(0.14833 0.207242 2.84266e-19)
(0.344676 0.370175 5.69705e-19)
(0.51157 0.406824 4.12552e-19)
(0.626228 0.38566 3.57909e-19)
(0.715016 0.338414 1.64583e-19)
(0.779083 0.287678 8.583e-19)
(0.829314 0.240859 -3.59046e-19)
(0.868352 0.201249 2.93032e-19)
(0.899714 0.16835 5.24258e-19)
(0.926425 0.140476 1.25853e-19)
(0.134768 0.199036 -5.2582e-19)
(0.321548 0.353481 1.87684e-19)
(0.487277 0.386574 -6.19371e-19)
(0.6035 0.365151 1.6888e-19)
(0.695231 0.319515 -7.42638e-19)
(0.762175 0.271122 -9.78506e-19)
(0.815002 0.22675 4.79133e-19)
(0.856152 0.18937 -4.22571e-20)
(0.88925 0.158397 -4.54142e-19)
(0.917169 0.132343 -3.05437e-19)
(0.121609 0.189341 7.06987e-19)
(0.299298 0.334503 -9.77431e-19)
(0.464066 0.364184 3.42513e-19)
(0.581913 0.342877 -7.24878e-19)
(0.676528 0.299258 5.75742e-19)
(0.746245 0.253519 4.5008e-19)
(0.801551 0.21182 -4.06683e-19)
(0.844707 0.176829 -4.67094e-19)
(0.879451 0.147897 3.23477e-19)
(0.908509 0.123713 2.42361e-19)
(0.108993 0.178216 -8.38423e-20)
(0.278126 0.313349 5.65298e-19)
(0.442117 0.339769 -6.15555e-19)
(0.561608 0.318943 4.35598e-19)
(0.659009 0.277725 -3.54793e-20)
(0.73137 0.234933 3.01773e-20)
(0.789017 0.196121 3.57429e-20)
(0.834059 0.163663 1.00373e-18)
(0.87035 0.13688 -1.60205e-19)
(0.900477 0.114614 -3.61322e-20)
(0.0970513 0.165732 2.86586e-19)
(0.258223 0.290145 5.8181e-21)
(0.421597 0.31346 3.18203e-19)
(0.542714 0.293462 1.6683e-20)
(0.642771 0.255006 1.56286e-19)
(0.717618 0.215433 -3.28972e-19)
(0.777451 0.179704 -3.82825e-20)
(0.824249 0.149917 -5.54517e-19)
(0.861976 0.12538 -2.47926e-19)
(0.893099 0.105077 2.50942e-19)
(0.0859108 0.151973 -1.94944e-19)
(0.239766 0.265033 -7.19567e-19)
(0.402663 0.285397 5.48426e-19)
(0.525354 0.266553 6.41914e-19)
(0.6279 0.231197 -6.73589e-20)
(0.705054 0.195093 -2.16305e-19)
(0.766903 0.162627 6.81605e-19)
(0.815314 0.135634 -4.96047e-19)
(0.854359 0.113433 2.23739e-19)
(0.886399 0.0951375 -3.59161e-19)
(0.0756889 0.137037 3.76717e-19)
(0.222922 0.238171 -3.53451e-19)
(0.385458 0.255733 -7.58294e-19)
(0.509637 0.238347 5.52938e-20)
(0.614475 0.206396 3.82957e-19)
(0.693735 0.173989 5.74827e-19)
(0.757414 0.144949 -7.20747e-19)
(0.807286 0.120863 3.75071e-19)
(0.847523 0.101079 -2.83016e-19)
(0.880395 0.0848312 -1.42975e-19)
(0.0664938 0.121033 2.19777e-19)
(0.20784 0.209731 -3.85403e-20)
(0.370111 0.224632 7.48481e-19)
(0.495662 0.208978 -2.40512e-19)
(0.602569 0.18071 2.3882e-19)
(0.683714 0.152203 4.25494e-20)
(0.749024 0.126735 -2.82203e-19)
(0.800196 0.105654 1.35829e-19)
(0.841492 0.0883604 5.36178e-19)
(0.875105 0.0741972 5.10277e-19)
(0.0584229 0.104081 -1.05156e-18)
(0.194654 0.179896 -2.15361e-19)
(0.356737 0.192265 -8.23177e-19)
(0.483518 0.178589 -2.36279e-19)
(0.592245 0.154246 -2.55141e-19)
(0.675038 0.129818 -5.33011e-19)
(0.741768 0.10805 1.79588e-19)
(0.79407 0.0900625 4.24929e-19)
(0.836285 0.0753208 4.67317e-21)
(0.870545 0.0632761 -3.63659e-19)
(0.0515615 0.0863086 5.47017e-19)
(0.183482 0.148861 -1.06815e-20)
(0.345437 0.158814 1.21829e-19)
(0.47328 0.147326 2.84412e-20)
(0.583557 0.127119 -3.33976e-19)
(0.667747 0.106922 4.89558e-19)
(0.735675 0.0889616 4.48146e-19)
(0.78893 0.074142 -2.36562e-19)
(0.831919 0.0620065 -1.17088e-19)
(0.866725 0.0521097 1.78145e-19)
(0.0459826 0.0678534 -1.34701e-19)
(0.174423 0.11683 2.12915e-19)
(0.336295 0.124464 2.28257e-19)
(0.465012 0.115343 -3.95213e-19)
(0.576552 0.0994438 2.14459e-20)
(0.661873 0.0836031 -9.9569e-21)
(0.730771 0.0695407 -2.48518e-19)
(0.784795 0.0579502 1.51782e-20)
(0.828409 0.0484652 4.51388e-20)
(0.863657 0.0407412 -1.83785e-19)
(0.0417453 0.0488592 1.4076e-19)
(0.167557 0.0840165 -1.41158e-19)
(0.329378 0.0894109 -1.19966e-19)
(0.458766 0.0827946 3.22337e-19)
(0.571265 0.0713398 8.77884e-20)
(0.657444 0.0599542 -2.14716e-19)
(0.727075 0.0498594 -1.63566e-20)
(0.78168 0.0415459 -1.72155e-19)
(0.825767 0.034746 -1.12212e-19)
(0.861349 0.0292144 1.7724e-20)
(0.0388949 0.0294746 1.24752e-20)
(0.162946 0.0506385 3.79466e-20)
(0.324739 0.0538508 6.98604e-20)
(0.45458 0.0498403 -1.05834e-19)
(0.567725 0.0429278 -5.49903e-20)
(0.65448 0.036068 2.98756e-20)
(0.724603 0.0299908 -6.27407e-20)
(0.779598 0.0249889 6.85215e-20)
(0.824 0.0208989 2.63763e-20)
(0.859807 0.017574 1.01452e-20)
(0.0374619 0.00985208 1.06741e-20)
(0.16063 0.0169184 1.47435e-20)
(0.32241 0.0179847 -8.47384e-20)
(0.452481 0.0166411 6.40489e-20)
(0.565951 0.0143302 2.98001e-20)
(0.652994 0.0120387 -1.91454e-20)
(0.723364 0.0100095 5.81516e-20)
(0.778554 0.00833982 6.79704e-21)
(0.823115 0.00697474 2.48054e-20)
(0.859034 0.00586543 -2.22877e-20)
(0.0374619 -0.0098522 1.32853e-20)
(0.16063 -0.0169186 -1.47435e-20)
(0.32241 -0.0179849 8.47384e-20)
(0.452481 -0.0166413 6.84687e-20)
(0.565951 -0.0143304 1.86551e-20)
(0.652994 -0.0120389 -1.06709e-20)
(0.723364 -0.0100097 5.6334e-20)
(0.778554 -0.00833998 8.378e-21)
(0.823115 -0.00697489 1.74621e-20)
(0.859034 -0.00586556 -1.37995e-20)
(0.0388949 -0.0294747 2.14213e-20)
(0.162946 -0.0506387 4.78088e-20)
(0.324738 -0.053851 6.97306e-20)
(0.45458 -0.0498406 -1.04029e-19)
(0.567725 -0.0429281 -4.69267e-20)
(0.65448 -0.0360682 1.76563e-20)
(0.724603 -0.029991 -5.95028e-20)
(0.779598 -0.024989 7.49012e-20)
(0.824 -0.020899 1.0995e-21)
(0.859807 -0.0175742 2.52607e-20)
(0.0417453 -0.0488593 1.43015e-19)
(0.167557 -0.0840167 -1.22372e-19)
(0.329378 -0.0894111 -1.35448e-19)
(0.458766 -0.0827949 3.07608e-19)
(0.571265 -0.07134 9.83457e-20)
(0.657444 -0.0599544 -2.23658e-19)
(0.727075 -0.0498595 -2.37724e-20)
(0.78168 -0.0415461 -1.8675e-19)
(0.825767 -0.0347462 -8.13372e-20)
(0.861349 -0.0292145 -2.06727e-20)
(0.0459826 -0.0678535 -1.39447e-19)
(0.174423 -0.11683 2.03573e-19)
(0.336295 -0.124465 2.31475e-19)
(0.465012 -0.115343 -3.52956e-19)
(0.576552 -0.099444 -2.60235e-20)
(0.661873 -0.0836033 1.55754e-20)
(0.730771 -0.0695409 -2.61837e-19)
(0.784795 -0.0579504 -2.01521e-20)
(0.828409 -0.0484654 3.57702e-20)
(0.863657 -0.0407413 -1.91672e-19)
(0.0515615 -0.0863087 5.89476e-19)
(0.183482 -0.148861 1.8257e-20)
(0.345437 -0.158814 1.17835e-19)
(0.47328 -0.147327 2.92128e-20)
(0.583558 -0.127119 -3.71717e-19)
(0.667747 -0.106922 5.67309e-19)
(0.735675 -0.0889618 3.75785e-19)
(0.78893 -0.0741421 -1.7002e-19)
(0.831919 -0.0620067 -1.2442e-19)
(0.866725 -0.0521099 1.30362e-19)
(0.0584229 -0.104081 -1.01486e-18)
(0.194654 -0.179896 -1.94785e-19)
(0.356737 -0.192265 -8.32213e-19)
(0.483518 -0.178589 -1.77733e-19)
(0.592245 -0.154246 -2.80185e-19)
(0.675038 -0.129818 -5.33102e-19)
(0.741768 -0.10805 1.89571e-19)
(0.79407 -0.0900626 4.46165e-19)
(0.836285 -0.0753209 -4.96234e-20)
(0.870545 -0.0632762 -2.6739e-19)
(0.0664939 -0.121034 3.14657e-19)
(0.20784 -0.209731 9.9668e-21)
(0.370111 -0.224632 7.32754e-19)
(0.495662 -0.208978 -2.1409e-19)
(0.602569 -0.18071 2.54983e-19)
(0.683714 -0.152203 -3.83605e-20)
(0.749024 -0.126735 -1.27991e-19)
(0.800196 -0.105655 -1.80169e-20)
(0.841492 -0.0883605 5.89454e-19)
(0.875106 -0.0741974 4.23609e-19)
(0.0756889 -0.137037 3.51334e-19)
(0.222922 -0.238172 5.79286e-19)
(0.385458 -0.255733 -7.49843e-19)
(0.509637 -0.238347 1.81439e-20)
(0.614475 -0.206396 3.26866e-19)
(0.693735 -0.173989 6.79349e-19)
(0.757414 -0.14495 -8.45376e-19)
(0.807286 -0.120863 3.91341e-19)
(0.847523 -0.101079 -2.91175e-19)
(0.880395 -0.0848313 -3.95067e-20)
(0.0859108 -0.151973 -2.21339e-19)
(0.239766 -0.265033 1.26483e-19)
(0.402663 -0.285397 5.39954e-19)
(0.525354 -0.266554 6.51485e-19)
(0.6279 -0.231197 -1.66048e-19)
(0.705054 -0.195093 -1.65029e-19)
(0.766903 -0.162627 6.989e-19)