/*--------------------------------*- C++ -*----------------------------------*\
  =========                 |
  \\      /  F ield         | OpenFOAM: The Open Source CFD Toolbox
   \\    /   O peration     | Website:  https://openfoam.org
    \\  /    A nd           | Version:  7
     \\/     M anipulation  |
\*---------------------------------------------------------------------------*/
FoamFile
{
    version     2.0;
    format      ascii;
    class       surfaceScalarField;
    location    "20";
    object      phi;
}
// * * * * * * * * * * * * * * * * * * * * * * * * * * * * * * * * * * * * * //

dimensions      [0 3 -1 0 0 0 0];

internalField   nonuniform List<scalar> 
5147
(
0.00250524
-0.000229061
0.00250083
-0.000230164
0.00249644
-0.000231311
0.00249206
-0.000232511
0.00248769
-0.000233768
0.00248335
-0.00023509
0.00247902
-0.000236484
0.0024747
-0.000237959
0.0024704
-0.000239521
0.00246612
-0.000241182
0.00246185
-0.000242949
0.0024576
-0.000244837
0.00245336
-0.000246853
0.00244914
-0.000249016
0.00244492
-0.000251333
0.00244072
-0.000253832
0.00243653
-0.000256513
0.00243235
-0.000259422
0.00242817
-0.000262538
0.002424
-0.000265951
0.00241983
-0.00026958
0.00241566
-0.000273619
0.00241148
-0.000277833
0.0024073
-0.00028266
0.00240311
-0.0002875
0.00239889
-0.000293354
0.00239466
-0.000298761
0.00239039
-0.000306032
0.00238612
-0.000311711
0.00238177
-0.000321103
0.00237744
-0.000326232
0.00237296
-0.000339132
0.00236858
-0.000341767
0.0023639
-0.000360976
0.00235951
-0.000357075
0.00235451
-0.000387477
-0.000374358
0.00259094
-0.000210584
0.00258636
-0.000211661
0.00258179
-0.000212703
0.00257722
-0.000213716
0.00257266
-0.000214706
0.00256811
-0.000215678
0.00256357
-0.00021664
0.00255904
-0.000217596
0.00255453
-0.000218553
0.00255002
-0.000219516
0.00254552
-0.000220491
0.00254104
-0.000221483
0.00253657
-0.000222497
0.00253211
-0.00022354
0.00252766
-0.000224616
0.00252323
-0.000225733
0.00251882
-0.000226894
0.00251441
-0.000228108
0.00251002
-0.00022938
0.00250565
-0.000230716
0.00250129
-0.000232125
0.00249695
-0.000233614
0.00249262
-0.000235191
0.0024883
-0.000236865
0.002484
-0.000238646
0.00247971
-0.000240546
0.00247543
-0.000242575
0.00247116
-0.000244749
0.00246691
-0.000247077
0.00246266
-0.000249585
0.00245842
-0.000252274
0.00245419
-0.000255189
0.00244996
-0.000258309
0.00244573
-0.000261724
0.0024415
-0.000265353
0.00243727
-0.000269386
0.00243303
-0.000273596
0.00242878
-0.000278408
0.00242452
-0.000283239
0.00242023
-0.000289065
0.00241593
-0.000294461
0.00241158
-0.000301682
0.00240723
-0.000307358
0.00240279
-0.000316661
0.00239837
-0.000321814
0.00239379
-0.000334554
0.00238931
-0.000337291
0.00238453
-0.000356192
0.00238004
-0.00035258
0.00237493
-0.00038237
-0.000369806
0.00261358
-0.000206001
0.002609
-0.000207082
0.00260443
-0.00020813
0.00259986
-0.000209148
0.0025953
-0.000210145
0.00259074
-0.000211125
0.0025862
-0.000212094
0.00258166
-0.000213059
0.00257713
-0.000214025
0.00257261
-0.000214998
0.00256811
-0.000215983
0.00256361
-0.000216986
0.00255912
-0.000218011
0.00255465
-0.000219066
0.00255019
-0.000220154
0.00254574
-0.000221283
0.0025413
-0.000222457
0.00253688
-0.000223684
0.00253246
-0.000224968
0.00252807
-0.000226317
0.00252368
-0.000227739
0.00251931
-0.00022924
0.00251494
-0.00023083
0.0025106
-0.000232516
0.00250626
-0.000234309
0.00250193
-0.00023622
0.00249762
-0.000238259
0.00249331
-0.000240443
0.00248901
-0.000242779
0.00248472
-0.000245294
0.00248043
-0.000247988
0.00247615
-0.000250906
0.00247187
-0.000254029
0.00246759
-0.000257442
0.00246331
-0.000261069
0.00245901
-0.000265094
0.00245471
-0.000269297
0.0024504
-0.000274091
0.00244607
-0.00027891
0.00244171
-0.000284704
0.00243733
-0.000290087
0.00243291
-0.000297253
0.00242847
-0.000302922
0.00242394
-0.000312133
0.00241943
-0.000317307
0.00241476
-0.000329881
0.00241019
-0.000332718
0.0024053
-0.000351304
0.0024007
-0.000347977
0.00239548
-0.000377152
-0.000365139
0.00263629
-0.000201421
0.00263172
-0.000202506
0.00262715
-0.000203557
0.00262258
-0.00020458
0.00261801
-0.000205582
0.00261346
-0.000206568
0.00260891
-0.000207544
0.00260436
-0.000208516
0.00259983
-0.00020949
0.0025953
-0.000210472
0.00259078
-0.000211465
0.00258628
-0.000212477
0.00258178
-0.000213513
0.00257729
-0.000214577
0.00257281
-0.000215677
0.00256834
-0.000216816
0.00256389
-0.000218001
0.00255944
-0.000219238
0.00255501
-0.000220534
0.00255059
-0.000221895
0.00254617
-0.000223327
0.00254177
-0.00022484
0.00253738
-0.000226439
0.002533
-0.000228136
0.00252863
-0.000229939
0.00252427
-0.000231859
0.00251992
-0.000233906
0.00251557
-0.000236097
0.00251124
-0.00023844
0.0025069
-0.000240959
0.00250257
-0.000243657
0.00249824
-0.000246576
0.00249391
-0.000249698
0.00248957
-0.000253107
0.00248523
-0.000256729
0.00248088
-0.000260743
0.00247652
-0.000264936
0.00247214
-0.00026971
0.00246775
-0.000274514
0.00246332
-0.000280273
0.00245887
-0.000285639
0.00245436
-0.000292747
0.00244985
-0.000298406
0.00244523
-0.000307519
0.00244064
-0.000312712
0.00243587
-0.000325114
0.0024312
-0.000328048
0.00242621
-0.000346312
0.0024215
-0.000343267
0.00241617
-0.000371823
-0.000360357
0.00265909
-0.000196846
0.00265452
-0.000197932
0.00264994
-0.000198986
0.00264538
-0.000200012
0.00264081
-0.000201018
0.00263626
-0.000202009
0.0026317
-0.000202991
0.00262716
-0.000203969
0.00262261
-0.00020495
0.00261808
-0.000205938
0.00261356
-0.000206939
0.00260904
-0.000207959
0.00260453
-0.000209003
0.00260003
-0.000210076
0.00259553
-0.000211184
0.00259105
-0.000212333
0.00258658
-0.000213528
0.00258211
-0.000214774
0.00257766
-0.00021608
0.00257321
-0.00021745
0.00256878
-0.000218892
0.00256435
-0.000220413
0.00255993
-0.000222022
0.00255553
-0.000223727
0.00255112
-0.000225537
0.00254673
-0.000227464
0.00254234
-0.000229518
0.00253796
-0.000231714
0.00253358
-0.000234061
0.0025292
-0.000236582
0.00252483
-0.000239281
0.00252045
-0.000242199
0.00251607
-0.000245319
0.00251168
-0.000248721
0.00250729
-0.000252336
0.00250288
-0.000256336
0.00249846
-0.000260516
0.00249402
-0.000265265
0.00248955
-0.000270052
0.00248505
-0.000275772
0.00248053
-0.000281118
0.00247595
-0.000288163
0.00247135
-0.00029381
0.00246665
-0.00030282
0.00246197
-0.000308028
0.00245711
-0.000320253
0.00245234
-0.000323281
0.00244725
-0.000341217
0.00244243
-0.00033845
0.00243699
-0.000366384
-0.000355458
0.00268196
-0.000192277
0.00267739
-0.000193364
0.00267282
-0.000194419
0.00266826
-0.000195448
0.0026637
-0.000196456
0.00265914
-0.00019745
0.00265458
-0.000198436
0.00265003
-0.000199419
0.00264549
-0.000200405
0.00264095
-0.000201399
0.00263642
-0.000202407
0.00263189
-0.000203433
0.00262737
-0.000204484
0.00262286
-0.000205564
0.00261835
-0.00020668
0.00261386
-0.000207836
0.00260937
-0.000209038
0.00260489
-0.000210293
0.00260041
-0.000211606
0.00259595
-0.000212984
0.00259149
-0.000214433
0.00258704
-0.000215962
0.00258259
-0.000217578
0.00257816
-0.000219289
0.00257373
-0.000221105
0.0025693
-0.000223038
0.00256488
-0.000225096
0.00256046
-0.000227295
0.00255604
-0.000229643
0.00255162
-0.000232165
0.0025472
-0.000234863
0.00254278
-0.000237777
0.00253835
-0.000240891
0.00253392
-0.000244284
0.00252947
-0.000247888
0.002525
-0.000251872
0.00252052
-0.000256036
0.00251602
-0.000260758
0.00251149
-0.000265524
0.00250692
-0.000271201
0.00250233
-0.000276525
0.00249767
-0.000283504
0.00249299
-0.000289133
0.00248821
-0.000298037
0.00248344
-0.000303257
0.00247848
-0.000315298
0.00247362
-0.000318417
0.00246842
-0.00033602
0.0024635
-0.000333525
0.00245795
-0.000360835
-0.000350444
0.0027049
-0.000187716
0.00270034
-0.000188803
0.00269578
-0.000189858
0.00269122
-0.000190887
0.00268666
-0.000191897
0.0026821
-0.000192893
0.00267755
-0.000193882
0.002673
-0.000194868
0.00266845
-0.000195858
0.00266391
-0.000196856
0.00265937
-0.000197868
0.00265484
-0.0001989
0.00265031
-0.000199956
0.00264579
-0.000201042
0.00264127
-0.000202164
0.00263676
-0.000203326
0.00263226
-0.000204535
0.00262776
-0.000205796
0.00262327
-0.000207115
0.00261878
-0.000208499
0.0026143
-0.000209954
0.00260983
-0.000211488
0.00260536
-0.000213109
0.0026009
-0.000214825
0.00259644
-0.000216645
0.00259198
-0.000218581
0.00258752
-0.000220641
0.00258307
-0.00022284
0.00257862
-0.000225189
0.00257416
-0.000227708
0.0025697
-0.000230402
0.00256523
-0.00023331
0.00256076
-0.000236416
0.00255627
-0.000239797
0.00255177
-0.000243389
0.00254725
-0.000247352
0.00254271
-0.000251498
0.00253814
-0.00025619
0.00253355
-0.000260932
0.00252891
-0.000266563
0.00252425
-0.00027186
0.00251951
-0.000278768
0.00251476
-0.000284378
0.00250989
-0.00029317
0.00250503
-0.000298398
0.00249998
-0.000310251
0.00249502
-0.000313458
0.00248973
-0.00033072
0.00248469
-0.000328495
0.00247904
-0.000355175
-0.000345313
0.00272792
-0.000183165
0.00272337
-0.000184249
0.00271881
-0.000185303
0.00271426
-0.000186332
0.0027097
-0.000187342
0.00270515
-0.000188339
0.00270059
-0.000189329
0.00269604
-0.000190318
0.0026915
-0.00019131
0.00268695
-0.000192311
0.00268241
-0.000193326
0.00267787
-0.000194362
0.00267334
-0.000195422
0.00266881
-0.000196512
0.00266428
-0.000197638
0.00265976
-0.000198805
0.00265524
-0.000200018
0.00265073
-0.000201284
0.00264622
-0.000202607
0.00264172
-0.000203996
0.00263722
-0.000205455
0.00263273
-0.000206993
0.00262823
-0.000208617
0.00262374
-0.000210336
0.00261926
-0.000212158
0.00261477
-0.000214094
0.00261028
-0.000216154
0.0026058
-0.000218352
0.00260131
-0.000220698
0.00259681
-0.000223213
0.00259231
-0.000225901
0.0025878
-0.0002288
0.00258328
-0.000231896
0.00257874
-0.000235262
0.00257419
-0.000238837
0.00256962
-0.000242779
0.00256502
-0.000246902
0.00256039
-0.000251561
0.00255574
-0.000256275
0.00255103
-0.000261857
0.0025463
-0.000267124
0.00254149
-0.000273958
0.00253665
-0.000279544
0.0025317
-0.00028822
0.00252676
-0.000293452
0.00252162
-0.000305112
0.00251656
-0.000308402
0.00251116
-0.000325319
0.00250602
-0.000323358
0.00250025
-0.000349406
-0.000340067
0.00275101
-0.000178625
0.00274647
-0.000179706
0.00274192
-0.000180757
0.00273737
-0.000181784
0.00273282
-0.000182793
0.00272827
-0.000183789
0.00272372
-0.00018478
0.00271917
-0.000185769
0.00271463
-0.000186762
0.00271008
-0.000187765
0.00270554
-0.000188782
0.00270099
-0.00018982
0.00269645
-0.000190882
0.00269192
-0.000191976
0.00268738
-0.000193104
0.00268285
-0.000194274
0.00267832
-0.00019549
0.0026738
-0.000196759
0.00266928
-0.000198085
0.00266476
-0.000199476
0.00266024
-0.000200938
0.00265573
-0.000202478
0.00265121
-0.000204103
0.0026467
-0.000205822
0.00264218
-0.000207644
0.00263767
-0.000209579
0.00263315
-0.000211637
0.00262863
-0.000213832
0.00262411
-0.000216173
0.00261958
-0.000218681
0.00261503
-0.00022136
0.00261048
-0.000224248
0.00260592
-0.00022733
0.00260133
-0.000230679
0.00259673
-0.000234236
0.00259211
-0.000238152
0.00258745
-0.000242251
0.00258277
-0.000246872
0.00257805
-0.000251556
0.00257327
-0.000257085
0.00256847
-0.000262318
0.00256358
-0.000269074
0.00255867
-0.000274633
0.00255364
-0.000283187
0.00254861
-0.000288421
0.00254338
-0.000299882
0.00253823
-0.000303251
0.00253273
-0.000319816
0.00252748
-0.000318115
0.0025216
-0.000343529
-0.000334703
0.00277417
-0.000174096
0.00276964
-0.000175173
0.0027651
-0.00017622
0.00276056
-0.000177244
0.00275602
-0.00017825
0.00275148
-0.000179246
0.00274693
-0.000180234
0.00274239
-0.000181223
0.00273784
-0.000182216
0.00273329
-0.000183219
0.00272875
-0.000184237
0.0027242
-0.000185275
0.00271966
-0.000186339
0.00271512
-0.000187434
0.00271058
-0.000188564
0.00270604
-0.000189735
0.0027015
-0.000190953
0.00269696
-0.000192222
0.00269243
-0.00019355
0.00268789
-0.000194941
0.00268336
-0.000196404
0.00267883
-0.000197943
0.00267429
-0.000199568
0.00266976
-0.000201286
0.00266522
-0.000203106
0.00266068
-0.000205038
0.00265613
-0.000207091
0.00265158
-0.000209281
0.00264702
-0.000211614
0.00264245
-0.000214113
0.00263787
-0.000216781
0.00263328
-0.000219655
0.00262867
-0.000222722
0.00262404
-0.00022605
0.00261939
-0.000229586
0.00261471
-0.000233473
0.00261001
-0.000237544
0.00260526
-0.000242125
0.00260048
-0.000246775
0.00259564
-0.000252247
0.00259077
-0.000257443
0.00258581
-0.000264117
0.00258082
-0.000269644
0.0025757
-0.000278073
0.00257059
-0.000283304
0.00256527
-0.00029456
0.00256002
-0.000298005
0.00255442
-0.000314214
0.00254907
-0.000312766
0.00254308
-0.000337542
-0.000329224
0.00279741
-0.000169581
0.00279289
-0.000170652
0.00278836
-0.000171694
0.00278383
-0.000172714
0.0027793
-0.000173717
0.00277476
-0.000174709
0.00277022
-0.000175695
0.00276568
-0.000176682
0.00276114
-0.000177673
0.00275659
-0.000178675
0.00275205
-0.000179692
0.0027475
-0.00018073
0.00274296
-0.000181793
0.00273841
-0.000182888
0.00273386
-0.000184018
0.00272932
-0.000185189
0.00272477
-0.000186406
0.00272022
-0.000187675
0.00271568
-0.000189002
0.00271113
-0.000190393
0.00270658
-0.000191854
0.00270203
-0.000193392
0.00269747
-0.000195014
0.00269292
-0.000196729
0.00268835
-0.000198544
0.00268379
-0.000200471
0.00267921
-0.000202518
0.00267463
-0.000204699
0.00267004
-0.000207023
0.00266544
-0.000209511
0.00266082
-0.000212165
0.00265619
-0.000215022
0.00265154
-0.000218071
0.00264687
-0.000221376
0.00264217
-0.000224887
0.00263744
-0.000228742
0.00263267
-0.000232782
0.00262787
-0.00023732
0.00262303
-0.000241933
0.00261813
-0.000247344
0.00261318
-0.0002525
0.00260815
-0.000259087
0.00260309
-0.000264579
0.00259789
-0.000272878
0.00259269
-0.000278101
0.00258728
-0.000289149
0.00258194
-0.000292664
0.00257624
-0.000308512
0.00257078
-0.000307312
0.00256469
-0.000331448
-0.000323628
0.00282071
-0.000165081
0.0028162
-0.000166145
0.00281169
-0.00016718
0.00280717
-0.000168194
0.00280265
-0.000169193
0.00279812
-0.00017018
0.00279359
-0.000171163
0.00278905
-0.000172146
0.00278451
-0.000173135
0.00277997
-0.000174134
0.00277543
-0.000175149
0.00277088
-0.000176185
0.00276634
-0.000177247
0.00276179
-0.000178339
0.00275724
-0.000179467
0.00275269
-0.000180637
0.00274813
-0.000181852
0.00274358
-0.00018312
0.00273902
-0.000184444
0.00273446
-0.000185832
0.00272989
-0.00018729
0.00272533
-0.000188824
0.00272075
-0.000190442
0.00271618
-0.000192151
0.00271159
-0.000193961
0.002707
-0.00019588
0.0027024
-0.000197919
0.00269779
-0.000200089
0.00269317
-0.000202401
0.00268853
-0.000204875
0.00268388
-0.000207513
0.00267921
-0.000210351
0.00267452
-0.000213378
0.0026698
-0.000216658
0.00266505
-0.000220141
0.00266027
-0.000223962
0.00265546
-0.000227968
0.0026506
-0.000232459
0.0026457
-0.000237031
0.00264073
-0.000242378
0.00263572
-0.000247489
0.00263062
-0.000253985
0.00262548
-0.000259438
0.0026202
-0.000267603
0.00261492
-0.000272815
0.00260941
-0.000283648
0.00260398
-0.00028723
0.00259818
-0.00030271
0.00259262
-0.000301752
0.00258642
-0.000325245
-0.000317915
0.00284409
-0.000160597
0.00283959
-0.000161652
0.00283509
-0.00016268
0.00283059
-0.000163687
0.00282607
-0.000164679
0.00282155
-0.000165662
0.00281703
-0.000166639
0.0028125
-0.000167618
0.00280797
-0.000168602
0.00280343
-0.000169598
0.00279889
-0.000170609
0.00279435
-0.000171641
0.0027898
-0.0001727
0.00278525
-0.000173789
0.0027807
-0.000174914
0.00277614
-0.00017608
0.00277158
-0.000177293
0.00276702
-0.000178556
0.00276245
-0.000179877
0.00275788
-0.00018126
0.0027533
-0.000182713
0.00274872
-0.000184242
0.00274413
-0.000185853
0.00273954
-0.000187555
0.00273493
-0.000189356
0.00273032
-0.000191266
0.00272569
-0.000193294
0.00272106
-0.000195452
0.0027164
-0.00019775
0.00271174
-0.000200206
0.00270705
-0.000202826
0.00270234
-0.000205642
0.00269761
-0.000208645
0.00269285
-0.000211897
0.00268806
-0.00021535
0.00268323
-0.000219132
0.00267836
-0.000223101
0.00267344
-0.000227542
0.00266848
-0.000232069
0.00266345
-0.000237348
0.00265837
-0.000242412
0.0026532
-0.000248813
0.00264799
-0.000254223
0.00264263
-0.000262249
0.00263726
-0.000267445
0.00263167
-0.000278059
0.00262614
-0.000281702
0.00262024
-0.000296811
0.00261458
-0.000296089
0.00260827
-0.000318937
-0.000312087
0.00286753
-0.00015613
0.00286305
-0.000157175
0.00285857
-0.000158194
0.00285407
-0.000159194
0.00284957
-0.000160178
0.00284506
-0.000161154
0.00284055
-0.000162125
0.00283603
-0.000163098
0.0028315
-0.000164076
0.00282697
-0.000165067
0.00282244
-0.000166073
0.0028179
-0.000167101
0.00281335
-0.000168155
0.0028088
-0.000169239
0.00280425
-0.00017036
0.00279969
-0.000171521
0.00279512
-0.000172728
0.00279055
-0.000173986
0.00278598
-0.000175301
0.0027814
-0.000176679
0.00277681
-0.000178125
0.00277221
-0.000179646
0.00276761
-0.000181249
0.00276299
-0.000182942
0.00275837
-0.000184733
0.00275373
-0.000186631
0.00274909
-0.000188645
0.00274442
-0.000190789
0.00273974
-0.00019307
0.00273504
-0.000195507
0.00273032
-0.000198106
0.00272558
-0.000200897
0.00272081
-0.000203874
0.002716
-0.000207093
0.00271117
-0.000210513
0.00270629
-0.000214255
0.00270137
-0.000218182
0.0026964
-0.00022257
0.00269138
-0.000227049
0.00268629
-0.000232257
0.00268114
-0.000237268
0.0026759
-0.000243571
0.00267061
-0.000248934
0.00266518
-0.000256816
0.00265972
-0.000261991
0.00265405
-0.000272382
0.00264843
-0.00027608
0.00264243
-0.000290814
0.00263666
-0.000290321
0.00263025
-0.000312522
-0.000306142
0.00289104
-0.00015168
0.00288658
-0.000152715
0.00288211
-0.000153724
0.00287763
-0.000154714
0.00287315
-0.00015569
0.00286865
-0.000156658
0.00286415
-0.000157621
0.00285964
-0.000158587
0.00285512
-0.000159559
0.00285059
-0.000160543
0.00284606
-0.000161543
0.00284153
-0.000162564
0.00283698
-0.000163612
0.00283244
-0.00016469
0.00282788
-0.000165805
0.00282332
-0.000166959
0.00281875
-0.00016816
0.00281418
-0.000169411
0.00280959
-0.000170719
0.002805
-0.000172088
0.0028004
-0.000173526
0.0027958
-0.000175037
0.00279118
-0.00017663
0.00278655
-0.000178312
0.0027819
-0.00018009
0.00277725
-0.000181975
0.00277258
-0.000183974
0.00276789
-0.0001861
0.00276318
-0.000188362
0.00275845
-0.000190778
0.0027537
-0.000193353
0.00274892
-0.000196117
0.00274411
-0.000199064
0.00273926
-0.000202249
0.00273438
-0.000205632
0.00272946
-0.00020933
0.00272449
-0.000213214
0.00271946
-0.000217544
0.00271439
-0.000221972
0.00270924
-0.000227105
0.00270403
-0.00023206
0.00269872
-0.00023826
0.00269335
-0.000243571
0.00268784
-0.000251305
0.00268231
-0.000256455
0.00267654
-0.000266618
0.00267083
-0.000270366
0.00266473
-0.00028472
0.00265886
-0.000284449
0.00265234
-0.000306001
-0.000300082
0.00291463
-0.00014725
0.00291018
-0.000148272
0.00290573
-0.000149271
0.00290127
-0.00015025
0.00289679
-0.000151216
0.00289231
-0.000152174
0.00288782
-0.000153129
0.00288332
-0.000154087
0.00287881
-0.000155051
0.00287429
-0.000156026
0.00286977
-0.000157019
0.00286524
-0.000158033
0.0028607
-0.000159073
0.00285615
-0.000160144
0.0028516
-0.00016125
0.00284703
-0.000162397
0.00284246
-0.000163589
0.00283789
-0.000164832
0.0028333
-0.000166131
0.0028287
-0.00016749
0.00282409
-0.000168917
0.00281947
-0.000170418
0.00281484
-0.000171999
0.00281019
-0.000173667
0.00280554
-0.000175431
0.00280086
-0.000177299
0.00279617
-0.00017928
0.00279145
-0.000181387
0.00278672
-0.000183628
0.00278196
-0.00018602
0.00277718
-0.000188568
0.00277236
-0.000191303
0.00276752
-0.000194217
0.00276263
-0.000197365
0.00275771
-0.000200709
0.00275274
-0.00020436
0.00274772
-0.000208195
0.00274264
-0.000212466
0.00273751
-0.000216838
0.00273229
-0.000221892
0.00272702
-0.000226787
0.00272164
-0.000232881
0.00271621
-0.000238135
0.00271062
-0.000245718
0.002705
-0.000250838
0.00269915
-0.000260767
0.00269335
-0.000264561
0.00268716
-0.000278531
0.00268118
-0.000278474
0.00267456
-0.000299376
-0.000293906
0.00293828
-0.000142839
0.00293385
-0.000143849
0.00292942
-0.000144835
0.00292497
-0.000145803
0.00292051
-0.000146758
0.00291604
-0.000147705
0.00291156
-0.00014865
0.00290707
-0.000149598
0.00290258
-0.000150552
0.00289807
-0.000151519
0.00289355
-0.000152503
0.00288903
-0.000153508
0.00288449
-0.000154539
0.00287995
-0.000155601
0.0028754
-0.000156698
0.00287083
-0.000157835
0.00286626
-0.000159018
0.00286168
-0.00016025
0.00285709
-0.000161538
0.00285248
-0.000162886
0.00284787
-0.000164301
0.00284324
-0.000165788
0.00283859
-0.000167355
0.00283393
-0.000169008
0.00282926
-0.000170755
0.00282456
-0.000172605
0.00281985
-0.000174567
0.00281512
-0.000176652
0.00281036
-0.000178868
0.00280557
-0.000181234
0.00280076
-0.000183754
0.00279591
-0.000186455
0.00279103
-0.000189335
0.0027861
-0.000192442
0.00278114
-0.000195743
0.00277612
-0.000199344
0.00277105
-0.000203129
0.00276592
-0.000207335
0.00276073
-0.000211649
0.00275546
-0.00021662
0.00275013
-0.000221451
0.00274468
-0.000227434
0.00273917
-0.000232628
0.00273351
-0.000240054
0.00272781
-0.000245139
0.00272187
-0.000254831
0.00271598
-0.000258663
0.00270969
-0.000272246
0.00270362
-0.000272397
0.00269689
-0.000292646
-0.000287615
0.002962
-0.000138449
0.00295759
-0.000139444
0.00295317
-0.000140417
0.00294874
-0.000141372
0.0029443
-0.000142315
0.00293985
-0.000143251
0.00293538
-0.000144185
0.00293091
-0.000145121
0.00292642
-0.000146065
0.00292192
-0.000147022
0.00291741
-0.000147995
0.00291289
-0.00014899
0.00290837
-0.00015001
0.00290383
-0.000151062
0.00289928
-0.000152148
0.00289472
-0.000153275
0.00289014
-0.000154446
0.00288556
-0.000155666
0.00288096
-0.000156941
0.00287635
-0.000158276
0.00287173
-0.000159677
0.00286709
-0.000161149
0.00286244
-0.0001627
0.00285777
-0.000164336
0.00285307
-0.000166064
0.00284836
-0.000167894
0.00284363
-0.000169834
0.00283887
-0.000171894
0.00283409
-0.000174085
0.00282928
-0.000176421
0.00282443
-0.000178909
0.00281955
-0.000181576
0.00281463
-0.000184417
0.00280967
-0.000187481
0.00280467
-0.000190737
0.00279961
-0.000194284
0.00279449
-0.000198015
0.00278931
-0.000202154
0.00278407
-0.000206405
0.00277874
-0.00021129
0.00277334
-0.000216053
0.00276783
-0.000221921
0.00276225
-0.00022705
0.00275651
-0.000234315
0.00275073
-0.00023936
0.00274471
-0.00024881
0.00273872
-0.000252675
0.00273234
-0.000265867
0.00272616
-0.000266217
0.00271933
-0.000285813
-0.00028121
0.00298579
-0.000134081
0.0029814
-0.00013506
0.002977
-0.000136018
0.00297259
-0.000136959
0.00296816
-0.000137889
0.00296373
-0.000138812
0.00295927
-0.000139733
0.00295481
-0.000140658
0.00295034
-0.00014159
0.00294585
-0.000142535
0.00294135
-0.000143496
0.00293684
-0.00014448
0.00293232
-0.000145489
0.00292778
-0.000146528
0.00292324
-0.000147602
0.00291868
-0.000148716
0.00291411
-0.000149874
0.00290952
-0.000151081
0.00290492
-0.000152342
0.00290031
-0.000153662
0.00289568
-0.000155047
0.00289103
-0.000156503
0.00288637
-0.000158035
0.00288168
-0.000159652
0.00287698
-0.000161359
0.00287225
-0.000163167
0.0028675
-0.000165082
0.00286272
-0.000167116
0.00285792
-0.000169278
0.00285308
-0.000171582
0.0028482
-0.000174036
0.00284329
-0.000176665
0.00283834
-0.000179465
0.00283334
-0.000182484
0.0028283
-0.000185691
0.00282319
-0.00018918
0.00281803
-0.000192854
0.0028128
-0.000196922
0.0028075
-0.000201108
0.00280212
-0.000205903
0.00279666
-0.000210593
0.00279108
-0.000216342
0.00278543
-0.000221402
0.00277962
-0.000228502
0.00277376
-0.000233501
0.00276765
-0.000242706
0.00276158
-0.000246597
0.0027551
-0.000259394
0.00274882
-0.000259935
0.00274189
-0.000278878
-0.000274689
0.00300964
-0.000129734
0.00300528
-0.000130697
0.0030009
-0.000131639
0.00299651
-0.000132565
0.0029921
-0.000133481
0.00298767
-0.00013439
0.00298324
-0.000135297
0.00297879
-0.000136209
0.00297433
-0.000137128
0.00296985
-0.000138059
0.00296536
-0.000139008
0.00296086
-0.000139978
0.00295635
-0.000140974
0.00295182
-0.000142
0.00294728
-0.000143061
0.00294272
-0.000144161
0.00293815
-0.000145304
0.00293357
-0.000146496
0.00292897
-0.000147741
0.00292435
-0.000149045
0.00291971
-0.000150412
0.00291506
-0.000151849
0.00291039
-0.000153361
0.00290569
-0.000154956
0.00290097
-0.000156641
0.00289623
-0.000158424
0.00289146
-0.000160313
0.00288666
-0.000162318
0.00288183
-0.000164448
0.00287697
-0.000166719
0.00287207
-0.000169136
0.00286713
-0.000171724
0.00286215
-0.000174481
0.00285711
-0.00017745
0.00285203
-0.000180605
0.00284688
-0.000184035
0.00284167
-0.000187648
0.00283639
-0.000191642
0.00283104
-0.000195757
0.0028256
-0.000200458
0.00282008
-0.000205072
0.00281443
-0.000210699
0.00280872
-0.000215684
0.00280283
-0.000222615
0.00279689
-0.000227563
0.0027907
-0.000236519
0.00278454
-0.00024043
0.00277797
-0.000252829
0.00277159
-0.000253552
0.00276455
-0.000271842
-0.000268055
0.00303357
-0.00012541
0.00302923
-0.000126355
0.00302487
-0.000127281
0.00302049
-0.000128191
0.0030161
-0.00012909
0.0030117
-0.000129984
0.00300728
-0.000130877
0.00300284
-0.000131774
0.00299839
-0.000132679
0.00299393
-0.000133596
0.00298945
-0.000134531
0.00298496
-0.000135487
0.00298045
-0.000136468
0.00297593
-0.00013748
0.0029714
-0.000138525
0.00296685
-0.000139609
0.00296228
-0.000140737
0.00295769
-0.000141912
0.00295309
-0.000143139
0.00294847
-0.000144424
0.00294383
-0.000145772
0.00293917
-0.000147188
0.00293449
-0.000148679
0.00292978
-0.000150251
0.00292505
-0.000151911
0.0029203
-0.000153667
0.00291551
-0.000155527
0.00291069
-0.000157501
0.00290584
-0.000159598
0.00290096
-0.000161832
0.00289603
-0.000164209
0.00289106
-0.000166754
0.00288604
-0.000169464
0.00288097
-0.000172381
0.00287585
-0.000175481
0.00287066
-0.000178848
0.00286541
-0.000182396
0.00286008
-0.000186313
0.00285468
-0.000190355
0.00284918
-0.000194958
0.0028436
-0.000199491
0.00283789
-0.000204992
0.0028321
-0.000209897
0.00282615
-0.000216656
0.00282013
-0.000221548
0.00281386
-0.000230249
0.0028076
-0.000234174
0.00280095
-0.000246172
0.00279446
-0.000247069
0.00278733
-0.000264705
-0.000261307
0.00305756
-0.000121108
0.00305324
-0.000122035
0.0030489
-0.000122943
0.00304455
-0.000123835
0.00304018
-0.000124718
0.00303579
-0.000125596
0.00303138
-0.000126473
0.00302697
-0.000127354
0.00302253
-0.000128244
0.00301808
-0.000129146
0.00301361
-0.000130065
0.00300913
-0.000131005
0.00300464
-0.000131971
0.00300012
-0.000132966
0.00299559
-0.000133995
0.00299105
-0.000135063
0.00298648
-0.000136172
0.0029819
-0.000137329
0.0029773
-0.000138537
0.00297267
-0.000139802
0.00296803
-0.000141129
0.00296337
-0.000142523
0.00295868
-0.00014399
0.00295396
-0.000145536
0.00294922
-0.000147169
0.00294445
-0.000148896
0.00293965
-0.000150725
0.00293481
-0.000152665
0.00292994
-0.000154726
0.00292503
-0.000156921
0.00292008
-0.000159257
0.00291508
-0.000161755
0.00291003
-0.000164416
0.00290493
-0.000167278
0.00289977
-0.00017032
0.00289454
-0.00017362
0.00288924
-0.000177101
0.00288387
-0.000180936
0.00287841
-0.000184901
0.00287286
-0.000189403
0.00286722
-0.000193851
0.00286145
-0.000199221
0.00285559
-0.000204043
0.00284956
-0.000210625
0.00284347
-0.000215454
0.00283712
-0.000223899
0.00283077
-0.000227829
0.00282403
-0.000239425
0.00281744
-0.000240486
0.00281021
-0.000257468
-0.000254446
0.00308162
-0.00011683
0.00307733
-0.000117738
0.00307301
-0.000118626
0.00306867
-0.0001195
0.00306432
-0.000120366
0.00305995
-0.000121226
0.00305556
-0.000122086
0.00305116
-0.00012295
0.00304674
-0.000123823
0.0030423
-0.000124709
0.00303785
-0.000125611
0.00303338
-0.000126535
0.00302889
-0.000127483
0.00302439
-0.000128461
0.00301986
-0.000129472
0.00301532
-0.000130521
0.00301076
-0.000131612
0.00300618
-0.000132749
0.00300158
-0.000133936
0.00299696
-0.000135179
0.00299231
-0.000136483
0.00298764
-0.000137852
0.00298294
-0.000139294
0.00297822
-0.000140813
0.00297347
-0.000142416
0.00296868
-0.000144112
0.00296387
-0.000145908
0.00295901
-0.000147813
0.00295412
-0.000149835
0.00294919
-0.000151988
0.00294421
-0.000154279
0.00293919
-0.000156729
0.00293411
-0.000159337
0.00292897
-0.000162141
0.00292377
-0.000165122
0.0029185
-0.000168353
0.00291317
-0.000171763
0.00290774
-0.000175513
0.00290224
-0.000179396
0.00289663
-0.000183794
0.00289093
-0.000188153
0.0028851
-0.000193389
0.00287918
-0.000198122
0.00287308
-0.000204522
0.00286691
-0.000209284
0.00286047
-0.000217468
0.00285404
-0.000221397
0.00284721
-0.000232588
0.00284052
-0.000233803
0.00283319
-0.000250132
-0.000247473
0.00310576
-0.000112576
0.00310148
-0.000113462
0.00309719
-0.000114331
0.00309287
-0.000115186
0.00308854
-0.000116032
0.00308419
-0.000116874
0.00307982
-0.000117716
0.00307543
-0.000118562
0.00307102
-0.000119418
0.0030666
-0.000120285
0.00306216
-0.00012117
0.0030577
-0.000122075
0.00305322
-0.000123005
0.00304872
-0.000123965
0.00304421
-0.000124956
0.00303967
-0.000125985
0.00303512
-0.000127055
0.00303054
-0.000128171
0.00302594
-0.000129336
0.00302131
-0.000130555
0.00301667
-0.000131834
0.00301199
-0.000133178
0.00300729
-0.000134591
0.00300256
-0.000136081
0.00299779
-0.000137654
0.002993
-0.000139316
0.00298817
-0.000141076
0.0029833
-0.000142943
0.00297839
-0.000144925
0.00297343
-0.000147034
0.00296843
-0.000149278
0.00296338
-0.000151675
0.00295827
-0.000154229
0.0029531
-0.000156972
0.00294787
-0.000159889
0.00294256
-0.000163047
0.00293718
-0.000166382
0.00293171
-0.000170045
0.00292616
-0.000173842
0.00292049
-0.000178131
0.00291474
-0.000182397
0.00290884
-0.000187494
0.00290286
-0.000192134
0.00289668
-0.00019835
0.00289044
-0.000203039
0.00288393
-0.000210958
0.00287741
-0.000214879
0.00287048
-0.000225662
0.0028637
-0.000227021
0.00285627
-0.000242698
-0.000240387
0.00312996
-0.000108345
0.00312571
-0.00010921
0.00312143
-0.000110057
0.00311714
-0.000110892
0.00311282
-0.000111718
0.00310849
-0.000112541
0.00310414
-0.000113364
0.00309977
-0.000114191
0.00309538
-0.000115027
0.00309097
-0.000115876
0.00308654
-0.000116741
0.00308209
-0.000117628
0.00307762
-0.000118538
0.00307314
-0.000119477
0.00306863
-0.000120448
0.0030641
-0.000121456
0.00305955
-0.000122504
0.00305497
-0.000123596
0.00305037
-0.000124737
0.00304575
-0.000125931
0.0030411
-0.000127184
0.00303642
-0.0001285
0.00303171
-0.000129884
0.00302697
-0.000131342
0.0030222
-0.000132882
0.0030174
-0.000134509
0.00301255
-0.000136231
0.00300766
-0.000138058
0.00300274
-0.000139996
0.00299776
-0.000142059
0.00299274
-0.000144252
0.00298766
-0.000146596
0.00298252
-0.000149091