/*--------------------------------*- C++ -*----------------------------------*\
  =========                 |
  \\      /  F ield         | OpenFOAM: The Open Source CFD Toolbox
   \\    /   O peration     | Website:  https://openfoam.org
    \\  /    A nd           | Version:  7
     \\/     M anipulation  |
\*---------------------------------------------------------------------------*/
FoamFile
{
    version     2.0;
    format      ascii;
    class       surfaceScalarField;
    location    "5";
    object      phi;
}
// * * * * * * * * * * * * * * * * * * * * * * * * * * * * * * * * * * * * * //

dimensions      [0 3 -1 0 0 0 0];

internalField   nonuniform List<scalar> 
23915
(
-0.000114685
0.000114685
-2.78625e-11
-0.000317865
0.00020318
-4.99659e-11
-0.00057303
0.000255165
-5.74513e-11
-0.000864984
0.000291954
-5.73253e-11
-0.00118879
0.000323807
-5.01e-11
-0.00153848
0.000349688
-3.57329e-11
-0.00190454
0.00036606
-1.59607e-11
-0.00227283
0.000368289
5.87924e-12
-0.00262424
0.000351415
3.08686e-11
-0.00293447
0.000310226
5.88849e-11
-0.0031737
0.000239236
8.73559e-11
-0.00330711
0.000133406
1.14136e-10
-0.00329702
-1.00931e-05
1.31145e-10
-0.0031131
-0.000183917
1.46279e-10
-0.00273196
-0.00038114
1.48457e-10
-0.00214769
-0.000584272
1.38159e-10
-0.00137681
-0.000770876
1.15562e-10
-0.000436408
-0.000940406
8.58966e-11
0.000603601
-0.00104001
5.18096e-11
-0.00117814
1.6951e-11
0.00178175
-0.000110228
0.000224913
-0.000306669
0.000399622
-0.000553158
0.000501654
-0.000833739
0.000572536
-0.00114245
0.000632521
-0.00147242
0.000679652
-0.00181329
0.000706936
-0.00215027
0.000705262
-0.0024638
0.000664946
-0.00272956
0.000575984
-0.00291827
0.000427951
-0.00299583
0.00021097
-0.00292772
-7.82049e-05
-0.00268263
-0.000429007
-0.00223966
-0.000824114
-0.00159722
-0.0012267
-0.000771732
-0.00159637
0.000206831
-0.00191897
0.00128578
-0.00211896
-0.00236966
0.00247729
-0.000101618
0.000326531
-0.000284934
0.000582938
-0.000514514
0.000731233
-0.000773027
0.000831049
-0.00105262
0.000912111
-0.00134477
0.000971802
-0.00163774
0.000999913
-0.00191574
0.000983262
-0.00215883
0.000908026
-0.00234318
0.000760342
-0.00244124
0.000526004
-0.00242135
0.000191079
-0.00225343
-0.000246119
-0.00190796
-0.000774479
-0.00136729
-0.00136478
-0.000637384
-0.00195661
0.000264213
-0.00249797
0.00129268
-0.00294743
0.00240923
-0.00323551
-0.0035602
0.00359977
-8.939e-05
0.000415921
-0.000253849
0.000747397
-0.000459132
0.000936515
-0.000686152
0.00105807
-0.000924553
0.00115051
-0.00116378
0.00121103
-0.00139053
0.00122666
-0.00158818
0.00118091
-0.00173696
0.0010568
-0.00181465
0.000838041
-0.00179701
0.000508361
-0.00165636
5.04314e-05
-0.00136864
-0.000533842
-0.000907969
-0.00123515
-0.000260005
-0.00201275
0.000548662
-0.00276528
0.00150747
-0.00345677
0.0025674
-0.00400736
0.00369238
-0.00436049
-0.00470938
0.00484156
-7.42961e-05
0.000490217
-0.000215104
0.000888204
-0.000389885
0.0011113
-0.000577717
0.0012459
-0.000765485
0.00133828
-0.000940536
0.00138608
-0.00108823
0.00137435
-0.00119171
0.0012844
-0.00123226
0.00109735
-0.00119044
0.000796222
-0.00104559
0.000363514
-0.000779486
-0.000215672
-0.000366466
-0.000946862
0.00020749
-0.00180911
0.000941384
-0.00274664
0.00181811
-0.003642
0.00280948
-0.00444815
0.00385959
-0.00505747
0.00494808
-0.00544898
-0.00577259
0.00601128
-5.72596e-05
0.000547477
-0.000170788
0.00100173
-0.000310307
0.00125082
-0.000453291
0.00138889
-0.000583968
0.00146896
-0.000687863
0.00148997
-0.000749543
0.00143603
-0.000752789
0.00128764
-0.000680909
0.00102547
-0.000518252
0.000633564
-0.000249259
9.45206e-05
0.000140617
-0.000605547
0.000668301
-0.00147455
0.00134035
-0.00248116
0.00215277
-0.00355906
0.00307195
-0.00456119
0.00406115
-0.00543734
0.00506253
-0.00605885
0.00607105
-0.00645751
-0.00671686
0.00701533
-3.93096e-05
0.000586786
-0.000123268
0.00108569
-0.000224381
0.00135193
-0.000319046
0.00148355
-0.000389258
0.00153917
-0.000419276
0.00151999
-0.000393606
0.00141036
-0.000297676
0.00119171
-0.00011782
0.000845613
0.000158606
0.000357138
0.000542117
-0.00028899
0.00104379
-0.00110722
0.00167567
-0.00210642
0.00243592
-0.00324141
0.00330496
-0.0044281
0.00423699
-0.00549321
0.00518858
-0.00638893
0.00610767
-0.00697794
0.0070028
-0.00735264
-0.00752607
0.00781201
-2.15097e-05
0.000608296
-7.50431e-05
0.00113922
-0.00013633
0.00141322
-0.000181408
0.00152863
-0.000190736
0.0015485
-0.000148114
0.00147737
-3.90781e-05
0.00130133
0.000149998
0.00100264
0.000428962
0.000566649
0.000806124
-2.00242e-05
0.00129039
-0.00077326
0.00189204
-0.00170886
0.00261718
-0.00283156
0.00345023
-0.00407446
0.00435137
-0.00532924
0.00526416
-0.00640601
0.00614453
-0.00726929
0.00695581
-0.00778923
0.00771962
-0.00811646
-0.00820138
0.00839493
-4.88347e-06
0.00061318
-2.8583e-05
0.00116292
-5.03926e-05
0.00143503
-4.67279e-05
0.00152496
2.05148e-06
0.00149972
0.000113577
0.00136584
0.000299849
0.00111506
0.000571106
0.000731379
0.000935335
0.00020242
0.00140011
-0.000484803
0.00197465
-0.0013478
0.00266839
-0.0024026
0.00347623
-0.0036394
0.00436184
-0.00496007
0.00526407
-0.00623147
0.00612331
-0.00726525
0.0069043
-0.00805029
0.00759375
-0.00847868
0.00822578
-0.00874848
-0.00875859
0.00878299
9.66341e-06
0.000603516
1.37417e-05
0.00115885
2.95053e-05
0.00141926
7.92096e-05
0.00147526
0.000182742
0.00139619
0.000355415
0.00119317
0.000608862
0.00086161
0.000951103
0.000389137
0.00138962
-0.000236099
0.00193349
-0.00102868
0.00259417
-0.00200848
0.00337534
-0.00318377
0.00425076
-0.00451482
0.00515887
-0.00586817
0.00602442
-0.00709703
0.0067976
-0.00803842
0.0074618
-0.00871449
0.00802986
-0.00904674
0.00854524
-0.00926386
-0.00922275
0.00900941
2.14022e-05
0.000582114
4.9962e-05
0.00113029
9.99102e-05
0.00136931
0.000191237
0.00138393
0.000342956
0.00124447
0.000569297
0.000966828
0.000880698
0.000550209
0.00128505
-1.5212e-05
0.00179238
-0.000743436
0.00241517
-0.00165147
0.00316322
-0.00275652
0.00402317
-0.00404371
0.0049387
-0.00543035
0.00582809
-0.00675756
0.00661817
-0.00788711
0.00728238
-0.00870263
0.00782764
-0.00925975
0.00828904
-0.00950814
0.00871302
-0.00968784
-0.00962155
0.00911182
2.98513e-05
0.000552263
7.87162e-05
0.00108142
0.000158066
0.00128996
0.000285577
0.00125642
0.0004789
0.00105114
0.00075152
0.000694208
0.00111424
0.000187494
0.00157833
-0.000479304
0.00215738
-0.00132249
0.00286547
-0.00235955
0.00369895
-0.00359001
0.00461461
-0.00495937
0.00552764
-0.00634339
0.00635311
-0.00758303
0.00703846
-0.00857246
0.00758733
-0.0092515
0.00802702
-0.00969944
0.00840613
-0.00988725
0.00876653
-0.0100482
-0.0099795
0.00912448
3.47999e-05
0.000517463
9.91425e-05
0.00101708
0.00020249
0.00118662
0.000360379
0.00109853
0.000589422
0.0008221
0.000903711
0.000379919
0.00131728
-0.000226078
0.00184629
-0.00100831
0.00250727
-0.00198346
0.0033045
-0.00315679
0.00420615
-0.00449166
0.00513569
-0.00588891
0.00599654
-0.00720424
0.00672219
-0.00830868
0.00729188
-0.00914216
0.00773637
-0.00969598
0.00809406
-0.0100571
0.00841761
-0.0102108
0.0087386
-0.0103692
-0.0103149
0.009074
3.6334e-05
0.000481129
0.000111211
0.000942202
0.000233124
0.0010647
0.000416288
0.000915369
0.000677589
0.000560799
0.00103409
2.34153e-05
0.00150544
-0.000697425
0.00211167
-0.00161455
0.00286289
-0.00273468
0.00373794
-0.00403183
0.00466925
-0.00542297
0.00556041
-0.00678007
0.00632773
-0.00797156
0.00693753
-0.00891848
0.00739997
-0.0096046
0.00776232
-0.0100583
0.00806395
-0.0103588
0.00835493
-0.0105018
0.00865394
-0.0106682
-0.0106396
0.00897863
3.48324e-05
0.000446296
0.000115738
0.000861296
0.000251597
0.000928845
0.000456949
0.000710018
0.000751198
0.00026655
0.00115717
-0.000382559
0.00169943
-0.00123968
0.00239448
-0.00230961
0.00323038
-0.00357058
0.0041497
-0.00495115
0.00505859
-0.00633186
0.00586552
-0.007587
0.0065185
-0.00862454
0.00701746
-0.00941743
0.00739362
-0.00998076
0.00769879
-0.0103635
0.00796648
-0.0106264
0.0082413
-0.0107766
0.00852909
-0.010956
-0.0109604
0.00884994
3.09402e-05
0.000415356
0.000114371
0.000777865
0.000261296
0.000781919
0.000489062
0.000482252
0.000822459
-6.68461e-05
0.00129063
-0.000850732
0.0019175
-0.00186655
0.00270126
-0.00309336
0.00359468
-0.004464
0.00450869
-0.00586516
0.00534661
-0.00716978
0.00604351
-0.0082839
0.00658344
-0.00916447
0.00699035
-0.00982434
0.00730468
-0.0102951
0.00757394
-0.0106328
0.00782348
-0.010876
0.00809205
-0.0110452
0.00837398
-0.011238
-0.0112814
0.00869496
2.55172e-05
0.000389839
0.000109475
0.000693908
0.000267152
0.000624242
0.000521748
0.000227656
0.000905481
-0.000450579
0.00145028
-0.00139554
0.00216665
-0.00258291
0.00301936
-0.00394608
0.00392553
-0.00537017
0.00478485
-0.00672447
0.00552132
-0.00790625
0.00610486
-0.00886744
0.00654782
-0.00960743
0.00688588
-0.0101624
0.00715981
-0.010569
0.00740824
-0.0108812
0.00764943
-0.0111172
0.00791646
-0.0113122
0.00819405
-0.0115156
-0.0116049
0.00851748
1.95601e-05
0.000370279
0.000103904
0.000609563
0.000275082
0.000453064
0.00056508
-6.23408e-05
0.00101285
-0.000898351
0.00164339
-0.00202607
0.00243769
-0.00337721
0.00332154
-0.00482993
0.0041922
-0.00624083
0.00496246
-0.00749473
0.00558879
-0.00853259
0.00607133
-0.00934997
0.00643881
-0.00997491
0.00672908
-0.0104527
0.00697836
-0.0108183
0.00721525
-0.0111181
0.00745351
-0.0113554
0.00771991
-0.0115786
0.0079926
-0.0117883
-0.0119313
0.00831905
1.40959e-05
0.000356183
0.000100664
0.000522996
0.000291144
0.000262583
0.000628011
-0.000399208
0.00115155
-0.00142189
0.00186476
-0.00273928
0.00270812
-0.00422057
0.00357821
-0.00570002
0.00437605
-0.00703867
0.00504298
-0.00816166
0.00556673
-0.00905634
0.00596732
-0.00975056
0.00627963
-0.0102872
0.00653829
-0.0107113
0.00677303
-0.011053
0.00700351
-0.0113486
0.00724156
-0.0115935
0.00750543
-0.0118425
0.00777255
-0.0120554
-0.0122525
0.00809371
1.00541e-05
0.000346129
0.000102521
0.000430529
0.000320575
4.45285e-05
0.000716257
-0.00079489
0.00132009
-0.00202572
0.00209787
-0.00351707
0.00295131
-0.00507401
0.00376885
-0.00651757
0.00447406
-0.00774387
0.00503965
-0.00872725
0.00547637
-0.00949306
0.00581422
-0.0100884
0.00608764
-0.0105606
0.00632571
-0.0109494
0.00655151
-0.0112788
0.00677811
-0.0115752
0.00701684
-0.0118322
0.00727466
-0.0121003
0.00753121
-0.0123119
-0.0125846
0.00786337
8.33227e-06
0.000337797
0.000111753
0.000327108
0.000366706
-0.000210424
0.000829954
-0.00125814
0.00150705
-0.00270281
0.00231889
-0.00432891
0.00314386
-0.00589898
0.00388368
-0.00725738
0.00449198
-0.00835217
0.0049674
-0.00920268
0.00533443
-0.00986009
0.00562586
-0.0103798
0.00587221
-0.010807
0.00609658
-0.0111738
0.0063161
-0.0114984
0.00653976
-0.0117988
0.00677813
-0.0120706
0.00703133
-0.0123535
0.00729544
-0.012576
-0.0128812
0.00759198
8.96489e-06
0.000328832
0.000129538
0.000206535
0.000431238
-0.000512124
0.000965829
-0.00179273
0.00169884
-0.00343582
0.00251103
-0.00514111
0.00327913
-0.00666709
0.00393105
-0.0079093
0.00444873
-0.00886985
0.00484867
-0.00960262
0.00516169
-0.0101731
0.00541901
-0.0106372
0.0056459
-0.0110339
0.00586002
-0.0113879
0.00607384
-0.0117122
0.00629403
-0.012019
0.00652889
-0.0123054
0.00677452
-0.0125991
0.00705117
-0.0128527
-0.0131881
0.0073581
1.2356e-05
0.000316476
0.000156635
6.22552e-05
0.000513041
-0.00086853
0.00111451
-0.0023942
0.00187783
-0.00419914
0.00265991
-0.00592318
0.00335435
-0.00736153
0.00391849
-0.00847344
0.00435647
-0.00930782
0.00469527
-0.00994142
0.0049669
-0.0104447
0.00519875
-0.010869
0.00541079
-0.0112459
0.00561617
-0.0115933
0.00582399
-0.01192
0.00603937
-0.0122344
0.00626815
-0.0125342
0.00651165
-0.0128426
0.00677817
-0.0131192
-0.0134645
0.00705458
1.85015e-05
0.000297974
0.000192926
-0.00011217
0.000608782
-0.00128439
0.00126474
-0.00305016
0.00203054
-0.00496495
0.00276031
-0.00665295
0.00337467
-0.00797588
0.00385737
-0.00895614
0.00422791
-0.00967836
0.00451805
-0.0102316
0.00475782
-0.0106845
0.00496992
-0.0110811
0.00516958
-0.0114456
0.00536648
-0.0117902
0.00556739
-0.0121209
0.00577619
-0.0124432
0.00599848
-0.0127565
0.00623301
-0.0130771
0.00648959
-0.0133758
-0.0137397
0.00676482
2.72541e-05
0.00027072
0.000237698
-0.000322613
0.000713303
-0.00175999
0.0014053
-0.00374215
0.00214874
-0.00570839
0.00281307
-0.00731728
0.00334814
-0.00851096
0.00375865
-0.00936664
0.00407342
-0.00999313
0.00432497
-0.0104831
0.00453964
-0.0108992
0.00473544
-0.0112769
0.00492375
-0.0116339
0.00511172
-0.0119782
0.00530446
-0.0123136
0.00550538
-0.0126441
0.00571852
-0.0129697
0.00594437
-0.013303
0.0061907
-0.0136221
-0.0139956
0.00644661
3.84274e-05
0.000232293
0.000289699
-0.000573884
0.000820382
-0.00229067
0.00152713
-0.0044489
0.00222932
-0.00641058
0.0028226
-0.00791057
0.00328348
-0.00897183
0.00363177
-0.00971494
0.00390092
-0.0102623
0.00412154
-0.0107037
0.00431562
-0.0110933
0.00449704
-0.0114583
0.00467417
-0.011811
0.0048524
-0.0121564
0.00503575
-0.012497
0.00522704
-0.0128354
0.00543002
-0.0131726
0.00564466
-0.0135176
0.00587713
-0.0138546
-0.0142407
0.00612216
5.19006e-05
0.000180392
0.000347165
-0.000869149
0.000923599
-0.00286711
0.00162435
-0.00514966
0.00227295
-0.00705917
0.00279492
-0.00843253
0.0031888
-0.00936571
0.00348438
-0.0100105
0.00371619
-0.0104941
0.00391144
-0.010899
0.00408781
-0.0112696
0.00425571
-0.0116262
0.00442135
-0.0119767
0.00458888
-0.0123239
0.00476155
-0.0126697
0.00494196
-0.0130158
0.00513303
-0.0133637
0.00533522
-0.0137198
0.00555424
-0.0140736
-0.0144693
0.00578289
6.76562e-05
0.000112736
0.000407904
-0.0012094
0.00101714
-0.00347634
0.00169428
-0.0058268
0.0022826
-0.00764749
0.00273636
-0.00888629
0.00307115
-0.0097005
0.00332244
-0.0102618
0.00352337
-0.010695
0.0036971
-0.0110727
0.00385742
-0.0114299
0.00401206
-0.0117809
0.00416566
-0.0121303
0.0043215
-0.0124798
0.00448236
-0.0128305
0.0046505
-0.013184
0.0048285
-0.0135417
0.00501695
-0.0139083
0.00522025
-0.0142769
-0.0146825
0.00543342
8.57134e-05
2.70225e-05
0.000469469
-0.00159315
0.00109644
-0.00410331
0.00173672
-0.00646708
0.00226236
-0.00817313
0.00265292
-0.00927686
0.00293635
-0.00998392
0.00315039
-0.0104759
0.00332529
-0.0108699
0.00348007
-0.0112275
0.00362523
-0.0115751
0.00376648
-0.0119221
0.00390737
-0.0122711
0.00405061
-0.012623
0.00419857
-0.0129785
0.00435334
-0.0133387
0.00451706
-0.0137054
0.00469049
-0.0140817
0.00487749
-0.0144639
-0.0148782
0.00507319
0.00010598
-7.89578e-05
0.000529346
-0.00201652
0.00115858
-0.00473255
0.00175314
-0.00706164
0.00221668
-0.00863666
0.00254993
-0.00961011
0.00278903
-0.010223
0.00297152
-0.0106584
0.0031239
-0.0110223
0.00326134
-0.0113649
0.00339171
-0.0117055
0.00351926
-0.0120497
0.00364678
-0.0123987
0.00377657
-0.0127528
0.00391069
-0.0131126
0.00405104
-0.0134791
0.00419944
-0.0138538
0.00435684
-0.0142391
0.0045262
-0.0146333
-0.0150558
0.00470381
0.000128118
-0.000207076
0.000585088
-0.00247349
0.00120229
-0.00534975
0.00174593
-0.00760528
0.0021499
-0.00904064
0.00243189
-0.0098921
0.0026328
-0.0104239
0.00278818
-0.0108137
0.00292049
-0.0111546
0.00304155
-0.011486
0.00315721
-0.0118211
0.00327066
-0.0121631
0.00338418
-0.0125122
0.00349975
-0.0128684
0.0036192
-0.013232
0.00374423
-0.0136041
0.00387642
-0.013986
0.00401674
-0.0143794
0.00416765
-0.0147842
-0.0152142
0.00432602
0.000151504
-0.00035858
0.000634433
-0.00295642
0.00122761
-0.00594293
0.0017179
-0.00809556
0.00206602
-0.00938876
0.00230253
-0.0101286
0.00247041
-0.0105918
0.00260203
-0.0109453
0.00271593
-0.0112685
0.00282114
-0.0115912
0.00292197
-0.011922
0.00302092
-0.0122621
0.00311988
-0.0126111
0.00322057
-0.0129691
0.00332462
-0.0133361
0.00343355
-0.013713
0.00354873
-0.0141012
0.00367116
-0.0145019
0.00380273
-0.0149157
-0.0153526
0.00394114
0.000175317
-0.000533897
0.000675455
-0.00345655
0.00123546
-0.00650293
0.00167197
-0.00853207
0.00196852
-0.00968531
0.00216488
-0.010325
0.00230391
-0.0107309
0.00241425
-0.0110557
0.00251082
-0.0113651
0.00260041
-0.0116808
0.00268624
-0.0120078
0.00277029
-0.0123461
0.00285419
-0.012695
0.00293944
-0.0130543
0.00302748
-0.0134241
0.00311965
-0.0138052
0.00321715
-0.0141987
0.00332095
-0.0146057
0.00343253
-0.0150273
-0.0154702
0.00355015
0.000198685
-0.000732581
0.000706744
-0.00396461
0.00122727
-0.00702346
0.00161099
-0.00891578
0.00186043
-0.00993475
0.0020213
-0.0104858
0.00213483
-0.0108444
0.00222567
-0.0111465
0.00230558
-0.011445
0.00237962
-0.0117549
0.00245023
-0.0120784
0.00251904
-0.0124149
0.00258745
-0.0127634
0.00265677
-0.0131236
0.00272829
-0.0134956
0.00280317
-0.0138801
0.00288244
-0.014278
0.00296703
-0.0146902
0.00305808
-0.0151184
-0.0155665
0.00315438
0.000220789
-0.00095337
0.000727509
-0.00447133
0.00120473
-0.00750068
0.00153759
-0.00924865
0.00174425
-0.0101414
0.00187367
-0.0106153
0.0019643
-0.010935
0.00203687
-0.0112191
0.00210051
-0.0115086
0.00215899
-0.0118133
0.00221417
-0.0121336
0.00226743
-0.0124682
0.00231999
-0.012816
0.002373
-0.0131767
0.00242758
-0.0135502
0.00248473
-0.0139372
0.00254535
-0.0143386
0.00261028
-0.0147552
0.00268041
-0.0151885
-0.0156409
0.00275486
0.000240892
-0.00119426
0.000737572
-0.00496801
0.00116959
-0.0079327
0.00145416
-0.00953321
0.00162209
-0.0103093
0.00172343
-0.0107166
0.00179312
-0.0110047
0.00184828
-0.0112743
0.00189588
-0.0115562
0.00193871
-0.0118562
0.00197828
-0.0121732
0.00201573
-0.0125056
0.00205214
-0.0128524
0.00208853
-0.013213
0.00212583
-0.0135875
0.00216493
-0.0139763
0.00220659
-0.0143803
0.00225156
-0.0148001
0.00230049
-0.0152374
-0.0156933
0.00235282
0.000258331
-0.00145259
0.000737254
-0.00544694
0.00112358
-0.00831902
0.00136277
-0.00977241
0.00149565
-0.0104422
0.00157169
-0.0107926
0.00162192
-0.0110549
0.00166024
-0.0113126
0.0016919
-0.0115879
0.001719
-0.0118833
0.00174277
-0.0121969
0.00176421
-0.0125271
0.00178424
-0.0128724
0.00180375
-0.0132325
0.00182355
-0.0136073
0.00184436
-0.0139971
0.00186684
-0.0144028
0.00189164
-0.0148249
0.00191924
-0.0152651
-0.0157232
0.00194922
0.000272509
-0.0017251
0.000727228
-0.00590166
0.00106835
-0.00866014
0.00126524
-0.0099693
0.00136634
-0.0105433
0.00141929
-0.0108456
0.00145116
-0.0110868
0.00147299
-0.0113344
0.00148875
-0.0116037
0.00150005
-0.0118946
0.00150788
-0.0122048
0.00151313
-0.0125323
0.00151661
-0.0128759
0.00151905
-0.013235
0.00152116
-0.0136094
0.00152353
-0.0139995
0.00152671
-0.0144059
0.00153125
-0.0148295
0.0015375
-0.0152713
-0.0157308
0.00154505
0.000282927
-0.00200803
0.000708439
-0.00632717
0.00100544
-0.00895714
0.0011631
-0.010127
0.00123526
-0.0106155
0.0012669
-0.0108772
0.00128118
-0.0111011
0.00128677
-0.01134
0.00128664
-0.0116035
0.00128205
-0.01189
0.00127383
-0.0121965
0.00126277
-0.0125213
0.00124955
-0.0128627
0.0012348
-0.0132202
0.00121911
-0.0135937
0.00120295
-0.0139834
0.00118678
-0.0143898
0.00117103
-0.0148137
0.00115598
-0.0152563
-0.0157159
0.00114111
0.000289236
-0.00229726
0.000682119
-0.00672005
0.000936292
-0.00921131
0.00105764
-0.0102483
0.00110331
-0.0106611
0.00111502
-0.010889
0.00111227
-0.0110983
0.00110177
-0.0113295
0.00108574
-0.0115875
0.0010652
-0.0118694
0.00104086
-0.0121722
0.00101338
-0.0124938
0.000983376
-0.0128327
0.000951356
-0.0131882
0.000917781
-0.0135602
0.000883073
-0.0139487
0.000847546
-0.0143542
0.000811552
-0.0147777
0.000775185
-0.0152199
-0.0156789
0.000738149
0.000289532
-0.0025868
0.000646393
-0.00707691
0.000858942
-0.00942386
0.000946719
-0.0103361
0.000968134
-0.0106826
0.000961159
-0.010882
0.00094195
-0.0110791
0.000915611
-0.0113031
0.000883845
-0.0115557
0.000847469
-0.011833
0.000807096
-0.0121318
0.0007633
-0.01245
0.0007166
-0.012786
0.000667412
-0.013139
0.000616102
-0.0135088
0.000562978
-0.0138955
0.000508303
-0.0142996
0.000452392
-0.0147218
0.000394691
-0.0151622
-0.0156203
0.000336148
0.000287072
-0.00287387
0.000607742
-0.00739758
0.000780936
-0.00959706
0.000837687
-0.0103928
0.000836476
-0.0106814
0.000811472
-0.010857
0.000775909
-0.0110436
0.000733638
-0.0112609
0.000685978
-0.0115081
0.000633576
-0.0117806
0.000576992
-0.0120752
0.000516686
-0.0123897
0.000453081
-0.0127224
0.000386534
-0.0130725
0.000317368
-0.0134397
0.000245644
-0.0138238
0.000171655
-0.0142256
9.55491e-05
-0.0146457
1.83386e-05
-0.015085
-0.0155386
-6.33759e-05
0.000280528
-0.0031544
0.000564441
-0.00768149
0.000700159
-0.00973278
0.000728088
-0.0104208
0.000705678
-0.0106589
0.000663267
-0.0108146
0.00061155
-0.0109918
0.000553401
-0.0112027
0.000489863
-0.0114445
0.000421444
-0.0117122
0.000348607
-0.0120024
0.000271795
-0.0123129
0.000191237
-0.0126418
0.000107288
-0.0129885
2.00965e-05
-0.0133525
-6.9866e-05
-0.0137338
-0.000162879
-0.0141326
-0.000258572
-0.01455
-0.000357802
-0.0149857
-0.0154362
-0.000460257
0.000270245
-0.00342464
0.00051733
-0.00792858
0.000617466
-0.00983291
0.000618545
-0.0104218
0.000576116
-0.0106165
0.000516783
-0.0107552
0.000449067
-0.0109241
0.000375103
-0.0111288
0.000295661
-0.0113651
0.000211314
-0.0116279
0.000122087
-0.0119132
2.8571e-05
-0.0122194
-6.86011e-05
-0.0125447
-0.000169633
-0.0128875
-0.000274375
-0.0132477
-0.000382927
-0.0136253
-0.000494928
-0.0140206
-0.000610508
-0.0144344
-0.000730427
-0.0148658
-0.0153123
-0.000854318
0.000256646
-0.00368129
0.000467199
-0.00813913
0.000533615
-0.00989933
0.000509574
-0.0103978
0.000448078
-0.010555
0.000372198
-0.0106794
0.000288602
-0.0108405
0.000198886
-0.011039
0.000103429
-0.0112696
2.5087e-06
-0.011527
-0.000102097
-0.0118086
-0.000211633
-0.0121098
-0.000325787
-0.0124305
-0.000444156
-0.0127691
-0.000566709
-0.0131252
-0.000693502
-0.0134985
-0.000824441
-0.0138896
-0.000959744
-0.0142991
-0.00109995
-0.0147256
-0.0151671
-0.00124511
0.000240195
-0.00392148
0.000414769
-0.00831371
0.000449253
-0.00993381
0.000401595
-0.0103501
0.000321814
-0.0104752
0.000229663
-0.0105872
0.000130235
-0.0107411
2.4451e-05
-0.0109333
-8.62193e-05
-0.011159
-0.000202102
-0.0114111
-0.000323514
-0.0116872
-0.00044959
-0.0119837
-0.000580492
-0.0122996
-0.000716055
-0.0126336
-0.000856273
-0.012985
-0.00100121
-0.0133536
-0.00115094
-0.0137399
-0.00130575
-0.0141443
-0.00146609
-0.0145653
-0.015001
-0.00163218
0.000221371
-0.00414285
0.000360694
-0.00845303
0.000364906
-0.00993802
0.000294952
-0.0102802
0.000197511
-0.0103778
8.91878e-05
-0.0104789
-2.60973e-05
-0.0106258
-0.000146502
-0.0108128
-0.00027303
-0.0110324
-0.000404938
-0.0112792
-0.000542319
-0.0115498
-0.00068479
-0.0118413
-0.000832341
-0.0121521
-0.000984969
-0.0124809
-0.00114271
-0.0128272
-0.00130567
-0.0131906
-0.00147404
-0.0135715
-0.00164814
-0.0139702
-0.00182839
-0.014385
-0.0148143
-0.00201509
0.000200633
-0.00434349
0.00030556
-0.00855796
0.000281032
-0.00991349
0.000189932
-0.0101891
7.51216e-05
-0.010263
-4.88139e-05
-0.0103549
-0.000178784
-0.0104958
-0.000315119
-0.0106765
-0.000457239
-0.0108903
-0.000604953
-0.0111315
-0.000758214
-0.0113965
-0.000916908
-0.0116826
-0.00108101
-0.011988
-0.00125057
-0.0123114
-0.00142569
-0.0126521
-0.00160652
-0.0130098
-0.00179332
-0.0133847
-0.00198649
-0.0137771
-0.0021864
-0.0141851
-0.0146074
-0.00239334
0.000178412
-0.0045219
0.000249892
-0.00862944
0.000198013
-0.00986162
8.67334e-05
-0.0100778
-4.48066e-05
-0.0101314
-0.000183676
-0.0102161
-0.000329255
-0.0103503
-0.000480992
-0.0105248
-0.000638554
-0.0107328
-0.000801876
-0.0109681
-0.00097092
-0.0112275
-0.00114569
-0.0115078
-0.00132619
-0.0118075
-0.00151253
-0.012125
-0.00170485
-0.0124598
-0.00190335
-0.0128113
-0.00210837
-0.0131797
-0.00232034
-0.0135651
-0.0025396
-0.0139659
-0.0143806
-0.00276641
0.000155109
-0.00467701
0.000194147
-0.00866848
0.000116162
-0.00978363
-1.48379e-05
-0.00994682
-0.00016138
-0.0099849
-0.000316092
-0.0100614
-0.000476954
-0.0101894
-0.000643894
-0.0103578
-0.000816738
-0.0105599
-0.000995495
-0.0107894
-0.00118017
-0.0110428
-0.00137084
-0.0113171
-0.00156757
-0.0116107
-0.00177051
-0.0119221
-0.00197983
-0.0122505
-0.00219578
-0.0125953
-0.00241876
-0.0129567
-0.00264925
-0.0133346
-0.00288751
-0.0137276
-0.0141343
-0.00313377
0.000131101
-0.00480811
0.000138743
-0.00867612
3.5451e-05
-0.00968034
-0.00011276
-0.00979861
-0.00027573
-0.00982193
-0.000445739
-0.00989136
-0.000621678
-0.0100135
-0.000803638
-0.0101759
-0.000991581
-0.010372
-0.00118558
-0.0105954
-0.00138571
-0.0108427
-0.00159209
-0.0111108
-0.00180485
-0.011398
-0.00202417
-0.0117028
-0.00225026
-0.0120244
-0.00248341
-0.0123622
-0.00272406
-0.0127161
-0.00297274
-0.0130859
-0.00322963
-0.0134707
-0.0138691
-0.00349487
0.000106728
-0.00491484
8.41677e-05
-0.00865356
-4.29266e-05
-0.00955324
-0.000208909
-0.00963262
-0.000387433
-0.00964341
-0.000572462
-0.00970633
-0.000763262
-0.00982267
-0.000960042
-0.0099791
-0.00116288
-0.0101691
-0.00137192
-0.0103863
-0.00158729
-0.0106273
-0.00180916
-0.0108889
-0.00203772
-0.0111694
-0.00227318
-0.0114673
-0.00251578
-0.0117818
-0.00276584
-0.0121121
-0.00302384
-0.0124581
-0.00329034
-0.0128194
-0.00356547
-0.0131956
-0.0135853
-0.0038492
8.22562e-05
-0.00499709
3.12645e-05
-0.00860257
-0.000118726
-0.00940325
-0.000302583
-0.00944877
-0.000496345
-0.00944965
-0.000696126
-0.00950655
-0.000901554
-0.00961724
-0.00111293
-0.00976772
-0.00133043
-0.00995164
-0.00155427
-0.0101625
-0.00178464
-0.0103969
-0.00202177
-0.0106518
-0.00226587
-0.0109253
-0.0025172
-0.011216
-0.00277603
-0.011523
-0.00304268
-0.0118455
-0.00331767
-0.0121831
-0.00360161
-0.0125355
-0.00389455
-0.0129026
-0.0132836
-0.00419625
5.78864e-05
-0.00505498
-2.16405e-05
-0.00852304
-0.000192864
-0.00923203
-0.000393637
-0.00924799
-0.000602345
-0.00924094
-0.000816607
-0.00929228
-0.0010364
-0.00939744
-0.00126212
-0.00954201
-0.00149403
-0.00971973
-0.00173241
-0.0099241
-0.00197752
-0.0101518
-0.00222963
-0.0103997
-0.00248899
-0.0106659
-0.0027559
-0.0109491
-0.00303064
-0.0112482
-0.00331355
-0.0115626
-0.00360517
-0.0118915
-0.00390614
-0.0122345
-0.00421642
-0.0125923
-0.0129645
-0.00453554
3.3982e-05
-0.00508896
-7.5485e-05
-0.00841357
-0.000265152
-0.00904236
-0.000481947
-0.0090312
-0.000705309
-0.00901758
-0.000933779
-0.00906381
-0.00116767
-0.00916355
-0.00140745
-0.00930222
-0.00165348
-0.0094737
-0.00190613
-0.00967146
-0.00216569
-0.00989224
-0.00243247
-0.0101329
-0.00270679
-0.0103916
-0.00298895
-0.0106669
-0.00327926
-0.0109579
-0.00357808
-0.0112637
-0.00388597
-0.0115836
-0.00420358
-0.0119169
-0.0045307
-0.0122652
-0.0126286
-0.00486662
1.14324e-05
-0.00510039
-0.000126387
-0.00827575
-0.000335307
-0.00883344
-0.000567457
-0.00879905
-0.000805131
-0.0087799
-0.00104752
-0.00882142
-0.0012952
-0.00891588
-0.00154874
-0.00904868
-0.0018086
-0.00921384
-0.0020752
-0.00940486
-0.00234889
-0.00961855
-0.00263003
-0.00985173
-0.00291896
-0.0101027
-0.00321603
-0.0103699
-0.00352155
-0.0106524
-0.00383591
-0.0109494
-0.00415969
-0.0112598
-0.00449353
-0.0115831
-0.00483709
-0.0119217
-0.0122766
-0.0051891
-1.28366e-05
-0.00508756
-0.000175352
-0.00811324
-0.000403125
-0.00860567
-0.000650109
-0.00855206
-0.00090172
-0.00852829
-0.00115771
-0.00856543
-0.00141885
-0.00865474
-0.00168584
-0.00878169
-0.00195919
-0.00894049
-0.0022394
-0.00912465
-0.00252689
-0.00933107
-0.00282204
-0.00955658
-0.00312524
-0.0097995
-0.00343685
-0.0100582
-0.0037572
-0.010332
-0.00408671
-0.0106199
-0.00442594
-0.0109206
-0.00477554
-0.0112335
-0.00513517
-0.011562
-0.011909
-0.00550277
-3.85165e-05
-0.00504904
-0.000222687
-0.00792907
-0.000468437
-0.00835992
-0.00072982
-0.00829068
-0.000994991
-0.00826312
-0.00126424
-0.00829619
-0.0015385
-0.00838047
-0.00181857
-0.00850162
-0.00210507
-0.00865399
-0.00239854
-0.00883118
-0.00269945
-0.00903015
-0.00300825
-0.00924778
-0.00332534
-0.00948241
-0.0036511
-0.00973248
-0.00398592
-0.0099972
-0.00433022
-0.0102756
-0.0046845
-0.0105663
-0.00504929
-0.0108687
-0.00542452
-0.0111868
-0.0115257
-0.00580783
-6.23158e-05
-0.00498672
-0.000268305
-0.00772308
-0.000531172
-0.00809705
-0.000806516
-0.00801534
-0.00108486
-0.00798478
-0.00136699
-0.00801405
-0.001654
-0.00809347
-0.00194679
-0.00820884
-0.00224605
-0.00835473
-0.0025524
-0.00852483
-0.00286636
-0.0087162
-0.00318841
-0.00892573
-0.00351899
-0.00915183
-0.00385852
-0.00939295
-0.00420743
-0.00964829
-0.00456623
-0.00991678
-0.00493533
-0.0101972
-0.0053151
-0.0104889
-0.00570528
-0.0107966
-0.0111285
-0.0061024
-8.4907e-05
-0.00490182
-0.000312129
-0.00749585
-0.000591299
-0.00781788
-0.000880135
-0.0077265
-0.00117125
-0.00769366
-0.00146587
-0.00771943
-0.00176523
-0.0077941
-0.00207034
-0.00790373
-0.00238196
-0.00804311
-0.00270079
-0.008206
-0.00302739
-0.0083896
-0.00336228
-0.00859083
-0.00370593
-0.00880817
-0.00405881
-0.00904008
-0.00442142
-0.00928568
-0.00479438
-0.00954381
-0.00517812
-0.00981345
-0.00557283
-0.0100942
-0.00597919
-0.0103903
-0.0107269
-0.00638087
-0.000109801
-0.00479202
-0.00035794
-0.00724772
-0.000652412
-0.00752341
-0.000953976
-0.00742494
-0.00125722
-0.00739041
-0.00156373
-0.00741293
-0.00187486
-0.00748297
-0.00219172
-0.00758688
-0.00251515
-0.00771968
-0.00284589
-0.00787526
-0.00318457
-0.00805092
-0.00353174
-0.00824366
-0.00388791
-0.00845201
-0.00425357
-0.00867442
-0.0046293
-0.00890995
-0.00501575
-0.00915736
-0.0054133
-0.0094159
-0.00582072
-0.00968677
-0.00623558
-0.00997541
-0.0102794
-0.00668306
-0.000130233
-0.00466178
-0.000397795
-0.00698015
-0.000706942
-0.00721426
-0.001021
-0.00711088
-0.00133617
-0.00707524
-0.00165433
-0.00709478
-0.00197698
-0.00716032
-0.00230531
-0.00725855
-0.00264026
-0.00738473
-0.00298262
-0.00753289
-0.00333307
-0.00770047
-0.00369221
-0.00788452
-0.00406058
-0.00808364
-0.00443873
-0.00829627
-0.00482726
-0.00852143
-0.00522662
-0.00875799
-0.00563671
-0.00900581
-0.00605711
-0.00926637
-0.00649179
-0.00954074
-0.00982114
-0.00695003
-0.000149727
-0.00451206
-0.000435704
-0.00669418
-0.000758777
-0.00689119
-0.00108481
-0.00678484
-0.00141143
-0.00674862
-0.00174076
-0.00676544
-0.00207447
-0.00682661
-0.00241381
-0.00691921
-0.00275982
-0.00703872
-0.00311334
-0.00717937
-0.0034751
-0.00733871
-0.00384574
-0.00751389
-0.00422584
-0.00770354
-0.00461601
-0.0079061
-0.00501684
-0.00812059
-0.00542876
-0.00834607
-0.00585183
-0.00858273
-0.00628681
-0.00883139
-0.00673704
-0.00909051
-0.00935429
-0.00720389
-0.000168244
-0.00434381
-0.000471617