/*--------------------------------*- C++ -*----------------------------------*\
  =========                 |
  \\      /  F ield         | OpenFOAM: The Open Source CFD Toolbox
   \\    /   O peration     | Website:  https://openfoam.org
    \\  /    A nd           | Version:  7
     \\/     M anipulation  |
\*---------------------------------------------------------------------------*/
FoamFile
{
    version     2.0;
    format      ascii;
    class       volScalarField;
    location    "25";
    object      p;
}
// * * * * * * * * * * * * * * * * * * * * * * * * * * * * * * * * * * * * * //

dimensions      [0 2 -2 0 0 0 0];

internalField   nonuniform List<scalar> 
656
(
-0.0534297
-0.05052
-0.0476134
-0.0447287
-0.0418823
-0.0390885
-0.0363591
-0.0337041
-0.0311311
-0.0286461
-0.0262531
-0.0239549
-0.0217526
-0.0196471
-0.0176358
-0.0157217
-0.0138935
-0.0121687
-0.0105045
-0.00898082
-0.00743378
-0.00617671
-0.00461064
-0.0038574
-0.00185422
-0.00229938
-0.053407
-0.0504895
-0.0475771
-0.0446884
-0.0418395
-0.0390446
-0.0363152
-0.0336609
-0.0310893
-0.0286062
-0.0262155
-0.0239199
-0.0217201
-0.0196174
-0.0176087
-0.0156972
-0.0138711
-0.0121492
-0.0104858
-0.00896615
-0.00741643
-0.00616854
-0.00458911
-0.00386232
-0.00181047
-0.00232795
-0.0533647
-0.0504327
-0.0475097
-0.0446136
-0.0417604
-0.0389633
-0.0362338
-0.033581
-0.0310122
-0.0285327
-0.0261462
-0.0238552
-0.0216604
-0.0195625
-0.0175587
-0.015652
-0.0138302
-0.0121125
-0.0104525
-0.00893685
-0.00738857
-0.00614589
-0.00456297
-0.00384798
-0.00177628
-0.00234232
-0.0533043
-0.0503526
-0.0474151
-0.0445092
-0.04165
-0.0388503
-0.0361208
-0.0334702
-0.0309052
-0.0284308
-0.0260503
-0.0237658
-0.0215778
-0.0194868
-0.0174897
-0.0155894
-0.0137739
-0.0120617
-0.010407
-0.00889564
-0.00735149
-0.00611209
-0.00453137
-0.00382085
-0.00174446
-0.00234239
-0.0532269
-0.0502514
-0.0472966
-0.044379
-0.0415129
-0.0387102
-0.035981
-0.0333333
-0.0307733
-0.0283053
-0.0259322
-0.0236559
-0.0214763
-0.0193937
-0.0174051
-0.0155126
-0.0137048
-0.0119992
-0.0103514
-0.00884474
-0.00730668
-0.00606944
-0.00449469
-0.00378413
-0.00171207
-0.00232868
-0.0531336
-0.0501314
-0.0471573
-0.0442267
-0.0413531
-0.0385475
-0.035819
-0.033175
-0.0306209
-0.0281605
-0.0257962
-0.0235293
-0.0213596
-0.0192867
-0.0173079
-0.0154244
-0.0136256
-0.0119274
-0.0102877
-0.00878594
-0.00725593
-0.00601931
-0.00445457
-0.00373833
-0.00168101
-0.0022995
-0.0530253
-0.0499944
-0.0469998
-0.0440557
-0.0411744
-0.0383661
-0.0356389
-0.0329994
-0.0304521
-0.0280004
-0.025646
-0.0233896
-0.0212309
-0.0191689
-0.0172009
-0.0153273
-0.0135386
-0.0118483
-0.010218
-0.00872089
-0.00720083
-0.00596289
-0.00441254
-0.00368392
-0.00165323
-0.00225334
-0.0529031
-0.0498426
-0.0468269
-0.0438692
-0.0409804
-0.0381698
-0.0354446
-0.0328102
-0.0302707
-0.0278285
-0.025485
-0.02324
-0.0210932
-0.0190429
-0.0170866
-0.0152235
-0.0134458
-0.0117638
-0.0101439
-0.00865105
-0.00714277
-0.00590134
-0.00436981
-0.00362163
-0.00162995
-0.00218952
-0.0527682
-0.0496778
-0.0466411
-0.04367
-0.0407743
-0.037962
-0.0352394
-0.032611
-0.03008
-0.0276481
-0.0253161
-0.0230834
-0.0209492
-0.0189111
-0.0169672
-0.0151151
-0.013349
-0.0116754
-0.0100669
-0.00857773
-0.00708293
-0.00583573
-0.00432732
-0.0035523
-0.00161194
-0.00210808
-0.0526219
-0.049502
-0.0464449
-0.043461
-0.040559
-0.0377457
-0.0350264
-0.0324047
-0.0298829
-0.027462
-0.0251422
-0.0229222
-0.0208011
-0.0187757
-0.0168447
-0.0150038
-0.0132498
-0.0115846
-0.00998812
-0.00850211
-0.00702233
-0.00576705
-0.00428586
-0.00347683
-0.00159969
-0.00200967
-0.0524658
-0.0493173
-0.0462405
-0.0432447
-0.0403372
-0.0375238
-0.0348085
-0.0321941
-0.0296821
-0.0272726
-0.0249654
-0.0227586
-0.020651
-0.0186385
-0.0167206
-0.0148912
-0.0131496
-0.0114927
-0.00990878
-0.00842519
-0.00696181
-0.00569619
-0.00424599
-0.00339616
-0.00159339
-0.00189543
-0.0523014
-0.0491255
-0.0460302
-0.0430236
-0.0401116
-0.0372987
-0.0345882
-0.0319816
-0.0294798
-0.0270821
-0.0247879
-0.0225944
-0.0205006
-0.0185011
-0.0165965
-0.0147784
-0.0130495
-0.0114006
-0.00982975
-0.00834783
-0.00690204
-0.00562397
-0.00420814
-0.00331125
-0.001593
-0.00176689
-0.0521304
-0.0489285
-0.0458162
-0.0427998
-0.0398842
-0.0370727
-0.0343675
-0.0317692
-0.029278
-0.0268925
-0.0246114
-0.0224313
-0.0203512
-0.0183648
-0.0164735
-0.0146667
-0.0129504
-0.0113093
-0.00975175
-0.00827079
-0.00684356
-0.0055511
-0.00417259
-0.00322303
-0.00159826
-0.00162584
-0.0519542
-0.0487282
-0.0456002
-0.0425753
-0.039657
-0.0368476
-0.0341483
-0.0315588
-0.0290784
-0.0267051
-0.0244372
-0.0222705
-0.0202042
-0.0182307
-0.0163526
-0.0145567
-0.0128531
-0.0112194
-0.0096754
-0.00819467
-0.0067868
-0.00547822
-0.0041395
-0.00313243
-0.00160875
-0.00147429
-0.0517745
-0.0485263
-0.0453841
-0.0423518
-0.0394318
-0.0366252
-0.0339322
-0.0313517
-0.0288824
-0.0265214
-0.0242666
-0.0221132
-0.0200604
-0.0180996
-0.0162346
-0.0144494
-0.0127583
-0.0111316
-0.00960115
-0.00812001
-0.00673206
-0.00540588
-0.00410892
-0.00304034
-0.00162397
-0.00131429
-0.0515928
-0.0483242
-0.0451694
-0.0421309
-0.03921
-0.0364068
-0.0337206
-0.0311494
-0.0286911
-0.0263423
-0.0241005
-0.0219602
-0.0199207
-0.0179722
-0.01612
-0.0143452
-0.0126664
-0.0110463
-0.00952935
-0.00804721
-0.00667955
-0.00533458
-0.00408082
-0.00294758
-0.00164329
-0.0011479
-0.0514106
-0.0481234
-0.0449574
-0.0419138
-0.0389929
-0.0361937
-0.0335145
-0.0309526
-0.0285054
-0.0261686
-0.0239397
-0.0218121
-0.0197856
-0.0178491
-0.0160093
-0.0142445
-0.0125777
-0.0109638
-0.00946026
-0.0079766
-0.0066294
-0.00526471
-0.00405514
-0.00285489
-0.00166608
-0.000977115
-0.051229
-0.0479251
-0.0447493
-0.0417017
-0.0387815
-0.0359866
-0.0333147
-0.0307622
-0.028326
-0.026001
-0.0237846
-0.0216694
-0.0196555
-0.0177307
-0.0159029
-0.0141477
-0.0124926
-0.0108845
-0.00939404
-0.00790843
-0.00658169
-0.00519661
-0.00403175
-0.00276296
-0.00169168
-0.000803804
-0.0510492
-0.0477304
-0.0445461
-0.0414954
-0.0385764
-0.0357863
-0.0331218
-0.0305787
-0.0281533
-0.02584
-0.0236357
-0.0215325
-0.0195308
-0.0176172
-0.015801
-0.0140549
-0.0124111
-0.0108084
-0.0093308
-0.00784289
-0.00653642
-0.00513056
-0.00401047
-0.00267237
-0.00171946
-0.000629679
-0.0508722
-0.0475401
-0.0443486
-0.0412957
-0.0383785
-0.0355934
-0.0329364
-0.0304026
-0.0279878
-0.0256857
-0.0234931
-0.0214016
-0.0194116
-0.0175087
-0.0157037
-0.0139664
-0.0123333
-0.0107357
-0.00927057
-0.0077801
-0.00649358
-0.00506677
-0.00399116
-0.00258363
-0.00174882
-0.000456271
-0.0506989
-0.0473549
-0.0441573
-0.0411029
-0.038188
-0.0354082
-0.0327587
-0.0302341
-0.0278295
-0.0255384
-0.0233572
-0.0212768
-0.0192981
-0.0174054
-0.015611
-0.013882
-0.0122594
-0.0106665
-0.00921336
-0.00772013
-0.00645311
-0.0050054
-0.00397361
-0.00249718
-0.00177918
-0.000284918
-0.0505298
-0.0471755
-0.0439728
-0.0409176
-0.0380053
-0.0352309
-0.0325889
-0.0300732
-0.0276787
-0.0253981
-0.0232278
-0.0211581
-0.0191901
-0.0173072
-0.015523
-0.0138019
-0.0121892
-0.0106007
-0.00915913
-0.00766302
-0.00641493
-0.00494658
-0.00395766
-0.00241336
-0.00181006
-0.000116769
-0.0503656
-0.0470022
-0.0437952
-0.0407398
-0.0378306
-0.0350616
-0.032427
-0.0299201
-0.0275352
-0.0252648
-0.0231049
-0.0210454
-0.0190877
-0.0172142
-0.0154396
-0.013726
-0.0121227
-0.0105384
-0.00910779
-0.00760876
-0.00637895
-0.00489037
-0.00394311
-0.00233245
-0.001841
4.72319e-05
-0.0502065
-0.0468352
-0.0436249
-0.0405697
-0.0376638
-0.0349003
-0.032273
-0.0297746
-0.027399
-0.0251383
-0.0229884
-0.0209387
-0.0189907
-0.017126
-0.0153606
-0.0136541
-0.0120598
-0.0104793
-0.00905927
-0.00755731
-0.00634506
-0.00483681
-0.00392981
-0.00225464
-0.00187163
0.000206307
-0.050053
-0.0466749
-0.0434619
-0.0404075
-0.0375049
-0.034747
-0.0321268
-0.0296366
-0.02727
-0.0250186
-0.0228782
-0.0208377
-0.018899
-0.0170427
-0.015286
-0.0135862
-0.0120003
-0.0104235
-0.00901345
-0.00750863
-0.00631314
-0.0047859
-0.00391759
-0.00218011
-0.00190159
0.000359835
-0.0499059
-0.0465219
-0.0433068
-0.0402534
-0.0373544
-0.0346019
)
;

boundaryField
{
    inlet
    {
        type            zeroGradient;
    }
    outlet
    {
        type            fixedValue;
        value           uniform 0;
    }
    cylinder
    {
        type            zeroGradient;
    }
    top
    {
        type            symmetryPlane;
    }
    bottom
    {
        type            symmetryPlane;
    }
    defaultFaces
    {
        type            empty;
    }
    procBoundary3to2
    {
        type            processor;
        value           nonuniform List<scalar> 
25
(
-0.0563215
-0.0563089
-0.0562854
-0.0562507
-0.0562045
-0.0561463
-0.0560759
-0.0559931
-0.0558984
-0.0557921
-0.0556752
-0.0555485
-0.0554135
-0.0552714
-0.0551235
-0.0549714
-0.0548163
-0.0546596
-0.0545025
-0.054346
-0.0541912
-0.0540388
-0.0538894
-0.0537437
-0.0536021
)
;
    }
    procBoundary3to6
    {
        type            processor;
        value           uniform -0.0534654;
    }
    procBoundary3to7
    {
        type            processor;
        value           nonuniform List<scalar> 
27
(
-0.0319886
-0.0295062
-0.0271482
-0.0249056
-0.0227742
-0.0207426
-0.0188126
-0.0169643
-0.0152157
-0.0135223
-0.0119443
-0.010371
-0.0089703
-0.00746271
-0.00628314
-0.00473768
-0.00390631
-0.00210898
-0.0019306
0.000507335
-0.0497654
-0.0463763
-0.0431596
-0.0401075
-0.037212
-0.0319886
-0.0344649
)
;
    }
}


// ************************************************************************* //
