-0.3536 	0.3536 	-9.02056e-18 	0.242866
-0.390196 	0.390196 	-1.49133e-17 	0.297196
-0.466318 	0.466318 	-2.43897e-17 	0.233479
-0.548534 	0.548534 	-2.57828e-17 	0.259742
-0.614278 	0.614278 	-5.55112e-18 	0.260943
-0.660386 	0.660386 	-7.63278e-18 	0.22822
