0 	0.551757 	1.38778e-18 	-0.550926
0 	0.659416 	2.77556e-18 	-0.436074
0 	0.775694 	2.77556e-18 	-0.390772
0 	0.90128 	2.77556e-18 	-0.315464
