0 	0.551757 	1.38778e-18 	0.244903 	0.0158756 	6.41456e-21
0 	0.659416 	2.77556e-18 	0.583933 	0.0759413 	-1.08307e-20
0 	0.775694 	2.77556e-18 	0.841109 	0.152914 	4.79609e-20
0 	0.90128 	2.77556e-18 	1.02251 	0.206154 	3.43258e-20
