-0.3536 	0.3536 	-9.02056e-18 	0.240667 	0.219886 	5.57084e-20
-0.390196 	0.390196 	-1.49133e-17 	0.228509 	0.222535 	-1.48308e-19
-0.466318 	0.466318 	-2.43897e-17 	0.486467 	0.416629 	-2.73317e-20
-0.548534 	0.548534 	-2.57828e-17 	0.664862 	0.47728 	-1.65247e-21
-0.614278 	0.614278 	-5.55112e-18 	0.773532 	0.466634 	1.93687e-19
-0.660386 	0.660386 	-7.63278e-18 	0.79939 	0.472798 	3.44547e-20
