0.3536 	0.3536 	0 	-0.552145
0.390196 	0.390196 	0 	-0.541994
0.466318 	0.466318 	8.67362e-18 	-0.459348
0.548534 	0.548534 	2.25514e-17 	-0.431515
0.637332 	0.637332 	3.19189e-17 	-0.384302
