0.3536 	0.3536 	0 	0.0350253 	-0.0206049 	-2.31877e-19
0.390196 	0.390196 	0 	0.0287425 	-0.017733 	1.7792e-19
0.466318 	0.466318 	8.67362e-18 	0.126407 	-0.0544489 	1.65462e-19
0.548534 	0.548534 	2.25514e-17 	0.249454 	-0.0704683 	5.86975e-21
0.637332 	0.637332 	3.19189e-17 	0.379126 	-0.0813585 	-2.80232e-19
