/*--------------------------------*- C++ -*----------------------------------*\
  =========                 |
  \\      /  F ield         | OpenFOAM: The Open Source CFD Toolbox
   \\    /   O peration     | Website:  https://openfoam.org
    \\  /    A nd           | Version:  7
     \\/     M anipulation  |
\*---------------------------------------------------------------------------*/
FoamFile
{
    version     2.0;
    format      ascii;
    class       surfaceScalarField;
    location    "20";
    object      phi;
}
// * * * * * * * * * * * * * * * * * * * * * * * * * * * * * * * * * * * * * //

dimensions      [0 3 -1 0 0 0 0];

internalField   nonuniform List<scalar> 
5144
(
0.00218207
0.000251516
0.0021783
0.000253373
0.00217454
0.000255361
0.0021708
0.000257496
0.00216708
0.00025979
0.00216336
0.000262267
0.00215966
0.000264931
0.00215596
0.000267825
0.00215228
0.000270934
0.0021486
0.00027434
0.00214492
0.000277975
0.00214125
0.000282015
0.00213757
0.000286256
0.00213389
0.000291092
0.0021302
0.000295985
0.0021265
0.000301853
0.00212279
0.000307351
0.00211904
0.000314633
0.0021153
0.000320454
0.00211147
0.00032985
0.00210769
0.000335171
0.00210376
0.000348082
0.00209994
0.000350916
0.00209583
0.000370244
0.00209203
0.000366367
0.00208762
0.000397329
0.000383779
0.00224643
0.000228503
0.00224236
0.00022955
0.0022383
0.000230559
0.00223425
0.000231536
0.00223021
0.000232486
0.00222619
0.000233417
0.00222217
0.000234333
0.00221817
0.000235242
0.00221418
0.000236149
0.0022102
0.00023706
0.00220624
0.00023798
0.00220229
0.000238915
0.00219836
0.00023987
0.00219444
0.000240853
0.00219054
0.000241867
0.00218665
0.00024292
0.00218278
0.000244018
0.00217893
0.000245166
0.0021751
0.000246372
0.00217128
0.000247642
0.00216748
0.000248984
0.0021637
0.000250407
0.00215993
0.000251919
0.00215618
0.000253529
0.00215245
0.000255248
0.00214874
0.000257088
0.00214504
0.00025906
0.00214135
0.000261181
0.00213768
0.00026346
0.00213403
0.000265923
0.00213038
0.000268574
0.00212675
0.000271457
0.00212313
0.000274556
0.00211951
0.000277955
0.00211591
0.000281583
0.0021123
0.000285621
0.0021087
0.000289859
0.00210509
0.000294701
0.00210148
0.000299593
0.00209785
0.00030548
0.00209423
0.000310977
0.00209056
0.000318298
0.00208691
0.000324109
0.00208318
0.00033358
0.00207949
0.00033886
0.00207565
0.000351918
0.00207194
0.000354629
0.00206793
0.000374252
0.00206424
0.000370058
0.00205994
0.000401625
0.000387502
0.00221624
0.000232553
0.0022122
0.000233591
0.00220817
0.000234589
0.00220415
0.000235555
0.00220014
0.000236494
0.00219615
0.000237412
0.00219216
0.000238316
0.00218819
0.000239212
0.00218424
0.000240105
0.0021803
0.000241001
0.00217637
0.000241906
0.00217246
0.000242825
0.00216857
0.000243765
0.00216469
0.000244731
0.00216083
0.000245728
0.00215698
0.000246764
0.00215316
0.000247844
0.00214935
0.000248974
0.00214556
0.000250162
0.00214179
0.000251414
0.00213804
0.000252738
0.0021343
0.000254142
0.00213058
0.000255635
0.00212689
0.000257227
0.00212321
0.000258928
0.00211954
0.00026075
0.0021159
0.000262705
0.00211227
0.000264808
0.00210866
0.000267071
0.00210506
0.000269519
0.00210148
0.000272156
0.00209791
0.000275027
0.00209435
0.000278113
0.00209081
0.000281503
0.00208727
0.000285123
0.00208373
0.000289158
0.0020802
0.00029339
0.00207666
0.000298236
0.00207313
0.000303126
0.00206958
0.000309028
0.00206604
0.000314522
0.00206246
0.000321879
0.00205889
0.000327678
0.00205525
0.000337221
0.00205165
0.000342458
0.00204791
0.000355657
0.0020443
0.000358245
0.00204039
0.000378153
0.00203681
0.000373644
0.00203262
0.00040581
0.000391115
0.0021864
0.000236575
0.00218239
0.000237602
0.00217839
0.00023859
0.0021744
0.000239544
0.00217043
0.00024047
0.00216646
0.000241375
0.00216251
0.000242266
0.00215858
0.000243147
0.00215466
0.000244025
0.00215075
0.000244905
0.00214686
0.000245794
0.00214299
0.000246697
0.00213914
0.00024762
0.0021353
0.000248568
0.00213148
0.000249548
0.00212768
0.000250565
0.0021239
0.000251626
0.00212013
0.000252738
0.00211639
0.000253906
0.00211266
0.000255139
0.00210896
0.000256443
0.00210527
0.000257828
0.00210161
0.000259301
0.00209796
0.000260874
0.00209433
0.000262555
0.00209072
0.000264359
0.00208713
0.000266294
0.00208356
0.00026838
0.00208001
0.000270625
0.00207647
0.000273057
0.00207295
0.000275678
0.00206944
0.000278534
0.00206595
0.000281607
0.00206247
0.000284986
0.00205899
0.000288596
0.00205553
0.000292624
0.00205207
0.000296849
0.00204861
0.000301697
0.00204515
0.000306582
0.00204168
0.000312498
0.00203822
0.000317987
0.00203472
0.000325377
0.00203124
0.000331161
0.00202768
0.000340771
0.00202418
0.000345965
0.00202054
0.000359299
0.00201702
0.000361764
0.00201322
0.000381949
0.00200974
0.000377126
0.00200566
0.000409884
0.000394621
0.00215691
0.000240567
0.00215293
0.000241584
0.00214896
0.000242559
0.002145
0.0002435
0.00214106
0.000244414
0.00213713
0.000245305
0.00213322
0.000246181
0.00212932
0.000247047
0.00212543
0.000247909
0.00212157
0.000248773
0.00211772
0.000249645
0.00211388
0.00025053
0.00211007
0.000251435
0.00210627
0.000252364
0.00210249
0.000253325
0.00209874
0.000254323
0.002095
0.000255365
0.00209128
0.000256456
0.00208758
0.000257604
0.0020839
0.000258816
0.00208025
0.0002601
0.00207661
0.000261464
0.00207299
0.000262917
0.0020694
0.000264469
0.00206582
0.00026613
0.00206227
0.000267913
0.00205874
0.000269828
0.00205522
0.000271894
0.00205173
0.000274121
0.00204825
0.000276534
0.00204479
0.000279138
0.00204134
0.000281978
0.00203791
0.000285037
0.0020345
0.000288404
0.00203109
0.000292001
0.00202769
0.000296022
0.00202431
0.000300237
0.00202092
0.000305085
0.00201754
0.000309963
0.00201414
0.00031589
0.00201076
0.000321372
0.00200734
0.000328791
0.00200395
0.00033456
0.00200048
0.000344233
0.00199707
0.000349382
0.00199352
0.000362845
0.0019901
0.000365188
0.0019864
0.000385642
0.00198302
0.000380505
0.00197906
0.00041385
0.000398021
0.00212777
0.00024453
0.00212382
0.000245534
0.00211988
0.000246497
0.00211596
0.000247425
0.00211205
0.000248324
0.00210815
0.0002492
0.00210427
0.00025006
0.00210041
0.00025091
0.00209656
0.000251755
0.00209273
0.000252602
0.00208892
0.000253456
0.00208513
0.000254323
0.00208135
0.000255209
0.0020776
0.000256119
0.00207387
0.00025706
0.00207015
0.000258038
0.00206646
0.000259059
0.00206278
0.000260129
0.00205913
0.000261256
0.0020555
0.000262446
0.00205189
0.000263709
0.00204831
0.000265051
0.00204474
0.000266482
0.0020412
0.000268012
0.00203768
0.000269651
0.00203418
0.000271412
0.0020307
0.000273306
0.00202724
0.000275352
0.00202381
0.000277558
0.00202039
0.000279952
0.00201699
0.000282537
0.00201361
0.000285361
0.00201024
0.000288402
0.00200689
0.000291755
0.00200355
0.000295338
0.00200022
0.00029935
0.00199691
0.000303554
0.00199359
0.0003084
0.00199028
0.00031327
0.00198697
0.000319205
0.00198366
0.000324678
0.00198033
0.000332124
0.00197702
0.000337875
0.00197364
0.000347608
0.00197031
0.000352711
0.00196686
0.000366296
0.00196353
0.000368518
0.00195994
0.000389233
0.00195666
0.000383783
0.0019528
0.000417709
0.000401317
0.00209897
0.000248462
0.00209505
0.000249453
0.00209115
0.000250402
0.00208726
0.000251315
0.00208338
0.000252199
0.00207952
0.00025306
0.00207568
0.000253903
0.00207185
0.000254736
0.00206804
0.000255564
0.00206425
0.000256392
0.00206048
0.000257227
0.00205673
0.000258075
0.002053
0.000258941
0.00204928
0.000259831
0.00204559
0.000260751
0.00204192
0.000261708
0.00203827
0.000262707
0.00203465
0.000263756
0.00203104
0.00026486
0.00202746
0.000266028
0.0020239
0.000267268
0.00202037
0.000268587
0.00201685
0.000269995
0.00201336
0.000271502
0.0020099
0.000273118
0.00200645
0.000274857
0.00200303
0.000276729
0.00199963
0.000278752
0.00199625
0.000280937
0.00199289
0.000283311
0.00198955
0.000285876
0.00198623
0.00028868
0.00198293
0.000291704
0.00197964
0.000295041
0.00197637
0.000298609
0.00197311
0.00030261
0.00196987
0.000306801
0.00196662
0.000311643
0.00196339
0.000316502
0.00196015
0.000322444
0.00195693
0.000327905
0.00195368
0.000335375
0.00195044
0.000341107
0.00194716
0.000350895
0.00194391
0.000355953
0.00194056
0.000369655
0.00193732
0.000371756
0.00193383
0.000392722
0.00193065
0.000386961
0.0019269
0.000421463
0.000404512
0.00207051
0.000252362
0.00206663
0.000253339
0.00206275
0.000254273
0.0020589
0.000255171
0.00205506
0.000256039
0.00205124
0.000256883
0.00204743
0.000257709
0.00204364
0.000258524
0.00203987
0.000259333
0.00203612
0.000260143
0.00203239
0.000260958
0.00202868
0.000261786
0.00202499
0.000262631
0.00202132
0.0002635
0.00201767
0.000264399
0.00201405
0.000265333
0.00201045
0.00026631
0.00200687
0.000267335
0.00200331
0.000268417
0.00199978
0.000269561
0.00199627
0.000270777
0.00199278
0.000272072
0.00198932
0.000273456
0.00198588
0.00027494
0.00198247
0.000276532
0.00197908
0.000278247
0.00197571
0.000280095
0.00197237
0.000282096
0.00196905
0.000284258
0.00196575
0.000286609
0.00196247
0.000289153
0.00195922
0.000291938
0.00195598
0.000294942
0.00195276
0.000298262
0.00194955
0.000301813
0.00194636
0.000305801
0.00194319
0.000309978
0.00194002
0.000314813
0.00193686
0.00031966
0.00193369
0.000325606
0.00193054
0.000331055
0.00192737
0.000338546
0.00192422
0.000344258
0.00192102
0.000354097
0.00191787
0.000359107
0.0019146
0.00037292
0.00191145
0.000374903
0.00190806
0.000396111
0.00190499
0.000390041
0.00190134
0.000425113
0.000407607
0.00204239
0.000256229
0.00203854
0.000257191
0.00203471
0.00025811
0.00203089
0.000258991
0.00202708
0.000259842
0.0020233
0.000260669
0.00201953
0.000261477
0.00201578
0.000262273
0.00201205
0.000263063
0.00200834
0.000263853
0.00200465
0.000264648
0.00200098
0.000265454
0.00199733
0.000266278
0.00199371
0.000267125
0.00199011
0.000268001
0.00198653
0.000268912
0.00198297
0.000269866
0.00197944
0.000270868
0.00197593
0.000271925
0.00197245
0.000273045
0.00196899
0.000274236
0.00196555
0.000275507
0.00196214
0.000276866
0.00195876
0.000278324
0.0019554
0.000279891
0.00195207
0.000281582
0.00194875
0.000283405
0.00194547
0.000285382
0.00194221
0.00028752
0.00193897
0.000289848
0.00193575
0.000292369
0.00193256
0.000295133
0.00192938
0.000298116
0.00192623
0.000301418
0.00192309
0.00030495
0.00191997
0.000308924
0.00191686
0.000313086
0.00191376
0.000317912
0.00191067
0.000322746
0.00190759
0.000328692
0.00190451
0.000334129
0.00190142
0.000341635
0.00189835
0.00034733
0.00189524
0.000357209
0.00189216
0.000362183
0.001889
0.000376087
0.00188593
0.000377973
0.00188265
0.000399383
0.00187965
0.00039305
0.00187614
0.000428624
0.00041063
0.00608489
0.000252641
0.00608867
0.000253414
0.00609264
0.000254142
0.0060968
0.000254831
0.00610115
0.000255488
0.0061057
0.000256118
0.00611045
0.000256728
0.0061154
0.000257323
0.00612055
0.000257909
0.00612591
0.000258493
0.00613148
0.000259078
0.00613727
0.000259672
0.00614326
0.000260279
0.00614948
0.000260907
0.00615592
0.00026156
0.00616259
0.000262245
0.00616949
0.000262968
0.00617662
0.000263736
0.00618399
0.000264556
0.0061916
0.000265435
0.00619945
0.000266382
0.00620755
0.000267404
0.00621591
0.000268511
0.00622452
0.000269714
0.00623339
0.000271023
0.00624252
0.000272451
0.00625191
0.000274011
0.00626157
0.000275719
0.0062715
0.000277588
0.00628171
0.000279644
0.00629219
0.000281892
0.00630294
0.000284378
0.00631397
0.000287087
0.00632528
0.000290107
0.00633687
0.000293368
0.00634874
0.000297053
0.00636087
0.000300953
0.0063733
0.000305479
0.00638597
0.000310074
0.00639897
0.000315693
0.00641216
0.000320941
0.00642574
0.000328059
0.0064394
0.000333668
0.00645358
0.000343026
0.00646764
0.000348124
0.00648251
0.000361219
0.00649683
0.000363651
0.00651254
0.000383671
0.00652693
0.000378661
0.00654373
0.000411825
0.000395507
0.00610902
0.00025021
0.00611164
0.000250794
0.00611445
0.000251333
0.00611745
0.000251832
0.00612064
0.000252297
0.00612403
0.000252733
0.00612761
0.000253147
0.00613139
0.000253544
0.00613537
0.00025393
0.00613955
0.000254309
0.00614394
0.000254688
0.00614854
0.000255072
0.00615335
0.000255468
0.00615838
0.000255879
0.00616363
0.000256313
0.00616909
0.000256776
0.00617479
0.000257273
0.00618072
0.000257811
0.00618687
0.000258398
0.00619327
0.000259041
0.0061999
0.000259747
0.00620678
0.000260526
0.0062139
0.000261387
0.00622128
0.000262339
0.00622891
0.000263395
0.00623679
0.000264567
0.00624494
0.000265868
0.00625334
0.000267314
0.00626201
0.000268919
0.00627095
0.000270707
0.00628015
0.000272687
0.00628963
0.000274901
0.00629938
0.000277341
0.0063094
0.000280083
0.00631969
0.000283078
0.00633027
0.000286477
0.0063411
0.000290121
0.00635223
0.000294347
0.00636359
0.00029871
0.00637529
0.000303997
0.00638717
0.000309066
0.00639944
0.000315782
0.00641178
0.000321326
0.00642469
0.000330123
0.00643741
0.000335401
0.00645104
0.000347588
0.00646399
0.000350703
0.00647856
0.0003691
0.0064915
0.000365724
0.00650735
0.000395971
0.000381818
0.00612774
0.000248871
0.00612926
0.000249269
0.00613098
0.00024962
0.00613288
0.00024993
0.00613497
0.000250204
0.00613726
0.000250448
0.00613974
0.000250667
0.00614241
0.000250867
0.00614529
0.000251054
0.00614837
0.000251232
0.00615165
0.000251406
0.00615514
0.000251583
0.00615884
0.000251768
0.00616275
0.000251967
0.00616688
0.000252185
0.00617123
0.000252427
0.0061758
0.000252702
0.0061806
0.000253014
0.00618562
0.000253372
0.00619088
0.000253782
0.00619638
0.000254252
0.00620211
0.000254791
0.00620809
0.000255409
0.00621431
0.000256117
0.00622078
0.000256923
0.00622751
0.000257844
0.00623448
0.00025889
0.00624172
0.000260078
0.00624921
0.000261424
0.00625697
0.000262949
0.00626499
0.000264667
0.00627328
0.000266612
0.00628183
0.000268788
0.00629066
0.000271256
0.00629975
0.000273987
0.00630912
0.000277107
0.00631875
0.000280494
0.00632867
0.000284427
0.00633883
0.000288552
0.0063493
0.000293519
0.00635997
0.000298395
0.00637103
0.000304727
0.00638218
0.000310178
0.00639385
0.00031845
0.00640541
0.000323845
0.00641779
0.000335205
0.00642962
0.000338869
0.00644291
0.000355813
0.00645484
0.000353791
0.00646929
0.000381526
0.000369102
0.00614034
0.000248278
0.00614067
0.000248544
0.00614118
0.000248756
0.00614188
0.000248919
0.00614277
0.000249041
0.00614385
0.000249125
0.00614512
0.000249177
0.00614658
0.000249203
0.00614824
0.000249208
0.0061501
0.000249196
0.00615216
0.000249174
0.00615442
0.000249146
0.00615688
0.000249118
0.00615956
0.000249094
0.00616244
0.000249082
0.00616554
0.000249086
0.00616886
0.000249112
0.00617239
0.000249166
0.00617615
0.000249255
0.00618014
0.000249386
0.00618435
0.000249567
0.0061888
0.000249805
0.00619348
0.000250109
0.0061984
0.000250488
0.00620357
0.000250953
0.00620897
0.000251516
0.00621463
0.000252188
0.00622054
0.000252984
0.00622669
0.00025392
0.00623311
0.00025501
0.00623978
0.000256277
0.00624671
0.000257735
0.00625391
0.000259418
0.00626136
0.000261331
0.00626909
0.000263532
0.00627707
0.000266001
0.00628533
0.000268846
0.00629385
0.000271976
0.00630266
0.000275622
0.0063117
0.000279506
0.00632106
0.000284161
0.00633063
0.000288832
0.00634055
0.000294798
0.00635061
0.000300125
0.00636115
0.00030791
0.00637163
0.000313359
0.00638287
0.000323967
0.00639368
0.000328056
0.00640579
0.000343708
0.0064168
0.000342782
0.00642997
0.000368357
0.000357277
0.00614823
0.00024906
0.00614763
0.000249139
0.00614722
0.000249164
0.006147
0.000249141
0.00614697
0.000249074
0.00614712
0.000248968
0.00614747
0.000248829
0.00614801
0.000248662
0.00614875
0.000248472
0.00614968
0.000248264
0.00615081
0.000248042
0.00615215
0.000247813
0.00615368
0.00024758
0.00615543
0.000247351
0.00615738
0.000247129
0.00615954
0.000246921
0.00616192
0.000246732
0.00616452
0.000246569
0.00616734
0.000246438
0.00617038
0.000246346
0.00617365
0.0002463
0.00617714
0.000246308
0.00618087
0.00024638
0.00618483
0.000246524
0.00618904
0.000246752
0.00619348
0.000247073
0.00619816
0.000247502
0.0062031
0.000248052
0.00620828
0.000248739
0.00621371
0.000249578
0.00621939
0.000250591
0.00622533
0.000251795
0.00623153
0.000253218
0.00623799
0.000254874
0.00624471
0.00025681
0.00625169
0.00025902
0.00625895
0.000261594
0.00626646
0.000264467
0.00627425
0.000267832
0.00628228
0.00027147
0.00629062
0.000275823
0.00629917
0.000280277
0.00630808
0.000285892
0.00631714
0.00029107
0.00632665
0.000298399
0.00633616
0.000303848
0.00634635
0.000313772
0.00635624
0.000318171
0.00636727
0.000332677
0.00637743
0.000332616
0.00638945
0.000356338
0.000346266
0.00614994
0.000250666
0.00614852
0.000250559
0.00614729
0.000250397
0.00614624
0.000250186
0.00614539
0.00024993
0.00614472
0.000249635
0.00614425
0.000249305
0.00614396
0.000248945
0.00614387
0.00024856
0.00614398
0.000248156
0.00614429
0.000247736
0.0061448
0.000247306
0.00614551
0.000246871
0.00614642
0.000246436
0.00614754
0.000246007
0.00614887
0.000245589
0.00615042
0.000245188
0.00615218
0.00024481
0.00615415
0.000244461
0.00615635
0.000244148
0.00615877
0.000243879
0.00616142
0.000243661
0.0061643
0.000243504
0.0061674
0.000243417
0.00617074
0.00024341
0.00617432
0.000243495
0.00617814
0.000243685
0.0061822
0.000243993
0.0061865
0.000244435
0.00619105
0.000245027
0.00619586
0.000245791
0.00620091
0.000246743
0.00620621
0.000247912
0.00621178
0.000249312
0.0062176
0.000250989
0.00622367
0.000252942
0.00623002
0.000255249
0.00623662
0.000257867
0.0062435
0.000260955
0.00625062
0.000264345
0.00625804
0.000268401
0.00626569
0.000272629
0.00627367
0.000277907
0.00628183
0.000282913
0.00629042
0.000289814
0.00629905
0.000295215
0.00630831
0.000304512
0.00631736
0.000309124
0.00632743
0.000322607
0.00633683
0.000323216
0.00634783
0.000345339
0.000335992
0.00614539
0.000252991
0.00614325
0.000252697
0.0061413
0.000252348
0.00613954
0.000251948
0.00613796
0.000251504
0.00613658
0.000251018
0.00613539
0.000250497
0.00613439
0.000249945
0.00613358
0.000249366
0.00613297
0.000248766
0.00613256
0.000248148
0.00613235
0.000247519
0.00613234
0.000246883
0.00613253
0.000246245
0.00613292
0.00024561
0.00613353
0.000244984
0.00613434
0.000244372
0.00613537
0.000243781
0.00613662
0.000243217
0.00613808
0.000242687
0.00613976
0.000242198
0.00614166
0.000241758
0.00614379
0.000241376
0.00614615
0.000241061
0.00614873
0.000240823
0.00615155
0.000240676
0.00615461
0.00024063
0.0061579
0.0002407
0.00616143
0.000240902
0.00616521
0.000241252
0.00616923
0.00024177
0.0061735
0.000242475
0.00617801
0.000243394
0.00618278
0.000244544
0.00618781
0.000245964
0.00619309
0.000247663
0.00619863
0.000249709
0.00620442
0.000252072
0.00621049
0.000254888
0.00621681
0.000258028
0.00622341
0.000261794
0.00623025
0.000265789
0.00623742
0.000270739
0.00624478
0.000275556
0.00625254
0.000282049
0.0062604
0.000287362
0.00626883
0.000296081
0.00627713
0.000300821
0.00628635
0.000313386
0.00629506
0.000314502
0.00630517
0.000335234
0.000326379
0.00613743
0.000256345
0.0061345
0.000255922
0.00613176
0.00025544
0.0061292
0.000254903
0.00612683
0.000254315
0.00612466
0.000253681
0.00612267
0.000253005
0.00612088
0.000252293
0.00611927
0.000251549
0.00611786
0.000250776
0.00611665
0.000249981
0.00611563
0.000249167
0.00611481
0.00024834
0.00611418
0.000247504
0.00611377
0.000246664
0.00611355
0.000245826
0.00611354
0.000244994
0.00611374
0.000244175
0.00611415
0.000243374
0.00611477
0.000242597
0.0061156
0.000241853
0.00611665
0.000241147
0.00611792
0.000240488
0.00611941
0.000239884
0.00612113
0.000239346
0.00612307
0.000238882
0.00612524
0.000238506
0.00612764
0.00023823
0.00613027
0.000238067
0.00613314
0.000238033
0.00613625
0.000238145
0.00613959
0.000238423
0.00614318
0.000238885
0.00614702
0.000239559
0.0061511
0.000240461
0.00615543
0.000241631
0.00616002
0.00024308
0.00616486
0.000244867
0.00616995
0.000246978
0.00617531
0.000249526
0.00618093
0.000252416
0.00618682
0.000255897
0.00619296
0.000259653
0.00619941
0.000264285
0.00620607
0.000268896
0.00621312
0.000275001
0.00622029
0.000280191
0.006228
0.000288374
0.00623565
0.000293171
0.00624413
0.000304906
0.00625224
0.000306392
0.00626157
0.000325901
0.000317349
0.00612065
0.000259948
0.00611724
0.000259337
0.00611401
0.000258666
0.00611097
0.00025794
0.00610812
0.000257164
0.00610546
0.000256341
0.00610299
0.000255476
0.00610071
0.000254573
0.00609862
0.000253637
0.00609673
0.000252672
0.00609503
0.000251683
0.00609352
0.000250675
0.00609221
0.000249651
0.00609109
0.000248617
0.00609018
0.000247578
0.00608947
0.000246538
0.00608896
0.000245503
0.00608866
0.000244479
0.00608856
0.000243471
0.00608867
0.000242486
0.00608899
0.000241531
0.00608953
0.000240612
0.00609027
0.000239738
0.00609124
0.000238918
0.00609243
0.00023816
0.00609383
0.000237476
0.00609546
0.000236876
0.00609732
0.000236374
0.0060994
0.000235983
0.00610172
0.000235719
0.00610426
0.000235598
0.00610705
0.000235641
0.00611007
0.000235866
0.00611333
0.000236298
0.00611683
0.000236959
0.00612058
0.000237883
0.00612457
0.000239085
0.00612882
0.000240619
0.00613332
0.00024248
0.00613808
0.000244765
0.00614309
0.000247404
0.00614838
0.000250606
0.00615392
0.000254118
0.00615976
0.000258441
0.00616582
0.000262834
0.00617226
0.000268567
0.00617884
0.000273606
0.00618593
0.000281286
0.00619302
0.000286081
0.00620087
0.00029706
0.00620846
0.000298801
0.00621713
0.000317225
0.000308823
0.00609738
0.000263907
0.00609361
0.000263107
0.00609002
0.000262248
0.00608663
0.000261334
0.00608343
0.000260369
0.00608041
0.000259357
0.00607758
0.000258303
0.00607494
0.000257211
0.00607249
0.000256085
0.00607024
0.00025493
0.00606817
0.000253749
0.0060663
0.000252547
0.00606462
0.00025133
0.00606314
0.0002501
0.00606185
0.000248864
0.00606076
0.000247626
0.00605987
0.000246392
0.00605919
0.000245167
0.0060587
0.000243956
0.00605842
0.000242767
0.00605835
0.000241605
0.00605848
0.000240478
0.00605883
0.000239394
0.00605938
0.000238362
0.00606015
0.00023739
0.00606114
0.00023649
0.00606234
0.000235672
0.00606377
0.00023495
0.00606541
0.000234336
0.00606728
0.000233848
0.00606938
0.0002335
0.00607171
0.000233314
0.00607427
0.000233307
0.00607706
0.000233505
0.00608009
0.00023393
0.00608336
0.000234612
0.00608687
0.000235573
0.00609063
0.000236859
0.00609464
0.000238473
0.0060989
0.0002405
0.00610342
0.00024289
0.00610821
0.000245818
0.00611324
0.000249084
0.00611858
0.000253105
0.00612414
0.00025727
0.00613006
0.000262644
0.00613616
0.000267509
0.00614273
0.000274715
0.00614935
0.000279457
0.00615667
0.000289743
0.00616383
0.000291644
0.00617196
0.000309095
0.000300723
0.00606765
0.000268086
0.00606366
0.000267098
0.00605985
0.000266051
0.00605624
0.00026495
0.00605281
0.000263797
0.00604957
0.000262599
0.00604651
0.000261357
0.00604365
0.000260078
0.00604097
0.000258764
0.00603848
0.00025742
0.00603618
0.00025605
0.00603407
0.000254658
0.00603215
0.00025325
0.00603042
0.000251829
0.00602888
0.0002504
0.00602754
0.000248968
0.0060264
0.000247538
0.00602545
0.000246116
0.0060247
0.000244707
0.00602414
0.000243318
0.00602379
0.000241955
0.00602365
0.000240626
0.0060237
0.000239338
0.00602396
0.000238099
0.00602443
0.00023692
0.00602511
0.00023581
0.00602601
0.000234781
0.00602711
0.000233845
0.00602843
0.000233016
0.00602997
0.000232309
0.00603173
0.000231742
0.00603371
0.000231332
0.00603592
0.000231101
0.00603835
0.000231071
0.00604102
0.000231265
0.00604391
0.000231713
0.00604705
0.000232437
0.00605043
0.000233481
0.00605405
0.000234853
0.00605792
0.000236628
0.00606204
0.000238771
0.00606643
0.000241431
0.00607106
0.00024445
0.00607599
0.000248175
0.00608115
0.000252105
0.00608667
0.000257133
0.00609237
0.000261803
0.00609852
0.000268561
0.00610477
0.000273209
0.00611166
0.000282853
0.00611847
0.000284838
0.00612616
0.000301406
0.00029297
0.00603582
0.000273456
0.00603156
0.000272343
0.00602749
0.000271169
0.0060236
0.000269936
0.0060199
0.000268649
0.00601639
0.000267312
0.00601306
0.000265929
0.00600991
0.000264503
0.00600695
0.000263039
0.00600417
0.00026154
0.00600158
0.000260011
0.00599918
0.000258456
0.00599696
0.000256878
0.00599492
0.000255283
0.00599308
0.000253674
0.00599142
0.000252057
0.00598995
0.000250436
0.00598867
0.000248816
0.00598759
0.000247203
0.00598669
0.000245602
0.00598599
0.00024402
0.00598548
0.000242462
0.00598517
0.000240937
0.00598506
0.000239451
0.00598514
0.000238013
0.00598543
0.000236633
0.00598592
0.000235321
0.00598661
0.000234088
0.00598751
0.000232946
0.00598862
0.000231909
0.00598994
0.000230992
0.00599147
0.000230212
0.00599321
0.000229588
0.00599517
0.000229138
0.00599736
0.000228888
0.00599976
0.000228859
0.0060024
0.00022908
0.00600526
0.000229574
0.00600836
0.000230382
0.00601169
0.000231518
0.00601528
0.000233046
0.0060191
0.000234946
0.00602319
0.000237343
0.00602752
0.000240116
0.00603214
0.000243553
0.00603701
0.000247243
0.0060422
0.000251936
0.00604761
0.000256396
0.00605344
0.000262727
0.00605941
0.000267246
0.00606597
0.000276294
0.00607251
0.000278297
0.00607986
0.000294055
0.000285487
0.00599344
0.000277832
0.00598925
0.000276534
0.00598524
0.000275176
0.00598142
0.000273761
0.00597778
0.000272292
0.00597432
0.000270774
0.00597104
0.000269209
0.00596794
0.000267603
0.00596502
0.000265958
0.00596228
0.000264279
0.00595972
0.00026257
0.00595734
0.000260834
0.00595514
0.000259075
0.00595313
0.000257299
0.00595129
0.000255509
0.00594964
0.000253709
0.00594817
0.000251906
0.00594689
0.000250102
0.00594579
0.000248305
0.00594487
0.000246518
0.00594414
0.00024475
0.0059436
0.000243005
0.00594324
0.000241291
0.00594308
0.000239615
0.0059431
0.000237987
0.00594332
0.000236415
0.00594374
0.000234908
0.00594434
0.000233479
0.00594515
0.00023214
0.00594615
0.000230904
0.00594736
0.000229785
0.00594877
0.000228802
0.00595039
0.000227971
0.00595221
0.000227313
0.00595425
0.000226851
0.0059565
0.000226606
0.00595897
0.000226608
0.00596167
0.00022688
0.00596459
0.000227461
0.00596774
0.000228366
0.00597113
0.000229655
0.00597476
0.000231316
0.00597865
0.000233458
0.00598278
0.000235986
0.00598719
0.000239143
0.00599184
0.000242589
0.00599682
0.000246957
0.00600202
0.000251195
0.00600763
0.00025712
0.0060134
0.00026148
0.00601972
0.00026997
0.00602608
0.000271941
0.00603318
0.000286947
0.000278199
0.00594489
0.000281989
0.00594092
0.000280511
0.00593712
0.000278973
0.0059335
0.000277379
0.00593006
0.000275733
0.0059268
0.000274039
0.00592371
0.000272298
0.00592079
0.000270517
0.00591805
0.000268697
0.00591549
0.000266844
0.0059131
0.00026496
0.00591088
0.00026305
0.00590884
0.000261118
0.00590697
0.000259167
0.00590528
0.000257202
0.00590376
0.000255228
0.00590242
0.000253249
0.00590125
0.00025127
0.00590026
0.000249296
0.00589944
0.000247333
0.0058988
0.000245387
0.00589835
0.000243464
0.00589807
0.00024157
0.00589797
0.000239714
0.00589805
0.000237904
0.00589832
0.000236149
0.00589876
0.000234459
0.0058994
0.000232844
0.00590022
0.000231317
0.00590124
0.000229891
0.00590244
0.000228581
0.00590384
0.000227404
0.00590543
0.000226377
0.00590722
0.00022552
0.00590922
0.000224855
0.00591142
0.000224405
0.00591383
0.000224197
0.00591646
0.000224256
0.0059193
0.000224617
0.00592237
0.0002253
0.00592567
0.000226357
0.0059292
0.000227786
0.00593297
0.00022968
0.00593699
0.000231966
0.00594129
0.00023485
0.00594582
0.000238051
0.00595068
0.000242105
0.00595576
0.000246112
0.00596123
0.000251647
0.00596688
0.000255828
0.00597306
0.000263792
0.00597931
0.000265691
0.00598627
0.00027999
0.000271035
0.00589043
0.000285777
0.00588681
0.000284124
0.00588337
0.000282412
0.00588011
0.000280646
0.00587701
0.000278829
0.00587408
0.000276965
0.00587133
0.000275056
0.00586874
0.000273106
0.00586632
0.000271119
0.00586406
0.000269098
0.00586197
0.000267048
0.00586005
0.000264972
0.0058583
0.000262873
0.00585671
0.000260757
0.00585528
0.000258626
0.00585402
0.000256487
0.00585293
0.000254341
0.00585201
0.000252196
0.00585125
0.000250056
0.00585065
0.000247926
0.00585023
0.000245812
0.00584997
0.000243721
0.00584988
0.000241659
0.00584996
0.000239633
0.00585022
0.000237652
0.00585064
0.000235725
0.00585124
0.000233861
0.00585201
0.000232072
0.00585296
0.000230369
0.00585408
0.000228765
0.00585539
0.000227275
0.00585688
0.000225915
0.00585856
0.000224702
0.00586042
0.000223657
0.00586247
0.000222801
0.00586472
0.000222155
0.00586717
0.000221748
0.00586982
0.000221603
0.00587268
0.000221755
0.00587576
0.000222224
0.00587906
0.000223059
0.00588258
0.000224263
0.00588635
0.000225916
0.00589034
0.000227967
0.00589461
0.000230585
0.00589912
0.000233543
0.00590393
0.000237293
0.00590898
0.000241063
0.0059144
0.000246224
0.00592002
0.000250208
0.00592614
0.000257673
0.00593236
0.000259469
0.00593926
0.000273098
0.000263922
0.00583361
0.000290807
0.00583034
0.000289045
0.00582724
0.000287224
0.00582431
0.000285347
0.00582154
0.000283417
0.00581893
0.000281437
0.00581649
0.00027941
0.0058142
0.000277341
0.00581207
0.000275232
0.00581011
0.000273086
0.0058083
0.000270908
0.00580665
0.0002687
0.00580515
0.000266468
0.00580381
0.000264213
0.00580262
0.000261941
0.0058016
0.000259655
0.00580072
0.00025736
0.0058
0.00025506
0.00579944
0.00025276
0.00579903
0.000250464
0.00579878
0.000248179
0.00579868
0.000245909
0.00579874
0.000243661
0.00579896
0.000241442
0.00579933
0.000239259
0.00579986
0.00023712
0.00580055
0.000235033
0.00580141
0.000233009
0.00580242
0.000231057
0.0058036
0.00022919
0.00580494
0.000227421
0.00580645
0.000225763
0.00580814
0.000224233
0.00580999
0.000222848
0.00581202
0.000221627
0.00581423
0.000220591
0.00581662
0.000219763
0.0058192
0.000219168
0.00582198
0.00021883
0.00582495
0.000218783
0.00582812
0.000219049
0.00583151
0.000219671
0.00583512
0.000220658
0.00583895
0.000222081
0.00584302
0.000223901
0.00584734
0.000226264
0.0058519
0.000228981
0.00585676
0.000232436
0.00586185
0.000235966
0.00586731
0.000240768
0.00587297
0.000244542
0.00587911
0.000251534
0.00588538
0.000253203
0.00589229
0.000266191
0.000256797
0.00576762
0.000293567
0.00576502
0.000291645
0.00576257
0.000289666
0.00576029
0.000287632
0.00575816
0.000285547
0.00575618
0.000283414
0.00575435
0.000281237
0.00575268
0.000279017
0.00575115
0.000276759
0.00574977
0.000274466
0.00574854
0.000272141
0.00574745
0.000269788
0.00574651
0.00026741
0.00574571
0.000265012
0.00574505
0.000262596
0.00574454
0.000260167
0.00574417
0.000257729
0.00574395
0.000255286
0.00574386
0.000252844