/*--------------------------------*- C++ -*----------------------------------*\
  =========                 |
  \\      /  F ield         | OpenFOAM: The Open Source CFD Toolbox
   \\    /   O peration     | Website:  https://openfoam.org
    \\  /    A nd           | Version:  7
     \\/     M anipulation  |
\*---------------------------------------------------------------------------*/
FoamFile
{
    version     2.0;
    format      ascii;
    class       volVectorField;
    location    "5";
    object      U;
}
// * * * * * * * * * * * * * * * * * * * * * * * * * * * * * * * * * * * * * //

dimensions      [0 1 -1 0 0 0 0];

internalField   nonuniform List<vector> 
2625
(
(0.93077 -0.00190207 -3.41289e-25)
(0.936102 -0.00176868 9.57523e-24)
(0.941125 -0.00164015 4.22186e-24)
(0.945845 -0.00151689 3.35833e-25)
(0.950269 -0.00139921 -1.8774e-25)
(0.954404 -0.00128738 -5.5737e-24)
(0.95826 -0.00118159 2.09814e-24)
(0.961846 -0.00108194 -5.09625e-24)
(0.965175 -0.000988486 2.81225e-24)
(0.968257 -0.000901198 2.41374e-24)
(0.971105 -0.000819988 -3.18869e-24)
(0.973731 -0.000744713 2.74726e-24)
(0.97615 -0.000675182 -1.08871e-24)
(0.978373 -0.000611162 1.34645e-24)
(0.980412 -0.000552389 -1.65974e-24)
(0.982281 -0.000498577 3.11479e-24)
(0.983992 -0.000449423 -1.69238e-25)
(0.985555 -0.000404617 -2.55045e-24)
(0.986982 -0.000363848 1.77703e-24)
(0.988283 -0.000326809 2.11606e-25)
(0.989468 -0.000293205 -5.1033e-25)
(0.990545 -0.000262761 -5.23698e-25)
(0.991524 -0.000235204 5.21644e-25)
(0.992412 -0.000210283 -7.95285e-26)
(0.993217 -0.000187769 4.90008e-25)
(0.993945 -0.00016745 9.40865e-26)
(0.994603 -0.00014913 -8.254e-25)
(0.995197 -0.000132632 -1.37992e-25)
(0.995732 -0.000117793 2.99271e-27)
(0.996213 -0.000104464 4.22742e-25)
(0.996645 -9.25071e-05 -6.25481e-26)
(0.997033 -8.17983e-05 5.17282e-26)
(0.99738 -7.22222e-05 -1.51485e-25)
(0.99769 -6.3673e-05 7.14909e-26)
(0.997966 -5.60535e-05 -1.05699e-25)
(0.998213 -4.92739e-05 2.79349e-26)
(0.998432 -4.32518e-05 -1.48142e-25)
(0.998627 -3.79114e-05 -1.42151e-25)
(0.998799 -3.31835e-05 7.69344e-26)
(0.998952 -2.90044e-05 -6.50963e-26)
(0.999086 -2.53164e-05 4.50575e-26)
(0.999205 -2.20668e-05 -6.91863e-26)
(0.99931 -1.92079e-05 8.03378e-26)
(0.999402 -1.66966e-05 1.99474e-26)
(0.999482 -1.44938e-05 3.92284e-27)
(0.999553 -1.25646e-05 -9.37589e-27)
(0.999615 -1.08775e-05 1.70966e-27)
(0.999669 -9.40428e-06 -2.24148e-26)
(0.999716 -8.11961e-06 -1.6224e-27)
(0.999756 -7.00127e-06 8.39858e-27)
(0.999792 -6.02848e-06 2.72121e-28)
(0.999823 -5.18502e-06 1.18402e-26)
(0.999849 -4.4513e-06 8.53797e-28)
(0.999872 -3.8219e-06 9.52621e-27)
(0.999893 -3.26473e-06 6.66476e-27)
(0.999906 -2.81345e-06 -1.77173e-27)
(0.99993 -2.3519e-06 4.61965e-27)
(0.931087 -0.00568398 1.79359e-23)
(0.936388 -0.00528464 -5.46025e-24)
(0.941383 -0.00489988 1.23102e-23)
(0.946078 -0.00453089 -5.11831e-24)
(0.950478 -0.00417866 -1.90019e-23)
(0.954591 -0.00384396 5.98649e-24)
(0.958427 -0.00352736 -3.04413e-24)
(0.961996 -0.0032292 1.2002e-23)
(0.965308 -0.00294959 -1.15495e-23)
(0.968375 -0.00268845 5.53695e-24)
(0.97121 -0.00244553 4.69774e-24)
(0.973825 -0.0022204 -2.44472e-25)
(0.976233 -0.00201247 -1.06632e-25)
(0.978446 -0.00182105 1.98858e-24)
(0.980478 -0.00164535 -7.11663e-24)
(0.98234 -0.0014845 1.73231e-24)
(0.984043 -0.0013376 5.10993e-24)
(0.985601 -0.00120371 -1.0663e-24)
(0.987022 -0.00108191 -6.79274e-24)
(0.988319 -0.000971276 -7.91057e-26)
(0.989499 -0.00087092 2.01028e-24)
(0.990573 -0.000780015 2.66696e-24)
(0.991549 -0.000697746 -5.56155e-25)
(0.992434 -0.000623366 1.39623e-24)
(0.993236 -0.000556188 -9.16138e-25)
(0.993962 -0.000495576 -6.5622e-25)
(0.994618 -0.000440946 1.10145e-24)
(0.99521 -0.000391767 -6.35947e-25)
(0.995743 -0.00034755 1.084e-25)
(0.996223 -0.000307848 4.57466e-25)
(0.996654 -0.000272254 -7.99828e-26)
(0.997041 -0.000240394 -5.38374e-25)
(0.997387 -0.000211921 -2.12405e-25)
(0.997696 -0.000186521 -4.25753e-25)
(0.997972 -0.000163901 3.9369e-25)
(0.998218 -0.000143793 4.73404e-26)
(0.998436 -0.00012595 1.19631e-25)
(0.99863 -0.000110144 -1.92209e-25)
(0.998802 -9.61683e-05 3.60362e-25)
(0.998954 -8.38316e-05 -7.74638e-26)
(0.999089 -7.29608e-05 -1.98211e-25)
(0.999207 -6.3398e-05 2.41531e-25)
(0.999312 -5.50001e-05 -2.25312e-26)
(0.999403 -4.76377e-05 -9.21126e-26)
(0.999484 -4.11942e-05 -3.77595e-26)
(0.999554 -3.55646e-05 -5.44047e-27)
(0.999616 -3.06545e-05 1.00866e-26)
(0.99967 -2.63797e-05 -8.66936e-27)
(0.999716 -2.26644e-05 -3.77869e-27)
(0.999757 -1.9442e-05 -1.19641e-26)
(0.999793 -1.66505e-05 1.35822e-26)
(0.999823 -1.42415e-05 -3.19362e-27)
(0.99985 -1.21567e-05 -1.241e-26)
(0.999872 -1.03793e-05 6.39576e-28)
(0.999894 -8.81534e-06 -5.87346e-27)
(0.999907 -7.56163e-06 2.77908e-27)
(0.99993 -6.28231e-06 -1.69064e-26)
(0.931719 -0.0094396 -1.20917e-23)
(0.936959 -0.00877685 -8.20022e-24)
(0.941898 -0.00813823 -1.44614e-23)
(0.946541 -0.00752572 -9.06469e-24)
(0.950893 -0.00694098 3.28107e-23)
(0.954964 -0.0063853 -1.72084e-23)
(0.95876 -0.00585961 2.13484e-23)
(0.962293 -0.00536448 -3.07065e-23)
(0.965573 -0.00490012 1.46377e-23)
(0.968611 -0.0044664 4.18884e-24)
(0.97142 -0.00406291 -9.57155e-24)
(0.974012 -0.00368892 -2.74452e-24)
(0.976399 -0.00334349 1.02937e-23)
(0.978594 -0.00302546 1.68907e-23)
(0.980608 -0.00273352 -1.81603e-24)
(0.982455 -0.00246624 -1.31284e-23)
(0.984146 -0.00222213 1.03877e-23)
(0.985692 -0.00199963 2.04138e-24)
(0.987103 -0.0017972 -2.86649e-24)
(0.98839 -0.00161332 -2.84933e-24)
(0.989562 -0.00144651 -7.04242e-25)
(0.990629 -0.00129541 -2.99551e-24)
(0.991598 -0.00115866 -1.49594e-25)
(0.992478 -0.00103503 3.18237e-24)
(0.993275 -0.000923357 4.38993e-25)
(0.993996 -0.000822603 7.98107e-25)
(0.994648 -0.000731797 1.08468e-24)
(0.995237 -0.000650052 -1.46022e-24)
(0.995767 -0.000576559 -8.24543e-25)
(0.996244 -0.000510575 1.35593e-24)
(0.996673 -0.000451423 -1.69544e-24)
(0.997057 -0.00039848 1.20016e-24)
(0.997401 -0.000351173 -7.37249e-25)
(0.997708 -0.000308975 4.67574e-25)
(0.997983 -0.000271403 -4.7071e-25)
(0.998227 -0.000238008 -5.00513e-25)
(0.998444 -0.000208381 4.0968e-25)
(0.998637 -0.000182143 8.15458e-26)
(0.998808 -0.000158948 4.65006e-27)
(0.99896 -0.000138479 -3.00162e-25)
(0.999094 -0.000120448 2.3988e-25)
(0.999211 -0.000104591 -3.44627e-25)
(0.999315 -9.06718e-05 1.20454e-25)
(0.999406 -7.84739e-05 -1.17674e-25)
(0.999486 -6.78031e-05 1.29482e-25)
(0.999557 -5.84849e-05 8.82193e-27)
(0.999618 -5.03624e-05 1.02421e-26)
(0.999671 -4.32952e-05 1.38746e-25)
(0.999718 -3.71571e-05 -1.13125e-26)
(0.999758 -3.18377e-05 7.56589e-26)
(0.999794 -2.72337e-05 7.23667e-27)
(0.999824 -2.32644e-05 -2.05119e-26)
(0.999851 -1.98332e-05 5.03926e-26)
(0.999873 -1.69118e-05 -3.00742e-27)
(0.999894 -1.43447e-05 -2.18569e-26)
(0.999907 -1.22915e-05 -1.09958e-27)
(0.99993 -1.01972e-05 1.41241e-26)
(0.932659 -0.0131517 -4.65584e-23)
(0.937809 -0.0122298 3.34271e-25)
(0.942665 -0.0113412 4.13494e-23)
(0.947231 -0.0104888 -2.32741e-23)
(0.951513 -0.00967496 1.29703e-23)
(0.955519 -0.00890139 8.37398e-25)
(0.959257 -0.00816944 -2.06857e-23)
(0.962737 -0.00747991 1.85772e-23)
(0.965969 -0.00683313 -1.18168e-23)
(0.968964 -0.00622894 -6.48507e-24)
(0.971734 -0.00566675 1.73233e-23)
(0.974291 -0.00514558 -1.46261e-23)
(0.976647 -0.00466412 -5.00207e-24)
(0.978814 -0.00422079 1.10519e-23)
(0.980803 -0.00381376 -3.52665e-25)
(0.982628 -0.00344107 -1.14383e-23)
(0.984299 -0.00310062 1.60094e-23)
(0.985828 -0.00279027 -1.37881e-24)
(0.987223 -0.00250788 -1.15672e-23)
(0.988497 -0.00225134 -4.66964e-25)
(0.989657 -0.00201858 2.83046e-25)
(0.990713 -0.00180774 2.85218e-24)
(0.991672 -0.00161688 2.96235e-25)
(0.992543 -0.00144432 -2.41947e-25)
(0.993333 -0.00128845 -1.57041e-24)
(0.994047 -0.00114781 -4.01255e-25)
(0.994694 -0.00102104 -2.72759e-24)
(0.995277 -0.000906927 2.95552e-24)
(0.995802 -0.000804327 4.68226e-25)
(0.996275 -0.00071221 7.80792e-25)
(0.9967 -0.000629631 -2.03765e-24)
(0.997081 -0.00055572 8.8835e-25)
(0.997422 -0.00048968 1.36828e-24)
(0.997727 -0.000430775 -6.42434e-25)
(0.997999 -0.000378329 1.23889e-24)
(0.998241 -0.000331718 -7.82165e-25)
(0.998457 -0.000290368 -1.21898e-25)
(0.998648 -0.000253752 5.78767e-25)
(0.998818 -0.000221385 -2.13661e-25)
(0.998968 -0.000192827 3.43683e-25)
(0.999101 -0.000167673 -1.30292e-25)
(0.999218 -0.000145556 4.47953e-25)
(0.999321 -0.000126144 -6.11776e-26)
(0.999411 -0.000109136 1.22172e-25)
(0.99949 -9.42602e-05 -2.28308e-25)
(0.99956 -8.12732e-05 1.37473e-25)
(0.999621 -6.99554e-05 -1.32932e-26)
(0.999674 -6.0111e-05 -2.89388e-26)
(0.99972 -5.15636e-05 -1.01916e-26)
(0.99976 -4.41588e-05 -6.19185e-27)
(0.999795 -3.77525e-05 3.8171e-26)
(0.999825 -3.22318e-05 1.8425e-26)
(0.999852 -2.74618e-05 -3.72729e-26)
(0.999874 -2.34032e-05 1.98834e-26)
(0.999895 -1.98387e-05 3.96593e-26)
(0.999908 -1.69911e-05 2.77461e-27)
(0.999931 -1.40865e-05 2.96325e-26)
(0.933901 -0.0168036 -4.90522e-23)
(0.938932 -0.0156283 7.57211e-23)
(0.943678 -0.0144952 -2.04309e-23)
(0.948143 -0.013408 2.60346e-23)
(0.952333 -0.0123696 -2.67186e-23)
(0.956254 -0.0113825 5.42841e-24)
(0.959915 -0.0104482 -2.51304e-23)
(0.963325 -0.00956783 1.88768e-23)
(0.966493 -0.00874185 2.60559e-25)
(0.969431 -0.00797007 8.12751e-25)
(0.97215 -0.00725178 -2.89567e-23)
(0.974661 -0.00658574 7.18299e-24)
(0.976975 -0.00597032 1.55675e-23)
(0.979105 -0.00540349 -1.58397e-23)
(0.981062 -0.00488298 1.17014e-23)
(0.982858 -0.00440626 -7.43354e-24)
(0.984503 -0.0039707 -5.20638e-24)
(0.986008 -0.00357357 6.11282e-24)
(0.987383 -0.00321215 1.76112e-24)
(0.988638 -0.00288376 -1.45676e-23)
(0.989782 -0.00258575 1.31529e-23)
(0.990824 -0.00231577 -1.09671e-23)
(0.991771 -0.00207135 3.57779e-24)
(0.99263 -0.00185031 3.75395e-24)
(0.99341 -0.00165065 3.81756e-24)
(0.994115 -0.00147047 -3.43912e-24)
(0.994754 -0.00130805 -2.77712e-24)
(0.99533 -0.00116183 4.18218e-24)
(0.995849 -0.00103036 -1.13774e-24)
(0.996316 -0.000912321 4.394e-26)
(0.996736 -0.000806497 -2.01464e-25)
(0.997113 -0.00071178 -9.85628e-25)
(0.99745 -0.000627148 1.48175e-24)
(0.997751 -0.000551661 -1.92655e-24)
(0.99802 -0.000484452 2.60571e-24)
(0.99826 -0.000424722 -1.27767e-24)
(0.998473 -0.000371735 5.51395e-25)
(0.998663 -0.000324817 3.82998e-26)
(0.99883 -0.000283346 1.85485e-26)
(0.998979 -0.000246757 -2.97798e-26)
(0.99911 -0.000214532 -3.00373e-25)
(0.999226 -0.000186201 2.18294e-25)
(0.999328 -0.000161337 3.60351e-26)
(0.999417 -0.000139554 -2.15649e-25)
(0.999496 -0.000120506 2.84612e-25)
(0.999565 -0.000103877 -5.72122e-26)
(0.999625 -8.93885e-05 1.01842e-26)
(0.999677 -7.67881e-05 -7.22717e-26)
(0.999723 -6.58499e-05 -6.04165e-26)
(0.999763 -5.63759e-05 -3.07638e-26)
(0.999797 -4.81814e-05 1.72915e-26)
(0.999827 -4.11218e-05 -1.87437e-26)
(0.999853 -3.50238e-05 -3.98367e-28)
(0.999875 -2.98374e-05 1.21028e-26)
(0.999896 -2.52837e-05 -4.39906e-26)
(0.999909 -2.16485e-05 -1.28125e-26)
(0.999932 -1.79401e-05 -4.38609e-26)
(0.935435 -0.0203793 5.87283e-23)
(0.94032 -0.0189578 -9.14095e-23)
(0.94493 -0.0175871 6.81279e-23)
(0.949271 -0.0162715 -7.15052e-23)
(0.953346 -0.0150145 -2.38495e-23)
(0.957163 -0.0138191 2.39656e-23)
(0.960729 -0.0126875 4.472e-23)
(0.964052 -0.0116208 -3.46153e-23)
(0.967143 -0.0106197 3.29745e-23)
(0.97001 -0.00968401 -4.86522e-24)
(0.972665 -0.0088129 3.44814e-23)
(0.975119 -0.00800493 -5.16082e-23)
(0.977382 -0.00725814 2.18449e-23)
(0.979467 -0.00657013 2.17993e-23)
(0.981383 -0.00593814 -3.4793e-23)
(0.983143 -0.00535918 2.84906e-23)
(0.984756 -0.00483006 1.57771e-23)
(0.986232 -0.00434751 -2.16183e-23)
(0.987582 -0.00390825 -1.56933e-25)
(0.988814 -0.00350903 3.26173e-25)
(0.989938 -0.00314665 -7.39196e-25)
(0.990962 -0.00281833 1.15119e-23)
(0.991893 -0.00252101 -1.4023e-23)
(0.992738 -0.0022521 1.37311e-24)
(0.993505 -0.00200914 8.27031e-25)
(0.9942 -0.00178987 -3.02603e-24)
(0.994828 -0.0015922 4.39171e-24)
(0.995396 -0.00141423 -3.47548e-24)
(0.995907 -0.00125419 1.84714e-25)
(0.996367 -0.00111048 2.01588e-24)
(0.996781 -0.000981647 9.74925e-25)
(0.997152 -0.000866329 -1.70864e-24)
(0.997485 -0.000763287 1.31095e-24)
(0.997782 -0.000671378 -6.32735e-25)
(0.998047 -0.000589547 -1.72178e-24)
(0.998283 -0.000516822 5.84683e-25)
(0.998494 -0.00045231 -1.06506e-24)
(0.99868 -0.000395186 5.61727e-25)
(0.998846 -0.000344698 -1.40201e-24)
(0.998992 -0.000300154 -1.13361e-25)
(0.999122 -0.000260925 7.75841e-25)
(0.999236 -0.000226438 -5.6563e-26)
(0.999337 -0.000196173 -1.60203e-25)
(0.999425 -0.000169662 3.75366e-25)
(0.999502 -0.00014648 -3.43659e-25)
(0.99957 -0.000126246 5.79933e-28)
(0.99963 -0.000108617 1.54646e-25)
(0.999681 -9.32875e-05 1.35636e-25)
(0.999727 -7.99823e-05 2.1821e-25)
(0.999766 -6.846e-05 -1.92836e-26)
(0.9998 -5.84954e-05 -1.6194e-26)
(0.999829 -4.99127e-05 -4.58269e-27)
(0.999855 -4.25006e-05 -3.975e-26)
(0.999877 -3.61984e-05 -3.74391e-26)
(0.999897 -3.06658e-05 7.23398e-27)
(0.99991 -2.6252e-05 1.07584e-26)
(0.999933 -2.17481e-05 1.54174e-26)
(0.937249 -0.0238635 2.5104e-23)
(0.941962 -0.0222047 -2.3336e-23)
(0.946413 -0.0206045 3.39355e-23)
(0.950607 -0.019068 -2.31757e-23)
(0.954547 -0.0175995 4.76008e-23)
(0.958241 -0.0162024 -8.81114e-23)
(0.961694 -0.0148793 3.16077e-23)
(0.964916 -0.0136317 -1.38988e-23)
(0.967914 -0.0124604 1.57327e-23)
(0.970697 -0.0113652 9.50313e-24)
(0.973277 -0.0103452 -1.00568e-23)
(0.975664 -0.00939882 -9.35035e-25)
(0.977867 -0.00852379 -2.18795e-23)
(0.979897 -0.00771735 -5.48933e-24)
(0.981766 -0.00697634 6.83118e-25)
(0.983482 -0.00629727 -8.99826e-25)
(0.985057 -0.00567646 1.35519e-23)
(0.986499 -0.00511013 3.36802e-24)
(0.987819 -0.00459445 -1.0509e-23)
(0.989024 -0.00412565 6.42656e-24)
(0.990124 -0.00369995 7.21418e-24)
(0.991126 -0.00331425 -1.75281e-23)
(0.992039 -0.00296485 2.17521e-23)
(0.992867 -0.00264877 -9.48955e-25)
(0.99362 -0.00236315 -1.63886e-23)
(0.994301 -0.00210533 7.02335e-25)
(0.994917 -0.00187288 5.26481e-24)
(0.995474 -0.00166356 -6.13561e-24)
(0.995976 -0.00147532 2.83224e-24)
(0.996429 -0.00130628 -1.87554e-24)
(0.996835 -0.00115471 -3.76378e-25)
(0.9972 -0.00101904 1.28659e-24)
(0.997526 -0.000897811 -1.84739e-25)
(0.997818 -0.000789673 -2.78475e-25)
(0.998079 -0.000693392 -8.57976e-25)
(0.998311 -0.000607825 1.04661e-24)
(0.998518 -0.00053192 6.74037e-25)
(0.998702 -0.000464709 1.89503e-25)
(0.998865 -0.000405307 1.36078e-25)
(0.999009 -0.0003529 -1.63978e-25)
(0.999136 -0.000306748 1.03347e-24)
(0.999248 -0.000266177 -7.87777e-25)
(0.999347 -0.000230576 4.62698e-25)
(0.999434 -0.000199391 -2.7738e-25)
(0.99951 -0.000172124 5.36805e-25)
(0.999577 -0.000148327 -2.64695e-25)
(0.999636 -0.000127596 -6.26006e-26)
(0.999687 -0.000109571 -7.03328e-27)
(0.999731 -9.39276e-05 -2.41775e-25)
(0.99977 -8.03824e-05 4.4434e-27)
(0.999803 -6.86699e-05 -1.27975e-25)
(0.999832 -5.85833e-05 -2.83707e-26)
(0.999858 -4.98738e-05 -5.55448e-26)
(0.999879 -4.24704e-05 8.2367e-27)
(0.999899 -3.59717e-05 -1.41444e-26)
(0.999911 -3.079e-05 7.15083e-27)
(0.999934 -2.55007e-05 9.3776e-27)
(0.939329 -0.027242 -6.68712e-23)
(0.943845 -0.025356 3.51773e-23)
(0.948114 -0.0235357 -1.08219e-23)
(0.95214 -0.0217871 -1.64213e-23)
(0.955927 -0.0201152 3.05265e-23)
(0.95948 -0.0185239 -1.56823e-23)
(0.962805 -0.0170161 4.73205e-23)
(0.965909 -0.0155938 -5.13235e-24)
(0.968801 -0.0142579 -2.90982e-23)
(0.97149 -0.0130083 2.14752e-23)
(0.973983 -0.011844 1.95094e-23)
(0.976292 -0.0107633 -1.57774e-23)
(0.978426 -0.00976364 8.12499e-24)
(0.980394 -0.00884197 -2.48175e-23)
(0.982207 -0.00799475 -2.58058e-25)
(0.983874 -0.00721805 2.37998e-23)
(0.985405 -0.00650773 -1.15646e-23)
(0.986808 -0.00585951 1.98757e-23)
(0.988092 -0.00526907 2.79634e-24)
(0.989267 -0.00473217 -1.28787e-23)
(0.990339 -0.0042447 9.51773e-24)
(0.991317 -0.00380243 -6.91873e-24)
(0.992208 -0.00340187 -1.16327e-23)
(0.993017 -0.00303945 1.78191e-23)
(0.993752 -0.00271189 -8.90092e-24)
(0.994418 -0.00241616 -1.41352e-24)
(0.995021 -0.00214949 5.0596e-24)
(0.995565 -0.00190931 7.54181e-25)
(0.996057 -0.00169329 7.73715e-24)
(0.996499 -0.00149929 -4.17055e-24)
(0.996897 -0.00132533 3.35467e-24)
(0.997254 -0.0011696 -4.66122e-24)
(0.997574 -0.00103044 2.0786e-24)
(0.99786 -0.0009063 2.37723e-25)
(0.998116 -0.00079577 -1.06102e-24)
(0.998344 -0.000697538 2.32872e-24)
(0.998546 -0.000610397 -6.44194e-25)
(0.998726 -0.000533239 1.07616e-24)
(0.998886 -0.000465045 -2.86748e-26)
(0.999027 -0.000404884 -6.28433e-25)
(0.999152 -0.000351904 -2.47011e-25)
(0.999262 -0.000305333 -2.81664e-25)
(0.999359 -0.000264469 -5.08274e-25)
(0.999445 -0.000228676 4.15277e-25)
(0.999519 -0.000197382 -2.3547e-25)
(0.999585 -0.000170072 4.40802e-25)
(0.999642 -0.000146283 -5.39304e-26)
(0.999692 -0.000125601 -6.08416e-26)
(0.999736 -0.000107653 9.96048e-27)
(0.999774 -9.21148e-05 8.33021e-26)
(0.999807 -7.86803e-05 4.6841e-26)
(0.999835 -6.71127e-05 -1.05034e-26)
(0.99986 -5.71253e-05 4.2604e-26)
(0.999881 -4.86379e-05 -2.68855e-26)
(0.999901 -4.1188e-05 2.33386e-26)
(0.999913 -3.52511e-05 -1.28135e-26)
(0.999935 -2.91882e-05 -8.54321e-26)
(0.941659 -0.0305018 -6.78322e-23)
(0.945956 -0.0283997 -1.12947e-22)
(0.950023 -0.0263699 1.37186e-22)
(0.953862 -0.024419 -1.87912e-23)
(0.957477 -0.0225527 4.76482e-23)
(0.960872 -0.0207755 -1.1391e-22)
(0.964054 -0.0190908 -1.02857e-23)
(0.967027 -0.0175008 1.15523e-22)
(0.969801 -0.0160067 -4.60096e-23)
(0.972382 -0.0146084 -7.07022e-23)
(0.974779 -0.0133049 4.4906e-23)
(0.977001 -0.0120944 -4.51909e-24)
(0.979057 -0.0109742 -5.60202e-24)
(0.980956 -0.00994096 -2.98664e-23)
(0.982706 -0.00899071 -2.01746e-24)
(0.984317 -0.00811919 4.03906e-23)
(0.985798 -0.00732181 -4.41414e-23)
(0.987157 -0.00659385 2.43467e-23)
(0.988402 -0.00593053 -8.45735e-24)
(0.989542 -0.00532714 -2.25758e-23)
(0.990583 -0.00477925 2.90025e-24)
(0.991533 -0.00428172 -5.35244e-24)
(0.992399 -0.0038311 3.42449e-24)
(0.993186 -0.00342329 1.45746e-23)
(0.993902 -0.00305462 -1.03009e-23)
(0.994551 -0.00272171 2.1305e-25)
(0.995138 -0.00242144 -6.67523e-24)
(0.995669 -0.00215096 5.32222e-24)
(0.996148 -0.00190766 5.48997e-24)
(0.99658 -0.00168912 2.47288e-25)
(0.996968 -0.00149314 -7.35326e-25)
(0.997317 -0.00131769 -2.3622e-24)
(0.997629 -0.00116089 1.00577e-24)
(0.997908 -0.00102102 -1.58176e-24)
(0.998158 -0.000896467 -1.90142e-24)
(0.99838 -0.000785774 4.97358e-25)
(0.998579 -0.000687578 -5.79292e-25)
(0.998754 -0.00060063 2.8665e-25)
(0.99891 -0.000523785 3.79501e-26)
(0.999049 -0.000455993 -2.48767e-25)
(0.999171 -0.000396295 2.67071e-25)
(0.999278 -0.00034382 4.90302e-25)
(0.999373 -0.000297778 -1.51508e-25)
(0.999457 -0.000257452 3.13359e-25)
(0.99953 -0.000222196 -1.12918e-25)
(0.999594 -0.000191431 -3.37656e-25)
(0.99965 -0.000164635 4.00017e-25)
(0.999699 -0.00014134 6.17592e-26)
(0.999742 -0.000121128 1.18717e-25)
(0.999779 -0.00010363 -1.29631e-25)
(0.999811 -8.8503e-05 7.6244e-26)
(0.999839 -7.54802e-05 -7.51013e-26)
(0.999863 -6.42376e-05 -3.79092e-26)
(0.999883 -5.46859e-05 -1.05718e-26)
(0.999903 -4.63017e-05 -2.95812e-26)
(0.999915 -3.96242e-05 -2.34568e-27)
(0.999936 -3.28013e-05 -3.01565e-27)
(0.944221 -0.0336311 -1.08488e-23)
(0.948279 -0.0313252 -8.31098e-23)
(0.952125 -0.0290973 1.06586e-22)
(0.95576 -0.0269549 6.82468e-23)
(0.959187 -0.0249041 -9.06753e-23)
(0.962409 -0.0229502 2.55542e-23)
(0.965433 -0.021097 -2.64847e-24)
(0.968264 -0.0193469 1.53513e-23)
(0.970907 -0.0177015 -1.01685e-23)
(0.97337 -0.0161608 -8.8069e-23)
(0.975661 -0.0147238 8.8773e-23)
(0.977787 -0.0133886 5.27286e-25)
(0.979757 -0.0121523 -3.52279e-23)
(0.981579 -0.0110114 6.51053e-24)
(0.98326 -0.00996169 -4.35628e-23)
(0.98481 -0.00899844 4.65484e-23)
(0.986236 -0.00811672 6.57253e-24)
(0.987546 -0.00731139 -8.33276e-24)
(0.988747 -0.00657726 1.3765e-23)
(0.989848 -0.00590918 5.40802e-26)
(0.990855 -0.00530214 -8.32822e-24)
(0.991774 -0.00475104 2.19205e-23)
(0.992612 -0.0042516 -5.62374e-24)
(0.993375 -0.00379947 7.05797e-24)
(0.994069 -0.00339062 -5.35911e-24)
(0.994698 -0.00302132 -7.72768e-24)
(0.995269 -0.00268817 1.85611e-24)
(0.995784 -0.00238802 1.11212e-24)
(0.99625 -0.00211797 1.11495e-24)
(0.996669 -0.00187539 8.23552e-25)
(0.997047 -0.00165782 -3.18211e-24)
(0.997386 -0.00146301 2.42713e-24)
(0.99769 -0.00128891 -8.55635e-25)
(0.997962 -0.00113359 5.87533e-25)
(0.998205 -0.000995277 2.71158e-25)
(0.998422 -0.00087235 1.48084e-24)
(0.998614 -0.0007633 -2.45538e-24)
(0.998786 -0.000666742 -1.04334e-24)
(0.998938 -0.000581404 4.43072e-25)
(0.999072 -0.00050612 -4.45713e-25)
(0.999191 -0.000439826 -1.12181e-25)
(0.999296 -0.000381556 -4.57688e-25)
(0.999389 -0.00033043 -1.52471e-26)
(0.99947 -0.000285655 -5.14625e-25)
(0.999541 -0.000246512 4.36024e-25)
(0.999604 -0.000212357 -4.85129e-25)
(0.999659 -0.00018261 -1.43389e-25)
(0.999706 -0.000156753 1.50823e-25)
(0.999748 -0.000134319 -1.11291e-25)
(0.999784 -0.0001149 4.08805e-26)
(0.999816 -9.81147e-05 -1.55212e-25)
(0.999843 -8.3666e-05 -5.04197e-27)
(0.999867 -7.11935e-05 1.87355e-26)
(0.999886 -6.05995e-05 1.17178e-25)
(0.999905 -5.13003e-05 7.08535e-27)
(0.999917 -4.38984e-05 4.86288e-27)
(0.999938 -3.63307e-05 2.11951e-25)
(0.946997 -0.0366194 -2.688e-23)
(0.950799 -0.0341228 -1.08179e-23)
(0.954406 -0.0317092 -4.08514e-23)
(0.957821 -0.0293866 -3.79856e-23)
(0.961045 -0.0271621 4.07498e-23)
(0.964082 -0.0250414 -2.78605e-23)
(0.966935 -0.0230286 5.82597e-23)
(0.969611 -0.0211268 -8.04078e-23)
(0.972113 -0.0193376 7.01213e-23)
(0.974449 -0.0176612 2.62492e-23)
(0.976624 -0.0160968 -1.79352e-23)
(0.978647 -0.0146424 -5.21487e-24)
(0.980523 -0.013295 7.51988e-24)
(0.982261 -0.0120508 -3.69637e-23)
(0.983867 -0.0109053 1.04941e-23)
(0.98535 -0.00985371 2.42695e-23)
(0.986716 -0.00889061 -1.19581e-23)
(0.987972 -0.00801052 -1.72222e-23)
(0.989126 -0.00720784 2.96626e-23)
(0.990184 -0.00647703 -2.71913e-23)
(0.991153 -0.00581266 4.91994e-24)
(0.992039 -0.00520943 8.03382e-24)
(0.992847 -0.00466251 -1.8072e-23)
(0.993583 -0.00416721 1.74968e-23)
(0.994253 -0.00371918 -9.34349e-24)
(0.994861 -0.00331439 6.1161e-25)
(0.995413 -0.00294914 3.59661e-24)
(0.995911 -0.00261999 8.67081e-24)
(0.996362 -0.00232381 -1.41846e-23)
(0.996768 -0.00205771 9.52591e-25)
(0.997134 -0.00181901 6.07241e-24)
(0.997462 -0.00160527 -4.85574e-24)
(0.997757 -0.00141423 -2.5843e-24)
(0.998021 -0.00124378 4.71294e-24)
(0.998256 -0.001092 2.8005e-26)
(0.998467 -0.000957089 -9.29928e-25)
(0.998654 -0.000837409 -3.58006e-26)
(0.99882 -0.000731438 3.21958e-25)
(0.998968 -0.00063778 4.94123e-25)
(0.999098 -0.000555158 2.35649e-24)
(0.999214 -0.000482405 -5.92647e-25)
(0.999316 -0.000418459 1.21557e-26)
(0.999406 -0.000362356 5.85734e-25)
(0.999485 -0.000313224 6.41194e-26)
(0.999554 -0.000270276 -2.23015e-25)
(0.999615 -0.000232803 7.61724e-26)
(0.999668 -0.000200169 -3.11857e-25)
(0.999714 -0.000171804 5.59246e-26)
(0.999755 -0.000147197 6.38654e-26)
(0.99979 -0.0001259 1.34929e-25)
(0.999821 -0.000107493 1.62054e-26)
(0.999847 -9.16506e-05 4.95011e-26)
(0.99987 -7.79761e-05 1.98387e-25)
(0.999889 -6.63645e-05 -1.48335e-26)
(0.999908 -5.61714e-05 3.81377e-26)
(0.999919 -4.80633e-05 -1.46834e-26)
(0.99994 -3.97676e-05 -2.78809e-25)
(0.949968 -0.0394575 -8.66136e-23)
(0.953497 -0.0367841 2.40531e-23)
(0.956852 -0.0341978 -3.89766e-23)
(0.960032 -0.0317073 2.41443e-23)
(0.96304 -0.0293203 -2.72926e-23)
(0.965879 -0.0270432 5.86123e-23)
(0.968551 -0.0248805 -2.87735e-23)
(0.971061 -0.0228357 4.14476e-23)
(0.973413 -0.0209107 -2.51795e-23)
(0.975612 -0.0191059 3.99159e-23)
(0.977664 -0.0174206 -6.2323e-23)
(0.979575 -0.0158528 3.55154e-23)
(0.981351 -0.0143994 1.2049e-23)
(0.982999 -0.0130565 -9.17186e-23)
(0.984524 -0.0118194 4.58855e-23)
(0.985935 -0.0106831 2.2277e-24)
(0.987236 -0.00964175 1.90441e-23)
(0.988435 -0.00868967 -4.55151e-23)
(0.989537 -0.00782089 4.5433e-23)
(0.99055 -0.0070295 -2.87889e-23)
(0.991478 -0.0063097 2.29936e-23)
(0.992327 -0.00565595 -7.73964e-24)
(0.993102 -0.00506297 2.75439e-25)
(0.993809 -0.00452576 -1.09763e-23)
(0.994453 -0.00403965 9.66764e-24)
(0.995038 -0.00360033 -8.32924e-25)
(0.995569 -0.00320382 -4.96818e-24)
(0.99605 -0.00284642 8.71771e-24)
(0.996484 -0.00252476 -6.7094e-24)
(0.996876 -0.00223572 9.06074e-24)
(0.997229 -0.00197641 -4.06377e-24)
(0.997546 -0.00174418 3.80036e-24)
(0.99783 -0.0015366 -3.96924e-25)
(0.998085 -0.00135138 -1.68474e-24)
(0.998313 -0.00118643 2.2739e-24)
(0.998516 -0.00103982 -2.00705e-24)
(0.998697 -0.000909753 8.71348e-25)
(0.998858 -0.000794584 -1.63506e-24)
(0.999 -0.000692798 9.05077e-25)
(0.999127 -0.000603006 -1.00573e-24)
(0.999239 -0.000523942 1.136e-24)
(0.999337 -0.000454452 -1.11048e-24)
(0.999424 -0.000393487 -3.62707e-25)
(0.999501 -0.0003401 -2.98705e-25)
(0.999568 -0.000293436 2.20142e-25)
(0.999627 -0.000252724 5.42405e-26)
(0.999678 -0.000217271 1.30558e-25)
(0.999723 -0.00018646 -5.85378e-26)
(0.999762 -0.000159733 1.94674e-25)
(0.999797 -0.000136605 -3.59682e-25)
(0.999826 -0.000116616 5.69489e-27)
(0.999852 -9.94152e-05 -1.11395e-25)
(0.999874 -8.45694e-05 -1.80273e-25)
(0.999893 -7.1967e-05 4.00986e-26)
(0.999911 -6.0903e-05 5.53925e-26)
(0.999922 -5.21086e-05 -8.1198e-27)
(0.999941 -4.31033e-05 5.36354e-26)
(0.953114 -0.0421378 8.86479e-23)
(0.956356 -0.0393021 -2.87577e-23)
(0.959445 -0.0365565 -4.23782e-23)
(0.96238 -0.0339108 4.96533e-23)
(0.965161 -0.0313732 -3.79083e-23)
(0.967791 -0.0289505 -3.70148e-23)
(0.970272 -0.026648 1.0116e-22)
(0.972607 -0.0244695 3.7435e-24)
(0.974799 -0.022417 9.39638e-24)
(0.976854 -0.0204914 -5.79427e-23)
(0.978775 -0.0186921 4.86157e-23)
(0.980568 -0.0170169 -2.56824e-23)
(0.982238 -0.015463 -7.60762e-24)
(0.983789 -0.0140263 -1.24759e-23)
(0.985229 -0.012702 1.97323e-24)
(0.986562 -0.0114847 6.79392e-24)
(0.987795 -0.0103686 -2.3883e-23)
(0.988932 -0.00934745 2.17815e-23)
(0.989979 -0.00841516 -1.9536e-23)
(0.990942 -0.00756547 1.40087e-23)
(0.991826 -0.00679226 7.73579e-24)
(0.992636 -0.00608971 1.69061e-23)
(0.993377 -0.00545219 -8.61443e-24)
(0.994053 -0.0048744 -1.95103e-24)
(0.994669 -0.00435139 -1.53436e-23)
(0.995229 -0.00387858 1.03493e-23)
(0.995738 -0.00345172 -5.00617e-24)
(0.996199 -0.00306687 -1.27117e-24)
(0.996616 -0.00272044 5.65701e-24)
(0.996992 -0.00240907 -7.21801e-24)
(0.997331 -0.0021297 -3.27496e-25)
(0.997636 -0.00187948 -7.04035e-25)
(0.997909 -0.00165578 2.14326e-24)
(0.998154 -0.00145617 1.11375e-24)
(0.998373 -0.0012784 -1.79692e-24)
(0.998569 -0.00112038 7.59906e-25)
(0.998743 -0.000980188 -7.75407e-25)
(0.998898 -0.000856054 1.90102e-24)
(0.999036 -0.000746345 -1.86785e-24)
(0.999158 -0.000649566 5.50625e-25)
(0.999265 -0.000564351 9.68908e-25)
(0.999361 -0.000489458 -6.24802e-25)
(0.999444 -0.000423757 -6.25238e-25)
(0.999518 -0.000366226 1.03024e-24)
(0.999583 -0.000315942 2.638e-25)
(0.99964 -0.000272075 -3.50029e-25)
(0.999689 -0.00023388 1.59307e-25)
(0.999733 -0.000200688 -2.18293e-25)
(0.999771 -0.000171899 3.40433e-25)
(0.999804 -0.000146988 3.55567e-26)
(0.999832 -0.000125462 -2.25507e-25)
(0.999857 -0.000106942 1.73333e-25)
(0.999879 -9.09577e-05 8.04803e-26)
(0.999896 -7.73936e-05 -4.56285e-26)
(0.999914 -6.54838e-05 -1.61233e-25)
(0.999924 -5.60246e-05 -2.901e-27)
(0.999943 -4.63295e-05 1.18732e-25)
(0.959358 -0.0416708 3.29524e-24)
(0.962171 -0.03878 -1.00154e-22)
(0.964849 -0.0359922 5.07271e-23)
(0.967394 -0.0333161 -5.22651e-24)
(0.969807 -0.0307592 1.37116e-25)
(0.972088 -0.0283273 -1.40277e-24)
(0.97424 -0.0260244 6.58778e-24)
(0.976266 -0.0238533 3.59498e-23)
(0.978169 -0.0218148 -6.09064e-23)
(0.979952 -0.0199084 3.23188e-23)
(0.981621 -0.0181324 -5.48083e-23)
(0.983179 -0.0164837 4.35431e-23)
(0.984629 -0.0149583 -1.99308e-23)
(0.985979 -0.0135512 3.40763e-23)
(0.98723 -0.012257 -1.42823e-23)
(0.98839 -0.0110696 9.78333e-24)
(0.989462 -0.00998254 -7.4392e-24)
(0.990451 -0.00898948 1.75366e-24)
(0.991362 -0.00808389 -9.32632e-24)
(0.992199 -0.00725939 1.64111e-23)
(0.992967 -0.00650987 -1.4876e-23)
(0.99367 -0.00582943 -3.6477e-24)
(0.994313 -0.00521248 2.26201e-23)
(0.9949 -0.00465382 -1.95882e-23)
(0.995434 -0.00414861 1.77005e-23)
(0.995919 -0.00369236 -1.64847e-23)
(0.996358 -0.00328092 1.56221e-24)
(0.996757 -0.00291046 -1.31807e-24)
(0.997116 -0.00257744 2.04328e-25)
(0.99744 -0.00227859 6.01536e-24)
(0.997732 -0.00201089 -4.95657e-24)
(0.997994 -0.00177154 2.06838e-24)
(0.998228 -0.00155795 -1.93309e-24)
(0.998438 -0.00136771 -2.43899e-24)
(0.998626 -0.0011986 1.67987e-24)
(0.998793 -0.00104857 -4.58167e-25)
(0.998942 -0.000915724 -9.72786e-25)
(0.999074 -0.000798313 1.01738e-24)
(0.999191 -0.000694742 4.62061e-26)
(0.999294 -0.00060355 4.67265e-25)
(0.999385 -0.000523406 -3.28384e-25)
(0.999466 -0.000453102 1.5503e-25)
(0.999537 -0.000391545 -3.47598e-25)
(0.999599 -0.000337746 8.67981e-26)
(0.999654 -0.000290817 9.81426e-26)
(0.999701 -0.000249958 -1.73936e-25)
(0.999743 -0.000214456 -7.20392e-26)
(0.999779 -0.000183666 -1.36805e-25)
(0.999811 -0.000157028 1.79411e-25)
(0.999839 -0.000134011 2.276e-25)
(0.999862 -0.000114213 -2.23983e-25)
(0.999883 -9.71261e-05 -1.93869e-25)
(0.9999 -8.26316e-05 -1.01902e-25)
(0.999917 -6.99027e-05 8.10682e-26)
(0.999927 -5.98018e-05 1.65355e-26)
(0.999946 -4.94383e-05 7.76338e-26)
(0.962484 -0.0438858 -8.36322e-23)
(0.965012 -0.0408641 4.7969e-23)
(0.967427 -0.0379474 -3.85696e-23)
(0.969727 -0.0351453 5.51006e-23)
(0.971914 -0.0324657 8.35804e-24)
(0.973989 -0.029915 -4.26652e-23)
(0.975951 -0.0274977 -1.74418e-23)
(0.977804 -0.0252167 4.22255e-23)
(0.97955 -0.0230733 2.49073e-23)
(0.98119 -0.0210674 -5.01308e-23)
(0.982729 -0.0191971 3.2516e-24)
(0.98417 -0.0174595 2.04287e-23)
(0.985515 -0.0158507 -1.49656e-23)
(0.986769 -0.0143655 -2.01008e-23)
(0.987936 -0.0129985 2.2222e-23)
(0.989019 -0.0117434 -4.36293e-24)
(0.990022 -0.0105938 -1.56621e-23)
(0.99095 -0.00954278 2.75653e-23)
(0.991805 -0.0085838 -9.35676e-24)
(0.992594 -0.00771021 3.62322e-24)
(0.993318 -0.00691565 -1.33531e-23)
(0.993982 -0.00619399 1.13839e-23)
(0.994589 -0.00553937 1.03205e-23)
(0.995144 -0.00494637 -6.41659e-25)
(0.99565 -0.00440992 1.53488e-24)
(0.99611 -0.00392531 -2.82675e-24)
(0.996528 -0.00348817 -2.55712e-24)
(0.996906 -0.00309448 -7.40795e-24)
(0.997248 -0.00274051 8.15505e-24)