/*--------------------------------*- C++ -*----------------------------------*\
  =========                 |
  \\      /  F ield         | OpenFOAM: The Open Source CFD Toolbox
   \\    /   O peration     | Website:  https://openfoam.org
    \\  /    A nd           | Version:  7
     \\/     M anipulation  |
\*---------------------------------------------------------------------------*/
FoamFile
{
    version     2.0;
    format      ascii;
    class       surfaceScalarField;
    location    "15";
    object      phi;
}
// * * * * * * * * * * * * * * * * * * * * * * * * * * * * * * * * * * * * * //

dimensions      [0 3 -1 0 0 0 0];

internalField   nonuniform List<scalar> 
5137
(
6.71689e-05
-3.77808e-05
8.96898e-05
-4.48734e-05
0.000115898
-5.22282e-05
0.000145861
-5.97173e-05
0.000179562
-6.71687e-05
0.000216871
-7.43573e-05
0.000257523
-8.10156e-05
0.00030105
-8.67385e-05
-9.16604e-05
0.000347053
6.90063e-05
-5.70481e-05
9.18639e-05
-6.7731e-05
0.000118448
-7.88118e-05
0.000148829
-9.00993e-05
0.000182997
-0.000101336
0.000220824
-0.000112184
0.000262051
-0.000122242
0.00030621
-0.000130898
-0.000138352
0.000352902
7.1758e-05
-7.67669e-05
9.51195e-05
-9.10924e-05
0.000122265
-0.000105957
0.000153273
-0.000121107
0.000188138
-0.000136201
0.00022674
-0.000150787
0.000268826
-0.000164328
0.000313931
-0.000176003
-0.000186072
0.000361651
7.54173e-05
-9.70856e-05
9.94481e-05
-0.000115123
0.00012734
-0.000133848
0.000159179
-0.000152947
0.000194969
-0.000171991
0.000234601
-0.000190419
0.000277828
-0.000207555
0.000324187
-0.000222362
-0.000235158
0.000373272
7.99752e-05
-0.000118151
0.000104839
-0.000139987
0.000133658
-0.000162668
0.000166531
-0.00018582
0.000203472
-0.000208933
0.000244383
-0.00023133
0.000289027
-0.000252198
0.000336944
-0.000270279
-0.000285939
0.000387726
8.54208e-05
-0.000140108
0.000111278
-0.000165845
0.000141205
-0.000192594
0.00017531
-0.000219925
0.000213622
-0.000247245
0.000256057
-0.000273765
0.000302388
-0.00029853
0.000352162
-0.000320053
-0.000338741
0.000404963
9.1741e-05
0.00011875
-0.000192854
0.000149958
-0.000223802
0.00018549
-0.000255456
0.000225388
-0.000287143
0.000269586
-0.000317962
0.000317869
-0.000346813
0.000369789
-0.000371972
-0.000393877
0.000424925
0.000127236
-0.00022117
0.000159897
-0.000256463
0.000197043
-0.000292602
0.000238737
-0.000328838
0.000284929
-0.000364154
0.00033542
-0.000397305
0.000389768
-0.00042632
-0.000451654
0.000447544
0.000136714
-0.000250942
0.000170994
-0.000290742
0.000209938
-0.000331547
0.00025363
-0.00037253
0.000302039
-0.000412563
0.000354986
-0.000450251
0.000412033
-0.000483367
-0.000512365
0.000472744
0.000147161
-0.000282316
0.00018322
-0.000326801
0.000224139
-0.000372466
0.000270024
-0.000418414
0.000320865
-0.000463404
0.000376503
-0.000505889
0.000436509
-0.000543373
-0.000576293
0.000500437
0.000158552
-0.000315434
0.000196544
-0.000364793
0.000239608
-0.00041553
0.00028787
-0.000466676
0.000341348
-0.000516881
0.000399903
-0.000564445
0.000463116
-0.000606586
-0.000643705
0.000530529
0.000170856
-0.00035043
0.000210931
-0.000404867
0.0002563
-0.000460899
0.000307117
-0.000517493
0.000363425
-0.000573189
0.000425111
-0.00062613
0.000491765
-0.00067324
-0.000714855
0.000562915
0.000184045
-0.000387436
0.000226343
-0.000447165
0.000274172
-0.000508728
0.00032771
-0.000571032
0.00038703
-0.000632509
0.000452044
-0.000691144
0.000522358
-0.000743554
-0.000789979
0.000597483
0.000198087
-0.000426574
0.000242741
-0.000491819
0.000293173
-0.00055916
0.000349588
-0.000627447
0.000412089
-0.00069501
0.000480617
-0.000759673
0.000554793
-0.00081773
-0.000869298
0.000634112
0.000212945
-0.000467963
0.000260082
-0.000538956
0.000313252
-0.00061233
0.000372688
-0.000686883
0.000438525
-0.000760847
0.000510736
-0.000831884
0.00058896
-0.000895954
-0.000953011
0.000672673
0.000228584
-0.000511713
0.000278322
-0.000588695
0.000334355
-0.000668363
0.000396944
-0.000749472
0.000466258
-0.00083016
0.000542303
-0.00090793
0.000624741
-0.000978392
-0.0010413
0.000713031
0.000244966
0.000297415
-0.000641143
0.000356424
-0.000727372
0.000422285
-0.000815333
0.000495201
-0.000903076
0.000575216
-0.000987944
0.000662015
-0.00106519
-0.00113433
0.000755041
0.00031731
-0.000696401
0.0003794
-0.000789462
0.000448639
-0.000884573
0.000525266
-0.000979703
0.000609365
-0.00107204
0.000700653
-0.00115648
-0.00123223
0.000798553
0.000337957
-0.000754562
0.000403219
-0.000854725
0.000475929
-0.000957282
0.00055636
-0.00106013
0.00064464
-0.00116032
0.00074052
-0.00125236
-0.00133511
0.00084341
0.000359303
-0.000815706
0.000427819
-0.000923241
0.000504077
-0.00103354
0.000588388
-0.00114445
0.000680924
-0.00125286
0.000781479
-0.00135291
-0.00144309
0.00088945
0.000381293
-0.000879906
0.000453132
-0.00099508
0.000533002
-0.00111341
0.000621252
-0.00123269
0.000718097
-0.00134971
0.000823386
-0.0014582
-0.00155621
0.000936506
0.000403872
-0.000947225
0.000479091
-0.0010703
0.000562623
-0.00119694
0.00065485
-0.00132492
0.000756038
-0.00145089
0.000866095
-0.00156826
-0.00167452
0.000984405
0.00042698
0.000505625
-0.00114894
0.000592854
-0.00128417
0.00068908
-0.00142115
0.000794621
-0.00155643
0.000909455
-0.00168309
-0.00179803
0.00103297
0.000532663
-0.00123105
0.00062361
-0.00137512
0.00072384
-0.00152138
0.000833721
-0.00166632
0.000953315
-0.00180269
-0.00192675
0.00108203
0.000560132
-0.00131664
0.000654803
-0.00146979
0.000759023
-0.0016256
0.000873208
-0.0017805
0.000997521
-0.001927
-0.00206061
0.00113139
0.000587956
-0.00140572
0.000686346
-0.00156818
0.000794525
-0.00173378
0.000912957
-0.00189893
0.00104192
-0.00205596
-0.00219957
0.00118088
0.000616059
-0.0014983
0.000718149
-0.00167027
0.000830242
-0.00184587
0.000952841
-0.00202153
0.00108636
-0.00218948
-0.00234352
0.00123031
0.000644363
0.000750123
-0.00177603
0.000866068
-0.00196182
0.000992735
-0.0021482
0.00113069
-0.00232744
-0.00249233
0.0012795
0.000782176
-0.00188542
0.000901902
-0.00208154
0.00103252
-0.00227882
0.00117477
-0.00246969
-0.00264585
0.00132828
0.000814217
-0.00199839
0.000937643
-0.00220497
0.00107208
-0.00241325
0.00121845
-0.00261606
-0.00280386
0.00137646
0.000846153
0.000973191
-0.00233201
0.0011113
-0.00255136
0.00126162
-0.00276638
-0.00296612
0.00142388
0.00100845
-0.00246257
0.00115009
-0.002693
0.00130415
-0.00292044
-0.00313234
0.00147037
0.00104332
-0.00259658
0.00118837
-0.00283805
0.00134596
-0.00307803
-0.00330216
0.00151578
0.00107771
0.00122606
-0.00298639
0.00138699
-0.00323896
-0.00347513
0.00155997
0.00126311
-0.00313798
0.00142723
-0.00340308
-0.00365076
0.00160285
0.00129948
-0.00329285
0.00146672
-0.00357032
-0.00382846
0.00164442
0.00133515
0.00150554
-0.00374072
-0.00400774
0.00168482
0.00154399
-0.00391459
-0.00418878
0.00172503
0.00158374
-0.0040941
-0.00437185
0.00176681
0.00162501
-0.00461128
0.00186444
-0.00483645
0.00188028
0.00188992
0.000569284
-1.74792e-05
0.000587086
-1.78019e-05
0.000605209
-1.81228e-05
0.000623647
-1.84383e-05
0.000642393
-1.87451e-05
0.000661433
-1.90405e-05
0.000680755
-1.93224e-05
0.000700344
-1.95888e-05
0.000720182
-1.98383e-05
0.000740252
-2.00698e-05
0.000760535
-2.02824e-05
0.00078101
-2.04755e-05
0.000801659
-2.06489e-05
0.000822461
-2.08024e-05
0.000843398
-2.0936e-05
0.000864448
-2.105e-05
0.000885592
-2.11446e-05
0.000906812
-2.12201e-05
0.00092809
-2.12772e-05
0.000949406
-2.13162e-05
0.000970744
-2.13379e-05
0.000992087
-2.13427e-05
0.00101342
-2.13314e-05
0.00103472
-2.13045e-05
0.00105599
-2.12627e-05
0.00107719
-2.12067e-05
0.00109833
-2.1137e-05
0.00111938
-2.10544e-05
0.00114034
-2.09594e-05
0.0011612
-2.08527e-05
0.00118193
-2.07348e-05
-2.06063e-05
0.000363015
-3.19778e-05
0.000378651
-3.13198e-05
0.000394104
-3.09489e-05
0.000409471
-3.07721e-05
0.000424836
-3.07665e-05
0.000440273
-3.09082e-05
0.000455843
-3.11722e-05
0.000471597
-3.15373e-05
0.000487574
-3.19849e-05
0.000503809
-3.24982e-05
0.000520325
-3.3062e-05
0.000537142
-3.36629e-05
0.000554272
-3.42889e-05
0.000571722
-3.49291e-05
0.000589494
-3.5574e-05
0.000607586
-3.62152e-05
0.000625993
-3.68453e-05
0.000644706
-3.74581e-05
0.000663714
-3.80482e-05
0.000683003
-3.86111e-05
0.000702557
-3.91431e-05
0.00072236
-3.96413e-05
0.000742394
-4.01035e-05
0.00076264
-4.0528e-05
0.000783078
-4.09136e-05
0.000803689
-4.12598e-05
0.000824453
-4.15663e-05
0.00084535
-4.18331e-05
0.00086636
-4.20607e-05
0.000887465
-4.22495e-05
0.000908646
-4.24005e-05
0.000929883
-4.25145e-05
0.000951159
-4.25926e-05
0.000972457
-4.26359e-05
0.00099376
-4.26457e-05
0.00101505
-4.26232e-05
0.00103632
-4.25697e-05
0.00105754
-4.24864e-05
0.00107871
-4.23747e-05
0.00109981
-4.22358e-05
0.00112082
-4.2071e-05
0.00114175
-4.18815e-05
0.00116256
-4.16686e-05
0.00118326
-4.14333e-05
-4.11769e-05
0.000368757
-4.78334e-05
0.000384298
-4.68602e-05
0.000399665
-4.63168e-05
0.000414954
-4.60608e-05
0.000430247
-4.60597e-05
0.000445617
-4.62778e-05
0.000461123
-4.66782e-05
0.000476815
-4.72292e-05
0.000492733
-4.79028e-05
0.000508909
-4.86741e-05
0.000525367
-4.95206e-05
0.000542127
-5.04221e-05
0.000559198
-5.13607e-05
0.00057659
-5.23202e-05
0.000594302
-5.32863e-05
0.000612333
-5.42466e-05
0.000630678
-5.51901e-05
0.000649327
-5.61074e-05
0.00066827
-5.69905e-05
0.000687491
-5.78327e-05
0.000706977
-5.86286e-05
0.000726709
-5.93739e-05
0.000746671
-6.00652e-05
0.000766843
-6.07001e-05
0.000787207
-6.1277e-05
0.000807742
-6.17948e-05
0.000828428
-6.22532e-05
0.000849248
-6.26524e-05
0.00087018
-6.29928e-05
0.000891206
-6.32754e-05
0.000912306
-6.35013e-05
0.000933464
-6.36721e-05
0.000954661
-6.37891e-05
0.000975879
-6.38543e-05
0.000997102
-6.38692e-05
0.00101832
-6.38359e-05
0.0010395
-6.37562e-05
0.00106065
-6.36321e-05
0.00108174
-6.34654e-05
0.00110276
-6.3258e-05
0.0011237
-6.30119e-05
0.00114455
-6.27289e-05
0.00116529
-6.24107e-05
0.00118592
-6.20592e-05
-6.16761e-05
0.000377347
-6.35289e-05
0.000392744
-6.22572e-05
0.000407984
-6.15567e-05
0.000423156
-6.12327e-05
0.000438341
-6.12447e-05
0.000453609
-6.15462e-05
0.000469019
-6.20881e-05
0.000484618
-6.28287e-05
0.000500447
-6.37312e-05
0.000516535
-6.47624e-05
0.000532907
-6.58924e-05
0.00054958
-6.70948e-05
0.000566564
-6.83455e-05
0.000583867
-6.96232e-05
0.00060149
-7.09092e-05
0.00061943
-7.21867e-05
0.000637682
-7.34414e-05
0.000656235
-7.46609e-05
0.000675079
-7.58345e-05
0.0006942
-7.69536e-05
0.000713583
-7.8011e-05
0.00073321
-7.9001e-05
0.000753064
-7.99191e-05
0.000773126
-8.07623e-05
0.000793377
-8.15284e-05
0.000813798
-8.22161e-05
0.00083437
-8.28249e-05
0.000855073
-8.33551e-05
0.000875887
-8.38073e-05
0.000896795
-8.41829e-05
0.000917777
-8.44833e-05
0.000938815
-8.47104e-05
0.000959892
-8.48664e-05
0.000980991
-8.49534e-05
0.0010021
-8.49739e-05
0.00102319
-8.49303e-05
0.00104426
-8.48252e-05
0.00106529
-8.4661e-05
0.00108626
-8.44404e-05
0.00110717
-8.41658e-05
0.001128
-8.38397e-05
0.00114873
-8.34646e-05
0.00116937
-8.30428e-05
0.00118988
-8.25767e-05
-8.20685e-05
0.000388755
-7.9011e-05
0.00040396
-7.74627e-05
0.000419029
-7.6626e-05
0.000434045
-7.62487e-05
0.000449086
-7.62852e-05
0.000464219
-7.66792e-05
0.000479501
-7.73697e-05
0.000494977
-7.83053e-05
0.000510686
-7.94403e-05
0.000526658
-8.07337e-05
0.000542914
-8.21486e-05
0.000559471
-8.3652e-05
0.00057634
-8.52142e-05
0.000593525
-8.6809e-05
0.000611029
-8.84128e-05
0.000628847
-9.00052e-05
0.000646974
-9.15683e-05
0.0006654
-9.30869e-05
0.000684113
-9.45479e-05
0.0007031
-9.59405e-05
0.000722345
-9.72561e-05
0.000741832
-9.84875e-05
0.000761542
-9.96295e-05
0.000781458
-0.000100678
0.000801561
-0.000101631
0.000821831
-0.000102486
0.000842249
-0.000103243
0.000862797
-0.000103903
0.000883455
-0.000104466
0.000904205
-0.000104933
0.000925029
-0.000105307
0.000945909
-0.00010559
0.000966828
-0.000105785
0.000987769
-0.000105894
0.00100872
-0.000105921
0.00102965
-0.000105868
0.00105057
-0.000105738
0.00107144
-0.000105535
0.00109226
-0.000105262
0.00111302
-0.000104922
0.0011337
-0.000104517
0.00115428
-0.000104052
0.00117477
-0.000103529
0.00119514
-0.00010295
-0.00010232
0.000402942
-9.42265e-05
0.000417908
-9.24289e-05
0.000432763
-9.14814e-05
0.000447584
-9.10693e-05
0.000462444
-9.11451e-05
0.000477407
-9.1643e-05
0.000492529
-9.24909e-05
0.000507851
-9.36279e-05
0.000523411
-9.50001e-05
0.000539236
-9.65588e-05
0.000555348
-9.82601e-05
0.000571761
-0.000100065
0.000588484
-0.000101938
0.000605524
-0.000103848
0.000622878
-0.000105767
0.000640544
-0.000107672
0.000658516
-0.00010954
0.000676782
-0.000111354
0.000695333
-0.000113098
0.000714152
-0.00011476
0.000733226
-0.00011633
0.000752537
-0.000117799
0.000772068
-0.000119161
0.000791802
-0.000120411
0.000811718
-0.000121548
0.0008318
-0.000122568
0.000852027
-0.000123471
0.000872382
-0.000124258
0.000892846
-0.000124929
0.000913401
-0.000125488
0.000934028
-0.000125935
0.000954711
-0.000126273
0.000975433
-0.000126507
0.000996177
-0.000126639
0.00101693
-0.000126672
0.00103767
-0.00012661
0.00105839
-0.000126457
0.00107907
-0.000126217
0.0010997
-0.000125893
0.00112027
-0.000125489
0.00114076
-0.000125009
0.00116117
-0.000124456
0.00118147
-0.000123834
0.00120167
-0.000123146
-0.000122395
0.000419859
-0.000109122
0.000434537
-0.000107108
0.000449136
-0.00010608
0.000463722
-0.000105655
0.000478364
-0.000105788
0.000493125
-0.000106403
0.000508053
-0.000107419
0.000523191
-0.000108766
0.000538572
-0.000110381
0.000554221
-0.000112208
0.00057016
-0.000114198
0.000586399
-0.000116305
0.000602949
-0.000118488
0.000619812
-0.000120711
0.000636988
-0.000122943
0.000654472
-0.000125156
0.000672257
-0.000127325
0.000690333
-0.000129429
0.000708687
-0.000131452
0.000727306
-0.000133379
0.000746175
-0.000135198
0.000765276
-0.0001369
0.000784593
-0.000138478
0.000804108
-0.000139926
0.000823803
-0.000141242
0.000843659
-0.000142424
0.000863659
-0.00014347
0.000883783
-0.000144382
0.000904015
-0.000145161
0.000924336
-0.000145809
0.000944729
-0.000146328
0.000965177
-0.000146722
0.000985664
-0.000146994
0.00100617
-0.000147148
0.00102669
-0.000147189
0.0010472
-0.00014712
0.00106769
-0.000146946
0.00108814
-0.00014667
0.00110855
-0.000146298
0.00112889
-0.000145833
0.00114916
-0.000145279
0.00116935
-0.000144641
0.00118943
-0.000143923
0.00120942
-0.000143129
-0.000142262
0.000439448
-0.000123645
0.000453791
-0.000121451
0.000468089
-0.000120378
0.000482401
-0.000119967
0.00049679
-0.000120176
0.000511312
-0.000120926
0.000526016
-0.000122123
0.000540938
-0.000123688
0.000556109
-0.000125553
0.000571554
-0.000127653
0.00058729
-0.000129934
0.000603328
-0.000132343
0.000619675
-0.000134835
0.000636333
-0.000137369
0.000653301
-0.000139911
0.000670572
-0.000142427
0.00068814
-0.000144892
0.000705993
-0.000147282
0.000724119
-0.000149579
0.000742505
-0.000151765
0.000761134
-0.000153827
0.000779991
-0.000155757
0.000799059
-0.000157546
0.00081832
-0.000159188
0.000837757
-0.000160679
0.000857352
-0.000162019
0.000877087
-0.000163205
0.000896944
-0.00016424
0.000916906
-0.000165123
0.000936956
-0.000165859
0.000957078
-0.000166449
0.000977254
-0.000166898
0.000997469
-0.000167209
0.00101771
-0.000167387
0.00103795
-0.000167436
0.0010582
-0.000167361
0.00107842
-0.000167167
0.00109861
-0.000166858
0.00111875
-0.00016644
0.00113883
-0.000165917
0.00115885
-0.000165293
0.00117878
-0.000164574
0.00119862
-0.000163764
0.00121836
-0.000162867
-0.000161887
0.000461641
-0.000137742
0.000475601
-0.00013541
0.000489556
-0.000134333
0.000503553
-0.000133964
0.000517651
-0.000134274
0.000531902
-0.000135177
0.000546347
-0.000136568
0.000561023
-0.000138363
0.000575956
-0.000140485
0.000591167
-0.000142865
0.000606671
-0.000145438
0.000622479
-0.00014815
0.000638594
-0.00015095
0.000655018
-0.000153793
0.000671747
-0.00015664
0.000688776
-0.000159456
0.000706095
-0.000162211
0.000723695
-0.000164881
0.000741561
-0.000167445
0.00075968
-0.000169884
0.000778037
-0.000172184
0.000796616
-0.000174336
0.0008154
-0.00017633
0.000834372
-0.00017816
0.000853516
-0.000179823
0.000872813
-0.000181316
0.000892247
-0.000182639
0.000911801
-0.000183793
0.000931458
-0.00018478
0.000951201
-0.000185602
0.000971015
-0.000186263
0.000990883
-0.000186766
0.00101079
-0.000187116
0.00103072
-0.000187319
0.00105066
-0.000187378
0.0010706
-0.000187299
0.00109052
-0.000187087
0.00111041
-0.000186748
0.00113026
-0.000186287
0.00115005
-0.000185708
0.00116977
-0.000185018
0.00118942
-0.000184222
0.00120898
-0.000183323
0.00122844
-0.000182328
-0.000181241
0.000486362
-0.00015136
0.00049989
-0.000148938
0.000513458
-0.000147901
0.000527101
-0.000147608
0.000540872
-0.000148045
0.000554816
-0.000149121
0.000568972
-0.000150724
0.00058337
-0.000152761
0.000598034
-0.000155149
0.000612982
-0.000157813
0.000628226
-0.000160683
0.000643775
-0.000163699
0.000659629
-0.000166805
0.00067579
-0.000169954
0.000692252
-0.000173102
0.000709007
-0.000176212
0.000726048
-0.000179252
0.000743361
-0.000182195
0.000760935
-0.000185019
0.000778756
-0.000187704
0.000796807
-0.000190236
0.000815074
-0.000192603
0.00083354
-0.000194796
0.000852189
-0.000196809
0.000871004
-0.000198638
0.000889969
-0.000200281
0.000909068
-0.000201738
0.000928283
-0.000203009
0.000947599
-0.000204096
0.000967
-0.000205003
0.00098647
-0.000205733
0.00100599
-0.000206291
0.00102556
-0.000206681
0.00104515
-0.000206908
0.00106475
-0.000206979
0.00108435
-0.000206898
0.00110393
-0.000206672
0.00112349
-0.000206305
0.00114301
-0.000205804
0.00116248
-0.000205175
0.00118188
-0.000204423
0.00120121
-0.000203553
0.00122046
-0.000202571
0.00123961
-0.000201483
-0.000200294
0.000513524
-0.000164447
0.000526572
-0.000161985
0.00053971
-0.000161039
0.00055296
-0.000160858
0.000566366
-0.000161451
0.000579969
-0.000162725
0.000593803
-0.000164558
0.000607892
-0.000166851
0.000622258
-0.000169515
0.000636914
-0.000172469
0.000651869
-0.000175639
0.00066713
-0.000178959
0.000682695
-0.000182371
0.000698563
-0.000185822
0.000714728
-0.000189266
0.000731181
-0.000192664
0.000747911
-0.000195983
0.000764908
-0.000199192
0.000782158
-0.000202269
0.000799647
-0.000205193
0.00081736
-0.000207949
0.000835282
-0.000210524
0.000853396
-0.00021291
0.000871688
-0.000215101
0.000890141
-0.000217091
0.000908739
-0.000218879
0.000927467
-0.000220466
0.000946309
-0.000221851
0.00096525
-0.000223037
0.000984274
-0.000224027
0.00100337
-0.000224826
0.00102251
-0.000225438
0.0010417
-0.000225869
0.00106092
-0.000226123
0.00108015
-0.000226207
0.00109937
-0.000226127
0.00111859
-0.000225889
0.00113779
-0.000225498
0.00115694
-0.000224962
0.00117605
-0.000224286
0.00119511
-0.000223476
0.00121409
-0.000222538
0.001233
-0.000221479
0.00125182
-0.000220303
-0.000219017
0.000543033
-0.000176952
0.000555553
-0.000174506
0.000568217
-0.000173703
0.000581034
-0.000173674
0.000594039
-0.000174456
0.000607267
-0.000175953
0.000620746
-0.000178036
0.000634496
-0.000180601
0.000648534
-0.000183552
0.000662868
-0.000186803
0.000677507
-0.000190277
0.000692451
-0.000193903
0.000707698
-0.000197618
0.000723245
-0.000201368
0.000739082
-0.000205104
0.000755202
-0.000208784
0.000771593
-0.000212373
0.000788242
-0.000215841
0.000805137
-0.000219163
0.000822262
-0.000222318
0.000839604
-0.000225291
0.000857147
-0.000228068
0.000874877
-0.00023064
0.000892778
-0.000233002
0.000910835
-0.000235148
0.000929033
-0.000237077
0.000947358
-0.00023879
0.000965793
-0.000240286
0.000984325
-0.000241569
0.00100294
-0.000242642
0.00102162
-0.000243509
0.00104036
-0.000244176
0.00105914
-0.000244648
0.00107795
-0.000244931
0.00109677
-0.000245031
0.0011156
-0.000244954
0.00113442
-0.000244708
0.00115322
-0.000244297
0.00117198
-0.00024373
0.00119071
-0.000243012
0.00120938
-0.000242149
0.00122799
-0.000241149
0.00124653
-0.000240018
0.00126499
-0.000238761
-0.000237385
0.000574785
-0.000188822
0.000586731
-0.000186452
0.000598878
-0.00018585
0.000611221
-0.000186018
0.000623788
-0.000187023
0.000636608
-0.000188773
0.0006497
-0.000191129
0.000663081
-0.000193981
0.00067676
-0.000197231
0.000690745
-0.000200788
0.000705037
-0.00020457
0.000719636
-0.000208502
0.000734537
-0.000212519
0.000749733
-0.000216564
0.000765214
-0.000220585
0.000780971
-0.000224541
0.000796991
-0.000228394
0.000813262
-0.000232112
0.000829769
-0.00023567
0.000846499
-0.000239048
0.000863438
-0.000242229
0.000880571
-0.000245201
0.000897884
-0.000247953
0.000915362
-0.00025048
0.00093299
-0.000252777
0.000950755
-0.000254843
0.000968643
-0.000256677
0.00098664
-0.000258282
0.00100473
-0.00025966
0.0010229
-0.000260815
0.00104115
-0.000261751
0.00105944
-0.000262473
0.00107778
-0.000262988
0.00109615
-0.000263302
0.00111454
-0.00026342
0.00113294
-0.000263351
0.00115133
-0.000263099
0.00116971
-0.000262673
0.00118806
-0.00026208
0.00120637
-0.000261325
0.00122464
-0.000260416
0.00124285
-0.00025936
0.00126099
-0.000258163
0.00127906
-0.000256831
-0.000255371
0.000608668
-0.000200007
0.000619993
-0.000197777
0.000631581
-0.000197438
0.000643412
-0.000197849
0.000655505
-0.000199116
0.000667882
-0.00020115
0.000680555
-0.000203802
0.000693536
-0.000206961
0.000706828
-0.000210524
0.000720434
-0.000214394
0.000734352
-0.000218488
0.000748577
-0.000222727
0.000763103
-0.000227044
0.000777919
-0.00023138
0.000793015
-0.000235681
0.000808378
-0.000239905
0.000823997
-0.000244013
0.000839858
-0.000247973
0.000855948
-0.00025176
0.000872251
-0.000255352
0.000888755
-0.000258734
0.000905446
-0.000261891
0.00092231
-0.000264816
0.000939332
-0.000267502
0.000956501
-0.000269945
0.000973802
-0.000272144
0.000991222
-0.000274097
0.00100875
-0.000275809
0.00102637
-0.00027728
0.00104407
-0.000278516
0.00106184
-0.00027952
0.00107967
-0.0002803
0.00109754
-0.000280859
0.00111544
-0.000281206
0.00113337
-0.000281347
0.00115131
-0.000281288
0.00116924
-0.000281037
0.00118717
-0.0002806
0.00120508
-0.000279986
0.00122295
-0.000279201
0.00124079
-0.000278251
0.00125857
-0.000277145
0.0012763
-0.000275889
0.00129396
-0.00027449
-0.000272954
0.000644563
-0.000210458
0.00065522
-0.000208434
0.000666207
-0.000208424
0.000677487
-0.000209128
0.00068907
-0.0002107
0.000700971
-0.00021305
0.000713195
-0.000216026
0.000725745
-0.000219512
0.000738621
-0.0002234
0.00075182
-0.000227593
0.000765336
-0.000232003
0.000779159
-0.00023655
0.00079328
-0.000241165
0.000807687
-0.000245787
0.000822368
-0.000250362
0.000837309
-0.000254846
0.000852496
-0.0002592
0.000867917
-0.000263394
0.000883557
-0.0002674
0.000899403
-0.000271198
0.000915441
-0.000274772
0.000931658
-0.000278109
0.000948042
-0.0002812
0.000964578
-0.000284039
0.000981256
-0.000286623
0.000998062
-0.00028895
0.00101498
-0.00029102
0.00103201
-0.000292835
0.00104913
-0.000294399
0.00106633
-0.000295716
0.0010836
-0.00029679
0.00110093
-0.000297628
0.0011183
-0.000298235
0.00113572
-0.000298618
0.00115315
-0.000298784
0.00117061
-0.000298741
0.00118806
-0.000298495
0.00120552
-0.000298053
0.00122296
-0.000297424
0.00124037
-0.000296615
0.00125775
-0.000295632
0.00127509
-0.000294483
0.00129237
-0.000293176
0.0013096
-0.000291717
-0.000290114
0.000682341
-0.000220126
0.000692287
-0.00021838
0.000702631
-0.000218768
0.000713322
-0.000219819
0.000724361
-0.000221739
0.000735753
-0.000224442
0.000747496
-0.00022777
0.000759586
-0.000231602
0.000772018
-0.000235831
0.000784781
-0.000240357
0.000797865
-0.000245087
0.000811258
-0.000249943
0.000824947
-0.000254853
0.000838916
-0.000259756
0.000853152
-0.000264598
0.00086764
-0.000269334
0.000882366
-0.000273926
0.000897315
-0.000278343
0.000912476
-0.00028256
0.000927833
-0.000286555
0.000943375
-0.000290313
0.000959088
-0.000293822
0.000974961
-0.000297073
0.000990982
-0.00030006
0.00100714
-0.00030278
0.00102342
-0.000305232
0.00103982
-0.000307416
0.00105632
-0.000309334
0.00107291
-0.00031099
0.00108958
-0.000312388
0.00110632
-0.000313534
0.00112313
-0.000314432
0.00113998
-0.000315089
0.00115687
-0.000315512
0.0011738
-0.000315709
0.00119074
-0.000315685
0.0012077
-0.00031545
0.00122466
-0.00031501
0.0012416
-0.000314373
0.00125853
-0.000313546
0.00127544
-0.000312537
0.00129231
-0.000311354
0.00130914
-0.000310003
0.00132591
-0.000308493
-0.00030683
0.000721869
-0.000228965
0.000731059
-0.00022757
0.00074072
-0.000228429
0.000750785
-0.000229884
0.000761245
-0.000232199
0.000772096
-0.000235294
0.000783329
-0.000239002
0.000794931
-0.000243204
0.000806889
-0.00024779
0.000819189
-0.000252656
0.000831814
-0.000257713
0.000844748
-0.000262878
0.000857974
-0.00026808
0.000871476
-0.000273258
0.000885238
-0.000278359
0.000899243
-0.000283339
0.000913477
-0.00028816
0.000927926
-0.000292792
0.000942576
-0.00029721
0.000957414
-0.000301394
0.000972429
-0.000305328
0.000987609
-0.000309002
0.00100294
-0.000312406
0.00101842
-0.000315536
0.00103403
-0.000318388
0.00104976
-0.000320962
0.0010656
-0.000323258
0.00108154
-0.000325279
0.00109758
-0.000327027
0.0011137
-0.000328507
0.00112989
-0.000329726
0.00114615
-0.000330687
0.00116246
-0.000331398
0.00117881
-0.000331866
0.0011952
-0.000332098
0.00121161
-0.0003321
0.00122805
-0.000331882
0.00124448
-0.000331449
0.00126092
-0.000330811
0.00127735
-0.000329975
0.00129376
-0.000328948
0.00131015
-0.000327738
0.0013265
-0.000326353
0.0013428
-0.0003248
-0.000323087
0.000763004
-0.000236928
0.000771396
-0.000235963
0.000780335
-0.000237368
0.000789739
-0.000239288
0.000799587
-0.000242047
0.000809867
-0.000245573
0.000820559
-0.000249695
0.000831644
-0.000254289
0.000843101
-0.000259247
0.00085491
-0.000264464
0.000867047
-0.000269851
0.000879494
-0.000275324
0.00089223
-0.000280815
0.000905235
-0.000286263
0.000918492
-0.000291616
0.000931985
-0.000296831
0.000945697
-0.000301872
0.000959614
-0.00030671
0.000973724
-0.00031132
0.000988014
-0.000315684
0.00100247
-0.000319787
0.00101709
-0.000323619
0.00103186
-0.000327171
0.00104676
-0.00033044
0.00106179
-0.000333421
0.00107694
-0.000336114
0.00109221
-0.000338521
0.00110757
-0.000340644
0.00112303
-0.000342485
0.00113857
-0.00034405
0.00115419
-0.000345344
0.00116988
-0.000346372
0.00118562
-0.000347141
0.00120141
-0.000347659
0.00121724
-0.000347931
0.00123311
-0.000347966
0.001249
-0.000347771
0.0012649
-0.000347354
0.00128082
-0.000346723
0.00129673
-0.000345885
0.00131263
-0.000344848
0.00132851
-0.000343621
0.00134437
-0.00034221
0.00136019
-0.000340624
-0.00033887
0.000805597
-0.000243973
0.000813152
-0.000243517
0.000821332
-0.000245548
0.00083004
-0.000247995
0.000839244
-0.000251252
0.000848923
-0.000255252
0.000859047
-0.000259819
0.000869588
-0.00026483
0.000880517
-0.000270175
0.000891805
-0.000275753
0.000903428
-0.000281473
0.000915359
-0.000287255
0.000927574
-0.000293031
0.000940053
-0.000298742
0.000952776
-0.000304339
0.000965726
-0.000309781
0.000978885
-0.000315032
0.000992242
-0.000320066
0.00100578
-0.00032486
0.00101949
-0.000329396
0.00103337
-0.000333662
0.0010474
-0.000337646
0.00106157
-0.000341341
0.00107587
-0.000344744
0.0010903
-0.000347852
0.00110485
-0.000350664
0.00111951
-0.000353181
0.00113427
-0.000355406
0.00114913
-0.000357342
0.00116408
-0.000358994
0.0011791
-0.000360367
0.00119419
-0.000361466
0.00120935
-0.000362299
0.00122456
-0.000362872
0.00123982
-0.000363191
0.00125512
-0.000363265
0.00127045
-0.000363102
0.00128581
-0.000362708
0.00130118
-0.000362092
0.00131655
-0.000361261
0.00133193
-0.000360224
0.0013473
-0.000358988
0.00136265
-0.000357562
0.00137798
-0.000355953
-0.000354169
0.000849494
-0.000250057
0.000856173
-0.000250196
0.00086356
-0.000252935
0.000871539
-0.000255975
0.000880071
-0.000259783
0.000889121
-0.000264302
0.000898649
-0.000269347
0.000908619
-0.000274799
0.000918992
-0.000280548
0.000929734
-0.000286495
0.000940813
-0.000292552
0.000952199
-0.000298641
0.000963865
-0.000304697
0.000975788
-0.000310665
0.000987946
-0.000316498
0.00100032
-0.000322157
0.0010129
-0.00032761
0.00102567
-0.000332832
0.00103861
-0.000337801
0.00105171
-0.000342503
0.00106498
-0.000346924
0.00107839
-0.000351055
0.00109193
-0.00035489
0.00110561
-0.000358425
0.00111942
-0.000361658
0.00113334
-0.000364587
0.00114738
-0.000367216
0.00116152
-0.000369545
0.00117575
-0.000371579
0.00119008
-0.000373321
0.00120449
-0.000374777
0.00121898
-0.000375953
0.00123353
-0.000376855
0.00124815
-0.000377489
0.00126282
-0.000377863
0.00127754
-0.000377984
0.0012923
-0.00037786
0.00130709
-0.000377498
0.00132191
-0.000376906
0.00133674
-0.000376092
0.00135158
-0.000375064
0.00136642
-0.00037383
0.00138125
-0.000372398
0.00139608
-0.000370776
0.00141088
-0.000368972
-0.000366993
0.000894536
-0.000255142
0.000900303
-0.000255963
0.000906863
-0.000259496
0.000914085
-0.000263197
0.000921916
-0.000267614
0.000930311
-0.000272697
0.000939218
-0.000278255
0.00094859
-0.00028417
0.00095838
-0.000290339
0.000968548
-0.000296663
0.000979055
-0.000303059
0.000989867
-0.000309453
0.00100095
-0.000315784
0.00101229
-0.000322001
0.00102385
-0.000328061
0.00103563
-0.000333929
0.00104759
-0.000339575
0.00105974
-0.000344977
0.00107205
-0.000350115
0.00108452
-0.000354976
0.00109715
-0.000359548
0.00110991
-0.000363822
0.00112282
-0.000367794
0.00113585
-0.000371459
0.00114901
-0.000374816
0.00116229
-0.000377864
0.00117568
-0.000380605
0.00118917
-0.000383042
0.00120277
-0.000385176
0.00121646
-0.000387014
0.00123024
-0.000388559
0.00124411
-0.000389817
0.00125805
-0.000390795
0.00127206
-0.000391498
0.00128613
-0.000391934
0.00130025
-0.000392111
0.00131443
-0.000392034
0.00132864
-0.000391713
0.00134289
-0.000391155
0.00135717
-0.000390368
0.00137146
-0.000389359
0.00138577
-0.000388137
0.00140008
-0.000386711
0.00141439
-0.000385087
0.00142869
-0.000383274
-0.000381279
0.000940556
-0.000259192
0.00094538
-0.000260787
0.000951084
-0.0002652
0.000957522
-0.000269634
0.000964627
-0.000274719
0.000972341
-0.000280411
0.000980603
-0.000286516
0.000989351
-0.000292919
0.000998533
-0.000299521
0.0010081
-0.000306229
0.001018
-0.000312965
0.00102821
-0.000319661
0.00103869
-0.000326261
0.00104941
-0.000332721
0.00106035
-0.000339
0.00107149
-0.000345068
0.00108281
-0.000350899
0.00109431
-0.000356473
0.00110596
-0.000361774
0.00111778
-0.000366788
0.00112974
-0.000371507
0.00114184
-0.000375922
0.00115407
-0.000380028
0.00116643
-0.000383824
0.00117893
-0.000387306
0.00119154