/*--------------------------------*- C++ -*----------------------------------*\
  =========                 |
  \\      /  F ield         | OpenFOAM: The Open Source CFD Toolbox
   \\    /   O peration     | Website:  https://openfoam.org
    \\  /    A nd           | Version:  7
     \\/     M anipulation  |
\*---------------------------------------------------------------------------*/
FoamFile
{
    version     2.0;
    format      ascii;
    class       volScalarField;
    location    "45";
    object      p;
}
// * * * * * * * * * * * * * * * * * * * * * * * * * * * * * * * * * * * * * //

dimensions      [0 2 -2 0 0 0 0];

internalField   nonuniform List<scalar> 
656
(
-0.186813
-0.165956
-0.223149
-0.159065
-0.22508
-0.158786
-0.226255
-0.159406
-0.226731
-0.160088
-0.242768
-0.22668
-0.161148
-0.241854
-0.226212
-0.162647
-0.240946
-0.225405
-0.164492
-0.240055
-0.224336
-0.166605
-0.239193
-0.223084
-0.168923
-0.23837
-0.221724
-0.171377
-0.268032
-0.237595
-0.220322
-0.173893
-0.266653
-0.236878
-0.218939
-0.17639
-0.265379
-0.236225
-0.217626
-0.178789
-0.264235
-0.235646
-0.216428
-0.181011
-0.263244
-0.235149
-0.215381
-0.182984
-0.262426
-0.23474
-0.214512
-0.184644
-0.261798
-0.234427
-0.213844
-0.185938
-0.261372
-0.234215
-0.213391
-0.186824
-0.213163
-0.187274
-0.193613
-0.173171
-0.19902
-0.168269
-0.175122
-0.200355
-0.168149
-0.173477
-0.192327
-0.165148
-0.160104
-0.154625
-0.148515
-0.142193
-0.135799
-0.129426
-0.123138
-0.116973
-0.110958
-0.105109
-0.0994369
-0.0939496
-0.0886527
-0.0835499
-0.0786438
-0.0739356
-0.0694253
-0.0651119
-0.0609931
-0.0570654
-0.0533246
-0.159917
-0.174227
-0.169196
-0.163592
-0.157539
-0.150929
-0.144189
-0.137441
-0.130771
-0.124232
-0.117855
-0.111659
-0.105656
-0.0998532
-0.0942546
-0.0888634
-0.0836813
-0.078709
-0.0739462
-0.0693917
-0.065043
-0.0608969
-0.0569488
-0.0531935
-0.162808
-0.179269
-0.173361
-0.167081
-0.160392
-0.153267
-0.146107
-0.139011
-0.132051
-0.125269
-0.118688
-0.112319
-0.106169
-0.100241
-0.0945365
-0.0890556
-0.0837981
-0.078763
-0.0739486
-0.0693523
-0.0649704
-0.0607987
-0.0568316
-0.053063
-0.16688
-0.184558
-0.177747
-0.170607
-0.163202
-0.155539
-0.147951
-0.140507
-0.133261
-0.126241
-0.119461
-0.112924
-0.106633
-0.100585
-0.0947793
-0.0892132
-0.0838844
-0.0787904
-0.0739278
-0.0692927
-0.0648806
-0.0606858
-0.056702
-0.0529221
-0.177485
-0.189493
-0.181206
-0.173221
-0.165192
-0.157108
-0.149199
-0.141501
-0.134049
-0.126861
-0.119942
-0.11329
-0.106903
-0.100775
-0.0949013
-0.0892791
-0.083904
-0.078772
-0.0738788
-0.0692195
-0.0647887
-0.06058
-0.0565864
-0.0528003
-0.204993
-0.192852
-0.181578
-0.173297
-0.16512
-0.157011
-0.149116
-0.141442
-0.134015
-0.12685
-0.119952
-0.113318
-0.106944
-0.100827
-0.0949628
-0.0893465
-0.0839748
-0.0788441
-0.0739502
-0.0692886
-0.0648541
-0.0606405
-0.0566413
-0.0528487
-0.210588
-0.198101
-0.185184
-0.176157
-0.167191
-0.158404
-0.149998
-0.141936
-0.134215
-0.126827
-0.119759
-0.112995
-0.106523
-0.100333
-0.0944151
-0.0887627
-0.0833691
-0.0782282
-0.073334
-0.0686804
-0.0642605
-0.060067
-0.056092
-0.0523268
-0.211208
-0.199328
-0.185813
-0.176443
-0.167054
-0.1579
-0.149241
-0.141008
-0.133172
-0.12571
-0.118597
-0.111811
-0.105333
-0.0991491
-0.0932488
-0.0876225
-0.0822623
-0.077161
-0.0723114
-0.0677062
-0.0633377
-0.0591977
-0.0552771
-0.0515669
-0.212544
-0.199881
-0.185525
-0.175806
-0.166156
-0.156811
-0.148047
-0.139758
-0.131896
-0.124429
-0.117324
-0.110556
-0.104103
-0.0979511
-0.0920875
-0.0865025
-0.0811873
-0.0761341
-0.0713351
-0.0667823
-0.0624673
-0.0583812
-0.0545147
-0.0508578
-0.213087
-0.199854
-0.184898
-0.174917
-0.165115
-0.15567
-0.14686
-0.138555
-0.130693
-0.123237
-0.11615
-0.109405
-0.10298
-0.0968602
-0.0910323
-0.0854863
-0.0802131
-0.0752044
-0.0704518
-0.0659468
-0.0616804
-0.0576433
-0.0538254
-0.0502166
-0.212563
-0.198993
-0.183782
-0.17369
-0.163858
-0.154404
-0.145607
-0.137326
-0.129492
-0.122064
-0.115007
-0.108293
-0.101902
-0.0958174
-0.0900272
-0.0845211
-0.07929
-0.0743251
-0.0696178
-0.065159
-0.0609393
-0.0569488
-0.0531774
-0.0496142
-0.211226
-0.197463
-0.182256
-0.172163
-0.162394
-0.153008
-0.144277
-0.136056
-0.128274
-0.120893
-0.11388
-0.107207
-0.100855
-0.0948108
-0.0890614
-0.0835972
-0.0784091
-0.0734883
-0.0688257
-0.0644122
-0.0602378
-0.0562924
-0.0525654
-0.0490457
-0.209216
-0.195429
-0.180452
-0.170442
-0.160803
-0.151541
-0.142912
-0.134777
-0.127067
-0.119747
-0.112785
-0.10616
-0.0998528
-0.0938514
-0.0881447
-0.0827233
-0.0775782
-0.0727008
-0.0680818
-0.0637119
-0.0595809
-0.0556784
-0.0519935
-0.206646
-0.193016
-0.178469
-0.168613
-0.15915
-0.150051
-0.14155
-0.133519
-0.125892
-0.118641
-0.111738
-0.105164
-0.0989039
-0.0929471
-0.0872836
-0.0819047
-0.076802
-0.0719666
-0.0673895
-0.0630612
-0.0589713
-0.0551091
-0.0514635
-0.203652
-0.190351
-0.176394
-0.166744
-0.157488
-0.148577
-0.140219
-0.132301
-0.124765
-0.117587
-0.110746
-0.104225
-0.098014
-0.0921022
-0.0864817
-0.0811445
-0.0760826
-0.0712876
-0.0667503
-0.0624611
-0.0584097
-0.0545852
-0.0509762
-0.200382
-0.187562
-0.174308
-0.164898
-0.155865
-0.147152
-0.138944
-0.131142
-0.123699
-0.116596
-0.109818
-0.103351
-0.0971883
-0.0913208
-0.0857421
-0.0804451
-0.0754223
-0.0706653
-0.0661654
-0.0619128
-0.057897
-0.0541073
-0.050532
-0.196981
-0.184765
-0.172282
-0.163127
-0.154319
-0.145806
-0.137746
-0.130059
-0.122707
-0.115679
-0.108962
-0.102548
-0.0964316
-0.0906069
-0.0850681
-0.0798092
-0.0748229
-0.0701015
-0.0656362
-0.0614172
-0.0574341
-0.053676
-0.0501314
-0.193591
-0.182062
-0.170374
-0.161474
-0.152885
-0.144563
-0.136644
-0.129066
-0.121801
-0.114843
-0.108184
-0.10182
-0.0957483
-0.0899638
-0.0844625
-0.0792388
-0.0742863
-0.0695975
-0.0651636
-0.0609751
-0.0570215
-0.0532919
-0.0497748
-0.190344
-0.179541
-0.168629
-0.159973
-0.151587
-0.143443
-0.135653
-0.128175
-0.12099
-0.114096
-0.107491
-0.101174
-0.0951424
-0.0893948
-0.0839275
-0.0787359
-0.0738139
-0.0691543
-0.0647486
-0.0605872
-0.0566598
-0.0529554
-0.0494624
-0.187353
-0.177273
-0.167084
-0.15865
-0.150448
-0.142461
-0.134786
-0.127396
-0.120281
-0.113445
-0.106888
-0.100612
-0.0946171
-0.0889024
-0.0834654
-0.0783021
-0.073407
-0.068773
-0.0643918
-0.060254
-0.0563493
-0.0526667
-0.0491946
-0.184718
-0.175314
-0.165767
-0.157525
-0.14948
-0.141628
-0.134052
-0.126737
-0.119682
-0.112895
-0.106379
-0.100139
-0.0941753
-0.0884888
-0.0830778
-0.0779387
-0.0730665
-0.0684542
-0.0640938
-0.0599759
-0.0560903
-0.052426
-0.0489713
-0.182518
-0.173706
-0.164694
-0.156612
-0.148696
-0.140954
-0.133457
-0.126203
-0.119197
-0.11245
-0.105968
-0.0997571
-0.0938192
-0.0881559
-0.0827661
-0.0776468
-0.0727932
-0.0681986
-0.063855
-0.0597532
-0.055883
-0.0522333
-0.0487927
-0.180817
-0.172477
-0.163881
-0.15592
-0.148102
-0.140444
-0.133007
-0.125799
-0.118831
-0.112114
-0.105658
-0.0994689
-0.0935507
-0.087905
-0.0825315
-0.0774273
-0.0725878
-0.0680066
-0.0636757
-0.0595861
-0.0557275
-0.0520889
-0.0486588
-0.17966
-0.171648
-0.163336
-0.155456
-0.147705
-0.140102
-0.132705
-0.125528
-0.118585
-0.111889
-0.10545
-0.099276
-0.093371
-0.0877373
-0.0823747
-0.0772807
-0.0724507
-0.0678785
-0.0635562
-0.0594747
-0.0556238
-0.0519926
-0.0485696
-0.179075
-0.171231
-0.163062
-0.155223
-0.147505
-0.139931
-0.132554
-0.125393
-0.118462
-0.111776
-0.105346
-0.0991794
-0.093281
-0.0876533
-0.0822962
-0.0772073
-0.0723821
-0.0678144
-0.0634964
-0.059419
-0.055572
-0.0519445
-0.048525
)
;

boundaryField
{
    inlet
    {
        type            zeroGradient;
    }
    outlet
    {
        type            fixedValue;
        value           nonuniform 0();
    }
    cylinder
    {
        type            zeroGradient;
    }
    top
    {
        type            symmetryPlane;
    }
    bottom
    {
        type            symmetryPlane;
    }
    defaultFaces
    {
        type            empty;
    }
    procBoundary6to2
    {
        type            processor;
        value           nonuniform List<scalar> 
30
(
-0.187397
-0.169196
-0.169196
-0.166808
-0.166808
-0.16106
-0.156518
-0.151573
-0.14596
-0.140064
-0.134036
-0.127976
-0.121954
-0.116016
-0.110195
-0.104511
-0.0989803
-0.0936132
-0.0884181
-0.0834012
-0.0785667
-0.0739176
-0.0694555
-0.0651804
-0.0610913
-0.0571861
-0.0534613
-0.157319
-0.169303
-0.169303
)
;
    }
    procBoundary6to3
    {
        type            processor;
        value           uniform -0.0497654;
    }
    procBoundary6to5
    {
        type            processor;
        value           nonuniform List<scalar> 
28
(
-0.194448
-0.193562
-0.193562
-0.219188
-0.220991
-0.220991
-0.246201
-0.245394
-0.244551
-0.243673
-0.243673
-0.276781
-0.275433
-0.273995
-0.272501
-0.270988
-0.269487
-0.269487
-0.295055
-0.293507
-0.292093
-0.290836
-0.289754
-0.288865
-0.288185
-0.287724
-0.160899
-0.16271
)
;
    }
    procBoundary6to7
    {
        type            processor;
        value           nonuniform List<scalar> 
25
(
-0.0496249
-0.049486
-0.0493383
-0.0492132
-0.0492548
-0.0487625
-0.0480571
-0.0474003
-0.0468063
-0.0462483
-0.0457222
-0.0485148
-0.0485148
-0.0480232
-0.0475713
-0.0471596
-0.0467884
-0.0464582
-0.0461691
-0.0459212
-0.0457146
-0.0455493
-0.0454255
-0.0453429
-0.0453017
)
;
    }
    procBoundary6to10
    {
        type            processor;
        value           nonuniform List<scalar> 
28
(
-0.213163
-0.187274
-0.261156
-0.234108
-0.234108
-0.179075
-0.171231
-0.163062
-0.155223
-0.147505
-0.139931
-0.132554
-0.125393
-0.118462
-0.111776
-0.105346
-0.0991794
-0.093281
-0.0876533
-0.0822962
-0.0772073
-0.0723821
-0.0678144
-0.0634964
-0.059419
-0.055572
-0.0519445
-0.048525
)
;
    }
}


// ************************************************************************* //
