/*--------------------------------*- C++ -*----------------------------------*\
  =========                 |
  \\      /  F ield         | OpenFOAM: The Open Source CFD Toolbox
   \\    /   O peration     | Website:  https://openfoam.org
    \\  /    A nd           | Version:  7
     \\/     M anipulation  |
\*---------------------------------------------------------------------------*/
FoamFile
{
    version     2.0;
    format      ascii;
    class       volVectorField;
    location    "10";
    object      U;
}
// * * * * * * * * * * * * * * * * * * * * * * * * * * * * * * * * * * * * * //

dimensions      [0 1 -1 0 0 0 0];

internalField   nonuniform List<vector> 
2625
(
(0.240139 -0.0034734 1.00464e-21)
(0.271641 -0.00359922 3.10072e-21)
(1.27045 -0.000244347 -1.39005e-19)
(1.26814 0.00170544 7.3413e-20)
(1.26519 0.00347943 9.82257e-21)
(1.26168 0.00498356 -1.65739e-20)
(1.2553 0.0139512 -8.46173e-20)
(1.25835 0.00633182 1.08814e-20)
(1.24821 0.0181823 1.80395e-20)
(1.25451 0.00856761 -7.65595e-21)
(1.23997 0.0224882 -6.59581e-20)
(1.24977 0.0113175 -7.46169e-20)
(1.23048 0.0268643 6.98698e-20)
(1.24393 0.0143255 7.50534e-20)
(1.19831 0.030153 -5.70755e-20)
(1.21967 0.0313109 1.29864e-19)
(1.23691 0.0175384 -8.03246e-20)
(1.18387 0.0346314 7.53804e-21)
(1.20746 0.0358174 -5.71797e-20)
(1.22863 0.0209433 1.24018e-19)
(1.16794 0.0391464 2.68391e-20)
(1.19376 0.0403642 -7.24827e-21)
(1.21901 0.0245214 -1.23617e-19)
(1.15047 0.0436694 -7.19768e-20)
(1.17851 0.0449257 -1.00573e-19)
(1.20795 0.0282524 5.5457e-20)
(1.13142 0.0481688 1.08901e-19)
(1.16164 0.0494709 1.16935e-20)
(1.19535 0.0321168 -3.38701e-20)
(1.11078 0.0526098 4.64783e-21)
(1.14311 0.0539636 8.11845e-20)
(1.18114 0.0360936 1.78225e-21)
(1.0401 0.0660286 -1.83283e-20)
(1.08854 0.0569549 -9.93578e-20)
(1.12288 0.058363 4.18075e-20)
(1.16523 0.0401585 1.03945e-19)
(1.01373 0.0701643 7.638e-20)
(1.06471 0.061164 6.33666e-20)
(1.10095 0.0626245 -3.24321e-20)
(1.14755 0.0442826 -1.05109e-19)
(0.986021 0.0740127 -3.87265e-20)
(1.03932 0.0651951 1.72702e-21)
(1.0773 0.0667004 -5.37553e-20)
(1.12806 0.048432 5.83225e-20)
(0.957066 0.0775338 -2.72397e-21)
(1.01244 0.0690048 4.3861e-21)
(1.05199 0.0705413 -3.80084e-20)
(1.1067 0.0525674 8.15901e-21)
(0.926966 0.0806891 9.10453e-20)
(0.984126 0.0725487 -5.66555e-20)
(1.02505 0.074097 -9.05219e-21)
(1.08348 0.0566441 -1.96282e-20)
(0.895839 0.0834418 -1.71224e-20)
(0.954478 0.0757819 4.65529e-20)
(0.996573 0.0773176 6.67938e-20)
(1.0584 0.0606127 2.0657e-21)
(0.86382 0.0857582 -2.86211e-20)
(0.923609 0.0786603 4.25159e-20)
(0.96666 0.0801549 -3.62529e-20)
(1.0315 0.0644187 3.29146e-20)
(0.773009 0.0897785 -9.44163e-20)
(0.831059 0.0876074 3.17781e-20)
(0.891657 0.0811407 -4.78176e-20)
(0.935442 0.0825637 -1.29291e-20)
(1.00284 0.068004 -1.31091e-20)
(0.739961 0.090755 1.28466e-20)
(0.797718 0.0889625 -3.57625e-20)
(0.858775 0.083182 1.90198e-20)
(0.903073 0.0845025 2.61445e-20)
(0.972536 0.0713075 -7.52634e-21)
(0.706772 0.0912195 3.36768e-20)
(0.763974 0.0898005 3.33661e-20)
(0.825138 0.0847458 -3.43167e-20)
(0.869728 0.0859347 7.45636e-20)
(0.940716 0.0742661 -4.30051e-20)
(0.67361 0.0911601 -6.94762e-20)
(0.730011 0.0901029 3.85075e-20)
(0.790939 0.0857972 -3.49411e-20)
(0.835607 0.0868291 -5.87382e-20)
(0.907551 0.076816 4.31042e-20)
(0.640652 0.0905688 3.36498e-20)
(0.696024 0.0898562 -9.31559e-21)
(0.756384 0.0863057 5.76309e-20)
(0.800927 0.0871609 3.4759e-20)
(0.873241 0.0788944 -3.17114e-20)
(0.608075 0.0894418 -2.02208e-21)
(0.662214 0.0890514 -4.08975e-20)
(0.721694 0.0862459 -1.61704e-20)
(0.76592 0.0869113 -1.58468e-20)
(0.838022 0.0804401 -6.49258e-21)
(0.576059 0.0877795 3.52499e-20)
(0.628788 0.0876847 9.7975e-21)
(0.6871 0.0855979 -5.22849e-20)
(0.730834 0.0860682 -3.8944e-21)
(0.802158 0.0813963 3.55052e-20)
(0.544785 0.085587 -4.18739e-20)
(0.595953 0.0857569 -2.8532e-20)
(0.652843 0.084348 7.57158e-20)
(0.695926 0.0846259 -6.41728e-20)
(0.765938 0.0817108 -5.47521e-24)
(0.514432 0.0828729 4.67287e-21)
(0.563919 0.0832742 2.72038e-20)
(0.619168 0.0824891 -6.34045e-20)
(0.661463 0.0825848 3.98031e-20)
(0.729676 0.0813388 -2.89522e-20)
(0.485176 0.0796506 4.02498e-21)
(0.532894 0.0802473 -1.93333e-21)
(0.586324 0.0800207 4.17456e-20)
(0.627714 0.0799515 -1.44436e-20)
(0.693704 0.0802436 4.25505e-20)
(0.457189 0.0759367 -5.08968e-21)
(0.503083 0.0766915 -1.52424e-20)
(0.55456 0.0769494 -1.82873e-20)
(0.594951 0.0767378 3.25837e-20)
(0.658367 0.0783981 -3.58908e-20)
(0.430638 0.0717522 7.24309e-20)
(0.474686 0.0726268 1.46235e-20)
(0.524121 0.0732885 1.86245e-20)
(0.563445 0.0729612 -4.11836e-20)
(0.624017 0.0757864 2.48026e-20)
(0.405682 0.0671212 -7.82988e-20)
(0.447895 0.0680773 -1.24467e-21)
(0.495248 0.0690579 -1.67259e-20)
(0.533461 0.0686438 4.12342e-21)
(0.591007 0.0724044 -6.94647e-21)
(0.382473 0.0620712 5.49122e-20)
(0.422896 0.0630709 1.42819e-20)
(0.468171 0.0642841 -2.38167e-21)
(0.505259 0.0638126 4.22646e-20)
(0.559686 0.0682607 7.32409e-21)
(0.321283 0.0551816 3.53369e-20)
(0.361152 0.0566327 -3.13192e-20)
(0.39986 0.0576396 -3.81211e-20)
(0.44311 0.0589995 6.30229e-21)
(0.479084 0.0584994 9.18689e-21)
(0.530394 0.063377 -3.09364e-20)
(0.303706 0.0494294 -2.75699e-20)
(0.341851 0.0508392 -1.42359e-20)
(0.37895 0.0518186 3.35054e-20)
(0.420271 0.0532422 -5.78083e-21)
(0.455171 0.0527401 -3.06208e-20)
(0.503454 0.057788 2.27197e-20)
(0.288115 0.0434041 4.87218e-20)
(0.324689 0.0447264 3.60356e-20)
(0.360313 0.0456461 -2.73668e-20)
(0.399845 0.0470552 1.51878e-20)
(0.433736 0.0465749 -9.5588e-21)
(0.479166 0.0515414 -3.09521e-21)
(0.274593 0.0371391 -3.39423e-20)
(0.309774 0.0383325 -4.40536e-21)
(0.344081 0.0391633 4.05646e-21)
(0.382003 0.0404864 1.08596e-20)
(0.414975 0.0400482 1.87124e-20)
(0.457804 0.0446972 -5.791e-21)
(0.263212 0.0306692 2.3691e-21)
(0.297198 0.0316973 -4.31256e-21)
(0.330372 0.0324138 4.74178e-21)
(0.366895 0.0335875 -1.42842e-20)
(0.399062 0.0332081 -5.30799e-21)
(0.439614 0.0373264 4.61218e-21)
(0.254033 0.0240303 -7.27178e-21)
(0.287041 0.0248625 -6.57455e-21)
(0.319283 0.025443 1.20119e-20)
(0.35465 0.0264138 1.66395e-21)
(0.386147 0.0261062 -6.32274e-21)
(0.424802 0.0295105 -1.03006e-20)
(0.247105 0.017259 4.99165e-21)
(0.279366 0.0178711 7.59133e-21)
(0.310896 0.0182984 -6.81724e-21)
(0.345373 0.0190234 -1.02e-20)
(0.376352 0.0187973 3.64206e-21)
(0.413541 0.0213389 1.17956e-20)
(0.242465 0.0103927 5.1593e-21)
(0.274222 0.0107671 -6.87917e-21)
(0.305269 0.0110287 3.43662e-21)
(0.339143 0.0114765 1.12273e-20)
(0.369769 0.0113386 -3.61042e-22)
(0.405959 0.0129085 -3.19047e-22)
(0.240139 0.00346918 9.58764e-22)
(0.271642 0.00359528 3.06891e-21)
(0.302446 0.00368353 -1.71742e-21)
(0.336015 0.00383522 -3.62646e-21)
(0.366461 0.0037893 -6.48561e-22)
(0.402146 0.00432069 -1.54534e-21)
(1.26987 0.000713452 -2.23099e-20)
(1.26973 0.000907441 2.76724e-20)
(1.27055 -0.000630399 -3.61437e-20)
(1.26955 0.00110373 -2.19164e-20)
(1.27044 -0.000450586 -6.70245e-20)
(1.26935 0.00130184 -2.18528e-20)
(1.27098 -0.00190746 -5.50334e-20)
(1.27029 -0.000267001 3.26175e-20)
(1.26911 0.00150164 -3.10089e-21)
(1.27092 -0.00173053 1.46038e-20)
(1.2701 -7.9926e-05 2.66244e-20)
(1.26885 0.00170359 2.78204e-20)
(1.27083 -0.00154316 -1.61629e-20)
(1.26989 0.000110823 -6.47244e-20)
(1.26854 0.00190879 3.38919e-20)
(1.27148 -0.00293025 -3.90268e-20)
(1.27071 -0.00134537 -1.02633e-20)
(1.26963 0.000305268 1.11105e-19)
(1.2682 0.00211864 -2.47776e-20)
(1.27145 -0.0027424 -8.59174e-21)
(1.27057 -0.00113735 -2.75768e-20)
(1.26935 0.000504701 -3.42839e-20)
(1.26781 0.00233743 7.13341e-21)
(1.27201 -0.00418174 -3.1053e-20)
(1.27139 -0.00254122 2.79677e-20)
(1.2704 -0.000914616 6.389e-20)
(1.26902 0.000721082 1.3295e-20)
(1.26735 0.00258079 -5.55681e-21)
(1.27203 -0.00399947 3.62155e-20)
(1.27131 -0.00232264 5.83773e-20)
(1.27019 -0.000665356 -3.53672e-20)
(1.26865 0.000980667 -9.72202e-20)
(1.26679 0.00286539 4.73689e-20)
(1.21 0.029959 0)
(1.20739 0.030438 0)
(1.20474 0.0309155 0)
(1.20205 0.0313935 0)
(1.19932 0.0318743 0)
(1.19653 0.0323596 0)
(1.1937 0.0328512 0)
(1.19082 0.0333509 0)
(1.18788 0.03386 0)
(1.18489 0.0343796 0)
(1.18184 0.0349106 0)
(1.17874 0.0354538 0)
(1.17557 0.0360093 0)
(1.17234 0.0365772 0)
(1.16905 0.0371568 0)
(1.16568 0.0377474 0)
(1.16225 0.0383474 0)
(1.26938 0.00179966 0)
(1.26859 0.00331638 0)
(1.26755 0.00482585 0)
(1.26638 0.00630007 0)
(1.26509 0.0077091 0)
(1.26373 0.00905309 0)
(1.26231 0.0103374 0)
(1.26083 0.0115684 0)
(1.2593 0.0127513 0)
(1.25772 0.0138895 0)
(1.25609 0.014985 0)
(1.25441 0.0160393 0)
(1.25267 0.0170532 0)
(1.25088 0.0180271 0)
(1.24904 0.0189616 0)
(1.24715 0.0198573 0)
(1.24521 0.020715 0)
(1.24323 0.0215355 0)
(1.2412 0.0223199 0)
(1.23913 0.0230695 0)
(1.23701 0.0237859 0)
(1.23485 0.0244708 0)
(1.23266 0.0251259 0)
(1.23042 0.0257533 0)
(1.22814 0.0263552 0)
(1.22583 0.0269339 0)
(1.22348 0.0274916 0)
(1.22109 0.0280309 0)
(1.21867 0.0285541 0)
(1.2162 0.0290638 0)
(1.2137 0.0295624 0)
(1.21116 0.0300525 0)
(1.20858 0.0305364 0)
(1.20597 0.0310165 0)
(1.20331 0.0314952 0)
(1.2006 0.0319745 0)
(1.19786 0.0324568 0)
(1.19506 0.0329438 0)
(1.19222 0.0334374 0)
(1.18933 0.0339392 0)
(1.18639 0.0344506 0)
(1.1834 0.0349728 0)
(1.18035 0.0355067 0)
(1.17724 0.0360529 0)
(1.17407 0.0366117 0)
(1.17085 0.0371831 0)
(1.16755 0.0377664 0)
(1.16419 0.0383608 0)
(1.16076 0.0389648 0)
(1.2692 0.00205106 0)
(1.26834 0.00364464 0)
(1.2672 0.00521076 0)
(1.26593 0.00672122 0)
(1.26457 0.00815208 0)
(1.26314 0.00951024 0)
(1.26166 0.0108052 0)
(1.26013 0.0120457 0)
(1.25856 0.0132375 0)
(1.25693 0.0143844 0)
(1.25526 0.0154885 0)
(1.25353 0.016551 0)
(1.25175 0.0175726 0)
(1.24992 0.0185538 0)
(1.24805 0.019495 0)
(1.24612 0.0203968 0)
(1.24415 0.0212599 0)
(1.24213 0.0220851 0)
(1.24007 0.0228737 0)
(1.23797 0.0236269 0)
(1.23582 0.0243463 0)
(1.23363 0.0250336 0)
(1.23141 0.0256909 0)
(1.22915 0.02632 0)
(1.22685 0.0269233 0)
(1.22451 0.0275031 0)
(1.22214 0.0280617 0)
(1.21973 0.0286017 0)
(1.21728 0.0291256 0)
(1.2148 0.0296358 0)
(1.21228 0.030135 0)
(1.20973 0.0306257 0)
(1.20713 0.0311102 0)
(1.2045 0.0315911 0)
(1.20183 0.0320706 0)
(1.19912 0.032551 0)
(1.19636 0.0330344 0)
(1.19356 0.0335228 0)
(1.19071 0.034018 0)
(1.18782 0.0345216 0)
(1.18487 0.0350351 0)
(1.18187 0.0355596 0)
(1.17882 0.0360961 0)
(1.17572 0.0366451 0)
(1.17255 0.0372069 0)
(1.16932 0.0377814 0)
(1.16603 0.0383682 0)
(1.16268 0.0389661 0)
(1.15925 0.0395737 0)
(1.26898 0.00232253 0)
(1.26804 0.0040014 0)
(1.26678 0.00562391 0)
(1.26542 0.00716582 0)
(1.26398 0.00861338 0)
(1.26248 0.00998164 0)
(1.26095 0.0112845 0)
(1.25937 0.0125324 0)
(1.25775 0.0137318 0)
(1.25608 0.0148864 0)
(1.25437 0.0159983 0)
(1.2526 0.0170684 0)
(1.25078 0.0180971 0)
(1.24892 0.019085 0)
(1.24701 0.0200324 0)
(1.24505 0.0209397 0)
(1.24304 0.0218076 0)
(1.24099 0.0226372 0)
(1.23889 0.0234294 0)
(1.23676 0.0241857 0)
(1.23458 0.0249076 0)
(1.23237 0.025597 0)
(1.23012 0.0262559 0)
(1.22783 0.0268863 0)
(1.22551 0.0274905 0)
(1.22315 0.028071 0)
(1.22075 0.0286302 0)
(1.21832 0.0291705 0)
(1.21586 0.0296947 0)
(1.21336 0.0302051 0)
(1.21082 0.0307045 0)
(1.20825 0.0311954 0)
(1.20565 0.0316803 0)
(1.203 0.0321615 0)
(1.20032 0.0326416 0)
(1.1976 0.0331227 0)
(1.19483 0.0336071 0)
(1.19202 0.0340966 0)
(1.18917 0.0345931 0)
(1.18627 0.0350983 0)
(1.18332 0.0356135 0)
(1.18032 0.0361401 0)
(1.17727 0.0366788 0)
(1.17416 0.0372303 0)
(1.17099 0.0377948 0)
(1.16777 0.0383722 0)
(1.16448 0.038962 0)
(1.16114 0.0395632 0)
(1.15772 0.0401743 0)
(1.26872 0.00261861 0)
(1.26767 0.00439076 0)
(1.26629 0.00606695 0)
(1.26483 0.00763353 0)
(1.26331 0.00909177 0)
(1.26176 0.0104659 0)
(1.26017 0.0117738 0)
(1.25855 0.0130274 0)
(1.25689 0.0142332 0)
(1.25518 0.0153948 0)
(1.25342 0.0165137 0)
(1.25162 0.0175908 0)
(1.24977 0.0186262 0)
(1.24786 0.0196203 0)
(1.24591 0.0205733 0)
(1.24392 0.0214856 0)
(1.24188 0.022358 0)
(1.2398 0.0231913 0)
(1.23767 0.0239867 0)
(1.23551 0.0247456 0)
(1.2333 0.0254696 0)
(1.23106 0.0261606 0)
(1.22878 0.0268207 0)
(1.22647 0.027452 0)
(1.22412 0.0280568 0)
(1.22174 0.0286375 0)
(1.21933 0.0291968 0)
(1.21688 0.0297371 0)
(1.21439 0.0302612 0)
(1.21188 0.0307715 0)
(1.20933 0.0312708 0)
(1.20674 0.0317616 0)
(1.20412 0.0322464 0)
(1.20147 0.0327278 0)
(1.19877 0.0332082 0)
(1.19604 0.0336897 0)
(1.19327 0.0341746 0)
(1.19045 0.0346649 0)
(1.18759 0.0351625 0)
(1.18469 0.0356689 0)
(1.18173 0.0361857 0)
(1.17873 0.036714 0)
(1.17568 0.0372546 0)
(1.17257 0.0378083 0)
(1.16941 0.0383753 0)
(1.16619 0.0389554 0)
(1.16291 0.039548 0)
(1.15957 0.0401522 0)
(1.15616 0.0407663 0)
(1.26841 0.00294522 0)
(1.26723 0.00481708 0)
(1.26572 0.0065409 0)
(1.26417 0.00812321 0)
(1.26258 0.00958544 0)
(1.26097 0.0109612 0)
(1.25934 0.0122718 0)
(1.25767 0.0135296 0)
(1.25597 0.0147409 0)
(1.25422 0.0159087 0)
(1.25243 0.0170342 0)
(1.25058 0.0181178 0)
(1.24869 0.0191594 0)
(1.24676 0.0201592 0)
(1.24477 0.0211174 0)
(1.24275 0.0220343 0)
(1.24067 0.0229106 0)
(1.23856 0.0237472 0)
(1.2364 0.0245453 0)
(1.23421 0.0253063 0)
(1.23198 0.026032 0)
(1.22971 0.0267242 0)
(1.2274 0.027385 0)
(1.22507 0.0280167 0)
(1.2227 0.0286217 0)
(1.22029 0.0292024 0)
(1.21786 0.0297614 0)
(1.21539 0.0303014 0)
(1.21289 0.030825 0)
(1.21036 0.0313348 0)
(1.20779 0.0318337 0)
(1.20519 0.0323241 0)
(1.20256 0.0328086 0)
(1.19989 0.0332898 0)
(1.19719 0.0337701 0)
(1.19445 0.0342517 0)
(1.19167 0.034737 0)
(1.18885 0.0352278 0)
(1.18598 0.0357261 0)
(1.18307 0.0362336 0)
(1.18012 0.0367515 0)
(1.17712 0.0372813 0)
(1.17407 0.0378237 0)
(1.17096 0.0383793 0)
(1.1678 0.0389484 0)
(1.16459 0.0395308 0)
(1.16131 0.040126 0)
(1.15798 0.0407328 0)
(1.15458 0.0413498 0)
(1.26804 0.00331001 0)
(1.26671 0.00528467 0)
(1.26507 0.00704568 0)
(1.26342 0.00863273 0)
(1.26177 0.010092 0)
(1.26011 0.0114655 0)
(1.25843 0.0127767 0)
(1.25673 0.0140377 0)
(1.25499 0.0152539 0)
(1.25321 0.0164275 0)
(1.25138 0.0175591 0)
(1.2495 0.0186487 0)
(1.24757 0.0196962 0)
(1.2456 0.0207013 0)
(1.24358 0.0216642 0)
(1.24152 0.0225852 0)
(1.23942 0.023465 0)
(1.23727 0.0243045 0)
(1.23509 0.0251049 0)
(1.23286 0.0258676 0)
(1.2306 0.0265945 0)
(1.22831 0.0272875 0)
(1.22598 0.0279487 0)
(1.22362 0.0285804 0)
(1.22123 0.0291851 0)
(1.21881 0.0297654 0)
(1.21635 0.0303238 0)
(1.21386 0.030863 0)
(1.21135 0.0313858 0)
(1.2088 0.0318949 0)
(1.20622 0.0323929 0)
(1.20361 0.0328826 0)
(1.20097 0.0333666 0)
(1.19829 0.0338473 0)
(1.19557 0.0343272 0)
(1.19282 0.0348087 0)
(1.19004 0.035294 0)
(1.18721 0.0357851 0)
(1.18434 0.0362839 0)
(1.18143 0.0367921 0)
(1.17848 0.037311 0)
(1.17547 0.0378419 0)
(1.17242 0.0383857 0)
(1.16932 0.038943 0)
(1.16617 0.039514 0)
(1.16296 0.0400985 0)
(1.15969 0.040696 0)
(1.15636 0.0413052 0)
(1.15297 0.0419248 0)
(1.26761 0.00372256 0)
(1.26609 0.00579725 0)
(1.26431 0.0075798 0)
(1.26259 0.0091589 0)
(1.26088 0.0106084 0)
(1.25918 0.0119765 0)
(1.25747 0.013287 0)
(1.25573 0.0145505 0)
(1.25395 0.0157712 0)
(1.25214 0.0169503 0)
(1.25027 0.0180878 0)
(1.24836 0.0191832 0)
(1.2464 0.020236 0)
(1.24439 0.0212461 0)
(1.24234 0.0222134 0)
(1.24025 0.0231381 0)
(1.23812 0.024021 0)
(1.23594 0.0248629 0)
(1.23373 0.0256651 0)
(1.23147 0.0264292 0)
(1.22919 0.0271569 0)
(1.22687 0.0278502 0)
(1.22452 0.0285113 0)
(1.22213 0.0291427 0)
(1.21972 0.0297468 0)
(1.21728 0.0303263 0)
(1.2148 0.0308837 0)
(1.2123 0.0314219 0)
(1.20977 0.0319436 0)
(1.2072 0.0324515 0)
(1.20461 0.0329485 0)
(1.20199 0.0334372 0)
(1.19933 0.0339202 0)
(1.19665 0.0344001 0)
(1.19392 0.0348795 0)
(1.19117 0.0353606 0)
(1.18837 0.0358456 0)
(1.18554 0.0363367 0)
(1.18267 0.0368357 0)
(1.17976 0.0373443 0)
(1.1768 0.0378639 0)
(1.1738 0.0383958 0)
(1.17075 0.0389408 0)
(1.16765 0.0394995 0)
(1.1645 0.0400721 0)
(1.1613 0.0406584 0)
(1.15804 0.0412579 0)
(1.15472 0.0418693 0)
(1.15135 0.0424912 0)
(1.26708 0.00419491 0)
(1.26536 0.00635751 0)
(1.26345 0.00814016 0)
(1.26166 0.00969776 0)
(1.25991 0.0111317 0)
(1.25818 0.0124923 0)
(1.25644 0.0138014 0)
(1.25467 0.0150673 0)
(1.25286 0.0162924 0)
(1.25101 0.0174769 0)
(1.24911 0.01862 0)
(1.24717 0.0197209 0)
(1.24518 0.0207789 0)
(1.24314 0.0217936 0)
(1.24106 0.0227648 0)
(1.23893 0.0236928 0)
(1.23677 0.0245784 0)
(1.23456 0.0254223 0)
(1.23232 0.0262259 0)
(1.23004 0.0269909 0)
(1.22773 0.0277189 0)
(1.22539 0.0284122 0)
(1.22301 0.0290729 0)
(1.22061 0.0297036 0)
(1.21817 0.0303067 0)
(1.21571 0.0308849 0)
(1.21322 0.0314411 0)
(1.2107 0.0319779 0)
(1.20815 0.0324981 0)
(1.20557 0.0330046 0)
(1.20297 0.0335002 0)
(1.20033 0.0339876 0)
(1.19767 0.0344694 0)
(1.19497 0.0349483 0)
(1.19224 0.0354268 0)
(1.18948 0.0359072 0)
(1.18668 0.0363918 0)
(1.18384 0.0368826 0)
(1.18097 0.0373816 0)
(1.17806 0.0378903 0)
(1.1751 0.0384104 0)
(1.1721 0.0389429 0)
(1.16905 0.0394888 0)
(1.16596 0.0400487 0)
(1.16282 0.0406226 0)
(1.15962 0.0412105 0)
(1.15637 0.0418117 0)
(1.15306 0.0424251 0)
(1.1497 0.043049 0)
(1.26643 0.00474282 0)
(1.26448 0.00696585 0)
(1.26247 0.00872148 0)
(1.26064 0.0102446 0)
(1.25887 0.0116591 0)
(1.25712 0.0130114 0)
(1.25535 0.0143192 0)
(1.25356 0.0155877 0)
(1.25172 0.0168174 0)
(1.24984 0.0180073 0)
(1.24791 0.0191559 0)
(1.24593 0.0202622 0)
(1.2439 0.021325 0)
(1.24183 0.0223439 0)
(1.23972 0.0233187 0)
(1.23757 0.0242497 0)
(1.23537 0.0251375 0)
(1.23314 0.025983 0)
(1.23087 0.0267876 0)
(1.22856 0.027553 0)
(1.22623 0.028281 0)
(1.22386 0.0289738 0)
(1.22146 0.0296337 0)
(1.21904 0.0302633 0)
(1.21658 0.030865 0)
(1.2141 0.0314418 0)
(1.21159 0.0319962 0)
(1.20906 0.0325313 0)
(1.20649 0.0330498 0)
(1.2039 0.0335546 0)
(1.20129 0.0340485 0)
(1.19864 0.0345343 0)
(1.19597 0.0350146 0)
(1.19326 0.0354922 0)
(1.19053 0.0359695 0)
(1.18776 0.0364489 0)
(1.18495 0.0369328 0)
(1.18212 0.037423 0)
(1.17924 0.0379217 0)
(1.17633 0.0384304 0)
(1.17337 0.0389507 0)
(1.17037 0.0394836 0)
(1.16733 0.0400302 0)
(1.16424 0.0405909 0)
(1.1611 0.041166 0)
(1.15791 0.0417552 0)
(1.15467 0.0423579 0)
(1.15138 0.0429729 0)
(1.14803 0.0435986 0)
(1.26562 0.00538626 0)
(1.26346 0.00761408 0)
(1.26138 0.00931114 0)
(1.25954 0.01079 0)
(1.25776 0.012184 0)
(1.25599 0.013529 0)
(1.25421 0.0148367 0)
(1.25238 0.0161087 0)
(1.25052 0.0173435 0)
(1.24861 0.018539 0)
(1.24665 0.0196933 0)
(1.24464 0.0208048 0)
(1.24258 0.0218724 0)
(1.24048 0.0228954 0)
(1.23834 0.0238736 0)
(1.23615 0.0248072 0)
(1.23393 0.0256969 0)
(1.23167 0.0265438 0)
(1.22937 0.0273491 0)
(1.22704 0.0281146 0)
(1.22468 0.0288423 0)
(1.22229 0.0295343 0)
(1.21987 0.0301931 0)
(1.21743 0.0308212 0)
(1.21496 0.0314213 0)
(1.21246 0.0319962 0)
(1.20993 0.0325487 0)
(1.20738 0.0330817 0)
(1.2048 0.0335982 0)
(1.2022 0.0341009 0)
(1.19957 0.0345929 0)
(1.19692 0.0350768 0)
(1.19423 0.0355554 0)
(1.19152 0.0360314 0)
(1.18878 0.0365073 0)
(1.186 0.0369855 0)
(1.1832 0.0374683 0)
(1.18036 0.0379578 0)
(1.17748 0.0384559 0)
(1.17457 0.0389643 0)
(1.17161 0.0394844 0)
(1.16862 0.0400175 0)
(1.16558 0.0405645 0)
(1.1625 0.0411258 0)
(1.15937 0.0417017 0)
(1.15619 0.042292 0)
(1.15296 0.0428959 0)
(1.14967 0.0435122 0)
(1.14633 0.0441395 0)
(1.26457 0.00613718 0)
(1.26225 0.00827356 0)
(1.26018 0.0098823 0)
(1.25836 0.0113141 0)
(1.25658 0.0126909 0)
(1.25481 0.0140316 0)
(1.253 0.0153415 0)
(1.25116 0.0166184 0)
(1.24927 0.0178594 0)
(1.24733 0.0190614 0)
(1.24534 0.0202219 0)
(1.2433 0.0213391 0)
(1.24121 0.0224117 0)
(1.23908 0.023439 0)
(1.23691 0.0244207 0)
(1.2347 0.0253571 0)
(1.23244 0.0262488 0)
(1.23016 0.027097 0)
(1.22784 0.027903 0)
(1.22548 0.0286686 0)
(1.2231 0.0293959 0)
(1.22069 0.0300871 0)
(1.21825 0.0307447 0)
(1.21578 0.0313713 0)
(1.21329 0.0319697 0)
(1.21077 0.0325427 0)
(1.20823 0.0330931 0)
(1.20567 0.033624 0)
(1.20308 0.0341383 0)
(1.20046 0.0346389 0)
(1.19782 0.0351288 0)
(1.19516 0.0356107 0)
(1.19247 0.0360874 0)
(1.18975 0.0365616 0)
(1.187 0.0370359 0)
(1.18422 0.0375127 0)
(1.18141 0.0379943 0)
(1.17857 0.0384828 0)
(1.17569 0.0389801 0)
(1.17278 0.039488 0)
(1.16983 0.0400079 0)
(1.16684 0.0405409 0)
(1.16381 0.0410881 0)
(1.16073 0.0416499 0)
(1.15761 0.0422264 0)
(1.15444 0.0428175 0)
(1.15122 0.0434225 0)
(1.14795 0.04404 0)
(1.14462 0.0446686 0)
(1.26317 0.00696914 0)
(1.26086 0.00891872 0)
(1.25888 0.010428 0)
(1.25711 0.011818 0)
(1.25535 0.0131836 0)
(1.25357 0.0145238 0)
(1.25175 0.0158375 0)
(1.24988 0.0171204 0)
(1.24797 0.0183679 0)
(1.246 0.0195763 0)
(1.24398 0.0207427 0)
(1.24191 0.0218652 0)
(1.2398 0.0229424 0)
(1.23764 0.0239734 0)
(1.23543 0.0249581 0)
(1.23319 0.0258968 0)
(1.23091 0.02679 0)
(1.2286 0.027639 0)
(1.22625 0.0284453 0)
(1.22388 0.0292106 0)
(1.22147 0.0299371 0)
(1.21904 0.0306272 0)
(1.21658 0.0312833 0)
(1.21409 0.0319081 0)
(1.21158 0.0325045 0)
(1.20905 0.0330753 0)
(1.2065 0.0336235 0)
(1.20392 0.0341522 0)
(1.20132 0.0346642 0)
(1.19869 0.0351626 0)
(1.19604 0.0356503 0)
(1.19337 0.0361301 0)
(1.19067 0.0366049 0)
(1.18794 0.0370774 0)
(1.18519 0.0375501 0)
(1.18241 0.0380255 0)
(1.1796 0.0385059 0)
(1.17676 0.0389935 0)
(1.17388 0.0394901 0)
(1.17097 0.0399975 0)
(1.16802 0.0405172 0)
(1.16504 0.0410502 0)
(1.16201 0.0415976 0)
(1.15894 0.0421599 0)
(1.15583 0.0427371 0)
(1.15267 0.043329 0)
(1.14946 0.043935 0)
(1.1462 0.0445538 0)
(1.14289 0.0451836 0)
(1.25872 0.00911546 7.41207e-21)
(1.25724 0.0105854 -3.29528e-21)
(1.25565 0.0119059 3.45411e-20)
(1.25404 0.013206 -8.94466e-21)
(1.25233 0.0145501 -9.00931e-21)
(1.25055 0.0158881 -2.66638e-20)
(1.2487 0.0172039 3.6123e-20)
(1.24679 0.0184909 1.28125e-20)
(1.24482 0.0197425 -8.79956e-21)
(1.24279 0.0209538 -1.48164e-20)
(1.24071 0.0221216 1.22071e-20)
(1.23858 0.0232438 -1.42312e-20)
(1.2364 0.024319 2.02225e-20)
(1.23418 0.0253465 -1.61892e-20)
(1.23192 0.0263261 3.73117e-21)
(1.22962 0.0272582 -1.29973e-20)
(1.22728 0.0281438 5.90757e-21)
(1.22492 0.0289842 1.16831e-20)
(1.22252 0.0297809 -6.1967e-21)
(1.22009 0.0305361 -6.1236e-21)
(1.21764 0.031252 5.15896e-21)
(1.21517 0.0319311 -2.14085e-21)
(1.21267 0.0325761 7.59834e-21)
(1.21014 0.0331898 -1.29815e-20)
(1.2076 0.0337752 -1.83248e-21)
(1.20504 0.0343352 -5.87716e-21)
(1.20246 0.034873 1.91664e-20)
(1.19985 0.0353915 -2.29806e-20)
(1.19723 0.0358939 2.1992e-20)
(1.19459 0.0363832 -1.73283e-20)
(1.19192 0.0368624 1.00809e-21)
(1.18923 0.0373343 1.29441e-20)
(1.18653 0.0378019 4.4131e-21)
(1.18379 0.0382678 -1.21982e-20)
(1.18104 0.0387346 1.20115e-20)
(1.17826 0.0392048 -6.09678e-22)
(1.17545 0.0396807 -7.974e-21)
(1.17261 0.0401644 -8.53179e-22)
(1.16974 0.0406578 4.80041e-21)
(1.16684 0.0411626 -5.56192e-21)
(1.16391 0.0416803 -5.9093e-22)
(1.16094 0.0422119 2.55318e-21)
(1.15793 0.0427584 8.86562e-22)
(1.15488 0.0433202 4.27876e-23)
(1.1518 0.0438974 -2.54514e-21)
(1.14867 0.0444897 2.09205e-21)
(1.14549 0.0450963 1.79011e-21)
(1.14227 0.0457158 -3.34676e-21)
(1.139 0.0463465 -3.42085e-22)
(1.253 0.0111888 -2.0414e-20)
(1.25152 0.0129465 -1.81601e-20)
(1.24995 0.0145276 1.76305e-20)
(1.24835 0.0159373 1.73267e-20)
(1.24662 0.0173252 7.05806e-21)
(1.24479 0.0186818 -2.23155e-20)
(1.24286 0.0199931 -2.65589e-21)
(1.24087 0.0212606 -1.57577e-20)
(1.23881 0.0224832 -1.19746e-21)
(1.23668 0.023659 1.69624e-20)
(1.2345 0.0247865 -1.42451e-21)
(1.23228 0.025865 -2.74489e-20)
(1.23 0.0268939 4.1681e-20)
(1.22769 0.0278736 -1.22512e-20)
(1.22534 0.0288044 4.57232e-21)
(1.22295 0.0296875 1.44913e-20)
(1.22053 0.0305244 -1.60559e-20)
(1.21809 0.0313166 -7.34492e-21)
(1.21562 0.0320665 1.28776e-20)
(1.21313 0.0327763 3.99758e-21)
(1.21061 0.0334485 4.21267e-23)
(1.20808 0.0340859 -2.81084e-20)
(1.20553 0.0346915 3.21936e-20)
(1.20296 0.0352681 -2.60895e-20)
(1.20038 0.0358188 1.13692e-21)
(1.19778 0.0363467 6.47446e-21)
(1.19517 0.0368549 -8.82496e-21)
(1.19254 0.0373464 1.46354e-20)
(1.1899 0.0378243 5.89945e-21)
(1.18724 0.0382915 -1.77309e-20)
(1.18456 0.038751 -5.851e-21)
(1.18187 0.0392057 1.54488e-20)
(1.17916 0.0396581 -1.30214e-20)
(1.17643 0.0401111 2.47702e-21)
(1.17368 0.040567 -3.38905e-21)
(1.17092 0.0410281 1.45385e-20)
(1.16813 0.0414967 -9.2116e-21)
(1.16531 0.0419748 4.70662e-21)
(1.16247 0.042464 4.72578e-22)
(1.15961 0.0429659 -1.49408e-21)
(1.15671 0.0434818 1.52999e-21)
(1.15379 0.0440127 -3.86387e-21)
(1.15083 0.0445592 4.84934e-21)
(1.14784 0.0451216 -4.09885e-22)
(1.14481 0.0456998 -3.00879e-22)
(1.14174 0.0462932 -6.06247e-21)
(1.13864 0.0469009 6.19633e-21)
(1.13549 0.0475213 -2.02071e-22)
(1.1323 0.0481523 -4.58858e-22)
(1.2473 0.0136978 5.42631e-20)
(1.2456 0.0153813 -3.87183e-20)
(1.24383 0.0170071 1.06686e-20)
(1.24208 0.0184573 1.10931e-20)
(1.24023 0.0198602 -3.0145e-20)
(1.23828 0.0212226 2.56741e-20)
(1.23625 0.0225303 -2.65318e-20)
(1.23414 0.0237845 1.18151e-20)
(1.23197 0.0249867 5.00664e-21)
(1.22975 0.0261365 3.58235e-20)
(1.22747 0.0272335 -5.1012e-20)
(1.22514 0.0282778 1.47634e-20)
(1.22277 0.0292699 1.06014e-20)
(1.22037 0.0302107 -8.64816e-21)
(1.21793 0.0311014 -3.83407e-21)
(1.21547 0.0319437 -5.01614e-21)
(1.21297 0.0327395 3.112e-20)
(1.21046 0.033491 -2.33911e-20)
(1.20793 0.0342006 2.5205e-20)
(1.20538 0.0348712 -5.2624e-21)
(1.20281 0.0355055 -2.40066e-20)
(1.20023 0.0361065 7.6438e-21)
(1.19764 0.0366773 1.97941e-21)
(1.19503 0.037221 4.47202e-21)
(1.19242 0.0377408 -6.79206e-21)
(1.18979 0.0382397 -3.01771e-21)
(1.18716 0.038721 7.14053e-21)
(1.18451 0.0391877 -1.95713e-21)
(1.18186 0.0396429 1.23636e-21)
(1.17919 0.0400895 7.54073e-21)
(1.17652 0.0405305 -7.82794e-22)
(1.17383 0.0409685 -7.17382e-21)
(1.17113 0.0414063 -4.16386e-21)
(1.16841 0.0418463 1.58899e-20)
(1.16569 0.0422911 -5.62746e-21)
(1.16294 0.0427428 -6.28595e-21)
(1.16018 0.0432036 6.79732e-21)
(1.1574 0.0436752 -1.94743e-22)
(1.1546 0.0441593 -1.70657e-21)
(1.15178 0.0446573 2.25376e-21)
(1.14893 0.0451704 -1.58302e-21)
(1.14606 0.0456994 1.86381e-21)
(1.14316 0.0462447 -3.19873e-21)
(1.14024 0.0468066 8.45908e-22)
(1.13728 0.0473847 1.75937e-21)
(1.13429 0.0479783 -5.79606e-21)
(1.13127 0.0485861 5.10854e-21)
(1.12821 0.0492065 -1.95878e-22)
(1.12512 0.049837 -4.18588e-21)
(1.24096 0.0165238 2.45504e-20)
(1.23902 0.0181304 1.70584e-20)
(1.23701 0.0197258 -1.3672e-20)
(1.23507 0.0211604 -1.92738e-20)
(1.23305 0.0225449 -6.86671e-22)
(1.23095 0.0238887 3.32412e-20)
(1.22878 0.0251757 1.27149e-20)
(1.22655 0.0264047 1.39248e-21)
(1.22427 0.0275773 -4.56933e-22)
(1.22193 0.0286935 7.67996e-22)
(1.21955 0.0297534 -4.33075e-21)
(1.21712 0.0307578 8.89388e-22)
(1.21466 0.031708 -3.12946e-20)
(1.21217 0.0326054 -3.79845e-21)
(1.20965 0.0334517 -9.07548e-21)
(1.20711 0.0342493 3.56875e-20)
(1.20455 0.0350004 -6.4036e-21)
(1.20198 0.0357078 1.70904e-20)
(1.19939 0.0363743 -2.20423e-20)
(1.19679 0.0370028 -5.95252e-21)
(1.19418 0.0375965 -9.13934e-21)
(1.19156 0.0381585 -5.78212e-21)
(1.18893 0.0386921 2.47164e-20)
(1.1863 0.0392005 -1.02256e-20)
(1.18367 0.0396869 -9.28717e-21)
(1.18102 0.0401545 1.39947e-20)
(1.17838 0.0406065 2.4563e-21)
(1.17573 0.041046 -4.3203e-21)
(1.17307 0.041476 9.58742e-21)
(1.17041 0.0418995 1.1285e-21)
(1.16775 0.0423193 -1.21898e-20)
(1.16507 0.042738 3.32868e-21)
(1.16239 0.0431583 1.70503e-21)
(1.1597 0.0435828 -3.77505e-21)
(1.15701 0.0440136 6.61214e-21)
(1.1543 0.0444529 -4.58207e-21)
(1.15158 0.0449028 -1.28203e-21)
(1.14884 0.0453649 -1.50196e-21)
(1.14609 0.0458408 5.80825e-21)
(1.14333 0.0463318 -4.20432e-21)
(1.14054 0.0468389 4.25682e-21)
(1.13774 0.0473627 -2.15201e-21)
(1.13491 0.0479037 1.34872e-22)
(1.13207 0.0484618 -1.00956e-22)
(1.12919 0.0490366 -1.8297e-21)
(1.12629 0.0496271 4.71914e-22)
(1.12337 0.0502319 1.77995e-21)
(1.12041 0.0508492 7.70934e-22)
(1.23369 0.0195052 1.05017e-20)
(1.23155 0.021064 2.41685e-20)
(1.22931 0.0226284 -1.49749e-22)
(1.22716 0.0240341 1.81164e-20)
(1.22496 0.0253874 -3.8377e-21)
(1.2227 0.0266992 -3.5021e-20)
(1.22038 0.0279525 3.37863e-20)
(1.21802 0.0291448 -7.30731e-21)
(1.21561 0.0302773 -2.10106e-22)
(1.21315 0.0313504 -1.80928e-20)
(1.21067 0.0323647 2.43803e-20)
(1.20815 0.0333216 -3.45097e-22)
(1.2056 0.0342226 -1.73044e-20)
(1.20303 0.0350699 -4.41186e-21)
(1.20043 0.0358658 8.08907e-21)
(1.19783 0.036613 -6.11607e-22)
(1.19521 0.0373144 -6.47825e-21)
(1.19258 0.0379728 4.63761e-21)
(1.18995 0.0385916 -6.94624e-21)
(1.18731 0.0391739 -1.40969e-20)
(1.18466 0.0397231 2.13776e-21)
(1.18202 0.0402424 1.36283e-20)
(1.17937 0.0407353 -6.55374e-21)
(1.17672 0.0412051 -7.1057e-21)
(1.17408 0.0416551 1.71675e-20)
(1.17143 0.0420885 -3.47315e-21)
(1.16879 0.0425084 7.89995e-21)
(1.16614 0.0429179 -1.20371e-22)
(1.1635 0.0433201 -7.36209e-22)
(1.16086 0.0437178 -1.73911e-20)
(1.15821 0.0441138 2.85049e-20)
(1.15556 0.0445108 -9.24734e-21)
(1.15292 0.0449112 -3.2688e-21)
(1.15027 0.0453175 -6.16557e-22)
(1.14761 0.0457319 1.29493e-21)
(1.14495 0.0461564 2.58357e-21)
(1.14228 0.0465929 -6.62949e-21)
(1.1396 0.047043 -2.12329e-21)
(1.13692 0.0475082 3.65928e-21)
(1.13422 0.0479896 -3.8406e-21)
(1.13151 0.0484881 3.4123e-21)
(1.12879 0.0490043 4.04087e-21)
(1.12605 0.0495384 -1.01824e-21)
(1.12329 0.0500901 -1.75172e-21)
(1.12052 0.0506588 4.10934e-22)
(1.11772 0.0512436 1.61731e-21)
(1.11491 0.0518428 3.20287e-22)
(1.11207 0.0524542 -4.44981e-22)
(1.2253 0.022638 -9.65562e-21)
(1.22298 0.024155 -1.62246e-20)
(1.22054 0.0256861 9.57847e-21)
(1.2182 0.0270511 1.05801e-20)
(1.21583 0.0283597 -2.49852e-20)
(1.21341 0.0296258 3.88579e-20)
(1.21094 0.030832 -2.97079e-20)
(1.20844 0.0319751 1.74016e-20)
(1.20591 0.0330564 8.33622e-21)
(1.20334 0.0340765 -1.9499e-20)
(1.20075 0.0350364 -2.95933e-21)
(1.19814 0.0359377 1.34651e-20)
(1.19551 0.0367825 8.60865e-21)
(1.19287 0.0375735 -3.58911e-20)
(1.19021 0.0383133 4.47167e-20)
(1.18755 0.0390051 -4.10017e-20)
(1.18489 0.039652 2.80976e-20)
(1.18222 0.0402573 -5.42979e-21)
(1.17955 0.0408245 -7.89273e-21)
(1.17688 0.041357 -4.90869e-22)
(1.17422 0.0418584 6.46207e-21)
(1.17156 0.042332 6.84674e-21)
(1.1689 0.0427814 -1.89131e-20)
(1.16625 0.0432099 7.11935e-21)
(1.16361 0.0436208 1.02603e-20)
(1.16097 0.0440174 -6.73493e-21)
(1.15834 0.0444027 4.03084e-21)
(1.15572 0.04478 -1.27094e-20)
(1.1531 0.045152 2.06166e-20)
(1.15048 0.0455217 -2.1251e-20)
(1.14788 0.0458917 8.92021e-21)
(1.14527 0.0462646 -3.75415e-21)