# Probe 0 (2 0 0)
# Probe 1 (3 -1.5 0)
# Probe 2 (3 1.5 0)
# Probe 3 (4 -2 0)
# Probe 4 (4 2 0)
#       Probe             0             1             2             3             4
#        Time
        0.005             (0.950339 -0.00240185 -1.10599e-18)             (0.995852 0.0202345 1.80461e-19)             (0.995852 -0.0202345 -1.47179e-19)             (1.0008 0.00543281 0)             (1.0008 -0.0054328 0)
         0.01             (0.94836 -0.00232245 4.35833e-20)             (0.995275 0.0174491 3.49709e-20)             (0.995275 -0.0174491 -2.71822e-20)             (1.00027 0.00542585 0)             (1.00027 -0.00542585 0)
        0.015             (0.948094 -0.00233775 1.78868e-21)             (0.995234 0.017081 -4.33872e-22)             (0.995234 -0.017081 3.90501e-22)             (1.00025 0.00551121 0)             (1.00025 -0.00551121 0)
         0.02             (0.947826 -0.00235327 1.17061e-21)             (0.9952 0.0169325 5.61635e-22)             (0.9952 -0.0169325 -4.14248e-22)             (1.00025 0.00559572 0)             (1.00025 -0.00559572 0)
        0.025             (0.947564 -0.00236872 1.04676e-21)             (0.995169 0.0168707 7.7828e-22)             (0.995169 -0.0168707 -5.93591e-22)             (1.00024 0.0056779 0)             (1.00024 -0.0056779 0)
         0.03             (0.947308 -0.002384 1.07126e-21)             (0.995143 0.0168525 7.97065e-22)             (0.995143 -0.0168525 -6.10735e-22)             (1.00024 0.00575717 0)             (1.00024 -0.00575717 0)
        0.035             (0.947058 -0.00239907 1.14169e-21)             (0.995121 0.0168593 7.44339e-22)             (0.995121 -0.0168593 -5.69285e-22)             (1.00025 0.00583348 0)             (1.00025 -0.00583348 0)
         0.04             (0.946812 -0.00241395 1.22007e-21)             (0.995104 0.0168816 6.65191e-22)             (0.995104 -0.0168816 -5.06254e-22)             (1.00025 0.00590699 0)             (1.00025 -0.00590699 0)
        0.045             (0.94657 -0.00242866 1.29451e-21)             (0.99509 0.0169142 5.78057e-22)             (0.99509 -0.0169142 -4.36656e-22)             (1.00025 0.00597788 0)             (1.00025 -0.00597788 0)
         0.05             (0.946331 -0.00244322 1.3603e-21)             (0.99508 0.0169539 4.91229e-22)             (0.99508 -0.0169539 -3.6738e-22)             (1.00026 0.00604635 0)             (1.00026 -0.00604635 0)
        0.055             (0.946094 -0.00245766 1.41713e-21)             (0.995072 0.0169987 4.08571e-22)             (0.995072 -0.0169987 -3.01485e-22)             (1.00027 0.0061126 0)             (1.00027 -0.0061126 0)
         0.06             (0.94586 -0.00247198 1.46413e-21)             (0.995067 0.0170474 3.31734e-22)             (0.995067 -0.0170474 -2.40339e-22)             (1.00027 0.00617683 0)             (1.00027 -0.00617684 0)
        0.065             (0.945626 -0.0024862 1.5036e-21)             (0.995064 0.0170991 2.61205e-22)             (0.995064 -0.0170991 -1.84339e-22)             (1.00028 0.00623922 0)             (1.00028 -0.00623922 0)
         0.07             (0.945394 -0.00250034 1.53744e-21)             (0.995063 0.0171534 1.96979e-22)             (0.995063 -0.0171534 -1.33398e-22)             (1.00029 0.0062999 0)             (1.00029 -0.0062999 0)
        0.075             (0.945163 -0.0025144 1.56538e-21)             (0.995063 0.0172096 1.38849e-22)             (0.995063 -0.0172096 -8.74219e-23)             (1.00029 0.00635901 0)             (1.00029 -0.00635901 0)
         0.08             (0.944933 -0.00252838 1.59062e-21)             (0.995065 0.0172676 8.64286e-23)             (0.995065 -0.0172676 -4.60443e-23)             (1.0003 0.00641667 0)             (1.0003 -0.00641667 0)
        0.085             (0.944703 -0.0025423 1.61293e-21)             (0.995068 0.0173269 3.92989e-23)             (0.995068 -0.0173269 -8.90874e-24)             (1.00031 0.00647297 0)             (1.00031 -0.00647297 0)
         0.09             (0.944474 -0.00255617 1.63387e-21)             (0.995072 0.0173874 -3.22218e-24)             (0.995072 -0.0173874 2.45108e-23)             (1.00032 0.00652801 0)             (1.00032 -0.00652801 0)
        0.095             (0.944246 -0.00256998 1.65259e-21)             (0.995077 0.0174489 -4.13605e-23)             (0.995077 -0.0174489 5.43757e-23)             (1.00033 0.00658186 0)             (1.00033 -0.00658186 0)
          0.1             (0.944017 -0.00258374 1.67046e-21)             (0.995082 0.0175112 -7.55344e-23)             (0.995082 -0.0175112 8.10531e-23)             (1.00034 0.00663459 0)             (1.00034 -0.00663459 0)
        0.105             (0.943789 -0.00259746 1.68661e-21)             (0.995089 0.0175743 -1.06013e-22)             (0.995089 -0.0175743 1.04756e-22)             (1.00034 0.00668627 0)             (1.00034 -0.00668627 0)
         0.11             (0.943562 -0.00261114 1.70287e-21)             (0.995095 0.0176379 -1.33372e-22)             (0.995095 -0.0176379 1.25956e-22)             (1.00035 0.00673697 0)             (1.00035 -0.00673697 0)
        0.115             (0.943334 -0.00262478 1.71855e-21)             (0.995103 0.0177022 -1.57773e-22)             (0.995103 -0.0177022 1.44782e-22)             (1.00036 0.00678674 0)             (1.00036 -0.00678674 0)
         0.12             (0.943107 -0.00263839 1.73427e-21)             (0.99511 0.0177668 -1.79371e-22)             (0.99511 -0.0177668 1.6143e-22)             (1.00037 0.00683562 0)             (1.00037 -0.00683562 0)
        0.125             (0.94288 -0.00265197 1.74989e-21)             (0.995118 0.0178318 -1.987e-22)             (0.995118 -0.0178318 1.76259e-22)             (1.00038 0.00688366 0)             (1.00038 -0.00688366 0)
         0.13             (0.942653 -0.00266552 1.76506e-21)             (0.995126 0.0178971 -2.15901e-22)             (0.995126 -0.0178971 1.89385e-22)             (1.00039 0.00693092 0)             (1.00039 -0.00693092 0)
        0.135             (0.942425 -0.00267905 1.77983e-21)             (0.995135 0.0179626 -2.31096e-22)             (0.995135 -0.0179626 2.00895e-22)             (1.0004 0.00697742 0)             (1.0004 -0.00697742 0)
         0.14             (0.942198 -0.00269255 1.79438e-21)             (0.995143 0.0180284 -2.44495e-22)             (0.995143 -0.0180284 2.10976e-22)             (1.00041 0.00702321 0)             (1.00041 -0.00702321 0)
        0.145             (0.941971 -0.00270604 1.80857e-21)             (0.995152 0.0180943 -2.56254e-22)             (0.995152 -0.0180943 2.19756e-22)             (1.00042 0.00706831 0)             (1.00042 -0.00706831 0)
         0.15             (0.941744 -0.00271951 1.82294e-21)             (0.99516 0.0181604 -2.66598e-22)             (0.99516 -0.0181604 2.27413e-22)             (1.00043 0.00711277 0)             (1.00043 -0.00711277 0)
        0.155             (0.941517 -0.00273296 1.83803e-21)             (0.995169 0.0182267 -2.75636e-22)             (0.995169 -0.0182267 2.34045e-22)             (1.00043 0.00715659 0)             (1.00043 -0.00715659 0)
         0.16             (0.941289 -0.00274641 1.85211e-21)             (0.995177 0.018293 -2.83234e-22)             (0.995177 -0.018293 2.39551e-22)             (1.00044 0.00719982 0)             (1.00044 -0.00719982 0)
        0.165             (0.941062 -0.00275984 1.86608e-21)             (0.995186 0.0183595 -2.89839e-22)             (0.995186 -0.0183595 2.44265e-22)             (1.00045 0.00724249 0)             (1.00045 -0.00724249 0)
         0.17             (0.940834 -0.00277326 1.87976e-21)             (0.995195 0.0184261 -2.95484e-22)             (0.995195 -0.0184261 2.48215e-22)             (1.00046 0.00728461 0)             (1.00046 -0.00728461 0)
        0.175             (0.940607 -0.00278668 1.89297e-21)             (0.995203 0.0184927 -3.00161e-22)             (0.995203 -0.0184927 2.51401e-22)             (1.00047 0.00732622 0)             (1.00047 -0.00732622 0)
         0.18             (0.940379 -0.0028001 1.90611e-21)             (0.995212 0.0185594 -3.04014e-22)             (0.995212 -0.0185594 2.5394e-22)             (1.00048 0.00736733 0)             (1.00048 -0.00736733 0)
        0.185             (0.94015 -0.00281352 1.91953e-21)             (0.99522 0.0186261 -3.07194e-22)             (0.99522 -0.0186261 2.55957e-22)             (1.00049 0.00740796 0)             (1.00049 -0.00740796 0)
         0.19             (0.939922 -0.00282694 1.93253e-21)             (0.995228 0.0186929 -3.09672e-22)             (0.995228 -0.0186929 2.57419e-22)             (1.0005 0.00744814 0)             (1.0005 -0.00744814 0)
        0.195             (0.939693 -0.00284037 1.94541e-21)             (0.995236 0.0187598 -3.11541e-22)             (0.995236 -0.0187598 2.58398e-22)             (1.00051 0.00748789 0)             (1.00051 -0.00748789 0)
          0.2             (0.939464 -0.0028538 1.95817e-21)             (0.995244 0.0188266 -3.12669e-22)             (0.995244 -0.0188266 2.58848e-22)             (1.00051 0.00752722 0)             (1.00051 -0.00752722 0)
        0.205             (0.939235 -0.00286724 1.97103e-21)             (0.995252 0.0188935 -3.13398e-22)             (0.995252 -0.0188935 2.58969e-22)             (1.00052 0.00756616 0)             (1.00052 -0.00756616 0)
         0.21             (0.939006 -0.00288068 1.98306e-21)             (0.99526 0.0189605 -3.13422e-22)             (0.99526 -0.0189605 2.5854e-22)             (1.00053 0.00760472 0)             (1.00053 -0.00760472 0)
        0.215             (0.938776 -0.00289415 1.99558e-21)             (0.995268 0.0190275 -3.13023e-22)             (0.995268 -0.0190275 2.57788e-22)             (1.00054 0.00764291 0)             (1.00054 -0.00764291 0)
         0.22             (0.938546 -0.00290762 2.0073e-21)             (0.995275 0.0190946 -3.12164e-22)             (0.995275 -0.0190946 2.56655e-22)             (1.00055 0.00768075 0)             (1.00055 -0.00768075 0)
        0.225             (0.938315 -0.00292111 2.01868e-21)             (0.995282 0.0191618 -3.10898e-22)             (0.995282 -0.0191618 2.55206e-22)             (1.00056 0.00771826 0)             (1.00056 -0.00771826 0)
         0.23             (0.938084 -0.00293463 2.02975e-21)             (0.99529 0.0192291 -3.09406e-22)             (0.99529 -0.0192291 2.53575e-22)             (1.00057 0.00775545 0)             (1.00057 -0.00775545 0)
        0.235             (0.937852 -0.00294816 2.04044e-21)             (0.995296 0.0192965 -3.0758e-22)             (0.995296 -0.0192965 2.51688e-22)             (1.00057 0.00779233 0)             (1.00057 -0.00779233 0)
         0.24             (0.93762 -0.00296172 2.05146e-21)             (0.995303 0.019364 -3.05522e-22)             (0.995303 -0.019364 2.49628e-22)             (1.00058 0.00782891 0)             (1.00058 -0.00782891 0)
        0.245             (0.937388 -0.0029753 2.06224e-21)             (0.99531 0.0194317 -3.03226e-22)             (0.99531 -0.0194317 2.47386e-22)             (1.00059 0.00786521 0)             (1.00059 -0.00786521 0)
         0.25             (0.937155 -0.00298892 2.07294e-21)             (0.995316 0.0194994 -3.00756e-22)             (0.995316 -0.0194994 2.45e-22)             (1.0006 0.00790122 0)             (1.0006 -0.00790122 0)
        0.255             (0.936922 -0.00300255 2.08344e-21)             (0.995322 0.0195673 -2.97968e-22)             (0.995322 -0.0195673 2.42421e-22)             (1.00061 0.00793695 0)             (1.00061 -0.00793695 0)
         0.26             (0.936688 -0.00301622 2.09408e-21)             (0.995328 0.0196352 -2.95073e-22)             (0.995328 -0.0196352 2.39773e-22)             (1.00062 0.00797249 0)             (1.00062 -0.00797249 0)
        0.265             (0.936453 -0.00302993 2.10445e-21)             (0.995334 0.0197032 -2.92042e-22)             (0.995334 -0.0197032 2.36997e-22)             (1.00062 0.00800779 0)             (1.00062 -0.00800779 0)
         0.27             (0.936218 -0.00304366 2.11372e-21)             (0.99534 0.0197714 -2.88612e-22)             (0.99534 -0.0197714 2.33916e-22)             (1.00063 0.00804287 0)             (1.00063 -0.00804287 0)
        0.275             (0.935982 -0.00305744 2.12347e-21)             (0.995345 0.0198396 -2.85153e-22)             (0.995345 -0.0198396 2.30819e-22)             (1.00064 0.00807772 0)             (1.00064 -0.00807772 0)
         0.28             (0.935746 -0.00307125 2.13298e-21)             (0.995351 0.019908 -2.81658e-22)             (0.995351 -0.019908 2.27691e-22)             (1.00065 0.00811236 0)             (1.00065 -0.00811236 0)
        0.285             (0.935509 -0.0030851 2.14238e-21)             (0.995356 0.0199765 -2.78078e-22)             (0.995356 -0.0199765 2.24505e-22)             (1.00066 0.00814677 0)             (1.00066 -0.00814677 0)
         0.29             (0.935272 -0.00309899 2.15185e-21)             (0.995361 0.0200451 -2.74392e-22)             (0.995361 -0.0200451 2.21277e-22)             (1.00067 0.00818103 0)             (1.00067 -0.00818103 0)
        0.295             (0.935034 -0.00311293 2.16127e-21)             (0.995366 0.0201137 -2.70486e-22)             (0.995366 -0.0201137 2.17894e-22)             (1.00067 0.00821512 0)             (1.00067 -0.00821512 0)
          0.3             (0.934795 -0.00312691 2.17082e-21)             (0.995371 0.0201825 -2.66591e-22)             (0.995371 -0.0201825 2.14507e-22)             (1.00068 0.00824903 0)             (1.00068 -0.00824903 0)
        0.305             (0.934555 -0.00314093 2.17921e-21)             (0.995375 0.0202514 -2.62634e-22)             (0.995375 -0.0202514 2.11059e-22)             (1.00069 0.00828277 0)             (1.00069 -0.00828277 0)
         0.31             (0.934315 -0.003155 2.18825e-21)             (0.99538 0.0203204 -2.58493e-22)             (0.99538 -0.0203204 2.07509e-22)             (1.0007 0.00831635 0)             (1.0007 -0.00831635 0)
        0.315             (0.934074 -0.00316912 2.19743e-21)             (0.995384 0.0203894 -2.54338e-22)             (0.995384 -0.0203894 2.03958e-22)             (1.0007 0.00834978 0)             (1.0007 -0.00834978 0)
         0.32             (0.933832 -0.00318329 2.20584e-21)             (0.995388 0.0204586 -2.50224e-22)             (0.995388 -0.0204586 2.00406e-22)             (1.00071 0.00838305 0)             (1.00071 -0.00838305 0)
        0.325             (0.93359 -0.00319752 2.21421e-21)             (0.995392 0.0205279 -2.46066e-22)             (0.995392 -0.0205279 1.96842e-22)             (1.00072 0.00841618 0)             (1.00072 -0.00841618 0)
         0.33             (0.933346 -0.00321179 2.22237e-21)             (0.995396 0.0205973 -2.41863e-22)             (0.995396 -0.0205973 1.93244e-22)             (1.00073 0.00844918 0)             (1.00073 -0.00844918 0)
        0.335             (0.933102 -0.00322612 2.23088e-21)             (0.995399 0.0206668 -2.37725e-22)             (0.995399 -0.0206668 1.89696e-22)             (1.00074 0.00848204 0)             (1.00074 -0.00848204 0)
         0.34             (0.932857 -0.00324051 2.23925e-21)             (0.995403 0.0207365 -2.33519e-22)             (0.995403 -0.0207365 1.86107e-22)             (1.00074 0.00851477 0)             (1.00074 -0.00851477 0)
        0.345             (0.932612 -0.00325495 2.24697e-21)             (0.995406 0.0208062 -2.29204e-22)             (0.995406 -0.0208062 1.82437e-22)             (1.00075 0.00854738 0)             (1.00075 -0.00854738 0)
         0.35             (0.932365 -0.00326946 2.25507e-21)             (0.99541 0.0208761 -2.24968e-22)             (0.99541 -0.0208761 1.78833e-22)             (1.00076 0.00857987 0)             (1.00076 -0.00857987 0)
        0.355             (0.932118 -0.00328402 2.2636e-21)             (0.995413 0.0209461 -2.2085e-22)             (0.995413 -0.0209461 1.75328e-22)             (1.00077 0.00861226 0)             (1.00077 -0.00861226 0)
         0.36             (0.93187 -0.00329864 2.27201e-21)             (0.995416 0.0210161 -2.1673e-22)             (0.995416 -0.0210161 1.7182e-22)             (1.00077 0.00864456 0)             (1.00077 -0.00864456 0)
        0.365             (0.93162 -0.00331333 2.27905e-21)             (0.995419 0.0210863 -2.1232e-22)             (0.995419 -0.0210863 1.68107e-22)             (1.00078 0.00867676 0)             (1.00078 -0.00867676 0)
         0.37             (0.93137 -0.00332808 2.28529e-21)             (0.995422 0.0211566 -2.0781e-22)             (0.995422 -0.0211566 1.64322e-22)             (1.00079 0.00870887 0)             (1.00079 -0.00870887 0)
        0.375             (0.931119 -0.00334291 2.29228e-21)             (0.995424 0.0212271 -2.03563e-22)             (0.995424 -0.0212271 1.60734e-22)             (1.00079 0.0087409 0)             (1.00079 -0.0087409 0)
         0.38             (0.930867 -0.0033578 2.29992e-21)             (0.995427 0.0212977 -1.99411e-22)             (0.995427 -0.0212977 1.57217e-22)             (1.0008 0.00877283 0)             (1.0008 -0.00877283 0)
        0.385             (0.930615 -0.00337277 2.30768e-21)             (0.995429 0.0213684 -1.95274e-22)             (0.995429 -0.0213684 1.53728e-22)             (1.00081 0.00880468 0)             (1.00081 -0.00880468 0)
         0.39             (0.930361 -0.0033878 2.31496e-21)             (0.995431 0.0214391 -1.90931e-22)             (0.995431 -0.0214391 1.50108e-22)             (1.00082 0.00883646 0)             (1.00082 -0.00883646 0)
        0.395             (0.930106 -0.0034029 2.32219e-21)             (0.995434 0.02151 -1.86702e-22)             (0.995434 -0.02151 1.46559e-22)             (1.00082 0.00886817 0)             (1.00082 -0.00886817 0)
          0.4             (0.92985 -0.00341808 2.32907e-21)             (0.995436 0.0215811 -1.82494e-22)             (0.995436 -0.0215811 1.43016e-22)             (1.00083 0.00889982 0)             (1.00083 -0.00889982 0)
        0.405             (0.929593 -0.00343333 2.3365e-21)             (0.995438 0.0216522 -1.78387e-22)             (0.995438 -0.0216522 1.39562e-22)             (1.00084 0.0089314 0)             (1.00084 -0.0089314 0)
         0.41             (0.929335 -0.00344866 2.3439e-21)             (0.995439 0.0217235 -1.74126e-22)             (0.995439 -0.0217235 1.3602e-22)             (1.00085 0.00896292 0)             (1.00085 -0.00896292 0)
        0.415             (0.929077 -0.00346406 2.35108e-21)             (0.995441 0.0217949 -1.69941e-22)             (0.995441 -0.0217949 1.32526e-22)             (1.00085 0.00899438 0)             (1.00085 -0.00899438 0)
         0.42             (0.928817 -0.00347954 2.35821e-21)             (0.995443 0.0218664 -1.65885e-22)             (0.995443 -0.0218664 1.29123e-22)             (1.00086 0.00902579 0)             (1.00086 -0.00902579 0)
        0.425             (0.928556 -0.0034951 2.36549e-21)             (0.995444 0.0219381 -1.61802e-22)             (0.995444 -0.0219381 1.25708e-22)             (1.00087 0.00905715 0)             (1.00087 -0.00905715 0)
         0.43             (0.928294 -0.00351073 2.37298e-21)             (0.995446 0.0220098 -1.57689e-22)             (0.995446 -0.0220098 1.22282e-22)             (1.00087 0.00908845 0)             (1.00087 -0.00908845 0)
        0.435             (0.928031 -0.00352645 2.38042e-21)             (0.995447 0.0220817 -1.53713e-22)             (0.995447 -0.0220817 1.18954e-22)             (1.00088 0.00911971 0)             (1.00088 -0.00911971 0)
         0.44             (0.927767 -0.00354225 2.38728e-21)             (0.995448 0.0221538 -1.49722e-22)             (0.995448 -0.0221538 1.15607e-22)             (1.00089 0.00915091 0)             (1.00089 -0.00915091 0)
        0.445             (0.927502 -0.00355813 2.39438e-21)             (0.995449 0.022226 -1.458e-22)             (0.995449 -0.022226 1.12337e-22)             (1.00089 0.00918209 0)             (1.00089 -0.00918209 0)
         0.45             (0.927235 -0.0035741 2.40169e-21)             (0.99545 0.0222982 -1.41882e-22)             (0.99545 -0.0222982 1.09091e-22)             (1.0009 0.00921327 0)             (1.0009 -0.00921327 0)
        0.455             (0.926968 -0.00359015 2.4089e-21)             (0.995451 0.0223706 -1.38005e-22)             (0.995451 -0.0223706 1.05857e-22)             (1.00091 0.00924442 0)             (1.00091 -0.00924442 0)
         0.46             (0.9267 -0.00360629 2.41651e-21)             (0.995452 0.0224431 -1.34246e-22)             (0.995452 -0.0224431 1.02718e-22)             (1.00092 0.00927554 0)             (1.00092 -0.00927554 0)
        0.465             (0.92643 -0.00362252 2.42362e-21)             (0.995453 0.0225158 -1.30441e-22)             (0.995453 -0.0225158 9.95403e-23)             (1.00092 0.00930662 0)             (1.00092 -0.00930662 0)
         0.47             (0.926159 -0.00363884 2.42968e-21)             (0.995454 0.0225886 -1.26556e-22)             (0.995454 -0.0225886 9.62967e-23)             (1.00093 0.00933767 0)             (1.00093 -0.00933767 0)
        0.475             (0.925887 -0.00365525 2.43624e-21)             (0.995454 0.0226615 -1.22716e-22)             (0.995454 -0.0226615 9.30927e-23)             (1.00094 0.00936869 0)             (1.00094 -0.00936869 0)
         0.48             (0.925614 -0.00367175 2.44323e-21)             (0.995455 0.0227346 -1.18901e-22)             (0.995455 -0.0227346 8.99311e-23)             (1.00094 0.00939969 0)             (1.00094 -0.00939969 0)
        0.485             (0.92534 -0.00368835 2.45047e-21)             (0.995455 0.0228078 -1.15249e-22)             (0.995455 -0.0228078 8.69065e-23)             (1.00095 0.00943073 0)             (1.00095 -0.00943073 0)
         0.49             (0.925064 -0.00370504 2.45746e-21)             (0.995456 0.0228812 -1.11642e-22)             (0.995456 -0.0228812 8.38933e-23)             (1.00096 0.00946175 0)             (1.00096 -0.00946175 0)
        0.495             (0.924787 -0.00372182 2.46457e-21)             (0.995456 0.0229546 -1.07924e-22)             (0.995456 -0.0229546 8.08198e-23)             (1.00096 0.00949276 0)             (1.00096 -0.00949276 0)
          0.5             (0.92451 -0.0037387 2.47195e-21)             (0.995456 0.0230282 -1.04299e-22)             (0.995456 -0.0230282 7.78175e-23)             (1.00097 0.00952376 0)             (1.00097 -0.00952376 0)
        0.505             (0.92423 -0.00375568 2.47813e-21)             (0.995456 0.023102 -1.0061e-22)             (0.995456 -0.023102 7.47542e-23)             (1.00098 0.00955475 0)             (1.00098 -0.00955475 0)
         0.51             (0.92395 -0.00377277 2.48501e-21)             (0.995456 0.0231758 -9.69641e-23)             (0.995456 -0.0231758 7.17549e-23)             (1.00098 0.00958575 0)             (1.00098 -0.00958575 0)
        0.515             (0.923668 -0.00378995 2.49207e-21)             (0.995456 0.0232498 -9.34185e-23)             (0.995456 -0.0232498 6.8816e-23)             (1.00099 0.00961674 0)             (1.00099 -0.00961674 0)
         0.52             (0.923385 -0.00380723 2.4992e-21)             (0.995456 0.023324 -8.98986e-23)             (0.995456 -0.023324 6.58988e-23)             (1.001 0.00964773 0)             (1.001 -0.00964773 0)
        0.525             (0.923101 -0.00382461 2.50643e-21)             (0.995456 0.0233983 -8.64799e-23)             (0.995456 -0.0233983 6.30588e-23)             (1.001 0.00967872 0)             (1.001 -0.00967872 0)
         0.53             (0.922815 -0.0038421 2.5134e-21)             (0.995456 0.0234727 -8.30544e-23)             (0.995456 -0.0234727 6.02133e-23)             (1.00101 0.00970972 0)             (1.00101 -0.00970972 0)
        0.535             (0.922528 -0.00385969 2.52079e-21)             (0.995456 0.0235472 -7.97063e-23)             (0.995456 -0.0235472 5.74323e-23)             (1.00102 0.00974071 0)             (1.00102 -0.00974071 0)
         0.54             (0.92224 -0.00387738 2.52991e-21)             (0.995455 0.0236219 -7.65802e-23)             (0.995455 -0.0236219 5.48318e-23)             (1.00102 0.00977171 0)             (1.00102 -0.00977171 0)
        0.545             (0.921951 -0.00389518 2.53644e-21)             (0.995455 0.0236967 -7.32028e-23)             (0.995455 -0.0236967 5.20308e-23)             (1.00103 0.00980271 0)             (1.00103 -0.00980271 0)
         0.55             (0.92166 -0.0039131 2.54053e-21)             (0.995454 0.0237717 -6.96384e-23)             (0.995454 -0.0237717 4.90859e-23)             (1.00104 0.00983373 0)             (1.00104 -0.00983373 0)
        0.555             (0.921368 -0.00393114 2.5457e-21)             (0.995454 0.0238469 -6.62321e-23)             (0.995454 -0.0238469 4.62584e-23)             (1.00104 0.00986477 0)             (1.00104 -0.00986477 0)
         0.56             (0.921074 -0.0039493 2.55171e-21)             (0.995453 0.0239222 -6.29833e-23)             (0.995453 -0.0239222 4.35582e-23)             (1.00105 0.00989583 0)             (1.00105 -0.00989583 0)
        0.565             (0.920779 -0.00396756 2.5593e-21)             (0.995452 0.0239976 -5.98999e-23)             (0.995452 -0.0239976 4.09907e-23)             (1.00106 0.0099269 0)             (1.00106 -0.0099269 0)
         0.57             (0.920482 -0.00398595 2.56491e-21)             (0.995452 0.0240732 -5.64416e-23)             (0.995452 -0.0240732 3.81589e-23)             (1.00106 0.009958 0)             (1.00106 -0.009958 0)
        0.575             (0.920184 -0.00400445 2.57191e-21)             (0.995451 0.024149 -5.31657e-23)             (0.995451 -0.024149 3.54458e-23)             (1.00107 0.00998912 0)             (1.00107 -0.00998912 0)
         0.58             (0.919885 -0.00402306 2.57976e-21)             (0.99545 0.0242249 -5.01524e-23)             (0.99545 -0.0242249 3.29367e-23)             (1.00108 0.0100203 0)             (1.00108 -0.0100203 0)
        0.585             (0.919584 -0.0040418 2.58673e-21)             (0.995449 0.0243009 -4.72108e-23)             (0.995449 -0.0243009 3.04778e-23)             (1.00108 0.0100514 0)             (1.00108 -0.0100514 0)
         0.59             (0.919282 -0.00406066 2.59299e-21)             (0.995448 0.024377 -4.39976e-23)             (0.995448 -0.024377 2.78353e-23)             (1.00109 0.0100826 0)             (1.00109 -0.0100826 0)
        0.595             (0.918978 -0.00407963 2.60042e-21)             (0.995447 0.0244533 -4.08163e-23)             (0.995447 -0.0244533 2.52138e-23)             (1.0011 0.0101138 0)             (1.0011 -0.0101138 0)
          0.6             (0.918673 -0.00409873 2.6081e-21)             (0.995446 0.0245297 -3.79131e-23)             (0.995446 -0.0245297 2.27931e-23)             (1.0011 0.010145 0)             (1.0011 -0.010145 0)
        0.605             (0.918366 -0.00411795 2.61631e-21)             (0.995445 0.0246062 -3.50148e-23)             (0.995445 -0.0246062 2.03738e-23)             (1.00111 0.0101763 0)             (1.00111 -0.0101763 0)
         0.61             (0.918058 -0.0041373 2.62236e-21)             (0.995443 0.0246829 -3.18399e-23)             (0.995443 -0.0246829 1.77561e-23)             (1.00112 0.0102075 0)             (1.00112 -0.0102075 0)
        0.615             (0.917748 -0.00415677 2.62954e-21)             (0.995442 0.0247597 -2.87852e-23)             (0.995442 -0.0247597 1.5246e-23)             (1.00112 0.0102389 0)             (1.00112 -0.0102389 0)
         0.62             (0.917437 -0.00417637 2.63722e-21)             (0.995441 0.0248367 -2.58853e-23)             (0.995441 -0.0248367 1.28337e-23)             (1.00113 0.0102702 0)             (1.00113 -0.0102702 0)
        0.625             (0.917124 -0.0041961 2.64512e-21)             (0.995439 0.0249137 -2.30269e-23)             (0.995439 -0.0249137 1.04564e-23)             (1.00113 0.0103016 0)             (1.00113 -0.0103016 0)
         0.63             (0.91681 -0.00421596 2.65241e-21)             (0.995438 0.0249909 -1.9985e-23)             (0.995438 -0.0249909 7.9463e-24)             (1.00114 0.010333 0)             (1.00114 -0.010333 0)
        0.635             (0.916494 -0.00423595 2.65984e-21)             (0.995436 0.0250682 -1.70327e-23)             (0.995436 -0.0250682 5.49883e-24)             (1.00115 0.0103644 0)             (1.00115 -0.0103644 0)
         0.64             (0.916177 -0.00425607 2.66682e-21)             (0.995435 0.0251457 -1.40497e-23)             (0.995435 -0.0251457 3.02021e-24)             (1.00115 0.0103959 0)             (1.00115 -0.0103959 0)
        0.645             (0.915858 -0.00427633 2.67345e-21)             (0.995433 0.0252233 -1.11129e-23)             (0.995433 -0.0252233 5.75068e-25)             (1.00116 0.0104274 0)             (1.00116 -0.0104274 0)
         0.65             (0.915538 -0.00429673 2.68127e-21)             (0.995432 0.0253011 -8.28427e-24)             (0.995432 -0.0253011 -1.77139e-24)             (1.00117 0.010459 0)             (1.00117 -0.010459 0)
        0.655             (0.915216 -0.00431726 2.68925e-21)             (0.99543 0.0253789 -5.48754e-24)             (0.99543 -0.0253789 -4.07836e-24)             (1.00117 0.0104906 0)             (1.00117 -0.0104906 0)
         0.66             (0.914892 -0.00433793 2.69724e-21)             (0.995428 0.0254569 -2.73607e-24)             (0.995428 -0.0254569 -6.36333e-24)             (1.00118 0.0105222 0)             (1.00118 -0.0105222 0)
        0.665             (0.914567 -0.00435874 2.70534e-21)             (0.995426 0.0255349 3.49569e-27)             (0.995426 -0.0255349 -8.64054e-24)             (1.00119 0.0105539 0)             (1.00119 -0.0105539 0)
         0.67             (0.91424 -0.00437969 2.71314e-21)             (0.995424 0.0256131 2.77252e-24)             (0.995424 -0.0256131 -1.09439e-23)             (1.00119 0.0105856 0)             (1.00119 -0.0105856 0)