/*--------------------------------*- C++ -*----------------------------------*\
  =========                 |
  \\      /  F ield         | OpenFOAM: The Open Source CFD Toolbox
   \\    /   O peration     | Website:  https://openfoam.org
    \\  /    A nd           | Version:  7
     \\/     M anipulation  |
\*---------------------------------------------------------------------------*/
FoamFile
{
    version     2.0;
    format      ascii;
    class       volScalarField;
    location    "30";
    object      p;
}
// * * * * * * * * * * * * * * * * * * * * * * * * * * * * * * * * * * * * * //

dimensions      [0 2 -2 0 0 0 0];

internalField   nonuniform List<scalar> 
10500
(
-0.39832
-0.386427
-0.367725
-0.341732
-0.315579
-0.287503
-0.261167
-0.234119
-0.213174
-0.187285
-0.399335
-0.386947
-0.36819
-0.342059
-0.315865
-0.287735
-0.261383
-0.234226
-0.213402
-0.186835
-0.401353
-0.387982
-0.369114
-0.342708
-0.316433
-0.288196
-0.261809
-0.234438
-0.213855
-0.185949
-0.404355
-0.389521
-0.370488
-0.34367
-0.317274
-0.288876
-0.262437
-0.234751
-0.214523
-0.184655
-0.408314
-0.391548
-0.372294
-0.344932
-0.318374
-0.289765
-0.263255
-0.23516
-0.215392
-0.182995
-0.413194
-0.39404
-0.374513
-0.346478
-0.319717
-0.290847
-0.264246
-0.235657
-0.216439
-0.181022
-0.418956
-0.396969
-0.377121
-0.348289
-0.321283
-0.292104
-0.26539
-0.236236
-0.217637
-0.1788
-0.425521
-0.400325
-0.380092
-0.350342
-0.323052
-0.293518
-0.266664
-0.236889
-0.21895
-0.176401
-0.43284
-0.404067
-0.383394
-0.352613
-0.324998
-0.295066
-0.268043
-0.237606
-0.220333
-0.173904
-0.440857
-0.408155
-0.386996
-0.355077
-0.327096
-0.296727
-0.269498
-0.238381
-0.221735
-0.171388
-0.449501
-0.412554
-0.390863
-0.357709
-0.329321
-0.298475
-0.270999
-0.239204
-0.223095
-0.168934
-0.458694
-0.417225
-0.394962
-0.360481
-0.331645
-0.300288
-0.272512
-0.240066
-0.224347
-0.166616
-0.468358
-0.42213
-0.399255
-0.363367
-0.334042
-0.30214
-0.274006
-0.240957
-0.225416
-0.164503
-0.47841
-0.427225
-0.403705
-0.366339
-0.336483
-0.304005
-0.275444
-0.241865
-0.226223
-0.162658
-0.488768
-0.43247
-0.408276
-0.369368
-0.33894
-0.305855
-0.276792
-0.242779
-0.226691
-0.161159
-0.499342
-0.43782
-0.412927
-0.372427
-0.341383
-0.307659
-0.278013
-0.243684
-0.226742
-0.160099
-0.510046
-0.443231
-0.417619
-0.375484
-0.34378
-0.309383
-0.27907
-0.244562
-0.226266
-0.159417
-0.520789
-0.448658
-0.422314
-0.378508
-0.346098
-0.31099
-0.279933
-0.245405
-0.225091
-0.158797
-0.531482
-0.454056
-0.426967
-0.381464
-0.348299
-0.312435
-0.280573
-0.246212
-0.22316
-0.159076
-0.541994
-0.459348
-0.431515
-0.384302
-0.350332
-0.313665
-0.280954
-0.246914
-0.221002
-0.165967
-0.552145
-0.464416
-0.435863
-0.386951
-0.352135
-0.314613
-0.281014
-0.247281
-0.219199
-0.186824
-0.562046
-0.469374
-0.440072
-0.389433
-0.353694
-0.315234
-0.280688
-0.24709
-0.216666
-0.193573
-0.571529
-0.474102
-0.444041
-0.391668
-0.354934
-0.315453
-0.279904
-0.246186
-0.213609
-0.194459
-0.580452
-0.478506
-0.447686
-0.393581
-0.355781
-0.315197
-0.278601
-0.244528
-0.210304
-0.193167
-0.588705
-0.482518
-0.450936
-0.395106
-0.356166
-0.3144
-0.27672
-0.2421
-0.206652
-0.190226
-0.596178
-0.486066
-0.453718
-0.396172
-0.356016
-0.31299
-0.2742
-0.238886
-0.202539
-0.185888
-0.602754
-0.489073
-0.455948
-0.396701
-0.355252
-0.310901
-0.270982
-0.234876
-0.197892
-0.180447
-0.608315
-0.491453
-0.457539
-0.396609
-0.353793
-0.308066
-0.267015
-0.230063
-0.192658
-0.174126
-0.612736
-0.493118
-0.458396
-0.395808
-0.351559
-0.304422
-0.26225
-0.224445
-0.186797
-0.167069
-0.615894
-0.493976
-0.458423
-0.39421
-0.348469
-0.299908
-0.256647
-0.218019
-0.180281
-0.159369
-0.617661
-0.493928
-0.457518
-0.391721
-0.344444
-0.294471
-0.250174
-0.210788
-0.173091
-0.151088
-0.617913
-0.492875
-0.455577
-0.388251
-0.339411
-0.288063
-0.242805
-0.202755
-0.165222
-0.142264
-0.616523
-0.490714
-0.452496
-0.38371
-0.3333
-0.280642
-0.234521
-0.193928
-0.156674
-0.132921
-0.613366
-0.487341
-0.44817
-0.378011
-0.326048
-0.272176
-0.225313
-0.184317
-0.147455
-0.123076
-0.608321
-0.482654
-0.442499
-0.371073
-0.317599
-0.262639
-0.215178
-0.173935
-0.137581
-0.112743
-0.601272
-0.47655
-0.435384
-0.362819
-0.307909
-0.252014
-0.204118
-0.162801
-0.127068
-0.101936
-0.592109
-0.468932
-0.426734
-0.353184
-0.29694
-0.240294
-0.192146
-0.150935
-0.11594
-0.0906686
-0.580742
-0.459712
-0.416468
-0.342111
-0.284667
-0.22748
-0.179277
-0.138359
-0.104222
-0.0789581
-0.567082
-0.448806
-0.404512
-0.329554
-0.271074
-0.213579
-0.165533
-0.125103
-0.0919399
-0.0668234
-0.550926
-0.436074
-0.390772
-0.315464
-0.256153
-0.198609
-0.150942
-0.111193
-0.0791239
-0.0542858
-0.53195
-0.421321
-0.375141
-0.299797
-0.239903
-0.182592
-0.135536
-0.096664
-0.0658043
-0.04137
-0.510831
-0.404843
-0.357752
-0.282615
-0.222368
-0.165568
-0.119354
-0.0815503
-0.0520147
-0.0281065
-0.487293
-0.386461
-0.338514
-0.263894
-0.203565
-0.147573
-0.102435
-0.0658903
-0.0377902
-0.0145234
-0.461201
-0.366087
-0.317394
-0.243637
-0.183528
-0.128652
-0.0848258
-0.0497247
-0.0231757
-0.000645323
-0.432554
-0.343706
-0.294402
-0.221877
-0.162306
-0.108857
-0.0665733
-0.0330951
-0.00821767
0.0134967
-0.401384
-0.319326
-0.269566
-0.19866
-0.139956
-0.0882438
-0.0477294
-0.0160437
0.00710336
0.0278168
-0.367726
-0.292963
-0.242928
-0.174041
-0.116545
-0.0668766
-0.0283497
0.00137409
0.0227077
0.0423192
-0.331639
-0.264651
-0.214547
-0.14809
-0.0921463
-0.0448222
-0.00849194
0.019118
0.0385529
0.0569609
-0.293198
-0.234441
-0.184497
-0.120889
-0.0668428
-0.0221532
0.011784
0.0371376
0.0546014
0.0716977
-0.252504
-0.202405
-0.15287
-0.0925288
-0.0407228
0.00105531
0.0324143
0.0553808
0.0708121
0.0864858
-0.209675
-0.16863
-0.119773
-0.0631131
-0.0138813
0.024724
0.0533338
0.073794
0.0871428
0.10128
-0.164852
-0.133228
-0.0853195
-0.0327555
0.0135812
0.0487703
0.0744749
0.0923224
0.103551
0.116032
-0.118193
-0.0963271
-0.0496439
-0.00157536
0.0415593
0.0731087
0.0957682
0.11091
0.119992
0.130691
-0.0698711
-0.0580452
-0.012916
0.0302994
0.0699436
0.0976518
0.117143
0.129499
0.136425
0.145202
-0.0200838
-0.0185621
0.0247236
0.0627336
0.0986209
0.12231
0.138525
0.148032
0.152802
0.1595
0.0309449
0.0219625
0.0631055
0.0955861
0.127476
0.146992
0.159843
0.166449
0.16908
0.173516
0.0829951
0.0633354
0.102049
0.128711
0.15639
0.171605
0.181021
0.184693
0.185225
0.187184
0.135804
0.105348
0.141366
0.161959
0.185244
0.196058
0.201983
0.202711
0.201227
0.200408
0.189114
0.147791
0.180865
0.195177
0.213917
0.220257
0.222653
0.22045
0.217019
0.212955
0.242866
0.190526
0.220374
0.22822
0.242292
0.244108
0.242959
0.237846
0.23232
0.224323
0.297196
0.233479
0.259742
0.260943
0.270248
0.267522
0.262833
0.254829
0.246847
0.234095
0.350579
0.275966
0.298613
0.293153
0.297662
0.290408
0.282208
0.271349
0.261186
0.246066
0.40315
0.317924
0.336845
0.324715
0.324421
0.31268
0.301017
0.287338
0.275012
0.258391
0.454813
0.359185
0.374262
0.355482
0.350409
0.334249
0.319191
0.302746
0.288213
0.270272
0.505276
0.399506
0.410663
0.385307
0.375516
0.355033
0.336665
0.317527
0.300807
0.281574
0.554234
0.438644
0.445853
0.414045
0.399632
0.374949
0.353376
0.331632
0.312785
0.29231
0.601405
0.47637
0.479644
0.441559
0.422655
0.393921
0.369265
0.345016
0.324121
0.302463
0.646516
0.512458
0.511855
0.467713
0.444484
0.411873
0.384274
0.357636
0.334787
0.311998
0.689303
0.546694
0.542313
0.492382
0.465024
0.428736
0.39835
0.369451
0.344756
0.320888
0.729512
0.578871
0.570852
0.515445
0.484186
0.444441
0.411443
0.380425
0.354003
0.329113
0.766902
0.608793
0.59732
0.536789
0.501886
0.458928
0.423505
0.390521
0.362502
0.336653
0.801245
0.636276
0.62157
0.55631
0.518047
0.472138
0.434491
0.399706
0.370228
0.343492
0.832333
0.661153
0.643473
0.573911
0.532597
0.484018
0.444362
0.407951
0.377159
0.349613
0.859975
0.68327
0.662907
0.589507
0.545472
0.494521
0.453082
0.415228
0.383273
0.355003
0.884
0.702489
0.679768
0.603021
0.556615
0.503603
0.460617
0.421512
0.388552
0.359647
0.904258
0.718691
0.693962
0.614385
0.565978
0.51123
0.466941
0.426782
0.392978
0.363536
0.920622
0.731775
0.705411
0.623544
0.573518
0.517368
0.472029
0.431021
0.396536
0.36666
0.93299
0.741659
0.714053
0.630452
0.579202
0.521993
0.475861
0.434212
0.399216
0.36901
0.941284
0.748282
0.71984
0.635076
0.583005
0.525087
0.478424
0.436347
0.401008
0.37058
0.945453
0.751606
0.722742
0.637393
0.584911
0.526638
0.479708
0.437416
0.401906
0.371367
0.945453
0.751606
0.722742
0.637393
0.584911
0.526638
0.479708
0.437416
0.401906
0.371367
0.941284
0.748282
0.71984
0.635076
0.583005
0.525087
0.478424
0.436347
0.401008
0.37058
0.93299
0.741659
0.714053
0.630452
0.579202
0.521993
0.475861
0.434212
0.399216
0.36901
0.920622
0.731775
0.705411
0.623544
0.573518
0.517368
0.472029
0.431021
0.396536
0.36666
0.904258
0.718691
0.693962
0.614385
0.565978
0.51123
0.466941
0.426782
0.392978
0.363536
0.884
0.702489
0.679768
0.603021
0.556615
0.503603
0.460617
0.421512
0.388552
0.359647
0.859975
0.68327
0.662907
0.589507
0.545472
0.494521
0.453082
0.415228
0.383273
0.355003
0.832333
0.661153
0.643473
0.573911
0.532597
0.484018
0.444362
0.407951
0.377159
0.349613
0.801245
0.636276
0.62157
0.55631
0.518047
0.472138
0.434491
0.399706
0.370228
0.343492
0.766902
0.608793
0.59732
0.536789
0.501886
0.458928
0.423505
0.390521
0.362502
0.336653
0.729512
0.578871
0.570852
0.515445
0.484186
0.444441
0.411443
0.380425
0.354003
0.329113
0.689303
0.546694
0.542313
0.492382
0.465024
0.428736
0.39835
0.369451
0.344756
0.320888
0.646516
0.512458
0.511855
0.467713
0.444484
0.411873
0.384274
0.357636
0.334787
0.311998
0.601405
0.47637
0.479644
0.441559
0.422655
0.393921
0.369265
0.345016
0.324121
0.302463
0.554234
0.438644
0.445853
0.414045
0.399632
0.374949
0.353376
0.331632
0.312785
0.29231
0.505276
0.399506
0.410663
0.385307
0.375516
0.355033
0.336665
0.317527
0.300807
0.281574
0.454813
0.359185
0.374262
0.355482
0.350409
0.334249
0.319191
0.302746
0.288213
0.270272
0.40315
0.317924
0.336845
0.324715
0.324421
0.31268
0.301017
0.287338
0.275012
0.258391
0.350579
0.275966
0.298613
0.293153
0.297662
0.290408
0.282208
0.271349
0.261186
0.246066
0.297196
0.233479
0.259742
0.260943
0.270248
0.267522
0.262833
0.254829
0.246847
0.234095
0.242866
0.190526
0.220374
0.22822
0.242292
0.244108
0.242959
0.237846
0.23232
0.224323
0.189114
0.147791
0.180865
0.195177
0.213917
0.220257
0.222653
0.22045
0.217019
0.212955
0.135804
0.105348
0.141366
0.161959
0.185244
0.196058
0.201983
0.202711
0.201227
0.200408
0.0829951
0.0633354
0.102049
0.128711
0.15639
0.171605
0.181021
0.184693
0.185225
0.187184
0.0309449
0.0219625
0.0631055
0.0955861
0.127476
0.146992
0.159843
0.166449
0.16908
0.173516
-0.0200838
-0.0185621
0.0247236
0.0627336
0.0986209
0.12231
0.138525
0.148032
0.152802
0.1595
-0.0698711
-0.0580452
-0.012916
0.0302994
0.0699436
0.0976518
0.117143
0.129499
0.136425
0.145202
-0.118193
-0.0963271
-0.0496439
-0.00157536
0.0415593
0.0731087
0.0957682
0.11091
0.119992
0.130691
-0.164852
-0.133228
-0.0853195
-0.0327555
0.0135812
0.0487703
0.0744749
0.0923224
0.103551
0.116032
-0.209675
-0.16863
-0.119773
-0.0631131
-0.0138813
0.024724
0.0533338
0.073794
0.0871428
0.10128
-0.252504
-0.202405
-0.15287
-0.0925288
-0.0407228
0.00105531
0.0324143
0.0553808
0.0708121
0.0864858
-0.293198
-0.234441
-0.184497
-0.120889
-0.0668428
-0.0221532
0.011784
0.0371376
0.0546014
0.0716977
-0.331639
-0.264651
-0.214547
-0.14809
-0.0921463
-0.0448222
-0.00849194
0.019118
0.0385529
0.0569609
-0.367726
-0.292963
-0.242928
-0.174041
-0.116545
-0.0668766
-0.0283497
0.00137409
0.0227077
0.0423192
-0.401384
-0.319326
-0.269566
-0.19866
-0.139956
-0.0882438
-0.0477294
-0.0160437
0.00710336
0.0278168
-0.432554
-0.343706
-0.294402
-0.221877
-0.162306
-0.108857
-0.0665733
-0.0330951
-0.00821767
0.0134967
-0.461201
-0.366087
-0.317394
-0.243637
-0.183528
-0.128652
-0.0848258
-0.0497247
-0.0231757
-0.000645322
-0.487293
-0.386461
-0.338514
-0.263894
-0.203565
-0.147573
-0.102435
-0.0658903
-0.0377902
-0.0145234
-0.510831
-0.404843
-0.357752
-0.282615
-0.222368
-0.165568
-0.119354
-0.0815503
-0.0520147
-0.0281065
-0.53195
-0.421321
-0.375141
-0.299796
-0.239903
-0.182592
-0.135536
-0.096664
-0.0658043
-0.04137
-0.550926
-0.436074
-0.390772
-0.315464
-0.256153
-0.198609
-0.150942
-0.111193
-0.0791239
-0.0542858
-0.567082
-0.448806
-0.404512
-0.329554
-0.271074
-0.213579
-0.165533
-0.125103
-0.0919399
-0.0668234
-0.580742
-0.459712
-0.416468
-0.342111
-0.284667
-0.22748
-0.179277
-0.138359
-0.104222
-0.0789581
-0.592109
-0.468932
-0.426734
-0.353184
-0.29694
-0.240294
-0.192146
-0.150935
-0.11594
-0.0906686
-0.601272
-0.47655
-0.435384
-0.362819
-0.307909
-0.252014
-0.204118
-0.162801
-0.127068
-0.101936
-0.608321
-0.482654
-0.442499
-0.371073
-0.317599
-0.262639
-0.215178
-0.173935
-0.137581
-0.112743
-0.613366
-0.487341
-0.44817
-0.378011
-0.326048
-0.272176
-0.225313
-0.184317
-0.147455
-0.123076
-0.616523
-0.490714
-0.452496
-0.38371
-0.3333
-0.280642
-0.234521
-0.193928
-0.156674
-0.132921
-0.617913
-0.492875
-0.455577
-0.388251
-0.339411
-0.288063
-0.242805
-0.202755
-0.165222
-0.142264
-0.617661
-0.493928
-0.457518
-0.391721
-0.344444
-0.294471
-0.250174
-0.210788
-0.173091
-0.151088
-0.615894
-0.493976
-0.458423
-0.394209
-0.348469
-0.299908
-0.256647
-0.218019
-0.180281
-0.159369
-0.612736
-0.493118
-0.458396
-0.395808
-0.351559
-0.304422
-0.26225
-0.224445
-0.186797
-0.167069
-0.608315
-0.491453
-0.457539
-0.396609
-0.353793
-0.308066
-0.267015
-0.230063
-0.192658
-0.174126
-0.602754
-0.489073
-0.455948
-0.396701
-0.355252
-0.310901
-0.270982
-0.234876
-0.197892
-0.180447
-0.596178
-0.486066
-0.453718
-0.396172
-0.356016
-0.31299
-0.2742
-0.238886
-0.202539
-0.185888
-0.588705
-0.482518
-0.450936
-0.395106
-0.356166
-0.314399
-0.27672
-0.2421
-0.206652
-0.190226
-0.580452
-0.478506
-0.447686
-0.393581
-0.355781
-0.315197
-0.278601
-0.244528
-0.210304
-0.193167
-0.571529
-0.474102
-0.444041
-0.391668
-0.354934
-0.315453
-0.279904
-0.246186
-0.213609
-0.194459
-0.562046
-0.469374
-0.440072
-0.389433
-0.353694
-0.315234
-0.280688
-0.24709
-0.216666
-0.193573
-0.552145
-0.464416
-0.435863
-0.386951
-0.352135
-0.314613
-0.281014
-0.247281
-0.219199
-0.186824
-0.541994
-0.459348
-0.431515
-0.384302
-0.350332
-0.313665
-0.280954
-0.246914
-0.221002
-0.165967
-0.531482
-0.454056
-0.426967
-0.381464
-0.348299
-0.312435
-0.280573
-0.246212
-0.22316
-0.159076
-0.520789
-0.448658
-0.422314
-0.378508
-0.346098
-0.31099
-0.279933
-0.245405
-0.225091
-0.158797
-0.510046
-0.443231
-0.417619
-0.375484
-0.34378
-0.309383
-0.27907
-0.244562
-0.226266
-0.159417
-0.499342
-0.43782
-0.412927
-0.372427
-0.341383
-0.307659
-0.278013
-0.243684
-0.226742
-0.160099
-0.488768
-0.43247
-0.408276
-0.369368
-0.33894
-0.305855
-0.276792
-0.242779
-0.226691
-0.161159
-0.47841
-0.427225
-0.403705
-0.366339
-0.336483
-0.304005
-0.275444
-0.241865
-0.226223
-0.162658
-0.468358
-0.42213
-0.399255
-0.363367
-0.334042
-0.30214
-0.274006
-0.240957
-0.225416
-0.164503
-0.458694
-0.417225
-0.394962
-0.360481
-0.331645
-0.300288
-0.272512
-0.240066
-0.224347
-0.166616
-0.449501
-0.412554
-0.390863
-0.357709
-0.329321
-0.298475
-0.270999
-0.239204
-0.223095
-0.168934
-0.440857
-0.408155
-0.386996
-0.355077
-0.327096
-0.296727
-0.269498
-0.238381
-0.221735
-0.171388
-0.43284
-0.404067
-0.383394
-0.352613
-0.324998
-0.295066
-0.268043
-0.237606
-0.220333
-0.173904
-0.425521
-0.400325
-0.380092
-0.350342
-0.323052
-0.293518
-0.266664
-0.236889
-0.21895
-0.176401
-0.418956
-0.396969
-0.377121
-0.348289
-0.321283
-0.292104
-0.26539
-0.236236
-0.217637
-0.1788
-0.413194
-0.39404
-0.374513
-0.346478
-0.319717
-0.290847
-0.264246
-0.235657
-0.216439
-0.181022
-0.408314
-0.391548
-0.372294
-0.344932
-0.318374
-0.289765
-0.263255
-0.23516
-0.215392
-0.182995
-0.404355
-0.389521
-0.370488
-0.34367
-0.317274
-0.288876
-0.262437
-0.234751
-0.214523
-0.184655
-0.401353
-0.387982
-0.369114
-0.342708
-0.316433
-0.288196
-0.261809
-0.234438
-0.213855
-0.185949
-0.399335
-0.386947
-0.36819
-0.342059
-0.315865
-0.287735
-0.261383
-0.234226
-0.213402
-0.186835
-0.39832
-0.386427
-0.367725
-0.341732
-0.315579
-0.287503
-0.261167
-0.234119
-0.213174
-0.187285
-0.179086
-0.171242
-0.163073
-0.155234
-0.147516
-0.139942
-0.132565
-0.125403
-0.118473
-0.111787
-0.105357
-0.0991903
-0.0932919
-0.0876642
-0.0823071
-0.0772181
-0.0723929
-0.0678252
-0.0635072
-0.0594297
-0.0555827
-0.0519552
-0.0485357
-0.0453123
-0.0422732
-0.0394065
-0.0367003
-0.0341433
-0.0317246
-0.0294336
-0.0272606
-0.0251963
-0.0232324
-0.0213602
-0.0195744
-0.0178648
-0.0162325
-0.0146585
-0.0131639
-0.0116964
-0.0103393
-0.00893146
-0.00774977
-0.0062956
-0.00542975
-0.00364673
-0.00352372
-0.000621787
-0.00247648
0.0038023
-0.179671
-0.171659
-0.163347
-0.155467
-0.147716
-0.140113
-0.132716
-0.125539
-0.118596
-0.1119
-0.105461
-0.099287
-0.0933819
-0.0877482
-0.0823856
-0.0772915
-0.0724615
-0.0678893
-0.063567
-0.0594855
-0.0556346
-0.0520033
-0.0485803
-0.0453536
-0.0423113
-0.0394415
-0.0367325
-0.0341728
-0.0317516
-0.0294582
-0.027283
-0.0252166
-0.0232508
-0.0213768
-0.0195893
-0.0178781
-0.0162444
-0.0146691
-0.0131732
-0.0117046
-0.0103465
-0.00893785
-0.00775511
-0.00630067
-0.00543327
-0.00365153
-0.00352481
-0.000629091
-0.00247255
0.00378329
-0.180828
-0.172488
-0.163892
-0.155931
-0.148113
-0.140455
-0.133018
-0.12581
-0.118842
-0.112125
-0.105669
-0.0994798
-0.0935616
-0.0879159
-0.0825424
-0.0774381
-0.0725986
-0.0680174
-0.0636866
-0.0595969
-0.0557382
-0.0520996
-0.0486695
-0.0454361
-0.0423875
-0.0395117
-0.0367969
-0.0342319
-0.0318056
-0.0295075
-0.0273278
-0.0252572
-0.0232876
-0.02141
-0.0196191
-0.0179048
-0.0162682
-0.0146903
-0.013192
-0.0117212
-0.0103609
-0.00895062
-0.00776578
-0.00631081
-0.00544031
-0.00366113
-0.003527
-0.000643656
-0.00246473
0.00374548
-0.182529
-0.173717
-0.164705
-0.156623
-0.148707
-0.140965
-0.133468
-0.126214
-0.119208
-0.112461
-0.105979
-0.099768
-0.0938301
-0.0881668
-0.082777
-0.0776577
-0.072804
-0.0682094
-0.0638658
-0.059764
-0.0558938
-0.0522441
-0.0488034
-0.04556
-0.0425018
-0.039617
-0.0368937
-0.0343206
-0.0318866
-0.0295814
-0.0273951
-0.0253182
-0.0233427
-0.0214597
-0.0196638
-0.0179448
-0.0163039
-0.014722
-0.01322
-0.0117459
-0.0103825
-0.00896976
-0.00778176
-0.006326
-0.00545087
-0.00367549
-0.00353032
-0.000665393
-0.00245312
0.00368923
-0.184729
-0.175325
-0.165777
-0.157536
-0.149491
-0.141639
-0.134063
-0.126747
-0.119693
-0.112906
-0.10639
-0.10015
-0.0941862
-0.0884997
-0.0830887
-0.0779496
-0.0730773
-0.068465
-0.0641046
-0.0599867
-0.0561011
-0.0524367
-0.048982
-0.0457252
-0.0426544
-0.0397574
-0.0370227
-0.0344388
-0.0319947
-0.02968
-0.0274847
-0.0253995
-0.0234162
-0.0215259
-0.0197233
-0.0179981
-0.0163515
-0.0147643
-0.0132574
-0.0117789
-0.0104112
-0.00899522
-0.00780303
-0.0063462
-0.00546492
-0.00369457
-0.00353479
-0.00069417
-0.00243788
0.00361511
-0.187364
-0.177284
-0.167095
-0.158661
-0.150458
-0.142472
-0.134797
-0.127407
-0.120292
-0.113456
-0.106899
-0.100623
-0.094628
-0.0889133
-0.0834763
-0.078313
-0.0734178
-0.0687838
-0.0644026
-0.0602648
-0.0563601
-0.0526775
-0.0492053
-0.0459318
-0.0428451
-0.0399331
-0.0371841
-0.0345867
-0.0321299
-0.0298032
-0.0275967
-0.0255011
-0.023508
-0.0216087
-0.0197977
-0.0180646
-0.0164108
-0.014817
-0.013304
-0.01182
-0.010447
-0.00902697
-0.00782955
-0.00637137
-0.00548247
-0.00371832
-0.00354046
-0.000729815
-0.0024192
0.00352385
-0.190355
-0.179552
-0.16864
-0.159984
-0.151598
-0.143454
-0.135664
-0.128186
-0.121001
-0.114107
-0.107502
-0.101185
-0.0951533
-0.0894057
-0.0839384
-0.0787468
-0.0738248
-0.0691651
-0.0647594
-0.060598
-0.0566706
-0.0529662
-0.0494732
-0.0461797
-0.043074
-0.0401439
-0.0373777
-0.0347641
-0.0322921
-0.029951
-0.0277311
-0.0256229
-0.0236181
-0.0217078
-0.0198867
-0.0181443
-0.0164818
-0.01488
-0.0133597
-0.0118692
-0.0104898
-0.00906493
-0.00786126
-0.00640146
-0.00550347
-0.00374665
-0.00354736
-0.000772116
-0.0023973
0.00341635
-0.193602
-0.182073
-0.170385
-0.161485
-0.152896
-0.144574
-0.136655
-0.129077
-0.121812
-0.114853
-0.108195
-0.101831
-0.0957592
-0.0899748
-0.0844734
-0.0792497
-0.0742972
-0.0696083
-0.0651744
-0.0609859
-0.0570323
-0.0533027
-0.0497855
-0.0464689
-0.043341
-0.0403898
-0.0376037
-0.0349712
-0.0324813
-0.0301234
-0.0278878
-0.0257648
-0.0237463
-0.0218233
-0.0199904
-0.018237
-0.0165645
-0.0149534
-0.0134245
-0.0119264
-0.0105396
-0.00910904
-0.00789811
-0.0064364
-0.00552792
-0.00377948
-0.00355555
-0.000820826
-0.00237246
0.00329364
-0.196992
-0.184776
-0.172293
-0.163138
-0.15433
-0.145817
-0.137757
-0.13007
-0.122718
-0.115689
-0.108972
-0.102559
-0.0964425
-0.0906178
-0.085079
-0.07982
-0.0748338
-0.0701124
-0.065647
-0.061428
-0.0574449
-0.0536868
-0.0501421
-0.0467992
-0.043646
-0.0406708
-0.0378618
-0.0352077
-0.0326973
-0.0303203
-0.0280667
-0.0259269
-0.0238927
-0.021955
-0.0201086
-0.0183427
-0.0166586
-0.0150369
-0.0134983
-0.0119914
-0.0105963
-0.0091592
-0.00794002
-0.00647613
-0.00555578
-0.00381672
-0.00356509
-0.000875666
-0.00234499
0.00315689
-0.200393
-0.187573
-0.174319
-0.164909
-0.155876
-0.147163
-0.138955
-0.131153
-0.12371
-0.116607
-0.109829
-0.103362
-0.0971992
-0.0913317
-0.085753
-0.080456
-0.0754331
-0.0706762
-0.0661763
-0.0619236
-0.0579078
-0.054118
-0.0505427
-0.0471703
-0.0439889
-0.0409867
-0.038152
-0.0354735
-0.0329402
-0.0305415
-0.0282676
-0.0261088
-0.0240569
-0.0221028
-0.0202412
-0.0184612
-0.0167641
-0.0151305
-0.0135809
-0.0120642
-0.0106596
-0.00921533
-0.00798692
-0.00652055
-0.00558701
-0.00385824
-0.00357604
-0.000936327
-0.00231521
0.00300738
-0.203663
-0.190362
-0.176405
-0.166755
-0.157499
-0.148588
-0.14023
-0.132312
-0.124776
-0.117598
-0.110757
-0.104236
-0.0980249
-0.0921131
-0.0864926
-0.0811554
-0.0760935
-0.0712984
-0.0667611
-0.0624719
-0.0584205
-0.0545959
-0.050987
-0.047582
-0.0443694
-0.0413373
-0.0384741
-0.0357686
-0.0332097
-0.0307869
-0.0284904
-0.0263105
-0.0242389
-0.0222666
-0.0203879
-0.0185923
-0.0168808
-0.015234
-0.0136722
-0.0121446
-0.0107296
-0.00927729
-0.00803872
-0.00656957
-0.00562157
-0.00390393
-0.00358847
-0.00100248
-0.00228349
0.00284647
-0.206657
-0.193027
-0.17848
-0.168624
-0.159161
-0.150062
-0.141561
-0.13353
-0.125903
-0.118651
-0.111749
-0.105175
-0.0989148
-0.092958
-0.0872945
-0.0819156
-0.0768128
-0.0719775
-0.0674004
-0.063072
-0.0589821
-0.0551199
-0.0514743
-0.0480339
-0.0447871
-0.0417222
-0.0388278
-0.0360926
-0.0335056
-0.0310563
-0.028735
-0.0265318
-0.0244385
-0.022446
-0.0205487
-0.0187358
-0.0170085
-0.0153471
-0.013772
-0.0122325
-0.0108061
-0.00934498
-0.0080953
-0.00662308
-0.00565943
-0.00395366
-0.00360244
-0.00107376
-0.00225018
0.00267557
-0.209227
-0.19544
-0.180463
-0.170453
-0.160814
-0.151552
-0.142923
-0.134788
-0.127078
-0.119758
-0.112796
-0.106171
-0.0998638
-0.0938623
-0.0881556
-0.0827342
-0.0775891
-0.0727116
-0.0680927
-0.0637227
-0.0595917
-0.0556892
-0.0520042
-0.0485255
-0.0452417
-0.0421413
-0.0392129
-0.0364453
-0.0338277
-0.0313495
-0.029001
-0.0267724
-0.0246555
-0.0226409
-0.0207233
-0.0188916
-0.017147
-0.0154698
-0.0138802
-0.0123278
-0.0108889
-0.00941827
-0.00815657
-0.00668097
-0.00570051
-0.00400727
-0.00361804
-0.00114982
-0.00221569
0.00249616
-0.211237
-0.197474
-0.182267
-0.172174
-0.162405
-0.153019
-0.144288
-0.136067
-0.128285
-0.120904
-0.113891
-0.107218
-0.100866
-0.0948217
-0.0890723
-0.0836081
-0.07842
-0.0734992
-0.0688366
-0.064423
-0.0602486
-0.0563032
-0.0525762
-0.0490564
-0.0457329
-0.0425941
-0.039629
-0.0368265
-0.0341757
-0.0316662
-0.0292883
-0.0270322
-0.0248896
-0.0228512
-0.0209115
-0.0190594
-0.0172962
-0.0156018
-0.0139965
-0.0124301
-0.0109778
-0.00949699
-0.00822241
-0.00674311
-0.00574478
-0.0040646
-0.00363532
-0.00123027
-0.00218038
0.00230973
-0.212574
-0.199004
-0.183793
-0.173701
-0.163869
-0.154415
-0.145618
-0.137337
-0.129502
-0.122075
-0.115018
-0.108304
-0.101913
-0.0958283
-0.0900381
-0.0845321
-0.0793009
-0.074336
-0.0696286
-0.0651698
-0.0609501
-0.0569597
-0.0531881
-0.0496249
-0.046259
-0.0430794
-0.0400751
-0.037235
-0.0345487
-0.0320056
-0.029596
-0.0273103
-0.0251401
-0.0230761
-0.0211127
-0.0192387
-0.0174554
-0.0157428
-0.0141207
-0.0125393
-0.0110727
-0.0095809
-0.00829259
-0.0068093
-0.00579211
-0.00412546
-0.00365432
-0.00131468
-0.00214469
0.00211776
-0.213098
-0.199865
-0.184909
-0.174928
-0.165126
-0.155681
-0.146871
-0.138566
-0.130704
-0.123248
-0.116161
-0.109416
-0.102991
-0.0968711
-0.0910432
-0.0854972
-0.080224
-0.0752152
-0.0704626
-0.0659576
-0.0616913
-0.0576541
-0.0538362
-0.0502274
-0.046817
-0.0435943
-0.0405485
-0.0376688
-0.0349447
-0.0323659
-0.0299227
-0.0276055
-0.025406
-0.0233146
-0.021326
-0.0194288
-0.0176242
-0.015892
-0.0142521
-0.0126549
-0.0111731
-0.00966969
-0.0083669
-0.00687932
-0.00584238
-0.00418961
-0.0036751
-0.00140262
-0.00210902
0.00192173
-0.212555
-0.199892
-0.185536
-0.175817
-0.166167
-0.156822
-0.148058
-0.139769
-0.131907
-0.12444
-0.117335
-0.110566
-0.104114
-0.097962
-0.0920985
-0.0865134
-0.0811982
-0.076145
-0.071346
-0.0667932
-0.0624782
-0.0583921
-0.0545255
-0.0508685
-0.0474111
-0.0441426
-0.0410527
-0.0381308
-0.0353665
-0.0327496
-0.0302706
-0.0279197
-0.0256889
-0.0235684
-0.0215529
-0.0196308
-0.0178034
-0.0160505
-0.0143915
-0.0127774
-0.0112795
-0.0097638
-0.00844568
-0.00695345
-0.00589583
-0.00425717
-0.00369784
-0.00149394
-0.00207366
0.00172286
-0.211219
-0.199339
-0.185824
-0.176454
-0.167065
-0.157911
-0.149252
-0.141019
-0.133183
-0.125721
-0.118608
-0.111822
-0.105344
-0.0991601
-0.0932597
-0.0876334
-0.0822732
-0.0771718
-0.0723223
-0.0677171
-0.0633486
-0.0592085
-0.0552879
-0.0515777
-0.0480679
-0.0447486
-0.0416096
-0.0386406
-0.0358314
-0.0331721
-0.0306531
-0.0282648
-0.025999
-0.0238461
-0.0218007
-0.0198511
-0.0179986
-0.0162227
-0.0145427
-0.0129101
-0.0113945
-0.00986529
-0.00853055
-0.00703298
-0.00595343
-0.00432893
-0.00372301
-0.00158908
-0.00203855
0.00152201
-0.210599
-0.198112
-0.185195
-0.176168
-0.167202
-0.158415
-0.150009
-0.141947
-0.134226
-0.126838
-0.11977
-0.113006
-0.106534
-0.100344
-0.094426
-0.0887736
-0.08338
-0.0782391
-0.0733449
-0.0686912
-0.0642713
-0.0600778
-0.0561028
-0.0523376
-0.0487732
-0.0454002
-0.0422089
-0.0391894
-0.0363319
-0.0336266
-0.0310642
-0.0286352
-0.0263314
-0.0241432
-0.0220652
-0.0200857
-0.0182058
-0.0164051
-0.0147025
-0.01305
-0.0115155
-0.00997177
-0.00861944
-0.00711607
-0.00601375
-0.00440344
-0.00374999
-0.00168679
-0.00200423
0.00132135
-0.205004
-0.192863
-0.181589
-0.173308
-0.165131
-0.157022
-0.149127
-0.141452
-0.134026
-0.126861
-0.119963
-0.113329
-0.106955
-0.100838
-0.0949737
-0.0893574
-0.0839857
-0.078855
-0.0739611
-0.0692995
-0.0648649
-0.0606514
-0.0566521
-0.0528595
-0.0492656
-0.0458617
-0.0426387
-0.0395875
-0.0366986
-0.0339627
-0.0313708
-0.0289136
-0.0265831
-0.0243698
-0.0222685
-0.0202672
-0.0183673
-0.0165482
-0.0148288
-0.0131615
-0.0116127
-0.0100584
-0.00869249
-0.00718585
-0.00606474
-0.00446913
-0.00377406
-0.00177705
-0.00197601
0.00112857
-0.177496
-0.189504
-0.181217
-0.173232
-0.165203
-0.157119
-0.14921
-0.141512
-0.13406
-0.126872
-0.119953
-0.113301
-0.106914
-0.100785
-0.0949123
-0.0892901
-0.0839149
-0.0787829
-0.0738897
-0.0692304
-0.0647995
-0.0605908
-0.0565973
-0.0528111
-0.0492239
-0.045827
-0.042611
-0.0395666
-0.0366843
-0.0339546
-0.0313683
-0.0289161
-0.0265902
-0.0243807
-0.0222827
-0.0202841
-0.0183864
-0.0165689
-0.0148507
-0.0131841
-0.0116356
-0.0100822
-0.00871461
-0.00721175
-0.00608372
-0.00450203
-0.0037848
-0.00183184
-0.00196398
0.000989254
-0.166891
-0.184569
-0.177758
-0.170618
-0.163213
-0.15555
-0.147962
-0.140518
-0.133272
-0.126252
-0.119472
-0.112935
-0.106644
-0.100596
-0.0947902
-0.0892241
-0.0838954
-0.0788013
-0.0739387
-0.0693036
-0.0648915
-0.0606966
-0.0567128
-0.0529329
-0.0493491
-0.045953
-0.0427359
-0.0396888
-0.0368024
-0.0340677
-0.0314758
-0.0290174
-0.026685
-0.024469
-0.0223644
-0.0203592
-0.0184552
-0.0166315
-0.0149075
-0.0132357
-0.0116814
-0.0101247
-0.00875047
-0.00724823
-0.00610934
-0.00453898
-0.00379633
-0.00188474
-0.00194668
0.000874771
-0.162819
-0.17928
-0.173372
-0.167092
-0.160403
-0.153278
-0.146118
-0.139022
-0.132062
-0.12528
-0.118699
-0.11233
-0.10618
-0.100252
-0.0945474
-0.0890665
-0.083809
-0.0787739
-0.0739595
-0.0693631
-0.0649813
-0.0608095
-0.0568425
-0.0530739
-0.0494968
-0.0461036
-0.0428862
-0.0398362
-0.0369451
-0.0342041
-0.0316048
-0.0291384
-0.0267975
-0.0245727
-0.0224594
-0.0204458
-0.0185336
-0.0167024
-0.0149708
-0.013293
-0.0117315
-0.0101712
-0.00878878
-0.00728816
-0.00613578
-0.00458011
-0.00380625
-0.00194511
-0.00192192
0.000749187
-0.159928
-0.174238
-0.169207
-0.163603
-0.15755
-0.15094
-0.1442
-0.137452
-0.130782
-0.124243
-0.117866
-0.11167
-0.105667
-0.0998641
-0.0942655
-0.0888743
-0.0836922
-0.0787199
-0.0739571
-0.0694026
-0.0650539
-0.0609077
-0.0569596
-0.0532043
-0.0496357
-0.0462469
-0.0430306
-0.0399789
-0.037084
-0.0343374
-0.0317314
-0.0292574
-0.0269084
-0.0246753
-0.0225536
-0.0205319
-0.0186116
-0.0167731
-0.015034
-0.0133503
-0.0117817
-0.010218
-0.00882727
-0.00732887
-0.00616241
-0.00462269
-0.00381602
-0.0020083
-0.00189557
0.000617483
-0.15733
-0.169314
-0.165159
-0.160115
-0.154636
-0.148526
-0.142204
-0.13581
-0.129437
-0.123149
-0.116984
-0.110969
-0.10512
-0.0994478
-0.0939606
-0.0886636
-0.0835608
-0.0786547
-0.0739465
-0.0694362
-0.0651228
-0.0610039
-0.0570763
-0.0533354
-0.0497762
-0.0463925
-0.0431778
-0.0401249
-0.0372264
-0.0344745
-0.0318618
-0.0293803
-0.0270231
-0.0247816
-0.0226514
-0.0206213
-0.0186927
-0.0168467
-0.0151
-0.0134102
-0.0118342
-0.0102672
-0.00886772
-0.00737166
-0.00619053
-0.00466742
-0.00382662
-0.0020743
-0.00186863
0.000480015
-0.154862
-0.16444
-0.161071
-0.156529
-0.151584
-0.145971
-0.140075
-0.134047
-0.127987
-0.121965
-0.116027
-0.110206
-0.104522
-0.0989913
-0.0936242
-0.0884291
-0.0834121
-0.0785776
-0.0739285
-0.0694663
-0.0651912
-0.0611022
-0.0571969
-0.0534721
-0.0499234
-0.0465456
-0.0433329
-0.0402789
-0.0373769
-0.0346196
-0.032
-0.0295106
-0.0271448
-0.0248945
-0.0227552
-0.0207164