/*--------------------------------*- C++ -*----------------------------------*\
  =========                 |
  \\      /  F ield         | OpenFOAM: The Open Source CFD Toolbox
   \\    /   O peration     | Website:  https://openfoam.org
    \\  /    A nd           | Version:  7
     \\/     M anipulation  |
\*---------------------------------------------------------------------------*/
FoamFile
{
    version     2.0;
    format      ascii;
    class       volVectorField;
    location    "30";
    object      U;
}
// * * * * * * * * * * * * * * * * * * * * * * * * * * * * * * * * * * * * * //

dimensions      [0 1 -1 0 0 0 0];

internalField   nonuniform List<vector> 
10500
(
(-0.00460882 0.000537537 -5.6932e-21)
(-0.00631733 -0.000278065 7.99282e-21)
(0.000263464 -0.00130621 -4.40019e-20)
(0.0148474 -0.0024396 -3.75861e-20)
(0.036458 -0.00344874 -1.03105e-20)
(0.0632234 -0.00436963 6.00367e-21)
(0.0940411 -0.00517678 -3.26296e-20)
(0.128763 -0.0058978 -4.6291e-21)
(0.164341 -0.00635834 -9.63106e-21)
(0.204121 -0.00682443 7.19829e-21)
(-0.00460562 0.00158749 -9.51614e-21)
(-0.00585264 -0.000866983 -1.99164e-20)
(0.00142385 -0.00394225 -3.68213e-20)
(0.0167697 -0.00732767 5.71687e-20)
(0.0391998 -0.0103365 2.60377e-20)
(0.0668145 -0.0130781 -9.94225e-21)
(0.0984954 -0.0154775 3.54524e-20)
(0.134135 -0.0176138 -4.1614e-20)
(0.170484 -0.0189791 -8.0929e-22)
(0.211506 -0.0203226 -1.33775e-20)
(-0.00459217 0.00256249 -6.30564e-20)
(-0.00491349 -0.00155412 6.31033e-20)
(0.00375167 -0.00664931 7.06856e-20)
(0.0206161 -0.0122427 -1.7168e-19)
(0.0446774 -0.0171953 -5.51432e-20)
(0.0739803 -0.0216946 1.27306e-19)
(0.107374 -0.0256198 1.66798e-20)
(0.144829 -0.0290914 1.04056e-19)
(0.182703 -0.0313128 4.52418e-20)
(0.226171 -0.0333706 1.10367e-20)
(-0.00455452 0.00341465 6.09851e-20)
(-0.00348058 -0.00240203 -1.09751e-19)
(0.00726091 -0.00947183 -1.25286e-19)
(0.0263904 -0.0171998 1.98033e-19)
(0.0528791 -0.0240037 1.41242e-20)
(0.0846874 -0.0301563 -7.28444e-21)
(0.120616 -0.0354977 1.44782e-19)
(0.160748 -0.0401728 1.18685e-20)
(0.20086 -0.0431723 -2.0109e-20)
(0.247904 -0.0456757 1.00418e-19)
(-0.00447211 0.0040991 -2.75125e-19)
(-0.00152543 -0.0034685 5.40442e-22)
(0.0119721 -0.0124492 -6.86426e-20)
(0.0340978 -0.0222095 -1.57242e-20)
(0.0637867 -0.0307362 2.15417e-19)
(0.0988863 -0.0383977 -3.30791e-19)
(0.138131 -0.0450044 -2.41044e-19)
(0.181744 -0.0507018 9.82272e-20)
(0.224752 -0.0543757 7.16486e-20)
(0.276388 -0.0569574 -6.78102e-20)
(-0.00431817 0.00457459 4.79505e-19)
(0.000988955 -0.00480441 1.25184e-19)
(0.0179119 -0.0156138 4.68432e-19)
(0.0437445 -0.0272759 1.07532e-19)
(0.0773758 -0.0373623 1.7068e-19)
(0.11651 -0.0463499 3.15726e-19)
(0.1598 -0.0540318 -1.22179e-19)
(0.207624 -0.0605248 -2.56878e-19)
(0.254112 -0.0647489 3.00627e-20)
(0.311201 -0.0669529 1.38963e-19)
(-0.00405986 0.00480414 -1.50322e-19)
(0.00410726 -0.00645161 3.35014e-20)
(0.0251121 -0.0189899 -4.23955e-19)
(0.0553373 -0.0323953 1.36681e-19)
(0.093615 -0.0438446 -1.46819e-19)
(0.137475 -0.0539398 2.64217e-20)
(0.185473 -0.0624708 1.11336e-19)
(0.238142 -0.0694917 9.0352e-21)
(0.288606 -0.0741263 -3.48545e-19)
(0.351812 -0.0754239 -2.20757e-19)
(-0.00365955 0.00475883 -1.83003e-19)
(0.00788168 -0.00844398 -3.64869e-19)
(0.0336088 -0.0225914 4.55032e-19)
(0.0688827 -0.0375545 -1.50425e-21)
(0.112465 -0.0501383 -2.00918e-19)
(0.161681 -0.0610894 -4.25697e-19)
(0.214969 -0.0702108 4.94997e-19)
(0.273006 -0.0774571 -2.40389e-19)
(0.32784 -0.0823517 1.70608e-19)
(0.397594 -0.0821632 1.83053e-20)
(-0.00307642 0.0044176 1.18722e-19)
(0.01237 -0.0108057 4.96415e-19)
(0.0434418 -0.0264207 -3.69622e-19)
(0.0843858 -0.0427292 -4.20629e-19)
(0.133879 -0.0561896 1.07211e-19)
(0.189007 -0.0677153 9.94262e-20)
(0.24808 -0.07714 4.02797e-19)
(0.311879 -0.0842821 2.98548e-19)
(0.371364 -0.0892796 -1.15344e-19)
(0.447823 -0.0870016 1.83611e-19)
(-0.00226595 0.00376464 -1.91776e-19)
(0.0176339 -0.013547 -5.0426e-20)
(0.0546529 -0.0304674 -2.52205e-19)
(0.101849 -0.0478836 4.34051e-21)
(0.1578 -0.0619351 -1.37883e-20)
(0.219315 -0.0737284 1.8585e-19)
(0.284565 -0.0831461 4.27101e-20)
(0.354376 -0.0898368 3.88275e-19)
(0.418673 -0.0947749 1.12435e-19)
(0.501691 -0.0898138 -1.93933e-19)
(-0.00118075 0.00279134 1.9929e-20)
(0.0237379 -0.0166648 -4.84006e-19)
(0.0672843 -0.034707 3.98845e-19)
(0.121271 -0.0529687 -2.17327e-19)
(0.184159 -0.0673014 -6.45755e-20)
(0.252448 -0.0790346 -2.43168e-20)
(0.324154 -0.088117 1.38181e-20)
(0.400072 -0.0940025 -5.86215e-19)
(0.469216 -0.0987145 3.05942e-20)
(0.558321 -0.0905239 4.36243e-20)
(0.000227997 0.00149762 -4.72613e-19)
(0.030748 -0.0201426 7.60498e-19)
(0.0813766 -0.0391011 -2.6617e-19)
(0.142643 -0.0579224 6.53588e-19)
(0.212876 -0.0722052 -6.00434e-19)
(0.288226 -0.0835353 -2.48197e-19)
(0.366549 -0.0919428 3.06659e-19)
(0.448499 -0.0966755 3.14526e-19)
(0.5224 -0.100988 -1.80013e-19)
(0.616785 -0.0891087 -1.67619e-19)
(0.00200965 -0.000108176 3.9269e-19)
(0.0387301 -0.0239501 -1.05756e-19)
(0.0969672 -0.0435959 5.02657e-19)
(0.165949 -0.0626693 -8.39116e-20)
(0.243854 -0.0765534 4.47668e-19)
(0.326447 -0.0871284 7.91284e-19)
(0.411419 -0.0945177 -3.83552e-19)
(0.499159 -0.0977711 3.3392e-20)
(0.577597 -0.101499 3.47863e-19)
(0.676126 -0.0855991 2.03749e-19)
(0.00421315 -0.00200952 -1.90636e-19)
(0.0477477 -0.0280431 -5.79428e-19)
(0.114088 -0.0481232 -3.5751e-19)
(0.191164 -0.0671209 -3.98879e-19)
(0.276982 -0.0802443 -4.77161e-20)
(0.366887 -0.0897105 -6.89685e-19)
(0.458405 -0.0957427 2.09186e-19)
(0.551522 -0.0972275 -2.98389e-19)
(0.634158 -0.100169 -2.54822e-19)
(0.735382 -0.0800818 -3.81785e-20)
(0.00688604 -0.00418185 3.25476e-19)
(0.0578604 -0.0323632 -5.01144e-20)
(0.132763 -0.0526002 -3.11523e-19)
(0.218248 -0.0711766 3.57104e-19)
(0.312128 -0.0831693 6.68042e-19)
(0.409297 -0.0911789 -6.09655e-20)
(0.507121 -0.0955297 -5.78276e-19)
(0.605041 -0.0950099 2.76384e-19)
(0.691421 -0.0969378 4.8259e-19)
(0.793612 -0.0727057 7.73741e-20)
(0.0100735 -0.0065928 2.07213e-19)
(0.0691217 -0.0368388 7.867e-20)
(0.153006 -0.0569307 1.10427e-19)
(0.247146 -0.074725 -2.91322e-19)
(0.34914 -0.0852148 -4.94368e-19)
(0.453405 -0.0914349 7.99923e-19)
(0.557152 -0.0938047 4.18014e-19)
(0.659156 -0.0911148 -3.38313e-20)
(0.748724 -0.0917712 -3.02661e-19)
(0.849933 -0.0636901 -1.37605e-19)
(0.0138176 -0.00920266 5.3984e-19)
(0.0815771 -0.0413857 -1.34371e-19)
(0.174819 -0.061006 1.7107e-19)
(0.277786 -0.0776456 1.39667e-19)
(0.387843 -0.0862651 -8.94842e-20)
(0.498912 -0.0903863 1.11147e-19)
(0.608065 -0.0905127 2.00554e-19)
(0.71331 -0.0855723 3.41954e-19)
(0.805413 -0.0846547 -2.50705e-19)
(0.903513 -0.0532814 -8.63011e-20)
(0.0181561 -0.0119653 -8.79396e-19)
(0.0952625 -0.0459083 6.40926e-19)
(0.198188 -0.0647069 -3.38042e-19)
(0.310076 -0.0798119 -5.56327e-19)
(0.428037 -0.0862055 -1.0156e-19)
(0.5455 -0.0879517 -6.62302e-19)
(0.659404 -0.0856232 -7.13719e-20)
(0.766962 -0.0784487 -1.9338e-19)
(0.86085 -0.075567 5.14141e-19)
(0.953527 -0.0416526 -1.1849e-19)
(0.0231226 -0.0148286 -1.31823e-19)
(0.110203 -0.0503014 -2.93203e-19)
(0.223083 -0.0679062 8.72951e-19)
(0.343902 -0.0810935 8.05061e-19)
(0.469501 -0.084926 -9.68653e-20)
(0.592825 -0.0840634 6.4446e-19)
(0.710707 -0.0791358 -1.588e-19)
(0.819614 -0.0698464 5.83729e-20)
(0.914469 -0.064475 3.07682e-19)
(0.999268 -0.0291888 5.72136e-19)
(0.0287425 -0.017733 1.7792e-19)
(0.126407 -0.0544489 1.65462e-19)
(0.249454 -0.0704683 5.86975e-21)
(0.379126 -0.0813585 -2.80232e-19)
(0.511986 -0.0823238 2.731e-19)
(0.640526 -0.0786708 -2.16797e-19)
(0.761502 -0.0710838 1.55081e-19)
(0.870812 -0.0598927 1.91197e-19)
(0.965849 -0.0515123 2.63862e-19)
(1.04115 -0.017848 -1.83725e-19)
(0.0350253 -0.0206049 -2.31877e-19)
(0.143861 -0.0582202 -8.24935e-20)
(0.277223 -0.0722481 -6.65465e-19)
(0.415581 -0.0804737 3.38575e-19)
(0.55522 -0.0783053 -2.7241e-19)
(0.688226 -0.0717413 -4.10349e-19)
(0.811315 -0.06153 -7.13136e-19)
(0.920079 -0.0487283 -2.16974e-19)
(1.01443 -0.0373512 7.979e-19)
(1.08271 -0.0111313 -4.38341e-20)
(0.0419797 -0.0233752 9.39893e-19)
(0.162538 -0.0614871 -3.89359e-19)
(0.306291 -0.0731075 3.50823e-19)
(0.453075 -0.0783181 1.23399e-19)
(0.598905 -0.0727965 9.33038e-19)
(0.735535 -0.0632663 3.54691e-20)
(0.859684 -0.0505567 7.28176e-19)
(0.966888 -0.0365027 -1.16192e-19)
(1.05873 -0.0231942 -2.73081e-19)
(1.12212 -0.00720534 -3.14631e-19)
(0.0496196 -0.0259836 -7.94831e-19)
(0.182409 -0.0641319 7.47823e-19)
(0.336553 -0.0729198 -2.39589e-19)
(0.491406 -0.0747875 5.583e-19)
(0.642741 -0.0657448 -6.83479e-19)
(0.782072 -0.0532602 -4.38264e-20)
(0.906183 -0.038258 1.45104e-19)
(1.01081 -0.0232948 1.79852e-19)
(1.09841 -0.00890054 -4.64254e-19)
(1.15715 0.000170993 8.79483e-20)
(0.0579428 -0.02836 -6.19074e-19)
(0.20342 -0.0660276 -5.45343e-19)
(0.367872 -0.0715568 -2.46863e-19)
(0.530345 -0.0697857 -1.03612e-18)
(0.686411 -0.0571151 4.20988e-20)
(0.827464 -0.0417597 -8.345e-20)
(0.950438 -0.0247418 -1.77972e-19)
(1.05151 -0.0091944 -4.0539e-19)
(1.13358 0.00558894 7.66372e-19)
(1.1871 0.010155 1.79561e-19)
(0.0669355 -0.0304306 6.18047e-19)
(0.225494 -0.0670472 -1.46106e-19)
(0.40009 -0.0688976 -2.24047e-20)
(0.569643 -0.0632326 1.82706e-19)
(0.729592 -0.0468949 -2.83522e-19)
(0.871352 -0.0288256 6.21313e-19)
(0.992125 -0.0101336 -4.59153e-20)
(1.08876 0.00565861 -1.4177e-19)
(1.16445 0.0201733 -2.59619e-19)
(1.21241 0.0216746 -3.2862e-19)
(0.0765749 -0.0321218 4.22647e-19)
(0.248537 -0.0670685 2.03667e-20)
(0.433025 -0.0648341 3.75048e-19)
(0.609035 -0.0550683 1.15684e-19)
(0.771962 -0.0350966 9.74335e-19)
(0.913403 -0.0145438 -6.46097e-19)
(1.03098 0.00542512 1.62389e-19)
(1.12241 0.0210962 1.12751e-19)
(1.1912 0.0347413 -4.69854e-19)
(1.23341 0.0340019 4.01465e-19)
(0.086829 -0.0333613 -5.64819e-19)
(0.272437 -0.0659768 -1.63513e-19)
(0.466479 -0.0592736 4.25138e-19)
(0.648245 -0.0452559 -1.01122e-19)
(0.813202 -0.0217585 -7.16567e-19)
(0.953316 0.000977596 6.91555e-19)
(1.06678 0.0217811 2.05813e-19)
(1.15238 0.0369425 2.57941e-19)
(1.21399 0.0491915 2.99552e-19)
(1.25039 0.0466403 -3.88568e-19)
(0.0976559 -0.0340789 -4.68389e-19)
(0.297061 -0.0636669 1.04322e-19)
(0.500235 -0.0521412 -5.70128e-19)
(0.68699 -0.0337827 1.38982e-19)
(0.853006 -0.00694374 -5.91659e-19)
(0.990823 0.0176112 -7.62109e-19)
(1.09939 0.0387743 -5.616e-19)
(1.17866 0.0530244 -7.6137e-20)
(1.23304 0.0634278 -3.33288e-19)
(1.26368 0.0592354 2.41497e-19)
(0.109004 -0.0342076 1.55326e-18)
(0.322263 -0.0600456 5.25827e-19)
(0.534063 -0.0433824 3.0941e-19)
(0.724983 -0.0206608 -6.52754e-19)
(0.891087 0.00926108 5.17095e-19)
(1.0257 0.035214 3.36444e-19)
(1.12868 0.0562421 1.87466e-19)
(1.2013 0.0691789 -2.85217e-19)
(1.24856 0.0773623 -6.2036e-20)
(1.27365 0.0715451 -2.46294e-19)
(0.120812 -0.0336846 -9.72922e-19)
(0.347879 -0.0550335 -8.98319e-19)
(0.567719 -0.0329643 -4.69303e-19)
(0.761942 -0.00592797 2.97645e-19)
(0.927178 0.0267477 2.72927e-20)
(1.05775 0.0536319 -5.85787e-19)
(1.15463 0.0740234 2.19806e-20)
(1.2204 0.0852577 5.94517e-19)
(1.26079 0.0909184 4.32091e-19)
(1.28063 0.0834152 3.34349e-19)
(0.13301 -0.032453 -2.18476e-19)
(0.373731 -0.0485672 3.88536e-20)
(0.600954 -0.0208774 9.50365e-19)
(0.797589 0.0103533 -1.32337e-20)
(0.96104 0.0453889 1.0834e-19)
(1.08685 0.0727031 6.49849e-19)
(1.17721 0.0919626 -4.65251e-20)
(1.23611 0.10113 -2.73282e-19)
(1.26997 0.104032 -3.56252e-19)
(1.28496 0.0947549 -1.82497e-20)
(0.145518 -0.0304622 3.09117e-19)
(0.39963 -0.0406011 5.10828e-19)
(0.633516 -0.00713617 -8.90945e-19)
(0.831661 0.0280968 4.56248e-19)
(0.992463 0.0650417 -4.54667e-20)
(1.11289 0.0922626 -1.32867e-19)
(1.19648 0.109912 3.82449e-19)
(1.24859 0.116682 -2.48592e-19)
(1.27636 0.116653 1.11642e-19)
(1.28695 0.105518 1.69294e-19)
(0.158248 -0.0276695 2.4361e-19)
(0.425378 -0.0311085 1.01428e-19)
(0.665151 0.00822052 3.29945e-19)
(0.863909 0.0471942 -4.24512e-19)
(1.02127 0.0855506 -1.79618e-19)
(1.13581 0.112146 -1.85705e-19)
(1.2125 0.127735 -2.19102e-19)
(1.25803 0.13182 4.76108e-19)
(1.28021 0.128742 -8.55117e-20)
(1.28689 0.115687 -1.96527e-19)
(0.171105 -0.0240408 -3.02561e-19)
(0.450769 -0.020083 1.6497e-20)
(0.695609 0.0251299 -1.38297e-19)
(0.894104 0.0675172 1.0853e-19)
(1.04732 0.106751 5.10989e-19)
(1.15559 0.13219 2.98396e-19)
(1.22539 0.145306 -1.23087e-19)
(1.26464 0.146465 -1.07967e-19)
(1.28176 0.140272 2.16081e-19)
(1.28504 0.125266 4.0694e-20)
(0.183987 -0.0195518 -2.511e-19)
(0.475592 -0.0075394 2.04377e-19)
(0.72465 0.0435057 -2.23048e-19)
(0.922041 0.0889202 6.80733e-20)
(1.07049 0.128471 -1.59898e-19)
(1.17224 0.15224 -2.13066e-20)
(1.23526 0.162511 1.06253e-19)
(1.26863 0.160552 -1.11724e-19)
(1.28124 0.151223 -2.9125e-21)
(1.28162 0.134265 2.72942e-20)
(0.196787 -0.0141885 3.89805e-19)
(0.499637 0.00648633 -3.1787e-19)
(0.752042 0.0632398 6.57032e-20)
(0.947539 0.111243 1.5001e-20)
(1.09072 0.150539 -3.63747e-20)
(1.18581 0.172146 1.98654e-20)
(1.24226 0.179249 -1.3079e-21)
(1.27019 0.17403 4.64615e-20)
(1.27886 0.161584 -4.37264e-20)
(1.27684 0.142704 -1.65207e-20)
(0.209392 -0.00794853 1.44565e-19)
(0.522694 0.0219364 1.27289e-19)
(0.777572 0.0842032 1.43546e-19)
(0.970446 0.134312 -2.13057e-19)
(1.10796 0.172778 -1.90381e-19)
(1.19637 0.191768 2.0121e-20)
(1.24656 0.195432 -1.20777e-19)
(1.26954 0.186858 -5.47362e-20)
(1.27483 0.171349 1.1203e-20)
(1.27086 0.150601 -1.23658e-21)
(0.221691 -0.000841289 -1.32996e-19)
(0.544558 0.0387319 7.89372e-20)
(0.801041 0.106248 7.2117e-20)
(0.990637 0.157946 1.68621e-19)
(1.12219 0.195018 5.55214e-20)
(1.20401 0.210974 -9.89371e-20)
(1.24832 0.210981 -7.03356e-21)
(1.26687 0.199004 -6.90434e-22)
(1.26932 0.180513 -2.72272e-20)
(1.26384 0.157974 1.7223e-22)
(0.233569 0.00711133 8.01996e-21)
(0.565035 0.056773 -1.35925e-19)
(0.822273 0.129211 -1.06514e-19)
(1.00802 0.181957 -4.80782e-20)
(1.13343 0.217089 -2.15821e-20)
(1.20883 0.229645 8.55137e-21)
(1.24771 0.225828 1.39378e-20)
(1.26237 0.210443 2.46486e-20)
(1.2625 0.189075 4.78704e-21)
(1.25591 0.164838 1.30526e-21)
(0.244903 0.0158756 6.41456e-21)
(0.583933 0.0759413 -1.08307e-20)
(0.841109 0.152914 4.79609e-20)
(1.02251 0.206154 3.43258e-20)
(1.14171 0.238829 1.36391e-20)
(1.21098 0.247667 -6.30415e-21)
(1.2449 0.239914 -1.50796e-20)
(1.2562 0.221153 3.14413e-22)
(1.25453 0.197036 5.35666e-21)
(1.24717 0.171204 -3.32989e-21)
(0.255531 0.0254036 7.44456e-21)
(0.601051 0.0960974 -8.56511e-21)
(0.857405 0.177166 4.18725e-20)
(1.03408 0.230341 3.35008e-20)
(1.1471 0.260081 7.49981e-21)
(1.21057 0.264939 -4.74736e-21)
(1.24005 0.253187 -1.3723e-20)
(1.24855 0.231117 3.18688e-21)
(1.24553 0.204394 2.63511e-21)
(1.23774 0.177078 -1.51367e-21)
(0.265337 0.0356288 1.13508e-20)
(0.616224 0.117074 -1.23875e-19)
(0.871049 0.201758 -8.01467e-20)
(1.04271 0.25432 -4.88927e-20)
(1.14967 0.280694 -2.6166e-20)
(1.20775 0.281368 8.8281e-21)
(1.23334 0.265602 1.24701e-20)
(1.23955 0.240322 1.28395e-20)
(1.23563 0.211146 -4.70313e-22)
(1.22769 0.182463 2.60829e-21)
(0.274264 0.0464786 -9.74502e-20)
(0.629344 0.138703 7.75415e-20)
(0.881981 0.226487 5.18531e-20)
(1.04841 0.277903 1.27596e-19)
(1.14953 0.30053 3.4391e-20)
(1.20267 0.296871 -6.12936e-20)
(1.22491 0.277121 -4.46357e-21)
(1.22935 0.248753 -5.8286e-21)
(1.22492 0.217291 -8.16634e-21)
(1.2171 0.187358 3.70444e-22)
(0.282221 0.0578709 9.34177e-20)
(0.640297 0.160801 1.12555e-19)
(0.89015 0.251143 1.02598e-19)
(1.05123 0.300906 -1.52118e-19)
(1.14678 0.319457 -9.1147e-20)
(1.19549 0.311372 -5.41878e-21)
(1.21493 0.287709 -3.67902e-20)
(1.21807 0.256402 -2.07886e-20)
(1.21351 0.222825 4.98351e-21)
(1.20603 0.191758 3.31124e-22)
(0.289114 0.0697122 2.67923e-19)
(0.648981 0.183178 -2.61213e-19)
(0.895527 0.275516 5.60254e-20)
(1.05122 0.323149 1.33886e-20)
(1.14156 0.337356 4.06264e-21)
(1.18635 0.324806 6.7988e-21)
(1.20354 0.297337 1.12732e-20)
(1.20585 0.263255 1.15336e-20)
(1.20149 0.227743 1.85488e-21)
(1.19455 0.195656 2.96509e-21)
(0.294861 0.0818997 -2.00921e-19)
(0.655319 0.205634 1.48115e-19)
(0.898109 0.299396 -1.58034e-19)
(1.04847 0.344461 6.41872e-20)
(1.13401 0.354114 -5.76431e-20)
(1.17542 0.337111 1.97111e-21)
(1.19087 0.305979 2.37576e-20)
(1.19277 0.269301 -1.80387e-21)
(1.18893 0.232039 7.18046e-21)
(1.18271 0.199044 -6.60378e-21)
(0.299392 0.0943221 -1.40879e-19)
(0.659256 0.227961 -2.11466e-20)
(0.897918 0.322574 -5.74843e-20)
(1.04308 0.364679 3.53311e-20)
(1.12425 0.369628 1.91951e-19)
(1.16283 0.348234 6.13694e-20)
(1.17707 0.313611 -1.69359e-21)
(1.17895 0.274531 1.54359e-20)
(1.17589 0.235702 -4.01614e-20)
(1.17058 0.201911 -5.96222e-21)
(0.30265 0.106861 1.62878e-19)
(0.660762 0.249949 2.51797e-20)
(0.895002 0.344847 1.88995e-19)
(1.03514 0.383648 -1.82807e-19)
(1.11245 0.383804 -4.53385e-20)
(1.14875 0.358128 -4.02303e-20)
(1.16225 0.320214 1.26254e-20)
(1.16448 0.278936 -5.08688e-20)
(1.16244 0.238724 1.90865e-20)
(1.15819 0.204241 8.68112e-20)
(0.304589 0.119392 1.17146e-19)
(0.659832 0.271388 2.10496e-19)
(0.889428 0.366019 -3.16491e-19)
(1.02481 0.401224 1.47247e-19)
(1.09876 0.396559 -2.1803e-20)
(1.13332 0.366751 7.6466e-22)
(1.14655 0.325768 -4.34722e-21)
(1.14945 0.282506 2.62099e-20)
(1.14864 0.241096 -2.91296e-20)
(1.14559 0.206021 -8.27363e-20)
(0.305179 0.131786 -1.02126e-19)
(0.656481 0.292066 -2.48629e-20)
(0.881287 0.385899 3.19575e-19)
(1.01221 0.417274 -4.70772e-21)
(1.08334 0.407815 7.90182e-21)
(1.11668 0.374068 -1.95409e-20)
(1.13006 0.330259 6.91671e-23)
(1.13393 0.285233 9.9926e-20)
(1.13454 0.242809 1.34201e-19)
(1.13281 0.207235 4.66784e-22)
(0.304403 0.143911 -3.04679e-19)
(0.650751 0.311777 -3.12326e-19)
(0.87069 0.40431 -1.20828e-19)
(0.997502 0.431674 2.20462e-20)
(1.06635 0.417507 -2.79117e-21)
(1.09898 0.380048 2.67399e-20)
(1.11291 0.333673 4.22749e-21)
(1.11802 0.287108 -1.85762e-19)
(1.1202 0.243854 -1.79991e-20)
(1.11992 0.207867 -2.23875e-19)
(0.302261 0.155635 4.13158e-19)
(0.642705 0.33032 1.54838e-19)
(0.857764 0.421082 5.31214e-20)
(0.980851 0.444315 -6.48681e-20)
(1.04795 0.425577 -4.91768e-20)
(1.08036 0.384665 -5.07333e-20)
(1.0952 0.336 -5.45869e-20)
(1.10177 0.288125 -1.19342e-19)
(1.10566 0.244222 4.17018e-20)
(1.10693 0.2079 1.35204e-19)
(0.298766 0.166825 -1.47423e-19)
(0.632431 0.347501 1.68601e-20)
(0.842654 0.436058 -5.99992e-20)
(0.962427 0.455096 1.2447e-20)
(1.02831 0.431976 2.9963e-20)
(1.06095 0.3879 1.99107e-19)
(1.07703 0.337232 1.28316e-19)
(1.08527 0.288278 1.52307e-20)
(1.09096 0.243906 1.42824e-19)
(1.09388 0.207318 -1.62846e-19)
(0.293947 0.17735 -7.95996e-20)
(0.620034 0.363136 -2.08342e-20)
(0.825522 0.449096 2.36856e-20)
(0.942409 0.463931 2.12052e-20)
(1.0076 0.436664 1.64845e-19)
(1.04089 0.389736 -2.08096e-19)
(1.0585 0.337362 -1.00169e-19)
(1.06858 0.287566 -1.07913e-19)
(1.07614 0.242903 -1.75813e-19)
(1.08081 0.206105 2.46513e-19)
(0.287847 0.187083 1.98094e-20)
(0.605639 0.377053 -1.69114e-20)
(0.806542 0.46007 -3.67003e-20)
(0.920982 0.470746 -2.12759e-20)
(0.98597 0.439607 -2.13315e-19)
(1.02031 0.390164 1.47551e-19)
(1.03972 0.336389 -6.29949e-20)
(1.05177 0.285987 -7.25492e-20)
(1.06124 0.24121 2.52472e-19)
(1.06774 0.204244 -2.58484e-19)
(0.280524 0.195902 -7.78897e-20)
(0.589392 0.389092 -1.10257e-20)
(0.785901 0.468863 -9.29384e-21)
(0.898334 0.475479 -8.00767e-20)
(0.963593 0.440784 1.15768e-19)
(0.999337 0.389177 -2.14033e-19)
(1.02077 0.334312 -7.66257e-20)
(1.03491 0.283544 1.47631e-19)
(1.0463 0.238828 1.87166e-19)
(1.05469 0.20172 3.02231e-19)
(0.272053 0.203693 4.12245e-20)
(0.571452 0.399108 8.08782e-20)
(0.763793 0.475379 5.50303e-20)
(0.874657 0.478081 3.83367e-19)
(0.940629 0.440177 7.06733e-20)
(0.978101 0.386775 3.36258e-20)
(1.00175 0.331136 1.82558e-19)
(1.01806 0.280242 2.63362e-19)
(1.03135 0.23576 -6.9142e-19)
(1.04169 0.198516 -1.13728e-19)
(0.262519 0.210351 2.01943e-19)
(0.551999 0.406975 -1.63704e-19)
(0.740424 0.479537 8.91598e-20)
(0.850145 0.478515 -1.61259e-19)
(0.917238 0.43778 3.89561e-19)
(0.956721 0.382961 -2.56599e-20)
(0.982756 0.326865 -3.59125e-20)
(1.00131 0.276091 -1.47764e-19)
(1.01642 0.232009 4.57964e-19)
(1.02872 0.194613 -2.16821e-19)
(0.252025 0.215781 -3.1013e-19)
(0.531221 0.412582 1.08656e-19)
(0.716004 0.481271 -1.72655e-19)
(0.824992 0.476758 -2.79675e-20)
(0.893577 0.433595 -5.47594e-19)
(0.935319 0.377744 -5.89804e-20)
(0.963879 0.32151 -4.82923e-19)
(0.984715 0.271103 6.34072e-20)
(1.00155 0.227581 3.02943e-19)
(1.01582 0.18998 2.47927e-19)
(0.240667 0.219886 5.57084e-20)
(0.509315 0.415834 8.2879e-20)
(0.690746 0.480532 3.15564e-19)
(0.79939 0.472798 3.44547e-20)
(0.8698 0.427629 1.82378e-19)
(0.914013 0.371137 3.3155e-19)
(0.94521 0.315084 5.58655e-19)
(0.968356 0.265297 1.9987e-19)
(0.98686 0.222531 -6.74614e-19)
(1.00305 0.184702 1.47014e-19)
(0.228509 0.222535 -1.48308e-19)
(0.486467 0.416629 -2.73317e-20)
(0.664862 0.47728 -1.65247e-21)
(0.773532 0.466634 1.93687e-19)
(0.846059 0.419899 -2.15658e-19)
(0.892915 0.363159 2.23292e-19)
(0.926836 0.307599 -1.89794e-19)
(0.95232 0.258683 -2.08536e-19)
(0.972565 0.216953 9.08634e-19)
(0.990316 0.179479 3.96015e-19)
(0.21569 0.223658 2.03165e-20)
(0.462907 0.414904 1.98545e-19)
(0.638576 0.471497 -5.06742e-19)
(0.747607 0.45828 -6.67094e-19)
(0.8225 0.410431 9.01846e-20)
(0.872136 0.353834 -4.73014e-19)
(0.908839 0.299072 1.69752e-19)
(0.936701 0.251239 -1.16764e-19)
(0.958893 0.210711 -3.03459e-19)
(0.978699 0.174525 -8.88628e-19)
(0.202403 0.223265 6.51298e-19)
(0.438887 0.410654 -4.49377e-19)
(0.612122 0.463201 2.91503e-19)
(0.721807 0.447766 3.76685e-19)
(0.799267 0.399259 1.60387e-19)
(0.851781 0.343189 6.07107e-19)
(0.891295 0.28952 1.68189e-19)
(0.92154 0.242973 2.22334e-19)
(0.945699 0.203731 -6.03922e-19)
(0.967204 0.169113 9.49917e-20)
(0.188795 0.221333 -4.47839e-19)
(0.414636 0.403875 1.29457e-19)
(0.585718 0.452417 -3.12092e-19)
(0.696315 0.435132 -7.8058e-20)
(0.776497 0.386423 -1.44685e-21)
(0.831951 0.331259 7.57333e-20)
(0.874278 0.278971 -3.37401e-19)
(0.906879 0.233911 -4.90786e-19)
(0.932983 0.196066 3.11159e-19)
(0.955999 0.163058 2.54286e-19)
(0.175007 0.217839 -2.19918e-19)
(0.390377 0.394576 -1.34675e-19)
(0.559581 0.439182 -5.66318e-19)
(0.671307 0.420428 1.73457e-19)
(0.754325 0.371971 5.29207e-19)
(0.812745 0.318082 -6.83001e-19)
(0.857857 0.267452 -5.98995e-19)
(0.892771 0.224077 2.41924e-19)
(0.920784 0.187765 5.51852e-19)
(0.945204 0.156407 8.16399e-20)
(0.161182 0.212779 -4.62647e-19)
(0.366335 0.382785 1.88861e-21)
(0.53392 0.423554 2.92884e-19)
(0.646956 0.403717 -3.50034e-19)
(0.732877 0.35596 -8.34072e-19)
(0.794254 0.303703 -6.31348e-20)
(0.842102 0.254998 9.20576e-19)
(0.879269 0.213495 -4.31296e-19)
(0.909138 0.178855 -5.6408e-19)
(0.934879 0.149209 -1.35802e-19)
(0.147465 0.206164 2.91857e-19)
(0.34273 0.368556 5.86934e-19)
(0.50894 0.405603 4.24307e-19)
(0.623426 0.385072 3.69881e-19)
(0.712275 0.338452 1.70436e-19)
(0.77657 0.288171 8.89556e-19)
(0.82708 0.241647 -3.73443e-19)
(0.866423 0.202194 3.05467e-19)
(0.898083 0.169356 5.47745e-19)
(0.925076 0.141481 1.31771e-19)
(0.134001 0.198022 -5.3541e-19)
(0.31978 0.351958 1.91663e-19)
(0.48484 0.385417 -6.3656e-19)
(0.600874 0.364576 1.73734e-19)
(0.692636 0.319516 -7.65874e-19)
(0.759776 0.271541 -1.01318e-18)
(0.812854 0.22744 4.96828e-19)
(0.854283 0.190205 -4.40146e-20)
(0.887656 0.159291 -4.73666e-19)
(0.915835 0.133241 -3.19482e-19)
(0.120934 0.188397 7.21152e-19)
(0.297693 0.333082 -1.00264e-18)
(0.461807 0.363096 3.51322e-19)
(0.579449 0.342323 -7.45309e-19)
(0.674067 0.299229 5.93948e-19)
(0.743953 0.253873 4.65323e-19)
(0.799482 0.212421 -4.21673e-19)
(0.842893 0.177564 -4.84966e-19)
(0.877893 0.148688 3.37243e-19)
(0.907193 0.12451 2.53364e-19)
(0.108401 0.177344 -8.49717e-20)
(0.276671 0.312035 5.78792e-19)
(0.44002 0.338757 -6.3004e-19)
(0.559292 0.318415 4.47978e-19)
(0.656672 0.277674 -3.64165e-20)
(0.729175 0.235229 3.10355e-20)
(0.787022 0.196641 3.69584e-20)
(0.832299 0.164307 1.04182e-18)
(0.868826 0.137576 -1.66617e-19)
(0.89918 0.115318 -3.77789e-20)
(0.0965354 0.164935 2.91391e-19)
(0.256904 0.288943 5.54663e-21)
(0.419649 0.312529 3.25625e-19)
(0.540533 0.292966 1.73234e-20)
(0.640546 0.25494 1.60691e-19)
(0.715512 0.215679 -3.38929e-19)
(0.775524 0.180152 -3.94828e-20)
(0.822538 0.150476 -5.75014e-19)
(0.860486 0.125988 -2.57535e-19)
(0.891821 0.105695 2.61416e-19)
(0.0854633 0.151253 -1.97838e-19)
(0.23857 0.263947 -7.34471e-19)
(0.400847 0.284552 5.59861e-19)
(0.523294 0.266096 6.57536e-19)
(0.625775 0.231121 -6.9169e-20)
(0.703027 0.195295 -2.2244e-19)
(0.765036 0.163009 7.03637e-19)
(0.813648 0.136116 -5.13619e-19)
(0.852899 0.11396 2.32567e-19)
(0.88514 0.0956749 -3.74243e-19)
(0.0753022 0.136397 3.82211e-19)
(0.221834 0.237205 -3.60731e-19)
(0.38376 0.254978 -7.73882e-19)
(0.507684 0.237932 5.62043e-20)
(0.612441 0.206317 3.92816e-19)
(0.69178 0.174153 5.91607e-19)
(0.755603 0.145272 -7.43984e-19)
(0.805661 0.121274 3.88611e-19)
(0.846092 0.101531 -2.9345e-19)
(0.879155 0.0852933 -1.48775e-19)
(0.0661603 0.120475 2.22588e-19)
(0.206847 0.208888 -3.92515e-20)
(0.368516 0.22397 7.63186e-19)
(0.493803 0.20861 -2.46222e-19)
(0.600613 0.180631 2.44543e-19)
(0.681822 0.152334 4.36492e-20)
(0.747261 0.127004 -2.90898e-19)
(0.798607 0.106 1.40573e-19)
(0.840087 0.088742 5.56301e-19)
(0.873883 0.0745885 5.30825e-19)
(0.0581349 0.103606 -1.06559e-18)
(0.193742 0.179178 -2.19247e-19)
(0.355231 0.1917 -8.38847e-19)
(0.481739 0.178271 -2.41676e-19)
(0.590356 0.154173 -2.61681e-19)
(0.6732 0.129921 -5.47782e-19)
(0.740047 0.108269 1.85188e-19)
(0.792512 0.0903469 4.39189e-19)
(0.834902 0.0756364 4.74849e-21)
(0.869337 0.0636005 -3.7824e-19)
(0.0513114 0.0859183 5.54193e-19)
(0.182638 0.14827 -1.07865e-20)
(0.344004 0.158347 1.24222e-19)
(0.471567 0.147062 2.90173e-20)
(0.581725 0.127054 -3.42046e-19)
(0.665953 0.107001 5.02917e-19)
(0.73399 0.0891356 4.61633e-19)
(0.787398 0.0743694 -2.44523e-19)
(0.830556 0.0622597 -1.21417e-19)
(0.865531 0.0523706 1.85093e-19)
(0.0457627 0.0675489 -1.36373e-19)
(0.173633 0.116369 2.16587e-19)
(0.33492 0.124099 2.32443e-19)
(0.463353 0.115135 -4.03624e-19)
(0.574764 0.0993903 2.19661e-20)
(0.660115 0.0836616 -1.02893e-20)
(0.729113 0.0696727 -2.55984e-19)
(0.783285 0.0581238 1.56742e-20)
(0.827061 0.0486591 4.68015e-20)
(0.862474 0.0409413 -1.90912e-19)
(0.0415481 0.0486411 1.42527e-19)
(0.166808 0.0836863 -1.43567e-19)
(0.328047 0.089149 -1.22091e-19)
(0.457146 0.0826447 3.29156e-19)
(0.569511 0.0713 8.98671e-20)
(0.655713 0.0599942 -2.20444e-19)
(0.725439 0.0499519 -1.68293e-20)
(0.780186 0.0416682 -1.77752e-19)
(0.82443 0.0348829 -1.16205e-19)
(0.860174 0.0293558 1.84225e-20)
(0.0387128 0.0293435 1.26203e-20)
(0.162223 0.05044 3.85957e-20)
(0.323437 0.0536932 7.11086e-20)
(0.452987 0.0497498 -1.08043e-19)
(0.565993 0.0429034 -5.62829e-20)
(0.652767 0.0360914 3.06593e-20)
(0.72298 0.0300457 -6.45757e-20)
(0.778114 0.0250616 7.0743e-20)
(0.822671 0.0209803 2.73176e-20)
(0.858637 0.0176583 1.055e-20)
(0.0372874 0.00980839 1.08035e-20)
(0.159921 0.0168522 1.49887e-20)
(0.321123 0.0179322 -8.62302e-20)
(0.450901 0.0166109 6.53817e-20)
(0.56423 0.014322 3.04927e-20)
(0.651291 0.0120465 -1.9645e-20)
(0.721749 0.0100277 5.98533e-20)
(0.777077 0.00836398 7.01627e-21)
(0.821791 0.00700184 2.5687e-20)
(0.857868 0.00589346 -2.31417e-20)
(0.0372874 -0.00980839 1.34473e-20)
(0.159921 -0.0168522 -1.49887e-20)
(0.321123 -0.0179322 8.62302e-20)
(0.450901 -0.0166109 6.98978e-20)
(0.56423 -0.014322 1.90853e-20)
(0.651291 -0.0120465 -1.09562e-20)
(0.721749 -0.0100277 5.79857e-20)
(0.777077 -0.00836398 8.65064e-21)
(0.821791 -0.00700184 1.80781e-20)
(0.857868 -0.00589346 -1.43318e-20)
(0.0387128 -0.0293435 2.16954e-20)
(0.162223 -0.05044 4.8594e-20)
(0.323437 -0.0536932 7.0975e-20)
(0.452987 -0.0497498 -1.062e-19)
(0.565993 -0.0429034 -4.80182e-20)
(0.652767 -0.0360914 1.81264e-20)
(0.72298 -0.0300457 -6.12495e-20)
(0.778114 -0.0250616 7.73371e-20)
(0.822671 -0.0209803 1.12573e-21)
(0.858637 -0.0176583 2.62158e-20)
(0.0415481 -0.0486411 1.44801e-19)
(0.166808 -0.0836863 -1.24442e-19)
(0.328047 -0.089149 -1.37829e-19)
(0.457146 -0.0826447 3.1412e-19)
(0.569511 -0.0713 1.00665e-19)
(0.655713 -0.0599942 -2.29628e-19)
(0.725439 -0.0499519 -2.44914e-20)
(0.780186 -0.0416682 -1.92877e-19)
(0.82443 -0.0348829 -8.42557e-20)
(0.860174 -0.0293558 -2.14856e-20)
(0.0457627 -0.0675489 -1.41177e-19)
(0.173633 -0.116369 2.07077e-19)
(0.33492 -0.124099 2.35705e-19)
(0.463353 -0.115135 -3.6044e-19)
(0.574764 -0.0993903 -2.66055e-20)
(0.660115 -0.0836616 1.59212e-20)
(0.729113 -0.0696727 -2.69686e-19)
(0.783285 -0.0581238 -2.08732e-20)
(0.827061 -0.0486591 3.69863e-20)
(0.862474 -0.0409413 -1.99219e-19)
(0.0513114 -0.0859183 5.97246e-19)
(0.182638 -0.14827 1.85998e-20)
(0.344004 -0.158347 1.20158e-19)
(0.471567 -0.147062 2.98102e-20)
(0.581725 -0.127054 -3.80743e-19)
(0.665953 -0.107001 5.82788e-19)
(0.73399 -0.0891356 3.8711e-19)
(0.787398 -0.0743694 -1.75763e-19)
(0.830556 -0.0622597 -1.28925e-19)
(0.865531 -0.0523706 1.3544e-19)
(0.0581349 -0.103606 -1.02836e-18)
(0.193742 -0.179178 -1.98372e-19)
(0.355231 -0.1917 -8.48075e-19)
(0.481739 -0.178271 -1.81804e-19)
(0.590356 -0.154173 -2.87264e-19)
(0.6732 -0.129921 -5.47831e-19)
(0.740047 -0.108269 1.95529e-19)
(0.792512 -0.0903469 4.6123e-19)
(0.834902 -0.0756364 -5.15086e-20)
(0.869337 -0.0636005 -2.78082e-19)
(0.0661603 -0.120475 3.18922e-19)
(0.206847 -0.208888 9.9711e-21)
(0.368516 -0.22397 7.47099e-19)
(0.493803 -0.20861 -2.19253e-19)
(0.600613 -0.180631 2.61127e-19)
(0.681822 -0.152334 -3.96197e-20)
(0.747261 -0.127004 -1.31839e-19)
(0.798607 -0.106 -1.85095e-20)
(0.840087 -0.088742 6.11449e-19)
(0.873883 -0.0745885 4.40552e-19)
(0.0753022 -0.136397 3.56452e-19)
(0.221834 -0.237205 5.90932e-19)
(0.38376 -0.254978 -7.65178e-19)
(0.507684 -0.237932 1.82627e-20)
(0.612441 -0.206317 3.3521e-19)
(0.69178 -0.174153 6.99163e-19)
(0.755603 -0.145272 -8.72606e-19)
(0.805661 -0.121274 4.05283e-19)
(0.846092 -0.101531 -3.02049e-19)
(0.879155 -0.0852933 -4.10795e-20)
(0.0854633 -0.151253 -2.24661e-19)
(0.23857 -0.263947 1.28667e-19)
(0.400847 -0.284552 5.51293e-19)
(0.523294 -0.266096 6.67476e-19)
(0.625775 -0.231121 -1.70512e-19)
(0.703027 -0.195295 -1.697e-19)