/*--------------------------------*- C++ -*----------------------------------*\
  =========                 |
  \\      /  F ield         | OpenFOAM: The Open Source CFD Toolbox
   \\    /   O peration     | Website:  https://openfoam.org
    \\  /    A nd           | Version:  7
     \\/     M anipulation  |
\*---------------------------------------------------------------------------*/
FoamFile
{
    version     2.0;
    format      ascii;
    class       volScalarField;
    location    "5";
    object      p;
}
// * * * * * * * * * * * * * * * * * * * * * * * * * * * * * * * * * * * * * //

dimensions      [0 2 -2 0 0 0 0];

internalField   nonuniform List<scalar> 
6050
(
-0.348252
-0.36081
-0.369419
-0.384573
-0.402835
-0.423718
-0.445122
-0.349423
-0.361696
-0.370321
-0.385502
-0.403864
-0.424929
-0.446626
-0.351684
-0.363396
-0.372041
-0.387251
-0.405778
-0.427156
-0.449365
-0.354889
-0.365779
-0.374416
-0.389618
-0.408314
-0.430045
-0.452855
-0.35884
-0.368668
-0.377233
-0.392335
-0.411122
-0.433135
-0.456481
-0.363306
-0.371863
-0.380245
-0.395094
-0.413813
-0.435928
-0.4596
-0.482743
-0.36805
-0.37516
-0.383206
-0.397594
-0.416013
-0.437962
-0.46164
-0.48502
-0.372848
-0.378379
-0.385895
-0.399568
-0.417399
-0.438865
-0.46217
-0.48538
-0.377504
-0.381373
-0.388139
-0.400814
-0.41774
-0.438408
-0.460987
-0.483589
-0.38187
-0.384039
-0.389833
-0.401217
-0.416974
-0.43646
-0.45802
-0.479719
-0.38584
-0.386327
-0.390936
-0.400752
-0.415059
-0.433142
-0.453447
-0.474057
-0.389365
-0.388242
-0.391463
-0.399495
-0.412137
-0.428667
-0.447595
-0.466924
-0.484142
-0.392441
-0.389819
-0.391505
-0.397602
-0.40845
-0.423367
-0.440894
-0.459012
-0.474974
-0.395108
-0.391126
-0.391195
-0.395286
-0.404305
-0.417635
-0.433803
-0.450653
-0.465139
-0.397448
-0.392256
-0.390697
-0.392796
-0.400037
-0.411838
-0.426714
-0.442171
-0.454828
-0.399576
-0.393318
-0.390186
-0.390391
-0.395973
-0.406369
-0.419904
-0.433723
-0.444085
-0.447109
-0.401635
-0.394432
-0.389841
-0.388314
-0.392386
-0.401438
-0.413507
-0.425319
-0.432894
-0.432641
-0.403785
-0.395724
-0.389833
-0.38677
-0.389473
-0.397164
-0.407525
-0.416888
-0.421265
-0.417668
-0.404942
-0.406197
-0.397317
-0.390312
-0.385903
-0.387324
-0.393549
-0.401865
-0.40834
-0.409283
-0.402519
-0.38774
-0.409037
-0.39933
-0.391389
-0.385782
-0.385928
-0.3905
-0.396385
-0.399616
-0.3971
-0.387522
-0.371201
-0.349475
-0.412455
-0.401858
-0.393123
-0.386381
-0.385199
-0.387869
-0.390933
-0.390713
-0.384904
-0.372942
-0.355521
-0.33395
-0.41654
-0.404984
-0.395547
-0.387658
-0.385057
-0.385508
-0.385408
-0.381692
-0.372878
-0.358956
-0.340781
-0.319517
-0.296305
-0.421388
-0.408752
-0.398605
-0.389509
-0.385349
-0.383211
-0.379715
-0.372615
-0.361146
-0.345644
-0.326969
-0.306089
-0.283892
-0.427059
-0.41317
-0.402205
-0.391856
-0.385894
-0.380803
-0.373819
-0.363554
-0.349788
-0.333024
-0.314024
-0.29355
-0.272271
-0.250772
-0.433589
-0.418214
-0.406262
-0.394634
-0.386491
-0.378148
-0.367713
-0.35456
-0.338832
-0.321058
-0.301851
-0.281774
-0.261316
-0.240907
-0.22092
-0.440989
-0.423826
-0.410742
-0.397739
-0.386943
-0.375157
-0.361404
-0.345663
-0.328268
-0.30968
-0.290342
-0.27064
-0.25091
-0.231462
-0.212574
-0.194502
-0.449261
-0.42992
-0.415674
-0.400999
-0.387086
-0.371774
-0.354903
-0.336867
-0.318057
-0.298806
-0.279387
-0.26003
-0.240948
-0.222351
-0.204436
-0.187387
-0.171324
-0.458382
-0.4364
-0.421111
-0.404201
-0.386792
-0.367969
-0.348213
-0.328157
-0.308143
-0.288347
-0.26888
-0.249839
-0.231337
-0.213496
-0.196448
-0.180314
-0.165186
-0.151203
-0.468292
-0.44319
-0.427045
-0.407145
-0.385963
-0.363721
-0.341328
-0.3195
-0.29846
-0.278212
-0.25872
-0.239973
-0.221992
-0.204832
-0.188562
-0.173253
-0.158964
-0.145778
-0.133555
-0.122726
-0.478874
-0.450253
-0.433336
-0.409666
-0.384522
-0.35901
-0.33423
-0.310854
-0.288937
-0.268313
-0.248819
-0.230345
-0.212841
-0.196298
-0.180732
-0.166171
-0.152645
-0.140185
-0.128689
-0.118503
-0.489933
-0.457594
-0.4397
-0.411628
-0.382411
-0.353813
-0.326894
-0.302168
-0.2795
-0.258569
-0.239093
-0.220882
-0.20382
-0.187842
-0.17292
-0.159043
-0.146212
-0.134422
-0.123596
-0.114001
-0.501213
-0.465232
-0.445763
-0.412899
-0.379583
-0.348106
-0.319283
-0.293385
-0.270081
-0.248903
-0.22947
-0.211518
-0.194871
-0.17942
-0.165093
-0.151848
-0.139656
-0.128484
-0.11828
-0.109232
-0.512423
-0.47316
-0.451135
-0.413344
-0.375999
-0.341859
-0.311355
-0.28445
-0.260613
-0.239249
-0.219885
-0.202193
-0.185947
-0.170991
-0.157221
-0.144564
-0.132966
-0.122372
-0.112746
-0.104201
-0.523264
-0.481295
-0.455491
-0.412822
-0.371618
-0.335039
-0.303064
-0.275304
-0.251034
-0.229543
-0.21028
-0.192858
-0.177003
-0.162523
-0.14928
-0.137176
-0.126133
-0.116083
-0.106998
-0.0989196
-0.533459
-0.48945
-0.458591
-0.411202
-0.366393
-0.327613
-0.294364
-0.265893
-0.241286
-0.21973
-0.200605
-0.183468
-0.168004
-0.153986
-0.141249
-0.12967
-0.119153
-0.109617
-0.101041
-0.0933942
-0.542763
-0.497319
-0.460282
-0.408372
-0.360276
-0.319542
-0.285208
-0.256165
-0.231318
-0.209762
-0.190814
-0.173983
-0.158916
-0.145355
-0.133109
-0.122035
-0.11202
-0.102976
-0.0948797
-0.0876345
-0.55097
-0.504504
-0.460467
-0.404241
-0.353214
-0.310786
-0.275551
-0.24607
-0.221081
-0.199595
-0.180869
-0.164372
-0.149714
-0.13661
-0.124848
-0.114265
-0.104733
-0.0961629
-0.0885201
-0.0816505
-0.557907
-0.510559
-0.459079
-0.39875
-0.345159
-0.301304
-0.265351
-0.235568
-0.210537
-0.189192
-0.170739
-0.154607
-0.140376
-0.127735
-0.116454
-0.106352
-0.097292
-0.08918
-0.0819686
-0.0754555
-0.563421
-0.51505
-0.456043
-0.391861
-0.336074
-0.291061
-0.254573
-0.224623
-0.199652
-0.178523
-0.160398
-0.144667
-0.130883
-0.118717
-0.107919
-0.0982949
-0.0896977
-0.0820326
-0.0752345
-0.069065
-0.567336
-0.517592
-0.45126
-0.383546
-0.325927
-0.280026
-0.243186
-0.213206
-0.188399
-0.167566
-0.149824
-0.134533
-0.121223
-0.109546
-0.0992391
-0.0900917
-0.0819529
-0.074729
-0.0683327
-0.0624921
-0.569451
-0.51786
-0.444628
-0.373773
-0.314681
-0.268161
-0.231158
-0.201286
-0.176751
-0.156295
-0.138994
-0.124187
-0.111382
-0.100214
-0.0904077
-0.0817432
-0.0740623
-0.06728
-0.0612842
-0.0557401
-0.569795
-0.515723
-0.436091
-0.362509
-0.302299
-0.255429
-0.218454
-0.188837
-0.164684
-0.144691
-0.127891
-0.113617
-0.101352
-0.0907157
-0.0814244
-0.0732533
-0.0660343
-0.0596968
-0.0541023
-0.0488159
-0.568133
-0.510975
-0.425565
-0.349728
-0.288764
-0.24181
-0.205058
-0.175839
-0.15218
-0.132739
-0.116509
-0.102816
-0.0911342
-0.0810556
-0.0722945
-0.0646283
-0.0578822
-0.051995
-0.0467559
-0.0417749
-0.564261
-0.503514
-0.413014
-0.33542
-0.274064
-0.22729
-0.190952
-0.162278
-0.13923
-0.120426
-0.104857
-0.0917916
-0.080732
-0.0712399
-0.0630278
-0.0558706
-0.0496138
-0.0441738
-0.0392751
-0.0346228
-0.557987
-0.49327
-0.39841
-0.319573
-0.258188
-0.211853
-0.176122
-0.148149
-0.125843
-0.107759
-0.0929446
-0.080558
-0.0701399
-0.0612626
-0.0536223
-0.0469926
-0.0412363
-0.0362423
-0.0316885
-0.0273703
-0.549108
-0.480201
-0.381743
-0.302187
-0.241124
-0.195492
-0.160568
-0.133471
-0.112041
-0.0947817
-0.0807378
-0.0690983
-0.0593654
-0.0511323
-0.0440867
-0.0380053
-0.0327604
-0.0282151
-0.0240138
-0.0200365
-0.53743
-0.464288
-0.363015
-0.283262
-0.222864
-0.178226
-0.144327
-0.118295
-0.097805
-0.0814636
-0.0682568
-0.0574179
-0.0484178
-0.0408597
-0.0344328
-0.0289197
-0.0241987
-0.0201081
-0.0162673
-0.0126419
-0.522775
-0.44553
-0.342238
-0.262804
-0.20343
-0.160116
-0.127458
-0.102561
-0.0831475
-0.067812
-0.0555205
-0.0455318
-0.0373085
-0.0304576
-0.0246738
-0.0197492
-0.0155655
-0.0119368
-0.0084653
-0.00520654
-0.504992
-0.423941
-0.319424
-0.24084
-0.182921
-0.141189
-0.109917
-0.0863059
-0.0680889
-0.0538466
-0.0425447
-0.0334574
-0.0260522
-0.0199405
-0.014825
-0.0105087
-0.00687612
-0.00371775
-0.000625131
0.0022497
-0.483975
-0.399564
-0.29458
-0.21746
-0.161428
-0.121403
-0.0917331
-0.0695627
-0.052655
-0.0395918
-0.0293484
-0.021214
-0.0146667
-0.00932553
-0.00490306
-0.00121465
0.00185306
0.00453178
0.00723448
0.00970734
-0.45966
-0.372498
-0.267724
-0.192829
-0.13887
-0.100821
-0.0729474
-0.0523667
-0.0368761
-0.0250751
-0.0159552
-0.00882351
-0.00317219
0.00136833
0.00507345
0.00811485
0.0106043
0.0127931
0.0150929
0.0171461
-0.432037
-0.342911
-0.238964
-0.166863
-0.115339
-0.0795032
-0.0536079
-0.0347576
-0.0207875
-0.0103277
-0.00239244
0.00368947
0.00840863
0.01212
0.0150846
0.0174608
0.0193588
0.021046
0.0229276
0.0245445
-0.401152
-0.310916
-0.208454
-0.139576
-0.0909051
-0.0575192
-0.0337697
-0.016781
-0.00442896
0.00461549
0.0113092
0.0162975
0.0200509
0.0229066
0.0251091
0.0268032
0.0280977
0.0292706
0.0307156
0.0318799
-0.367116
-0.276355
-0.176487
-0.111118
-0.0656495
-0.0349416
-0.0134946
0.00151168
0.012155
0.0197156
0.0251156
0.0289704
0.0317275
0.0337035
0.0351241
0.0361213
0.0368027
0.0374502
0.0384385
0.0391316
-0.330115
-0.239109
-0.143317
-0.0816579
-0.0396637
-0.0118485
0.00714963
0.0200636
0.0289157
0.0349304
0.0389898
0.0416757
0.0434095
0.0444839
0.0451046
0.045393
0.0454571
0.0455735
0.0460853
0.0462844
-0.290303
-0.199591
-0.108886
-0.0513484
-0.0130549
0.0116746
0.0280898
0.0388128
0.0458002
0.0502141
0.052892
0.0543786
0.0550657
0.0552194
0.0550245
0.0545956
0.054044
0.0536284
0.0536412
0.0533202
-0.247601
-0.158498
-0.073287
-0.0203267
0.0140594
0.0355349
0.0492474
0.0576926
0.0627516
0.065518
0.0667801
0.0670422
0.0666636
0.0658806
0.0648576
0.0637081
0.062547
0.0615905
0.0610531
0.06017
-0.20222
-0.11632
-0.0367157
0.0112692
0.0415546
0.0596318
0.0705383
0.0766323
0.0797099
0.0807905
0.0806097
0.0796279
0.0781689
0.0764375
0.0745803
0.0727152
0.0709516
0.0694172
0.0682023
0.0666346
-0.154669
-0.073145
0.000600945
0.0432869
0.0692989
0.0838581
0.091874
0.0955576
0.0966122
0.0959783
0.0943348
0.0920957
0.0895467
0.0868609
0.0841717
0.0816046
0.0792428
0.0770581
0.0749566
0.0724829
-0.105226
-0.0291341
0.038423
0.0755573
0.097154
0.108101
0.113162
0.114392
0.113394
0.111026
0.107908
0.104405
0.100761
0.0971212
0.0936097
0.0903557
0.0873883
0.0844686
0.0813238
0.0780486
-0.054125
0.0154961
0.0765213
0.107913
0.124983
0.132249
0.134309
0.133056
0.129988
0.125877
0.121281
0.116511
0.111775
0.107188
0.102867
0.0989306
0.095328
0.0916267
0.0875221
0.0846243
-0.00219556
0.0604388
0.114677
0.140192
0.152654
0.156189
0.155221
0.15147
0.146328
0.140474
0.134402
0.128373
0.122553
0.117031
0.111913
0.107286
0.10301
0.0985832
0.093927
0.0912652
0.0502095
0.105421
0.152648
0.172203
0.180011
0.179798
0.175796
0.16955
0.16234
0.154754
0.14722
0.139944
0.133055
0.126616
0.120715
0.115393
0.110447
0.105397
0.10038
0.097657
0.102676
0.150125
0.19019
0.203757
0.206905
0.202952
0.195932
0.187211
0.177955
0.168659
0.159683
0.151182
0.143244
0.135909
0.129235
0.123224
0.117636
0.112057
0.106731
0.103728
0.15477
0.194235
0.227062
0.234667
0.233185
0.225529
0.215528
0.20437
0.193103
0.182128
0.171741
0.162041
0.153082
0.144874
0.137445
0.13076
0.124571
0.118519
0.112881
0.109504
0.206063
0.237435
0.263025
0.264742
0.2587
0.247407
0.234485
0.220942
0.207711
0.195101
0.183341
0.172479
0.16253
0.153476
0.145314
0.13798
0.131229
0.12474
0.118782
0.114998
0.256128
0.279413
0.297841
0.293799
0.283301
0.268465
0.252702
0.236845
0.221712
0.20752
0.194434
0.182451
0.17155
0.161681
0.152815
0.144862
0.137582
0.130684
0.124409
0.120213
0.304552
0.319866
0.331279
0.321654
0.306843
0.288585
0.270082
0.251998
0.235037
0.219328
0.204971
0.191915
0.180104
0.169458
0.159919
0.15138
0.143604
0.136321
0.129743
0.125153
0.350934
0.358499
0.363115
0.34813
0.329185
0.307651
0.286532
0.266323
0.247621
0.230467
0.214903
0.20083
0.188156
0.176774
0.166599
0.157507
0.149266
0.141626
0.134768
0.12981
0.394893
0.39503
0.393136
0.373058
0.350191
0.325555
0.301962
0.279745
0.2594
0.240886
0.224186
0.209156
0.195672
0.183598
0.172827
0.163217
0.154543
0.146572
0.139461
0.134151
0.43608
0.429181
0.421136
0.396277
0.369732
0.342192
0.316284
0.292193
0.270316
0.250534
0.232776
0.216856
0.202619
0.189903
0.178578
0.168489
0.159415
0.151141
0.143793
0.138125
0.474173
0.460683
0.446922
0.417635
0.387688
0.357464
0.32942
0.303601
0.280311
0.259362
0.240631
0.223894
0.208966
0.195661
0.183828
0.1733
0.163862
0.155313
0.147737
0.14172
0.508868
0.489297
0.470315
0.436991
0.403945
0.37128
0.341294
0.313905
0.289334
0.267326
0.247714
0.230237
0.214684
0.200846
0.188555
0.17763
0.167866
0.15907
0.151281
0.144941
0.539879
0.514811
0.491153
0.454217
0.418403
0.383557
0.351839
0.32305
0.297337
0.274387
0.253991
0.235856
0.219747
0.205436
0.192737
0.181462
0.171409
0.162395
0.154417
0.147789
0.566954
0.537037
0.509291
0.469201
0.43097
0.394222
0.360993
0.330985
0.304278
0.280509
0.259431
0.240724
0.224132
0.209411
0.196358
0.184778
0.174476
0.165274
0.157132
0.150256
0.589868
0.555811
0.524603
0.481841
0.441566
0.403209
0.368704
0.337666
0.31012
0.285659
0.264006
0.244817
0.227818
0.212751
0.1994
0.187564
0.177053
0.167694
0.159416
0.152332
0.608433
0.570997
0.536981
0.492055
0.450123
0.410465
0.374927
0.343055
0.314832
0.289811
0.267693
0.248115
0.230789
0.215442
0.20185
0.189808
0.179129
0.169643
0.161257
0.154006
0.622495
0.582483
0.546338
0.499773
0.456588
0.415944
0.379625
0.347123
0.318387
0.292944
0.270475
0.250603
0.233028
0.217471
0.203698
0.1915
0.180693
0.171114
0.162647
0.155269
0.631937
0.590186
0.552611
0.504945
0.460919
0.419614
0.382771
0.349847
0.320767
0.295041
0.272337
0.252268
0.234527
0.218828
0.204934
0.192632
0.18174
0.172098
0.163578
0.156115
0.63668
0.594051
0.555758
0.507539
0.46309
0.421454
0.384349
0.351213
0.32196
0.296092
0.27327
0.253102
0.235279
0.219509
0.205554
0.193199
0.182265
0.172592
0.164045
0.15654
0.63668
0.594051
0.555758
0.507539
0.46309
0.421454
0.384349
0.351213
0.32196
0.296092
0.27327
0.253102
0.235279
0.219509
0.205554
0.193199
0.182265
0.172592
0.164045
0.15654
0.631937
0.590186
0.552611
0.504945
0.460919
0.419614
0.382771
0.349847
0.320767
0.295041
0.272337
0.252268
0.234527
0.218828
0.204934
0.192632
0.18174
0.172098
0.163578
0.156115
0.622495
0.582483
0.546338
0.499773
0.456588
0.415944
0.379625
0.347123
0.318387
0.292944
0.270475
0.250603
0.233028
0.217471
0.203698
0.1915
0.180693
0.171114
0.162647
0.155269
0.608433
0.570997
0.536981
0.492055
0.450123
0.410465
0.374927
0.343055
0.314832
0.289811
0.267693
0.248115
0.230789
0.215442
0.20185
0.189808
0.179129
0.169643
0.161257
0.154006
0.589868
0.555811
0.524603
0.481841
0.441566
0.403209
0.368704
0.337666
0.31012
0.285659
0.264006
0.244817
0.227818
0.212751
0.1994
0.187564
0.177053
0.167694
0.159416
0.152332
0.566954
0.537037
0.509291
0.469201
0.43097
0.394222
0.360993
0.330985
0.304278
0.280509
0.259431
0.240724
0.224132
0.209411
0.196358
0.184778
0.174476
0.165274
0.157132
0.150256
0.539879
0.514811
0.491153
0.454217
0.418403
0.383557
0.351839
0.32305
0.297337
0.274387
0.253991
0.235856
0.219747
0.205436
0.192737
0.181462
0.171409
0.162395
0.154417
0.147789
0.508868
0.489297
0.470315
0.436991
0.403945
0.37128
0.341294
0.313905
0.289334
0.267326
0.247714
0.230237
0.214684
0.200846
0.188555
0.17763
0.167866
0.15907
0.151281
0.144941
0.474173
0.460683
0.446922
0.417635
0.387688
0.357464
0.32942
0.303601
0.280311
0.259362
0.240631
0.223894
0.208966
0.195661
0.183828
0.1733
0.163862
0.155313
0.147737
0.14172
0.43608
0.429181
0.421136
0.396277
0.369732
0.342192
0.316284
0.292194
0.270316
0.250534
0.232776
0.216856
0.202619
0.189903
0.178578
0.168489
0.159415
0.151141
0.143793
0.138125
0.394893
0.39503
0.393136
0.373058
0.350191
0.325555
0.301962
0.279745
0.2594
0.240886
0.224186
0.209156
0.195672
0.183598
0.172827
0.163217
0.154543
0.146572
0.139461
0.134151
0.350934
0.358499
0.363115
0.34813
0.329185
0.307651
0.286532
0.266323
0.247621
0.230467
0.214903
0.20083
0.188156
0.176774
0.166599
0.157507
0.149266
0.141626
0.134768
0.12981
0.304552
0.319866
0.331279
0.321654
0.306843
0.288585
0.270082
0.251998
0.235037
0.219328
0.204971
0.191915
0.180104
0.169458
0.159919
0.15138
0.143604
0.136321
0.129743
0.125153
0.256128
0.279413
0.297841
0.293799
0.283301
0.268465
0.252702
0.236845
0.221712
0.20752
0.194434
0.182451
0.17155
0.161681
0.152815
0.144862
0.137582
0.130684
0.124409
0.120213
0.206063
0.237435
0.263025
0.264742
0.2587
0.247407
0.234485
0.220942
0.207711
0.195101
0.183341
0.172479
0.16253
0.153476
0.145314
0.13798
0.131229
0.12474
0.118782
0.114998
0.15477
0.194235
0.227062
0.234667
0.233185
0.225529
0.215528
0.20437
0.193103
0.182128
0.171741
0.162041
0.153082
0.144874
0.137445
0.13076
0.124571
0.118519
0.112881
0.109504
0.102676
0.150125
0.19019
0.203757
0.206905
0.202952
0.195932
0.187211
0.177955
0.168659
0.159683
0.151182
0.143244
0.135909
0.129235
0.123224
0.117636
0.112057
0.106731
0.103728
0.0502095
0.105421
0.152648
0.172203
0.180011
0.179798
0.175796
0.16955
0.16234
0.154754
0.14722
0.139944
0.133055
0.126616
0.120715
0.115393
0.110447
0.105397
0.10038
0.097657
-0.00219555
0.0604388
0.114677
0.140192
0.152654
0.156189
0.155221
0.15147
0.146328
0.140474
0.134402
0.128373
0.122553
0.117031
0.111914
0.107286
0.10301
0.0985832
0.093927
0.0912652
-0.0541249
0.0154961
0.0765213
0.107913
0.124983
0.132249
0.134309
0.133056
0.129988
0.125877
0.121281
0.116512
0.111775
0.107188
0.102867
0.0989306
0.095328
0.0916268
0.0875221
0.0846243
-0.105226
-0.0291341
0.038423
0.0755573
0.097154
0.108101
0.113162
0.114392
0.113394
0.111026
0.107908
0.104405
0.100761
0.0971212
0.0936097
0.0903557
0.0873883
0.0844686
0.0813238
0.0780486
-0.154669
-0.073145
0.000600954
0.0432869
0.0692989
0.0838581
0.091874
0.0955576
0.0966122
0.0959783
0.0943349
0.0920957
0.0895467
0.0868609
0.0841717
0.0816046
0.0792428
0.0770581
0.0749567
0.0724829
-0.20222
-0.11632
-0.0367157
0.0112692
0.0415547
0.0596319
0.0705383
0.0766323
0.0797099
0.0807905
0.0806097
0.0796279
0.0781689
0.0764375
0.0745803
0.0727152
0.0709516
0.0694172
0.0682023
0.0666346
-0.247601
-0.158498
-0.073287
-0.0203267
0.0140594
0.0355349
0.0492474
0.0576926
0.0627516
0.065518
0.0667801
0.0670422
0.0666636
0.0658806
0.0648576
0.0637081
0.062547
0.0615905
0.0610531
0.06017
-0.290303
-0.199591
-0.108886
-0.0513484
-0.0130549
0.0116746
0.0280899
0.0388128
0.0458002
0.0502141
0.052892
0.0543786
0.0550657
0.0552194
0.0550245
0.0545956
0.054044
0.0536284
0.0536412
0.0533202
-0.330115
-0.239109
-0.143317
-0.0816579
-0.0396637
-0.0118485
0.00714964
0.0200636
0.0289157
0.0349304
0.0389898
0.0416757
0.0434095
0.0444839
0.0451046
0.045393
0.0454571
0.0455735
0.0460853
0.0462844
-0.367116
-0.276355
-0.176487
-0.111118
-0.0656495
-0.0349416
-0.0134946
0.00151169
0.0121551
0.0197156
0.0251156
0.0289704
0.0317275
0.0337035
0.0351241
0.0361213
0.0368027
0.0374503
0.0384385
0.0391316
-0.401152
-0.310916
-0.208454
-0.139576
-0.090905
-0.0575192
-0.0337697
-0.016781
-0.00442895
0.0046155
0.0113092
0.0162975
0.0200509
0.0229066
0.0251091
0.0268032
0.0280977
0.0292706
0.0307156
0.03188
-0.432037
-0.342911
-0.238964
-0.166863
-0.115339
-0.0795032
-0.0536079
-0.0347576
-0.0207875
-0.0103277
-0.00239243
0.00368947
0.00840863
0.01212
0.0150846
0.0174608
0.0193588
0.021046
0.0229276
0.0245445
-0.45966
-0.372498
-0.267724
-0.192829
-0.13887
-0.100821
-0.0729473
-0.0523667
-0.0368761
-0.0250751
-0.0159552
-0.0088235
-0.00317218
0.00136834
0.00507345
0.00811485
0.0106043
0.0127931
0.0150929
0.0171461
-0.483975
-0.399564
-0.29458
-0.21746
-0.161428
-0.121403
-0.0917331
-0.0695627
-0.052655
-0.0395918
-0.0293484
-0.021214
-0.0146667
-0.00932553
-0.00490306
-0.00121465
0.00185307
0.00453178
0.00723449
0.00970734
-0.504992
-0.423941
-0.319424
-0.24084
-0.182921
-0.141189
-0.109917
-0.0863059
-0.0680889
-0.0538466
-0.0425447
-0.0334574
-0.0260522
-0.0199405
-0.014825
-0.0105087
-0.00687611
-0.00371774
-0.000625125
0.00224971
-0.522775
-0.44553
-0.342238
-0.262804
-0.20343
-0.160116
-0.127458
-0.102561
-0.0831474
-0.067812
-0.0555204
-0.0455318
-0.0373085
-0.0304576
-0.0246738
-0.0197492
-0.0155655
-0.0119368
-0.00846529
-0.00520653
-0.53743
-0.464288
-0.363015
-0.283262
-0.222864
-0.178226
-0.144327
-0.118295
-0.097805
-0.0814636
-0.0682568
-0.0574179
-0.0484178
-0.0408597
-0.0344328
-0.0289197
-0.0241987
-0.0201081
-0.0162673
-0.0126419
-0.549108
-0.480201
-0.381743
-0.302187
-0.241124
-0.195492
-0.160568
-0.133471
-0.112041
-0.0947817
-0.0807378
-0.0690983
-0.0593654
-0.0511323
-0.0440867
-0.0380053
-0.0327604
-0.0282151
-0.0240138
-0.0200365
-0.557987
-0.49327
-0.39841
-0.319573
-0.258188
-0.211853
-0.176122
-0.148149
-0.125843
-0.107759
-0.0929446
-0.080558
-0.0701399
-0.0612626
-0.0536223
-0.0469926
-0.0412363
-0.0362423
-0.0316885
-0.0273703
-0.564261
-0.503514
-0.413014
-0.33542
-0.274064
-0.22729
-0.190952
-0.162278
-0.13923
-0.120426
-0.104857
-0.0917916
-0.080732
-0.0712399
-0.0630278
-0.0558706
-0.0496137
-0.0441738
-0.0392751
-0.0346228
-0.568133
-0.510975
-0.425565
-0.349728
-0.288764
-0.24181
-0.205058
-0.175839
-0.15218
-0.132739
-0.116509
-0.102816
-0.0911342
-0.0810555
-0.0722945
-0.0646283
-0.0578822
-0.051995
-0.0467559
-0.0417749
-0.569795
-0.515722
-0.436091
-0.362509
-0.302299
-0.255429
-0.218454
-0.188837
-0.164684
-0.144691
-0.127891
-0.113617
-0.101352
-0.0907157
-0.0814244
-0.0732533
-0.0660343
-0.0596968
-0.0541023
-0.0488158
-0.569451
-0.51786
-0.444628
-0.373773
-0.314681
-0.268161
-0.231158
-0.201286
-0.176751
-0.156295
-0.138994
-0.124187
-0.111382
-0.100214
-0.0904077
-0.0817432
-0.0740622
-0.06728
-0.0612842
-0.0557401
-0.567336
-0.517592
-0.45126
-0.383546
-0.325927
-0.280026
-0.243186
-0.213206
-0.188399
-0.167566
-0.149823
-0.134533
-0.121223
-0.109546
-0.0992391
-0.0900916
-0.0819529
-0.074729
-0.0683327
-0.0624921
-0.563421
-0.51505
-0.456043
-0.39186
-0.336074
-0.291061
-0.254573
-0.224623
-0.199652
-0.178523
-0.160398
-0.144667
-0.130883
-0.118717
-0.107919
-0.0982949
-0.0896977
-0.0820326
-0.0752345
-0.069065
-0.557907
-0.510559
-0.459079
-0.39875
-0.345159
-0.301304
-0.265351
-0.235568
-0.210537
-0.189192
-0.170739
-0.154607
-0.140376
-0.127735
-0.116454
-0.106352
-0.097292
-0.08918
-0.0819686
-0.0754555
-0.55097
-0.504504
-0.460467
-0.404241
-0.353214
-0.310786
-0.275551
-0.24607
-0.221081
-0.199595
-0.180869
-0.164372
-0.149714
-0.13661
-0.124848
-0.114265
-0.104733
-0.0961629
-0.0885201
-0.0816505
-0.542763
-0.497319
-0.460282
-0.408372
-0.360276
-0.319542
-0.285208
-0.256165
-0.231318
-0.209762
-0.190814
-0.173983
-0.158916
-0.145355
-0.133109
-0.122035
-0.11202
-0.102976
-0.0948797
-0.0876345
-0.533459
-0.48945
-0.458591
-0.411202
-0.366393
-0.327613
-0.294364
-0.265893
-0.241286
-0.21973
-0.200605
-0.183468
-0.168004
-0.153986
-0.141249
-0.12967
-0.119152
-0.109617
-0.101041
-0.0933942
-0.523264
-0.481295
-0.455491
-0.412822
-0.371618
-0.335039
-0.303064
-0.275304
-0.251034
-0.229543
-0.21028
-0.192858
-0.177003
-0.162523
-0.14928
-0.137176
-0.126133
-0.116083
-0.106998
-0.0989196
-0.512423
-0.47316
-0.451135
-0.413344
-0.375999
-0.341859
-0.311355
-0.28445
-0.260613
-0.239249
-0.219885
-0.202193
-0.185947
-0.170991
-0.157221
-0.144564
-0.132966
-0.122372
-0.112746
-0.104201
-0.501213
-0.465232
-0.445762
-0.412899
-0.379583
-0.348106
-0.319283
-0.293385
-0.270081
-0.248903
-0.22947
-0.211518
-0.194871
-0.17942
-0.165093
-0.151848
-0.139656
-0.128484
-0.11828
-0.109232
-0.489933
-0.457594
-0.4397
-0.411628
-0.382411
-0.353813
-0.326894
-0.302168
-0.2795
-0.258569
-0.239093
-0.220882
-0.20382
-0.187842
-0.17292
-0.159043
-0.146212
-0.134422
-0.123596
-0.114001
-0.478874
-0.450253
-0.433336
-0.409666
-0.384522
-0.35901
-0.33423
-0.310854
-0.288937
-0.268313
-0.248819
-0.230345
-0.212841
-0.196298
-0.180732
-0.166171
-0.152645
-0.140185
-0.128689
-0.118503
-0.468292
-0.44319
-0.427045
-0.407145
-0.385963
-0.363721
-0.341328
-0.3195
-0.29846
-0.278212
-0.25872
-0.239973
-0.221992
-0.204832
-0.188562
-0.173253
-0.158964
-0.145778
-0.133555
-0.122726
-0.458382
-0.4364
-0.421111
-0.404201
-0.386792
-0.367969
-0.348213
-0.328157
-0.308143
-0.288347
-0.26888
-0.249839
-0.231337
-0.213496
-0.196448
-0.180314
-0.165186
-0.151203
-0.449261
-0.42992
-0.415674
-0.400999
-0.387086
-0.371774
-0.354903
-0.336867
-0.318057
-0.298806
-0.279387
-0.26003
-0.240948
-0.222351
-0.204436
-0.187387
-0.171324
-0.440989
-0.423826
-0.410742
-0.397739
-0.386943
-0.375157
-0.361404
-0.345663
-0.328268
-0.30968
-0.290342
-0.27064
-0.25091
-0.231462
-0.212574
-0.194502
-0.433589
-0.418214
-0.406262
-0.394634
-0.386491
-0.378148
-0.367713
-0.35456
-0.338832
-0.321058
-0.301851
-0.281774
-0.261316
-0.240907
-0.22092
-0.427059
-0.41317
-0.402205
-0.391856
-0.385894
-0.380803
-0.373819
-0.363554
-0.349788
-0.333024
-0.314024
-0.29355
-0.272271
-0.250772
-0.421388
-0.408752
-0.398605
-0.389509
-0.385349
-0.383211
-0.379715
-0.372615
-0.361146
-0.345644
-0.326969
-0.306089
-0.283892
-0.41654
-0.404984
-0.395547
-0.387658
-0.385057
-0.385508
-0.385408
-0.381692
-0.372878
-0.358956
-0.340781
-0.319517
-0.296305
-0.412455
-0.401858
-0.393123
-0.386381
-0.385199
-0.387869
-0.390933
-0.390713
-0.384904
-0.372942
-0.355521
-0.33395
-0.409037
-0.39933
-0.391389
-0.385782
-0.385928
-0.3905
-0.396385
-0.399616
-0.3971
-0.387522
-0.371201
-0.349475
-0.406197
-0.397317
-0.390312
-0.385903
-0.387324
-0.393549
-0.401865
-0.40834
-0.409283
-0.402519
-0.38774
-0.403785
-0.395724
-0.389833
-0.38677
-0.389473
-0.397164
-0.407525
-0.416888
-0.421265
-0.417668
-0.404942
-0.401635
-0.394432
-0.389841
-0.388314
-0.392386
-0.401438
-0.413507
-0.425319
-0.432894
-0.432641
-0.399576
-0.393318
-0.390186
-0.390391
-0.395973
-0.406369
-0.419904
-0.433723
-0.444085
-0.447109
-0.397448
-0.392256
-0.390697
-0.392796
-0.400037
-0.411838
-0.426714
-0.442171
-0.454828
-0.395108
-0.391126
-0.391195
-0.395286
-0.404305
-0.417635
-0.433803
-0.450653
-0.465139
-0.392441
-0.389819
-0.391505
-0.397602
-0.40845
-0.423367
-0.440894
-0.459012
-0.474974
-0.389365
-0.388242
-0.391463
-0.399495
-0.412137
-0.428667
-0.447595
-0.466924
-0.484142
-0.38584
-0.386327
-0.390935
-0.400752
-0.415059
-0.433142
-0.453447
-0.474057
-0.38187
-0.384039
-0.389833
-0.401217
-0.416974
-0.43646
-0.45802
-0.479719
-0.377504
-0.381373
-0.388139
-0.400814
-0.41774
-0.438408
-0.460987
-0.483589
-0.372848
-0.378379
-0.385895
-0.399568
-0.417399
-0.438865
-0.46217
-0.48538
-0.36805
-0.37516
-0.383206
-0.397594
-0.416013
-0.437962
-0.46164
-0.48502
-0.363306
-0.371863
-0.380245
-0.395094
-0.413813
-0.435928
-0.4596
-0.482743
-0.35884
-0.368668
-0.377233
-0.392335
-0.411122
-0.433135
-0.456481
-0.354889
-0.365779
-0.374416
-0.389618
-0.408314
-0.430045
-0.452855
-0.351684
-0.363396
-0.372041
-0.387251
-0.405778
-0.427156
-0.449365
-0.349423
-0.361696
-0.370321
-0.385502
-0.403864
-0.424929
-0.446626
-0.348252
-0.36081
-0.369419
-0.384573
-0.402835
-0.423718
-0.445122
-0.0595002
-0.0658165
-0.0719602
-0.0779119
-0.0836539
-0.0891676
-0.094441
-0.0994559
-0.104205
-0.108664
-0.112834
-0.0586586
-0.0648596
-0.0708868
-0.0767196
-0.0823405
-0.0877297
-0.092875
-0.0977555
-0.102364
-0.106674
-0.110689
-0.0578062
-0.0638718
-0.0697617
-0.0754552
-0.0809357
-0.0861831
-0.0911856
-0.0959219
-0.100387
-0.104552
-0.108426
-0.0569394
-0.0628776
-0.0686397
-0.0742053
-0.079558
-0.0846778
-0.0895537
-0.0941636
-0.0985048
-0.102547
-0.106304
-0.0560589
-0.0618721
-0.0675099
-0.0729517
-0.0781816
-0.0831793
-0.0879346
-0.0924248
-0.0966486
-0.100574
-0.104219
-0.0551664
-0.0608527
-0.0663645
-0.0716807
-0.0767859
-0.0816594
-0.0862918
-0.0906593
-0.0947625
-0.0985667
-0.102094
-0.0542628
-0.0598206
-0.0652044
-0.0703929
-0.0753711
-0.0801179
-0.0846246
-0.0888665
-0.0928456
-0.0965254
-0.0999314
-0.0533496
-0.0587777
-0.0640324
-0.0690922
-0.0739422
-0.0785612
-0.082941
-0.0870562
-0.0909102
-0.094465
-0.0977487
-0.0524284
-0.0577261
-0.0628511
-0.0677815
-0.0725028
-0.0769936
-0.0812461
-0.0852346
-0.0889635
-0.0923942
-0.0955559
-0.051501
-0.0566679
-0.0616628
-0.0664635
-0.0710558
-0.0754183
-0.0795433
-0.0834053
-0.0870092
-0.090317
-0.093357
-0.0505694
-0.0556055
-0.06047
-0.0651411
-0.0696043
-0.0738385
-0.0778362
-0.0815723
-0.0850512
-0.0882373
-0.0911557
-0.0496358
-0.0545413
-0.0592758
-0.0638174
-0.0681518
-0.0722582
-0.0761289
-0.0797399
-0.0830945
-0.0861605
-0.0889579
-0.0487027
-0.0534782
-0.0580832
-0.062496
-0.0667023
-0.0706817
-0.0744261
-0.0779134
-0.0811446
-0.0840925
-0.0867702
-0.0477727
-0.0524193
-0.0568957
-0.0611808
-0.0652599
-0.0691136
-0.0727331
-0.0760982
-0.0792075
-0.0820396
-0.0845999
-0.0468488
-0.0513679
-0.0557171
-0.059876
-0.0638293
-0.0675591
-0.0710552
-0.0743004
-0.0772899
-0.0800086
-0.0824545
-0.0459342
-0.0503278
-0.0545515
-0.058586
-0.0624156
-0.0660236
-0.0693985
-0.0725263
-0.0753988
-0.0780069
-0.0803422
-0.0824068
-0.0450326
-0.0493029
-0.0534035
-0.057316
-0.0610243
-0.064513
-0.0677696
-0.0707828
-0.0735417
-0.0760422
-0.0782714
-0.0802378
-0.0441479
-0.0482976
-0.0522781
-0.0560714
-0.0596614
-0.063034
-0.0661757
-0.0690775
-0.0717269
-0.0741231
-0.0762513
-0.0781228
-0.0432845
-0.047317
-0.0511805
-0.0548581
-0.0583334
-0.0615934
-0.0646242
-0.0674185
-0.0699631
-0.0722589
-0.0742914
-0.0760721
-0.0424473
-0.0463663
-0.0501169
-0.0536827
-0.0570474
-0.060199
-0.0631235
-0.0658147
-0.0682596
-0.0704597
-0.0724019
-0.0740966
-0.0416416
-0.0454516
-0.0490938
-0.0525523
-0.0558112
-0.0588592
-0.0616827
-0.0642756
-0.0666264
-0.068736
-0.0705938
-0.0722082
-0.0408736
-0.0445796
-0.0481184
-0.0514748
-0.0546335
-0.0575832
-0.0603113
-0.0628119
-0.0650745
-0.0670996
-0.068879
-0.0704192
-0.0401501
-0.0437576
-0.047199
-0.0504591
-0.0535235
-0.0563811
-0.0590202
-0.0614347
-0.0636158
-0.065563
-0.0672704
-0.0687431
-0.0394786
-0.0429941
-0.0463444
-0.0495149
-0.0524916
-0.055264
-0.057821
-0.0601566
-0.0622632
-0.0641397
-0.065782
-0.0671942
-0.0388679
-0.0422983
-0.0455648
-0.0486529
-0.0515496
-0.0542443
-0.056727
-0.0589914
-0.0610311
-0.0628448
-0.0644295
-0.0657887
-0.0383275
-0.0416808
-0.0448715
-0.0478855
-0.0507103
-0.0533358
-0.0557524
-0.0579543
-0.0599356
-0.0616948
-0.0632301
-0.0645442
-0.0378688
-0.0411537
-0.0442775
-0.0472265
-0.0499886
-0.052554
-0.054914
-0.0570626
-0.0589947
-0.0607087
-0.0622031
-0.0634807
-0.0375046
-0.0407308
-0.0437976
-0.0466916
-0.0494013
-0.0519172
-0.0542308
-0.0563365
-0.0582295