/*--------------------------------*- C++ -*----------------------------------*\
  =========                 |
  \\      /  F ield         | OpenFOAM: The Open Source CFD Toolbox
   \\    /   O peration     | Website:  https://openfoam.org
    \\  /    A nd           | Version:  7
     \\/     M anipulation  |
\*---------------------------------------------------------------------------*/
FoamFile
{
    version     2.0;
    format      ascii;
    class       volVectorField;
    location    "5";
    object      U;
}
// * * * * * * * * * * * * * * * * * * * * * * * * * * * * * * * * * * * * * //

dimensions      [0 1 -1 0 0 0 0];

internalField   nonuniform List<vector> 
6050
(
(-0.0219343 0.00793115 -2.42042e-20)
(-0.0858286 0.012576 -2.93234e-20)
(-0.168623 0.0139504 3.70087e-21)
(-0.243612 0.0142696 -9.73644e-21)
(-0.315739 0.0141957 4.94338e-20)
(-0.381881 0.0137645 1.63128e-20)
(-0.441711 0.0128178 -2.36047e-20)
(-0.0222181 0.0234859 1.14446e-21)
(-0.0847558 0.0373743 -1.86366e-20)
(-0.165287 0.041525 -3.92765e-20)
(-0.237718 0.0424792 3.2574e-20)
(-0.306722 0.0422327 2.16805e-20)
(-0.369111 0.0409096 3.60324e-21)
(-0.424469 0.0380504 6.86484e-20)
(-0.0227612 0.0381423 -7.00965e-21)
(-0.0826707 0.0611335 -2.69031e-20)
(-0.158782 0.0681395 3.82681e-20)
(-0.226221 0.0697248 3.05402e-20)
(-0.28916 0.0692379 -1.07487e-19)
(-0.344308 0.0669423 1.48451e-20)
(-0.391106 0.0621196 -1.15281e-19)
(-0.0235175 0.051364 3.4999e-20)
(-0.0796902 0.0832033 1.4151e-19)
(-0.149433 0.0931803 -4.66596e-20)
(-0.20968 0.0953952 -9.82155e-20)
(-0.263947 0.0945689 -5.94591e-20)
(-0.308849 0.0911838 8.58285e-20)
(-0.343689 0.0843336 1.11589e-19)
(-0.0244251 0.0626975 -9.63517e-20)
(-0.075981 0.10299 -2.74354e-20)
(-0.137697 0.116067 8.37684e-20)
(-0.188879 0.118916 4.4672e-20)
(-0.232319 0.117635 2.29837e-19)
(-0.264607 0.113028 -2.22974e-19)
(-0.284965 0.104093 -1.31056e-19)
(-0.025413 0.0717986 6.26542e-20)
(-0.0717485 0.119979 5.62262e-21)
(-0.124142 0.136264 -1.57418e-19)
(-0.164774 0.139758 -7.98659e-20)
(-0.195752 0.13791 -2.71813e-19)
(-0.21377 0.131952 -9.49225e-21)
(-0.218069 0.120897 -1.40025e-20)
(-0.207218 0.103706 -2.65808e-20)
(-0.0264094 0.0784512 -1.63221e-19)
(-0.0672246 0.133752 -2.88815e-19)
(-0.109405 0.153294 1.0468e-19)
(-0.138433 0.157445 -3.08058e-20)
(-0.155865 0.154931 2.45659e-19)
(-0.158677 0.147518 2.47558e-19)
(-0.146262 0.134344 -8.88113e-20)
(-0.117759 0.114461 1.27969e-19)
(-0.0273506 0.0825773 1.20516e-19)
(-0.0626525 0.144008 1.3288e-19)
(-0.0941633 0.166747 9.38687e-20)
(-0.110979 0.171551 3.41625e-19)
(-0.114323 0.168302 -7.81752e-20)
(-0.101665 0.159362 1.24625e-19)
(-0.072705 0.144125 1.69757e-19)
(-0.0272432 0.121752 -2.19557e-19)
(-0.0281885 0.0842383 -6.05558e-20)
(-0.0582702 0.150573 3.47891e-20)
(-0.0790906 0.176297 -2.8458e-19)
(-0.0835238 0.181712 -1.67398e-19)
(-0.0727524 0.177701 -1.38624e-19)
(-0.0449174 0.167152 -8.00604e-20)
(-0.000257738 0.149942 -4.11213e-19)
(0.0608012 0.12533 7.64061e-20)
(-0.0288981 0.0836258 2.29835e-19)
(-0.0542945 0.153421 2.61168e-19)
(-0.06481 0.181713 6.89714e-20)
(-0.0570995 0.187628 2.89237e-19)
(-0.0326371 0.182809 8.42209e-20)
(0.00960545 0.170641 1.93798e-19)
(0.0687748 0.15156 2.26704e-19)
(0.143835 0.125007 2.17277e-19)
(-0.0294816 0.0810442 -1.44454e-19)
(-0.0509059 0.152676 -2.37307e-19)
(-0.0518458 0.182881 4.16123e-19)
(-0.0325972 0.189086 -4.33636e-19)
(0.00482386 0.183378 -3.18597e-19)
(0.0604291 0.169674 -1.44802e-19)
(0.132855 0.148857 -6.5057e-20)
(0.220738 0.120633 -3.69078e-19)
(-0.0299697 0.0768828 1.3583e-19)
(-0.0482288 0.148605 1.05158e-19)
(-0.0405732 0.179844 -4.81836e-19)
(-0.0106454 0.186007 -1.63492e-19)
(0.0388251 0.179324 1.80815e-19)
(0.106814 0.164167 -1.00183e-19)
(0.191683 0.141832 2.72863e-19)
(0.292321 0.112386 2.74595e-19)
(0.408214 0.0757569 -3.69696e-19)
(-0.0304214 0.0715817 -4.35491e-19)
(-0.046312 0.141611 -4.13899e-19)
(-0.031158 0.172824 3.07576e-19)
(0.00851045 0.178483 1.97586e-19)
(0.0692126 0.170722 1.07392e-19)
(0.149106 0.154241 -9.21218e-20)
(0.246758 0.130778 -1.70002e-19)
(0.361869 0.100768 9.01105e-20)
(0.494888 0.064197 1.46456e-20)
(-0.0309156 0.0655948 6.75365e-20)
(-0.0451157 0.13221 4.34519e-19)
(-0.0234905 0.162226 -1.3552e-19)
(0.0251464 0.166827 -1.74845e-20)
(0.0967413 0.157897 -1.38541e-19)
(0.189127 0.140354 -5.4363e-20)
(0.301616 0.116432 5.09368e-20)
(0.434861 0.0868574 1.67494e-19)
(0.5887 0.051874 5.03905e-20)
(-0.0315384 0.0593524 3.79992e-19)
(-0.0444941 0.120999 -1.07411e-19)
(-0.0171305 0.14863 -2.72332e-19)
(0.0401948 0.151612 3.63919e-19)
(0.123293 0.141524 3.29063e-19)
(0.230325 0.123489 2.42698e-19)
(0.361581 0.100188 2.3162e-19)
(0.517323 0.0726408 -8.63381e-20)
(0.693342 0.0411382 1.56177e-19)
(-0.0323643 0.0532274 -1.19656e-19)
(-0.0441788 0.108602 6.45214e-20)
(-0.0112687 0.132775 1.58713e-19)
(0.0553286 0.133684 -4.41556e-19)
(0.151955 0.122688 -7.68125e-20)
(0.277538 0.10515 -3.89105e-19)
(0.432412 0.0840873 1.63394e-19)
(0.613147 0.0605296 -4.04758e-19)
(0.807359 0.0341594 1.58196e-19)
(0.993549 0.00425274 -3.86086e-19)
(-0.0334359 0.0475076 3.68728e-21)
(-0.0437664 0.095626 2.8492e-19)
(-0.00472257 0.115505 -7.35735e-20)
(0.072929 0.114126 -2.49817e-20)
(0.186721 0.102857 8.48912e-20)
(0.335967 0.08731 3.00782e-19)
(0.51811 0.0705104 -1.52094e-19)
(0.721514 0.0526253 -1.37986e-19)
(0.923899 0.0320335 9.00598e-20)
(1.09967 0.00729642 2.1321e-19)
(-0.0347442 0.0423794 -3.17055e-20)
(-0.0427181 0.0826095 -2.84986e-20)
(0.00401577 0.0976997 3.16237e-19)
(0.0958926 0.0941896 1.62343e-19)
(0.231845 0.0837943 -1.48932e-19)
(0.409508 0.0721989 4.24219e-20)
(0.618695 0.0614945 4.98671e-20)
(0.836397 0.0499223 4.5224e-19)
(1.03365 0.0344645 -3.8973e-19)
(1.18808 0.0136458 -5.46509e-19)
(1.29111 -0.0114139 -5.28153e-19)
(-0.0362142 0.0379205 2.72904e-20)
(-0.0403778 0.069982 -3.5908e-19)
(0.0166679 0.0801973 9.28061e-20)
(0.127264 0.0751928 -3.12676e-19)
(0.290839 0.0673673 4.00746e-19)
(0.499111 0.0617508 -2.77354e-19)
(0.729491 0.0580323 1.19114e-20)
(0.948891 0.0520565 -2.73845e-20)
(1.12888 0.0402348 -2.94842e-19)
(1.25603 0.0219284 7.37854e-19)
(1.33165 -0.000858843 3.09745e-19)
(-0.037699 0.0341047 -1.94471e-19)
(-0.0360078 0.0580358 2.47147e-19)
(0.0350076 0.0637303 -2.14336e-19)
(0.16975 0.0584321 -2.33086e-19)
(0.365384 0.0552696 -4.37134e-19)
(0.601897 0.0570485 1.75332e-19)
(0.84264 0.05983 -1.24071e-19)
(1.05081 0.0577783 -3.67977e-19)
(1.20567 0.0479681 3.24656e-19)
(1.30454 0.0310654 -2.6158e-19)
(1.35625 0.00982663 3.58237e-19)
(1.37378 -0.0126403 3.95182e-19)
(-0.0389814 0.0308161 1.01044e-18)
(-0.028838 0.0469208 -2.51249e-19)
(0.0606825 0.0489054 2.1824e-19)
(0.2252 0.0451166 2.6595e-19)
(0.454538 0.048671 4.11531e-19)
(0.711774 0.0580401 -2.21621e-19)
(0.950009 0.0656918 1.3357e-19)
(1.13713 0.0656815 -1.78327e-19)
(1.2638 0.0566059 -3.31728e-19)
(1.33663 0.040389 1.6759e-19)
(1.36899 0.0202479 -3.02649e-19)
(1.3745 -0.000792866 -1.87368e-19)
(-0.0398124 0.0279015 -7.09259e-19)
(-0.0181053 0.0366656 3.00522e-19)
(0.0950843 0.0362153 -3.10844e-20)
(0.294159 0.0362444 -1.51783e-19)
(0.554629 0.047876 -4.57709e-19)
(0.82135 0.0637097 3.2817e-19)
(1.04558 0.0741729 -3.0227e-19)
(1.20621 0.0746635 1.38246e-19)
(1.30527 0.0655035 1.71301e-19)
(1.35591 0.0495662 -6.99669e-19)
(1.37343 0.0302568 1.30519e-19)
(1.37062 0.0103932 2.08454e-20)
(1.35645 -0.00809103 2.63942e-19)
(-0.0399304 0.0251808 -5.14077e-20)
(-0.00307951 0.0271867 -4.5189e-19)
(0.139246 0.0260946 2.46224e-19)
(0.375603 0.032447 1.62107e-19)
(0.660212 0.0523176 -1.31955e-19)
(0.9243 0.0726847 -4.14872e-19)
(1.12647 0.0841076 2.84252e-19)
(1.25901 0.0840408 -7.11779e-20)
(1.33314 0.0743235 5.62101e-20)
(1.3658 0.0584478 4.33707e-19)
(1.37237 0.0398066 -2.24282e-19)
(1.36405 0.0209388 -1.99249e-19)
(1.34788 0.00346391 -1.78714e-19)
(-0.0390582 0.0224612 -2.18103e-20)
(0.0169221 0.0183785 2.64678e-19)
(0.193687 0.0190424 -4.61066e-19)
(0.46686 0.0338575 9.12966e-20)
(0.765396 0.060909 3.16977e-19)
(1.01639 0.0837464 6.12277e-20)
(1.19214 0.094729 9.58689e-20)
(1.29759 0.0934447 1.76233e-19)
(1.35039 0.0829289 -1.93105e-19)
(1.36903 0.0670154 -1.42253e-19)
(1.36781 0.0489405 2.62146e-19)
(1.356 0.030927 4.68788e-19)
(1.33888 0.0143081 4.81868e-20)
(1.31925 -0.000229137 -1.69982e-19)
(-0.0369146 0.0195693 5.30071e-20)
(0.0425452 0.0102096 4.9733e-19)
(0.258262 0.0156165 -1.50354e-19)
(0.564038 0.0400431 4.10112e-19)
(0.865229 0.0724623 -3.36416e-19)
(1.09562 0.095999 3.9894e-19)
(1.2436 0.105572 -3.26493e-19)
(1.32444 0.102694 2.11038e-19)
(1.3597 0.0912881 -1.32885e-19)
(1.36776 0.0753038 1.56873e-20)
(1.36117 0.0577205 -1.55278e-19)
(1.34725 0.0404353 -2.61957e-19)
(1.32982 0.0245306 -1.23163e-19)
(1.31077 0.0105604 8.31889e-20)
(1.29108 -0.00119583 2.60363e-20)
(-0.0332173 0.0163739 -4.79688e-19)
(0.074395 0.00282689 -4.48499e-19)
(0.332006 0.0162921 3.44946e-19)
(0.662808 0.0501812 -2.03019e-20)
(0.956349 0.085987 4.78758e-19)
(1.16163 0.108856 -2.89848e-19)
(1.28255 0.116382 1.27026e-19)
(1.34199 0.111731 -1.63495e-19)
(1.36326 0.0994329 3.04956e-19)
(1.36354 0.0833755 -1.16981e-19)
(1.35335 0.0662167 1.12523e-19)
(1.33824 0.0495406 -7.64169e-21)
(1.32086 0.0342167 8.46807e-20)
(1.30247 0.0206909 -1.09433e-20)
(1.28371 0.00917061 1.17196e-19)
(1.26503 -0.000366917 2.4275e-20)
(-0.0276728 0.012801 6.89082e-19)
(0.112983 -0.00335874 -4.35092e-19)
(0.413107 0.0212609 1.0993e-19)
(0.759214 0.0633597 -4.29822e-19)
(1.03696 0.100769 -3.01259e-19)
(1.21514 0.121952 3.29392e-20)
(1.31097 0.127034 5.90762e-20)
(1.35237 0.120561 -1.62721e-19)
(1.36275 0.10742 2.961e-20)
(1.35746 0.091294 2.27239e-19)
(1.34493 0.0744896 -1.63385e-19)
(1.3292 0.0583054 -9.32944e-20)
(1.31207 0.0434362 -4.93804e-20)
(1.29433 0.0302395 -4.23616e-20)
(1.27644 0.0188821 -5.1091e-20)
(1.2587 0.00936094 9.66051e-20)
(1.24141 0.00179898 -4.48323e-20)
(-0.0199611 0.00884582 -1.6382e-19)
(0.158609 -0.00765906 4.04023e-19)
(0.499077 0.0303323 2.392e-19)
(0.850204 0.078794 -2.68964e-19)
(1.10645 0.116323 3.30489e-19)
(1.25738 0.135068 -1.93687e-21)
(1.33077 0.137488 2.94151e-19)
(1.35734 0.129231 1.90952e-19)
(1.35946 0.115315 1.6635e-19)
(1.35024 0.0991158 -1.57916e-19)
(1.33622 0.0825888 1.08377e-19)
(1.32024 0.0667818 1.11894e-19)
(1.30344 0.0522489 1.8005e-19)
(1.28634 0.0392793 -9.19813e-20)
(1.26923 0.0280057 -1.63367e-22)
(1.25236 0.018452 -8.07578e-20)
(1.23594 0.0106334 4.08188e-21)
(1.2202 0.00402099 -3.08602e-20)
(-0.00972615 0.00458704 -1.4934e-19)
(0.211216 -0.00921517 -1.63252e-19)
(0.587114 0.0430238 -7.95623e-21)
(0.933762 0.095892 2.55011e-19)
(1.16504 0.13232 -2.47223e-19)
(1.28979 0.148085 -2.66997e-19)
(1.34365 0.147752 1.00356e-19)
(1.35832 0.137798 -1.18545e-19)
(1.35426 0.123173 -7.55326e-20)
(1.34234 0.106884 2.88688e-20)
(1.32741 0.0905508 -2.4353e-19)
(1.31138 0.0750103 2.19403e-19)
(1.29497 0.0607047 -2.03848e-20)
(1.27846 0.0478684 -4.50292e-20)
(1.26207 0.0366136 3.9364e-20)
(1.24599 0.0269611 -5.67495e-20)
(1.23038 0.0188957 -4.74714e-20)
(1.21542 0.0120729 -2.08022e-21)
(1.20117 0.00748999 -3.25499e-20)
(1.18803 0.000977378 5.84268e-20)
(0.00341584 0.000204223 1.71892e-19)
(0.270274 -0.00720917 2.96382e-19)
(0.674491 0.0587514 -3.96899e-19)
(1.00878 0.114229 -1.45835e-19)
(1.21338 0.148541 -6.55756e-20)
(1.31384 0.160944 3.73596e-19)
(1.3511 0.157863 -9.94644e-20)
(1.35637 0.14632 -6.01913e-20)
(1.3478 0.131039 -8.33346e-20)
(1.33404 0.114628 9.95374e-20)
(1.31858 0.098401 3.6754e-20)
(1.30264 0.0830222 -4.13416e-20)
(1.28661 0.068845 -1.07048e-19)
(1.27066 0.0560603 1.05285e-20)
(1.25493 0.0447604 -4.22969e-20)
(1.23957 0.0349658 7.39029e-20)
(1.2247 0.0266312 1.73929e-20)
(1.21048 0.0195662 1.67595e-20)
(1.19693 0.014386 2.1494e-20)
(1.18441 0.00781584 -6.25992e-20)
(0.0198353 -0.00400324 -3.23277e-19)
(0.334762 -0.00108486 -1.86233e-20)
(0.758854 0.0769766 -6.05781e-20)
(1.07485 0.133503 1.72363e-19)
(1.25242 0.164839 -5.88679e-20)
(1.33089 0.17363 -1.63679e-19)
(1.35431 0.167869 -2.27485e-19)
(1.35232 0.154849 1.5843e-19)
(1.34049 0.138945 -1.82795e-19)
(1.3255 0.122364 8.95178e-20)
(1.30976 0.106155 5.20289e-20)
(1.29397 0.0908407 -2.5721e-20)
(1.27833 0.0767036 6.03827e-20)
(1.2629 0.0638978 6.52563e-20)
(1.24779 0.0524996 -1.35546e-19)
(1.23309 0.0425185 9.68197e-20)
(1.21892 0.0339071 7.03639e-21)
(1.20536 0.0265617 1.50338e-20)
(1.19248 0.0208022 7.10964e-20)
(1.18053 0.014152 1.67771e-20)
(0.0398283 -0.00761321 9.62158e-20)
(0.403272 0.00933536 -3.84577e-19)
(0.838377 0.0972524 3.58888e-19)
(1.132 0.153483 1.61155e-19)
(1.28316 0.181121 -1.19048e-19)
(1.34217 0.186154 -1.94305e-19)
(1.35424 0.177819 7.0741e-21)
(1.34672 0.163423 -3.73708e-20)
(1.33257 0.146907 3.13561e-19)
(1.3168 0.130099 -1.41074e-19)
(1.30094 0.113821 -1.5949e-20)
(1.28535 0.0984824 3.54962e-20)
(1.27008 0.0843073 -2.16985e-20)
(1.25516 0.071418 -4.29149e-20)
(1.24063 0.0598736 1.16287e-19)
(1.22655 0.0496742 -9.26568e-20)
(1.21301 0.0407717 1.00011e-20)
(1.20009 0.0331148 -4.87436e-20)
(1.18782 0.0268123 -4.87986e-20)
(1.1764 0.020029 -1.49032e-20)
(0.0635593 -0.0101071 -6.87694e-20)
(0.474171 0.0238862 1.60812e-19)
(0.911789 0.119211 -1.45216e-19)
(1.18056 0.173981 -1.48685e-19)
(1.30664 0.197326 2.43898e-19)
(1.34871 0.198541 2.56507e-19)
(1.35165 0.187755 1.22916e-19)
(1.33998 0.172062 -2.07976e-21)
(1.32422 0.154927 -3.0724e-19)
(1.30796 0.137828 2.57823e-20)
(1.2921 0.1214 9.72443e-21)
(1.27674 0.105957 6.27336e-20)
(1.26185 0.0916764 9.92747e-20)
(1.2474 0.0786498 -5.72333e-21)
(1.23341 0.06692 -2.1551e-20)
(1.21992 0.0564752 8.26053e-20)
(1.20698 0.0472723 -5.25503e-20)
(1.19465 0.0392818 6.11814e-20)
(1.18295 0.0324575 -5.29027e-21)
(1.17205 0.0255147 5.80301e-20)
(0.0910175 -0.0109266 1.20381e-19)
(0.545778 0.0421929 6.28553e-20)
(0.978321 0.142546 -1.41901e-19)
(1.22102 0.194829 -1.73775e-19)
(1.32382 0.213418 -1.25329e-20)
(1.35139 0.210818 -2.82743e-20)
(1.34709 0.197706 1.36538e-19)
(1.33237 0.180777 9.43921e-20)
(1.31553 0.162998 1.00432e-19)
(1.29899 0.145543 -3.55459e-20)
(1.28319 0.128887 4.61301e-20)
(1.2681 0.11327 -4.17267e-20)
(1.25359 0.0988249 -8.24056e-20)
(1.2396 0.0856158 1.00031e-20)
(1.22613 0.0736682 2.01971e-20)
(1.2132 0.0629588 2.29087e-20)
(1.20083 0.0534479 2.95323e-20)
(1.18905 0.0451077 -1.7189e-20)
(1.17791 0.0377936 3.19936e-20)
(1.16749 0.030669 -6.96455e-20)
(0.122001 -0.0095517 1.58223e-19)
(0.616499 0.0638066 -1.42747e-20)
(1.03761 0.166998 1.99063e-19)
(1.25398 0.215876 1.2007e-19)
(1.33557 0.229375 5.289e-20)
(1.35092 0.223012 -1.29133e-19)
(1.34098 0.207689 -1.21499e-19)
(1.32406 0.189561 -3.33004e-20)
(1.30651 0.171104 -8.79672e-21)
(1.28986 0.153225 -8.57618e-21)
(1.2742 0.136273 -1.11473e-19)
(1.25939 0.12042 2.37202e-20)
(1.24526 0.105761 4.16296e-20)
(1.23174 0.0923317 1.3506e-21)
(1.21877 0.0801409 4.73796e-21)
(1.20637 0.0691535 -1.23063e-20)
(1.19454 0.0593311 -2.77855e-20)
(1.1833 0.0506351 -2.20264e-20)
(1.17268 0.0428604 -4.40609e-20)
(1.16273 0.0355441 6.29223e-21)
(0.156126 -0.00557533 -9.71943e-20)
(0.684912 0.0882837 6.00771e-20)
(1.08958 0.192347 -2.47007e-20)
(1.28005 0.236985 5.83281e-21)
(1.34266 0.24518 -2.18347e-19)
(1.34787 0.235142 5.37589e-20)
(1.33361 0.217706 3.41943e-20)
(1.31517 0.198397 -2.31066e-20)
(1.2972 0.179219 8.24464e-20)
(1.28055 0.160855 -1.16268e-21)
(1.26509 0.143544 3.48855e-20)
(1.25059 0.127402 3.9779e-20)
(1.23686 0.112487 -2.66546e-20)
(1.22379 0.0988069 -3.04582e-20)
(1.21132 0.086354 -1.59858e-20)
(1.19943 0.075081 -1.64699e-20)
(1.18812 0.0649474 1.43172e-20)
(1.1774 0.0558958 1.57538e-20)
(1.16728 0.0476969 2.40614e-20)
(1.15778 0.0401888 2.6658e-20)
(0.192863 0.00125079 -4.50896e-20)
(0.74981 0.115208 -9.04284e-21)
(1.13438 0.218396 -7.98815e-20)
(1.29988 0.258039 7.326e-20)
(1.34574 0.260818 1.56524e-19)
(1.34268 0.247215 8.46776e-20)
(1.3252 0.227748 -3.78942e-20)
(1.30574 0.207259 -2.16164e-20)
(1.28758 0.187313 -4.85782e-20)
(1.27103 0.168405 4.62451e-20)
(1.25583 0.150681 -1.71318e-21)
(1.24167 0.134205 -2.1862e-20)
(1.22835 0.118999 -2.50708e-20)
(1.21574 0.105045 -2.32926e-20)
(1.20376 0.0923164 4.70855e-20)
(1.19237 0.080755 -1.56474e-20)
(1.18157 0.0703144 -1.62352e-20)
(1.17135 0.0609154 -2.67622e-21)
(1.16172 0.0523303 -2.59184e-21)
(1.15265 0.0446354 -1.48616e-20)
(0.231576 0.0110102 -4.42505e-21)
(0.810229 0.144181 -5.97203e-20)
(1.17225 0.244961 2.71036e-20)
(1.31406 0.278938 -9.60064e-20)
(1.34539 0.276268 -6.64866e-20)
(1.3357 0.259227 9.74395e-21)
(1.31589 0.23779 -1.0551e-21)
(1.29582 0.216111 4.27034e-21)
(1.27763 0.19535 1.31798e-20)
(1.26129 0.175847 2.28781e-20)
(1.24639 0.157663 -3.08008e-20)
(1.23261 0.140815 1.2624e-20)
(1.21972 0.125291 2.15646e-20)
(1.20757 0.111043 -4.67204e-21)
(1.19608 0.0980309 -1.97991e-20)
(1.18519 0.0861824 1.07951e-20)
(1.17489 0.0754424 1.18506e-20)
(1.16515 0.0657097 1.16344e-20)
(1.15599 0.0567796 -5.63974e-21)
(1.14734 0.0489082 1.95594e-21)
(0.271557 0.0236518 4.98456e-20)
(0.86545 0.17482 -6.91525e-20)
(1.20351 0.271862 -9.322e-21)
(1.32319 0.299598 3.91782e-20)
(1.34205 0.291509 6.26638e-20)
(1.32718 0.271158 -1.90363e-20)
(1.30576 0.247799 -5.38289e-20)
(1.2854 0.22491 5.2766e-20)
(1.26735 0.203291 -1.4028e-20)
(1.25128 0.183147 -1.58908e-20)
(1.23675 0.164465 1.41947e-20)
(1.22339 0.147214 -6.87105e-21)
(1.21095 0.131349 -1.9899e-21)
(1.19929 0.116795 5.04729e-21)
(1.18828 0.103495 7.07707e-21)
(1.17789 0.0913638 8.80866e-21)
(1.16807 0.0803347 -1.51537e-20)
(1.15881 0.0702867 -3.6008e-21)
(1.15012 0.0610512 -8.44449e-22)
(1.14187 0.0530133 4.08843e-21)
(0.312039 0.0390348 -2.73336e-20)
(0.914989 0.206753 4.80301e-20)
(1.2285 0.298919 -5.88806e-21)
(1.32778 0.319944 -1.25917e-20)
(1.33614 0.306509 -4.07628e-20)
(1.31731 0.282978 1.89255e-20)
(1.29489 0.257731 1.23124e-20)
(1.27449 0.23361 -1.34596e-20)
(1.25671 0.211093 -2.15568e-21)
(1.24101 0.190271 6.23411e-21)
(1.22689 0.171058 -6.5722e-21)
(1.21399 0.15338 3.25738e-21)
(1.20204 0.137158 -6.86528e-21)
(1.19086 0.122288 3.84855e-21)
(1.18036 0.1087 7.7313e-22)
(1.17046 0.0962944 -3.27455e-21)
(1.16113 0.0849884 1.8346e-21)
(1.15235 0.0746449 -2.69605e-21)
(1.1441 0.0651406 8.46244e-22)
(1.13624 0.0569482 2.8941e-21)
(0.352186 0.056961 -1.95445e-20)
(0.958555 0.239629 4.18475e-20)
(1.24756 0.325948 -4.32494e-21)
(1.3283 0.339902 -1.61196e-20)
(1.32795 0.321234 -3.74131e-20)
(1.30623 0.294646 1.86333e-20)
(1.28329 0.267535 1.19899e-20)
(1.26309 0.24216 -1.06218e-20)
(1.24569 0.218712 -1.35374e-22)
(1.23044 0.197182 4.83242e-21)
(1.2168 0.177413 -4.21944e-21)
(1.2044 0.15929 -1.12971e-21)
(1.19296 0.142699 -2.40278e-21)
(1.1823 0.127509 1.36772e-21)
(1.17231 0.113634 8.64655e-22)
(1.16291 0.100964 -3.30775e-21)
(1.15406 0.0893936 3.53223e-21)
(1.14576 0.0787733 -3.29869e-21)
(1.13797 0.0690375 -7.62012e-22)
(1.13045 0.0606987 1.9023e-21)
(0.391193 0.077166 5.65663e-20)
(0.99591 0.27307 -5.64165e-20)
(1.26095 0.352745 -3.99506e-20)
(1.32513 0.3594 5.14773e-20)
(1.31773 0.335647 5.81008e-20)
(1.29403 0.306118 -2.34689e-20)
(1.27099 0.277164 -3.84783e-20)
(1.25118 0.250513 4.15675e-20)
(1.23428 0.226107 -1.14499e-20)
(1.21956 0.203847 -1.31148e-20)
(1.20646 0.183504 1.00418e-20)
(1.19461 0.164921 -1.90471e-21)
(1.18372 0.147954 -4.48706e-21)
(1.1736 0.132442 1.39132e-21)
(1.16414 0.118285 6.45743e-21)
(1.15525 0.10536 7.26646e-21)
(1.14688 0.093537 -8.74495e-21)
(1.13906 0.082654 -2.2092e-21)
(1.13172 0.0727334 -1.39047e-21)
(1.12451 0.0642526 2.73406e-21)
(0.428539 0.0994343 2.51232e-20)
(1.02725 0.306837 -8.91319e-20)
(1.26915 0.379173 2.46872e-20)
(1.31866 0.378368 -6.37453e-20)
(1.30569 0.349685 -7.36814e-20)
(1.28079 0.317319 1.18441e-20)
(1.258 0.286538 4.6011e-21)
(1.23874 0.258601 -4.56364e-21)
(1.22246 0.233218 1.52284e-20)
(1.20837 0.210216 -5.19915e-22)
(1.19587 0.18929 -9.43519e-21)
(1.18462 0.170237 1.97238e-21)
(1.17432 0.152894 1.77625e-20)
(1.16477 0.137063 -1.41196e-21)
(1.15584 0.122629 -5.67138e-21)
(1.14747 0.109461 -3.18399e-21)
(1.1396 0.0973992 1.31591e-20)
(1.13226 0.0862673 5.3809e-21)
(1.12533 0.0762106 -2.94416e-21)
(1.11846 0.0675941 -3.36328e-21)
(0.463609 0.123531 -5.57937e-20)
(1.05261 0.340653 -1.04199e-20)
(1.27248 0.40505 -7.66914e-20)
(1.30919 0.396722 8.52922e-20)
(1.292 0.363285 1.05219e-19)
(1.26656 0.328184 4.05791e-20)
(1.24432 0.295598 -7.35605e-21)
(1.22578 0.266369 8.22513e-21)
(1.21023 0.240001 -4.14823e-20)
(1.19684 0.216251 2.90942e-20)
(1.18503 0.194741 -8.70942e-21)
(1.17443 0.175212 -6.47301e-21)
(1.16476 0.157495 -1.70793e-20)
(1.1558 0.141355 -5.07444e-21)
(1.14744 0.126653 7.45932e-21)
(1.13959 0.113251 -4.54878e-21)
(1.13224 0.100961 -5.76679e-21)
(1.12538 0.0896125 1.57543e-21)
(1.11884 0.0794372 -8.8096e-22)
(1.11231 0.0706808 -7.42218e-21)
(0.495853 0.149194 -8.22665e-20)
(1.07212 0.37425 1.57414e-20)
(1.27126 0.430211 3.71256e-20)
(1.29701 0.414379 -4.03001e-20)
(1.27679 0.376374 -1.44339e-19)
(1.25138 0.338637 1.20745e-20)
(1.22995 0.304271 5.11046e-20)
(1.21228 0.273755 -1.87567e-20)
(1.1976 0.246404 3.96542e-20)
(1.18498 0.221899 -1.03359e-20)
(1.17396 0.199815 2.53582e-20)
(1.16405 0.179822 3.37534e-21)
(1.15504 0.161732 4.41429e-22)
(1.1467 0.145294 -1.36366e-20)
(1.13893 0.130338 -6.20588e-21)
(1.13162 0.116712 -2.70682e-21)
(1.12479 0.104205 2.47801e-21)
(1.11841 0.0926655 3.78572e-21)
(1.11225 0.0823947 6.33102e-21)
(1.10608 0.0734931 1.00991e-20)
(0.524809 0.176134 1.04927e-19)
(1.08595 0.407366 3.84398e-20)
(1.26581 0.454492 1.25722e-19)
(1.28233 0.431248 6.07833e-20)
(1.26016 0.388875 4.73639e-20)
(1.23527 0.348599 -6.11007e-20)
(1.21489 0.312485 -5.42925e-20)
(1.19827 0.280694 -1.80687e-20)
(1.18457 0.252381 -9.90628e-21)
(1.17284 0.227125 -2.096e-20)
(1.16264 0.204469 -3.15703e-20)
(1.15348 0.184044 -4.8093e-22)
(1.14517 0.165588 1.39106e-20)
(1.13749 0.14886 2.54927e-20)
(1.13032 0.133664 -2.41067e-20)
(1.12358 0.119827 5.30531e-21)
(1.11727 0.107118 -5.90554e-21)
(1.11137 0.0954142 -2.3286e-21)
(1.1056 0.0850603 -1.15193e-20)
(1.09978 0.0760101 -2.53076e-21)
(0.550103 0.204036 2.30304e-19)
(1.09428 0.439745 -2.12794e-20)
(1.25642 0.477732 -9.86101e-20)
(1.26537 0.447234 -1.34098e-19)
(1.24219 0.400697 -2.89329e-20)
(1.21827 0.357986 -7.34122e-23)
(1.19918 0.320161 7.32039e-20)
(1.18379 0.287125 5.81746e-20)
(1.17116 0.257868 3.82036e-20)
(1.16039 0.231901 -1.53125e-20)
(1.15106 0.208684 1.12494e-20)
(1.14272 0.187833 -1.01798e-20)
(1.13515 0.169035 -1.803e-20)
(1.12816 0.152032 6.33741e-21)
(1.12162 0.136613 -1.93529e-21)
(1.11546 0.12258 5.24913e-21)
(1.10969 0.109685 6.81342e-21)
(1.10428 0.097841 -1.15404e-21)
(1.09891 0.0874211 7.14389e-21)
(1.09344 0.0782218 -4.17153e-21)
(0.571451 0.232561 -1.45125e-19)
(1.09732 0.47113 1.70163e-19)
(1.24338 0.499771 -7.44122e-20)
(1.2463 0.462239 -3.52258e-20)
(1.22295 0.411745 1.09448e-19)
(1.20044 0.36671 1.05258e-19)
(1.18288 0.327227 3.52843e-20)
(1.16882 0.292988 -2.6524e-20)
(1.15735 0.26283 -5.58495e-20)
(1.14764 0.236172 -1.05407e-21)
(1.13926 0.212424 6.14956e-21)
(1.13178 0.19117 1.33276e-20)
(1.125 0.172051 1.16916e-20)
(1.11873 0.154793 -3.54118e-21)
(1.11285 0.139169 7.12517e-21)
(1.10729 0.124958 1.82432e-21)
(1.10208 0.111899 -2.75767e-21)
(1.09715 0.0999371 3.90712e-21)
(1.09217 0.0894646 2.52962e-21)
(1.08708 0.0801221 1.88682e-21)
(0.588651 0.26135 2.3348e-20)
(1.0953 0.501262 -3.03131e-19)
(1.22694 0.520451 1.86133e-19)
(1.22527 0.476157 1.13133e-19)
(1.20257 0.421922 -1.11327e-20)
(1.18185 0.374675 -9.0572e-20)
(1.16597 0.333622 -7.35896e-21)
(1.15335 0.298228 -1.8854e-20)
(1.14318 0.267209 5.85449e-20)
(1.13461 0.239902 -4.74852e-21)
(1.12724 0.215658 -9.97834e-21)
(1.12069 0.194026 2.94429e-21)
(1.11474 0.174613 -2.9491e-21)
(1.10922 0.157127 -1.7118e-21)
(1.10402 0.141319 6.99141e-21)
(1.09909 0.12695 -8.98136e-21)
(1.09444 0.11375 1.67845e-21)
(1.09001 0.101694 -1.47848e-21)
(1.08543 0.0911854 2.85837e-23)
(1.08072 0.0817115 2.38328e-22)
(0.601586 0.290037 -2.9149e-19)
(1.08846 0.529889 2.90906e-20)
(1.20734 0.539606 -6.30234e-20)
(1.20246 0.488873 8.15844e-20)
(1.18117 0.431137 -1.55024e-20)
(1.16248 0.381797 -6.41578e-20)
(1.14845 0.33927 -6.34049e-20)
(1.13744 0.302786 1.3116e-20)
(1.12866 0.270961 -1.25566e-20)
(1.12132 0.243052 1.10231e-20)
(1.11504 0.218353 1.39347e-20)
(1.10946 0.196379 -9.15911e-21)
(1.10438 0.176704 -1.15765e-21)
(1.09964 0.159017 5.09793e-21)
(1.09516 0.143052 -5.3843e-21)
(1.09086 0.128551 1.34476e-21)
(1.0868 0.115235 1.17247e-23)
(1.08286 0.10311 -2.43633e-21)
(1.0787 0.0925807 -1.84041e-21)
(1.07439 0.0829943 -5.89931e-21)
(0.610216 0.318253 1.3232e-19)
(1.07706 0.55677 2.74672e-19)
(1.18478 0.557058 -2.6885e-19)
(1.1781 0.50028 1.55889e-20)
(1.15878 0.439288 -6.33861e-20)
(1.14236 0.387998 1.27395e-19)
(1.13039 0.344097 -3.7741e-20)
(1.1211 0.306606 -2.36423e-21)
(1.11383 0.27404 -1.08862e-20)
(1.1078 0.245586 1.26789e-20)
(1.10267 0.22048 -2.7366e-21)
(1.0981 0.198205 -4.19919e-21)
(1.09394 0.178306 1.01473e-21)
(1.09002 0.160452 -2.64835e-21)
(1.08626 0.144359 2.60247e-21)
(1.08264 0.129753 -6.18851e-21)
(1.07916 0.116352 3.21565e-22)
(1.07573 0.104183 -2.08699e-21)
(1.07199 0.0936519 -2.84865e-21)
(1.06811 0.0839785 6.32058e-21)
(0.614575 0.345629 -1.03187e-19)
(1.06143 0.581696 -9.74413e-20)
(1.15951 0.572629 4.30011e-20)
(1.15231 0.510242 9.99038e-21)
(1.13542 0.446284 -9.31839e-21)
(1.12156 0.393192 -8.55383e-20)
(1.11182 0.348035 2.88898e-20)
(1.10439 0.309634 -2.41008e-20)
(1.09872 0.276403 1.38928e-21)
(1.09407 0.247469 -4.94823e-21)
(1.09015 0.222013 1.59371e-21)
(1.08665 0.199485 -2.88289e-21)
(1.08344 0.179403 3.7531e-21)
(1.08036 0.161419 2.33496e-21)
(1.07737 0.145232 -1.42177e-21)
(1.07442 0.130554 -2.06047e-21)
(1.07156 0.117101 3.71405e-21)
(1.06864 0.104915 5.01947e-21)
(1.06533 0.0944022 8.51548e-21)
(1.06191 0.0846747 4.4459e-21)
(0.614768 0.371797 -2.40893e-19)
(1.04186 0.604458 3.45746e-19)
(1.13179 0.586192 1.12374e-19)
(1.12514 0.518596 -7.94506e-20)
(1.11122 0.452031 6.1012e-20)
(1.10015 0.397304 1.85831e-20)
(1.09279 0.351019 2.05103e-20)
(1.08735 0.311817 8.77979e-22)
(1.08337 0.278011 6.3939e-21)
(1.08017 0.248671 -2.41428e-21)
(1.07752 0.222927 -1.74886e-21)
(1.07514 0.200199 -5.21585e-21)
(1.0729 0.179982 -2.11646e-20)
(1.0707 0.161908 8.96738e-21)
(1.06849 0.145665 4.32854e-21)
(1.06625 0.130952 7.8237e-21)
(1.064 0.117482 -1.04662e-20)
(1.06161 0.105308 6.27115e-22)
(1.05875 0.0948352 9.02586e-21)
(1.05579 0.0850954 2.78348e-20)
(0.610968 0.396407 5.41639e-19)
(1.01852 0.624765 -2.73576e-19)
(1.10193 0.597668 3.38287e-20)
(1.09677 0.525223 -1.0337e-19)
(1.08626 0.45642 -3.50325e-20)
(1.07819 0.400259 5.52622e-23)
(1.07337 0.352991 -5.60847e-21)
(1.07001 0.31311 -5.01514e-21)
(1.06782 0.278826 -7.17811e-22)
(1.06614 0.249161 -2.61696e-20)
(1.06481 0.223199 1.60365e-20)
(1.06357 0.200331 2.33869e-21)
(1.06236 0.18003 9.66071e-21)
(1.06106 0.161913 -1.50911e-20)
(1.05965 0.145653 1.86126e-20)
(1.05812 0.130944 6.77048e-21)
(1.0565 0.117496 -9.96326e-21)
(1.05465 0.105361 -1.74749e-21)
(1.05225 0.09495 -3.26604e-20)
(1.0498 0.0852515 -1.59757e-20)
(0.603396 0.419202 -2.61938e-19)
(0.991511 0.642244 -2.78613e-19)
(1.07027 0.606962 8.97794e-20)
(1.06738 0.530061 4.79511e-20)
(1.06063 0.459359 5.3056e-20)
(1.05577 0.401988 -6.1491e-21)
(1.05362 0.353898 -1.23369e-20)
(1.05245 0.313468 2.08783e-20)
(1.05211 0.278815 -4.01926e-20)
(1.05201 0.248915 9.75985e-21)
(1.05205 0.22281 -1.51635e-20)
(1.052 0.199867 5.82885e-21)
(1.05183 0.179539 -3.28371e-20)
(1.05145 0.161427 1.3267e-20)
(1.05086 0.145193 -2.79447e-20)
(1.05007 0.130531 1.23669e-20)
(1.04909 0.117145 5.97097e-21)
(1.04777 0.105071 1.79859e-20)
(1.04586 0.0947357 2.84121e-20)
(1.04392 0.0851442 -4.11473e-21)
(0.592267 0.440009 8.89526e-20)
(0.961121 0.656643 2.77739e-19)
(1.03707 0.613869 -6.9203e-20)
(1.03711 0.533062 6.94213e-20)
(1.03446 0.460768 -1.93364e-20)
(1.03297 0.402426 -1.19241e-20)
(1.0336 0.353689 3.02817e-20)
(1.03471 0.312853 -2.58966e-20)
(1.0363 0.277948 7.69403e-22)
(1.03783 0.24791 7.44563e-21)
(1.03928 0.221743 1.01243e-22)
(1.04045 0.198795 5.85988e-20)
(1.04134 0.178498 2.96478e-20)
(1.04191 0.160443 -1.52503e-20)
(1.04216 0.144283 1.75441e-20)
(1.04211 0.129714 -1.24856e-20)
(1.04177 0.116433 -4.22421e-22)
(1.041 0.10444 -6.73794e-20)
(1.03959 0.0941766 -3.01623e-20)
(1.03819 0.0847572 -2.43927e-20)
(0.577694 0.458561 1.95798e-20)
(0.927963 0.667944 8.57396e-20)
(1.00252 0.618179 -6.79408e-20)
(1.00612 0.534142 -7.93286e-21)
(1.00785 0.460579 -1.8822e-20)
(1.00987 0.401515 -1.39964e-20)
(1.0134 0.352323 -2.21757e-20)
(1.01687 0.311233 -1.48951e-20)
(1.02044 0.2762 -1.54531e-20)
(1.02365 0.246127 3.05582e-20)
(1.02653 0.219985 -2.92309e-20)
(1.02895 0.197104 -9.16437e-20)
(1.03093 0.176902 -2.18509e-20)
(1.03246 0.158958 -1.06155e-20)
(1.03356 0.14292 3.27081e-20)
(1.03427 0.128493 -5.6582e-21)
(1.03457 0.115367 6.80909e-21)
(1.03436 0.103479 -1.23314e-20)
(1.03348 0.0932758 4.54353e-20)
(1.03265 0.0840854 -2.91357e-20)
(0.559747 0.4744 4.4891e-20)
(0.892569 0.676096 -1.68698e-19)
(0.966853 0.619802 2.69092e-20)
(0.974585 0.53322 -1.55939e-20)
(0.98091 0.458733 6.85642e-21)
(0.986572 0.399205 7.45673e-20)
(0.993088 0.349761 -6.59684e-20)
(0.99898 0.308579 -1.74895e-20)
(1.00459 0.273551 3.98976e-21)
(1.0095 0.24355 -1.13155e-19)
(1.01385 0.217523 1.99031e-20)
(1.01753 0.194788 7.3074e-20)
(1.02062 0.174745 7.24028e-20)
(1.02312 0.156968 1.81052e-20)
(1.0251 0.141102 -2.72139e-20)
(1.02655 0.126864 -1.08037e-20)
(1.0275 0.113942 3.248e-20)
(1.02788 0.102194 3.75161e-21)
(1.02766 0.0920645 5.07172e-21)
(1.02747 0.0832225 4.92186e-20)
(0.53877 0.487185 -2.17227e-19)
(0.855292 0.680935 7.46663e-20)
(0.930307 0.618698 5.43867e-21)
(0.942664 0.53022 -2.21274e-21)
(0.953779 0.455179 5.75243e-20)
(0.96318 0.395457 -3.52441e-20)
(0.972752 0.345974 4.7159e-20)
(0.981117 0.304869 -3.36468e-20)
(0.988796 0.269982 -5.48793e-20)
(0.995447 0.240168 1.75174e-19)
(1.00129 0.214351 4.44042e-21)
(1.00625 0.191839 -1.02636e-20)
(1.01045 0.172025 -3.23388e-20)
(1.01394 0.154472 -2.78559e-21)
(1.01678 0.138827 -2.33216e-21)
(1.01898 0.124819 2.07206e-20)
(1.02056 0.112138 -1.77654e-20)
(1.02162 0.100551 -1.62317e-20)
(1.02227 0.0905048 3.46121e-21)
(1.02289 0.0822823 -4.33569e-20)