/*--------------------------------*- C++ -*----------------------------------*\
  =========                 |
  \\      /  F ield         | OpenFOAM: The Open Source CFD Toolbox
   \\    /   O peration     | Website:  https://openfoam.org
    \\  /    A nd           | Version:  7
     \\/     M anipulation  |
\*---------------------------------------------------------------------------*/
FoamFile
{
    version     2.0;
    format      ascii;
    class       surfaceScalarField;
    location    "5";
    object      phi;
}
// * * * * * * * * * * * * * * * * * * * * * * * * * * * * * * * * * * * * * //

dimensions      [0 3 -1 0 0 0 0];

internalField   nonuniform List<scalar> 
1256
(
0.0164905
0.00610324
0.0155267
0.00587153
0.00481602
0.0127759
0.0145447
0.00579796
0.00469573
0.0118026
0.0135432
0.00569722
0.00454529
0.0108298
0.0125262
0.00556231
0.0043669
0.00986693
0.0115021
0.00539099
0.00321956
0.00732248
0.00416371
0.00892277
0.0104809
0.00518498
0.00302228
0.00654071
0.00393938
0.00800567
0.00947275
0.00494749
0.00281554
0.00579613
0.00369814
0.00712307
0.0084878
0.00468309
0.00260303
0.0050926
0.00344473
0.00628138
0.00753504
0.00439748
0.00238863
0.00443294
0.00318437
0.00548564
0.0066222
0.00409722
0.00217636
0.0038188
0.00292262
0.00473938
0.00575527
0.00378954
0.00140209
0.00251614
0.00197033
0.00325056
0.00266524
0.00404446
0.00493837
0.00348215
0.00125138
0.0021022
0.00177459
0.00272735
0.00241806
0.003401
0.00417345
0.00318297
0.00111276
0.00172533
0.00159312
0.00224699
0.00218679
0.00280733
0.00346031
0.00289993
0.000988727
0.00138212
0.00142965
0.00180607
0.00197692
0.00226006
0.00279655
0.00264068
0.000881565
0.00106833
0.00128763
0.0014
0.00179348
0.00175421
0.00217765
0.00241237
0.000793275
0.000779002
0.0011701
0.00102318
0.00164095
0.00128335
0.00159722
0.00222138
0.000725528
0.000508578
0.0010796
0.000669108
0.00152309
0.000839858
0.0010472
0.00207312
0.000679621
0.00101813
0.00144284
0.000415148
0.000518222
0.00197182
0.00140219
0.00192042
-0.00607185
0.00548781
0.00514645
-0.00600395
-0.0060938
0.00516841
0.00483204
-0.00589689
0.00484917
-0.00602109
-0.00610474
0.00486011
0.00455967
0.00456295
0.00456144
0.00564856
0.000732
0.00559031
0.000889013
0.00553502
0.00103778
0.00548257
0.00118098
0.00543267
0.00132032
0.00538502
0.00145666
0.0053393
0.00159041
0.00529525
0.00172155
0.00525265
0.00184961
0.0052113
0.00197369
0.0051711
0.00209246
0.00513198
0.0022041
0.00509397
0.0023064
0.00505717
0.00239673
0.00502174
0.00247213
0.00498791
0.00252942
0.00495593
0.0025653
0.0049261
0.00257661
0.00489869
0.00256056
0.00487396
0.00251508
0.00485211
0.00243921
0.00233339
0.00542982
0.000433404
0.00536705
0.000626361
0.00530702
0.00079203
0.00525124
0.000944796
0.00519944
0.00108957
0.00515098
0.00122945
0.00510534
0.00136595
0.00506214
0.00149987
0.00502101
0.00163154
0.00498167
0.00176089
0.00494386
0.00188742
0.00490738
0.00201017
0.00487212
0.00212772
0.004838
0.00223822
0.00480503
0.00233936
0.0047733
0.00242846
0.00474294
0.00250249
0.00471414
0.00255821
0.00468714
0.00259231
0.00466217
0.00260159
0.00463946
0.00258327
0.00461923
0.00253532
0.00460162
0.00245681
0.00234828
0.00510119
0.00050062
0.00503673
0.00069082
0.00497909
0.000849669
0.00492726
0.000996631
0.00487984
0.00113699
0.00483588
0.00127342
0.0047948
0.00140703
0.00475618
0.00153848
0.00471968
0.00166804
0.004685
0.00179557
0.00465188
0.00192054
0.00462013
0.00204192
0.00458962
0.00215824
0.00456027
0.00226756
0.0045321
0.00236754
0.00450515
0.0024554
0.00447955
0.00252809
0.00445547
0.0025823
0.0044331
0.00261468
0.00441264
0.00262205
0.00439428
0.00260163
0.00437818
0.00255141
0.00436446
0.00247053
0.00235958
0.00478102
0.000579711
0.00471817
0.000753664
0.00466552
0.000902321
0.00461899
0.00104316
0.00457659
0.00117939
0.00453743
0.00131258
0.00450102
0.00144344
0.00446701
0.0015725
0.00443506
0.00169998
0.00440491
0.00182573
0.00437631
0.00194914
0.00434908
0.00206915
0.00432308
0.00218423
0.00429825
0.0022924
0.00427458
0.00239121
0.00425211
0.00247787
0.00423096
0.00254924
0.00421125
0.002602
0.00419316
0.00263277
0.00417685
0.00263836
0.00416248
0.002616
0.00415016
0.00256373
0.00413996
0.00248073
0.00236763
0.00446643
0.000674718
0.00441216
0.000807942
0.00436734
0.000947135
0.00432702
0.00108348
0.00428994
0.00121647
0.00425564
0.00134688
0.00422386
0.00147522
0.00419432
0.00160203
0.00416677
0.00172753
0.00414096
0.00185154
0.00411665
0.00197344
0.00409369
0.00209211
0.00407194
0.00220599
0.00405133
0.002313
0.00403185
0.00241069
0.00401355
0.00249617
0.0039965
0.00256629
0.00398083
0.00261767
0.00396667
0.00264693
0.00395415
0.00265087
0.0039434
0.00262675
0.0039345
0.00257263
0.0039275
0.00248774
0.00237276
0.00581966
0.000726588
0.00574353
0.000884075
0.0056662
0.00102446
0.00559563
0.00115405
0.00553284
0.00127927
0.0054778
0.00140192
0.00543013
0.00152289
0.00538933
0.00164283
0.00535494
0.00176192
0.00532663
0.00187985
0.00530423
0.00199584
0.0052877
0.00210864
0.00527717
0.00221652
0.00527286
0.00231731
0.0052751
0.00240845
0.00528425
0.00248703
0.00530067
0.00254987
0.00532467
0.00259366
0.00535647
0.00261514
0.00539608
0.00261126
0.00544331
0.00257952
0.00549769
0.00251826
0.00555845
0.00242698
0.00230667
0.00572666
0.000797885
0.0056661
0.000944643
0.00560471
0.00108585
0.00554846
0.0012103
0.00549869
0.00132903
0.00545558
0.00144503
0.005419
0.00155947
0.00538862
0.00167321
0.00536414
0.00178641
0.00534532
0.00189867
0.00533208
0.00200908
0.00532445
0.00211627
0.00532257
0.0022184
0.00532669
0.00231319
0.00533711
0.00239803
0.00535416
0.00246998
0.00537815
0.00252588
0.0054093
0.00256251
0.00544774
0.0025767
0.0054934
0.00256561
0.00554596
0.00252696
0.00560487
0.00245935
0.00566927
0.00236258
0.00223788
0.00562354
0.000871562
0.00556532
0.00100287
0.00551442
0.00113674
0.00547075
0.00125397
0.00543389
0.00136589
0.0054034
0.00147553
0.00537895
0.00158392
0.00536022
0.00169193
0.00534697
0.00179966
0.00533905
0.00190659
0.00533642
0.00201171
0.00533916
0.00211354
0.00534743
0.00221012
0.00536147
0.00229915
0.00538156
0.00237795
0.00540795
0.00244358
0.0054409
0.00249293
0.00548054
0.00252287
0.00552688
0.00253036
0.00557973
0.00251276
0.00563868
0.00246801
0.00570306
0.00239497
0.00577195
0.0022937
0.00216565
0.00549134
0.000942525
0.00543859
0.00105562
0.00539748
0.00117786
0.00536564
0.00128581
0.00534143
0.0013901
0.00532376
0.0014932
0.00531198
0.00159569
0.00530569
0.00169822
0.00530462
0.00180072
0.00530866
0.00190256
0.00531778
0.00200259
0.00533208
0.00209923
0.00535173
0.00219048
0.00537693
0.00227395
0.0054079
0.00234697
0.00544486
0.00240662
0.00548794
0.00244985
0.00553718
0.00247362
0.00559249
0.00247506
0.00565354
0.0024517
0.00571982
0.00240173
0.00579054
0.00232424
0.00586471
0.00221953
0.00208924
0.00532753
0.00100599
0.00528319
0.00109996
0.00525267
0.00120837
0.0052328
0.00130568
0.00522137
0.00140153
0.00521683
0.00149774
0.00521828
0.00159425
0.00522517
0.00169133
0.00523718
0.00178871
0.00525419
0.00188555
0.00527617
0.00198061
0.0053032
0.0020722
0.00533541
0.00215826
0.00537298
0.00223638
0.00541606
0.00230389
0.00546477
0.00235791
0.00551916
0.00239547
0.00557913
0.00241364
0.00564447
0.00240972
0.00571474
0.00238143
0.00578929
0.00232718
0.00586724
0.00224629
0.00594751
0.00213926
0.0020079
0.00513325
0.00105771
0.00509997
0.00113324
0.00508132
0.00122702
0.00507399
0.00131301
0.00507566
0.00139987
0.0050846
0.0014888
0.00509973
0.00157911
0.0051204
0.00167066
0.00514624
0.00176287
0.00517707
0.00185473
0.00521285
0.00194483
0.00525362
0.00203142
0.00529948
0.0021124
0.00535052
0.00218534
0.00540682
0.0022476
0.0054684
0.00229634
0.00553517
0.00232869
0.00560694
0.00234187
0.00568333
0.00233333
0.00576377
0.00230099
0.00584749
0.00224346
0.0059335
0.00216028
0.00602064
0.00205212
0.00192092
0.0049107
0.0010945
0.00489097
0.00115297
0.00488571
0.00123228
0.00489178
0.00130694
0.00490704
0.00138462
0.00492983
0.00146601
0.00495902
0.00154991
0.00499394
0.00163575
0.00503415
0.00172266
0.00507947
0.00180941
0.0051298
0.0018945
0.00518514
0.00197608
0.00524552
0.00205202
0.00531095
0.00211991
0.00538141
0.00217713
0.0054568
0.00222095
0.00553691
0.00224858
0.0056214
0.00225739
0.00570973
0.002245
0.0058012
0.00220952
0.00589489
0.00214977
0.00598971
0.00206547
0.0060844
0.00195742
0.00466353
0.00111405
0.00465936
0.00115714
0.00466889
0.00122275
0.00468926
0.00128658
0.00471865
0.00135522
0.00475565
0.00142902
0.00479922
0.00150634
0.0048487
0.00158626
0.00490369
0.00166766
0.00496396
0.00174914
0.00502939
0.00182907
0.00509991
0.00190556
0.00517548
0.00197645
0.00525601
0.00203937
0.00534138
0.00209176
0.00543135
0.00213098
0.00552557
0.00215436
0.00562352
0.00215943
0.00572453
0.00214399
0.00582773
0.00210633
0.00593206
0.00204544
0.00603632
0.00196121
0.00185458
0.00439672
0.00111482
0.00440951
0.00114435
0.00443486
0.00119739
0.00447024
0.00125119
0.00451423
0.00131124
0.00456571
0.00137753
0.00462386
0.00144819
0.00468811
0.00152202
0.0047581
0.00159768
0.00483359
0.00167365
0.00491444
0.00174822
0.00500053
0.00181947
0.00509173
0.00188525
0.00518786
0.00194324
0.00528866
0.00199097
0.00539375
0.00202588
0.00550262
0.00204549
0.0056146
0.00204746
0.00572884
0.00202976
0.00584429
0.00199087
0.00595978
0.00192995
0.00607396
0.00184703
0.00174313
0.00411618
0.00109586
0.00414673
0.0011138
0.00418851
0.00115561
0.00423932
0.00120038
0.00429814
0.00125242
0.00436425
0.00131143
0.00443702
0.00137542
0.00451606
0.00144298
0.00460107
0.00151266
0.00469185
0.00158287
0.00478823
0.00165184
0.00489004
0.00171766
0.00499706
0.00177823
0.00510901
0.00183129
0.0052255
0.00187448
0.00534601
0.00190538
0.00546984
0.00192165
0.00559617
0.00192113
0.00572395
0.00190197
0.005852
0.00186282
0.00597897
0.00180299
0.00610339
0.00172261
0.00162277
0.00382853
0.00105687
0.0038771
0.00106523
0.00393543
0.00109729
0.00400173
0.00113408
0.00407538
0.00117877
0.004156
0.00123081
0.00424326
0.00128816
0.00433691
0.00134933
0.00443677
0.00141281
0.00454266
0.00147698
0.00465442
0.00154008
0.00477183
0.00160026
0.00489459
0.00165547
0.00502232
0.00170357
0.00515448
0.00174231
0.00529041
0.00176945
0.00542926
0.00178281
0.00556999
0.0017804
0.00571141
0.00176055
0.00585214
0.00172208
0.00599069
0.00166444
0.00612546
0.00158784
0.00149338
0.00354091
0.000998104
0.00360721
0.000998931
0.00368176
0.00102275
0.00376323
0.00105261
0.00385138
0.00109061
0.00394617
0.00113601
0.00404753
0.0011868
0.00415539
0.00124147
0.00426967
0.00129853
0.00439026
0.00135639
0.00451698
0.00141336
0.0046496
0.00146764
0.00478773
0.00151733
0.00493089
0.00156041
0.00507842
0.00159478
0.00522949
0.00161838
0.00538309
0.00162922
0.005538
0.00162548
0.00569286
0.00160569
0.00584612
0.00156883
0.00599612
0.00151444
0.00614116
0.0014428
0.00135501
0.00326071
0.000920362
0.00334397
0.000915677
0.00343398
0.000932733
0.00352993
0.00095666
0.00363194
0.000988606
0.00374027
0.00102768
0.00385508
0.00107199
0.00397648
0.00112007
0.00410451
0.0011705
0.00423911
0.00122179
0.00438012
0.00127235
0.00452726
0.00132051
0.0046801
0.0013645
0.00483804
0.00140247
0.0050003
0.00143252
0.00516592
0.00145277
0.0053337
0.00146143
0.00550228
0.0014569
0.0056701
0.00143788
0.00583545
0.00140348
0.00599653
0.00135336
0.00615149
0.00128783
0.00120793
0.00299536
0.000824932
0.00309436
0.000816679
0.00319871
0.000828386
0.0033081
0.000847265
0.003423
0.000873705
0.00354395
0.000906736
0.0036713
0.000944633
0.00380532
0.000986044
0.00394616
0.00102967
0.00409381
0.00107414
0.00424813
0.00111802
0.00440882
0.00115982
0.00457539
0.00119793
0.00474715
0.0012307
0.00492321
0.00125646
0.00510245
0.00127352
0.00528355
0.00128033
0.00546496
0.00127549
0.00564496
0.00125788
0.00582169
0.00122675
0.00599319
0.00118185
0.00615753
0.00112349
0.00105264
0.00275208
0.000713536
0.00286523
0.000703528
0.00298245
0.000711173
0.00310394
0.000725768
0.00323048
0.000747164
0.00336283
0.000774387
0.00350154
0.000805927
0.00364699
0.000840589
0.00379943
0.000877231
0.0039589
0.000914663
0.00412529
0.000951638
0.00429826
0.000986845
0.00447728
0.00101891
0.00466159
0.0010464
0.00485019
0.00106786
0.00504183
0.00108188
0.00523505
0.00108712
0.00542815
0.00108239
0.00561926
0.00106677
0.00580637
0.00103964
0.00598741
0.00100081
0.00616032
0.000950588
0.000889815
0.00253764
0.000588271
0.00266303
0.000578132
0.00279137
0.000582838
0.00292335
0.000593782
0.00306002
0.000610499
0.00320231
0.000632095
0.00335092
0.000657312
0.00350636
0.000685151
0.00366893
0.000714663
0.00383873
0.00074486
0.00401566
0.000774713
0.00419937
0.000803136
0.00438928
0.000828991
0.00458457
0.000851104
0.00478415
0.000868284
0.00498666
0.000879368
0.00519051
0.000883267
0.00539388
0.000879027
0.00559475
0.000865897
0.00579099
0.000843395
0.00598041
0.000811387
0.00616086
0.000770139
0.000720361
0.0023581
0.000451547
0.00249358
0.000442658
0.00263106
0.000445352
0.00277171
0.00045314
0.00291675
0.000465455
0.00306729
0.000481554
0.00322414
0.000500465
0.00338788
0.000521414
0.00355887
0.000543667
0.00373727
0.000566466
0.00392296
0.000589019
0.0041156
0.00061049
0.00431459
0.000630006
0.00451903
0.000646665
0.00472776
0.000659557
0.00493933
0.000667794
0.00515205
0.000670548
0.00536398
0.000667096
0.005573
0.000656872
0.00577688
0.000639522
0.00597331
0.000614952
0.00616007
0.000583379
0.000545355
0.00221865
0.000306017
0.00236184
0.000299463
0.00250633
0.000300857
0.00265362
0.000305853
0.00280512
0.000313961
0.00296202
0.000324651
0.00312522
0.00033726
0.00329538
0.000351261
0.00347289
0.000366155
0.00365793
0.000381429
0.0038504
0.000396543
0.00404996
0.000410932
0.00425596
0.000424003
0.00446748
0.000435146
0.00468329
0.000443745
0.00490189
0.0004492
0.00512148
0.000450954
0.00534006
0.000448522
0.0055554
0.000441525
0.0057652
0.000429729
0.00596707
0.000413076
0.00615873
0.000391719
0.000366035
0.00212332
0.000154516
0.00227174
0.000151047
0.00242097
0.000151623
0.00257276
0.000154063
0.00272864
0.000158088
0.00288987
0.000163421
0.0030574
0.000169727
0.00323192
0.000176739
0.00341387
0.000184204
0.00360344
0.000191863
0.00380054
0.000199445
0.00400481
0.000206662
0.00421559
0.000213217
0.00443194
0.000218799
0.00465258
0.0002231
0.00487597
0.000225817
0.00510025
0.000226669
0.00532336
0.000225413
0.00554303
0.000221859
0.00575686
0.000215891
0.00596246
0.000207482
0.00615747
0.00019671
0.000183766
0.00207493
0.00222598
0.00237761
0.00253167
0.00268975
0.00285317
0.0030229
0.00319963
0.00338383
0.00357569
0.00377513
0.00398179
0.004195
0.00441379
0.00463689
0.0048627
0.00508936
0.00531477
0.00553663
0.00575252
0.00596
0.00615671
)
;

boundaryField
{
    inlet
    {
        type            calculated;
        value           nonuniform 0();
    }
    outlet
    {
        type            calculated;
        value           nonuniform 0();
    }
    cylinder
    {
        type            calculated;
        value           nonuniform 0();
    }
    top
    {
        type            symmetryPlane;
        value           nonuniform 0();
    }
    bottom
    {
        type            symmetryPlane;
        value           nonuniform 0();
    }
    defaultFaces
    {
        type            empty;
        value           nonuniform 0();
    }
    procBoundary6to2
    {
        type            processor;
        value           nonuniform List<scalar> 
30
(
0.00603797
-0.00545394
0.00597361
-0.00511611
0.00587016
-0.000671623
-0.000830766
-0.000982491
-0.00112853
-0.00127042
-0.001409
-0.00154469
-0.0016775
-0.001807
-0.00193235
-0.00205225
-0.00216498
-0.00226839
-0.00235993
-0.0024367
-0.00249558
-0.00253333
-0.00254678
-0.00253315
-0.00249035
-0.00241736
-0.00231456
-0.000375407
-0.00570893
-0.000563599
)
;
    }
    procBoundary6to3
    {
        type            processor;
        value           uniform 0.00483329;
    }
    procBoundary6to5
    {
        type            processor;
        value           nonuniform List<scalar> 
28
(
-0.00591083
-0.0176194
-0.00602436
-0.00497436
-0.00490766
-0.0137402
-0.00385175
-0.00372246
-0.0035725
-0.00340398
-0.00813665
-0.00240538
-0.00224051
-0.00207096
-0.0018995
-0.00172897
-0.00156221
-0.00296969
-0.000948542
-0.000837441
-0.000735894
-0.000645516
-0.000567773
-0.000503946
-0.000455103
-0.00042207
-0.00480531
-0.00454573
)
;
    }
    procBoundary6to7
    {
        type            processor;
        value           nonuniform List<scalar> 
25
(
0.00458673
0.00435316
0.00413191
0.00392237
0.00562453
0.00573806
0.00584418
0.00594112
0.00602885
0.00610761
0.00617764
0.00182769
0.00613916
0.00618541
0.00622374
0.00625486
0.00627953
0.00629857
0.00631283
0.00632314
0.00633032
0.00633508
0.00633805
0.00633974
0.00634047
)
;
    }
    procBoundary6to10
    {
        type            processor;
        value           nonuniform List<scalar> 
28
(
-2.67643e-09
-1.92057e-09
0.000251027
0.0003306
-0.000987044
-5.28404e-10
-1.38407e-10
3.19746e-10
8.43089e-10
1.42402e-09
2.05202e-09
2.70931e-09
3.3739e-09
4.01775e-09
4.60876e-09
5.11193e-09
5.49166e-09
5.71468e-09
5.75357e-09
5.58964e-09
5.21682e-09
4.64396e-09
3.89625e-09
3.01491e-09
2.05498e-09
1.07967e-09
1.5535e-10
-6.60436e-10
)
;
    }
}


// ************************************************************************* //
