/*--------------------------------*- C++ -*----------------------------------*\
  =========                 |
  \\      /  F ield         | OpenFOAM: The Open Source CFD Toolbox
   \\    /   O peration     | Website:  https://openfoam.org
    \\  /    A nd           | Version:  7
     \\/     M anipulation  |
\*---------------------------------------------------------------------------*/
FoamFile
{
    version     2.0;
    format      ascii;
    class       surfaceScalarField;
    location    "15";
    object      phi;
}
// * * * * * * * * * * * * * * * * * * * * * * * * * * * * * * * * * * * * * //

dimensions      [0 3 -1 0 0 0 0];

internalField   nonuniform List<scalar> 
5137
(
0.00230644
-0.000504554
0.00231217
-0.000447835
0.00231811
-0.000390691
-0.000333152
0.00235142
-0.000621434
0.0023565
-0.000565898
0.00236183
-0.00050988
0.0023674
-0.000453404
0.0023732
-0.000396498
-0.000339188
0.00240399
-0.000680746
0.00240856
-0.000625999
0.0024134
-0.00057074
0.00241851
-0.000514994
0.0024239
-0.000458786
0.00242954
-0.000402141
-0.000345086
0.0024552
-0.000791956
0.00245885
-0.000738613
0.00246282
-0.00068471
0.00246709
-0.000630269
0.00247166
-0.000575313
0.00247653
-0.000519865
0.00248169
-0.00046395
0.00248715
-0.000407593
-0.000350819
0.00251075
-0.000899119
0.00251334
-0.000847305
0.00251627
-0.000794886
0.00251954
-0.000741882
0.00252315
-0.000688316
0.00252709
-0.000634208
0.00253135
-0.000579581
0.00253595
-0.000524459
0.00254086
-0.000468863
0.00254609
-0.00041282
-0.000356354
0.00257261
-0.00095168
0.00257435
-0.000900865
0.00257647
-0.000849422
0.00257895
-0.000797371
0.00258181
-0.000744734
0.00258502
-0.00069153
0.00258859
-0.000637783
0.00259253
-0.000583512
0.00259681
-0.000528742
0.00260144
-0.000473494
0.00260641
-0.000417793
-0.000361663
0.00263716
-0.00105137
0.00263759
-0.00100227
0.00263842
-0.000952505
0.00263964
-0.000902087
0.00264126
-0.00085104
0.00264327
-0.000799383
0.00264567
-0.000747138
0.00264847
-0.000694324
0.00265165
-0.000640964
0.00265521
-0.000587077
0.00265916
-0.000532687
0.00266348
-0.000477814
0.00266817
-0.000422484
-0.000366718
0.00270643
-0.00109877
0.00270585
-0.00105078
0.00270568
-0.00100211
0.00270594
-0.000952762
0.00270662
-0.000902765
0.00270771
-0.000852137
0.00270923
-0.000800899
0.00271116
-0.000749071
0.00271351
-0.000696673
0.00271627
-0.000643725
0.00271945
-0.000590249
0.00272302
-0.000536265
0.00272701
-0.000481796
0.00273139
-0.000426864
-0.000371492
0.00278119
-0.00119007
0.00277912
-0.00114397
0.00277748
-0.00109713
0.00277628
-0.00104958
0.00277551
-0.00100134
0.00277519
-0.000952438
0.00277531
-0.000902881
0.00277586
-0.000852695
0.00277686
-0.000801899
0.0027783
-0.000750512
0.00278019
-0.000698554
0.0027825
-0.000646044
0.00278526
-0.000593004
0.00278845
-0.000539455
0.00279207
-0.000485416
0.00279612
-0.000430911
-0.000375961
0.00285845
-0.00123183
0.00285529
-0.00118691
0.00285257
-0.00114124
0.00285029
-0.00109485
0.00284846
-0.00104775
0.00284709
-0.000999969
0.00284617
-0.00095152
0.00284571
-0.000902424
0.00284572
-0.0008527
0.00284618
-0.000802366
0.00284711
-0.000751443
0.00284851
-0.000699948
0.00285037
-0.000647902
0.00285268
-0.000595323
0.00285546
-0.000542233
0.0028587
-0.000488652
0.00286239
-0.000434601
-0.000380102
0.00294395
-0.00131427
0.00293926
-0.00127129
0.00293499
-0.00122756
0.00293116
-0.00118308
0.00292778
-0.00113786
0.00292486
-0.00109192
0.0029224
-0.00104529
0.0029204
-0.000997977
0.00291888
-0.000950001
0.00291784
-0.000901383
0.00291728
-0.000852139
0.0029172
-0.000802289
0.00291761
-0.000751849
0.0029185
-0.00070084
0.00291988
-0.00064928
0.00292175
-0.000597187
0.0029241
-0.000544582
0.00292693
-0.000491484
0.00293024
-0.000437915
-0.000383894
0.00302942
-0.00135026
0.00302363
-0.00130848
0.00301825
-0.00126591
0.0030133
-0.00122262
0.0030088
-0.00117858
0.00300476
-0.00113382
0.00300119
-0.00108835
0.00299809
-0.00104219
0.00299547
-0.00099536
0.00299335
-0.000947874
0.00299171
-0.000899749
0.00299058
-0.000851004
0.00298994
-0.000801655
0.00298981
-0.00075172
0.00299019
-0.000701218
0.00299108
-0.000650166
0.00299247
-0.000598582
0.00299438
-0.000546486
0.00299679
-0.000493897
0.00299971
-0.000440835
-0.00038732
0.00312582
-0.00142341
-0.00313349
0.00311853
-0.00138367
0.00311161
-0.00134334
0.00310511
-0.00130198
0.00309903
-0.00125984
0.0030934
-0.00121699
0.00308823
-0.00117341
0.00308352
-0.00112911
0.00307929
-0.00108412
0.00307555
-0.00103845
0.00307231
-0.000992115
0.00306956
-0.000945131
0.00306733
-0.000897516
0.00306561
-0.000849286
0.00306441
-0.000800457
0.00306374
-0.000751046
0.00306359
-0.00070107
0.00306397
-0.000650548
0.00306489
-0.000599496
0.00306633
-0.000547932
0.00306831
-0.000495876
0.00307082
-0.000443347
-0.000390364
0.00321131
-0.00141499
-0.00321973
0.00320327
-0.00137563
0.00319563
-0.0013357
0.00318841
-0.00129476
0.00318163
-0.00125306
0.00317531
-0.00121066
0.00316945
-0.00116755
0.00316407
-0.00112373
0.00315918
-0.00107923
0.00315479
-0.00103406
0.00315091
-0.000988234
0.00314755
-0.000941768
0.00314471
-0.000894678
0.0031424
-0.000846979
0.00314063
-0.000798687
0.0031394
-0.000749818
0.00313872
-0.000700389
0.00313859
-0.000650416
0.00313901
-0.000599917
0.00313999
-0.000548908
0.00314152
-0.000497409
0.00314361
-0.000445437
-0.000393012
0.00329868
-0.0014058
-0.00330787
0.00328988
-0.00136684
0.0032815
-0.00132731
0.00327355
-0.00128681
0.00326606
-0.00124557
0.00325903
-0.00120363
0.00325248
-0.001161
0.00324642
-0.00111767
0.00324087
-0.00107368
0.00323582
-0.00102902
0.0032313
-0.000983713
0.00322731
-0.000937779
0.00322386
-0.000891229
0.00322096
-0.000844077
0.00321861
-0.000796339
0.00321682
-0.00074803
0.0032156
-0.000699166
0.00321495
-0.000649763
0.00321487
-0.000599837
0.00321536
-0.000549406
0.00321644
-0.000498486
0.0032181
-0.000447095
0.00338795
-0.00139582
-0.00339793
0.00337839
-0.00135728
0.00336925
-0.00131817
0.00336056
-0.00127813
0.00335234
-0.00123735
0.0033446
-0.00119589
0.00333735
-0.00115375
0.0033306
-0.00111093
0.00332437
-0.00106744
0.00331866
-0.00102331
0.00331349
-0.000978546
0.00330887
-0.000933158
0.00330481
-0.000887163
0.00330131
-0.000840574
0.00329837
-0.000793407
0.00329602
-0.000745675
0.00329425
-0.000697395
0.00329307
-0.000648581
0.00329248
-0.00059925
0.00329249
-0.000549417
0.0032931
-0.000499099
-0.000448313
0.00347916
-0.00138503
-0.00348995
0.00346881
-0.00134693
0.0034589
-0.00130826
0.00344946
-0.00126868
0.0034405
-0.00122839
0.00343203
-0.00118742
0.00342406
-0.00114579
0.00341662
-0.00110348
0.00340971
-0.00106053
0.00340333
-0.00101694
0.00339751
-0.000972725
0.00339225
-0.000927899
0.00338756
-0.000882475
0.00338346
-0.000836466
0.00337994
-0.000789886
0.00337701
-0.00074275
0.00337469
-0.000695072
0.00337297
-0.000646866
0.00337187
-0.000598149
0.00337139
-0.000548935
0.00337153
-0.00049924
-0.000449081
0.00357233
-0.00137342
-0.00358394
0.00356118
-0.00133577
0.00355048
-0.00129756
0.00354027
-0.00125847
0.00353055
-0.00121867
0.00352135
-0.00117822
0.00351266
-0.0011371
0.00350451
-0.00109533
0.0034969
-0.00105292
0.00348985
-0.00100989
0.00348337
-0.000966244
0.00347747
-0.000921995
0.00347215
-0.000877158
0.00346743
-0.000831746
0.00346332
-0.000785771
0.00345982
-0.000739248
0.00345694
-0.000692191
0.00345468
-0.000644613
0.00345306
-0.000596529
0.00345208
-0.000547954
0.00345175
-0.000498904
-0.000449395
0.00366749
-0.00136097
-0.00367994
0.00365552
-0.0013238
0.00364402
-0.00128606
0.00363302
-0.00124747
0.00362254
-0.00120819
0.00361258
-0.00116826
0.00360316
-0.00112768
0.00359429
-0.00108646
0.00358598
-0.00104462
0.00357825
-0.00100216
0.0035711
-0.000959095
0.00356455
-0.000915441
0.0035586
-0.000871208
0.00355326
-0.000826409
0.00354855
-0.000781057
0.00354446
-0.000735165
0.00354102
-0.000688747
0.00353822
-0.000641816
0.00353608
-0.000594385
0.0035346
-0.000546471
0.00353378
-0.000498086
-0.000449248
0.00376466
-0.00134767
-0.00377796
0.00375185
-0.00131099
0.00373954
-0.00127375
0.00372774
-0.00123568
0.00371648
-0.00119692
0.00370576
-0.00115754
0.00369559
-0.00111752
0.003686
-0.00107687
0.00367698
-0.0010356
0.00366855
-0.000993731
0.00366073
-0.00095127
0.00365351
-0.000908228
0.00364692
-0.000864617
0.00364096
-0.00082045
0.00363564
-0.000775739
0.00363098
-0.000730497
0.00362697
-0.000684736
0.00362362
-0.000638471
0.00362095
-0.000591714
0.00361896
-0.00054448
0.00361765
-0.000496782
-0.000448637
0.00386388
-0.0013335
-0.00387805
0.00385022
-0.00129733
0.00383707
-0.0012606
0.00382446
-0.00122307
0.0038124
-0.00118487
0.00380091
-0.00114604
0.00378998
-0.00110659
0.00377965
-0.00106653
0.00376991
-0.00102586
0.00376078
-0.000984603
0.00375227
-0.000942761
0.00374439
-0.000900349
0.00373716
-0.000857379
0.00373057
-0.000813862
0.00372464
-0.00076981
0.00371938
-0.000725237
0.0037148
-0.000680154
0.0037109
-0.000634574
0.0037077
-0.000588511
0.0037052
-0.000541978
0.0037034
-0.000494988
-0.000447556
0.00396516
-0.00131844
-0.00398022
0.00395064
-0.00128281
0.00393664
-0.00124661
0.00392321
-0.00120963
0.00391034
-0.001172
0.00389806
-0.00113376
0.00388637
-0.0010949
0.00387528
-0.00105545
0.00386481
-0.00101539
0.00385497
-0.000974762
0.00384577
-0.000933559
0.00383722
-0.000891797
0.00382933
-0.000849486
0.0038221
-0.000806639
0.00381556
-0.000763266
0.0038097
-0.000719381
0.00380455
-0.000674996
0.00380009
-0.000630122
0.00379635
-0.000584772
0.00379334
-0.00053896
0.00379105
-0.0004927
-0.000446004
0.00406855
-0.00130247
-0.00408451
0.00405314
-0.0012674
0.00403829
-0.00123176
0.00402401
-0.00119536
0.00401033
-0.00115831
0.00399724
-0.00112067
0.00398477
-0.00108243
0.00397293
-0.0010436
0.00396172
-0.00100419
0.00395116
-0.000964201
0.00394126
-0.000923656
0.00393202
-0.000882563
0.00392347
-0.000840932
0.0039156
-0.000798774
0.00390844
-0.000756101
0.00390198
-0.000712924
0.00389624
-0.000669256
0.00389123
-0.000625108
0.00388695
-0.000580493
0.00388341
-0.000535424
0.00388063
-0.000489914
-0.000443976
0.00417407
-0.0012856
-0.00419095
0.00415777
-0.0012511
0.00414204
-0.00121603
0.00412691
-0.00118023
0.00411239
-0.0011438
0.0040985
-0.00110678
0.00408524
-0.00106917
0.00407262
-0.00103098
0.00406066
-0.000992226
0.00404937
-0.00095291
0.00403876
-0.000913044
0.00402883
-0.00087264
0.00401961
-0.000831709
0.0040111
-0.000790261
0.0040033
-0.000748307
0.00399624
-0.000705859
0.00398991
-0.00066293
0.00398433
-0.000619529
0.00397951
-0.00057567
0.00397545
-0.000531365
0.00397217
-0.000486627
-0.000441469
0.00428175
-0.00126779
-0.00429956
0.00426454
-0.00123389
0.00424793
-0.00119942
0.00423194
-0.00116423
0.00421657
-0.00112843
0.00420185
-0.00109206
0.00418779
-0.00105511
0.00417439
-0.00101759
0.00416167
-0.000979507
0.00414964
-0.000940879
0.00413831
-0.000901713
0.00412769
-0.00086202
0.00411779
-0.000821809
0.00410862
-0.000781092
0.0041002
-0.000739879
0.00409252
-0.000698182
0.0040856
-0.000656012
0.00407945
-0.00061338
0.00407408
-0.000570299
0.00406949
-0.00052678
0.0040657
-0.000482836
-0.000438479
0.00439163
-0.00124904
-0.00441038
0.0043735
-0.00121576
0.00435599
-0.00118191
0.00433912
-0.00114736
0.0043229
-0.00111222
0.00430735
-0.00107651
0.00429247
-0.00104023
0.00427828
-0.0010034
0.00426479
-0.000966018
0.00425201
-0.0009281
0.00423996
-0.000889656
0.00422863
-0.000850694
0.00421805
-0.000811226
0.00420822
-0.000771261
0.00419915
-0.000730811
0.00419085
-0.000689886
0.00418334
-0.000648497
0.00417661
-0.000606656
0.00417069
-0.000564374
0.00416557
-0.000521663
0.00416127
-0.000478535
-0.000435003
0.00450374
-0.00122934
-0.00452344
0.00448468
-0.0011967
0.00446626
-0.00116349
0.0044485
-0.0011296
0.00443141
-0.00109513
0.00441502
-0.00106011
0.00439932
-0.00102453
0.00438433
-0.000988408
0.00437006
-0.000951749
0.00435652
-0.000914564
0.00434373
-0.000876863
0.00433169
-0.000838656
0.00432042
-0.000799952
0.00430992
-0.000760762
0.0043002
-0.000721096
0.00429128
-0.000680965
0.00428316
-0.00064038
0.00427586
-0.000599352
0.00426938
-0.000557892
0.00426373
-0.000516011
0.00425891
-0.000473723
-0.000431038
0.00461812
-0.00120867
-0.00463878
0.00459811
-0.0011767
0.00457877
-0.00114414
0.00456011
-0.00111094
0.00454215
-0.00107717
0.0045249
-0.00104286
0.00450837
-0.001008
0.00449257
-0.000972608
0.00447751
-0.000936693
0.00446321
-0.000900263
0.00444967
-0.000863327
0.00443691
-0.000825896
0.00442494
-0.000787979
0.00441376
-0.000749586
0.00440339
-0.000710727
0.00439384
-0.000671413
0.00438512
-0.000631654
0.00437723
-0.000591462
0.00437018
-0.000550847
0.00436399
-0.00050982
0.00435866
-0.000468394
-0.00042658
0.0047348
-0.00118703
-0.00475644
0.00471384
-0.00115574
0.00469356
-0.00112387
0.004674
-0.00109138
0.00465515
-0.00105832
0.00463703
-0.00102474
0.00461966
-0.000990625
0.00460304
-0.000955989
0.00458719
-0.00092084
0.00457211
-0.000885187
0.00455782
-0.00084904
0.00454434
-0.000812408
0.00453166
-0.0007753
0.0045198
-0.000737727
0.00450877
-0.000699698
0.00449858
-0.000661224
0.00448924
-0.000622315
0.00448076
-0.000582982
0.00447315
-0.000543235
0.00446641
-0.000503085
0.00446056
-0.000462545
-0.000421625
0.00485382
-0.0011644
-0.00487645
0.00483189
-0.00113382
0.00481068
-0.00110266
0.0047902
-0.00107089
0.00477045
-0.00103858
0.00475146
-0.00100575
0.00473324
-0.000972401
0.00471579
-0.000938543
0.00469914
-0.000904182
0.00468328
-0.00086933
0.00466823
-0.000833994
0.00465401
-0.000798183
0.00464062
-0.000761909
0.00462807
-0.000725179
0.00461637
-0.000688003
0.00460554
-0.000650392
0.00459558
-0.000612356
0.00458651
-0.000573905
0.00457832
-0.00053505
0.00457104
-0.000495801
0.00456466
-0.00045617
-0.000416168
0.00497522
-0.00114078
-0.00499885
0.00495233
-0.00111092
0.00493017
-0.0010805
0.00490875
-0.00104948
0.00488811
-0.00101793
0.00486824
-0.000985879
0.00484915
-0.000953319
0.00483087
-0.00092026
0.0048134
-0.000886712
0.00479675
-0.000852682
0.00478094
-0.000818181
0.00476597
-0.000783216
0.00475186
-0.000747797
0.00473862
-0.000711934
0.00472625
-0.000675635
0.00471477
-0.000638911
0.00470418
-0.000601772
0.00469451
-0.000564227
0.00468574
-0.000526287
0.00467791
-0.000487964
0.004671
-0.000449266
-0.000410207
0.00509905
-0.00111615
-0.00512368
0.00507518
-0.00108705
0.00505206
-0.00105738
0.00502971
-0.00102713
0.00500815
-0.000996375
0.00498739
-0.000965119
0.00496744
-0.00093337
0.00494832
-0.000901135
0.00493003
-0.000868421
0.00491258
-0.000835238
0.004896
-0.000801595
0.00488028
-0.000767499
0.00486544
-0.00073296
0.0048515
-0.000697986
0.00483845
-0.000662588
0.00482631
-0.000626775
0.0048151
-0.000590557
0.00480481
-0.000553942
0.00479547
-0.000516943
0.00478707
-0.000479568
0.00477963
-0.000441829
-0.000403736
0.00522536
-0.00109052
-0.00525099
0.0052005
-0.00106218
0.00517641
-0.00103329
0.00515312
-0.00100384
0.00513064
-0.000973896
0.00510899
-0.000943462
0.00508816
-0.000912547
0.00506819
-0.000881158
0.00504907
-0.000849303
0.00503082
-0.00081699
0.00501345
-0.000784228
0.00499698
-0.000751024
0.00498141
-0.000717389
0.00496675
-0.00068333
0.00495302
-0.000648857
0.00494022
-0.000613978
0.00492837
-0.000578705
0.00491747
-0.000543045
0.00490754
-0.00050701
0.00489858
-0.000470609
0.00489061
-0.000433853
-0.000396752
0.00535418
-0.00106387
-0.00538084
0.00532833
-0.00103632
0.00530327
-0.00100823
0.00527903
-0.000979606
0.00525562
-0.00095049
0.00523306
-0.000920901
0.00521136
-0.000890844
0.00519053
-0.000860325
0.00517057
-0.000829351
0.00515152
-0.000797932
0.00513336
-0.000766074
0.00511612
-0.000733787
0.00509981
-0.000701079
0.00508444
-0.000667958
0.00507002
-0.000634434
0.00505656
-0.000600515
0.00504406
-0.000566211
0.00503255
-0.000531531
0.00502202
-0.000496485
0.0050125
-0.000461083
0.00500398
-0.000425334
-0.00038925
0.00548558
-0.00103619
-0.00551326
0.00545872
-0.00100946
0.00543269
-0.000982197
0.00540749
-0.000954412
0.00538315
-0.000926151
0.00535968
-0.00089743
0.00533709
-0.000868253
0.00531539
-0.000838627
0.0052946
-0.000808558
0.00527472
-0.000778056
0.00525578
-0.000747127
0.00523777
-0.00071578
0.00522071
-0.000684023
0.00520462
-0.000651865
0.0051895
-0.000619314
0.00517537
-0.000586379
0.00516222
-0.000553069
0.00515009
-0.000519394
0.00513896
-0.000485362
0.00512886
-0.000450983
0.0051198
-0.000416268
-0.000381226
0.00561961
-0.00100749
-0.00564831
0.00559174
-0.000981598
0.00556472
-0.000955176
0.00553856
-0.000928255
0.00551328
-0.000900872
0.0054889
-0.000873042
0.00546541
-0.000844769
0.00544284
-0.000816058
0.0054212
-0.000786918
0.0054005
-0.000757356
0.00538076
-0.00072738
0.00536198
-0.000696998
0.00534417
-0.000666217
0.00532735
-0.000635045
0.00531153
-0.000603492
0.00529671
-0.000571566
0.00528292
-0.000539275
0.00527015
-0.000506629
0.00525843
-0.000473636
0.00524775
-0.000440307
0.00523813
-0.00040665
-0.000372675
0.00575632
-0.000977753
-0.00578605
0.00572744
-0.000952718
0.00569943
-0.000927166
0.0056723
-0.000901131
0.00564608
-0.000874649
0.00562077
-0.000847732
0.00559638
-0.000820385
0.00557294
-0.000792614
0.00555045
-0.000764426
0.00552892
-0.000735828
0.00550837
-0.000706828
0.0054888
-0.000677434
0.00547024
-0.000647653
0.00545269
-0.000617493
0.00543616
-0.000586962
0.00542066
-0.000556069
0.00540621
-0.000524822
0.00539281
-0.000493231
0.00538048
-0.000461303
0.00536922
-0.000429048
0.00535904
-0.000396475
-0.000363595
0.00589577
-0.000946978
-0.00592655
0.00586588
-0.000922821
0.00583687
-0.00089816
0.00580877
-0.000873034
0.0057816
-0.000847475
0.00575536
-0.000821494
0.00573007
-0.000795097
0.00570575
-0.000768288
0.0056824
-0.000741075
0.00566003
-0.000713465
0.00563867
-0.000685465
0.00561832
-0.000657083
0.00559899
-0.000628326
0.0055807
-0.000599202
0.00556346
-0.000569719
0.00554727
-0.000539884
0.00553216
-0.000509707
0.00551812
-0.000479195
0.00550518
-0.000448357
0.00549333
-0.000417203
0.0054826
-0.00038574
-0.000353979
0.00603805
-0.00091516
-0.00606986
0.00600713
-0.000891902
0.00597712
-0.000868155
0.00594805
-0.000843959
0.00591992
-0.000819345
0.00589275
-0.000794323
0.00586655
-0.000768898
0.00584134
-0.000743075
0.00581712
-0.00071686
0.00579392
-0.000690262
0.00577174
-0.000663286
0.00575059
-0.00063594
0.0057305
-0.000608232
0.00571147
-0.000580168
0.0056935
-0.000551757
0.00567663
-0.000523006
0.00566084
-0.000493923
0.00564616
-0.000464516
0.0056326
-0.000434794
0.00562016
-0.000404766
0.00560886
-0.00037444
-0.000343825
0.0061832
-0.000882296
-0.00621607
0.00615126
-0.000859958
0.00612025
-0.000837146
0.00609019
-0.000813903
0.0060611
-0.000790256
0.00603299
-0.000766215
0.00600588
-0.000741784
0.00597978
-0.000716969
0.00595469
-0.000691777
0.00593064
-0.000666213
0.00590764
-0.000640285
0.0058857
-0.000614
0.00586483
-0.000587364
0.00584505
-0.000560386
0.00582637
-0.000533071
0.00580879
-0.000505429
0.00579233
-0.000477465
0.005777
-0.00044919
0.00576282
-0.00042061
0.00574979
-0.000391734
0.00573792
-0.00036257
-0.000333127
0.00633132
-0.000848382
-0.00636524
0.00629835
-0.000826984
0.00626633
-0.000805128
0.00623529
-0.000782859
0.00620523
-0.000760201
0.00617618
-0.000737163
0.00614815
-0.00071375
0.00612115
-0.000689966
0.00609519
-0.000665819
0.00607029
-0.000641314
0.00604646
-0.000616458
0.00602372
-0.000591257
0.00600207
-0.000565719
0.00598154
-0.000539849
0.00596212
-0.000513657
0.00594384
-0.000487148
0.00592671
-0.00046033
0.00591073
-0.000433211
0.00589592
-0.000405799
0.00588228
-0.000378102
0.00586984
-0.000350127
-0.000321883
0.00648249
-0.000813414
-0.00651746
0.00644848
-0.000792976
0.00641545
-0.000772098
0.00638342
-0.000750824
0.00635239
-0.000729177
0.0063224
-0.000707165
0.00629344
-0.000684791
0.00626553
-0.000662061
0.00623869
-0.000638982
0.00621294
-0.000615559
0.00618828
-0.000591798
0.00616473
-0.000567706
0.0061423
-0.000543289
0.00612101
-0.000518555
0.00610086
-0.000493509
0.00608187
-0.000468159
0.00606405
-0.000442512
0.00604742
-0.000416576
0.00603197
-0.000390358
0.00601774
-0.000363865
0.00600472
-0.000337106
-0.000310089
0.00663679
-0.00077739
-0.00667281
0.00660174
-0.000757932
0.0065677
-0.000738052
0.00653467
-0.000717795
0.00650267
-0.00069718
0.00647172
-0.000676215
0.00644183
-0.000654903
0.00641302
-0.00063325
0.0063853
-0.000611261
0.00635868
-0.000588943
0.00633319
-0.000566302
0.00630882
-0.000543342
0.00628561
-0.000520072
0.00626355
-0.000496496
0.00624266
-0.000472623
0.00622296
-0.000448457
0.00620445
-0.000424007
0.00618716
-0.00039928
0.00617108
-0.000374282
0.00615624
-0.00034902
0.00614263
-0.000323504
-0.000297739
0.00679431
-0.000740305
-0.0068314
0.00675823
-0.000721847
0.00672316
-0.000702987
0.00668913
-0.000683767
0.00665616
-0.000664205
0.00662425
-0.000644308
0.00659343
-0.000624081
0.00656371
-0.000603527
0.0065351
-0.000582652
0.00650762
-0.000561462
0.00648128
-0.000539964
0.0064561
-0.000518161
0.00643209
-0.000496061
0.00640926
-0.00047367
0.00638763
-0.000450993
0.00636721
-0.000428038
0.00634801
-0.00040481
0.00633005
-0.000381317
0.00631334
-0.000357566
0.00629788
-0.000333563
0.00628369
-0.000309316
-0.000284832
0.00695516
-0.000702157
-0.00699331
0.00691803
-0.000684719
0.00688195
-0.000666898
0.00684691
-0.000648736
0.00681296
-0.000630248
0.00678009
-0.000611442
0.00674833
-0.00059232
0.00671769
-0.000572887
0.00668819
-0.00055315
0.00665984
-0.000533112
0.00663265
-0.000512779
0.00660665
-0.000492158
0.00658184
-0.000471253
0.00655824
-0.00045007
0.00653586
-0.000428616
0.00651472
-0.000406896
0.00649483
-0.000384917
0.0064762
-0.000362685
0.00645884
-0.000340207
0.00644276
-0.000317489
0.00642799
-0.000294539
-0.000271363
0.00711945
-0.000662944
-0.00715866
0.00708128
-0.000646543
0.00704416
-0.000629782
0.00700812
-0.000612698
0.00697318
-0.000595305
0.00693935
-0.00057761
0.00690664
-0.000559616
0.00687508
-0.000541327
0.00684468
-0.000522749
0.00681546
-0.000503886
0.00678742
-0.000484743
0.00676059
-0.000465327
0.00673498
-0.000445641
0.0067106
-0.000425692
0.00668747
-0.000405486
0.0066656
-0.000385027
0.00664501
-0.000364323
0.0066257
-0.000343378
0.00660769
-0.0003222
0.006591
-0.000300795
0.00657563
-0.000279169
-0.000257329
0.00728729
-0.00062266
-0.00732757
0.00724806
-0.000607317
0.00720992
-0.000591635
0.00717287
-0.000575649
0.00713694
-0.000559372
0.00710214
-0.00054281
0.00706848
-0.000525964
0.007036
-0.000508842
0.00700469
-0.000491445
0.00697459
-0.00047378
0.0069457
-0.000455851
0.00691803
-0.000437664
0.00689162
-0.000419222
0.00686645
-0.000400532
0.00684257
-0.000381598
0.00681997
-0.000362427
0.00679867
-0.000343023
0.00677868
-0.000323393
0.00676002
-0.000303542
0.0067427
-0.000283477
0.00672674
-0.000263203
-0.000242727
0.00745881
-0.000581304
-0.00750016
0.00741853
-0.000567037
0.00737934
-0.000552453
0.00734128
-0.000537585
0.00730435
-0.000522444
0.00726858
-0.000507035
0.00723398
-0.000491361
0.00720056
-0.000475426
0.00716835
-0.000459234
0.00713736
-0.00044279
0.0071076
-0.000426098
0.0070791
-0.000409163
0.00705187
-0.00039199
0.00702593
-0.000374584
0.00700128
-0.000356949
0.00697794
-0.00033909
0.00695593
-0.000321014
0.00693526
-0.000302725
0.00691595
-0.000284228
0.006898
-0.00026553
0.00688144
-0.000246636
-0.000227553
0.00763413
-0.000538871
-0.00767656
0.00759279
-0.000525699
0.00755257
-0.000512232
0.00751349
-0.000498502
0.00747556
-0.000484517
0.00743881
-0.000470282
0.00740325
-0.0004558
0.0073689
-0.000441075
0.00733577
-0.00042611
0.00730389
-0.00041091
0.00727328
-0.000395479
0.00724393
-0.000379821
0.00721588
-0.000363941
0.00718914
-0.000347844
0.00716373
-0.000331533
0.00713965
-0.000315013
0.00711693
-0.000298291
0.00709557
-0.000281369
0.0070756
-0.000264255
0.00705702
-0.000246952
0.00703985
-0.000229467
-0.000211804
0.0078134
-0.000495359
-0.00785692
0.007771
-0.000483299
0.00772974
-0.000470969
0.00768963
-0.000458396
0.0076507
-0.000445587
0.00761297
-0.000432547
0.00757645
-0.000419278
0.00754115
-0.000405784
0.00750711
-0.000392068
0.00747434
-0.000378136
0.00744285
-0.000363989
0.00741266
-0.000349632
0.00738379
-0.00033507
0.00735625
-0.000320306
0.00733006
-0.000305345
0.00730524
-0.000290191
0.0072818
-0.000274849
0.00725975
-0.000259323
0.00723912
-0.000243618
0.0072199
-0.000227739
0.00720213
-0.000211691
-0.000195478
0.00799678
-0.000450762
-0.00804137
0.00795331
-0.000439834
0.007911
-0.000428658
0.00786987
-0.000417261
0.00782993
-0.000405648
0.0077912
-0.000393823
0.00775371
-0.000381789
0.00771748
-0.000369548
0.00768251
-0.000357104
0.00764884
-0.000344461
0.00761647
-0.000331623
0.00758543
-0.000318591
0.00755573
-0.000305372
0.0075274
-0.000291967
0.00750043
-0.000278382
0.00747486
-0.00026462
0.0074507
-0.000250685
0.00742795
-0.000236581
0.00740665
-0.000222314
0.0073868
-0.000207887
0.00736841
-0.000193305
-0.000178572
0.00818441
-0.000405078
-0.00823009
0.00813987
-0.000395298
0.00809651
-0.000385296
0.00805434
-0.000375094
0.00801339
-0.000364696
0.00797368
-0.000354107
0.00793522
-0.000343328
0.00789803
-0.000332362
0.00786214
-0.000321212
0.00782756
-0.000309882
0.00779431
-0.000298375
0.00776241
-0.000286693
0.00773188
-0.000274841
0.00770274
-0.000262821
0.00767499
-0.000250638
0.00764867
-0.000238294
0.00762378
-0.000225794
0.00760033
-0.000213141
0.00757836
-0.000200339
0.00755787
-0.000187393
0.00753887
-0.000174306
-0.000161083
0.00837647
-0.000358303
-0.00842324
0.00833086
-0.000349689
0.00828644
-0.000340878
0.00824324
-0.000331889
0.00820127
-0.000322727
0.00816055
-0.000313393
0.00812112
-0.00030389
0.00808297
-0.000294221
0.00804615
-0.000284388
0.00801066
-0.000274393
0.00797653
-0.000264241
0.00794377
-0.000253933
0.0079124
-0.000243473
0.00788244
-0.000232864
0.00785391
-0.000222108
0.00782683
-0.00021121
0.00780121
-0.000200172
0.00777706
-0.000188997
0.00775441
-0.00017769
0.00773327
-0.000166254
0.00771366
-0.000154692
-0.000143008
0.00857313
-0.000310432
-0.00862101
0.00852645
-0.000303001
0.00848097
-0.0002954
0.00843672
-0.000287643
0.00839373
-0.000279735
0.00835201
-0.000271676
0.00831159
-0.00026347
0.00827249
-0.000255119
0.00823473
-0.000246624
0.00819833
-0.000237989
0.0081633
-0.000229215
0.00812967
-0.000220306
0.00809746
-0.000211263
0.00806669
-0.00020209
0.00803737
-0.000192789
0.00800952
-0.000183362
0.00798316
-0.000173814
0.00795831
-0.000164146
0.00793498
-0.000154363
0.0079132
-0.000144466
0.00789296
-0.000134459
0.0087746
-0.000261461
-0.00882357
0.00872683
-0.000255231
0.00868028
-0.000248857
0.00863499
-0.00024235
0.00859097
-0.000235715
0.00854825
-0.000228952
0.00850684
-0.000222064
0.00846677
-0.000215052
0.00842806
-0.000207918
0.00839074
-0.000200664
0.00835482
-0.000193293
0.00832032
-0.000185806
0.00828726
-0.000178206
0.00825566
-0.000170494
0.00822555
-0.000162674
0.00819693
-0.000154747
0.00816984
-0.000146716
0.00814427
-0.000138584
0.00812027
-0.000130353
0.00809783
-0.000122026
-0.000113606
0.00898105
-0.000211388
-0.00903112
0.00893219
-0.000206375
0.00888458
-0.000201245
0.00883823
-0.000196007
0.00879318
-0.000190663
0.00874944
-0.000185215
0.00870705
-0.000179665
0.00866601
-0.000174013
0.00862635
-0.000168262
0.0085881
-0.000162413
0.00855127
-0.000156467
0.0085159
-0.000150427
0.00848199
-0.000144295
0.00844956
-0.000138071
0.00841865
-0.000131759
0.00838926
-0.000125359
0.00836142
-0.000118875
0.00833514
-0.000112308
0.00831045
-0.000105659
0.00828735
-9.89325e-05
-9.21293e-05
0.00919269
-0.000160209
-0.00924387
0.00914275
-0.000156429
0.00909406
-0.000152559
0.00904666
-0.000148607
0.00900057
-0.000144573
0.00895582
-0.00014046
0.00891242
-0.000136268
0.0088704
-0.000131997
0.00882979
-0.000127651
0.00879061
-0.000123229
0.00875287
-0.000118733
0.00871661
-0.000114165
0.00868184
-0.000109525
0.00864859
-0.000104816
0.00861687
-0.000100039
0.0085867
-9.51945e-05
0.00855811
-9.02852e-05
0.00853112
-8.53122e-05
0.00850573
-8.02772e-05
0.00848198
-7.51821e-05
-7.00284e-05
0.00940974
-0.000107921
-0.00946203
0.0093587
-0.000105389
0.00930894
-0.000102796
0.00926048
-0.000100146
0.00921335
-9.74405e-05
0.00916757
-9.46799e-05
0.00912316
-9.18652e-05
0.00908016
-8.89973e-05
0.00903859
-8.6077e-05
0.00899847
-8.31052e-05
0.00895982
-8.00829e-05
0.00892266
-7.7011e-05
0.00888703
-7.38906e-05
0.00885293
-7.07225e-05
0.0088204
-6.75078e-05
0.00878946
-6.42477e-05
0.00876011
-6.09432e-05
0.0087324
-5.75953e-05
0.00870632
-5.42052e-05
0.00868192
-5.07742e-05
-4.73031e-05
0.00963241
-5.45192e-05
-0.00968581
0.00958027
-5.32499e-05
0.00952942
-5.19478e-05
0.00947989
-5.0616e-05
0.00943171
-4.9255e-05
0.00938489
-4.78657e-05
0.00933948
-4.64481e-05
0.00929548
-4.50032e-05
0.00925294
-4.35311e-05
0.00921186
-4.20328e-05
0.00917229
-4.05084e-05
0.00913424
-3.89587e-05
0.00909773
-3.7384e-05
0.00906279
-3.57851e-05
0.00902945
-3.41622e-05
0.00899772
-3.25163e-05
0.00896762
-3.08473e-05
0.00893918
-2.91567e-05
0.00891242
-2.74441e-05
0.00888736
-2.57109e-05
-2.39571e-05
0.00986093
-0.00991545
0.00980768
0.00975573
0.00970512
0.00965586
0.009608
0.00956155
0.00951654
0.00947301
0.00943098
0.00939047
0.00935151
0.00931413
0.00927834
0.00924418
0.00921167
0.00918082
0.00915166
0.00912422
0.00909851
0.00302563
0.00110557
0.00303825
0.0011088
0.00305205
0.00110745
0.00306691
0.00110128
0.00308269
0.0010899
0.00309921
0.00107276
0.00311624
0.00104907
0.00101751
0.00306404
5.76299e-05
0.00306307
0.000161227
0.00306159
0.000252847
0.00305969
0.000334773
0.0030575
0.000409443
0.00305516
0.000478217
0.00305279
0.000542225
0.0030505
0.000602162
0.00304845
0.00065852
0.00304675
0.000711586
0.00304553
0.000761518
0.00304493
0.000808365
0.00304507
0.000852102
0.00304608
0.000892651
0.00304806
0.0009299
0.00305112
0.000963715
0.00305536
0.000993958
0.00306084
0.00102049
0.00306762
0.00104318
0.00307573
0.00106193
0.00308518
0.00107662
0.00309597
0.00108717
0.00310805
0.00109349
0.00312137
0.00109548
0.00313582
0.001093
0.00315129
0.00108581
0.00316762
0.00107356
0.00318464
0.00105575
0.00320211
0.0010316
0.000999884
0.00313693
5.79285e-05
0.00313606
0.000162099
0.00313473
0.000254182
0.00313303
0.000336466
0.0031311
0.000411371
0.00312906
0.00048026
0.00312703
0.000544255
0.00312514
0.000604051
0.00312352
0.000660139
0.00312231
0.000712805
0.00312162
0.000762207
0.00312159
0.000808395
0.00312234
0.000851349
0.00312399
0.000890997
0.00312666
0.000927235
0.00313043
0.000959943
0.00313539