-0.428313 	0.428313 	-1.20458e-17 	0.21334
-0.482588 	0.482588 	-2.13987e-17 	0.227965
-0.540971 	0.540971 	-2.23748e-17 	0.222466
-0.603773 	0.603773 	-1.48542e-17 	0.239683
-0.671328 	0.671328 	-4.51151e-18 	0.243763
