-0.428313 	0.428313 	-1.20458e-17 	0.375249 	0.341561 	-1.36459e-19
-0.482588 	0.482588 	-2.13987e-17 	0.543594 	0.444627 	3.85238e-20
-0.540971 	0.540971 	-2.23748e-17 	0.665107 	0.488453 	-5.63632e-20
-0.603773 	0.603773 	-1.48542e-17 	0.756102 	0.490228 	1.36139e-19
-0.671328 	0.671328 	-4.51151e-18 	0.820618 	0.46591 	3.83889e-20
