/*--------------------------------*- C++ -*----------------------------------*\
  =========                 |
  \\      /  F ield         | OpenFOAM: The Open Source CFD Toolbox
   \\    /   O peration     | Website:  https://openfoam.org
    \\  /    A nd           | Version:  7
     \\/     M anipulation  |
\*---------------------------------------------------------------------------*/
FoamFile
{
    version     2.0;
    format      ascii;
    class       volScalarField;
    location    "10";
    object      p;
}
// * * * * * * * * * * * * * * * * * * * * * * * * * * * * * * * * * * * * * //

dimensions      [0 2 -2 0 0 0 0];

internalField   nonuniform List<scalar> 
6050
(
-0.356112
-0.362994
-0.370484
-0.378381
-0.386333
-0.393803
-0.400049
-0.4041
-0.404827
-0.400868
-0.390974
-0.374459
-0.34893
-0.356381
-0.363296
-0.370847
-0.378844
-0.386945
-0.394624
-0.401157
-0.405567
-0.406759
-0.403394
-0.393885
-0.378389
-0.352582
-0.356864
-0.363827
-0.371474
-0.379632
-0.387978
-0.396001
-0.403008
-0.408
-0.409908
-0.407611
-0.398452
-0.384914
-0.358662
-0.357461
-0.364457
-0.372193
-0.380514
-0.389119
-0.397502
-0.405017
-0.41063
-0.413173
-0.412271
-0.403118
-0.392476
-0.364941
-0.358044
-0.365026
-0.372798
-0.381221
-0.390016
-0.398661
-0.406572
-0.412688
-0.415537
-0.416235
-0.406474
-0.397811
-0.370567
-0.365374
-0.373095
-0.38151
-0.390367
-0.399101
-0.407203
-0.413607
-0.416614
-0.417787
-0.408165
-0.400079
-0.373714
-0.365371
-0.372931
-0.381207
-0.389977
-0.39861
-0.406657
-0.413006
-0.415869
-0.417026
-0.407402
-0.398801
-0.373617
-0.36493
-0.372227
-0.380244
-0.388758
-0.3971
-0.404854
-0.410853
-0.413285
-0.413749
-0.404132
-0.393933
-0.369768
-0.364024
-0.370969
-0.378621
-0.386747
-0.394633
-0.401864
-0.407206
-0.408911
-0.407985
-0.398197
-0.385779
-0.362039
-0.362676
-0.369208
-0.376415
-0.38404
-0.391332
-0.397754
-0.402131
-0.4027
-0.399895
-0.389425
-0.374754
-0.350861
-0.360953
-0.367028
-0.373739
-0.38073
-0.387265
-0.392539
-0.395603
-0.394538
-0.389615
-0.377911
-0.361407
-0.337278
-0.364533
-0.370667
-0.376854
-0.382388
-0.386148
-0.387498
-0.384396
-0.377339
-0.364204
-0.346562
-0.322614
-0.361777
-0.367201
-0.372363
-0.376549
-0.378469
-0.377745
-0.372471
-0.363514
-0.349205
-0.331214
-0.308005
-0.358758
-0.363263
-0.367123
-0.369583
-0.369449
-0.366493
-0.359241
-0.348841
-0.333867
-0.316217
-0.294146
-0.355404
-0.358717
-0.360983
-0.361439
-0.359208
-0.354142
-0.345348
-0.334038
-0.318908
-0.30209
-0.281308
-0.353428
-0.35387
-0.352236
-0.348057
-0.341219
-0.331403
-0.31961
-0.304718
-0.289004
-0.269502
-0.347333
-0.345846
-0.342239
-0.336398
-0.328218
-0.317822
-0.305804
-0.291428
-0.276874
-0.258585
-0.337098
-0.331776
-0.324606
-0.315496
-0.304817
-0.292706
-0.279019
-0.265412
-0.248322
-0.327867
-0.321141
-0.312959
-0.303256
-0.292455
-0.280359
-0.267397
-0.254227
-0.238501
-0.310554
-0.301629
-0.291573
-0.280735
-0.268798
-0.256456
-0.243209
-0.22906
-0.300152
-0.290695
-0.280438
-0.269624
-0.257976
-0.24612
-0.233035
-0.22001
-0.280169
-0.269807
-0.259078
-0.247757
-0.236269
-0.223966
-0.211993
-0.27003
-0.259628
-0.249026
-0.238022
-0.227014
-0.21541
-0.204262
-0.249839
-0.239387
-0.228727
-0.218162
-0.207211
-0.196936
-0.230098
-0.219771
-0.209654
-0.19934
-0.18974
-0.211095
-0.201399
-0.191644
-0.182688
-0.193329
-0.184106
-0.1757
-0.176651
-0.16875
-0.176651
-0.16875
-0.193329
-0.184106
-0.1757
-0.211095
-0.201399
-0.191644
-0.182688
-0.230098
-0.219771
-0.209654
-0.19934
-0.18974
-0.249839
-0.239387
-0.228727
-0.218162
-0.207211
-0.196936
-0.27003
-0.259628
-0.249026
-0.238022
-0.227014
-0.215411
-0.204262
-0.280169
-0.269807
-0.259078
-0.247758
-0.236269
-0.223966
-0.211993
-0.300152
-0.290695
-0.280438
-0.269624
-0.257976
-0.24612
-0.233035
-0.22001
-0.310554
-0.301629
-0.291573
-0.280735
-0.268798
-0.256456
-0.243209
-0.22906
-0.327867
-0.321142
-0.312959
-0.303256
-0.292455
-0.280359
-0.267397
-0.254227
-0.238501
-0.337098
-0.331776
-0.324606
-0.315496
-0.304817
-0.292706
-0.279019
-0.265412
-0.248322
-0.347333
-0.345846
-0.342239
-0.336398
-0.328218
-0.317822
-0.305804
-0.291428
-0.276874
-0.258585
-0.353428
-0.35387
-0.352236
-0.348057
-0.341219
-0.331403
-0.31961
-0.304718
-0.289004
-0.269502
-0.355404
-0.358717
-0.360983
-0.361439
-0.359208
-0.354142
-0.345348
-0.334038
-0.318909
-0.30209
-0.281308
-0.358758
-0.363263
-0.367123
-0.369584
-0.369449
-0.366493
-0.359241
-0.348841
-0.333867
-0.316217
-0.294146
-0.361777
-0.367201
-0.372363
-0.376549
-0.378469
-0.377745
-0.372472
-0.363514
-0.349205
-0.331214
-0.308005
-0.364533
-0.370667
-0.376854
-0.382388
-0.386148
-0.387498
-0.384396
-0.377339
-0.364204
-0.346562
-0.322614
-0.360953
-0.367028
-0.373739
-0.38073
-0.387265
-0.392539
-0.395603
-0.394538
-0.389615
-0.377912
-0.361407
-0.337278
-0.362676
-0.369208
-0.376415
-0.38404
-0.391332
-0.397754
-0.402131
-0.402701
-0.399895
-0.389425
-0.374754
-0.350861
-0.364024
-0.370969
-0.378621
-0.386747
-0.394633
-0.401864
-0.407206
-0.408912
-0.407985
-0.398197
-0.385779
-0.362039
-0.36493
-0.372227
-0.380244
-0.388758
-0.3971
-0.404854
-0.410853
-0.413285
-0.413749
-0.404132
-0.393933
-0.369768
-0.365371
-0.372931
-0.381207
-0.389977
-0.39861
-0.406657
-0.413006
-0.415869
-0.417026
-0.407402
-0.398801
-0.373617
-0.365374
-0.373095
-0.38151
-0.390368
-0.399101
-0.407203
-0.413607
-0.416614
-0.417787
-0.408165
-0.400079
-0.373714
-0.358044
-0.365026
-0.372798
-0.381221
-0.390016
-0.398662
-0.406572
-0.412688
-0.415537
-0.416236
-0.406474
-0.397811
-0.370567
-0.357461
-0.364457
-0.372193
-0.380514
-0.389119
-0.397502
-0.405017
-0.41063
-0.413173
-0.412272
-0.403118
-0.392476
-0.364941
-0.356864
-0.363827
-0.371474
-0.379632
-0.387978
-0.396001
-0.403008
-0.408
-0.409908
-0.407611
-0.398452
-0.384914
-0.358662
-0.356381
-0.363296
-0.370847
-0.378844
-0.386945
-0.394624
-0.401157
-0.405567
-0.406759
-0.403394
-0.393885
-0.378389
-0.352582
-0.356112
-0.362994
-0.370484
-0.378381
-0.386333
-0.393803
-0.400049
-0.4041
-0.404827
-0.400868
-0.390974
-0.374459
-0.34893
-0.327091
-0.310839
-0.29287
-0.273221
-0.252056
-0.229591
-0.206102
-0.181916
-0.157415
-0.13301
-0.109138
-0.0862252
-0.0645807
-0.0445623
-0.02647
-0.0104993
0.00323186
0.0146915
0.0239273
0.0310554
0.036247
0.0397114
0.0416802
0.0423898
0.0420723
0.0409496
0.0392211
0.0370603
0.0346135
0.0320005
0.0293164
0.0266361
0.0240168
0.0215034
0.0191271
0.0169129
0.0148718
0.0130141
0.0113328
0.00982937
0.00848029
0.00728794
0.0062115
0.00526847
0.00438573
0.00361649
0.00281912
0.00214295
0.00130208
0.000659906
-0.331485
-0.315308
-0.297378
-0.277716
-0.256494
-0.233934
-0.210334
-0.186024
-0.161343
-0.136731
-0.112652
-0.0894233
-0.0675597
-0.0473169
-0.0289991
-0.0128129
0.00112395
0.0127779
0.0221953
0.0294923
0.0348402
0.0384494
0.0405527
0.04139
0.0411896
0.0401721
0.0385393
0.0364655
0.034097
0.0315541
0.028932
0.0263059
0.0237332
0.0212596
0.0189172
0.0167319
0.0147155
0.012879
0.0112161
0.00972858
0.00839339
0.00721289
0.00614689
0.00521282
0.00433892
0.00357728
0.00278878
0.00211843
0.00128737
0.000646443
-0.338858
-0.322783
-0.304936
-0.285329
-0.264093
-0.241456
-0.217748
-0.193173
-0.168205
-0.143311
-0.1189
-0.0954009
-0.0731676
-0.052559
-0.0338742
-0.0173243
-0.00303236
0.00896536
0.0187135
0.026327
0.0319763
0.0358709
0.0382438
0.0393357
0.0393774
0.0385797
0.0371455
0.035252
0.0330461
0.0306483
0.0281542
0.0256398
0.0231633
0.0207717
0.0184989
0.0163726
0.0144066
0.0126131
0.0109873
0.00953169
0.00822421
0.0070673
0.00602203
0.0051056
0.00424891
0.00350187
0.00273039
0.00207111
0.00125899
0.000620687
-0.347439
-0.331115
-0.313347
-0.293902
-0.27279
-0.250222
-0.226482
-0.201907
-0.176874
-0.151809
-0.127154
-0.103336
-0.080773
-0.0598126
-0.040748
-0.0237966
-0.0090883
0.00333517
0.0135135
0.0215568
0.0276307
0.0319397
0.0347123
0.0361862
0.0365932
0.0361372
0.0350121
0.0333981
0.0314443
0.0292714
0.0269757
0.0246342
0.0223065
0.0200418
0.0178766
0.0158412
0.0139522
0.0122242
0.0106545
0.00924679
0.00798061
0.00685879
0.00584416
0.00495362
0.00412171
0.00339535
0.0026478
0.00200401
0.0012188
0.000584787
-0.35317
-0.338204
-0.320723
-0.301604
-0.280889
-0.25867
-0.235208
-0.210836
-0.18595
-0.160962
-0.136304
-0.112408
-0.0896884
-0.0685052
-0.0491552
-0.03186
-0.016756
-0.00389264
0.00676087
0.0153048
0.0218941
0.0267228
0.0300083
0.0319798
0.0328625
0.0328629
0.0321556
0.0309182
0.0293034
0.0274336
0.0254055
0.0232975
0.0211714
0.0190789
0.0170596
0.0151475
0.0133627
0.0117228
0.0102278
0.00888359
0.00767178
0.00659603
0.00562139
0.00476441
0.00396398
0.00326348
0.00254546
0.00192073
0.00116898
0.000541507
-0.356099
-0.341966
-0.325397
-0.306998
-0.28695
-0.265386
-0.242557
-0.218778
-0.194405
-0.169836
-0.145495
-0.121815
-0.0992006
-0.078013
-0.0585503
-0.0410385
-0.0256213
-0.0123588
-0.00123348
0.00783915
0.0149971
0.020417
0.0242997
0.0268581
0.0283077
0.0288505
0.0286547
0.0278786
0.0266776
0.0251779
0.023478
0.0216575
0.0197805
0.0179018
0.0160643
0.0143061
0.0126511
0.0111207
0.0097181
0.00845203
0.00730672
0.00628717
0.00536109
0.0045447
0.00378169
0.00311149
0.00242749
0.00182488
0.00111169
0.000493808
-0.355207
-0.341611
-0.326353
-0.309161
-0.290106
-0.269488
-0.247644
-0.224856
-0.201412
-0.177659
-0.154006
-0.130878
-0.108671
-0.0877377
-0.0683755
-0.0508139
-0.0352052
-0.021623
-0.0100681
-0.000477294
0.00726409
0.0133093
0.0178371
0.0210394
0.0231144
0.0242549
0.0246333
0.024385
0.023655
0.0225758
0.0212499
0.0197589
0.0181692
0.0165384
0.0149131
0.0133352
0.0118327
0.0104307
0.0091364
0.0079615
0.00689348
0.00593915
0.00506928
0.00429977
0.00357941
0.0029435
0.00229722
0.00171959
0.0010488
0.000444424
-0.350333
-0.33712
-0.323471
-0.307843
-0.290049
-0.270609
-0.250007
-0.228525
-0.206402
-0.183886
-0.161318
-0.139092
-0.117594
-0.0971747
-0.0781311
-0.0606978
-0.0450369
-0.0312381
-0.019324
-0.00925804
-0.000953531
0.00571453
0.0108983
0.014766
0.0174939
0.0192608
0.0202344
0.0205539
0.0203359
0.0197108
0.0187886
0.0176554
0.0163795
0.0150217
0.0136318
0.012255
0.0109233
0.00966566
0.00849299
0.00742042
0.006439
0.00555767
0.00475059
0.00403352
0.00336044
0.00276251
0.0021571
0.00160737
0.000981767
0.000395558
-0.341634
-0.328835
-0.316996
-0.303154
-0.286838
-0.268835
-0.249765
-0.229845
-0.209238
-0.188222
-0.167089
-0.146112
-0.125617
-0.10595
-0.087424
-0.0702869
-0.0547137
-0.0408113
-0.0286271
-0.0181535
-0.0093354
-0.00207872
0.00373944
0.00826165
0.0116411
0.0140369
0.0156065
0.0164942
0.0168103
0.0166614
0.0161599
0.0153999
0.014454
0.0133852
0.0122462
0.0110856
0.00993849
0.00883751
0.00779726
0.0068362
0.00594913
0.00514733
0.00440868
0.00374884
0.00312712
0.00257062
0.00200887
0.0014901
0.000911688
0.000348729
-0.329681
-0.317483
-0.307618
-0.295684
-0.280991
-0.264614
-0.247286
-0.229137
-0.210233
-0.190828
-0.171264
-0.151773
-0.132533
-0.113831
-0.0959924
-0.0792963
-0.0639382
-0.050045
-0.0376883
-0.0268906
-0.017629
-0.00984144
-0.00343515
0.00170555
0.00571086
0.00871918
0.0108727
0.0123086
0.0131499
0.0134881
0.013418
0.0130385
0.0124297
0.0116586
0.01078
0.00984521
0.00889228
0.00795701
0.00705744
0.00621518
0.00542879
0.00471196
0.00404644
0.00344796
0.00288119
0.00236939
0.00185381
0.00136912
0.000839349
0.000304782
-0.315654
-0.304257
-0.29638
-0.286342
-0.273329
-0.258692
-0.243216
-0.226924
-0.209806
-0.192088
-0.174104
-0.156134
-0.138284
-0.120708
-0.103698
-0.0875622
-0.0725283
-0.058748
-0.046317
-0.0352855
-0.0256617
-0.0174151
-0.0104826
-0.00477512
-0.000185988
0.00340356
0.00611826
0.00808451
0.00942089
0.0102336
0.0106002
0.0106061
0.010337
0.00986641
0.00925275
0.00854933
0.0077967
0.00703338
0.00628056
0.00556272
0.0048821
0.00425471
0.00366632
0.00313274
0.00262407
0.00215997
0.00169285
0.00124534
0.000765306
0.000263997
-0.301068
-0.290593
-0.284497
-0.276176
-0.264792
-0.251894
-0.238252
-0.223781
-0.20842
-0.192377
-0.175957
-0.159426
-0.14295
-0.126576
-0.110499
-0.0950196
-0.0803999
-0.0668234
-0.0544099
-0.0432341
-0.0333323
-0.024704
-0.0173142
-0.0110999
-0.00597728
-0.00184743
0.00139794
0.00387152
0.00568435
0.00694001
0.00773009
0.00812422
0.00819726
0.00802777
0.00768003
0.00721043
0.00666161
0.00607426
0.00547249
0.00488332
0.00431253
0.00377826
0.00327037
0.00280477
0.00235696
0.00194334
0.00152675
0.00111936
0.000689949
0.000226231
-0.287131
-0.277617
-0.272956
-0.266065
-0.256158
-0.244893
-0.232962
-0.220181
-0.206465
-0.192012
-0.177084
-0.161914
-0.146698
-0.131507
-0.116418
-0.101668
-0.0875369
-0.0742411
-0.0619269
-0.0506902
-0.040592
-0.0316585
-0.0238815
-0.0172224
-0.0116199
-0.00699441
-0.00325421
-0.000299958
0.00196906
0.00365113
0.00483593
0.00560558
0.00602238
0.00615581
0.00607401
0.00583848
0.00549489
0.00508589
0.00463811
0.00418074
0.00372298
0.00328488
0.00286035
0.0024654
0.00208092
0.00172029
0.00135612
0.000991564
0.000613569
0.00019107
-0.274393
-0.265834
-0.262279
-0.256518
-0.247896
-0.2381
-0.2277
-0.216431
-0.20421
-0.191221
-0.177683
-0.163784
-0.149714
-0.135619
-0.121515
-0.107543
-0.0939607
-0.0810107
-0.0688664
-0.0576437
-0.0474242
-0.0382582
-0.0301613
-0.0231184
-0.0170892
-0.0120137
-0.00781617
-0.00441094
-0.00170784
0.000383842
0.00195007
0.00307111
0.00381958
0.00425667
0.0044426
0.00444126
0.00430304
0.00407339
0.00378144
0.00345816
0.00311595
0.00277651
0.0024378
0.00211585
0.00179687
0.00149149
0.00118146
0.000862171
0.000536363
0.000157998
-0.26292
-0.255303
-0.252597
-0.247712
-0.240192
-0.231699
-0.222637
-0.212695
-0.20181
-0.190151
-0.177886
-0.165164
-0.152158
-0.139043
-0.125875
-0.112699
-0.099711
-0.0871613
-0.0752475
-0.0641043
-0.0538311
-0.044499
-0.0361454
-0.0287763
-0.0223721
-0.0168909
-0.0122736
-0.00844812
-0.00533502
-0.00285175
-0.000917768
0.000544533
0.00160599
0.00233492
0.00278841
0.00302307
0.00309086
0.00304095
0.0029058
0.00271818
0.00249349
0.00225482
0.00200405
0.00175715
0.00150561
0.00125752
0.00100319
0.000731287
0.000458428
0.000126482
-0.252635
-0.245943
-0.243862
-0.239638
-0.233081
-0.225745
-0.217841
-0.209051
-0.199353
-0.188891
-0.177783
-0.166146
-0.15413
-0.141905
-0.129592
-0.117195
-0.104831
-0.092727
-0.0810962
-0.0700896
-0.059823
-0.0503853
-0.0418331
-0.034192
-0.0274617
-0.021618
-0.0166179
-0.0124028
-0.00890457
-0.00604911
-0.00376192
-0.00196931
-0.0006023
0.000405786
0.00111553
0.0015849
0.00186037
0.00199139
0.00201397
0.00196311
0.00185747
0.00172127
0.00156027
0.00139024
0.00120788
0.00101889
0.000821678
0.000598969
0.000379839
9.5981e-05
-0.243454
-0.237675
-0.235969
-0.232205
-0.226517
-0.220218
-0.213317
-0.205537
-0.196904
-0.187522
-0.177464
-0.166823
-0.155729
-0.144333
-0.132779
-0.121114
-0.109378
-0.0977526
-0.0864482
-0.0756271
-0.0654195
-0.0559304
-0.0472326
-0.0393697
-0.0323588
-0.0261933
-0.0208454
-0.0162703
-0.0124111
-0.00920283
-0.00657747
-0.00446593
-0.00280199
-0.00152045
-0.000561571
0.000133012
0.000613635
0.000926449
0.00110811
0.00119526
0.00120995
0.00117761
0.00110787
0.00101624
0.000904544
0.000776191
0.000637358
0.000465338
0.000300722
6.60384e-05
-0.235353
-0.230508
-0.228866
-0.225365
-0.220461
-0.215065
-0.209002
-0.202097
-0.19441
-0.185998
-0.176899
-0.167187
-0.156968
-0.146366
-0.135516
-0.124519
-0.113394
-0.102267
-0.0913246
-0.0807293
-0.0706249
-0.0611309
-0.0523349
-0.044296
-0.037048
-0.0306001
-0.0249396
-0.0200351
-0.015841
-0.0123016
-0.00935554
-0.00693892
-0.0049887
-0.00344183
-0.00223931
-0.00132355
-0.000644223
-0.00015283
0.000187943
0.000414397
0.000551037
0.000624108
0.000647176
0.000635414
0.000595816
0.000529546
0.000450266
0.000330297
0.000220988
3.62485e-05
-0.228282
-0.224348
-0.222403
-0.219058
-0.21496
-0.210409
-0.205108
-0.199001
-0.192155
-0.184588
-0.176325
-0.167427
-0.157981
-0.148092
-0.137885
-0.127479
-0.116919
-0.106294
-0.0957458
-0.0854187
-0.0754636
-0.0660131
-0.057168
-0.0490016
-0.0415622
-0.0348736
-0.0289369
-0.0237338
-0.0192298
-0.0153788
-0.0121271
-0.00941644
-0.00718774
-0.00538056
-0.00393702
-0.00280046
-0.0019208
-0.00125035
-0.000750366
-0.000383692
-0.000123039
5.78416e-05
0.000176017
0.000246217
0.000280465
0.000277998
0.000259503
0.000193102
0.00014
5.86084e-06
-0.223045
-0.219655
-0.2166
-0.213007
-0.20944
-0.205505
-0.200884
-0.19558
-0.189599
-0.182922
-0.175556
-0.167542
-0.158937
-0.149822
-0.140288
-0.130439
-0.120377
-0.110211
-0.100059
-0.0900253
-0.0802483
-0.0708652
-0.0619885
-0.0537061
-0.046082
-0.0391556
-0.0329431
-0.0274396
-0.0226229
-0.0184575
-0.0148987
-0.0118949
-0.00939072
-0.00732752
-0.00564706
-0.00429231
-0.00321256
-0.00236097
-0.00169842
-0.00118869
-0.000802432
-0.000512884
-0.000298924
-0.0001462
-3.74761e-05
2.43183e-05
6.71908e-05
5.4557e-05
5.87061e-05
-2.58395e-05
-0.218583
-0.217383
-0.213169
-0.209504
-0.2061
-0.20227
-0.197821
-0.192751
-0.187041
-0.180671
-0.173642
-0.165983
-0.157746
-0.149002
-0.139837
-0.13035
-0.120636
-0.11079
-0.100923
-0.0911488
-0.0815977
-0.0723981
-0.063659
-0.0554688
-0.047894
-0.0409782
-0.0347429
-0.0291887
-0.0242981
-0.020039
-0.0163698
-0.0132432
-0.0106096
-0.00841791
-0.00661629
-0.00515211
-0.00397458
-0.00303554
-0.00229229
-0.00170759
-0.00125006
-0.00089518
-0.000619951
-0.000413256
-0.000253556
-0.000148654
-6.26585e-05
-3.99746e-05
5.2042e-06
-4.79067e-05
-0.214016
-0.213559
-0.209518
-0.20601
-0.202782
-0.199097
-0.194789
-0.189876
-0.184348
-0.178183
-0.171381
-0.163969
-0.155995
-0.147523
-0.138635
-0.129423
-0.119977
-0.110391
-0.10077
-0.091228
-0.0818873
-0.0728699
-0.064282
-0.0562108
-0.048723
-0.0418642
-0.0356585
-0.03011
-0.0252048
-0.0209147
-0.0172013
-0.0140209
-0.0113272
-0.00907246
-0.00720728
-0.00568114
-0.00444423
-0.00344931
-0.00265362
-0.00202051
-0.00151812
-0.00112285
-0.000810569
-0.000571397
-0.00038152
-0.000250819
-0.000139492
-9.54811e-05
-2.66151e-05
-6.05692e-05
-0.209177
-0.209354
-0.205599
-0.202187
-0.199095
-0.195561
-0.191399
-0.186645
-0.181301
-0.175348
-0.168782
-0.161627
-0.153927
-0.145742
-0.137146
-0.128224
-0.119065
-0.109758
-0.100407
-0.0911192
-0.082011
-0.0731984
-0.064784
-0.0568534
-0.0494733
-0.0426904
-0.0365313
-0.0310032
-0.026096
-0.0217855
-0.0180375
-0.0148119
-0.0120652
-0.00975234
-0.00782605
-0.00623782
-0.00493948
-0.00388548
-0.0030339
-0.00234922
-0.00179941
-0.00136159
-0.00101056
-0.000737352
-0.000516085
-0.000358192
-0.000220565
-0.000153733
-6.05733e-05
-7.35075e-05
-0.204522
-0.205141
-0.201706
-0.198376
-0.195399
-0.192021
-0.188015
-0.183425
-0.17827
-0.17253
-0.166201
-0.159303
-0.151877
-0.143977
-0.135671
-0.12704
-0.118167
-0.10914
-0.100058
-0.0910233
-0.082147
-0.0735391
-0.0652988
-0.0575098
-0.0502386
-0.0435332
-0.0374221
-0.0319158
-0.0270078
-0.0226779
-0.0188957
-0.0156247
-0.0128246
-0.0104527
-0.0084641
-0.0068125
-0.0054514
-0.00433695
-0.00342809
-0.00269042
-0.00209172
-0.00160993
-0.00121875
-0.000910165
-0.000656275
-0.000469993
-0.000305029
-0.000214273
-9.60475e-05
-8.6663e-05
-0.199868
-0.200859
-0.197769
-0.194537
-0.191667
-0.188451
-0.184614
-0.180195
-0.175231
-0.169706
-0.163615
-0.156974
-0.149821
-0.142205
-0.134189
-0.125849
-0.117263
-0.108517
-0.0997036
-0.0909229
-0.0822794
-0.0738778
-0.0658136
-0.0581688
-0.0510093
-0.0443841
-0.0383238
-0.0328417
-0.0279349
-0.023587
-0.0197716
-0.0164556
-0.0136018
-0.0111705
-0.00911896
-0.00740326
-0.00597852
-0.00480267
-0.00383543
-0.00304355
-0.00239468
-0.00186758
-0.00143495
-0.00108972
-0.000802011
-0.000586194
-0.000392851
-0.000277115
-0.000132997
-0.000100065
-0.195199
-0.196512
-0.193764
-0.190647
-0.187878
-0.184825
-0.181165
-0.176926
-0.172155
-0.166847
-0.160995
-0.154611
-0.14773
-0.140399
-0.132674
-0.124625
-0.116328
-0.107864
-0.0993225
-0.0907979
-0.0823899
-0.0741978
-0.0663135
-0.0588169
-0.0517735
-0.0452328
-0.0392274
-0.0337733
-0.028871
-0.0245079
-0.0206612
-0.0173017
-0.0143952
-0.0119049
-0.00979047
-0.00801027
-0.00652119
-0.00528296
-0.00425617
-0.00340881
-0.00270843
-0.0021347
-0.00165931
-0.00127617
-0.000953446
-0.000706918
-0.000484162
-0.000342331
-0.000171503
-0.000113724
-0.190576
-0.192125
-0.1897
-0.186716
-0.184045
-0.181151
-0.177674
-0.173619
-0.169045
-0.163955
-0.158342
-0.152217
-0.145608
-0.13856
-0.131126
-0.123369
-0.115362
-0.107182
-0.0989133
-0.0906467
-0.0824763
-0.0744965
-0.0667956
-0.0594512
-0.0525281
-0.0460763
-0.0401301
-0.034708
-0.0298136
-0.0254383
-0.0215629
-0.0181617
-0.0152038
-0.0126552
-0.010478
-0.00863314
-0.00707914
-0.00577764
-0.00469021
-0.00378615
-0.00303297
-0.00241129
-0.00189186
-0.00146954
-0.00111063
-0.000832209
-0.000579011
-0.000409937
-0.000211598
-0.000127631
-0.185999
-0.18771
-0.185589
-0.182752
-0.180181
-0.177439
-0.174149
-0.170284
-0.165909
-0.161038
-0.155665
-0.149797
-0.14346
-0.136694
-0.129549
-0.122085
-0.114368
-0.106472
-0.0984772
-0.0904696
-0.0825384
-0.0747733
-0.0672587
-0.0600701
-0.0532713
-0.0469126
-0.0410297
-0.0356435
-0.0307608
-0.0263764
-0.0224748
-0.0190339
-0.016026
-0.01342
-0.0111806
-0.00927098
-0.00765165
-0.00628618
-0.00513716
-0.00417528
-0.00336812
-0.00269724
-0.00213253
-0.00166979
-0.00127355
-0.000962046
-0.000677394
-0.000479918
-0.000253277
-0.000141776
-0.18145
-0.183279
-0.181444
-0.178766
-0.176297
-0.173702
-0.170597
-0.166928
-0.162754
-0.158102
-0.152968
-0.147355
-0.141289
-0.134804
-0.127948
-0.120774
-0.113347
-0.105735
-0.0980142
-0.0902662
-0.0825754
-0.0750267
-0.067701
-0.0606714
-0.0540006
-0.047739
-0.0419235
-0.0365773
-0.0317099
-0.0273197
-0.0233947
-0.0199163
-0.0168601
-0.0141979
-0.0118969
-0.00992271
-0.00823785
-0.00680787
-0.00559649
-0.00457582
-0.00371358
-0.00299233
-0.00238118
-0.00187682
-0.00144212
-0.00109637
-0.000779276
-0.000552238
-0.000296523
-0.000156149
-0.17693
-0.178844
-0.177276
-0.174764
-0.172401
-0.169948
-0.167028
-0.163556
-0.159586
-0.155152
-0.150255
-0.144897
-0.139099
-0.132894
-0.126324
-0.11944
-0.1123
-0.104971
-0.0975243
-0.0900358
-0.0825859
-0.075255
-0.0681204
-0.0612527
-0.0547134
-0.0485528
-0.0428087
-0.0375064
-0.0326583
-0.0282656
-0.0243202
-0.0208069
-0.0177042
-0.0149871
-0.0126254
-0.0105871
-0.0088367
-0.00734189
-0.00606753
-0.00498724
-0.00406895
-0.00329626
-0.00263756
-0.00209044
-0.00161622
-0.00123508
-0.000884593
-0.000626844
-0.000341306
-0.000170743
-0.172449
-0.174419
-0.173096
-0.170758
-0.168506
-0.16619
-0.16345
-0.160176
-0.156411
-0.152195
-0.147533
-0.142428
-0.136896
-0.130967
-0.12468
-0.118083
-0.11123
-0.104182
-0.0970078
-0.0897782
-0.0825692
-0.0754569
-0.068515
-0.0618118
-0.0554071
-0.049351
-0.0436823
-0.038428
-0.0336028
-0.0292114
-0.0252487
-0.021703
-0.018556
-0.0157857
-0.0133643
-0.0112626
-0.00944696
-0.00788719
-0.00654945
-0.00540886
-0.0044337
-0.0036086
-0.00290136
-0.00231039
-0.00179565
-0.00137802
-0.000993238
-0.000703653
-0.000387574
-0.00018555
-0.168015
-0.170012
-0.168917
-0.166756
-0.16462
-0.162438
-0.159874
-0.156797
-0.153236
-0.149237
-0.144808
-0.139953
-0.134684
-0.129028
-0.123021
-0.116708
-0.110138
-0.10337
-0.0964653
-0.0894933
-0.0825246
-0.0756312
-0.0688833
-0.0623464
-0.0560791
-0.050131
-0.0445414
-0.0393389
-0.0345406
-0.030154
-0.0261773
-0.0226021
-0.0194132
-0.0165915
-0.0141118
-0.0119476
-0.0100672
-0.00844255
-0.0070412
-0.00583984
-0.00480713
-0.00392879
-0.00317213
-0.00253634
-0.00198014
-0.00152498
-0.00110506
-0.000782555
-0.000435253
-0.00020056
-0.163636
-0.165635
-0.164751
-0.16277
-0.160756
-0.158705
-0.15631
-0.153427
-0.150072
-0.146287
-0.142088
-0.137478
-0.132468
-0.127081
-0.121351
-0.115317
-0.109027
-0.102534
-0.0958981
-0.0891816
-0.0824519
-0.075777
-0.0692236
-0.0628547
-0.0567271
-0.05089
-0.045383
-0.0402359
-0.0354683
-0.0310902
-0.0271029
-0.0235012
-0.020273
-0.017402
-0.0148657
-0.01264
-0.0106956
-0.00900648
-0.00754154
-0.00627912
-0.0051884
-0.00425612
-0.00344931
-0.0027678
-0.00216934
-0.00167568
-0.00121984
-0.000863402
-0.000484245
-0.000215763
-0.159321
-0.161302
-0.160612
-0.158812
-0.156924
-0.155001
-0.15277
-0.150078
-0.146925
-0.143352
-0.13938
-0.135011
-0.130256
-0.125133
-0.119673
-0.113915
-0.1079
-0.10168
-0.0953076
-0.0888439
-0.0823512
-0.0758937
-0.0695347
-0.0633347
-0.0573487
-0.0516251
-0.0462038
-0.0411159
-0.0363826
-0.0320167
-0.0280223
-0.0243973
-0.0211324
-0.0182144
-0.0156234
-0.0133378
-0.0113303
-0.00957728
-0.00804901
-0.00672547
-0.00557643
-0.00458974
-0.00373216
-0.0030042
-0.00236277
-0.00182976
-0.00133732
-0.000946005
-0.00053442
-0.000231146
-0.155087
-0.157029
-0.156515
-0.154896
-0.153138
-0.151342
-0.149268
-0.146761
-0.143808
-0.140444
-0.136693
-0.132561
-0.128053
-0.123189
-0.117995
-0.112506
-0.106762
-0.100808
-0.094696
-0.0884813
-0.0822228
-0.0759809
-0.0698156
-0.0637848
-0.0579416
-0.0523337
-0.047001
-0.0419754
-0.0372801
-0.0329299
-0.0289319
-0.0252868
-0.0219883
-0.0190258
-0.0163822
-0.0140383
-0.011969
-0.010153
-0.00856186
-0.00717737
-0.00596997
-0.00492856
-0.00401982
-0.00324483
-0.00255985
-0.00198675
-0.00145715
-0.00103013
-0.000585618
-0.000246688
-0.150948
-0.152831
-0.152475
-0.151034
-0.149411
-0.147739
-0.145817
-0.143489
-0.14073
-0.137571
-0.134037
-0.130134
-0.12587
-0.121258
-0.116323
-0.111097
-0.105616
-0.0999232
-0.0940659
-0.0880957
-0.0820677
-0.0760387
-0.0700656
-0.0642035
-0.0585038
-0.0530132
-0.0477714
-0.0428111
-0.0381569
-0.0338261
-0.0298279
-0.0261661
-0.0228369
-0.0198328
-0.0171389
-0.0147386
-0.0126092
-0.0107312
-0.00907806
-0.00763308
-0.00636751
-0.0052713
-0.00431121
-0.00348878
-0.00275988
-0.0021461
-0.00157889
-0.00111548
-0.000637644
-0.000262365
-0.146919
-0.148726
-0.148509
-0.147244
-0.145757
-0.144209
-0.142431
-0.140274
-0.137705
-0.134746
-0.131422
-0.127743
-0.123713
-0.119346
-0.114663
-0.109692
-0.104468
-0.0990293
-0.0934205
-0.0876893
-0.0818873
-0.0760677
-0.0702843
-0.0645897
-0.0590334
-0.0536609
-0.0485119
-0.0436194
-0.0390095
-0.0347013
-0.0307064
-0.0270312
-0.0236746
-0.0206317
-0.01789
-0.0154356
-0.0132478
-0.0113093
-0.00959527
-0.00809053
-0.00676727
-0.00561645
-0.00460505
-0.00373501
-0.00296198
-0.00230712
-0.00170203
-0.00120171
-0.00069026
-0.000278137
-0.143018
-0.144732
-0.144637
-0.143541
-0.142193
-0.140766
-0.139126
-0.137133
-0.134746
-0.131981
-0.128861
-0.125397
-0.121594
-0.117463
-0.113023
-0.108299
-0.103323
-0.0981314
-0.0927638
-0.0872652
-0.0816835
-0.0760688
-0.0704717
-0.0649425
-0.0595287
-0.0542746
-0.0492195
-0.0443969
-0.0398339
-0.0355513
-0.031563
-0.0278777
-0.024497
-0.0214183
-0.0186317
-0.0161256
-0.0138816
-0.0118844
-0.0101108
-0.00854734
-0.00716716
-0.00596222
-0.00489982
-0.00398223
-0.00316513
-0.002469
-0.00182593
-0.00128838
-0.000743188
-0.000293951
-0.139262
-0.140871
-0.140878
-0.139945
-0.138735
-0.137428
-0.135919
-0.134081
-0.131868
-0.129289
-0.126365
-0.123108
-0.119523
-0.115619
-0.111412
-0.106926
-0.10219
-0.0972352
-0.0921005
-0.0868268
-0.0814588
-0.0760434
-0.0706284
-0.0652614
-0.0599883
-0.0548521
-0.0498914
-0.0451401
-0.0406261
-0.0363719
-0.0323932
-0.0287012
-0.0252995
-0.0221883
-0.0193597
-0.0168047
-0.0145067
-0.0124529
-0.0106215
-0.00900075
-0.00756477
-0.00630651
-0.00519374
-0.00422898
-0.00336808
-0.00263077
-0.00194985
-0.001375
-0.000796097
-0.000309735
-0.13567
-0.137162
-0.137254
-0.136474
-0.135401
-0.134212
-0.132827
-0.131135
-0.129087
-0.126686
-0.12395
-0.12089
-0.117513
-0.113825
-0.109841
-0.105582
-0.101074
-0.0963474
-0.091436
-0.0863785
-0.0812164
-0.0759936
-0.0707552
-0.0655463
-0.0604111
-0.0553912
-0.0505246
-0.0458454
-0.0413821
-0.0371585
-0.0331923
-0.0294965
-0.0260772
-0.0229366
-0.0200692
-0.0174682
-0.0151191
-0.013011
-0.0111239
-0.00944761
-0.00795731
-0.00664689
-0.00548472
-0.00447348
-0.00356941
-0.00279128
-0.0020729
-0.00146095
-0.000848606
-0.000325396
-0.132261
-0.133629
-0.133787
-0.133151
-0.132211
-0.131136
-0.12987
-0.128314
-0.12642
-0.124187
-0.121629
-0.118757
-0.115576
-0.112093
-0.108321
-0.104277
-0.0999863
-0.0954756
-0.0907769
-0.0859256
-0.0809603
-0.0759221
-0.0708536
-0.0657976
-0.0607963
-0.0558902
-0.0511165
-0.0465092
-0.0420976
-0.0379065
-0.0339552
-0.0302586
-0.0268248
-0.023658
-0.0207551
-0.0181112
-0.015714
-0.0135543
-0.0116141
-0.00988432
-0.00834158
-0.00698058
-0.00577037
-0.00471372
-0.00376742
-0.0029492
-0.00219405
-0.00154554
-0.000900271
-0.000340813
-0.129055
-0.130293
-0.130503
-0.129999
-0.129187
-0.128223
-0.127067
-0.125638
-0.123888
-0.121812
-0.119421
-0.116725
-0.113728
-0.110437
-0.106863
-0.103022
-0.0989356
-0.0946285
-0.0901303
-0.0854739
-0.080695
-0.0758322
-0.0709256
-0.0660159
-0.0611434
-0.0563474
-0.0516644
-0.0471282
-0.0427684
-0.038611
-0.0346765
-0.0309816
-0.0275362
-0.0243467
-0.0214116
-0.0187282
-0.016286
-0.014078
-0.0120873
-0.0103068
-0.00871393
-0.00730436
-0.0060479
-0.00494735
-0.00396018
-0.00310298
-0.00231211
-0.00162792
-0.00095058
-0.000355839
-0.126075
-0.127181
-0.127427
-0.127042
-0.126352
-0.125493
-0.124441
-0.123127
-0.12151
-0.11958
-0.117344
-0.114811
-0.111985
-0.108873
-0.105483
-0.10183
-0.0979333
-0.0938159
-0.0895048
-0.0850304
-0.0804261
-0.075728
-0.0709738
-0.0662023
-0.0614522
-0.0567614
-0.0521656
-0.0476985
-0.0433899
-0.0392667
-0.0353505
-0.0316595
-0.0282054
-0.0249961
-0.0220323
-0.0193129
-0.0168295
-0.0145764
-0.0125387
-0.0107104
-0.00907022
-0.00761457
-0.00631415
-0.00517167
-0.00414544
-0.00325083
-0.00242568
-0.00170715
-0.000998949
-0.000370293
-0.123344
-0.124318
-0.124588
-0.124308
-0.123733
-0.122973
-0.122017
-0.120808
-0.11931
-0.117512
-0.115419
-0.113035
-0.110366
-0.107417
-0.104195
-0.100715
-0.0969922
-0.093049
-0.0889099
-0.0846031
-0.0801599
-0.0756141
-0.0710014
-0.0663586
-0.0617229
-0.0571309
-0.0526176
-0.0482165
-0.0439575
-0.039868
-0.0359709
-0.0322856
-0.0288252
-0.0255993
-0.0226102
-0.0198586
-0.0173377
-0.0150434
-0.0129624
-0.0110898
-0.00940573
-0.00790708
-0.00656551
-0.00538363
-0.00432066
-0.0033907
-0.00253319
-0.00178211
-0.00104471
-0.000383961
-0.120887
-0.121735
-0.122017
-0.121829
-0.121358
-0.120691
-0.11982
-0.118705
-0.117314
-0.115635
-0.113668
-0.111419
-0.108891
-0.106088
-0.103018
-0.0996923
-0.0961267
-0.0923403
-0.0883564
-0.0842011
-0.0799037
-0.075496
-0.0710119
-0.0664865
-0.0619556
-0.0574546
-0.0530178
-0.0486782
-0.044466
-0.0404091
-0.0365311
-0.0328526
-0.0293881
-0.0261485
-0.0231376