/*--------------------------------*- C++ -*----------------------------------*\
  =========                 |
  \\      /  F ield         | OpenFOAM: The Open Source CFD Toolbox
   \\    /   O peration     | Website:  https://openfoam.org
    \\  /    A nd           | Version:  7
     \\/     M anipulation  |
\*---------------------------------------------------------------------------*/
FoamFile
{
    version     2.0;
    format      ascii;
    class       surfaceScalarField;
    location    "10";
    object      phi;
}
// * * * * * * * * * * * * * * * * * * * * * * * * * * * * * * * * * * * * * //

dimensions      [0 3 -1 0 0 0 0];

internalField   nonuniform List<scalar> 
11919
(
-0.0011934
0.000227018
4.46346e-10
-0.00144423
0.000250833
4.5402e-10
-0.0017188
0.00027457
4.41339e-10
-0.00201553
0.000296727
4.01374e-10
-0.00233082
0.000315287
3.27664e-10
-0.0026585
0.000327683
2.15202e-10
-0.00298944
0.000330933
6.07152e-11
-0.00331044
0.000321005
-1.32566e-10
-0.0036054
0.000294964
-3.59799e-10
-0.00385276
0.000247358
-6.07945e-10
-0.00402189
0.000169133
-8.62765e-10
-0.00411038
8.84851e-05
-1.08099e-09
-6.6832e-05
-1.24832e-09
-0.00404354
-0.0011396
0.000438649
-0.00137037
0.000481597
-0.00161914
0.000523345
-0.00188318
0.000560769
-0.00215767
0.00058977
-0.00243517
0.000605184
-0.0027056
0.000601363
-0.0029548
0.000570204
-0.00316619
0.000506359
-0.00332189
0.000403054
-0.0033816
0.000228848
-0.00335918
6.60575e-05
-0.000261888
-0.00316412
-0.00103584
0.000620868
-0.00122852
0.00067428
-0.00142876
0.000723585
-0.00163191
0.000763917
-0.00183124
0.000789102
-0.00201743
0.000791372
-0.0021792
0.00076313
-0.00230139
0.000692394
-0.00236624
0.000571211
-0.00236383
0.000400649
-0.00224248
0.000107494
-0.00203139
-0.000145031
-0.000657329
-0.00163595
-0.000889129
0.000762108
-0.00102934
0.000814493
-0.00116357
0.000857813
-0.00128511
0.000885456
-0.00138541
0.000889399
-0.0014534
0.000859365
-0.0014771
0.000786831
-0.00144139
0.000656687
-0.00132762
0.000457436
-0.00112879
0.000201824
-0.000807814
-0.000213484
-0.000361101
-0.000591744
-0.00125565
0.000237224
-0.000708701
-0.000786501
0.000892293
-0.000843452
0.000914763
-0.000871137
0.000913142
-0.000859786
0.000878048
-0.000797301
0.00079688
-0.000672071
0.000661602
-0.000468902
0.000453518
-0.000177605
0.000166139
0.000234973
-0.000210753
0.000749408
-0.00072792
0.00140424
-0.00124657
-0.0020801
0.00222868
-0.000514747
0.000902234
-0.000489133
0.000889149
-0.000418418
0.000842427
-0.000292373
0.000752003
-9.88721e-05
0.000603379
0.000172712
0.000390018
0.000541243
8.49873e-05
0.00100598
-0.000298603
0.0015986
-0.000803365
0.00231473
-0.00144406
0.00315017
-0.00208201
-0.00309816
0.00416823
-0.000227979
0.000842718
-0.0001193
0.00078047
4.85365e-05
0.000674591
0.000286475
0.000514065
0.000606626
0.000283228
0.00101599
-1.93455e-05
0.00153787
-0.000436893
0.00216175
-0.000922483
0.00292548
-0.0015671
0.0038127
-0.00233127
0.0048168
-0.00308612
-0.00425834
0.00597698
6.25558e-05
0.000714757
0.000252128
0.000590897
0.000513788
0.000412931
0.000857975
0.000169878
0.00129786
-0.000156661
0.00183781
-0.000559294
0.00250365
-0.00110273
0.003279
-0.00169783
0.00419959
-0.0024877
0.00522874
-0.00336041
0.00637847
-0.00423585
-0.00548626
0.0076064
0.000350026
0.000520137
0.000618019
0.000322904
0.000970449
6.05016e-05
0.00141833
-0.000278005
0.001975
-0.00071333
0.00264481
-0.0012291
0.00344741
-0.00190533
0.00436777
-0.00261819
0.00542464
-0.00354457
0.00655566
-0.00449143
0.00779469
-0.00547488
-0.0066865
0.00899493
0.000633379
0.000259328
0.000980006
-2.37228e-05
0.00142463
-0.000384121
0.00197894
-0.000832317
0.00265438
-0.00138877
0.00345623
-0.00203096
0.0043873
-0.00283639
0.00543365
-0.00366454
0.00658279
-0.00469371
0.00775489
-0.00566353
0.00898325
-0.00670324
-0.00776214
0.0100589
0.000918251
0.00134859
-0.000454058
0.00189207
-0.000927602
0.00255984
-0.00150009
0.00335698
-0.00218591
0.00428469
-0.00295866
0.00532142
-0.00387312
0.00644763
-0.00479075
0.00761392
-0.00586
0.00874406
-0.00679368
0.00984802
-0.0078072
-0.00864986
0.0107357
0.00173986
-0.000977657
0.00239149
-0.00157923
0.00317692
-0.00228552
0.00408849
-0.00309748
0.00511434
-0.00398451
0.00620715
-0.00496594
0.00733742
-0.00592102
0.00843061
-0.0069532
0.00943474
-0.00779781
0.0103409
-0.0087134
-0.00934479
0.0110359
0.0021691
-0.00160499
0.00293301
-0.00234313
0.00382642
-0.00317893
0.00482301
-0.00409407
0.00589193
-0.00505343
0.00696779
-0.0060418
0.00801684
-0.00697007
0.00896392
-0.00790028
0.00979426
-0.00862815
0.0105
-0.00941914
-0.00989137
0.0110466
0.00264136
-0.00233993
0.00350672
-0.0032085
0.00447597
-0.00414818
0.00550351
-0.0051216
0.00654301
-0.00609294
0.00752799
-0.00702677
0.00843392
-0.00787601
0.00920688
-0.00867324
0.00987095
-0.00929221
0.0104244
-0.00997263
-0.0103482
0.0108813
0.0031438
0.0040787
-0.0041434
0.00507046
-0.00513995
0.00606258
-0.00611372
0.00700648
-0.00703684
0.0078535
-0.00787379
0.00859875
-0.00862126
0.00921675
-0.00929124
0.00975821
-0.00983367
0.0102161
-0.0104305
-0.0107591
0.010627
0.00459895
-0.00509784
0.00555232
-0.00609332
0.00645214
-0.00701354
0.00726301
-0.00784771
0.0079643
-0.00857508
0.00856971
-0.00922666
0.00907535
-0.00979688
0.00953988
-0.0102982
0.00994118
-0.0108318
-0.0111493
0.0103314
0.00501924
0.00588473
-0.00695881
0.00666204
-0.00779085
0.00733707
-0.00852274
0.00791427
-0.00915228
0.00841595
-0.00972835
0.00884945
-0.0102304
0.0092672
-0.0107159
0.00963296
-0.0111976
-0.0115332
0.0100168
0.00606281
-0.00771108
0.00671622
-0.00844427
0.0072757
-0.00908221
0.00776015
-0.00963673
0.00819067
-0.0101589
0.00857962
-0.0106193
0.00896575
-0.0111021
0.00930812
-0.0115399
-0.011919
0.00969397
0.00610752
0.00665394
-0.00899069
0.00712516
-0.00955343
0.00754434
-0.0100559
0.00792693
-0.0105415
0.00828757
-0.01098
0.0086474
-0.0114619
0.00897437
-0.0118669
-0.0123079
0.00936324
0.0065128
-0.00945278
0.00691998
-0.00996061
0.00729347
-0.0104294
0.00764322
-0.0108912
0.00798428
-0.011321
0.00831841
-0.011796
0.00862734
-0.0121758
-0.0127102
0.00902966
0.0063192
0.00668043
-0.0103218
0.00702088
-0.0107699
0.00734686
-0.0112172
0.00767151
-0.0116457
0.00798726
-0.0121118
0.00830242
-0.012491
-0.0130183
0.00861054
0.00642418
-0.010649
0.00673909
-0.0110848
0.00704596
-0.0115241
0.0073537
-0.0119534
0.00765228
-0.0124104
0.00796993
-0.0128086
-0.0133258
0.00827741
0.00615673
0.00645047
-0.0113785
0.00674004
-0.0118136
0.00703073
-0.0122441
0.00731992
-0.0126996
0.00761745
-0.0131062
-0.013616
0.00790763
0.00615705
0.00642971
-0.0120863
0.00670531
-0.0125197
0.00697814
-0.0129724
0.00726283
-0.0133909
-0.0139025
0.00754939
0.00611597
0.00637464
-0.0127784
0.00663382
-0.0132316
0.00690406
-0.0136611
-0.0141682
0.00716973
0.00604067
0.00628367
-0.0134746
0.00653643
-0.0139139
-0.0144212
0.00678946
0.00592892
0.00616501
-0.0141499
-0.0146556
0.00639932
0.00578684
0.00600383
0.00578684
0.0141499
0.0146556
0.00600383
0.00592892
0.0134746
0.00616501
0.0139139
0.0144212
0.00639932
0.00604067
0.0127784
0.00628367
0.0132316
0.00653643
0.0136611
0.0141682
0.00678946
0.00611597
0.0120863
0.00637464
0.0125197
0.00663382
0.0129724
0.00690406
0.0133909
0.0139025
0.00716973
0.00615705
0.0113785
0.00642971
0.0118136
0.00670531
0.0122441
0.00697814
0.0126996
0.00726283
0.0131062
0.013616
0.00754939
0.00615673
0.010649
0.00645047
0.0110848
0.00674004
0.0115241
0.00703072
0.0119534
0.00731992
0.0124104
0.00761745
0.0128086
0.0133258
0.00790763
0.00642418
0.0103218
0.00673909
0.0107699
0.00704596
0.0112172
0.0073537
0.0116457
0.00765228
0.0121118
0.00796993
0.012491
0.0130183
0.00827741
0.0063192
0.00945278
0.00668043
0.00996061
0.00702088
0.0104294
0.00734686
0.0108912
0.00767151
0.011321
0.00798726
0.011796
0.00830242
0.0121758
0.0127102
0.00861053
0.0065128
0.00899069
0.00691998
0.00955343
0.00729347
0.0100559
0.00764322
0.0105415
0.00798428
0.01098
0.00831841
0.0114619
0.00862733
0.0118669
0.0123079
0.00902966
0.00610752
0.00771108
0.00665394
0.00844427
0.00712516
0.00908221
0.00754434
0.00963674
0.00792693
0.0101589
0.00828757
0.0106193
0.0086474
0.0111021
0.00897437
0.0115399
0.011919
0.00936324
0.00606281
0.00695881
0.00671622
0.00779085
0.0072757
0.00852274
0.00776015
0.00915228
0.00819067
0.00972835
0.00857962
0.0102304
0.00896575
0.010716
0.00930812
0.0111976
0.0115332
0.00969397
0.00501924
0.00509784
0.00588473
0.00609332
0.00666204
0.00701354
0.00733707
0.00784771
0.00791427
0.00857508
0.00841595
0.00922666
0.00884945
0.00979688
0.0092672
0.0102982
0.00963296
0.0108318
0.0111493
0.0100168
0.00459895
0.0041434
0.00555232
0.00513995
0.00645214
0.00611372
0.00726301
0.00703684
0.0079643
0.00787379
0.00856971
0.00862126
0.00907535
0.00929124
0.00953988
0.00983367
0.00994118
0.0104305
0.0107591
0.0103314
0.0031438
0.00233993
0.0040787
0.0032085
0.00507046
0.00414818
0.00606258
0.0051216
0.00700648
0.00609294
0.0078535
0.00702678
0.00859875
0.00787601
0.00921675
0.00867324
0.00975821
0.00929221
0.0102161
0.00997263
0.0103482
0.010627
0.00264136
0.00160499
0.00350672
0.00234313
0.00447597
0.00317893
0.00550351
0.00409407
0.00654302
0.00505343
0.00752799
0.0060418
0.00843392
0.00697007
0.00920688
0.00790028
0.00987095
0.00862815
0.0104244
0.00941914
0.00989137
0.0108813
0.0021691
0.000977657
0.00293301
0.00157923
0.00382642
0.00228552
0.00482301
0.00309748
0.00589193
0.00398451
0.00696779
0.00496594
0.00801684
0.00592102
0.00896392
0.0069532
0.00979426
0.00779781
0.0105
0.0087134
0.00934479
0.0110466
0.00173987
0.000454058
0.00239149
0.000927602
0.00317692
0.00150009
0.00408849
0.00218591
0.00511434
0.00295866
0.00620715
0.00387313
0.00733742
0.00479075
0.00843061
0.00586
0.00943474
0.00679368
0.0103409
0.0078072
0.00864986
0.0110359
0.000918252
-0.000259328
0.00134859
2.37226e-05
0.00189207
0.000384121
0.00255984
0.000832317
0.00335698
0.00138877
0.00428469
0.00203096
0.00532142
0.00283639
0.00644763
0.00366455
0.00761392
0.00469371
0.00874406
0.00566354
0.00984802
0.00670324
0.00776214
0.0107357
0.00063338
-0.000520137
0.000980007
-0.000322904
0.00142463
-6.05017e-05
0.00197894
0.000278006
0.00265438
0.00071333
0.00345623
0.0012291
0.0043873
0.00190533
0.00543365
0.00261819
0.00658279
0.00354457
0.00775489
0.00449143
0.00898326
0.00547488
0.0066865
0.0100589
0.000350027
-0.000714757
0.00061802
-0.000590898
0.000970449
-0.000412931
0.00141833
-0.000169878
0.001975
0.000156661
0.00264481
0.000559294
0.00344741
0.00110273
0.00436777
0.00169783
0.00542464
0.0024877
0.00655566
0.00336042
0.00779469
0.00423585
0.00548626
0.00899493
6.25563e-05
-0.000842719
0.000252129
-0.00078047
0.000513789
-0.000674591
0.000857975
-0.000514065
0.00129786
-0.000283227
0.00183781
1.93459e-05
0.00250365
0.000436894
0.003279
0.000922484
0.00419959
0.0015671
0.00522874
0.00233127
0.00637847
0.00308612
0.00425834
0.0076064
-0.000227979
-0.000902234
-0.000119299
-0.000889149
4.85371e-05
-0.000842427
0.000286475
-0.000752003
0.000606627
-0.000603379
0.00101599
-0.000390018
0.00153787
-8.49865e-05
0.00216175
0.000298604
0.00292548
0.000803367
0.0038127
0.00144406
0.0048168
0.00208201
0.00309816
0.00597698
-0.000514747
-0.000892294
-0.000489132
-0.000914764
-0.000418417
-0.000913142
-0.000292372
-0.000878048
-9.88713e-05
-0.00079688
0.000172713
-0.000661602
0.000541244
-0.000453517
0.00100599
-0.000166137
0.0015986
0.000210754
0.00231473
0.000727922
0.00315017
0.00124657
0.0020801
0.00416823
-0.000708701
-0.000762109
-0.000786501
-0.000814494
-0.000843451
-0.000857814
-0.000871137
-0.000885457
-0.000859786
-0.0008894
-0.0007973
-0.000859365
-0.000672071
-0.000786831
-0.000468901
-0.000656687
-0.000177603
-0.000457435
0.000234974
-0.000201823
0.000749409
0.000213486
0.00140424
0.000591746
0.00125566
0.00222868
-0.000889128
-0.000620869
-0.00102934
-0.000674281
-0.00116357
-0.000723586
-0.00128511
-0.000763918
-0.0013854
-0.000789102
-0.0014534
-0.000791373
-0.0014771
-0.00076313
-0.00144139
-0.000692394
-0.00132762
-0.00057121
-0.00112879
-0.000400648
-0.000807813
-0.000107492
-0.0003611
0.000145033
0.000657331
0.000237225
-0.00103584
-0.00043865
-0.00122852
-0.000481598
-0.00142876
-0.000523346
-0.00163191
-0.00056077
-0.00183124
-0.000589771
-0.00201743
-0.000605185
-0.0021792
-0.000601363
-0.00230139
-0.000570204
-0.00236624
-0.000506358
-0.00236383
-0.000403053
-0.00224248
-0.000228846
-0.00203139
-6.60553e-05
0.00026189
-0.00163595
-0.0011396
-0.000227019
-0.00137037
-0.000250833
-0.00161914
-0.000274571
-0.00188318
-0.000296728
-0.00215767
-0.000315287
-0.00243517
-0.000327684
-0.0027056
-0.000330933
-0.0029548
-0.000321004
-0.00316619
-0.000294963
-0.00332189
-0.000247357
-0.0033816
-0.000169131
-0.00335918
-8.84829e-05
6.68345e-05
-0.00316412
-0.0011934
-0.00144423
-0.0017188
-0.00201553
-0.00233082
-0.0026585
-0.00298944
-0.00331044
-0.0036054
-0.00385276
-0.00402189
-0.00411038
-0.00404354
-0.00388903
-0.000154514
-6.30596e-10
-0.00370601
-0.000183015
-6.49782e-10
-0.00349405
-0.000211965
-6.58198e-10
-0.00325232
-0.000241728
-6.54714e-10
-0.00298048
-0.000271838
-6.38102e-10
-0.00267875
-0.000301726
-6.07301e-10
-0.0023479
-0.000330849
-5.61854e-10
-0.00198888
-0.000359018
-5.01949e-10
-0.00160427
-0.000384614
-4.28674e-10
-0.00119641
-0.000407861
-3.43482e-10
-0.000768596
-0.000427812
-2.48494e-10
-0.000322879
-0.000445717
-1.47988e-10
0.000135009
-0.000457889
-4.1598e-11
0.000601315
-0.000466306
6.16019e-11
0.00107179
-0.000470473
1.60592e-10
0.00154203
-0.000470245
2.52078e-10
0.0020078
-0.000465767
3.32391e-10
0.00246512
-0.000457316
3.98788e-10
0.00291041
-0.000445291
4.49401e-10
0.0033406
-0.000430191
4.83246e-10
0.00375319
-0.00041259
5.0026e-10
0.0041463
-0.000393118
5.01149e-10
0.00451871
-0.000372406
4.87209e-10
0.00486958
-0.000350876
4.60379e-10
0.00519857
-0.000328988
4.23012e-10
0.00550573
-0.000307163
3.77555e-10
0.00579147
-0.000285734
3.26536e-10
0.00605642
-0.000264956
2.72441e-10
0.00630143
-0.000245003
2.17626e-10
0.0065274
-0.000225978
1.64191e-10
0.00673536
-0.00020796
1.13853e-10
0.00692637
-0.000191002
6.79422e-11
0.00710156
-0.000175191
2.73692e-11
0.00726214
-0.000160579
-7.28004e-12
0.0074094
-0.000147264
-3.5859e-11
0.00754462
-0.000135221
-5.84583e-11
0.00766914
-0.000124516
-7.53504e-11
0.0077841
-0.000114962
-8.70458e-11
0.00789074
-0.000106645
-9.39673e-11
0.00798987
-9.91301e-05
-9.68033e-11
0.00808262
-9.27413e-05
-9.56841e-11
0.00816933
-8.67184e-05
-9.12449e-11
0.00825152
-8.21902e-05
-8.32946e-11
0.00832873
-7.72045e-05
-7.27849e-11
0.00840299
-7.42652e-05
-5.96918e-11
0.00847058
-6.75833e-05
-4.6026e-11
0.00853482
-6.42443e-05
-3.25732e-11
0.00858536
-5.05345e-05
-2.04408e-11
0.0086322
-4.68455e-05
-1.23522e-11
-2.34711e-05
-2.50943e-12
-0.00301108
-0.000307552
-0.00283295
-0.000361146
-0.00262719
-0.000417728
-0.00239339
-0.00047553
-0.00213137
-0.000533854
-0.00184137
-0.000591725
-0.00152422
-0.000648
-0.00118094
-0.000702306
-0.000813783
-0.000751766
-0.000425091
-0.000796554
-1.7452e-05
-0.000835451
0.000402316
-0.000865485
0.00083405
-0.000889622
0.00127315
-0.000905408
0.00171525
-0.00091257
0.00215612
-0.00091112
0.00259173
-0.000901369
0.00301831
-0.000883905
0.00343258
-0.000859557
0.00383172
-0.000829332
0.00421349
-0.000794361
0.00457623
-0.000755859
0.0049189
-0.000715072
0.00524097
-0.000672948
0.00554221
-0.000630228
0.0058228
-0.00058775
0.00608321
-0.000546146
0.00632414
-0.00050589
0.00654645
-0.000467306
0.00675104
-0.000430571
0.0069389
-0.000395823
0.00711106
-0.000363156
0.00726861
-0.000332744
0.00741272
-0.000304689
0.00754465
-0.000279192
0.00766562
-0.000256198
0.00777694
-0.000235837
0.00787971
-0.000217726
0.00797509
-0.000202027
0.00806383
-0.00018787
0.00814697
-0.000175881
0.0082248
-0.000164544
0.00829869
-0.00015608
0.00836815
-0.000146672
0.00843515
-0.000141263
0.00849615
-0.000128586
0.00855436
-0.000122454
0.00860005
-9.62161e-05
0.00864254
-8.93427e-05
-4.43897e-05
-0.00148683
-0.000456675
-0.00131693
-0.000531046
-0.00112356
-0.000611093
-0.000905622
-0.000693471
-0.000662979
-0.000776497
-0.000395834
-0.000858869
-0.000104588
-0.000939246
0.000207166
-0.00101406
0.000539238
-0.00108384
0.000889399
-0.00114671
0.00125475
-0.0012008
0.0016334
-0.00124413
0.0020205
-0.00127673
0.00241244
-0.00129734
0.0028054
-0.00130553
0.00319561
-0.00130133
0.00357948
-0.00128524
0.00395372
-0.00125815
0.00431549
-0.00122132
0.00466241
-0.00117625
0.00499263
-0.00112458
0.00530483
-0.00106805
0.00559818
-0.00100843
0.0058725
-0.000947267
0.00612785
-0.000885575
0.0063645
-0.000824407
0.00658306
-0.0007647
0.00678426
-0.00070709
0.00696896
-0.000652005
0.00713805
-0.00059966
0.00729244
-0.000550215
0.00743307
-0.000503791
0.00756098
-0.000460648
0.00767724
-0.000420954
0.00778308
-0.000385028
0.00787968
-0.000352797
0.00796828
-0.000324443
0.00804993
-0.000299376
0.00812573
-0.000277819
0.00819631
-0.000258454
0.0082626
-0.000242172
0.00832476
-0.000226704
0.00838397
-0.000215286
0.00843969
-0.000202397
0.00849372
-0.00019529
0.00854292
-0.000177791
0.00859025
-0.000169785
0.00862716
-0.000133119
0.00866175
-0.000123935
-6.0668e-05
0.000377056
-0.000596507
0.000531984
-0.000685974
0.000705436
-0.000784545
0.000898488
-0.000886524
0.0011112
-0.000989207
0.00134353
-0.0010912
0.0015949
-0.00119061
0.00186495
-0.00128411
0.00215179
-0.00137068
0.00245312
-0.00144805
0.00276643
-0.00151411
0.00308929
-0.00156699
0.00341814
-0.00160558
0.0037497
-0.00162889
0.00408064
-0.00163647
0.00440776
-0.00162845
0.00472803
-0.00160551
0.00503875
-0.00156887
0.00533758
-0.00152016
0.00562264
-0.00146131
0.0058925
-0.00139445
0.00614618
-0.00132173
0.00638308
-0.00124533
0.00660309
-0.00116728
0.0068066
-0.00108908
0.00699395
-0.00101176
0.00716573
-0.000936485
0.00732269
-0.000864047
0.0074656
-0.000794918
0.00759525
-0.000729304
0.00771239
-0.000667356
0.0078178
-0.000609202
0.00791235
-0.000555203
0.00799704
-0.000505636
0.008073
-0.000460988
0.0081414
-0.000421202
0.00820348
-0.000386526
0.00826026
-0.000356152
0.00831278
-0.000330335
0.00836163
-0.000307305
0.00840761
-0.000288154
0.00845076
-0.000269859
0.00849204
-0.000256562
0.00853087
-0.000241231
0.00856883
-0.000233243
0.00860331
-0.000212271
0.00863693
-0.000203409
0.00866272
-0.000158908
0.00868722
-0.000148436
-7.10294e-05
0.00233886
-0.000706682
0.00247017
-0.000817292
0.00261699
-0.000931356
0.00277847
-0.00104801
0.00295488
-0.00116562
0.0031462
-0.00128253
0.00335196
-0.00139637
0.00357189
-0.00150405
0.00380429
-0.00160308
0.00404729
-0.00169104
0.00429881
-0.00176563
0.00455662
-0.00182481
0.00481812
-0.00186707
0.00508064
-0.00189142
0.0053416
-0.00189743
0.0055985
-0.00188535
0.00584904
-0.00185605
0.00609119
-0.00181102
0.00632323
-0.00175219
0.00654378
-0.00168186
0.00675182
-0.00160248
0.00694664
-0.00151656
0.00712782
-0.00142651
0.00729523
-0.00133468
0.00744917
-0.00124302
0.00759013
-0.00115272
0.00771851
-0.00106486
0.0078349
-0.000980443
0.00793992
-0.000899931
0.00803409
-0.000823476
0.00811791
-0.000751173
0.00819184
-0.000683134
0.00825648
-0.000619847
0.00831261
-0.000561763
0.00836125
-0.000509631
0.00840355
-0.000463496
0.00844074
-0.00042372
0.00847388
-0.000389294
0.00850403
-0.000360485
0.00853178
-0.000335055
0.00855786
-0.000314232
0.00858223
-0.000294232
0.00860563
-0.00027996
0.00862748
-0.000263079
0.00864909
-0.000254852
0.00866846
-0.000231641
0.00868783
-0.000222778
0.00870199
-0.000173068
0.00871581
-0.000162258
-7.51609e-05
0.00425542
-0.00079387
0.00435793
-0.000919809
0.00447237
-0.00104579
0.0045966
-0.00117223
0.0047307
-0.00129971
0.00487502
-0.00142685
0.00502927
-0.00155062
0.0051928
-0.00166758
0.00536442
-0.0017747
0.00554272
-0.00186935
0.00572616
-0.00194907
0.00591307
-0.00201171
0.00610165
-0.00205566
0.00629013
-0.0020799
0.00647679
-0.0020841
0.00666005
-0.00206861
0.00683846
-0.00203446
0.00701075
-0.0019833
0.00717586
-0.0019173
0.00733294
-0.00183894
0.00748133
-0.00175087
0.00762054
-0.00165577
0.00775024
-0.00155621
0.00787018
-0.00145462
0.00798038
-0.00135322
0.00808124
-0.00125358
0.00817299
-0.00115661
0.0082559
-0.00106335
0.00833031
-0.000974343
0.00839645
-0.000889608
0.00845441
-0.000809133
0.00850424
-0.000732972
0.00854613
-0.000661736
0.00858048
-0.000596115
0.0086081
-0.000537243
0.00863
-0.000485404
0.00864746
-0.000441173
0.00866156
-0.000403394
0.00867342
-0.000372351
0.0086837
-0.000345335
0.00869311
-0.00032364
0.0087016
-0.000302719
0.00870972
-0.000288082
0.00871691
-0.000270272
0.00872423
-0.000262169
0.00873024
-0.00023765
0.00873679
-0.00022933
0.00874043
-0.000176714
0.00874446
-0.000166281
-7.36588e-05
0.00604051
-0.000857396
0.00611234
-0.000991636
0.0061897
-0.00112316
0.00627146
-0.00125399
0.00635804
-0.00138629
0.00644998
-0.00151879
0.00654724
-0.00164788
0.00664934
-0.00176968
0.00675557
-0.00188092
0.00686512
-0.0019789
0.00697705
-0.002061
0.00709035
-0.00212502
0.00720409
-0.00216939
0.00731744
-0.00219325
0.00742968
-0.00219634
0.00754016
-0.00217909
0.00764829
-0.00214259
0.00775355
-0.00208857
0.00785548
-0.00201923
0.00795366
-0.00193712
0.00804768
-0.00184489
0.00813716
-0.00174526
0.00822175
-0.00164079
0.00830104
-0.00153392
0.00837472
-0.00142689
0.00844274
-0.0013216
0.00850528
-0.00121915
0.00856222
-0.0011203
0.00861358
-0.0010257
0.00865926
-0.000935297
0.00869902
-0.000848886
0.00873244
-0.00076639
0.0087592
-0.000688499
0.00877926
-0.00061617
0.00879303
-0.000551021
0.00880136
-0.000493732
0.00880542
-0.000445234
0.00880636
-0.000404326
0.00880535
-0.000371341
0.00880313
-0.000343121
0.00880046
-0.000320968
0.00879732
-0.000299573
0.00879413
-0.000284894
0.00879037
-0.000266513
0.00878684
-0.000258636
0.00878259
-0.000233404
0.00877909
-0.000225832
0.00877448
-0.000172101
0.00877067
-0.000162473
-6.78237e-05
0.00763732
-0.000888317
0.00767196
-0.00102628
0.00770704
-0.00115823
0.00774185
-0.0012888
0.00777719
-0.00142163
0.00781339
-0.00155499
0.00785019
-0.00168469
0.00788756
-0.00180704
0.00792593
-0.0019193
0.00796542
-0.00201839
0.00800581
-0.00210139
0.00804684
-0.00216604
0.00808836
-0.00221091
0.00813044
-0.00223532
0.00817323
-0.00223914
0.00821692
-0.00222277
0.00826161
-0.00218728
0.00830735
-0.00213431
0.00835406
-0.00206595
0.00840159
-0.00198464
0.00844962
-0.00189293
0.00849775
-0.00179338
0.00854545
-0.0016885
0.00859214
-0.0015806
0.00863716
-0.00147191
0.00867997
-0.00136441
0.00872042
-0.00125961
0.00875831
-0.00115818
0.00879326
-0.00106065
0.00882494
-0.000966975
0.00885281
-0.000876754
0.00887611
-0.000789689
0.00889407
-0.000706463
0.00890616
-0.000628262
0.00891238
-0.000557241
0.00891325
-0.000494603
0.00890981
-0.000441788
0.00890316
-0.000397681
0.00889455
-0.000362734
0.00888482
-0.000333383
0.00887475
-0.000310899
0.0088644
-0.000289229
0.00885414
-0.000274632
0.00884349
-0.00025586
0.008833
-0.000248145
0.00882211
-0.000222522
0.00881193
-0.000215647
0.00880188
-0.000162048
0.0087928
-0.000153394
-5.93815e-05
0.00898542
-0.000878808
0.00897644
-0.00101731
0.00896433
-0.00114612
0.00894863
-0.0012731
0.0089305
-0.0014035
0.00891035
-0.00153485
0.00888797
-0.00166231
0.00886342
-0.00178249
0.0088373
-0.00189317
0.0088109
-0.00199199
0.00878533
-0.00207582
0.00876115
-0.00214186
0.0087389
-0.00218866
0.00871928
-0.0022157
0.00870308
-0.00222293
0.00869101
-0.00221071
0.00868364
-0.00217991
0.00868131
-0.00213197
0.00868412
-0.00206876
0.00869194
-0.00199246
0.00870442
-0.0019054
0.008721
-0.00180996
0.00874095
-0.00170845
0.00876345
-0.00160311
0.00878758
-0.00149604
0.00881245
-0.00138927
0.00883737
-0.00128453
0.00886209
-0.0011829
0.0088861
-0.00108465
0.00890879
-0.00098967
0.00892949
-0.000897453
0.00894723
-0.000807429
0.00896093
-0.000720164
0.00896965
-0.000636984
0.00897297
-0.000560563
0.00897107
-0.000492699
0.00896475
-0.000435464
0.00895504
-0.000387975
0.0089432
-0.000350893
0.00893013
-0.000320315
0.0089167
-0.000297464
0.00890304
-0.000275574
0.00888949
-0.000261083
0.00887564
-0.00024201
0.00886184
-0.000234343
0.00884781
-0.000208488
0.00883429
-0.000202124
0.00882168
-0.000149443
0.00881004
-0.000141757
-5.02161e-05
0.0100093
-0.000829263
0.0099576
-0.000965555
0.00990035
-0.00108887
0.00983758
-0.00121033
0.00977072
-0.00133664
0.00970026
-0.00146438
0.00962625
-0.0015883
0.00954921
-0.00170545
0.00947012
-0.00181409
0.00939023
-0.0019121
0.00931141
-0.00199699
0.00923543
-0.00206589
0.00916353
-0.00211676
0.00909678
-0.00214895
0.00903626
-0.00216242
0.00898296
-0.0021574
0.00893759
-0.00213455
0.0089006
-0.00209498
0.00887209
-0.00204025
0.00885185
-0.00197222
0.00883941
-0.00189297
0.00883406
-0.00180461
0.00883489
-0.00170929
0.00884088
-0.00160909
0.00885092
-0.00150608
0.0088639
-0.00140226
0.00887886
-0.00129949
0.0088951
-0.00119915
0.00891228
-0.00110183
0.0089297
-0.00100708
0.00894654
-0.000914291
0.00896177
-0.000822661
0.00897416
-0.000732557
0.0089825
-0.000645322
0.00898601
-0.000564075
0.00898453
-0.000491218
0.0089786
-0.000429535
0.00896912
-0.000378497
0.0089573
-0.000339076
0.0089441
-0.000307115
0.00893043
-0.000283791
0.00891653
-0.000261671
0.00890272
-0.00024728
0.0088887
-0.000227983
0.00887463
-0.000220274
0.00886042
-0.000194276
0.00884651
-0.000188221
0.00883398
-0.000136905
0.00882232
-0.000130104
-4.21601e-05
0.0106569
-0.000750433
0.0105732
-0.0008818
0.0104823
-0.000998009
0.010385
-0.00111299
0.0102827
-0.00123441
0.0101762
-0.00135782
0.0100656
-0.00147776
0.00995204
-0.00159188
0.00983683
-0.00169888
0.00972148
-0.00179675
0.00960756
-0.00188307
0.0094974
-0.00195574
0.00939301
-0.00201237
0.00929579
-0.00205173
0.0092069
-0.00207352
0.00912735
-0.00207785
0.00905792
-0.00206512
0.00899903
-0.00203609
0.00895073
-0.00199196
0.00891277
-0.00193426
0.00888457
-0.00186477
0.00886534
-0.00178538
0.00885408
-0.00169803
0.00884965
-0.00160467
0.00885086
-0.00150729
0.00885651
-0.00140791
0.0088655
-0.00130848
0.00887692
-0.00121057
0.00889017
-0.00111508
0.00890482
-0.00102173
0.00892001
-0.000929483
0.00893468
-0.000837335
0.00894757
-0.000745446
0.00895732
-0.000655074
0.00896291
-0.000569666
0.00896387
-0.000492179
0.00896048
-0.000426142
0.00895346
-0.000371477
0.00894395
-0.000329561
0.0089329
-0.000296071
0.00892127
-0.000272159
0.00890939
-0.000249786
0.00889761
-0.000235498
0.00888569
-0.000216068
0.00887371
-0.000208291
0.00886167
-0.000182235
0.00884979
-0.000176343
0.00883951
-0.000126629
0.00883003
-0.000120623
-3.68666e-05
0.0109436
-0.000658162
0.0108442
-0.000782409
0.0107366
-0.000890445
0.0106221
-0.000998477
0.0105022
-0.00111453
0.0103776
-0.00123315
0.0102487
-0.00134892
0.010117
-0.00146014
0.00998394
-0.00156581
0.00985118
-0.00166399
0.00972039
-0.00175227
0.0095934
-0.00182874
0.00947266
-0.00189164
0.00935995
-0.00193902
0.0092565
-0.00197008
0.00916332
-0.00198468
0.00908119
-0.00198298
0.00901053
-0.00196543
0.00895141
-0.00193283
0.00890355
-0.0018864
0.0088664
-0.00182762
0.00883916
-0.00175814
0.00882084
-0.0016797
0.00881031
-0.00159413
0.00880637
-0.00150335
0.00880781
-0.00140935
0.0088135
-0.00131417
0.00882247
-0.00121954
0.00883397
-0.00112659
0.00884747
-0.00103522
0.00886241
-0.000944429
0.00887777
-0.000852694
0.00889226
-0.000759939
0.00890449
-0.0006673
0.00891327
-0.000578447
0.0089179
-0.000496809
0.0089184
-0.000426642
0.00891531
-0.000368385
0.00890965
-0.000323901
0.00890236
-0.000288782
0.00889439
-0.000264191
0.00888615
-0.000241548
0.00887804
-0.000227388
0.00886991
-0.000207936
0.00886175
-0.000200132
0.00885365
-0.000174128
0.00884565
-0.000168342
0.00883937
-0.000120351
0.00883384
-0.000115097
-3.57484e-05
0.010954
-0.00056557
0.0108532
-0.000681599
0.0107437
-0.000781003
0.0106272
-0.000881947
0.010505
-0.000992324
0.0103776
-0.00110574
0.0102457
-0.00121707
0.0101109
-0.00132528
0.00997464
-0.00142957
0.00983856
-0.00152791
0.00970436
-0.00161807
0.00957371
-0.0016981
0.00944872
-0.00176665
0.00933144
-0.00182173
0.00922329
-0.00186192
0.00912531
-0.0018867
0.00903832
-0.00189599
0.00896279
-0.0018899
0.00889886
-0.0018689
0.00884633
-0.00183387
0.00880473
-0.00178602
0.00877333
-0.00172675
0.00875124
-0.00165761
0.0087374
-0.00158029
0.00873069
-0.00149664
0.00872995
-0.00140861
0.00873409
-0.0013183
0.00874212
-0.00122757
0.00875328
-0.00113775
0.00876695
-0.00104889
0.00878257
-0.000960051
0.00879942
-0.000869546
0.00881626
-0.00077678
0.00883165
-0.000682692
0.00884432
-0.000591116
0.00885339
-0.000505875
0.00885865
-0.000431908
0.00886047
-0.0003702
0.00885973
-0.000323158
0.00885731
-0.00028637
0.00885417
-0.000261044
0.00885075
-0.000238133
0.00884751
-0.000224142
0.00884436
-0.000204793
0.00884129
-0.000197056
0.00883839
-0.000171236
0.00883564
-0.000165593
0.00883469
-0.000119398
0.00883451
-0.000114915
-3.99714e-05
0.0107952
-0.000479515
0.0107008
-0.000587129
0.0105978
-0.000678067
0.0104881
-0.000772247
0.0103727
-0.000876905
0.0102518
-0.000984797
0.0101261
-0.00109143
0.00999727
-0.00119641
0.00986668
-0.00129899
0.00973582
-0.00139705
0.00960626
-0.00148851
0.00947974
-0.00157158
0.00935784
-0.00164475
0.00924264
-0.00170653
0.00913575
-0.00175502
0.0090383
-0.00178925
0.00895116
-0.00180885
0.00887492
-0.00181366
0.00880981
-0.00180379
0.00875576
-0.00177982
0.00871243
-0.00174269
0.00867925
-0.00169356
0.00865544
-0.0016338
0.00864008
-0.00156493
0.00863216
-0.00148872
0.00863061
-0.00140707
0.0086344
-0.00132209
0.00864257
-0.00123575
0.00865436
-0.00114954
0.00866915
-0.00106368
0.00868639
-0.000977286
0.00870536
-0.000888517
0.0087251
-0.00079652
0.00874418
-0.00070178
0.00876126
-0.00060819
0.0087753
-0.000519917
0.00878593
-0.00044254
0.00879334
-0.000377603
0.00879827
-0.000328089
0.00880154
-0.000289644
0.00880406
-0.000263562
0.00880633
-0.0002404
0.00880882
-0.000226633
0.00881154
-0.000207512
0.00881445
-0.000199965
0.0088177
-0.000174486
0.0088212
-0.000169098
0.00882656
-0.000124762
0.00883278
-0.000121132
-5.04761e-05
0.0105497
-0.000402242
0.010464
-0.000501475
0.0103705
-0.000584546
0.0102711
-0.000672772
0.0101661
-0.000771939
0.0100555
-0.000874193
0.0099401
-0.000976045
0.00982136
-0.00107767
0.00970053
-0.00117815
0.00957889
-0.00127541
0.0094579
-0.00136752
0.00933917
-0.00145285
0.00922416
-0.00152973
0.00911451
-0.00159689
0.00901199
-0.0016525
0.00891787
-0.00169513
0.00883313
-0.00172411
0.00875844