/*--------------------------------*- C++ -*----------------------------------*\
  =========                 |
  \\      /  F ield         | OpenFOAM: The Open Source CFD Toolbox
   \\    /   O peration     | Website:  https://openfoam.org
    \\  /    A nd           | Version:  7
     \\/     M anipulation  |
\*---------------------------------------------------------------------------*/
FoamFile
{
    version     2.0;
    format      ascii;
    class       volVectorField;
    location    "10";
    object      U;
}
// * * * * * * * * * * * * * * * * * * * * * * * * * * * * * * * * * * * * * //

dimensions      [0 1 -1 0 0 0 0];

internalField   nonuniform List<vector> 
6050
(
(-0.2534 0.00789631 2.00417e-20)
(-0.285595 0.00813251 -2.78482e-20)
(-0.317176 0.00830595 1.64782e-20)
(-0.347871 0.00835052 8.73091e-21)
(-0.377165 0.00819001 3.21364e-21)
(-0.404311 0.00773987 -1.07155e-20)
(-0.428339 0.00691572 -6.23354e-21)
(-0.448029 0.00561272 -4.12443e-21)
(-0.462034 0.00378779 1.72068e-20)
(-0.468657 0.00131837 -2.00829e-20)
(-0.466244 -0.00193484 -4.15338e-21)
(-0.454423 -0.00500861 4.6511e-21)
(-0.427489 -0.0100288 -1.2809e-20)
(-0.244328 0.0233885 -8.74234e-20)
(-0.273618 0.0240418 5.40501e-20)
(-0.301711 0.0245009 -4.29219e-20)
(-0.328264 0.0245702 5.12883e-21)
(-0.3527 0.024026 -2.59642e-20)
(-0.374216 0.0226211 9.54401e-21)
(-0.391841 0.0201203 1.95591e-20)
(-0.404341 0.0162116 3.30054e-20)
(-0.410519 0.0107853 2.00636e-20)
(-0.408922 0.00359066 5.54418e-20)
(-0.397207 -0.00624345 4.99741e-21)
(-0.378122 -0.0148565 -4.33385e-20)
(-0.339193 -0.0301248 2.96853e-20)
(-0.226719 0.0380051 7.40563e-21)
(-0.250459 0.0389194 -2.07374e-20)
(-0.271953 0.0394942 4.25858e-20)
(-0.290753 0.039412 -1.30845e-20)
(-0.306202 0.0383172 1.55889e-20)
(-0.317445 0.0358153 -1.60461e-20)
(-0.323567 0.0315711 -3.11059e-20)
(-0.323337 0.0250766 -3.63795e-20)
(-0.315773 0.0161843 -4.49278e-20)
(-0.300467 0.00495854 -9.04768e-20)
(-0.272138 -0.0114704 3.28247e-20)
(-0.242834 -0.0244849 2.70738e-20)
(-0.183011 -0.049868 8.06307e-20)
(-0.201557 0.0512255 -6.25623e-21)
(-0.217572 0.0521678 -1.84073e-21)
(-0.230006 0.0526117 -1.22318e-19)
(-0.238329 0.0521325 -5.91673e-20)
(-0.241862 0.0502677 2.80442e-20)
(-0.239736 0.0464926 3.35753e-21)
(-0.23124 0.040442 2.85543e-20)
(-0.215207 0.0314407 -8.75289e-20)
(-0.190543 0.0192921 3.42665e-20)
(-0.159869 0.00485475 5.03776e-20)
(-0.110232 -0.0174455 5.70204e-20)
(-0.072125 -0.03562 -3e-20)
(0.0134841 -0.0666256 -6.59347e-20)
(-0.170145 0.0626077 -4.88826e-21)
(-0.176836 0.0632991 -2.06528e-21)
(-0.178525 0.0633283 2.48816e-20)
(-0.174663 0.0621844 3.75619e-20)
(-0.164647 0.0593331 -1.02676e-19)
(-0.147645 0.0541346 1.26734e-19)
(-0.123327 0.0462651 6.59642e-20)
(-0.0907522 0.0348975 1.0366e-19)
(-0.0478282 0.0200626 -2.47088e-21)
(-0.00301916 0.0015385 -2.5106e-20)
(0.0690496 -0.0229944 2.87828e-21)
(0.113937 -0.0483188 -3.63762e-20)
(0.226635 -0.0806568 -6.32452e-20)
(-0.130293 0.0719497 9.19725e-21)
(-0.120303 0.0712786 2.54804e-20)
(-0.103468 0.06922 2.07357e-19)
(-0.0793765 0.0652022 -9.63904e-22)
(-0.0472417 0.0585006 7.6543e-20)
(-0.00721892 0.0488669 -1.89459e-19)
(0.0412503 0.0351098 2.44334e-20)
(0.101648 0.0186242 -3.96452e-20)
(0.158888 -0.00506959 -3.15233e-20)
(0.253524 -0.0289944 2.9545e-20)
(0.301128 -0.060261 -6.3835e-20)
(0.441295 -0.0940928 6.19185e-20)
(-0.079866 0.0778849 -1.315e-19)
(-0.0578591 0.0762558 1.58497e-20)
(-0.0279358 0.0730818 -4.28627e-20)
(0.0100566 0.06775 6.79771e-20)
(0.0568861 0.0595148 -2.72148e-21)
(0.111835 0.04833 -6.59806e-20)
(0.175219 0.0319843 1.74059e-19)
(0.252091 0.0149208 -6.80864e-20)
(0.320713 -0.0132998 -5.74567e-20)
(0.435283 -0.036716 8.91511e-20)
(0.486299 -0.0717364 3.29469e-20)
(0.647565 -0.105894 1.38549e-19)
(-0.0270845 0.081003 4.00165e-19)
(0.0069486 0.0782106 5.6121e-21)
(0.0497771 0.0737827 -2.6478e-19)
(0.101303 0.0670773 -2.75455e-20)
(0.162407 0.0573149 -2.68006e-19)
(0.231664 0.0449774 1.29197e-19)
(0.309775 0.0261064 -9.71243e-20)
(0.401279 0.00906005 1.02151e-19)
(0.483641 -0.0224206 1.42771e-19)
(0.611025 -0.0451234 5.42127e-20)
(0.670218 -0.0824066 -1.49752e-19)
(0.839917 -0.114291 -1.24287e-19)
(0.0272026 0.0813465 -3.27126e-19)
(0.0733075 0.0772759 -9.47197e-20)
(0.12906 0.0715625 6.16647e-20)
(0.194162 0.0635891 1.14289e-19)
(0.269693 0.0524582 -3.5477e-20)
(0.353336 0.0393565 1.37587e-19)
(0.447055 0.0187104 7.93005e-21)
(0.550933 0.00161754 -1.52822e-19)
(0.649679 -0.0310101 9.84082e-21)
(0.780417 -0.05247 -2.12832e-19)
(0.851036 -0.0905048 4.02119e-20)
(1.011 -0.117243 -7.92993e-20)
(0.0831163 0.079132 1.52064e-19)
(0.141807 0.0738218 -1.26214e-19)
(0.211162 0.0669876 1.99588e-19)
(0.290783 0.0580522 1.99786e-19)
(0.381652 0.046005 2.62772e-19)
(0.480484 0.0325191 -2.54881e-19)
(0.590078 0.011502 2.27719e-20)
(0.704155 -0.00559079 2.23827e-19)
(0.816883 -0.0371348 -7.96131e-20)
(0.941252 -0.0566602 4.24764e-22)
(1.01934 -0.0936382 -5.76209e-21)
(1.1503 -0.113712 9.91101e-20)
(0.141974 0.0747947 -1.65101e-19)
(0.2146 0.0685276 -2.68843e-20)
(0.299148 0.0609888 -8.69547e-20)
(0.395035 0.051674 -5.90836e-20)
(0.502288 0.0395204 -1.41962e-19)
(0.616694 0.0262658 -7.03893e-20)
(0.739421 0.00634931 2.61607e-20)
(0.859892 -0.0101394 -1.39969e-19)
(0.976899 -0.0389959 1.54075e-20)
(1.08586 -0.0561771 6.81084e-21)
(1.15953 -0.0905251 -9.80066e-20)
(1.249 -0.104529 6.57672e-20)
(0.29513 0.0624022 -8.68384e-20)
(0.397045 0.0548939 2.76337e-19)
(0.510727 0.0460759 -3.17662e-19)
(0.633991 0.0348769 -2.90367e-19)
(0.76149 0.0226596 4.07053e-19)
(0.890364 0.00491992 -9.03414e-20)
(1.00935 -0.0103421 4.62986e-20)
(1.11676 -0.0359249 6.21946e-20)
(1.20253 -0.0509316 -5.38256e-20)
(1.2588 -0.0821568 1.45176e-19)
(1.30648 -0.0919857 1.7216e-19)
(0.387186 0.056776 1.37231e-19)
(0.508055 0.0503451 -1.58179e-19)
(0.638946 0.0430126 -6.71883e-20)
(0.77451 0.033753 2.2471e-19)
(0.907862 0.0231119 -2.96763e-19)
(1.03231 0.00793267 -1.70292e-20)
(1.13869 -0.00618313 1.22426e-19)
(1.22447 -0.0288266 -4.90317e-20)
(1.28264 -0.0424223 -5.98297e-20)
(1.31579 -0.0710229 7.60029e-21)
(1.33155 -0.0784295 -7.91501e-20)
(0.493274 0.0531876 -2.85555e-19)
(0.632261 0.0489357 1.70218e-19)
(0.77584 0.0438334 1.00015e-19)
(0.915652 0.0369349 -1.30767e-19)
(1.04371 0.0277132 2.07447e-19)
(1.15235 0.0146264 1.58886e-19)
(1.23644 0.000841678 -4.15878e-20)
(1.29504 -0.0195894 7.06115e-22)
(1.32718 -0.0327837 -6.86152e-21)
(1.34039 -0.059302 -1.88728e-19)
(1.33698 -0.065264 -2.49283e-19)
(0.612798 0.0530402 1.16012e-19)
(0.765019 0.0516755 -9.87474e-20)
(0.912452 0.0489046 7.07898e-20)
(1.04541 0.0438705 6.0899e-20)
(1.15676 0.0352331 -4.77993e-20)
(1.24147 0.0231817 1.07722e-19)
(1.29948 0.00880344 -1.20345e-19)
(1.33285 -0.00995655 1.43594e-19)
(1.34556 -0.0235223 2.73705e-19)
(1.34585 -0.0479651 1.32982e-19)
(1.33296 -0.0530156 2.03822e-19)
(0.897346 0.0585432 1.29644e-20)
(1.03734 0.057365 3.88294e-20)
(1.15279 0.0529457 -6.61948e-20)
(1.24 0.0438494 -1.68515e-19)
(1.29871 0.0318068 -6.00811e-21)
(1.33322 0.016414 2.01491e-19)
(1.34785 -0.00080653 -1.6772e-19)
(1.34875 -0.0151658 -3.7286e-19)
(1.34196 -0.0371458 -2.68169e-19)
(1.32518 -0.0418544 9.92367e-20)
(1.0186 0.0684394 -2.80725e-19)
(1.14089 0.0675192 2.13957e-19)
(1.23226 0.0623482 2.8582e-20)
(1.2939 0.0521075 7.31679e-20)
(1.32992 0.0395253 -1.62871e-19)
(1.34694 0.0233232 -4.68366e-20)
(1.34971 0.00768288 -4.22981e-20)
(1.34438 -0.00771329 4.69886e-20)
(1.33392 -0.0267 1.59571e-19)
(1.31628 -0.0318959 -3.18017e-19)
(1.21866 0.0776657 -1.0035e-19)
(1.28488 0.0708739 2.79804e-20)
(1.32426 0.0593782 -1.57961e-19)
(1.34333 0.0461779 -1.34748e-20)
(1.34888 0.0297161 3.12305e-20)
(1.34489 0.0155133 -2.20069e-20)
(1.33655 -0.000975678 3.05388e-19)
(1.32422 -0.0163982 5.81767e-21)
(1.30744 -0.0232932 3.00641e-19)
(1.27179 0.0867521 -3.76526e-20)
(1.3159 0.0781409 -1.31355e-19)
(1.33832 0.0656563 -2.37298e-19)
(1.34596 0.0520015 -6.19559e-21)
(1.3446 0.0358379 -1.06695e-19)
(1.33701 0.0226353 9.18482e-20)
(1.32731 0.00543074 -4.76716e-20)
(1.31397 -0.00604858 -3.41103e-19)
(1.2991 -0.016409 -1.27437e-19)
(1.33157 0.0842876 1.96502e-19)
(1.34216 0.0711714 2.98466e-19)
(1.3426 0.057305 -4.91905e-20)
(1.3373 0.0417869 7.16859e-20)
(1.32796 0.0290472 -2.49852e-20)
(1.3177 0.0120718 1.54897e-19)
(1.30372 0.00402521 7.56585e-20)
(1.29134 -0.0116792 8.49933e-20)
(1.33722 0.0896155 1.8849e-20)
(1.34002 0.0761758 8.08591e-20)
(1.33617 0.0623311 -1.49579e-20)
(1.32872 0.0475304 1.41924e-19)
(1.31866 0.0349646 1.51716e-20)
(1.3082 0.0192825 -3.59065e-19)
(1.2942 0.0125521 1.5542e-19)
(1.28322 -0.0104387 -1.41256e-19)
(1.33461 0.0808866 -3.14469e-20)
(1.32831 0.0672176 -3.31809e-20)
(1.31975 0.0530471 -2.44237e-20)
(1.30948 0.04074 1.4042e-19)
(1.29896 0.0265564 1.0497e-19)
(1.28552 0.0177915 3.05031e-20)
(1.27576 0.00308162 8.68002e-20)
(1.32755 0.0854359 -3.26478e-20)
(1.31988 0.072001 -1.26009e-20)
(1.31078 0.0583917 1.1482e-19)
(1.30054 0.046484 -6.0056e-20)
(1.29006 0.032686 -6.80312e-20)
(1.27749 0.025588 -1.53258e-19)
(1.26755 0.00917948 -9.90873e-20)
(1.3113 0.0767179 6.04017e-21)
(1.30198 0.0636357 -1.48477e-19)
(1.29185 0.0518232 3.6204e-20)
(1.28158 0.039259 -6.85539e-20)
(1.2695 0.0309895 -2.57664e-19)
(1.26042 0.0168215 1.34213e-19)
(1.29337 0.0686772 7.91986e-20)
(1.28343 0.0571871 -1.88558e-20)
(1.2733 0.0449057 2.3109e-19)
(1.262 0.0370613 2.17829e-19)
(1.25299 0.0233976 8.75346e-20)
(1.2752 0.0621923 -4.78751e-21)
(1.26534 0.050603 -1.5686e-19)
(1.25454 0.0422915 -5.89069e-20)
(1.2459 0.0293781 -8.39777e-20)
(1.25752 0.0557922 -1.08537e-20)
(1.24731 0.0473899 1.41567e-19)
(1.23881 0.0351136 1.50773e-19)
(1.24013 0.0521352 -8.34482e-20)
(1.23182 0.0402939 -3.14725e-20)
(1.24013 -0.0521352 -2.94574e-20)
(1.23182 -0.0402939 -2.11013e-19)
(1.25752 -0.0557922 7.08343e-20)
(1.24731 -0.0473899 1.53269e-19)
(1.23881 -0.0351136 8.09735e-20)
(1.2752 -0.0621923 9.29808e-20)
(1.26534 -0.050603 -7.62806e-20)
(1.25454 -0.0422915 -1.24489e-19)
(1.2459 -0.0293781 1.9508e-20)
(1.29337 -0.0686772 -2.03624e-19)
(1.28343 -0.0571871 -2.75613e-21)
(1.2733 -0.0449057 2.59352e-19)
(1.262 -0.0370612 1.04828e-19)
(1.25299 -0.0233975 8.75113e-20)
(1.3113 -0.0767179 -5.07786e-20)
(1.30198 -0.0636357 3.09121e-20)
(1.29185 -0.0518232 -2.85463e-20)
(1.28158 -0.039259 2.95913e-20)
(1.2695 -0.0309895 -1.61516e-19)
(1.26042 -0.0168215 8.77196e-20)
(1.32755 -0.0854359 3.896e-21)
(1.31988 -0.072001 9.47033e-20)
(1.31078 -0.0583917 4.36073e-20)
(1.30054 -0.0464839 -1.08315e-19)
(1.29006 -0.032686 -2.0441e-20)
(1.27749 -0.025588 -1.15727e-20)
(1.26755 -0.00917946 -1.58739e-19)
(1.33461 -0.0808866 -1.27452e-20)
(1.32831 -0.0672175 6.31447e-21)
(1.31975 -0.0530471 -6.17633e-20)
(1.30948 -0.04074 5.56635e-20)
(1.29896 -0.0265563 4.32547e-20)
(1.28552 -0.0177915 -2.92585e-21)
(1.27576 -0.0030816 1.2518e-19)
(1.33722 -0.0896155 -1.15879e-19)
(1.34002 -0.0761758 -1.81083e-19)
(1.33617 -0.0623311 1.4393e-19)
(1.32872 -0.0475303 9.27361e-20)
(1.31866 -0.0349645 -4.04547e-20)
(1.3082 -0.0192824 -3.33598e-19)
(1.2942 -0.012552 3.32013e-20)
(1.28322 0.0104388 1.93671e-20)
(1.33157 -0.0842876 2.29691e-19)
(1.34216 -0.0711714 2.42047e-19)
(1.3426 -0.0573049 -7.89281e-20)
(1.3373 -0.0417868 2.05004e-20)
(1.32796 -0.0290471 5.90209e-20)
(1.3177 -0.0120718 5.23661e-20)
(1.30372 -0.00402518 1.59472e-19)
(1.29134 0.0116792 5.93808e-20)
(1.27179 -0.0867521 -6.46971e-20)
(1.3159 -0.0781409 -1.05082e-19)
(1.33832 -0.0656563 -1.63358e-19)
(1.34596 -0.0520015 3.85128e-20)
(1.3446 -0.0358379 -1.48618e-19)
(1.33701 -0.0226353 -4.01504e-21)
(1.32731 -0.00543071 -1.17695e-19)
(1.31397 0.00604861 -1.58218e-19)
(1.2991 0.0164091 -9.6106e-20)
(1.21866 -0.0776657 4.39353e-20)
(1.28488 -0.0708739 -6.1194e-20)
(1.32426 -0.0593782 -1.36822e-19)
(1.34333 -0.0461778 -8.67091e-20)
(1.34888 -0.0297161 1.2906e-19)
(1.34489 -0.0155133 -8.13353e-20)
(1.33655 0.000975713 3.63894e-19)
(1.32422 0.0163982 1.7926e-19)
(1.30744 0.0232932 3.07683e-20)
(1.0186 -0.0684395 4.06446e-20)
(1.14089 -0.0675192 -1.66083e-20)
(1.23226 -0.0623482 -6.28346e-20)
(1.2939 -0.0521075 3.1314e-19)
(1.32992 -0.0395253 -2.04492e-19)
(1.34694 -0.0233232 -1.87276e-19)
(1.34971 -0.00768285 3.99471e-20)
(1.34438 0.00771333 3.84828e-20)
(1.33392 0.0267 4.13151e-19)
(1.31628 0.0318959 -3.83446e-19)
(0.897346 -0.0585432 1.45195e-19)
(1.03734 -0.057365 1.42456e-20)
(1.15279 -0.0529457 -3.90861e-20)
(1.24 -0.0438494 -1.22487e-19)
(1.29871 -0.0318067 4.60222e-20)
(1.33322 -0.016414 9.50954e-20)
(1.34785 0.000806574 -1.44417e-19)
(1.34875 0.0151658 -3.31844e-19)
(1.34196 0.0371458 -1.81037e-19)
(1.32518 0.0418545 8.48003e-20)
(0.612798 -0.0530402 5.31044e-19)
(0.765019 -0.0516755 -2.35354e-19)
(0.912452 -0.0489046 1.21671e-20)
(1.04541 -0.0438705 1.74577e-19)
(1.15676 -0.0352331 1.39991e-19)
(1.24147 -0.0231817 -8.96973e-20)
(1.29948 -0.0088034 4.24881e-20)
(1.33285 0.0099566 1.22386e-19)
(1.34556 0.0235224 8.812e-20)
(1.34585 0.0479652 1.68542e-19)
(1.33296 0.0530156 3.60333e-19)
(0.493274 -0.0531876 -3.27483e-19)
(0.632261 -0.0489357 2.08035e-19)
(0.77584 -0.0438335 1.42681e-19)
(0.915652 -0.0369349 -2.87733e-19)
(1.04371 -0.0277132 4.0671e-19)
(1.15235 -0.0146263 -2.88208e-20)
(1.23644 -0.000841633 -7.6091e-20)
(1.29504 0.0195894 -4.95216e-20)
(1.32718 0.0327838 -1.66402e-20)
(1.34039 0.0593021 -2.38776e-20)
(1.33698 0.0652641 -1.35558e-19)
(0.387186 -0.0567761 1.21827e-19)
(0.508055 -0.0503451 -1.49926e-19)
(0.638946 -0.0430126 -7.51208e-20)
(0.77451 -0.0337531 2.35922e-19)
(0.907862 -0.0231119 -3.89939e-19)
(1.03231 -0.00793264 -2.77253e-21)
(1.13869 0.00618318 1.69274e-19)
(1.22447 0.0288267 -1.06062e-19)
(1.28264 0.0424224 8.64365e-20)
(1.31579 0.0710229 -1.7157e-19)
(1.33155 0.0784296 -1.34597e-19)
(0.29513 -0.0624022 5.98818e-20)
(0.397045 -0.0548939 1.63858e-19)
(0.510727 -0.0460759 -2.56894e-19)
(0.633991 -0.0348769 -2.74263e-19)
(0.761491 -0.0226596 3.66966e-19)
(0.890364 -0.00491989 -8.55225e-20)
(1.00935 0.0103421 1.38527e-19)
(1.11676 0.035925 1.13401e-19)
(1.20253 0.0509316 -1.68402e-19)
(1.2588 0.0821569 1.68138e-19)
(1.30648 0.0919858 1.27568e-19)
(0.141974 -0.0747948 2.34794e-19)
(0.2146 -0.0685277 7.28217e-20)
(0.299148 -0.0609888 -3.27528e-19)
(0.395035 -0.051674 6.2533e-20)
(0.502288 -0.0395204 -2.01558e-19)
(0.616694 -0.0262658 -1.63302e-20)
(0.739421 -0.00634928 8.84529e-20)
(0.859892 0.0101394 -1.64504e-19)
(0.976899 0.038996 -4.36095e-20)
(1.08586 0.0561772 -4.35935e-20)
(1.15953 0.0905252 2.46355e-20)
(1.249 0.104529 -2.67612e-20)
(0.0831164 -0.0791321 1.46201e-19)
(0.141807 -0.0738219 -7.78395e-20)
(0.211162 -0.0669877 2.9223e-19)
(0.290783 -0.0580523 -3.59341e-20)
(0.381652 -0.046005 2.73814e-19)
(0.480484 -0.0325191 -6.995e-20)
(0.590078 -0.011502 5.29031e-20)
(0.704155 0.00559084 -6.91104e-20)
(0.816883 0.0371349 8.01266e-20)
(0.941253 0.0566603 5.04998e-20)
(1.01934 0.0936383 3.62e-20)
(1.1503 0.113712 -4.62971e-20)
(0.0272027 -0.0813466 -4.06853e-19)
(0.0733076 -0.0772759 -4.98505e-20)
(0.12906 -0.0715625 7.12072e-20)
(0.194162 -0.0635891 1.09153e-19)
(0.269693 -0.0524582 1.2296e-19)
(0.353336 -0.0393565 2.00657e-20)
(0.447055 -0.0187104 -1.53002e-20)
(0.550933 -0.00161749 -2.37674e-19)
(0.649679 0.0310101 -3.74398e-20)
(0.780417 0.0524701 5.08804e-20)
(0.851036 0.0905049 -9.97161e-20)
(1.011 0.117243 -1.68099e-19)
(-0.0270844 -0.0810031 2.78795e-19)
(0.00694869 -0.0782106 -3.93099e-20)
(0.0497772 -0.0737827 -2.05282e-19)
(0.101303 -0.0670773 -1.62089e-19)
(0.162407 -0.0573149 -5.59327e-20)
(0.231665 -0.0449774 -6.35695e-20)
(0.309775 -0.0261064 5.20828e-20)
(0.401279 -0.00905999 7.50682e-20)
(0.483641 0.0224206 1.043e-19)
(0.611025 0.0451235 -4.59789e-21)
(0.670218 0.0824067 2.01363e-20)
(0.839917 0.114292 -1.37052e-19)
(-0.079866 -0.077885 -1.68163e-19)
(-0.057859 -0.0762559 1.10621e-19)
(-0.0279357 -0.0730819 -4.08363e-20)
(0.0100567 -0.06775 8.38927e-20)
(0.0568863 -0.0595148 -1.76566e-20)
(0.111835 -0.04833 -2.30023e-20)
(0.175219 -0.0319843 7.73146e-20)
(0.252091 -0.0149208 -7.17148e-20)
(0.320713 0.0132999 6.9897e-20)
(0.435283 0.0367161 7.25386e-21)
(0.4863 0.0717365 5.56128e-20)
(0.647565 0.105895 2.61349e-19)
(-0.130293 -0.0719498 3.44141e-20)
(-0.120303 -0.0712786 6.75076e-20)
(-0.103467 -0.0692201 1.6094e-19)
(-0.0793764 -0.0652023 -5.01201e-20)
(-0.0472416 -0.0585007 5.68198e-20)
(-0.00721878 -0.0488669 -8.10805e-20)
(0.0412505 -0.0351098 -8.28445e-20)
(0.101649 -0.0186241 9.47572e-20)
(0.158888 0.00506967 -1.80665e-20)
(0.253524 0.0289945 -1.1757e-19)
(0.301128 0.0602611 8.21776e-20)
(0.441295 0.0940929 -6.09635e-20)
(-0.170145 -0.0626078 1.15315e-19)
(-0.176836 -0.0632992 -1.75444e-20)
(-0.178525 -0.0633283 6.56565e-21)
(-0.174663 -0.0621845 -2.25586e-20)
(-0.164647 -0.0593331 -2.60954e-21)
(-0.147645 -0.0541346 1.03478e-19)
(-0.123327 -0.0462651 1.18215e-19)
(-0.0907521 -0.0348975 1.97773e-20)
(-0.0478281 -0.0200626 5.53151e-20)
(-0.00301901 -0.00153841 -1.07011e-19)
(0.0690497 0.0229945 1.4044e-19)
(0.113937 0.0483189 -1.45265e-19)
(0.226635 0.0806569 -3.73491e-20)
(-0.201556 -0.0512256 1.63467e-20)
(-0.217571 -0.0521679 -3.23402e-20)
(-0.230006 -0.0526118 -5.70473e-20)
(-0.238329 -0.0521326 -9.19642e-20)
(-0.241862 -0.0502677 5.17288e-20)
(-0.239735 -0.0464927 -1.27487e-20)
(-0.23124 -0.040442 6.97403e-20)
(-0.215206 -0.0314407 -1.19156e-19)
(-0.190543 -0.019292 5.54035e-20)
(-0.159869 -0.00485466 6.23924e-20)
(-0.110232 0.0174456 -6.19179e-20)
(-0.0721248 0.0356201 5.45101e-20)
(0.0134842 0.0666257 -8.32519e-20)
(-0.226719 -0.0380052 -6.50722e-21)
(-0.250459 -0.0389195 -3.79382e-20)
(-0.271953 -0.0394943 1.69102e-20)
(-0.290753 -0.0394121 1.92739e-20)
(-0.306202 -0.0383172 3.18665e-20)
(-0.317445 -0.0358153 -4.2405e-20)
(-0.323567 -0.0315711 -2.12004e-20)
(-0.323337 -0.0250766 3.5521e-21)
(-0.315773 -0.0161843 -1.00304e-19)
(-0.300467 -0.00495845 -5.08477e-20)
(-0.272137 0.0114705 -2.78917e-20)
(-0.242834 0.0244851 9.01938e-20)
(-0.183011 0.0498682 2.99329e-20)
(-0.244328 -0.0233886 -7.5393e-20)
(-0.273618 -0.0240419 5.29457e-20)
(-0.301711 -0.024501 -4.37254e-20)
(-0.328264 -0.0245703 2.53707e-20)
(-0.352699 -0.024026 -3.54076e-20)
(-0.374216 -0.0226211 -5.69225e-21)
(-0.391841 -0.0201204 1.0942e-20)
(-0.404341 -0.0162116 4.11165e-20)
(-0.410519 -0.0107853 2.44749e-20)
(-0.408922 -0.00359057 6.71933e-20)
(-0.397207 0.00624358 -2.07836e-20)
(-0.378122 0.0148567 -2.77644e-20)
(-0.339192 0.030125 3.69109e-23)
(-0.2534 -0.00789641 2.13491e-20)
(-0.285595 -0.00813261 -2.35891e-20)
(-0.317176 -0.00830604 9.28358e-21)
(-0.347871 -0.0083506 1.94312e-20)
(-0.377165 -0.00819007 -9.08241e-21)
(-0.404311 -0.00773991 2.02675e-21)
(-0.428339 -0.00691573 -1.33803e-20)
(-0.448029 -0.0056127 -2.92759e-21)
(-0.462034 -0.00378773 1.40723e-20)
(-0.468657 -0.00131827 -8.21274e-21)
(-0.466244 0.00193498 -1.05354e-20)
(-0.454423 0.00500877 -4.62779e-21)
(-0.427489 0.010029 -1.55005e-20)
(-0.404425 -0.0112837 -1.14216e-20)
(-0.387674 -0.0130983 3.98803e-21)
(-0.367743 -0.0147711 -5.44957e-21)
(-0.344872 -0.0164136 9.12805e-21)
(-0.318877 -0.017976 -4.23876e-21)
(-0.289768 -0.0194223 -2.02477e-21)
(-0.257577 -0.0207203 2.70362e-21)
(-0.222374 -0.0218601 -8.24001e-22)
(-0.184345 -0.0227887 1.49921e-21)
(-0.143731 -0.0235158 1.2453e-22)
(-0.100803 -0.0240086 -2.23554e-21)
(-0.0558178 -0.0243661 2.14296e-22)
(-0.0091604 -0.0243344 9.17017e-22)
(0.0386856 -0.024099 2.54752e-22)
(0.0872937 -0.0236488 -2.24527e-22)
(0.136238 -0.0229928 -3.42109e-22)
(0.185081 -0.0221558 1.11135e-22)
(0.233401 -0.0211664 -1.81375e-22)
(0.280805 -0.0200565 1.35552e-22)
(0.326949 -0.0188593 -3.90623e-22)
(0.37154 -0.0176076 5.6153e-22)
(0.414347 -0.016332 3.40282e-22)
(0.455204 -0.0150631 -5.1117e-22)
(0.494002 -0.013832 5.03954e-22)
(0.530675 -0.0126533 -6.05674e-22)
(0.565201 -0.0115355 6.84695e-23)
(0.597599 -0.0104866 2.47965e-22)
(0.62792 -0.00951126 -7.99835e-23)
(0.656235 -0.00861078 -2.32882e-23)
(0.682637 -0.00778391 1.04568e-23)
(0.707216 -0.00702866 8.01502e-23)
(0.730088 -0.00634229 -7.28685e-23)
(0.751347 -0.00572308 -2.43415e-22)
(0.771141 -0.00516819 7.96128e-23)
(0.78956 -0.00467622 1.35089e-23)
(0.806797 -0.00424239 2.42455e-23)
(0.822907 -0.00386467 -3.82833e-23)
(0.838142 -0.00353462 1.00195e-23)
(0.852459 -0.00325116 9.58341e-24)
(0.866214 -0.00300087 -2.74489e-23)
(0.879159 -0.00278907 -1.15909e-23)
(0.89188 -0.00259615 2.39897e-23)
(0.903742 -0.00244565 -1.3437e-23)
(0.915893 -0.00229276 -1.76997e-23)
(0.926832 -0.00218955 6.51384e-24)
(0.938882 -0.00201478 -6.68758e-24)
(0.948363 -0.00191374 -1.15977e-23)
(0.960479 -0.00161762 -6.77805e-24)
(0.966569 -0.00152322 -1.14758e-24)
(0.979256 -0.00107604 5.81061e-27)
(-0.312668 -0.0338384 -3.51891e-20)
(-0.296362 -0.0389953 -7.02201e-21)
(-0.27662 -0.0439786 2.95843e-20)
(-0.254119 -0.0487884 -2.11797e-20)
(-0.228708 -0.0533587 1.06601e-21)
(-0.200397 -0.0575911 1.04018e-20)
(-0.169257 -0.0614028 -7.96702e-21)
(-0.13531 -0.0648355 3.96884e-21)
(-0.0987661 -0.0675209 4.12054e-21)
(-0.0599019 -0.0695987 -5.82966e-21)
(-0.0190812 -0.0709949 7.8916e-21)
(0.0237177 -0.0716638 -5.91993e-21)
(0.0680792 -0.071619 -2.96745e-21)
(0.113263 -0.0709064 2.2414e-21)
(0.159042 -0.069536 4.25215e-23)
(0.205002 -0.0675572 -4.1803e-22)
(0.250727 -0.0650451 1.07084e-22)
(0.295825 -0.0620879 8.54656e-23)
(0.33994 -0.058782 -7.25564e-22)
(0.382759 -0.0552273 8.57943e-22)
(0.424024 -0.0515211 3.44309e-22)
(0.463532 -0.0477544 -1.37541e-21)
(0.50114 -0.0440108 1.26771e-21)
(0.536767 -0.0403752 -1.336e-21)
(0.570374 -0.036904 5.86224e-22)
(0.601954 -0.033621 7.03676e-22)
(0.631534 -0.0305457 -1.31105e-21)
(0.659174 -0.0276901 3.49751e-22)
(0.684949 -0.0250569 -1.66829e-22)
(0.708953 -0.0226416 3.70832e-22)
(0.731272 -0.0204374 3.74537e-23)
(0.75202 -0.0184359 1.11025e-22)
(0.771287 -0.016632 -2.14842e-22)
(0.789214 -0.0150172 3.5262e-22)
(0.805889 -0.0135876 1.52819e-22)
(0.821499 -0.012329 -3.11831e-22)
(0.836096 -0.0112351 2.09085e-22)
(0.849925 -0.0102808 -9.13792e-23)
(0.862939 -0.00946278 -2.1727e-24)
(0.875483 -0.00874093 -8.12886e-24)
(0.887305 -0.00813098 1.07538e-22)
(0.898976 -0.00757445 -6.67082e-23)
(0.909862 -0.00714135 7.28305e-23)
(0.92108 -0.00669954 -4.94594e-23)
(0.931156 -0.00640399 -2.39251e-23)
(0.942359 -0.00589771 1.21957e-23)
(0.951124 -0.00560891 7.14063e-24)
(0.962488 -0.00474692 1.81532e-24)
(0.968135 -0.00447576 7.6989e-24)
(0.980138 -0.00316987 1.26701e-24)
(-0.153038 -0.0563809 -4.55545e-20)
(-0.137018 -0.0642357 2.76036e-20)
(-0.11783 -0.0722329 3.40161e-21)
(-0.09615 -0.0799216 -2.94176e-20)
(-0.071999 -0.0871884 1.11319e-20)
(-0.0453559 -0.0939049 -4.95292e-21)
(-0.0164595 -0.0999415 -4.88648e-22)
(0.0149771 -0.105098 6.15976e-21)
(0.0488593 -0.109306 3.69795e-21)
(0.0845186 -0.112526 2.35675e-21)
(0.121824 -0.114646 -1.26095e-20)
(0.160564 -0.115466 1.17912e-20)
(0.200412 -0.1153 -9.2688e-21)
(0.240928 -0.11401 2.98991e-21)
(0.281751 -0.111651 2.41351e-21)
(0.322508 -0.108318 -1.67665e-21)
(0.362835 -0.104136 3.90959e-22)
(0.402396 -0.0992524 7.06831e-22)
(0.440887 -0.0938259 -1.73372e-21)
(0.478054 -0.0880206 -4.08978e-23)
(0.513689 -0.0819951 2.64761e-22)
(0.547639 -0.0758965 -6.16383e-22)
(0.579797 -0.0698535 1.11644e-21)
(0.610112 -0.0639811 -4.32183e-22)
(0.638587 -0.0583862 -7.87135e-22)
(0.665244 -0.0531191 1.65119e-21)
(0.690122 -0.0482014 -5.79048e-22)
(0.713289 -0.0436466 5.01969e-22)
(0.734821 -0.0394562 -6.7558e-22)
(0.754812 -0.0356199 1.45801e-21)
(0.773343 -0.0321244 6.06775e-22)
(0.790518 -0.0289551 -1.4191e-21)
(0.806416 -0.0261035 3.88244e-22)
(0.821173 -0.0235567 -3.361e-22)
(0.834868 -0.0213086 3.35025e-22)
(0.847682 -0.019336 8.86639e-23)
(0.859664 -0.0176285 -4.39695e-22)
(0.871048 -0.0161441 2.77249e-22)
(0.881784 -0.014877 -6.38544e-23)
(0.892201 -0.0137609 3.41932e-23)
(0.902043 -0.0128208 -2.82846e-23)
(0.911854 -0.0119603 -1.51987e-22)
(0.921003 -0.011294 -8.95569e-23)
(0.930553 -0.0106086 5.50271e-23)
(0.939083 -0.0101583 1.07675e-23)
(0.948755 -0.00936952 1.07645e-23)
(0.956223 -0.00893169 7.54618e-24)
(0.966213 -0.00757703 8.29962e-24)
(0.97105 -0.00716209 1.39769e-23)
(0.981786 -0.00509783 3.14056e-25)
(0.0439309 -0.0790045 -2.45853e-20)
(0.0592728 -0.0885461 -1.79881e-20)
(0.07756 -0.0986683 3.39201e-20)
(0.0979129 -0.108646 3.89384e-20)
(0.120173 -0.118085 -5.76431e-20)
(0.144383 -0.126818 -2.67292e-21)
(0.170487 -0.134675 3.31468e-20)
(0.198409 -0.141213 -2.2482e-20)
(0.228088 -0.14661 -1.0059e-20)
(0.259245 -0.15067 1.02204e-20)
(0.291634 -0.153264 5.95865e-21)
(0.325009 -0.154298 3.02498e-21)
(0.359076 -0.153811 -1.43574e-21)
(0.393485 -0.151828 -3.52985e-21)
(0.427915 -0.14843 6.05269e-21)
(0.462052 -0.14375 -3.08511e-21)
(0.495601 -0.137958 1.38477e-21)
(0.528293 -0.131255 2.75107e-22)
(0.559897 -0.123858 1.15816e-21)
(0.59022 -0.115988 -2.57711e-21)
(0.619117 -0.107859 2.72341e-22)
(0.646485 -0.0996643 2.26119e-22)
(0.672259 -0.0915768 8.05295e-22)
(0.696413 -0.083732 6.93957e-22)
(0.718967 -0.0762565 -1.2105e-21)
(0.739978 -0.0692463 -4.27785e-22)
(0.759496 -0.0627292 1.58252e-22)
(0.777584 -0.0567117 -4.13192e-22)
(0.794315 -0.0511897 2.05239e-23)
(0.809772 -0.0461444 2.65117e-22)
(0.824019 -0.0415549 3.82173e-22)
(0.837144 -0.0373993 -8.48418e-22)
(0.849207 -0.0336675 -3.72245e-23)
(0.860327 -0.0303439 1.04218e-21)
(0.870574 -0.0274227 -2.84532e-22)
(0.880124 -0.024873 -3.96829e-22)
(0.889023 -0.0226804 9.57508e-23)
(0.8975 -0.0207855 -2.71864e-22)
(0.905503 -0.0191797 1.14254e-22)
(0.913347 -0.0177702 -8.94591e-23)
(0.920777 -0.0165899 -2.68662e-23)
(0.928304 -0.015505 8.44877e-23)
(0.935308 -0.0146709 8.13738e-23)
(0.94278 -0.0138028 -1.04296e-22)
(0.949375 -0.0132471 -5.01464e-23)
(0.957108 -0.0122428 3.98956e-23)
(0.962927 -0.0117079 -3.03548e-23)
(0.971138 -0.00996508 8.13341e-24)
(0.974932 -0.00945211 -2.48461e-23)
(0.983998 -0.00677657 -1.0416e-24)
(0.254495 -0.0986034 -3.2598e-20)
(0.269794 -0.110379 -1.2083e-20)
(0.285926 -0.12229 7.51089e-20)
(0.304028 -0.133894 -3.51779e-20)
(0.323687 -0.144896 4.43694e-20)
(0.344718 -0.15509 -6.97106e-20)
(0.367083 -0.164239 2.17189e-20)
(0.390722 -0.172052 2.71842e-21)
(0.415533 -0.178347 1.31026e-20)
(0.441293 -0.182972 -2.66857e-21)
(0.467781 -0.185806 -1.21303e-20)
(0.494778 -0.186775 5.26222e-21)
(0.522048 -0.185888 1.51414e-20)
(0.549332 -0.183195 -1.16114e-20)
(0.576386 -0.178806 4.71841e-21)
(0.602981 -0.172888 -1.65638e-21)
(0.62891 -0.165654 6.36409e-22)
(0.653994 -0.157351 -8.42828e-22)
(0.678082 -0.148246 1.16219e-21)
(0.70106 -0.138606 -9.55185e-22)
(0.722844 -0.128688 2.3647e-21)
(0.74338 -0.118726 -3.63836e-21)
(0.762641 -0.108923 4.8356e-21)
(0.78062 -0.0994424 -2.21608e-21)
(0.797334 -0.0904076 -8.97741e-22)
(0.812842 -0.0819405 6.34096e-22)
(0.827208 -0.0740983 4.92949e-22)
(0.840479 -0.0668791 4.73011e-23)
(0.852705 -0.0602665 -1.84926e-21)
(0.863946 -0.0542315 3.10053e-22)
(0.874239 -0.0487441 1.0604e-21)
(0.883635 -0.0437761 -6.3899e-22)
(0.892164 -0.0393182 2.19739e-22)
(0.899915 -0.0353565 -3.79081e-22)
(0.90694 -0.0318905 3.40801e-22)
(0.913405 -0.0288849 2.11351e-22)
(0.919354 -0.026323 2.40482e-22)
(0.925017 -0.0241285 -4.15519e-22)
(0.930342 -0.0222883 2.1555e-22)
(0.935637 -0.0206833 8.96892e-23)
(0.940654 -0.019351 -2.02416e-22)
(0.945872 -0.0181209 6.25803e-23)
(0.95069 -0.0171844 -1.75671e-23)
(0.956023 -0.0161945 1.04308e-22)
(0.96061 -0.0155814 2.04149e-23)
(0.966297 -0.0144311 -4.87832e-23)
(0.970371 -0.0138511 3.56892e-24)
(0.976652 -0.0118361 -1.07453e-23)
(0.979323 -0.0112735 1.53341e-23)
(0.986529 -0.00815639 2.98728e-24)
(0.463533 -0.114315 -2.4346e-20)
(0.477567 -0.128372 5.45458e-20)
(0.491981 -0.1419 -1.40389e-19)
(0.507461 -0.154708 7.14594e-20)
(0.523891 -0.166807 -5.50385e-20)
(0.541146 -0.178028 3.63297e-20)
(0.559184 -0.188066 1.13932e-20)
(0.577917 -0.196599 -2.00485e-21)
(0.5972 -0.2034 -3.03724e-21)
(0.616856 -0.208301 -4.41261e-21)
(0.636714 -0.211179 -3.46258e-21)
(0.656611 -0.211957 1.00616e-20)
(0.67638 -0.210635 -8.38318e-22)
(0.69586 -0.207283 -5.00693e-21)
(0.714911 -0.202036 8.62461e-22)
(0.733411 -0.195091 3.36168e-21)
(0.751262 -0.186695 -3.16425e-21)
(0.768389 -0.17713 6.43717e-23)
(0.784736 -0.166698 2.71019e-22)
(0.800269 -0.1557 3.76024e-22)
(0.814966 -0.144421 -2.62209e-23)
(0.82882 -0.133119 -2.48807e-21)
(0.84183 -0.122015 6.24915e-22)
(0.854004 -0.111294 1.40466e-21)
(0.865344 -0.101088 1.39049e-21)
(0.875883 -0.0915039 1.02434e-21)
(0.885676 -0.0826364 -7.45262e-22)
(0.894761 -0.0744924 -6.55758e-22)
(0.90315 -0.06704 -8.43268e-22)
(0.910866 -0.0602351 9.01744e-22)
(0.917907 -0.0540378 -4.4151e-22)
(0.924282 -0.0484142 -1.09201e-22)
(0.929971 -0.0433586 9.24965e-22)
(0.93502 -0.0388653 -5.56796e-22)
(0.939448 -0.0349465 -3.80563e-22)
(0.943399 -0.03157 3.7322e-22)
(0.946914 -0.0287207 -5.54883e-22)
(0.950219 -0.0263069 4.26189e-22)
(0.953272 -0.0243108 6.10915e-23)
(0.956374 -0.0225863 -4.52457e-24)
(0.959289 -0.0211725 1.90392e-22)
(0.962472 -0.0198623 -2.27229e-22)
(0.965345 -0.0188762 2.59871e-22)
(0.968746 -0.0178149 -7.46331e-23)
(0.97151 -0.0171815 6.98037e-23)
(0.975298 -0.0159449 -4.55479e-23)
(0.97775 -0.0153613 -5.84419e-24)
(0.982172 -0.0131834 -3.7106e-23)
(0.983777 -0.0126129 -2.16205e-26)
(0.989132 -0.0092229 7.15833e-25)
(0.663473 -0.127454 1.73328e-19)
(0.674921 -0.142547 -3.67742e-20)
(0.687153 -0.156845 6.47496e-21)
(0.699619 -0.170223 -1.53821e-20)
(0.712189 -0.182859 -1.88715e-20)
(0.724987 -0.194615 5.87176e-20)
(0.738056 -0.205132 -8.78624e-20)
(0.751282 -0.214044 5.46272e-21)
(0.764485 -0.221064 8.95019e-20)
(0.777505 -0.22601 2.02346e-20)
(0.790231 -0.228764 -8.8908e-20)
(0.802575 -0.229264 4.33244e-20)
(0.814463 -0.227527 -1.2511e-20)
(0.825841 -0.223639 -1.35469e-20)
(0.836684 -0.217755 1.80826e-20)
(0.846992 -0.210091 -1.10953e-22)
(0.85678 -0.200915 -1.6589e-21)
(0.866076 -0.190527 3.15391e-21)
(0.874914 -0.179246 -9.66312e-22)
(0.883332 -0.167389 5.15305e-22)
(0.891362 -0.155253 9.118e-24)
(0.89903 -0.143106 -4.21522e-22)
(0.906349 -0.131176 -5.15186e-22)
(0.913326 -0.119653 -5.33766e-24)
(0.919952 -0.108686 -3.9918e-22)
(0.926215 -0.0983652 8.2588e-22)
(0.932135 -0.0887859 1.70746e-21)
(0.937741 -0.0799933 -1.24934e-21)
(0.943014 -0.0719511 1.75049e-21)