/*--------------------------------*- C++ -*----------------------------------*\
  =========                 |
  \\      /  F ield         | OpenFOAM: The Open Source CFD Toolbox
   \\    /   O peration     | Website:  https://openfoam.org
    \\  /    A nd           | Version:  7
     \\/     M anipulation  |
\*---------------------------------------------------------------------------*/
FoamFile
{
    version     2.0;
    format      ascii;
    class       surfaceScalarField;
    location    "15";
    object      phi;
}
// * * * * * * * * * * * * * * * * * * * * * * * * * * * * * * * * * * * * * //

dimensions      [0 3 -1 0 0 0 0];

internalField   nonuniform List<scalar> 
5120
(
-0.00104381
1.65774e-09
1.60164e-09
-0.00104381
0.00025738
-0.00131854
0.000274725
-0.00160896
0.000290426
-0.00191515
0.00030619
-0.00223795
0.000322804
-0.00257878
0.00034083
-0.00293923
0.000360448
-0.00332102
0.000381793
-0.00372593
0.000404907
-0.00415579
0.000429859
-0.0046125
0.000456705
-0.00509801
0.000485509
-0.00561439
0.000516383
-0.00616366
0.000549269
0.000584609
-0.00674828
-0.00104316
0.00051464
-0.00131777
0.000549336
-0.00160808
0.000580741
-0.00191416
0.000612267
-0.00223685
0.000645493
-0.00257756
0.000681541
-0.00293788
0.000720768
-0.00331954
0.00076345
-0.0037243
0.000809671
-0.004154
0.000859562
-0.00461054
0.000913242
-0.00509587
0.000970836
-0.00561205
0.00103257
-0.0061611
0.00109832
0.00116898
-0.00674547
-0.00104184
0.000771663
-0.00131623
0.000823721
-0.00160632
0.000870836
-0.00191218
0.000918122
-0.00223464
0.000967953
-0.00257511
0.00102201
-0.00293518
0.00108084
-0.00331657
0.00114484
-0.00372104
0.00121414
-0.00415043
0.00128895
-0.00460663
0.00136944
-0.00509159
0.00145579
-0.00560737
0.00154834
-0.00615597
0.00164693
0.00175287
-0.00673986
-0.00103987
0.00102833
-0.00131392
0.00109777
-0.00160368
0.0011606
-0.00190921
0.00122364
-0.00223132
0.00129007
-0.00257144
0.00136212
-0.00293112
0.00144053
-0.00331211
0.00152582
-0.00371615
0.00161819
-0.00414508
0.00171788
-0.00460077
0.00182513
-0.00508517
0.0019402
-0.00560034
0.00206352
-0.00614828
0.00219487
0.00233603
-0.00673145
-0.00103725
0.00128453
-0.00131084
0.00137136
-0.00160017
0.00144992
-0.00190525
0.00152872
-0.00222691
0.00161173
-0.00256654
0.00170176
-0.00292572
0.00179971
-0.00330617
0.00190627
-0.00370964
0.00202165
-0.00413794
0.00214618
-0.00459295
0.00228015
-0.00507662
0.00242386
-0.00559098
0.00257788
-0.00613804
0.00274192
0.00291824
-0.00672024
-0.00103397
-0.001307
0.00164439
-0.00159577
0.00173869
-0.0019003
0.00183325
-0.00222139
0.00193282
-0.00256043
0.0020408
-0.00291898
0.00215826
-0.00329875
0.00228604
-0.0037015
0.0024244
-0.00412902
0.00257371
-0.0045832
0.00273432
-0.00506594
0.00290661
-0.0055793
0.00309124
-0.00612525
0.00328788
0.00349924
-0.00670626
-0.00130239
0.00191675
-0.0015905
0.0020268
-0.00189436
0.00213711
-0.00221477
0.00225323
-0.00255309
0.00237912
-0.00291089
0.00251606
-0.00328986
0.00266501
-0.00369174
0.00282628
-0.00411834
0.0030003
-0.0045715
0.00318749
-0.00505315
0.00338826
-0.0055653
0.00360339
-0.00610994
0.00383251
0.00407881
-0.00668951
-0.00129702
0.00218831
-0.00158436
0.00231414
-0.00188745
0.00244019
-0.00220705
0.00257283
-0.00254454
0.00271661
-0.00290146
0.00287297
-0.00327949
0.00304305
-0.00368037
0.00322715
-0.00410588
0.00342582
-0.00455787
0.00363948
-0.00503824
0.00386862
-0.00554899
0.00411415
-0.0060921
0.00437561
0.00465671
-0.00667
-0.00129089
0.00245898
-0.00157735
0.0026006
-0.00187955
0.00274239
-0.00219824
0.00289153
-0.00253478
0.00305314
-0.00289069
0.00322889
-0.00326765
0.00342001
-0.00366739
0.00362689
-0.00409167
0.0038501
-0.00454232
0.00409013
-0.00502123
0.00434754
-0.0055304
0.00462331
-0.00607175
0.00491697
0.00523272
-0.00664776
-0.001284
0.00272863
-0.00156946
0.00288607
-0.00187067
0.00304359
-0.00218834
0.00320921
-0.00252381
0.00338861
-0.00287859
0.00358367
-0.00325436
0.00379577
-0.0036528
0.00402533
-0.0040757
0.00427299
-0.00452486
0.00453929
-0.00500214
0.00482482
-0.00550952
0.00513069
-0.00604892
0.00545638
0.0058066
-0.0066228
-0.00127635
0.00299715
-0.00156072
0.00317044
-0.00186081
0.00334369
-0.00217735
0.00352575
-0.00251164
0.00372289
-0.00286517
0.0039372
-0.0032396
0.0041702
-0.00363662
0.00442236
-0.00405799
0.00469436
-0.00450549
0.00498679
-0.00498096
0.0053003
-0.00548637
0.0056361
-0.00602362
0.00599363
0.00637813
-0.00659516
-0.00126794
0.00326443
-0.0015511
0.0034536
-0.00184999
0.00364258
-0.00216528
0.00384104
-0.00249826
0.00405587
-0.00285042
0.00428936
-0.00322339
0.00454318
-0.00361885
0.00481782
-0.00403854
0.00511404
-0.00448423
0.00543247
-0.00495773
0.0057738
-0.00546098
0.00613935
-0.00599588
0.00652852
0.0069471
-0.00656484
-0.00125879
0.00353036
-0.00154063
0.00373545
-0.00183819
0.00394014
-0.00215213
0.00415497
-0.00248369
0.00438743
-0.00283435
0.00464002
-0.00320574
0.00491456
-0.00359951
0.00521159
-0.00401737
0.00553191
-0.00446108
0.00587618
-0.00493245
0.00624516
-0.00543337
0.00664027
-0.00596571
0.00706086
0.00751328
-0.00653189
-0.00124889
0.00379483
-0.0015293
0.00401586
-0.00182543
0.00423627
-0.0021379
0.00446744
-0.00246793
0.00471746
-0.00281698
0.00498907
-0.00318665
0.00528423
-0.00357859
0.00560353
-0.00399449
0.00594781
-0.00443608
0.00631777
-0.00490514
0.00671422
-0.00540354
0.00713867
-0.00593314
0.00759046
0.00807647
-0.00649633
-0.00123824
0.00405771
-0.00151712
0.00429474
-0.00181171
0.00453087
-0.0021226
0.00477833
-0.00245099
0.00504585
-0.0027983
0.00533638
-0.00316613
0.00565206
-0.00355611
0.0059935
-0.0039699
0.0063616
-0.00440922
0.00675709
-0.00487581
0.00718082
-0.00537153
0.00763439
-0.0058982
0.00811713
0.00863646
-0.00645819
-0.00122686
0.00431891
-0.00150409
0.00457198
-0.00179704
0.00482381
-0.00210624
0.00508753
-0.00243286
0.00537247
-0.00277833
0.00568185
-0.00314419
0.00601793
-0.00353207
0.00638138
-0.00394362
0.00677315
-0.00438052
0.00719399
-0.00484449
0.00764479
-0.00533735
0.00812725
-0.00586091
0.00864068
0.00919305
-0.0064175
-0.00121474
0.00457831
-0.00149022
0.00484746
-0.00178141
0.005115
-0.00208882
0.00539493
-0.00241357
0.00569722
-0.00275706
0.00602534
-0.00312084
0.00638171
-0.0035065
0.00676704
-0.00391566
0.00718231
-0.00435
0.00762832
-0.00481119
0.00810599
-0.00530104
0.0086171
-0.0058213
0.00916094
0.00974605
-0.0063743
-0.00120189
0.0048358
-0.00147551
0.00512109
-0.00176484
0.00540433
-0.00207034
0.00570042
-0.00239311
0.00601999
-0.00273452
0.00636675
-0.00309609
0.00674328
-0.0034794
0.00715035
-0.00388604
0.00758896
-0.00431767
0.00805994
-0.00477594
0.00856426
-0.0052626
0.00910376
-0.00577941
0.00967775
0.0102953
-0.00632862
-0.00118832
0.00509126
-0.00145997
0.00539274
-0.00174733
0.00569169
-0.00205082
0.00600391
-0.00237149
0.00634067
-0.0027107
0.00670595
-0.00306994
0.00710253
-0.00345077
0.00753117
-0.00385477
0.00799296
-0.00428355
0.00848872
-0.00473876
0.00901946
-0.00522208
0.00958708
-0.00573526
0.0101909
0.0108405
-0.0062805
-0.00117402
0.00534458
-0.0014436
0.00566232
-0.00172889
0.00597698
-0.00203025
0.00630527
-0.00234873
0.00665914
-0.00268562
0.00704285
-0.00304242
0.00745932
-0.00342065
0.0079094
-0.00382187
0.00839419
-0.00424767
0.00891452
-0.00469965
0.00947145
-0.00517949
0.0100669
-0.00568888
0.0107003
0.0113816
-0.00622997
-0.00115902
0.00559566
-0.00142641
0.00592972
-0.00170952
0.00626009
-0.00200866
0.00660441
-0.00232482
0.0069753
-0.00265929
0.00737732
-0.00301352
0.00781356
-0.00338902
0.00828491
-0.00378734
0.00879251
-0.00421003
0.00933721
-0.00465866
0.00992009
-0.00513486
0.0105431
-0.00564032
0.0112058
0.0119183
-0.00617708
-0.0011433
0.00584437
-0.00140841
0.00619482
-0.00168923
0.00654091
-0.00198604
0.00690122
-0.00229978
0.00728904
-0.00263171
0.00770924
-0.00298326
0.00816511
-0.00335592
0.00865757
-0.00375121
0.00918779
-0.00417065
0.00975665
-0.0046158
0.0103652
-0.00508823
0.0110156
-0.00558959
0.0117071
0.0124506
-0.00612186
-0.00112688
-0.00138959
0.00645753
-0.00166803
0.00681935
-0.0019624
0.00719559
-0.00227361
0.00760025
-0.00260289
0.00803852
-0.00295165
0.00851387
-0.00332135
0.00902727
-0.00371349
0.00957993
-0.00412956
0.0101727
-0.00457109
0.0108068
-0.0050396
0.0114841
-0.00553674
0.0122043
0.0129782
-0.00606435
-0.00136997
0.00671773
-0.00164591
0.00709529
-0.00193774
0.00748742
-0.00224632
0.00790883
-0.00257285
0.00836505
-0.0029187
0.00885972
-0.00328532
0.00939389
-0.00367419
0.0099688
-0.00408677
0.0105853
-0.00452455
0.0112446
-0.00498902
0.0119485
-0.00548179
0.012697
0.013501
-0.00600458
-0.00134956
0.00697532
-0.0016229
0.00736863
-0.00191209
0.0077766
-0.00221793
0.00821468
-0.00254159
0.00868871
-0.00288443
0.00920256
-0.00324786
0.00975732
-0.00363333
0.0103543
-0.0040423
0.0109943
-0.00447622
0.0116785
-0.00493651
0.0124088
-0.00542479
0.0131853
0.0140188
-0.0059426
-0.00132836
0.00723019
-0.001599
0.00763927
-0.00188544
0.00806304
-0.00218844
0.00851768
-0.00250913
0.00900939
-0.00284884
0.00954226
-0.00320896
0.0101174
-0.00359094
0.0107362
-0.00399617
0.0113995
-0.0044261
0.0121084
-0.0048821
0.0128648
-0.00536576
0.013669
0.0145315
-0.00587843
-0.00130638
0.00748224
-0.00157422
0.00790711
-0.00185781
0.00834663
-0.00215787
0.00881773
-0.00247548
0.00932701
-0.00281195
0.00987874
-0.00316866
0.0104742
-0.00354701
0.0111146
-0.0039484
0.0118009
-0.00437423
0.0125342
-0.00482581
0.0133164
-0.00530474
0.0141479
0.0150389
-0.00581212
-0.00128363
0.00773136
-0.00154856
0.00817204
-0.0018292
0.00862727
-0.00212621
0.00911474
-0.00244064
0.00964144
-0.00277377
0.0102119
-0.00312695
0.0108273
-0.00350158
0.0114892
-0.00389901
0.0121983
-0.00432063
0.0129559
-0.00476768
0.0137635
-0.00524176
0.014622
0.0155408
-0.0057437
-0.00126011
0.00797744
-0.00152203
0.00843396
-0.00179962
0.00890486
-0.00209348
0.0094086
-0.00240463
0.00995258
-0.00273431
0.0105416
-0.00308387
0.0111769
-0.00345465
0.01186
-0.00384801
0.0125917
-0.00426531
0.0133732
-0.00470773
0.0142059
-0.00517685
0.0150911
0.0160371
-0.00567318
-0.00123584
0.00822037
-0.00149465
0.00869277
-0.00176909
0.0091793
-0.0020597
0.00969921
-0.00236746
0.0102603
-0.00269359
0.0108677
-0.00303941
0.0115227
-0.00340625
0.0122269
-0.00379543
0.0129809
-0.0042083
0.013786
-0.00464597
0.0146436
-0.00511005
0.0155552
0.0165277
-0.00560061
-0.00121082
0.00846005
-0.00146642
0.00894837
-0.00173761
0.00945049
-0.00202487
0.00998648
-0.00232915
0.0105646
-0.00265162
0.0111902
-0.0029936
0.0118647
-0.00335639
0.0125896
-0.00374129
0.0133658
-0.00414963
0.0141944
-0.00458245
0.0150764
-0.00504137
0.0160141
0.0170123
-0.00552599
-0.00118507
-0.00143735
0.00920065
-0.00170519
0.00971833
-0.00198901
0.0102703
-0.00228969
0.0108653
-0.00260842
0.0115089
-0.00294644
0.0122027
-0.00330508
0.0129483
-0.0036856
0.0137463
-0.00408931
0.0145981
-0.00451719
0.0155043
-0.00497086
0.0164678
0.0174908
-0.00544934
-0.00140745
0.00944952
-0.00167184
0.00998272
-0.00195212
0.0105506
-0.00224912
0.0111623
-0.00256399
0.0118238
-0.00289796
0.0125367
-0.00325235
0.0133027
-0.00362838
0.0141223
-0.00402736
0.0149971
-0.0044502
0.0159271
-0.00489854
0.0169161
0.017963
-0.00537069
-0.00137674
0.00969486
-0.00163758
0.0102436
-0.00191421
0.0108272
-0.00220743
0.0114555
-0.00251835
0.0121347
-0.00284818
0.0128665
-0.0031982
0.0136527
-0.00356966
0.0144938
-0.00396381
0.0153912
-0.00438151
0.0163448
-0.00482443
0.017359
0.0184286
-0.00529004
-0.00134522
0.00993659
-0.00160241
0.0105008
-0.00187531
0.0111001
-0.00216465
0.0117449
-0.00247151
0.0124415
-0.00279709
0.0131921
-0.00314266
0.0139983
-0.00350944
0.0148605
-0.00389867
0.0157804
-0.00431116
0.0167573
-0.00474858
0.0177965
0.0188874
-0.00520739
-0.0013129
0.0101746
-0.00156635
0.0107542
-0.00183541
0.0113692
-0.00212078
0.0120302
-0.00242349
0.0127442
-0.00274473
0.0135133
-0.00308574
0.0143393
-0.00344774
0.0152225
-0.00383196
0.0161647
-0.00423916
0.0171645
-0.00467102
0.0182283
0.0193391
-0.00512277
-0.00127979
0.0104088
-0.00152941
0.0110038
-0.00179454
0.0116343
-0.00207583
0.0123115
-0.0023743
0.0130427
-0.0026911
0.0138301
-0.00302746
0.0146756
-0.00338458
0.0155797
-0.00376371
0.0165438
-0.00416553
0.0175663
-0.00459179
0.0186546
0.0197836
-0.00503623
-0.00124591
-0.00149159
0.0112495
-0.0017527
0.0118954
-0.00202983
0.0125887
-0.00232396
0.0133368
-0.00263622
0.0141424
-0.00296783
0.0150073
-0.00331999
0.0159318
-0.00369392
0.0169177
-0.00409032
0.0179627
-0.00451094
0.0190752
0.0202204
-0.00494779
-0.00145292
0.0114912
-0.00170991
0.0121524
-0.00198278
0.0128615
-0.00227247
0.0136265
-0.0025801
0.01445
-0.00290687
0.015334
-0.00325397
0.0162789
-0.00362261
0.0172864
-0.00401354
0.0183536
-0.00442841
0.0194901
0.0206494
-0.00485743
-0.0014134
0.0117287
-0.00166618
0.0124052
-0.0019347
0.0131301
-0.00221986
0.0139117
-0.00252276
0.0147529
-0.0028446
0.0156559
-0.00318654
0.0166209
-0.00354981
0.0176496
-0.00393522
0.018739
-0.0043441
0.0198989
0.0210731
-0.00476776
-0.00137306
0.011962
-0.00162153
0.0126536
-0.0018856
0.0133941
-0.00216613
0.0141922
-0.00246421
0.015051
-0.002781
0.0159727
-0.00311769
0.0169576
-0.0034755
0.0180074
-0.00385529
0.0191188
-0.00425961
0.0203033
0.0215067
-0.00469329
-0.00133189
0.012191
-0.00157596
0.0128977
-0.00183549
0.0136537
-0.00211131
0.014468
-0.00240448
0.0153442
-0.00271615
0.0162843
-0.0030475
0.0172889
-0.00339977
0.0183597
-0.00377392
0.019493
-0.00417191
0.0207013
0.0219355
-0.00460069
-0.00128991
-0.00152949
0.0131373
-0.0017844
0.0139086
-0.00205541
0.014739
-0.00234357
0.0156323
-0.00265003
0.0165908
-0.00297596
0.0176148
-0.0033226
0.0187063
-0.00369104
0.0198614
-0.00408296
0.0210932
0.0223581
-0.00450552
-0.00148213
0.0133723
-0.00173233
0.0141588
-0.00199845
0.0150052
-0.00228151
0.0159154
-0.00258267
0.0168919
-0.00290309
0.0179353
-0.00324402
0.0190473
-0.00360669
0.0202241
-0.00399266
0.0214792
0.0227741
-0.00440866
-0.00143391
0.0136026
-0.00167929
0.0144041
-0.00194043
0.0152663
-0.00221831
0.0161933
-0.00251407
0.0171877
-0.00282889
0.0182501
-0.00316404
0.0193824
-0.00352087
0.0205809
-0.00390088
0.0218592
0.0231834
-0.00431021
-0.00138483
0.0138281
-0.00162532
0.0146446
-0.00188138
0.0155224
-0.00215398
0.0164659
-0.00244426
0.017478
-0.0027534
0.0185592
-0.00308269
0.0197117
-0.0034336
0.0209318
-0.00380759
0.0222332
0.023586
-0.00421021
-0.0013349
-0.00157041
0.0148801
-0.00182131
0.0157733
-0.00208855
0.0167331
-0.00237325
0.0177627
-0.00267663
0.0188626
-0.00299998
0.0200351
-0.00334489
0.0212767
-0.00371277
0.022601
0.0239819
-0.00410867
-0.00151458
0.0151106
-0.00176023
0.0160189
-0.00202202
0.0169949
-0.00230105
0.0180417
-0.00259858
0.0191601
-0.00291593
0.0203524
-0.00325476
0.0216156
-0.00361643
0.0229627
0.0243711
-0.0040056
-0.00145786
0.0153358
-0.00169817
0.0162592
-0.00195441
0.0172511
-0.0022277
0.018315
-0.00251929
0.0194517
-0.00283054
0.0206637
-0.0031632
0.0219482
-0.00351857
0.0233181
0.0247536
-0.00390101
-0.00140025
-0.00163513
0.0164941
-0.00188574
0.0175017
-0.00215319
0.0185825
-0.00243876
0.0197373
-0.00274383
0.0209687
-0.00307022
0.0222746
-0.00341921
0.0236671
0.0251293
-0.00157114
0.0167235
-0.00181603
0.0177466
-0.00207755
0.018844
-0.00235701
0.0200168
-0.00265581
0.0212675
-0.00297584
0.0225946
-0.00331835
0.0240096
0.0254982
-0.00150621
0.0169472
-0.00174529
0.0179857
-0.0020008
0.0190995
-0.00227404
0.02029
-0.00256649
0.02156
-0.00288006
0.0229082
-0.00321601
0.0243455
-0.00144036
-0.00167354
0.0182189
-0.00192294
0.0193489
-0.00218989
0.0205569
-0.00247587
0.021846
-0.00278289
0.0232152
0.0246748
-0.0016008
0.0184461
-0.00184399
0.0195921
-0.00210455
0.0208175
-0.00238398
0.0221254
-0.00268433
0.0235156
0.0249973
-0.00152708
-0.00176398
0.019829
-0.00201804
0.0210716
-0.00229082
0.0223982
-0.0025844
0.0238091
0.025313
-0.00168291
0.0200595
-0.00193038
0.021319
-0.0021964
0.0226642
-0.00248309
0.0240958
0.0256217
-0.0016008
0.0202835
-0.00184158
0.0215598
-0.00210073
0.0229234
-0.00238042
0.0243755
0.0259233
-0.00151768
-0.00175166
0.0217938
-0.00200382
0.0231755
-0.00227638
0.0246481
0.0262177
-0.00166062
-0.00190568
0.0234206
-0.00217099
0.0249134
0.0265048
-0.00180633
0.0236584
-0.00206424
0.0251713
0.0267844
-0.00170577
-0.00195615
0.0254217
0.0256644
0.00612797
4.96792e-05
9.60225e-06
0.00606978
3.05566e-05
2.76289e-05
0.00601264
1.26616e-05
4.44789e-05
0.00595655
-4.14452e-06
6.02342e-05
0.00590145
-2.00032e-05
7.51037e-05
0.00584733
-3.5076e-05
8.92023e-05
0.00579414
-4.94578e-05
0.000102646
0.00574185
-6.32318e-05
0.000115515
0.00569044
-7.64716e-05
0.000127884
0.00563987
-8.92346e-05
0.00013981
0.00559009
-0.00010157
0.000151341
0.0055411
-0.000113513
0.000162512
0.00549284
-0.000125094
0.000173352
0.00544529
-0.000136337
0.000183884
0.00539843
-0.00014726
0.000194123
0.00535222
-0.000157875
0.000204082
0.00530664
-0.000168192
0.000213768
0.00526168
-0.000178218
0.000223185
0.0052173
-0.000187956
0.000232335
0.00517349
-0.000197408
0.000241217
0.00513023
-0.000206572
0.000249827
0.00508752
-0.000215445
0.000258156
0.00504535
-0.000224015
0.000266189
0.00500371
-0.000232269
0.000273907
0.00496262
-0.000240178
0.000281266
0.0049221
-0.000247701
0.000288224
0.00488222
-0.000254759
0.000294634
0.00484303
-0.000261234
0.000300432
0.00480492
-0.000266786
0.000304887
-0.000270566
0.000307731
0.00613227
0.000104662
0.00607824
8.45817e-05
0.00602515
6.57562e-05
0.00597297
4.8036e-05
0.00592169
3.12725e-05
0.00587129
1.53302e-05
0.00582172
1.03462e-07
0.00577298
-1.44844e-05
0.00572502
-2.85111e-05
0.00567781
-4.20298e-05
0.00563134
-5.50953e-05
0.00558556
-6.77392e-05
0.00554046
-7.9994e-05
0.00549601
-9.1885e-05
0.00545218
-0.000103431
0.00540895
-0.000114646
0.0053663
-0.000125542
0.00532421
-0.000136126
0.00528266
-0.000146404
0.00524163
-0.000156378
0.00520111
-0.00016605
0.00516108
-0.000175415
0.00512153
-0.000184466
0.00508245
-0.000193187
0.00504382
-0.00020155
0.00500562
-0.000209506
0.00496784
-0.000216972
0.00493041
-0.000223803
0.00489334
-0.000229725
-0.000234651
0.00613649
0.000155424
0.00608654
0.000134525
0.00603741
0.000114888
0.00598909
9.63613e-05
0.00594156
7.88008e-05
0.00589481
6.20833e-05
0.0058488
4.61061e-05
0.00580353
3.07878e-05
0.00575896
1.60561e-05
0.00571507
1.86236e-06
0.00567184
-1.18624e-05
0.00562924
-2.51363e-05
0.00558724
-3.79977e-05
0.00554583
-5.04734e-05
0.00550498
-6.25814e-05
0.00546467
-7.43381e-05
0.00542488
-8.57555e-05
0.0053856
-9.68429e-05
0.0053468
-0.000107606
0.00530848
-0.00011805
0.0052706
-0.000128174
0.00523316
-0.000137977
0.00519614
-0.000147448
0.00515953
-0.000156573
0.0051233
-0.00016532
0.00508743
-0.000173641
0.00505191
-0.000181452
0.00501672
-0.000188611
0.00498195
-0.000194959
-0.000200483
0.00614062
0.000202058
0.00609467
0.000180468
0.00604943
0.000160136
0.00600488
0.000140911
0.00596102
0.00012266
0.00591784
0.000105265
0.00587531
8.86283e-05
0.00583343
7.26683e-05
0.00579217
5.73163e-05
0.00575152
4.25173e-05
0.00571144
2.82171e-05
0.00567192
1.43831e-05
0.00563294
9.85618e-07
0.00559447
-1.20101e-05
0.00555651
-2.46165e-05
0.00551902
-3.68534e-05
0.005482
-4.87333e-05
0.00544542
-6.02663e-05
0.00540928
-7.14594e-05
0.00537354
-8.23168e-05
0.00533821
-9.28399e-05
0.00530326
-0.000103026
0.00526868
-0.000112866
0.00523445
-0.000122343
0.00520055
-0.000131428
0.00516698
-0.000140072
0.00513373
-0.000148198
0.0051008
-0.000155681
0.00506827
-0.000162426
-0.000168442
0.00614465
0.000244656
0.00610263
0.000222494
0.00606118
0.000201579
0.00602033
0.000181765
0.00598006
0.000162925
0.00594038
0.00014495
0.00590126
0.000127744
0.0058627
0.00011123
0.00582468
9.53386e-05
0.00578718
8.00155e-05
0.00575019
6.52123e-05
0.00571368
5.08914e-05
0.00567764
3.70221e-05
0.00564206
2.35755e-05
0.00560691
1.05326e-05
0.00557218
-2.12441e-06
0.00553785
-1.44089e-05
0.00550392
-2.63317e-05
0.00547036
-3.79004e-05
0.00543716
-4.91196e-05
0.00540431
-5.99909e-05
0.0053718
-7.05114e-05
0.00533961
-8.06726e-05
0.00530772
-9.04575e-05
0.00527613
-9.98378e-05
0.00524483
-0.000108769
0.00521381
-0.000117179
0.00518309
-0.00012496
0.00515272
-0.000132054
-0.000138493
0.00614859
0.000283311
0.0061104
0.00026069
0.00607268
0.0002393
0.00603544
0.000219001
0.0059987
0.000199673
0.00596243
0.000181211
0.00592665
0.000163526
0.00589134
0.000146542
0.00585649
0.000130192
0.00582208
0.000114424
0.0057881
9.91898e-05
0.00575454
8.44522e-05
0.00572138
7.01798e-05
0.00568861
5.63454e-05
0.00565622
4.29283e-05
0.00562418
2.99109e-05
0.00559249
1.72788e-05
0.00556114
5.02117e-06
0.00553011
-6.86972e-06
0.00549939
-1.83994e-05
0.00546897
-2.95698e-05
0.00543883
-4.0377e-05
0.00540898
-5.08141e-05
0.00537938
-6.08642e-05
0.00535004
-7.0501e-05
0.00532096
-7.96834e-05
0.00529213
-8.83459e-05
0.00526356
-9.63967e-05
0.0052353
-0.000103795
-0.000110583
0.00615244
0.000318118
0.00611799
0.000295144
0.00608391
0.000273383
0.00605021
0.000252699
0.0060169
0.000232979
0.00598399
0.000214123
0.00595147
0.000196047
0.00591934
0.000178675
0.00588758
0.000161948
0.00585619
0.00014581
0.00582517
0.000130217
0.00579449
0.000115132
0.00576414
0.000100524
0.00573412
8.6365e-05
0.00570442
7.26349e-05
0.00567501
5.93156e-05
0.0056459
4.63928e-05
0.00561706
3.38552e-05
0.0055885
2.16945e-05
0.0055602
9.90521e-06
0.00553214
-1.51712e-06
0.00550433
-1.25632e-05
0.00547675
-2.32332e-05
0.00544939
-3.35069e-05
0.00542225
-4.3362e-05
0.00539533
-5.27609e-05
0.00536863
-6.16444e-05
0.00534216
-6.99307e-05
0.00531596
-7.75903e-05
-8.46648e-05
0.0061562
0.000349172
0.00612539
0.000325948
0.00609486
0.000303915
0.00606462
0.000282942
0.00603467
0.000262922
0.00600503
0.000243762
0.0059757
0.000225379
0.00594667
0.000207703
0.00591795
0.000190674
0.00588952
0.000174242
0.00586137
0.000158362
0.00583351
0.000142998
0.00580591
0.000128119
0.00577858
0.000113698
0.0057515
9.97157e-05
0.00572466
8.61528e-05
0.00569806
7.29949e-05
0.00567168
6.02308e-05
0.00564552
4.78518e-05
0.00561958
3.5852e-05
0.00559383
2.42292e-05
0.00556828
1.29864e-05
0.00554292
2.12425e-06
0.00551775
-8.33004e-06
0.00549275
-1.83662e-05
0.00546794
-2.79459e-05
0.00544331
-3.70153e-05
0.00541888
-4.55017e-05
0.00539467
-5.3381e-05
-6.06881e-05
0.00615985
0.000376572
0.0061326
0.000353194
0.00610554
0.000330983
0.00607866
0.000309814
0.006052
0.000289585
0.00602556
0.000270205
0.00599934
0.000251598
0.00597334
0.000233697
0.00594758
0.000216443
0.00592203
0.000199789
0.0058967
0.000183692
0.00587158
0.000168115
0.00584667
0.00015303
0.00582196
0.00013841
0.00579744
0.000124234
0.00577311
0.000110484
0.00574896
9.71462e-05
0.00572498
8.42082e-05
0.00570117
7.16614e-05
0.00567752
5.95001e-05
0.00565403
4.77213e-05
0.00563069
3.63268e-05
0.00560749
2.53217e-05
0.00558444
1.47212e-05
0.00556153
4.54081e-06
0.00553877
-5.18233e-06
0.00551616
-1.4401e-05
0.00549371
-2.30513e-05
0.00547143
-3.11078e-05
-3.85997e-05
0.00616341
0.000400416
0.00613962
0.000376977
0.00611593
0.000354679
0.00609234
0.000333402
0.00606888
0.000313047
0.00604555
0.000293532
0.00602237
0.000274781
0.00599933
0.000256731
0.00597645
0.000239327
0.00595372
0.000222522
0.00593113
0.000206275
0.0059087
0.000190552
0.0058864
0.000175323
0.00586425
0.000160563
0.00584223
0.000146252
0.00582034
0.000132372
0.00579858
0.000118907
0.00577694
0.000105847
0.00575542
9.31825e-05
0.00573402
8.09072e-05
0.00571272
6.9018e-05
0.00569153
5.75162e-05
0.00567045
4.6407e-05
0.00564946
3.5702e-05
0.00562859
2.54198e-05
0.00560781
1.55897e-05
0.00558716
6.25466e-06
0.00556663
-2.52526e-06
0.00554624
-1.07135e-05
-1.83491e-05
0.00616686
0.000420804
0.00614645
0.000397393
0.00612603
0.000375094
0.00610564
0.000353792
0.00608529
0.000333396
0.006065
0.000313823
0.00604478
0.000295005
0.00602463
0.000276881
0.00600456
0.000259398
0.00598457
0.00024251
0.00596466
0.000226181
0.00594484
0.000210374
0.0059251
0.000195064
0.00590544
0.000180224
0.00588586
0.000165834
0.00586635
0.000151877
0.00584692
0.000138339
0.00582756
0.000125208
0.00580827
0.000112474
0.00578904
0.000100131
0.00576988
8.81768e-05
0.00575079
7.66108e-05
0.00573176
6.54378e-05
0.00571279
5.46688e-05
0.00569389
4.43208e-05
0.00567506
3.44204e-05
0.0056563
2.501e-05
0.00563763
1.61463e-05
0.00561906
7.85488e-06
1.08837e-07
0.00617022
0.000437838
0.00615307
0.000414539
0.00613584
0.000392322
0.00611856
0.000371076
0.00610124
0.000350715
0.0060839
0.000331162
0.00606656
0.000312351
0.00604921
0.000294224
0.00603188
0.00027673
0.00601456
0.000259828
0.00599726
0.000243479
0.00597999
0.000227652
0.00596273
0.000212319
0.0059455
0.000197456
0.00592829
0.000183043
0.0059111
0.000169064
0.00589394
0.000155503
0.0058768
0.00014235
0.00585968
0.000129594
0.00584258
0.000117231
0.0058255
0.000105255
0.00580844
9.36669e-05
0.00579141
8.24712e-05
0.0057744
7.16771e-05
0.00575742
6.13009e-05
0.00574047
5.13674e-05
0.00572357
4.19167e-05
0.00570671
3.30012e-05
0.00568992
2.46435e-05
1.68531e-05
0.00617347
0.000451619
0.00615949
0.000428513
0.00614536
0.000406456
0.00613109
0.000385344
0.00611671
0.000365093
0.00610224
0.000345633
0.00608769
0.0003269
0.00607308
0.000308838
0.00605841
0.000291401
0.00604369
0.000274548
0.00602893
0.000258243
0.00601412
0.000242454
0.00599929
0.000227157
0.00598442
0.000212327
0.00596951
0.000197945
0.00595458
0.000183994
0.00593963
0.000170462
0.00592464
0.000157334
0.00590963
0.000144604
0.0058946
0.000132264
0.00587954
0.00012031
0.00586447
0.000108742
0.00584938
9.75631e-05
0.00583427
8.6783e-05
0.00581916
7.64162e-05
0.00580404
6.64865e-05
0.00578892
5.70313e-05
0.00577382
4.81003e-05
0.00575875
3.97165e-05
3.1906e-05
0.00617662
0.000462254
0.00616571
0.000439416
0.00615458
0.000417594
0.00614323
0.000396688
0.0061317
0.00037662
0.00612002
0.000357322
0.00610818
0.000338734
0.00609622
0.000320804
0.00608413
0.000303488
0.00607193
0.000286745
0.00605963
0.000270543
0.00604723
0.000254852
0.00603474
0.000239646
0.00602217
0.000224903
0.00600951
0.000210604
0.00599677
0.000196733
0.00598395
0.000183277
0.00597107
0.000170223
0.00595811
0.000157563
0.00594508
0.00014529
0.00593199
0.0001334
0.00591884
0.000121892
0.00590563
0.00011077
0.00589237
0.000100042
0.00587907
8.97219e-05
0.00586572
7.9832e-05
0.00585234
7.04082e-05
0.00583895
6.14968e-05
0.00582554
5.31228e-05
4.53251e-05
0.00617966
0.000469845
0.00617173
0.000447349
0.00616349
0.000425833
0.00615497
0.000405203
0.00614621
0.000385385
0.00613721
0.000366316
0.00612801
0.000347939
0.00611861
0.000330204
0.00610903
0.000313069
0.00609927
0.000296497
0.00608936
0.000280456
0.0060793
0.000264918
0.00606908
0.000249857
0.00605873
0.000235254
0.00604825
0.000221089
0.00603764
0.000207346
0.0060269
0.000194013
0.00601605
0.000181078
0.00600508
0.000168532
0.005994
0.000156369
0.00598281
0.000144584
0.00597153
0.000133177
0.00596015
0.00012215
0.00594868
0.000111511
0.00593713
0.000101274
0.0059255
9.14586e-05
0.00591381
8.21008e-05
0.00590206
7.32438e-05
0.00589027
6.49137e-05
5.71614e-05
0.00618259
0.000474501
0.00617753
0.000452415
0.00617209
0.000431272
0.00616631
0.000410984
0.00616021
0.000391482
0.00615382
0.000372705
0.00614716
0.0003546
0.00614024
0.00033712
0.00613309
0.000320226
0.0061257
0.000303882
0.0061181
0.000288057
0.00611029
0.000272725
0.00610229
0.000257863
0.00609409
0.000243449
0.00608572
0.000229466
0.00607716
0.000215899
0.00606844
0.000202735
0.00605956
0.000189963
0.00605051
0.000177574
0.00604132
0.000165562
0.00603198
0.000153922
0.00602251
0.000142654
0.0060129
0.00013176
0.00600316
0.000121247
0.00599331
0.000111127
0.00598334
0.000101422
0.00597328
9.21636e-05
0.00596313
8.33941e-05
0.0059529
7.5141e-05
6.74653e-05
0.00618542
0.000476328
0.00618312
0.000454718
0.00618038
0.000434012
0.00617724
0.000414129
0.00617371
0.000395004
0.00616984
0.000376579
0.00616563
0.000358806
0.00616111
0.000341639
0.0061563
0.000325042
0.0061512
0.00030898
0.00614584
0.000293424
0.00614021
0.00027835
0.00613434
0.000263735
0.00612823
0.000249559
0.00612189
0.000235806
0.00611533
0.00022246
0.00610855
0.000209509
0.00610157
0.000196943
0.00609439
0.000184753
0.00608702
0.000172932
0.00607947
0.000161476
0.00607174
0.000150384
0.00606384
0.000139659
0.00605578
0.000129307
0.00604757
0.000119339
0.00603921
0.000109777
0.00603073
0.000100651
0.00602212
9.20017e-05
0.0060134
8.38571e-05
7.62874e-05
0.00618814
0.000475437
0.0061885
0.000454362
0.00618835
0.000434154
0.00618775
0.000414736
0.00618671
0.000396046
0.00618525
0.000378031
0.00618341
0.000360645
0.00618121
0.000343846
0.00617865
0.000327599
0.00617576
0.000311871
0.00617255
0.000296636
0.00616903
0.00028187
0.00616521
0.00026755
0.00616111
0.000253658
0.00615674
0.000240179
0.0061521
0.000227098
0.00614721
0.000214403
0.00614207
0.000202084
0.00613669
0.000190132
0.00613108
0.00017854
0.00612525
0.000167306
0.00611921
0.000156427
0.00611296
0.000145906
0.00610651
0.000135749
0.00609989
0.000125968
0.00609308
0.000116581
0.00608611
0.00010762
0.006079
9.91205e-05
0.00607174
9.11148e-05
8.3679e-05
0.00619075
0.000471936
0.00619366
0.000451455
0.00619601
0.000431802
0.00619784
0.000412904
0.00619918
0.000394705
0.00620006
0.000377155
0.00620049
0.000360209
0.00620051
0.00034383
0.00620013
0.000327984
0.00619936
0.00031264
0.00619822
0.000297774
0.00619673
0.000283361
0.00619489
0.000269383
0.00619273
0.000255821
0.00619025
0.000242659
0.00618747
0.000229885
0.00618438
0.000217486
0.00618101
0.000205453
0.00617737
0.000193777
0.00617346
0.000182453
0.00616929
0.000171476
0.00616487
0.000160845
0.00616021
0.000150563
0.00615533
0.000140634
0.00615022
0.000131071
0.00614491
0.000121891
0.00613941
0.000113124
0.00613372
0.000104805
0.00612787
9.69674e-05
8.96922e-05
0.00619325
0.000465937
0.0061986
0.000446104
0.00620334
0.000427059
0.00620751
0.000408735
0.00621114
0.000391079
0.00621425
0.000374045
0.00621687
0.000357591
0.00621901
0.000341681
0.00622071
0.000326284
0.00622198
0.000311371
0.00622284
0.000296919
0.00622329
0.000282906
0.00622336
0.000269312
0.00622306
0.000256122
0.0062224
0.000243319
0.0062214
0.000230891
0.00622005
0.000218828
0.00621839
0.000207119
0.00621641
0.000195757
0.00621413
0.000184735
0.00621155
0.000174051
0.0062087
0.000163701
0.00620557
0.00015369
0.00620218
0.000144021
0.00619855
0.000134707
0.00619467
0.000125764
0.00619057
0.000117221
0.00618627
0.000109112
0.00618177