/*--------------------------------*- C++ -*----------------------------------*\
  =========                 |
  \\      /  F ield         | OpenFOAM: The Open Source CFD Toolbox
   \\    /   O peration     | Website:  https://openfoam.org
    \\  /    A nd           | Version:  7
     \\/     M anipulation  |
\*---------------------------------------------------------------------------*/
FoamFile
{
    version     2.0;
    format      ascii;
    class       volVectorField;
    location    "15";
    object      U;
}
// * * * * * * * * * * * * * * * * * * * * * * * * * * * * * * * * * * * * * //

dimensions      [0 1 -1 0 0 0 0];

internalField   nonuniform List<vector> 
2625
(
(0.493541 0.00815254 8.1024e-21)
(0.575201 0.00725033 9.75955e-21)
(0.493541 -0.00815288 -8.1024e-21)
(0.575201 -0.00725064 -9.75955e-21)
(0.643759 -0.00635511 8.05953e-21)
(0.702789 -0.00552311 -1.11118e-20)
(0.752305 -0.00478942 3.12102e-21)
(0.794623 -0.00414925 1.88211e-21)
(0.830404 -0.00359645 3.63171e-22)
(0.860994 -0.00311618 7.40805e-21)
(0.887001 -0.0026979 6.82897e-21)
(0.909211 -0.00233066 -1.55148e-21)
(0.928091 -0.00200677 -6.25618e-21)
(0.944118 -0.00171897 3.58738e-21)
(0.957653 -0.00146248 8.86587e-21)
(0.968972 -0.00123012 9.03333e-22)
(0.978376 -0.00102443 4.72488e-21)
(0.494048 -0.0244487 3.29872e-21)
(0.575644 -0.0217438 -3.72668e-21)
(0.644143 -0.0190587 1.54859e-20)
(0.703121 -0.0165639 6.71272e-21)
(0.752592 -0.0143637 -6.54677e-21)
(0.794871 -0.012444 1.40452e-20)
(0.83062 -0.0107862 6.99769e-21)
(0.86118 -0.00934584 -6.40669e-21)
(0.887163 -0.00809141 -2.09432e-20)
(0.909351 -0.00699004 -1.07943e-20)
(0.92821 -0.00601867 1.42855e-20)
(0.944219 -0.00515551 -7.18902e-21)
(0.957737 -0.00438625 -2.52338e-20)
(0.969038 -0.00368939 6.02101e-22)
(0.978428 -0.00307248 2.27156e-21)
(0.495062 -0.0407156 2.82607e-20)
(0.57653 -0.0362136 3.85839e-21)
(0.644912 -0.0317433 -3.66806e-21)
(0.703784 -0.027589 1.0626e-20)
(0.753165 -0.0239249 3.27742e-20)
(0.795367 -0.0207276 1.86547e-20)
(0.83105 -0.0179664 7.02845e-21)
(0.861554 -0.0155673 -1.82587e-20)
(0.887487 -0.0134778 2.63648e-21)
(0.90963 -0.0116432 -1.12962e-20)
(0.928449 -0.0100251 -1.29218e-20)
(0.944421 -0.00858727 1.53716e-20)
(0.957904 -0.0073058 2.05223e-20)
(0.969169 -0.00614508 -6.82713e-21)
(0.978533 -0.00511741 -3.21899e-20)
(0.49658 -0.0569345 -6.6649e-20)
(0.577858 -0.0506445 4.49342e-20)
(0.646065 -0.0443961 1.66495e-20)
(0.704779 -0.038588 -1.04395e-20)
(0.754025 -0.0334642 -2.63754e-20)
(0.796111 -0.0289927 -2.85605e-20)
(0.831695 -0.0251308 1.86011e-20)
(0.862113 -0.0217752 -1.86171e-20)
(0.887972 -0.0188524 4.40385e-20)
(0.910048 -0.0162861 1.59742e-20)
(0.928808 -0.0140225 1.15747e-20)
(0.944723 -0.012011 -2.53029e-20)
(0.958155 -0.0102183 -4.90068e-21)
(0.969367 -0.00859477 1.72925e-20)
(0.97869 -0.00715709 2.7062e-20)
(0.498601 -0.0730863 5.21252e-20)
(0.579626 -0.065021 -5.02743e-20)
(0.647599 -0.0570045 2.75008e-20)
(0.706103 -0.0495504 -3.0104e-20)
(0.75517 -0.042973 -9.68041e-21)
(0.797101 -0.037232 1.53048e-21)
(0.832554 -0.0322732 -2.45163e-20)
(0.862859 -0.0279641 3.23989e-20)
(0.888618 -0.0242106 -2.32834e-20)
(0.910606 -0.0209146 -5.15676e-21)
(0.929286 -0.0180073 1.22296e-20)
(0.945126 -0.0154237 -1.15036e-20)
(0.95849 -0.0131209 3.44544e-20)
(0.969631 -0.0110361 1.29388e-20)
(0.978901 -0.00918942 -1.38508e-20)
(0.501122 -0.0891518 -1.19182e-19)
(0.581831 -0.0793275 8.08005e-21)
(0.649513 -0.0695559 -8.94067e-20)
(0.707755 -0.0604659 5.42072e-20)
(0.756598 -0.0524425 -7.87555e-20)
(0.798337 -0.0454382 -2.81382e-20)
(0.833627 -0.0393871 1.77471e-20)
(0.86379 -0.0341285 4.14123e-20)
(0.889425 -0.0295475 2.52088e-21)
(0.911303 -0.0255246 6.77008e-20)
(0.929883 -0.0219757 1.08292e-20)
(0.94563 -0.018822 -1.68166e-20)
(0.958908 -0.0160108 -2.27177e-20)
(0.969962 -0.0134666 -4.20655e-20)
(0.979165 -0.0112123 1.2354e-20)
(0.58447 -0.0935489 5.64029e-20)
(0.651805 -0.0820377 -2.18796e-20)
(0.709733 -0.0713241 -9.98347e-20)
(0.758309 -0.0618642 8.5532e-20)
(0.799818 -0.0536038 6.5117e-20)
(0.834912 -0.0464666 4.47546e-20)
(0.864905 -0.0402632 -6.35779e-20)
(0.890392 -0.0348586 -5.71149e-20)
(0.912138 -0.030112 -8.86225e-20)
(0.930599 -0.0259243 -8.09231e-20)
(0.946235 -0.0222028 6.51845e-20)
(0.959411 -0.0188853 -3.89903e-20)
(0.970359 -0.015884 2.59552e-20)
(0.979483 -0.0132234 6.73395e-21)
(0.587541 -0.10767 -8.74698e-20)
(0.654472 -0.0944376 -4.85692e-21)
(0.712036 -0.082115 1.23425e-19)
(0.760301 -0.0712295 1.04601e-20)
(0.801542 -0.0617218 -2.76342e-20)
(0.836408 -0.0535052 -9.05259e-20)
(0.866204 -0.0463628 4.46527e-20)
(0.891519 -0.0401392 4.29688e-20)
(0.913111 -0.0346728 4.77244e-20)
(0.931433 -0.0298495 3.25785e-20)
(0.946941 -0.025563 -6.65638e-20)
(0.959998 -0.0217415 1.60517e-20)
(0.970825 -0.0182858 6.02051e-20)
(0.979856 -0.0152208 -6.27676e-20)
(0.591039 -0.121675 2.10261e-20)
(0.657511 -0.106743 1.63154e-19)
(0.714661 -0.0928282 -1.19495e-19)
(0.762572 -0.0805299 -1.20186e-19)
(0.803508 -0.069785 -2.0487e-20)
(0.838115 -0.060497 5.46091e-20)
(0.867685 -0.0524221 1.97097e-20)
(0.892805 -0.0453848 1.24599e-20)
(0.914222 -0.039203 5.09814e-20)
(0.932387 -0.0337478 6.57066e-20)
(0.947748 -0.0288995 7.67266e-20)
(0.96067 -0.0245765 -9.70716e-21)
(0.971358 -0.0206695 -2.94299e-20)
(0.980284 -0.017202 9.06869e-20)
(0.594959 -0.13555 -6.67562e-20)
(0.660919 -0.118942 3.13581e-20)
(0.717605 -0.103454 1.52239e-19)
(0.765119 -0.089757 1.52145e-19)
(0.805714 -0.0777862 4.16679e-21)
(0.84003 -0.0674359 -1.29149e-19)
(0.869349 -0.0584357 2.81613e-20)
(0.894248 -0.0505909 -1.54842e-20)
(0.91547 -0.0436987 -7.64179e-20)
(0.933458 -0.0376156 -1.0538e-19)
(0.948655 -0.0322091 -3.01412e-20)
(0.961427 -0.0273877 7.48099e-21)
(0.971959 -0.0230329 -9.43652e-20)
(0.98077 -0.0191649 -2.42469e-20)
(0.599296 -0.149279 1.13734e-19)
(0.66469 -0.131023 -4.5595e-20)
(0.720864 -0.113982 -5.66106e-20)
(0.76794 -0.0989025 2.86907e-20)
(0.808157 -0.0857185 1.45115e-19)
(0.842151 -0.0743158 1.66563e-19)
(0.871192 -0.0643986 -8.21468e-20)
(0.895849 -0.0557529 2.14637e-20)
(0.916854 -0.0481558 1.4699e-20)
(0.934647 -0.0414496 1.53252e-19)
(0.949663 -0.0354889 1.61721e-21)
(0.962269 -0.0301723 3.90939e-20)
(0.972631 -0.0253734 -8.25391e-21)
(0.981314 -0.0211071 1.46527e-20)
(0.604045 -0.162849 -2.0037e-19)
(0.668821 -0.142973 -5.22471e-20)
(0.724435 -0.124402 2.73107e-20)
(0.771032 -0.107958 -2.06575e-19)
(0.810836 -0.0935749 -2.70383e-19)
(0.844478 -0.0811309 -2.03469e-19)
(0.873214 -0.0703057 8.36903e-20)
(0.897605 -0.0608664 1.39206e-21)
(0.918374 -0.0525707 -2.09702e-20)
(0.935954 -0.0452463 -1.35372e-19)
(0.950772 -0.0387357 -2.36599e-20)
(0.963196 -0.0329275 -4.45563e-20)
(0.973372 -0.0276887 8.78443e-20)
(0.981916 -0.0230262 -6.9849e-20)
(0.609199 -0.176244 4.34823e-20)
(0.673307 -0.15478 -3.89546e-20)
(0.728315 -0.134706 -5.01656e-20)
(0.774392 -0.116916 5.8164e-20)
(0.813747 -0.101349 8.78095e-20)
(0.847008 -0.0878752 1.0724e-19)
(0.875413 -0.0761519 -4.60301e-20)
(0.899516 -0.0659271 2.61049e-20)
(0.920029 -0.0569394 -6.39785e-20)
(0.937378 -0.0490024 1.71481e-20)
(0.951981 -0.0419466 1.81592e-20)
(0.96421 -0.0356507 4.36037e-20)
(0.974183 -0.0299764 -6.77136e-20)
(0.982578 -0.02492 1.11747e-19)
(0.614751 -0.18945 2.49051e-19)
(0.678142 -0.166434 -4.79406e-21)
(0.732498 -0.144883 8.84854e-21)
(0.778016 -0.125768 1.87495e-19)
(0.816889 -0.109033 1.00524e-19)
(0.849739 -0.0945432 6.94238e-20)
(0.877787 -0.0819323 2.89744e-20)
(0.90158 -0.0709307 -5.27943e-21)
(0.921817 -0.0612581 1.24712e-19)
(0.938918 -0.0527144 -1.02233e-21)
(0.953291 -0.0451186 9.18124e-21)
(0.96531 -0.038339 -1.03039e-19)
(0.975067 -0.032234 1.7664e-20)
(0.983302 -0.0267858 -1.16373e-19)
(0.620694 -0.202454 3.64008e-20)
(0.683321 -0.177922 -1.35691e-19)
(0.736981 -0.154923 -2.22201e-20)
(0.781902 -0.134506 -1.66383e-19)
(0.820258 -0.116621 -1.23731e-19)
(0.852668 -0.101129 2.87956e-20)
(0.880335 -0.0876421 -5.38228e-20)
(0.903797 -0.075873 -1.72009e-19)
(0.923738 -0.0655233 -3.77127e-20)
(0.940574 -0.0563792 -2.80066e-21)
(0.954702 -0.0482488 -5.7845e-20)
(0.966496 -0.0409898 1.39487e-19)
(0.976022 -0.0344592 -9.56142e-20)
(0.984088 -0.0286213 9.54563e-20)
(0.62702 -0.215241 -1.12247e-19)
(0.688837 -0.189234 1.78119e-20)
(0.741759 -0.164819 -9.87368e-20)
(0.786043 -0.143123 1.08467e-19)
(0.823851 -0.124107 -4.17875e-20)
(0.855792 -0.107627 -5.85174e-20)
(0.883055 -0.0932764 -2.0169e-19)
(0.906163 -0.0807497 1.49634e-19)
(0.925792 -0.0697313 9.78058e-20)
(0.942346 -0.0599935 9.09443e-20)
(0.956213 -0.0513343 5.08966e-20)
(0.967769 -0.0436004 -1.80665e-19)
(0.977051 -0.0366495 1.30163e-19)
(0.984939 -0.0304239 9.39404e-21)
(0.63372 -0.227798 9.0065e-20)
(0.694684 -0.200358 1.06227e-19)
(0.746825 -0.17456 3.06224e-19)
(0.790438 -0.151611 -2.23562e-19)
(0.827664 -0.131483 2.99135e-20)
(0.85911 -0.114032 1.63399e-20)
(0.885944 -0.0988306 1.23992e-19)
(0.908679 -0.085557 -7.57507e-20)
(0.927976 -0.0738785 -7.34367e-20)
(0.944232 -0.0635543 -6.46651e-20)
(0.957824 -0.0543724 -1.94693e-20)
(0.969129 -0.0461683 1.18962e-19)
(0.978154 -0.0388026 8.89827e-21)
(0.985854 -0.032191 -1.11838e-19)
(0.640786 -0.240112 -2.98526e-20)
(0.700855 -0.211284 -1.12924e-19)
(0.752175 -0.184138 -2.2706e-19)
(0.795081 -0.159963 2.26756e-19)
(0.831694 -0.138745 7.94009e-20)
(0.862619 -0.120339 -1.15185e-19)
(0.889 -0.1043 -2.57974e-20)
(0.911341 -0.0902908 -3.4183e-20)
(0.930289 -0.0779614 -6.04648e-20)
(0.946232 -0.0670584 5.35939e-21)
(0.959535 -0.0573602 7.34137e-20)
(0.970576 -0.0486909 3.40281e-20)
(0.979332 -0.0409162 3.03015e-20)
(0.986835 -0.0339202 1.77277e-20)
(0.648208 -0.25217 -9.41429e-20)
(0.707342 -0.222 1.80139e-20)
(0.757804 -0.193544 1.57231e-19)
(0.799967 -0.168171 -1.65148e-20)
(0.835938 -0.145885 2.71049e-21)
(0.866314 -0.126543 1.19123e-20)
(0.89222 -0.10968 2.98484e-19)
(0.914149 -0.0949472 7.35426e-20)
(0.932731 -0.0819768 7.56188e-20)
(0.948346 -0.0705028 -5.8653e-20)
(0.961345 -0.060295 2.51083e-20)
(0.972112 -0.0511657 -1.30396e-19)
(0.980586 -0.0429878 -6.41473e-20)
(0.987884 -0.0356087 8.69873e-20)
(0.655976 -0.26396 -1.7621e-21)
(0.714137 -0.232498 -1.33008e-19)
(0.763703 -0.20277 -2.8043e-19)
(0.805092 -0.176229 1.4636e-19)
(0.840391 -0.152898 -9.61846e-20)
(0.870193 -0.132637 4.4575e-20)
(0.895603 -0.114967 -2.04199e-19)
(0.9171 -0.0995225 2.70261e-20)
(0.935299 -0.0859212 3.5391e-20)
(0.950571 -0.0738847 1.14591e-19)
(0.963256 -0.0631743 -6.89623e-20)
(0.973735 -0.0535901 6.10545e-20)
(0.981917 -0.0450153 1.28413e-19)
(0.989002 -0.0372539 -1.37031e-19)
(0.664079 -0.275468 -2.69027e-19)
(0.721233 -0.242766 3.8532e-19)
(0.769868 -0.211807 2.23374e-19)
(0.81045 -0.184129 -6.33406e-20)
(0.845049 -0.159779 3.9965e-20)
(0.874253 -0.138619 1.37189e-19)
(0.899146 -0.120157 1.04501e-19)
(0.920192 -0.104013 -5.5753e-21)
(0.937993 -0.0897916 -9.40678e-20)
(0.952908 -0.0772011 -7.17461e-20)
(0.965265 -0.0659955 -4.18113e-20)
(0.975446 -0.0559618 6.73518e-20)
(0.983325 -0.0469964 -1.40056e-19)
(0.99019 -0.0388533 1.26053e-19)
(0.672507 -0.286684 2.44019e-19)
(0.72862 -0.252794 -7.27214e-20)
(0.776292 -0.220647 -8.57098e-20)
(0.816036 -0.191865 4.09418e-20)
(0.849908 -0.166521 -3.92145e-20)
(0.878491 -0.144482 -3.9381e-21)
(0.902845 -0.125244 -2.1973e-19)
(0.923424 -0.108415 9.83634e-20)
(0.94081 -0.0935847 4.66578e-20)
(0.955356 -0.0804494 -1.31296e-20)
(0.967373 -0.0687561 4.85163e-20)
(0.977245 -0.0582784 -1.82371e-20)
(0.984812 -0.0489288 -5.52875e-20)
(0.991447 -0.0404041 3.91191e-21)
(0.681249 -0.297595 1.62558e-19)
(0.73629 -0.262574 -1.52737e-19)
(0.782967 -0.229284 1.76747e-19)
(0.821845 -0.199431 -8.66558e-20)
(0.854962 -0.173119 -7.69724e-20)
(0.882901 -0.150222 -2.21443e-19)
(0.906697 -0.130226 -3.31874e-20)
(0.926792 -0.112726 -9.6806e-20)
(0.94375 -0.0972977 4.85229e-20)
(0.957913 -0.0836269 -1.20816e-19)
(0.96958 -0.0714537 -4.498e-20)
(0.979133 -0.0605377 8.30144e-20)
(0.986377 -0.0508104 2.11796e-20)
(0.992777 -0.0419039 3.34043e-20)
(0.744234 -0.272097 4.54818e-20)
(0.789886 -0.237708 -2.60996e-19)
(0.82787 -0.20682 1.16299e-19)
(0.860209 -0.179567 -3.12702e-20)
(0.887482 -0.155834 -3.69386e-20)
(0.910701 -0.135098 2.67966e-19)
(0.930294 -0.116941 -8.73736e-20)
(0.94681 -0.100928 4.33444e-20)
(0.960578 -0.0867311 3.65086e-20)
(0.971884 -0.074086 5.03952e-20)
(0.981108 -0.0627376 -7.06053e-20)
(0.988023 -0.0526391 5.70862e-20)
(0.994177 -0.0433499 -9.23738e-20)
(0.752441 -0.281352 4.78253e-22)
(0.797042 -0.245913 7.14925e-22)
(0.834106 -0.214026 -2.08917e-19)
(0.865642 -0.185862 1.23432e-19)
(0.892227 -0.161315 1.40816e-19)
(0.914852 -0.139857 -2.2402e-19)
(0.933929 -0.121058 -8.39589e-20)
(0.949989 -0.104472 -1.92492e-19)
(0.96335 -0.0897595 2.42116e-19)
(0.974285 -0.0766509 2.6881e-20)
(0.983172 -0.0648758 -9.78443e-20)
(0.98975 -0.0544128 -1.24087e-19)
(0.99565 -0.0447396 4.83368e-21)
(0.760903 -0.290332 1.62135e-19)
(0.804426 -0.253891 -1.04638e-19)
(0.840546 -0.221043 2.1488e-19)
(0.871257 -0.191997 2.51347e-19)
(0.897135 -0.166661 6.27152e-21)
(0.919147 -0.144499 5.7302e-20)
(0.937692 -0.125074 1.96332e-19)
(0.953284 -0.107927 9.24361e-20)
(0.966228 -0.0927099 -1.57598e-19)
(0.976783 -0.0791461 -1.35688e-19)
(0.985323 -0.0669505 9.23337e-20)
(0.991557 -0.0561295 1.01993e-20)
(0.997195 -0.0460705 7.44569e-20)
(0.769608 -0.299028 4.35819e-20)
(0.812031 -0.261637 3.87929e-19)
(0.847183 -0.227866 -1.59781e-19)
(0.877047 -0.197969 -3.35276e-19)
(0.9022 -0.171866 -4.86958e-20)
(0.923583 -0.149021 8.3384e-20)
(0.941583 -0.128986 -3.63643e-20)
(0.956694 -0.111292 2.08e-19)
(0.96921 -0.0955799 5.41991e-20)
(0.979376 -0.0815698 1.26384e-20)
(0.987562 -0.0689599 -1.30129e-21)
(0.993447 -0.0577873 5.70729e-20)
(0.998811 -0.0473403 1.4567e-21)
(0.778546 -0.307433 -1.81405e-19)
(0.819849 -0.269143 -2.51969e-19)
(0.854012 -0.23449 -2.45764e-19)
(0.883009 -0.203772 9.41921e-20)
(0.907418 -0.176928 1.64533e-19)
(0.928156 -0.153419 -2.89772e-20)
(0.945597 -0.13279 8.01006e-20)
(0.960217 -0.114563 -8.21378e-20)
(0.972294 -0.0983675 -5.48728e-20)
(0.982064 -0.08392 5.51974e-20)
(0.989887 -0.0709021 3.73186e-21)
(0.995419 -0.0593845 9.0345e-20)
(1.0005 -0.0485466 -1.27527e-19)
(0.787706 -0.315538 1.73342e-19)
(0.82787 -0.276402 5.36946e-20)
(0.861025 -0.240908 1.11741e-19)
(0.889137 -0.209402 -8.46694e-20)
(0.912784 -0.181843 1.22198e-19)
(0.932864 -0.157691 1.14438e-19)
(0.949733 -0.136485 -1.73272e-19)
(0.96385 -0.117738 -2.52432e-19)
(0.97548 -0.101071 -1.62505e-20)
(0.984847 -0.086195 -1.14523e-19)
(0.992299 -0.0727757 -1.24931e-19)
(0.997474 -0.0609191 4.87999e-20)
(1.00225 -0.049687 2.72546e-19)
(0.797076 -0.323336 -2.17474e-19)
(0.836086 -0.28341 -1.02568e-19)
(0.868215 -0.247117 1.86648e-20)
(0.895424 -0.214856 1.14546e-19)
(0.918295 -0.186607 -2.93632e-20)
(0.937701 -0.161833 -1.82635e-19)
(0.953986 -0.140068 1.68388e-19)
(0.96759 -0.120816 1.59813e-20)
(0.978766 -0.103688 9.34919e-20)
(0.987722 -0.088393 2.60369e-19)
(0.994796 -0.0745792 1.82979e-19)
(0.999613 -0.0623894 -5.54178e-20)
(1.00408 -0.0507588 -2.6594e-19)
(0.806646 -0.33082 3.65599e-20)
(0.844488 -0.29016 2.09516e-19)
(0.875575 -0.253111 1.45453e-20)
(0.901865 -0.220129 -1.1878e-19)
(0.923945 -0.191217 -2.54229e-19)
(0.942664 -0.165843 1.17347e-19)
(0.958355 -0.143536 -2.07278e-19)
(0.971437 -0.123793 -1.4128e-21)
(0.982149 -0.106217 -1.48984e-19)
(0.990689 -0.0905127 -9.02517e-20)
(0.997378 -0.0763114 -1.94022e-20)
(1.00184 -0.0637938 -1.37441e-19)
(1.00597 -0.0517612 3.15794e-20)
(0.816403 -0.337985 -4.06021e-20)
(0.853066 -0.296647 -1.43193e-19)
(0.883098 -0.258886 3.94555e-19)
(0.908454 -0.225218 1.5029e-20)
(0.929729 -0.195669 5.86008e-20)
(0.94775 -0.169718 -2.24385e-19)
(0.962835 -0.146887 -1.21512e-21)
(0.975386 -0.126669 -4.83309e-20)
(0.985627 -0.108657 1.45624e-19)
(0.993747 -0.0925525 -6.11196e-20)
(1.00004 -0.0779712 -2.05111e-19)
(1.00414 -0.0651304 -9.68037e-21)
(1.00791 -0.0526914 1.01656e-19)
(0.861811 -0.302866 4.30962e-20)
(0.890776 -0.264438 -1.95883e-19)
(0.915186 -0.230119 -1.11018e-19)
(0.935642 -0.199962 1.12074e-20)
(0.952953 -0.173455 1.35528e-19)
(0.967424 -0.15012 1.98135e-19)
(0.979437 -0.129441 1.28743e-19)
(0.9892 -0.111006 -4.61699e-20)
(0.996893 -0.0945113 1.52702e-21)
(1.00279 -0.0795579 1.23367e-19)
(1.00653 -0.0663976 1.63852e-19)
(1.00992 -0.0535474 -1.36158e-19)
(0.870714 -0.308812 4.80972e-20)
(0.898601 -0.269763 9.27278e-21)
(0.922053 -0.234829 -3.8987e-20)
(0.94168 -0.204093 -7.82843e-20)
(0.958271 -0.177053 1.28248e-20)
(0.972118 -0.153231 -1.57089e-19)
(0.983585 -0.132107 -1.10673e-19)
(0.992864 -0.113262 -5.25975e-20)
(1.00013 -0.0963878 1.61634e-20)
(1.00562 -0.0810706 -5.98123e-20)
(1.00901 -0.0675932 2.27107e-20)
(1.01198 -0.0543269 2.96336e-19)
(0.879764 -0.314479 -2.11711e-20)
(0.906566 -0.274857 7.63176e-20)
(0.929049 -0.239345 1.71212e-20)
(0.947837 -0.208058 2.88596e-19)
(0.963699 -0.180509 6.53515e-20)
(0.976914 -0.15622 6.1378e-20)
(0.987828 -0.134667 2.42178e-20)
(0.996618 -0.115425 -3.56644e-20)
(1.00345 -0.0981811 1.00199e-20)
(1.00853 -0.0825091 -1.16926e-20)
(1.01157 -0.0687153 9.95801e-20)
(1.01408 -0.0550275 -2.6916e-19)
(0.888951 -0.319865 1.12679e-20)
(0.914662 -0.279717 -7.18731e-20)
(0.936169 -0.243663 2.10182e-19)
(0.954108 -0.211855 -1.01869e-19)
(0.969233 -0.183821 4.21838e-20)
(0.981808 -0.159085 1.1259e-19)
(0.992164 -0.137119 1.55755e-19)
(1.00046 -0.117494 -1.3351e-20)
(1.00685 -0.0998902 -6.85588e-20)
(1.01152 -0.0838733 2.18219e-20)
(1.01422 -0.0697613 -1.99039e-19)
(1.01623 -0.0556468 1.23724e-19)
(0.898266 -0.324964 9.08174e-20)
(0.922882 -0.284339 -1.69259e-19)
(0.943405 -0.247783 -9.05736e-20)
(0.960488 -0.215482 -2.28843e-20)
(0.974868 -0.186987 -1.73681e-19)
(0.986798 -0.161823 -3.64027e-20)
(0.996589 -0.139462 -1.18094e-19)
(1.00439 -0.119467 2.00009e-19)
(1.01034 -0.101514 1.64378e-19)
(1.01459 -0.0851634 8.01965e-20)
(1.01696 -0.0707291 -9.36737e-20)
(1.0184 -0.0561813 -1.92221e-19)
(0.907696 -0.329774 -6.82501e-20)
(0.931217 -0.28872 1.89645e-20)
(0.950751 -0.2517 -4.33596e-20)
(0.966972 -0.218938 -2.66618e-20)
(0.980599 -0.190006 4.43254e-20)
(0.991878 -0.164435 1.35989e-20)
(1.0011 -0.141694 6.1091e-20)
(1.00839 -0.121343 -2.0004e-19)
(1.01391 -0.103053 -8.42566e-20)
(1.01773 -0.08638 -9.4039e-20)
(1.0198 -0.0716152 8.24267e-20)
(1.0206 -0.0566167 1.50821e-19)
(0.939659 -0.292858 -9.52458e-21)
(0.958201 -0.255412 1.13586e-19)
(0.973553 -0.22222 -4.53868e-20)
(0.986423 -0.192877 -1.25123e-19)
(0.997045 -0.166918 -2.0432e-19)
(1.0057 -0.143814 -6.17038e-20)
(1.01248 -0.123123 6.49713e-20)
(1.01756 -0.104505 2.73499e-20)
(1.02095 -0.087524 1.20985e-19)
(1.02272 -0.0724113 -2.40436e-20)
(1.02281 -0.0569442 2.6388e-20)
(0.948198 -0.29675 5.18727e-20)
(0.965747 -0.258919 -6.22898e-20)
(0.980227 -0.225327 3.52134e-20)
(0.992335 -0.195597 5.75906e-20)
(1.0023 -0.169271 2.07556e-19)
(1.01037 -0.145822 1.22011e-19)
(1.01665 -0.124805 5.55177e-20)
(1.02128 -0.105871 -1.04454e-20)
(1.02425 -0.0885953 -8.90673e-20)
(1.02575 -0.0731106 2.09974e-20)
(1.02499 -0.057322 -2.66568e-20)
(0.956828 -0.300394 1.69955e-19)
(0.973382 -0.262217 4.70356e-20)
(0.986987 -0.228258 1.44483e-19)
(0.99833 -0.198166 7.56224e-20)
(1.00763 -0.171495 -1.96956e-19)
(1.01512 -0.147717 -1.14678e-19)
(1.02089 -0.126388 1.10715e-19)
(1.02508 -0.10715 8.86169e-21)
(1.02762 -0.0895934 8.2751e-20)
(1.02888 -0.0737371 -2.05819e-20)
(1.0272 -0.0581237 2.11194e-20)
(0.965538 -0.303787 -1.98982e-19)
(0.9811 -0.265306 -9.72897e-20)
(0.993828 -0.23101 -2.65243e-19)
(1.0044 -0.200582 -1.67671e-20)
(1.01304 -0.173586 1.76094e-19)
(1.01995 -0.149498 6.51941e-20)
(1.02521 -0.127873 -2.17826e-19)
(1.02896 -0.108341 -3.35769e-20)
(1.03107 -0.09052 -1.06352e-19)
(1.03211 -0.0743075 1.51696e-20)
(1.02995 -0.058875 -4.56899e-21)
(0.974319 -0.306929 1.86648e-19)
(0.988893 -0.268183 3.19159e-20)
(1.00075 -0.233584 1.78455e-19)
(1.01055 -0.202846 -2.95279e-20)
(1.01851 -0.175546 -2.69715e-20)
(1.02485 -0.151164 -4.29441e-20)
(1.0296 -0.129258 1.78445e-19)
(1.03291 -0.109444 7.90318e-20)
(1.03459 -0.0913727 -4.60299e-20)
(1.03539 -0.0748067 1.08476e-19)
(1.03296 -0.0594913 -1.29314e-19)
(0.996754 -0.270849 -1.05809e-19)
(1.00773 -0.235977 -1.10455e-19)
(1.01677 -0.204955 1.27346e-20)
(1.02406 -0.177374 2.50482e-20)
(1.02982 -0.152716 1.02722e-19)
(1.03405 -0.130544 -7.36745e-21)
(1.03692 -0.110459 -1.50078e-19)
(1.0382 -0.0921489 1.45607e-19)
(1.03874 -0.0752347 -9.69499e-20)
(1.03606 -0.0599813 -1.29838e-20)
(1.00468 -0.2733 1.65324e-19)
(1.01478 -0.23819 8.00884e-20)
(1.02305 -0.206911 8.81773e-20)
(1.02967 -0.179068 1.48989e-20)
(1.03485 -0.154152 4.85135e-20)
(1.03857 -0.131729 1.04355e-20)
(1.04101 -0.111385 5.4916e-20)
(1.04188 -0.0928479 -1.24182e-19)
(1.04216 -0.0755961 1.71491e-19)
(1.03925 -0.0603611 2.037e-19)
(1.01265 -0.275538 -1.51157e-19)
(1.02189 -0.240222 5.52875e-20)
(1.02939 -0.208711 -4.60957e-20)
(1.03535 -0.18063 -1.47166e-19)
(1.03994 -0.155474 -1.94218e-19)
(1.04316 -0.132815 -1.05392e-19)
(1.04516 -0.112223 -1.24975e-19)
(1.04565 -0.0934696 6.62845e-21)
(1.04566 -0.0758933 -2.58629e-19)
(1.04252 -0.060652 6.3109e-20)
(1.02068 -0.277561 1.71291e-19)
(1.02905 -0.242073 -8.1159e-20)
(1.03579 -0.210357 3.97195e-22)
(1.04108 -0.182058 1.24784e-20)
(1.04509 -0.15668 7.96293e-20)
(1.0478 -0.133801 1.81448e-19)
(1.04937 -0.112974 1.254e-19)
(1.04948 -0.0940141 2.84457e-20)
(1.04923 -0.0761272 1.68646e-19)
(1.04587 -0.0608592 -7.38652e-20)
(1.03626 -0.243741 1.04072e-19)
(1.04223 -0.211847 -7.96999e-20)
(1.04686 -0.183353 6.67626e-20)
(1.05029 -0.157771 6.96788e-20)
(1.05251 -0.134687 -1.05351e-19)
(1.05365 -0.113638 -8.01106e-21)
(1.05339 -0.0944819 1.40151e-20)
(1.05287 -0.0762983 -3.96427e-20)
(1.0493 -0.0609857 -4.63105e-20)
(1.0435 -0.245228 -1.30839e-19)
(1.04872 -0.213183 1.12442e-19)
(1.05269 -0.184515 -7.92309e-20)
(1.05555 -0.158748 -1.13552e-19)
(1.05727 -0.135474 3.40083e-20)
(1.05799 -0.114216 -7.58769e-20)
(1.05738 -0.0948735 -6.0956e-20)
(1.05658 -0.0764074 1.91223e-20)
(1.05281 -0.0610336 -6.59104e-20)
(1.05078 -0.246533 1.4215e-19)
(1.05525 -0.214364 -7.87328e-20)
(1.05856 -0.185544 1.2379e-19)
(1.06085 -0.15961 2.6634e-21)
(1.06208 -0.136162 -1.42274e-19)
(1.06239 -0.114708 4.49781e-20)
(1.06142 -0.0951898 8.13519e-21)
(1.06036 -0.0764554 1.68953e-20)
(1.0564 -0.0610054 1.41766e-19)
(1.06181 -0.215391 -1.13532e-21)
(1.06447 -0.186441 -1.49896e-20)
(1.0662 -0.160358 1.3513e-19)
(1.06694 -0.136752 1.88472e-19)
(1.06684 -0.115116 4.6452e-20)
(1.06554 -0.0954317 7.04677e-20)
(1.0642 -0.0764436 4.09064e-20)
(1.06007 -0.0609033 3.40365e-20)
(1.06841 -0.216263 3.39363e-20)
(1.07042 -0.187207 -7.34247e-20)
(1.07159 -0.160993 -1.27935e-19)
(1.07185 -0.137245 -1.15921e-19)
(1.07135 -0.11544 -2.60095e-20)
(1.06972 -0.0956003 -1.40586e-20)
(1.0681 -0.076373 -3.77453e-20)
(1.06381 -0.0607296 -5.45312e-20)
(1.07503 -0.216983 -7.09342e-20)
(1.0764 -0.187842 3.94093e-20)
(1.07702 -0.161516 3.89607e-20)
(1.0768 -0.137641 -8.34419e-20)
(1.07591 -0.115683 -3.08924e-20)
(1.07395 -0.0956969 1.08631e-21)
(1.07206 -0.0762453 -5.29734e-20)
(1.08241 -0.188346 1.12785e-20)
(1.08248 -0.161928 2.63706e-20)
(1.0818 -0.137942 1.94366e-19)
(1.08051 -0.115844 -2.52545e-21)
(1.07824 -0.0957229 -1.12833e-21)
(1.07608 -0.0760622 3.81217e-20)
(1.08844 -0.188721 -7.7337e-20)
(1.08797 -0.162229 1.56273e-20)
(1.08683 -0.138148 -1.32874e-19)
(1.08516 -0.115926 7.22556e-20)
(1.08259 -0.0956796 2.74101e-20)
(1.08015 -0.0758255 -9.92705e-21)
(1.09349 -0.162421 2.37415e-20)
(1.09189 -0.138262 8.62175e-20)
(1.08984 -0.115929 -1.39573e-20)
(1.08698 -0.0955688 -3.33652e-20)
(1.08428 -0.0755372 -7.12536e-20)
(1.09903 -0.162504 -1.80131e-20)
(1.09699 -0.138283 -1.42437e-20)
(1.09457 -0.115856 -2.48615e-20)
(1.09143 -0.0953922 3.43433e-20)
(1.08846 -0.0751996 3.74462e-20)
(1.10458 -0.162481 -1.63473e-20)
(1.10211 -0.138214 -4.35591e-20)
(1.09933 -0.115708 -5.43827e-20)
(1.09591 -0.0951516 -4.00453e-20)
(1.09269 -0.0748149 -1.45238e-20)
(1.10726 -0.138056 8.54342e-21)
(1.10412 -0.115486 1.32282e-19)
(1.10044 -0.094849 7.32614e-21)
(1.09697 -0.0743855 2.3014e-20)
(1.10894 -0.115193 -5.35739e-20)
(1.105 -0.0944864 -2.89009e-20)
(1.10129 -0.0739141 7.72776e-22)
(1.11378 -0.114829 -4.32411e-20)
(1.10959 -0.0940658 -2.31291e-20)
(1.10565 -0.073403 5.79709e-21)
(1.11422 -0.0935895 4.95384e-20)
(1.11887 -0.0930597 -6.64897e-20)
(1 -0.000827783 1.69321e-22)
(1.00005 -0.0024425 2.43965e-21)
(1.00016 -0.00402724 -1.1542e-21)
(1.00034 -0.00558501 -1.3966e-21)
(1.00056 -0.00713242 3.50667e-21)
(1.00084 -0.00867576 4.655e-21)
(1.00117 -0.0102238 -6.70921e-21)
(1.00155 -0.0117827 -1.29143e-21)
(1.00199 -0.0133585 1.37196e-20)
(1.00247 -0.014956 -3.44292e-20)
(1.003 -0.0165796 2.40024e-20)
(1.00358 -0.0182324 -2.05229e-20)
(1.00421 -0.0199175 2.23038e-21)
(1.00489 -0.021637 1.32426e-20)
(1.00563 -0.0233929 1.47211e-21)
(1.00642 -0.0251866 -8.79382e-22)
(1.00726 -0.0270189 3.28654e-21)
(1.00816 -0.0288907 -3.45929e-21)
(1.00911 -0.030802 2.05701e-20)
(1.01013 -0.0327528 -2.20402e-20)
(1.0112 -0.0347425 1.72951e-20)
(1.01233 -0.03677 -1.29949e-20)
(1.01353 -0.0388328 -1.34371e-20)
(1.01478 -0.0409278 2.52481e-20)
(1.0161 -0.0430482 -4.28772e-20)
(1.01748 -0.0451871 3.76292e-20)
(1.01892 -0.0473246 1.27453e-20)
(1.02039 -0.0494576 2.31213e-20)
(1.02191 -0.051508 -6.88699e-20)
(1.02332 -0.053492 5.09679e-20)
(0.999998 -0.000822598 -1.16119e-21)
(1.00004 -0.00243384 3.98919e-21)
(1.00014 -0.0040114 9.9821e-22)
(1.00029 -0.00556251 -4.68832e-21)
(1.00049 -0.00710221 -5.04297e-21)
(1.00073 -0.00863613 6.94939e-21)
(1.00103 -0.0101724 -4.81209e-21)
(1.00137 -0.0117179 1.19707e-20)
(1.00176 -0.0132777 -1.86784e-21)
(1.00219 -0.0148568 -3.44646e-21)
(1.00267 -0.0164594 6.13627e-21)
(1.0032 -0.0180886 -1.40569e-20)
(1.00377 -0.0197471 3.4334e-22)
(1.00439 -0.0214373 1.95592e-20)
(1.00506 -0.0231609 1.29465e-20)
(1.00578 -0.0249193 -2.68949e-20)
(1.00655 -0.0267133 -2.35003e-21)
(1.00738 -0.0285438 -6.00522e-21)
(1.00825 -0.030411 2.7995e-20)
(1.00918 -0.0323149 -1.01682e-20)
(1.01017 -0.0342551 -6.49164e-21)
(1.01121 -0.0362307 -7.95648e-21)
(1.01231 -0.0382401 2.30268e-21)
(1.01346 -0.0402806 4.96838e-20)
(1.01466 -0.0423473 -7.31899e-20)
(1.01591 -0.0444328 6.92065e-21)
(1.01718 -0.0465236 5.51602e-20)
(1.01846 -0.0486016 -5.00933e-21)
(1.0197 -0.0505985 -3.29767e-20)
(1.0208 -0.0524568 -4.39214e-20)
(0.999997 -0.000818032 4.93191e-23)
(1.00003 -0.00242512 2.86743e-21)
(1.00011 -0.00399811 1.82652e-21)
(1.00024 -0.00554621 -7.55005e-21)
(1.00042 -0.00707948 1.09095e-20)
(1.00063 -0.0086066 -2.48519e-21)
(1.00089 -0.0101351 5.32317e-22)
(1.00119 -0.0116716 1.20331e-21)
(1.00154 -0.0132211 -1.15849e-20)
(1.00192 -0.0147888 -1.12622e-20)
(1.00235 -0.0163778 6.50706e-21)
(1.00282 -0.0179918 3.1111e-21)
(1.00334 -0.0196339 2.1464e-20)
(1.0039 -0.0213064 -2.31675e-20)
(1.0045 -0.0230109 -6.19496e-21)
(1.00515 -0.0247489 2.48317e-20)
(1.00585 -0.0265216 -4.09508e-21)
(1.0066 -0.0283297 1.70718e-20)
(1.00739 -0.0301736 -2.77459e-20)
(1.00824 -0.0320536 1.56661e-20)
(1.00913 -0.0339694 -2.43507e-20)
(1.01008 -0.03592 3.51276e-20)
(1.01107 -0.0379039 -2.29878e-20)
(1.01212 -0.0399178 1.0778e-20)
(1.0132 -0.0419561 1.25598e-21)
(1.01432 -0.0440092 -3.55669e-20)
(1.01546 -0.0460616 4.55768e-20)
(1.01659 -0.0480835 1.70974e-20)
(1.01769 -0.0500197 -4.09833e-20)
(1.01864 -0.0518627 6.96995e-20)
(0.999996 -0.000813463 -7.88316e-22)
(1.00002 -0.00241468 -2.06279e-21)
(1.00009 -0.00398224 5.03979e-21)
(1.0002 -0.00552557 -6.12014e-21)
(1.00035 -0.00705356 -6.32454e-21)
(1.00054 -0.00857484 8.40341e-22)
(1.00076 -0.0100967 -6.47107e-22)
(1.00102 -0.0116253 2.00857e-21)
(1.00132 -0.013166 -1.05927e-20)
(1.00166 -0.0147236 2.66816e-20)
(1.00204 -0.0163012 2.38608e-21)
(1.00245 -0.0179028 -9.28674e-21)
(1.00291 -0.0195314 -1.2967e-20)
(1.0034 -0.0211887 2.14189e-20)
(1.00394 -0.0228768 8.55708e-21)
(1.00452 -0.0245974 -3.66552e-20)
(1.00515 -0.0263513 3.17417e-21)
(1.00582 -0.0281395 2.11002e-20)
(1.00653 -0.0299623 -3.10897e-20)
(1.00729 -0.0318199 1.1439e-21)
(1.00809 -0.0337118 1.07224e-20)
(1.00894 -0.0356369 2.50124e-20)
(1.00984 -0.0375933 4.60052e-20)
(1.01078 -0.0395772 -9.55786e-21)
(1.01175 -0.0415824 -9.71255e-20)
(1.01275 -0.0435988 6.57093e-20)
(1.01377 -0.0456106 -1.07151e-20)
(1.01478 -0.0475883 2.31938e-20)
(1.01576 -0.0494918 -3.54887e-23)
(1.01661 -0.0513333 2.41905e-20)
(0.999994 -0.000807615 -6.63291e-23)
(1.00002 -0.00239934 2.86903e-21)
(1.00007 -0.00395811 -6.33564e-21)
(1.00016 -0.00549324 2.17947e-22)
(1.00029 -0.00701322 -8.13751e-22)
(1.00044 -0.00852601 -2.17598e-21)
(1.00063 -0.0100386 1.53078e-21)
(1.00085 -0.0115568 2.26196e-21)
(1.00111 -0.0130861 -7.19714e-21)
(1.0014 -0.0146306 -7.17316e-21)
(1.00173 -0.0161948 2.3327e-20)
(1.00209 -0.0177815 -1.84354e-20)
(1.00249 -0.0193936 8.92783e-21)
(1.00292 -0.0210329 -2.37502e-20)
(1.00339 -0.0227018 2.47644e-21)
(1.0039 -0.0244015 2.02996e-20)
(1.00445 -0.0261332 7.62104e-21)
(1.00504 -0.0278975 -8.84789e-21)
(1.00568 -0.029695 -8.24059e-21)
(1.00635 -0.0315256 -2.25742e-20)
(1.00707 -0.0333887 2.61206e-20)
(1.00782 -0.0352832 1.43035e-20)
(1.00862 -0.0372068 -1.06553e-20)
(1.00945 -0.0391556 -3.60527e-21)
(1.01032 -0.0411233 -3.89177e-20)
(1.01121 -0.0430999 3.16668e-20)
(1.01211 -0.0450707 1.19435e-20)
(1.01301 -0.0470085 -2.74739e-20)
(1.01389 -0.048882 6.27599e-20)
(1.01464 -0.050709 2.2995e-20)
(0.999993 -0.00080032 -1.98743e-21)
(1.00001 -0.0023791 7.00385e-21)
(1.00005 -0.00392581 2.53154e-21)
(1.00013 -0.00544957 3.06037e-21)
(1.00023 -0.00695842 -1.15193e-20)
(1.00035 -0.00845981 1.03517e-20)
(1.00051 -0.00996037 -7.62607e-21)
(1.00069 -0.0114659 6.19485e-21)
(1.00091 -0.0129813 8.03733e-21)
(1.00115 -0.0145111 -2.18607e-20)
(1.00143 -0.0160592 3.3273e-20)
(1.00174 -0.0176286 -3.70462e-20)
(1.00207 -0.0192219 1.40471e-20)
(1.00245 -0.0208415 1.64177e-20)
(1.00285 -0.0224891 -2.71262e-20)
(1.0033 -0.0241661 1.95255e-20)
(1.00377 -0.0258737 -8.80001e-21)
(1.00429 -0.0276126 2.75888e-20)
(1.00484 -0.0293831 -1.64988e-20)
(1.00543 -0.0311853 4.34004e-21)
(1.00606 -0.0330184 2.12203e-20)
(1.00672 -0.0348811 -3.56918e-20)
(1.00742 -0.0367712 -3.83121e-20)
(1.00815 -0.0386844 4.33836e-20)