/*--------------------------------*- C++ -*----------------------------------*\
  =========                 |
  \\      /  F ield         | OpenFOAM: The Open Source CFD Toolbox
   \\    /   O peration     | Website:  https://openfoam.org
    \\  /    A nd           | Version:  7
     \\/     M anipulation  |
\*---------------------------------------------------------------------------*/
FoamFile
{
    version     2.0;
    format      ascii;
    class       volScalarField;
    location    "15";
    object      p;
}
// * * * * * * * * * * * * * * * * * * * * * * * * * * * * * * * * * * * * * //

dimensions      [0 2 -2 0 0 0 0];

internalField   nonuniform List<scalar> 
6050
(
-0.314256
-0.318756
-0.319816
-0.321738
-0.323453
-0.325235
-0.326959
-0.314561
-0.318991
-0.320037
-0.321941
-0.323645
-0.325418
-0.327135
-0.315162
-0.319453
-0.320469
-0.322336
-0.324017
-0.325769
-0.32747
-0.316042
-0.320129
-0.321097
-0.322904
-0.324544
-0.326261
-0.327931
-0.317177
-0.321
-0.321896
-0.323615
-0.325193
-0.326854
-0.328474
-0.318539
-0.322041
-0.322838
-0.324438
-0.325925
-0.327504
-0.329048
-0.330546
-0.320095
-0.323227
-0.323893
-0.325334
-0.326698
-0.328163
-0.3296
-0.330995
-0.321814
-0.324532
-0.325028
-0.326267
-0.327469
-0.328785
-0.330083
-0.331343
-0.323664
-0.32593
-0.326214
-0.327202
-0.328199
-0.329328
-0.330455
-0.331551
-0.32562
-0.3274
-0.327425
-0.32811
-0.328856
-0.32976
-0.330684
-0.331589
-0.32766
-0.328924
-0.328639
-0.328968
-0.329417
-0.330058
-0.33075
-0.331443
-0.329773
-0.330492
-0.329845
-0.329762
-0.329868
-0.330211
-0.330646
-0.331105
-0.331547
-0.331953
-0.332098
-0.331035
-0.330487
-0.330209
-0.330222
-0.330376
-0.330579
-0.330767
-0.334208
-0.333746
-0.332216
-0.331149
-0.330447
-0.330102
-0.329951
-0.32987
-0.329754
-0.336554
-0.335443
-0.333402
-0.331766
-0.330606
-0.329875
-0.32939
-0.328979
-0.328478
-0.33902
-0.337206
-0.334617
-0.332366
-0.330717
-0.32957
-0.328708
-0.327895
-0.326887
-0.325446
-0.341646
-0.339063
-0.335886
-0.332985
-0.330816
-0.329217
-0.327914
-0.326588
-0.324915
-0.322618
-0.344481
-0.341045
-0.337252
-0.333666
-0.330946
-0.328839
-0.327001
-0.325016
-0.322488
-0.319153
-0.314884
-0.347578
-0.343188
-0.338759
-0.334454
-0.33114
-0.328449
-0.325948
-0.323123
-0.31955
-0.315037
-0.309582
-0.350961
-0.345564
-0.340453
-0.33539
-0.331417
-0.328041
-0.324718
-0.320854
-0.316071
-0.310306
-0.303703
-0.296545
-0.354721
-0.3482
-0.342376
-0.336494
-0.331781
-0.327597
-0.323262
-0.318166
-0.312057
-0.305036
-0.297375
-0.289394
-0.358901
-0.351143
-0.344587
-0.337807
-0.332261
-0.327113
-0.321549
-0.315046
-0.307551
-0.299325
-0.29072
-0.282049
-0.273498
-0.363566
-0.354446
-0.347111
-0.339327
-0.33285
-0.32654
-0.31952
-0.311484
-0.302602
-0.293259
-0.283831
-0.274589
-0.265664
-0.368774
-0.358156
-0.349959
-0.341065
-0.333533
-0.325813
-0.317132
-0.307495
-0.297275
-0.286919
-0.276779
-0.267059
-0.257828
-0.249089
-0.374575
-0.362313
-0.353127
-0.343045
-0.334267
-0.324857
-0.314356
-0.303107
-0.291626
-0.280363
-0.269607
-0.25948
-0.249993
-0.241099
-0.232705
-0.381017
-0.366938
-0.356615
-0.345291
-0.33497
-0.323599
-0.311178
-0.29835
-0.285701
-0.27363
-0.262335
-0.251858
-0.242152
-0.233132
-0.224695
-0.216778
-0.388138
-0.372025
-0.360445
-0.347783
-0.335534
-0.321976
-0.307595
-0.293252
-0.279533
-0.26674
-0.254969
-0.244185
-0.23429
-0.225169
-0.216708
-0.208824
-0.201388
-0.395968
-0.377535
-0.364675
-0.35043
-0.335848
-0.319938
-0.303608
-0.287835
-0.273137
-0.259696
-0.247501
-0.236446
-0.226388
-0.217188
-0.208721
-0.200887
-0.193575
-0.186819
-0.40451
-0.38341
-0.369363
-0.353086
-0.335806
-0.317446
-0.299215
-0.282106
-0.266517
-0.252492
-0.239918
-0.228623
-0.218428
-0.20917
-0.200712
-0.192943
-0.185762
-0.179164
-0.172931
-0.167557
-0.413726
-0.389591
-0.374506
-0.355581
-0.335311
-0.314469
-0.294414
-0.276066
-0.259666
-0.245114
-0.2322
-0.220696
-0.210387
-0.201091
-0.192659
-0.184968
-0.177922
-0.171483
-0.165476
-0.160314
-0.42352
-0.396044
-0.379985
-0.357758
-0.334276
-0.310974
-0.289194
-0.269705
-0.252568
-0.237542
-0.224327
-0.212643
-0.202246
-0.192934
-0.184544
-0.176944
-0.170037
-0.163757
-0.157971
-0.153004
-0.433717
-0.402756
-0.385553
-0.359473
-0.332627
-0.306928
-0.283537
-0.263005
-0.245202
-0.229752
-0.216276
-0.204445
-0.193986
-0.18468
-0.176348
-0.168852
-0.162088
-0.155969
-0.150399
-0.145612
-0.444086
-0.409726
-0.390871
-0.360583
-0.330297
-0.302298
-0.27742
-0.255944
-0.237544
-0.221723
-0.208026
-0.196082
-0.18559
-0.176312
-0.168057
-0.160678
-0.154061
-0.148107
-0.142747
-0.138128
-0.454353
-0.416921
-0.395583
-0.360939
-0.327228
-0.297047
-0.270815
-0.248493
-0.229567
-0.213428
-0.199555
-0.187534
-0.17704
-0.167815
-0.159657
-0.152409
-0.145946
-0.140161
-0.135008
-0.130545
-0.464236
-0.424245
-0.399379
-0.360391
-0.32336
-0.291142
-0.263689
-0.240623
-0.221245
-0.204846
-0.190844
-0.178786
-0.168322
-0.159178
-0.151137
-0.144034
-0.137733
-0.132125
-0.127174
-0.122858
-0.473467
-0.431508
-0.402019
-0.358799
-0.318636
-0.284545
-0.25601
-0.232304
-0.212552
-0.195955
-0.181874
-0.169822
-0.159424
-0.150389
-0.142488
-0.135546
-0.129417
-0.123995
-0.119242
-0.115066
-0.481807
-0.438416
-0.403338
-0.356039
-0.312995
-0.27722
-0.247743
-0.223505
-0.203462
-0.186733
-0.172629
-0.160629
-0.150335
-0.14144
-0.133703
-0.12694
-0.120996
-0.115768
-0.111211
-0.107169
-0.489054
-0.444602
-0.403216
-0.352013
-0.306383
-0.26913
-0.238858
-0.2142
-0.193954
-0.177164
-0.163096
-0.151197
-0.141048
-0.132324
-0.124778
-0.118212
-0.112468
-0.107445
-0.103082
-0.0991739
-0.495031
-0.449651
-0.401561
-0.346652
-0.298751
-0.260243
-0.229328
-0.204366
-0.18401
-0.167235
-0.153265
-0.141519
-0.131556
-0.12304
-0.115711
-0.109363
-0.103834
-0.0990267
-0.0948575
-0.0910871
-0.49955
-0.453143
-0.39828
-0.339909
-0.290062
-0.250531
-0.219132
-0.193985
-0.173616
-0.156936
-0.143129
-0.131589
-0.121856
-0.113583
-0.1065
-0.100393
-0.0950987
-0.0905183
-0.0865434
-0.0829189
-0.502412
-0.454702
-0.39327
-0.331739
-0.280273
-0.23996
-0.208241
-0.183038
-0.162757
-0.146255
-0.132681
-0.121403
-0.111946
-0.103954
-0.0971466
-0.0913041
-0.0862634
-0.0819257
-0.0781522
-0.0746767
-0.503634
-0.454136
-0.386467
-0.322106
-0.269347
-0.228496
-0.196632
-0.171505
-0.15142
-0.135184
-0.121914
-0.110957
-0.101825
-0.0941527
-0.0876538
-0.0821005
-0.0773329
-0.0732566
-0.0697043
-0.0663636
-0.503001
-0.451183
-0.37777
-0.31098
-0.25726
-0.216122
-0.184293
-0.159381
-0.139602
-0.123721
-0.110828
-0.100253
-0.091496
-0.084185
-0.0780286
-0.0727912
-0.0683178
-0.0645196
-0.0612081
-0.057994
-0.50033
-0.445692
-0.367123
-0.298344
-0.244001
-0.202825
-0.171213
-0.146658
-0.127298
-0.111866
-0.0994264
-0.0892962
-0.0809695
-0.0740591
-0.0682794
-0.0633872
-0.0592382
-0.0557415
-0.0526263
-0.0496076
-0.495443
-0.437559
-0.354482
-0.284187
-0.229561
-0.188596
-0.157387
-0.133335
-0.114513
-0.099628
-0.087721
-0.0780968
-0.0702569
-0.0637887
-0.058413
-0.0538951
-0.0500998
-0.0469116
-0.044005
-0.0412078
-0.488152
-0.42672
-0.339822
-0.268504
-0.213938
-0.173431
-0.142815
-0.119418
-0.101265
-0.0870235
-0.0757297
-0.0666726
-0.0593553
-0.0533757
-0.0484407
-0.044328
-0.0409099
-0.038042
-0.035366
-0.0328071
-0.478267
-0.413137
-0.323136
-0.251298
-0.197127
-0.157337
-0.127516
-0.104929
-0.0875817
-0.074065
-0.0634494
-0.0550254
-0.0482835
-0.042833
-0.0383754
-0.0346987
-0.0316803
-0.0291485
-0.026723
-0.0244224
-0.465609
-0.396801
-0.304433
-0.232571
-0.179129
-0.140347
-0.111533
-0.08991
-0.0734439
-0.0607589
-0.0509003
-0.0431706
-0.0370571
-0.032176
-0.0282313
-0.0250205
-0.0224247
-0.0202466
-0.0180896
-0.0160708
-0.450019
-0.377716
-0.283739
-0.212345
-0.159981
-0.122525
-0.0948741
-0.0743486
-0.0588865
-0.0471267
-0.0381027
-0.0311275
-0.025693
-0.0214218
-0.0180244
-0.0153086
-0.013158
-0.0113511
-0.00948072
-0.00776886
-0.431369
-0.355902
-0.261071
-0.190683
-0.139802
-0.103842
-0.077557
-0.0582769
-0.0439387
-0.0331944
-0.0250793
-0.0189177
-0.0142105
-0.0105885
-0.00777165
-0.00557899
-0.00389565
-0.00247728
-0.000912814
0.000466715
-0.409575
-0.331412
-0.236418
-0.167715
-0.118607
-0.0843401
-0.0596198
-0.0417323
-0.0286327
-0.0189918
-0.0118562
-0.00656478
-0.00263082
0.000303974
0.00250829
0.00415093
0.00534599
0.00635802
0.00759574
0.00861869
-0.384601
-0.304385
-0.209788
-0.143503
-0.096422
-0.0640823
-0.0411092
-0.0247568
-0.0130046
-0.00455138
0.00153773
0.0059053
0.0090227
0.0112346
0.0127959
0.0138632
0.0145499
0.0151368
0.0160246
0.0166684
-0.356463
-0.275044
-0.18143
-0.117876
-0.0733065
-0.0431357
-0.0220801
-0.00739704
0.00290474
0.0100907
0.0150706
0.0184643
0.0207249
0.0221806
0.0230708
0.0235393
0.0236991
0.0238416
0.0243535
0.0245965
-0.325232
-0.243431
-0.151393
-0.0910306
-0.0493374
-0.0215718
-0.00259384
0.010295
0.0190505
0.0248951
0.0287078
0.0310817
0.0324488
0.0331179
0.0333109
0.0331601
0.0327782
0.032459
0.0325675
0.0323859
-0.291065
-0.209089
-0.120205
-0.0631466
-0.024605
0.000533047
0.0172823
0.0282622
0.0353835
0.0398191
0.0424121
0.043725
0.0441657
0.0440205
0.0434926
0.0427055
0.0417731
0.0409811
0.0406596
0.0400258
-0.254209
-0.172281
-0.0877569
-0.0343794
0.000784826
0.0230954
0.0374758
0.0464428
0.0518509
0.054817
0.0561438
0.0563596
0.0558451
0.0548609
0.053591
0.0521545
0.0506692
0.0493978
0.0486162
0.047501
-0.214742
-0.133485
-0.0540789
-0.00486424
0.0267147
0.0460237
0.0579088
0.0647704
0.0683959
0.0698401
0.069861
0.0689493
0.0674551
0.0656108
0.0635817
0.0614886
0.0594516
0.0576832
0.0563787
0.0547381
-0.172299
-0.0937357
-0.0193698
0.0252683
0.0530617
0.069219
0.0784985
0.0831749
0.0849589
0.0848375
0.0835199
0.0814562
0.0789627
0.0762419
0.0734435
0.070695
0.0681077
0.0657918
0.0638177
0.061522
-0.127646
-0.0529838
0.0161381
0.0558724
0.0796966
0.0925752
0.0991573
0.101583
0.101478
0.0997562
0.0970752
0.0938412
0.090334
0.0867263
0.0831577
0.0797646
0.0766243
0.0736731
0.0708003
0.0676188
-0.0810643
-0.011309
0.0522095
0.0867832
0.106484
0.115982
0.119794
0.119918
0.117888
0.114542
0.110481
0.106064
0.101534
0.0970366
0.0927045
0.0886782
0.08497
0.0812887
0.0773628
0.0734403
-0.0327713
0.0310981
0.0886228
0.117836
0.13329
0.139327
0.140316
0.138102
0.134125
0.129138
0.123687
0.118083
0.112528
0.107144
0.102058
0.0973977
0.0930844
0.0886279
0.0837671
0.0804035
0.0164372
0.0739339
0.125165
0.148869
0.159982
0.1625
0.16063
0.156057
0.150119
0.143487
0.136645
0.129854
0.123279
0.117018
0.111188
0.105879
0.10092
0.0957616
0.0904205
0.0873786
0.0662246
0.116927
0.161599
0.179694
0.186409
0.185378
0.180634
0.173697
0.165801
0.157529
0.149304
0.141335
0.133751
0.126628
0.120061
0.114096
0.108495
0.102755
0.0971248
0.0940526
0.11619
0.15976
0.197688
0.210125
0.212421
0.207839
0.200228
0.19094
0.1811
0.171205
0.161613
0.152482
0.143907
0.135938
0.128643
0.122023
0.115814
0.109592
0.103706
0.100361
0.165913
0.202116
0.233192
0.239975
0.237868
0.229762
0.219312
0.207702
0.195947
0.184455
0.173521
0.163252
0.153709
0.144913
0.136904
0.129645
0.12287
0.116221
0.110062
0.106343
0.214973
0.243676
0.267874
0.269056
0.262602
0.251024
0.237786
0.223899
0.210271
0.19722
0.184977
0.173602
0.163119
0.153521
0.144817
0.136942
0.12964
0.122596
0.116146
0.112017
0.262952
0.284128
0.301498
0.297184
0.286473
0.271507
0.255551
0.239451
0.224004
0.209442
0.195933
0.183489
0.1721
0.161728
0.152354
0.143892
0.136096
0.128679
0.121934
0.117391
0.309444
0.323166
0.333832
0.324177
0.309338
0.291091
0.272511
0.254276
0.237079
0.221063
0.20634
0.192872
0.180614
0.169502
0.159488
0.15047
0.14221
0.13444
0.127412
0.122472
0.354051
0.360491
0.364652
0.349859
0.331054
0.309663
0.288572
0.268298
0.249429
0.23203
0.21615
0.201708
0.188627
0.176813
0.166193
0.156651
0.147955
0.139855
0.132563
0.127254
0.396397
0.395818
0.393744
0.374059
0.351486
0.327114
0.303643
0.28144
0.260994
0.242288
0.225318
0.209961
0.196105
0.183631
0.172443
0.162409
0.153305
0.1449
0.137372
0.131721
0.43613
0.428871
0.420901
0.396617
0.370507
0.343338
0.31764
0.293633
0.271712
0.251788
0.233802
0.217591
0.203015
0.189927
0.178211
0.167721
0.15824
0.149556
0.141817
0.135836
0.472919
0.459388
0.44593
0.417381
0.387994
0.358239
0.330483
0.30481
0.28153
0.260482
0.241561
0.224566
0.209327
0.195676
0.183475
0.172566
0.162739
0.153804
0.145866
0.139547
0.506455
0.487133
0.468653
0.436211
0.403836
0.371725
0.342096
0.314909
0.290394
0.268326
0.248558
0.230851
0.215013
0.200852
0.188212
0.176925
0.166789
0.157625
0.149494
0.142852
0.536453
0.511892
0.488906
0.452979
0.417931
0.383714
0.352412
0.323874
0.298257
0.275282
0.254758
0.236419
0.220047
0.205433
0.192403
0.18078
0.170372
0.161006
0.152694
0.145763
0.562659
0.533475
0.506544
0.46757
0.430187
0.394132
0.36137
0.331655
0.305078
0.281312
0.260131
0.241242
0.224407
0.209398
0.196029
0.184116
0.173472
0.16393
0.155462
0.148282
0.58485
0.551718
0.521441
0.479884
0.440525
0.402914
0.368918
0.338207
0.31082
0.286386
0.264651
0.245297
0.228071
0.21273
0.199076
0.186918
0.176076
0.166387
0.157788
0.1504
0.602836
0.566482
0.533488
0.489837
0.448876
0.410005
0.37501
0.343493
0.315451
0.290477
0.268294
0.248565
0.231023
0.215415
0.201529
0.189174
0.178172
0.168364
0.159662
0.152108
0.616464
0.577652
0.542598
0.497361
0.455186
0.415361
0.379611
0.347484
0.318946
0.293563
0.271042
0.251029
0.233249
0.217438
0.203379
0.190875
0.179752
0.169855
0.161076
0.153397
0.625616
0.585146
0.548706
0.502403
0.459414
0.418949
0.382691
0.350156
0.321285
0.29563
0.272881
0.252679
0.234739
0.218792
0.204617
0.192013
0.18081
0.170853
0.162023
0.15426
0.630215
0.588907
0.55177
0.504932
0.461534
0.420748
0.384236
0.351496
0.322458
0.296665
0.273803
0.253506
0.235486
0.219471
0.205237
0.192583
0.181339
0.171353
0.162497
0.154692
0.630215
0.588907
0.55177
0.504932
0.461534
0.420748
0.384236
0.351496
0.322458
0.296665
0.273803
0.253506
0.235486
0.219471
0.205237
0.192583
0.181339
0.171353
0.162497
0.154692
0.625616
0.585146
0.548706
0.502403
0.459414
0.418949
0.382691
0.350156
0.321285
0.29563
0.272881
0.252679
0.234739
0.218792
0.204617
0.192013
0.18081
0.170853
0.162023
0.15426
0.616464
0.577652
0.542598
0.497361
0.455186
0.415361
0.379611
0.347484
0.318946
0.293563
0.271042
0.251029
0.233249
0.217438
0.203379
0.190875
0.179752
0.169855
0.161076
0.153397
0.602836
0.566482
0.533488
0.489837
0.448876
0.410005
0.37501
0.343493
0.315451
0.290477
0.268294
0.248565
0.231023
0.215415
0.201529
0.189174
0.178172
0.168364
0.159662
0.152108
0.58485
0.551718
0.521441
0.479884
0.440525
0.402914
0.368918
0.338207
0.31082
0.286386
0.264651
0.245297
0.228071
0.21273
0.199076
0.186918
0.176076
0.166387
0.157788
0.1504
0.562659
0.533475
0.506544
0.46757
0.430187
0.394132
0.36137
0.331655
0.305078
0.281312
0.260131
0.241242
0.224407
0.209398
0.196029
0.184116
0.173472
0.16393
0.155462
0.148282
0.536453
0.511892
0.488906
0.452979
0.417931
0.383714
0.352412
0.323874
0.298257
0.275282
0.254758
0.236419
0.220047
0.205433
0.192403
0.18078
0.170372
0.161006
0.152694
0.145763
0.506454
0.487133
0.468653
0.436211
0.403836
0.371725
0.342096
0.314909
0.290394
0.268326
0.248558
0.230851
0.215013
0.200852
0.188212
0.176925
0.166789
0.157625
0.149494
0.142852
0.472919
0.459388
0.44593
0.417381
0.387994
0.358239
0.330483
0.30481
0.28153
0.260482
0.241561
0.224566
0.209327
0.195676
0.183475
0.172566
0.162739
0.153804
0.145866
0.139547
0.43613
0.428871
0.420901
0.396617
0.370507
0.343338
0.31764
0.293633
0.271712
0.251788
0.233802
0.217591
0.203015
0.189927
0.178211
0.167721
0.158239
0.149556
0.141817
0.135836
0.396397
0.395818
0.393744
0.374059
0.351486
0.327113
0.303643
0.28144
0.260994
0.242288
0.225318
0.209961
0.196105
0.183631
0.172443
0.162409
0.153305
0.1449
0.137372
0.131721
0.354051
0.360491
0.364652
0.349859
0.331054
0.309663
0.288572
0.268298
0.249429
0.23203
0.21615
0.201708
0.188627
0.176813
0.166193
0.156651
0.147955
0.139854
0.132563
0.127254
0.309443
0.323166
0.333832
0.324177
0.309338
0.291091
0.272511
0.254276
0.237079
0.221063
0.20634
0.192872
0.180614
0.169502
0.159488
0.15047
0.14221
0.13444
0.127412
0.122472
0.262952
0.284128
0.301498
0.297184
0.286473
0.271507
0.255551
0.239451
0.224004
0.209442
0.195933
0.183489
0.1721
0.161728
0.152354
0.143892
0.136096
0.128679
0.121934
0.117391
0.214973
0.243676
0.267874
0.269056
0.262602
0.251024
0.237786
0.223899
0.210271
0.19722
0.184977
0.173602
0.163119
0.153521
0.144817
0.136942
0.12964
0.122596
0.116146
0.112017
0.165913
0.202115
0.233192
0.239975
0.237868
0.229762
0.219312
0.207702
0.195947
0.184455
0.17352
0.163252
0.153709
0.144913
0.136904
0.129645
0.12287
0.116221
0.110062
0.106343
0.11619
0.15976
0.197687
0.210125
0.212421
0.207839
0.200228
0.19094
0.1811
0.171205
0.161613
0.152482
0.143907
0.135938
0.128643
0.122023
0.115814
0.109592
0.103706
0.100361
0.0662245
0.116927
0.161599
0.179694
0.186409
0.185378
0.180634
0.173697
0.165801
0.157529
0.149304
0.141335
0.133751
0.126628
0.120061
0.114096
0.108495
0.102755
0.0971248
0.0940526
0.0164371
0.0739338
0.125164
0.148869
0.159982
0.1625
0.16063
0.156057
0.150119
0.143487
0.136645
0.129854
0.123279
0.117018
0.111188
0.105879
0.10092
0.0957615
0.0904205
0.0873786
-0.0327714
0.031098
0.0886227
0.117835
0.13329
0.139327
0.140316
0.138102
0.134125
0.129138
0.123687
0.118083
0.112528
0.107144
0.102058
0.0973976
0.0930844
0.0886279
0.083767
0.0804034
-0.0810645
-0.0113091
0.0522094
0.0867831
0.106484
0.115982
0.119794
0.119918
0.117888
0.114542
0.11048
0.106064
0.101534
0.0970365
0.0927045
0.0886782
0.0849699
0.0812886
0.0773628
0.0734403
-0.127646
-0.0529839
0.016138
0.0558723
0.0796966
0.0925751
0.0991572
0.101583
0.101478
0.0997561
0.0970752
0.0938411
0.0903339
0.0867262
0.0831577
0.0797645
0.0766242
0.073673
0.0708003
0.0676187
-0.172299
-0.0937358
-0.0193699
0.0252682
0.0530616
0.0692189
0.0784984
0.0831748
0.0849588
0.0848374
0.0835198
0.0814562
0.0789627
0.0762418
0.0734434
0.070695
0.0681076
0.0657917
0.0638176
0.0615219
-0.214742
-0.133485
-0.0540791
-0.00486435
0.0267146
0.0460237
0.0579087
0.0647703
0.0683958
0.0698401
0.069861
0.0689493
0.0674551
0.0656107
0.0635817
0.0614885
0.0594516
0.0576832
0.0563787
0.0547381
-0.254209
-0.172281
-0.087757
-0.0343795
0.000784723
0.0230953
0.0374757
0.0464427
0.0518508
0.0548169
0.0561437
0.0563596
0.055845
0.0548609
0.053591
0.0521545
0.0506691
0.0493978
0.0486162
0.047501
-0.291065
-0.209089
-0.120205
-0.0631467
-0.0246051
0.000532948
0.0172822
0.0282621
0.0353835
0.039819
0.042412
0.0437249
0.0441656
0.0440205
0.0434926
0.0427054
0.041773
0.0409811
0.0406595
0.0400258
-0.325233
-0.243432
-0.151393
-0.0910307
-0.0493375
-0.0215719
-0.00259393
0.0102949
0.0190504
0.024895
0.0287077
0.0310816
0.0324487
0.0331179
0.0333108
0.03316
0.0327782
0.032459
0.0325675
0.0323859
-0.356464
-0.275044
-0.18143
-0.117876
-0.0733066
-0.0431358
-0.0220802
-0.00739713
0.00290466
0.0100906
0.0150705
0.0184642
0.0207248
0.0221806
0.0230707
0.0235392
0.0236991
0.0238415
0.0243534
0.0245965
-0.384601
-0.304386
-0.209789
-0.143503
-0.0964221
-0.0640824
-0.0411093
-0.0247569
-0.0130047
-0.00455147
0.00153765
0.00590522
0.00902263
0.0112345
0.0127959
0.0138631
0.0145498
0.0151367
0.0160245
0.0166684
-0.409575
-0.331412
-0.236418
-0.167715
-0.118607
-0.0843402
-0.0596199
-0.0417324
-0.0286328
-0.0189919
-0.0118563
-0.00656485
-0.0026309
0.000303907
0.00250823
0.00415087
0.00534594
0.00635797
0.00759569
0.00861864
-0.431369
-0.355902
-0.261071
-0.190684
-0.139802
-0.103842
-0.0775571
-0.058277
-0.0439388
-0.0331945
-0.0250794
-0.0189178
-0.0142106
-0.0105886
-0.00777171
-0.00557905
-0.00389571
-0.00247734
-0.000912865
0.000466668
-0.450019
-0.377716
-0.283739
-0.212345
-0.159982
-0.122525
-0.0948742
-0.0743487
-0.0588866
-0.0471267
-0.0381027
-0.0311276
-0.0256931
-0.0214219
-0.0180244
-0.0153086
-0.0131581
-0.0113511
-0.00948077
-0.00776891
-0.46561
-0.396801
-0.304433
-0.232571
-0.179129
-0.140347
-0.111533
-0.0899101
-0.073444
-0.060759
-0.0509004
-0.0431707
-0.0370572
-0.0321761
-0.0282314
-0.0250206
-0.0224248
-0.0202466
-0.0180896
-0.0160708
-0.478267
-0.413138
-0.323136
-0.251298
-0.197128
-0.157337
-0.127516
-0.104929
-0.0875818
-0.0740651
-0.0634495
-0.0550255
-0.0482836
-0.042833
-0.0383755
-0.0346987
-0.0316804
-0.0291486
-0.026723
-0.0244225
-0.488152
-0.42672
-0.339822
-0.268505
-0.213938
-0.173431
-0.142815
-0.119418
-0.101265
-0.0870236
-0.0757298
-0.0666727
-0.0593554
-0.0533758
-0.0484408
-0.0443281
-0.04091
-0.038042
-0.035366
-0.0328072
-0.495443
-0.43756
-0.354483
-0.284187
-0.229562
-0.188596
-0.157387
-0.133336
-0.114513
-0.0996281
-0.0877211
-0.0780969
-0.070257
-0.0637888
-0.0584131
-0.0538951
-0.0500998
-0.0469116
-0.0440051
-0.0412078
-0.50033
-0.445692
-0.367123
-0.298344
-0.244001
-0.202825
-0.171213
-0.146658
-0.127298
-0.111866
-0.0994265
-0.0892963
-0.0809695
-0.0740592
-0.0682795
-0.0633873
-0.0592383
-0.0557416
-0.0526263
-0.0496077
-0.503001
-0.451183
-0.37777
-0.31098
-0.25726
-0.216122
-0.184293
-0.159381
-0.139602
-0.123721
-0.110828
-0.100253
-0.0914961
-0.0841851
-0.0780287
-0.0727913
-0.0683179
-0.0645197
-0.0612081
-0.0579941
-0.503634
-0.454136
-0.386467
-0.322107
-0.269347
-0.228496
-0.196632
-0.171505
-0.15142
-0.135184
-0.121914
-0.110957
-0.101825
-0.0941528
-0.0876539
-0.0821006
-0.077333
-0.0732566
-0.0697043
-0.0663637
-0.502412
-0.454702
-0.393271
-0.331739
-0.280273
-0.23996
-0.208241
-0.183038
-0.162757
-0.146255
-0.132681
-0.121403
-0.111946
-0.103954
-0.0971467
-0.0913042
-0.0862635
-0.0819258
-0.0781522
-0.0746767
-0.49955
-0.453143
-0.398281
-0.339909
-0.290062
-0.250531
-0.219132
-0.193986
-0.173616
-0.156936
-0.143129
-0.131589
-0.121856
-0.113583
-0.1065
-0.100393
-0.0950987
-0.0905183
-0.0865435
-0.0829189
-0.495031
-0.449651
-0.401561
-0.346652
-0.298751
-0.260243
-0.229329
-0.204366
-0.18401
-0.167235
-0.153265
-0.141519
-0.131556
-0.12304
-0.115711
-0.109363
-0.103834
-0.0990268
-0.0948576
-0.0910871
-0.489055
-0.444602
-0.403216
-0.352013
-0.306383
-0.26913
-0.238858
-0.2142
-0.193954
-0.177164
-0.163096
-0.151198
-0.141048
-0.132325
-0.124778
-0.118212
-0.112468
-0.107445
-0.103082
-0.0991739
-0.481807
-0.438417
-0.403338
-0.356039
-0.312995
-0.27722
-0.247743
-0.223505
-0.203462
-0.186733
-0.172629
-0.160629
-0.150336
-0.14144
-0.133704
-0.12694
-0.120996
-0.115768
-0.111211
-0.107169
-0.473467
-0.431508
-0.40202
-0.358799
-0.318636
-0.284546
-0.25601
-0.232304
-0.212552
-0.195955
-0.181874
-0.169822
-0.159424
-0.150389
-0.142488
-0.135546
-0.129417
-0.123995
-0.119242
-0.115066
-0.464236
-0.424246
-0.399379
-0.360391
-0.32336
-0.291142
-0.263689
-0.240623
-0.221246
-0.204847
-0.190844
-0.178786
-0.168322
-0.159178
-0.151137
-0.144034
-0.137733
-0.132125
-0.127174
-0.122858
-0.454354
-0.416921
-0.395583
-0.360939
-0.327228
-0.297048
-0.270815
-0.248493
-0.229567
-0.213429
-0.199555
-0.187534
-0.17704
-0.167815
-0.159657
-0.152409
-0.145946
-0.140161
-0.135008
-0.130545
-0.444086
-0.409726
-0.390871
-0.360583
-0.330298
-0.302298
-0.277421
-0.255944
-0.237544
-0.221723
-0.208026
-0.196082
-0.18559
-0.176312
-0.168057
-0.160678
-0.154061
-0.148107
-0.142747
-0.138128
-0.433717
-0.402756
-0.385553
-0.359474
-0.332627
-0.306928
-0.283537
-0.263006
-0.245202
-0.229753
-0.216276
-0.204445
-0.193987
-0.18468
-0.176348
-0.168852
-0.162088
-0.155969
-0.150399
-0.145612
-0.42352
-0.396044
-0.379986
-0.357759
-0.334276
-0.310974
-0.289194
-0.269705
-0.252568
-0.237542
-0.224327
-0.212643
-0.202246
-0.192934
-0.184544
-0.176944
-0.170037
-0.163757
-0.157971
-0.153004
-0.413727
-0.389591
-0.374506
-0.355581
-0.335311
-0.314469
-0.294414
-0.276066
-0.259666
-0.245114
-0.232201
-0.220696
-0.210387
-0.201092
-0.192659
-0.184968
-0.177923
-0.171483
-0.165476
-0.160314
-0.40451
-0.38341
-0.369363
-0.353086
-0.335806
-0.317447
-0.299215
-0.282106
-0.266517
-0.252492
-0.239918
-0.228623
-0.218428
-0.20917
-0.200712
-0.192943
-0.185762
-0.179164
-0.172931
-0.167557
-0.395968
-0.377535
-0.364675
-0.350431
-0.335848
-0.319938
-0.303608
-0.287835
-0.273137
-0.259696
-0.247502
-0.236446
-0.226389
-0.217189
-0.208721
-0.200887
-0.193575
-0.186819
-0.388139
-0.372025
-0.360445
-0.347783
-0.335534
-0.321976
-0.307596
-0.293253
-0.279533
-0.26674
-0.254969
-0.244185
-0.23429
-0.225169
-0.216708
-0.208824
-0.201388
-0.381017
-0.366938
-0.356615
-0.345291
-0.33497
-0.323599
-0.311179
-0.29835
-0.285701
-0.273631
-0.262335
-0.251859
-0.242152
-0.233132
-0.224695
-0.216778
-0.374576
-0.362313
-0.353127
-0.343045
-0.334268
-0.324857
-0.314356
-0.303107
-0.291626
-0.280363
-0.269607
-0.259481
-0.249993
-0.241099
-0.232705
-0.368774
-0.358157
-0.349959
-0.341065
-0.333533
-0.325813
-0.317132
-0.307495
-0.297275
-0.286919
-0.276779
-0.267059
-0.257828
-0.249089
-0.363566
-0.354446
-0.347112
-0.339328
-0.33285
-0.32654
-0.31952
-0.311484
-0.302603
-0.293259
-0.283831
-0.274589
-0.265664
-0.358901
-0.351143
-0.344587
-0.337807
-0.332262
-0.327114
-0.321549
-0.315046
-0.307551
-0.299325
-0.29072
-0.28205
-0.273498
-0.354721
-0.3482
-0.342376
-0.336494
-0.331782
-0.327597
-0.323262
-0.318166
-0.312057
-0.305037
-0.297375
-0.289394
-0.350962
-0.345565
-0.340454
-0.33539
-0.331418
-0.328042
-0.324718
-0.320855
-0.316072
-0.310307
-0.303703
-0.296545
-0.347578
-0.343188
-0.338759
-0.334454
-0.33114
-0.328449
-0.325949
-0.323123
-0.319551
-0.315037
-0.309582
-0.344481
-0.341045
-0.337252
-0.333666
-0.330946
-0.328839
-0.327002
-0.325016
-0.322489
-0.319154
-0.314884
-0.341646
-0.339063
-0.335887
-0.332985
-0.330816
-0.329217
-0.327914
-0.326589
-0.324915
-0.322619
-0.33902
-0.337206
-0.334617
-0.332366
-0.330717
-0.32957
-0.328709
-0.327895
-0.326888
-0.325447
-0.336554
-0.335443
-0.333403
-0.331766
-0.330606
-0.329875
-0.32939
-0.32898
-0.328478
-0.334208
-0.333746
-0.332216
-0.331149
-0.330448
-0.330102
-0.329951
-0.329871
-0.329755
-0.331953
-0.332098
-0.331036
-0.330487
-0.330209
-0.330222
-0.330376
-0.33058
-0.330768
-0.329773
-0.330492
-0.329845
-0.329762
-0.329869
-0.330212
-0.330647
-0.331106
-0.331548
-0.32766
-0.328924
-0.32864
-0.328968
-0.329417
-0.330058
-0.330751
-0.331443
-0.32562
-0.3274
-0.327425
-0.32811
-0.328856
-0.32976
-0.330684
-0.33159
-0.323664
-0.32593
-0.326214
-0.327202
-0.328199
-0.329328
-0.330455
-0.331551
-0.321814
-0.324532
-0.325028
-0.326267
-0.327469
-0.328785
-0.330084
-0.331343
-0.320095
-0.323227
-0.323893
-0.325334
-0.326698
-0.328163
-0.329601
-0.330995
-0.318539
-0.322041
-0.322838
-0.324438
-0.325926
-0.327505
-0.329048
-0.330546
-0.317178
-0.321
-0.321896
-0.323615
-0.325193
-0.326855
-0.328474
-0.316042
-0.32013
-0.321097
-0.322904
-0.324544
-0.326261
-0.327931
-0.315162
-0.319453
-0.320469
-0.322336
-0.324017
-0.325769
-0.32747
-0.314561
-0.318991
-0.320037
-0.321941
-0.323645
-0.325418
-0.327135
-0.314256
-0.318756
-0.319816
-0.321738
-0.323453
-0.325235
-0.326959
-0.0810725
-0.0890968
-0.0970589
-0.104945
-0.112747
-0.120455
-0.128067
-0.13558
-0.142997
-0.150319
-0.15756
-0.0805579
-0.0884815
-0.0963431
-0.104129
-0.111828
-0.119432
-0.126938
-0.134338
-0.141638
-0.148833
-0.155939
-0.0800368
-0.0878267
-0.0955515
-0.103196
-0.110751
-0.118205
-0.125553
-0.132788
-0.139912
-0.146918
-0.153821
-0.0795085
-0.0871759
-0.0947774
-0.102298
-0.109726
-0.117051
-0.124267
-0.131366
-0.138349
-0.145207
-0.151954
-0.078974
-0.0865234
-0.094008
-0.101412
-0.108724
-0.115932
-0.123032
-0.130012
-0.136876
-0.143612
-0.150237
-0.0784345
-0.085864
-0.0932296
-0.100515
-0.107708
-0.114798
-0.121778
-0.128638
-0.13538
-0.141992
-0.14849
-0.0778906
-0.0851976
-0.0924412
-0.0996042
-0.106675
-0.113641
-0.120497
-0.127229
-0.133842
-0.140319
-0.146679
-0.0773431
-0.0845257
-0.0916453
-0.0986839
-0.10563
-0.112469
-0.119196
-0.125798
-0.132276
-0.138614
-0.144829
-0.0767929
-0.0838499
-0.090844
-0.0977568
-0.104576
-0.111287
-0.117884
-0.124352
-0.130694
-0.136892
-0.142959
-0.0762413
-0.0831715
-0.0900389
-0.0968246
-0.103516
-0.110097
-0.116562
-0.122896
-0.129099
-0.135155
-0.141074
-0.0756895
-0.082492
-0.0892318
-0.0958891
-0.102451
-0.108901
-0.115233
-0.121431
-0.127494
-0.133407
-0.139176
-0.0751388
-0.0818132
-0.0884244
-0.0949525
-0.101383
-0.107702
-0.113899
-0.11996
-0.125882
-0.13165
-0.137269
-0.0745907
-0.0811366
-0.0876189
-0.0940172
-0.100317
-0.106502
-0.112564
-0.118486
-0.124266
-0.129889
-0.135356
-0.0740466
-0.0804642
-0.0868174
-0.0930857
-0.0992537
-0.105305
-0.111231
-0.117015
-0.122653
-0.128129
-0.133446
-0.0735082
-0.0797981
-0.0860224
-0.0921607
-0.0981972
-0.104115
-0.109905
-0.11555
-0.121046
-0.126376
-0.131543
-0.0729774
-0.0791404
-0.0852365
-0.0912454
-0.0971508
-0.102936
-0.10859
-0.114097
-0.119451
-0.124637
-0.129654
-0.134484
-0.0724559
-0.0784935
-0.0844625
-0.090343
-0.0961183
-0.101771
-0.107291
-0.112661
-0.117875
-0.122917
-0.127788
-0.132466
-0.0719461
-0.07786
-0.0837036
-0.0894571
-0.0951038
-0.100626
-0.106013
-0.111248
-0.116324
-0.121225
-0.125953
-0.130483
-0.0714502
-0.0772429
-0.0829632
-0.0885918
-0.0941119
-0.099506
-0.104762
-0.109865
-0.114806
-0.119569
-0.124156
-0.128544
-0.070971
-0.0766451
-0.082245
-0.0877514
-0.0931478
-0.0984164
-0.103546
-0.108518
-0.113329
-0.117958
-0.122409
-0.12666
-0.0705113
-0.0760704
-0.0815532
-0.0869408
-0.0922168
-0.0973637
-0.102369
-0.107217
-0.111901
-0.116402
-0.120723
-0.124843
-0.0700745
-0.0755227
-0.0808924
-0.0861654
-0.0913254
-0.0963549
-0.101242
-0.10597
-0.110532
-0.114912
-0.119109
-0.123105
-0.0696645
-0.0750064
-0.080268
-0.0854312
-0.0904802
-0.0953979
-0.100172
-0.104787
-0.109234
-0.1135
-0.11758
-0.121461
-0.0692854
-0.0745266
-0.0796857
-0.0847451
-0.0896891
-0.0945013
-0.0991691
-0.103678
-0.108018
-0.112177
-0.116151
-0.119926
-0.0689423
-0.074089
-0.0791523
-0.0841146
-0.0889607
-0.0936747
-0.0982441
-0.102655
-0.106897
-0.110959
-0.114836
-0.118516
-0.0686407
-0.0737003
-0.0786753
-0.0835484
-0.0883046
-0.092929
-0.0974091
-0.101731
-0.105886
-0.109862
-0.113653
-0.11725
-0.068387
-0.0733677
-0.0782634
-0.0830564
-0.0877322
-0.0922768
-0.0966777
-0.100922
-0.105001
-0.108902
-0.11262
-0.116147
-0.068189
-0.0731
-0.0779259
-0.0826491
-0.0872553
-0.0917314
-0.0960653
-0.100245
-0.10426
-0.108101
-0.111761
-0.115232
-0.0680511
-0.0729034
-0.0776698
-0.0823335
-0.0868812
-0.091301
-0.0955812
-0.09971
-0.103677