/*--------------------------------*- C++ -*----------------------------------*\
  =========                 |
  \\      /  F ield         | OpenFOAM: The Open Source CFD Toolbox
   \\    /   O peration     | Website:  https://openfoam.org
    \\  /    A nd           | Version:  7
     \\/     M anipulation  |
\*---------------------------------------------------------------------------*/
FoamFile
{
    version     2.0;
    format      ascii;
    class       surfaceScalarField;
    location    "20";
    object      phi;
}
// * * * * * * * * * * * * * * * * * * * * * * * * * * * * * * * * * * * * * //

dimensions      [0 3 -1 0 0 0 0];

internalField   nonuniform List<scalar> 
5136
(
0.00169147
-0.000290458
0.00202574
-0.000334275
0.00239677
-0.000371014
-0.000445521
0.0028423
0.0011556
-0.000443021
0.00141226
-0.000511358
0.00170501
-0.000583206
0.00204185
-0.000671121
0.00241596
-0.000745119
-0.000893932
0.00286437
0.00117413
-0.000668709
0.00143467
-0.000771891
0.00173196
-0.000880498
0.0020739
-0.00101306
0.00245412
-0.00112534
-0.00134805
0.00290823
0.00120175
-0.000899354
0.00146803
-0.00103817
0.00177205
-0.00118452
0.00212152
-0.00136252
0.00251077
-0.00151459
-0.00181059
0.00297331
0.00123824
-0.00113652
0.00151207
-0.00131201
0.00182491
-0.00149735
0.0021842
-0.00172182
0.00258525
-0.00191563
-0.00228411
0.00305877
0.00128331
-0.0013817
0.00156639
-0.00159509
0.00189
-0.00182096
0.00226126
-0.00209309
0.00267664
-0.00233101
-0.00277095
0.00316348
0.00133663
-0.00163628
0.00163054
-0.00188899
0.00196671
-0.00215713
0.00235187
-0.00247825
0.00278387
-0.00276301
-0.00327318
0.0032861
0.00139778
-0.00190155
0.00170395
-0.00219516
0.00205429
-0.00250746
0.00245505
-0.00287901
0.00290563
-0.00321359
-0.00379259
0.00342504
0.0014663
0.001786
-0.00251486
0.0021519
-0.00287336
0.00256968
-0.0032968
0.00304048
-0.00368439
-0.00433061
0.00357849
0.00187599
-0.00284919
0.00225861
-0.00325599
0.00269456
-0.00373275
0.00318682
-0.00417664
-0.0048883
0.0037445
0.00197315
-0.00319905
0.00237342
-0.00365626
0.00282837
-0.0041877
0.00334292
-0.00469119
-0.00546632
0.00392095
0.00207666
-0.00356516
0.00249524
-0.00407484
0.00296972
-0.00466218
0.00350697
-0.00522843
-0.00606494
0.00410558
0.00218566
-0.003948
0.00262293
-0.00451211
0.00311715
-0.0051564
0.00367708
-0.00578836
-0.00668397
0.00429611
0.00229925
-0.00434786
0.00275532
-0.00496817
0.00326915
-0.00567024
0.00385131
-0.00637052
-0.00732284
0.00449018
0.00241648
-0.00476479
0.00289119
-0.00544288
0.00342422
-0.00620327
0.00402774
-0.00697404
-0.00798055
0.00468545
0.00253639
-0.00519863
0.00302931
-0.0059358
0.00358082
-0.00675479
0.00420444
-0.00759765
-0.00865574
0.00487963
0.00265802
-0.00564901
0.00316847
-0.00644625
0.00373745
-0.00732377
0.00437954
-0.00823975
-0.00934669
0.00507049
0.0027804
-0.00611535
0.00330744
-0.00697328
0.00389262
-0.00790895
0.00455124
-0.00889837
-0.0100514
0.00525594
0.00290257
-0.00659687
0.00344502
-0.00751573
0.0040449
-0.00850883
0.00471785
-0.00957132
-0.0107676
0.00543404
0.00302357
-0.0070926
0.00358007
-0.00807223
0.00419294
-0.00912171
0.00487779
-0.0102562
-0.0114928
0.00560301
0.00314249
-0.00760142
0.00371147
-0.00864121
0.00433545
-0.00974569
0.00502962
-0.0109503
-0.0122245
0.0057613
0.00325844
0.00383819
-0.00922096
0.00447126
-0.0103788
0.00517206
-0.0116511
-0.01296
0.00590755
0.00395925
-0.00980963
0.00459929
-0.0110188
0.005304
-0.0123558
-0.0136966
0.00604065
0.00407378
-0.0104053
0.00471859
-0.0116636
0.00542451
-0.0130618
-0.0144318
0.00615972
0.00418097
-0.0110059
0.00482834
-0.012311
0.00553283
-0.0137663
-0.0151631
0.0062641
0.00428013
-0.0116095
0.00492784
-0.0129587
0.00562839
-0.0144668
-0.0158881
0.00635337
0.00437066
-0.012214
0.00501655
-0.0136046
0.00571079
-0.0151611
-0.0166046
0.00642731
0.00445208
-0.0128175
0.00509404
-0.0142465
0.00577981
-0.0158468
-0.0173107
0.00648591
0.00452398
-0.0134179
0.00516005
-0.0148826
0.00583538
-0.0165221
-0.0180046
0.00652931
0.00458609
0.00521442
-0.0155109
0.00587757
-0.0171853
-0.0186849
0.00655783
0.00525712
-0.0161298
0.0059066
-0.0178348
-0.0193502
0.0065719
0.00528824
-0.0167378
0.00592278
-0.0184693
-0.0199995
0.00657208
0.00530797
-0.0173334
0.00592653
-0.0190879
-0.0206319
0.006559
0.00531659
-0.0179155
0.00591834
-0.0196896
-0.0212469
0.00653335
0.00531445
-0.0184833
0.00589876
-0.0202739
-0.0218441
0.0064959
0.00530199
0.00586835
-0.0208403
-0.0224232
0.00644744
0.00582771
-0.0213884
-0.0229844
0.0063889
0.0057774
-0.0219178
-0.0235282
0.0063212
0.00571795
-0.0224282
-0.024056
0.0062458
0.00565002
-0.0245726
0.00616665
-0.0251013
0.00610427
-0.0256071
0.00599987
-0.02609
0.00588938
0.0057747
0.00288066
-3.83593e-05
0.00291816
-3.74964e-05
0.00295494
-3.67769e-05
0.00299108
-3.61469e-05
0.00302667
-3.55832e-05
0.00306175
-3.50784e-05
0.00309638
-3.46245e-05
0.0031306
-3.42135e-05
0.00316444
-3.38384e-05
0.00319793
-3.34935e-05
0.00323111
-3.3174e-05
0.00326399
-3.28755e-05
0.00329659
-3.25946e-05
0.00332892
-3.23281e-05
0.003361
-3.20733e-05
0.00339283
-3.1828e-05
0.00342443
-3.15901e-05
0.00345579
-3.1358e-05
0.00348693
-3.11303e-05
0.00351784
-3.09056e-05
0.00354852
-3.06829e-05
0.00357899
-3.04613e-05
0.00360924
-3.02399e-05
0.00363926
-3.00182e-05
0.00366906
-2.97956e-05
0.00369864
-2.95715e-05
0.00372799
-2.93456e-05
0.00375711
-2.91175e-05
0.00378601
-2.8887e-05
0.00381467
-2.86538e-05
0.00384309
-2.84179e-05
0.00387128
-2.8179e-05
0.00389922
-2.7937e-05
0.00392692
-2.76919e-05
0.00395437
-2.74438e-05
0.00398157
-2.71925e-05
0.00400851
-2.6938e-05
0.0040352
-2.66805e-05
0.00406162
-2.642e-05
0.00408779
-2.61565e-05
0.00411368
-2.58902e-05
0.00413931
-2.56211e-05
-2.53494e-05
0.00290226
-7.62495e-05
0.00293931
-7.45472e-05
0.00297567
-7.31321e-05
0.00301141
-7.18917e-05
0.00304661
-7.07805e-05
0.00308132
-6.97846e-05
0.00311558
-6.88886e-05
0.00314944
-6.80768e-05
0.00318294
-6.73355e-05
0.0032161
-6.66536e-05
0.00324895
-6.60216e-05
0.0032815
-6.54311e-05
0.00331378
-6.48751e-05
0.0033458
-6.43475e-05
0.00337757
-6.3843e-05
0.0034091
-6.33572e-05
0.0034404
-6.2886e-05
0.00347147
-6.24263e-05
0.00350231
-6.1975e-05
0.00353294
-6.15298e-05
0.00356334
-6.10885e-05
0.00359353
-6.06492e-05
0.0036235
-6.02105e-05
0.00365325
-5.97709e-05
0.00368279
-5.93294e-05
0.0037121
-5.8885e-05
0.00374119
-5.84369e-05
0.00377006
-5.79845e-05
0.0037987
-5.75272e-05
0.00382711
-5.70645e-05
0.00385529
-5.65962e-05
0.00388323
-5.61219e-05
0.00391094
-5.56416e-05
0.0039384
-5.5155e-05
0.00396562
-5.46621e-05
0.00399259
-5.41629e-05
0.00401931
-5.36574e-05
0.00404577
-5.31457e-05
0.00407198
-5.26279e-05
0.00409793
-5.21042e-05
0.00412361
-5.15747e-05
0.00414903
-5.10396e-05
-5.04991e-05
0.00294519
-0.000113205
0.00298135
-0.00011071
0.00301686
-0.000108645
0.00305181
-0.000106833
0.00308623
-0.000105206
0.00312019
-0.000103746
0.00315374
-0.000102431
0.0031869
-0.000101238
0.00321971
-0.000100148
0.0032522
-9.91447e-05
0.00328439
-9.82139e-05
0.00331631
-9.73438e-05
0.00334795
-9.65241e-05
0.00337935
-9.57459e-05
0.00341051
-9.50015e-05
0.00344144
-9.42844e-05
0.00347214
-9.35887e-05
0.00350262
-9.29098e-05
0.00353289
-9.22432e-05
0.00356295
-9.15853e-05
0.00359279
-9.09331e-05
0.00362243
-9.02838e-05
0.00365185
-8.96351e-05
0.00368107
-8.8985e-05
0.00371007
-8.8332e-05
0.00373886
-8.76746e-05
0.00376743
-8.70115e-05
0.00379579
-8.63419e-05
0.00382393
-8.56648e-05
0.00385184
-8.49798e-05
0.00387953
-8.42862e-05
0.00390699
-8.35837e-05
0.00393423
-8.2872e-05
0.00396122
-8.2151e-05
0.00398798
-8.14204e-05
0.0040145
-8.06804e-05
0.00404077
-7.99309e-05
0.0040668
-7.9172e-05
0.00409257
-7.8404e-05
0.0041181
-7.7627e-05
0.00414336
-7.68413e-05
0.00416837
-7.60471e-05
-7.52447e-05
0.00300889
-0.000148777
0.00304373
-0.000145557
0.003078
-0.000142911
0.00311175
-0.000140584
0.00314503
-0.000138488
0.00317789
-0.000136603
0.00321036
-0.000134903
0.00324248
-0.000133359
0.00327428
-0.000131946
0.00330578
-0.000130644
0.003337
-0.000129435
0.00336796
-0.000128303
0.00339867
-0.000127237
0.00342915
-0.000126224
0.0034594
-0.000125254
0.00348944
-0.000124319
0.00351926
-0.000123413
0.00354888
-0.000122527
0.00357829
-0.000121657
0.0036075
-0.000120798
0.00363652
-0.000119947
0.00366533
-0.000119099
0.00369395
-0.000118251
0.00372236
-0.000117401
0.00375058
-0.000116548
0.00377859
-0.000115688
0.0038064
-0.000114821
0.00383401
-0.000113944
0.0038614
-0.000113058
0.00388858
-0.000112161
0.00391555
-0.000111253
0.0039423
-0.000110333
0.00396882
-0.0001094
0.00399513
-0.000108455
0.00402121
-0.000107497
0.00404705
-0.000106527
0.00407266
-0.000105544
0.00409804
-0.000104548
0.00412318
-0.00010354
0.00414807
-0.00010252
0.00417272
-0.000101489
0.00419712
-0.000100446
-9.93918e-05
0.00309253
-0.000182542
0.00312566
-0.000178683
0.00315829
-0.000175543
0.00319048
-0.000172774
0.00322226
-0.000170269
0.00325367
-0.000168011
0.00328474
-0.000165971
0.00331549
-0.000164114
0.00334596
-0.000162413
0.00337616
-0.000160842
0.0034061
-0.000159381
0.00343581
-0.000158014
0.0034653
-0.000156723
0.00349457
-0.000155495
0.00352364
-0.000154319
0.0035525
-0.000153185
0.00358117
-0.000152084
0.00360966
-0.000151009
0.00363795
-0.000149951
0.00366606
-0.000148907
0.00369398
-0.000147871
0.00372172
-0.000146839
0.00374928
-0.000145807
0.00377665
-0.000144773
0.00380384
-0.000143732
0.00383083
-0.000142684
0.00385764
-0.000141627
0.00388425
-0.000140558
0.00391067
-0.000139477
0.00393689
-0.000138382
0.00396291
-0.000137272
0.00398873
-0.000136148
0.00401434
-0.000135008
0.00403973
-0.000133853
0.00406492
-0.000132681
0.00408988
-0.000131494
0.00411463
-0.000130291
0.00413916
-0.000129072
0.00416345
-0.000127838
0.00418752
-0.000126589
0.00421136
-0.000125324
0.00423496
-0.000124046
-0.000122754
0.00319504
-0.000214105
0.00322607
-0.00020971
0.00325671
-0.00020618
0.00328699
-0.000203056
0.00331694
-0.000200216
0.00334657
-0.000197648
0.00337592
-0.000195322
0.00340501
-0.0001932
0.00343385
-0.00019125
0.00346245
-0.000189448
0.00349084
-0.00018777
0.00351902
-0.000186195
0.00354701
-0.000184707
0.0035748
-0.000183291
0.00360242
-0.000181933
0.00362985
-0.000180622
0.00365712
-0.000179348
0.00368421
-0.000178103
0.00371114
-0.000176878
0.0037379
-0.000175668
0.00376449
-0.000174466
0.00379092
-0.000173268
0.00381718
-0.00017207
0.00384328
-0.000170867
0.0038692
-0.000169658
0.00389496
-0.000168439
0.00392054
-0.000167208
0.00394595
-0.000165963
0.00397117
-0.000164704
0.00399622
-0.000163427
0.00402108
-0.000162134
0.00404575
-0.000160822
0.00407024
-0.000159492
0.00409453
-0.000158143
0.00411862
-0.000156775
0.00414251
-0.000155387
0.0041662
-0.000153981
0.00418969
-0.000152555
0.00421296
-0.000151111
0.00423602
-0.000149649
0.00425886
-0.000148168
0.00428149
-0.000146671
-0.000145157
0.0033151
-0.000243111
0.00334369
-0.000238294
0.003372
-0.000234491
0.00340006
-0.000231113
0.00342786
-0.000228021
0.00345543
-0.000225215
0.00348277
-0.000222665
0.00350991
-0.000220333
0.00353684
-0.000218185
0.00356359
-0.000216194
0.00359015
-0.000214337
0.00361655
-0.000212591
0.00364278
-0.000210939
0.00366885
-0.000209364
0.00369477
-0.000207852
0.00372054
-0.00020639
0.00374616
-0.000204969
0.00377164
-0.000203577
0.00379697
-0.000202208
0.00382215
-0.000200854
0.00384719
-0.000199508
0.00387209
-0.000198166
0.00389684
-0.000196822
0.00392145
-0.000195472
0.00394591
-0.000194114
0.00397021
-0.000192744
0.00399436
-0.00019136
0.00401836
-0.000189959
0.0040422
-0.000188541
0.00406587
-0.000187103
0.00408938
-0.000185645
0.00411273
-0.000184166
0.0041359
-0.000182664
0.0041589
-0.000181141
0.00418172
-0.000179595
0.00420436
-0.000178026
0.00422681
-0.000176435
0.00424908
-0.000174822
0.00427115
-0.000173188
0.00429304
-0.000171531
0.00431472
-0.000169854
0.00433621
-0.000168157
-0.00016644
0.00345117
-0.000269245
0.00347701
-0.000264132
0.0035027
-0.000260184
0.00352825
-0.00025666
0.00355364
-0.000253409
0.00357886
-0.000250443
0.00360394
-0.000247741
0.00362887
-0.00024526
0.00365365
-0.000242969
0.0036783
-0.000240839
0.00370281
-0.000238846
0.00372718
-0.00023697
0.00375144
-0.00023519
0.00377556
-0.000233491
0.00379957
-0.000231857
0.00382345
-0.000230275
0.00384722
-0.000228734
0.00387086
-0.000227224
0.00389439
-0.000225737
0.0039178
-0.000224264
0.00394109
-0.000222799
0.00396426
-0.000221336
0.00398731
-0.00021987
0.00401024
-0.000218397
0.00403304
-0.000216913
0.00405571
-0.000215415
0.00407825
-0.0002139
0.00410065
-0.000212366
0.00412292
-0.000210811
0.00414505
-0.000209233
0.00416704
-0.000207632
0.00418888
-0.000206007
0.00421057
-0.000204356
0.00423211
-0.00020268
0.0042535
-0.000200978
0.00427472
-0.000199251
0.00429578
-0.000197497
0.00431668
-0.000195718
0.00433741
-0.000193914
0.00435796
-0.000192085
0.00437834
-0.000190233
0.00439854
-0.000188357
-0.000186459
0.0036015
-0.000292246
0.00362433
-0.000286967
0.00364715
-0.000283006
0.00366994
-0.000279452
0.00369268
-0.000276139
0.00371533
-0.000273101
0.00373791
-0.000270322
0.00376041
-0.00026776
0.00378283
-0.000265385
0.00380516
-0.00026317
0.00382741
-0.000261092
0.00384957
-0.000259129
0.00387164
-0.000257263
0.00389363
-0.000255477
0.00391553
-0.000253757
0.00393734
-0.000252088
0.00395906
-0.00025046
0.0039807
-0.000248862
0.00400225
-0.000247285
0.00402371
-0.000245722
0.00404508
-0.000244165
0.00406635
-0.000242608
0.00408752
-0.000241047
0.0041086
-0.000239475
0.00412958
-0.000237891
0.00415045
-0.000236289
0.00417122
-0.000234668
0.00419188
-0.000233025
0.00421243
-0.000231358
0.00423286
-0.000229665
0.00425317
-0.000227945
0.00427336
-0.000226198
0.00429343
-0.000224422
0.00431337
-0.000222617
0.00433317
-0.000220783
0.00435284
-0.000218919
0.00437237
-0.000217027
0.00439176
-0.000215105
0.004411
-0.000213156
0.00443009
-0.000211178
0.00444903
-0.000209173
0.00446782
-0.000207142
-0.000205085
0.00376416
-0.000311906
0.00378379
-0.000306592
0.00380354
-0.000302754
0.00382337
-0.000299286
0.00384325
-0.000296014
0.00386314
-0.000292994
0.00388303
-0.000290217
0.00390292
-0.000287647
0.00392279
-0.000285252
0.00394263
-0.00028301
0.00396243
-0.000280899
0.0039822
-0.000278898
0.00400193
-0.000276991
0.00402161
-0.00027516
0.00404125
-0.000273391
0.00406083
-0.000271672
0.00408036
-0.000269991
0.00409984
-0.000268338
0.00411926
-0.000266704
0.00413862
-0.000265081
0.00415791
-0.000263461
0.00417714
-0.000261839
0.00419631
-0.00026021
0.0042154
-0.000258568
0.00423442
-0.00025691
0.00425336
-0.000255232
0.00427222
-0.000253531
0.004291
-0.000251805
0.0043097
-0.000250052
0.0043283
-0.00024827
0.00434682
-0.000246457
0.00436523
-0.000244613
0.00438355
-0.000242738
0.00440176
-0.000240829
0.00441986
-0.000238888
0.00443786
-0.000236914
0.00445574
-0.000234908
0.0044735
-0.000232869
0.00449115
-0.000230799
0.00450867
-0.000228697
0.00452606
-0.000226565
0.00454332
-0.000224403
-0.000222213
0.00393711
-0.000328076
0.00395338
-0.000322855
0.00396989
-0.000319271
0.00398662
-0.000316008
0.00400348
-0.000312879
0.00402046
-0.000309968
0.00403752
-0.000307278
0.00405464
-0.000304772
0.00407181
-0.000302426
0.00408902
-0.000300217
0.00410625
-0.000298129
0.0041235
-0.000296141
0.00414074
-0.000294239
0.00415799
-0.000292407
0.00417523
-0.000290632
0.00419246
-0.000288901
0.00420967
-0.000287204
0.00422687
-0.000285531
0.00424404
-0.000283873
0.00426118
-0.000282222
0.00427829
-0.000280571
0.00429536
-0.000278915
0.0043124
-0.000277248
0.0043294
-0.000275565
0.00434635
-0.000273862
0.00436325
-0.000272136
0.00438011
-0.000270384
0.0043969
-0.000268602
0.00441364
-0.00026679
0.00443032
-0.000264946
0.00444693
-0.000263067
0.00446347
-0.000261154
0.00447994
-0.000259205
0.00449633
-0.00025722
0.00451264
-0.000255198
0.00452886
-0.000253141
0.004545
-0.000251047
0.00456105
-0.000248917
0.004577
-0.000246752
0.00459286
-0.000244553
0.00460861
-0.00024232
0.00462426
-0.000240054
-0.000237756
0.00411817
-0.000340665
0.00413098
-0.00033566
0.00414416
-0.000332457
0.00415767
-0.000329512
0.00417142
-0.000326626
0.00418537
-0.000323917
0.00419948
-0.000321396
0.00421374
-0.00031903
0.00422812
-0.0003168
0.00424259
-0.000314689
0.00425714
-0.00031268
0.00427176
-0.000310759
0.00428643
-0.000308911
0.00430114
-0.000307124
0.0043159
-0.000305385
0.00433068
-0.000303683
0.00434548
-0.000302009
0.00436031
-0.000300352
0.00437514
-0.000298705
0.00438998
-0.000297061
0.00440482
-0.000295412
0.00441966
-0.000293753
0.00443449
-0.000292079
0.00444931
-0.000290385
0.00446411
-0.000288667
0.0044789
-0.000286922
0.00449366
-0.000285147
0.0045084
-0.00028334
0.00452311
-0.000281497
0.00453778
-0.000279618
0.00455241
-0.000277702
0.00456701
-0.000275747
0.00458155
-0.000273752
0.00459605
-0.000271718
0.0046105
-0.000269643
0.00462488
-0.000267529
0.00463921
-0.000265375
0.00465348
-0.000263181
0.00466767
-0.000260949
0.0046818
-0.000258679
0.00469585
-0.000256371
0.00470982
-0.000254028
-0.000251649
0.00430509
-0.000349647
0.0043144
-0.000344971
0.00432421
-0.000342265
0.00433444
-0.000339744
0.00434502
-0.000337199
0.00435588
-0.000334779
0.00436699
-0.000332508
0.00437832
-0.000330357
0.00438983
-0.000328312
0.0044015
-0.00032636
0.00441331
-0.00032449
0.00442524
-0.000322689
0.00443728
-0.000320947
0.0044494
-0.000319251
0.00446161
-0.000317593
0.00447389
-0.000315962
0.00448623
-0.000314349
0.00449862
-0.000312747
0.00451107
-0.000311147
0.00452355
-0.000309544
0.00453607
-0.00030793
0.00454862
-0.000306302
0.00456119
-0.000304652
0.00457378
-0.000302979
0.00458639
-0.000301277
0.00459901
-0.000299543
0.00461164
-0.000297774
0.00462427
-0.000295969
0.0046369
-0.000294125
0.00464952
-0.000292241
0.00466213
-0.000290315
0.00467473
-0.000288346
0.00468731
-0.000286334
0.00469987
-0.000284278
0.00471241
-0.000282178
0.00472491
-0.000280034
0.00473739
-0.000277847
0.00474982
-0.000275617
0.00476222
-0.000273345
0.00477457
-0.000271031
0.00478688
-0.000268677
0.00479913
-0.000266283
-0.000263851
0.00449559
-0.000355054
0.00450143
-0.00035081
0.00450787
-0.000348703
0.00451483
-0.000346703
0.00452221
-0.000344588
0.00452997
-0.000342541
0.00453806
-0.000340596
0.00454644
-0.000338733
0.00455507
-0.00033694
0.00456392
-0.000335209
0.00457296
-0.000333535
0.00458218
-0.000331909
0.00459156
-0.000330322
0.00460107
-0.000328766
0.00461071
-0.000327232
0.00462046
-0.000325714
0.00463032
-0.000324203
0.00464026
-0.000322693
0.00465029
-0.000321178
0.0046604
-0.000319651
0.00467058
-0.000318107
0.00468082
-0.000316541
0.00469111
-0.000314949
0.00470146
-0.000313327
0.00471186
-0.000311671
0.00472229
-0.000309978
0.00473276
-0.000308246
0.00474327
-0.000306473
0.0047538
-0.000304656
0.00476435
-0.000302795
0.00477492
-0.000300887
0.00478551
-0.000298933
0.00479611
-0.000296931
0.00480671
-0.000294881
0.00481732
-0.000292784
0.00482792
-0.000290639
0.00483852
-0.000288446
0.00484911
-0.000286207
0.00485969
-0.000283922
0.00487025
-0.000281592
0.00488079
-0.000279218
0.00489131
-0.000276801
0.0049018
-0.000274342
-0.000271843
0.00468738
-0.000356979
0.00468982
-0.000353254
0.00469295
-0.000351835
0.00469669
-0.000350438
0.00470093
-0.000348833
0.00470563
-0.000347234
0.00471072
-0.00034569
0.00471617
-0.000344182
0.00472193
-0.000342703
0.00472798
-0.000341255
0.00473428
-0.000339833
0.0047408
-0.000338433
0.00474753
-0.000337051
0.00475444
-0.000335681
0.00476153
-0.000334316
0.00476877
-0.000332953
0.00477615
-0.000331584
0.00478366
-0.000330204
0.00479129
-0.000328809
0.00479903
-0.000327394
0.00480688
-0.000325953
0.00481482
-0.000324483
0.00482285
-0.00032298
0.00483097
-0.00032144
0.00483916
-0.000319861
0.00484742
-0.000318239
0.00485574
-0.000316573
0.00486413
-0.00031486
0.00487258
-0.0003131
0.00488107
-0.000311289
0.00488961
-0.000309428
0.00489819
-0.000307516
0.00490681
-0.000305552
0.00491547
-0.000303536
0.00492415
-0.000301468
0.00493286
-0.000299348
0.00494159
-0.000297177
0.00495034
-0.000294956
0.0049591
-0.000292685
0.00496788
-0.000290365
0.00497666
-0.000287997
0.00498544
-0.000285584
0.00499422
-0.000283125
-0.000280623
0.00487822
-0.000355568
0.0048774
-0.000352436
0.00487733
-0.000351773
0.00487795
-0.00035105
0.00487914
-0.000350022
0.00488084
-0.00034894
0.00488301
-0.00034786
0.0048856
-0.000346768
0.00488856
-0.000345664
0.00489186
-0.000344553
0.00489546
-0.000343437
0.00489934
-0.000342315
0.00490348
-0.000341185
0.00490784
-0.000340046
0.00491242
-0.000338893
0.00491719
-0.000337725
0.00492214
-0.000336537
0.00492726
-0.000335325
0.00493254
-0.000334086
0.00493796
-0.000332816
0.00494352
-0.000331512
0.00494921
-0.000330169
0.00495501
-0.000328786
0.00496093
-0.00032736
0.00496696
-0.000325887
0.00497309
-0.000324365
0.00497931
-0.000322794
0.00498562
-0.00032117
0.00499201
-0.000319492
0.00499848
-0.00031776
0.00500503
-0.000315973
0.00501164
-0.000314129
0.00501832
-0.00031223
0.00502506
-0.000310274
0.00503185
-0.000308262
0.00503869
-0.000306194
0.00504559
-0.00030407
0.00505252
-0.000301893
0.0050595
-0.000299661
0.00506651
-0.000297378
0.00507356
-0.000295043
0.00508063
-0.000292658
0.00508773
-0.000290225
-0.000287746
0.00506594
-0.000351015
0.00506203
-0.000348534
0.00505894
-0.000348679
0.00505657
-0.000348682
0.00505484
-0.000348289
0.00505368
-0.000347779
0.00505304
-0.000347219
0.00505287
-0.000346599
0.00505313
-0.000345923
0.00505378
-0.000345201
0.00505478
-0.000344439
0.0050561
-0.000343641
0.00505773
-0.000342809
0.00505962
-0.000341943
0.00506177
-0.000341044
0.00506416
-0.00034011
0.00506676
-0.00033914
0.00506957
-0.000338131
0.00507256
-0.000337083
0.00507574
-0.000335992
0.00507908
-0.000334856
0.00508259
-0.000333672
0.00508624
-0.000332439
0.00509003
-0.000331155
0.00509396
-0.000329817
0.00509802
-0.000328423
0.0051022
-0.000326973
0.0051065
-0.000325465
0.0051109
-0.000323897
0.00511541
-0.00032227
0.00512002
-0.000320582
0.00512473
-0.000318833
0.00512952
-0.000317023
0.0051344
-0.000315153
0.00513936
-0.000313221
0.00514439
-0.00031123
0.0051495
-0.000309179
0.00515468
-0.00030707
0.00515992
-0.000304903
0.00516522
-0.00030268
0.00517058
-0.000300402
0.005176
-0.000298071
0.00518146
-0.000295689
-0.000293256
0.00524849
-0.000343561
0.00524172
-0.000341772
0.0052358
-0.000342757
0.00523064
-0.000343524
0.00522616
-0.000343806
0.0052223
-0.000343913
0.005219
-0.00034392
0.00521622
-0.000343818
0.00521391
-0.000343616
0.00521204
-0.000343327
0.00521056
-0.000342964
0.00520945
-0.000342533
0.00520868
-0.000342039
0.00520823
-0.000341487
0.00520806
-0.000340879
0.00520817
-0.000340216
0.00520853
-0.000339499
0.00520913
-0.000338728
0.00520995
-0.000337903
0.00521098
-0.000337022
0.00521221
-0.000336084
0.00521362
-0.000335089
0.00521522
-0.000334035
0.00521698
-0.00033292
0.00521891
-0.000331744
0.00522099
-0.000330505
0.00522322
-0.000329202
0.00522559
-0.000327835
0.0052281
-0.000326403
0.00523073
-0.000324904
0.00523349
-0.00032334
0.00523637
-0.00032171
0.00523936
-0.000320014
0.00524246
-0.000318252
0.00524566
-0.000316425
0.00524896
-0.000314533
0.00525236
-0.000312578
0.00525585
-0.00031056
0.00525943
-0.000308481
0.00526309
-0.000306342
0.00526683
-0.000304144
0.00527065
-0.00030189
0.00527454
-0.000299581
-0.000297218
0.00542396
-0.00033348
0.00541459
-0.000332409
0.00540608
-0.000334248
0.00539836
-0.000335798
0.00539134
-0.000336784
0.00538496
-0.000337541
0.00537919
-0.00033815
0.00537398
-0.000338603
0.00536927
-0.000338912
0.00536504
-0.000339096
0.00536125
-0.000339169
0.00535786
-0.000339143
0.00535484
-0.000339024
0.00535218
-0.000338821
0.00534984
-0.000338539
0.0053478
-0.00033818
0.00534605
-0.000337749
0.00534457
-0.000337247
0.00534334
-0.000336674
0.00534235
-0.000336033
0.00534159
-0.000335322
0.00534105
-0.000334543
0.0053407
-0.000333694
0.00534056
-0.000332775
0.0053406
-0.000331786
0.00534082
-0.000330726
0.00534121
-0.000329594
0.00534177
-0.000328392
0.00534248
-0.000327117
0.00534335
-0.000325771
0.00534436
-0.000324353
0.00534552
-0.000322863
0.00534681
-0.000321303
0.00534823
-0.000319671
0.00534977
-0.00031797
0.00535144
-0.0003162
0.00535322
-0.000314362
0.00535512
-0.000312457
0.00535713
-0.000310487
0.00535924
-0.000308453
0.00536145
-0.000306357
0.00536376
-0.000304201
0.00536617
-0.000301986
-0.000299715
0.0055906
-0.000321075
0.00557893
-0.000320735
0.0055681
-0.000323423
0.00555807
-0.000325759
0.00554874
-0.000327463
0.00554009
-0.00032889
0.00553207
-0.000330125
0.00552462
-0.00033116
0.00551772
-0.00033201
0.00551132
-0.000332697
0.00550539
-0.000333238
0.0054999
-0.000333648
0.00549481
-0.000333937
0.0054901
-0.000334114
0.00548575
-0.000334188
0.00548173
-0.000334164
0.00547803
-0.000334047
0.00547463
-0.000333842
0.0054715
-0.00033355
0.00546864
-0.000333175
0.00546604
-0.000332717
0.00546367
-0.000332178
0.00546154
-0.000331558
0.00545962
-0.000330859
0.00545792
-0.000330079
0.00545641
-0.000329221
0.0054551
-0.000328283
0.00545397
-0.000327266
0.00545303
-0.000326171
0.00545225
-0.000324997
0.00545165
-0.000323746
0.0054512
-0.000322417
0.00545091
-0.000321011
0.00545077
-0.00031953
0.00545077
-0.000317975
0.00545092
-0.000316345
0.0054512
-0.000314644
0.00545161
-0.000312871
0.00545216
-0.00031103
0.00545282
-0.00030912
0.00545361
-0.000307145
0.00545452
-0.000305106
0.00545554
-0.000303006
-0.000300845
0.00574689
-0.000306669
0.00573321
-0.000307059
0.00572036
-0.000310573
0.00570829
-0.000313684
0.00569693
-0.000316106
0.00568625
-0.000318211
0.00567621
-0.000320084
0.00566677
-0.000321719
0.00565789
-0.00032313
0.00564954
-0.000324343
0.00564168
-0.000325377
0.00563428
-0.000326249
0.00562731
-0.000326971
0.00562075
-0.000327555
0.00561458
-0.000328011
0.00560876
-0.000328348
0.00560329
-0.000328572
0.00559813
-0.000328688
0.00559328
-0.000328702
0.00558873
-0.000328616
0.00558444
-0.000328434
0.00558042
-0.000328157
0.00557665
-0.000327789
0.00557312
-0.000327329
0.00556982
-0.000326781
0.00556675
-0.000326143
0.00556388
-0.000325418
0.00556122
-0.000324607
0.00555876
-0.000323709
0.00555649
-0.000322726
0.0055544
-0.000321659
0.0055525
-0.000320509
0.00555076
-0.000319277
0.0055492
-0.000317964
0.00554779
-0.000316571
0.00554655
-0.0003151
0.00554545
-0.000313552
0.00554451
-0.000311929
0.00554372
-0.000310233
0.00554306
-0.000308465
0.00554254
-0.000306628
0.00554216
-0.000304724
0.00554191
-0.000302754
0.00554179
-0.000300722
-0.00029863
0.00589148
-0.000290597
0.00587612
-0.000291704
0.00586156
-0.000296009
0.00584774
-0.000299869
0.00583463
-0.000302995
0.00582219
-0.000305773
0.0058104
-0.000308288
0.00579921
-0.000310529
0.00578859
-0.000312513
0.00577851
-0.000314267
0.00576895
-0.000315812
0.00575986
-0.000317164
0.00575123
-0.00031834
0.00574303
-0.000319352
0.00573523
-0.000320213
0.00572781
-0.000320931
0.00572076
-0.000321517
0.00571405
-0.000321977
0.00570766
-0.000322316
0.00570159
-0.00032254
0.00569581
-0.000322654
0.00569031
-0.00032266
0.00568508
-0.000322561
0.00568011
-0.00032236
0.00567539
-0.00032206
0.00567091
-0.000321661
0.00566666
-0.000321166
0.00566263
-0.000320576
0.00565881
-0.000319892
0.0056552
-0.000319117
0.00565179
-0.00031825
0.00564857
-0.000317294
0.00564555
-0.00031625
0.0056427
-0.00031512
0.00564004
-0.000313905
0.00563754
-0.000312607
0.00563522
-0.000311228
0.00563306
-0.000309769
0.00563106
-0.000308233
0.00562922
-0.000306622
0.00562753
-0.000304938
0.00562599
-0.000303184
0.0056246
-0.000301361
0.00562335
-0.000299473
-0.000297521
0.00602325
-0.000273198
0.00600655
-0.000274998
0.00599058
-0.000280046
0.00597533
-0.000284616
0.00596076
-0.000288423
0.00594684
-0.00029186
0.00593356
-0.000295007
0.00592089
-0.000297852
0.00590879
-0.000300413
0.00589723
-0.000302714
0.0058862
-0.000304779
0.00587566
-0.000306625
0.00586559
-0.000308269
0.00585596
-0.000309725
0.00584676
-0.000311007
0.00583795
-0.000312125
0.00582952
-0.00031309
0.00582146
-0.00031391
0.00581373
-0.000314593
0.00580634
-0.000315144
0.00579925
-0.00031557
0.00579247
-0.000315875
0.00578597
-0.000316062
0.00577975
-0.000316136
0.00577379
-0.000316099
0.00576808
-0.000315953
0.00576261
-0.000315703
0.00575739
-0.000315348
0.00575239
-0.000314892
0.00574761
-0.000314337
0.00574304
-0.000313684
0.00573868
-0.000312935
0.00573452
-0.000312092
0.00573056
-0.000311158
0.00572679
-0.000310133
0.0057232
-0.000309021
0.0057198
-0.000307823
0.00571657
-0.000306542
0.00571352
-0.000305179
0.00571063
-0.000303737
0.00570791
-0.000302219
0.00570536
-0.000300627
0.00570296
-0.000298964
0.00570072
-0.000297232
-0.000295434
0.00614133
-0.000254808
0.0061236
-0.00025727
0.00610655
-0.000263001
0.00609017
-0.000268233
0.00607443
-0.000272687
0.00605933
-0.000276757
0.00604484
-0.000280519
0.00603095
-0.000283958
0.00601763
-0.000287089
0.00600485
-0.000289938
0.0059926
-0.000292527
0.00598085
-0.000294873
0.00596957
-0.000296993
0.00595875
-0.000298903
0.00594836
-0.000300618
0.00593838
-0.000302149
0.0059288
-0.000303506
0.00591959
-0.000304701
0.00591074
-0.000305741
0.00590223
-0.000306633
0.00589404
-0.000307385
0.00588617
-0.000308001
0.00587859
-0.000308487
0.0058713
-0.000308848
0.00586429
-0.000309087
0.00585754
-0.000309207
0.00585105
-0.000309212
0.00584481
-0.000309104
0.00583881
-0.000308887
0.00583303
-0.000308563
0.00582748
-0.000308135
0.00582215
-0.000307604
0.00581703
-0.000306973
0.00581212
-0.000306244
0.00580741
-0.000305421
0.00580289
-0.000304505
0.00579857
-0.000303498
0.00579443
-0.000302404
0.00579047
-0.000301225
0.0057867
-0.000299963
0.0057831
-0.000298621
0.00577968
-0.000297202
0.00577642
-0.000295709
0.00577334
-0.000294145
-0.000292512
0.00624504
-0.000235753
0.00622661
-0.000238837
0.0062088
-0.000245184
0.00619159
-0.000251023
0.00617498
-0.000256081
0.00615897
-0.000260752
0.00614356
-0.000265104
0.00612872
-0.000269118
0.00611444
-0.000272807
0.00610069
-0.000276196
0.00608747
-0.000279305
0.00607475
-0.000282151
0.00606251
-0.000284752
0.00605073
-0.000287122
0.00603939
-0.000289276
0.00602846
-0.000291227
0.00601794
-0.000292986
0.00600781
-0.000294565
0.00599804
-0.000295972
0.00598862
-0.000297215
0.00597954
-0.000298303
0.00597078
-0.000299241
0.00596233
-0.000300036
0.00595417
-0.000300694
0.00594631
-0.000301218
0.00593871
-0.000301613
0.00593138
-0.000301883
0.00592431
-0.000302031
0.00591748
-0.000302062
0.0059109
-0.000301978
0.00590455