/*--------------------------------*- C++ -*----------------------------------*\
  =========                 |
  \\      /  F ield         | OpenFOAM: The Open Source CFD Toolbox
   \\    /   O peration     | Website:  https://openfoam.org
    \\  /    A nd           | Version:  7
     \\/     M anipulation  |
\*---------------------------------------------------------------------------*/
FoamFile
{
    version     2.0;
    format      ascii;
    class       surfaceScalarField;
    location    "10";
    object      phi;
}
// * * * * * * * * * * * * * * * * * * * * * * * * * * * * * * * * * * * * * //

dimensions      [0 3 -1 0 0 0 0];

internalField   nonuniform List<scalar> 
5141
(
0.00745657
3.17695e-05
0.00742722
2.93473e-05
0.00740032
2.68999e-05
0.00737589
2.4428e-05
0.00735396
2.19325e-05
0.00733455
1.94143e-05
0.00731767
1.68742e-05
0.00730336
1.43132e-05
0.00729163
1.17323e-05
0.00728249
9.13232e-06
0.00727598
6.51433e-06
0.0072721
3.87945e-06
0.00727087
1.22936e-06
0.00727231
-1.43681e-06
0.00727643
-4.11683e-06
0.00728323
-6.80872e-06
0.00729275
-9.51228e-06
-1.22259e-05
0.00730497
0.00728268
6.27423e-05
0.00725408
5.79516e-05
0.00722787
5.3111e-05
0.00720407
4.82224e-05
0.00718272
4.32875e-05
0.00716383
3.83078e-05
0.00714742
3.32852e-05
0.00713351
2.82216e-05
0.00712212
2.31187e-05
0.00711327
1.79782e-05
0.00710699
1.28027e-05
0.00710327
7.59377e-06
0.00710215
2.35413e-06
0.00710363
-2.91567e-06
0.00710772
-8.21238e-06
0.00711445
-1.35335e-05
0.00712381
-1.88768e-05
-2.42405e-05
0.00713583
0.00711282
9.29113e-05
0.00708497
8.58041e-05
0.00705946
7.86238e-05
0.00703631
7.13727e-05
0.00701554
6.4053e-05
0.00699718
5.66677e-05
0.00698125
4.9219e-05
0.00696776
4.17098e-05
0.00695674
3.41427e-05
0.00694819
2.65207e-05
0.00694215
1.88465e-05
0.00693862
1.11233e-05
0.00693762
3.35451e-06
0.00693916
-4.4581e-06
0.00694326
-1.23104e-05
0.00694993
-2.01986e-05
0.00695917
-2.81199e-05
-3.60706e-05
0.006971
0.0069469
0.000122276
0.00691981
0.000112903
0.00689499
0.000103435
0.00687249
9.38742e-05
0.00685232
8.42237e-05
0.0068345
7.4487e-05
0.00681905
6.46675e-05
0.006806
5.47686e-05
0.00679534
4.47941e-05
0.00678712
3.47474e-05
0.00678133
2.46325e-05
0.006778
1.44535e-05
0.00677714
4.2147e-06
0.00677876
-6.08135e-06
0.00678288
-1.64293e-05
0.00678951
-2.68243e-05
0.00679865
-3.72624e-05
-4.77393e-05
0.00681032
0.00678484
0.000150838
0.0067585
0.000139251
0.00673438
0.000127546
0.00671253
0.000115727
0.00669296
0.000103798
0.00667568
9.17632e-05
0.00666072
7.96268e-05
0.0066481
6.73928e-05
0.00663783
5.50661e-05
0.00662992
4.26508e-05
0.0066244
3.01517e-05
0.00662128
1.75738e-05
0.00662058
4.92254e-06
0.00662229
-7.79884e-06
0.00662645
-2.05838e-05
0.00663305
-3.34267e-05
0.00664211
-4.63226e-05
-5.92657e-05
0.00665364
0.00662656
0.00660096
0.000164852
0.00657754
0.00015096
0.00655634
0.000136933
0.00653736
0.000122777
0.00652062
0.000108497
0.00650615
9.4096e-05
0.00649397
7.95805e-05
0.00648408
6.49554e-05
0.0064765
5.0226e-05
0.00647125
3.53981e-05
0.00646835
2.0477e-05
0.0064678
5.46947e-06
0.00646963
-9.62068e-06
0.00647383
-2.47856e-05
0.00648042
-4.0019e-05
0.00648941
-5.53146e-05
-7.06658e-05
0.00650081
0.0064471
0.000189714
0.00642438
0.000173683
0.00640381
0.000157499
0.00638542
0.000141166
0.00636923
0.00012469
0.00635525
0.000108077
0.0063435
9.13316e-05
0.00633399
7.44611e-05
0.00632675
5.7471e-05
0.00632178
4.03679e-05
0.0063191
2.31581e-05
0.00631872
5.84899e-06
0.00632065
-1.15546e-05
0.00632491
-2.90438e-05
0.0063315
-4.66116e-05
0.00634044
-6.42507e-05
-8.19535e-05
0.00635172
0.00629684
0.000213844
0.0062748
0.000195723
0.00625487
0.000177429
0.00623707
0.000158969
0.00622141
0.000140347
0.00620792
0.000121572
0.0061966
0.000102648
0.00618748
8.35839e-05
0.00618056
6.43852e-05
0.00617587
4.50594e-05
0.00617342
2.5614e-05
0.00617321
6.05703e-06
0.00617526
-1.36063e-05
0.00617958
-3.33656e-05
0.00618618
-5.32132e-05
0.00619507
-7.31408e-05
-9.31398e-05
0.00620626
0.0061501
0.000237253
0.00612873
0.000217088
0.00610943
0.000196732
0.00609221
0.000176192
0.00607708
0.000155474
0.00606407
0.000134586
0.00605318
0.000113534
0.00604444
9.23257e-05
0.00603786
7.09693e-05
0.00603344
4.94723e-05
0.00603121
2.78431e-05
0.00603118
6.09034e-06
0.00603335
-1.578e-05
0.00603774
-3.77566e-05
0.00604436
-5.98306e-05
0.00605321
-8.19931e-05
-0.000104235
0.00606431
0.00600678
0.000259949
0.00598608
0.000237787
0.0059674
0.000215415
0.00595075
0.000192843
0.00593615
0.000170076
0.00592361
0.000147124
0.00591315
0.000123992
0.00590479
0.00010069
0.00589853
7.72253e-05
0.0058944
5.36073e-05
0.00589239
2.98446e-05
0.00589254
5.94746e-06
0.00589484
-1.80789e-05
0.0058993
-4.22208e-05
0.00590594
-6.64696e-05
0.00591476
-9.08149e-05
-0.000115247
0.00592577
0.00586681
0.000281944
0.00584677
0.000257829
0.0058287
0.000233488
0.00581261
0.00020893
0.00579853
0.000184161
0.00578646
0.000159191
0.00577642
0.000134027
0.00576843
0.000108679
0.0057625
8.31556e-05
0.00575864
5.74658e-05
0.00575687
3.16192e-05
0.00575719
5.62727e-06
0.00575962
-2.0505e-05
0.00576416
-4.6762e-05
0.00577082
-7.31346e-05
0.00577962
-9.96121e-05
-0.000126183
0.00579056
0.0057301
0.000303247
0.00571071
0.000277224
0.00569324
0.000250959
0.00567771
0.00022446
0.00566413
0.000197735
0.00565253
0.000170794
0.00564291
0.000143645
0.00563529
0.000116299
0.00562969
8.87632e-05
0.0056261
6.10495e-05
0.00562455
3.31677e-05
0.00562505
5.12962e-06
0.00562761
-2.30596e-05
0.00563223
-5.13827e-05
0.00563892
-7.98298e-05
0.0056477
-0.00010839
-0.00013705
0.00565857
0.00559658
0.000323869
0.00557782
0.000295982
0.00556094
0.000267836
0.00554596
0.000239442
0.00553289
0.000210806
0.00552174
0.00018194
0.00551254
0.000152852
0.00550528
0.000123552
0.00549999
9.40521e-05
0.00549668
6.43612e-05
0.00549536
3.44912e-05
0.00549603
4.45527e-06
0.00549872
-2.57437e-05
0.00550342
-5.60848e-05
0.00551015
-8.65583e-05
0.00551891
-0.000117152
-0.000147853
0.00552971
0.00546616
0.000343822
0.00544803
0.000314113
0.00543173
0.000284131
0.00541729
0.000253884
0.00540471
0.000223382
0.00539402
0.000192634
0.00538522
0.000161652
0.00537833
0.000130446
0.00537335
9.90257e-05
0.00537031
6.74038e-05
0.00536921
3.55919e-05
0.00537006
3.60456e-06
0.00537287
-2.85575e-05
0.00537766
-6.08699e-05
0.00538442
-9.33226e-05
0.00539317
-0.000125903
-0.000158597
0.00540392
0.00533876
0.000363116
0.00532125
0.000331628
0.00530553
0.000299851
0.00529162
0.000267795
0.00527953
0.000235469
0.00526928
0.000202885
0.00526088
0.000170052
0.00525434
0.000136983
0.00524968
0.000103688
0.0052469
7.01802e-05
0.00524602
3.64716e-05
0.00524705
2.57947e-06
0.00524999
-3.15013e-05
0.00525486
-6.57393e-05
0.00526166
-0.000100125
0.00527041
-0.000134646
-0.000169287
0.0052811
0.00521432
0.000381763
0.00519742
0.000348537
0.00518226
0.000315008
0.00516887
0.000281184
0.00515726
0.000247078
0.00514745
0.000212699
0.00513944
0.000178059
0.00513325
0.00014317
0.0051289
0.000108044
0.00512639
7.2693e-05
0.00512573
3.71318e-05
0.00512692
1.38496e-06
0.00512999
-3.4576e-05
0.00513495
-7.06941e-05
0.00514179
-0.000106968
0.00515053
-0.000143384
-0.000179927
0.00516117
0.00509277
0.000399774
0.00507645
0.000364851
0.00506185
0.00032961
0.00504898
0.000294061
0.00503784
0.000258214
0.00502846
0.000222083
0.00502084
0.000185678
0.00501499
0.000149012
0.00501094
0.000112097
0.00500869
7.49457e-05
0.00500825
3.75684e-05
0.0050096
3.47048e-08
0.00501281
-3.77867e-05
0.00501785
-7.5735e-05
0.00502474
-0.000113852
0.00503347
-0.000152119
-0.00019052
0.00504407
0.00497403
0.00041716
0.0049583
0.00038058
0.00494424
0.000343667
0.00493187
0.000306433
0.00492119
0.000268888
0.00491223
0.000231045
0.00490499
0.000192917
0.00489949
0.000154516
0.00489573
0.000115854
0.00489373
7.6947e-05
0.00489349
3.78086e-05
0.00489506
-1.53396e-06
0.00489838
-4.11092e-05
0.0049035
-8.08582e-05
0.00491043
-0.000120778
0.00491916
-0.000160854
-0.000201069
0.00492971
0.00485803
0.000433933
0.00484287
0.000395735
0.00482935
0.00035719
0.00481747
0.00031831
0.00480725
0.000279107
0.00479871
0.000239593
0.00479184
0.000199781
0.00478667
0.000159685
0.00478321
0.000119318
0.00478146
7.86953e-05
0.00478144
3.78307e-05
0.00478316
-3.25513e-06
0.00478662
-4.45664e-05
0.00479183
-8.60676e-05
0.0047988
-0.000127748
0.00480753
-0.00016959
-0.000211578
0.00481804
0.00474471
0.000450105
0.00473012
0.000410326
0.00471712
0.000370188
0.00470573
0.000329701
0.00469596
0.000288878
0.00468782
0.000247732
0.00468132
0.000206277
0.00467648
0.000164526
0.00467331
0.000122494
0.00467181
8.01948e-05
0.00467199
3.76443e-05
0.00467388
-5.13881e-06
0.00467746
-4.81512e-05
0.00468276
-9.13635e-05
0.00468977
-0.000134762
0.00469851
-0.00017833
-0.00022205
0.00470898
0.00463401
0.000465686
0.00461997
0.000424365
0.00460749
0.000382671
0.00459657
0.000340615
0.00458724
0.000298211
0.0045795
0.000255472
0.00457337
0.000212412
0.00456885
0.000169045
0.00456596
0.000125386
0.0045647
8.145e-05
0.00456509
3.72532e-05
0.00456714
-7.18669e-06
0.00457085
-5.18613e-05
0.00457623
-9.67447e-05
0.00458329
-0.000141822
0.00459204
-0.000187075
-0.000232486
0.00460247
0.00452586
0.000480688
0.00451237
0.000437861
0.00450039
0.000394648
0.00448994
0.000351061
0.00448104
0.000307113
0.0044737
0.000262818
0.00446792
0.000218191
0.00446372
0.000173246
0.0044611
0.000127999
0.00446009
8.24648e-05
0.00446068
3.66602e-05
0.00446289
-9.39702e-06
0.00446672
-5.56954e-05
0.00447219
-0.000102211
0.0044793
-0.000148928
0.00448805
-0.000195827
-0.000242889
0.00449845
0.00442021
0.000495122
0.00440725
0.000450826
0.00439577
0.00040613
0.00438578
0.000361047
0.0043773
0.000315592
0.00437034
0.000269779
0.00436491
0.000223622
0.00436102
0.000177136
0.00435868
0.000130338
0.0043579
8.32431e-05
0.0043587
3.58686e-05
0.00436107
-1.17677e-05
0.00436502
-5.96523e-05
0.00437057
-0.000107762
0.00437773
-0.00015608
0.00438648
-0.000204586
-0.000253261
0.00439686
0.004317
0.000508999
0.00430456
0.000463268
0.00429356
0.000417125
0.00428403
0.000370583
0.00427596
0.000323657
0.00426938
0.000276361
0.00426429
0.00022871
0.00426071
0.00018072
0.00425864
0.000132407
0.00425809
8.37887e-05
0.00425908
3.48816e-05
0.00426161
-1.42968e-05
0.00426569
-6.37303e-05
0.00427132
-0.000113397
0.00427852
-0.000163278
0.00428729
-0.000213353
-0.000263603
0.00429763
0.00421617
0.00052233
0.00420424
0.0004752
0.00419372
0.000427644
0.00418463
0.000379678
0.00417697
0.000331315
0.00417076
0.000282571
0.00416601
0.000233462
0.00416273
0.000184004
0.00416092
0.000134212
0.0041606
8.41058e-05
0.00416178
3.37018e-05
0.00416447
-1.69818e-05
0.00416867
-6.79278e-05
0.00417438
-0.000119114
0.00418163
-0.000170521
0.0041904
-0.000222129
-0.000273917
0.00420072
0.00411767
0.000535127
0.00410624
0.00048663
0.00409619
0.000437695
0.00408753
0.000388339
0.00408027
0.000338574
0.00407443
0.000288417
0.00407
0.000237884
0.00406701
0.000186992
0.00406547
0.000135757
0.00406538
8.41981e-05
0.00406675
3.2333e-05
0.00406958
-1.98203e-05
0.0040739
-7.22429e-05
0.0040797
-0.000124913
0.00408699
-0.000177811
0.00409577
-0.000230914
-0.000284203
0.00410606
0.00402145
0.0005474
0.00401051
0.000497569
0.00400092
0.000447289
0.00399268
0.000396575
0.00398581
0.000345441
0.00398032
0.000293905
0.00397622
0.000241983
0.00397353
0.000189691
0.00397224
0.000137047
0.00397236
8.40698e-05
0.00397392
3.07782e-05
0.00397691
-2.28096e-05
0.00398134
-7.66739e-05
0.00398722
-0.000130792
0.00399455
-0.000185144
0.00400335
-0.000239708
-0.000294461
0.0040136
0.00392745
0.000559158
0.00391699
0.000508026
0.00390785
0.000456433
0.00390003
0.000404394
0.00389354
0.000351925
0.0038884
0.000299043
0.00388462
0.000245764
0.00388221
0.000192106
0.00388117
0.000138086
0.00388151
8.37249e-05
0.00388325
2.9041e-05
0.00388639
-2.59471e-05
0.00389093
-8.12184e-05
0.00389689
-0.00013675
0.00390427
-0.000192522
0.00391307
-0.00024851
-0.000304692
0.0039233
0.00383562
0.000570414
0.00382564
0.000518012
0.00381693
0.000465137
0.00380952
0.000411805
0.00380341
0.000358033
0.00379862
0.000303836
0.00379515
0.000249233
0.00379302
0.000194242
0.00379222
0.00013888
0.00379278
8.31678e-05
0.00379469
2.71249e-05
0.00379798
-2.92296e-05
0.00380263
-8.58739e-05
0.00380867
-0.000142785
0.00381609
-0.000199941
0.0038249
-0.000257319
-0.000314895
0.0038351
0.00374593
0.000581177
0.0037364
0.000527536
0.00372813
0.00047341
0.00372112
0.000418817
0.00371538
0.000363772
0.00371092
0.000308293
0.00370776
0.000252398
0.0037059
0.000196105
0.00370534
0.000139433
0.00370611
8.24026e-05
0.0037082
2.50339e-05
0.00371162
-3.2654e-05
0.00371639
-9.06376e-05
0.0037225
-0.000148894
0.00372996
-0.000207401
0.00373877
-0.000266134
-0.00032507
0.00374895
0.00365831
0.000591457
0.00364924
0.000536606
0.00364139
0.00048126
0.00363477
0.000425436
0.0036294
0.00036915
0.00362527
0.000312419
0.0036224
0.000255263
0.00362081
0.000197701
0.00362049
0.000139751
0.00362146
8.14339e-05
0.00362372
2.27721e-05
0.00362728
-3.62165e-05
0.00363215
-9.55065e-05
0.00363833
-0.000155075
0.00364583
-0.000214899
0.00365465
-0.000274954
-0.000335214
0.00366479
0.00357274
0.000601264
0.00356411
0.000545233
0.00355667
0.000488697
0.00355044
0.000431671
0.00354541
0.000374173
0.00354161
0.000316222
0.00353904
0.000257836
0.0035377
0.000199035
0.00353762
0.000139838
0.00353878
8.02667e-05
0.00354121
2.03434e-05
0.00354491
-3.99133e-05
0.00354988
-0.000100477
0.00355613
-0.000161325
0.00356366
-0.000222433
0.00357248
-0.000283775
-0.000345325
0.0035826
0.00348915
0.000610608
0.00348096
0.000553426
0.00347393
0.000495728
0.00346807
0.00043753
0.00346339
0.000378851
0.0034599
0.000319709
0.00345762
0.000260123
0.00345654
0.000200113
0.00345668
0.0001397
0.00345804
7.8906e-05
0.00346063
1.77528e-05
0.00346445
-4.37403e-05
0.00346952
-0.000105546
0.00347584
-0.000167641
0.0034834
-0.000229999
0.00349222
-0.000292595
-0.000355402
0.0035023
0.00340752
0.000619498
0.00339975
0.000561194
0.00339312
0.000502362
0.00338762
0.000443021
0.00338329
0.00038319
0.00338011
0.000322886
0.0033781
0.00026213
0.00337727
0.000200942
0.00337763
0.000139344
0.00337918
7.73569e-05
0.00338193
1.50053e-05
0.00338588
-4.7693e-05
0.00339104
-0.000110709
0.00339742
-0.000174017
0.00340501
-0.000237593
0.00341383
-0.000301411
-0.000365441
0.00342387
0.00332779
0.000627945
0.00332044
0.000568546
0.0033142
0.000508609
0.00330906
0.000448153
0.00330506
0.000387197
0.00330218
0.000325761
0.00330045
0.000263864
0.00329986
0.000201528
0.00330043
0.000138774
0.00330216
7.56254e-05
0.00330506
1.21063e-05
0.00330913
-5.17664e-05
0.00331439
-0.00011596
0.00332082
-0.000180451
0.00332844
-0.000245213
0.00333725
-0.000310219
-0.000375439
0.00334724
0.00324994
0.000635958
0.003243
0.000575491
0.00323713
0.000514476
0.00323235
0.000452934
0.00322866
0.000390882
0.00322608
0.000328342
0.00322461
0.000265333
0.00322426
0.000201878
0.00322504
0.000137998
0.00322695
7.3717e-05
0.00322999
9.06164e-06
0.00323418
-5.59549e-05
0.00323952
-0.000121295
0.003246
-0.000186937
0.00325364
-0.000252853
0.00326244
-0.000319014
-0.000385392
0.00327239
0.00317392
0.000643547
0.00316737
0.000582038
0.00316187
0.000519973
0.00315743
0.000457371
0.00315407
0.000394252
0.00315177
0.000330636
0.00315056
0.000266544
0.00315044
0.000201998
0.00315142
0.000137022
0.00315349
7.16386e-05
0.00315668
5.87747e-06
0.00316098
-6.02531e-05
0.00316639
-0.000126709
0.00317292
-0.00019347
0.00318058
-0.000260508
0.00318936
-0.000327793
-0.000395296
0.00319926
0.00309969
0.000650722
0.00309353
0.000588198
0.00308839
0.000525109
0.00308429
0.000461475
0.00308122
0.000397315
0.00307921
0.000332651
0.00307825
0.000267504
0.00307835
0.000201897
0.00307952
0.000135853
0.00308176
6.93963e-05
0.00308508
2.56147e-06
0.00308948
-6.46549e-05
0.00309497
-0.000132196
0.00310154
-0.000200045
0.00310921
-0.000268173
0.00311796
-0.000336549
-0.000405145
0.00312781
0.00302721
0.000657492
0.00302143
0.000593979
0.00301664
0.000529893
0.00301287
0.000465253
0.0030101
0.00040008
0.00300836
0.000334396
0.00300764
0.000268222
0.00300795
0.000201582
0.00300931
0.000134499
0.00301171
6.69974e-05
0.00301515
-8.80722e-07
0.00301965
-6.91537e-05
0.0030252
-0.000137748
0.00303181
-0.000206655
0.00303948
-0.000275842
0.00304821
-0.000345279
-0.000414934
0.003058
0.00295645
0.000663868
0.00295104
0.000599392
0.0029466
0.000534335
0.00294314
0.000468716
0.00294066
0.000402557
0.00293918
0.000335879
0.00293869
0.000268706
0.00293921
0.000201061
0.00294074
0.000132969
0.00294329
6.44538e-05
0.00294686
-4.45026e-06
0.00295144
-7.37384e-05
0.00295705
-0.00014336
0.00296369
-0.000213293
0.00297136
-0.000283509
0.00298005
-0.000353975
-0.000424659
0.00298978
0.00288738
0.00288232
0.000604447
0.00287821
0.000538444
0.00287506
0.000471872
0.00287286
0.000404753
0.00287163
0.00033711
0.00287137
0.000268965
0.00287209
0.000200343
0.00287379
0.000131269
0.00287647
6.17682e-05
0.00288015
-8.12865e-06
0.00288482
-7.84065e-05
0.00289048
-0.000149024
0.00289714
-0.000219954
0.0029048
-0.000291167
0.00291346
-0.000362631
-0.000434313
0.00292311
0.00281524
0.000609154
0.00281145
0.000542231
0.00280859
0.000474732
0.00280667
0.00040668
0.00280568
0.000338098
0.00280563
0.000269009
0.00280654
0.000199437
0.0028084
0.000129409
0.00281122
5.89504e-05
0.002815
-1.19093e-05
0.00281974
-8.31494e-05
0.00282545
-0.000154732
0.00283213
-0.00022663
0.00283977
-0.000298811
0.00284838
-0.000371242
-0.00044389
0.00285796
0.00274976
0.000613524
0.00274628
0.000545706
0.00274371
0.000477307
0.00274204
0.000408348
0.00274129
0.000338853
0.00274145
0.000268846
0.00274253
0.000198352
0.00274455
0.000127398
0.00274749
5.60091e-05
0.00275136
-1.57842e-05
0.00275617
-8.79585e-05
0.00276192
-0.000160478
0.0027686
-0.000233314
0.00277622
-0.000306433
0.00278478
-0.000379802
-0.000453386
0.00279428
0.00268584
0.000617568
0.00268267
0.000548881
0.00268037
0.000479606
0.00267895
0.000409767
0.00267842
0.000339385
0.00267878
0.000268487
0.00268003
0.000197098
0.00268218
0.000125244
0.00268524
5.29537e-05
0.0026892
-1.97454e-05
0.00269407
-9.2826e-05
0.00269984
-0.000166254
0.00270653
-0.000239998
0.00271412
-0.000314026
0.00272262
-0.000388303
-0.000462793
0.00273203
0.00262346
0.000621298
0.00262057
0.000551767
0.00261854
0.000481642
0.00261736
0.000410947
0.00261704
0.000339705
0.00261758
0.000267943
0.00261899
0.000195685
0.00262128
0.000122959
0.00262444
4.97931e-05
0.00262848
-2.37837e-05
0.00263339
-9.7743e-05
0.00263919
-0.000172051
0.00264587
-0.000246676
0.00265343
-0.000321584
0.00266186
-0.000396739
-0.000472106
0.00267118
0.00256257
0.000624727
0.00255996
0.000554376
0.00255818
0.000483426
0.00255722
0.000411901
0.0025571
0.000339824
0.00255782
0.000267223
0.00255939
0.000194123
0.00256179
0.000120551
0.00256505
4.65368e-05
0.00256916
-2.78905e-05
0.00257411
-0.000102701
0.00257993
-0.000177862
0.00258659
-0.000253339
0.0025941
-0.000329099
0.00260247
-0.000405105
-0.000481319
0.00261168
0.00250314
0.000627866
0.0025008
0.00055672
0.00249925
0.000484969
0.00249851
0.000412639
0.00249859
0.000339753
0.00249947
0.000266339
0.00250117
0.000192422
0.00250369
0.000118031
0.00250703
4.31944e-05
0.0025112
-3.20569e-05
0.00251619
-0.000107692
0.00252201
-0.000183678
0.00252865
-0.000259981
0.00253611
-0.000336565
0.0025444
-0.000413393
-0.000490427
0.00255351
0.00244514
0.000630728
0.00244305
0.000558811
0.00244173
0.000486285
0.0024412
0.000413174
0.00244145
0.000339504
0.00244248
0.000265301
0.00244431
0.000190593
0.00244694
0.000115408
0.00245036
3.97755e-05
0.00245457
-3.62737e-05
0.00245959
-0.000112708
0.0024654
-0.000189492
0.00247201
-0.000266593
0.00247942
-0.000343975
0.00248763
-0.000421598
-0.000499424
0.00249663
0.00238853
0.000633327
0.00238668
0.000560662
0.00238558
0.000487384
0.00238524
0.000413517
0.00238565
0.000339087
0.00238683
0.000264121
0.00238878
0.000188647
0.00239149
0.000112692
0.00239498
3.62896e-05
0.00239924
-4.0532e-05
0.00240427
-0.000117739
0.00241007
-0.000195297
0.00241665
-0.00027317
0.002424
-0.000351322
0.00243211
-0.000429714
-0.000508306
0.002441
0.00233328
0.00233166
0.000562287
0.00233076
0.000488281
0.0023306
0.000413682
0.00233117
0.000338516
0.00233248
0.00026281
0.00233453
0.000186593
0.00233733
0.000109895
0.00234087
3.2746e-05
0.00234516
-4.48232e-05
0.0023502
-0.000122778
0.00235599
-0.000201083
0.00236252
-0.000279704
0.0023698
-0.000358601
0.00237783
-0.000437736
-0.000517067
0.00238659
0.00227795
0.00227724
0.00227724
0.000413679
0.00227796
0.0003378
0.00227939
0.000261379
0.00228154
0.000184444
0.00228441
0.000107025
0.002288
2.91542e-05
0.00229232
-4.91385e-05
0.00229735
-0.000127817
0.00230312
-0.000206846
0.0023096
-0.000286188
0.00231681
-0.000365806
0.00232473
-0.000445659
-0.000525704
0.00233337
0.00222514
0.00222599
0.00222753
0.00025984
0.00222977
0.000182209
0.0022327
0.000104093
0.00223633
2.55232e-05
0.00224066
-5.34695e-05
0.00224569
-0.000132848
0.00225142
-0.000212576
0.00225785
-0.000292618
0.00226498
-0.000372932
0.0022728
-0.000453478
-0.000534213
0.00228131
0.00217687
0.00217918
0.00218217
0.00218583
2.18618e-05
0.00219017
-5.78086e-05
0.00219518
-0.000137864
0.00220088
-0.000218269
0.00220724
-0.000298986
0.00221429
-0.000379973
0.002222
-0.000461189
-0.00054259
0.00223037
0.00213647
0.00214081
0.0021458
0.00215145
0.00215775
-0.000305287
0.0021647
-0.000386925
0.0021723
-0.000468789
-0.000550832
0.00218054
0.00210934
0.0021162
0.00212368
0.00213179
0.00731988
-1.49087e-05
0.00733752
-1.76391e-05
0.0073579
-2.03765e-05
0.00738102
-2.31189e-05
0.00740688
-2.58656e-05
0.0074355
-2.86149e-05
0.00746686
-3.13658e-05
0.00750098
-3.41167e-05
0.00753784
-3.68665e-05
0.00757746
-3.96135e-05
0.00761981
-4.23566e-05
0.00766491
-4.50944e-05
0.00771273
-4.78253e-05
0.00776328
-5.05482e-05
0.00781654
-5.32614e-05
0.00787251
-5.59637e-05
0.00793116
-5.86535e-05
0.00799249
-6.13297e-05
0.00805648
-6.39904e-05
0.00812312
-6.66345e-05
0.00819238
-6.92607e-05
0.00826424
-7.18673e-05
0.0083387
-7.44531e-05
0.00841571
-7.70167e-05
0.00849527
-7.95566e-05
0.00857734
-8.20715e-05
0.0086619
-8.45601e-05
0.00874892
-8.70209e-05
0.00883838
-8.94526e-05
0.00893023
-9.18537e-05
0.00902445
-9.42231e-05
0.00912101
-9.65589e-05
0.00921987
-9.88599e-05
0.009321
-0.000101124
0.00942435
-0.00010335
-0.000105535
0.00715046
-2.95425e-05
0.00716776
-3.49391e-05
0.00718773
-4.03484e-05
0.00721038
-4.57683e-05
0.00723571
-5.1196e-05
0.00726373
-5.66291e-05
0.00729442
-6.20648e-05
0.00732781
-6.75007e-05
0.00736388
-7.29339e-05
0.00740262
-7.83621e-05
0.00744405
-8.3782e-05
0.00748815
-8.91912e-05
0.00753491
-9.45871e-05
0.00758433
-9.99667e-05
0.00763639
-0.000105327
0.00769109
-0.000110666
0.00774842
-0.00011598
0.00780836
-0.000121267
0.00787089
-0.000126524
0.00793601
-0.000131747
0.00800368
-0.000136936
0.0080739
-0.000142085
0.00814664
-0.000147193
0.00822188
-0.000152258
0.0082996
-0.000157275
0.00837977
-0.000162244
0.00846237
-0.00016716
0.00854737
-0.000172021
0.00863474
-0.000176825
0.00872446
-0.000181569
0.00881649
-0.00018625
0.00891079
-0.000190865
0.00900734
-0.000195411
0.0091061
-0.000199884
0.00920703
-0.000204282
-0.000208598
0.00698539
-4.393e-05
0.00700238
-5.1929e-05
0.00702198
-5.99472e-05
0.00704419
-6.79804e-05
0.00706902
-7.60252e-05
0.00709647
-8.40777e-05
0.00712654
-9.21339e-05
0.00715922
-0.00010019
0.00719453
-0.000108243
0.00723246
-0.000116287
0.00727299
-0.000124319
0.00731614
-0.000132335
0.00736188
-0.000140332
0.00741022
-0.000148303
0.00746114
-0.000156247
0.00751463
-0.000164158
0.00757069
-0.000172033
0.00762929
-0.000179867
0.00769042
-0.000187657
0.00775407
-0.000195397
0.00782022
-0.000203085
0.00788885
-0.000210715
0.00795994
-0.000218285
0.00803347
-0.000225789
0.00810942
-0.000233224
0.00818776
-0.000240586
0.00826847
-0.000247871
0.00835152
-0.000255074
0.00843689
-0.000262193
0.00852454
-0.000269222
0.00861445
-0.000276158
0.00870658
-0.000282997
0.00880091
-0.000289733
0.00889739
-0.000296362
0.00899598
-0.000302879
-0.000309276
0.00682449
-5.80953e-05
0.00684119
-6.86353e-05
0.00686044
-7.91998e-05
0.00688225
-8.97841e-05
0.00690661
-0.000100384
0.00693352
-0.000110993
0.00696299
-0.000121607
0.00699503
-0.00013222
0.00702961
-0.000142829
0.00706675
-0.000153427
0.00710644
-0.000164008
0.00714867
-0.000174568
0.00719344
-0.000185102
0.00724074
-0.000195604
0.00729057
-0.000206069
0.0073429
-0.00021649
0.00739773
-0.000226863
0.00745504
-0.000237183
0.00751483
-0.000247444
0.00757707
-0.00025764
0.00764176
-0.000267767
0.00770886
-0.000277818
0.00777836
-0.000287789
0.00785025
-0.000297674
0.00792449
-0.000307468
0.00800107
-0.000317165
0.00807996
-0.000326761
0.00816114
-0.00033625
0.00824457
-0.000345627
0.00833024
-0.000354887
0.0084181
-0.000364024
0.00850814
-0.000373032
0.00860031
-0.000381906
0.00869459
-0.000390639
0.00879093
-0.000399224
-0.000407651
0.0066676
-7.20592e-05
0.00668404
-8.50797e-05
0.00670298
-9.81304e-05
0.0067244
-0.000111205
0.00674831
-0.000124298
0.00677472
-0.000137403
0.00680363
-0.000150514
0.00683503
-0.000163624
0.00686893
-0.000176727
0.00690532
-0.000189817
0.0069442
-0.000202886
0.00698556
-0.00021593
0.0070294
-0.00022894
0.0070757
-0.000241911
0.00712447
-0.000254836
0.00717569
-0.000267707
0.00722934
-0.000280519
0.00728543
-0.000293265
0.00734392
-0.000305937
0.00740481
-0.000318531
0.00746808
-0.000331037
0.00753371
-0.000343451
0.00760169
-0.000355766
0.00767199
-0.000367974
0.00774459
-0.00038007
0.00781947
-0.000392047
0.00789661
-0.000403898
0.00797598
-0.000415618
0.00805755
-0.000427199
0.0081413
-0.000438635
0.00822719
-0.000449919
0.00831521
-0.000461046
0.00840531
-0.000472006
0.00849746
-0.000482792
0.00859163
-0.000493395
-0.000503803
0.00651459
-8.58394e-05
0.00653079
-0.000101282
0.00654942
-0.000116759
0.00657048
-0.000132265
0.00659398
-0.000147793
0.00661991
-0.000163334
0.00664828
-0.000178882
0.00667908
-0.000194429
0.00671232
-0.000209967
0.006748
-0.00022549
0.0067861
-0.000240988
0.00682662
-0.000256456
0.00686957
-0.000271884
0.00691492
-0.000287264
0.00696268
-0.00030259
0.00701282
-0.000317853
0.00706535
-0.000333045
0.00712024
-0.000348159
0.00717749
-0.000363186
0.00723708
-0.000378118
0.00729899
-0.000392948
0.00736321
-0.000407668
0.00742971
-0.00042227
0.00749848
-0.000436747
0.0075695
-0.000451089
0.00764275
-0.000465291
0.00771819
-0.000479344
0.00779582
-0.000493241
0.00787559
-0.000506973
0.00795749
-0.000520534
0.00804149
-0.000533915
0.00812755
-0.000547108
0.00821565
-0.000560104
0.00830575
-0.000572894
0.00839782
-0.000585466
-0.000597808
0.00636534
-9.94506e-05
0.00638131
-0.000117258
0.00639966
-0.000135105
0.00642038
-0.000152985
0.00644347
-0.000170889
0.00646895
-0.000188809
0.0064968
-0.000206736
0.00652704
-0.000224662
0.00655965
-0.000242578
0.00659463
-0.000260476
0.00663199
-0.000278345
0.00667171
-0.000296179
0.0067138
-0.000313967
0.00675823
-0.0003317
0.00680501
-0.000349371
0.00685413
-0.000366968
0.00690557
-0.000384484
0.00695932
-0.000401909
0.00701537
-0.000419234
0.0070737
-0.000436451
0.0071343
-0.000453549
0.00719715
-0.00047052
0.00726224
-0.000487356
0.00732954
-0.000504046
0.00739903
-0.000520583
0.0074707
-0.000536957
0.00754451
-0.000553159
0.00762045
-0.000569181
0.00769849
-0.000585013
0.0077786
-0.000600648
0.00786076
-0.000616075
0.00794494
-0.000631285
0.00803111
-0.000646268
0.00811922
-0.000661013
0.00820927
-0.000675508
-0.000689736
0.00621971
-0.000112906
0.00623548
-0.000133022
0.00625356
-0.000153184
0.00627395
-0.000173381
0.00629667
-0.000193606
0.00632171
-0.000213849
0.00634907
-0.000234099
0.00637876
-0.000254348
0.00641077
-0.000274585
0.00644509
-0.000294801
0.00648173
-0.000314986
0.00652068
-0.00033513
0.00656194
-0.000355222
0.00660549
-0.000375253
0.00665133
-0.000395212
0.00669946
-0.000415089
0.00674985
-0.000434874
0.00680249
-0.000454557
0.00685739
-0.000474126
0.00691451
-0.000493573
0.00697384
-0.000512886
0.00703538
-0.000532056
0.0070991
-0.000551072
0.00716497
-0.000569924
0.00723299
-0.000588602
0.00730313
-0.000607097
0.00737537
-0.000625398
0.00744969
-0.000643494
0.00752605
-0.000661377
0.00760444
-0.000679036
0.00768482
-0.00069646
0.00776718
-0.000713639
0.00785147
-0.000730561
0.00793767
-0.000747214
0.00802575
-0.000763584
-0.000779653
0.00607762
-0.000126217
0.00609319
-0.000148588
0.00611101
-0.000171009
0.0061311
-0.00019347
0.00615345
-0.000215961
0.00617808
-0.000238471
0.00620497
-0.000260991
0.00623413
-0.000283508
0.00626556
-0.000306012
0.00629925
-0.000328492
0.0063352
-0.000350938
0.00637341
-0.000373338
0.00641386
-0.000395681
0.00645657
-0.000417955
0.0065015
-0.000440149
0.00654866
-0.000462252
0.00659804
-0.000484253
0.00664963
-0.00050614
0.0067034
-0.000527901
0.00675935
-0.000549525
0.00681747
-0.000571001
0.00687773
-0.000592318
0.00694012
-0.000613464
0.00700463
-0.000634427
0.00707122
-0.000655197
0.00713989
-0.000675762
0.0072106
-0.000696112
0.00728334
-0.000716234
0.00735808
-0.000736118
0.0074348
-0.000755753
0.00751346
-0.000775126
0.00759405
-0.000794226
0.00767653
-0.00081304
0.00776087
-0.000831555
0.00784704
-0.000849753
-0.000867617
0.00593895
-0.000139393
0.00595433
-0.000163966
0.00597191
-0.000188594
0.00599171
-0.000213266
0.00601372
-0.00023797
0.00603794
-0.000262695
0.00606438
-0.000287429
0.00609303
-0.000312161
0.0061239
-0.00033688
0.00615698
-0.000361571
0.00619227
-0.000386225
0.00622976
-0.000410828
0.00626944
-0.000435369
0.00631132
-0.000459834
0.00635539
-0.000484211
0.00640162
-0.000508489
0.00645002
-0.000532654
0.00650058
-0.000556693
0.00655327
-0.000580595
0.00660809
-0.000604347
0.00666503
-0.000627936
0.00672406
-0.000651349
0.00678517
-0.000674575
0.00684834
-0.0006976
0.00691356
-0.000720412
0.00698079
-0.000742999
0.00705003
-0.000765349
0.00712125
-0.000787449
0.00719441
-0.000809287
0.00726951
-0.00083085
0.00734651
-0.000852125
0.00742538
-0.0008731
0.0075061
-0.000893759
0.00758864
-0.000914088
0.00767295
-0.00093407
-0.000953683
0.00580361
-0.000152443
0.00581881
-0.000179166
0.00583616
-0.00020595
0.00585568
-0.00023278
0.00587735
-0.000259645
0.00590119
-0.000286534
0.00592719
-0.000313432
0.00595536
-0.000340328
0.00598569
-0.000367208
0.00601818
-0.00039406
0.00605282
-0.00042087
0.00608962
-0.000447626