/*--------------------------------*- C++ -*----------------------------------*\
  =========                 |
  \\      /  F ield         | OpenFOAM: The Open Source CFD Toolbox
   \\    /   O peration     | Website:  https://openfoam.org
    \\  /    A nd           | Version:  7
     \\/     M anipulation  |
\*---------------------------------------------------------------------------*/
FoamFile
{
    version     2.0;
    format      ascii;
    class       volVectorField;
    location    "10";
    object      U;
}
// * * * * * * * * * * * * * * * * * * * * * * * * * * * * * * * * * * * * * //

dimensions      [0 1 -1 0 0 0 0];

internalField   nonuniform List<vector> 
2625
(
(1.14887 -0.00209093 2.42873e-22)
(1.15117 -0.00208259 2.15617e-22)
(1.15347 -0.00207406 -5.10137e-22)
(1.15577 -0.00206534 -1.18788e-22)
(1.15807 -0.00205643 -2.75055e-23)
(1.16038 -0.00204734 2.71851e-22)
(1.16268 -0.00203805 1.88276e-22)
(1.16498 -0.00202856 -1.70797e-22)
(1.16728 -0.00201887 2.08959e-22)
(1.16958 -0.00200897 -1.63139e-22)
(1.17186 -0.00199886 -6.63518e-23)
(1.17415 -0.00198854 7.36044e-24)
(1.17642 -0.00197798 9.21025e-24)
(1.17869 -0.00196714 -4.33251e-23)
(1.18094 -0.00195604 5.46387e-23)
(1.18319 -0.00194469 -3.99074e-23)
(1.18542 -0.00193309 1.42377e-23)
(1.18764 -0.00192122 3.62473e-24)
(1.14886 -0.0062613 4.94568e-22)
(1.15116 -0.00623425 -2.55807e-22)
(1.15347 -0.00620652 -3.95137e-23)
(1.15578 -0.00617812 -1.67453e-22)
(1.15809 -0.00614905 3.84974e-22)
(1.1604 -0.00611931 -5.54698e-22)
(1.1627 -0.00608891 -8.35201e-23)
(1.16501 -0.00605786 3.56239e-22)
(1.16732 -0.00602614 -3.53662e-22)
(1.16961 -0.00599377 2.66911e-22)
(1.17191 -0.00596074 7.6316e-23)
(1.1742 -0.00592704 6.51914e-23)
(1.17648 -0.00589266 -1.08775e-23)
(1.17875 -0.00585756 -6.3632e-23)
(1.18101 -0.00582174 3.49134e-23)
(1.18326 -0.00578521 -3.49978e-23)
(1.1855 -0.00574797 2.26002e-23)
(1.18772 -0.00570999 -1.72952e-24)
(1.14884 -0.0103381 6.61006e-22)
(1.15115 -0.0102924 -9.1828e-22)
(1.15347 -0.0102455 5.81691e-22)
(1.15579 -0.0101975 -4.43703e-22)
(1.15811 -0.0101484 4.69254e-22)
(1.16043 -0.0100981 -5.48579e-22)
(1.16275 -0.0100468 -2.37336e-22)
(1.16506 -0.00999441 -5.2164e-23)
(1.16738 -0.00994092 4.69761e-24)
(1.16969 -0.00988635 -3.51473e-23)
(1.17199 -0.00983068 2.80757e-23)
(1.17429 -0.00977392 2.91597e-23)
(1.17658 -0.00971606 1.50165e-22)
(1.17886 -0.00965709 -9.31792e-23)
(1.18113 -0.009597 -2.0288e-23)
(1.18339 -0.00953577 3.69926e-23)
(1.18563 -0.00947336 -1.19956e-23)
(1.18787 -0.00940977 7.96001e-24)
(1.14882 -0.0143352 -1.01079e-22)
(1.15114 -0.0142707 6.23935e-22)
(1.15347 -0.0142046 3.17982e-22)
(1.1558 -0.014137 1.7439e-22)
(1.15813 -0.0140677 -7.17939e-22)
(1.16047 -0.013997 7.53752e-22)
(1.1628 -0.0139247 -4.35654e-22)
(1.16513 -0.0138509 -1.28091e-22)
(1.16746 -0.0137756 2.81271e-22)
(1.16978 -0.0136988 4.71683e-23)
(1.1721 -0.0136205 9.46828e-23)
(1.17441 -0.0135408 -2.44459e-22)
(1.17672 -0.0134595 3.52408e-23)
(1.17901 -0.0133767 -3.52966e-23)
(1.18129 -0.0132923 -5.53543e-23)
(1.18357 -0.0132064 -1.53298e-24)
(1.18583 -0.013119 9.18924e-24)
(1.18807 -0.0130299 -4.77154e-24)
(1.14878 -0.0182605 -3.15936e-22)
(1.15113 -0.0181774 1.06541e-21)
(1.15347 -0.0180921 2.38997e-22)
(1.15582 -0.0180048 5.91971e-22)
(1.15817 -0.0179155 -3.52145e-22)
(1.16052 -0.0178242 1.26408e-21)
(1.16287 -0.0177309 -5.44403e-22)
(1.16522 -0.0176357 1.2541e-22)
(1.16756 -0.0175386 -1.44299e-22)
(1.16991 -0.0174396 -4.09362e-23)
(1.17224 -0.0173386 1.80361e-23)
(1.17457 -0.0172358 6.65265e-24)
(1.17689 -0.017131 8.13251e-23)
(1.1792 -0.0170244 5.64598e-24)
(1.1815 -0.0169157 2.65395e-23)
(1.18379 -0.0168052 9.57473e-24)
(1.18606 -0.0166926 6.57446e-24)
(1.18833 -0.016578 -2.25813e-24)
(1.14875 -0.0221194 8.31087e-22)
(1.15111 -0.0220178 -1.65013e-21)
(1.15347 -0.0219136 -2.54732e-22)
(1.15584 -0.0218068 -1.97293e-22)
(1.15821 -0.0216975 7.39651e-22)
(1.16058 -0.0215858 -9.44037e-22)
(1.16295 -0.0214716 5.27416e-22)
(1.16532 -0.0213551 2.35608e-22)
(1.16769 -0.0212362 2.97752e-23)
(1.17005 -0.0211149 -8.17096e-23)
(1.1724 -0.0209914 -5.33047e-23)
(1.17475 -0.0208654 -7.53691e-23)
(1.17709 -0.0207372 -4.54984e-23)
(1.17942 -0.0206066 5.28492e-23)
(1.18174 -0.0204737 -1.71462e-23)
(1.18405 -0.0203384 7.21093e-24)
(1.18634 -0.0202007 4.02026e-24)
(1.18863 -0.0200605 3.21434e-24)
(1.15109 -0.0257972 5.35979e-23)
(1.15348 -0.0256742 1.28525e-22)
(1.15587 -0.0255482 -1.15724e-21)
(1.15826 -0.0254191 8.56031e-22)
(1.16066 -0.0252871 -4.83991e-22)
(1.16305 -0.0251522 -1.76821e-22)
(1.16544 -0.0250144 -2.46273e-22)
(1.16783 -0.0248738 1.66938e-22)
(1.17021 -0.0247304 -3.99642e-23)
(1.17259 -0.0245842 2.13336e-22)
(1.17496 -0.0244353 4.53972e-23)
(1.17732 -0.0242835 -1.04954e-22)
(1.17967 -0.0241291 -1.18621e-23)
(1.18202 -0.0239718 -3.40337e-24)
(1.18435 -0.0238117 -2.84446e-23)
(1.18666 -0.0236488 -6.6042e-24)
(1.18897 -0.0234831 5.76809e-24)
(1.15107 -0.02952 3.47597e-22)
(1.15349 -0.0293785 -4.63857e-22)
(1.1559 -0.0292335 -2.68118e-22)
(1.15832 -0.0290848 8.96196e-23)
(1.16074 -0.0289327 -5.90321e-22)
(1.16315 -0.0287772 -3.25416e-22)
(1.16557 -0.0286184 -6.71782e-22)
(1.16798 -0.0284562 -8.22884e-23)
(1.17039 -0.0282907 1.4699e-22)
(1.17279 -0.028122 5.0561e-23)
(1.17519 -0.02795 -2.0128e-22)
(1.17758 -0.0277749 1.35926e-22)
(1.17996 -0.0275965 -2.72781e-23)
(1.18232 -0.0274149 -9.27878e-23)
(1.18468 -0.02723 3.66034e-23)
(1.18702 -0.0270419 1.32812e-23)
(1.18935 -0.0268505 4.27581e-25)
(1.15106 -0.0331901 2.70357e-22)
(1.15349 -0.0330305 7.29954e-23)
(1.15594 -0.0328667 6.61348e-22)
(1.15838 -0.0326988 -3.60998e-22)
(1.16083 -0.0325268 8.10035e-22)
(1.16327 -0.0323509 3.10579e-22)
(1.16571 -0.0321711 8.66861e-22)
(1.16815 -0.0319874 6.8979e-23)
(1.17059 -0.0318 -6.6983e-23)
(1.17302 -0.0316088 -1.0731e-22)
(1.17544 -0.031414 6.64006e-23)
(1.17786 -0.0312154 -1.11386e-22)
(1.18026 -0.0310131 9.44634e-23)
(1.18266 -0.0308072 2.62386e-23)
(1.18504 -0.0305975 2.37176e-23)
(1.18741 -0.0303842 -1.58908e-23)
(1.18976 -0.030167 -5.03375e-24)
(1.15104 -0.0368112 8.15732e-23)
(1.1535 -0.0366338 2.07929e-22)
(1.15598 -0.0364515 5.32784e-23)
(1.15845 -0.0362645 9.71384e-22)
(1.16092 -0.0360729 -3.64857e-22)
(1.1634 -0.0358768 -1.76175e-22)
(1.16587 -0.0356762 3.16367e-22)
(1.16834 -0.0354712 -5.05488e-22)
(1.1708 -0.035262 4.99298e-22)
(1.17326 -0.0350484 -2.57138e-22)
(1.17571 -0.0348307 2.18804e-23)
(1.17816 -0.0346087 1.40606e-22)
(1.18059 -0.0343826 6.78435e-24)
(1.18302 -0.0341523 -3.45527e-23)
(1.18543 -0.0339179 1.35232e-23)
(1.18782 -0.0336792 2.54847e-24)
(1.19021 -0.0334363 6.63684e-24)
(1.15102 -0.0403865 -2.74443e-21)
(1.15352 -0.0401915 4.28907e-22)
(1.15602 -0.0399911 -3.34086e-22)
(1.15852 -0.0397853 -1.0113e-21)
(1.16103 -0.0395743 1.79623e-22)
(1.16353 -0.0393581 5.20702e-22)
(1.16603 -0.0391369 6.37431e-23)
(1.16853 -0.0389108 -1.38415e-22)
(1.17103 -0.0386798 3.81569e-24)
(1.17352 -0.038444 -3.23796e-22)
(1.17601 -0.0382035 -4.62589e-23)
(1.17848 -0.0379582 -2.26811e-22)
(1.18095 -0.0377082 3.3256e-23)
(1.1834 -0.0374536 7.75323e-24)
(1.18584 -0.0371943 -4.80984e-23)
(1.18827 -0.0369303 -2.49481e-24)
(1.19068 -0.0366616 1.71902e-24)
(1.151 -0.0439188 1.27441e-22)
(1.15353 -0.0437066 -8.2392e-23)
(1.15606 -0.0434883 3.49984e-22)
(1.1586 -0.043264 4.6714e-22)
(1.16114 -0.0430338 2.57366e-22)
(1.16367 -0.0427978 2.58193e-22)
(1.16621 -0.0425562 -5.25263e-22)
(1.16874 -0.0423091 1.42814e-22)
(1.17127 -0.0420565 -3.08159e-23)
(1.1738 -0.0417985 -1.00586e-23)
(1.17631 -0.0415352 6.04996e-23)
(1.17882 -0.0412667 8.15779e-24)
(1.18132 -0.0409929 -8.68232e-24)
(1.18381 -0.040714 8.18307e-23)
(1.18628 -0.0404298 4.10459e-23)
(1.18874 -0.0401405 3.35058e-25)
(1.19119 -0.0398459 -1.05479e-23)
(1.15097 -0.0474109 1.58853e-21)
(1.15354 -0.0471818 -2.15934e-24)
(1.15611 -0.0469458 4.51205e-22)
(1.15868 -0.0467032 -2.09755e-22)
(1.16125 -0.0464541 -1.39576e-22)
(1.16382 -0.0461986 -6.79339e-22)
(1.1664 -0.0459367 -5.27542e-22)
(1.16896 -0.0456687 5.59562e-22)
(1.17153 -0.0453947 -1.98572e-23)
(1.17409 -0.0451146 2.50651e-22)
(1.17664 -0.0448286 1.16646e-22)
(1.17918 -0.0445368 5.02864e-24)
(1.18172 -0.0442393 1.24594e-22)
(1.18424 -0.043936 -7.4835e-23)
(1.18675 -0.043627 1.82925e-23)
(1.18924 -0.0433123 -3.10719e-25)
(1.19172 -0.0429917 -3.75209e-24)
(1.15095 -0.050865 -2.3463e-22)
(1.15355 -0.0506193 -1.35769e-21)
(1.15615 -0.0503661 -9.25985e-22)
(1.15876 -0.0501055 1.02996e-23)
(1.16137 -0.0498376 -9.38425e-22)
(1.16398 -0.0495627 7.20881e-22)
(1.16659 -0.0492808 1.59409e-22)
(1.16919 -0.0489921 2.74958e-22)
(1.1718 -0.0486967 4.75956e-22)
(1.17439 -0.0483946 -4.27476e-22)
(1.17698 -0.0480861 1.46352e-22)
(1.17956 -0.047771 3.88885e-23)
(1.18213 -0.0474498 -1.25598e-22)
(1.18469 -0.0471222 6.34192e-24)
(1.18724 -0.0467883 -7.03483e-23)
(1.18977 -0.0464481 -5.98354e-24)
(1.19228 -0.0461016 5.34915e-25)
(1.15092 -0.0542835 -6.84979e-22)
(1.15355 -0.0540216 1.99145e-21)
(1.1562 -0.0537513 3.87431e-22)
(1.15884 -0.0534729 -1.22541e-22)
(1.16149 -0.0531866 9.75065e-22)
(1.16414 -0.0528925 -4.13195e-22)
(1.16679 -0.0525907 -2.79497e-22)
(1.16943 -0.0522815 -5.21766e-23)
(1.17207 -0.0519648 4.83043e-23)
(1.17471 -0.0516409 2.93071e-22)
(1.17733 -0.0513096 -2.3095e-22)
(1.17995 -0.0509712 -2.01841e-22)
(1.18256 -0.0506264 -4.62481e-24)
(1.18516 -0.0502747 1.31531e-23)
(1.18774 -0.0499159 3.89588e-23)
(1.19031 -0.0495502 -1.53539e-23)
(1.19287 -0.0491776 -1.66031e-24)
(1.15088 -0.0576684 6.55964e-23)
(1.15356 -0.0573905 -7.4675e-22)
(1.15624 -0.0571035 1.42836e-21)
(1.15893 -0.0568076 6.17833e-22)
(1.16162 -0.056503 -6.07558e-22)
(1.16431 -0.0561899 4.9044e-22)
(1.16699 -0.0558684 -1.60663e-22)
(1.16968 -0.0555388 7.24188e-23)
(1.17236 -0.0552011 -4.78793e-22)
(1.17503 -0.0548554 -2.56335e-23)
(1.1777 -0.0545015 1.97541e-22)
(1.18036 -0.0541395 2.3015e-22)
(1.18301 -0.0537715 3.31903e-23)
(1.18565 -0.0533955 4.81999e-23)
(1.18827 -0.0530118 -5.6369e-24)
(1.19088 -0.0526205 9.71389e-24)
(1.19348 -0.0522217 2.35022e-24)
(1.15084 -0.0610214 5.58969e-22)
(1.15356 -0.0607278 -1.85018e-21)
(1.15628 -0.0604244 -4.41486e-22)
(1.15901 -0.0601113 4.67208e-22)
(1.16174 -0.0597887 2.51857e-22)
(1.16448 -0.0594568 2.22114e-22)
(1.16721 -0.0591159 -5.86641e-22)
(1.16993 -0.058766 -3.65335e-22)
(1.17266 -0.0584075 4.26228e-22)
(1.17537 -0.0580404 1.70814e-23)
(1.17808 -0.0576654 -6.58167e-23)
(1.18078 -0.0572827 -4.64736e-23)
(1.18347 -0.0568888 -9.35381e-23)
(1.18615 -0.0564872 -5.18272e-24)
(1.18882 -0.0560781 4.00484e-23)
(1.19147 -0.055661 1.80016e-23)
(1.19411 -0.0552359 -5.88901e-25)
(1.15079 -0.0643442 8.79654e-22)
(1.15355 -0.0640353 2.0741e-22)
(1.15632 -0.0637157 1.24334e-23)
(1.1591 -0.0633857 -8.71288e-22)
(1.16187 -0.0630453 -4.6908e-22)
(1.16465 -0.0626949 3.2643e-22)
(1.16742 -0.0623346 1.09685e-21)
(1.17019 -0.0619646 -1.42201e-22)
(1.17296 -0.0615852 -3.15641e-22)
(1.17572 -0.0611966 -1.37231e-22)
(1.17847 -0.0607993 4.49454e-24)
(1.18122 -0.0603936 1.10892e-22)
(1.18396 -0.059976 1.38553e-22)
(1.18668 -0.0595501 -7.72433e-23)
(1.18939 -0.0591159 -1.59034e-23)
(1.19208 -0.0586731 -8.95411e-24)
(1.19476 -0.0582217 3.55568e-25)
(1.15073 -0.0676383 -1.67676e-21)
(1.15354 -0.0673145 1.48391e-21)
(1.15636 -0.0669791 -1.01415e-21)
(1.15918 -0.0666324 1.60347e-21)
(1.162 -0.0662745 -2.48396e-22)
(1.16482 -0.0659057 -3.38268e-22)
(1.16764 -0.0655262 -7.15099e-22)
(1.17046 -0.0651363 6.54975e-22)
(1.17327 -0.0647361 -2.01566e-22)
(1.17608 -0.0643256 1.6294e-22)
(1.17888 -0.063905 -1.4695e-22)
(1.18167 -0.0634739 -1.91558e-23)
(1.18445 -0.0630349 -1.10485e-22)
(1.18722 -0.0625859 -7.15628e-24)
(1.18997 -0.062127 -1.92432e-24)
(1.19271 -0.0616585 1.04653e-24)
(1.19544 -0.0611806 -4.12949e-25)
(1.15067 -0.0709052 3.00977e-22)
(1.15353 -0.0705668 -1.7592e-21)
(1.15639 -0.0702159 4.96641e-22)
(1.15926 -0.0698528 -7.0219e-22)
(1.16213 -0.0694777 -9.38618e-22)
(1.165 -0.0690908 1.43157e-21)
(1.16786 -0.0686924 -2.92453e-22)
(1.17073 -0.0682827 5.51918e-22)
(1.17359 -0.0678619 1.25579e-22)
(1.17644 -0.0674301 -1.85218e-22)
(1.17929 -0.0669874 4.46107e-22)
(1.18213 -0.066534 -1.97254e-22)
(1.18496 -0.0660708 -2.50197e-23)
(1.18777 -0.0655972 5.89058e-24)
(1.19057 -0.0651131 -1.53006e-23)
(1.19336 -0.0646188 -1.66995e-24)
(1.19613 -0.0641143 -1.36868e-24)
(1.1506 -0.0741462 1.29544e-21)
(1.15351 -0.0737936 1.95625e-21)
(1.15642 -0.0734276 9.85133e-23)
(1.15933 -0.0730484 3.16049e-23)
(1.16225 -0.0726563 1.72183e-22)
(1.16517 -0.0722516 -1.78137e-21)
(1.16809 -0.0718345 4.21692e-22)
(1.171 -0.0714052 -6.79002e-22)
(1.17391 -0.070964 -3.74295e-22)
(1.17682 -0.070511 1.90914e-22)
(1.17971 -0.0700464 -5.091e-22)
(1.1826 -0.0695704 5.92231e-23)
(1.18548 -0.0690833 -3.006e-23)
(1.18834 -0.0685851 -4.57755e-23)
(1.19119 -0.0680757 2.61406e-23)
(1.19403 -0.0675553 1.00963e-24)
(1.19685 -0.067024 2.09346e-24)
(1.15052 -0.0773623 4.87094e-22)
(1.15348 -0.076996 -5.09238e-22)
(1.15644 -0.0766152 1.27439e-21)
(1.15941 -0.0762203 -4.98585e-22)
(1.16238 -0.0758116 3.81411e-22)
(1.16535 -0.0753894 1.92705e-21)
(1.16832 -0.0749538 -5.19186e-22)
(1.17128 -0.0745052 -1.53684e-22)
(1.17424 -0.0740437 -1.14808e-23)
(1.1772 -0.0735697 2.38234e-22)
(1.18015 -0.0730831 2.75083e-22)
(1.18308 -0.0725843 1.63824e-22)
(1.18601 -0.0720735 1.59145e-22)
(1.18893 -0.0715507 3.94376e-23)
(1.19183 -0.071016 -1.95769e-23)
(1.19472 -0.0704694 -2.97476e-25)
(1.19759 -0.0699109 3.31706e-24)
(1.15043 -0.0805549 -1.34966e-21)
(1.15344 -0.0801752 -1.29561e-21)
(1.15646 -0.0797801 -2.55888e-21)
(1.15948 -0.0793699 5.84618e-22)
(1.1625 -0.0789449 -4.55346e-22)
(1.16553 -0.0785054 -1.42591e-22)
(1.16855 -0.0780516 1.165e-21)
(1.17157 -0.0775839 4.72544e-22)
(1.17458 -0.0771024 1.11461e-22)
(1.17759 -0.0766073 -9.83564e-23)
(1.18059 -0.0760989 2.49647e-22)
(1.18358 -0.0755773 -1.45703e-22)
(1.18656 -0.0750428 1.30677e-22)
(1.18953 -0.0744954 6.34793e-25)
(1.19248 -0.0739351 1.4736e-23)
(1.19542 -0.0733621 6.32181e-25)
(1.19835 -0.0727763 -4.56501e-24)
(1.15033 -0.0837248 3.67941e-21)
(1.1534 -0.0833322 2.28829e-21)
(1.15647 -0.0829232 9.3292e-22)
(1.15955 -0.0824982 -2.35772e-22)
(1.16263 -0.0820572 -6.91062e-22)
(1.1657 -0.0816008 -8.25565e-23)
(1.16878 -0.0811292 -1.52571e-21)
(1.17185 -0.0806425 -5.68518e-22)
(1.17492 -0.0801411 5.68281e-22)
(1.17799 -0.0796252 3.76432e-23)
(1.18104 -0.079095 -5.56805e-23)
(1.18409 -0.0785506 1.56066e-22)
(1.18712 -0.0779923 -1.21777e-22)
(1.19015 -0.0774202 -2.43815e-23)
(1.19315 -0.0768342 -1.11708e-23)
(1.19615 -0.0762345 -1.2574e-23)
(1.19912 -0.0756211 1.50588e-23)
(1.15022 -0.0868731 -2.31988e-21)
(1.15335 -0.0864682 -2.89551e-21)
(1.15648 -0.0860458 6.09213e-22)
(1.15961 -0.0856063 1.11538e-21)
(1.16275 -0.0851498 -1.85058e-22)
(1.16588 -0.0846768 -7.70401e-22)
(1.16902 -0.0841875 6.33303e-22)
(1.17215 -0.0836822 6.39653e-22)
(1.17527 -0.0831611 -9.3804e-22)
(1.17839 -0.0826245 2.16371e-22)
(1.1815 -0.0820725 -1.58455e-22)
(1.18461 -0.0815054 -2.79944e-22)
(1.1877 -0.0809233 -1.72812e-23)
(1.19078 -0.0803262 2.54141e-24)
(1.19384 -0.0797143 -1.54464e-24)
(1.19689 -0.0790877 1.28076e-23)
(1.19992 -0.0784462 9.83235e-25)
(1.15011 -0.0900008 -2.17057e-21)
(1.15329 -0.0895842 1.87477e-22)
(1.15648 -0.0891489 -1.91292e-21)
(1.15967 -0.0886953 8.14378e-23)
(1.16287 -0.0882237 -9.40268e-23)
(1.16606 -0.0877345 -2.25135e-22)
(1.16925 -0.0872279 -6.66647e-22)
(1.17244 -0.0867041 3.26438e-22)
(1.17563 -0.0861635 1.36582e-21)
(1.17881 -0.0856063 -1.13143e-23)
(1.18198 -0.0850326 -2.40027e-23)
(1.18514 -0.0844426 4.35115e-23)
(1.18829 -0.0838365 -1.81118e-23)
(1.19142 -0.0832144 -4.11494e-23)
(1.19455 -0.0825764 -5.56626e-24)
(1.19765 -0.0819223 -4.11941e-25)
(1.20074 -0.0812523 7.36334e-24)
(1.14998 -0.0931088 1.36036e-21)
(1.15323 -0.092681 -1.71951e-21)
(1.15648 -0.0922334 3.04337e-21)
(1.15973 -0.0917662 -6.83226e-22)
(1.16299 -0.09128 6.89073e-22)
(1.16624 -0.0907749 3.98656e-22)
(1.16949 -0.0902512 1.11885e-21)
(1.17274 -0.0897093 -6.64577e-22)
(1.17599 -0.0891494 -1.28755e-21)
(1.17923 -0.0885716 -8.55313e-22)
(1.18246 -0.0879762 1.23772e-22)
(1.18568 -0.0873633 -1.42135e-22)
(1.18889 -0.0867331 2.28986e-25)
(1.19209 -0.0860857 4.44111e-23)
(1.19527 -0.0854211 1.51307e-23)
(1.19844 -0.0847392 -3.00543e-24)
(1.20158 -0.0840402 -2.29321e-23)
(1.14985 -0.0961981 7.60892e-22)
(1.15316 -0.0957597 3.79999e-22)
(1.15647 -0.0953003 -2.79629e-21)
(1.15979 -0.0948202 2.15875e-22)
(1.1631 -0.0943197 1.27249e-21)
(1.16642 -0.0937991 -4.9182e-22)
(1.16974 -0.0932587 -1.35228e-22)
(1.17305 -0.0926988 4.36215e-22)
(1.17636 -0.0921197 1.48804e-21)
(1.17966 -0.0915214 -3.71374e-23)
(1.18296 -0.0909043 -1.14907e-23)
(1.18624 -0.0902684 2.51701e-22)
(1.18951 -0.0896139 -1.46879e-23)
(1.19277 -0.0889408 -1.09753e-23)
(1.19601 -0.0882492 -4.69871e-24)
(1.19924 -0.0875391 2.01366e-24)
(1.20244 -0.0868103 -1.71905e-23)
(1.14971 -0.0992695 1.30312e-21)
(1.15308 -0.0988212 5.7444e-21)
(1.15646 -0.0983506 5.66367e-22)
(1.15984 -0.097858 -1.16027e-21)
(1.16322 -0.0973437 -1.24017e-21)
(1.16661 -0.0968081 -8.97089e-23)
(1.16999 -0.0962513 -6.71266e-22)
(1.17337 -0.0956736 -1.60688e-22)
(1.17674 -0.0950754 -7.0943e-22)
(1.18011 -0.0944567 -1.13447e-22)
(1.18346 -0.0938177 -4.3689e-24)
(1.18681 -0.0931586 2.85789e-23)
(1.19015 -0.0924795 1.03489e-22)
(1.19347 -0.0917804 1.58002e-24)
(1.19677 -0.0910613 -2.98202e-23)
(1.20006 -0.0903223 2.23763e-23)
(1.20333 -0.0895631 2.39385e-23)
(1.14956 -0.102324 -3.6289e-21)
(1.153 -0.101867 -3.22413e-21)
(1.15645 -0.101385 -9.23266e-22)
(1.15989 -0.100881 1.52799e-21)
(1.16334 -0.100353 -1.47373e-22)
(1.16679 -0.0998028 -4.42807e-22)
(1.17024 -0.0992299 -5.88869e-22)
(1.17369 -0.0986347 -2.74433e-22)
(1.17713 -0.0980174 9.69716e-23)
(1.18056 -0.0973782 5.32315e-22)
(1.18398 -0.0967173 3.4585e-23)
(1.1874 -0.0960348 -8.25707e-23)
(1.1908 -0.0953307 -1.19499e-23)
(1.19418 -0.0946051 3.31401e-24)
(1.19755 -0.0938579 3.85685e-23)
(1.2009 -0.0930892 -4.04929e-23)
(1.20423 -0.0922987 -1.56138e-23)
(1.14941 -0.105363 5.30501e-21)
(1.15292 -0.104897 3.54719e-21)
(1.15643 -0.104406 1.07914e-21)
(1.15995 -0.10389 1.5896e-22)
(1.16347 -0.103349 -6.43198e-22)
(1.16699 -0.102784 6.65948e-22)
(1.1705 -0.102195 9.91484e-22)
(1.17402 -0.101583 5.86495e-22)
(1.17753 -0.100947 4.17227e-24)
(1.18103 -0.100287 -2.68632e-22)
(1.18452 -0.0996037 -3.26304e-23)
(1.188 -0.0988974 -7.54013e-24)
(1.19147 -0.0981679 -3.29914e-23)
(1.19492 -0.0974152 2.81111e-23)
(1.19835 -0.0966393 -3.10254e-24)
(1.20177 -0.0958401 5.09756e-24)
(1.20516 -0.0950174 3.07495e-23)
(1.14925 -0.108386 1.5811e-22)
(1.15283 -0.107912 -8.82712e-22)
(1.15641 -0.107412 2.40434e-21)
(1.16 -0.106885 8.27732e-22)
(1.16359 -0.106332 -2.78421e-22)
(1.16718 -0.105753 -2.52955e-22)
(1.17077 -0.105149 7.48837e-23)
(1.17436 -0.104519 -2.41947e-22)
(1.17794 -0.103864 3.00351e-22)
(1.18151 -0.103183 -1.99939e-22)
(1.18507 -0.102478 1.63244e-22)
(1.18862 -0.101747 -8.91787e-23)
(1.19215 -0.100992 8.58004e-24)
(1.19567 -0.100211 -1.19855e-23)
(1.19917 -0.0994056 5.50036e-23)
(1.20265 -0.098575 -9.06394e-24)
(1.20611 -0.097719 -6.45065e-23)
(1.14908 -0.111396 -2.4068e-21)
(1.15274 -0.110915 -2.29861e-21)
(1.1564 -0.110406 -1.07643e-21)
(1.16006 -0.109869 -3.16326e-21)
(1.16372 -0.109304 1.0135e-22)
(1.16739 -0.108711 4.25014e-22)
(1.17105 -0.108091 -3.33155e-22)
(1.17471 -0.107443 -4.59912e-25)
(1.17836 -0.106769 1.8731e-22)
(1.182 -0.106068 1.82291e-22)
(1.18563 -0.105339 -1.87261e-22)
(1.18925 -0.104584 3.87517e-23)
(1.19286 -0.103802 -2.16457e-24)
(1.19644 -0.102993 -1.01479e-22)
(1.20001 -0.102157 -4.46721e-23)
(1.20356 -0.101294 6.52042e-23)
(1.20708 -0.100403 1.88165e-23)
(1.14892 -0.114392 2.94006e-21)
(1.15265 -0.113905 -1.81738e-21)
(1.15638 -0.113388 2.14633e-21)
(1.16012 -0.112841 4.07894e-21)
(1.16386 -0.112264 -9.2011e-22)
(1.1676 -0.111658 1.63033e-23)
(1.17133 -0.111022 8.52605e-22)
(1.17507 -0.110357 2.67605e-22)
(1.17879 -0.109664 8.6604e-23)
(1.18251 -0.108941 -4.53542e-22)
(1.18621 -0.108189 1.51565e-22)
(1.1899 -0.107409 -8.00302e-23)
(1.19358 -0.106599 1.42621e-23)
(1.19723 -0.105761 7.26521e-23)
(1.20087 -0.104893 -5.79906e-23)
(1.20448 -0.103996 -4.41235e-24)
(1.20807 -0.10307 6.35815e-23)
(1.14875 -0.117376 -4.8771e-22)
(1.15255 -0.116883 5.00855e-21)
(1.15637 -0.116359 -4.29512e-21)
(1.16018 -0.115802 -2.68651e-21)
(1.164 -0.115214 -1.2155e-21)
(1.16782 -0.114594 1.7138e-21)
(1.17163 -0.113943 -7.10872e-22)
(1.17544 -0.113261 -8.15079e-22)
(1.17924 -0.112548 -1.11005e-21)
(1.18303 -0.111803 6.55461e-22)
(1.18681 -0.111027 -5.64892e-23)
(1.19057 -0.110221 7.05023e-23)
(1.19432 -0.109383 -6.41418e-23)
(1.19805 -0.108514 8.38099e-23)
(1.20175 -0.107614 8.09684e-23)
(1.20543 -0.106682 1.62555e-23)
(1.20908 -0.105719 -6.098e-23)
(1.14858 -0.120349 -1.58572e-21)
(1.15247 -0.119851 -3.2205e-21)
(1.15636 -0.11932 -1.58616e-21)
(1.16025 -0.118754 -1.06172e-21)
(1.16415 -0.118155 3.41371e-21)
(1.16805 -0.117522 -1.53706e-21)
(1.17194 -0.116855 -1.14864e-21)
(1.17582 -0.116155 -5.03958e-23)
(1.1797 -0.115421 9.52754e-22)
(1.18357 -0.114655 -6.53372e-22)
(1.18742 -0.113854 -5.25585e-23)
(1.19126 -0.113021 -5.43559e-23)
(1.19508 -0.112154 3.88265e-23)
(1.19888 -0.111253 -9.51388e-23)
(1.20265 -0.110319 -3.06611e-24)
(1.2064 -0.109351 -8.59932e-23)
(1.21012 -0.108349 1.24203e-23)
(1.14841 -0.123312 2.57408e-21)
(1.15238 -0.12281 -3.90114e-21)
(1.15636 -0.122271 -1.87895e-22)
(1.16033 -0.121697 -4.20053e-22)
(1.16431 -0.121086 2.17647e-21)
(1.16829 -0.12044 1.17188e-21)
(1.17226 -0.119757 1.4491e-21)
(1.17623 -0.119039 6.60963e-23)
(1.18018 -0.118285 -6.97306e-22)
(1.18413 -0.117495 7.86434e-22)
(1.18806 -0.116669 -1.21026e-22)
(1.19197 -0.115808 2.8649e-23)
(1.19586 -0.114911 -5.60999e-23)
(1.19973 -0.113978 -2.53899e-23)
(1.20358 -0.113008 -1.2104e-22)
(1.20739 -0.112002 2.11766e-22)
(1.21117 -0.11096 -1.28436e-23)
(1.14825 -0.126265 3.57828e-22)
(1.1523 -0.125759 1.54484e-22)
(1.15636 -0.125215 5.64739e-21)
(1.16042 -0.124632 1.74256e-21)
(1.16448 -0.12401 -3.98074e-21)
(1.16854 -0.12335 -3.37425e-21)
(1.1726 -0.122651 -2.10022e-22)
(1.17664 -0.121914 -3.52113e-22)
(1.18068 -0.121139 -9.62004e-23)
(1.1847 -0.120325 -1.21672e-22)
(1.18871 -0.119473 4.12369e-23)
(1.1927 -0.118583 -1.12472e-23)
(1.19666 -0.117654 2.79019e-24)
(1.2006 -0.116686 7.04034e-23)
(1.20452 -0.11568 9.20758e-23)
(1.2084 -0.114635 -2.14901e-22)
(1.21225 -0.11355 6.88395e-23)
(1.14809 -0.12921 -6.16507e-21)
(1.15223 -0.128701 7.83108e-21)
(1.15638 -0.12815 -5.34178e-21)
(1.16052 -0.127558 1.83386e-22)
(1.16467 -0.126925 9.73276e-22)
(1.16881 -0.126251 2.96198e-21)
(1.17295 -0.125536 -6.19123e-23)
(1.17708 -0.12478 4.50243e-22)
(1.18119 -0.123983 1.91661e-22)
(1.18529 -0.123145 -2.68846e-22)
(1.18938 -0.122266 -6.19431e-23)
(1.19344 -0.121345 -6.78549e-23)
(1.19748 -0.120382 9.57384e-23)
(1.2015 -0.119379 -1.18548e-22)
(1.20548 -0.118334 4.10731e-23)
(1.20943 -0.117247 5.72046e-23)
(1.21334 -0.116119 -1.07395e-22)
(1.14795 -0.132148 1.45337e-21)
(1.15217 -0.131635 -7.55297e-21)
(1.15641 -0.131078 2.10715e-22)
(1.16064 -0.130478 -2.28852e-21)
(1.16487 -0.129833 -2.26386e-21)
(1.1691 -0.129144 -7.26283e-22)
(1.17332 -0.128412 3.37815e-22)
(1.17753 -0.127636 1.04757e-21)
(1.18173 -0.126816 1.42766e-22)
(1.18591 -0.125952 2.62957e-22)
(1.19007 -0.125045 6.35412e-23)
(1.19421 -0.124091 -1.12315e-23)
(1.19832 -0.123095 -1.59455e-23)
(1.20241 -0.122054 2.30694e-22)
(1.20646 -0.120969 -7.04217e-23)
(1.21047 -0.11984 1.89421e-22)
(1.21444 -0.118666 3.81526e-23)
(1.14781 -0.135078 2.11006e-22)
(1.15213 -0.134562 2.70867e-21)
(1.15645 -0.133999 5.95901e-21)
(1.16077 -0.13339 1.25909e-21)
(1.16509 -0.132733 2.14001e-21)
(1.1694 -0.13203 1.36682e-22)
(1.1737 -0.131279 -2.02327e-21)
(1.178 -0.130482 -1.44155e-22)
(1.18228 -0.129638 -3.24262e-22)
(1.18654 -0.128746 -2.60038e-22)
(1.19078 -0.127808 2.84946e-23)
(1.19499 -0.126823 -5.89314e-23)
(1.19918 -0.125791 1.33878e-24)
(1.20333 -0.124711 -5.93448e-24)
(1.20745 -0.123585 1.27207e-22)
(1.21153 -0.122411 -3.95147e-22)
(1.21557 -0.121189 3.57005e-23)
(1.15209 -0.137483 5.14642e-21)
(1.1565 -0.136914 -2.2508e-21)
(1.16091 -0.136295 -3.39517e-22)
(1.16532 -0.135625 3.3836e-22)
(1.16972 -0.134906 -2.22461e-21)
(1.17411 -0.134137 1.37463e-21)
(1.17849 -0.133317 -3.29145e-22)
(1.18285 -0.132448 2.92673e-22)
(1.18719 -0.131528 -9.32555e-24)
(1.19151 -0.130558 -2.00147e-23)
(1.1958 -0.129539 2.70465e-22)
(1.20006 -0.128469 -2.46887e-23)
(1.20428 -0.127349 -3.06063e-22)
(1.20846 -0.126179 -1.66733e-22)
(1.21261 -0.124958 4.83543e-22)
(1.2167 -0.123687 3.15952e-23)
(1.15207 -0.140398 -3.45404e-21)
(1.15657 -0.139822 -2.94827e-21)
(1.16107 -0.139193 1.8555e-21)
(1.16557 -0.13851 6.96101e-23)
(1.17006 -0.137774 2.8685e-21)
(1.17453 -0.136985 5.9923e-22)
(1.17899 -0.136142 -2.73355e-22)
(1.18344 -0.135246 -4.86713e-22)
(1.18786 -0.134297 1.54207e-22)
(1.19225 -0.133294 8.5766e-24)
(1.19662 -0.132238 1.42538e-23)
(1.20095 -0.131129 2.0526e-22)
(1.20524 -0.129967 3.84776e-22)
(1.20949 -0.128752 4.99764e-24)
(1.21369 -0.127482 -3.26866e-22)
(1.21785 -0.12616 -2.07528e-23)
(1.15207 -0.143306 7.19249e-22)
(1.15666 -0.142723 3.99367e-21)
(1.16126 -0.142083 9.43434e-22)
(1.16584 -0.141386 -2.73849e-21)
(1.17042 -0.140632 -8.73591e-22)
(1.17498 -0.139822 -9.77686e-23)
(1.17952 -0.138955 -1.44545e-22)
(1.18405 -0.138031 4.24051e-22)
(1.18854 -0.13705 -1.37396e-22)
(1.19302 -0.136013 2.08078e-23)
(1.19745 -0.13492 -1.29083e-22)
(1.20185 -0.13377 -3.86949e-22)
(1.20621 -0.132563 -2.62908e-22)
(1.21053 -0.1313 8.00755e-23)
(1.21479 -0.129981 -1.5782e-22)
(1.219 -0.128605 -4.7736e-23)
(1.15209 -0.146209 -5.73699e-21)
(1.15678 -0.145618 -6.20681e-21)
(1.16146 -0.144966 -1.56371e-21)
(1.16613 -0.144253 2.2316e-21)
(1.17079 -0.143481 -1.74677e-21)
(1.17544 -0.142648 -5.94018e-22)
(1.18007 -0.141754 1.22306e-22)
(1.18467 -0.140801 -4.01782e-23)
(1.18925 -0.139788 1.16659e-22)
(1.19379 -0.138714 -2.42046e-23)
(1.1983 -0.137581 6.65534e-23)
(1.20277 -0.136389 3.43931e-22)
(1.2072 -0.135136 -1.17682e-22)
(1.21158 -0.133825 1.38656e-22)
(1.2159 -0.132453 9.81547e-23)
(1.22016 -0.131022 -3.16218e-24)
(1.15213 -0.149106 1.51966e-22)
(1.15691 -0.148505 5.4438e-21)
(1.16168 -0.14784 -6.98191e-23)
(1.16644 -0.147111 -1.34934e-21)
(1.17119 -0.146318 1.9918e-21)
(1.17592 -0.145461 -3.01332e-22)
(1.18063 -0.14454 8.45742e-23)
(1.18532 -0.143556 -1.30435e-25)
(1.18997 -0.142508 -6.11476e-23)
(1.19459 -0.141397 9.27535e-23)
(1.19917 -0.140222 -2.17811e-23)
(1.20371 -0.138985 -2.94824e-22)
(1.2082 -0.137685 4.13038e-22)
(1.21263 -0.136323 -9.70333e-23)
(1.21701 -0.134897 4.86006e-23)
(1.22133 -0.133409 4.07521e-23)
(1.15219 -0.151995 7.55139e-21)
(1.15706 -0.151384 -3.85816e-21)
(1.16192 -0.150705 1.67428e-21)
(1.16678 -0.149958 2.13374e-21)
(1.17161 -0.149143 -1.90264e-21)
(1.17643 -0.14826 5.74285e-23)
(1.18122 -0.14731 -7.75601e-23)
(1.18598 -0.146293 1.71458e-22)
(1.19071 -0.145209 -3.69688e-23)
(1.1954 -0.144058 -1.05158e-22)
(1.20005 -0.142841 9.6526e-25)
(1.20465 -0.141558 1.76614e-22)
(1.2092 -0.140208 -3.92313e-23)
(1.2137 -0.138793 -2.22554e-22)
(1.21813 -0.137312 2.84958e-22)
(1.2225 -0.135765 6.2359e-24)
(1.15227 -0.154877 7.45452e-23)
(1.15724 -0.154255 -5.27276e-22)
(1.16219 -0.15356 -3.78095e-21)
(1.16713 -0.152793 -1.67882e-21)
(1.17205 -0.151954 -2.02469e-22)
(1.17695 -0.151045 1.11565e-21)
(1.18182 -0.150064 6.61822e-22)
(1.18665 -0.149012 -4.00857e-22)
(1.19146 -0.14789 1.51632e-24)
(1.19622 -0.146698 -1.04583e-22)
(1.20093 -0.145436 3.58924e-22)
(1.2056 -0.144105 5.2972e-23)
(1.21021 -0.142705 4.46608e-23)
(1.21476 -0.141235 -3.42905e-22)
(1.21925 -0.139696 -1.68847e-22)
(1.22366 -0.138089 -9.37469e-23)
(1.15238 -0.157751 -3.26404e-21)
(1.15743 -0.157115 1.26999e-22)
(1.16248 -0.156403 3.22019e-21)
(1.1675 -0.155614 1.80078e-21)
(1.17251 -0.154751 7.15738e-22)
(1.17748 -0.153812 -1.75824e-21)
(1.18243 -0.152799 -1.04419e-21)
(1.18734 -0.151711 3.19715e-22)
(1.19222 -0.15055 2.9126e-23)
(1.19705 -0.149315 1.03457e-23)
(1.20183 -0.148006 -5.73274e-22)
(1.20656 -0.146625 1.0371e-22)
(1.21122 -0.145172 -2.13958e-25)
(1.21583 -0.143647 2.29165e-22)
(1.22036 -0.142049 3.1192e-22)
(1.22482 -0.14038 1.17655e-22)
(1.15251 -0.160615 -1.39784e-21)
(1.15766 -0.159964 9.85676e-22)
(1.16279 -0.159233 -3.81611e-21)
(1.1679 -0.158421 1.9058e-22)
(1.17298 -0.157531 1.77792e-21)
(1.17804 -0.156562 1.98463e-21)
(1.18306 -0.155514 3.82375e-22)
(1.18805 -0.154388 -3.05033e-23)
(1.19299 -0.153185 -2.0034e-24)
(1.19789 -0.151906 -9.7411e-23)
(1.20273 -0.15055 4.89037e-22)
(1.20751 -0.149118 -1.01761e-21)
(1.21224 -0.14761 -1.61893e-22)
(1.21689 -0.146027 -1.89376e-22)
(1.22147 -0.144369 -3.45189e-22)
(1.22597 -0.142636 -3.11728e-23)
(1.1579 -0.162801 -1.54218e-21)
(1.16312 -0.162048 6.9379e-22)
(1.16831 -0.161212 -8.6173e-22)
(1.17347 -0.160293 1.51e-21)
(1.17861 -0.159291 1.58927e-22)
(1.1837 -0.158207 1.01633e-21)
(1.18876 -0.157042 -7.7966e-23)
(1.19377 -0.155796 1.62504e-23)
(1.19873 -0.15447 -6.25829e-24)
(1.20363 -0.153065 -4.57615e-23)
(1.20847 -0.15158 7.42306e-22)
(1.21325 -0.150016 4.73554e-22)
(1.21795 -0.148375 -1.39286e-23)
(1.22257 -0.146655 -1.78436e-22)
(1.22712 -0.144857 -1.43889e-22)
(1.16874 -0.163984 2.28436e-21)
(1.17398 -0.163035 -5.71623e-22)
(1.17919 -0.161998 -1.05451e-22)
(1.18436 -0.160877 -9.01855e-22)
(1.18948 -0.159671 2.52175e-22)
(1.19455 -0.15838 1.69248e-23)
(1.19957 -0.157007 -1.2022e-22)
(1.20453 -0.15555 -8.31204e-22)
(1.20943 -0.154011 -5.19598e-23)
(1.21425 -0.152391 -7.34246e-22)
(1.219 -0.150689 6.11667e-22)
(1.22367 -0.148906 2.49147e-22)
(1.22825 -0.147043 1.1863e-22)
(1.17978 -0.164682 -2.35511e-21)
(1.18502 -0.163521 6.71488e-22)
(1.19021 -0.162272 -3.24401e-22)
(1.19534 -0.160936 6.17758e-23)
(1.20042 -0.159513 3.93019e-22)
(1.20543 -0.158004 8.9576e-22)
(1.21038 -0.15641 4.41196e-22)
(1.21525 -0.154731 1.69334e-22)
(1.22004 -0.152968 -9.91513e-23)
(1.22475 -0.151122 -6.62541e-23)
(1.22936 -0.149191 2.81387e-23)
(1.19613 -0.163461 -5.79137e-23)
(1.20126 -0.161988 -7.75972e-23)
(1.20633 -0.160426 5.18474e-22)
(1.21132 -0.158775 1.49753e-22)
(1.21624 -0.157037 2.44423e-22)
(1.22107 -0.155212 -3.16958e-22)