/*--------------------------------*- C++ -*----------------------------------*\
  =========                 |
  \\      /  F ield         | OpenFOAM: The Open Source CFD Toolbox
   \\    /   O peration     | Website:  https://openfoam.org
    \\  /    A nd           | Version:  7
     \\/     M anipulation  |
\*---------------------------------------------------------------------------*/
FoamFile
{
    version     2.0;
    format      ascii;
    class       volScalarField;
    location    "30";
    object      p;
}
// * * * * * * * * * * * * * * * * * * * * * * * * * * * * * * * * * * * * * //

dimensions      [0 2 -2 0 0 0 0];

internalField   nonuniform List<scalar> 
42000
(
-0.38443
-0.387728
-0.385878
-0.383058
-0.378355
-0.372495
-0.365589
-0.357878
-0.349521
-0.340667
-0.331447
-0.321977
-0.312366
-0.302713
-0.293113
-0.283649
-0.274421
-0.265407
-0.257002
-0.248207
-0.384708
-0.387948
-0.386076
-0.383228
-0.378504
-0.372627
-0.365705
-0.357981
-0.349612
-0.340747
-0.331517
-0.322037
-0.312416
-0.302754
-0.293145
-0.283671
-0.274433
-0.265405
-0.257015
-0.248109
-0.385263
-0.388388
-0.386473
-0.383567
-0.378804
-0.372889
-0.365937
-0.358186
-0.349793
-0.340907
-0.331656
-0.322158
-0.312518
-0.302837
-0.293207
-0.283714
-0.274457
-0.265402
-0.25704
-0.247913
-0.386093
-0.389047
-0.387066
-0.384076
-0.379252
-0.373282
-0.366284
-0.358492
-0.350064
-0.341145
-0.331865
-0.322338
-0.31267
-0.302959
-0.293301
-0.283777
-0.274492
-0.265398
-0.257077
-0.24762
-0.387198
-0.389923
-0.387855
-0.384753
-0.379847
-0.373805
-0.366745
-0.3589
-0.350423
-0.341462
-0.332142
-0.322577
-0.312871
-0.303123
-0.293425
-0.283862
-0.274539
-0.265391
-0.257127
-0.247229
-0.388573
-0.391015
-0.388837
-0.385596
-0.380589
-0.374455
-0.367319
-0.359406
-0.350871
-0.341857
-0.332487
-0.322874
-0.313121
-0.303326
-0.29358
-0.283966
-0.274597
-0.265382
-0.257188
-0.24674
-0.390218
-0.39232
-0.390012
-0.386603
-0.381476
-0.375232
-0.368005
-0.360012
-0.351406
-0.342328
-0.332899
-0.323229
-0.313421
-0.303569
-0.293765
-0.284092
-0.274666
-0.26537
-0.257262
-0.246154
-0.392127
-0.393836
-0.391376
-0.387772
-0.382506
-0.376134
-0.3688
-0.360715
-0.352027
-0.342875
-0.333377
-0.323641
-0.313768
-0.30385
-0.293979
-0.284237
-0.274747
-0.265356
-0.257348
-0.245472
-0.394297
-0.395559
-0.392927
-0.389102
-0.383675
-0.377159
-0.369704
-0.361513
-0.352732
-0.343495
-0.333919
-0.324109
-0.314162
-0.30417
-0.294223
-0.284402
-0.274838
-0.265339
-0.257446
-0.244694
-0.396724
-0.397486
-0.394661
-0.390588
-0.384983
-0.378305
-0.370715
-0.362404
-0.353519
-0.344189
-0.334525
-0.324632
-0.314603
-0.304528
-0.294496
-0.284586
-0.274939
-0.265318
-0.257555
-0.243821
-0.399402
-0.399612
-0.396574
-0.392228
-0.386426
-0.379569
-0.371829
-0.363387
-0.354387
-0.344953
-0.335194
-0.325208
-0.315089
-0.304922
-0.294796
-0.284789
-0.275051
-0.265293
-0.257675
-0.242853
-0.402325
-0.401934
-0.398663
-0.394018
-0.388001
-0.380947
-0.373044
-0.364459
-0.355334
-0.345786
-0.335922
-0.325837
-0.315619
-0.305353
-0.295125
-0.285011
-0.275174
-0.265265
-0.257806
-0.241792
-0.405489
-0.404447
-0.400923
-0.395955
-0.389704
-0.382439
-0.374358
-0.365618
-0.356357
-0.346687
-0.33671
-0.326517
-0.316193
-0.305819
-0.295481
-0.285251
-0.275306
-0.265232
-0.257947
-0.240639
-0.408886
-0.407145
-0.403351
-0.398035
-0.391532
-0.384039
-0.375768
-0.366862
-0.357454
-0.347653
-0.337555
-0.327246
-0.316808
-0.30632
-0.295863
-0.28551
-0.275449
-0.265195
-0.258098
-0.239394
-0.41251
-0.410023
-0.40594
-0.400252
-0.393482
-0.385744
-0.37727
-0.368186
-0.358623
-0.348682
-0.338455
-0.328024
-0.317465
-0.306855
-0.296272
-0.285786
-0.275601
-0.265152
-0.258258
-0.23806
-0.416354
-0.413075
-0.408685
-0.402603
-0.395548
-0.387552
-0.378862
-0.36959
-0.359861
-0.349772
-0.339409
-0.328848
-0.318162
-0.307423
-0.296707
-0.28608
-0.275763
-0.265105
-0.258426
-0.236636
-0.420408
-0.416295
-0.411581
-0.405083
-0.397727
-0.389458
-0.380539
-0.371068
-0.361166
-0.350921
-0.340414
-0.329717
-0.318898
-0.308023
-0.297168
-0.286392
-0.275935
-0.265052
-0.2586
-0.235125
-0.424666
-0.419678
-0.414623
-0.407687
-0.400015
-0.391458
-0.3823
-0.37262
-0.362535
-0.352126
-0.341469
-0.33063
-0.319671
-0.308656
-0.297654
-0.286721
-0.276117
-0.264993
-0.258781
-0.233527
-0.429119
-0.423215
-0.417803
-0.41041
-0.402406
-0.393549
-0.384139
-0.37424
-0.363964
-0.353385
-0.342571
-0.331584
-0.320481
-0.309319
-0.298164
-0.287068
-0.276309
-0.26493
-0.258966
-0.231844
-0.433758
-0.4269
-0.421116
-0.413246
-0.404896
-0.395725
-0.386054
-0.375927
-0.365452
-0.354695
-0.343719
-0.332579
-0.321326
-0.310012
-0.2987
-0.287434
-0.276512
-0.264861
-0.259155
-0.230077
-0.438575
-0.430727
-0.424556
-0.416189
-0.40748
-0.397983
-0.38804
-0.377676
-0.366995
-0.356054
-0.344911
-0.333613
-0.322205
-0.310735
-0.29926
-0.287817
-0.276726
-0.264787
-0.259345
-0.228227
-0.443559
-0.434686
-0.428115
-0.419234
-0.410153
-0.400318
-0.390093
-0.379485
-0.36859
-0.35746
-0.346144
-0.334683
-0.323118
-0.311487
-0.299846
-0.288219
-0.276952
-0.264709
-0.259535
-0.226295
-0.448703
-0.438772
-0.431787
-0.422375
-0.41291
-0.402726
-0.39221
-0.381349
-0.370235
-0.358909
-0.347415
-0.335789
-0.324062
-0.312268
-0.300455
-0.288641
-0.277191
-0.264628
-0.259723
-0.224282
-0.453994
-0.442975
-0.435564
-0.425606
-0.415745
-0.405202
-0.394387
-0.383265
-0.371925
-0.360399
-0.348724
-0.336928
-0.325037
-0.313077
-0.301091
-0.289083
-0.277443
-0.264545
-0.259906
-0.222188
-0.459425
-0.447288
-0.43944
-0.428921
-0.418653
-0.407741
-0.396619
-0.38523
-0.373659
-0.361928
-0.350068
-0.338099
-0.326041
-0.313914
-0.301751
-0.289546
-0.27771
-0.264461
-0.260084
-0.220014
-0.464983
-0.451702
-0.443406
-0.432312
-0.421628
-0.410338
-0.398901
-0.38724
-0.375432
-0.363492
-0.351444
-0.3393
-0.327074
-0.314778
-0.302437
-0.290033
-0.277994
-0.26438
-0.260252
-0.217762
-0.470659
-0.456209
-0.447455
-0.435775
-0.424665
-0.412989
-0.401231
-0.389291
-0.377242
-0.365089
-0.35285
-0.34053
-0.328135
-0.315669
-0.30315
-0.290545
-0.278298
-0.264305
-0.260409
-0.215433
-0.476442
-0.4608
-0.45158
-0.439301
-0.427758
-0.415689
-0.403603
-0.391379
-0.379085
-0.366716
-0.354283
-0.341786
-0.329221
-0.316586
-0.30389
-0.291084
-0.278623
-0.264242
-0.260551
-0.213029
-0.482321
-0.465466
-0.455773
-0.442885
-0.430901
-0.418432
-0.406013
-0.393501
-0.380957
-0.36837
-0.355742
-0.343065
-0.330332
-0.317529
-0.304657
-0.291652
-0.278974
-0.264197
-0.260675
-0.210554
-0.488284
-0.470198
-0.460025
-0.446519
-0.434088
-0.421213
-0.408457
-0.395652
-0.382856
-0.370048
-0.357223
-0.344367
-0.331466
-0.318498
-0.305454
-0.292254
-0.279355
-0.26418
-0.260778
-0.208016
-0.494321
-0.474988
-0.464327
-0.450197
-0.437313
-0.424027
-0.410929
-0.397828
-0.384778
-0.371746
-0.358724
-0.345689
-0.332621
-0.319491
-0.306281
-0.292892
-0.279772
-0.264204
-0.260855
-0.205429
-0.50042
-0.479825
-0.468673
-0.453911
-0.44057
-0.426869
-0.413426
-0.400026
-0.386718
-0.373462
-0.36024
-0.347028
-0.333795
-0.320509
-0.307138
-0.293571
-0.280232
-0.264287
-0.260903
-0.202814
-0.506568
-0.484699
-0.473053
-0.457654
-0.443853
-0.429733
-0.415942
-0.402241
-0.388673
-0.375191
-0.361771
-0.34838
-0.334986
-0.321549
-0.308027
-0.294296
-0.280743
-0.264453
-0.260915
-0.200209
-0.512753
-0.489602
-0.477458
-0.461419
-0.447155
-0.432614
-0.418473
-0.404469
-0.39064
-0.37693
-0.36331
-0.349743
-0.336192
-0.32261
-0.308949
-0.295073
-0.281317
-0.264735
-0.260886
-0.197681
-0.518963
-0.494523
-0.48188
-0.465198
-0.450469
-0.435506
-0.421013
-0.406704
-0.392613
-0.378674
-0.364855
-0.351114
-0.337408
-0.323689
-0.309902
-0.295906
-0.281968
-0.265175
-0.260819
-0.195371
-0.525185
-0.499452
-0.486309
-0.468984
-0.453789
-0.438403
-0.423557
-0.408942
-0.394587
-0.38042
-0.366402
-0.352486
-0.33863
-0.324783
-0.310886
-0.2968
-0.28271
-0.26583
-0.260731
-0.193526
-0.531405
-0.504378
-0.490737
-0.472768
-0.457108
-0.441299
-0.4261
-0.411178
-0.396559
-0.382162
-0.367944
-0.353856
-0.339853
-0.325887
-0.311899
-0.297757
-0.283562
-0.266767
-0.260597
-0.192327
-0.537613
-0.509295
-0.495157
-0.476546
-0.460422
-0.44419
-0.428639
-0.41341
-0.398526
-0.383898
-0.36948
-0.355219
-0.341072
-0.326995
-0.312935
-0.298778
-0.284551
-0.268075
-0.260249
-0.191661
-0.543797
-0.514195
-0.499564
-0.480314
-0.463728
-0.447074
-0.43117
-0.415634
-0.400484
-0.385624
-0.371004
-0.35657
-0.342282
-0.328101
-0.313987
-0.29986
-0.285716
-0.269893
-0.259827
-0.19317
-0.549908
-0.519035
-0.503914
-0.48403
-0.466986
-0.449915
-0.433661
-0.41782
-0.402406
-0.387315
-0.372494
-0.357888
-0.34346
-0.329181
-0.315029
-0.300974
-0.28705
-0.272309
-0.261002
-0.207925
-0.555852
-0.523717
-0.508113
-0.487604
-0.470114
-0.452636
-0.436043
-0.419906
-0.404235
-0.388919
-0.373902
-0.359129
-0.344567
-0.330195
-0.316015
-0.302059
-0.288433
-0.275006
-0.265111
-0.254589
-0.561839
-0.528454
-0.512371
-0.491241
-0.473303
-0.455415
-0.438477
-0.422037
-0.406101
-0.390552
-0.375329
-0.36038
-0.345673
-0.331201
-0.316984
-0.303111
-0.289739
-0.277451
-0.266903
-0.273631
-0.567785
-0.533156
-0.516601
-0.494856
-0.476473
-0.458177
-0.440895
-0.424151
-0.407947
-0.39216
-0.376728
-0.361596
-0.346737
-0.332153
-0.317884
-0.30406
-0.290839
-0.279337
-0.267057
-0.28081
-0.57364
-0.537776
-0.520756
-0.498404
-0.479583
-0.460884
-0.443261
-0.426214
-0.409743
-0.393717
-0.378071
-0.362751
-0.347733
-0.333027
-0.318684
-0.304866
-0.291695
-0.280686
-0.266916
-0.284389
-0.579391
-0.542304
-0.524826
-0.501877
-0.482626
-0.463531
-0.44557
-0.428222
-0.411483
-0.395215
-0.379352
-0.363837
-0.348651
-0.333807
-0.319367
-0.305511
-0.292303
-0.281549
-0.266635
-0.28591
-0.585026
-0.546731
-0.528805
-0.50527
-0.485597
-0.466111
-0.447817
-0.43017
-0.413162
-0.396649
-0.380562
-0.364846
-0.349479
-0.334482
-0.319918
-0.305977
-0.292663
-0.281962
-0.2661
-0.285825
-0.590531
-0.551045
-0.532682
-0.508573
-0.488487
-0.468617
-0.449993
-0.432048
-0.41477
-0.39801
-0.381694
-0.365767
-0.350208
-0.335039
-0.320324
-0.306254
-0.292773
-0.28196
-0.265294
-0.284574
-0.595888
-0.555234
-0.536445
-0.511776
-0.491286
-0.471039
-0.45209
-0.433849
-0.4163
-0.399288
-0.382737
-0.366589
-0.350825
-0.335466
-0.320572
-0.306331
-0.292632
-0.281584
-0.264236
-0.282502
-0.601084
-0.559284
-0.540082
-0.514867
-0.493983
-0.473367
-0.454098
-0.435562
-0.417741
-0.400473
-0.38368
-0.367302
-0.351319
-0.335751
-0.320653
-0.306203
-0.292244
-0.280866
-0.262943
-0.279833
-0.606102
-0.563183
-0.54358
-0.517835
-0.496569
-0.475593
-0.456007
-0.437179
-0.419084
-0.401556
-0.384513
-0.367895
-0.351679
-0.335883
-0.320556
-0.305864
-0.291612
-0.279836
-0.261427
-0.276714
-0.610926
-0.566917
-0.546929
-0.520669
-0.499032
-0.477704
-0.457808
-0.438688
-0.420318
-0.402525
-0.385226
-0.368357
-0.351894
-0.335853
-0.320274
-0.305311
-0.290738
-0.278519
-0.259698
-0.273249
-0.61554
-0.570472
-0.550113
-0.523358
-0.501362
-0.479692
-0.45949
-0.440081
-0.421434
-0.403371
-0.385807
-0.368676
-0.351953
-0.33565
-0.319799
-0.30454
-0.289628
-0.276935
-0.257766
-0.269511
-0.619928
-0.573834
-0.553122
-0.525889
-0.503547
-0.481544
-0.461042
-0.441345
-0.422419
-0.404082
-0.386245
-0.368842
-0.351846
-0.335264
-0.319124
-0.303549
-0.288283
-0.275099
-0.255639
-0.265553
-0.624073
-0.576989
-0.55594
-0.52825
-0.505576
-0.48325
-0.462453
-0.442469
-0.423263
-0.404646
-0.386529
-0.368844
-0.351561
-0.334687
-0.318242
-0.302336
-0.286707
-0.273026
-0.253324
-0.261414
-0.627959
-0.579922
-0.558554
-0.530428
-0.507435
-0.484797
-0.46371
-0.443442
-0.423953
-0.405052
-0.386647
-0.36867
-0.35109
-0.33391
-0.317147
-0.300897
-0.284902
-0.270726
-0.250824
-0.25712
-0.631567
-0.582619
-0.560951
-0.53241
-0.509114
-0.486173
-0.464803
-0.444252
-0.424479
-0.405288
-0.386588
-0.368308
-0.35042
-0.332924
-0.315832
-0.299232
-0.28287
-0.268206
-0.248142
-0.252691
-0.634881
-0.585064
-0.563116
-0.534182
-0.510597
-0.487365
-0.465718
-0.444885
-0.424826
-0.405341
-0.386338
-0.367749
-0.349544
-0.331721
-0.314293
-0.297336
-0.28061
-0.265472
-0.24528
-0.24814
-0.637884
-0.587243
-0.565034
-0.535732
-0.511874
-0.488361
-0.466442
-0.445331
-0.424983
-0.405199
-0.385888
-0.36698
-0.348449
-0.330293
-0.312522
-0.295208
-0.278124
-0.262529
-0.242237
-0.243476
-0.640556
-0.589139
-0.566691
-0.537045
-0.512929
-0.489147
-0.466963
-0.445574
-0.424937
-0.40485
-0.385223
-0.365991
-0.347127
-0.328632
-0.310515
-0.292845
-0.275411
-0.259378
-0.239013
-0.238703
-0.642882
-0.590737
-0.568071
-0.538107
-0.513748
-0.48971
-0.467266
-0.445602
-0.424674
-0.40428
-0.384333
-0.36477
-0.345568
-0.326729
-0.308266
-0.290243
-0.27247
-0.256021
-0.235607
-0.233824
-0.644841
-0.592021
-0.56916
-0.538903
-0.514319
-0.490036
-0.467339
-0.445402
-0.424182
-0.403478
-0.383206
-0.363307
-0.343762
-0.324578
-0.30577
-0.2874
-0.2693
-0.252458
-0.232017
-0.228839
-0.646417
-0.592975
-0.569942
-0.539419
-0.514626
-0.49011
-0.467167
-0.44496
-0.423447
-0.40243
-0.381829
-0.361591
-0.341701
-0.322171
-0.303021
-0.284313
-0.2659
-0.248689
-0.228239
-0.223748
-0.647591
-0.593583
-0.570401
-0.539639
-0.514655
-0.489919
-0.466737
-0.444261
-0.422455
-0.401123
-0.380191
-0.359611
-0.339375
-0.319501
-0.300014
-0.280978
-0.262268
-0.244714
-0.224273
-0.218546
-0.648344
-0.593828
-0.570522
-0.539549
-0.514392
-0.489447
-0.466033
-0.443293
-0.421194
-0.399546
-0.37828
-0.357357
-0.336776
-0.316561
-0.296744
-0.277392
-0.258401
-0.24053
-0.220114
-0.213232
-0.648658
-0.593695
-0.570288
-0.539134
-0.51382
-0.488681
-0.465041
-0.44204
-0.41965
-0.397684
-0.376085
-0.354819
-0.333896
-0.313345
-0.293207
-0.273552
-0.254299
-0.236137
-0.215761
-0.207802
-0.648515
-0.593166
-0.569684
-0.538377
-0.512926
-0.487605
-0.463748
-0.44049
-0.417809
-0.395527
-0.373594
-0.351988
-0.330725
-0.309846
-0.289398
-0.269456
-0.249959
-0.231532
-0.211211
-0.20225
-0.647897
-0.592226
-0.568694
-0.537265
-0.511693
-0.486204
-0.462138
-0.438628
-0.415659
-0.393062
-0.370797
-0.348854
-0.327258
-0.306059
-0.285314
-0.2651
-0.245378
-0.226714
-0.206462
-0.196573
-0.646785
-0.590858
-0.567302
-0.535781
-0.510108
-0.484465
-0.460197
-0.43644
-0.413186
-0.390276
-0.367684
-0.345407
-0.323486
-0.301978
-0.280949
-0.260482
-0.240556
-0.221682
-0.201512
-0.190767
-0.64516
-0.589046
-0.565491
-0.533911
-0.508155
-0.482372
-0.457912
-0.433913
-0.410378
-0.38716
-0.364243
-0.341641
-0.319403
-0.297597
-0.276301
-0.2556
-0.235491
-0.216433
-0.196359
-0.184827
-0.643006
-0.586774
-0.563248
-0.531638
-0.505819
-0.47991
-0.455267
-0.431033
-0.407222
-0.3837
-0.360466
-0.337546
-0.315002
-0.292914
-0.271366
-0.250451
-0.230182
-0.210967
-0.191002
-0.178749
-0.640304
-0.584025
-0.560554
-0.528948
-0.503086
-0.477066
-0.45225
-0.427788
-0.403707
-0.379887
-0.356343
-0.333115
-0.310278
-0.287922
-0.266142
-0.245034
-0.224627
-0.205282
-0.18544
-0.172529
-0.637036
-0.580784
-0.557396
-0.525827
-0.49994
-0.473825
-0.448846
-0.424164
-0.39982
-0.375711
-0.351866
-0.328341
-0.305225
-0.282619
-0.260626
-0.239348
-0.218826
-0.199378
-0.179673
-0.166164
-0.633185
-0.577036
-0.553758
-0.522259
-0.496367
-0.470174
-0.445043
-0.420151
-0.395552
-0.371162
-0.347027
-0.323218
-0.299839
-0.277001
-0.254816
-0.233391
-0.212778
-0.193254
-0.1737
-0.15965
-0.628732
-0.572765
-0.549625
-0.51823
-0.492355
-0.466098
-0.440828
-0.415734
-0.390891
-0.36623
-0.341817
-0.31774
-0.294115
-0.271066
-0.248712
-0.227163
-0.206483
-0.186911
-0.167521
-0.152987
-0.623661
-0.567956
-0.544982
-0.513727
-0.487888
-0.461586
-0.436188
-0.410905
-0.385827
-0.360908
-0.336231
-0.311902
-0.288051
-0.264812
-0.242311
-0.220665
-0.199942
-0.180347
-0.161137
-0.146171
-0.61795
-0.562595
-0.539816
-0.508734
-0.482954
-0.456623
-0.431111
-0.40565
-0.38035
-0.355187
-0.330262
-0.3057
-0.281643
-0.258236
-0.235615
-0.213895
-0.193155
-0.173565
-0.154549
-0.1392
-0.611585
-0.556668
-0.534112
-0.503241
-0.47754
-0.451198
-0.425587
-0.399961
-0.374453
-0.34906
-0.323905
-0.299129
-0.274888
-0.251339
-0.228622
-0.206856
-0.186124
-0.166565
-0.147758
-0.132075
-0.604562
-0.550177
-0.527871
-0.497243
-0.471642
-0.445307
-0.41961
-0.393833
-0.368131
-0.342524
-0.317158
-0.292188
-0.267788
-0.244121
-0.221334
-0.199548
-0.17885
-0.159349
-0.140767
-0.124793
-0.596867
-0.543117
-0.521086
-0.490736
-0.465253
-0.438941
-0.413172
-0.387259
-0.361378
-0.335575
-0.310016
-0.284876
-0.26034
-0.236581
-0.213752
-0.191973
-0.171336
-0.151918
-0.133577
-0.117356
-0.588329
-0.535357
-0.513648
-0.483626
-0.458296
-0.432038
-0.406223
-0.380197
-0.354161
-0.328187
-0.302462
-0.277179
-0.252537
-0.228717
-0.205874
-0.184132
-0.163582
-0.144274
-0.126191
-0.109765
-0.578596
-0.526605
-0.505318
-0.475718
-0.450611
-0.424467
-0.398657
-0.372564
-0.346415
-0.32031
-0.294459
-0.269072
-0.24436
-0.220515
-0.197694
-0.176021
-0.155587
-0.136419
-0.118611
-0.102019
-0.568653
-0.517618
-0.496712
-0.467513
-0.442605
-0.416557
-0.390738
-0.36457
-0.338307
-0.312075
-0.286106
-0.26063
-0.235868
-0.212018
-0.189243
-0.167662
-0.147367
-0.128361
-0.110844
-0.0941217
-0.558164
-0.508112
-0.48759
-0.458811
-0.434112
-0.408171
-0.382354
-0.356125
-0.329764
-0.303425
-0.277363
-0.251822
-0.227037
-0.203212
-0.18051
-0.159049
-0.13892
-0.1201
-0.10289
-0.0860734
-0.546962
-0.497956
-0.477848
-0.449524
-0.42506
-0.39925
-0.373459
-0.347192
-0.320758
-0.294339
-0.268212
-0.242639
-0.217863
-0.194093
-0.171495
-0.150184
-0.130247
-0.111639
-0.0947535
-0.0778762
-0.53504
-0.487151
-0.467485
-0.439652
-0.415448
-0.389793
-0.364051
-0.33777
-0.31129
-0.28482
-0.258659
-0.233083
-0.208348
-0.184667
-0.162204
-0.141072
-0.121353
-0.102983
-0.0864382
-0.0695328
-0.522405
-0.475706
-0.456508
-0.429198
-0.405277
-0.379802
-0.354131
-0.327862
-0.301361
-0.274869
-0.248704
-0.223159
-0.198498
-0.174937
-0.15264
-0.131716
-0.112243
-0.0941342
-0.0779485
-0.061046
-0.509052
-0.463618
-0.444912
-0.418159
-0.394545
-0.369273
-0.343697
-0.317466
-0.290973
-0.264489
-0.238353
-0.212872
-0.188318
-0.164909
-0.14281
-0.122123
-0.102921
-0.0850987
-0.0692893
-0.0524194
-0.494974
-0.450883
-0.432693
-0.406531
-0.383247
-0.358203
-0.332748
-0.306581
-0.280127
-0.253682
-0.227608
-0.202225
-0.177811
-0.154589
-0.132718
-0.112298
-0.0933934
-0.075881
-0.0604656
-0.0436564
-0.480169
-0.437499
-0.419849
-0.394311
-0.371382
-0.346592
-0.321284
-0.29521
-0.268824
-0.242452
-0.216474
-0.191223
-0.166986
-0.143983
-0.122372
-0.102246
-0.0836653
-0.0664863
-0.0514824
-0.0347612
-0.464636
-0.423464
-0.406379
-0.381497
-0.358948
-0.33444
-0.309305
-0.283354
-0.257068
-0.230802
-0.204956
-0.179874
-0.155847
-0.133097
-0.111777
-0.0919753
-0.073743
-0.0569199
-0.0423447
-0.0257381
-0.448377
-0.408779
-0.392283
-0.368091
-0.345948
-0.321747
-0.296814
-0.271016
-0.244864
-0.21874
-0.193061
-0.168183
-0.144402
-0.121939
-0.100941
-0.0814912
-0.0636328
-0.0471877
-0.0330589
-0.0165881
-0.431393
-0.393446
-0.377562
-0.354094
-0.332381
-0.308516
-0.283815
-0.258202
-0.232217
-0.20627
-0.180795
-0.156159
-0.132659
-0.110516
-0.0898714
-0.0708013
-0.0533413
-0.0372973
-0.0236421
-0.00730355
-0.413691
-0.377468
-0.362219
-0.339507
-0.318251
-0.29475
-0.270311
-0.244916
-0.219133
-0.193401
-0.168168
-0.14381
-0.120627
-0.098836
-0.0785756
-0.0599128
-0.042875
-0.0272545
-0.0141132
0.00210596
-0.395276
-0.360851
-0.346259
-0.324336
-0.303563
-0.280455
-0.256308
-0.231165
-0.205621
-0.18014
-0.155187
-0.131144
-0.108313
-0.0869088
-0.0670623
-0.0488337
-0.032241
-0.0170599
-0.00438788
0.0115477
-0.376156
-0.343599
-0.329686
-0.308584
-0.288321
-0.265636
-0.241813
-0.216956
-0.191688
-0.166497
-0.141861
-0.118171
-0.0957282
-0.074743
-0.05534
-0.037572
-0.0214474
-0.00674026
0.00546421
0.0211021
-0.35634
-0.32572
-0.312508
-0.292259
-0.272532
-0.250301
-0.226835
-0.2023
-0.177345
-0.152482
-0.128203
-0.104902
-0.0828822
-0.0623484
-0.0434181
-0.0261364
-0.0105017
0.0037144
0.0154219
0.0307611
-0.335841
-0.307224
-0.294733
-0.275369
-0.256205
-0.234458
-0.211382
-0.187205
-0.162601
-0.138105
-0.114221
-0.0913479
-0.0697858
-0.0497352
-0.0313061
-0.0145357
0.000587634
0.0142958
0.0254873
0.0405105
-0.314671
-0.28812
-0.276371
-0.257923
-0.239349
-0.218118
-0.195466
-0.171683
-0.147469
-0.12338
-0.099929
-0.0775199
-0.0564501
-0.036914
-0.0190138
-0.00277901
0.011812
0.0249947
0.0356563
0.0503423
-0.292844
-0.268421
-0.257433
-0.239931
-0.221975
-0.201291
-0.179097
-0.155746
-0.13196
-0.108317
-0.0853386
-0.0634303
-0.0428867
-0.0238958
-0.00655164
0.00912409
0.0231628
0.0358027
0.0459219
0.0602494
-0.270376
-0.248139
-0.237931
-0.221406
-0.204095
-0.18399
-0.162288
-0.139407
-0.116089
-0.0929307
-0.0704631
-0.049092
-0.029108
-0.0106922
0.00606976
0.0211638
0.034631
0.0467117
0.056277
0.0702244
-0.247285
-0.227289
-0.21788
-0.202361
-0.185722
-0.166227
-0.145054
-0.12268
-0.0998687
-0.0772352
-0.0553165
-0.0345183
-0.0151266
0.00268504
0.0188394
0.0333299
0.0462073
0.057713
0.0667142
0.0802596
-0.22359
-0.205888
-0.197294
-0.18281
-0.16687
-0.148019
-0.127409
-0.10558
-0.0833154
-0.0612454
-0.0399132
-0.0197232
-0.000955573
0.0162236
0.0317458
0.045612
0.0578821
0.0687979
0.0772258
0.0903471
-0.199311
-0.183952
-0.176192
-0.16277
-0.147557
-0.129381
-0.109371
-0.0881225
-0.0664443
-0.0449771
-0.0242685
-0.00472094
0.0133914
0.0299108
0.0447773
0.0579992
0.0696455
0.0799572
0.0878041
0.100479
-0.174471
-0.161502
-0.15459
-0.142258
-0.127798
-0.110331
-0.090959
-0.070322
-0.0492727
-0.0284464
-0.00839784
0.0104735
0.0279004
0.0437335
0.0579218
0.0704806
0.0814875
0.0911815
0.0984408
0.110646
-0.149094
-0.138556
-0.132508
-0.121293
-0.107613
-0.0908854
-0.0721777
-0.0522092
-0.0318182
-0.0116705
0.00768234
0.0258447
0.0425569
0.0576786
0.071167
0.0830446
0.0933975
0.102461
0.109127
0.12084
-0.123203
-0.115138
-0.109968
-0.0998942
-0.0870208
-0.0710648
-0.05306
-0.0337909
-0.0140988
0.00533313
0.0239553
0.0413769
0.0573464
0.0717321
0.0845001
0.0956797
0.105365
0.113786
0.119855
0.13105
-0.096826
-0.0912682
-0.0869905
-0.0780832
-0.0660421
-0.0508899
-0.0336236
-0.0150883
0.00386638
0.0225462
0.0404039
0.057054
0.0722536
0.0858802
0.0979084
0.108374
0.117379
0.125146
0.130616
0.141268
-0.0699899
-0.0669721
-0.0635995
-0.0558823
-0.0446992
-0.0303818
-0.0138884
0.00387686
0.0220575
0.03995
0.0570103
0.0728594
0.0872632
0.100109
0.111378
0.121115
0.129427
0.136531
0.1414
0.151479
-0.0427197
-0.042278
-0.0398195
-0.0333153
-0.023015
-0.00956289
0.00612387
0.0230834
0.0404543
0.0575253
0.0737566
0.0887761
0.102359
0.114403
0.124897
0.13389
0.141499
0.147928
0.152198
0.161673
-0.0150398
-0.0172174
-0.0156764
-0.0104065
-0.00101364
0.0115433
0.0263903
0.0425094
0.059036
0.0752524
0.0906242
0.104787
0.117527
0.128748
0.13845
0.146687
0.153582
0.159327
0.163001
0.171834
0.0129892
0.00820817
0.00880334
0.0128183
0.0212799
0.0329125
0.0468874
0.0621324
0.0777811
0.093111
0.107594
0.120875
0.132748
0.143129
0.152024
0.159493
0.165665
0.170716
0.1738
0.181944
0.0413624
0.0339477
0.0335915
0.0363322
0.0438395
0.0545193
0.067591
0.0819292
0.0966677
0.111081
0.124648
0.137022
0.148008
0.157532
0.165606
0.172295
0.177735
0.182081
0.184586
0.191981
0.070046
0.0599731
0.0586594
0.0601073
0.0666382
0.0763379
0.0884759
0.101876
0.115673
0.129141
0.141766
0.15321
0.163291
0.17194
0.17918
0.18508
0.18978
0.193412
0.19535
0.20192
0.0990049
0.0862563
0.0839775
0.0841149
0.0896481
0.0983413
0.109517
0.121949
0.134776
0.14727
0.158928
0.169422
0.178578
0.18634
0.192733
0.197835
0.201787
0.204695
0.206085
0.211723
0.128208
0.112766
0.109515
0.108326
0.112841
0.120502
0.130687
0.142123
0.153951
0.165447
0.176115
0.185639
0.193855
0.200715
0.206252
0.210547
0.213743
0.215918
0.216785
0.221345
0.157625
0.139473
0.135243
0.13271
0.136187
0.142793
0.151961
0.162373
0.173177
0.183649
0.193307
0.201843
0.209104
0.21505
0.219721
0.223203
0.225637
0.227067
0.227444
0.230721
0.187223
0.166339
0.161125
0.157234
0.159657
0.165184
0.173311
0.182673
0.192429
0.201856
0.210484
0.218015
0.224309
0.229332
0.233129
0.235792
0.237455
0.238135
0.238075
0.239775
0.216944
0.193307
0.187111
0.181854
0.183208
0.18764
0.194704
0.202995
0.211681
0.220044
0.227625
0.234138
0.239452
0.243544
0.24646
0.2483
0.249186
0.24912
0.248722
0.248397
0.246751
0.220329
0.213157
0.206531
0.206807
0.210127
0.21611
0.223311
0.230908
0.23819
0.24471
0.250193
0.254519
0.257672
0.259703
0.260717
0.260816
0.260022
0.259369
0.256355
0.276904
0.247583
0.239384
0.231344
0.230501
0.232673
0.237541
0.243621
0.250103
0.256282
0.261723
0.266164
0.269492
0.2717
0.272843
0.273028
0.272336
0.270825
0.269712
0.262836
0.307989
0.2755
0.266097
0.256507
0.254435
0.255369
0.25905
0.263952
0.269274
0.274317
0.278655
0.282036
0.284356
0.285612
0.285864
0.28522
0.283744
0.281526
0.279422
0.266282
0.338087
0.302728
0.292297
0.281286
0.278075
0.277833
0.280369
0.284119
0.288298
0.292214
0.295454
0.297778
0.299092
0.299399
0.298763
0.297296
0.295052
0.292166
0.28973
0.275121
0.367797
0.329713
0.318308
0.305912
0.301581
0.300172
0.301562
0.304158
0.30719
0.309975
0.312114
0.313379
0.313685
0.313044
0.311523
0.30924
0.306245
0.302702
0.299984
0.285457
0.397373
0.356624
0.344241
0.330458
0.324996
0.322406
0.322638
0.324067
0.325941
0.327587
0.328619
0.328823
0.328121
0.326532
0.324129
0.321034
0.317302
0.313102
0.30991
0.295577
0.426774
0.383406
0.370046
0.354879
0.348279
0.344501
0.343565
0.343818
0.344526
0.345027
0.34495
0.34409
0.342382
0.339849
0.336568
0.332666
0.328202
0.323352
0.319581
0.305314
0.455939
0.409997
0.395669
0.379127
0.371389
0.366418
0.364308
0.36338
0.362919
0.362272
0.361085
0.359165
0.356452
0.352979
0.348827
0.344123
0.338932
0.333433
0.329048
0.314796
0.48483
0.436358
0.421072
0.403165
0.394291
0.388126
0.38484
0.382727
0.381095
0.379301
0.377006
0.374028
0.370317
0.365909
0.36089
0.35539
0.349477
0.343332
0.338307
0.324053
0.513411
0.462452
0.446219
0.42696
0.416952
0.409595
0.405131
0.401834
0.399031
0.396093
0.392694
0.388663
0.383959
0.378625
0.372747
0.366457
0.359826
0.353034
0.347355
0.333074
0.541645
0.48824
0.471073
0.450475
0.43934
0.430793
0.425154
0.420675
0.416704
0.412625
0.408128
0.403052
0.397364
0.391111
0.384383
0.377311
0.369967
0.362531
0.356188
0.341857
0.569494
0.513686
0.495596
0.473676
0.46142
0.45169
0.44488
0.439222
0.43409
0.428878
0.423292
0.417179
0.410517
0.403356
0.395787
0.387941
0.379891
0.371813
0.364805
0.350401
0.596917
0.538751
0.519754
0.496528
0.483161
0.472255
0.46428
0.457453
0.451166
0.444831
0.438165
0.431028
0.423403
0.415345
0.406947
0.398337
0.389589
0.380874
0.373203
0.358708
0.623875
0.563398
0.543508
0.518997
0.50453
0.492459
0.483328
0.47534
0.467911
0.460464
0.45273
0.444582
0.436008
0.427066
0.41785
0.408487
0.39905
0.389705
0.381378
0.366778
0.650327
0.58759
0.566823
0.541048
0.525494
0.512271
0.501997
0.49286
0.484301
0.475756
0.46697
0.457825
0.448317
0.438505
0.428486
0.418383
0.408267
0.3983
0.389327
0.37461
0.676236
0.611289
0.589664
0.562647
0.546022
0.531662
0.520259
0.509989
0.500315
0.490688
0.480867
0.470742
0.460316
0.449652
0.438844
0.428014
0.417232
0.406652
0.397045
0.382201
0.70156
0.634461
0.611995
0.583762
0.566084
0.550604
0.538089
0.526703
0.515932
0.505242
0.494404
0.483318
0.471993
0.460493
0.448914
0.437372
0.425937
0.414757
0.40453
0.38955
0.726263
0.657068
0.633783
0.604361
0.585649
0.569069
0.555461
0.542978
0.531132
0.519398
0.507564
0.495539
0.483334
0.471018
0.458685
0.446448
0.434375
0.422606
0.411775
0.396654
0.750307
0.679077
0.654993
0.62441
0.604687
0.58703
0.57235
0.558793
0.545893
0.533139
0.520333
0.507389
0.494327
0.481215
0.468147
0.455232
0.442538
0.430196
0.418778
0.40351
0.773654
0.700452
0.675592
0.64388
0.623169
0.604459
0.588732
0.574125
0.560196
0.546447
0.532693
0.518856
0.504959
0.491073
0.47729
0.463718
0.450419
0.437519
0.425533
0.410116
0.796268
0.721161
0.695548
0.66274
0.641066
0.621331
0.604583
0.588953
0.574022
0.559306
0.54463
0.529925
0.515218
0.500582
0.486107
0.471896
0.458011
0.444571
0.432035
0.416467
0.818114
0.74117
0.71483
0.68096
0.658352
0.63762
0.61988
0.603256
0.587353
0.571698
0.556129
0.540584
0.525094
0.509732
0.494587
0.47976
0.465309
0.451345
0.438281
0.422561
0.839158
0.760449
0.733407
0.698512
0.675
0.653302
0.634601
0.617015
0.600171
0.583609
0.567176
0.55082
0.534574
0.518512
0.502722
0.4873
0.472304
0.457837
0.444265
0.428393
0.859368
0.778966
0.751249
0.715368
0.690983
0.668354
0.648724
0.63021
0.612459
0.595022
0.577759
0.560622
0.543649
0.526914
0.510504
0.494512
0.478992
0.46404
0.449983
0.433961
0.878711
0.796691
0.768329
0.731501
0.706278
0.682752
0.66223
0.642823
0.624199
0.605923
0.587863
0.569977
0.552308
0.534929
0.517925
0.501386
0.485365
0.469951
0.455431
0.439261
0.897157
0.813598
0.784619
0.746887
0.72086
0.696475
0.675098
0.654836
0.635378
0.616298
0.597476
0.578876
0.560541
0.542547
0.524978
0.507918
0.491419
0.475563
0.460603
0.444289
0.914678
0.829657
0.800092
0.761499
0.734707
0.709503
0.68731
0.666232
0.645979
0.626134
0.606587
0.587306
0.56834
0.549762
0.531654
0.514099
0.497147
0.480872
0.465497
0.449042
0.931244
0.844845
0.814725
0.775316
0.747797
0.721816
0.698847
0.676996
0.655988
0.635418
0.615184
0.59526
0.575695
0.556564
0.537948
0.519926
0.502545
0.485874
0.470106
0.453516
0.946831
0.859135
0.828492
0.788315
0.76011
0.733394
0.709694
0.687112
0.665392
0.644138
0.623256
0.602726
0.582598
0.562947
0.543853
0.52539
0.507606
0.490564
0.474428
0.457709
0.961413
0.872505
0.841373
0.800475
0.771626
0.744221
0.719834
0.696566
0.674179
0.652283
0.630795
0.609696
0.589041
0.568904
0.549362
0.530488
0.512328
0.494937
0.478459
0.461616
0.974966
0.884933
0.853345
0.811777
0.782327
0.754279
0.729252
0.705345
0.682335
0.659843
0.637789
0.616163
0.595017
0.574427
0.55447
0.535214
0.516704
0.49899
0.482194
0.465235
0.987471
0.896399
0.864391
0.822203
0.792197
0.763554
0.737934
0.713437
0.689851
0.666807
0.644232
0.622118
0.60052
0.579512
0.559171
0.539563
0.52073
0.502718
0.485631
0.468563
0.998905
0.906884
0.874491
0.831735
0.80122
0.772032
0.745868
0.720829
0.696716
0.673167
0.650115
0.627554
0.605542
0.584153
0.563461
0.54353
0.524403
0.506119
0.488765
0.471598
1.00925
0.91637
0.883628
0.840358
0.809381
0.779698
0.753042
0.727512
0.702921
0.678914
0.655429
0.632465
0.610078
0.588344
0.567335