/*--------------------------------*- C++ -*----------------------------------*\
  =========                 |
  \\      /  F ield         | OpenFOAM: The Open Source CFD Toolbox
   \\    /   O peration     | Website:  https://openfoam.org
    \\  /    A nd           | Version:  7
     \\/     M anipulation  |
\*---------------------------------------------------------------------------*/
FoamFile
{
    version     2.0;
    format      ascii;
    class       surfaceScalarField;
    location    "30";
    object      phi;
}
// * * * * * * * * * * * * * * * * * * * * * * * * * * * * * * * * * * * * * //

dimensions      [0 3 -1 0 0 0 0];

internalField   nonuniform List<scalar> 
83430
(
-8.22258e-07
8.22258e-07
4.7547e-14
-2.21982e-06
1.39756e-06
5.35726e-14
-3.48018e-06
1.26036e-06
5.32386e-14
-3.99532e-06
5.15136e-07
2.28875e-14
-3.27296e-06
-7.22353e-07
-3.53235e-14
-8.9104e-07
-2.38192e-06
-1.17697e-13
3.51553e-06
-4.40657e-06
-2.23649e-13
1.02711e-05
-6.75553e-06
-3.54464e-13
1.96677e-05
-9.39665e-06
-5.0995e-13
3.1971e-05
-1.23033e-05
-6.90021e-13
4.74212e-05
-1.54502e-05
-8.93474e-13
6.62305e-05
-1.88093e-05
-1.1121e-12
8.85759e-05
-2.23455e-05
-1.37291e-12
0.000114588
-2.60117e-05
-1.66581e-12
0.000144331
-2.97437e-05
-1.99114e-12
0.000177787
-3.34556e-05
-2.34811e-12
0.000214822
-3.70349e-05
-2.73715e-12
0.00025517
-4.03479e-05
-3.15895e-12
0.000298363
-4.3193e-05
-3.61275e-12
-4.56377e-05
-4.09757e-12
0.000344001
-8.1433e-07
1.63659e-06
-2.19084e-06
2.77407e-06
-3.41782e-06
2.48734e-06
-3.88774e-06
9.85056e-07
-3.10849e-06
-1.50161e-06
-6.57919e-07
-4.83249e-06
3.8293e-06
-8.89379e-06
1.06779e-05
-1.36041e-05
2.01807e-05
-1.88994e-05
3.2604e-05
-2.47266e-05
4.81889e-05
-3.10351e-05
6.7149e-05
-3.77694e-05
8.96629e-05
-4.48593e-05
0.000115862
-5.22112e-05
0.000145816
-5.9697e-05
0.000179505
-6.71447e-05
0.000216799
-7.43295e-05
0.000257435
-8.09838e-05
0.000300945
-8.67026e-05
-9.16204e-05
0.000346927
-7.98691e-07
2.43528e-06
-2.13317e-06
4.10855e-06
-3.29339e-06
3.64757e-06
-3.67281e-06
1.36448e-06
-2.77966e-06
-2.39475e-06
-1.91682e-07
-7.42047e-06
4.45693e-06
-1.35424e-05
1.14918e-05
-2.0639e-05
2.12069e-05
-2.86145e-05
3.387e-05
-3.73897e-05
4.97244e-05
-4.68895e-05
6.8986e-05
-5.7031e-05
9.18365e-05
-6.77098e-05
0.000118411
-7.87862e-05
0.000148783
-9.00687e-05
0.000182938
-0.0001013
0.000220751
-0.000112143
0.000261962
-0.000122194
0.000306103
-0.000130844
-0.000138291
0.000352774
-7.75375e-07
3.21065e-06
-2.04695e-06
5.38012e-06
-3.10718e-06
4.70779e-06
-3.35101e-06
1.60831e-06
-2.28722e-06
-3.45855e-06
5.06608e-07
-1.02143e-05
5.39703e-06
-1.84328e-05
1.27109e-05
-2.79529e-05
2.27439e-05
-3.86475e-05
3.57663e-05
-5.04121e-05
5.20241e-05
-6.31473e-05
7.1737e-05
-7.67438e-05
9.50911e-05
-9.1064e-05
0.000122228
-0.000105923
0.000153225
-0.000121066
0.000188078
-0.000136152
0.000226666
-0.000150731
0.000268735
-0.000164264
0.000313822
-0.00017593
-0.000185991
0.000361521
-7.44433e-07
3.95509e-06
-1.93239e-06
6.56808e-06
-2.8596e-06
5.63501e-06
-2.92306e-06
1.67177e-06
-1.63223e-06
-4.74938e-06
1.43546e-06
-1.3282e-05
6.64755e-06
-2.36449e-05
1.43325e-05
-3.56379e-05
2.47884e-05
-4.91034e-05
3.82885e-05
-6.39121e-05
5.50826e-05
-7.99415e-05
7.53952e-05
-9.70565e-05
9.94186e-05
-0.000115087
0.000127301
-0.000133805
0.00015913
-0.000152895
0.000194907
-0.00017193
0.000234525
-0.000190348
0.000277734
-0.000207473
0.000324074
-0.00022227
-0.000235055
0.000373139
-7.05937e-07
4.66102e-06
-1.78973e-06
7.65188e-06
-2.55122e-06
6.39649e-06
-2.3899e-06
1.51045e-06
-8.16141e-07
-6.32314e-06
2.59284e-06
-1.6691e-05
8.20576e-06
-2.92578e-05
1.63531e-05
-4.37852e-05
2.73359e-05
-6.00862e-05
4.14309e-05
-7.80071e-05
5.88928e-05
-9.74034e-05
7.9952e-05
-0.000118116
0.000104808
-0.000139943
0.000133618
-0.000162615
0.00016648
-0.000185757
0.000203408
-0.000208858
0.000244304
-0.000231244
0.00028893
-0.000252099
0.000336828
-0.000270168
-0.000285815
0.000387588
-6.59976e-07
5.321e-06
-1.61931e-06
8.61122e-06
-2.18271e-06
6.95989e-06
-1.7527e-06
1.08043e-06
1.59286e-07
-8.23512e-06
3.97624e-06
-2.05079e-05
1.00683e-05
-3.53499e-05
1.87683e-05
-5.24853e-05
3.03805e-05
-7.16984e-05
4.51863e-05
-9.28128e-05
6.34457e-05
-0.000115663
8.53962e-05
-0.000140066
0.000111246
-0.000165793
0.000141162
-0.000192532
0.000175256
-0.00021985
0.000213555
-0.000247157
0.000255974
-0.000273664
0.000302288
-0.000298413
0.000352041
-0.000319921
-0.000338594
0.00040482
-6.06654e-07
5.92765e-06
-1.42151e-06
9.42607e-06
-1.7549e-06
7.29328e-06
-1.01284e-06
3.38379e-07
1.29192e-06
-1.05399e-05
5.58267e-06
-2.47987e-05
1.22311e-05
-4.19983e-05
2.15728e-05
-6.1827e-05
3.39157e-05
-8.40414e-05
4.95463e-05
-0.000108443
6.87309e-05
-0.000134847
9.17148e-05
-0.00016305
0.000118716
-0.000192794
0.000149914
-0.00022373
0.000185433
-0.00025537
0.000225318
-0.000287042
0.000269499
-0.000317845
0.000317764
-0.000346678
0.000369663
-0.00037182
-0.000393707
0.000424776
-5.46095e-07
6.47375e-06
-1.19676e-06
1.00767e-05
-1.26872e-06
7.36523e-06
-1.71919e-07
-7.58417e-07
2.57934e-06
-1.32911e-05
7.40867e-06
-2.9628e-05
1.46895e-05
-4.92791e-05
2.47604e-05
-7.18979e-05
3.79337e-05
-9.72147e-05
5.45011e-05
-0.000125011
7.4736e-05
-0.000155082
9.88925e-05
-0.000187207
0.000127199
-0.000221101
0.00015985
-0.00025638
0.000196984
-0.000292504
0.000238664
-0.000328722
0.000284838
-0.000364019
0.000335311
-0.00039715
0.000389637
-0.000426146
-0.000451459
0.000447389
-4.78438e-07
6.95219e-06
-9.45574e-07
1.05439e-05
-7.25225e-07
7.14488e-06
7.68174e-07
-2.25182e-06
4.01878e-06
-1.65417e-05
9.45034e-06
-3.50596e-05
1.74382e-05
-5.7267e-05
2.83243e-05
-8.2784e-05
4.24255e-05
-0.000111316
6.00394e-05
-0.000142625
8.14473e-05
-0.00017649
0.000106912
-0.000212672
0.000136675
-0.000250864
0.000170944
-0.000290649
0.000209876
-0.000331435
0.000253553
-0.000372399
0.000301944
-0.000412411
0.000354871
-0.000450077
0.000411895
-0.00048317
-0.000512145
0.000472581
-4.03836e-07
7.35602e-06
-6.68491e-07
1.08085e-05
-1.25602e-07
6.60199e-06
1.80551e-06
-4.18293e-06
5.60716e-06
-2.03434e-05
1.17033e-05
-4.11557e-05
2.04714e-05
-6.6035e-05
3.22568e-05
-9.45693e-05
4.73813e-05
-0.00012644
6.61491e-05
-0.000161393
8.88491e-05
-0.00019919
0.000115755
-0.000239577
0.00014712
-0.000282229
0.000183167
-0.000326696
0.000224073
-0.000372342
0.000269942
-0.000418268
0.000320765
-0.000463234
0.000376383
-0.000505695
0.000436366
-0.000543153
-0.000576047
0.000500267
-3.22455e-07
7.67848e-06
-3.66116e-07
1.08522e-05
5.28872e-07
5.707e-06
2.93786e-06
-6.59192e-06
7.34113e-06
-2.47467e-05
1.41629e-05
-4.79775e-05
2.37825e-05
-7.56547e-05
3.65493e-05
-0.000107336
5.27903e-05
-0.000142681
7.28162e-05
-0.000181418
9.69246e-05
-0.000223299
0.000125399
-0.000268052
0.000158507
-0.000315337
0.000196488
-0.000364677
0.000239538
-0.000415391
0.000287784
-0.000466514
0.000341243
-0.000516693
0.000399777
-0.000564229
0.000462966
-0.000606342
-0.000643432
0.000530351
-2.3448e-07
7.91296e-06
-3.8904e-08
1.06566e-05
1.2368e-06
4.4313e-06
4.16283e-06
-9.51795e-06
9.21702e-06
-2.98008e-05
1.68237e-05
-5.55841e-05
2.73646e-05
-8.61956e-05
4.11928e-05
-0.000121164
5.86407e-05
-0.000160129
8.00261e-05
-0.000202804
0.000105655
-0.000248928
0.000135823
-0.00029822
0.000170809
-0.000350323
0.000210871
-0.000404739
0.000256227
-0.000460747
0.000307027
-0.000517314
0.000363316
-0.000572982
0.000424979
-0.000625892
0.000491608
-0.000672971
-0.000714554
0.00056273
-1.40133e-07
8.05309e-06
3.11797e-07
1.02047e-05
1.99668e-06
2.74641e-06
5.47785e-06
-1.29991e-05
1.12309e-05
-3.55539e-05
1.96803e-05
-6.40336e-05
3.12101e-05
-9.77254e-05
4.61772e-05
-0.000136131
6.49198e-05
-0.000178872
8.77627e-05
-0.000225647
0.000115021
-0.000276186
0.000147001
-0.0003302
0.000183996
-0.000387318
0.00022628
-0.000447024
0.000274094
-0.000508561
0.000327615
-0.000570835
0.000386915
-0.000632282
0.000451907
-0.000690883
0.000522195
-0.000743259
-0.000789649
0.00059729
-3.953e-08
8.09262e-06
6.85953e-07
9.4792e-06
2.80695e-06
6.25418e-07
6.88019e-06
-1.70724e-05
1.33786e-05
-4.20524e-05
2.27267e-05
-7.33817e-05
3.53108e-05
-0.000110309
5.14919e-05
-0.000152313
7.16139e-05
-0.000198994
9.60088e-05
-0.000250042
0.000125001
-0.000305178
0.000158906
-0.000364105
0.000198034
-0.000426446
0.000242675
-0.000491665
0.000293092
-0.000558977
0.000349489
-0.000627233
0.000411969
-0.000694762
0.000480474
-0.000759388
0.000554623
-0.000817408
-0.000868938
0.000633912
6.72245e-08
8.0254e-06
1.08254e-06
8.46389e-06
3.66592e-06
-1.95796e-06
8.36695e-06
-2.17734e-05
1.56557e-05
-4.93411e-05
2.59566e-05
-8.36826e-05
3.96581e-05
-0.000124011
5.71257e-05
-0.00016978
7.87086e-05
-0.000220577
0.000104746
-0.000276079
0.000135571
-0.000336003
0.000171512
-0.000400046
0.000212889
-0.000467823
0.000260013
-0.000538788
0.000313167
-0.000612131
0.000372585
-0.000686651
0.0004384
-0.000760577
0.000510587
-0.000831575
0.000588783
-0.000895604
-0.000952621
0.000672466
1.79482e-07
7.84591e-06
1.50072e-06
7.14265e-06
4.57184e-06
-5.02908e-06
9.9351e-06
-2.71366e-05
1.80575e-05
-5.74635e-05
2.93632e-05
-9.49883e-05
4.4243e-05
-0.000138891
6.30664e-05
-0.000188604
8.61884e-05
-0.000243699
0.000113955
-0.000303846
0.000146709
-0.000368757
0.000184788
-0.000438124
0.000228526
-0.000511561
0.00027825
-0.000588512
0.000334266
-0.000668148
0.000396836
-0.000749221
0.000466128
-0.000829869
0.000542148
-0.000907596
0.000624558
-0.000978014
-0.00104088
0.000712816
2.97347e-07
7.54857e-06
1.93966e-06
5.50034e-06
5.52288e-06
-8.6123e-06
1.15815e-05
-3.31952e-05
2.0579e-05
-6.64611e-05
3.29395e-05
-0.000107349
4.90559e-05
-0.000155007
6.93016e-05
-0.000208849
9.40373e-05
-0.000268434
0.000123616
-0.000333426
0.000158389
-0.000403529
0.000198702
-0.000478438
0.000244905
-0.000557763
0.000297338
-0.000640946
0.000356331
-0.00072714
0.000422173
-0.000815062
0.000495066
-0.000902762
0.000575055
-0.000987585
0.000661826
-0.00106478
-0.00113387
0.000754819
4.20524e-07
7.12804e-06
2.39849e-06
3.52238e-06
6.51713e-06
-1.27309e-05
1.33027e-05
-3.99808e-05
2.32153e-05
-7.63736e-05
3.66783e-05
-0.000120812
5.40867e-05
-0.000172416
7.58179e-05
-0.00023058
0.000102238
-0.000294855
0.000133707
-0.000364895
0.000170583
-0.000440405
0.000213223
-0.000521078
0.000261986
-0.000606526
0.00031723
-0.00069619
0.000379303
-0.000789213
0.000448522
-0.000884282
0.000525126
-0.000979366
0.0006092
-0.00107166
0.000700458
-0.00115604
-0.00123174
0.000798325
5.48763e-07
6.57928e-06
2.8763e-06
1.19484e-06
7.55265e-06
-1.74073e-05
1.50954e-05
-4.75236e-05
2.59609e-05
-8.72391e-05
4.05717e-05
-0.000135423
5.93249e-05
-0.000191169
8.26016e-05
-0.000253857
0.000110773
-0.000323026
0.000144206
-0.000398328
0.000183265
-0.000479464
0.000228316
-0.000566129
0.000279729
-0.000657939
0.000337874
-0.000754335
0.000403119
-0.000854458
0.000475808
-0.000956971
0.000556216
-0.00105977
0.00064447
-0.00115991
0.00074032
-0.00125189
-0.0013346
0.000843177
6.81814e-07
5.89747e-06
3.37218e-06
-1.49553e-06
8.6274e-06
-2.26625e-05
1.69561e-05
-5.58523e-05
2.88103e-05
-9.90933e-05
4.4612e-05
-0.000151224
6.47597e-05
-0.000211316
8.96383e-05
-0.000278736
0.000119624
-0.000353012
0.000155089
-0.000433793
0.000196405
-0.00052078
0.000243946
-0.00061367
0.000298089
-0.000712082
0.000359217
-0.000815463
0.000427715
-0.000922956
0.000503952
-0.00103321
0.00058824
-0.00114406
0.000680749
-0.00125242
0.000781274
-0.00135242
-0.00144253
0.000889212
8.19426e-07
5.07804e-06
3.88518e-06
-4.56128e-06
9.73931e-06
-2.85166e-05
1.8881e-05
-6.4994e-05
3.17579e-05
-0.00011197
4.87908e-05
-0.000168257
7.03798e-05
-0.000232905
9.6913e-05
-0.000305269
0.000128771
-0.00038487
0.000166332
-0.000471354
0.000209973
-0.000564421
0.000260074
-0.000663771
0.00031702
-0.000769028
0.000381205
-0.000879647
0.000453025
-0.000994776
0.000532874
-0.00111306
0.0006211
-0.00123229
0.000717919
-0.00134924
0.000823177
-0.00145768
-0.00155562
0.000936264
9.61346e-07
4.11669e-06
4.41433e-06
-8.01426e-06
1.08863e-05
-3.49886e-05
2.08665e-05
-7.49742e-05
3.47979e-05
-0.000125902
5.30997e-05
-0.000186559
7.61735e-05
-0.000255979
0.00010441
-0.000333506
0.000138195
-0.000418655
0.00017791
-0.000511069
0.000223938
-0.000610449
0.000276663
-0.000716496
0.000336478
-0.000828842
0.00040378
-0.00094695
0.000478981
-0.00106998
0.000562492
-0.00119657
0.000654695
-0.00132449
0.000755856
-0.0014504
0.000865883
-0.0015677
-0.0016739
0.00098416
1.10732e-06
3.00938e-06
4.95866e-06
-1.18656e-05
1.20661e-05
-4.2096e-05
2.29086e-05
-8.58167e-05
3.79241e-05
-0.000140917
5.753e-05
-0.000206165
8.21286e-05
-0.000280578
0.000112114
-0.000363491
0.000147874
-0.000454415
0.000189796
-0.000552991
0.000238266
-0.000658919
0.000293673
-0.000771904
0.000356412
-0.000891581
0.000426886
-0.00101742
0.000505512
-0.0011486
0.00059272
-0.00128378
0.000688922
-0.00142069
0.000794437
-0.00155592
0.00090924
-0.00168251
-0.00179738
0.00103272
1.25709e-06
1.75229e-06
5.5172e-06
-1.61257e-05
1.32766e-05
-4.98554e-05
2.50036e-05
-9.75437e-05
4.11304e-05
-0.000157044
6.20725e-05
-0.000227107
8.82327e-05
-0.000306738
0.000120007
-0.000395265
0.000157787
-0.000492195
0.000201963
-0.000597167
0.000252924
-0.00070988
0.000311062
-0.000830042
0.000376773
-0.000957291
0.000450461
-0.00109111
0.000532548
-0.00123069
0.000623473
-0.0013747
0.000723679
-0.0015209
0.000833534
-0.00166577
0.000953099
-0.00180207
-0.00192606
0.00108178
1.4104e-06
3.41892e-07
6.08893e-06
-2.08042e-05
1.45155e-05
-5.8282e-05
2.71473e-05
-0.000110176
4.44106e-05
-0.000174307
6.67182e-05
-0.000249415
9.4473e-05
-0.000334493
0.000128073
-0.000428864
0.000167911
-0.000532034
0.000214382
-0.000643637
0.000267877
-0.000763375
0.000328787
-0.000890952
0.000397509
-0.00102601
0.000474444
-0.00116805
0.000560015
-0.00131626
0.000654665
-0.00146935
0.000758861
-0.0016251
0.00087302
-0.00177993
0.000997304
-0.00192636
-0.0020599
0.00113114
1.567e-06
-1.22511e-06
6.67286e-06
-2.59101e-05
1.57807e-05
-6.73898e-05
2.93357e-05
-0.000123731
4.7758e-05
-0.000192729
7.14574e-05
-0.000273114
0.000100836
-0.000363871
0.000136293
-0.000464321
0.000178224
-0.000573965
0.000227025
-0.000692438
0.000283087
-0.000819437
0.000346803
-0.000954668
0.000418565
-0.00109777
0.000498772
-0.00124825
0.000587837
-0.00140533
0.000686206
-0.00156772
0.000794362
-0.00173325
0.000912769
-0.00189834
0.0010417
-0.00205529
-0.00219883
0.00118063
1.72664e-06
-2.95175e-06
7.26798e-06
-3.14514e-05
1.70697e-05
-7.71915e-05
3.15648e-05
-0.000138226
5.11663e-05
-0.000212331
7.62806e-05
-0.000298228
0.000107309
-0.0003949
0.00014465
-0.000501663
0.000188702
-0.000618017
0.00023986
-0.000743596
0.000298518
-0.000878095
0.000365064
-0.00102121
0.000439887
-0.0011726
0.000523378
-0.00133174
0.000615939
-0.00149789
0.000718008
-0.00166979
0.000830078
-0.00184532
0.000952653
-0.00202091
0.00108615
-0.00218878
-0.00234275
0.00123007
1.88908e-06
-4.84083e-06
7.87328e-06
-3.74356e-05
1.83802e-05
-8.76984e-05
3.38302e-05
-0.000153676
5.46287e-05
-0.00023313
8.11778e-05
-0.000324777
0.000113877
-0.000427599
0.000153125
-0.000540911
0.00019932
-0.000664212
0.000252858
-0.000797133
0.000314129
-0.000939366
0.000383522
-0.00109061
0.000461417
-0.00125049
0.000548194
-0.00141852
0.000644242
-0.00159394
0.000749981
-0.00177553
0.000865905
-0.00196125
0.000992548
-0.00214755
0.00113048
-0.00232671
-0.00249153
0.00127926
2.05407e-06
-6.8949e-06
8.48775e-06
-4.38693e-05
1.971e-05
-9.89207e-05
3.61277e-05
-0.000170093
5.81383e-05
-0.00025514
8.6139e-05
-0.000352778
0.000120527
-0.000461987
0.000161699
-0.000582083
0.000210053
-0.000712566
0.000265984
-0.000853064
0.000329881
-0.00100326
0.000402127
-0.00116285
0.000483095
-0.00133146
0.000573151
-0.00150858
0.000672665
-0.00169345
0.000782035
-0.0018849
0.00090174
-0.00208095
0.00103233
-0.00227815
0.00117456
-0.00246894
-0.00264502
0.00132804
2.22138e-06
-9.11628e-06
9.11038e-06
-5.07583e-05
2.10567e-05
-0.000110867
3.84531e-05
-0.00018749
6.16883e-05
-0.000278375
9.11537e-05
-0.000382244
0.000127243
-0.000498076
0.000170352
-0.000625192
0.000220875
-0.00076309
0.000279206
-0.000911395
0.000345731
-0.00106979
0.000420827
-0.00123795
0.000504857
-0.00141549
0.000598175
-0.00160189
0.000701126
-0.0017964
0.000814077
-0.00199785
0.000937482
-0.00220436
0.00107189
-0.00241256
0.00121825
-0.00261529
-0.002803
0.00137623
2.39077e-06
-1.1507e-05
9.74015e-06
-5.81077e-05
2.24179e-05
-0.000123545
4.0802e-05
-0.000205874
6.52716e-05
-0.000302845
9.62117e-05
-0.000413184
0.000134012
-0.000535876
0.000179063
-0.000670244
0.000231759
-0.000815786
0.000292489
-0.000972125
0.000361635
-0.00113893
0.000439567
-0.00131588
0.00052664
-0.00150256
0.000623189
-0.00169844
0.000729537
-0.00190275
0.000846014
-0.00211433
0.000973033
-0.00233137
0.00111112
-0.00255065
0.00126142
-0.00276559
-0.00296524
0.00142366
2.56203e-06
-1.40691e-05
1.03761e-05
-6.59217e-05
2.37912e-05
-0.00013696
4.31699e-05
-0.000225253
6.88811e-05
-0.000328556
0.000101302
-0.000445605
0.000140817
-0.000575391
0.000187813
-0.00071724
0.000242679
-0.000870652
0.000305799
-0.00103524
0.00037755
-0.00121068
0.000458294
-0.00139663
0.000548375
-0.00159265
0.000648115
-0.00179818
0.000757809
-0.00201244
0.00087775
-0.00223427
0.00100829
-0.00246192
0.00114992
-0.00269227
0.00130395
-0.00291962
-0.00313144
0.00147015
2.73494e-06
-1.6804e-05
1.10171e-05
-7.42039e-05
2.51742e-05
-0.000151117
4.55525e-05
-0.000245631
7.25096e-05
-0.000355513
0.000106414
-0.00047951
0.000147644
-0.00061662
0.00019658
-0.000766176
0.000253605
-0.000927677
0.000319098
-0.00110074
0.000393427
-0.00128501
0.000476948
-0.00148015
0.000569992
-0.00168569
0.000672867
-0.00190106
0.000785847
-0.00212542
0.000909183
-0.0023576
0.00104317
-0.00259591
0.0011882
-0.0028373
0.00134577
-0.00307719
-0.00330124
0.00151557
2.90928e-06
-1.97133e-05
1.16622e-05
-8.29568e-05
2.65644e-05
-0.000166019
4.79452e-05
-0.000267012
7.61498e-05
-0.000383718
0.000111538
-0.000514897
0.000154477
-0.00065956
0.000205343
-0.000817042
0.000264511
-0.000986844
0.00033235
-0.00116858
0.000409221
-0.00136189
0.00049547
-0.00156639
0.000591418
-0.00178164
0.000697359
-0.002007
0.000813549
-0.00224161
0.000940209
-0.00248426
0.00107757
-0.00273326
0.00122589
-0.00298563
0.00138681
-0.00323811
-0.0034742
0.00155977
3.08486e-06
-2.27982e-05
1.23104e-05
-9.21823e-05
2.79595e-05
-0.000181668
5.03436e-05
-0.000289396
7.97945e-05
-0.000413169
0.000116661
-0.000551763
0.000161301
-0.0007042
0.000214081
-0.000869822
0.000275366
-0.00104813
0.000345517
-0.00123873
0.000424883
-0.00144125
0.000513798
-0.00165531
0.000612574
-0.00188041
0.000721495
-0.00211592
0.000840806
-0.00236093
0.000970709
-0.00261417
0.00111137
-0.00287393
0.00126295
-0.0031372
0.00142706
-0.00340222
-0.00364981
0.00160267
3.26145e-06
-2.60596e-05
1.29606e-05
-0.000101881
2.93569e-05
-0.000198065
5.27429e-05
-0.000312782
8.3436e-05
-0.000443862
0.000121772
-0.000590099
0.000168099
-0.000750528
0.000222771
-0.000924494
0.000286142
-0.0011115
0.00035856
-0.00131115
0.000440363
-0.00152305
0.00053187
-0.00174682
0.000633383
-0.00198193
0.000745179
-0.00222771
0.000867501
-0.00248325
0.00100055
-0.00274722
0.00114448
-0.00301785
0.00129933
-0.00329206
0.00146656
-0.00356944
-0.0038275
0.00164425
3.43884e-06
-2.94985e-05
1.36118e-05
-0.000112054
3.07541e-05
-0.000215207
5.51387e-05
-0.000337167
8.70671e-05
-0.00047579
0.000126861
-0.000629894
0.000174856
-0.000798522
0.000231392
-0.00098103
0.00029681
-0.00117692
0.000371442
-0.00138578
0.000455611
-0.00160722
0.000549622
-0.00184083
0.000653763
-0.00208607
0.000768305
-0.00234226
0.000893503
-0.00260845
0.00102959
-0.0028833
0.00117674
-0.003165
0.001335
-0.00345032
0.00150539
-0.00373983
-0.00400677
0.00168466
3.61676e-06
-3.31152e-05
1.42627e-05
-0.0001227
3.21486e-05
-0.000233093
5.75263e-05
-0.000362544
9.06801e-05
-0.000508944
0.000131916
-0.00067113
0.000181555
-0.000848161
0.000239921
-0.0010394
0.000307339
-0.00124434
0.000384123
-0.00146256
0.000470577
-0.00169368
0.000566988
-0.00193724
0.00067363
-0.00219271
0.000790768
-0.00245939
0.000918673
-0.00273635
0.00105764
-0.00302227
0.00120798
-0.00331534
0.00136998
-0.00361233
0.00154385
-0.00391369
-0.0041878
0.00172488
3.79483e-06
-3.691e-05
1.49123e-05
-0.000133818
3.35377e-05
-0.000251718
5.99009e-05
-0.000388908
9.42675e-05
-0.00054331
0.000136926
-0.000713789
0.00018818
-0.000899415
0.000248337
-0.00109955
0.0003177
-0.0013137
0.000396565
-0.00154143
0.000485212
-0.00178232
0.000583906
-0.00203593
0.000692901
-0.00230171
0.000812455
-0.00257895
0.000942858
-0.00286675
0.00108449
-0.00316389
0.00123791
-0.00346876
0.00140411
-0.00377853
0.00158361
-0.0040932
-0.00437087
0.00176667
3.92347e-06
-4.08335e-05
1.5453e-05
-0.000145347
3.47507e-05
-0.000271016
6.20253e-05
-0.000416182
9.75235e-05
-0.000578809
0.000141516
-0.000757781
0.000194288
-0.000952187
0.000256127
-0.00116139
0.000327316
-0.00138489
0.000408124
-0.00162224
0.000498807
-0.00187301
0.000599603
-0.00213673
0.000710743
-0.00241284
0.000832467
-0.00270067
0.000965076
-0.00299936
0.00110902
-0.00330784
0.00126514
-0.00362488
0.00143522
-0.00394862
0.00162489
-0.00428287
-0.0046103
0.00186433
4.09672e-06
-4.49302e-05
1.60883e-05
-0.000157339
3.61097e-05
-0.000291037
6.43447e-05
-0.000444417
0.000101018
-0.000615482
0.00014638
-0.000803143
0.000200693
-0.0010065
0.000264222
-0.00122492
0.000337224
-0.00145789
0.000419941
-0.00170495
0.000512597
-0.00196566
0.000615397
-0.00223953
0.000728539
-0.00252599
0.000852239
-0.00282437
0.000986783
-0.00313391
0.00113265
-0.00345371
0.00129078
-0.00378301
0.00146329
-0.00412112
0.00165501
-0.00447459
-0.00483548
0.00188019
4.26909e-06
-4.91993e-05
1.67188e-05
-0.000169789
3.74554e-05
-0.000311774
6.66367e-05
-0.000473598
0.000104464
-0.00065331
0.000151164
-0.000849843
0.000206975
-0.00106231
0.000272137
-0.00129008
0.000346876
-0.00153263
0.000431404
-0.00178948
0.000525908
-0.00206017
0.000630554
-0.00234417
0.000745501
-0.00264093
0.000870921
-0.00294979
0.00100706
-0.00327005
0.00115436
-0.003601
0.00131368
-0.00394233
0.0014868
-0.00429424
0.00167629
-0.00466409
-0.00504904
0.00188985
4.44013e-06
-5.36394e-05
1.73432e-05
-0.000182692
3.87853e-05
-0.000333216
6.88968e-05
-0.00050371
0.000107854
-0.000692267
0.000155857
-0.000897847
0.000213119
-0.00111957
0.000279849
-0.00135681
0.000356244
-0.00160902
0.000442477
-0.00187571
0.000538695
-0.00215638
0.000645021
-0.0024505
0.00076156
-0.00275747
0.000888431
-0.00307666
0.00102581
-0.00340743
0.00117403
-0.00374922
0.00133375
-0.00410205
0.00150618
-0.00446668
0.00169211
-0.00485001
-0.005252
0.00189507
4.6095e-06
-5.82489e-05
1.79602e-05
-0.000196042
4.00967e-05
-0.000355352
7.112e-05
-0.000534733
0.000111179
-0.000732326
0.000160447
-0.000947115
0.000219108
-0.00117823
0.000287338
-0.00142504
0.0003653
-0.00168699
0.000453125
-0.00196354
0.000550916
-0.00225418
0.000658744
-0.00255833
0.000776656
-0.00287539
0.000904699
-0.00320471
0.00104296
-0.00354569
0.00119163
-0.00389789
0.00135107
-0.00426149
0.00152193
-0.00463753
0.00170375
-0.00503183
-0.00544573
0.00189748
4.77689e-06
-6.30258e-05
1.85688e-05
-0.000209834
4.1387e-05
-0.000378171
7.33019e-05
-0.000566648
0.000114433
-0.000773457
0.000164924
-0.000997606
0.000224927
-0.00123824
0.000294584
-0.0014947
0.000374018
-0.00176642
0.000463316
-0.00205284
0.000562531
-0.00235339
0.000671677
-0.00266747
0.000790735
-0.00299444
0.000919669
-0.00333364
0.00105846
-0.00368447
0.00120712
-0.00404656
0.00136574
-0.00442011
0.00153441
-0.0048062
0.00171188
-0.00520931
-0.00563145
0.00189761
4.94204e-06
-6.79679e-05
1.91677e-05
-0.00022406
4.26537e-05
-0.000401657
7.54376e-05
-0.000599432
0.000117608
-0.000815627
0.000169277
-0.00104927
0.000230562
-0.00129952
0.000301567
-0.00156571
0.000382372
-0.00184722
0.000473018
-0.00214348
0.000573503
-0.00245388
0.000683777
-0.00277775
0.00080375
-0.00311442
0.000933296
-0.00346319
0.00107227
-0.00382345
0.00122053
-0.00419482
0.00137787
-0.00457745
0.00154392
-0.00497225
0.00171699
-0.00538237
-0.0058101
0.00189564
5.10468e-06
-7.30726e-05
1.97559e-05
-0.000238711
4.38942e-05
-0.000425795
7.75226e-05
-0.00063306
0.000120697
-0.000858801
0.000173495
-0.00110207
0.000235996
-0.00136202
0.000308266
-0.00163798
0.000390337
-0.00192929
0.0004822
-0.00223535
0.000583794
-0.00255547
0.000695004
-0.00288896
0.000815659
-0.00323507
0.000945542
-0.00359307
0.00108439
-0.0039623
0.00123188
-0.00434231
0.00138755
-0.00473312
0.0015507
-0.00513539
0.00171936
-0.00555103
-0.0059824
0.00189166
5.26456e-06
-7.83371e-05
2.03323e-05
-0.000253779
4.51059e-05
-0.000450568
7.95523e-05
-0.000667507
0.000123692
-0.000902941
0.000177567
-0.00115595
0.000241217
-0.00142567
0.000314663
-0.00171142
0.000397891
-0.00201252
0.000490835
-0.00232829
0.000593374
-0.00265801
0.000705322
-0.00300091
0.000826429
-0.00335618
0.000956379
-0.00372302
0.00109479
-0.00410071
0.00124117
-0.00448869
0.00139487
-0.00488682
0.0015549
-0.00529542
0.00171919
-0.00571533
-0.00614886
0.00188565
5.4214e-06
-8.37585e-05
2.08958e-05
-0.000269253
4.62863e-05
-0.000475959
8.15219e-05
-0.000702742
0.000126587
-0.000948006
0.000181482
-0.00121084
0.000246209
-0.0014904
0.00032074
-0.00178595
0.000405009
-0.00209679
0.000498895
-0.00242218
0.00060221
-0.00276132
0.000714699
-0.00311339
0.000836027
-0.00347751
0.000965783
-0.00385278
0.00110347
-0.00423839
0.00124845
-0.00463368
0.0013999
-0.00503827
0.00155664
-0.00545216
0.0017166
-0.00587528
-0.00630985
0.00187759
5.57494e-06
-8.93334e-05
2.14451e-05
-0.000285124
4.74327e-05
-0.000501947
8.34271e-05
-0.000738737
0.000129373
-0.000993952
0.000185232
-0.0012667
0.000250958
-0.00155613
0.000326477
-0.00186147
0.00041167
-0.00218198
0.000506353
-0.00251686
0.000610276
-0.00286525
0.000723105
-0.00322622
0.000844427
-0.00359883
0.000973735
-0.00398209
0.00111042
-0.00437507
0.00125373
-0.00477699
0.0014027
-0.00518723
0.00155602
-0.00560548
0.00171165
-0.00603091
-0.00646564
0.00186743
5.72491e-06
-9.50584e-05
2.19792e-05
-0.000301378
4.85427e-05
-0.00052851
8.52632e-05
-0.000775457
0.000132044
-0.00104073
0.000188804
-0.00132346
0.000255451
-0.00162277
0.000331859
-0.00193788
0.000417853
-0.00226798
0.000513188
-0.0026122
0.000617544
-0.0029696
0.000730515
-0.0033392
0.000851606
-0.00371992
0.00098022
-0.0041107
0.00111565
-0.0045105
0.00125704
-0.00491838
0.00140331
-0.0053335
0.00155308
-0.00575526
0.00170439
-0.00618222
-0.00661639
0.00185514
5.87102e-06
-0.000100929
2.2497e-05
-0.000318004
4.96137e-05
-0.000555627
8.70256e-05
-0.000812869
0.000134594
-0.0010883
0.00019219
-0.00138106
0.000259675
-0.00169026
0.000336869
-0.00201508
0.000423538
-0.00235465
0.000519375
-0.00270803
0.00062399
-0.00307422
0.000736905
-0.00345211
0.000857544
-0.00384056
0.000985226
-0.00423838
0.00111916
-0.00464443
0.00125839
-0.00505761
0.00140177
-0.00547688
0.00154788
-0.00590137
0.00169485
-0.00632919
-0.00676221
0.00184067
6.013e-06
-0.000106942
2.29973e-05
-0.000334988
5.06431e-05
-0.000583273
8.87099e-05
-0.000850936
0.000137014
-0.0011366
0.000195379
-0.00143942
0.000263616
-0.00175849
0.00034149
-0.00209295
0.000428706
-0.00244186
0.000524893
-0.00280422
0.000629593
-0.00317892
0.000742254
-0.00356477
0.000862224
-0.00396053
0.000988745
-0.0043649
0.00112094
-0.00477663
0.0012578
-0.00519446
0.00139811
-0.00561719
0.00154044
-0.00604371
0.00168304
-0.00647178
-0.00690318
0.001824
6.15055e-06
-0.000113093
2.3479e-05
-0.000352317
5.16284e-05
-0.000611422
9.03116e-05
-0.000889619
0.000139298
-0.00118559
0.000198363
-0.00149849
0.000267263
-0.00182739
0.000345707
-0.00217139
0.000433339
-0.00252949
0.000529723
-0.0029006
0.000634332
-0.00328353
0.000746543
-0.00367698
0.000865632
-0.00407962
0.000990768
-0.00449004
0.00112101
-0.00490687
0.00125528
-0.00532874
0.00139236
-0.00575427
0.00153081
-0.00618216
0.00166899
-0.00660996
-0.0070393
0.00180511
6.28337e-06
-0.000119376
2.39409e-05
-0.000369974
5.2567e-05
-0.000640048
9.18262e-05
-0.000928878
0.000141439
-0.0012352
0.000201131
-0.00155818
0.000270602
-0.00189686
0.000349505
-0.0022503
0.000437421
-0.00261741
0.000533847
-0.00299703
0.00063819
-0.00338787
0.000749757
-0.00378855
0.000867756
-0.00419761
0.000991294
-0.00461358
0.00111937
-0.00503495
0.00125087
-0.00546024
0.00138454
-0.00588794
0.00151901
-0.00631662
0.00165271
-0.00674366
-0.00717059
0.001784
6.41116e-06
-0.000125787
2.43819e-05
-0.000387945
5.34565e-05
-0.000669123
9.32495e-05
-0.000968671
0.000143431
-0.00128539
0.000203674
-0.00161842
0.000273624
-0.00196681
0.000352871
-0.00232954
0.000440935
-0.00270547
0.000537248
-0.00309334
0.00064115
-0.00349177
0.000751882
-0.00389928
0.000868589
-0.00431432
0.000990319
-0.00473531
0.00111603
-0.00516065
0.00124457
-0.00558878
0.00137469
-0.00601807
0.00150506
-0.00644699
0.00163422
-0.00687282
-0.00729703
0.00176066
6.53362e-06
-0.000132321
2.48007e-05
-0.000406212
5.42942e-05
-0.000698616
9.4577e-05
-0.00100895
0.000145268
-0.00133608
0.000205985
-0.00167914
0.000276315
-0.00203714
0.000355791
-0.00240902
0.000443867
-0.00279355
0.000539911
-0.00318939
0.000643198
-0.00359506
0.000752907
-0.00400899
0.000868123
-0.00442954
0.000987846
-0.00485503
0.00111099
-0.0052838
0.0012364
-0.00571418
0.00136283
-0.0061445
0.00148899
-0.00657315
0.00161355
-0.00699738
-0.00741859
0.00173511
6.65044e-06
-0.000138972
2.51963e-05
-0.000424758
5.50777e-05
-0.000728497
9.58046e-05
-0.00104968
0.000146942
-0.00138721
0.000208053
-0.00174025
0.000278667
-0.00210776
0.000358252
-0.0024886
0.000446203
-0.0028815
0.000541822
-0.00328501
0.000644322
-0.00369756
0.000752822
-0.00411749
0.000866355
-0.00454307
0.000983878
-0.00497255
0.00110428
-0.0054042
0.00122639
-0.00583629
0.00134899
-0.0062671
0.00147085
-0.006695
0.00159074
-0.00711727
-0.00753524
0.00170739
6.76129e-06
-0.000145733
2.55675e-05
-0.000443564
5.58045e-05
-0.000758734
9.6928e-05
-0.0010908
0.000148449
-0.00143874
0.000209872
-0.00180167
0.000280668
-0.00217855
0.000360244
-0.00256818
0.000447931
-0.00296919
0.00054297
-0.00338005
0.000644512
-0.0037991
0.000751622
-0.0042246
0.000863285
-0.00465473
0.000978422
-0.00508769
0.0010959
-0.00552168
0.00121455
-0.00595495
0.0013332
-0.00638575
0.00145066
-0.00681246
0.00156582
-0.00723243
-0.00764694
0.00167752
6.86588e-06
-0.000152599