/*--------------------------------*- C++ -*----------------------------------*\
  =========                 |
  \\      /  F ield         | OpenFOAM: The Open Source CFD Toolbox
   \\    /   O peration     | Website:  https://openfoam.org
    \\  /    A nd           | Version:  7
     \\/     M anipulation  |
\*---------------------------------------------------------------------------*/
FoamFile
{
    version     2.0;
    format      ascii;
    class       volVectorField;
    location    "30";
    object      U;
}
// * * * * * * * * * * * * * * * * * * * * * * * * * * * * * * * * * * * * * //

dimensions      [0 1 -1 0 0 0 0];

internalField   nonuniform List<vector> 
42000
(
(-0.000304711 0.000116182 1.81295e-21)
(-0.00135463 0.00018223 -1.49299e-21)
(-0.00261663 0.000144725 1.14578e-22)
(-0.00324519 3.6167e-05 8.70608e-22)
(-0.00303912 -0.000118616 -2.24348e-21)
(-0.00177815 -0.000302758 -1.75819e-21)
(0.000608705 -0.000504068 3.62909e-21)
(0.00415002 -0.000713898 1.96957e-22)
(0.00882832 -0.000925934 2.18571e-21)
(0.0146014 -0.00113541 7.68226e-23)
(0.021408 -0.00133847 3.85803e-22)
(0.0291732 -0.00153167 -8.91717e-23)
(0.0378092 -0.00171154 1.17438e-22)
(0.0472153 -0.00187422 1.84392e-21)
(0.0572748 -0.00201523 1.16236e-21)
(0.067853 -0.00212924 -2.40436e-22)
(0.0787874 -0.00221012 4.31145e-22)
(0.089912 -0.00225134 -1.71564e-21)
(0.100946 -0.00224375 -1.61889e-22)
(0.111852 -0.00219731 1.96246e-21)
(-0.000312137 0.000347295 3.57015e-21)
(-0.0013554 0.000543934 -3.18184e-21)
(-0.00259113 0.000430648 -3.85544e-22)
(-0.0031816 0.000104619 -3.33792e-21)
(-0.00292779 -0.000359732 7.07737e-21)
(-0.00161232 -0.000911914 -7.77636e-21)
(0.000834249 -0.00151541 -8.13504e-21)
(0.00443917 -0.00214433 1.35184e-21)
(0.00918408 -0.00277976 -3.60254e-21)
(0.0150261 -0.00340745 -1.66712e-21)
(0.0219036 -0.00401585 5.26735e-21)
(0.0297411 -0.00459464 -4.39968e-21)
(0.0384509 -0.00513342 2.12154e-21)
(0.0479319 -0.00562067 1.12413e-21)
(0.0580672 -0.00604293 -7.36649e-21)
(0.0687221 -0.00638425 -3.80537e-21)
(0.0797335 -0.00662617 -1.20043e-21)
(0.0909361 -0.00674907 -6.57121e-21)
(0.102041 -0.00672561 4.41882e-21)
(0.113044 -0.00658462 -7.52372e-22)
(-0.000326806 0.000574742 5.01777e-21)
(-0.00135652 0.000897419 9.59308e-21)
(-0.00253958 0.000705906 -6.69946e-21)
(-0.00305382 0.000161279 -4.75049e-21)
(-0.0027045 -0.000612708 -1.7242e-21)
(-0.00128001 -0.00153225 1.09138e-21)
(0.00128595 -0.00253666 1.31145e-20)
(0.00501802 -0.00358299 -1.3213e-21)
(0.00989608 -0.00463983 6.08316e-21)
(0.0158759 -0.00568351 -1.32923e-21)
(0.0228949 -0.00669488 6.50267e-21)
(0.0308772 -0.00765683 2.56817e-21)
(0.0397342 -0.00855209 5.58077e-21)
(0.0493648 -0.00936154 3.97421e-21)
(0.0596517 -0.0100628 1.74259e-20)
(0.0704597 -0.0106292 -1.45648e-22)
(0.0816249 -0.01103 -4.54509e-21)
(0.0929832 -0.0112323 -2.55264e-21)
(0.104229 -0.0111909 -6.27694e-21)
(0.115427 -0.0109503 1.51209e-20)
(-0.000348366 0.000796153 -7.5265e-22)
(-0.00135717 0.00123728 1.48002e-21)
(-0.00246089 0.00096343 4.51503e-21)
(-0.00286061 0.000198313 1.1665e-20)
(-0.00236796 -0.000885436 -7.50749e-21)
(-0.000779959 -0.0021712 6.51474e-21)
(0.00196501 -0.00357445 -1.65322e-20)
(0.00588767 -0.00503539 1.3198e-21)
(0.0109653 -0.0065103 -1.52066e-20)
(0.0171516 -0.00796628 -9.89129e-21)
(0.0243827 -0.0093767 -1.70243e-20)
(0.0325816 -0.0107178 -2.09512e-21)
(0.0416592 -0.0119654 -1.65499e-20)
(0.0515136 -0.0130931 -1.15058e-21)
(0.0620274 -0.0140695 2.50188e-21)
(0.0730646 -0.0148573 -8.80812e-24)
(0.0844599 -0.0154135 1.108e-20)
(0.0960514 -0.0156913 6.70028e-21)
(0.107509 -0.0156285 -1.16012e-20)
(0.118997 -0.0152798 -4.86447e-21)
(-0.000376292 0.00100919 -6.6372e-21)
(-0.00135615 0.00155817 -5.60537e-21)
(-0.00235347 0.00119627 -4.06779e-21)
(-0.00260011 0.000208032 -8.89528e-21)
(-0.00191622 -0.00118565 5.92472e-21)
(-0.000110237 -0.00283605 3.26831e-21)
(0.00287325 -0.0046352 5.03441e-21)
(0.00704978 -0.00650683 -9.72073e-21)
(0.012393 -0.00839517 2.30444e-20)
(0.0188543 -0.0102583 2.4674e-20)
(0.0263676 -0.0120622 2.70617e-21)
(0.0348547 -0.0137767 5.25997e-21)
(0.0442257 -0.0153712 -1.00226e-20)
(0.054378 -0.0168115 1.39339e-20)
(0.0651933 -0.0180576 -3.12408e-21)
(0.0765352 -0.0190618 -7.72681e-21)
(0.0882362 -0.0197683 -4.9383e-21)
(0.100137 -0.0201163 1.11011e-20)
(0.111875 -0.0200273 5.87258e-21)
(0.123749 -0.0195589 -1.18957e-20)
(-0.000409892 0.00121155 6.62478e-21)
(-0.00135184 0.00185489 1.10142e-20)
(-0.00221516 0.00139764 -8.62023e-22)
(-0.00226989 0.000182926 -1.64789e-20)
(-0.00134673 -0.00152088 5.33305e-22)
(0.000731689 -0.00353386 -2.71682e-21)
(0.00401308 -0.00572515 -3.68194e-21)
(0.00850651 -0.00800242 1.35471e-21)
(0.0141813 -0.0102982 5.78249e-21)
(0.0209854 -0.0125618 -1.01414e-20)
(0.0288508 -0.0147522 -2.62651e-20)
(0.0376973 -0.0168328 2.40145e-20)
(0.0474338 -0.0187667 1.4883e-20)
(0.057957 -0.0205125 -1.84033e-20)
(0.0691479 -0.0220216 -1.75788e-20)
(0.080869 -0.0232355 -8.20565e-22)
(0.0929505 -0.024086 7.12869e-21)
(0.105237 -0.0244975 -5.7245e-21)
(0.117323 -0.0243761 1.36051e-21)
(0.129676 -0.023773 1.96343e-20)
(-0.00044831 0.001401 -1.71642e-20)
(-0.00134226 0.00212234 -6.47259e-21)
(-0.00204331 0.00156091 2.07815e-20)
(-0.00186692 0.000115709 3.03438e-20)
(-0.000656312 -0.00189843 -1.36051e-20)
(0.00174897 -0.00427145 -1.54059e-20)
(0.00538748 -0.00685025 -3.71823e-21)
(0.0102606 -0.00952701 1.77388e-20)
(0.0163324 -0.0122229 5.25596e-22)
(0.023547 -0.0148789 6.56107e-22)
(0.0318335 -0.0174471 1.20196e-20)
(0.0411098 -0.0198849 -5.88963e-21)
(0.0512834 -0.0221493 1.80348e-20)
(0.0622499 -0.0241919 4.54205e-21)
(0.0738893 -0.0259555 -1.83861e-20)
(0.0860631 -0.0273712 1.99232e-20)
(0.0985986 -0.0283579 5.05165e-21)
(0.111344 -0.0288246 2.20757e-20)
(0.123845 -0.0286637 1.19974e-20)
(0.136769 -0.0279076 -3.57276e-20)
(-0.00049053 0.00157538 2.65523e-22)
(-0.00132503 0.00235562 1.26924e-20)
(-0.00183476 0.00167974 -3.81915e-21)
(-0.00138758 -6.31317e-07 -3.01125e-20)
(0.000158812 -0.00232527 2.89455e-20)
(0.00294535 -0.00505531 -3.26071e-22)
(0.007 -0.00801616 2.3575e-20)
(0.0123152 -0.0110851 -1.64774e-20)
(0.0188491 -0.0141725 -2.65372e-21)
(0.0265411 -0.0172112 5.59497e-21)
(0.0353172 -0.0201471 9.26386e-21)
(0.045093 -0.0229316 -2.09137e-20)
(0.0557743 -0.0255159 -6.61016e-21)
(0.0672553 -0.0278449 1.44668e-20)
(0.0794151 -0.0298532 2.82836e-20)
(0.092114 -0.0314612 -7.92006e-21)
(0.105176 -0.0325752 -1.37295e-20)
(0.118453 -0.0330874 -5.30982e-20)
(0.131434 -0.0328785 -7.06864e-21)
(0.145019 -0.0319483 4.68477e-21)
(-0.000535381 0.0017326 5.65881e-22)
(-0.00129744 0.00255002 -3.58735e-21)
(-0.00158586 0.00174801 -1.19375e-20)
(-0.0008277 -0.000172787 2.07095e-20)
(0.001103 -0.00280806 -4.13959e-20)
(0.00432515 -0.00589159 2.14513e-20)
(0.00885472 -0.00922815 -2.55888e-20)
(0.0146741 -0.0126809 -1.72016e-20)
(0.0217345 -0.0161498 -3.58183e-20)
(0.0299703 -0.0195602 3.3154e-21)
(0.0393038 -0.0228519 -1.62153e-20)
(0.0496478 -0.0259709 8.92054e-21)
(0.0609062 -0.0288629 -2.21605e-20)
(0.072972 -0.0314665 2.6517e-20)
(0.0857227 -0.033708 1.65951e-21)
(0.0990173 -0.0354975 -3.67594e-20)
(0.112676 -0.0367284 -2.04013e-20)
(0.126556 -0.0372754 2.45987e-21)
(0.14008 -0.0370092 -2.07884e-20)
(0.154411 -0.0358804 -5.70452e-21)
(-0.000581544 0.00187068 -2.44193e-21)
(-0.0012564 0.00270106 1.03404e-20)
(-0.0012925 0.00175993 -9.64906e-21)
(-0.000182585 -0.00040708 -2.51671e-20)
(0.00218119 -0.00335303 3.49763e-20)
(0.00589323 -0.00678599 -2.1881e-20)
(0.0109562 -0.0104911 1.12248e-20)
(0.0173413 -0.014318 4.48694e-20)
(0.0249922 -0.0181573 1.58072e-20)
(0.0338374 -0.0219268 1.63916e-20)
(0.043795 -0.0255609 3.7699e-20)
(0.0547749 -0.0290007 -1.56133e-20)
(0.0666789 -0.0321867 1.28328e-20)
(0.0793981 -0.0350512 -4.94299e-20)
(0.0928087 -0.037513 1.386e-20)
(0.106768 -0.0394719 5.51938e-21)
(0.121092 -0.0408082 5.11156e-20)
(0.135645 -0.0413779 3.00633e-20)
(0.149773 -0.0410439 2.81301e-21)
(0.164934 -0.0396897 9.99771e-21)
(-0.000627558 0.00198774 1.49157e-20)
(-0.00119849 0.0028045 -6.94732e-20)
(-0.000950114 0.00171007 4.42514e-20)
(0.000552981 -0.000709419 -1.30427e-20)
(0.00339882 -0.00396598 -2.40595e-20)
(0.007655 -0.00774376 3.9561e-20)
(0.0133096 -0.0118093 1.91989e-21)
(0.0203216 -0.0159998 -1.72516e-20)
(0.0286261 -0.0201967 1.1657e-20)
(0.0381454 -0.0243115 -2.39997e-20)
(0.048793 -0.0282731 -7.15457e-20)
(0.0604754 -0.0320183 -1.84988e-20)
(0.0730918 -0.0354827 -8.76974e-21)
(0.0865316 -0.0385931 2.71651e-20)
(0.100669 -0.0412609 -4.19381e-20)
(0.115361 -0.0433756 1.01788e-20)
(0.130416 -0.0448046 -1.50614e-21)
(0.145708 -0.0453836 -1.73026e-20)
(0.160498 -0.0449709 1.16344e-20)
(0.17657 -0.0433614 -2.76442e-20)
(-0.000671825 0.00208203 -5.59991e-22)
(-0.00111999 0.00285639 5.05162e-20)
(-0.000553717 0.00159338 -2.4143e-20)
(0.0013847 -0.00108527 -9.25319e-23)
(0.00476185 -0.00465222 1.29723e-20)
(0.00961634 -0.00876963 -6.8829e-20)
(0.0159205 -0.0131866 2.34645e-20)
(0.0236198 -0.017729 -1.00912e-20)
(0.0326404 -0.0222696 -1.77569e-20)
(0.0428976 -0.0267142 5.75056e-20)
(0.0542999 -0.0309869 2.62073e-20)
(0.06675 -0.0350204 5.78477e-20)
(0.0801444 -0.0387461 1.46871e-20)
(0.0943703 -0.0420858 -2.05355e-20)
(0.1093 -0.0449436 2.56617e-20)
(0.124789 -0.0471992 2.32046e-20)
(0.14064 -0.0487071 -1.00105e-21)
(0.156734 -0.0492813 -1.52711e-20)
(0.172243 -0.0487781 3.97336e-20)
(0.189301 -0.0468812 1.18473e-20)
(-0.000712626 0.0021519 2.04779e-20)
(-0.00101686 0.00285306 -4.02332e-20)
(-9.79198e-05 0.00140523 -2.33446e-20)
(0.00231872 -0.0015396 6.47989e-20)
(0.00627672 -0.00541649 -2.58254e-21)
(0.0117836 -0.00986777 5.75334e-20)
(0.0187947 -0.0146263 -2.96612e-20)
(0.0272413 -0.0195076 8.99886e-21)
(0.0370396 -0.0243768 7.07424e-20)
(0.0480975 -0.0291342 -5.8484e-20)
(0.0603179 -0.0337 1.87549e-20)
(0.0735995 -0.0380032 -4.68516e-20)
(0.0878357 -0.0419717 3.02991e-20)
(0.102911 -0.0455222 -2.51767e-20)
(0.118697 -0.0485527 -3.2588e-20)
(0.135045 -0.0509331 -1.06331e-20)
(0.151753 -0.0525049 -3.07563e-20)
(0.168712 -0.0530591 3.15373e-20)
(0.184992 -0.0524532 -8.23406e-20)
(0.203107 -0.0502348 3.24249e-20)
(-0.000748125 0.00219587 -2.57442e-20)
(-0.000884796 0.0027912 6.18913e-20)
(0.000423057 0.0011414 2.64705e-20)
(0.00336163 -0.00207685 -5.24243e-20)
(0.00795031 -0.00626299 1.30083e-21)
(0.0141636 -0.0110417 7.91491e-21)
(0.0219387 -0.0161311 -1.45935e-21)
(0.0311918 -0.0213372 -5.30223e-20)
(0.0418285 -0.0265185 -8.40527e-20)
(0.0537488 -0.0315704 2.55354e-20)
(0.0668494 -0.0364097 3.5257e-20)
(0.0810247 -0.0409625 1.57547e-20)
(0.0961647 -0.0451533 -4.83093e-20)
(0.112152 -0.0488949 1.69009e-20)
(0.128854 -0.0520791 2.48037e-20)
(0.146121 -0.0545668 -2.52269e-20)
(0.163745 -0.0561867 -6.37632e-21)
(0.181626 -0.0567049 2.43371e-20)
(0.198728 -0.0559839 5.71872e-20)
(0.217967 -0.0534077 -2.49804e-20)
(-0.000776367 0.00221258 -1.642e-20)
(-0.000719245 0.00266787 -1.09326e-21)
(0.00101532 0.000798143 -4.23964e-20)
(0.0045204 -0.00270091 6.10485e-20)
(0.00978989 -0.00719526 1.15659e-20)
(0.0167634 -0.0122944 -3.23613e-20)
(0.0253592 -0.0177029 3.81918e-20)
(0.0354772 -0.0232186 2.48487e-20)
(0.0470121 -0.0286941 5.16674e-21)
(0.059855 -0.0340209 -8.87194e-21)
(0.0738966 -0.0391127 -3.64984e-21)
(0.0890262 -0.0438932 2.5799e-20)
(0.10513 -0.0482844 6.62344e-20)
(0.122087 -0.0521956 5.30523e-20)
(0.139764 -0.0555133 -4.95104e-20)
(0.158008 -0.0580895 -3.48037e-20)
(0.176603 -0.0597405 3.26988e-20)
(0.195462 -0.0602062 -5.20233e-20)
(0.213431 -0.0593575 1.01433e-21)
(0.233857 -0.0563859 -2.22924e-20)
(-0.000795288 0.0022008 4.24445e-20)
(-0.000515403 0.00248045 -3.49834e-20)
(0.0016853 0.00037228 2.19698e-20)
(0.00580238 -0.00341503 -3.45065e-20)
(0.0118031 -0.00821622 -2.60802e-20)
(0.0195905 -0.013628 2.23087e-20)
(0.0290631 -0.019343 -6.48705e-20)
(0.0401038 -0.0251521 4.77756e-20)
(0.0525954 -0.0309028 -2.73492e-20)
(0.0664201 -0.0364832 -9.50031e-22)
(0.0814617 -0.041805 -2.73604e-20)
(0.0976042 -0.0467898 -2.92423e-20)
(0.11473 -0.0513578 -6.63931e-20)
(0.132715 -0.0554156 -4.4548e-20)
(0.151422 -0.0588449 6.29477e-20)
(0.170696 -0.0614897 1.50054e-20)
(0.190315 -0.0631541 1.4056e-20)
(0.210202 -0.0635498 3.81891e-20)
(0.229081 -0.0625611 1.22885e-20)
(0.25075 -0.0591552 -1.29128e-20)
(-0.000802738 0.00215952 -2.50198e-20)
(-0.000268243 0.00222668 2.14766e-20)
(0.00243968 -0.000138874 1.93847e-20)
(0.00721521 -0.00422187 3.18649e-22)
(0.0139979 -0.00932807 6.61716e-20)
(0.0226528 -0.015044 -1.07207e-20)
(0.0330578 -0.0210519 1.71323e-20)
(0.0450778 -0.0271369 2.37814e-20)
(0.0585836 -0.0331424 -3.37909e-21)
(0.0734478 -0.0389541 3.75089e-20)
(0.0895468 -0.0444818 1.18563e-22)
(0.106759 -0.049646 -4.57459e-20)
(0.124962 -0.0543657 -1.64004e-20)
(0.144028 -0.0585455 4.0507e-20)
(0.163818 -0.0620631 -2.33087e-20)
(0.184174 -0.0647551 1.88316e-20)
(0.204865 -0.0664143 1.72565e-20)
(0.225827 -0.0667224 -4.77011e-20)
(0.245655 -0.0655817 1.44685e-20)
(0.268618 -0.0617018 8.57255e-20)
(-0.000796508 0.00208787 1.93037e-20)
(2.7447e-05 0.00190471 -1.33498e-22)
(0.00328544 -0.000737454 -7.22306e-21)
(0.0087668 -0.00512342 1.30176e-21)
(0.0163825 -0.0105323 6.10773e-21)
(0.0259583 -0.0165432 -2.95128e-20)
(0.0373505 -0.0228294 -9.03229e-21)
(0.0504058 -0.0291719 -6.58231e-20)
(0.0649821 -0.0354106 6.6853e-20)
(0.0809418 -0.0414296 -1.02603e-20)
(0.0981537 -0.0471377 1.0258e-20)
(0.11649 -0.0524549 1.05633e-20)
(0.135824 -0.0572996 6.29243e-21)
(0.156023 -0.0615751 -6.37585e-20)
(0.176945 -0.0651562 -3.67054e-20)
(0.19843 -0.0678729 4.95278e-20)
(0.220237 -0.0695076 -6.81311e-20)
(0.242318 -0.06971 1.17646e-20)
(0.26313 -0.0684058 -7.47804e-20)
(0.287431 -0.0640121 -5.73922e-20)
(-0.000774309 0.00198516 2.88238e-20)
(0.000377029 0.00151311 -1.69486e-20)
(0.00422974 -0.00142502 -3.37236e-20)
(0.0104653 -0.00612098 1.26372e-20)
(0.0189654 -0.0118297 -1.25161e-19)
(0.0295153 -0.0181255 6.93159e-20)
(0.041949 -0.0246745 8.77989e-20)
(0.0560944 -0.0312547 5.30981e-20)
(0.0717959 -0.0377038 2.51037e-20)
(0.0889056 -0.0439049 1.53401e-20)
(0.107284 -0.0497666 -2.06644e-20)
(0.126797 -0.0552089 -1.11753e-20)
(0.147312 -0.0601503 -6.27314e-20)
(0.168693 -0.0644937 8.46508e-20)
(0.190794 -0.0681121 3.06395e-20)
(0.21345 -0.0708298 -6.6832e-20)
(0.236414 -0.0724197 1.5131e-20)
(0.259652 -0.0724983 2.36201e-20)
(0.281478 -0.07102 6.45828e-20)
(0.307157 -0.0660726 9.73148e-21)
(-0.000733791 0.00185084 -6.5991e-20)
(0.000786006 0.0010509 -5.24492e-20)
(0.00527996 -0.00220255 -6.34617e-20)
(0.0123192 -0.00721515 2.03523e-20)
(0.0217552 -0.0132201 4.4226e-20)
(0.033332 -0.0197899 4.13114e-21)
(0.0468608 -0.0265853 -8.92298e-20)
(0.06215 -0.0333824 -5.59366e-20)
(0.0790302 -0.0400179 -8.69303e-20)
(0.0973426 -0.0463748 -4.44275e-20)
(0.116939 -0.0523617 2.43171e-20)
(0.137679 -0.0578997 5.12215e-20)
(0.159423 -0.0629081 9.27113e-20)
(0.182032 -0.0672901 -3.65276e-20)
(0.205353 -0.0709181 4.21891e-20)
(0.229221 -0.0736117 -3.44064e-20)
(0.253377 -0.0751359 -1.96431e-21)
(0.277806 -0.0750723 -1.87936e-20)
(0.300673 -0.0734105 6.05909e-21)
(0.327761 -0.0678701 2.25863e-20)
(-0.000672557 0.00168456 3.69926e-20)
(0.00126 0.000517485 5.96252e-20)
(0.00644357 -0.0030704 2.85044e-20)
(0.0143368 -0.00840582 -1.89549e-20)
(0.0247607 -0.0147028 4.64745e-20)
(0.0374169 -0.0215349 1.7422e-20)
(0.0520937 -0.0285591 -5.56138e-21)
(0.0685792 -0.0355513 1.75105e-20)
(0.08669 -0.042348 5.72183e-20)
(0.106256 -0.0488328 -2.35856e-20)
(0.12712 -0.0549155 -4.44144e-20)
(0.149134 -0.0605185 -5.88686e-20)
(0.172152 -0.0655625 -7.57367e-20)
(0.19603 -0.0699524 3.73427e-20)
(0.220611 -0.0735607 8.80502e-21)
(0.245726 -0.0762039 4.38953e-20)
(0.271106 -0.0776407 4.16853e-20)
(0.296755 -0.0774167 -5.70485e-20)
(0.320683 -0.0755633 -1.09027e-20)
(0.349207 -0.0693921 7.07037e-20)
(-0.000588171 0.00148614 1.47344e-20)
(0.0018047 -8.72516e-05 -9.18422e-21)
(0.00772817 -0.00402832 7.65307e-20)
(0.0165268 -0.00969212 -1.08553e-19)
(0.0279906 -0.016276 -7.43248e-20)
(0.0417786 -0.0233578 -5.99988e-20)
(0.0576552 -0.0305922 3.12309e-20)
(0.0753884 -0.0377566 2.77788e-20)
(0.0947801 -0.0446882 -4.18142e-21)
(0.115648 -0.0512721 1.67486e-20)
(0.137827 -0.0574197 4.56064e-20)
(0.16116 -0.0630556 1.12089e-19)
(0.185495 -0.0681027 2.16541e-20)
(0.210681 -0.0724681 -2.51112e-20)
(0.236556 -0.076026 6.53502e-21)
(0.262948 -0.0785913 3.31279e-20)
(0.289579 -0.0799183 4.95732e-20)
(0.316471 -0.0795155 4.81372e-20)
(0.341478 -0.077464 2.94481e-20)
(0.371455 -0.0706259 -1.26822e-20)
(-0.000478172 0.00125562 -1.33445e-20)
(0.00242587 -0.000762997 -9.50947e-20)
(0.00914143 -0.00507544 -1.22783e-19)
(0.0188977 -0.0110724 9.95376e-20)
(0.0314539 -0.0179374 2.49356e-20)
(0.0464255 -0.0252552 1.06906e-19)
(0.063553 -0.0326803 -6.46315e-20)
(0.0825836 -0.0399929 -3.4427e-20)
(0.103305 -0.0470319 -1.55916e-20)
(0.125522 -0.0536848 -6.6364e-21)
(0.14906 -0.0598655 -9.81967e-21)
(0.173753 -0.0655009 -1.13515e-19)
(0.199444 -0.0705171 9.08177e-21)
(0.225973 -0.0748244 -1.48024e-20)
(0.253174 -0.0782997 -5.7909e-21)
(0.28087 -0.0807581 -2.25449e-20)
(0.308773 -0.081952 -8.19555e-20)
(0.336925 -0.0813525 2.0866e-20)
(0.363023 -0.0790983 -5.86628e-20)
(0.394466 -0.0715595 -2.45536e-21)
(-0.000340086 0.000993167 5.3435e-20)
(0.0031293 -0.00150899 9.84269e-20)
(0.010691 -0.00621023 1.32611e-19)
(0.0214584 -0.0125444 -8.89376e-20)
(0.0351594 -0.0196836 -2.53848e-20)
(0.0513658 -0.0272227 -1.21739e-19)
(0.0697942 -0.034818 1.29698e-19)
(0.0901708 -0.0422536 1.01944e-20)
(0.112268 -0.0493717 1.43072e-20)
(0.135879 -0.0560625 -1.48513e-20)
(0.160818 -0.0622431 -4.35872e-20)
(0.186911 -0.0678436 1.26039e-19)
(0.213992 -0.0727938 -8.0364e-20)
(0.241896 -0.077008 4.43297e-20)
(0.270449 -0.0803672 2.98667e-20)
(0.299471 -0.0826884 -2.21128e-20)
(0.328662 -0.083725 1.13106e-20)
(0.358087 -0.0829108 -2.1357e-20)
(0.385283 -0.0804514 5.61173e-20)
(0.418196 -0.0721813 -1.25271e-20)
(-0.000171431 0.000699176 8.29958e-21)
(0.00392077 -0.00232399 -6.73383e-20)
(0.0123846 -0.00743056 -1.54582e-20)
(0.0242173 -0.0141048 1.7388e-19)
(0.0391156 -0.0215103 -2.94677e-20)
(0.0566077 -0.0292552 5.73417e-20)
(0.076386 -0.036999 -1.23877e-19)
(0.0981555 -0.0445317 1.65532e-20)
(0.121673 -0.0516992 -2.23084e-20)
(0.14672 -0.0583959 4.09605e-20)
(0.1731 -0.0645424 5.01891e-20)
(0.200629 -0.0700726 -1.47059e-19)
(0.229133 -0.0749205 2.04288e-20)
(0.258439 -0.0790053 8.4791e-20)
(0.288367 -0.0822134 -3.99268e-20)
(0.31873 -0.0843657 1.34964e-20)
(0.349221 -0.0852198 7.96522e-20)
(0.379924 -0.0841731 -2.77661e-20)
(0.40822 -0.0815083 -5.56326e-20)
(0.442601 -0.0724799 -4.92031e-20)
(3.02667e-05 0.000374207 3.16404e-20)
(0.00480604 -0.00320635 3.01281e-20)
(0.0142298 -0.00873361 -6.38437e-20)
(0.0271829 -0.0157499 -9.78813e-20)
(0.0433312 -0.0234127 1.15344e-19)
(0.0621591 -0.0313465 2.18256e-20)
(0.083335 -0.0392162 -4.31561e-20)
(0.106543 -0.0468188 3.52441e-22)
(0.131524 -0.0540054 8.20984e-20)
(0.158046 -0.060675 1.00453e-19)
(0.185902 -0.0667525 -7.8155e-20)
(0.2149 -0.0721761 4.22106e-20)
(0.244855 -0.0768846 1.81567e-20)
(0.275587 -0.0808026 7.8886e-21)
(0.306908 -0.0838233 -6.108e-20)
(0.338624 -0.0857737 -7.90432e-20)
(0.37042 -0.0864188 1.66475e-20)
(0.402402 -0.0851216 -1.72959e-20)
(0.431795 -0.0822537 2.06486e-20)
(0.467635 -0.0724444 4.93159e-20)
(0.000267467 1.90066e-05 -3.15178e-20)
(0.00579082 -0.00415392 2.68762e-20)
(0.0162341 -0.010116 1.26883e-20)
(0.0303635 -0.0174748 1.02869e-19)
(0.0478143 -0.0253848 -1.09185e-19)
(0.0680277 -0.0334897 -9.03565e-20)
(0.0906476 -0.0414614 1.74245e-20)
(0.115337 -0.0491059 -3.88326e-20)
(0.141821 -0.0562803 1.21024e-20)
(0.169856 -0.0628891 -1.596e-19)
(0.199222 -0.068862 5.30857e-20)
(0.229717 -0.074142 1.89597e-20)
(0.261149 -0.0786731 9.33369e-20)
(0.293326 -0.0823861 -3.62389e-20)
(0.326053 -0.0851821 -1.56835e-20)
(0.35913 -0.0868958 1.03535e-19)
(0.392231 -0.0873042 -1.13846e-19)
(0.425484 -0.0857383 9.15457e-21)
(0.455967 -0.0826717 2.4548e-20)
(0.493251 -0.072064 5.31403e-20)
(0.000542601 -0.000365498 -5.75797e-20)
(0.00688073 -0.00516413 2.11183e-20)
(0.0184049 -0.0115735 -1.25898e-20)
(0.0337673 -0.0192741 -1.76008e-19)
(0.0525731 -0.0274198 6.59799e-20)
(0.0742205 -0.0356768 3.4393e-20)
(0.0983296 -0.0437259 -2.23193e-20)
(0.124542 -0.0513833 7.78241e-20)
(0.152568 -0.0585133 -7.84314e-20)
(0.182149 -0.0650269 1.63725e-19)
(0.213055 -0.0708589 -1.05585e-19)
(0.245074 -0.0759579 -1.37368e-19)
(0.278002 -0.0802731 -3.73493e-20)
(0.31164 -0.0837422 6.06108e-21)
(0.345782 -0.0862749 9.17502e-20)
(0.380222 -0.087716 -9.69279e-20)
(0.414622 -0.0878582 5.86868e-20)
(0.449132 -0.0860047 1.97609e-21)
(0.480695 -0.0827463 2.11648e-20)
(0.519397 -0.0713281 -1.56682e-19)
(0.000858065 -0.000778201 9.64779e-20)
(0.00808129 -0.00623394 -7.3867e-20)
(0.0207493 -0.0131016 6.50436e-20)
(0.037402 -0.0211417 1.08181e-19)
(0.0576151 -0.0295103 -6.53922e-20)
(0.0807444 -0.0378991 6.2769e-20)
(0.106386 -0.0459998 4.77017e-20)
(0.134161 -0.0536403 -6.08278e-20)
(0.163764 -0.0606931 -4.76607e-20)
(0.194922 -0.0670763 -9.09787e-20)
(0.227395 -0.0727309 1.6205e-19)
(0.260959 -0.0776109 1.58668e-19)
(0.295401 -0.0816716 -6.11809e-20)
(0.330511 -0.0848575 5.2874e-20)
(0.366073 -0.0870877 3.52848e-20)
(0.401872 -0.0882188 4.96078e-20)
(0.43756 -0.0880632 -3.07328e-20)
(0.473309 -0.0859021 2.072e-20)
(0.505935 -0.0824604 7.26563e-20)
(0.546024 -0.0702259 -4.47723e-21)
(0.00121621 -0.00121782 -1.08719e-19)
(0.00939786 -0.00735989 2.32938e-20)
(0.0232743 -0.0146948 -3.0816e-20)
(0.0412753 -0.0230706 -1.61424e-20)
(0.0629476 -0.0316479 1.05673e-20)
(0.0876055 -0.0401471 -2.53878e-20)
(0.114822 -0.0482725 -6.46907e-20)
(0.144197 -0.0558653 9.64159e-20)
(0.175409 -0.0628073 1.1688e-19)
(0.208173 -0.0690247 8.65704e-20)
(0.242235 -0.0744651 -1.37302e-19)
(0.277363 -0.0790884 -1.1715e-19)
(0.313331 -0.0828558 -2.08174e-20)
(0.349919 -0.0857191 -4.07399e-20)
(0.386901 -0.0876071 5.27638e-20)
(0.424051 -0.0883895 -3.5266e-20)
(0.461013 -0.0879024 2.3091e-20)
(0.497973 -0.0854118 1.98197e-20)
(0.531644 -0.0817961 -1.30193e-19)
(0.573078 -0.0687465 1.09421e-20)
(0.00161934 -0.00168291 -2.05928e-20)
(0.0108357 -0.00853807 1.43589e-19)
(0.0259866 -0.0163473 1.84519e-20)
(0.0453941 -0.0250529 -5.05068e-20)
(0.0685773 -0.0338233 -7.84061e-20)
(0.0948096 -0.0424102 1.87616e-20)
(0.123641 -0.0505325 8.71475e-20)
(0.154651 -0.058046 -3.16663e-20)
(0.187502 -0.0648433 -8.46392e-20)
(0.221895 -0.0708591 -3.35689e-20)
(0.257567 -0.0760483 9.68001e-20)
(0.294272 -0.0803772 -3.47161e-20)
(0.331775 -0.0838131 4.55583e-21)
(0.369843 -0.0863148 -7.56851e-20)
(0.408241 -0.0878209 2.42781e-20)
(0.44673 -0.088215 8.04044e-20)
(0.484946 -0.0873599 4.43004e-20)
(0.523083 -0.0845151 -7.75338e-20)
(0.557779 -0.0807339 -4.41686e-20)
(0.600505 -0.0668776 1.89928e-20)
(0.00206967 -0.00217185 -1.10745e-20)
(0.0123997 -0.00976415 -1.78099e-19)
(0.0288924 -0.0180524 1.1965e-20)
(0.0497653 -0.0270805 -4.91795e-20)
(0.0745104 -0.0360267 -3.26373e-20)
(0.102361 -0.0446773 -4.95825e-20)
(0.132846 -0.0527675 5.3923e-20)
(0.165523 -0.0601695 -4.81596e-21)
(0.20004 -0.0667875 -4.75386e-20)
(0.236085 -0.0725658 -3.47489e-21)
(0.273381 -0.077467 1.01599e-19)
(0.311672 -0.0814643 1.68441e-20)
(0.350713 -0.0845311 6.8913e-20)
(0.39026 -0.0866331 9.13067e-20)
(0.430064 -0.087718 -3.38079e-20)
(0.469877 -0.0876837 -5.82055e-20)
(0.509323 -0.0864213 -1.91358e-20)
(0.548598 -0.0831943 -6.93918e-20)
(0.584299 -0.0792524 5.28089e-21)
(0.628248 -0.0646061 3.00669e-20)
(0.00256938 -0.00268286 -1.8822e-20)
(0.0140948 -0.0110334 5.36418e-20)
(0.0319978 -0.0198031 -6.92809e-20)
(0.0543951 -0.0291441 6.64191e-20)
(0.0807524 -0.0382472 1.18135e-19)
(0.110265 -0.0469363 1.3086e-19)
(0.142439 -0.0549645 -2.81515e-20)
(0.176813 -0.0622221 5.64087e-20)
(0.21302 -0.0686257 -6.63463e-20)
(0.250733 -0.0741305 -4.66713e-20)
(0.289665 -0.0787074 -5.07622e-20)
(0.329548 -0.0823366 1.02017e-19)
(0.370125 -0.084998 -2.87686e-20)
(0.411143 -0.0866637 -6.97306e-20)
(0.452341 -0.0872895 6.58246e-20)
(0.493457 -0.0867868 -8.14497e-20)
(0.534108 -0.0850748 -4.38817e-20)
(0.574477 -0.0814326 1.25463e-19)
(0.611166 -0.0773269 3.03134e-20)
(0.656247 -0.0619156 -4.39062e-20)
(0.00312056 -0.003214 1.11044e-19)
(0.0159254 -0.0123407 5.53056e-20)
(0.0353085 -0.0215917 8.93104e-20)
(0.0592891 -0.0312339 1.25911e-20)
(0.0873084 -0.0404736 3.07136e-20)
(0.118525 -0.0491745 -3.1249e-20)
(0.152422 -0.0571098 -3.44553e-20)
(0.18852 -0.0641893 -8.07868e-20)
(0.226437 -0.0703434 -1.86475e-20)
(0.265832 -0.0755388 -2.16625e-20)
(0.306406 -0.0797556 6.4514e-21)
(0.34788 -0.0829814 -4.1254e-20)
(0.389988 -0.0852026 -1.00131e-19)
(0.432465 -0.0863972 2.6311e-20)
(0.475039 -0.0865281 -6.9879e-20)
(0.517435 -0.0855183 -7.92232e-21)
(0.559263 -0.0833123 8.73164e-20)
(0.600681 -0.0792161 -1.7022e-20)
(0.638345 -0.0749283 6.32782e-21)
(0.68444 -0.0587858 -2.90001e-20)
(0.00372519 -0.00376318 -3.71219e-20)
(0.0178959 -0.0136804 -1.94003e-20)
(0.0388295 -0.02341 -4.57427e-20)
(0.0644525 -0.0333396 7.48189e-20)
(0.0941824 -0.0426935 -6.22178e-20)
(0.127142 -0.0513783 4.00022e-20)
(0.162795 -0.059189 -1.66566e-21)
(0.200641 -0.0660561 -1.2954e-19)
(0.240284 -0.0719253 5.29083e-20)
(0.28137 -0.0767757 2.89139e-20)
(0.323588 -0.0805972 -4.74378e-20)
(0.366649 -0.0833857 -3.3957e-20)
(0.410276 -0.085134 1.67422e-19)
(0.454194 -0.0858257 -4.20486e-21)
(0.498123 -0.0854292 3.42204e-20)
(0.541773 -0.0838764 5.18686e-20)
(0.584752 -0.0811304 -2.3497e-20)
(0.627172 -0.0765353 -8.73641e-20)
(0.665815 -0.0720223 1.18126e-19)
(0.712761 -0.0551935 1.05282e-20)
(0.00438516 -0.00432815 1.03228e-19)
(0.0200102 -0.0150467 9.57325e-21)
(0.0425656 -0.0252491 5.04474e-20)
(0.0698897 -0.0354502 -5.58305e-20)
(0.101378 -0.0448943 -4.2976e-20)
(0.136119 -0.0535338 -4.0859e-20)
(0.173556 -0.0611871 -5.36682e-20)
(0.213172 -0.0678071 4.70029e-20)
(0.254554 -0.0733559 7.26544e-20)
(0.297336 -0.0778259 -1.92978e-20)
(0.341196 -0.0812181 4.24395e-21)
(0.385833 -0.0835368 8.81245e-20)
(0.430961 -0.084782 -1.61861e-19)
(0.476298 -0.0849425 3.50242e-20)
(0.521554 -0.0839905 6.12704e-20)
(0.566431 -0.0818634 -4.94228e-20)
(0.610535 -0.0785325 2.0059e-20)
(0.653915 -0.0733887 5.81361e-20)
(0.693565 -0.0685708 -1.09548e-19)
(0.741145 -0.0511145 7.5314e-20)
(0.00510225 -0.00490655 -1.60046e-19)
(0.0222719 -0.0164332 -3.93073e-20)
(0.0465207 -0.0270999 2.90861e-20)
(0.0756044 -0.037554 -4.79569e-20)
(0.108897 -0.0470626 5.45411e-20)
(0.145456 -0.0556261 -1.4143e-20)
(0.184704 -0.0630883 3.6082e-20)
(0.226107 -0.0694261 6.62487e-20)
(0.269237 -0.074619 -1.38967e-19)
(0.313716 -0.078674 1.01733e-19)
(0.35921 -0.0816037 -3.61687e-21)
(0.405407 -0.0834222 -6.54038e-20)
(0.452013 -0.0841369 1.65945e-19)
(0.498739 -0.0837421 -3.27769e-20)
(0.545291 -0.0822125 -6.6811e-21)
(0.591364 -0.0794869 4.28334e-20)
(0.63657 -0.0755313 4.08167e-20)
(0.680879 -0.0697876 -2.33264e-21)
(0.721599 -0.0645281 6.56657e-20)
(0.769519 -0.0464974 3.64916e-20)
(0.00587824 -0.00549599 -2.50954e-20)
(0.0246844 -0.0178337 -4.23514e-20)
(0.0506988 -0.0289529 -4.73413e-20)
(0.0815999 -0.0396392 1.051e-19)
(0.116743 -0.0491845 1.45571e-20)
(0.155153 -0.0576401 3.72911e-20)
(0.196236 -0.0648768 6.20132e-20)
(0.239441 -0.0708968 -3.23092e-20)
(0.284324 -0.0756984 4.78989e-21)
(0.330495 -0.0793043 -9.1132e-20)
(0.377609 -0.0817399 -1.53526e-20)
(0.425345 -0.0830297 3.30547e-20)
(0.4734 -0.0831897 -6.49116e-20)
(0.52148 -0.0822202 4.15564e-20)
(0.569288 -0.0800979 3.72325e-20)
(0.616522 -0.0767599 2.19159e-20)
(0.662811 -0.0721512 -1.16321e-20)
(0.708036 -0.0657625 -9.77683e-20)
(0.74993 -0.0598207 -6.79603e-20)
(0.797743 -0.0411815 -3.87338e-20)
(0.00671497 -0.00609424 1.05111e-19)
(0.0272509 -0.0192415 4.7777e-20)
(0.0551032 -0.0307984 8.31283e-20)
(0.0878789 -0.0416935 -9.58429e-20)
(0.124915 -0.0512461 -4.47732e-21)
(0.165208 -0.0595606 -4.85767e-20)
(0.208148 -0.0665364 -3.59371e-20)
(0.253164 -0.0722027 9.59498e-20)
(0.299801 -0.0765778 2.21121e-19)
(0.347656 -0.0797013 -2.30751e-20)
(0.396372 -0.0816124 2.00951e-20)
(0.445618 -0.0823474 -6.55674e-20)
(0.495086 -0.0819317 -3.01984e-20)
(0.544476 -0.0803732 -8.09109e-20)
(0.593495 -0.0776516 -4.84438e-20)
(0.641849 -0.0737008 -2.39511e-20)
(0.689205 -0.0684335 8.71953e-22)
(0.735373 -0.0613734 -1.67264e-19)
(0.778627 -0.0543545 1.05599e-19)
(0.825616 -0.034991 -8.2551e-21)
(0.00761307 -0.00669788 -1.40227e-20)
(0.029973 -0.0206487 -8.79409e-20)
(0.0597353 -0.0326251 -1.32656e-19)
(0.094442 -0.0437032 -3.51104e-20)
(0.133413 -0.0532317 -5.02036e-20)
(0.175619 -0.0613706 3.08876e-20)
(0.220433 -0.0680494 2.01421e-20)
(0.267268 -0.073326 -3.10897e-20)
(0.315656 -0.0772398 -1.82775e-19)
(0.36518 -0.0798484 1.90639e-19)
(0.415473 -0.0812062 5.66625e-20)
(0.466196 -0.0813623 -8.91401e-20)
(0.517032 -0.0803537 1.00596e-19)
(0.567681 -0.0781972 8.07128e-20)
(0.617856 -0.0748786 -2.5439e-21)
(0.667281 -0.0703315 -2.23211e-21)
(0.715683 -0.0644367 1.00598e-20)
(0.762886 -0.0567301 7.8595e-20)
(0.807958 -0.0482245 -7.38472e-20)
(0.853694 -0.028632 -1.01913e-19)
(0.00856892 -0.00729943 -1.02821e-19)
(0.0328472 -0.0220429 6.6405e-20)
(0.0645913 -0.0344167 1.9548e-20)
(0.101284 -0.0456492 5.07023e-20)
(0.14223 -0.0551203 3.05872e-20)
(0.186376 -0.0630479 -1.81541e-20)
(0.233078 -0.0693933 -4.39609e-20)
(0.281736 -0.0742442 -1.06023e-19)
(0.331866 -0.0776625 4.67372e-20)
(0.383042 -0.0797252 -2.07933e-19)
(0.434883 -0.0805027 -7.8173e-20)
(0.487041 -0.0800587 2.03823e-19)
(0.539195 -0.0784433 -9.73801e-20)
(0.591043 -0.0756852 -7.43516e-20)
(0.642307 -0.0717804 1.06303e-20)
(0.692736 -0.0666714 -4.50544e-21)
(0.742139 -0.0602252 5.27921e-21)
(0.790453 -0.0520105 4.50574e-20)
(0.838081 -0.0421082 -1.5882e-20)
(0.885495 -0.0244562 -2.70955e-20)
(0.00958249 -0.00789522 2.34454e-20)
(0.035874 -0.0234153 8.43248e-20)
(0.069671 -0.0361613 3.84153e-20)
(0.108403 -0.0475169 -1.76851e-20)
(0.151362 -0.0568957 -8.24633e-21)
(0.197472 -0.0645753 -5.49887e-20)
(0.246074 -0.0705504 3.86764e-20)
(0.296553 -0.0749398 7.31675e-20)
(0.348414 -0.0778291 -6.0726e-20)
(0.401217 -0.0793158 1.79773e-19)
(0.45457 -0.0794878 9.73079e-20)
(0.508118 -0.0784248 -3.77723e-20)