/*--------------------------------*- C++ -*----------------------------------*\
  =========                 |
  \\      /  F ield         | OpenFOAM: The Open Source CFD Toolbox
   \\    /   O peration     | Website:  https://openfoam.org
    \\  /    A nd           | Version:  7
     \\/     M anipulation  |
\*---------------------------------------------------------------------------*/
FoamFile
{
    version     2.0;
    format      ascii;
    class       volScalarField;
    location    "10";
    object      p;
}
// * * * * * * * * * * * * * * * * * * * * * * * * * * * * * * * * * * * * * //

dimensions      [0 2 -2 0 0 0 0];

internalField   nonuniform List<scalar> 
42000
(
-0.405901
-0.409206
-0.40735
-0.404519
-0.3998
-0.393921
-0.386991
-0.379253
-0.370865
-0.361977
-0.35272
-0.343211
-0.333558
-0.323862
-0.314216
-0.304704
-0.295426
-0.286361
-0.277905
-0.269054
-0.40618
-0.409427
-0.407549
-0.40469
-0.399951
-0.394053
-0.387108
-0.379356
-0.370956
-0.362058
-0.352791
-0.343272
-0.33361
-0.323904
-0.314248
-0.304726
-0.295439
-0.28636
-0.277919
-0.268956
-0.406736
-0.409869
-0.407946
-0.405031
-0.400251
-0.394317
-0.387341
-0.379562
-0.371138
-0.362218
-0.352931
-0.343394
-0.333713
-0.323987
-0.314312
-0.304771
-0.295464
-0.286359
-0.277945
-0.268762
-0.407569
-0.41053
-0.408541
-0.405541
-0.400701
-0.394711
-0.387689
-0.37987
-0.37141
-0.362459
-0.353142
-0.343576
-0.333866
-0.324112
-0.314408
-0.304836
-0.295502
-0.286356
-0.277985
-0.26847
-0.408677
-0.411408
-0.409333
-0.40622
-0.401298
-0.395235
-0.388152
-0.380279
-0.371772
-0.362778
-0.353421
-0.343817
-0.33407
-0.324278
-0.314535
-0.304924
-0.295552
-0.286353
-0.278038
-0.26808
-0.410057
-0.412504
-0.410318
-0.407065
-0.402043
-0.395888
-0.388728
-0.380788
-0.372223
-0.363175
-0.353769
-0.344117
-0.334323
-0.324485
-0.314693
-0.305032
-0.295614
-0.286347
-0.278104
-0.267594
-0.411706
-0.413813
-0.411497
-0.408076
-0.402933
-0.396668
-0.389417
-0.381397
-0.372761
-0.363649
-0.354184
-0.344476
-0.334626
-0.324731
-0.314882
-0.305162
-0.295687
-0.28634
-0.278183
-0.267012
-0.413621
-0.415333
-0.412865
-0.409249
-0.403966
-0.397574
-0.390216
-0.382103
-0.373385
-0.364199
-0.354666
-0.344892
-0.334978
-0.325017
-0.315101
-0.305312
-0.295773
-0.286331
-0.278275
-0.266333
-0.415798
-0.417061
-0.41442
-0.410583
-0.405139
-0.398603
-0.391124
-0.382904
-0.374093
-0.364824
-0.355213
-0.345364
-0.335377
-0.325342
-0.31535
-0.305482
-0.29587
-0.28632
-0.27838
-0.26556
-0.418232
-0.418993
-0.416159
-0.412074
-0.406452
-0.399752
-0.392138
-0.3838
-0.374885
-0.365522
-0.355824
-0.345892
-0.335823
-0.325705
-0.315629
-0.305673
-0.295978
-0.286306
-0.278497
-0.264691
-0.420918
-0.421126
-0.418079
-0.413719
-0.407899
-0.401021
-0.393257
-0.384788
-0.375758
-0.366291
-0.356497
-0.346474
-0.336315
-0.326106
-0.315936
-0.305883
-0.296097
-0.286289
-0.278625
-0.263729
-0.42385
-0.423455
-0.420174
-0.415515
-0.409479
-0.402405
-0.394477
-0.385865
-0.37671
-0.36713
-0.357231
-0.347109
-0.336851
-0.326544
-0.316272
-0.306112
-0.296228
-0.286268
-0.278766
-0.262675
-0.427023
-0.425975
-0.422441
-0.417458
-0.411188
-0.403901
-0.395796
-0.38703
-0.377739
-0.368037
-0.358025
-0.347795
-0.337432
-0.327017
-0.316635
-0.306361
-0.296369
-0.286244
-0.278917
-0.261529
-0.43043
-0.428681
-0.424875
-0.419543
-0.413022
-0.405507
-0.397212
-0.388279
-0.378842
-0.369009
-0.358877
-0.348532
-0.338055
-0.327526
-0.317026
-0.306628
-0.29652
-0.286216
-0.279078
-0.260292
-0.434065
-0.431566
-0.427472
-0.421768
-0.414978
-0.407219
-0.39872
-0.38961
-0.380017
-0.370045
-0.359784
-0.349317
-0.33872
-0.328069
-0.317444
-0.306913
-0.296682
-0.286184
-0.279249
-0.258966
-0.437919
-0.434627
-0.430225
-0.424126
-0.417051
-0.409033
-0.400318
-0.391019
-0.381262
-0.371142
-0.360745
-0.350149
-0.339425
-0.328646
-0.317889
-0.307217
-0.296855
-0.286147
-0.279429
-0.257552
-0.441984
-0.437857
-0.43313
-0.426613
-0.419238
-0.410946
-0.402003
-0.392505
-0.382574
-0.372298
-0.361758
-0.351026
-0.34017
-0.329256
-0.318359
-0.30754
-0.297038
-0.286105
-0.279616
-0.256052
-0.446254
-0.441248
-0.436179
-0.429225
-0.421532
-0.412953
-0.40377
-0.394064
-0.38395
-0.373511
-0.362821
-0.351948
-0.340952
-0.329898
-0.318855
-0.30788
-0.297231
-0.286059
-0.279809
-0.254466
-0.450719
-0.444795
-0.439369
-0.431956
-0.423931
-0.415051
-0.405617
-0.395692
-0.385387
-0.374778
-0.363932
-0.352911
-0.341772
-0.330571
-0.319377
-0.308238
-0.297435
-0.286008
-0.280008
-0.252795
-0.45537
-0.44849
-0.442691
-0.4348
-0.426429
-0.417235
-0.407539
-0.397386
-0.386883
-0.376096
-0.365089
-0.353915
-0.342627
-0.331275
-0.319923
-0.308615
-0.297651
-0.285952
-0.28021
-0.251042
-0.460199
-0.452326
-0.44614
-0.437751
-0.429021
-0.419501
-0.409533
-0.399143
-0.388434
-0.377464
-0.366289
-0.354958
-0.343516
-0.332009
-0.320495
-0.30901
-0.297877
-0.285891
-0.280414
-0.249206
-0.465197
-0.456296
-0.449708
-0.440805
-0.431703
-0.421844
-0.411595
-0.40096
-0.390038
-0.378878
-0.367531
-0.356038
-0.344439
-0.332772
-0.321092
-0.309425
-0.298116
-0.285827
-0.280618
-0.247289
-0.470353
-0.460392
-0.45339
-0.443955
-0.434468
-0.42426
-0.41372
-0.402832
-0.391691
-0.380337
-0.368813
-0.357154
-0.345394
-0.333564
-0.321714
-0.30986
-0.298368
-0.28576
-0.280821
-0.245291
-0.475657
-0.464605
-0.457177
-0.447195
-0.437311
-0.426744
-0.415905
-0.404757
-0.39339
-0.381836
-0.370131
-0.358304
-0.346379
-0.334385
-0.322361
-0.310315
-0.298634
-0.285691
-0.281019
-0.243214
-0.4811
-0.468929
-0.461062
-0.450519
-0.440228
-0.429292
-0.418145
-0.406731
-0.395133
-0.383374
-0.371485
-0.359485
-0.347395
-0.335233
-0.323034
-0.310791
-0.298916
-0.285622
-0.281211
-0.241058
-0.486671
-0.473353
-0.465039
-0.453919
-0.443212
-0.431898
-0.420436
-0.408749
-0.396915
-0.384948
-0.372871
-0.360697
-0.348439
-0.336109
-0.323733
-0.311292
-0.299214
-0.285555
-0.281394
-0.238825
-0.49236
-0.477871
-0.469098
-0.457391
-0.446258
-0.434558
-0.422775
-0.410809
-0.398734
-0.386555
-0.374287
-0.361937
-0.349511
-0.337012
-0.324459
-0.311817
-0.299532
-0.285496
-0.281566
-0.236514
-0.498156
-0.482473
-0.473233
-0.460927
-0.44936
-0.437266
-0.425156
-0.412907
-0.400586
-0.388191
-0.375731
-0.363204
-0.350609
-0.337941
-0.325211
-0.312369
-0.299871
-0.285447
-0.281722
-0.23413
-0.504047
-0.487149
-0.477435
-0.46452
-0.452512
-0.440018
-0.427575
-0.415037
-0.402468
-0.389855
-0.3772
-0.364495
-0.351731
-0.338897
-0.325992
-0.312951
-0.300236
-0.285417
-0.281861
-0.231675
-0.510023
-0.491892
-0.481697
-0.468164
-0.455708
-0.442808
-0.430028
-0.417198
-0.404377
-0.391543
-0.378691
-0.365808
-0.352876
-0.339878
-0.326801
-0.313566
-0.300631
-0.285415
-0.281978
-0.229157
-0.516072
-0.496692
-0.48601
-0.471851
-0.458943
-0.445631
-0.432509
-0.419384
-0.406308
-0.393251
-0.380202
-0.36714
-0.354043
-0.340883
-0.32764
-0.314217
-0.301062
-0.285454
-0.282069
-0.22659
-0.522183
-0.501539
-0.490366
-0.475574
-0.462209
-0.448482
-0.435015
-0.421591
-0.408258
-0.394977
-0.381729
-0.36849
-0.355229
-0.341913
-0.32851
-0.314909
-0.301535
-0.285551
-0.28213
-0.223996
-0.528342
-0.506424
-0.494755
-0.479327
-0.4655
-0.451356
-0.43754
-0.423815
-0.410223
-0.396716
-0.38327
-0.369853
-0.356431
-0.342964
-0.329411
-0.315647
-0.302059
-0.285731
-0.282155
-0.221412
-0.534539
-0.511337
-0.49917
-0.483101
-0.468811
-0.454246
-0.44008
-0.426052
-0.412199
-0.398464
-0.38482
-0.371227
-0.357647
-0.344037
-0.330345
-0.316436
-0.302646
-0.286027
-0.282138
-0.218905
-0.54076
-0.516268
-0.503602
-0.486889
-0.472135
-0.457147
-0.44263
-0.428296
-0.414181
-0.400219
-0.386375
-0.372607
-0.358874
-0.345127
-0.33131
-0.317281
-0.303309
-0.28648
-0.282083
-0.216615
-0.546993
-0.521206
-0.50804
-0.490683
-0.475463
-0.460052
-0.445183
-0.430544
-0.416166
-0.401974
-0.387931
-0.37399
-0.360107
-0.346232
-0.332305
-0.318186
-0.304063
-0.287147
-0.282007
-0.21479
-0.553223
-0.526142
-0.512477
-0.494476
-0.478791
-0.462957
-0.447734
-0.432789
-0.418147
-0.403726
-0.389484
-0.37537
-0.36134
-0.347346
-0.333328
-0.319154
-0.304926
-0.288095
-0.281883
-0.21361
-0.559441
-0.531068
-0.516906
-0.498263
-0.482114
-0.465857
-0.450282
-0.43503
-0.420123
-0.405472
-0.391029
-0.376743
-0.362569
-0.348464
-0.334374
-0.320185
-0.305925
-0.289414
-0.281547
-0.212963
-0.565634
-0.535977
-0.521322
-0.50204
-0.485428
-0.46875
-0.452822
-0.437263
-0.42209
-0.407207
-0.392562
-0.378104
-0.363789
-0.349579
-0.335435
-0.321276
-0.307099
-0.291241
-0.281137
-0.214489
-0.571754
-0.540824
-0.52568
-0.505764
-0.488695
-0.471599
-0.455322
-0.439458
-0.424021
-0.408907
-0.394061
-0.379431
-0.364976
-0.350668
-0.336485
-0.322399
-0.308441
-0.293665
-0.282323
-0.229242
-0.577707
-0.545515
-0.529887
-0.509346
-0.491831
-0.474328
-0.457712
-0.441552
-0.425858
-0.410519
-0.395478
-0.38068
-0.366091
-0.35169
-0.33748
-0.323491
-0.30983
-0.296367
-0.286435
-0.275858
-0.583702
-0.550259
-0.534153
-0.512991
-0.495028
-0.477115
-0.460154
-0.443692
-0.427733
-0.41216
-0.396914
-0.38194
-0.367205
-0.352704
-0.338455
-0.324549
-0.311142
-0.298816
-0.288232
-0.294886
-0.589655
-0.554969
-0.53839
-0.516613
-0.498206
-0.479885
-0.46258
-0.445813
-0.429587
-0.413777
-0.39832
-0.383163
-0.368277
-0.353663
-0.339362
-0.325503
-0.312246
-0.300705
-0.288391
-0.302062
-0.595518
-0.559596
-0.542552
-0.520169
-0.501323
-0.4826
-0.464954
-0.447885
-0.431391
-0.415342
-0.399671
-0.384326
-0.36928
-0.354543
-0.340168
-0.326315
-0.313105
-0.302054
-0.28825
-0.305638
-0.601276
-0.564131
-0.546629
-0.523649
-0.504374
-0.485254
-0.46727
-0.449901
-0.433139
-0.416848
-0.400959
-0.385419
-0.370204
-0.355329
-0.340855
-0.326963
-0.313716
-0.302918
-0.287967
-0.307154
-0.606917
-0.568564
-0.550614
-0.527049
-0.507352
-0.487841
-0.469525
-0.451855
-0.434825
-0.418289
-0.402177
-0.386434
-0.371038
-0.356009
-0.34141
-0.327432
-0.314077
-0.30333
-0.28743
-0.307064
-0.612427
-0.572884
-0.554498
-0.530359
-0.510248
-0.490354
-0.471708
-0.453741
-0.43644
-0.419656
-0.403315
-0.38736
-0.371772
-0.35657
-0.341819
-0.32771
-0.314187
-0.303327
-0.28662
-0.305809
-0.617789
-0.577078
-0.558266
-0.533567
-0.513053
-0.492783
-0.473811
-0.455548
-0.437976
-0.42094
-0.404363
-0.388188
-0.372393
-0.357
-0.34207
-0.327788
-0.314046
-0.302948
-0.285557
-0.303733
-0.62299
-0.581134
-0.561909
-0.536664
-0.515757
-0.495118
-0.475826
-0.457268
-0.439424
-0.422131
-0.405312
-0.388905
-0.372891
-0.357288
-0.342152
-0.32766
-0.313656
-0.302227
-0.284259
-0.301059
-0.628011
-0.585037
-0.565413
-0.539638
-0.518348
-0.497349
-0.477741
-0.45889
-0.440772
-0.423219
-0.40615
-0.389502
-0.373253
-0.357422
-0.342056
-0.32732
-0.313021
-0.301194
-0.282736
-0.297936
-0.632839
-0.588775
-0.568766
-0.542477
-0.520817
-0.499466
-0.479548
-0.460406
-0.442012
-0.424194
-0.406866
-0.389967
-0.373471
-0.357393
-0.341774
-0.326766
-0.312145
-0.299872
-0.281
-0.294466
-0.637456
-0.592334
-0.571954
-0.545171
-0.523152
-0.501459
-0.481235
-0.461803
-0.443132
-0.425044
-0.407451
-0.390289
-0.373531
-0.35719
-0.341298
-0.325993
-0.311031
-0.298282
-0.279062
-0.290723
-0.641846
-0.595699
-0.574966
-0.547706
-0.525342
-0.503316
-0.482792
-0.463072
-0.444122
-0.425758
-0.407892
-0.390457
-0.373425
-0.356804
-0.340621
-0.324999
-0.309682
-0.296442
-0.276928
-0.286761
-0.645993
-0.598857
-0.577788
-0.55007
-0.527375
-0.505026
-0.484207
-0.4642
-0.444969
-0.426325
-0.408178
-0.39046
-0.37314
-0.356226
-0.339736
-0.323781
-0.308101
-0.294363
-0.274605
-0.282616
-0.649879
-0.601792
-0.580405
-0.552252
-0.529238
-0.506577
-0.485468
-0.465177
-0.445662
-0.426733
-0.408298
-0.390286
-0.372668
-0.355447
-0.338638
-0.322339
-0.306291
-0.292056
-0.272097
-0.278318
-0.653488
-0.604491
-0.582804
-0.554237
-0.530919
-0.507956
-0.486564
-0.465989
-0.44619
-0.426971
-0.408239
-0.389925
-0.371998
-0.354459
-0.33732
-0.320668
-0.304252
-0.28953
-0.269407
-0.273883
-0.656802
-0.606937
-0.584971
-0.556012
-0.532406
-0.509152
-0.487482
-0.466625
-0.446539
-0.427025
-0.40799
-0.389364
-0.371118
-0.353252
-0.335776
-0.318767
-0.301986
-0.286789
-0.266537
-0.269327
-0.659803
-0.609117
-0.58689
-0.557564
-0.533684
-0.51015
-0.488208
-0.467072
-0.446698
-0.426884
-0.407538
-0.388594
-0.370021
-0.35182
-0.334
-0.316633
-0.299493
-0.283838
-0.263486
-0.264656
-0.662474
-0.611013
-0.588548
-0.558878
-0.534741
-0.510938
-0.488731
-0.467317
-0.446652
-0.426534
-0.406873
-0.387602
-0.368696
-0.350154
-0.331988
-0.314263
-0.296773
-0.280679
-0.260255
-0.259878
-0.664798
-0.61261
-0.589928
-0.55994
-0.535562
-0.511502
-0.489036
-0.467346
-0.44639
-0.425964
-0.405981
-0.386379
-0.367132
-0.348246
-0.329732
-0.311655
-0.293824
-0.277314
-0.25684
-0.254993
-0.666754
-0.613893
-0.591017
-0.560737
-0.536134
-0.511829
-0.489109
-0.467146
-0.445897
-0.42516
-0.404851
-0.384912
-0.365322
-0.34609
-0.327229
-0.308804
-0.290647
-0.273744
-0.253241
-0.250002
-0.668327
-0.614846
-0.591797
-0.561252
-0.536441
-0.511903
-0.488937
-0.466703
-0.44516
-0.42411
-0.403471
-0.383191
-0.363256
-0.343676
-0.324473
-0.305709
-0.287238
-0.269967
-0.249456
-0.244904
-0.669497
-0.615451
-0.592255
-0.561472
-0.536469
-0.511711
-0.488505
-0.466003
-0.444167
-0.4228
-0.401829
-0.381206
-0.360924
-0.340999
-0.321459
-0.302366
-0.283598
-0.265983
-0.245481
-0.239696
-0.670245
-0.615694
-0.592373
-0.56138
-0.536204
-0.511239
-0.4878
-0.465033
-0.442903
-0.421219
-0.399914
-0.378947
-0.358318
-0.338052
-0.318181
-0.298772
-0.279723
-0.261791
-0.241314
-0.234376
-0.670554
-0.615557
-0.592137
-0.560963
-0.535631
-0.51047
-0.486806
-0.463778
-0.441355
-0.419353
-0.397713
-0.376403
-0.355431
-0.334828
-0.314636
-0.294924
-0.275612
-0.257389
-0.236952
-0.228939
-0.670405
-0.615025
-0.59153
-0.560204
-0.534734
-0.509392
-0.48551
-0.462224
-0.43951
-0.417191
-0.395217
-0.373565
-0.352253
-0.331321
-0.310818
-0.290819
-0.271262
-0.252776
-0.232394
-0.223381
-0.66978
-0.61408
-0.590536
-0.559089
-0.533499
-0.507989
-0.483897
-0.460358
-0.437355
-0.41472
-0.392414
-0.370423
-0.348777
-0.327525
-0.306725
-0.286454
-0.266673
-0.24795
-0.227638
-0.217697
-0.668661
-0.612707
-0.589139
-0.557601
-0.531911
-0.506246
-0.481953
-0.458166
-0.434877
-0.411929
-0.389293
-0.366969
-0.344997
-0.323435
-0.302351
-0.281827
-0.261842
-0.242909
-0.22268
-0.211884
-0.667029
-0.610889
-0.587324
-0.555726
-0.529953
-0.504148
-0.479663
-0.455633
-0.432063
-0.408805
-0.385845
-0.363194
-0.340905
-0.319046
-0.297693
-0.276935
-0.256768
-0.237652
-0.217519
-0.205938
-0.664866
-0.60861
-0.585074
-0.553448
-0.527612
-0.501682
-0.477013
-0.452748
-0.428901
-0.405339
-0.38206
-0.359091
-0.336495
-0.314352
-0.292748
-0.271777
-0.25145
-0.232177
-0.212155
-0.199853
-0.662155
-0.605854
-0.582374
-0.550753
-0.524873
-0.498832
-0.47399
-0.449496
-0.425379
-0.401518
-0.377928
-0.354651
-0.331761
-0.309351
-0.287514
-0.26635
-0.245886
-0.226484
-0.206586
-0.193627
-0.658877
-0.602605
-0.579209
-0.547625
-0.521722
-0.495585
-0.47058
-0.445866
-0.421484
-0.397333
-0.373442
-0.349867
-0.326698
-0.304038
-0.281989
-0.260654
-0.240075
-0.220572
-0.200811
-0.187255
-0.655016
-0.598849
-0.575563
-0.544051
-0.518143
-0.491927
-0.466769
-0.441844
-0.417208
-0.392775
-0.368593
-0.344734
-0.321302
-0.29841
-0.276169
-0.254688
-0.234019
-0.21444
-0.194831
-0.180736
-0.650552
-0.594569
-0.571422
-0.540014
-0.514123
-0.487844
-0.462546
-0.43742
-0.412538
-0.387834
-0.363374
-0.339246
-0.315568
-0.292464
-0.270054
-0.248451
-0.227715
-0.208089
-0.188645
-0.174066
-0.645469
-0.589751
-0.566771
-0.535503
-0.509648
-0.483323
-0.457898
-0.432581
-0.407464
-0.382501
-0.357777
-0.333397
-0.309493
-0.286199
-0.263644
-0.241942
-0.221165
-0.201518
-0.182255
-0.167244
-0.639747
-0.58438
-0.561595
-0.530501
-0.504705
-0.478352
-0.452812
-0.427317
-0.401978
-0.37677
-0.351798
-0.327184
-0.303074
-0.279613
-0.256937
-0.235163
-0.21437
-0.194728
-0.175661
-0.160268
-0.633369
-0.578442
-0.555882
-0.524999
-0.499282
-0.472918
-0.447278
-0.421618
-0.39607
-0.370633
-0.345429
-0.320602
-0.296308
-0.272705
-0.249934
-0.228114
-0.207331
-0.187721
-0.168864
-0.153137
-0.626333
-0.57194
-0.54963
-0.518992
-0.493374
-0.467017
-0.441291
-0.415479
-0.389737
-0.364085
-0.33867
-0.313649
-0.289196
-0.265476
-0.242636
-0.220797
-0.200048
-0.180497
-0.161867
-0.14585
-0.618624
-0.564869
-0.542834
-0.512474
-0.486975
-0.460641
-0.434843
-0.408894
-0.382972
-0.357124
-0.331517
-0.306326
-0.281737
-0.257926
-0.235044
-0.213213
-0.192525
-0.173059
-0.154672
-0.138408
-0.610072
-0.557097
-0.535385
-0.505353
-0.480007
-0.453727
-0.427882
-0.40182
-0.375743
-0.349724
-0.32395
-0.298617
-0.273923
-0.25005
-0.227156
-0.205363
-0.184763
-0.165408
-0.14728
-0.130811
-0.600323
-0.548331
-0.527042
-0.497434
-0.472311
-0.446144
-0.420305
-0.394175
-0.367986
-0.341835
-0.315935
-0.290498
-0.265735
-0.241837
-0.218966
-0.197243
-0.176761
-0.157546
-0.139695
-0.12306
-0.590365
-0.539332
-0.518423
-0.489216
-0.464293
-0.438222
-0.412373
-0.386169
-0.359865
-0.333587
-0.30757
-0.282043
-0.257231
-0.23333
-0.210504
-0.188875
-0.168534
-0.149482
-0.131923
-0.115158
-0.57986
-0.529812
-0.509289
-0.480501
-0.455788
-0.429823
-0.403977
-0.377712
-0.351309
-0.324925
-0.298814
-0.273224
-0.248389
-0.224513
-0.201762
-0.180254
-0.160079
-0.141215
-0.123964
-0.107105
-0.568642
-0.519642
-0.499533
-0.471201
-0.446723
-0.42089
-0.395069
-0.368765
-0.34229
-0.315826
-0.289651
-0.264028
-0.239202
-0.215384
-0.192737
-0.17138
-0.151398
-0.132748
-0.115823
-0.0989033
-0.556705
-0.508823
-0.489156
-0.461316
-0.437097
-0.41142
-0.385647
-0.35933
-0.332808
-0.306293
-0.280084
-0.25446
-0.229676
-0.205946
-0.183436
-0.162259
-0.142497
-0.124085
-0.107503
-0.0905555
-0.544053
-0.497363
-0.478164
-0.450849
-0.426912
-0.401415
-0.375713
-0.349408
-0.322866
-0.296329
-0.270117
-0.244524
-0.219814
-0.196206
-0.173863
-0.152895
-0.13338
-0.115231
-0.0990092
-0.0820646
-0.530683
-0.48526
-0.466553
-0.439795
-0.416166
-0.390871
-0.365265
-0.338998
-0.312464
-0.285935
-0.259753
-0.234224
-0.209622
-0.186168
-0.164023
-0.143294
-0.124051
-0.10619
-0.0903459
-0.0734339
-0.516588
-0.472509
-0.454319
-0.428152
-0.404853
-0.379787
-0.354302
-0.328099
-0.301603
-0.275115
-0.248994
-0.223564
-0.199105
-0.175837
-0.153923
-0.13346
-0.114517
-0.0969664
-0.0815183
-0.064667
-0.501765
-0.459109
-0.44146
-0.415917
-0.392973
-0.368162
-0.342823
-0.316713
-0.290286
-0.26387
-0.237847
-0.212551
-0.188268
-0.165221
-0.143567
-0.123401
-0.104782
-0.0875663
-0.0725314
-0.055768
-0.486214
-0.445057
-0.427974
-0.403088
-0.380525
-0.355994
-0.330829
-0.304842
-0.278516
-0.252207
-0.226316
-0.201189
-0.177118
-0.154325
-0.132964
-0.113123
-0.0948534
-0.0779946
-0.06339
-0.0467413
-0.469937
-0.430356
-0.413862
-0.389666
-0.367508
-0.343285
-0.318323
-0.29249
-0.266297
-0.240131
-0.214408
-0.189486
-0.165662
-0.143156
-0.122119
-0.102631
-0.0847369
-0.0682571
-0.0541007
-0.0375875
-0.452935
-0.415006
-0.399124
-0.375653
-0.353926
-0.330039
-0.305308
-0.27966
-0.253635
-0.227647
-0.202129
-0.17745
-0.153908
-0.131723
-0.11104
-0.0919337
-0.0744393
-0.0583617
-0.0446824
-0.0282976
-0.435214
-0.399012
-0.383765
-0.36105
-0.33978
-0.316257
-0.291788
-0.266359
-0.240537
-0.214764
-0.189488
-0.165088
-0.141864
-0.120034
-0.0997362
-0.0810381
-0.063967
-0.0483149
-0.0351558
-0.01888
-0.41678
-0.382377
-0.367788
-0.345862
-0.325075
-0.301946
-0.27777
-0.252592
-0.22701
-0.201489
-0.176494
-0.15241
-0.12954
-0.108097
-0.0882145
-0.0699519
-0.0533273
-0.0381169
-0.0254203
-0.00944064
-0.397641
-0.365107
-0.351198
-0.330094
-0.309817
-0.287111
-0.263259
-0.238369
-0.213063
-0.187832
-0.163156
-0.139426
-0.116944
-0.0959221
-0.0764842
-0.0586834
-0.0425281
-0.0277919
-0.0155642
0.000115004
-0.377807
-0.347211
-0.334002
-0.313752
-0.294011
-0.27176
-0.248265
-0.223697
-0.198704
-0.173803
-0.149484
-0.126145
-0.104088
-0.0835182
-0.0645543
-0.047241
-0.0315768
-0.0173328
-0.00560342
0.00977647
-0.357289
-0.328697
-0.31621
-0.296845
-0.277668
-0.2559
-0.232796
-0.208587
-0.183946
-0.159413
-0.13549
-0.112579
-0.090981
-0.070896
-0.0524344
-0.0356337
-0.0204821
-0.00674716
0.0044652
0.0195284
-0.336099
-0.309575
-0.29783
-0.279381
-0.260795
-0.239543
-0.216863
-0.193049
-0.168799
-0.144673
-0.121185
-0.0987399
-0.077635
-0.0580658
-0.0401344
-0.0238706
-0.00925246
0.00395584
0.0146373
0.0293625
-0.314253
-0.289858
-0.278874
-0.261372
-0.243404
-0.2227
-0.200478
-0.177097
-0.153275
-0.129597
-0.106582
-0.084639
-0.0640616
-0.0450389
-0.0276648
-0.0119612
0.00210345
0.0147679
0.024906
0.039272
-0.291766
-0.269557
-0.259354
-0.242829
-0.225506
-0.205382
-0.183653
-0.160742
-0.137389
-0.114197
-0.0916946
-0.0702896
-0.050273
-0.0318266
-0.015036
8.46636e-05
0.0135766
0.0256808
0.035264
0.0492493
-0.268656
-0.24869
-0.239285
-0.223767
-0.207116
-0.187603
-0.166402
-0.144
-0.121155
-0.0984886
-0.0765357
-0.0557049
-0.0362819
-0.0184409
-0.00225919
0.0122568
0.0251578
0.036686
0.045704
0.0592868
-0.244942
-0.22727
-0.218682
-0.204198
-0.188247
-0.169378
-0.148741
-0.126885
-0.104587
-0.0824855
-0.0611204
-0.040899
-0.0221014
-0.00489412
0.0106543
0.0245448
0.0368374
0.0477746
0.0562184
0.0693765
-0.220645
-0.205317
-0.197561
-0.184141
-0.168916
-0.150724
-0.130686
-0.109416
-0.0877
-0.0662041
-0.0454638
-0.0258861
-0.00774507
0.00880116
0.0236927
0.0369378
0.0486055
0.0589376
0.0667994
0.0795104
-0.195786
-0.182848
-0.175941
-0.163611
-0.14914
-0.131656
-0.112253
-0.0916031
-0.0705157
-0.0496606
-0.0295815
-0.0106813
0.00677307
0.0226319
0.0368439
0.0494248
0.0604521
0.0701656
0.0774387
0.0896798
-0.170389
-0.159884
-0.153842
-0.142628
-0.128938
-0.112195
-0.0934607
-0.0734709
-0.0530477
-0.0328719
-0.0134898
0.00470016
0.0214386
0.0365847
0.0500957
0.0619943
0.0723666
0.0814488
0.088128
0.0998757
-0.14448
-0.136448
-0.131284
-0.121212
-0.108329
-0.0923574
-0.0743288
-0.0550364
-0.0353147
-0.0158557
0.00279444
0.0202424
0.0362369
0.0506458
0.0634354
0.0746348
0.0843383
0.0927774
0.0988586
0.110088
-0.118085
-0.11256
-0.108289
-0.0993836
-0.0873333
-0.072166
-0.0548771
-0.036319
-0.0173362
0.00136977
0.0192541
0.0359294
0.0511527
0.0648014
0.0768499
0.0873341
0.0963563
0.104141
0.109622
0.120308
-0.0912301
-0.0882464
-0.08488
-0.0771655
-0.0659736
-0.0516416
-0.0351266
-0.0173392
0.000868054
0.0187857
0.0358714
0.0517444
0.0661707
0.079037
0.0903261
0.10008
0.108409
0.115528
0.120408
0.130521
-0.0639422
-0.0635342
-0.0610825
-0.0545813
-0.0442727
-0.0308065
-0.0150993
0.00188177
0.0192779
0.036373
0.0526284
0.0676706
0.0812753
0.0933383
0.103851
0.112861
0.120485
0.126929
0.131209
0.140717
-0.0362455
-0.0384551
-0.036922
-0.0316555
-0.0222548
-0.00968442
0.00518198
0.021322
0.0378723
0.0541118
0.0695064
0.0836909
0.0964504
0.10769
0.11741
0.125663
0.132573
0.138331
0.142014
0.15088
-0.00819763
-0.0130132
-0.0124251
-0.00841387
5.50353e-05
0.0117004
0.0256938
0.0409589
0.05663
0.0719819
0.0864868
0.0997878
0.11168
0.122079
0.13099
0.138473
0.144659
0.149723
0.152816
0.160992
0.0201934
0.0127432
0.0123801
0.0151167
0.0226308
0.0333228
0.0464118
0.0607694
0.075529
0.089963
0.10355
0.115944
0.126948
0.136488
0.144577
0.15128
0.156733
0.161092
0.163604
0.171031
0.0488942
0.0387856
0.0374649
0.0389083
0.0454454
0.0551566
0.0673111
0.0807296
0.0945469
0.108034
0.120678
0.132141
0.142238
0.150903
0.158156
0.16407
0.168782
0.172426
0.17437
0.180971
0.0778701
0.0650854
0.0627996
0.0629322
0.068471
0.0771751
0.088366
0.100815
0.113661
0.126174
0.13785
0.148361
0.157533
0.165308
0.171715
0.176829
0.180792
0.183712
0.185108
0.190777
0.10709
0.0916121
0.0883539
0.0871588
0.0916791
0.0993508
0.10955
0.121002
0.132848
0.144361
0.155046
0.164586
0.172816
0.17969
0.185239
0.189545
0.192752
0.194937
0.19581
0.2004
0.136524
0.118335
0.114098
0.111559
0.115041
0.121656
0.130838
0.141265
0.152085
0.162574
0.172247
0.180797
0.188072
0.194031
0.198713
0.202206
0.204649
0.20609
0.206472
0.209778
0.166138
0.145217
0.139996
0.136099
0.138525
0.144061
0.152201
0.161577
0.171348
0.180791
0.189433
0.196978
0.203284
0.208318
0.212126
0.214798
0.216471
0.21716
0.217105
0.218833
0.195874
0.172201
0.165997
0.160734
0.162092
0.166531
0.173607
0.181912
0.190611
0.198989
0.206583
0.213109
0.218434
0.222536
0.225462
0.227311
0.228205
0.228148
0.227755
0.227457
0.225696
0.199238
0.192058
0.185425
0.185704
0.189032
0.195026
0.202239
0.209849
0.217145
0.223676
0.229171
0.233507
0.236669
0.23871
0.239731
0.239839
0.239052
0.238405
0.235417
0.255865
0.226507
0.2183
0.210253
0.209413
0.211591
0.216469
0.222561
0.229055
0.235246
0.240698
0.245149
0.248487
0.250703
0.251854
0.252046
0.251362
0.249859
0.248752
0.241896
0.286965
0.254439
0.245028
0.235431
0.233361
0.2343
0.23799
0.242903
0.248236
0.25329
0.257637
0.261028
0.263356
0.26462
0.26488
0.264243
0.262773
0.260562
0.258463
0.245334
0.317078
0.281681
0.271243
0.260224
0.257015
0.256777
0.259321
0.26308
0.26727
0.271195
0.274445
0.276777
0.278098
0.278412
0.277783
0.276323
0.274084
0.271204
0.268773
0.25417
0.346801
0.308681
0.297267
0.284864
0.280534
0.279128
0.280526
0.28313
0.286171
0.288965
0.291112
0.292384
0.292697
0.292062
0.290547
0.288269
0.28528
0.281742
0.279031
0.264506
0.376391
0.335605
0.323214
0.309423
0.303961
0.301375
0.301613
0.30305
0.304932
0.306585
0.307625
0.307834
0.307138
0.305555
0.303157
0.300067
0.296339
0.292145
0.288958
0.274625
0.405805
0.3624
0.349032
0.333857
0.327257
0.323481
0.32255
0.32281
0.323525
0.324033
0.323962
0.323108
0.321405
0.318876
0.3156
0.311703
0.307243
0.302396
0.298631
0.284363
0.434983
0.389005
0.374669
0.358117
0.350379
0.34541
0.343305
0.342382
0.341927
0.341286
0.340104
0.338188
0.335481
0.332011
0.327862
0.323162
0.317975
0.31248
0.308099
0.293846
0.463886
0.415379
0.400085
0.382168
0.373293
0.367129
0.363847
0.361739
0.360111
0.358322
0.356032
0.353057
0.34935
0.344946
0.33993
0.334433
0.328523
0.32238
0.31736
0.303103
0.492479
0.441484
0.425243
0.405974
0.395965
0.388609
0.384148
0.380855
0.378056
0.375121
0.371726
0.367698
0.362997
0.357665
0.35179
0.345502
0.338874
0.332085
0.326409
0.312126
0.520726
0.467285
0.450109
0.429501
0.418364
0.409817
0.40418
0.399704
0.395736
0.391661
0.387167
0.382092
0.376407
0.370156
0.36343
0.356359
0.349018
0.341583
0.335244
0.32091
0.548585
0.492742
0.474644
0.452714
0.440455
0.430724
0.423915
0.41826
0.41313
0.407921
0.402336
0.396225
0.389564
0.382404
0.374837
0.366992
0.358944
0.350868
0.343862
0.329455
0.576019
0.517819
0.498812
0.475577
0.462206
0.451299
0.443325
0.436498
0.430214
0.42388
0.417215
0.410079
0.402455
0.394397
0.386
0.37739
0.368643
0.35993
0.352261
0.337764
0.602987
0.542476
0.522577
0.498056
0.483585
0.471512
0.462382
0.454394
0.446965
0.439519
0.431786
0.423637
0.415063
0.406121
0.396906
0.387544
0.378107
0.368763
0.360438
0.345835
0.62945
0.566678
0.545903
0.520117
0.504559
0.491333
0.481059
0.471922
0.463362
0.454817
0.446031
0.436885
0.427376
0.417565
0.407545
0.397442
0.387326
0.377359
0.368388
0.353668
0.655368
0.590388
0.568753
0.541726
0.525097
0.510733
0.499329
0.489057
0.479383
0.469755
0.459933
0.449807
0.43938
0.428714
0.417906
0.407076
0.396294
0.385714
0.376108
0.36126
0.680702
0.613569
0.591094
0.56285
0.545167
0.529684
0.517166
0.505778
0.495006
0.484314
0.473475
0.462387
0.45106
0.439559
0.427978
0.416436
0.405001
0.39382
0.383594
0.36861
0.705414
0.636186
0.612891
0.583458
0.564741
0.548157
0.534546
0.52206
0.510212
0.498476
0.48664
0.474612
0.462405
0.450087
0.437752
0.425514
0.41344
0.401671
0.39084
0.375716
0.729466
0.658203
0.63411
0.603516
0.583787
0.566125
0.551442
0.537881
0.524978
0.512222
0.499412
0.486466
0.473401
0.460287
0.447216
0.4343
0.421605
0.409262
0.397844
0.382573
0.752821
0.679587
0.654718
0.622994
0.602276
0.583561
0.56783
0.553219
0.539287
0.525535
0.511777
0.497936
0.484036
0.470147
0.456362
0.442788
0.429487
0.416587
0.4046
0.38918
0.775443
0.700304
0.674682
0.641862
0.620181
0.60044
0.583687
0.568053
0.553118
0.538398
0.523718
0.509009
0.494299
0.479659
0.465181
0.450968
0.437082
0.42364
0.411104
0.395532
0.797296
0.720321
0.693971
0.660089
0.637474
0.616736
0.598991
0.582362
0.566454
0.550795
0.535221
0.519671
0.504177
0.488811
0.473663
0.458833
0.44438
0.430415
0.417351
0.401627
0.818348
0.739607
0.712555
0.677648
0.654129
0.632424
0.613717
0.596126
0.579277
0.56271
0.546272
0.529911
0.513661
0.497594
0.481801
0.466376
0.451377
0.436908
0.423336
0.407461
0.838564
0.75813
0.730405
0.694511
0.670119
0.647482
0.627846
0.609326
0.591569
0.574126
0.556858
0.539716
0.522738
0.505999
0.489585
0.473589
0.458066
0.443113
0.429055
0.41303
0.857914
0.775863
0.747491
0.710651
0.685419
0.661886
0.641357
0.621944
0.603314
0.585031
0.566965
0.549074
0.531399
0.514015
0.497008
0.480465
0.464441
0.449025
0.434503
0.418331
0.876366
0.792775
0.763787
0.726042
0.700007
0.675615
0.65423
0.633961
0.614497
0.59541
0.576581
0.557975
0.539635
0.521636
0.504062
0.486998
0.470496
0.454638
0.439677
0.42336
0.893891
0.808841
0.779266
0.74066
0.713859
0.688648
0.666447
0.645362
0.625101
0.605249
0.585695
0.566408
0.547436
0.528852
0.51074
0.493181
0.476226
0.459948
0.444571
0.428114
0.910463
0.824034
0.793904
0.754483
0.726954
0.700965
0.677988
0.65613
0.635114
0.614536
0.594295
0.574364
0.554793
0.535656
0.517036
0.499009
0.481624
0.464951
0.449181
0.432589
0.926055
0.838329
0.807676
0.767487
0.739272
0.712547
0.688839
0.666249
0.644521
0.623259
0.60237
0.581832
0.561698
0.542041
0.522942
0.504475
0.486687
0.469641
0.453504
0.436782
0.940641
0.851704
0.820562
0.779651
0.750792
0.723378
0.698982
0.675707
0.653311
0.631407
0.609911
0.588805
0.568143
0.547999
0.528452
0.509573
0.491409
0.474015
0.457535
0.44069
0.954199
0.864136
0.832539
0.790957
0.761498
0.73344
0.708404
0.684489
0.66147
0.638969
0.616908
0.595273
0.574121
0.553524
0.533561
0.5143
0.495786
0.478069
0.461271
0.44431
0.966707
0.875606
0.843588
0.801387
0.771371
0.742719
0.717089
0.692583
0.668988
0.645936
0.623352
0.60123
0.579625
0.558611
0.538264
0.51865
0.499814
0.481798
0.464708
0.447638
0.978145
0.886094
0.853691
0.810922
0.780397
0.751199
0.725026
0.699978
0.675856
0.652297
0.629236
0.606667
0.584648
0.563252
0.542554
0.522619
0.503488
0.4852
0.467844
0.450674
0.988494
0.895584
0.862832
0.819549
0.788562
0.758869
0.732203
0.706663
0.682063
0.658047
0.634553
0.61158
0.589186