/*--------------------------------*- C++ -*----------------------------------*\
  =========                 |
  \\      /  F ield         | OpenFOAM: The Open Source CFD Toolbox
   \\    /   O peration     | Website:  https://openfoam.org
    \\  /    A nd           | Version:  7
     \\/     M anipulation  |
\*---------------------------------------------------------------------------*/
FoamFile
{
    version     2.0;
    format      ascii;
    class       surfaceScalarField;
    location    "10";
    object      phi;
}
// * * * * * * * * * * * * * * * * * * * * * * * * * * * * * * * * * * * * * //

dimensions      [0 3 -1 0 0 0 0];

internalField   nonuniform List<scalar> 
83430
(
-8.24565e-07
8.24568e-07
-2.46271e-12
-2.22576e-06
1.4012e-06
-6.83464e-12
-3.48897e-06
1.26323e-06
-1.10155e-11
-4.00438e-06
5.1542e-07
-1.505e-11
-3.27816e-06
-7.26194e-07
-1.89479e-11
-8.86802e-07
-2.39134e-06
-2.27329e-11
3.53621e-06
-4.42299e-06
-2.64255e-11
1.03167e-05
-6.78041e-06
-3.00457e-11
1.97482e-05
-9.43156e-06
-3.36028e-11
3.20982e-05
-1.23499e-05
-3.70637e-11
4.76086e-05
-1.55103e-05
-4.02926e-11
6.64935e-05
-1.88849e-05
-4.26944e-11
8.89323e-05
-2.24387e-05
-4.46824e-11
0.000115057
-2.61247e-05
-4.67671e-11
0.000144936
-2.98787e-05
-4.88947e-11
0.00017855
-3.36147e-05
-5.09632e-11
0.00021577
-3.72197e-05
-5.28701e-11
0.00025633
-4.05597e-05
-5.45676e-11
0.000299762
-4.3432e-05
-5.60846e-11
-4.5904e-05
-5.73855e-11
0.000345666
-8.16606e-07
1.64117e-06
-2.19666e-06
2.78125e-06
-3.42638e-06
2.49295e-06
-3.89642e-06
9.85454e-07
-3.11311e-06
-1.5095e-06
-6.52869e-07
-4.85158e-06
3.85107e-06
-8.92693e-06
1.07249e-05
-1.36543e-05
2.0263e-05
-1.89697e-05
3.27334e-05
-2.48203e-05
4.8379e-05
-3.1156e-05
6.74154e-05
-3.79213e-05
9.00232e-05
-4.50465e-05
0.000116337
-5.24381e-05
0.000146426
-5.99679e-05
0.000180275
-6.74639e-05
0.000217756
-7.47003e-05
0.000258605
-8.14088e-05
0.000302355
-8.71822e-05
-9.21549e-05
0.000348606
-8.00905e-07
2.44208e-06
-2.13878e-06
4.11912e-06
-3.3015e-06
3.65567e-06
-3.68072e-06
1.36468e-06
-2.78313e-06
-2.40709e-06
-1.85013e-07
-7.4497e-06
4.48087e-06
-1.35928e-05
1.15416e-05
-2.0715e-05
2.12928e-05
-2.87208e-05
3.40039e-05
-3.75314e-05
4.992e-05
-4.7072e-05
6.9259e-05
-5.72603e-05
9.22047e-05
-6.79923e-05
0.000118895
-7.91284e-05
0.000149404
-9.04773e-05
0.000183722
-0.000101781
0.000221723
-0.000112702
0.00026315
-0.000122835
0.000307535
-0.000131567
-0.000139098
0.000354478
-7.77495e-07
3.21957e-06
-2.05224e-06
5.39387e-06
-3.11461e-06
4.71805e-06
-3.35779e-06
1.60785e-06
-2.28897e-06
-3.4759e-06
5.1569e-07
-1.02544e-05
5.42421e-06
-1.85013e-05
1.27649e-05
-2.80557e-05
2.28352e-05
-3.8791e-05
3.59068e-05
-5.0603e-05
5.22278e-05
-6.3393e-05
7.20198e-05
-7.70523e-05
9.54711e-05
-9.14437e-05
0.000122725
-0.000106382
0.000153863
-0.000121615
0.000188881
-0.000136799
0.000227661
-0.000151482
0.00026995
-0.000165125
0.000315285
-0.000176902
-0.000187074
0.000363262
-7.46431e-07
3.96601e-06
-1.93725e-06
6.58468e-06
-2.86615e-06
5.64695e-06
-2.92833e-06
1.67003e-06
-1.63172e-06
-4.77251e-06
1.44773e-06
-1.33338e-05
6.67901e-06
-2.37326e-05
1.43921e-05
-3.57689e-05
2.48867e-05
-4.92856e-05
3.84377e-05
-6.4154e-05
5.5297e-05
-8.02523e-05
7.5691e-05
-9.74463e-05
9.98142e-05
-0.000115567
0.000127817
-0.000134385
0.000159789
-0.000153587
0.000195736
-0.000172746
0.00023555
-0.000191296
0.000278985
-0.000208559
0.000325579
-0.000223497
-0.000236423
0.000374928
-7.07783e-07
4.67379e-06
-1.79406e-06
7.67096e-06
-2.55666e-06
6.40955e-06
-2.39331e-06
1.50668e-06
-8.12822e-07
-6.353e-06
2.60905e-06
-1.67557e-05
8.24251e-06
-2.93661e-05
1.64196e-05
-4.39459e-05
2.74428e-05
-6.03088e-05
4.15909e-05
-7.8302e-05
5.91203e-05
-9.77818e-05
8.02637e-05
-0.00011859
0.000105223
-0.000140526
0.000134157
-0.00016332
0.000167167
-0.000186597
0.000204269
-0.000209848
0.000245367
-0.000232394
0.000290225
-0.000253417
0.000338384
-0.000271656
-0.000287475
0.000389437
-6.61642e-07
5.33543e-06
-1.62302e-06
8.63234e-06
-2.18685e-06
6.97338e-06
-1.7539e-06
1.07373e-06
1.65923e-07
-8.27282e-06
3.99711e-06
-2.05869e-05
1.01113e-05
-3.54802e-05
1.88429e-05
-5.26775e-05
3.04977e-05
-7.19637e-05
4.5359e-05
-9.31633e-05
6.36889e-05
-0.000116112
8.57267e-05
-0.000140627
0.000111683
-0.000166482
0.000141728
-0.000193365
0.000175974
-0.000220843
0.000214453
-0.000248326
0.00025708
-0.000275021
0.000303633
-0.00029997
0.000353657
-0.00032168
-0.000340557
0.000406738
-6.08115e-07
5.94355e-06
-1.4245e-06
9.44873e-06
-1.75754e-06
7.30642e-06
-1.01152e-06
3.27708e-07
1.30237e-06
-1.05867e-05
5.60889e-06
-2.48934e-05
1.22812e-05
-4.21526e-05
2.16566e-05
-6.20529e-05
3.40447e-05
-8.43518e-05
4.97336e-05
-0.000108852
6.89919e-05
-0.00013537
9.20668e-05
-0.000163702
0.000119179
-0.000193594
0.00015051
-0.000224696
0.000186188
-0.000256521
0.000226258
-0.000288397
0.000270655
-0.000319418
0.000319168
-0.000348483
0.000371347
-0.000373859
-0.000395983
0.000426773
-5.47326e-07
6.49087e-06
-1.19895e-06
1.01003e-05
-1.26968e-06
7.37715e-06
-1.67761e-07
-7.74209e-07
2.59406e-06
-1.33485e-05
7.44089e-06
-2.97402e-05
1.47477e-05
-4.94594e-05
2.48546e-05
-7.21599e-05
3.80758e-05
-9.75729e-05
5.47047e-05
-0.000125481
7.50169e-05
-0.000155682
9.92686e-05
-0.000187954
0.000127691
-0.000222017
0.00016048
-0.000257485
0.000197778
-0.000293819
0.000239651
-0.000330269
0.000286049
-0.000365816
0.000336778
-0.000399211
0.000391394
-0.000428476
-0.000454061
0.000449472
-4.79415e-07
6.97029e-06
-9.46875e-07
1.05678e-05
-7.2434e-07
7.15461e-06
7.75452e-07
-2.274e-06
4.03819e-06
-1.66113e-05
9.48916e-06
-3.51912e-05
1.75052e-05
-5.74754e-05
2.843e-05
-8.30846e-05
4.2582e-05
-0.000111725
6.02609e-05
-0.00014316
8.17499e-05
-0.000177171
0.000107315
-0.000213519
0.000137198
-0.0002519
0.000171611
-0.000291898
0.000210714
-0.000332922
0.000254591
-0.000374146
0.000303214
-0.00041444
0.000356407
-0.000452404
0.000413733
-0.000485802
-0.000515085
0.000474757
-4.04538e-07
7.37483e-06
-6.68833e-07
1.08321e-05
-1.22712e-07
6.60849e-06
1.81618e-06
-4.21289e-06
5.63167e-06
-2.04268e-05
1.17493e-05
-4.13088e-05
2.0548e-05
-6.62741e-05
3.23748e-05
-9.49114e-05
4.75534e-05
-0.000126904
6.63898e-05
-0.000161996
8.91752e-05
-0.000199957
0.000116186
-0.000240529
0.000147676
-0.000283391
0.000183874
-0.000328096
0.000224958
-0.000374005
0.000271034
-0.000420223
0.000322098
-0.000465504
0.000377992
-0.000508298
0.000438289
-0.000546098
-0.000579337
0.000502541
-3.22863e-07
7.69769e-06
-3.65431e-07
1.08747e-05
5.3391e-07
5.70915e-06
2.95215e-06
-6.63113e-06
7.37109e-06
-2.48457e-05
1.42165e-05
-4.81542e-05
2.38693e-05
-7.5927e-05
3.66806e-05
-0.000107723
5.29791e-05
-0.000143202
7.30775e-05
-0.000182095
9.72757e-05
-0.000224155
0.00012586
-0.000269113
0.000159099
-0.000316631
0.000197237
-0.000366233
0.000240471
-0.00041724
0.000288934
-0.000468685
0.000342643
-0.000519213
0.000401463
-0.000567119
0.000464977
-0.000609612
-0.000647086
0.000532726
-2.34576e-07
7.93226e-06
-3.71187e-08
1.06772e-05
1.24412e-06
4.42792e-06
4.18096e-06
-9.56797e-06
9.25276e-06
-2.99175e-05
1.68854e-05
-5.57869e-05
2.74622e-05
-8.65038e-05
4.1338e-05
-0.000121598
5.8847e-05
-0.000160711
8.03091e-05
-0.000203557
0.000106033
-0.000249878
0.000136315
-0.000299396
0.000171439
-0.000351755
0.000211664
-0.000406458
0.000257211
-0.000462787
0.000308236
-0.000519709
0.000364783
-0.000575761
0.000426744
-0.000629079
0.000493709
-0.000676578
-0.000718585
0.000565208
-1.39903e-07
8.07217e-06
3.14714e-07
1.02226e-05
2.00638e-06
2.73625e-06
5.5e-06
-1.30616e-05
1.12727e-05
-3.56902e-05
1.97505e-05
-6.42647e-05
3.1319e-05
-9.80723e-05
4.6337e-05
-0.000136616
6.51444e-05
-0.000179518
8.80682e-05
-0.000226481
0.000115426
-0.000277236
0.000147525
-0.000331495
0.000184664
-0.000388893
0.000227118
-0.000448913
0.000275131
-0.000510801
0.000328884
-0.000573462
0.000388452
-0.000635329
0.000453751
-0.000694378
0.000524387
-0.000747214
-0.00079407
0.000599873
-3.89569e-08
8.11112e-06
6.90058e-07
9.49358e-06
2.81913e-06
6.07179e-07
6.90653e-06
-1.7149e-05
1.34267e-05
-4.22104e-05
2.28057e-05
-7.36437e-05
3.54314e-05
-0.000110698
5.16668e-05
-0.000152852
7.18574e-05
-0.000199709
9.63375e-05
-0.000250961
0.000125433
-0.000306332
0.000159464
-0.000365526
0.000198741
-0.00042817
0.000243559
-0.00049373
0.000294182
-0.000561424
0.000350819
-0.0006301
0.000413576
-0.000698086
0.000482398
-0.0007632
0.000556907
-0.000821723
-0.000873761
0.000636597
6.81437e-08
8.04298e-06
1.08787e-06
8.47386e-06
3.68066e-06
-1.98561e-06
8.3976e-06
-2.18659e-05
1.57103e-05
-4.95231e-05
2.60446e-05
-8.3978e-05
3.97908e-05
-0.000124444
5.7316e-05
-0.000170377
7.89715e-05
-0.000221364
0.000105099
-0.000277088
0.000136033
-0.000337266
0.000172104
-0.000401598
0.000213637
-0.000469703
0.000260943
-0.000541037
0.000314311
-0.000614791
0.000373976
-0.000689765
0.000440077
-0.000764186
0.00051259
-0.000835713
0.000591156
-0.000900289
-0.000957856
0.000675251
1.80761e-07
7.86222e-06
1.5073e-06
7.14732e-06
4.5892e-06
-5.06751e-06
9.97017e-06
-2.72469e-05
1.81187e-05
-5.76716e-05
2.94605e-05
-9.53198e-05
4.4388e-05
-0.000139372
6.32725e-05
-0.000189261
8.64711e-05
-0.000244563
0.000114332
-0.000304949
0.0001472
-0.000370133
0.000185414
-0.000439812
0.000229313
-0.000513602
0.000279226
-0.00059095
0.000335463
-0.000671028
0.000398288
-0.00075259
0.000467873
-0.000833771
0.000544228
-0.000912068
0.000627017
-0.000983077
-0.00104654
0.000715698
2.98991e-07
7.56323e-06
1.94752e-06
5.49878e-06
5.54291e-06
-8.6629e-06
1.1621e-05
-3.3325e-05
2.0647e-05
-6.66975e-05
3.30462e-05
-0.000107719
4.92133e-05
-0.000155539
6.95237e-05
-0.000209572
9.43398e-05
-0.000269379
0.000124017
-0.000334627
0.000158908
-0.000405024
0.000199363
-0.000480267
0.000245732
-0.000559971
0.000298361
-0.000643579
0.000357581
-0.000730248
0.000423684
-0.000818694
0.000496878
-0.000906965
0.000577209
-0.000992399
0.000664367
-0.00107023
-0.00113996
0.000757791
4.22536e-07
7.14069e-06
2.40764e-06
3.51368e-06
6.53987e-06
-1.27951e-05
1.33468e-05
-4.0132e-05
2.329e-05
-7.66407e-05
3.67944e-05
-0.000121223
5.42567e-05
-0.000173001
7.6056e-05
-0.000231371
0.000102561
-0.000295884
0.000134132
-0.000366199
0.000171132
-0.000442023
0.000213918
-0.000523054
0.000262853
-0.000608906
0.000318298
-0.000699023
0.000380603
-0.000792553
0.00045009
-0.000888181
0.000527001
-0.000983876
0.000611423
-0.00107682
0.000703075
-0.00116189
-0.00123827
0.00080138
5.51145e-07
6.58955e-06
2.88676e-06
1.17807e-06
7.57809e-06
-1.74865e-05
1.51441e-05
-4.7698e-05
2.60424e-05
-8.7539e-05
4.06973e-05
-0.000135878
5.95074e-05
-0.000191811
8.28557e-05
-0.000254719
0.000111115
-0.000324143
0.000144655
-0.000399738
0.000183842
-0.00048121
0.000229044
-0.000568256
0.000280634
-0.000660496
0.000338985
-0.000757374
0.000404468
-0.000858036
0.00047743
-0.000961143
0.00055815
-0.0010646
0.000646757
-0.00116543
0.000743007
-0.00125814
-0.00134157
0.000846306
6.84565e-07
5.90498e-06
3.38393e-06
-1.5213e-06
8.65554e-06
-2.27581e-05
1.70093e-05
-5.60517e-05
2.88986e-05
-9.94284e-05
4.4747e-05
-0.000151727
6.49546e-05
-0.000212019
8.99081e-05
-0.000279673
0.000119986
-0.000354221
0.000155562
-0.000435314
0.00019701
-0.000522658
0.000244706
-0.000615952
0.000299031
-0.00071482
0.00036037
-0.000818714
0.00042911
-0.000926776
0.000505625
-0.00103766
0.000590229
-0.0011492
0.000683095
-0.0012583
0.000784022
-0.00135906
-0.00144995
0.000892406
8.22544e-07
5.08244e-06
3.89821e-06
-4.59696e-06
9.77013e-06
-2.863e-05
1.89387e-05
-6.52203e-05
3.1853e-05
-0.000112343
4.89351e-05
-0.000168809
7.05869e-05
-0.000233671
9.71983e-05
-0.000306284
0.000129152
-0.000386175
0.000166828
-0.00047299
0.000210605
-0.000566435
0.000260866
-0.000666213
0.000317998
-0.000771953
0.000382397
-0.000883112
0.000454464
-0.000998843
0.000534594
-0.00111779
0.000623138
-0.00123774
0.000720316
-0.00135547
0.000825978
-0.00146473
-0.00156348
0.000939512
9.64824e-07
4.11762e-06
4.42863e-06
-8.06077e-06
1.09197e-05
-3.51211e-05
2.09286e-05
-7.52292e-05
3.48995e-05
-0.000126313
5.32531e-05
-0.000187162
7.63925e-05
-0.00025681
0.00010471
-0.000334602
0.000138594
-0.000420058
0.000178427
-0.000512823
0.000224595
-0.000612603
0.000277484
-0.000719102
0.000337488
-0.000831957
0.000405009
-0.000950633
0.000480459
-0.00107429
0.000564253
-0.00120158
0.000656776
-0.00133027
0.000758297
-0.00145699
0.000868726
-0.00157515
-0.00168221
0.000987449
1.11115e-06
3.00646e-06
4.97421e-06
-1.19238e-05
1.21022e-05
-4.2249e-05
2.29751e-05
-8.61022e-05
3.80322e-05
-0.000141371
5.76923e-05
-0.000206823
8.23592e-05
-0.000281477
0.000112429
-0.000364672
0.000148291
-0.00045592
0.000190334
-0.000554867
0.000238948
-0.000661216
0.000294522
-0.000774677
0.000357453
-0.000894888
0.000428148
-0.00102133
0.000507026
-0.00115317
0.000594518
-0.00128907
0.000691041
-0.00142679
0.000796913
-0.00156287
0.000912117
-0.00169036
-0.00180613
0.00103604
1.26127e-06
1.7452e-06
5.53396e-06
-1.61965e-05
1.33152e-05
-5.00303e-05
2.50743e-05
-9.78613e-05
4.12447e-05
-0.000157541
6.22434e-05
-0.000227821
8.84745e-05
-0.000307708
0.000120336
-0.000396533
0.000158221
-0.000493805
0.000202521
-0.000599167
0.000253629
-0.000712324
0.000311936
-0.000832985
0.000377842
-0.000960794
0.000451753
-0.00109524
0.000534093
-0.00123551
0.000625303
-0.00138028
0.000725827
-0.00152731
0.000836037
-0.00167308
0.000955996
-0.00181032
-0.00193524
0.00108511
1.41491e-06
3.30286e-07
6.10687e-06
-2.08885e-05
1.45566e-05
-5.848e-05
2.72221e-05
-0.000110527
4.45309e-05
-0.00017485
6.68973e-05
-0.000250188
9.47255e-05
-0.000335536
0.000128415
-0.000430222
0.000168361
-0.000533752
0.000214959
-0.000645765
0.000268602
-0.000765967
0.000329685
-0.000894067
0.000398603
-0.00102971
0.000475763
-0.0011724
0.000561586
-0.00132133
0.000656519
-0.00147522
0.000761031
-0.00163182
0.00087554
-0.00178759
0.00100021
-0.00193499
-0.00206951
0.00113447
1.57184e-06
-1.24155e-06
6.69194e-06
-2.60086e-05
1.58241e-05
-6.76121e-05
2.94145e-05
-0.000124117
4.78842e-05
-0.00019332
7.16444e-05
-0.000273948
0.000101099
-0.000364991
0.000136648
-0.000465771
0.000178689
-0.000575793
0.000227619
-0.000694695
0.000283832
-0.00082218
0.000347722
-0.000957957
0.000419682
-0.00110167
0.000500112
-0.00125283
0.00058943
-0.00141065
0.000688079
-0.00157387
0.000796546
-0.00174029
0.000915295
-0.00190634
0.00104461
-0.0020643
-0.00220884
0.00118395
1.73179e-06
-2.97335e-06
7.28815e-06
-3.15649e-05
1.71153e-05
-7.74393e-05
3.16472e-05
-0.000138649
5.1298e-05
-0.00021297
7.6475e-05
-0.000299125
0.000107581
-0.000396097
0.000145016
-0.000503206
0.00018918
-0.000619957
0.00024047
-0.000745985
0.00029928
-0.00088099
0.000366001
-0.00102468
0.000441023
-0.00117669
0.000524736
-0.00133654
0.000617547
-0.00150346
0.000719893
-0.00167621
0.000832267
-0.00185267
0.000955175
-0.00202924
0.00108903
-0.00219816
-0.00235316
0.00123335
1.89453e-06
-4.86787e-06
7.8945e-06
-3.75649e-05
1.8428e-05
-8.79728e-05
3.39162e-05
-0.000154137
5.47655e-05
-0.00023382
8.13792e-05
-0.000325739
0.000114158
-0.000428876
0.000153502
-0.00054255
0.000199811
-0.000666265
0.000253481
-0.000799655
0.000314906
-0.000942415
0.000384474
-0.00109425
0.000462567
-0.00125479
0.000549566
-0.00142354
0.00064586
-0.00159976
0.00075187
-0.00178222
0.00086809
-0.00196889
0.000995055
-0.00215621
0.00113334
-0.00233644
-0.00250232
0.0012825
2.0598e-06
-6.92767e-06
8.50995e-06
-4.40151e-05
1.97599e-05
-9.92227e-05
3.62171e-05
-0.000170594
5.82799e-05
-0.000255882
8.63468e-05
-0.000353805
0.000120816
-0.000463345
0.000162086
-0.00058382
0.000210555
-0.000714735
0.00026662
-0.00085572
0.000330671
-0.00100647
0.000403091
-0.00116667
0.000484256
-0.00133595
0.000574531
-0.00151382
0.000674287
-0.00169951
0.000783921
-0.00189186
0.000903913
-0.00208888
0.00103482
-0.00228711
0.00117737
-0.00247899
-0.00265616
0.00133122
2.22737e-06
-9.15504e-06
9.1335e-06
-5.09212e-05
2.11084e-05
-0.000111198
3.85456e-05
-0.000188032
6.18344e-05
-0.000279171
9.13675e-05
-0.000383338
0.000127539
-0.000499517
0.000170747
-0.000627028
0.000221387
-0.000765374
0.000279852
-0.000914185
0.000346531
-0.00107314
0.0004218
-0.00124194
0.000506025
-0.00142018
0.000599558
-0.00160735
0.000702745
-0.0018027
0.000815953
-0.00200506
0.000939634
-0.00221256
0.00107434
-0.00242182
0.00122101
-0.00262566
-0.00281448
0.00137933
2.39701e-06
-1.15521e-05
9.76414e-06
-5.82883e-05
2.24714e-05
-0.000123905
4.08973e-05
-0.000206458
6.54218e-05
-0.000303696
9.64308e-05
-0.000414347
0.000134314
-0.0005374
0.000179466
-0.00067218
0.000232279
-0.000818187
0.000293144
-0.00097505
0.000362443
-0.00114244
0.000440547
-0.00132004
0.000527811
-0.00150744
0.000624571
-0.00170411
0.000731148
-0.00190928
0.000847872
-0.00212179
0.000975154
-0.00233984
0.00111352
-0.00256018
0.00126411
-0.00277625
-0.00297703
0.00142666
2.5685e-06
-1.41206e-05
1.04008e-05
-6.61207e-05
2.38463e-05
-0.00013735
4.32679e-05
-0.000225879
6.9035e-05
-0.000329463
0.000101526
-0.000446839
0.000141126
-0.000577
0.000188222
-0.000719276
0.000243205
-0.00087317
0.000306459
-0.0010383
0.000378362
-0.00121435
0.000459276
-0.00140095
0.000549546
-0.00159771
0.00064949
-0.00180405
0.000759406
-0.00201919
0.000879582
-0.00224196
0.00101038
-0.00247063
0.00115226
-0.00270207
0.00130656
-0.00293055
-0.00314351
0.00147304
2.74162e-06
-1.68622e-05
1.10426e-05
-7.44216e-05
2.52308e-05
-0.000151538
4.56528e-05
-0.000246301
7.26668e-05
-0.000356477
0.000106642
-0.000480814
0.000147958
-0.000618315
0.000196995
-0.000768313
0.000254137
-0.000930312
0.000319763
-0.00110393
0.000394242
-0.00128883
0.00047793
-0.00148464
0.000571157
-0.00169094
0.00067423
-0.00190713
0.000787422
-0.00213238
0.000910983
-0.00236552
0.0010452
-0.00260486
0.00119047
-0.00284733
0.00134829
-0.00308837
-0.00331356
0.00151834
2.91616e-06
-1.97783e-05
1.16884e-05
-8.31938e-05
2.66223e-05
-0.000166472
4.80476e-05
-0.000267726
7.63099e-05
-0.000384739
0.000111769
-0.000516273
0.000154795
-0.000661341
0.000205762
-0.00081928
0.000265046
-0.000989596
0.000333017
-0.0011719
0.000410036
-0.00136585
0.000496448
-0.00157105
0.000592573
-0.00178706
0.000698705
-0.00201326
0.000815097
-0.00224878
0.000941967
-0.00249239
0.00107954
-0.00274243
0.00122809
-0.00299588
0.00138922
-0.0032495
-0.00348674
0.0015624
3.09191e-06
-2.28703e-05
1.23371e-05
-9.24391e-05
2.80186e-05
-0.000182154
5.04477e-05
-0.000290156
7.99569e-05
-0.000414248
0.000116895
-0.000553211
0.000161622
-0.000706067
0.000214502
-0.000872161
0.000275903
-0.001051
0.000346184
-0.00124218
0.000425695
-0.00144536
0.000514769
-0.00166013
0.000613716
-0.00188601
0.000722819
-0.00212236
0.000842321
-0.00236828
0.000972419
-0.00262249
0.00111328
-0.00288329
0.00126505
-0.00314765
0.00142935
-0.0034138
-0.00366254
0.00160515
3.26866e-06
-2.61389e-05
1.29879e-05
-0.000102158
2.9417e-05
-0.000198583
5.28486e-05
-0.000313587
8.36005e-05
-0.000445
0.000122009
-0.00059162
0.000168422
-0.00075248
0.000223194
-0.000926933
0.000286679
-0.00111448
0.000359226
-0.00131473
0.000441169
-0.0015273
0.00053283
-0.00175179
0.000634507
-0.00198769
0.000746475
-0.00223433
0.000868975
-0.00249078
0.00100221
-0.00275572
0.00114631
-0.00302739
0.00130133
-0.00330268
0.00146872
-0.00358118
-0.00384038
0.00164656
3.44619e-06
-2.95851e-05
1.36395e-05
-0.000112352
3.08151e-05
-0.000215759
5.52457e-05
-0.000338018
8.72331e-05
-0.000476988
0.000127099
-0.000631486
0.00017518
-0.000800561
0.000231815
-0.000983569
0.000297345
-0.00118001
0.000372103
-0.00138949
0.000456409
-0.00161161
0.000550568
-0.00184595
0.000654865
-0.00209199
0.00076957
-0.00234903
0.000894932
-0.00261614
0.00103118
-0.00289197
0.00117849
-0.0031747
0.0013369
-0.00346109
0.00150741
-0.00375169
-0.00401977
0.0016868
3.62423e-06
-3.32093e-05
1.42909e-05
-0.000123018
3.22102e-05
-0.000233678
5.76342e-05
-0.000363442
9.08472e-05
-0.0005102
0.000132156
-0.000672794
0.000181879
-0.000850285
0.000240344
-0.00104203
0.000307872
-0.00124754
0.000384778
-0.00146639
0.000471365
-0.00169819
0.000567917
-0.0019425
0.000674706
-0.00219877
0.000791995
-0.00246632
0.000920051
-0.0027442
0.00105916
-0.00303108
0.00120964
-0.00332518
0.00137176
-0.00362321
0.00154572
-0.00392565
-0.00420088
0.00172683
3.8024e-06
-3.70117e-05
1.49407e-05
-0.000134157
3.35999e-05
-0.000252337
6.00095e-05
-0.000389852
9.44353e-05
-0.000544626
0.000137166
-0.000715525
0.000188504
-0.000901623
0.000248757
-0.00110229
0.000318229
-0.00131701
0.000397212
-0.00154538
0.000485986
-0.00178697
0.000584814
-0.00204133
0.000693948
-0.00230791
0.000813641
-0.00258602
0.00094418
-0.00287473
0.00108593
-0.00317284
0.00123947
-0.00347871
0.00140575
-0.0037895
0.00158532
-0.00410522
-0.00438398
0.00176842
3.93101e-06
-4.09428e-05
1.54815e-05
-0.000145707
3.48129e-05
-0.000271668
6.21338e-05
-0.000417172
9.76908e-05
-0.000580183
0.000141755
-0.000759589
0.00019461
-0.000954478
0.000256543
-0.00116422
0.000327837
-0.00138831
0.00040876
-0.0016263
0.000499564
-0.00187777
0.000600487
-0.00214225
0.000711755
-0.00241918
0.000833606
-0.00270787
0.000966335
-0.00300746
0.00111039
-0.00331689
0.00126659
-0.00363491
0.00143673
-0.00395965
0.00162641
-0.0042949
-0.00462333
0.00186576
4.10431e-06
-4.50471e-05
1.61169e-05
-0.00015772
3.6172e-05
-0.000291724
6.44533e-05
-0.000445454
0.000101185
-0.000616915
0.000146618
-0.000805021
0.000201012
-0.00100887
0.000264634
-0.00122784
0.000337738
-0.00146141
0.000420564
-0.00170913
0.000513336
-0.00197054
0.000616255
-0.00224517
0.000729515
-0.00253244
0.000853329
-0.00283168
0.000987976
-0.00314211
0.00113393
-0.00346284
0.00129213
-0.00379311
0.00146466
-0.00413218
0.00165636
-0.0044866
-0.00484838
0.00188141
4.27673e-06
-4.93238e-05
1.67475e-05
-0.00017019
3.75178e-05
-0.000312494
6.67452e-05
-0.000474681
0.000104631
-0.000654801
0.0001514
-0.000851791
0.000207291
-0.00106476
0.000272543
-0.00129309
0.00034738
-0.00153625
0.000432013
-0.00179376
0.000526626
-0.00206516
0.000631384
-0.00234993
0.000746438
-0.00264749
0.000871958
-0.0029572
0.00100818
-0.00327834
0.00115555
-0.00361021
0.0013149
-0.00395246
0.00148803
-0.0043053
0.00167746
-0.00467603
-0.00506179
0.00189087
4.44779e-06
-5.37716e-05
1.73718e-05
-0.000183114
3.88476e-05
-0.00033397
6.90048e-05
-0.000504838
0.000108019
-0.000693815
0.00015609
-0.000899862
0.000213431
-0.0011221
0.000280248
-0.00135991
0.000356738
-0.00161274
0.00044307
-0.00188009
0.000539391
-0.00216148
0.000645819
-0.00245635
0.000762455
-0.00276413
0.000889412
-0.00308416
0.00102686
-0.00341579
0.00117513
-0.00375847
0.00133486
-0.00411219
0.00150727
-0.0044777
0.0016931
-0.00486187
-0.00526457
0.00189589
4.61716e-06
-5.83887e-05
1.79888e-05
-0.000196486
4.01588e-05
-0.00035614
7.12274e-05
-0.000535907
0.000111343
-0.00073393
0.000160678
-0.000949197
0.000219415
-0.00118084
0.00028773
-0.00142822
0.000365782
-0.00169079
0.000453702
-0.00196801
0.000551588
-0.00225936
0.000659509
-0.00256427
0.000777506
-0.00288212
0.000905622
-0.00321227
0.00104394
-0.0035541
0.00119263
-0.00390717
0.00135207
-0.00427163
0.00152287
-0.00464851
0.00170457
-0.00504358
-0.00545812
0.00189812
4.78454e-06
-6.31733e-05
1.85973e-05
-0.000210299
4.14487e-05
-0.000378991
7.34083e-05
-0.000567866
0.000114595
-0.000775117
0.000165152
-0.000999754
0.000225228
-0.00124092
0.000294967
-0.00149796
0.000374487
-0.00177031
0.000463874
-0.0020574
0.000563177
-0.00235867
0.000672407
-0.0026735
0.000791538
-0.00300126
0.000920531
-0.00334127
0.00105936
-0.00369293
0.00120803
-0.00405584
0.00136662
-0.00443022
0.00153521
-0.00481709
0.00171255
-0.00522092
-0.00564363
0.00189806
4.94966e-06
-6.81229e-05
1.9196e-05
-0.000224545
4.27149e-05
-0.00040251
7.55429e-05
-0.000600694
0.000117768
-0.000817342
0.0001695
-0.00105149
0.000230857
-0.00130227
0.00030194
-0.00156905
0.000382826
-0.00185119
0.000473555
-0.00214813
0.000574121
-0.00245923
0.000684469
-0.00278385
0.000804504
-0.00312129
0.000934095
-0.00347086
0.00107309
-0.00383192
0.00122134
-0.00420409
0.00137863
-0.0045875
0.00154458
-0.00498304
0.00171749
-0.00539382
-0.00582206
0.00189592
5.11225e-06
-7.32352e-05
1.9784e-05
-0.000239217
4.39547e-05
-0.000426681
7.76265e-05
-0.000634366
0.000120854
-0.000860569
0.000173714
-0.00110435
0.000236284
-0.00136485
0.000308628
-0.00164139
0.000390777
-0.00193334
0.000482716
-0.00224007
0.000584383
-0.0025609
0.000695657
-0.00289512
0.000816363
-0.003242
0.000946277
-0.00360077
0.00108513
-0.00397078
0.00123259
-0.00435155
0.00138819
-0.00474311
0.00155122
-0.00514607
0.0017197
-0.00556231
-0.00599412
0.00189176
5.27207e-06
-7.85073e-05
2.03601e-05
-0.000254305
4.51656e-05
-0.000451486
7.96545e-05
-0.000668855
0.000123846
-0.000904761
0.000177781
-0.00115828
0.000241497
-0.00142856
0.000315014
-0.00171491
0.000398314
-0.00201664
0.000491328
-0.00233308
0.000593932
-0.0026635
0.000705934
-0.00300713
0.000827081
-0.00336314
0.000957049
-0.00373074
0.00109545
-0.00410917
0.00124179
-0.00449789
0.00139539
-0.00489672
0.00155528
-0.00530596
0.00171938
-0.00572641
-0.00616033
0.00188559
5.42883e-06
-8.39361e-05
2.09232e-05
-0.000269799
4.63451e-05
-0.000476908
8.16223e-05
-0.000704132
0.000126737
-0.000949876
0.000181691
-0.00121323
0.00024648
-0.00149335
0.000321078
-0.00178951
0.000405414
-0.00210098
0.000499364
-0.00242703
0.000602736
-0.00276687
0.00071527
-0.00311966
0.000836625
-0.0034845
0.000966386
-0.0038605
0.00110404
-0.00424683
0.00124897
-0.00464282
0.00140031
-0.00504806
0.0015569
-0.00546254
0.00171664
-0.00588615
-0.00632105
0.00187737
5.58228e-06
-8.95184e-05
2.14721e-05
-0.000285689
4.74905e-05
-0.000502926
8.35254e-05
-0.000740167
0.00012952
-0.000995871
0.000185434
-0.00126915
0.000251221
-0.00155914
0.000326803
-0.00186509
0.000412057
-0.00218623
0.000506798
-0.00252177
0.000610769
-0.00287085
0.000723633
-0.00323252
0.000844971
-0.00360584
0.000974271
-0.0039898
0.00111092
-0.00438347
0.00125415
-0.00478605
0.00140299
-0.0051969
0.00155614
-0.00561569
0.00171155
-0.00604156
-0.00647656
0.00186706
5.73214e-06
-9.52505e-05
2.20058e-05
-0.000301963
4.85993e-05
-0.00052952
8.53591e-05
-0.000776927
0.000132188
-0.0010427
0.000189001
-0.00132596
0.000255704
-0.00162584
0.000332171
-0.00194155
0.000418221
-0.00227228
0.000513606
-0.00261716
0.000618003
-0.00297524
0.000731
-0.00334552
0.000852095
-0.00372693
0.000980689
-0.00411839
0.00111606
-0.00451885
0.00125736
-0.00492735
0.00140349
-0.00534303
0.00155308
-0.00576528
0.00170415
-0.00619263
-0.00662703
0.00185462
5.87813e-06
-0.000101129
2.25231e-05
-0.000318608
4.9669e-05
-0.000556666
8.71191e-05
-0.000814377
0.000134732
-0.00109031
0.00019238
-0.00138361
0.000259918
-0.00169338
0.000337166
-0.0020188
0.000423886
-0.002359
0.000519766
-0.00271304
0.000624414
-0.00307989
0.000737345
-0.00345845
0.000857978
-0.00384757
0.000985627
-0.00424604
0.00111949
-0.00465271
0.00125861
-0.00506647
0.00140184
-0.00548626
0.00154776
-0.00591119
0.00169448
-0.00633935
-0.00677256
0.00184001
6.01998e-06
-0.000107149
2.30228e-05
-0.000335611
5.06971e-05
-0.00058434
8.88007e-05
-0.000852481
0.000137148
-0.00113866
0.000195562
-0.00144202
0.000263849
-0.00176167
0.000341772
-0.00209673
0.000429033
-0.00244626
0.000525257
-0.00280926
0.000629982
-0.00318461
0.000742649
-0.00357112
0.000862602
-0.00396752
0.000989078
-0.00437252
0.0011212
-0.00478483
0.00125793
-0.00520321
0.00139808
-0.00562641
0.00154021
-0.00605332
0.00168255
-0.00648168
-0.00691322
0.00182321
6.15738e-06
-0.000113306
2.35039e-05
-0.000352957
5.16809e-05
-0.000612517
9.03996e-05
-0.000891199
0.000139427
-0.00118769
0.000198538
-0.00150113
0.000267484
-0.00183061
0.000345973
-0.00217521
0.000433645
-0.00253394
0.00053006
-0.00290568
0.000634685
-0.00328924
0.000746893
-0.00368333
0.000865955
-0.00408658
0.000991035
-0.0044976
0.00112119
-0.00491498
0.00125533
-0.00533735
0.00139223
-0.00576331
0.00153046
-0.00619156
0.00166837
-0.00661959
-0.00704903
0.00180419
6.29005e-06
-0.000119596
2.39651e-05
-0.000370632
5.2618e-05
-0.00064117
9.19113e-05
-0.000930493
0.000141564
-0.00123734
0.000201298
-0.00156087
0.000270813
-0.00190013
0.000349756
-0.00225416
0.000437705
-0.00262188
0.000534155
-0.00300213
0.000638506
-0.00339359
0.000750062
-0.00379488
0.000868024
-0.00420454
0.000991495
-0.00462107
0.00111947
-0.00504295
0.00125083
-0.00546871
0.00138432
-0.0058968
0.00151855
-0.00632579
0.00165198
-0.00675302
-0.00718001
0.00178295
6.41768e-06
-0.000126014
2.44054e-05
-0.00038862
5.35057e-05
-0.00067027
9.33314e-05
-0.000970318
0.000143551
-0.00128756
0.000203833
-0.00162115
0.000273822
-0.00197012
0.000353105
-0.00233344
0.000441197
-0.00270998
0.000537527
-0.00309846
0.00064143
-0.00349749
0.000752141
-0.0039056
0.000868802
-0.0043212
0.000990455
-0.00474272
0.00111605
-0.00516855
0.00124444
-0.0055971
0.00137437
-0.00602673
0.0015045
-0.00645591
0.00163338
-0.0068819
-0.00730613
0.0017595
6.53996e-06
-0.000132554
2.48235e-05
-0.000406903
5.43417e-05
-0.000699789
9.46556e-05
-0.00101063
0.000145382
-0.00133829
0.000206135
-0.0016819
0.000276501
-0.00204048
0.000356008
-0.00241295
0.000444106
-0.00279808
0.000540161
-0.00319451
0.000643441
-0.00360077
0.000753121
-0.00401528
0.000868282
-0.00443636
0.000987918
-0.00486236
0.00111094
-0.00529157
0.00123619
-0.00572234
0.00136242
-0.00615297
0.00148834
-0.00658183
0.00161261
-0.00700618
-0.00742738
0.00173385
6.65658e-06
-0.00013921
2.52183e-05
-0.000425465
5.51234e-05
-0.000729694
9.58798e-05
-0.00105139
0.000147051
-0.00138946
0.000208195
-0.00174305
0.00027884
-0.00211113
0.000358452
-0.00249256
0.00044642
-0.00288604
0.000542043
-0.00329014
0.000644528
-0.00370326
0.000752991
-0.00412374
0.00086646
-0.00454983
0.000983887
-0.00497979
0.00110416
-0.00541184
0.0012261
-0.00584428
0.00134849
-0.00627536
0.0014701
-0.00670344
0.0015897
-0.00712579
-0.0075437
0.00170603
6.76724e-06
-0.000145978
2.55886e-05
-0.000444287
5.58483e-05
-0.000759953
9.69996e-05
-0.00109254
0.000148551
-0.00144101
0.000210005
-0.0018045
0.000280829
-0.00218195
0.000360427
-0.00257216
0.000448125
-0.00297374
0.000543161
-0.00338517
0.000644682
-0.00380478
0.000751746
-0.0042308
0.000863337
-0.00466142
0.00097837
-0.00509482
0.00109571
-0.00552918
0.00121419
-0.00596276
0.00133262
-0.00639379
0.00144982
-0.00682064
0.00156469
-0.00724065
-0.00765508
0.00167607
6.87162e-06