/*--------------------------------*- C++ -*----------------------------------*\
  =========                 |
  \\      /  F ield         | OpenFOAM: The Open Source CFD Toolbox
   \\    /   O peration     | Website:  https://openfoam.org
    \\  /    A nd           | Version:  7
     \\/     M anipulation  |
\*---------------------------------------------------------------------------*/
FoamFile
{
    version     2.0;
    format      ascii;
    class       volVectorField;
    location    "10";
    object      U;
}
// * * * * * * * * * * * * * * * * * * * * * * * * * * * * * * * * * * * * * //

dimensions      [0 1 -1 0 0 0 0];

internalField   nonuniform List<vector> 
42000
(
(-0.000305614 0.000116509 1.91414e-21)
(-0.00135838 0.000182704 -1.57563e-21)
(-0.0026235 0.000145048 1.20926e-22)
(-0.00325311 3.61324e-05 9.19301e-22)
(-0.00304541 -0.00011915 -2.37068e-21)
(-0.00177942 -0.000303897 -1.85938e-21)
(0.000616188 -0.000505892 3.84142e-21)
(0.00417028 -0.000716476 2.08745e-22)
(0.00886557 -0.000929327 2.31933e-21)
(0.01466 -0.00113968 8.18637e-23)
(0.0214926 -0.00134367 4.10711e-22)
(0.0292884 -0.00153785 -9.50275e-23)
(0.0379601 -0.00171874 1.25487e-22)
(0.0474067 -0.00188249 1.9728e-21)
(0.0575117 -0.0020246 1.24608e-21)
(0.0681403 -0.0021397 -2.58279e-22)
(0.07913 -0.00222164 4.63885e-22)
(0.0903144 -0.00226383 -1.85124e-21)
(0.101412 -0.00225707 -1.74769e-22)
(0.112385 -0.00221131 2.12776e-21)
(-0.000313057 0.000348269 3.76936e-21)
(-0.00135913 0.000545341 -3.35783e-21)
(-0.00259788 0.000431599 -4.0706e-22)
(-0.00318928 0.000104494 -3.52512e-21)
(-0.00293368 -0.000361357 7.47818e-21)
(-0.001613 -0.000915353 -8.22317e-21)
(0.000842525 -0.0015209 -8.61093e-21)
(0.00446044 -0.00215209 1.43277e-21)
(0.00922258 -0.00278996 -3.82231e-21)
(0.0150862 -0.00342027 -1.77082e-21)
(0.0219899 -0.00403145 5.60588e-21)
(0.0298585 -0.00461318 -4.68976e-21)
(0.0386041 -0.00515505 2.26517e-21)
(0.0481259 -0.00564551 1.20221e-21)
(0.0583072 -0.00607105 -7.8958e-21)
(0.0690129 -0.00641565 -4.08569e-21)
(0.0800801 -0.00666074 -1.29107e-21)
(0.0913429 -0.00678656 -7.09031e-21)
(0.102512 -0.00676558 4.77764e-21)
(0.113582 -0.00662661 -8.15733e-22)
(-0.000327761 0.000576348 5.29703e-21)
(-0.00136021 0.00089973 1.01236e-20)
(-0.0025461 0.000707448 -7.07132e-21)
(-0.00306101 0.000161025 -5.01604e-21)
(-0.00270958 -0.000615462 -1.82248e-21)
(-0.00127952 -0.00153802 1.15448e-21)
(0.0012958 -0.00254586 1.38819e-20)
(0.00504131 -0.00359596 -1.40054e-21)
(0.00993708 -0.00465686 6.4534e-21)
(0.0159391 -0.00570489 -1.41242e-21)
(0.0229849 -0.00672091 6.92078e-21)
(0.0309987 -0.00768775 2.73496e-21)
(0.0398923 -0.00858815 5.95876e-21)
(0.0495643 -0.00940294 4.25256e-21)
(0.0598979 -0.0101096 1.86787e-20)
(0.0707576 -0.0106815 -1.57262e-22)
(0.0819793 -0.0110876 -4.89383e-21)
(0.0933988 -0.0112948 -2.75634e-21)
(0.10471 -0.0112575 -6.78989e-21)
(0.115976 -0.0110202 1.63914e-20)
(-0.000349371 0.000798369 -7.95245e-22)
(-0.00136081 0.00124044 1.56137e-21)
(-0.00246708 0.000965504 4.76586e-21)
(-0.00286706 0.000197866 1.23163e-20)
(-0.00237182 -0.000889385 -7.93213e-21)
(-0.000777705 -0.00217937 6.8895e-21)
(0.00197723 -0.00358741 -1.74994e-20)
(0.00591399 -0.00505361 1.39738e-21)
(0.01101 -0.00653421 -1.61326e-20)
(0.0172193 -0.00799627 -1.05086e-20)
(0.024478 -0.00941316 -1.81173e-20)
(0.0327093 -0.0107611 -2.23232e-21)
(0.0418244 -0.0120159 -1.7672e-20)
(0.0517214 -0.0131511 -1.22943e-21)
(0.0622829 -0.0141351 2.68232e-21)
(0.073373 -0.0149306 -8.70005e-24)
(0.0848261 -0.0154941 1.19311e-20)
(0.09648 -0.0157787 7.23132e-21)
(0.108003 -0.0157217 -1.25441e-20)
(0.119562 -0.0153777 -5.27368e-21)
(-0.00037736 0.00101198 -7.00591e-21)
(-0.00135971 0.00156213 -5.91465e-21)
(-0.00235919 0.00119879 -4.29262e-21)
(-0.00260558 0.0002073 -9.39204e-21)
(-0.00191846 -0.00119088 6.25964e-21)
(-0.000105637 -0.00284671 3.45619e-21)
(0.00288863 -0.004652 5.32856e-21)
(0.00708013 -0.00653037 -1.02996e-20)
(0.0124428 -0.008426 2.44482e-20)
(0.0189279 -0.0102969 2.62127e-20)
(0.02647 -0.0121092 2.87685e-21)
(0.0349908 -0.0138324 5.60973e-21)
(0.0444005 -0.0154361 -1.06984e-20)
(0.0545966 -0.016886 1.49093e-20)
(0.0654611 -0.0181419 -3.34672e-21)
(0.0768574 -0.0191559 -8.3009e-21)
(0.0886179 -0.0198719 -5.31566e-21)
(0.100583 -0.0202287 1.19819e-20)
(0.112389 -0.0201471 6.35236e-21)
(0.124335 -0.0196846 -1.28999e-20)
(-0.000411035 0.00121488 6.99035e-21)
(-0.00135529 0.00185954 1.16186e-20)
(-0.00222029 0.0014005 -9.08542e-22)
(-0.00227413 0.000181795 -1.73951e-20)
(-0.00134694 -0.00152751 5.64107e-22)
(0.000739218 -0.00354711 -2.87252e-21)
(0.00403239 -0.00574588 -3.8983e-21)
(0.00854188 -0.00803137 1.43481e-21)
(0.0142372 -0.010336 6.1333e-21)
(0.0210666 -0.0126091 -1.0772e-20)
(0.028962 -0.0148096 -2.79407e-20)
(0.0378436 -0.016901 2.55912e-20)
(0.0476204 -0.018846 1.58913e-20)
(0.0581892 -0.0206035 -1.96871e-20)
(0.069431 -0.0221246 -1.88413e-20)
(0.0812083 -0.0233504 -8.81463e-22)
(0.0933513 -0.0242125 7.67332e-21)
(0.105704 -0.0246346 -6.17308e-21)
(0.11786 -0.0245224 1.47898e-21)
(0.130289 -0.0239265 2.13009e-20)
(-0.000449535 0.00140482 -1.81089e-20)
(-0.00134557 0.0021276 -6.82857e-21)
(-0.00204772 0.00156399 2.19258e-20)
(-0.00186966 0.000114043 3.20301e-20)
(-0.000654089 -0.00190659 -1.43692e-20)
(0.00176001 -0.00428741 -1.62864e-20)
(0.00541148 -0.00687503 -3.93332e-21)
(0.0103019 -0.00956147 1.87927e-20)
(0.0163957 -0.0122678 5.54455e-22)
(0.023637 -0.014935 6.97065e-22)
(0.0319552 -0.0175151 1.27915e-20)
(0.0412683 -0.0199655 -6.27789e-21)
(0.051484 -0.0222431 1.92571e-20)
(0.062498 -0.0242994 4.8652e-21)
(0.0741904 -0.0260771 -1.97031e-20)
(0.0864228 -0.0275069 2.13946e-20)
(0.0990221 -0.0285073 5.43386e-21)
(0.111837 -0.0289866 2.38211e-20)
(0.12441 -0.0288364 1.29724e-20)
(0.137413 -0.0280888 -3.87551e-20)
(-0.000491842 0.00157963 2.82242e-22)
(-0.00132816 0.00236136 1.33827e-20)
(-0.00183832 0.00168288 -4.0311e-21)
(-0.00138857 -2.99207e-06 -3.17796e-20)
(0.000163878 -0.00233512 3.05699e-20)
(0.00296047 -0.00507414 -3.4226e-22)
(0.00702945 -0.00804513 2.49438e-20)
(0.0123635 -0.0111252 -1.74561e-20)
(0.018921 -0.0142246 -2.81512e-21)
(0.0266415 -0.0172762 5.94557e-21)
(0.0354511 -0.0202256 9.855e-21)
(0.0452656 -0.0230246 -2.22842e-20)
(0.0559911 -0.0256241 -7.05074e-21)
(0.0675219 -0.0279689 1.5486e-20)
(0.0797371 -0.0299933 3.03197e-20)
(0.092497 -0.0316175 -8.50773e-21)
(0.105625 -0.0327473 -1.47773e-20)
(0.118975 -0.0332741 -5.72934e-20)
(0.132031 -0.0330777 -7.64478e-21)
(0.145698 -0.032157 5.07866e-21)
(-0.000536781 0.00173722 5.98459e-22)
(-0.00130034 0.00255611 -3.78559e-21)
(-0.00158842 0.00175105 -1.25911e-20)
(-0.000826675 -0.000176022 2.18541e-20)
(0.00111132 -0.00281978 -4.37111e-20)
(0.00434493 -0.00591345 2.26721e-20)
(0.00889038 -0.00926145 -2.70726e-20)
(0.0147303 -0.0127267 -1.8218e-20)
(0.0218161 -0.0162092 -3.79827e-20)
(0.0300823 -0.0196341 3.52338e-21)
(0.0394513 -0.0229411 -1.72466e-20)
(0.0498363 -0.0260764 9.50884e-21)
(0.0611414 -0.0289855 -2.36563e-20)
(0.0732594 -0.0316069 2.83601e-20)
(0.0860681 -0.0338666 1.77677e-21)
(0.0994266 -0.0356745 -3.94809e-20)
(0.113154 -0.0369232 -2.19639e-20)
(0.12711 -0.0374867 2.65464e-21)
(0.140713 -0.0372346 -2.24817e-20)
(0.15513 -0.0361166 -6.2033e-21)
(-0.000583028 0.0018756 -2.5723e-21)
(-0.00125901 0.00270735 1.08956e-20)
(-0.00129391 0.00176269 -1.01722e-20)
(-0.000179273 -0.000411386 -2.655e-20)
(0.00219317 -0.00336681 3.69274e-20)
(0.00591823 -0.00681107 -2.31224e-20)
(0.0109988 -0.0105289 1.18703e-20)
(0.0174063 -0.0143698 4.75168e-20)
(0.0250846 -0.018224 1.67636e-20)
(0.0339624 -0.0220097 1.74061e-20)
(0.0439578 -0.0256609 4.01024e-20)
(0.0549812 -0.0291187 -1.66348e-20)
(0.0669343 -0.0323237 1.36956e-20)
(0.0797085 -0.035208 -5.28715e-20)
(0.0931801 -0.0376901 1.48536e-20)
(0.107206 -0.0396694 5.92649e-21)
(0.121603 -0.0410256 5.5029e-20)
(0.136234 -0.0416136 3.2446e-20)
(0.150444 -0.0412955 3.04677e-21)
(0.165696 -0.039953 1.08457e-20)
(-0.000629117 0.00199289 1.57194e-20)
(-0.00120075 0.00281084 -7.32107e-20)
(-0.00095022 0.00171235 4.66484e-20)
(0.000558856 -0.00071501 -1.37516e-20)
(0.00341488 -0.00398204 -2.53966e-20)
(0.00768579 -0.00777226 4.17959e-20)
(0.0133599 -0.0118517 2.02926e-21)
(0.0203963 -0.0160576 -1.82698e-20)
(0.0287304 -0.020271 1.23595e-20)
(0.0382846 -0.0244034 -2.54833e-20)
(0.0489726 -0.0283838 -7.60873e-20)
(0.060701 -0.0321488 -1.97075e-20)
(0.0733694 -0.035634 -9.35695e-21)
(0.0868672 -0.0387662 2.90541e-20)
(0.101069 -0.0414563 -4.49496e-20)
(0.115831 -0.0435934 1.09266e-20)
(0.130962 -0.0450443 -1.61924e-21)
(0.146336 -0.0456437 -1.86696e-20)
(0.161212 -0.0452486 1.25746e-20)
(0.177379 -0.0436519 -3.0031e-20)
(-0.000673445 0.00208732 -5.92873e-22)
(-0.00112182 0.00286261 5.32251e-20)
(-0.000552346 0.00159496 -2.54513e-20)
(0.00139342 -0.00109237 -8.84273e-23)
(0.0047824 -0.00467078 1.3696e-20)
(0.00965347 -0.00880176 -7.27042e-20)
(0.0159791 -0.0132339 2.48091e-20)
(0.0237051 -0.017793 -1.06806e-20)
(0.0327576 -0.0223516 -1.8829e-20)
(0.0430523 -0.0268153 6.1048e-20)
(0.0544976 -0.0311083 2.78724e-20)
(0.0669966 -0.0351634 6.16223e-20)
(0.0804459 -0.0389119 1.5678e-20)
(0.094733 -0.0422751 -2.19581e-20)
(0.109731 -0.0451572 2.74992e-20)
(0.125293 -0.0474374 2.49206e-20)
(0.141223 -0.0489691 -1.07851e-21)
(0.157404 -0.0495656 -1.64818e-20)
(0.173002 -0.0490817 4.29785e-20)
(0.19016 -0.0471986 1.28729e-20)
(-0.000714287 0.00215725 2.15564e-20)
(-0.00101818 0.00285897 -4.23699e-20)
(-9.48929e-05 0.00140589 -2.45962e-20)
(0.00233058 -0.00154845 6.83151e-20)
(0.00630218 -0.00543779 -2.72519e-21)
(0.0118276 -0.00990375 6.07627e-20)
(0.0188625 -0.0146787 -3.13643e-20)
(0.027338 -0.019578 9.52596e-21)
(0.0371708 -0.0244665 7.49838e-20)
(0.0482688 -0.0292446 -6.20818e-20)
(0.0605351 -0.0338323 1.99514e-20)
(0.0738686 -0.0381588 -4.99055e-20)
(0.0881629 -0.0421517 3.23236e-20)
(0.103303 -0.0457278 -2.69275e-20)
(0.11916 -0.0487844 -3.49148e-20)
(0.135585 -0.0511913 -1.1419e-20)
(0.152376 -0.052789 -3.31168e-20)
(0.169425 -0.0533674 3.40385e-20)
(0.185799 -0.0527826 -8.90323e-20)
(0.204019 -0.0505789 3.52494e-20)
(-0.000749803 0.00220119 -2.71096e-20)
(-0.000885512 0.00279663 6.51652e-20)
(0.000427928 0.00114091 2.78803e-20)
(0.00337692 -0.00208771 -5.52601e-20)
(0.00798108 -0.00628727 1.37482e-21)
(0.014215 -0.0110818 8.35409e-21)
(0.0220162 -0.0161888 -1.5386e-21)
(0.0313008 -0.0214141 -5.61086e-20)
(0.0419746 -0.0266161 -8.90847e-20)
(0.0539378 -0.0316901 2.71004e-20)
(0.0670874 -0.036553 3.74753e-20)
(0.0813177 -0.0411306 1.67756e-20)
(0.0965191 -0.0453476 -5.15444e-20)
(0.112574 -0.0491165 1.80875e-20)
(0.12935 -0.0523289 2.65945e-20)
(0.146699 -0.054845 -2.7089e-20)
(0.16441 -0.0564927 -6.87385e-21)
(0.182385 -0.057037 2.62573e-20)
(0.199584 -0.0563388 6.18478e-20)
(0.218933 -0.0537784 -2.71559e-20)
(-0.000778031 0.00221778 -1.72782e-20)
(-0.000719249 0.00267262 -1.15848e-21)
(0.00102224 0.000796273 -4.46427e-20)
(0.00453943 -0.00271402 6.43315e-20)
(0.00982639 -0.00722278 1.21986e-20)
(0.0168228 -0.0123388 -3.41643e-20)
(0.0254471 -0.0177661 4.03638e-20)
(0.0355992 -0.0233023 2.63009e-20)
(0.047174 -0.0287998 5.47088e-21)
(0.0600629 -0.0341501 -9.41519e-21)
(0.0741565 -0.0392669 -3.87628e-21)
(0.0893443 -0.0440739 2.74753e-20)
(0.105513 -0.0484929 7.06653e-20)
(0.122542 -0.0524332 5.67211e-20)
(0.140297 -0.0557808 -5.30388e-20)
(0.158626 -0.0583874 -3.73807e-20)
(0.177312 -0.0600683 3.52024e-20)
(0.196269 -0.0605618 -5.61406e-20)
(0.214338 -0.0597378 1.09519e-21)
(0.234879 -0.0567829 -2.42376e-20)
(-0.000796901 0.00220579 4.46388e-20)
(-0.000514579 0.00248432 -3.68119e-20)
(0.00169446 0.000368781 2.31324e-20)
(0.00582544 -0.00343066 -3.63552e-20)
(0.0118457 -0.00824723 -2.74953e-20)
(0.0196584 -0.0136769 2.35447e-20)
(0.0291621 -0.0194118 -6.85429e-20)
(0.0402396 -0.0252426 5.05474e-20)
(0.052774 -0.0310166 -2.89744e-20)
(0.0666477 -0.036622 -1.01326e-21)
(0.0817446 -0.0419702 -2.90834e-20)
(0.0979487 -0.046983 -3.11324e-20)
(0.115143 -0.0515805 -7.0842e-20)
(0.133202 -0.055669 -4.76319e-20)
(0.151991 -0.0591301 6.7447e-20)
(0.171355 -0.0618071 1.61231e-20)
(0.191068 -0.0635033 1.51288e-20)
(0.211057 -0.0639288 4.12168e-20)
(0.230041 -0.0629666 1.32994e-20)
(0.251829 -0.0595783 -1.4097e-20)
(-0.000804258 0.0021642 -2.6309e-20)
(-0.000266464 0.00222949 2.25876e-20)
(0.00245131 -0.000144247 2.03984e-20)
(0.00724262 -0.00424028 3.38119e-22)
(0.0140471 -0.00936283 6.97507e-20)
(0.0227298 -0.0150977 -1.13102e-20)
(0.0331684 -0.0211267 1.81058e-20)
(0.0452281 -0.0272346 2.51411e-20)
(0.0587798 -0.0332646 -3.57656e-21)
(0.0736961 -0.0391025 3.97919e-20)
(0.0898536 -0.0446579 1.31011e-22)
(0.107131 -0.0498517 -4.86999e-20)
(0.125406 -0.0546024 -1.74889e-20)
(0.144551 -0.0588145 4.32998e-20)
(0.164426 -0.0623657 -2.49668e-20)
(0.184875 -0.0650917 2.02384e-20)
(0.205664 -0.0667847 1.85809e-20)
(0.226732 -0.0671244 -5.14993e-20)
(0.246669 -0.066012 1.56284e-20)
(0.269755 -0.0621507 9.331e-20)
(-0.000797888 0.00209216 2.02835e-20)
(3.03173e-05 0.00190626 -1.46224e-22)
(0.00329977 -0.000744944 -7.603e-21)
(0.0087989 -0.00514486 1.37247e-21)
(0.0164387 -0.0105711 6.42552e-21)
(0.0260448 -0.0166019 -3.11234e-20)
(0.0374734 -0.0229103 -9.53214e-21)
(0.0505713 -0.0292767 -6.96234e-20)
(0.0651965 -0.0355412 7.08046e-20)
(0.0812116 -0.0415876 -1.08808e-20)
(0.0984855 -0.0473249 1.09007e-20)
(0.11689 -0.052673 1.12558e-20)
(0.1363 -0.0575502 6.70859e-21)
(0.156582 -0.0618597 -6.81479e-20)
(0.177593 -0.065476 -3.93109e-20)
(0.199174 -0.0682286 5.31863e-20)
(0.221083 -0.0698988 -7.33401e-20)
(0.243274 -0.0701347 1.27041e-20)
(0.264197 -0.0688607 -8.0843e-20)
(0.288626 -0.0644866 -6.25466e-20)
(-0.000775495 0.00198896 3.02632e-20)
(0.000381138 0.00151321 -1.78161e-20)
(0.00424701 -0.00143487 -3.54635e-20)
(0.0105024 -0.00614572 1.32977e-20)
(0.019029 -0.0118727 -1.31855e-19)
(0.0296117 -0.0181894 7.30926e-20)
(0.0420847 -0.0247617 9.26927e-20)
(0.0562757 -0.0313669 5.61377e-20)
(0.0720294 -0.0378429 2.65871e-20)
(0.0891977 -0.0440727 1.62658e-20)
(0.107642 -0.0499648 -2.19533e-20)
(0.127227 -0.0554394 -1.18954e-20)
(0.147821 -0.0604147 -6.6919e-20)
(0.169288 -0.0647936 9.04636e-20)
(0.191482 -0.0684489 3.28146e-20)
(0.214238 -0.0712042 -7.17657e-20)
(0.237308 -0.0728314 1.62831e-20)
(0.260659 -0.0729453 2.54966e-20)
(0.2826 -0.0714992 6.9849e-20)
(0.308409 -0.0665724 1.05729e-20)
(-0.000734725 0.00185406 -6.92789e-20)
(0.000791511 0.00104935 -5.509e-20)
(0.0053004 -0.00221499 -6.66959e-20)
(0.0123616 -0.00724344 2.14084e-20)
(0.0218266 -0.0132676 4.65884e-20)
(0.0334389 -0.0198594 4.34408e-21)
(0.0470099 -0.0266789 -9.41922e-20)
(0.0623478 -0.0335022 -5.91249e-20)
(0.0792834 -0.0401657 -9.20257e-20)
(0.0976578 -0.0465523 -4.71184e-20)
(0.117323 -0.0525709 2.58408e-20)
(0.138139 -0.0581425 5.45125e-20)
(0.159965 -0.0631861 9.88563e-20)
(0.182664 -0.0676052 -3.90342e-20)
(0.206081 -0.0712715 4.52038e-20)
(0.230053 -0.0740044 -3.69304e-20)
(0.254319 -0.0755677 -2.09712e-21)
(0.278864 -0.0755413 -2.02842e-20)
(0.301849 -0.0739136 6.52332e-21)
(0.32907 -0.068395 2.45467e-20)
(-0.000673174 0.00168711 3.88226e-20)
(0.00126706 0.000514114 6.2622e-20)
(0.00646744 -0.00308566 2.99772e-20)
(0.0143848 -0.00843789 -1.9943e-20)
(0.0248402 -0.014755 4.89254e-20)
(0.0375349 -0.02161 1.83544e-20)
(0.0522567 -0.0286593 -5.86825e-21)
(0.0687941 -0.0356787 1.85003e-20)
(0.0869635 -0.0425045 6.05636e-20)
(0.106595 -0.0490202 -2.49994e-20)
(0.127531 -0.0551357 -4.7174e-20)
(0.149624 -0.0607734 -6.26468e-20)
(0.172729 -0.065854 -8.07324e-20)
(0.1967 -0.0702823 3.98856e-20)
(0.221381 -0.0739304 9.42862e-21)
(0.246602 -0.0766146 4.71232e-20)
(0.272095 -0.0780923 4.48692e-20)
(0.297863 -0.0779073 -6.1599e-20)
(0.321912 -0.0760899 -1.18387e-20)
(0.350571 -0.0699417 7.70447e-20)
(-0.000588404 0.00148796 1.54519e-20)
(0.0018135 -9.26239e-05 -9.64217e-21)
(0.00775574 -0.00404662 8.03969e-20)
(0.0165808 -0.0097282 -1.1412e-19)
(0.0280788 -0.0163332 -7.82305e-20)
(0.041908 -0.0234388 -6.32301e-20)
(0.0578327 -0.0306993 3.29465e-20)
(0.0756208 -0.0378918 2.93421e-20)
(0.0950744 -0.0448534 -4.42539e-21)
(0.116011 -0.0514692 1.77612e-20)
(0.138266 -0.0576508 4.84383e-20)
(0.161681 -0.0633225 1.19256e-19)
(0.186106 -0.0684075 2.30949e-20)
(0.211388 -0.0728127 -2.68309e-20)
(0.237367 -0.0764118 6.99648e-21)
(0.263869 -0.0790195 3.55639e-20)
(0.290616 -0.0803891 5.33533e-20)
(0.317629 -0.0800272 5.19764e-20)
(0.342759 -0.0780138 3.18441e-20)
(0.372873 -0.0712 -1.37675e-20)
(-0.000477949 0.0012566 -1.39852e-20)
(0.00243659 -0.000770537 -9.9761e-20)
(0.00917297 -0.00509699 -1.28912e-19)
(0.0189582 -0.0111127 1.04644e-19)
(0.0315511 -0.0179997 2.62531e-20)
(0.0465667 -0.0253422 1.12614e-19)
(0.0637453 -0.0327943 -6.81729e-20)
(0.0828342 -0.0401359 -3.63668e-20)
(0.10362 -0.0472059 -1.64869e-20)
(0.12591 -0.0538918 -7.01609e-21)
(0.149527 -0.0601074 -1.04093e-20)
(0.174306 -0.0657798 -1.20731e-19)
(0.20009 -0.070835 9.68263e-21)
(0.226718 -0.0751833 -1.58115e-20)
(0.254026 -0.0787012 -6.20197e-21)
(0.281834 -0.0812035 -2.42046e-20)
(0.309856 -0.0824416 -8.82305e-20)
(0.338132 -0.0818848 2.25174e-20)
(0.364355 -0.0796707 -6.33949e-20)
(0.395936 -0.0721578 -2.69369e-21)
(-0.00033933 0.000993249 5.59808e-20)
(0.00314212 -0.00151885 1.0325e-19)
(0.0107268 -0.00623522 1.392e-19)
(0.0215255 -0.0125891 -9.34325e-20)
(0.0352659 -0.0197512 -2.66936e-20)
(0.0515193 -0.0273159 -1.28219e-19)
(0.0700019 -0.034939 1.36775e-19)
(0.0904399 -0.0424046 1.07768e-20)
(0.112605 -0.0495545 1.51376e-20)
(0.136292 -0.0562792 -1.57455e-20)
(0.161313 -0.0624957 -4.62788e-20)
(0.187496 -0.0681343 1.34035e-19)
(0.214673 -0.0731246 -8.56341e-20)
(0.24268 -0.0773808 4.73376e-20)
(0.271342 -0.0807839 3.19835e-20)
(0.300479 -0.0831505 -2.37281e-20)
(0.329791 -0.0842329 1.2183e-20)
(0.359342 -0.0834632 -2.30545e-20)
(0.386664 -0.0810459 6.071e-20)
(0.419715 -0.0728034 -1.37573e-20)
(-0.000170061 0.000698287 8.6714e-21)
(0.00393589 -0.00233633 -7.05851e-20)
(0.0124249 -0.00745916 -1.62291e-20)
(0.0242914 -0.0141542 1.82648e-19)
(0.0392319 -0.0215835 -3.09671e-20)
(0.0567739 -0.0293547 6.0375e-20)
(0.0766095 -0.0371272 -1.30611e-19)
(0.0984435 -0.0446905 1.74644e-20)
(0.122033 -0.0518908 -2.35968e-20)
(0.147158 -0.0586223 4.33982e-20)
(0.173624 -0.0648056 5.32878e-20)
(0.201245 -0.0703748 -1.56352e-19)
(0.229848 -0.0752638 2.17665e-20)
(0.25926 -0.0793918 9.05423e-20)
(0.2893 -0.082645 -4.27541e-20)
(0.319781 -0.084844 1.44728e-20)
(0.350394 -0.0857454 8.57428e-20)
(0.381225 -0.0847449 -2.99798e-20)
(0.409648 -0.0821243 -6.02279e-20)
(0.444167 -0.0731254 -5.39571e-20)
(3.23334e-05 0.000372283 3.30832e-20)
(0.00482366 -0.00322128 3.15894e-20)
(0.0142749 -0.00876599 -6.69519e-20)
(0.0272643 -0.015804 -1.0278e-19)
(0.0434576 -0.0234915 1.21249e-19)
(0.0623384 -0.0314525 2.2974e-20)
(0.0835747 -0.0393516 -4.54638e-20)
(0.10685 -0.0469856 3.73298e-22)
(0.131906 -0.0542057 8.68015e-20)
(0.15851 -0.0609109 1.06378e-19)
(0.186455 -0.0670261 -8.29088e-20)
(0.215548 -0.0724896 4.48656e-20)
(0.245605 -0.0772402 1.93342e-20)
(0.276446 -0.0812024 8.41644e-21)
(0.30788 -0.0842694 -6.53757e-20)
(0.339717 -0.0862676 -8.48544e-20)
(0.371636 -0.0869616 1.78885e-20)
(0.403746 -0.0857124 -1.86929e-20)
(0.433267 -0.0828906 2.23306e-20)
(0.469244 -0.073113 5.40837e-20)
(0.000270315 1.59905e-05 -3.30053e-20)
(0.00581115 -0.00417157 2.81597e-20)
(0.0162843 -0.0101522 1.3317e-20)
(0.0304526 -0.0175338 1.07963e-19)
(0.0479513 -0.0254693 -1.14739e-19)
(0.0682204 -0.0336022 -9.5071e-20)
(0.0909038 -0.0416041 1.83775e-20)
(0.115664 -0.0492808 -4.09821e-20)
(0.142226 -0.0564894 1.27799e-20)
(0.170346 -0.0631345 -1.68975e-19)
(0.199804 -0.0691458 5.63108e-20)
(0.230397 -0.0744666 2.01281e-20)
(0.261934 -0.0790406 9.94058e-20)
(0.294222 -0.0827988 -3.86924e-20)
(0.327065 -0.0856421 -1.67803e-20)
(0.360263 -0.0874049 1.11117e-19)
(0.393488 -0.0878636 -1.22538e-19)
(0.42687 -0.0863473 9.87311e-21)
(0.457481 -0.0833289 2.65393e-20)
(0.494899 -0.0727552 5.86055e-20)
(0.000546319 -0.000369656 -6.02158e-20)
(0.00690397 -0.00518459 2.21072e-20)
(0.0184604 -0.0116138 -1.31755e-20)
(0.0338644 -0.0193382 -1.84664e-19)
(0.0527209 -0.0275102 6.9307e-20)
(0.0744271 -0.0357959 3.61867e-20)
(0.0986027 -0.0438759 -2.34993e-20)
(0.124889 -0.0515661 8.21056e-20)
(0.152996 -0.058731 -8.28806e-20)
(0.182664 -0.0652816 1.73315e-19)
(0.213665 -0.0711528 -1.11948e-19)
(0.245785 -0.0762932 -1.45969e-19)
(0.278821 -0.0806522 -3.98088e-20)
(0.312572 -0.0841674 6.45736e-21)
(0.346832 -0.0867485 9.81882e-20)
(0.381393 -0.0882398 -1.03995e-19)
(0.415919 -0.0884335 6.31857e-20)
(0.450558 -0.0866313 2.13727e-21)
(0.482247 -0.0834231 2.29665e-20)
(0.521081 -0.0720415 -1.72069e-19)
(0.000862742 -0.000783545 1.00801e-19)
(0.00810765 -0.0062573 -7.73004e-20)
(0.0208104 -0.013146 6.81394e-20)
(0.0375075 -0.0212109 1.13487e-19)
(0.0577741 -0.0296066 -6.86777e-20)
(0.0809651 -0.0380248 6.59999e-20)
(0.106676 -0.046157 5.02462e-20)
(0.134528 -0.0538309 -6.41626e-20)
(0.164215 -0.0609192 -5.03651e-20)
(0.195464 -0.0673401 -9.63021e-20)
(0.228034 -0.0730346 1.71853e-19)
(0.261702 -0.0779568 1.68611e-19)
(0.296253 -0.082062 -6.51314e-20)
(0.331478 -0.0852948 5.64269e-20)
(0.367159 -0.0875743 3.77559e-20)
(0.40308 -0.0887566 5.32482e-20)
(0.438895 -0.0886539 -3.30378e-20)
(0.474771 -0.0865455 2.24196e-20)
(0.507523 -0.0831561 7.85703e-20)
(0.547739 -0.070961 -4.96281e-21)
(0.00122194 -0.00122439 -1.13581e-19)
(0.00942755 -0.00738622 2.43905e-20)
(0.0233413 -0.0147435 -3.22674e-20)
(0.0413894 -0.0231449 -1.69161e-20)
(0.0631182 -0.0317501 1.10962e-20)
(0.0878407 -0.0402794 -2.66892e-20)
(0.11513 -0.0484369 -6.80916e-20)
(0.144584 -0.0560637 1.01659e-19)
(0.175883 -0.0630418 1.23452e-19)
(0.20874 -0.0692975 9.16037e-20)
(0.242903 -0.0747783 -1.45537e-19)
(0.278136 -0.0794444 -1.24425e-19)
(0.314216 -0.083257 -2.21558e-20)
(0.35092 -0.086168 -4.3482e-20)
(0.388022 -0.0881062 5.6464e-20)
(0.425295 -0.0889408 -3.78502e-20)
(0.462382 -0.0885077 2.48204e-20)
(0.499468 -0.0860714 2.13995e-20)
(0.533263 -0.0825098 -1.40811e-19)
(0.57482 -0.0695028 1.18705e-20)
(0.0016262 -0.00169073 -2.14818e-20)
(0.0108689 -0.00856742 1.50139e-19)
(0.0260598 -0.0164002 1.93166e-20)
(0.0455172 -0.0251325 -5.29215e-20)
(0.0687597 -0.0339315 -8.22787e-20)
(0.0950595 -0.0425491 1.9717e-20)
(0.123966 -0.050704 9.1742e-20)
(0.155058 -0.0582521 -3.33834e-20)
(0.187999 -0.0650859 -8.93949e-20)
(0.222489 -0.0711405 -3.55383e-20)
(0.258263 -0.0763707 1.02604e-19)
(0.295075 -0.0807429 -3.68454e-20)
(0.332691 -0.0842247 4.86299e-21)
(0.370877 -0.0867748 -8.07581e-20)
(0.409395 -0.0883318 2.59513e-20)
(0.448007 -0.0887791 8.62504e-20)
(0.486347 -0.0879791 4.76758e-20)
(0.524608 -0.0851902 -8.37538e-20)
(0.559426 -0.081465 -4.77333e-20)
(0.60227 -0.0676547 2.10305e-20)
(0.00207777 -0.00218093 -1.15265e-20)
(0.0124367 -0.00979656 -1.86161e-19)
(0.0289721 -0.0181096 1.25278e-20)
(0.0498977 -0.0271652 -5.14896e-20)
(0.0747049 -0.0361408 -3.42194e-20)
(0.102626 -0.0448227 -5.20862e-20)
(0.133189 -0.052946 5.67326e-20)
(0.165951 -0.060383 -5.08646e-21)
(0.20056 -0.067038 -5.0191e-20)
(0.236704 -0.0728555 -3.68392e-21)
(0.274105 -0.0777982 1.07646e-19)
(0.312505 -0.0818394 1.79006e-20)
(0.35166 -0.0849526 7.33213e-20)
(0.391325 -0.0871038 9.73823e-20)
(0.43125 -0.0882403 -3.61519e-20)
(0.471184 -0.08826 -6.2479e-20)
(0.510753 -0.0870538 -2.06086e-20)
(0.55015 -0.0838841 -7.49759e-20)
(0.58597 -0.08 5.64983e-21)
(0.630031 -0.0654032 3.29569e-20)
(0.0025788 -0.00269322 -1.96024e-20)
(0.0141357 -0.0110689 5.60569e-20)
(0.0320842 -0.0198646 -7.24423e-20)
(0.054537 -0.029234 6.95977e-20)
(0.0809593 -0.0383672 1.23911e-19)
(0.110545 -0.0470881 1.37451e-19)
(0.1428 -0.0551498 -2.96281e-20)
(0.177263 -0.0624428 5.94186e-20)
(0.213564 -0.0688839 -6.99986e-20)
(0.251378 -0.0744282 -4.9334e-20)
(0.290416 -0.0790471 -5.37943e-20)
(0.330409 -0.0827207 1.08325e-19)
(0.371101 -0.085429 -3.06028e-20)
(0.412238 -0.0871444 -7.43741e-20)
(0.453556 -0.0878225 7.04268e-20)
(0.494793 -0.0873747 -8.73254e-20)
(0.535565 -0.0857201 -4.71988e-20)
(0.576053 -0.0821364 1.35564e-19)
(0.612855 -0.0780902 3.28904e-20)
(0.658043 -0.0627323 -4.83987e-20)
(0.00313138 -0.00322565 1.15767e-19)
(0.0159705 -0.0123792 5.77538e-20)
(0.0354019 -0.0216575 9.33977e-20)
(0.0594408 -0.031329 1.32031e-20)
(0.0875279 -0.0405993 3.21956e-20)
(0.11882 -0.0493325 -3.28123e-20)
(0.152801 -0.0573018 -3.62377e-20)
(0.18899 -0.064417 -8.509e-20)
(0.227003 -0.0706089 -1.96432e-20)
(0.266501 -0.0758442 -2.28801e-20)
(0.307183 -0.0801032 6.8464e-21)
(0.348769 -0.0833739 -4.37761e-20)
(0.390993 -0.0856425 -1.06518e-19)
(0.433588 -0.0868874 2.80692e-20)
(0.476281 -0.0870714 -7.46832e-20)
(0.518797 -0.0861173 -8.45123e-21)
(0.560744 -0.0839695 9.39335e-20)
(0.602277 -0.0799332 -1.8387e-20)
(0.640051 -0.0757064 6.85753e-21)
(0.686244 -0.0596216 -3.20089e-20)
(0.00373751 -0.00377611 -3.86963e-20)
(0.0179454 -0.013722 -2.02569e-20)
(0.0389301 -0.0234799 -4.77859e-20)
(0.0646142 -0.0334397 7.83074e-20)
(0.0944148 -0.0428249 -6.52102e-20)
(0.127453 -0.0515424 4.1982e-20)
(0.163192 -0.0593874 -1.75322e-21)
(0.201132 -0.0662906 -1.36413e-19)
(0.240873 -0.0721978 5.58115e-20)
(0.282064 -0.0770884 3.05849e-20)
(0.324392 -0.0809525 -5.02254e-20)
(0.367565 -0.0837861 -3.60253e-20)
(0.411308 -0.0855823 1.78082e-19)
(0.455344 -0.0863249 -4.4668e-21)
(0.499391 -0.085982 3.66196e-20)
(0.543159 -0.0844858 5.56442e-20)
(0.586253 -0.0817989 -2.52855e-20)
(0.628783 -0.077265 -9.43884e-20)
(0.667531 -0.0728145 1.27826e-19)
(0.714569 -0.0560477 1.13695e-20)
(0.00439906 -0.00434236 1.07487e-19)
(0.0200642 -0.0150913 9.9836e-21)
(0.0426736 -0.0253232 5.27e-20)
(0.0700617 -0.0355552 -5.84348e-20)
(0.101623 -0.0450311 -4.50229e-20)
(0.136446 -0.0537037 -4.28823e-20)
(0.173972 -0.0613916 -5.63908e-20)
(0.213683 -0.068048 4.95251e-20)
(0.255166 -0.073635 7.6647e-20)
(0.298054 -0.0781455 -2.03665e-20)
(0.342024 -0.0815805 4.48672e-21)
(0.386775 -0.0839447 9.35067e-20)
(0.432019 -0.0852382 -1.72127e-19)
(0.477472 -0.08545 3.73184e-20)
(0.522845 -0.0845523 6.54638e-20)
(0.567837 -0.0824825 -5.29978e-20)
(0.612053 -0.0792118 2.15507e-20)
(0.655538 -0.0741303 6.28338e-20)
(0.695287 -0.0693763 -1.18534e-19)
(0.742951 -0.0519865 8.31949e-20)
(0.00511781 -0.00492201 -1.66633e-19)
(0.0223306 -0.0164808 -4.10052e-20)
(0.0466365 -0.027178 3.03754e-20)
(0.075787 -0.0376639 -5.01556e-20)
(0.109156 -0.0472047 5.71309e-20)
(0.145798 -0.0558017 -1.48482e-20)
(0.185138 -0.0632987 3.79247e-20)
(0.226639 -0.069673 6.97633e-20)
(0.269871 -0.0749043 -1.465e-19)
(0.314458 -0.0789999 1.07487e-19)
(0.360062 -0.0819727 -3.8209e-21)
(0.406374 -0.083837 -6.93878e-20)
(0.453095 -0.0846004 1.76433e-19)
(0.499937 -0.0842573 -3.49404e-20)
(0.546603 -0.0827826 -7.16808e-21)
(0.592787 -0.0801151 4.5878e-20)
(0.638101 -0.0762205 4.38723e-20)
(0.68251 -0.0705406 -2.53967e-21)
(0.723323 -0.0653462 7.10004e-20)
(0.771318 -0.0473867 4.08719e-20)
(0.00589555 -0.00551268 -2.6085e-20)
(0.0247479 -0.017884 -4.41435e-20)
(0.0508224 -0.0290349 -4.94157e-20)
(0.0817933 -0.0397536 1.09886e-19)
(0.117015 -0.0493317 1.52455e-20)
(0.155511 -0.0578211 3.90935e-20)
(0.196689 -0.0650927 6.51285e-20)
(0.239992 -0.0711494 -3.39999e-20)
(0.28498 -0.0759895 5.08272e-21)
(0.33126 -0.0796362 -9.62608e-20)
(0.378485 -0.082115 -1.6247e-20)
(0.426335 -0.0834508 3.50743e-20)
(0.474504 -0.0836598 -6.90088e-20)
(0.522698 -0.0827424 4.42696e-20)
(0.570618 -0.0806756 3.97368e-20)
(0.61796 -0.0773965 2.34475e-20)
(0.664352 -0.0728499 -1.25177e-20)
(0.709671 -0.0665261 -1.05547e-19)
(0.751651 -0.0606509 -7.34066e-20)
(0.79953 -0.0420877 -4.27861e-20)
(0.0067341 -0.00611212 1.09346e-19)
(0.0273195 -0.0192946 4.98266e-20)
(0.0552348 -0.0308842 8.67509e-20)
(0.0880831 -0.0418124 -1.00184e-19)
(0.125201 -0.0513981 -4.69083e-21)
(0.165583 -0.0597467 -5.09556e-20)
(0.208618 -0.0667576 -3.7762e-20)
(0.253736 -0.0724606 1.00947e-19)
(0.300479 -0.0768743 2.33059e-19)
(0.348443 -0.0800386 -2.4341e-20)
(0.397271 -0.081993 2.12865e-20)
(0.44663 -0.0827741 -6.95146e-20)
(0.496211 -0.0824078 -3.20911e-20)
(0.545713 -0.0809018 -8.62076e-20)
(0.594841 -0.0782363 -5.17474e-20)
(0.643299 -0.0743451 -2.56473e-20)
(0.690752 -0.0691409 8.99067e-22)
(0.737008 -0.0621471 -1.80534e-19)
(0.780339 -0.0551965 1.14327e-19)
(0.827387 -0.0359141 -9.26494e-21)
(0.00763409 -0.00671692 -1.45827e-20)
(0.0300468 -0.0207046 -9.16096e-20)
(0.0598753 -0.0327145 -1.38401e-19)
(0.0946573 -0.0438263 -3.66818e-20)
(0.133712 -0.0533882 -5.2537e-20)
(0.17601 -0.0615613 3.23572e-20)
(0.220921 -0.0682754 2.11299e-20)
(0.267859 -0.0735887 -3.26961e-20)
(0.316354 -0.0775411 -1.92565e-19)
(0.365988 -0.0801906 2.01285e-19)
(0.416393 -0.0815917 5.99398e-20)
(0.467229 -0.0817941 -9.45048e-20)
(0.518177 -0.080835 1.06877e-19)
(0.568935 -0.0787315 8.59705e-20)
(0.619215 -0.0754694 -2.70388e-21)
(0.66874 -0.0709828 -2.35212e-21)
(0.717233 -0.065152 1.08382e-20)
(0.764517 -0.0575131 8.48353e-20)
(0.809657 -0.0490784 -7.98779e-20)
(0.855445 -0.0295699 -1.11391e-19)
(0.00859189 -0.00731956 -1.06838e-19)
(0.0329264 -0.0221012 6.91918e-20)
(0.0647396 -0.0345095 2.04033e-20)
(0.101511 -0.0457762 5.29812e-20)
(0.142543 -0.055281 3.20007e-20)
(0.186782 -0.0632429 -1.9033e-20)
(0.233584 -0.0696236 -4.6153e-20)
(0.282346 -0.0745113 -1.11484e-19)
(0.332585 -0.0779681 4.92635e-20)
(0.383871 -0.0800716 -2.19464e-19)
(0.435823 -0.0808925 -8.26875e-20)
(0.488094 -0.080495 2.16043e-19)
(0.540358 -0.0789292 -1.03485e-19)
(0.592312 -0.0762243 -7.92027e-20)
(0.643677 -0.0723766 1.13337e-20)
(0.694201 -0.0673287 -4.85093e-21)
(0.743688 -0.0609476 5.63467e-21)
(0.792074 -0.052802 4.8532e-20)
(0.839759 -0.0429732 -1.70894e-20)
(0.887216 -0.0254017 -2.82577e-20)
(0.00960746 -0.00791639 2.4398e-20)
(0.0359586 -0.0234761 8.77975e-20)
(0.0698279 -0.0362573 4.00621e-20)
(0.108641 -0.0476476 -1.84552e-20)
(0.151689 -0.0570604 -8.62852e-21)
(0.197894 -0.0647743 -5.76087e-20)
(0.246598 -0.0707846 4.05789e-20)
(0.297183 -0.0752107 7.69268e-20)
(0.349153 -0.0781385 -6.39554e-20)
(0.402066 -0.0796658 1.89712e-19)
(0.455531 -0.0798813 1.02878e-19)
(0.509189 -0.0788648 -4.00492e-20)