/*--------------------------------*- C++ -*----------------------------------*\
  =========                 |
  \\      /  F ield         | OpenFOAM: The Open Source CFD Toolbox
   \\    /   O peration     | Website:  https://openfoam.org
    \\  /    A nd           | Version:  7
     \\/     M anipulation  |
\*---------------------------------------------------------------------------*/
FoamFile
{
    version     2.0;
    format      ascii;
    class       volVectorField;
    location    "60";
    object      U;
}
// * * * * * * * * * * * * * * * * * * * * * * * * * * * * * * * * * * * * * //

dimensions      [0 1 -1 0 0 0 0];

internalField   nonuniform List<vector> 
2625
(
(1.13549 -0.00268684 -1.60141e-21)
(1.13729 -0.00267851 4.69749e-22)
(1.13908 -0.00267008 -3.02288e-22)
(1.14088 -0.00266155 1.09798e-21)
(1.14268 -0.00265292 2.09801e-22)
(1.14447 -0.00264418 -1.21658e-21)
(1.14627 -0.00263532 9.46715e-22)
(1.14806 -0.00262635 -2.09853e-22)
(1.14985 -0.00261726 -8.08926e-22)
(1.15164 -0.00260805 2.98006e-22)
(1.15343 -0.00259871 5.65797e-23)
(1.15521 -0.00258924 2.3298e-22)
(1.15699 -0.00257962 1.87272e-22)
(1.15876 -0.00256985 -4.2304e-22)
(1.16053 -0.00255992 2.69847e-22)
(1.16229 -0.00254985 6.06197e-23)
(1.16405 -0.00253961 -1.30214e-22)
(1.1658 -0.00252921 7.80501e-24)
(1.16754 -0.00251864 7.02785e-24)
(1.13561 -0.0080287 -4.61654e-22)
(1.13741 -0.00800189 9.05068e-22)
(1.13921 -0.0079747 -1.07111e-21)
(1.14101 -0.00794716 4.92683e-22)
(1.14281 -0.00791924 -2.52622e-22)
(1.14462 -0.00789096 -3.38538e-22)
(1.14642 -0.00786231 3.4638e-22)
(1.14822 -0.00783329 -3.3054e-22)
(1.15001 -0.00780389 3.98229e-22)
(1.15181 -0.00777412 -1.57962e-23)
(1.1536 -0.00774396 -2.84008e-22)
(1.15539 -0.00771341 7.30847e-23)
(1.15717 -0.00768247 2.16551e-23)
(1.15895 -0.00765112 -1.47919e-22)
(1.16073 -0.00761935 8.78464e-23)
(1.1625 -0.00758717 2.01432e-22)
(1.16426 -0.00755457 -5.75525e-23)
(1.16602 -0.00752154 -1.34557e-23)
(1.16777 -0.00748806 1.46636e-23)
(1.13584 -0.0132591 -1.9181e-22)
(1.13764 -0.0132137 8.67971e-22)
(1.13946 -0.0131676 5.54869e-22)
(1.14127 -0.013121 -7.91433e-22)
(1.14308 -0.0130738 -6.43203e-23)
(1.14489 -0.013026 -2.59195e-22)
(1.1467 -0.0129776 2.09538e-22)
(1.14851 -0.0129286 -1.67376e-22)
(1.15032 -0.012879 2.18634e-22)
(1.15213 -0.0128288 9.36323e-23)
(1.15393 -0.0127781 2.36804e-23)
(1.15573 -0.0127267 -1.07581e-22)
(1.15753 -0.0126747 1.47676e-22)
(1.15932 -0.0126221 -2.50745e-22)
(1.1611 -0.0125688 2.25438e-22)
(1.16288 -0.0125149 1.01442e-22)
(1.16466 -0.0124604 -1.17025e-22)
(1.16642 -0.0124052 -2.56527e-23)
(1.16818 -0.0123493 9.64057e-24)
(1.13617 -0.0184042 2.71822e-22)
(1.13799 -0.0183399 8.09729e-23)
(1.13981 -0.0182747 -7.51436e-22)
(1.14164 -0.0182088 2.24012e-22)
(1.14346 -0.0181419 4.40288e-22)
(1.14529 -0.0180743 -2.79858e-22)
(1.14712 -0.0180058 1.40535e-22)
(1.14894 -0.0179365 -3.59244e-22)
(1.15076 -0.0178664 9.5938e-23)
(1.15258 -0.0177955 -2.19998e-22)
(1.1544 -0.0177237 2.91714e-22)
(1.15622 -0.0176512 -6.40093e-23)
(1.15803 -0.0175777 9.90041e-23)
(1.15983 -0.0175035 -9.04849e-23)
(1.16163 -0.0174283 4.75568e-23)
(1.16343 -0.0173523 -7.53186e-23)
(1.16522 -0.0172755 4.47963e-23)
(1.167 -0.0171977 3.85432e-23)
(1.16878 -0.017119 -2.48725e-23)
(1.13659 -0.0234721 6.23402e-22)
(1.13843 -0.0233891 -6.16262e-22)
(1.14027 -0.0233049 -3.49435e-22)
(1.14211 -0.0232196 6.8922e-22)
(1.14396 -0.0231331 1.67767e-22)
(1.1458 -0.0230456 -1.92758e-22)
(1.14764 -0.022957 8.61626e-22)
(1.14949 -0.0228673 -7.39119e-22)
(1.15133 -0.0227766 -7.76311e-23)
(1.15317 -0.0226848 2.51755e-22)
(1.155 -0.0225919 -3.43436e-22)
(1.15683 -0.022498 2.06356e-22)
(1.15866 -0.022403 -4.30148e-22)
(1.16049 -0.0223069 1.16191e-22)
(1.16231 -0.0222097 8.07475e-23)
(1.16412 -0.0221114 -1.71159e-23)
(1.16593 -0.022012 -3.3378e-23)
(1.16774 -0.0219114 -8.85376e-24)
(1.16953 -0.0218097 -2.47471e-24)
(1.13711 -0.028474 -5.73328e-22)
(1.13897 -0.0283723 -1.35118e-22)
(1.14083 -0.0282692 1.87438e-22)
(1.14269 -0.0281646 7.27874e-23)
(1.14455 -0.0280586 -7.17522e-22)
(1.14642 -0.0279512 5.92822e-23)
(1.14828 -0.0278424 1.905e-22)
(1.15014 -0.0277323 -6.46961e-22)
(1.152 -0.0276208 2.04924e-22)
(1.15386 -0.027508 -1.5317e-22)
(1.15572 -0.0273939 3.6616e-22)
(1.15758 -0.0272785 -1.56379e-22)
(1.15943 -0.0271617 -1.32509e-22)
(1.16128 -0.0270435 8.95628e-23)
(1.16312 -0.0269241 -1.45622e-23)
(1.16496 -0.0268032 2.11077e-22)
(1.16679 -0.026681 -3.91881e-23)
(1.16861 -0.0265574 -2.72169e-23)
(1.17043 -0.0264325 -9.25941e-24)
(1.13772 -0.0334185 1.71628e-21)
(1.1396 -0.0332984 -4.3796e-22)
(1.14148 -0.0331764 7.2294e-22)
(1.14336 -0.0330526 -5.42681e-22)
(1.14524 -0.0329271 1.11135e-21)
(1.14713 -0.0327998 -7.61063e-22)
(1.14902 -0.0326709 -5.86834e-22)
(1.1509 -0.0325403 4.37675e-22)
(1.15279 -0.0324081 -4.63558e-22)
(1.15467 -0.0322742 4.15451e-22)
(1.15655 -0.0321387 5.50604e-23)
(1.15843 -0.0320016 -1.74981e-22)
(1.16031 -0.0318629 5.40616e-22)
(1.16218 -0.0317225 -2.50172e-22)
(1.16405 -0.0315806 -3.00227e-23)
(1.16591 -0.031437 -5.83235e-23)
(1.16777 -0.0312918 1.30921e-22)
(1.16962 -0.0311449 3.72625e-24)
(1.17146 -0.0309963 2.93293e-23)
(1.1384 -0.0383137 1.41003e-21)
(1.1403 -0.0381752 -1.06137e-21)
(1.1422 -0.0380345 1.25001e-21)
(1.14411 -0.0378916 -7.55186e-22)
(1.14602 -0.0377466 1.02116e-21)
(1.14793 -0.0375996 -5.33182e-22)
(1.14985 -0.0374505 1.37066e-22)
(1.15176 -0.0372994 -1.87036e-22)
(1.15367 -0.0371463 3.09159e-22)
(1.15558 -0.0369913 -1.06637e-22)
(1.15749 -0.0368343 2.83145e-22)
(1.1594 -0.0366754 -2.31552e-22)
(1.1613 -0.0365146 -1.70771e-22)
(1.1632 -0.0363519 -2.8175e-24)
(1.1651 -0.0361872 8.54982e-23)
(1.16699 -0.0360206 -1.0463e-22)
(1.16887 -0.0358521 -6.26657e-23)
(1.17075 -0.0356816 5.96759e-24)
(1.17262 -0.0355092 9.17314e-24)
(1.13915 -0.0431669 3.31009e-22)
(1.14107 -0.0430101 -6.43797e-22)
(1.14301 -0.0428507 -1.03114e-22)
(1.14494 -0.0426888 6.63474e-23)
(1.14688 -0.0425243 -4.15769e-22)
(1.14882 -0.0423575 -3.38937e-22)
(1.15076 -0.0421882 3.00495e-22)
(1.1527 -0.0420166 1.62226e-22)
(1.15464 -0.0418426 -6.01489e-22)
(1.15658 -0.0416663 -1.83866e-22)
(1.15852 -0.0414877 5.18226e-22)
(1.16045 -0.0413069 -2.09515e-23)
(1.16239 -0.0411238 6.10433e-23)
(1.16432 -0.0409384 4.69558e-24)
(1.16625 -0.0407508 1.67523e-22)
(1.16817 -0.0405609 -7.38627e-23)
(1.17008 -0.0403688 -3.12473e-23)
(1.172 -0.0401745 2.25771e-23)
(1.1739 -0.0399778 7.43447e-24)
(1.13995 -0.0479844 1.4906e-22)
(1.14191 -0.0478094 1.59763e-21)
(1.14387 -0.0476314 -1.3855e-22)
(1.14583 -0.0474505 -3.61044e-22)
(1.1478 -0.0472666 -4.35208e-22)
(1.14977 -0.0470799 4.95088e-22)
(1.15174 -0.0468904 -2.81254e-22)
(1.15371 -0.0466981 -8.30364e-22)
(1.15569 -0.0465031 4.86859e-22)
(1.15766 -0.0463055 2.92724e-22)
(1.15963 -0.0461051 -4.31027e-22)
(1.1616 -0.0459021 6.06749e-22)
(1.16357 -0.0456965 -2.85558e-22)
(1.16553 -0.0454883 -5.51885e-23)
(1.16749 -0.0452775 -1.86704e-22)
(1.16945 -0.0450641 1.48012e-22)
(1.1714 -0.0448481 -3.09073e-23)
(1.17334 -0.0446295 3.46917e-23)
(1.17528 -0.0444083 -1.03678e-23)
(1.14081 -0.0527722 5.64029e-22)
(1.1428 -0.0525792 -1.04774e-21)
(1.14479 -0.0523826 -1.27583e-22)
(1.14679 -0.0521826 8.79243e-22)
(1.14879 -0.0519793 -7.12238e-23)
(1.15079 -0.0517727 -1.61794e-23)
(1.15279 -0.0515628 3.38903e-22)
(1.1548 -0.0513498 -1.01641e-22)
(1.15681 -0.0511336 -3.05531e-23)
(1.15881 -0.0509144 -2.56974e-22)
(1.16082 -0.0506921 5.75689e-23)
(1.16282 -0.0504667 -6.72396e-23)
(1.16483 -0.0502384 -2.41526e-22)
(1.16682 -0.050007 -7.17017e-23)
(1.16882 -0.0497727 1.63247e-22)
(1.17081 -0.0495354 -9.42796e-23)
(1.1728 -0.0492952 4.71496e-23)
(1.17478 -0.049052 -2.90785e-23)
(1.17676 -0.0488058 3.83203e-24)
(1.14171 -0.0575357 1.74799e-21)
(1.14373 -0.0573245 3.16503e-22)
(1.14576 -0.0571093 -4.684e-22)
(1.14779 -0.0568903 -2.53262e-22)
(1.14983 -0.0566674 -1.2233e-22)
(1.15186 -0.0564408 -8.45613e-22)
(1.1539 -0.0562105 3.22713e-23)
(1.15595 -0.0559766 -3.20522e-22)
(1.15799 -0.0557391 4.30889e-22)
(1.16003 -0.0554981 -2.20733e-22)
(1.16208 -0.0552536 5.00942e-22)
(1.16412 -0.0550056 7.12113e-23)
(1.16616 -0.0547542 -1.64753e-22)
(1.1682 -0.0544995 9.59312e-23)
(1.17023 -0.0542413 1.39354e-22)
(1.17226 -0.0539798 -2.62739e-22)
(1.17429 -0.0537149 -3.01273e-23)
(1.17631 -0.0534467 9.92661e-23)
(1.17832 -0.053175 -3.35349e-23)
(1.14471 -0.0620503 -2.07105e-21)
(1.14677 -0.0618165 4.73189e-22)
(1.14884 -0.0615783 4.97879e-22)
(1.15091 -0.0613358 5.17752e-22)
(1.15299 -0.061089 -7.58811e-22)
(1.15507 -0.0608381 8.95795e-22)
(1.15715 -0.0605831 -6.9561e-22)
(1.15923 -0.0603241 -3.86882e-22)
(1.16131 -0.0600611 -5.687e-23)
(1.16339 -0.0597941 1.77176e-22)
(1.16548 -0.0595232 -1.29016e-22)
(1.16756 -0.0592485 2.51178e-22)
(1.16964 -0.05897 1.49468e-22)
(1.17171 -0.0586876 -2.13336e-22)
(1.17378 -0.0584014 1.56744e-22)
(1.17585 -0.0581115 -1.06141e-22)
(1.17791 -0.0578178 -3.87284e-23)
(1.17997 -0.0575203 1.13092e-23)
(1.14571 -0.0667607 1.02115e-21)
(1.14781 -0.0665082 1.86625e-22)
(1.14992 -0.0662508 -1.10309e-21)
(1.15203 -0.0659885 -1.98494e-22)
(1.15415 -0.0657215 1.21176e-21)
(1.15627 -0.0654498 5.55086e-23)
(1.15839 -0.0651735 -5.81097e-23)
(1.16052 -0.0648927 7.4131e-22)
(1.16264 -0.0646074 -1.00456e-22)
(1.16477 -0.0643177 -5.20897e-22)
(1.16689 -0.0640236 -3.99313e-22)
(1.16902 -0.0637251 -1.98127e-22)
(1.17114 -0.0634224 4.91099e-23)
(1.17326 -0.0631155 -1.5894e-22)
(1.17537 -0.0628042 -1.33452e-22)
(1.17748 -0.0624887 3.23734e-23)
(1.17959 -0.062169 7.02198e-23)
(1.18169 -0.0618451 -7.61155e-24)
(1.14674 -0.0714596 -8.88663e-22)
(1.14888 -0.0711884 -7.70063e-22)
(1.15103 -0.0709116 -7.98327e-23)
(1.15319 -0.0706294 1.56041e-21)
(1.15535 -0.070342 -3.95899e-22)
(1.15751 -0.0700493 3.19267e-22)
(1.15968 -0.0697515 7.13573e-22)
(1.16185 -0.0694486 -4.41202e-22)
(1.16402 -0.0691407 -1.6097e-22)
(1.16619 -0.0688279 -7.75875e-23)
(1.16836 -0.0685101 3.28112e-22)
(1.17053 -0.0681877 3.44445e-22)
(1.17269 -0.0678604 2.41449e-22)
(1.17486 -0.0675284 -6.59427e-23)
(1.17702 -0.0671916 7.59466e-23)
(1.17918 -0.06685 1.19024e-23)
(1.18133 -0.0665038 -5.58501e-23)
(1.18348 -0.0661529 -7.51186e-24)
(1.14778 -0.0761506 2.83799e-22)
(1.14997 -0.0758604 -1.88969e-23)
(1.15217 -0.0755642 1.31002e-21)
(1.15437 -0.0752619 -2.07935e-22)
(1.15657 -0.0749538 -9.71114e-22)
(1.15878 -0.0746399 4.19183e-22)
(1.161 -0.0743203 3.54227e-22)
(1.16321 -0.0739951 1.19442e-21)
(1.16543 -0.0736642 4.66241e-23)
(1.16765 -0.0733279 3.76269e-22)
(1.16986 -0.072986 1.91149e-24)
(1.17208 -0.0726391 -3.82413e-22)
(1.1743 -0.0722869 -2.76553e-22)
(1.17651 -0.0719293 9.59255e-23)
(1.17872 -0.0715665 3.83863e-23)
(1.18093 -0.0711984 3.80307e-23)
(1.18313 -0.0708251 -1.14493e-23)
(1.18533 -0.0704466 2.03793e-23)
(1.14884 -0.0808366 6.69231e-22)
(1.15107 -0.0805274 8.37276e-23)
(1.15332 -0.0802116 -9.83132e-22)
(1.15557 -0.0798891 4.12908e-22)
(1.15782 -0.0795602 -6.50325e-22)
(1.16008 -0.0792248 -6.11602e-22)
(1.16234 -0.0788832 -3.5512e-22)
(1.16461 -0.0785353 -1.86754e-22)
(1.16687 -0.0781814 2.58263e-22)
(1.16914 -0.0778215 -4.58285e-22)
(1.17141 -0.0774557 -6.06307e-22)
(1.17368 -0.0770834 3.12412e-22)
(1.17594 -0.0767053 -1.55891e-22)
(1.17821 -0.0763215 -7.96636e-25)
(1.18047 -0.075932 4.26795e-24)
(1.18272 -0.0755367 -7.37409e-25)
(1.18498 -0.0751356 -3.71309e-23)
(1.18723 -0.0747289 -1.36534e-24)
(1.1499 -0.0855204 5.29696e-22)
(1.15219 -0.0851922 4.36809e-22)
(1.15448 -0.0848566 -1.08733e-21)
(1.15678 -0.0845137 7.65651e-22)
(1.15909 -0.0841636 -1.12294e-22)
(1.1614 -0.0838065 7.50269e-22)
(1.16371 -0.0834425 -2.22381e-22)
(1.16603 -0.0830716 2.9515e-24)
(1.16835 -0.082694 4.95756e-23)
(1.17066 -0.0823099 9.65399e-22)
(1.17298 -0.0819192 1.8912e-22)
(1.17531 -0.0815215 1.78706e-22)
(1.17762 -0.0811174 2.96359e-22)
(1.17994 -0.0807069 1.97897e-22)
(1.18225 -0.0802901 4.56219e-23)
(1.18457 -0.079867 -1.0228e-22)
(1.18687 -0.0794376 -2.47658e-23)
(1.18917 -0.0790019 -1.53206e-25)
(1.15096 -0.0902046 -7.63824e-22)
(1.1533 -0.0898572 -1.43134e-21)
(1.15565 -0.0895016 5.32184e-22)
(1.158 -0.0891381 7.13183e-22)
(1.16036 -0.0887666 -2.00366e-22)
(1.16273 -0.0883875 4.76094e-23)
(1.16509 -0.0880007 -1.30036e-21)
(1.16747 -0.0876063 -3.4653e-22)
(1.16984 -0.0872045 2.80938e-24)
(1.17221 -0.0867954 -1.17364e-21)
(1.17459 -0.0863789 3.12834e-24)
(1.17696 -0.0859556 -3.0656e-22)
(1.17934 -0.0855252 -8.37982e-23)
(1.18171 -0.0850876 -1.59105e-22)
(1.18408 -0.0846431 -1.73359e-22)
(1.18645 -0.0841915 -4.56652e-23)
(1.18881 -0.0837331 6.99986e-23)
(1.19117 -0.0832677 -2.49963e-23)
(1.15201 -0.0948914 5.30258e-22)
(1.15441 -0.0945247 3.26084e-21)
(1.15681 -0.094149 -7.01748e-22)
(1.15923 -0.0937646 2.5602e-22)
(1.16164 -0.0933716 -1.13067e-21)
(1.16406 -0.09297 8.98534e-22)
(1.16649 -0.0925602 -6.91292e-22)
(1.16892 -0.0921421 6.34821e-22)
(1.17135 -0.0917158 -3.44622e-22)
(1.17378 -0.0912815 3.82453e-22)
(1.17621 -0.0908393 2.2031e-22)
(1.17864 -0.0903893 -6.16645e-23)
(1.18108 -0.0899316 2.56309e-22)
(1.18351 -0.0894662 -6.87045e-23)
(1.18593 -0.0889931 1.11705e-22)
(1.18836 -0.0885123 1.11609e-22)
(1.19078 -0.088024 -8.76487e-24)
(1.19319 -0.0875281 4.09156e-23)
(1.15306 -0.0995828 1.07971e-22)
(1.15551 -0.0991967 2.2639e-22)
(1.15798 -0.0988007 2.25615e-22)
(1.16045 -0.0983953 -5.57638e-22)
(1.16293 -0.0979804 4.17761e-22)
(1.16541 -0.0975562 -1.22303e-21)
(1.16789 -0.0971229 -1.29939e-23)
(1.17038 -0.0966806 1.12461e-22)
(1.17287 -0.0962294 -1.49076e-23)
(1.17536 -0.0957694 4.97573e-22)
(1.17785 -0.0953008 -5.97631e-22)
(1.18035 -0.0948237 3.65489e-22)
(1.18284 -0.0943381 -4.03556e-23)
(1.18533 -0.0938441 -2.32971e-23)
(1.18782 -0.0933417 -3.72207e-23)
(1.1903 -0.092831 -1.24862e-22)
(1.19278 -0.092312 -1.94559e-24)
(1.19526 -0.0917846 -2.4717e-23)
(1.15409 -0.104281 -1.20509e-22)
(1.15661 -0.103875 -2.7281e-21)
(1.15913 -0.103459 2.02073e-21)
(1.16167 -0.103032 5.11409e-22)
(1.1642 -0.102595 -1.25458e-22)
(1.16675 -0.102148 -3.49542e-22)
(1.1693 -0.101691 8.42337e-23)
(1.17185 -0.101224 8.17584e-22)
(1.1744 -0.100747 1.03389e-22)
(1.17695 -0.100261 -4.09307e-23)
(1.17951 -0.0997653 2.08732e-22)
(1.18206 -0.0992605 -4.32081e-22)
(1.18462 -0.0987463 9.33504e-23)
(1.18717 -0.098223 7.42539e-23)
(1.18972 -0.0976905 -4.62676e-24)
(1.19227 -0.097149 -2.86216e-23)
(1.19481 -0.0965984 1.46414e-23)
(1.19735 -0.0960387 -4.2638e-24)
(1.1551 -0.108987 -1.18188e-21)
(1.15768 -0.108561 1.61857e-21)
(1.16028 -0.108124 -1.18206e-21)
(1.16287 -0.107676 5.45093e-22)
(1.16548 -0.107217 5.34796e-22)
(1.16809 -0.106746 4.62282e-22)
(1.1707 -0.106265 9.33859e-22)
(1.17332 -0.105773 -9.81769e-22)
(1.17593 -0.10527 -4.28137e-22)
(1.17855 -0.104758 7.86017e-22)
(1.18117 -0.104234 -2.1201e-22)
(1.18379 -0.103701 1.12709e-22)
(1.18641 -0.103158 -1.00213e-23)
(1.18903 -0.102604 1.2988e-22)
(1.19165 -0.102041 1.35545e-22)
(1.19426 -0.101468 4.5988e-23)
(1.19687 -0.100884 -3.12573e-25)
(1.19947 -0.100291 2.23415e-23)
(1.15609 -0.113702 -7.30066e-22)
(1.15874 -0.113257 -1.30884e-21)
(1.1614 -0.1128 -8.7267e-22)
(1.16407 -0.11233 -1.56503e-21)
(1.16674 -0.111847 5.74046e-22)
(1.16942 -0.111353 1.67274e-22)
(1.1721 -0.110847 -4.92706e-22)
(1.17478 -0.11033 2.534e-22)
(1.17747 -0.109801 7.78618e-22)
(1.18016 -0.109261 -4.51498e-22)
(1.18284 -0.108709 -4.68701e-23)
(1.18553 -0.108147 -9.01106e-23)
(1.18822 -0.107574 -1.89007e-22)
(1.1909 -0.106989 -2.39774e-22)
(1.19359 -0.106394 -1.48179e-22)
(1.19627 -0.105788 1.75921e-23)
(1.19894 -0.105171 -4.97143e-23)
(1.20161 -0.104544 -2.21377e-24)
(1.15705 -0.118429 9.85519e-22)
(1.15978 -0.117964 1.58621e-21)
(1.16251 -0.117485 1.89198e-21)
(1.16525 -0.116994 -1.91735e-21)
(1.16799 -0.116489 -1.25629e-21)
(1.17074 -0.11597 -2.0402e-22)
(1.17349 -0.11544 5.791e-22)
(1.17625 -0.114896 -6.77024e-22)
(1.179 -0.11434 -9.09193e-22)
(1.18176 -0.113772 -1.51952e-22)
(1.18452 -0.113192 6.99734e-22)
(1.18728 -0.112599 1.41616e-23)
(1.19004 -0.111995 1.72366e-22)
(1.19279 -0.111379 2.79723e-22)
(1.19554 -0.110751 2.51546e-22)
(1.19829 -0.110111 -3.06461e-23)
(1.20103 -0.10946 5.13233e-23)
(1.20377 -0.108796 -7.50459e-24)
(1.15799 -0.123168 -5.67893e-22)
(1.16079 -0.122683 -1.62487e-21)
(1.16359 -0.122183 -1.09929e-21)
(1.16641 -0.12167 1.12339e-21)
(1.16923 -0.121141 2.62638e-21)
(1.17205 -0.120599 3.86064e-22)
(1.17487 -0.120043 -6.40652e-22)
(1.1777 -0.119473 4.4314e-23)
(1.18053 -0.118889 1.01715e-21)
(1.18337 -0.118292 -3.15054e-23)
(1.1862 -0.117683 2.61665e-22)
(1.18903 -0.11706 2.25655e-22)
(1.19186 -0.116424 -1.75256e-22)
(1.19469 -0.115775 -6.85382e-23)
(1.19751 -0.115113 -5.71687e-23)
(1.20033 -0.114438 -3.19795e-23)
(1.20314 -0.11375 1.65033e-23)
(1.20595 -0.113049 -5.43306e-24)
(1.15889 -0.12792 2.93142e-21)
(1.16177 -0.127415 1.85314e-21)
(1.16466 -0.126895 4.14621e-22)
(1.16755 -0.126359 -1.02844e-21)
(1.17044 -0.125807 -1.13077e-21)
(1.17334 -0.12524 -3.66356e-22)
(1.17625 -0.124658 2.82198e-22)
(1.17915 -0.124061 7.88216e-22)
(1.18206 -0.123449 -7.55602e-22)
(1.18497 -0.122823 5.4441e-22)
(1.18787 -0.122183 -8.65131e-22)
(1.19078 -0.121528 1.62914e-22)
(1.19369 -0.12086 -3.69971e-23)
(1.19659 -0.120177 -6.85615e-23)
(1.19949 -0.11948 -2.9848e-23)
(1.20238 -0.118769 1.18007e-23)
(1.20527 -0.118043 -2.23327e-24)
(1.20815 -0.117304 9.38369e-24)
(1.15976 -0.132686 -3.02856e-21)
(1.16272 -0.132162 -7.64136e-22)
(1.16569 -0.131621 -2.44472e-21)
(1.16866 -0.131062 2.42779e-21)
(1.17164 -0.130487 -1.10143e-21)
(1.17462 -0.129895 -8.90826e-22)
(1.1776 -0.129286 -1.38235e-22)
(1.18059 -0.128662 3.70894e-22)
(1.18358 -0.128022 1.2011e-21)
(1.18656 -0.127366 -7.72881e-22)
(1.18955 -0.126694 1.68096e-22)
(1.19254 -0.126007 -5.49129e-22)
(1.19552 -0.125305 4.2526e-24)
(1.1985 -0.124587 2.04139e-22)
(1.20147 -0.123853 -5.56312e-23)
(1.20444 -0.123104 -3.09772e-25)
(1.20741 -0.12234 -3.3395e-24)
(1.21036 -0.121559 2.72535e-24)
(1.1606 -0.137469 1.80595e-21)
(1.16364 -0.136925 -2.18125e-21)
(1.1667 -0.136362 3.05469e-21)
(1.16975 -0.135781 -2.94436e-21)
(1.17281 -0.135182 1.09887e-21)
(1.17588 -0.134565 -1.83103e-22)
(1.17895 -0.13393 -2.13025e-22)
(1.18202 -0.133278 -1.2258e-21)
(1.18509 -0.132608 -1.7931e-22)
(1.18815 -0.131921 5.08159e-22)
(1.19122 -0.131218 -8.34688e-23)
(1.19429 -0.130497 4.98308e-22)
(1.19735 -0.129759 -6.88449e-23)
(1.20041 -0.129005 -1.77226e-22)
(1.20347 -0.128233 -5.19874e-23)
(1.20651 -0.127445 6.30743e-23)
(1.20955 -0.126639 -2.0681e-23)
(1.21259 -0.125816 -2.25282e-24)
(1.1614 -0.142268 -1.67087e-24)
(1.16453 -0.141704 2.18171e-21)
(1.16767 -0.141121 -8.6921e-22)
(1.17082 -0.140517 2.55369e-21)
(1.17397 -0.139894 -2.58961e-21)
(1.17712 -0.139251 2.06009e-21)
(1.18027 -0.138589 9.60211e-22)
(1.18343 -0.137908 7.31074e-22)
(1.18658 -0.137209 -1.34671e-21)
(1.18974 -0.136491 1.2183e-22)
(1.19289 -0.135754 2.54013e-22)
(1.19604 -0.134998 -4.97313e-23)
(1.19919 -0.134224 1.71426e-22)
(1.20233 -0.133432 9.62164e-23)
(1.20547 -0.132621 1.10629e-22)
(1.2086 -0.131791 -6.27136e-23)
(1.21171 -0.130942 1.5201e-23)
(1.21482 -0.130074 2.8344e-25)
(1.16216 -0.147085 6.13302e-23)
(1.16538 -0.146502 -1.99688e-21)
(1.16862 -0.145897 7.86026e-22)
(1.17185 -0.145271 -1.34852e-21)
(1.1751 -0.144623 2.0235e-21)
(1.17834 -0.143955 -1.42064e-21)
(1.18158 -0.143265 7.72036e-23)
(1.18483 -0.142555 5.98162e-22)
(1.18807 -0.141825 3.62165e-22)
(1.19132 -0.141074 1.92903e-22)
(1.19456 -0.140303 3.25827e-22)
(1.1978 -0.139512 -6.65517e-22)
(1.20103 -0.1387 2.05906e-22)
(1.20426 -0.137868 -1.60478e-22)
(1.20747 -0.137015 -6.72905e-23)
(1.21068 -0.136142 1.48049e-23)
(1.21389 -0.135248 7.13746e-24)
(1.21707 -0.134332 1.02824e-24)
(1.16288 -0.15192 -3.51817e-21)
(1.1662 -0.151318 1.64812e-21)
(1.16953 -0.150693 -1.30193e-21)
(1.17286 -0.150044 6.07876e-22)
(1.1762 -0.149372 5.72533e-22)
(1.17954 -0.148677 1.25055e-21)
(1.18288 -0.147959 3.78825e-22)
(1.18622 -0.14722 -5.58824e-22)
(1.18955 -0.146457 7.77219e-23)
(1.19289 -0.145673 -1.05487e-21)
(1.19622 -0.144866 -2.5659e-22)
(1.19955 -0.144038 2.82693e-22)
(1.20287 -0.143187 -2.91903e-22)
(1.20618 -0.142313 8.8728e-23)
(1.20949 -0.141417 6.00805e-23)
(1.21278 -0.140498 5.44806e-24)
(1.21607 -0.139555 1.13545e-25)
(1.21933 -0.138589 2.51755e-24)
(1.16356 -0.156776 2.39566e-21)
(1.16698 -0.156155 6.35029e-22)
(1.17041 -0.155509 7.7431e-22)
(1.17384 -0.154837 1.1504e-21)
(1.17728 -0.154141 -1.47151e-21)
(1.18072 -0.153419 5.36853e-22)
(1.18415 -0.152673 -1.04055e-21)
(1.18759 -0.151903 -4.80681e-22)
(1.19102 -0.151108 -5.42207e-22)
(1.19445 -0.150289 5.5061e-22)
(1.19788 -0.149446 -2.91966e-22)
(1.2013 -0.148578 5.35495e-23)
(1.20471 -0.147686 -6.06344e-24)
(1.20811 -0.146768 -2.41882e-23)
(1.21151 -0.145826 -8.6121e-23)
(1.21489 -0.144858 6.03055e-24)
(1.21825 -0.143865 -1.60692e-24)
(1.22161 -0.142844 -4.1259e-24)
(1.16419 -0.161653 -1.15536e-21)
(1.16773 -0.161014 -9.15159e-22)
(1.17126 -0.160347 -5.07099e-23)
(1.1748 -0.159653 -2.18705e-21)
(1.17834 -0.158932 -7.65352e-22)
(1.18187 -0.158183 -1.13458e-22)
(1.18541 -0.157408 -1.12209e-22)
(1.18895 -0.156606 8.12197e-22)
(1.19248 -0.155778 9.68855e-22)
(1.19601 -0.154923 -2.71011e-22)
(1.19953 -0.154041 8.28607e-22)
(1.20305 -0.153132 -2.5571e-22)
(1.20656 -0.152196 -1.14161e-22)
(1.21005 -0.151233 -8.08513e-23)
(1.21353 -0.150242 1.65597e-23)
(1.217 -0.149222 1.83912e-24)
(1.22045 -0.148174 9.38785e-24)
(1.22389 -0.147096 -7.83372e-24)
(1.16479 -0.166552 3.62869e-21)
(1.16843 -0.165896 -2.47439e-22)
(1.17208 -0.165209 -1.60512e-21)
(1.17572 -0.164492 2.82584e-22)
(1.17937 -0.163746 -1.02626e-21)
(1.18301 -0.16297 -4.91189e-22)
(1.18666 -0.162165 5.84548e-22)
(1.1903 -0.161331 -1.91295e-22)
(1.19393 -0.160467 -2.72281e-22)
(1.19757 -0.159575 2.15794e-22)
(1.20119 -0.158652 -1.52589e-22)
(1.2048 -0.157701 2.94544e-22)
(1.2084 -0.156719 1.31822e-22)
(1.21199 -0.155707 8.96242e-23)
(1.21557 -0.154663 1.22852e-24)
(1.21912 -0.153589 2.89371e-23)
(1.22266 -0.152482 -5.12232e-23)
(1.22617 -0.151342 3.85552e-24)
(1.16535 -0.171476 -2.97016e-21)
(1.1691 -0.170802 1.96378e-21)
(1.17286 -0.170095 8.5605e-22)
(1.17662 -0.169356 -1.42128e-21)
(1.18038 -0.168584 2.34042e-21)
(1.18413 -0.167781 1.76431e-21)
(1.18789 -0.166945 -2.96224e-22)
(1.19164 -0.166077 -9.77656e-22)
(1.19538 -0.165177 5.86284e-22)
(1.19911 -0.164245 -1.92864e-22)
(1.20284 -0.163281 -2.5792e-22)
(1.20656 -0.162284 -6.72121e-23)
(1.21026 -0.161253 -6.07607e-23)
(1.21394 -0.160189 -2.34291e-23)
(1.21761 -0.15909 -4.71782e-24)
(1.22125 -0.157956 -7.31562e-23)
(1.22488 -0.156786 7.9035e-24)
(1.22847 -0.155579 1.43379e-23)
(1.16587 -0.176425 3.68137e-22)
(1.16974 -0.175734 -1.86287e-21)
(1.17362 -0.175008 5.17943e-22)
(1.17749 -0.174246 3.66005e-21)
(1.18137 -0.173449 -9.12624e-22)
(1.18524 -0.172617 -1.87122e-21)
(1.18911 -0.171749 -2.8117e-22)
(1.19297 -0.170847 -1.59461e-22)
(1.19682 -0.169909 -1.90106e-22)
(1.20066 -0.168935 2.93636e-22)
(1.20449 -0.167926 -1.3736e-22)
(1.20831 -0.16688 1.22241e-22)
(1.21211 -0.165798 1.67663e-22)
(1.21589 -0.164678 1.0103e-23)
(1.21965 -0.163519 4.02951e-23)
(1.22339 -0.162322 -2.61605e-23)
(1.2271 -0.161085 9.70852e-23)
(1.23078 -0.159806 -2.93897e-23)
(1.16635 -0.181402 -7.73262e-23)
(1.17035 -0.180694 2.0902e-21)
(1.17434 -0.179948 4.56866e-22)
(1.17834 -0.179164 -1.54572e-21)
(1.18234 -0.178341 -4.35905e-22)
(1.18633 -0.177479 -4.86262e-22)
(1.19031 -0.176579 4.1332e-22)
(1.19429 -0.17564 1.89596e-22)
(1.19825 -0.174662 8.77793e-23)
(1.20221 -0.173645 -5.92345e-23)
(1.20615 -0.172588 1.44276e-23)
(1.21007 -0.171491 -2.38914e-22)
(1.21397 -0.170353 -1.2142e-22)
(1.21785 -0.169173 -5.03537e-24)
(1.22171 -0.16795 -1.13192e-23)
(1.22554 -0.166685 2.56819e-23)
(1.22933 -0.165374 -4.34635e-23)
(1.23309 -0.164018 7.61075e-24)
(1.16679 -0.186407 3.24196e-21)
(1.17092 -0.185684 -4.64155e-21)
(1.17504 -0.184919 -1.58713e-21)
(1.17917 -0.184111 1.29538e-21)
(1.18329 -0.183261 1.36826e-21)
(1.1874 -0.182369 -2.39047e-22)
(1.19151 -0.181435 -1.09998e-21)
(1.1956 -0.180458 -3.8494e-22)
(1.19969 -0.179438 6.00967e-23)
(1.20375 -0.178374 -1.26053e-22)
(1.2078 -0.177266 1.42945e-22)
(1.21184 -0.176114 6.15374e-23)
(1.21584 -0.174916 2.80558e-23)
(1.21982 -0.173672 3.97459e-23)
(1.22377 -0.17238 -9.19756e-24)
(1.22769 -0.171041 2.03723e-22)
(1.23156 -0.169651 -1.11314e-22)
(1.2354 -0.168211 1.74741e-23)
(1.1672 -0.191444 -2.5739e-21)
(1.17146 -0.190705 3.51511e-22)
(1.17572 -0.18992 2.29358e-21)
(1.17998 -0.189089 -2.99736e-21)
(1.18422 -0.188212 -1.72885e-21)
(1.18847 -0.187288 7.99297e-22)
(1.1927 -0.186318 1.68205e-21)
(1.19692 -0.185301 1.19329e-21)
(1.20112 -0.184237 -5.89726e-22)
(1.2053 -0.183122 1.1036e-22)
(1.20947 -0.18196 -1.1382e-22)
(1.2136 -0.180748 6.73251e-23)
(1.21772 -0.179485 -1.63194e-24)
(1.22179 -0.178172 -7.52422e-24)
(1.22584 -0.176806 -1.19184e-22)
(1.22984 -0.175386 -8.4825e-23)
(1.2338 -0.173912 1.51445e-22)
(1.23771 -0.172381 1.00183e-23)
(1.16758 -0.196513 3.89548e-21)
(1.17198 -0.195759 1.31028e-21)
(1.17637 -0.194955 -1.22461e-21)
(1.18077 -0.1941 2.00888e-21)
(1.18515 -0.193194 3.12841e-21)
(1.18952 -0.192237 -9.15288e-22)
(1.19388 -0.191228 -5.0305e-22)
(1.19822 -0.190167 8.25629e-23)
(1.20255 -0.189054 1.58884e-22)
(1.20685 -0.187887 -5.12815e-23)
(1.21113 -0.186666 1.21319e-22)
(1.21538 -0.185391 4.06933e-24)
(1.21959 -0.184059 -2.11732e-23)
(1.22377 -0.182671 1.23957e-22)
(1.22791 -0.181224 1.54243e-22)
(1.232 -0.179718 -1.33652e-22)
(1.23604 -0.178152 -1.37129e-23)
(1.24002 -0.176523 -8.10259e-23)
(1.16793 -0.201617 -5.51604e-21)
(1.17247 -0.200848 1.72344e-21)
(1.17701 -0.200024 4.05305e-22)
(1.18154 -0.199143 -1.04309e-21)
(1.18606 -0.198207 -1.517e-21)
(1.19057 -0.197214 9.73776e-22)
(1.19506 -0.196165 -1.47114e-21)
(1.19954 -0.195058 1.60024e-22)
(1.20399 -0.193892 -9.60984e-23)
(1.20841 -0.192668 -9.09828e-24)
(1.2128 -0.191385 -6.26632e-23)
(1.21716 -0.19004 -1.62017e-23)
(1.22148 -0.188634 -9.74019e-23)
(1.22575 -0.187164 -2.103e-22)
(1.22998 -0.185631 -2.54873e-22)
(1.23415 -0.184032 -1.77805e-22)
(1.23827 -0.182366 1.2873e-23)
(1.24231 -0.180631 -1.16412e-24)
(1.16825 -0.206758 2.01697e-21)
(1.17294 -0.205973 -1.35159e-21)
(1.17763 -0.205128 -4.69385e-22)
(1.18231 -0.204221 -1.00921e-21)
(1.18697 -0.203253 -1.34004e-22)
(1.19162 -0.202222 -1.56043e-22)
(1.19624 -0.201128 1.54679e-21)
(1.20085 -0.199971 -4.77978e-22)
(1.20542 -0.19875 -4.65765e-23)
(1.20997 -0.197464 -7.95801e-23)
(1.21448 -0.196112 7.33754e-23)
(1.21894 -0.194693 -6.59989e-23)
(1.22337 -0.193206 -4.64977e-23)
(1.22774 -0.191649 1.82285e-22)
(1.23205 -0.190022 4.13824e-22)
(1.23631 -0.188322 3.52802e-22)
(1.24049 -0.186549 2.70429e-23)
(1.2446 -0.1847 4.82989e-23)
(1.16855 -0.211936 1.54586e-21)
(1.1734 -0.211136 1.34511e-21)
(1.17824 -0.210268 -1.06024e-21)
(1.18306 -0.209333 6.1594e-22)
(1.18787 -0.20833 -1.36613e-21)
(1.19266 -0.207259 1.22879e-21)
(1.19743 -0.206118 -6.77807e-23)
(1.20216 -0.204907 -6.69154e-22)
(1.20686 -0.203625 3.84033e-22)
(1.21153 -0.202272 -2.38159e-23)
(1.21616 -0.200846 -2.00579e-23)
(1.22073 -0.199346 9.04801e-23)
(1.22526 -0.197771 4.58812e-22)
(1.22972 -0.19612 -5.58246e-22)
(1.23412 -0.194391 -1.02154e-22)
(1.23845 -0.192583 -3.03713e-22)
(1.2427 -0.190694 2.77059e-23)
(1.24687 -0.188724 8.54827e-24)
(1.16883 -0.217155 3.15665e-22)
(1.17384 -0.216337 -1.9673e-21)
(1.17884 -0.215445 2.0174e-21)
(1.18381 -0.21448 1.29891e-21)
(1.18877 -0.213439 8.51901e-23)
(1.1937 -0.212323 6.84257e-22)
(1.19861 -0.211131 -8.30077e-23)
(1.20348 -0.209862 8.37043e-22)
(1.20831 -0.208514 -5.76418e-22)
(1.2131 -0.207088 -2.69779e-23)
(1.21784 -0.205582 1.02135e-22)
(1.22252 -0.203995 -4.90147e-23)
(1.22714 -0.202326 -6.06064e-22)
(1.2317 -0.200572 4.8962e-22)
(1.23618 -0.198734 -3.9592e-22)
(1.24058 -0.196809 6.37744e-23)
(1.24489 -0.194797 -1.13022e-22)
(1.24911 -0.192694 5.19434e-23)
(1.1691 -0.222413 -1.71474e-21)
(1.17428 -0.221576 1.93268e-21)
(1.17943 -0.220659 1.15518e-22)
(1.18456 -0.21966 -1.70098e-21)
(1.18967 -0.218579 1.72854e-21)
(1.19475 -0.217414 -1.5909e-21)
(1.19979 -0.216166 -1.67058e-21)
(1.2048 -0.214832 9.94287e-23)
(1.20976 -0.213414 3.59876e-22)
(1.21467 -0.211909 5.51571e-24)
(1.21952 -0.210316 -2.05753e-23)
(1.22431 -0.208635 -1.65765e-22)
(1.22902 -0.206863 3.57462e-22)
(1.23367 -0.205 3.61153e-22)
(1.23822 -0.203044 -7.0675e-23)
(1.24269 -0.200994 2.07504e-23)
(1.24706 -0.198849 -1.21166e-22)
(1.25131 -0.196606 -7.96004e-23)
(1.16937 -0.227712 3.70714e-21)
(1.1747 -0.226855 5.35356e-22)
(1.18002 -0.225908 -2.72658e-21)
(1.18531 -0.224872 2.36466e-21)
(1.19057 -0.223746 3.07e-22)
(1.1958 -0.222529 6.17679e-23)
(1.20098 -0.221219 6.73882e-22)
(1.20612 -0.219816 -5.73501e-22)
(1.21121 -0.218321 -2.00117e-22)
(1.21623 -0.21673 7.40433e-23)
(1.2212 -0.215043 -2.29087e-23)
(1.22609 -0.21326 6.96162e-23)
(1.2309 -0.211378 4.5975e-22)
(1.23562 -0.209397 -9.27266e-22)
(1.24025 -0.207316 1.35863e-22)
(1.24477 -0.205132 -7.13468e-23)
(1.24918 -0.202845 7.04441e-23)
(1.25348 -0.200453 9.23012e-24)
(1.16962 -0.233052 2.67054e-23)
(1.17513 -0.232171 -2.26303e-21)
(1.18061 -0.231192 2.9735e-21)
(1.18606 -0.230115 -2.23933e-21)
(1.19147 -0.228939 -1.60956e-21)
(1.19685 -0.227663 1.05213e-21)
(1.20217 -0.226288 4.06807e-24)
(1.20744 -0.224811 3.59753e-22)
(1.21265 -0.22323 1.592e-22)
(1.2178 -0.221545 -2.55303e-22)
(1.22287 -0.219758 -3.21559e-23)
(1.22785 -0.217864 2.19168e-22)
(1.23275 -0.215865 -3.43343e-23)
(1.23755 -0.213757 8.74338e-22)
(1.24224 -0.211541 3.51639e-22)
(1.24682 -0.209215 4.90854e-23)
(1.25127 -0.206777 6.07548e-23)
(1.25559 -0.204226 -1.53827e-22)
(1.17555 -0.237522 -2.55222e-21)
(1.1812 -0.236507 -5.73508e-22)
(1.18681 -0.235384 5.05463e-22)
(1.19238 -0.234153 6.9287e-22)
(1.1979 -0.232814 3.02861e-22)
(1.20336 -0.231365 5.267e-22)
(1.20876 -0.229807 1.22507e-23)
(1.2141 -0.228134 -6.11386e-23)
(1.21935 -0.226349 3.66739e-22)
(1.22452 -0.224453 -9.31587e-23)
(1.2296 -0.222442 -3.47232e-22)
(1.23458 -0.220316 -8.18473e-22)
(1.23945 -0.218074 -3.62099e-22)
(1.2442 -0.215714 -3.95696e-22)
(1.24882 -0.213237 -2.20064e-22)
(1.2533 -0.210639 -9.9577e-23)
(1.25764 -0.207921 3.85483e-23)
(1.19328 -0.239385 6.17228e-22)
(1.19895 -0.237974 -1.86101e-21)
(1.20455 -0.236445 -4.82251e-22)
(1.21008 -0.234796 3.0911e-23)