/*--------------------------------*- C++ -*----------------------------------*\
  =========                 |
  \\      /  F ield         | OpenFOAM: The Open Source CFD Toolbox
   \\    /   O peration     | Website:  https://openfoam.org
    \\  /    A nd           | Version:  7
     \\/     M anipulation  |
\*---------------------------------------------------------------------------*/
FoamFile
{
    version     2.0;
    format      ascii;
    class       volVectorField;
    location    "5";
    object      U;
}
// * * * * * * * * * * * * * * * * * * * * * * * * * * * * * * * * * * * * * //

dimensions      [0 1 -1 0 0 0 0];

internalField   nonuniform List<vector> 
2625
(
(1.26856 0.202401 -4.48593e-23)
(1.27259 0.198809 4.15685e-23)
(1.27642 0.195074 -5.92947e-22)
(1.28002 0.191196 -1.02729e-21)
(1.28339 0.187173 3.56333e-21)
(1.2865 0.183005 6.62089e-22)
(1.28936 0.178692 -3.03963e-21)
(1.29193 0.174233 3.55842e-21)
(1.29421 0.169627 1.38194e-21)
(1.26642 0.199011 -2.33471e-22)
(1.27048 0.195618 -2.92497e-23)
(1.27435 0.19209 -1.27305e-21)
(1.27801 0.188425 1.75975e-22)
(1.28146 0.184623 -1.02579e-21)
(1.28467 0.180683 8.09703e-22)
(1.28764 0.176603 -1.53732e-21)
(1.29035 0.172383 -2.80685e-21)
(1.29279 0.168022 7.57678e-21)
(1.29493 0.163521 -6.87511e-21)
(1.29678 0.158878 -1.89654e-21)
(1.2983 0.154094 -1.78732e-21)
(1.29949 0.14917 -2.03811e-21)
(1.26419 0.195527 -6.26842e-23)
(1.26827 0.192325 1.83478e-22)
(1.27216 0.188996 4.78466e-22)
(1.27587 0.185536 1.0958e-21)
(1.27938 0.181947 1.31854e-21)
(1.28268 0.178225 3.79393e-21)
(1.28576 0.174371 2.26183e-21)
(1.28859 0.170382 9.38686e-22)
(1.29117 0.166259 -9.35209e-21)
(1.29348 0.161999 -1.36896e-21)
(1.29551 0.157604 3.36084e-22)
(1.29725 0.153072 5.35894e-21)
(1.29867 0.148403 2.84065e-21)
(1.29977 0.143598 3.29935e-21)
(1.30052 0.138657 1.54595e-21)
(1.30091 0.133582 -1.80183e-21)
(1.30093 0.128374 1.03259e-20)
(1.26188 0.191956 2.40978e-22)
(1.26596 0.188936 -1.19838e-22)
(1.26988 0.185796 -1.30859e-22)
(1.27362 0.182533 -1.02834e-21)
(1.27719 0.179147 -3.26773e-21)
(1.28055 0.175636 3.77064e-22)
(1.28372 0.171999 -1.56901e-21)
(1.28666 0.168233 4.4612e-22)
(1.28937 0.164339 1.01856e-20)
(1.29183 0.160314 6.17416e-21)
(1.29404 0.156159 4.46633e-21)
(1.29596 0.151871 -1.09268e-22)
(1.2976 0.147451 6.73555e-21)
(1.29894 0.142898 -8.01016e-21)
(1.29995 0.138212 -9.24338e-21)
(1.30063 0.133395 1.07021e-20)
(1.30096 0.128447 -7.19384e-21)
(1.30092 0.123369 -1.67733e-20)
(1.3005 0.118165 -6.0737e-22)
(1.29969 0.112837 1.92472e-21)
(1.2595 0.188304 -1.48613e-23)
(1.26357 0.185457 4.10944e-22)
(1.26749 0.182497 1.59672e-22)
(1.27126 0.179423 7.92399e-22)
(1.27487 0.176231 3.68517e-21)
(1.2783 0.172922 -2.4157e-21)
(1.28154 0.169492 -5.98465e-22)
(1.28457 0.165941 3.94165e-22)
(1.2874 0.162267 -2.80183e-21)
(1.28999 0.158469 -4.84234e-21)
(1.29235 0.154544 -6.55014e-21)
(1.29446 0.150493 4.6193e-21)
(1.29629 0.146314 -7.26448e-21)
(1.29785 0.142006 1.70818e-21)
(1.29911 0.137569 9.45573e-21)
(1.30005 0.133004 -9.59205e-21)
(1.30068 0.128309 1.93165e-21)
(1.30096 0.123487 9.61629e-21)
(1.30088 0.118538 -1.07e-20)
(1.30044 0.113466 7.56505e-22)
(1.29961 0.108273 -6.3601e-21)
(1.29838 0.102962 -1.16985e-20)
(1.25705 0.184577 1.34672e-22)
(1.26111 0.181895 -3.06137e-22)
(1.26503 0.179106 -6.79107e-23)
(1.26881 0.17621 -1.07537e-21)
(1.27245 0.173204 -1.45123e-21)
(1.27592 0.170087 -2.36584e-21)
(1.27922 0.166856 1.4836e-21)
(1.28234 0.16351 1.49056e-21)
(1.28526 0.160048 -1.08928e-21)
(1.28798 0.156467 5.51711e-21)
(1.29047 0.152765 1.03368e-21)
(1.29274 0.148942 -1.09408e-20)
(1.29476 0.144996 -5.46324e-22)
(1.29651 0.140926 7.27238e-21)
(1.298 0.13673 -6.29493e-21)
(1.29919 0.132409 4.11773e-22)
(1.30009 0.127962 5.82164e-21)
(1.30067 0.12339 -4.09243e-21)
(1.30091 0.118692 2.24951e-20)
(1.30081 0.113871 1.16164e-20)
(1.30036 0.108928 6.12325e-21)
(1.29953 0.103866 -9.13126e-21)
(1.29831 0.0986897 -8.57954e-21)
(1.29669 0.0934026 -3.6333e-21)
(1.29467 0.0880106 -8.23203e-21)
(1.25456 0.180784 -8.70578e-23)
(1.25858 0.178257 2.40172e-22)
(1.2625 0.17563 8.56967e-22)
(1.26628 0.172903 1.34168e-21)
(1.26993 0.170072 -2.35941e-21)
(1.27344 0.167138 4.24982e-21)
(1.27679 0.164097 5.87422e-22)
(1.27997 0.160947 -4.53079e-21)
(1.28298 0.157687 -9.38508e-22)
(1.2858 0.154314 -6.86872e-21)
(1.28841 0.150826 6.14563e-21)
(1.29082 0.147223 5.17248e-23)
(1.293 0.143501 3.71202e-21)
(1.29494 0.13966 3.04913e-23)
(1.29663 0.135698 4.63654e-21)
(1.29805 0.131615 6.11134e-21)
(1.2992 0.127408 -5.43496e-21)
(1.30005 0.123079 7.73513e-23)
(1.3006 0.118626 -8.74283e-21)
(1.30083 0.114051 -1.94861e-20)
(1.30072 0.109355 -3.19314e-21)
(1.30026 0.104539 1.26834e-20)
(1.29945 0.0996067 1.24733e-20)
(1.29826 0.0945605 -1.19497e-20)
(1.29668 0.0894051 -2.54908e-21)
(1.29471 0.0841458 -1.1202e-20)
(1.29232 0.078789 -1.54218e-20)
(1.25202 0.176931 -1.53342e-23)
(1.25601 0.174549 -5.61559e-23)
(1.2599 0.172075 -1.78955e-22)
(1.26368 0.169507 4.3173e-22)
(1.26733 0.166844 2.89837e-21)
(1.27086 0.164082 -3.7159e-21)
(1.27425 0.161221 -1.82884e-21)
(1.27748 0.158257 2.18891e-21)
(1.28056 0.15519 -2.32193e-22)
(1.28346 0.152015 4.05428e-21)
(1.28619 0.148733 -4.80176e-21)
(1.28871 0.14534 1.47176e-22)
(1.29104 0.141834 4.91611e-21)
(1.29314 0.138213 -4.82536e-21)
(1.29502 0.134477 1.88598e-21)
(1.29665 0.130623 -3.33184e-21)
(1.29803 0.12665 3.76262e-21)
(1.29913 0.122557 3.05245e-21)
(1.29996 0.118343 -9.97445e-21)
(1.30049 0.114009 -3.76839e-21)
(1.3007 0.109555 -7.4093e-21)
(1.3006 0.104981 -2.18712e-21)
(1.30016 0.10029 -1.23161e-20)
(1.29937 0.0954827 5.72122e-21)
(1.29822 0.0905635 -1.30041e-20)
(1.29669 0.085536 1.66506e-20)
(1.29479 0.0804052 2.25506e-20)
(1.29249 0.0751775 5.59865e-21)
(1.28978 0.0698604 9.19375e-22)
(1.24945 0.173026 -1.14724e-22)
(1.2534 0.17078 -2.84191e-23)
(1.25726 0.16845 -1.06763e-21)
(1.26101 0.166032 -1.70196e-21)
(1.26467 0.163525 -1.06469e-21)
(1.2682 0.160927 7.64846e-23)
(1.27161 0.158236 1.31947e-21)
(1.27488 0.155449 1.86675e-21)
(1.27801 0.152564 -8.65912e-22)
(1.28099 0.149579 -4.98396e-22)
(1.2838 0.146491 -2.63574e-21)
(1.28644 0.143299 7.27249e-21)
(1.28889 0.14 -7.4319e-22)
(1.29114 0.136591 -3.9125e-22)
(1.29318 0.133071 -3.19609e-21)
(1.295 0.129439 -1.39708e-21)
(1.29658 0.125691 -3.3163e-21)
(1.29792 0.121827 -2.23234e-21)
(1.299 0.117846 6.01894e-21)
(1.2998 0.113746 1.47399e-20)
(1.30032 0.109529 9.40467e-21)
(1.30054 0.105192 -2.34349e-21)
(1.30045 0.100739 -4.66683e-21)
(1.30003 0.0961685 2.17788e-20)
(1.29928 0.0914842 2.36408e-20)
(1.29818 0.0866885 6.08596e-21)
(1.29672 0.0817855 -1.9724e-20)
(1.2949 0.0767799 -1.45627e-20)
(1.29269 0.071678 -8.23083e-21)
(1.2901 0.0664875 1.95021e-21)
(1.28711 0.0612184 -2.16425e-20)
(1.24685 0.169075 -3.12941e-24)
(1.25075 0.166957 -3.13861e-23)
(1.25457 0.164761 5.34113e-22)
(1.2583 0.162484 1.11245e-21)
(1.26193 0.160124 1.56608e-21)
(1.26547 0.15768 1.03144e-21)
(1.26889 0.155149 -1.50022e-21)
(1.27218 0.152529 -4.21439e-21)
(1.27536 0.149817 1.87306e-22)
(1.27839 0.147012 -6.07183e-22)
(1.28127 0.144109 1.0844e-21)
(1.284 0.141108 -6.18193e-21)
(1.28656 0.138006 3.31269e-21)
(1.28893 0.1348 1.39163e-21)
(1.29112 0.131488 -2.9379e-21)
(1.29311 0.128067 1.00496e-21)
(1.29488 0.124537 4.30519e-21)
(1.29642 0.120894 -5.36915e-21)
(1.29773 0.117138 -2.93384e-21)
(1.29879 0.113266 -1.51383e-20)
(1.29958 0.109279 3.42502e-21)
(1.3001 0.105175 5.23195e-21)
(1.30033 0.100955 -4.73724e-21)
(1.30027 0.0966182 -1.72855e-20)
(1.29989 0.0921667 -9.38418e-21)
(1.29918 0.0876022 -1.48624e-20)
(1.29815 0.0829273 5.73705e-21)
(1.29677 0.0781459 2.12085e-20)
(1.29503 0.073263 -2.50372e-22)
(1.29293 0.0682852 -1.5787e-20)
(1.29045 0.0632211 1.55434e-20)
(1.2876 0.058082 -4.33039e-22)
(1.28436 0.052883 -4.99708e-21)
(1.28072 0.0476444 6.70616e-22)
(1.24424 0.165085 1.61966e-22)
(1.24808 0.163087 4.23289e-23)
(1.25185 0.161015 5.18983e-22)
(1.25554 0.15887 -3.14537e-23)
(1.25915 0.156649 -9.48412e-22)
(1.26267 0.154349 3.36413e-22)
(1.26609 0.151969 1.61621e-21)
(1.2694 0.149506 3.57268e-21)
(1.2726 0.146957 -2.85277e-22)
(1.27567 0.144321 9.28205e-22)
(1.27861 0.141594 4.76681e-22)
(1.28141 0.138775 -1.58631e-21)
(1.28406 0.135859 -3.2739e-21)
(1.28655 0.132846 3.52743e-21)
(1.28886 0.129733 5.38589e-21)
(1.29099 0.126516 -3.03737e-21)
(1.29293 0.123194 2.95792e-21)
(1.29466 0.119764 8.68366e-21)
(1.29618 0.116225 -1.17595e-21)
(1.29746 0.112574 1.12026e-20)
(1.29851 0.10881 -7.35456e-21)
(1.2993 0.104933 -1.23628e-20)
(1.29983 0.100941 1.09748e-20)
(1.30008 0.0968337 -7.46613e-21)
(1.30005 0.0926119 5.98568e-21)
(1.29971 0.0882766 5.72879e-21)
(1.29907 0.0838294 4.95081e-21)
(1.2981 0.0792731 -2.0678e-21)
(1.2968 0.0746117 1.7833e-21)
(1.29517 0.0698506 2.02239e-20)
(1.29318 0.0649974 -7.07862e-21)
(1.29083 0.0600622 -2.4965e-21)
(1.28812 0.0550588 -1.47153e-21)
(1.28503 0.0500063 -2.3173e-21)
(1.28157 0.0449307 -2.27312e-20)
(1.27772 0.0398686 5.23004e-21)
(1.24161 0.161063 -1.60276e-23)
(1.24539 0.159175 -4.23304e-22)
(1.24911 0.157221 3.9276e-22)
(1.25276 0.155199 -1.45794e-22)
(1.25633 0.153107 2.92262e-22)
(1.25983 0.150942 9.81463e-22)
(1.26323 0.148703 1.23553e-21)
(1.26655 0.146388 -1.26199e-21)
(1.26976 0.143993 7.44461e-22)
(1.27286 0.141516 -2.7922e-21)
(1.27584 0.138955 4.69589e-21)
(1.2787 0.136307 5.98333e-21)
(1.28142 0.133569 2.29466e-21)
(1.284 0.130739 -4.83713e-21)
(1.28642 0.127814 -7.62945e-21)
(1.28867 0.124791 5.7235e-21)
(1.29076 0.121668 2.39512e-22)
(1.29265 0.118443 -5.71381e-21)
(1.29435 0.115112 3.24948e-21)
(1.29584 0.111674 -3.14413e-22)
(1.29711 0.108128 1.02896e-21)
(1.29815 0.10447 2.9136e-21)
(1.29895 0.1007 -5.08433e-21)
(1.2995 0.0968177 1.77369e-20)
(1.29978 0.0928218 -4.99671e-22)
(1.29978 0.0887128 1.30308e-20)
(1.2995 0.0844917 3.89602e-21)
(1.29892 0.0801602 2.6368e-21)
(1.29803 0.0757215 1.93447e-20)
(1.29683 0.0711799 -6.73159e-21)
(1.29529 0.0665418 4.48974e-21)
(1.29343 0.0618164 -6.75733e-21)
(1.29121 0.0570161 -7.48807e-21)
(1.28865 0.0521585 6.37265e-21)
(1.28573 0.0472681 1.71353e-20)
(1.28245 0.0423788 1.32793e-20)
(1.23898 0.157015 -3.76293e-23)
(1.24269 0.15523 3.20512e-22)
(1.24634 0.153385 -8.73459e-22)
(1.24994 0.151477 9.84985e-23)
(1.25348 0.149506 -5.84218e-22)
(1.25694 0.147467 -4.60563e-23)
(1.26032 0.14536 2.59696e-22)
(1.26363 0.143183 1.0066e-21)
(1.26684 0.140932 -6.39495e-22)
(1.26996 0.138605 5.30772e-22)
(1.27297 0.136199 -1.70083e-21)
(1.27587 0.133713 -3.52267e-21)
(1.27865 0.131143 -9.33492e-22)
(1.28129 0.128486 3.56579e-21)
(1.2838 0.12574 3.2498e-21)
(1.28617 0.122902 -3.64591e-21)
(1.28837 0.119969 -8.94702e-21)
(1.29041 0.116939 5.31906e-21)
(1.29227 0.113808 -7.80467e-23)
(1.29394 0.110575 -1.0019e-21)
(1.29541 0.107237 7.05325e-21)
(1.29668 0.103792 7.23103e-21)
(1.29772 0.100238 -7.64342e-21)
(1.29853 0.0965745 -1.36111e-20)
(1.2991 0.0927996 -1.06335e-20)
(1.29941 0.0889131 -4.63833e-21)
(1.29946 0.0849153 -5.98472e-21)
(1.29924 0.0808073 -5.14235e-21)
(1.29873 0.076591 -1.41697e-20)
(1.29793 0.0722702 -3.22834e-22)
(1.29682 0.0678501 -1.4336e-20)
(1.2954 0.0633386 -3.11965e-21)
(1.29366 0.0587472 2.87478e-20)
(1.29159 0.0540917 1.38228e-21)
(1.28918 0.0493947 -1.19159e-20)
(1.28643 0.0446878 2.54268e-21)
(1.23634 0.152946 -1.82946e-23)
(1.23998 0.151257 1.63839e-22)
(1.24357 0.149513 4.66259e-22)
(1.24711 0.147712 1.78107e-22)
(1.25059 0.145853 1.93134e-22)
(1.25402 0.143932 -2.33336e-21)
(1.25737 0.141948 -2.30194e-21)
(1.26066 0.139899 -1.88114e-21)
(1.26386 0.137783 1.74311e-21)
(1.26698 0.135596 5.33203e-22)
(1.27001 0.133337 4.06102e-22)
(1.27293 0.131003 1.2857e-21)
(1.27575 0.128591 -1.41497e-21)
(1.27846 0.126098 -1.12868e-21)
(1.28104 0.123521 -3.3407e-21)
(1.28349 0.120858 9.78009e-22)
(1.2858 0.118105 4.2831e-21)
(1.28795 0.11526 -7.08518e-22)
(1.28995 0.112321 -8.3454e-22)
(1.29178 0.109283 -4.54019e-21)
(1.29343 0.106146 -5.14438e-21)
(1.29489 0.102906 5.88011e-21)
(1.29615 0.0995609 5.67154e-21)
(1.2972 0.0961094 6.96748e-21)
(1.29803 0.0925499 1.68602e-21)
(1.29862 0.0888812 -5.62022e-21)
(1.29898 0.085103 -4.31409e-21)
(1.29908 0.0812157 5.86265e-21)
(1.29892 0.0772205 7.66093e-21)
(1.29849 0.0731203 -5.52239e-21)
(1.29777 0.0689193 1.73187e-20)
(1.29677 0.0646245 1.45033e-20)
(1.29546 0.0602458 -2.22092e-21)
(1.29385 0.0557978 -1.24842e-20)
(1.29193 0.0513009 1.08182e-20)
(1.28968 0.0467839 2.75158e-21)
(1.2337 0.148862 7.6632e-23)
(1.23726 0.147262 -9.81874e-23)
(1.24079 0.145612 -5.55816e-22)
(1.24426 0.143911 -5.47658e-22)
(1.24769 0.142155 1.80672e-22)
(1.25107 0.140344 2.07325e-21)
(1.25439 0.138475 1.01687e-21)
(1.25764 0.136546 1.00316e-21)
(1.26083 0.134555 -6.74051e-22)
(1.26394 0.1325 -4.89669e-22)
(1.26697 0.130378 -6.57237e-22)
(1.26991 0.128186 -6.86527e-22)
(1.27275 0.125922 -4.46177e-21)
(1.2755 0.123582 -2.01796e-21)
(1.27814 0.121165 7.68565e-21)
(1.28065 0.118667 1.02622e-21)
(1.28305 0.116085 -3.40867e-21)
(1.28531 0.113417 5.38716e-22)
(1.28742 0.110659 4.23232e-21)
(1.28939 0.107808 7.49085e-21)
(1.29119 0.104863 8.68832e-21)
(1.29282 0.101819 -1.04168e-20)
(1.29427 0.0986754 -5.08126e-21)
(1.29553 0.0954292 1.92783e-21)
(1.29659 0.0920785 1.09832e-21)
(1.29744 0.088622 -8.16664e-21)
(1.29807 0.0850587 9.00192e-21)
(1.29846 0.0813883 1.46754e-21)
(1.29862 0.0776116 -4.24887e-21)
(1.29853 0.0737304 -2.27209e-21)
(1.29817 0.0697483 -2.06225e-20)
(1.29755 0.0656711 2.53756e-22)
(1.29665 0.0615076 -1.14658e-20)
(1.29547 0.0572705 5.56197e-21)
(1.29399 0.0529784 6.32467e-21)
(1.29222 0.0486573 -5.40338e-21)
(1.23107 0.144767 -3.90826e-23)
(1.23455 0.14325 -5.71598e-23)
(1.238 0.141688 6.27917e-22)
(1.24141 0.140078 -1.85053e-22)
(1.24478 0.13842 -3.82692e-22)
(1.24811 0.13671 -6.21447e-22)
(1.25138 0.134948 -3.95069e-22)
(1.2546 0.133131 -1.0038e-21)
(1.25775 0.131257 -6.64712e-22)
(1.26084 0.129324 1.85049e-21)
(1.26386 0.12733 -2.65415e-21)
(1.26681 0.125271 -6.00217e-22)
(1.26967 0.123146 4.09572e-21)
(1.27244 0.120951 4.8644e-21)
(1.27511 0.118683 -2.99835e-21)
(1.27768 0.116341 1.55434e-21)
(1.28014 0.11392 3.58901e-21)
(1.28248 0.111418 -5.09047e-21)
(1.2847 0.108832 5.35962e-22)
(1.28677 0.10616 -1.87299e-21)
(1.2887 0.103397 -6.2561e-21)
(1.29048 0.100541 4.24534e-21)
(1.2921 0.0975903 1.50457e-20)
(1.29355 0.0945415 3.11775e-21)
(1.29481 0.0913927 -3.21402e-21)
(1.29588 0.0881418 9.49643e-21)
(1.29675 0.0847877 -9.16824e-21)
(1.29742 0.0813295 4.47797e-22)
(1.29786 0.0777673 5.89935e-21)
(1.29807 0.0741024 -2.57215e-21)
(1.29805 0.0703375 8.09131e-21)
(1.29778 0.0664773 -1.88025e-20)
(1.29725 0.0625295 1.71199e-20)
(1.29646 0.0585054 -5.39883e-21)
(1.2954 0.0544211 -1.77143e-20)
(1.29407 0.0503001 -1.75522e-20)
(1.22844 0.140665 -1.53724e-23)
(1.23184 0.139226 8.0976e-24)
(1.23522 0.137745 -3.40541e-22)
(1.23856 0.136221 3.45494e-22)
(1.24186 0.134652 8.36364e-22)
(1.24513 0.133038 7.00233e-22)
(1.24835 0.131375 1.17397e-21)
(1.25152 0.129662 -3.72696e-22)
(1.25464 0.127897 6.54579e-22)
(1.25771 0.126078 -7.20562e-22)
(1.26071 0.124203 -3.7606e-22)
(1.26364 0.122268 1.3986e-21)
(1.26651 0.120272 -1.02906e-21)
(1.26929 0.118212 -2.18101e-21)
(1.27199 0.116085 4.1066e-22)
(1.27459 0.113889 -2.29895e-21)
(1.2771 0.11162 -9.72998e-22)
(1.2795 0.109275 4.72159e-21)
(1.28179 0.106852 4.34596e-21)
(1.28396 0.104347 -7.05208e-21)
(1.286 0.101758 5.09599e-21)
(1.28791 0.0990817 -4.70233e-21)
(1.28967 0.096315 -3.45949e-21)
(1.29127 0.0934554 -7.90973e-21)
(1.29271 0.0905006 4.94179e-21)
(1.29398 0.0874482 2.47849e-21)
(1.29507 0.0842967 4.75766e-21)
(1.29596 0.0810449 -4.4751e-21)
(1.29666 0.0776923 -7.74678e-21)
(1.29715 0.0742396 1.05082e-20)
(1.29742 0.0706888 8.58657e-21)
(1.29747 0.0670437 6.02523e-21)
(1.29728 0.0633107 -7.07929e-21)
(1.29686 0.0594996 -7.4468e-21)
(1.29618 0.0556246 -9.96579e-21)
(1.29525 0.0517061 1.92094e-20)
(1.22582 0.13656 2.62238e-23)
(1.22914 0.135193 -6.59499e-23)
(1.23244 0.133788 -8.28671e-24)
(1.23571 0.132344 1.67199e-22)
(1.23894 0.13086 -6.81475e-22)
(1.24215 0.129333 -5.67905e-22)
(1.24531 0.127762 -1.02343e-21)
(1.24843 0.126146 2.5946e-21)
(1.25151 0.124483 -7.4901e-22)
(1.25454 0.12277 2.2994e-21)
(1.25751 0.121005 1.81377e-21)
(1.26043 0.119186 -2.0424e-22)
(1.26328 0.117311 -1.77687e-22)
(1.26606 0.115377 -1.46183e-21)
(1.26877 0.113382 -3.78251e-21)
(1.2714 0.111322 3.97105e-21)
(1.27394 0.109195 -1.41578e-21)
(1.27639 0.106998 -1.87014e-21)
(1.27874 0.104728 -6.74753e-21)
(1.28098 0.102382 1.25525e-21)
(1.28311 0.0999577 -7.8481e-21)
(1.28511 0.0974511 -1.52171e-21)
(1.28699 0.0948596 -8.65939e-21)
(1.28873 0.0921807 3.14465e-21)
(1.29032 0.0894116 5.11762e-22)
(1.29176 0.0865499 -3.94164e-21)
(1.29303 0.0835938 -1.55544e-21)
(1.29414 0.0805417 -3.32137e-21)
(1.29506 0.0773928 2.79087e-21)
(1.2958 0.0741471 -7.64456e-21)
(1.29633 0.0708061 -6.76152e-21)
(1.29666 0.0673727 4.81759e-21)
(1.29678 0.0638521 -2.51248e-21)
(1.29668 0.0602526 1.95224e-20)
(1.29635 0.0565865 5.82297e-21)
(1.29579 0.0528715 -5.22804e-22)
(1.2232 0.132456 2.07819e-23)
(1.22645 0.131156 4.10358e-23)
(1.22966 0.129822 9.04153e-23)
(1.23286 0.128453 -6.65338e-22)
(1.23603 0.127046 -8.13557e-23)
(1.23916 0.125602 -2.05256e-23)
(1.24227 0.124117 1.42591e-22)
(1.24534 0.122591 -8.4834e-22)
(1.24836 0.121022 1.262e-21)
(1.25135 0.119407 -1.26695e-21)
(1.25429 0.117746 -9.95415e-22)
(1.25717 0.116035 -1.84676e-21)
(1.26001 0.114272 9.80518e-22)
(1.26278 0.112456 -2.01072e-21)
(1.26548 0.110583 1.52279e-21)
(1.26812 0.108651 -2.71864e-21)
(1.27068 0.106657 1.0072e-21)
(1.27316 0.104599 3.21225e-21)
(1.27555 0.102473 3.03915e-21)
(1.27784 0.100276 2.86636e-21)
(1.28004 0.0980065 3.32077e-21)
(1.28213 0.0956605 -1.04099e-21)
(1.2841 0.0932352 6.77946e-21)
(1.28595 0.090728 1.17205e-21)
(1.28767 0.088136 -2.81092e-21)
(1.28925 0.0854567 -7.81959e-21)
(1.29068 0.0826881 9.92348e-21)
(1.29197 0.0798283 -6.9961e-21)
(1.29309 0.0768762 6.69131e-21)
(1.29404 0.0738314 -1.03028e-20)
(1.29481 0.0706947 4.56145e-21)
(1.29539 0.0674683 -3.5978e-21)
(1.29578 0.0641563 -8.93371e-21)
(1.29598 0.0607656 -5.51675e-21)
(1.29596 0.0573066 -3.87905e-21)
(1.29573 0.0537943 2.50108e-21)
(1.2206 0.128354 -1.54298e-23)
(1.22376 0.127118 -1.51929e-23)
(1.2269 0.125851 1.88607e-23)
(1.23002 0.124551 3.76408e-22)
(1.23312 0.123217 -1.44469e-22)
(1.23618 0.121849 -8.29427e-22)
(1.23922 0.120444 -4.13555e-22)
(1.24223 0.119002 -5.7201e-22)
(1.24521 0.117521 -1.01903e-21)
(1.24814 0.115998 1.41527e-22)
(1.25104 0.114432 -9.66938e-22)
(1.25389 0.112822 8.26966e-22)
(1.25669 0.111164 2.00985e-21)
(1.25944 0.109457 9.89586e-22)
(1.26213 0.107698 9.3837e-22)
(1.26477 0.105886 -1.87266e-21)
(1.26733 0.104016 2.27437e-21)
(1.26982 0.102087 -5.35296e-21)
(1.27224 0.100096 -2.47316e-21)
(1.27457 0.09804 2.87413e-21)
(1.27682 0.0959161 -1.02776e-21)
(1.27897 0.0937215 6.57999e-21)
(1.28102 0.0914532 -2.93908e-21)
(1.28295 0.0891086 -3.9897e-22)
(1.28478 0.0866848 2.17549e-21)
(1.28648 0.0841793 -3.58296e-21)
(1.28805 0.0815897 -6.02501e-21)
(1.28948 0.0789143 1.45485e-20)
(1.29077 0.0761514 -8.48148e-21)
(1.29191 0.0733004 2.02837e-20)
(1.29288 0.0703616 4.4563e-21)
(1.29369 0.0673364 2.40337e-21)
(1.29432 0.064228 1.07814e-20)
(1.29477 0.0610419 -2.95346e-21)
(1.29504 0.0577867 2.05943e-20)
(1.29511 0.0544749 -2.01236e-20)
(1.21801 0.124258 -4.30506e-23)
(1.22109 0.123082 -1.04303e-22)
(1.22415 0.121877 5.98046e-23)
(1.22719 0.120642 -2.17512e-22)
(1.23021 0.119377 -4.45589e-23)
(1.23321 0.11808 6.1635e-22)
(1.23618 0.11675 -4.50314e-22)
(1.23913 0.115386 7.0196e-22)
(1.24204 0.113986 -7.68536e-22)
(1.24493 0.112549 5.93031e-22)
(1.24777 0.111073 1.0714e-21)
(1.25058 0.109555 2.33948e-22)
(1.25335 0.107995 -2.22712e-21)
(1.25607 0.10639 2.9005e-21)
(1.25874 0.104738 -1.89202e-21)
(1.26136 0.103036 1.17701e-21)
(1.26391 0.101283 -2.73471e-21)
(1.26641 0.0994749 5.0908e-22)
(1.26884 0.09761 4.08875e-22)
(1.27119 0.0956853 -8.50663e-22)
(1.27347 0.0936982 1.1052e-21)
(1.27566 0.0916458 -2.87106e-21)
(1.27777 0.0895255 5.44744e-22)
(1.27977 0.0873343 3.82562e-21)
(1.28168 0.0850696 3.86236e-21)
(1.28348 0.0827289 1.15417e-20)
(1.28516 0.0803097 4.91798e-21)
(1.28672 0.0778101 4.24458e-21)
(1.28815 0.0752283 -1.35651e-21)
(1.28944 0.0725634 -1.77091e-20)
(1.29059 0.0698151 -1.42694e-20)
(1.29159 0.0669843 1.66217e-22)
(1.29243 0.0640733 -6.96836e-21)
(1.29311 0.0610865 4.89556e-22)
(1.29362 0.0580306 -9.44544e-21)
(1.29396 0.0549157 1.59707e-20)
(1.21544 0.120168 4.50313e-23)
(1.21843 0.119049 2.06382e-22)
(1.22141 0.117903 -2.53335e-22)
(1.22438 0.11673 3.52656e-22)
(1.22732 0.115529 2.48079e-22)
(1.23025 0.114299 3.67186e-22)
(1.23315 0.113039 -6.00928e-24)
(1.23603 0.111748 4.33953e-22)
(1.23889 0.110424 2.60715e-22)
(1.24171 0.109067 -2.17745e-21)
(1.24451 0.107674 1.09138e-21)
(1.24727 0.106244 1.13102e-21)
(1.24999 0.104774 3.19651e-21)
(1.25267 0.103264 -3.63475e-21)
(1.25531 0.101711 3.39134e-21)
(1.2579 0.100113 -1.04473e-21)
(1.26044 0.0984675 2.73272e-21)
(1.26293 0.0967724 3.80288e-21)
(1.26536 0.0950253 3.07452e-21)
(1.26772 0.0932234 1.01839e-21)
(1.27001 0.0913643 1.15336e-21)
(1.27223 0.0894454 1.38741e-21)
(1.27438 0.0874639 2.95345e-21)
(1.27643 0.0854171 -4.7186e-22)
(1.2784 0.0833025 -6.59518e-21)
(1.28027 0.0811175 -2.23364e-21)
(1.28204 0.0788598 -7.85377e-21)
(1.2837 0.0765271 -1.23015e-20)
(1.28525 0.0741178 6.69467e-21)
(1.28667 0.0716306 1.01741e-20)
(1.28797 0.0690648 9.9197e-21)
(1.28913 0.0664209 -3.27004e-21)
(1.29015 0.0637003 -8.18191e-21)
(1.29103 0.0609062 -8.21285e-21)
(1.29175 0.0580438 -3.72449e-21)
(1.29232 0.0551211 -6.57494e-21)
(1.21288 0.116087 -1.78726e-23)
(1.21579 0.115021 -1.04442e-22)
(1.21869 0.113931 1.9173e-22)
(1.22158 0.112816 -1.35249e-22)
(1.22445 0.111676 -3.32989e-22)
(1.2273 0.110509 -1.33486e-22)
(1.23014 0.109315 8.71799e-22)
(1.23295 0.108093 -1.75719e-22)
(1.23574 0.10684 7.8938e-22)
(1.2385 0.105557 -1.73423e-22)
(1.24124 0.104242 -1.72109e-21)
(1.24395 0.102893 -2.71798e-22)
(1.24662 0.101508 -3.85902e-22)
(1.24926 0.100087 1.38385e-21)
(1.25186 0.0986261 -3.6873e-21)
(1.25442 0.0971244 3.73664e-21)
(1.25693 0.0955797 -2.66576e-21)
(1.2594 0.0939899 -1.64116e-21)
(1.26181 0.0923525 1.31379e-22)
(1.26417 0.0906654 -5.99981e-21)
(1.26647 0.088926 1.15668e-21)
(1.2687 0.0871318 1.99321e-21)
(1.27087 0.0852804 -2.22088e-21)
(1.27296 0.0833692 -2.05277e-21)
(1.27497 0.0813957 6.38738e-21)
(1.2769 0.0793574 7.99075e-22)
(1.27873 0.077252 1.88658e-21)
(1.28047 0.0750773 1.10229e-20)
(1.28211 0.0728316 -2.68338e-21)
(1.28364 0.0705133 -1.14136e-20)
(1.28506 0.0681215 -9.29368e-21)
(1.28636 0.0656562 -2.98993e-21)
(1.28753 0.0631181 1.20411e-20)
(1.28857 0.0605094 -6.79426e-22)
(1.28948 0.0578338 1.15892e-20)
(1.29024 0.0550973 -8.69384e-22)
(1.21033 0.112016 9.76291e-24)
(1.21317 0.111001 6.99936e-23)
(1.21599 0.109964 1.63926e-23)
(1.2188 0.108904 -9.74722e-23)
(1.2216 0.107821 3.75196e-22)
(1.22438 0.106714 1.29952e-23)
(1.22714 0.105582 -1.40669e-22)
(1.22988 0.104424 2.90599e-22)
(1.23261 0.103239 -1.03202e-21)
(1.23531 0.102026 1.5996e-21)
(1.23798 0.100783 5.18056e-22)
(1.24063 0.09951 -1.49752e-22)
(1.24325 0.0982046 -1.14303e-21)
(1.24584 0.0968655 -1.33156e-21)
(1.2484 0.095491 2.81207e-21)
(1.25092 0.0940793 -2.78928e-21)
(1.2534 0.0926286 -8.1564e-22)
(1.25583 0.0911368 -2.84236e-21)
(1.25823 0.0896019 -2.14411e-21)
(1.26057 0.0880217 3.18058e-21)
(1.26286 0.0863941 -2.13473e-21)
(1.26509 0.0847165 -3.65357e-21)
(1.26727 0.0829868 2.08861e-21)
(1.26937 0.0812026 -5.42938e-22)
(1.27141 0.0793613 -3.78323e-21)
(1.27337 0.0774608 8.65245e-22)
(1.27526 0.0754987 -1.43037e-21)
(1.27706 0.073473 -5.61411e-21)
(1.27876 0.0713817 4.14941e-21)
(1.28038 0.0692233 7.94059e-21)
(1.28189 0.0669967 7.37728e-21)
(1.2833 0.0647012 4.43422e-21)
(1.28459 0.0623372 1.40088e-21)
(1.28578 0.0599058 2.2456e-21)
(1.28683 0.0574096 -8.98836e-21)
(1.28777 0.0548526 -5.27793e-21)
(1.2078 0.107954 1.95482e-23)
(1.21056 0.106989 -1.35834e-22)
(1.21331 0.106002 3.32768e-23)
(1.21604 0.104995 -2.79221e-23)
(1.21876 0.103967 -9.5409e-23)
(1.22147 0.102916 -5.77324e-23)
(1.22416 0.101843 -4.69004e-22)
(1.22683 0.100746 -1.10659e-21)
(1.22949 0.0996238 7.19911e-22)
(1.23212 0.0984764 -9.14315e-22)
(1.23474 0.0973023 9.06207e-22)
(1.23733 0.0961002 3.34057e-22)
(1.23989 0.094869 -4.11924e-22)
(1.24243 0.0936071 -1.16808e-21)
(1.24493 0.0923132 -1.19014e-21)
(1.24741 0.0909855 5.16575e-22)
(1.24985 0.0896224 1.95666e-21)
(1.25225 0.0882222 3.42008e-21)
(1.25461 0.0867829 -1.42001e-21)
(1.25693 0.0853025 2.98101e-21)
(1.2592 0.0837791 -6.69701e-22)
(1.26142 0.0822105 3.12161e-21)
(1.26359 0.0805944 -8.59969e-22)
(1.2657 0.0789288 -3.58672e-21)
(1.26775 0.0772114 -4.9342e-22)
(1.26973 0.07544 -3.84899e-21)
(1.27165 0.0736124 5.1504e-22)
(1.27348 0.0717266 -4.7184e-21)
(1.27524 0.0697807 -6.19222e-21)
(1.27692 0.0677731 -3.87384e-21)
(1.27851 0.0657024 -2.69566e-21)
(1.28 0.0635678 1.32859e-21)
(1.2814 0.061369 5.2277e-21)
(1.28269 0.0591064 4.7059e-21)
(1.28387 0.0567814 -2.21153e-21)
(1.28495 0.0543963 5.49084e-21)
(1.20529 0.103904 -1.17569e-24)
(1.20797 0.102985 1.76742e-23)
(1.21064 0.102048 -5.24476e-23)
(1.2133 0.101091 1.85269e-22)
(1.21595 0.100114 -5.97868e-23)
(1.21859 0.0991177 -2.06489e-22)
(1.22121 0.0980999 2.98775e-22)
(1.22381 0.0970605 3.17511e-22)
(1.2264 0.0959986 -2.3459e-23)
(1.22897 0.0949132 1.07538e-21)
(1.23152 0.0938036 -1.64993e-24)
(1.23404 0.0926685 -6.52932e-22)
(1.23655 0.0915069 3.86624e-22)
(1.23903 0.0903176 2.71092e-21)
(1.24148 0.0890991 1.05281e-21)
(1.2439 0.0878501 -1.00975e-21)
(1.24629 0.086569 7.77941e-22)
(1.24865 0.0852543 -3.81033e-22)
(1.25098 0.0839042 2.88483e-21)
(1.25326 0.0825171 -1.85517e-21)
(1.25551 0.0810909 -2.08589e-21)
(1.25771 0.0796239 -4.36277e-21)
(1.25986 0.078114 1.45276e-22)
(1.26196 0.0765592 1.4306e-21)
(1.26401 0.0749575 2.82874e-22)
(1.266 0.0733068 -1.44655e-21)
(1.26793 0.0716051 -1.07086e-22)
(1.26979 0.0698505 3.2551e-21)
(1.27158 0.068041 2.78771e-21)
(1.2733 0.0661751 3.10301e-21)
(1.27494 0.0642512 -4.4346e-21)
(1.2765 0.0622683 -5.8884e-21)
(1.27797 0.0602256 -6.41358e-21)
(1.27935 0.0581229 -6.73597e-21)
(1.28063 0.0559605 1.68654e-21)
(1.28182 0.0537393 -5.54464e-21)
(1.2028 0.0998648 -8.43461e-24)
(1.20541 0.0989914 5.22267e-23)
(1.20801 0.0981007 -3.47546e-23)
(1.21059 0.0971922 -5.42077e-24)
(1.21317 0.0962656 3.48458e-22)
(1.21573 0.0953202 1.75201e-22)
(1.21828 0.0943556 -1.051e-22)
(1.22082 0.0933711 5.24783e-22)
(1.22333 0.0923661 -1.40301e-22)
(1.22584 0.0913396 -9.07596e-22)
(1.22832 0.090291 -6.68723e-22)
(1.23078 0.0892192 5.75631e-22)
(1.23323 0.0881233 -2.18362e-22)
(1.23565 0.0870021 -1.20336e-21)
(1.23804 0.0858546 -1.84961e-21)
(1.24041 0.0846793 1.8076e-21)
(1.24275 0.0834751 -8.60842e-22)
(1.24506 0.0822405 9.66285e-22)
(1.24734 0.0809739 -1.23061e-21)
(1.24959 0.0796738 -5.1992e-23)
(1.2518 0.0783386 -4.13474e-22)
(1.25397 0.0769665 1.59943e-21)
(1.2561 0.0755557 8.13109e-22)
(1.25818 0.0741044 3.29833e-21)
(1.26021 0.0726107 -2.6368e-22)
(1.2622 0.0710728 -8.19294e-22)
(1.26413 0.0694888 1.4856e-21)
(1.266 0.0678568 -3.20416e-22)
(1.26781 0.066175 -3.15336e-21)
(1.26955 0.0644418 -3.82545e-22)
(1.27123 0.0626557 4.83645e-21)
(1.27283 0.0608154 8.88811e-21)
(1.27435 0.0589196 1.2862e-21)
(1.2758 0.0569677 1.2851e-21)
(1.27716 0.054959 -2.33292e-21)
(1.27844 0.0528933 1.20504e-20)
(1.20033 0.0958365 4.22181e-25)
(1.20287 0.0950071 -2.70109e-23)
(1.20539 0.0941616 -1.69289e-24)
(1.20791 0.0932997 -1.27496e-22)
(1.21041 0.092421 -2.12055e-22)
(1.21291 0.091525 -1.63871e-22)
(1.21539 0.0906114 2.04026e-22)
(1.21785 0.0896794 -8.55985e-23)
(1.2203 0.0887286 -3.61026e-22)
(1.22274 0.0877582 6.72215e-22)
(1.22516 0.0867675 2.24698e-22)
(1.22755 0.0857557 -4.08087e-22)
(1.22993 0.084722 1.3102e-22)
(1.23229 0.0836652 2.77801e-22)
(1.23463 0.0825846 -1.07334e-21)
(1.23694 0.0814788 -7.53064e-22)
(1.23923 0.0803469 -1.12555e-21)
(1.24149 0.0791874 -1.14002e-21)
(1.24372 0.0779991 -8.03068e-22)
(1.24592 0.0767806 -2.28394e-21)
(1.24809 0.0755304 8.51133e-22)
(1.25022 0.074247 4.77975e-22)
(1.25232 0.0729288 3.60181e-22)
(1.25437 0.0715742 -3.61634e-21)
(1.25638 0.0701814 2.76266e-21)
(1.25835 0.0687487 1.50728e-21)
(1.26027 0.0672745 -2.48045e-21)
(1.26214 0.0657571 -1.25282e-21)
(1.26395 0.0641946 3.44564e-22)
(1.2657 0.0625856 -2.34135e-21)
(1.2674 0.0609284 4.05947e-21)
(1.26903 0.0592216 -7.35111e-21)
(1.27059 0.0574637 -1.2203e-21)
(1.27208 0.0556535 1.10192e-20)
(1.2735 0.0537896 2.72903e-21)
(1.27484 0.0518709 -1.06008e-20)
(1.19789 0.0918191 1.27512e-23)
(1.20036 0.0910324 -4.76149e-25)
(1.20281 0.0902307 2.84969e-23)
(1.20526 0.0894138 9.63046e-23)
(1.20769 0.0885813 1.01834e-22)
(1.21012 0.087733 4.43216e-24)
(1.21253 0.0868683 8.44937e-23)
(1.21493 0.0859868 -1.97729e-22)
(1.21731 0.0850879 6.40002e-22)
(1.21968 0.0841711 -3.5971e-22)
(1.22203 0.0832357 -7.62228e-22)
(1.22436 0.082281 7.59311e-22)
(1.22668 0.0813063 3.37262e-22)
(1.22898 0.0803107 4.22057e-22)
(1.23125 0.0792934 1.36593e-21)
(1.23351 0.0782533 -8.9101e-22)
(1.23574 0.0771894 1.28528e-21)
(1.23794 0.0761008 -6.75817e-22)
(1.24012 0.0749861 2.05596e-21)
(1.24227 0.0738442 1.70561e-21)
(1.24439 0.0726737 -9.23989e-22)
(1.24648 0.0714734 -1.5682e-22)
(1.24854 0.0702418 -4.53428e-22)
(1.25056 0.0689775 3.14933e-22)
(1.25254 0.067679 -8.7692e-22)
(1.25448 0.0663446 2.38286e-21)
(1.25638 0.064973 7.63154e-22)
(1.25823 0.0635624 3.00528e-21)
(1.26003 0.0621114 7.61125e-22)
(1.26179 0.0606182 3.78423e-21)
(1.26348 0.0590814 -2.84514e-21)
(1.26513 0.0574994 1.69602e-21)
(1.26671 0.0558704 -1.53436e-21)
(1.26823 0.054193 -5.65741e-21)
(1.26968 0.0524652 1.96226e-23)
(1.27107 0.0506848 1.2238e-21)
(1.19548 0.0878122 -2.70197e-24)
(1.19788 0.0870669 3.98483e-24)
(1.20026 0.0863077 -2.07725e-23)
(1.20264 0.0855345 -9.56745e-24)
(1.20501 0.0847469 4.53061e-23)
(1.20737 0.0839446 6.40613e-23)
(1.20971 0.0831271 -2.8742e-22)
(1.21204 0.0822942 1.19391e-22)
(1.21436 0.0814453 -3.17375e-23)
(1.21666 0.0805799 7.29269e-23)
(1.21895 0.0796975 6.14087e-22)
(1.22122 0.0787974 3.96767e-23)
(1.22347 0.077879 -2.90523e-22)
(1.2257 0.0769416 -1.01699e-22)