/*--------------------------------*- C++ -*----------------------------------*\
  =========                 |
  \\      /  F ield         | OpenFOAM: The Open Source CFD Toolbox
   \\    /   O peration     | Website:  https://openfoam.org
    \\  /    A nd           | Version:  7
     \\/     M anipulation  |
\*---------------------------------------------------------------------------*/
FoamFile
{
    version     2.0;
    format      ascii;
    class       surfaceScalarField;
    location    "20";
    object      phi;
}
// * * * * * * * * * * * * * * * * * * * * * * * * * * * * * * * * * * * * * //

dimensions      [0 3 -1 0 0 0 0];

internalField   nonuniform List<scalar> 
5121
(
-0.0017359
-0.0256647
-0.0273209
-0.00184667
-0.025422
-0.0270567
-0.00170571
-0.0236587
-0.0019561
-0.0251716
-0.0267847
-0.00156842
-0.0220211
-0.00180627
-0.0234208
-0.00206419
-0.0249137
-0.0265051
-0.00166055
-0.021794
-0.00190562
-0.0231758
-0.00217094
-0.0246483
-0.026218
-0.0015176
-0.0202837
-0.00175159
-0.02156
-0.00200376
-0.0229236
-0.00227633
-0.0243758
-0.0259236
-0.00160073
-0.0200596
-0.00184152
-0.0213192
-0.00210067
-0.0226644
-0.00238037
-0.0240961
-0.025622
-0.00168284
-0.0198291
-0.00193032
-0.0210718
-0.00219635
-0.0223984
-0.00248305
-0.0238094
-0.0253132
-0.00152701
-0.0184462
-0.00176391
-0.0195922
-0.00201798
-0.0208177
-0.00229077
-0.0221256
-0.00258435
-0.0235158
-0.0249976
-0.00160073
-0.018219
-0.00184393
-0.019349
-0.00210449
-0.0205571
-0.00238393
-0.0218462
-0.00268429
-0.0232154
-0.00300683
-0.024675
-0.0262158
-0.00144029
-0.0169473
-0.00167347
-0.0179858
-0.00192287
-0.0190996
-0.00218983
-0.0202902
-0.00247582
-0.0215602
-0.00278285
-0.0229084
-0.00311214
-0.0243457
-0.0258605
-0.00150614
-0.0167235
-0.00174523
-0.0177467
-0.00200074
-0.0188441
-0.00227399
-0.0200169
-0.00256644
-0.0212677
-0.00288002
-0.0225948
-0.00321598
-0.0240098
-0.0254984
-0.00157107
-0.0164941
-0.00181597
-0.0175018
-0.00207749
-0.0185826
-0.00235695
-0.0197375
-0.00265576
-0.0209689
-0.0029758
-0.0222748
-0.00331832
-0.0236672
-0.0251295
-0.00140019
-0.0153358
-0.00163507
-0.0162593
-0.00188568
-0.0172512
-0.00215314
-0.0183151
-0.00243871
-0.0194519
-0.00274378
-0.0206638
-0.00307018
-0.0219484
-0.00341918
-0.0233182
-0.0247538
-0.00379486
-0.0014578
-0.0151106
-0.00169811
-0.016019
-0.00195435
-0.016995
-0.00222764
-0.0180418
-0.00251924
-0.0191603
-0.0028305
-0.0203526
-0.00316315
-0.0216158
-0.00351854
-0.0229629
-0.0243714
-0.00390096
-0.00151452
-0.0148801
-0.00176017
-0.0157733
-0.00202196
-0.0167332
-0.002301
-0.0177628
-0.00259854
-0.0188628
-0.00291589
-0.0200352
-0.00325471
-0.0212769
-0.00361639
-0.0226012
-0.0239822
-0.00400555
-0.00133485
-0.0138281
-0.00157035
-0.0146446
-0.00182125
-0.0155224
-0.00208849
-0.0164659
-0.0023732
-0.0174781
-0.00267658
-0.0185594
-0.00299994
-0.0197119
-0.00334485
-0.020932
-0.00371273
-0.0222333
-0.0235863
-0.00410861
-0.00138477
-0.0136026
-0.00162526
-0.0144042
-0.00188133
-0.0152663
-0.00215393
-0.0161933
-0.00244421
-0.0171878
-0.00275336
-0.0182502
-0.00308265
-0.0193826
-0.00343356
-0.0205811
-0.00380755
-0.0218593
-0.0231837
-0.00421015
-0.00143386
-0.0133722
-0.00167924
-0.0141588
-0.00194038
-0.0150052
-0.00221826
-0.0159154
-0.00251402
-0.016892
-0.00282885
-0.0179354
-0.003164
-0.0190474
-0.00352083
-0.0202243
-0.00390084
-0.0214793
-0.0227744
-0.00431015
-0.00148208
-0.0131372
-0.00173228
-0.0139086
-0.0019984
-0.0147391
-0.00228146
-0.0156324
-0.00258262
-0.0165909
-0.00290305
-0.017615
-0.00324398
-0.0187065
-0.00360665
-0.0198616
-0.00399262
-0.0210933
-0.0223584
-0.0044086
-0.00128986
-0.0121909
-0.00152944
-0.0128977
-0.00178435
-0.0136537
-0.00205537
-0.0144681
-0.00234353
-0.0153442
-0.00264999
-0.0162844
-0.00297592
-0.017289
-0.00332257
-0.0183599
-0.003691
-0.0194932
-0.00408292
-0.0207014
-0.0219359
-0.00450542
-0.00133184
-0.0119619
-0.00157591
-0.0126536
-0.00183545
-0.0133941
-0.00211127
-0.0141922
-0.00240443
-0.0150511
-0.00271611
-0.0159728
-0.00304747
-0.0169577
-0.00339974
-0.0180076
-0.00377388
-0.019119
-0.00417188
-0.0203034
-0.0215072
-0.00460055
-0.00137302
-0.0117287
-0.00162148
-0.0124051
-0.00188555
-0.0131301
-0.00216609
-0.0139117
-0.00246416
-0.014753
-0.00278096
-0.015656
-0.00311766
-0.016621
-0.00347547
-0.0176498
-0.00385527
-0.0187392
-0.00425955
-0.0198991
-0.0210739
-0.00469285
-0.00141336
-0.0114911
-0.00166614
-0.0121524
-0.00193466
-0.0128615
-0.00221982
-0.0136265
-0.00252272
-0.0144501
-0.00284456
-0.0153341
-0.00318651
-0.016279
-0.00354979
-0.0172865
-0.0039352
-0.0183538
-0.0043441
-0.0194902
-0.0206502
-0.00476789
-0.00145288
-0.0112495
-0.00170987
-0.0118954
-0.00198274
-0.0125887
-0.00227243
-0.0133369
-0.00258006
-0.0141424
-0.00290684
-0.0150073
-0.00325394
-0.0159319
-0.00362259
-0.0169178
-0.00401353
-0.0179629
-0.0044284
-0.0190753
-0.020221
-0.00485757
-0.00124587
-0.0104087
-0.00149155
-0.0110038
-0.00175266
-0.0116343
-0.00202979
-0.0123115
-0.00232391
-0.0130427
-0.00263618
-0.0138302
-0.0029678
-0.0146757
-0.00331996
-0.0155798
-0.00369389
-0.0165439
-0.00409031
-0.0175665
-0.00451094
-0.0186547
-0.019784
-0.00494788
-0.00127975
-0.0101745
-0.00152937
-0.0107542
-0.0017945
-0.0113691
-0.00207579
-0.0120302
-0.00237426
-0.0127443
-0.00269106
-0.0135134
-0.00302743
-0.0143393
-0.00338456
-0.0152226
-0.00376368
-0.0161648
-0.00416553
-0.0171646
-0.00459179
-0.0182284
-0.0193395
-0.00503631
-0.00131286
-0.00993653
-0.00156631
-0.0105007
-0.00183537
-0.0111001
-0.00212074
-0.0117449
-0.00242345
-0.0124416
-0.00274469
-0.0131921
-0.00308571
-0.0139983
-0.00344771
-0.0148606
-0.00383194
-0.0157806
-0.00423915
-0.0167574
-0.00467103
-0.0177966
-0.0188877
-0.00512284
-0.00134518
-0.00969481
-0.00160238
-0.0102435
-0.00187527
-0.0108272
-0.00216461
-0.0114555
-0.00247147
-0.0121347
-0.00279706
-0.0128666
-0.00314263
-0.0136528
-0.00350941
-0.0144939
-0.00389865
-0.0153913
-0.00431115
-0.0163449
-0.00474859
-0.0173591
-0.0184289
-0.00520745
-0.0013767
-0.00944946
-0.00163755
-0.00998269
-0.00191418
-0.0105506
-0.0022074
-0.0111623
-0.00251831
-0.0118238
-0.00284814
-0.0125367
-0.00319817
-0.0133027
-0.00356963
-0.0141224
-0.00396379
-0.0149971
-0.00438151
-0.0159272
-0.00482443
-0.0169162
-0.0179632
-0.00529008
-0.00140742
-0.0092006
-0.00167181
-0.0097183
-0.00195208
-0.0102703
-0.00224908
-0.0108653
-0.00256395
-0.0115089
-0.00289793
-0.0122027
-0.00325232
-0.0129483
-0.00362836
-0.0137464
-0.00402734
-0.0145982
-0.00445019
-0.0155044
-0.00489853
-0.0164679
-0.017491
-0.00537073
-0.00118504
-0.00845999
-0.00143732
-0.00894832
-0.00170516
-0.00945047
-0.00198897
-0.00998647
-0.00228966
-0.0105646
-0.00260838
-0.0111902
-0.00294641
-0.0118647
-0.00330505
-0.0125897
-0.00368558
-0.0133658
-0.00408929
-0.0141944
-0.00451718
-0.0150765
-0.00497085
-0.0160142
-0.0170125
-0.00544937
-0.00121079
-0.00822031
-0.00146639
-0.00869273
-0.00173757
-0.00917928
-0.00202484
-0.00969921
-0.00232911
-0.0102604
-0.00265159
-0.0108677
-0.00299356
-0.0115227
-0.00335636
-0.0122269
-0.00374127
-0.0129809
-0.00414961
-0.0137861
-0.00458244
-0.0146437
-0.00504137
-0.0155553
-0.0165279
-0.005526
-0.00123581
-0.00797738
-0.00149462
-0.00843392
-0.00176906
-0.00890484
-0.00205967
-0.0094086
-0.00236743
-0.00995259
-0.00269356
-0.0105416
-0.00303938
-0.0111769
-0.00340622
-0.0118601
-0.00379541
-0.0125917
-0.00420828
-0.0133732
-0.00464596
-0.014206
-0.00511004
-0.0150912
-0.0160373
-0.00560062
-0.00126008
-0.0077313
-0.001522
-0.008172
-0.00179959
-0.00862725
-0.00209345
-0.00911474
-0.0024046
-0.00964145
-0.00273428
-0.0102119
-0.00308384
-0.0108274
-0.00345462
-0.0114893
-0.00384799
-0.0121984
-0.00426529
-0.0129559
-0.00470771
-0.0137636
-0.00517684
-0.014622
-0.0155409
-0.00567319
-0.0012836
-0.00748219
-0.00154853
-0.00790707
-0.00182917
-0.00834661
-0.00212618
-0.00881773
-0.00244061
-0.00932702
-0.00277374
-0.00987876
-0.00312692
-0.0104742
-0.00350155
-0.0111146
-0.00389898
-0.0118009
-0.00432061
-0.0125343
-0.00476767
-0.0133165
-0.00524175
-0.014148
-0.015039
-0.0057437
-0.00130635
-0.00723014
-0.00157419
-0.00763924
-0.00185778
-0.00806302
-0.00215783
-0.00851767
-0.00247545
-0.0090094
-0.00281192
-0.00954229
-0.00316863
-0.0101175
-0.00354699
-0.0107363
-0.00394837
-0.0113996
-0.00437421
-0.0121085
-0.0048258
-0.0128649
-0.00530473
-0.013669
-0.0145316
-0.00581212
-0.00132833
-0.00697527
-0.00159897
-0.0073686
-0.00188541
-0.00777658
-0.00218841
-0.00821467
-0.0025091
-0.00868872
-0.00284881
-0.00920258
-0.00320894
-0.00975735
-0.00359091
-0.0103543
-0.00399614
-0.0109943
-0.00442608
-0.0116785
-0.00488209
-0.0124089
-0.00536575
-0.0131854
-0.0140189
-0.00587843
-0.00134953
-0.00671768
-0.00162288
-0.00709525
-0.00191206
-0.0074874
-0.0022179
-0.00790883
-0.00254156
-0.00836506
-0.0028844
-0.00885974
-0.00324783
-0.00939392
-0.00363331
-0.00996884
-0.00404227
-0.0105854
-0.0044762
-0.0112446
-0.0049365
-0.0119486
-0.00542478
-0.0126971
-0.0135011
-0.00594259
-0.00136995
-0.00645748
-0.00164589
-0.00681932
-0.00193772
-0.00719557
-0.0022463
-0.00760025
-0.00257282
-0.00803853
-0.00291867
-0.00851389
-0.0032853
-0.0090273
-0.00367416
-0.00957997
-0.00408675
-0.0101728
-0.00452453
-0.0108068
-0.00498901
-0.0114841
-0.00548178
-0.0122043
-0.0129783
-0.00600457
-0.00112686
-0.00584432
-0.00138957
-0.00619478
-0.001668
-0.00654088
-0.00196237
-0.0069012
-0.00227358
-0.00728904
-0.00260286
-0.00770925
-0.00295162
-0.00816513
-0.00332132
-0.0086576
-0.00371346
-0.00918783
-0.00412954
-0.0097567
-0.00457107
-0.0103653
-0.00503959
-0.0110156
-0.00553672
-0.0117072
-0.0124507
-0.00606434
-0.00114328
-0.00559561
-0.00140838
-0.00592968
-0.0016892
-0.00626006
-0.00198601
-0.00660439
-0.00229975
-0.0069753
-0.00263168
-0.00737732
-0.00298323
-0.00781358
-0.00335589
-0.00828493
-0.00375119
-0.00879254
-0.00417063
-0.00933725
-0.00461578
-0.00992013
-0.00508821
-0.0105432
-0.00558958
-0.0112058
-0.0119184
-0.00612185
-0.00115899
-0.00534453
-0.00142639
-0.00566228
-0.0017095
-0.00597695
-0.00200863
-0.00630526
-0.00232479
-0.00665914
-0.00265926
-0.00704286
-0.00301349
-0.00745934
-0.003389
-0.00790943
-0.00378732
-0.00839422
-0.00421001
-0.00891457
-0.00465864
-0.0094715
-0.00513485
-0.010067
-0.0056403
-0.0107004
-0.0113816
-0.00617707
-0.001174
-0.00509121
-0.00144358
-0.0053927
-0.00172887
-0.00569167
-0.00203023
-0.00600389
-0.0023487
-0.00634067
-0.00268559
-0.00670596
-0.00304239
-0.00710255
-0.00342062
-0.0075312
-0.00382185
-0.007993
-0.00424765
-0.00848876
-0.00469964
-0.00901951
-0.00517948
-0.00958713
-0.00568887
-0.010191
-0.0108406
-0.00622996
-0.0011883
-0.00483575
-0.00145995
-0.00512105
-0.00174731
-0.00540431
-0.00205079
-0.00570041
-0.00237147
-0.00601999
-0.00271068
-0.00636675
-0.00306992
-0.0067433
-0.00345075
-0.00715037
-0.00385475
-0.00758899
-0.00428354
-0.00805998
-0.00473874
-0.0085643
-0.00522207
-0.00910381
-0.00573524
-0.00967779
-0.0102953
-0.00628049
-0.00120187
-0.00457827
-0.00147549
-0.00484743
-0.00176482
-0.00511498
-0.00207032
-0.00539492
-0.00239308
-0.00569722
-0.00273449
-0.00602535
-0.00309607
-0.00638173
-0.00347937
-0.00676706
-0.00388602
-0.00718234
-0.00431765
-0.00762836
-0.00477593
-0.00810603
-0.00526259
-0.00861714
-0.0057794
-0.00916098
-0.0097461
-0.00632861
-0.00121472
-0.00431887
-0.0014902
-0.00457195
-0.00178139
-0.00482379
-0.00208879
-0.00508751
-0.00241354
-0.00537247
-0.00275704
-0.00568185
-0.00312082
-0.00601795
-0.00350648
-0.00638141
-0.00391564
-0.00677317
-0.00434998
-0.00719402
-0.00481118
-0.00764483
-0.00530102
-0.0081273
-0.00582129
-0.00864072
-0.0091931
-0.00637429
-0.00122684
-0.00405768
-0.00150407
-0.00429471
-0.00179702
-0.00453085
-0.00210621
-0.00477832
-0.00243284
-0.00504584
-0.0027783
-0.00533639
-0.00314417
-0.00565208
-0.00353205
-0.00599352
-0.0039436
-0.00636163
-0.0043805
-0.00675712
-0.00484447
-0.00718085
-0.00533734
-0.00763443
-0.0058609
-0.00811716
-0.0086365
-0.00641749
-0.00123822
-0.00379479
-0.0015171
-0.00401584
-0.00181169
-0.00423626
-0.00212258
-0.00446743
-0.00245096
-0.00471746
-0.00279828
-0.00498907
-0.00316611
-0.00528425
-0.00355608
-0.00560355
-0.00396988
-0.00594783
-0.0044092
-0.0063178
-0.0048758
-0.00671426
-0.00537152
-0.00713871
-0.00589819
-0.0075905
-0.00807651
-0.00645818
-0.00124887
-0.00353033
-0.00152928
-0.00373542
-0.00182541
-0.00394013
-0.00213788
-0.00415496
-0.00246791
-0.00438743
-0.00281696
-0.00464003
-0.00318663
-0.00491457
-0.00357857
-0.00521161
-0.00399447
-0.00553193
-0.00443606
-0.00587621
-0.00490512
-0.00624519
-0.00540353
-0.0066403
-0.00593313
-0.0070609
-0.00751332
-0.00649632
-0.00125877
-0.0032644
-0.00154061
-0.00345358
-0.00183817
-0.00364256
-0.00215211
-0.00384103
-0.00248367
-0.00405587
-0.00283433
-0.00428936
-0.00320572
-0.00454319
-0.00359949
-0.00481784
-0.00401735
-0.00511407
-0.00446107
-0.00543249
-0.00493243
-0.00577383
-0.00543335
-0.00613938
-0.0059657
-0.00652855
-0.00694713
-0.00653188
-0.00126792
-0.00299712
-0.00155108
-0.00317042
-0.00184997
-0.00334368
-0.00216526
-0.00352574
-0.00249824
-0.00372289
-0.0028504
-0.0039372
-0.00322337
-0.00417021
-0.00361883
-0.00442237
-0.00403852
-0.00469438
-0.00448421
-0.00498681
-0.00495772
-0.00530032
-0.00546097
-0.00563613
-0.00599587
-0.00599366
-0.00637816
-0.00656484
-0.00127633
-0.0027286
-0.00156069
-0.00288605
-0.00186079
-0.00304358
-0.00217733
-0.0032092
-0.00251161
-0.00338861
-0.00286514
-0.00358367
-0.00323958
-0.00379578
-0.0036366
-0.00402535
-0.00405797
-0.00427301
-0.00450547
-0.00453931
-0.00498095
-0.00482484
-0.00548636
-0.00513071
-0.00602361
-0.0054564
-0.00580663
-0.00659515
-0.00128398
-0.00245896
-0.00156944
-0.00260059
-0.00187065
-0.00274238
-0.00218832
-0.00289153
-0.00252379
-0.00305314
-0.00287857
-0.00322889
-0.00325433
-0.00342002
-0.00365278
-0.0036269
-0.00407568
-0.00385011
-0.00452484
-0.00409015
-0.00500212
-0.00434756
-0.0055095
-0.00462333
-0.00604891
-0.00491699
-0.00523274
-0.0066228
-0.00129087
-0.00218829
-0.00157733
-0.00231413
-0.00187953
-0.00244018
-0.00219822
-0.00257283
-0.00253476
-0.0027166
-0.00289067
-0.00287298
-0.00326763
-0.00304305
-0.00366737
-0.00322717
-0.00409165
-0.00342583
-0.00454231
-0.00363949
-0.00502122
-0.00386864
-0.00553038
-0.00411417
-0.00607174
-0.00437563
-0.00465674
-0.00664775
-0.001297
-0.00191673
-0.00158434
-0.00202679
-0.00188743
-0.0021371
-0.00220703
-0.00225322
-0.00254452
-0.00237912
-0.00290144
-0.00251606
-0.00327947
-0.00266502
-0.00368035
-0.00282629
-0.00410586
-0.00300032
-0.00455786
-0.0031875
-0.00503823
-0.00338827
-0.00554898
-0.00360341
-0.00609209
-0.00383253
-0.00407883
-0.00666999
-0.00130238
-0.00164438
-0.00159048
-0.00173868
-0.00189434
-0.00183324
-0.00221475
-0.00193282
-0.00255307
-0.00204079
-0.00291087
-0.00215826
-0.00328984
-0.00228605
-0.00369172
-0.0024244
-0.00411832
-0.00257372
-0.00457149
-0.00273434
-0.00505313
-0.00290663
-0.00556529
-0.00309126
-0.00610993
-0.00328789
-0.00349926
-0.0066895
-0.00103395
-0.00128451
-0.00130698
-0.00137135
-0.00159575
-0.00144991
-0.00190028
-0.00152872
-0.00222137
-0.00161173
-0.0025604
-0.00170176
-0.00291896
-0.00179971
-0.00329873
-0.00190627
-0.00370148
-0.00202166
-0.00412901
-0.00214619
-0.00458318
-0.00228016
-0.00506593
-0.00242388
-0.00557929
-0.00257789
-0.00612525
-0.00274194
-0.00291825
-0.00670625
-0.00103723
-0.00102832
-0.00131083
-0.00109776
-0.00160015
-0.00116059
-0.00190523
-0.00122364
-0.00222689
-0.00129007
-0.00256652
-0.00136212
-0.0029257
-0.00144053
-0.00330615
-0.00152583
-0.00370962
-0.00161819
-0.00413792
-0.00171789
-0.00459294
-0.00182514
-0.00507661
-0.00194021
-0.00559097
-0.00206353
-0.00613803
-0.00219488
-0.00233605
-0.00672024
-0.00103986
-0.000771651
-0.0013139
-0.000823711
-0.00160366
-0.000870827
-0.00190919
-0.000918116
-0.0022313
-0.000967949
-0.00257142
-0.00102201
-0.0029311
-0.00108084
-0.00331209
-0.00114484
-0.00371613
-0.00121415
-0.00414506
-0.00128896
-0.00460075
-0.00136945
-0.00508516
-0.0014558
-0.00560033
-0.00154835
-0.00614827
-0.00164694
-0.00175288
-0.00673144
-0.00104183
-0.00051463
-0.00131621
-0.000549328
-0.0016063
-0.000580735
-0.00191216
-0.000612262
-0.00223462
-0.000645489
-0.00257509
-0.000681539
-0.00293516
-0.000720768
-0.00331655
-0.000763452
-0.00372102
-0.000809674
-0.00415042
-0.000859567
-0.00460662
-0.000913249
-0.00509158
-0.000970843
-0.00560736
-0.00103257
-0.00615596
-0.00109833
-0.00116899
-0.00673985
-0.00104314
-0.00131775
-0.00160806
-0.000290421
-0.00191414
-0.000306185
-0.00223683
-0.000322801
-0.00257754
-0.000340828
-0.00293786
-0.000360447
-0.00331952
-0.000381793
-0.00372428
-0.000404909
-0.00415399
-0.000429862
-0.00461053
-0.000456709
-0.00509586
-0.000485515
-0.00561204
-0.000516389
-0.00616109
-0.000549276
-0.000584617
-0.00674547
-0.00160894
-0.00191513
-0.00223793
-0.00257876
-0.00293921
-0.003321
-0.00372591
-0.00415577
-0.00461248
-0.005098
-0.00561438
-0.00616366
-0.00674827
0.00205515
-0.00463093
-0.00211707
0.00199413
-0.00453953
0.00193428
-0.00444558
0.00187569
-0.00435
0.00181838
-0.00425284
0.00176238
-0.00415416
0.00170772
-0.00405396
0.00165443
-0.00395225
0.00160251
-0.00384905
-0.00374436
0.00206995
-0.00456827
-0.00213262
0.00200838
-0.00447796
0.00194803
-0.00438523
0.00188897
-0.00429094
0.00183122
-0.00419508
0.00177478
-0.00409772
0.00171971
-0.00399888
0.001666
-0.00389855
0.0016137
-0.00379675
0.0020849
-0.00450491
-0.00214826
0.00202278
-0.00441584
0.00196192
-0.00432438
0.00190239
-0.0042314
0.00184417
-0.00413687
0.0017873
-0.00404086
0.0017318
-0.00394338
0.00167769
-0.00384444
-0.00374405
0.00209997
-0.00444093
-0.00216395
0.00203731
-0.00435318
0.00197595
-0.00426302
0.00191592
-0.00417138
0.00185724
-0.00407819
0.00179993
-0.00398354
0.001744
-0.00388745
0.00168948
-0.00378992
-0.00369095
0.00211516
-0.00437639
-0.00217969
0.00205198
-0.00429
0.00199011
-0.00420115
0.0019296
-0.00411087
0.00187045
-0.00401904
0.00181269
-0.00392578
0.00175633
-0.00383108
0.00170138
-0.00373497
0.00213047
-0.00431133
-0.00219554
0.00206677
-0.0042263
0.0020044
-0.00413878
0.00194341
-0.00404988
0.00188379
-0.00395943
0.00182557
-0.00386756
0.00176877
-0.00377428
-0.00367961
0.0021459
-0.00424575
-0.00221148
0.0020817
-0.0041621
0.00201882
-0.00407591
0.00195734
-0.00398839
0.00189725
-0.00389934
0.00183858
-0.00380889
0.00178133
-0.00371704
0.00216145
-0.00417967
-0.00222753
0.00209674
-0.00409738
0.00203336
-0.00401254
0.00197139
-0.00392642
0.00191083
-0.00383877
0.0018517
-0.00374975
-0.00365935
0.00217711
-0.00411308
-0.00224369
0.00211189
-0.00403216
0.00204802
-0.00394867
0.00198556
-0.00386396
0.00192453
-0.00377774
0.00186493
-0.00369016
0.00219288
-0.004046
-0.00225997
0.00212716
-0.00396644
0.00206279
-0.0038843
0.00199985
-0.00380102
0.00193833
-0.00371622
-0.0036301
0.00220877
-0.00397841
-0.00227636
0.00214253
-0.0039002
0.00207767
-0.00381944
0.00201424
-0.00373759
0.00195225
-0.00365423
0.00222476
-0.00391031
-0.00229286
0.00215802
-0.00383346
0.00209266
-0.00375409
0.00202874
-0.00367366
-0.00359177
0.00224086
-0.00384171
-0.00230947
0.00217361
-0.0037662
0.00210776
-0.00368824
0.00204335
-0.00360925
0.00225707
-0.00377259
-0.00232619
0.00218931
-0.00369844
0.00212296
-0.00362189
-0.00354435
0.00227339
-0.00370295
-0.00234303
0.00220512
-0.00363016
0.00213827
-0.00355504
0.00228982
-0.0036328
-0.00235997
0.00222103
-0.00356138
-0.0034877
0.00230635
-0.00356212
-0.00237703
0.00223705
-0.00349207
0.00232299
-0.00349091
-0.00239419
-0.00341918
-0.00241147
-0.00242886
0.00206084
9.53587e-06
-9.60091e-06
0.00206103
2.74353e-05
-2.76302e-05
0.00206136
4.41523e-05
-4.44776e-05
0.00206181
5.97869e-05
-6.02346e-05
0.00206237
7.45395e-05
-7.51033e-05
0.00206305
8.85261e-05
-8.92026e-05
0.00206383
0.000101859
-0.000102646
0.00206473
0.000114619
-0.000115515
0.00206573
0.000126881
-0.000127884
0.00206684
0.000138699
-0.000139809
0.00206806
0.000150121
-0.000151339
0.00206939
0.000161182
-0.000162509
0.00207082
0.000171912
-0.000173348
0.00207237
0.000182331
-0.000183878
0.00207403
0.000192456
-0.000194116
0.0020758
0.000202299
-0.000204072
0.00207769
0.000211865
-0.000213756
0.0020797
0.000221161
-0.00022317
0.00208183
0.000230186
-0.000232317
0.00208409
0.000238939
-0.000241195
0.00208647
0.000247417
-0.000249799
0.00208899
0.00025561
-0.000258123
0.00209163
0.000263504
-0.000266151
0.00209442
0.000271077
-0.000273861
0.00209734
0.000278289
-0.000281214
0.00210042
0.000285082
-0.000288158
0.00210367
0.000291321
-0.00029457
0.00210716
0.000296843
-0.000300335
0.00211115
0.000300852
-0.000304841
0.000301843
-0.000307766
0.00207506
9.46303e-06
0.00207526
2.72278e-05
0.00207561
4.381e-05
0.00207607
5.93188e-05
0.00207666
7.39508e-05
0.00207737
8.78208e-05
0.00207819
0.00010104
0.00207912
0.000113688
0.00208016
0.000125838
0.00208131
0.000137546
0.00208258
0.000148857
0.00208395
0.000159808
0.00208544
0.000170425
0.00208704
0.000180731
0.00208875
0.000190742
0.00209058
0.000200467
0.00209254
0.000209915
0.00209461
0.000219089
0.0020968
0.00022799
0.00209912
0.000236617
0.00210158
0.000244965
0.00210416
0.000253025
0.00210688
0.000260782
0.00210975
0.000268213
0.00211276
0.000275276
0.00211594
0.000281904
0.00211932
0.000287943
0.00212301
0.000293151
0.00212725
0.000296612
0.000296476
0.00208937
9.384e-06
0.00208959
2.70079e-05
0.00208995
4.34513e-05
0.00209044
5.883e-05
0.00209105
7.33373e-05
0.00209179
8.70867e-05
0.00209264
0.000100188
0.00209361
0.000112721
0.00209469
0.000124757
0.00209588
0.000136351
0.00209719
0.000147549
0.00209861
0.000158385
0.00210015
0.000168888
0.0021018
0.000179078
0.00210357
0.000188971
0.00210546
0.000198577
0.00210748
0.000207904
0.00210961
0.000216955
0.00211187
0.00022573
0.00211426
0.000234228
0.00211678
0.000242444
0.00211944
0.000250368
0.00212223
0.000257985
0.00212517
0.00026527
0.00212827
0.000272177
0.00213155
0.000278629
0.00213504
0.000284448
0.00213888
0.000289321
0.00214321
0.000292278
0.000291424
0.00210378
9.29968e-06
0.00210402
2.67761e-05
0.00210439
4.30761e-05
0.0021049
5.83205e-05
0.00210554
7.26987e-05
0.0021063
8.63237e-05
0.00210719
9.93031e-05
0.00210819
0.000111717
0.00210931
0.000123636
0.00211055
0.000135113
0.0021119
0.000146194
0.00211337
0.000156914
0.00211496
0.0001673
0.00211667
0.000177371
0.0021185
0.000187145
0.00212044
0.00019663
0.00212251
0.000205833
0.00212471
0.000214758
0.00212704
0.000223406
0.00212949
0.000231773
0.00213208
0.000239855
0.00213481
0.000247641
0.00213768
0.000255115
0.0021407
0.000262249
0.00214388
0.000268994
0.00214725
0.000275261
0.00215085
0.000280851
0.00215477
0.000285393
0.00215913
0.000287919
0.000286612
0.0021183
9.21072e-06
0.00211854
2.65328e-05
0.00211893
4.26846e-05
0.00211946
5.77903e-05
0.00212012
7.20352e-05
0.00212092
8.55316e-05
0.00212183
9.83858e-05
0.00212287
0.000110677
0.00212403
0.000122475
0.00212531
0.000133832
0.00212671
0.000144794
0.00212823
0.000155395
0.00212987
0.00016566
0.00213163
0.000175611
0.00213352
0.000185262
0.00213552
0.000194623
0.00213765
0.000203702
0.00213991
0.000212499
0.0021423
0.000221017
0.00214482
0.000229251
0.00214748
0.000237197
0.00215028
0.000244843
0.00215322
0.000252171
0.00215632
0.000259152
0.00215958
0.000265731
0.00216304
0.000271807
0.00216672
0.000277167
0.00217072
0.000281398
0.00217507
0.000283566
0.000281987
0.00213291
9.11765e-06
0.00213316
2.62786e-05
0.00213357
4.22769e-05
0.00213412
5.72393e-05
0.00213481
7.13466e-05
0.00213563
8.47105e-05
0.00213658
9.74357e-05
0.00213766
0.000109601
0.00213886
0.000121274
0.00214018
0.000132509
0.00214163
0.000143349
0.00214319
0.000153826
0.00214488
0.000163969
0.0021467
0.000173797
0.00214864
0.000183323
0.0021507
0.000192559
0.00215289
0.000201509
0.00215522
0.000210178
0.00215767
0.000218563
0.00216026
0.000226663
0.00216298
0.000234471
0.00216585
0.000241974
0.00216887
0.000249155
0.00217204
0.00025598
0.00217538
0.00026239
0.00217891
0.000268275
0.00218267
0.000273409
0.00218671
0.000277355
0.00219105
0.000279233
0.000277499
0.00214762
9.02087e-06
0.00214788
2.60137e-05
0.00214831
4.18534e-05
0.00214888
5.66677e-05
0.00214959
7.06331e-05
0.00215044
8.38603e-05
0.00215143
9.64527e-05
0.00215254
0.000108488
0.00215378
0.000120034
0.00215515
0.000131142
0.00215664
0.000141857
0.00215825
0.000152209
0.00216
0.000162227
0.00216187
0.000171928
0.00216386
0.000181328
0.00216598
0.000190436
0.00216824
0.000199257
0.00217062
0.000207794
0.00217314
0.000216046
0.00217579
0.000224009
0.00217859
0.000231677
0.00218152
0.000239036
0.00218461
0.000246068
0.00218786
0.000252735
0.00219127
0.000258976
0.00219488
0.00026467
0.0021987
0.000269586
0.00220278
0.000273277
0.00220709
0.000274923
0.000273107
0.00216243
8.92071e-06
0.00216271
2.57386e-05
0.00216315
4.14142e-05
0.00216374
5.60756e-05
0.00216448
6.98944e-05
0.00216536
8.29809e-05
0.00216637
9.54366e-05
0.00216752
0.000107339
0.0021688
0.000118754
0.00217021
0.000129733
0.00217175
0.000140318
0.00217342
0.000150543
0.00217521
0.000160433
0.00217713
0.000170006
0.00217918
0.000179277
0.00218137
0.000188254
0.00218368
0.000196943
0.00218613
0.000205347
0.00218871
0.000213463
0.00219143
0.000221289
0.00219429
0.000228815
0.0021973
0.00023603
0.00220045
0.00024291
0.00220377
0.00024942
0.00220725
0.00025549
0.00221093
0.000260997
0.00221481
0.000265706
0.00221891
0.00026917
0.0022232
0.000270634
0.00026878
0.00217735
8.81739e-06
0.00217763
2.54537e-05
0.00217809
4.09595e-05
0.0021787
5.5463e-05
0.00217946
6.91309e-05
0.00218037
8.20724e-05
0.00218142
9.43876e-05
0.00218261
0.000106153
0.00218393
0.000117433
0.00218538
0.00012828
0.00218696
0.000138734
0.00218868
0.000148828
0.00219052
0.000158587
0.0021925
0.000168029
0.00219461
0.000177168
0.00219685
0.000186014
0.00219922
0.000194569
0.00220173
0.000202838
0.00220438
0.000210817
0.00220716
0.000218503
0.00221009
0.000225887
0.00221317
0.000232955
0.00221639
0.000239684
0.00221978
0.000246035
0.00222333
0.000251937
0.00222707
0.000257261
0.002231
0.000261775
0.00223513
0.000265039
0.00223941
0.000266357
0.000264494
0.00219236
8.71109e-06
0.00219266
2.51591e-05
0.00219313
4.04896e-05
0.00219376
5.48301e-05
0.00219455
6.83424e-05
0.00219549
8.11348e-05
0.00219657
9.33055e-05
0.00219779
0.00010493
0.00219915
0.000116072
0.00220065
0.000126783
0.00220228
0.000137103
0.00220404
0.000147063
0.00220594
0.000156689
0.00220797
0.000165998
0.00221014
0.000175004
0.00221244
0.000183714
0.00221487
0.000192135
0.00221744
0.000200266
0.00222015
0.000208107
0.002223
0.000215652
0.002226
0.000222893
0.00222914
0.000229813
0.00223243
0.000236391
0.00223589
0.000242583
0.0022395
0.000248318
0.0022433
0.000253466
0.00224728
0.000257797
0.00225143
0.000260885
0.0022557
0.000262085
0.00026023
0.00220748
8.60194e-06
0.00220779
2.48551e-05
0.00220827
4.00045e-05
0.00220893
5.4177e-05
0.00220974
6.75291e-05
0.00221071
8.01681e-05
0.00221182
9.21903e-05
0.00221308
0.000103671
0.00221448
0.000114672
0.00221602
0.000125243
0.0022177
0.000135425
0.00221951
0.000145249
0.00222146
0.000154739
0.00222355
0.000163913
0.00222577
0.000172782
0.00222813
0.000181356
0.00223062
0.00018964
0.00223326
0.000197633
0.00223603
0.000205333
0.00223895
0.000212736
0.00224201
0.000219832
0.00224521
0.000226605
0.00224857
0.00023303
0.00225209
0.000239065
0.00225577
0.000244637
0.00225962
0.000249615
0.00226365
0.000253775
0.00226782
0.000256707
0.0022721
0.000257812
0.000255973
0.00222271
8.49003e-06
0.00222302
2.45419e-05
0.00222352
3.95047e-05
0.00222419
5.35038e-05
0.00222503
6.6691e-05
0.00222603
7.91723e-05
0.00222718
9.1042e-05
0.00222847
0.000102374
0.00222991
0.00011323
0.0022315
0.00012366
0.00223322
0.000133701
0.00223508
0.000143386
0.00223709
0.000152737
0.00223923
0.000161773
0.0022415
0.000170504
0.00224392
0.00017894
0.00224648
0.000187084
0.00224917
0.000194937
0.00225201
0.000202496
0.00225499
0.000209756
0.00225812
0.000216706
0.00226139
0.000223331
0.00226481
0.000229605
0.0022684
0.000235484
0.00227214
0.000240896
0.00227604
0.00024571
0.00228011
0.000249711
0.00228431
0.000252503
0.00228859
0.000253529
0.000251711
0.00223804
8.37542e-06
0.00223836
2.42198e-05
0.00223887
3.89901e-05
0.00223957
5.28107e-05
0.00224043
6.58283e-05
0.00224146
7.81475e-05
0.00224264
8.98608e-05
0.00224397
0.000101041
0.00224545
0.000111749
0.00224708
0.000122033
0.00224885
0.000131931
0.00225076
0.000141473
0.00225281
0.000150684
0.00225501
0.000159578
0.00225734
0.00016817
0.00225982
0.000176465
0.00226243
0.000184468
0.00226519
0.000192179
0.00226809
0.000199596
0.00227114
0.000206712
0.00227433
0.000213516
0.00227767
0.000219993
0.00228116
0.000226115
0.0022848
0.00023184
0.0022886
0.000237096
0.00229256
0.000241753
0.00229666
0.000245604
0.00230089
0.000248271
0.00230519
0.00024923
0.000247437
0.00225347
8.25814e-06
0.0022538
2.38888e-05
0.00225433
3.8461e-05
0.00225505
5.20978e-05
0.00225593
6.4941e-05
0.00225699
7.70937e-05
0.0022582
8.86466e-05
0.00225957
9.96713e-05
0.00226109
0.000110227
0.00226276
0.000120362
0.00226458
0.000130114
0.00226654
0.000139512
0.00226865
0.000148578
0.0022709
0.00015733
0.00227329
0.000165779
0.00227582
0.000173931
0.0022785
0.000181792
0.00228132
0.00018936
0.00228428
0.000196633
0.00228739
0.000203603
0.00229064
0.000210262
0.00229404
0.00021659
0.0022976
0.000222563
0.0023013
0.000228136
0.00230516
0.000233238
0.00230917
0.000237744
0.00231332
0.000241456
0.00231758
0.00024401
0.0023219
0.00024491
0.000243142
0.00226901
8.13821e-06
0.00226935
2.3549e-05
0.0022699
3.79176e-05
0.00227063
5.13653e-05
0.00227154
6.40293e-05
0.00227262
7.60111e-05
0.00227387
8.73994e-05
0.00227528
9.82647e-05
0.00227684
0.000108665
0.00227855
0.000118648
0.00228042
0.00012825
0.00228243
0.0001375
0.00228459
0.00014642
0.00228689
0.000155027
0.00228934
0.000163331
0.00229193
0.00017134
0.00229467
0.000179056
0.00229755
0.000186479
0.00230057
0.000193607
0.00230374
0.000200432
0.00230706
0.000206944
0.00231053
0.000213124
0.00231414
0.000218948
0.00231791
0.000224371
0.00232182
0.000229324
0.00232588
0.000233686
0.00233007
0.000237266
0.00233436
0.000239717
0.00233871
0.000240565
0.000238822
0.00228466
8.01565e-06
0.00228501
2.32006e-05
0.00228557
3.73598e-05
0.00228632
5.06133e-05
0.00228726
6.30932e-05
0.00228837
7.48998e-05
0.00228965
8.61193e-05