/*--------------------------------*- C++ -*----------------------------------*\
  =========                 |
  \\      /  F ield         | OpenFOAM: The Open Source CFD Toolbox
   \\    /   O peration     | Website:  https://openfoam.org
    \\  /    A nd           | Version:  7
     \\/     M anipulation  |
\*---------------------------------------------------------------------------*/
FoamFile
{
    version     2.0;
    format      ascii;
    class       volVectorField;
    location    "20";
    object      U;
}
// * * * * * * * * * * * * * * * * * * * * * * * * * * * * * * * * * * * * * //

dimensions      [0 1 -1 0 0 0 0];

internalField   nonuniform List<vector> 
2625
(
(1.11888 0.0930727 4.40561e-20)
(1.11449 0.0722919 1.41374e-20)
(1.11423 0.0936018 4.71597e-20)
(1.11006 0.0728744 -2.59392e-20)
(1.11379 0.114849 3.52764e-20)
(1.1096 0.0940773 -2.86721e-20)
(1.10566 0.0734225 6.33233e-21)
(1.11243 0.13783 -1.58087e-20)
(1.10894 0.115211 -6.09018e-20)
(1.10501 0.0944972 -3.04404e-20)
(1.10129 0.0739336 3.20942e-21)
(1.10726 0.138075 2.36234e-21)
(1.10413 0.115504 1.3931e-19)
(1.10044 0.0948593 1.69705e-20)
(1.09697 0.0744052 2.80925e-20)
(1.10458 0.162501 -5.15413e-20)
(1.10211 0.138232 -4.56939e-20)
(1.09933 0.115725 -6.38985e-20)
(1.09592 0.0951614 -4.75955e-20)
(1.09269 0.0748346 -5.23585e-21)
(1.09902 0.162523 -2.82697e-20)
(1.09699 0.1383 -1.17718e-20)
(1.09457 0.115873 -2.74286e-20)
(1.09143 0.0954015 3.99449e-20)
(1.08846 0.0752193 3.62952e-20)
(1.09348 0.162439 2.62673e-20)
(1.0919 0.138278 8.60421e-20)
(1.08985 0.115945 -8.83943e-21)
(1.08699 0.0955777 -3.11457e-20)
(1.08428 0.075557 -7.35664e-20)
(1.08844 0.188739 3.13211e-20)
(1.08797 0.162247 1.94116e-20)
(1.08683 0.138164 -1.44329e-19)
(1.08516 0.115941 8.01785e-20)
(1.08259 0.0956882 2.71006e-20)
(1.08015 0.0758453 -5.82826e-21)
(1.08241 0.188363 1.18e-20)
(1.08248 0.161945 2.23768e-20)
(1.0818 0.137957 2.07012e-19)
(1.08051 0.115859 -4.69447e-21)
(1.07825 0.0957312 5.35766e-21)
(1.07608 0.0760819 3.77156e-20)
(1.07153 0.0601609 2.13364e-19)
(1.07502 0.217 6.94069e-20)
(1.0764 0.187858 3.72591e-20)
(1.07702 0.161533 5.02962e-20)
(1.0768 0.137655 -9.89008e-20)
(1.07591 0.115698 -2.44713e-20)
(1.07396 0.0957051 -3.15452e-21)
(1.07206 0.0762649 -5.81644e-20)
(1.06764 0.0604702 -1.9876e-19)
(1.0684 0.21628 3.3463e-20)
(1.07042 0.187223 -6.53292e-20)
(1.07159 0.161009 -1.46524e-19)
(1.07185 0.137259 -1.13481e-19)
(1.07135 0.115455 -3.65737e-20)
(1.06972 0.0956083 -2.03341e-20)
(1.06809 0.0763925 -3.47774e-20)
(1.06382 0.0607134 -3.78344e-20)
(1.06181 0.215407 -5.50191e-22)
(1.06447 0.186457 -8.61414e-21)
(1.0662 0.160373 1.42035e-19)
(1.06694 0.136765 2.09023e-19)
(1.06685 0.11513 4.10438e-20)
(1.06554 0.0954396 7.17791e-20)
(1.06419 0.0764628 4.14128e-20)
(1.06009 0.0608877 4.39441e-20)
(1.05077 0.246548 7.30833e-20)
(1.05524 0.214379 -6.92223e-20)
(1.05855 0.185559 1.33371e-19)
(1.06085 0.159624 -4.16901e-21)
(1.06208 0.136175 -1.65073e-19)
(1.06239 0.114722 6.28682e-20)
(1.06143 0.0951976 7.86734e-21)
(1.06035 0.0764745 1.19072e-20)
(1.05642 0.0609908 1.36294e-19)
(1.04349 0.245243 -1.55466e-19)
(1.04871 0.213198 1.41046e-19)
(1.05268 0.184529 -8.94142e-20)
(1.05555 0.158762 -1.20583e-19)
(1.05727 0.135486 4.071e-20)
(1.05799 0.114229 -8.24413e-20)
(1.05738 0.0948813 -5.48642e-20)
(1.05658 0.0764262 2.25522e-21)
(1.05283 0.0610203 -7.5758e-20)
(1.03625 0.243755 1.20083e-19)
(1.04222 0.211862 -8.72486e-20)
(1.04685 0.183367 5.75682e-20)
(1.05029 0.157785 6.60731e-20)
(1.05251 0.134699 -1.03006e-19)
(1.05365 0.113651 -1.03409e-21)
(1.0534 0.0944897 1.1842e-20)
(1.05287 0.0763167 -3.7013e-20)
(1.04933 0.0609738 -5.97352e-20)
(1.02066 0.277574 7.66166e-20)
(1.02904 0.242086 -7.13015e-20)
(1.03578 0.21037 -2.39669e-20)
(1.04107 0.182071 2.94733e-20)
(1.04508 0.156693 8.15897e-20)
(1.0478 0.133812 1.88278e-19)
(1.04937 0.112987 1.15859e-19)
(1.04949 0.094022 4.21272e-20)
(1.04923 0.0761453 1.68788e-19)
(1.04589 0.0608489 -8.61995e-20)
(1.01264 0.27555 -1.64863e-19)
(1.02188 0.240235 7.55858e-20)
(1.02938 0.208724 -5.90871e-20)
(1.03534 0.180642 -1.49948e-19)
(1.03993 0.155486 -1.93974e-19)
(1.04316 0.132826 -1.2181e-19)
(1.04516 0.112235 -1.45547e-19)
(1.04565 0.0934776 1.86004e-20)
(1.04566 0.075911 -2.77743e-19)
(1.04254 0.0606435 6.73496e-20)
(1.00466 0.273312 1.83255e-19)
(1.01477 0.238203 7.87431e-20)
(1.02304 0.206923 8.83056e-20)
(1.02967 0.17908 5.69476e-21)
(1.03484 0.154164 7.00195e-20)
(1.03857 0.13174 2.06355e-21)
(1.04101 0.111397 5.95632e-20)
(1.04189 0.0928559 -1.26493e-19)
(1.04216 0.0756133 1.78035e-19)
(1.03927 0.0603544 2.0964e-19)
(0.996743 0.27086 -9.17573e-20)
(1.00772 0.235989 -1.31501e-19)
(1.01676 0.204967 9.84129e-21)
(1.02406 0.177385 3.54178e-20)
(1.02981 0.152727 1.16716e-19)
(1.03405 0.130554 -2.78983e-20)
(1.03692 0.11047 -1.49027e-19)
(1.03821 0.0921569 1.54681e-19)
(1.03873 0.0752514 -9.54871e-20)
(1.03608 0.0599757 -1.88167e-21)
(0.974305 0.306938 -3.08871e-20)
(0.988881 0.268194 4.21766e-20)
(1.00074 0.233595 1.81267e-19)
(1.01054 0.202857 -3.87666e-20)
(1.01851 0.175558 -1.50184e-20)
(1.02485 0.151175 -5.28272e-20)
(1.0296 0.129269 1.87239e-19)
(1.0329 0.109455 8.47909e-20)
(1.0346 0.0913806 -3.76344e-20)
(1.03538 0.0748226 1.28348e-19)
(1.03298 0.0594871 -1.57374e-19)
(0.965524 0.303796 -2.13282e-19)
(0.981088 0.265316 -1.15813e-19)
(0.993819 0.231021 -2.68723e-19)
(1.0044 0.200593 -8.52424e-21)
(1.01303 0.173597 1.90652e-19)
(1.01995 0.149508 6.3483e-20)
(1.02521 0.127883 -2.40719e-19)
(1.02896 0.108351 -2.83826e-20)
(1.03107 0.090528 -1.12456e-19)
(1.0321 0.0743225 3.93316e-20)
(1.02998 0.0588735 -3.87084e-20)
(0.956814 0.300402 1.83625e-19)
(0.973371 0.262227 6.24822e-20)
(0.986978 0.228268 1.30943e-19)
(0.998323 0.198176 8.75759e-20)
(1.00762 0.171505 -2.0915e-19)
(1.01512 0.147727 -1.21717e-19)
(1.02089 0.126398 1.1591e-19)
(1.02508 0.107159 8.40501e-21)
(1.02762 0.0896012 8.98884e-20)
(1.02888 0.0737509 -1.8848e-20)
(1.02724 0.0581229 2.64687e-20)
(0.948185 0.296758 4.60886e-20)
(0.965735 0.258928 -5.06493e-20)
(0.980218 0.225337 1.64296e-20)
(0.992328 0.195607 6.88941e-20)
(1.00229 0.169281 2.04698e-19)
(1.01037 0.145832 1.31816e-19)
(1.01665 0.124814 5.80892e-20)
(1.02128 0.10588 -1.17977e-20)
(1.02425 0.0886028 -8.97816e-20)
(1.02575 0.0731224 2.4712e-20)
(1.02502 0.0573354 -2.30432e-20)
(0.939646 0.292866 -9.3314e-21)
(0.95819 0.255421 1.27531e-19)
(0.973544 0.22223 -6.11363e-20)
(0.986416 0.192886 -1.29595e-19)
(0.99704 0.166927 -1.97219e-19)
(1.00569 0.143823 -6.93148e-20)
(1.01248 0.123132 6.51093e-20)
(1.01756 0.104514 3.55758e-20)
(1.02095 0.0875313 1.17073e-19)
(1.02272 0.0724206 -2.8049e-20)
(1.02283 0.0569556 1.50969e-20)
(0.907682 0.32978 -5.73767e-20)
(0.931204 0.288728 3.95041e-21)
(0.950741 0.251708 -3.43638e-20)
(0.966963 0.218947 -3.34374e-20)
(0.980592 0.190016 3.68814e-20)
(0.991872 0.164444 2.91571e-20)
(1.0011 0.141703 5.46414e-20)
(1.00839 0.121352 -2.08016e-19)
(1.01391 0.103061 -1.0508e-19)
(1.01773 0.0863869 -6.96605e-20)
(1.0198 0.0716228 1.01576e-19)
(1.02062 0.0566235 1.58206e-19)
(0.898251 0.32497 9.14889e-20)
(0.92287 0.284346 -1.76147e-19)
(0.943395 0.247791 -8.21884e-20)
(0.96048 0.215491 -4.36382e-20)
(0.974861 0.186996 -1.7439e-19)
(0.986792 0.161832 -3.51368e-20)
(0.996585 0.13947 -1.39667e-19)
(1.00438 0.119475 2.08424e-19)
(1.01034 0.101522 1.81192e-19)
(1.01459 0.0851699 1.02507e-19)
(1.01696 0.0707355 -1.33545e-19)
(1.01842 0.0561868 -1.62644e-19)
(0.888938 0.31987 1.3895e-20)
(0.91465 0.279723 -6.47647e-20)
(0.936159 0.243671 2.21143e-19)
(0.9541 0.211863 -1.12143e-19)
(0.969226 0.183829 3.84936e-20)
(0.981803 0.159093 1.21026e-19)
(0.99216 0.137127 1.42896e-19)
(1.00046 0.117501 -6.06483e-22)
(1.00685 0.0998974 -6.91054e-20)
(1.01152 0.0838795 1.04597e-20)
(1.01422 0.0697668 -2.24571e-19)
(1.01624 0.0556518 1.73803e-19)
(0.87975 0.314484 -3.13758e-20)
(0.906554 0.274863 7.55164e-20)
(0.929039 0.239352 4.99967e-21)
(0.947829 0.208065 2.99047e-19)
(0.963692 0.180517 7.38514e-20)
(0.976909 0.156228 6.97264e-20)
(0.987824 0.134675 3.8131e-20)
(0.996616 0.115432 -5.14672e-20)
(1.00345 0.0981879 1.32748e-20)
(1.00853 0.082515 -1.52126e-20)
(1.01157 0.0687202 9.73714e-20)
(1.01409 0.0550322 -2.79837e-19)
(0.870701 0.308816 7.337e-20)
(0.89859 0.269769 -1.27766e-22)
(0.922043 0.234836 -4.07987e-20)
(0.941671 0.2041 -8.50748e-20)
(0.958264 0.17706 1.99036e-20)
(0.972113 0.153239 -1.74936e-19)
(0.983581 0.132115 -1.0282e-19)
(0.992862 0.113269 -5.85761e-20)
(1.00013 0.0963943 -4.31827e-21)
(1.00562 0.0810762 -2.88067e-20)
(1.00901 0.0675977 1.21757e-20)
(1.01199 0.0543314 2.85385e-19)
(0.861798 0.302871 5.19513e-20)
(0.890764 0.264444 -2.06111e-19)
(0.915176 0.230126 -9.95998e-20)
(0.935634 0.199969 2.73304e-20)
(0.952947 0.173462 1.34665e-19)
(0.967419 0.150127 1.85991e-19)
(0.979433 0.129448 1.52903e-19)
(0.989198 0.111012 -6.21661e-20)
(0.996892 0.0945175 1.18303e-20)
(1.00279 0.0795633 1.24283e-19)
(1.00653 0.0664018 1.7679e-19)
(1.00993 0.0535518 -1.30523e-19)
(0.816389 0.337987 4.30046e-20)
(0.853053 0.296652 -1.66739e-19)
(0.883087 0.258891 3.99162e-19)
(0.908445 0.225224 3.1947e-20)
(0.92972 0.195676 2.63064e-20)
(0.947743 0.169725 -1.94602e-19)
(0.96283 0.146894 -1.07053e-20)
(0.975382 0.126675 -6.63437e-20)
(0.985625 0.108663 1.45603e-19)
(0.993745 0.0925584 -4.47758e-20)
(1.00004 0.0779764 -2.00047e-19)
(1.00414 0.0651344 -1.96041e-20)
(1.00792 0.0526957 8.4402e-20)
(0.806633 0.330823 6.07954e-20)
(0.844475 0.290164 1.8911e-19)
(0.875564 0.253116 1.56947e-20)
(0.901856 0.220135 -1.04026e-19)
(0.923936 0.191223 -2.8881e-19)
(0.942657 0.165849 1.4646e-19)
(0.95835 0.143543 -2.19945e-19)
(0.971433 0.123799 1.07713e-20)
(0.982146 0.106223 -1.89929e-19)
(0.990687 0.0905183 -7.01445e-20)
(0.997379 0.0763164 -1.20029e-20)
(1.00184 0.0637976 -1.4389e-19)
(1.00597 0.0517654 8.82718e-22)
(0.797063 0.323338 -2.32433e-19)
(0.836074 0.283414 -1.06516e-19)
(0.868204 0.247121 3.82872e-20)
(0.895415 0.214862 1.04119e-19)
(0.918287 0.186613 -3.97434e-20)
(0.937694 0.161839 -1.7212e-19)
(0.953981 0.140074 1.67485e-19)
(0.967586 0.120822 1.42605e-20)
(0.978763 0.103694 8.53828e-20)
(0.98772 0.0883984 3.01629e-19)
(0.994796 0.074584 1.85192e-19)
(0.999612 0.0623931 -7.63576e-20)
(1.00408 0.0507628 -2.65508e-19)
(0.787693 0.31554 1.54573e-19)
(0.827858 0.276406 8.54726e-20)
(0.861014 0.240913 9.89921e-20)
(0.889128 0.209408 -7.16645e-20)
(0.912776 0.181848 1.24389e-19)
(0.932857 0.157697 1.17475e-19)
(0.949728 0.136491 -1.74634e-19)
(0.963845 0.117744 -2.64073e-19)
(0.975477 0.101076 -2.73676e-20)
(0.984845 0.0862001 -1.22092e-19)
(0.992299 0.0727803 -1.19398e-19)
(0.997474 0.0609227 5.87265e-20)
(1.00226 0.0496909 2.72658e-19)
(0.778533 0.307434 -1.93223e-19)
(0.819837 0.269146 -2.6666e-19)
(0.854002 0.234494 -2.46549e-19)
(0.883 0.203777 1.16898e-19)
(0.90741 0.176933 1.61583e-19)
(0.92815 0.153425 -2.63043e-20)
(0.945592 0.132796 7.30231e-20)
(0.960212 0.114568 -8.41877e-20)
(0.972292 0.0983728 -3.38597e-20)
(0.982062 0.0839249 4.85562e-20)
(0.989887 0.0709066 -3.51429e-21)
(0.995418 0.0593879 9.9002e-20)
(1.0005 0.0485504 -1.50807e-19)
(0.769596 0.29903 4.67216e-20)
(0.81202 0.26164 3.89745e-19)
(0.847173 0.22787 -1.51043e-19)
(0.877038 0.197973 -3.5751e-19)
(0.902192 0.171871 -6.35413e-20)
(0.923576 0.149026 9.50295e-20)
(0.941578 0.128991 -1.94328e-20)
(0.95669 0.111297 2.19619e-19)
(0.969207 0.095585 4.09008e-20)
(0.979374 0.0815744 9.92915e-21)
(0.987561 0.0689642 -9.10238e-21)
(0.993446 0.0577907 7.07708e-20)
(0.998813 0.0473439 -2.00434e-20)
(0.760891 0.290333 1.70066e-19)
(0.804415 0.253894 -1.21247e-19)
(0.840536 0.221047 2.12095e-19)
(0.871248 0.192002 2.62553e-19)
(0.897127 0.166666 2.55434e-20)
(0.91914 0.144504 5.86987e-20)
(0.937687 0.125079 1.94775e-19)
(0.95328 0.107932 1.00905e-19)
(0.966225 0.0927147 -1.67344e-19)
(0.97678 0.0791506 -1.58301e-19)
(0.985322 0.0669546 1.11399e-19)
(0.991556 0.0561327 1.85281e-20)
(0.997196 0.046074 5.68355e-20)
(0.75243 0.281353 1.05822e-20)
(0.797031 0.245915 6.37674e-21)
(0.834096 0.214029 -2.38613e-19)
(0.865633 0.185866 1.54577e-19)
(0.89222 0.16132 1.16173e-19)
(0.914845 0.139862 -2.29314e-19)
(0.933923 0.121063 -9.3625e-20)
(0.949985 0.104476 -1.96718e-19)
(0.963347 0.0897641 2.79024e-19)
(0.974282 0.0766551 1.6149e-20)
(0.983171 0.0648797 -9.3011e-20)
(0.989748 0.0544159 -1.24213e-19)
(0.995651 0.0447429 -4.3183e-21)
(0.744223 0.272098 4.39938e-20)
(0.789876 0.23771 -2.51618e-19)
(0.827861 0.206823 8.60886e-20)
(0.8602 0.179571 -8.81418e-21)
(0.887474 0.155839 -5.71469e-20)
(0.910694 0.135103 2.82054e-19)
(0.930289 0.116946 -1.0114e-19)
(0.946806 0.100932 6.5018e-20)
(0.960575 0.0867355 1.68071e-20)
(0.971881 0.0740901 6.30425e-20)
(0.981107 0.0627413 -8.70592e-20)
(0.988022 0.0526421 6.89997e-20)
(0.994178 0.043353 -9.50362e-20)
(0.681237 0.297595 -1.14859e-19)
(0.736279 0.262575 -1.6832e-19)
(0.782957 0.229286 1.95666e-19)
(0.821836 0.199434 -1.16022e-19)
(0.854954 0.173122 -5.44001e-20)
(0.882894 0.150226 -2.34428e-19)
(0.906691 0.13023 -1.85458e-20)
(0.926786 0.11273 -1.03257e-19)
(0.943746 0.097302 3.02979e-20)
(0.95791 0.0836311 -1.13887e-19)
(0.969577 0.0714575 -5.7329e-20)
(0.979131 0.0605413 9.70874e-20)
(0.986376 0.0508133 2.59112e-20)
(0.992777 0.0419068 3.68369e-20)
(0.672496 0.286683 2.53675e-19)
(0.728609 0.252795 -7.70107e-20)
(0.776282 0.220649 -1.07844e-19)
(0.816027 0.191868 5.0159e-20)
(0.849899 0.166524 -4.15602e-20)
(0.878483 0.144485 -8.75828e-21)
(0.902838 0.125248 -2.22451e-19)
(0.923418 0.108419 1.223e-19)
(0.940806 0.0935888 2.37314e-20)
(0.955353 0.0804533 -1.36425e-20)
(0.967371 0.0687597 6.5343e-20)
(0.977244 0.0582818 -3.9588e-20)
(0.98481 0.0489316 -5.04913e-20)
(0.991447 0.0404069 1.93653e-20)
(0.664068 0.275468 -2.88559e-19)
(0.721222 0.242766 3.84423e-19)
(0.769858 0.211809 2.60743e-19)
(0.810441 0.184132 -9.93521e-20)
(0.845041 0.159782 5.37995e-20)
(0.874246 0.138622 1.45982e-19)
(0.899139 0.120161 1.07243e-19)
(0.920187 0.104017 -1.80582e-20)
(0.937989 0.0897954 -9.58088e-20)
(0.952905 0.0772048 -5.6789e-20)
(0.965262 0.065999 -6.1474e-20)
(0.975444 0.055965 7.20885e-20)
(0.983324 0.046999 -1.48336e-19)
(0.990189 0.0388559 1.28342e-19)
(0.655965 0.263959 -2.15468e-20)
(0.714127 0.232498 -1.02292e-19)
(0.763694 0.202771 -2.90694e-19)
(0.805083 0.176231 1.43305e-19)
(0.840383 0.152902 -9.26524e-20)
(0.870186 0.132641 4.81206e-20)
(0.895597 0.114971 -2.29329e-19)
(0.917095 0.0995261 4.25306e-20)
(0.935295 0.0859249 3.83051e-20)
(0.950568 0.0738882 1.2113e-19)
(0.963253 0.0631776 -7.23026e-20)
(0.973733 0.0535931 7.52025e-20)
(0.981915 0.0450178 1.15623e-19)
(0.989002 0.0372564 -1.31478e-19)
(0.648197 0.25217 -9.01852e-20)
(0.707331 0.222001 2.49578e-20)
(0.757794 0.193545 1.48742e-19)
(0.799958 0.168174 -2.7179e-20)
(0.83593 0.145888 3.72951e-21)
(0.866307 0.126546 1.75916e-20)
(0.892214 0.109684 3.10046e-19)
(0.914144 0.0949506 8.04256e-20)
(0.932726 0.0819802 6.58387e-20)
(0.948342 0.0705061 -5.50196e-20)
(0.961343 0.0602981 1.63527e-20)
(0.97211 0.0511685 -1.246e-19)
(0.980585 0.0429902 -7.07627e-20)
(0.987884 0.035611 9.55549e-20)
(0.640776 0.240111 -3.13329e-20)
(0.700845 0.211284 -1.12432e-19)
(0.752166 0.184139 -2.28319e-19)
(0.795072 0.159965 2.07559e-19)
(0.831686 0.138747 1.09332e-19)
(0.862612 0.120342 -1.27497e-19)
(0.888994 0.104303 -3.38e-20)
(0.911336 0.090294 -1.07657e-20)
(0.930285 0.0779646 -7.82712e-20)
(0.946229 0.0670615 3.84654e-21)
(0.959532 0.0573631 7.79174e-20)
(0.970575 0.0486936 3.5111e-20)
(0.979331 0.0409184 3.16961e-20)
(0.986835 0.0339224 1.97962e-20)
(0.63371 0.227797 7.42325e-20)
(0.694674 0.200359 1.22114e-19)
(0.746816 0.174561 3.22962e-19)
(0.790429 0.151613 -2.41367e-19)
(0.827656 0.131486 2.21711e-20)
(0.859103 0.114035 3.66348e-20)
(0.885938 0.0988335 1.27314e-19)
(0.908674 0.08556 -7.08572e-20)
(0.927971 0.0738815 -1.01879e-19)
(0.944229 0.0635572 -5.32372e-20)
(0.957821 0.0543751 -1.89154e-20)
(0.969127 0.0461709 1.16083e-19)
(0.978153 0.0388047 7.15796e-21)
(0.985853 0.0321931 -1.09444e-19)
(0.62701 0.21524 -1.14545e-19)
(0.688828 0.189234 2.88641e-21)
(0.741749 0.16482 -8.64877e-20)
(0.786035 0.143125 1.16048e-19)
(0.823843 0.124109 -5.3247e-20)
(0.855786 0.10763 -4.75469e-20)
(0.883049 0.0932791 -2.07013e-19)
(0.906158 0.0807525 1.65661e-19)
(0.925787 0.0697341 8.28704e-20)
(0.942342 0.0599963 8.22107e-20)
(0.95621 0.0513369 5.57414e-20)
(0.967767 0.0436028 -1.689e-19)
(0.97705 0.0366515 1.3561e-19)
(0.984938 0.0304258 1.10791e-21)
(0.620684 0.202453 4.09361e-20)
(0.683312 0.177923 -1.3134e-19)
(0.736972 0.154924 -3.13388e-20)
(0.781893 0.134508 -1.72695e-19)
(0.82025 0.116623 -1.09089e-19)
(0.852661 0.101131 1.00525e-20)
(0.88033 0.0876446 -5.63453e-20)
(0.903792 0.0758756 -1.71891e-19)
(0.923734 0.0655259 -4.28045e-20)
(0.940571 0.0563817 -5.83685e-21)
(0.954699 0.0482512 -5.36934e-20)
(0.966494 0.040992 1.42676e-19)
(0.976021 0.0344611 -8.26154e-20)
(0.984088 0.0286231 8.95433e-20)
(0.614741 0.189449 2.56043e-19)
(0.678133 0.166434 -4.41564e-22)
(0.73249 0.144884 5.62789e-21)
(0.778008 0.12577 1.86782e-19)
(0.816882 0.109035 1.08576e-19)
(0.849732 0.0945453 5.28824e-20)
(0.877782 0.0819347 4.63984e-20)
(0.901575 0.0709331 -4.44218e-22)
(0.921813 0.0612605 1.20613e-19)
(0.938915 0.0527167 -7.18721e-21)
(0.953289 0.0451208 3.42239e-21)
(0.965308 0.038341 -9.47657e-20)
(0.975065 0.0322358 3.25371e-20)
(0.983301 0.0267874 -1.28745e-19)
(0.609189 0.176243 4.78373e-20)
(0.673298 0.154781 -3.75402e-20)
(0.728306 0.134707 -4.50569e-20)
(0.774384 0.116917 4.92156e-20)
(0.81374 0.10135 8.29753e-20)
(0.847001 0.0878772 1.12974e-19)
(0.875407 0.0761541 -4.78006e-20)
(0.899511 0.0659293 3.11952e-20)
(0.920025 0.0569416 -6.83809e-20)
(0.937375 0.0490045 1.11012e-20)
(0.951979 0.0419486 3.10003e-20)
(0.964208 0.0356526 4.19445e-20)
(0.974182 0.029978 -7.10267e-20)
(0.982577 0.0249215 1.09588e-19)
(0.604036 0.162848 -2.17485e-19)
(0.668812 0.142973 -4.42146e-20)
(0.724427 0.124403 2.62697e-20)
(0.771024 0.107959 -2.02954e-19)
(0.810829 0.0935764 -2.72755e-19)
(0.844472 0.0811327 -2.09303e-19)
(0.873208 0.0703077 7.50361e-20)
(0.8976 0.0608684 9.3542e-21)
(0.91837 0.0525727 -2.14784e-20)
(0.935951 0.0452483 -1.47288e-19)
(0.950769 0.0387375 -3.00715e-20)
(0.963195 0.0329293 -4.30502e-20)
(0.97337 0.0276902 9.10581e-20)
(0.981915 0.0230276 -7.4695e-20)
(0.599287 0.149279 1.15167e-19)
(0.664681 0.131023 -5.0321e-20)
(0.720855 0.113982 -4.41705e-20)
(0.767932 0.0989036 1.75206e-20)
(0.80815 0.0857199 1.48368e-19)
(0.842145 0.0743174 1.70666e-19)
(0.871186 0.0644004 -7.1321e-20)
(0.895844 0.0557547 1.23043e-20)
(0.91685 0.0481577 1.27196e-20)
(0.934644 0.0414514 1.57886e-19)
(0.94966 0.0354906 2.48017e-21)
(0.962267 0.0301739 3.87058e-20)
(0.972629 0.0253748 -8.6322e-21)
(0.981313 0.0211083 2.0523e-20)
(0.59495 0.135549 -6.03389e-20)
(0.66091 0.118942 2.64237e-20)
(0.717596 0.103454 1.61565e-19)
(0.765111 0.0897579 1.54948e-19)
(0.805707 0.0777875 7.40963e-21)
(0.840023 0.0674373 -1.29372e-19)
(0.869343 0.0584373 1.27859e-20)
(0.894244 0.0505925 -9.65358e-21)
(0.915466 0.0437003 -8.15898e-20)
(0.933455 0.0376173 -1.04541e-19)
(0.948652 0.0322107 -2.98547e-20)
(0.961425 0.0273892 5.66768e-21)
(0.971958 0.0230342 -9.58039e-20)
(0.980769 0.019166 -2.18687e-20)
(0.59103 0.121675 2.76414e-20)
(0.657503 0.106743 1.65604e-19)
(0.714653 0.0928286 -1.2113e-19)
(0.762564 0.0805307 -1.24287e-19)
(0.803501 0.0697861 -1.77149e-20)
(0.838108 0.0604983 5.86151e-20)
(0.86768 0.0524235 2.21575e-20)
(0.8928 0.0453863 1.28548e-20)
(0.914218 0.0392045 4.98408e-20)
(0.932383 0.0337493 6.33244e-20)
(0.947745 0.0289009 7.97809e-20)
(0.960668 0.0245778 -1.46601e-20)
(0.971356 0.0206707 -2.1497e-20)
(0.980284 0.0172031 9.16056e-20)
(0.587532 0.107669 -9.07069e-20)
(0.654464 0.0944376 -2.42586e-21)
(0.712028 0.0821153 1.18756e-19)
(0.760294 0.0712302 1.14226e-20)
(0.801535 0.0617228 -3.58324e-20)
(0.836402 0.0535063 -8.00413e-20)
(0.866198 0.0463641 4.54628e-20)
(0.891514 0.0401405 5.0539e-20)
(0.913107 0.0346741 4.46153e-20)
(0.93143 0.0298508 2.92289e-20)
(0.946938 0.0255642 -7.07243e-20)
(0.959996 0.0217426 1.35141e-20)
(0.970823 0.0182868 7.08344e-20)
(0.979855 0.0152217 -6.67253e-20)
(0.584462 0.0935483 6.26541e-20)
(0.651797 0.0820376 -1.95886e-20)
(0.709725 0.0713244 -1.09002e-19)
(0.758302 0.0618647 8.99124e-20)
(0.799811 0.0536046 6.83535e-20)
(0.834906 0.0464675 3.82592e-20)
(0.864899 0.0402643 -5.63215e-20)
(0.890388 0.0348597 -6.32827e-20)
(0.912134 0.0301131 -9.36028e-20)
(0.930596 0.0259254 -7.3671e-20)
(0.946233 0.0222039 5.80803e-20)
(0.959409 0.0188863 -3.58616e-20)
(0.970358 0.0158849 2.23266e-20)
(0.979482 0.0132243 8.78284e-21)
(0.501114 0.0891508 1.04955e-19)
(0.581822 0.079327 1.20585e-20)
(0.649505 0.0695557 -8.76439e-20)
(0.707747 0.060466 4.53162e-20)
(0.756591 0.052443 -7.48972e-20)
(0.79833 0.0454388 -3.25499e-20)
(0.833621 0.0393879 1.42568e-20)
(0.863784 0.0341294 4.64178e-20)
(0.889421 0.0295484 3.95325e-21)
(0.911299 0.0255255 6.64956e-20)
(0.92988 0.0219767 8.86129e-21)
(0.945628 0.0188229 -8.45169e-21)
(0.958906 0.0160118 -2.5654e-20)
(0.96996 0.0134674 -4.42167e-20)
(0.979164 0.011213 1.66572e-20)
(0.498593 0.0730854 4.82196e-20)
(0.579617 0.0650204 -4.41066e-20)
(0.64759 0.0570043 2.40177e-20)
(0.706094 0.0495505 -3.34364e-20)
(0.755162 0.0429733 -1.51016e-21)
(0.797094 0.0372325 2.5521e-21)
(0.832548 0.0322738 -2.79185e-20)
(0.862853 0.0279648 3.79616e-20)
(0.888614 0.0242113 -3.09891e-20)
(0.910602 0.0209154 -3.07082e-21)
(0.929283 0.0180081 8.84271e-21)
(0.945124 0.0154245 -1.01252e-20)
(0.958488 0.0131217 3.38064e-20)
(0.96963 0.0110368 1.23862e-20)
(0.9789 0.00919006 -1.34432e-20)
(0.496572 0.0569338 -6.69198e-20)
(0.57785 0.050644 4.07667e-20)
(0.646056 0.0443959 1.77044e-20)
(0.704771 0.038588 -5.84632e-21)
(0.754018 0.0334644 -2.90472e-20)
(0.796104 0.0289931 -2.80925e-20)
(0.831689 0.0251313 2.05074e-20)
(0.862108 0.0217758 -2.11602e-20)
(0.887967 0.0188531 4.75309e-20)
(0.910045 0.0162868 1.23996e-20)
(0.928805 0.0140232 1.35724e-20)
(0.944721 0.0120117 -2.58257e-20)
(0.958153 0.0102189 -3.95675e-21)
(0.969366 0.00859534 1.50642e-20)
(0.978689 0.00715763 2.94264e-20)
(0.495054 0.040715 3.07241e-20)
(0.576522 0.0362132 3.79305e-21)
(0.644904 0.031743 -4.81365e-21)
(0.703776 0.0275889 1.04491e-20)
(0.753158 0.023925 3.43056e-20)
(0.79536 0.0207278 2.09635e-20)
(0.831044 0.0179667 4.34231e-21)
(0.861548 0.0155677 -1.91588e-20)
(0.887482 0.0134783 4.09132e-21)
(0.909626 0.0116437 -9.88423e-21)
(0.928446 0.0100256 -1.57272e-20)
(0.944418 0.00858777 1.46421e-20)
(0.957902 0.00730631 2.42427e-20)
(0.969168 0.00614553 -8.77257e-21)
(0.978532 0.00511785 -3.3775e-20)
(0.49404 0.0244481 2.36545e-21)
(0.575636 0.0217434 -3.38287e-21)
(0.644135 0.0190585 1.63826e-20)
(0.703113 0.0165638 4.67912e-21)
(0.752585 0.0143637 -4.86901e-21)
(0.794864 0.012444 1.39632e-20)
(0.830613 0.0107863 8.67857e-21)
(0.861175 0.00934604 -7.8757e-21)
(0.887159 0.00809167 -2.22114e-20)
(0.909347 0.00699035 -9.43334e-21)
(0.928207 0.00601902 1.4307e-20)
(0.944217 0.00515587 -7.4104e-21)
(0.957735 0.00438663 -2.6736e-20)
(0.969036 0.00368973 8.65181e-22)
(0.978427 0.00307283 9.29613e-22)
(0.64375 0.00635481 7.73721e-21)
(0.702781 0.00552289 -1.11688e-20)
(0.752298 0.00478926 2.75265e-21)
(0.794616 0.00414917 2.88677e-21)
(0.830398 0.00359643 -1.16166e-22)
(0.860988 0.00311622 7.63913e-21)
(0.886997 0.002698 7.50367e-21)
(0.909207 0.0023308 -2.2555e-21)
(0.928088 0.00200696 -6.38425e-21)
(0.944116 0.00171919 3.70725e-21)
(0.957651 0.00146272 8.63684e-21)
(0.968971 0.00123035 1.56845e-21)
(0.978375 0.00102468 4.41e-21)
(1.02886 0.0517931 -8.06083e-21)
(1.03163 0.0519561 5.60163e-20)
(1.03443 0.0521664 6.70384e-20)
(1.03734 0.0523478 -1.14641e-19)
(1.04032 0.0524522 5.21609e-20)
(1.04337 0.0524849 -4.81501e-20)
(1.0465 0.0524442 2.28643e-19)
(1.04972 0.0523332 7.77368e-20)
(1.05301 0.0521543 2.54303e-20)
(1.05638 0.0519102 8.88939e-20)
(1.02917 0.0509019 5.59445e-20)
(1.0319 0.0510659 4.80926e-20)
(1.03465 0.0512585 -2.53731e-20)
(1.03752 0.0514277 -1.70632e-20)
(1.04046 0.0515237 6.00709e-20)
(1.04348 0.0515518 1.00809e-19)
(1.04658 0.0515092 -7.47437e-20)
(1.04977 0.0513991 4.46618e-20)
(1.05304 0.0512235 4.33255e-20)
(1.05639 0.050985 9.62247e-21)
(1.02949 0.0500959 -3.31456e-20)
(1.03219 0.0502554 -5.38426e-20)
(1.03487 0.0504216 -9.31509e-20)
(1.03771 0.0505708 -1.31413e-20)
(1.04061 0.0506533 -1.0174e-19)
(1.0436 0.0506722 -1.20999e-19)
(1.04667 0.050624 8.69921e-20)
(1.04983 0.0505113 -1.12562e-19)
(1.05308 0.0503358 1.35037e-20)
(1.02981 0.0493399 1.86137e-20)
(1.0325 0.0494797 2.59805e-20)
(1.03513 0.0496134 -1.43394e-20)
(1.03792 0.0497378 -4.53359e-20)
(1.04079 0.0498035 1.04619e-19)
(1.04375 0.0498109 1.15851e-19)
(1.04679 0.0497553 -7.97574e-20)
(1.04993 0.0496384 1.61859e-20)
(1.05314 0.0494616 4.02963e-20)
(1.03014 0.0486076 -1.78542e-19)
(1.03282 0.0487235 6.93547e-20)
(1.0354 0.048826 8.07421e-20)
(1.03816 0.0489247 -2.14581e-20)
(1.04099 0.048972 -9.33266e-20)
(1.04392 0.0489664 -1.39971e-19)
(1.04694 0.0489018 -4.10528e-20)
(1.05004 0.0487794 5.35915e-20)
(1.05323 0.0485999 -6.63279e-20)
(1.03048 0.0478878 1.83772e-19)
(1.03316 0.0479813 -5.76456e-20)
(1.0357 0.0480568 -8.61741e-21)
(1.03842 0.0481307 -1.45479e-20)
(1.04122 0.0481592 2.50834e-20)
(1.04411 0.0481395 1.94919e-19)
(1.0471 0.0480648 -2.53612e-20)
(1.05018 0.0479356 5.67807e-21)
(1.03083 0.0471749 -1.15699e-20)
(1.0335 0.0472482 -2.93842e-20)
(1.036 0.0473013 -9.73481e-21)
(1.03869 0.0473518 1.05501e-19)
(1.04145 0.0473618 5.34418e-20)
(1.04432 0.0473275 -4.21297e-20)
(1.04728 0.0472421 -5.7814e-21)
(1.05033 0.0471053 -2.97221e-20)
(1.03118 0.0464651 -4.53107e-21)
(1.03384 0.0465201 6.91299e-20)
(1.03631 0.0465547 3.31128e-20)
(1.03897 0.0465839 -5.99718e-20)
(1.04171 0.0465762 -2.79975e-20)
(1.04454 0.0465275 -5.25015e-20)
(1.04747 0.046431 7.21644e-20)
(1.03154 0.0457553 -9.96351e-20)
(1.03418 0.0457941 -1.28347e-20)
(1.03662 0.0458138 -1.31131e-19)
(1.03926 0.0458238 1.76544e-19)
(1.04197 0.0457996 -4.18319e-20)
(1.04478 0.0457368 -9.10638e-20)
(1.04768 0.0456294 2.50188e-20)
(1.0319 0.0450435 1.28903e-19)
(1.03453 0.0450682 9.51411e-20)
(1.03694 0.045076 9.29641e-20)
(1.03956 0.0450688 -8.82983e-20)
(1.04223 0.0450295 -5.73548e-20)
(1.04502 0.0449535 1.18369e-20)
(1.03225 0.0443284 -1.31077e-19)
(1.03487 0.0443409 -9.52515e-20)
(1.03726 0.044339 2.24279e-20)
(1.03985 0.0443169 -7.57933e-20)
(1.04251 0.044264 1.3805e-19)
(1.04527 0.0441756 4.86875e-21)
(1.03261 0.0436089 -3.05269e-20)
(1.0352 0.043611 -2.1113e-20)
(1.03758 0.0436014 -2.04802e-20)
(1.04015 0.0435661 4.07387e-20)
(1.04278 0.0435011 1.85068e-20)
(1.03296 0.0428843 3.19534e-20)
(1.03554 0.0428777 9.96068e-21)
(1.03789 0.0428616 1.2671e-20)
(1.04045 0.0428149 6.24427e-20)
(1.04306 0.0427393 -1.56171e-19)
(1.03331 0.0421541 -6.47138e-20)
(1.03587 0.0421401 -5.45182e-20)
(1.03821 0.0421186 8.06301e-20)
(1.04075 0.0420621 -8.77347e-20)
(1.03366 0.0414178 4.58776e-20)
(1.0362 0.0413977 2.57866e-20)
(1.03852 0.0413715 -7.28621e-20)
(1.04105 0.0413067 2.51331e-20)
(1.034 0.0406752 4.14894e-20)
(1.03652 0.04065 4.67418e-20)
(1.03883 0.0406197 1.77178e-20)
(1.03434 0.0399259 3.79016e-20)
(1.03684 0.0398965 1.54211e-20)
(1.03914 0.0398626 -2.513e-20)
(1.03467 0.0391698 -4.14677e-20)
(1.03715 0.0391369 -4.8119e-20)
(1.035 0.0384066 -4.4396e-20)
(1.03532 0.0376363 3.3929e-20)
(1 0.000821409 0)
(1.00006 0.00242048 0)
(1.00019 0.00399 0)
(1.00038 0.00553386 0)
(1.00062 0.00706657 0)
(1.00092 0.00859593 0)
(1.00128 0.0101303 0)
(1.00169 0.0116757 0)
(1.00215 0.0132381 0)
(1.00266 0.0148221 0)
(1.00322 0.016432 0)
(1.00384 0.0180708 0)
(1.00451 0.0197416 0)
(1.00523 0.0214464 0)
(1.00601 0.023187 0)
(1.00684 0.0249648 0)
(1.00773 0.0267805 0)
(1.00868 0.0286348 0)
(1.00968 0.0305277 0)
(1.01075 0.0324591 0)
(1.01187 0.0344282 0)
(1.01306 0.0364335 0)
(1.01431 0.0384727 0)
(1.01563 0.0405418 0)
(1.01701 0.0426341 0)
(1.01846 0.0447395 0)
(1.02 0.0468354 0)
(1.02161 0.0488962 0)
(1.02343 0.0507957 0)
(1.02542 0.0523413 0)
(1 0.00081562 0)
(1.00007 0.00240322 0)
(1.0002 0.00396075 0)
(1.0004 0.00549285 0)
(1.00065 0.00701366 0)
(1.00096 0.00853097 0)
(1.00133 0.010053 0)
(1.00175 0.0115857 0)
(1.00223 0.0131349 0)
(1.00276 0.0147052 0)
(1.00334 0.0163006 0)
(1.00397 0.0179243 0)
(1.00466 0.0195792 0)
(1.00541 0.0212672 0)
(1.0062 0.0229901 0)
(1.00706 0.024749 0)
(1.00797 0.0265449 0)
(1.00894 0.0283781 0)
(1.00996 0.0302486 0)
(1.01105 0.0321562 0)
(1.0122 0.0341 0)
(1.01342 0.0360785 0)
(1.01469 0.0380892 0)
(1.01604 0.0401279 0)
(1.01745 0.0421874 0)
(1.01894 0.0442568 0)
(1.02052 0.0463104 0)
(1.02219 0.048311 0)
(1.02411 0.050106 0)
(1.02618 0.0513901 0)
(1 0.000808861 0)
(1.00007 0.00238384 0)
(1.00021 0.00392816 0)
(1.00041 0.00544722 0)
(1.00068 0.00695492 0)
(1.001 0.00845888 0)
(1.00138 0.00996715 0)
(1.00182 0.0114857 0)
(1.00231 0.0130202 0)
(1.00285 0.0145751 0)
(1.00345 0.0161545 0)
(1.0041 0.0177614 0)
(1.00481 0.0193985 0)
(1.00557 0.0210678 0)
(1.00639 0.022771 0)
(1.00727 0.0245092 0)
(1.0082 0.0262831 0)
(1.00919 0.028093 0)
(1.01024 0.029939 0)
(1.01136 0.0318205 0)
(1.01253 0.0337367 0)
(1.01377 0.0356858 0)
(1.01507 0.0376653 0)
(1.01644 0.0396708 0)
(1.01789 0.0416944 0)
(1.01941 0.0437235 0)
(1.02103 0.0457289 0)
(1.02274 0.0476601 0)
(1.02473 0.0493486 0)
(1.0268 0.0504443 0)
(1.00001 0.000801776 0)
(1.00008 0.00236383 0)
(1.00022 0.00389484 0)
(1.00043 0.0054008 0)
(1.00071 0.00689528 0)
(1.00104 0.00838584 0)
(1.00143 0.00988037 0)
(1.00188 0.0113848 0)
(1.00238 0.0129047 0)
(1.00294 0.0144444 0)
(1.00356 0.0160079 0)
(1.00423 0.0175982 0)
(1.00496 0.019218 0)
(1.00574 0.020869 0)
(1.00658 0.022553 0)
(1.00748 0.024271 0)
(1.00843 0.0260235 0)
(1.00944 0.0278109 0)
(1.01052 0.0296331 0)
(1.01165 0.0314895 0)
(1.01285 0.033379 0)
(1.01411 0.0352999 0)
(1.01544 0.0372493 0)
(1.01684 0.0392224 0)
(1.01832 0.0412108 0)
(1.01987 0.0431997 0)
(1.02152 0.0451561 0)
(1.02327 0.047018 0)
(1.02529 0.0486116 0)
(1.02732 0.0495912 0)
(1.00001 0.00079434 0)
(1.00008 0.00234297 0)
(1.00023 0.00386038 0)
(1.00045 0.00535295 0)
(1.00073 0.00683392 0)