/*--------------------------------*- C++ -*----------------------------------*\
  =========                 |
  \\      /  F ield         | OpenFOAM: The Open Source CFD Toolbox
   \\    /   O peration     | Website:  https://openfoam.org
    \\  /    A nd           | Version:  7
     \\/     M anipulation  |
\*---------------------------------------------------------------------------*/
FoamFile
{
    version     2.0;
    format      ascii;
    class       volVectorField;
    location    "5";
    object      U;
}
// * * * * * * * * * * * * * * * * * * * * * * * * * * * * * * * * * * * * * //

dimensions      [0 1 -1 0 0 0 0];

internalField   nonuniform List<vector> 
2625
(
(0.0031684 0.00189366 4.83437e-21)
(0.0239611 0.00466075 -4.40251e-21)
(0.0631705 0.00662326 2.7312e-22)
(0.110011 0.0079805 1.94983e-21)
(0.16299 0.00883802 -4.85852e-21)
(0.218356 0.00930854 -3.71891e-21)
(0.27435 0.00947726 7.54505e-21)
(0.0031684 -0.00189367 -4.83437e-21)
(0.0239611 -0.00466078 4.40251e-21)
(0.0631705 -0.00662329 -2.7312e-22)
(0.110011 -0.00798053 -1.94983e-21)
(0.16299 -0.00883806 4.85852e-21)
(0.218356 -0.00930859 3.71891e-21)
(0.27435 -0.00947731 -7.54505e-21)
(0.329367 -0.00941906 -4.026e-22)
(0.382427 -0.00919484 -4.40906e-21)
(0.43286 -0.00885507 -1.49781e-22)
(0.480289 -0.00844018 -7.59485e-22)
(0.524537 -0.00798199 3.09189e-22)
(0.565577 -0.00750473 -2.26915e-22)
(0.603487 -0.00702622 -3.54635e-21)
(0.638409 -0.00655897 -2.22002e-21)
(0.670526 -0.00611127 4.56441e-22)
(0.700043 -0.00568813 -8.14604e-22)
(0.727168 -0.0052921 3.22079e-21)
(0.752106 -0.00492417 3.03073e-22)
(0.775056 -0.00458496 -3.64542e-21)
(0.00331484 -0.00567571 -6.56718e-22)
(0.024312 -0.0139714 7.65127e-21)
(0.0636542 -0.0198561 8.85979e-22)
(0.11058 -0.0239262 7.37985e-21)
(0.163605 -0.0264983 -1.53392e-20)
(0.218991 -0.0279101 1.64251e-20)
(0.274985 -0.028417 1.68902e-20)
(0.329988 -0.0282432 -2.75427e-21)
(0.383025 -0.0275716 7.26944e-21)
(0.433429 -0.0265534 3.32497e-21)
(0.480826 -0.0253099 -1.0368e-20)
(0.525041 -0.0239363 8.07455e-21)
(0.566048 -0.0225055 -3.52515e-21)
(0.603926 -0.0210707 4.89455e-21)
(0.638817 -0.0196697 1.85781e-20)
(0.670906 -0.0183272 6.35997e-21)
(0.700395 -0.0170584 4.71784e-21)
(0.727496 -0.0158707 4.69338e-21)
(0.75241 -0.0147673 -8.93666e-21)
(0.775341 -0.01375 8.15081e-21)
(0.00360721 -0.00944422 -1.33267e-20)
(0.0250128 -0.0232521 -2.29848e-20)
(0.0646202 -0.0330498 1.55289e-20)
(0.111715 -0.0398276 1.05232e-20)
(0.164835 -0.0441126 3.71602e-21)
(0.22026 -0.0464661 -2.3874e-21)
(0.276253 -0.0473131 -2.7118e-20)
(0.331229 -0.0470266 2.69594e-21)
(0.38422 -0.045911 -1.22415e-20)
(0.434567 -0.0442177 2.61861e-21)
(0.4819 -0.0421487 -1.27304e-20)
(0.526049 -0.0398629 -5.15107e-22)
(0.56699 -0.0374811 -1.07756e-20)
(0.604803 -0.0350927 -7.60878e-21)
(0.639633 -0.03276 -3.32158e-20)
(0.671664 -0.0305245 2.54359e-22)
(0.7011 -0.0284115 8.54721e-21)
(0.728151 -0.0264335 4.75823e-21)
(0.753017 -0.0245958 1.16929e-20)
(0.775911 -0.0229011 -2.8082e-20)
(0.00404456 -0.0131914 2.0204e-21)
(0.0260613 -0.0324845 -3.54476e-21)
(0.066066 -0.046179 -1.04886e-20)
(0.113416 -0.055656 -2.57956e-20)
(0.166675 -0.0616509 1.60827e-20)
(0.22216 -0.0649469 -1.37258e-20)
(0.278153 -0.0661372 3.40754e-20)
(0.333087 -0.0657427 -2.70773e-21)
(0.38601 -0.0641883 3.04589e-20)
(0.436271 -0.0618255 1.95321e-20)
(0.483509 -0.0589365 3.33925e-20)
(0.527558 -0.0557433 1.04607e-21)
(0.568401 -0.0524153 3.18719e-20)
(0.606118 -0.0490771 2.22714e-21)
(0.640857 -0.0458162 -4.68219e-21)
(0.672801 -0.0426908 -1.77097e-23)
(0.702157 -0.0397361 -2.07984e-20)
(0.729132 -0.0369701 -1.25383e-20)
(0.753927 -0.0344001 2.15403e-20)
(0.776765 -0.0320291 9.03904e-21)
(0.00462555 -0.0169095 1.75697e-20)
(0.0274548 -0.0416499 1.33595e-20)
(0.0679879 -0.0592188 9.23732e-21)
(0.115676 -0.0713828 1.95182e-20)
(0.169123 -0.0790832 -1.27246e-20)
(0.224686 -0.0833226 -6.82346e-21)
(0.28068 -0.0848606 -1.03449e-20)
(0.33556 -0.0843645 1.95663e-20)
(0.388392 -0.0823788 -4.59471e-20)
(0.438539 -0.0793543 -4.86512e-20)
(0.48565 -0.0756528 -5.35126e-21)
(0.529568 -0.0715594 -1.65137e-20)
(0.570279 -0.0672914 1.91237e-20)
(0.607869 -0.063009 -2.64767e-20)
(0.642485 -0.0588249 6.03377e-21)
(0.674315 -0.0548138 1.44651e-20)
(0.703563 -0.0510211 9.27778e-21)
(0.730439 -0.04747 -2.06591e-20)
(0.75514 -0.0441703 -1.0922e-20)
(0.777903 -0.0411249 2.20333e-20)
(0.00534846 -0.0205906 -1.71492e-20)
(0.0291894 -0.0507297 -2.56429e-20)
(0.070381 -0.0721441 1.89353e-21)
(0.118492 -0.0869794 3.56767e-20)
(0.172172 -0.0963798 -1.14712e-21)
(0.227835 -0.101564 5.63947e-21)
(0.28383 -0.103455 7.42399e-21)
(0.338643 -0.102866 -2.89667e-21)
(0.391361 -0.100458 -1.12635e-20)
(0.441367 -0.0967818 2.00031e-20)
(0.488321 -0.0922775 5.08352e-20)
(0.532075 -0.0872927 -3.55242e-20)
(0.572623 -0.0820929 -2.85512e-20)
(0.610053 -0.0768737 3.4947e-20)
(0.644518 -0.0717726 3.31817e-20)
(0.676205 -0.0668811 1.42164e-21)
(0.70532 -0.062255 -1.32855e-20)
(0.732071 -0.0579229 1.07023e-20)
(0.756654 -0.0538969 -2.54305e-21)
(0.779323 -0.0501792 -3.6337e-20)
(0.00621118 -0.0242269 4.40575e-20)
(0.0312602 -0.0597055 1.50265e-20)
(0.0732391 -0.0849301 -4.66701e-20)
(0.121855 -0.102418 -6.53421e-20)
(0.175816 -0.113511 2.84101e-20)
(0.231598 -0.119641 3.14406e-20)
(0.287596 -0.121892 7.38714e-21)
(0.342329 -0.121219 -3.52725e-20)
(0.394913 -0.118402 -7.92225e-22)
(0.44475 -0.114086 -1.25729e-21)
(0.491517 -0.10879 -2.34848e-20)
(0.535076 -0.102925 1.52039e-20)
(0.575428 -0.0968036 -3.41635e-20)
(0.612669 -0.0906562 -8.58943e-21)
(0.646952 -0.0846458 3.4367e-20)
(0.678468 -0.0788806 -3.72047e-20)
(0.707423 -0.0734267 -9.35386e-21)
(0.734025 -0.0683183 -4.0738e-20)
(0.758468 -0.0635703 -2.20508e-20)
(0.781026 -0.0591829 6.59869e-20)
(0.00721123 -0.0278107 -9.75757e-22)
(0.0336617 -0.0685594 -2.88253e-20)
(0.0765549 -0.0975527 8.71398e-21)
(0.125758 -0.11767 6.4053e-20)
(0.180045 -0.130448 -6.01026e-20)
(0.235969 -0.137525 3.65329e-22)
(0.29197 -0.140144 -4.71026e-20)
(0.346613 -0.1394 3.25547e-20)
(0.399042 -0.136186 5.40889e-21)
(0.448684 -0.131244 -1.06764e-20)
(0.495234 -0.125171 -1.79025e-20)
(0.538566 -0.118439 3.09319e-20)
(0.578692 -0.111407 1.26e-20)
(0.615712 -0.104342 -2.70012e-20)
(0.649785 -0.0974313 -5.26982e-20)
(0.681103 -0.0908002 1.4753e-20)
(0.709872 -0.0845252 2.53554e-20)
(0.736301 -0.0786462 9.78137e-20)
(0.760581 -0.0731811 1.29982e-20)
(0.783008 -0.0681271 -8.78237e-21)
(0.00834574 -0.0313345 -1.68058e-21)
(0.0363875 -0.0772737 8.61239e-21)
(0.0803198 -0.109988 2.63155e-20)
(0.130192 -0.132708 -4.3845e-20)
(0.184852 -0.147162 8.47735e-20)
(0.240937 -0.155188 -4.32082e-20)
(0.296944 -0.158184 5.06516e-20)
(0.351485 -0.157381 3.32141e-20)
(0.40374 -0.153786 6.89635e-20)
(0.453162 -0.148235 -6.09516e-21)
(0.499465 -0.141401 3.0524e-20)
(0.542541 -0.133816 -3.24865e-20)
(0.58241 -0.125888 5.5176e-20)
(0.61918 -0.117917 -4.88789e-20)
(0.653014 -0.110116 -2.88688e-21)
(0.684105 -0.102628 6.75301e-20)
(0.712663 -0.0955394 3.72308e-20)
(0.738896 -0.0888962 -4.78302e-21)
(0.76299 -0.0827198 3.77967e-20)
(0.78527 -0.0770027 1.0625e-20)
(0.00961148 -0.0347909 5.93919e-21)
(0.0394301 -0.0858308 -2.21237e-20)
(0.0845243 -0.122212 2.07853e-20)
(0.135146 -0.147506 5.19349e-20)
(0.190224 -0.163624 -7.11448e-20)
(0.246492 -0.1726 4.31842e-20)
(0.302509 -0.175984 -2.20371e-20)
(0.356938 -0.175137 -8.66342e-20)
(0.408999 -0.171179 -3.06064e-20)
(0.458176 -0.165037 -3.05685e-20)
(0.504205 -0.157459 -7.06992e-20)
(0.546995 -0.149039 2.91512e-20)
(0.586577 -0.140229 -2.56686e-20)
(0.623067 -0.131365 9.13581e-20)
(0.656634 -0.122687 -2.51262e-20)
(0.687473 -0.114352 -1.05528e-20)
(0.715795 -0.106459 -9.32613e-20)
(0.741808 -0.0990586 -5.48435e-20)
(0.765693 -0.0921771 -5.25612e-21)
(0.787809 -0.0858009 -1.82355e-20)
(0.0110049 -0.0381727 -3.58639e-20)
(0.0427813 -0.094214 1.51887e-19)
(0.0891577 -0.134202 -9.37118e-20)
(0.140607 -0.162038 2.58176e-20)
(0.19615 -0.179807 4.77318e-20)
(0.252622 -0.189736 -7.71857e-20)
(0.308652 -0.193517 -3.5166e-21)
(0.362961 -0.192644 3.2997e-20)
(0.414811 -0.188341 -2.20783e-20)
(0.463719 -0.181628 4.51e-20)
(0.509447 -0.173327 1.32358e-19)
(0.551921 -0.16409 3.38182e-20)
(0.591187 -0.154415 1.42165e-20)
(0.627369 -0.144675 -4.95216e-20)
(0.660641 -0.135131 7.64255e-20)
(0.691202 -0.12596 -1.88597e-20)
(0.719264 -0.117272 2.95094e-21)
(0.745035 -0.109123 3.12506e-20)
(0.76869 -0.101544 -2.09571e-20)
(0.790623 -0.094513 5.03653e-20)
(0.0125219 -0.0414729 1.5035e-21)
(0.0464323 -0.102406 -1.09502e-19)
(0.0942081 -0.145935 5.08516e-20)
(0.146563 -0.176276 -1.03374e-21)
(0.202616 -0.195684 -2.55845e-20)
(0.259315 -0.206566 1.3201e-19)
(0.315362 -0.210757 -4.39726e-20)
(0.369542 -0.209875 1.87874e-20)
(0.421164 -0.20525 3.28445e-20)
(0.469781 -0.197989 -1.0547e-19)
(0.515182 -0.188986 -4.88215e-20)
(0.557314 -0.178952 -1.05248e-19)
(0.596235 -0.168431 -2.22856e-20)
(0.632081 -0.15783 3.72676e-20)
(0.665032 -0.147436 -4.61508e-20)
(0.695289 -0.137442 -4.18374e-20)
(0.723066 -0.127969 1.96567e-21)
(0.748572 -0.119081 2.71899e-20)
(0.771976 -0.110811 -7.06783e-20)
(0.793711 -0.10313 -2.19318e-20)
(0.0141584 -0.0446846 -4.65976e-20)
(0.0503731 -0.110392 8.37749e-20)
(0.0996626 -0.157391 4.74551e-20)
(0.153 -0.190197 -1.27707e-19)
(0.209607 -0.211227 4.58572e-21)
(0.266555 -0.223065 -1.08951e-19)
(0.322626 -0.227679 5.55458e-20)
(0.37667 -0.226808 -1.67914e-20)
(0.428048 -0.221883 -1.28594e-19)
(0.476352 -0.214097 1.06672e-19)
(0.521402 -0.204417 -3.40518e-20)
(0.563164 -0.193608 8.44989e-20)
(0.601714 -0.182262 -5.18202e-20)
(0.637197 -0.170818 4.45916e-20)
(0.6698 -0.159589 5.79883e-20)
(0.699729 -0.148785 1.89941e-20)
(0.727198 -0.138539 5.45085e-20)
(0.752417 -0.128921 -5.6179e-20)
(0.775549 -0.11997 1.45248e-19)
(0.797069 -0.111644 -5.93739e-20)
(0.0545933 -0.118156 -1.25165e-19)
(0.105508 -0.168547 -5.32284e-20)
(0.159901 -0.203775 1.00806e-19)
(0.217108 -0.226412 -2.92064e-21)
(0.274328 -0.239207 -1.37266e-20)
(0.330428 -0.244256 2.54334e-21)
(0.384331 -0.243417 9.51066e-20)
(0.435451 -0.238217 1.5185e-19)
(0.483423 -0.229933 -4.57747e-20)
(0.528097 -0.2196 -6.21899e-20)
(0.569464 -0.208041 -2.80082e-20)
(0.607617 -0.195891 8.32106e-20)
(0.642711 -0.183624 -3.03519e-20)
(0.674941 -0.171577 -4.3827e-20)
(0.704517 -0.159979 4.4272e-20)
(0.731656 -0.148973 1.07358e-20)
(0.756566 -0.138635 -4.26187e-20)
(0.779406 -0.129012 -1.00503e-19)
(0.800695 -0.120047 4.53757e-20)
(0.0590816 -0.125682 7.40106e-21)
(0.111728 -0.179383 8.27496e-20)
(0.16725 -0.216987 -1.14728e-19)
(0.225101 -0.241213 -2.13142e-20)
(0.282617 -0.254965 5.89144e-20)
(0.338753 -0.260465 -6.78849e-20)
(0.392511 -0.25968 -4.56144e-20)
(0.44336 -0.254232 -9.68473e-21)
(0.490981 -0.245477 1.56153e-20)
(0.535258 -0.234519 7.47275e-21)
(0.576206 -0.222236 -4.44559e-20)
(0.613935 -0.209306 -1.18525e-19)
(0.648615 -0.196236 -9.21759e-20)
(0.680447 -0.18339 8.5641e-20)
(0.709647 -0.171013 5.9901e-20)
(0.736434 -0.159259 -5.72556e-20)
(0.761016 -0.148214 9.08381e-20)
(0.783544 -0.137929 -1.71485e-21)
(0.804586 -0.12833 3.9515e-20)
(0.063826 -0.132957 4.70473e-20)
(0.118308 -0.189879 -4.25816e-20)
(0.17503 -0.22981 6.40861e-20)
(0.233569 -0.255605 4.66926e-20)
(0.291403 -0.270317 -3.94684e-20)
(0.347585 -0.276282 1.13737e-19)
(0.401194 -0.275574 -8.31171e-20)
(0.451761 -0.269905 4.64666e-20)
(0.499014 -0.26071 1.357e-21)
(0.542872 -0.249156 4.75482e-20)
(0.583378 -0.236175 5.08107e-20)
(0.620661 -0.22249 1.26957e-19)
(0.654902 -0.208641 7.63534e-20)
(0.686314 -0.195015 -1.08224e-19)
(0.715116 -0.181876 -2.64763e-20)
(0.741529 -0.16939 -2.41484e-20)
(0.765763 -0.157648 -6.58777e-20)
(0.787959 -0.146712 -2.10468e-20)
(0.80874 -0.136485 2.35767e-20)
(0.0688139 -0.139967 -6.36505e-20)
(0.12523 -0.200017 -3.56418e-20)
(0.183222 -0.242223 -6.69732e-22)
(0.242491 -0.269566 -1.15597e-19)
(0.300669 -0.285237 1.90622e-20)
(0.356905 -0.291683 -3.04379e-20)
(0.410364 -0.291077 -3.89616e-20)
(0.46064 -0.285216 4.22416e-21)
(0.507509 -0.275611 -6.3145e-20)
(0.550929 -0.263492 -2.64069e-22)
(0.590971 -0.249844 7.67028e-20)
(0.627784 -0.23543 2.82981e-20)
(0.661565 -0.220825 -6.82813e-20)
(0.692534 -0.20644 3.92983e-20)
(0.720915 -0.192557 -3.2184e-20)
(0.746935 -0.179354 -2.88168e-20)
(0.770801 -0.16693 8.13483e-20)
(0.792647 -0.155352 -2.40849e-20)
(0.813153 -0.144504 -1.52368e-19)
(0.0740319 -0.146698 -2.20316e-20)
(0.132479 -0.209779 1.3851e-20)
(0.191805 -0.254203 -2.54853e-21)
(0.251848 -0.283072 -8.19584e-21)
(0.310394 -0.299703 4.9322e-20)
(0.366695 -0.306646 1.45222e-20)
(0.420004 -0.306167 1.10524e-19)
(0.46998 -0.300146 -1.1159e-19)
(0.516452 -0.290164 1.78254e-20)
(0.559416 -0.277512 -1.68713e-20)
(0.598974 -0.263227 -1.85082e-20)
(0.635297 -0.248113 7.68957e-21)
(0.668595 -0.232777 1.05521e-19)
(0.699099 -0.217655 5.99229e-20)
(0.72704 -0.203047 -8.19686e-20)
(0.752646 -0.189143 1.13979e-19)
(0.776126 -0.17605 -2.017e-20)
(0.797605 -0.163844 1.24446e-19)
(0.817822 -0.152381 1.02439e-19)
(0.0794661 -0.153139 1.41372e-20)
(0.140033 -0.219146 5.88451e-20)
(0.20076 -0.265732 -2.13663e-20)
(0.261619 -0.296102 2.07105e-19)
(0.320558 -0.313693 -1.13419e-19)
(0.376936 -0.321149 -1.42016e-19)
(0.430095 -0.320823 -8.54478e-20)
(0.479765 -0.314674 -3.99007e-20)
(0.525827 -0.304349 -2.35681e-20)
(0.568321 -0.291199 3.33037e-20)
(0.607376 -0.276308 1.7128e-20)
(0.643188 -0.260524 -4.13208e-20)
(0.675983 -0.244484 -1.65461e-19)
(0.706002 -0.228649 -5.15193e-20)
(0.733483 -0.213336 1.1036e-19)
(0.758657 -0.198748 -2.57737e-20)
(0.781733 -0.185 -3.92896e-20)
(0.802828 -0.172178 -1.074e-19)
(0.822742 -0.160108 -1.67084e-20)
(0.0851021 -0.159277 7.08941e-20)
(0.147876 -0.228104 1.04743e-19)
(0.210064 -0.276788 -3.24873e-20)
(0.27178 -0.308635 -7.37535e-20)
(0.331138 -0.327186 -4.80347e-21)
(0.387605 -0.335171 1.42584e-19)
(0.440619 -0.335026 8.89924e-20)
(0.489978 -0.328781 1.36952e-19)
(0.53562 -0.318149 7.11585e-20)
(0.577628 -0.304536 -3.899e-20)
(0.616164 -0.289074 -8.11465e-20)
(0.651447 -0.272651 -1.46863e-19)
(0.68372 -0.255934 8.35804e-20)
(0.713235 -0.23941 -6.82897e-20)
(0.740237 -0.223414 5.48274e-20)
(0.764961 -0.20816 2.30963e-21)
(0.787617 -0.193773 3.11217e-20)
(0.808311 -0.180347 -9.53682e-21)
(0.827911 -0.167677 -3.81513e-20)
(0.0909249 -0.165101 -9.39579e-20)
(0.155987 -0.236636 -4.97352e-20)
(0.219695 -0.287356 3.08661e-20)
(0.28231 -0.320651 -7.2297e-20)
(0.342112 -0.34016 -2.52435e-20)
(0.398683 -0.348691 7.89685e-21)
(0.451555 -0.348756 -2.73472e-20)
(0.5006 -0.34245 -8.88587e-20)
(0.545815 -0.331547 3.58285e-20)
(0.587324 -0.317508 6.78552e-20)
(0.625326 -0.301511 9.13966e-20)
(0.660062 -0.28448 1.18567e-19)
(0.691795 -0.267116 -2.04675e-20)
(0.720789 -0.249929 -1.34171e-20)
(0.747295 -0.233272 -7.02367e-20)
(0.771552 -0.217372 -6.69164e-20)
(0.793772 -0.20236 9.18752e-20)
(0.81405 -0.188346 1.81433e-20)
(0.833323 -0.175082 -1.20115e-19)
(0.0969191 -0.170603 2.48974e-21)
(0.164344 -0.244729 -1.2058e-19)
(0.229631 -0.297417 1.63493e-19)
(0.293182 -0.332132 1.11727e-19)
(0.353456 -0.352597 8.99995e-20)
(0.410146 -0.361692 -4.62203e-20)
(0.462883 -0.361994 -4.09914e-20)
(0.511614 -0.355662 6.33305e-21)
(0.556394 -0.344527 -2.58542e-20)
(0.597394 -0.3301 -6.94085e-20)
(0.634847 -0.313603 -1.69058e-19)
(0.669022 -0.295999 -3.33575e-20)
(0.700199 -0.278019 3.95759e-20)
(0.728655 -0.260196 -9.33304e-21)
(0.754648 -0.242901 -5.10271e-20)
(0.778423 -0.226374 -7.68246e-20)
(0.800193 -0.210756 -7.70681e-20)
(0.820039 -0.196166 -4.5769e-20)
(0.838975 -0.182317 2.14059e-20)
(0.172928 -0.25237 1.88181e-19)
(0.239846 -0.306955 -1.48985e-19)
(0.304374 -0.34306 -3.76511e-20)
(0.365145 -0.364479 -1.52731e-19)
(0.42197 -0.374153 9.27683e-20)
(0.47458 -0.374722 5.00793e-20)
(0.522998 -0.368401 2.19539e-20)
(0.567339 -0.357073 9.03649e-21)
(0.607822 -0.342297 1.43206e-20)
(0.644715 -0.32534 1.68303e-19)
(0.678315 -0.307197 -1.3114e-20)
(0.708921 -0.288632 2.53679e-20)
(0.736823 -0.270201 9.52953e-21)
(0.762289 -0.252292 3.51742e-20)
(0.785567 -0.23516 1.27011e-19)
(0.806872 -0.218953 -3.24754e-20)
(0.826274 -0.203803 9.04407e-20)
(0.844862 -0.189375 5.58515e-21)
(0.181716 -0.259545 -1.97794e-19)
(0.250316 -0.315956 1.22862e-19)
(0.315858 -0.353419 3.417e-20)
(0.377154 -0.375788 1.70745e-19)
(0.434133 -0.386059 -1.79695e-19)
(0.486625 -0.386924 -1.44773e-20)
(0.534732 -0.38065 -2.07126e-20)
(0.578632 -0.369169 2.01632e-20)
(0.618591 -0.354086 6.11115e-20)
(0.654915 -0.336706 -1.80439e-19)
(0.687928 -0.318062 1.15902e-19)
(0.717949 -0.298944 -6.64742e-20)
(0.745284 -0.279934 -4.31036e-20)
(0.770208 -0.261438 3.32192e-20)
(0.792976 -0.243722 -1.75815e-20)
(0.813803 -0.226944 3.2919e-20)
(0.832749 -0.21125 -8.60824e-20)
(0.850979 -0.196251 2.31112e-20)
(0.190685 -0.266245 1.05641e-20)
(0.261016 -0.324406 -2.36236e-19)
(0.327609 -0.363194 3.71968e-20)
(0.389458 -0.386509 -7.7396e-20)
(0.446608 -0.397392 1.67492e-19)
(0.498994 -0.398583 -2.18056e-20)
(0.546796 -0.392394 2.97816e-20)
(0.590255 -0.380802 -5.67751e-20)
(0.629685 -0.365452 -7.06504e-20)
(0.665432 -0.347691 2.05465e-19)
(0.697847 -0.328582 -3.0097e-20)
(0.727272 -0.308947 -3.48984e-20)
(0.754027 -0.289388 5.8064e-20)
(0.778397 -0.270331 -1.94181e-20)
(0.800642 -0.252053 -1.17279e-19)
(0.82098 -0.234723 4.1596e-20)
(0.839457 -0.218501 8.37115e-20)
(0.85732 -0.20294 8.35157e-20)
(0.199815 -0.272458 8.56406e-20)
(0.27192 -0.332293 1.28593e-19)
(0.339599 -0.37237 -1.48331e-19)
(0.402028 -0.396625 -2.68521e-20)
(0.45937 -0.408137 5.30265e-20)
(0.511664 -0.409684 2.39407e-22)
(0.559167 -0.403618 -1.06982e-19)
(0.602186 -0.391956 -1.30986e-19)
(0.641086 -0.376384 1.03155e-19)
(0.676249 -0.358281 -5.86905e-20)
(0.708059 -0.338747 -2.56269e-20)
(0.736878 -0.318629 -8.81313e-21)
(0.763041 -0.298553 8.24936e-20)
(0.786846 -0.278962 1.12268e-19)
(0.808557 -0.260147 -2.1965e-20)
(0.828396 -0.242285 2.51209e-20)
(0.846393 -0.225552 -3.12809e-20)
(0.863881 -0.209437 -8.31531e-20)
(0.20908 -0.278177 -2.74872e-20)
(0.283001 -0.339605 -1.25633e-19)
(0.351801 -0.380934 1.34912e-19)
(0.414837 -0.406124 1.10271e-19)
(0.472392 -0.418281 -2.46385e-20)
(0.524609 -0.420213 4.83043e-20)
(0.571823 -0.414309 -1.24872e-20)
(0.614407 -0.40262 2.05178e-19)
(0.652775 -0.386868 -7.04306e-20)
(0.687352 -0.368467 -2.48303e-20)
(0.718549 -0.348547 -1.23302e-19)
(0.746753 -0.327982 5.06461e-20)
(0.772316 -0.307421 2.16604e-20)
(0.795545 -0.287325 -1.44248e-19)
(0.816712 -0.267998 1.61468e-19)
(0.836042 -0.249624 -1.37688e-20)
(0.853551 -0.232398 -3.58435e-20)
(0.870656 -0.215737 -9.09886e-20)
(0.218458 -0.283394 9.2786e-21)
(0.294233 -0.346333 2.06945e-19)
(0.364187 -0.388875 -7.76284e-20)
(0.427858 -0.414993 -4.3265e-20)
(0.485649 -0.427809 2.34533e-20)
(0.537804 -0.430157 -9.29334e-20)
(0.584741 -0.424452 9.65318e-20)
(0.626896 -0.41278 -2.01149e-19)
(0.664735 -0.396893 1.29647e-19)
(0.698722 -0.378237 1.72229e-19)
(0.729303 -0.357971 5.03049e-20)
(0.756886 -0.336996 -6.93864e-21)
(0.78184 -0.315984 -1.15161e-19)
(0.804484 -0.295413 1.31161e-19)
(0.825098 -0.275599 -8.15942e-20)
(0.843911 -0.256736 -2.99994e-21)
(0.860922 -0.239034 -3.10539e-20)
(0.877639 -0.221836 2.56067e-19)
(0.305588 -0.352468 -1.23935e-19)
(0.376727 -0.396184 7.36615e-20)
(0.441062 -0.423219 -7.08448e-20)
(0.499111 -0.436709 -5.6431e-20)
(0.551224 -0.439502 7.0514e-20)
(0.597897 -0.434037 5.45668e-20)
(0.639631 -0.422425 1.09715e-19)
(0.676945 -0.406447 -1.96974e-19)
(0.710344 -0.38758 -1.96475e-19)
(0.740305 -0.36701 7.62817e-20)
(0.767262 -0.345664 -6.53073e-20)
(0.7916 -0.324235 -4.39849e-20)
(0.813653 -0.303219 -6.69216e-20)
(0.833707 -0.282945 4.11593e-20)
(0.851995 -0.263615 -2.85962e-20)
(0.868502 -0.245458 -9.84807e-20)
(0.884823 -0.22773 5.26618e-21)
(0.317039 -0.358003 7.5137e-21)
(0.389394 -0.402849 -1.13176e-20)
(0.454419 -0.430794 2.71063e-20)
(0.512751 -0.444971 6.69922e-20)
(0.564842 -0.448238 -1.04252e-19)
(0.611266 -0.443051 -1.29703e-19)
(0.652591 -0.431543 -9.77578e-20)
(0.689386 -0.415521 1.58428e-19)
(0.7222 -0.396487 1.37879e-19)
(0.75154 -0.375656 2.38409e-20)
(0.777867 -0.353978 5.20276e-20)
(0.801586 -0.332166 6.18479e-20)
(0.823041 -0.310737 4.26551e-20)
(0.842528 -0.290031 -3.02168e-20)
(0.860285 -0.270257 -2.56425e-20)
(0.876283 -0.251666 1.75544e-19)
(0.892204 -0.233417 -1.7595e-20)
(0.328558 -0.362931 3.79654e-20)
(0.402156 -0.408865 7.67234e-20)
(0.4679 -0.437707 -1.9386e-20)
(0.526541 -0.452584 -9.15197e-20)
(0.578631 -0.456354 3.57823e-20)
(0.624824 -0.451484 9.27813e-20)
(0.665752 -0.440124 3.85695e-20)
(0.702038 -0.424103 -1.09668e-19)
(0.734271 -0.404949 3.53595e-20)
(0.762992 -0.383899 -6.67315e-21)
(0.788689 -0.361928 8.94918e-20)
(0.811784 -0.339772 -2.85552e-20)
(0.832636 -0.317961 -1.05749e-19)
(0.851552 -0.296851 -5.58262e-20)
(0.868774 -0.27666 1.02279e-19)
(0.884257 -0.257654 5.48576e-20)
(0.899773 -0.238893 -3.32928e-20)
(0.340116 -0.367248 1.89634e-20)
(0.414984 -0.414225 2.62029e-20)
(0.481475 -0.443952 4.54026e-20)
(0.54045 -0.45954 -5.0716e-20)
(0.592563 -0.463841 6.65235e-21)
(0.638546 -0.459327 4.82299e-20)
(0.679092 -0.448159 4.14355e-21)
(0.71488 -0.432186 -1.05738e-19)
(0.746539 -0.412956 -2.27788e-20)
(0.774645 -0.391732 -7.66553e-20)
(0.799711 -0.369509 -1.04362e-19)
(0.822181 -0.347044 3.96345e-20)
(0.842428 -0.324885 1.03509e-19)
(0.860769 -0.303402 2.44735e-20)
(0.877452 -0.282817 8.69449e-20)
(0.892418 -0.263421 -9.40502e-21)
(0.907527 -0.244156 -4.49416e-20)
(0.351686 -0.37095 -6.24201e-20)
(0.427849 -0.418923 -1.06141e-19)
(0.495114 -0.449521 -1.17727e-19)
(0.554451 -0.465831 2.87348e-20)
(0.606612 -0.470691 -5.01456e-20)
(0.652405 -0.46657 6.0964e-20)
(0.692588 -0.455639 4.52958e-20)
(0.727891 -0.43976 5.5702e-20)
(0.758985 -0.420502 -1.08887e-19)
(0.786482 -0.399147 3.22836e-20)
(0.81092 -0.376713 7.75185e-20)
(0.832765 -0.353976 -7.50957e-20)
(0.852405 -0.331504 7.85671e-20)
(0.870168 -0.309677 5.06574e-20)
(0.88631 -0.288727 -1.57071e-19)
(0.900759 -0.268963 -4.22701e-20)
(0.915458 -0.249203 6.4332e-20)
(0.44072 -0.422956 -3.03983e-20)
(0.508785 -0.45441 2.8523e-20)
(0.568512 -0.471451 3.13863e-20)
(0.620748 -0.476896 7.28666e-20)
(0.666375 -0.473206 1.22875e-20)
(0.706215 -0.462555 1.74631e-20)
(0.741048 -0.446818 -3.67503e-21)
(0.77159 -0.427577 4.08265e-20)
(0.798485 -0.406137 1.01916e-19)
(0.8223 -0.383533 -2.84004e-20)
(0.843522 -0.360564 7.49937e-20)
(0.862556 -0.337812 6.29791e-21)
(0.879741 -0.315672 -9.00024e-20)
(0.895341 -0.294385 2.22467e-20)
(0.909275 -0.274278 -1.07872e-20)
(0.923563 -0.254031 4.0023e-20)
(0.453567 -0.426322 3.60852e-20)
(0.522459 -0.458615 -2.87436e-20)
(0.582604 -0.476395 2.28817e-21)
(0.634943 -0.48245 1.04307e-19)
(0.68043 -0.479228 -4.88963e-20)
(0.719949 -0.468901 -2.94589e-20)
(0.754331 -0.453352 4.55861e-20)
(0.784334 -0.434176 3.09052e-20)
(0.810637 -0.412694 -1.65341e-19)
(0.833836 -0.389964 4.20708e-21)
(0.854439 -0.3668 -3.83611e-20)
(0.872868 -0.343804 -5.73696e-20)
(0.889476 -0.321384 3.42176e-20)
(0.904537 -0.299788 1.01989e-19)
(0.917961 -0.279363 -1.40301e-19)
(0.931836 -0.258635 -1.52555e-20)
(0.466358 -0.429019 3.7834e-20)
(0.536103 -0.462133 3.23504e-20)
(0.596697 -0.480659 3.9717e-20)
(0.649167 -0.487348 -4.23758e-20)
(0.694542 -0.48463 -6.01562e-20)
(0.733765 -0.474671 1.281e-20)
(0.767716 -0.459355 -2.61858e-21)
(0.797197 -0.440291 -8.01755e-20)
(0.822921 -0.418814 1.52082e-19)
(0.845512 -0.396 -3.29824e-20)
(0.865502 -0.372681 -6.14896e-20)
(0.883331 -0.349475 5.06429e-20)
(0.899365 -0.326806 -5.38161e-21)
(0.913889 -0.304931 -8.82162e-20)
(0.926814 -0.284215 1.2408e-19)
(0.940278 -0.263015 -1.0667e-19)
(0.479065 -0.431049 -2.60825e-20)
(0.549688 -0.464964 1.08099e-20)
(0.610759 -0.48424 -2.67645e-20)
(0.663393 -0.491586 -5.10127e-20)
(0.708685 -0.489408 1.02611e-19)
(0.747638 -0.479858 -8.16817e-20)
(0.781182 -0.464823 3.65158e-21)
(0.810158 -0.445918 5.72261e-20)
(0.835318 -0.424491 -1.4869e-19)
(0.857312 -0.401635 3.17259e-20)
(0.876697 -0.3782 7.91817e-21)
(0.893933 -0.35482 -4.36129e-20)
(0.909399 -0.331934 -4.06799e-20)
(0.923393 -0.309811 1.57678e-20)
(0.935836 -0.28883 -7.32598e-20)
(0.948888 -0.267162 -5.40639e-20)
(0.563182 -0.467107 -2.12854e-20)
(0.62476 -0.487136 -3.90685e-20)
(0.67759 -0.495162 2.02883e-20)
(0.722831 -0.493557 -9.70533e-21)
(0.761542 -0.484459 6.7967e-20)
(0.794704 -0.46975 1.16035e-20)
(0.823198 -0.45105 -2.64935e-20)
(0.847809 -0.429719 5.68993e-20)
(0.869221 -0.406865 -3.48538e-20)
(0.888011 -0.383353 -3.14141e-20)
(0.904662 -0.359836 -2.06031e-20)
(0.919569 -0.336764 1.3129e-20)
(0.933044 -0.314423 1.03258e-19)
(0.94503 -0.293196 6.89654e-20)
(0.957662 -0.271043 5.18838e-20)
(0.576555 -0.468566 3.2781e-20)
(0.638671 -0.48935 2.28484e-20)
(0.691729 -0.498073 -6.03501e-20)
(0.736951 -0.497074 -1.46213e-19)
(0.775453 -0.48847 1.31467e-20)
(0.808259 -0.474131 -1.57251e-20)
(0.836294 -0.455683 5.02092e-20)
(0.860377 -0.434494 2.41582e-20)
(0.88122 -0.411685 6.86269e-20)
(0.89943 -0.388137 4.46846e-20)
(0.915507 -0.364518 2.131e-20)
(0.929866 -0.341293 1.02039e-21)
(0.94284 -0.31876 2.75024e-21)
(0.954402 -0.297279 -1.36303e-19)
(0.966559 -0.274634 1.23443e-20)
(0.589775 -0.469341 -8.55699e-21)
(0.65246 -0.49088 -9.72517e-21)
(0.70578 -0.50032 1.79551e-20)
(0.751019 -0.499958 1.11067e-19)
(0.789343 -0.491886 -1.21956e-19)
(0.821824 -0.477964 -3.71139e-20)
(0.849425 -0.459814 6.0914e-20)
(0.873002 -0.438813 -7.42407e-20)
(0.893295 -0.416092 -6.34436e-20)
(0.910937 -0.392549 2.87767e-21)
(0.926456 -0.368865 7.89604e-22)
(0.940285 -0.34552 -7.59568e-21)
(0.952791 -0.322819 -7.70409e-20)
(0.964003 -0.301055 9.03657e-20)
(0.975554 -0.278134 1.07746e-19)
(0.666087 -0.49172 1.58504e-20)
(0.719707 -0.501896 5.13371e-20)
(0.765001 -0.502204 -2.95912e-20)
(0.803185 -0.494705 1.24682e-19)
(0.835373 -0.481244 5.11158e-20)
(0.862569 -0.463439 -1.37586e-19)
(0.885663 -0.442672 7.12348e-20)
(0.905426 -0.420084 5.63975e-20)
(0.92252 -0.396587 -7.20756e-21)
(0.937495 -0.372877 3.32208e-21)
(0.950816 -0.349449 -2.31909e-21)
(0.962904 -0.32661 -3.93852e-20)
(0.973966 -0.304615 1.51175e-20)
(0.985473 -0.282177 1.14551e-20)
(0.679521 -0.491876 -1.61268e-20)
(0.733481 -0.502805 -3.87982e-20)
(0.778869 -0.503812 2.65605e-20)
(0.816951 -0.496924 -9.71769e-20)
(0.848882 -0.483968 -5.42626e-20)
(0.875705 -0.466554 2.67155e-20)
(0.898342 -0.446067 -1.01625e-20)
(0.917598 -0.423657 2.84717e-21)
(0.93416 -0.400248 -2.20806e-20)
(0.94861 -0.376554 -2.57551e-20)
(0.96144 -0.353085 1.1965e-20)
(0.973125 -0.330171 1.23231e-19)
(0.984061 -0.308101 -1.11178e-20)
(0.995174 -0.286437 -1.20688e-19)
(0.692739 -0.491361 -6.62611e-21)
(0.747076 -0.503054 -1.46806e-20)
(0.792599 -0.504786 -1.22498e-20)
(0.830617 -0.498546 4.99295e-20)
(0.862328 -0.486136 4.68295e-20)
(0.888809 -0.469158 2.02333e-20)
(0.911019 -0.448996 -3.89348e-20)
(0.929791 -0.426808 -3.90752e-20)
(0.945842 -0.403531 1.25303e-19)
(0.959782 -0.379893 -7.68266e-21)
(0.972132 -0.356429 4.01201e-20)
(0.983404 -0.3335 -6.4535e-20)
(0.994119 -0.311426 -8.72332e-20)
(1.00466 -0.290396 -2.81832e-20)
(0.760464 -0.502649 1.68517e-20)
(0.806162 -0.50513 1.30608e-20)
(0.844158 -0.499571 4.14214e-20)
(0.875686 -0.487748 1.77351e-21)
(0.901861 -0.47125 -3.092e-20)
(0.923672 -0.451458 2.37268e-20)
(0.941985 -0.429536 -3.82543e-21)
(0.957546 -0.406433 -2.16594e-21)
(0.97099 -0.382894 3.87063e-20)
(0.982867 -0.359478 1.1925e-20)
(0.993706 -0.336583 -8.2439e-21)
(1.00409 -0.314537 4.98054e-20)
(1.01398 -0.293969 6.22934e-20)
(0.773616 -0.501595 8.81789e-21)
(0.819531 -0.504847 -4.25148e-20)
(0.857545 -0.500002 1.7682e-21)
(0.888931 -0.488805 5.86394e-21)
(0.914836 -0.472829 3.53305e-20)
(0.936281 -0.45345 3.78769e-20)
(0.954162 -0.431838 8.02423e-20)
(0.969252 -0.408953 -6.55077e-20)
(0.982215 -0.385556 -5.08756e-20)
(0.993623 -0.362229 5.08815e-21)
(1.00401 -0.339407 4.66629e-20)
(1.01397 -0.317413 -6.9351e-20)
(1.02315 -0.297193 -2.32026e-20)
(0.832676 -0.503942 -3.54606e-20)
(0.870753 -0.49984 7.94964e-22)
(0.902039 -0.489306 -1.81454e-20)
(0.927711 -0.473894 -1.06825e-20)
(0.948824 -0.454973 1.74709e-20)
(0.966301 -0.433715 -4.90158e-20)
(0.980943 -0.41109 5.64271e-20)
(0.993439 -0.387875 4.19411e-20)
(1.00438 -0.364676 -2.93257e-20)
(1.01429 -0.341962 -3.94745e-20)
(1.02376 -0.320043 -2.21455e-20)
(1.03222 -0.300088 1.22507e-20)
(0.84557 -0.502418 3.92746e-20)
(0.883755 -0.499089 -1.32149e-20)
(0.914983 -0.489254 -4.88655e-21)
(0.940464 -0.474447 4.48951e-20)
(0.96128 -0.456026 -8.37259e-21)
(0.978383 -0.435164 1.25612e-20)
(0.992599 -0.412842 -5.51852e-20)
(1.00464 -0.38985 -2.73739e-20)
(1.01511 -0.366816 -5.04075e-20)
(1.02453 -0.34424 -8.77651e-21)
(1.03347 -0.322413 5.33441e-21)
(1.04121 -0.302664 5.35132e-20)
(0.896523 -0.497753 -1.10578e-20)
(0.927739 -0.488652 -1.37078e-20)
(0.95307 -0.474487 -1.99746e-20)
(0.973626 -0.456608 -4.2768e-20)
(0.990386 -0.436185 4.09489e-21)
(1.0042 -0.414206 -2.77609e-20)
(1.0158 -0.391477 2.65944e-20)
(1.02581 -0.368644 1.05138e-20)
(1.03472 -0.346232 9.85519e-20)
(1.0431 -0.324513 -7.18242e-21)
(1.05012 -0.304933 -1.99941e-20)
(0.909032 -0.495837 -3.50108e-21)
(0.940282 -0.487502 2.96332e-20)
(0.965506 -0.474018 -3.0012e-20)
(0.985841 -0.456721 -1.44696e-20)
(1.00229 -0.436778 -2.60025e-21)
(1.01573 -0.415183 2.10029e-20)
(1.02691 -0.392754 1.15309e-20)
(1.03645 -0.370155 -2.21644e-20)
(1.04486 -0.347932 -8.20993e-20)
(1.05265 -0.326338 1.37426e-20)
(1.05898 -0.306902 1.50049e-20)
(0.952586 -0.485808 -6.35078e-21)
(0.977749 -0.473041 1.6959e-20)
(0.997902 -0.456364 4.0734e-20)
(1.01408 -0.436942 -2.76851e-20)
(1.02716 -0.41577 3.5483e-20)
(1.03793 -0.393679 -2.95367e-20)
(1.04702 -0.371346 2.61263e-20)
(1.05492 -0.349335 3.38096e-20)
(1.06213 -0.327882 3.14165e-20)
(1.06778 -0.308579 -4.13103e-20)
(0.964626 -0.483575 7.91624e-22)
(0.989774 -0.471559 -2.59697e-20)
(1.00979 -0.455541 -1.2671e-21)
(1.02572 -0.436677 -1.73428e-20)
(1.03849 -0.415967 -4.90139e-20)
(1.04887 -0.394249 1.95994e-20)
(1.05752 -0.372214 7.06144e-21)
(1.06491 -0.350439 -2.46645e-20)
(1.07153 -0.329144 -6.05209e-20)
(1.07653 -0.309971 6.04398e-20)
(1.00156 -0.469576 2.44166e-20)
(1.02148 -0.454252 1.39851e-20)
(1.03721 -0.435985 1.83641e-20)
(1.04968 -0.415774 7.21563e-21)