# Probe 0 (2 0 0)
# Probe 1 (3 -1.5 0)
# Probe 2 (3 1.5 0)
# Probe 3 (4 -2 0)
# Probe 4 (4 2 0)
#       Probe             0             1             2             3             4
#        Time
       0.0025             (0.950788 -0.00237921 -1.11455e-18)             (0.995883 0.0201407 1.81147e-19)             (0.995883 -0.0201407 -1.47778e-19)             (1.0008 0.00536391 0)             (1.0008 -0.00536391 0)
        0.005             (0.948733 -0.00230077 4.22855e-20)             (0.995267 0.0172802 3.6146e-20)             (0.995267 -0.0172802 -2.81402e-20)             (1.00026 0.00533088 0)             (1.00026 -0.00533088 0)
       0.0075             (0.948603 -0.00230849 1.60615e-21)             (0.995237 0.0168766 -9.19492e-22)             (0.995237 -0.0168766 7.69351e-22)             (1.00023 0.00538119 0)             (1.00023 -0.00538119 0)
         0.01             (0.948464 -0.00231675 8.12997e-22)             (0.995209 0.0166888 2.66849e-22)             (0.995209 -0.0166888 -1.88431e-22)             (1.00022 0.00543318 0)             (1.00022 -0.00543318 0)
       0.0125             (0.948326 -0.00232514 5.57352e-22)             (0.995181 0.0165877 6.09433e-22)             (0.995181 -0.0165877 -4.69099e-22)             (1.00022 0.00548492 0)             (1.00022 -0.00548492 0)
        0.015             (0.948191 -0.00233347 4.89644e-22)             (0.995155 0.0165309 7.22072e-22)             (0.995155 -0.0165309 -5.61494e-22)             (1.00021 0.00553555 0)             (1.00021 -0.00553555 0)
       0.0175             (0.948059 -0.00234169 4.94316e-22)             (0.995132 0.0165001 7.42551e-22)             (0.995132 -0.0165001 -5.78526e-22)             (1.00021 0.00558475 0)             (1.00021 -0.00558475 0)
         0.02             (0.947931 -0.00234978 5.25764e-22)             (0.995112 0.0164856 7.2167e-22)             (0.995112 -0.0164856 -5.61817e-22)             (1.00021 0.00563243 0)             (1.00021 -0.00563243 0)
       0.0225             (0.947806 -0.00235774 5.65903e-22)             (0.995095 0.016482 6.81561e-22)             (0.995095 -0.016482 -5.295e-22)             (1.00021 0.00567861 0)             (1.00021 -0.00567861 0)
        0.025             (0.947683 -0.00236559 6.06338e-22)             (0.99508 0.0164861 6.33041e-22)             (0.99508 -0.0164861 -4.90353e-22)             (1.00021 0.00572337 0)             (1.00021 -0.00572337 0)
       0.0275             (0.947562 -0.00237334 6.43764e-22)             (0.995068 0.0164957 5.81563e-22)             (0.995068 -0.0164957 -4.48879e-22)             (1.00021 0.00576679 0)             (1.00021 -0.00576679 0)
         0.03             (0.947443 -0.002381 6.76344e-22)             (0.995058 0.0165095 5.30222e-22)             (0.995058 -0.0165095 -4.07575e-22)             (1.00021 0.00580898 0)             (1.00021 -0.00580898 0)
       0.0325             (0.947325 -0.00238859 7.0378e-22)             (0.995049 0.0165265 4.80459e-22)             (0.995049 -0.0165265 -3.67577e-22)             (1.00022 0.00585001 0)             (1.00022 -0.00585001 0)
        0.035             (0.947208 -0.0023961 7.26373e-22)             (0.995042 0.0165461 4.331e-22)             (0.995042 -0.0165461 -3.29582e-22)             (1.00022 0.00588997 0)             (1.00022 -0.00588997 0)
       0.0375             (0.947093 -0.00240356 7.44866e-22)             (0.995036 0.0165678 3.8813e-22)             (0.995036 -0.0165678 -2.93568e-22)             (1.00022 0.00592894 0)             (1.00022 -0.00592894 0)
         0.04             (0.946978 -0.00241096 7.59596e-22)             (0.995032 0.0165912 3.46373e-22)             (0.995032 -0.0165912 -2.6016e-22)             (1.00022 0.005967 0)             (1.00022 -0.005967 0)
       0.0425             (0.946863 -0.00241831 7.71271e-22)             (0.995029 0.0166161 3.07292e-22)             (0.995029 -0.0166161 -2.28953e-22)             (1.00023 0.00600419 0)             (1.00023 -0.00600419 0)
        0.045             (0.94675 -0.00242562 7.80375e-22)             (0.995027 0.0166423 2.71013e-22)             (0.995027 -0.0166423 -2.00029e-22)             (1.00023 0.00604057 0)             (1.00023 -0.00604057 0)
       0.0475             (0.946636 -0.00243289 7.87286e-22)             (0.995026 0.0166697 2.37372e-22)             (0.995026 -0.0166697 -1.73251e-22)             (1.00023 0.00607621 0)             (1.00023 -0.00607621 0)
         0.05             (0.946523 -0.00244012 7.92843e-22)             (0.995026 0.0166979 2.0616e-22)             (0.995026 -0.0166979 -1.48446e-22)             (1.00024 0.00611115 0)             (1.00024 -0.00611115 0)
       0.0525             (0.94641 -0.00244733 7.96929e-22)             (0.995026 0.0167271 1.77264e-22)             (0.995026 -0.0167271 -1.25522e-22)             (1.00024 0.00614542 0)             (1.00024 -0.00614542 0)
        0.055             (0.946297 -0.0024545 8.00229e-22)             (0.995027 0.0167569 1.5049e-22)             (0.995027 -0.0167569 -1.04317e-22)             (1.00024 0.00617908 0)             (1.00024 -0.00617908 0)
       0.0575             (0.946184 -0.00246165 8.02805e-22)             (0.995029 0.0167875 1.25696e-22)             (0.995029 -0.0167875 -8.47169e-23)             (1.00025 0.00621214 0)             (1.00025 -0.00621214 0)
         0.06             (0.946072 -0.00246877 8.04949e-22)             (0.995031 0.0168186 1.02707e-22)             (0.995031 -0.0168186 -6.65745e-23)             (1.00025 0.00624468 0)             (1.00025 -0.00624468 0)
       0.0625             (0.945959 -0.00247587 8.07014e-22)             (0.995034 0.0168502 8.14166e-23)             (0.995034 -0.0168502 -4.98054e-23)             (1.00026 0.00627665 0)             (1.00026 -0.00627665 0)
        0.065             (0.945847 -0.00248295 8.08619e-22)             (0.995037 0.0168823 6.16857e-23)             (0.995037 -0.0168823 -3.42944e-23)             (1.00026 0.00630809 0)             (1.00026 -0.00630809 0)
       0.0675             (0.945734 -0.00249 8.10287e-22)             (0.995041 0.0169148 4.33629e-23)             (0.995041 -0.0169148 -1.99179e-23)             (1.00027 0.00633905 0)             (1.00027 -0.00633905 0)
         0.07             (0.945622 -0.00249704 8.11421e-22)             (0.995045 0.0169476 2.64186e-23)             (0.995045 -0.0169476 -6.65205e-24)             (1.00027 0.00636955 0)             (1.00027 -0.00636955 0)
       0.0725             (0.945509 -0.00250405 8.12708e-22)             (0.995049 0.0169808 1.06731e-23)             (0.995049 -0.0169808 5.65084e-24)             (1.00028 0.00639959 0)             (1.00028 -0.00639959 0)
        0.075             (0.945396 -0.00251105 8.14154e-22)             (0.995054 0.0170142 -3.96849e-24)             (0.995054 -0.0170142 1.70678e-23)             (1.00028 0.00642921 0)             (1.00028 -0.00642921 0)
       0.0775             (0.945284 -0.00251804 8.15648e-22)             (0.995058 0.0170479 -1.75935e-23)             (0.995058 -0.0170479 2.76698e-23)             (1.00028 0.00645842 0)             (1.00028 -0.00645842 0)
         0.08             (0.945171 -0.002525 8.17129e-22)             (0.995063 0.0170818 -3.02303e-23)             (0.995063 -0.0170818 3.74815e-23)             (1.00029 0.00648723 0)             (1.00029 -0.00648723 0)
       0.0825             (0.945059 -0.00253196 8.18246e-22)             (0.995069 0.0171159 -4.18874e-23)             (0.995069 -0.0171159 4.65098e-23)             (1.00029 0.00651564 0)             (1.00029 -0.00651564 0)
        0.085             (0.944946 -0.0025389 8.19912e-22)             (0.995074 0.0171502 -5.2818e-23)             (0.995074 -0.0171502 5.49555e-23)             (1.0003 0.00654368 0)             (1.0003 -0.00654368 0)
       0.0875             (0.944833 -0.00254582 8.21666e-22)             (0.995079 0.0171847 -6.29804e-23)             (0.995079 -0.0171847 6.27833e-23)             (1.0003 0.00657137 0)             (1.0003 -0.00657137 0)
         0.09             (0.944721 -0.00255273 8.23637e-22)             (0.995085 0.0172193 -7.24428e-23)             (0.995085 -0.0172193 7.0055e-23)             (1.00031 0.00659871 0)             (1.00031 -0.00659871 0)
       0.0925             (0.944608 -0.00255962 8.25663e-22)             (0.995091 0.0172539 -8.11624e-23)             (0.995091 -0.0172539 7.67634e-23)             (1.00031 0.00662572 0)             (1.00031 -0.00662572 0)
        0.095             (0.944495 -0.00256651 8.27748e-22)             (0.995096 0.0172887 -8.93346e-23)             (0.995096 -0.0172887 8.30124e-23)             (1.00032 0.00665241 0)             (1.00032 -0.00665241 0)
       0.0975             (0.944382 -0.00257338 8.2991e-22)             (0.995102 0.0173236 -9.69027e-23)             (0.995102 -0.0173236 8.87842e-23)             (1.00032 0.00667879 0)             (1.00032 -0.00667879 0)
          0.1             (0.944269 -0.00258024 8.32265e-22)             (0.995108 0.0173585 -1.03872e-22)             (0.995108 -0.0173585 9.40899e-23)             (1.00033 0.00670487 0)             (1.00033 -0.00670487 0)
       0.1025             (0.944156 -0.00258708 8.34658e-22)             (0.995114 0.0173935 -1.10342e-22)             (0.995114 -0.0173935 9.89984e-23)             (1.00033 0.00673067 0)             (1.00033 -0.00673067 0)
        0.105             (0.944043 -0.00259392 8.37176e-22)             (0.99512 0.0174286 -1.16404e-22)             (0.99512 -0.0174286 1.03579e-22)             (1.00034 0.00675619 0)             (1.00034 -0.00675619 0)
       0.1075             (0.94393 -0.00260074 8.39719e-22)             (0.995126 0.0174637 -1.22018e-22)             (0.995126 -0.0174637 1.07799e-22)             (1.00034 0.00678143 0)             (1.00034 -0.00678143 0)
         0.11             (0.943817 -0.00260756 8.42491e-22)             (0.995132 0.0174988 -1.27253e-22)             (0.995132 -0.0174988 1.11724e-22)             (1.00035 0.0068064 0)             (1.00035 -0.0068064 0)
       0.1125             (0.943704 -0.00261436 8.45092e-22)             (0.995138 0.017534 -1.32075e-22)             (0.995138 -0.017534 1.15322e-22)             (1.00035 0.00683112 0)             (1.00035 -0.00683112 0)
        0.115             (0.943591 -0.00262115 8.4783e-22)             (0.995144 0.0175692 -1.36552e-22)             (0.995144 -0.0175692 1.18649e-22)             (1.00036 0.00685559 0)             (1.00036 -0.00685559 0)
       0.1175             (0.943478 -0.00262794 8.50492e-22)             (0.99515 0.0176044 -1.40684e-22)             (0.99515 -0.0176044 1.21703e-22)             (1.00036 0.00687981 0)             (1.00036 -0.00687981 0)
         0.12             (0.943364 -0.00263472 8.5328e-22)             (0.995156 0.0176396 -1.44526e-22)             (0.995156 -0.0176396 1.24517e-22)             (1.00037 0.0069038 0)             (1.00037 -0.0069038 0)
       0.1225             (0.943251 -0.00264148 8.56336e-22)             (0.995162 0.0176748 -1.48075e-22)             (0.995162 -0.0176748 1.27124e-22)             (1.00037 0.00692757 0)             (1.00037 -0.00692757 0)
        0.125             (0.943138 -0.00264824 8.59323e-22)             (0.995168 0.0177101 -1.51332e-22)             (0.995168 -0.0177101 1.2949e-22)             (1.00038 0.00695111 0)             (1.00038 -0.00695111 0)
       0.1275             (0.943025 -0.00265499 8.62284e-22)             (0.995174 0.0177453 -1.54209e-22)             (0.995174 -0.0177453 1.31576e-22)             (1.00038 0.00697444 0)             (1.00038 -0.00697444 0)
         0.13             (0.942911 -0.00266174 8.65445e-22)             (0.99518 0.0177805 -1.56876e-22)             (0.99518 -0.0177805 1.33508e-22)             (1.00039 0.00699757 0)             (1.00039 -0.00699757 0)
       0.1325             (0.942798 -0.00266847 8.68701e-22)             (0.995186 0.0178157 -1.5941e-22)             (0.995186 -0.0178157 1.35315e-22)             (1.00039 0.00702049 0)             (1.00039 -0.00702049 0)
        0.135             (0.942684 -0.0026752 8.71946e-22)             (0.995192 0.0178508 -1.61727e-22)             (0.995192 -0.0178508 1.36952e-22)             (1.0004 0.00704322 0)             (1.0004 -0.00704322 0)
       0.1375             (0.942571 -0.00268192 8.7525e-22)             (0.995198 0.017886 -1.63838e-22)             (0.995198 -0.017886 1.38428e-22)             (1.0004 0.00706576 0)             (1.0004 -0.00706576 0)
         0.14             (0.942457 -0.00268864 8.78576e-22)             (0.995203 0.0179211 -1.65746e-22)             (0.995203 -0.0179211 1.39744e-22)             (1.00041 0.00708811 0)             (1.00041 -0.00708811 0)
       0.1425             (0.942344 -0.00269535 8.81736e-22)             (0.995209 0.0179562 -1.67444e-22)             (0.995209 -0.0179562 1.40896e-22)             (1.00041 0.00711028 0)             (1.00041 -0.00711028 0)
        0.145             (0.94223 -0.00270205 8.85195e-22)             (0.995215 0.0179913 -1.69003e-22)             (0.995215 -0.0179913 1.41939e-22)             (1.00042 0.00713228 0)             (1.00042 -0.00713228 0)
       0.1475             (0.942117 -0.00270875 8.88416e-22)             (0.995221 0.0180264 -1.70359e-22)             (0.995221 -0.0180264 1.42822e-22)             (1.00042 0.0071541 0)             (1.00042 -0.0071541 0)
         0.15             (0.942003 -0.00271544 8.91727e-22)             (0.995226 0.0180614 -1.71564e-22)             (0.995226 -0.0180614 1.43588e-22)             (1.00043 0.00717576 0)             (1.00043 -0.00717576 0)
       0.1525             (0.941889 -0.00272213 8.95257e-22)             (0.995232 0.0180964 -1.72642e-22)             (0.995232 -0.0180964 1.44257e-22)             (1.00043 0.00719725 0)             (1.00043 -0.00719725 0)
        0.155             (0.941776 -0.00272881 8.98927e-22)             (0.995237 0.0181315 -1.73603e-22)             (0.995237 -0.0181315 1.44834e-22)             (1.00044 0.00721858 0)             (1.00044 -0.00721858 0)
       0.1575             (0.941662 -0.00273549 9.02181e-22)             (0.995243 0.0181665 -1.74375e-22)             (0.995243 -0.0181665 1.45261e-22)             (1.00044 0.00723976 0)             (1.00044 -0.00723976 0)
         0.16             (0.941548 -0.00274217 9.05582e-22)             (0.995248 0.0182015 -1.75037e-22)             (0.995248 -0.0182015 1.45603e-22)             (1.00045 0.00726079 0)             (1.00045 -0.00726079 0)
       0.1625             (0.941434 -0.00274884 9.0888e-22)             (0.995253 0.0182364 -1.75565e-22)             (0.995253 -0.0182364 1.45841e-22)             (1.00045 0.00728167 0)             (1.00045 -0.00728167 0)
        0.165             (0.94132 -0.00275551 9.12092e-22)             (0.995258 0.0182714 -1.75977e-22)             (0.995258 -0.0182714 1.45987e-22)             (1.00046 0.00730241 0)             (1.00046 -0.00730241 0)
       0.1675             (0.941207 -0.00276217 9.15303e-22)             (0.995264 0.0183064 -1.7628e-22)             (0.995264 -0.0183064 1.46048e-22)             (1.00046 0.00732301 0)             (1.00046 -0.00732301 0)
         0.17             (0.941093 -0.00276884 9.18681e-22)             (0.995269 0.0183414 -1.76427e-22)             (0.995269 -0.0183414 1.45997e-22)             (1.00047 0.00734348 0)             (1.00047 -0.00734348 0)
       0.1725             (0.940979 -0.0027755 9.22224e-22)             (0.995274 0.0183763 -1.76496e-22)             (0.995274 -0.0183763 1.45888e-22)             (1.00047 0.00736381 0)             (1.00047 -0.00736381 0)
        0.175             (0.940864 -0.00278216 9.25727e-22)             (0.995278 0.0184113 -1.76552e-22)             (0.995278 -0.0184113 1.45764e-22)             (1.00047 0.00738401 0)             (1.00047 -0.00738401 0)
       0.1775             (0.94075 -0.00278881 9.29201e-22)             (0.995283 0.0184463 -1.76525e-22)             (0.995283 -0.0184463 1.45578e-22)             (1.00048 0.00740409 0)             (1.00048 -0.00740409 0)
         0.18             (0.940636 -0.00279547 9.32284e-22)             (0.995288 0.0184812 -1.76369e-22)             (0.995288 -0.0184812 1.4529e-22)             (1.00048 0.00742404 0)             (1.00048 -0.00742404 0)
       0.1825             (0.940522 -0.00280213 9.35632e-22)             (0.995293 0.0185162 -1.76176e-22)             (0.995293 -0.0185162 1.44978e-22)             (1.00049 0.00744388 0)             (1.00049 -0.00744388 0)
        0.185             (0.940408 -0.00280878 9.3898e-22)             (0.995297 0.0185512 -1.75921e-22)             (0.995297 -0.0185512 1.44618e-22)             (1.00049 0.00746359 0)             (1.00049 -0.00746359 0)
       0.1875             (0.940293 -0.00281544 9.42327e-22)             (0.995302 0.0185861 -1.75604e-22)             (0.995302 -0.0185861 1.44213e-22)             (1.0005 0.00748319 0)             (1.0005 -0.00748319 0)
         0.19             (0.940179 -0.00282209 9.45638e-22)             (0.995307 0.0186211 -1.75223e-22)             (0.995307 -0.0186211 1.4376e-22)             (1.0005 0.00750268 0)             (1.0005 -0.00750268 0)
       0.1925             (0.940065 -0.00282875 9.48937e-22)             (0.995311 0.0186561 -1.74788e-22)             (0.995311 -0.0186561 1.43267e-22)             (1.00051 0.00752206 0)             (1.00051 -0.00752206 0)
        0.195             (0.93995 -0.0028354 9.52222e-22)             (0.995315 0.0186911 -1.74304e-22)             (0.995315 -0.0186911 1.42736e-22)             (1.00051 0.00754134 0)             (1.00051 -0.00754134 0)
       0.1975             (0.939835 -0.00284206 9.55493e-22)             (0.99532 0.018726 -1.73778e-22)             (0.99532 -0.018726 1.42174e-22)             (1.00052 0.0075605 0)             (1.00052 -0.00756051 0)
          0.2             (0.939721 -0.00284871 9.58726e-22)             (0.995324 0.018761 -1.73218e-22)             (0.995324 -0.018761 1.41581e-22)             (1.00052 0.00757957 0)             (1.00052 -0.00757957 0)
       0.2025             (0.939606 -0.00285537 9.6204e-22)             (0.995328 0.018796 -1.72568e-22)             (0.995328 -0.018796 1.40941e-22)             (1.00053 0.00759854 0)             (1.00053 -0.00759854 0)
        0.205             (0.939491 -0.00286203 9.65502e-22)             (0.995332 0.018831 -1.71869e-22)             (0.995332 -0.018831 1.40275e-22)             (1.00053 0.00761741 0)             (1.00053 -0.00761741 0)
       0.2075             (0.939376 -0.00286869 9.68431e-22)             (0.995336 0.0188659 -1.71124e-22)             (0.995336 -0.0188659 1.39553e-22)             (1.00054 0.00763619 0)             (1.00054 -0.00763619 0)
         0.21             (0.939261 -0.00287536 9.71642e-22)             (0.99534 0.0189009 -1.70395e-22)             (0.99534 -0.0189009 1.38846e-22)             (1.00054 0.00765488 0)             (1.00054 -0.00765488 0)
       0.2125             (0.939146 -0.00288202 9.74863e-22)             (0.995344 0.0189359 -1.69648e-22)             (0.995344 -0.0189359 1.38125e-22)             (1.00054 0.00767347 0)             (1.00054 -0.00767347 0)
        0.215             (0.939031 -0.00288869 9.78149e-22)             (0.995348 0.0189708 -1.68896e-22)             (0.995348 -0.0189708 1.37401e-22)             (1.00055 0.00769198 0)             (1.00055 -0.00769198 0)
       0.2175             (0.938916 -0.00289536 9.81347e-22)             (0.995351 0.0190058 -1.67998e-22)             (0.995351 -0.0190058 1.36582e-22)             (1.00055 0.0077104 0)             (1.00055 -0.0077104 0)
         0.22             (0.938801 -0.00290204 9.84638e-22)             (0.995355 0.0190408 -1.67088e-22)             (0.995355 -0.0190408 1.35756e-22)             (1.00056 0.00772874 0)             (1.00056 -0.00772874 0)
       0.2225             (0.938685 -0.00290872 9.87426e-22)             (0.995359 0.0190757 -1.66174e-22)             (0.995359 -0.0190757 1.34913e-22)             (1.00056 0.00774699 0)             (1.00056 -0.00774699 0)
        0.225             (0.93857 -0.0029154 9.90364e-22)             (0.995362 0.0191107 -1.6528e-22)             (0.995362 -0.0191107 1.34088e-22)             (1.00057 0.00776516 0)             (1.00057 -0.00776517 0)
       0.2275             (0.938454 -0.00292209 9.93515e-22)             (0.995366 0.0191457 -1.64327e-22)             (0.995366 -0.0191457 1.33226e-22)             (1.00057 0.00778326 0)             (1.00057 -0.00778326 0)
         0.23             (0.938339 -0.00292878 9.96239e-22)             (0.995369 0.0191806 -1.63273e-22)             (0.995369 -0.0191806 1.32285e-22)             (1.00058 0.00780128 0)             (1.00058 -0.00780128 0)
       0.2325             (0.938223 -0.00293548 9.98975e-22)             (0.995373 0.0192156 -1.6227e-22)             (0.995373 -0.0192156 1.31382e-22)             (1.00058 0.00781923 0)             (1.00058 -0.00781923 0)
        0.235             (0.938107 -0.00294218 1.00188e-21)             (0.995376 0.0192506 -1.61279e-22)             (0.995376 -0.0192506 1.30492e-22)             (1.00058 0.0078371 0)             (1.00058 -0.0078371 0)
       0.2375             (0.937991 -0.00294889 1.0048e-21)             (0.995379 0.0192856 -1.60276e-22)             (0.995379 -0.0192856 1.29594e-22)             (1.00059 0.0078549 0)             (1.00059 -0.0078549 0)
         0.24             (0.937875 -0.00295561 1.00782e-21)             (0.995382 0.0193205 -1.59277e-22)             (0.995382 -0.0193205 1.28701e-22)             (1.00059 0.00787263 0)             (1.00059 -0.00787263 0)
       0.2425             (0.937759 -0.00296233 1.01058e-21)             (0.995386 0.0193555 -1.58225e-22)             (0.995386 -0.0193555 1.27767e-22)             (1.0006 0.00789029 0)             (1.0006 -0.00789029 0)
        0.245             (0.937642 -0.00296905 1.01351e-21)             (0.995389 0.0193905 -1.57191e-22)             (0.995389 -0.0193905 1.2685e-22)             (1.0006 0.00790788 0)             (1.0006 -0.00790788 0)
       0.2475             (0.937526 -0.00297578 1.01622e-21)             (0.995392 0.0194255 -1.56114e-22)             (0.995392 -0.0194255 1.25899e-22)             (1.00061 0.0079254 0)             (1.00061 -0.0079254 0)
         0.25             (0.937409 -0.00298252 1.019e-21)             (0.995395 0.0194604 -1.55041e-22)             (0.995395 -0.0194604 1.24953e-22)             (1.00061 0.00794286 0)             (1.00061 -0.00794286 0)
       0.2525             (0.937292 -0.00298927 1.02159e-21)             (0.995398 0.0194954 -1.53934e-22)             (0.995398 -0.0194954 1.23978e-22)             (1.00061 0.00796024 0)             (1.00061 -0.00796024 0)
        0.255             (0.937176 -0.00299602 1.02473e-21)             (0.995401 0.0195304 -1.52908e-22)             (0.995401 -0.0195304 1.23072e-22)             (1.00062 0.00797757 0)             (1.00062 -0.00797757 0)
       0.2575             (0.937059 -0.00300279 1.0276e-21)             (0.995403 0.0195654 -1.51795e-22)             (0.995403 -0.0195654 1.22122e-22)             (1.00062 0.00799486 0)             (1.00062 -0.00799486 0)
         0.26             (0.936942 -0.00300955 1.03036e-21)             (0.995406 0.0196003 -1.50662e-22)             (0.995406 -0.0196003 1.21145e-22)             (1.00063 0.0080121 0)             (1.00063 -0.0080121 0)
       0.2625             (0.936824 -0.00301633 1.0331e-21)             (0.995409 0.0196353 -1.49554e-22)             (0.995409 -0.0196353 1.20181e-22)             (1.00063 0.00802927 0)             (1.00063 -0.00802927 0)
        0.265             (0.936707 -0.00302311 1.03584e-21)             (0.995412 0.0196702 -1.48435e-22)             (0.995412 -0.0196702 1.1921e-22)             (1.00064 0.00804639 0)             (1.00064 -0.00804639 0)
       0.2675             (0.93659 -0.00302991 1.03867e-21)             (0.995414 0.0197052 -1.47325e-22)             (0.995414 -0.0197052 1.18248e-22)             (1.00064 0.00806345 0)             (1.00064 -0.00806345 0)
         0.27             (0.936472 -0.00303671 1.0411e-21)             (0.995417 0.0197401 -1.46154e-22)             (0.995417 -0.0197401 1.17237e-22)             (1.00064 0.00808046 0)             (1.00064 -0.00808046 0)
       0.2725             (0.936354 -0.00304352 1.04363e-21)             (0.995419 0.0197751 -1.44998e-22)             (0.995419 -0.0197751 1.16239e-22)             (1.00065 0.00809742 0)             (1.00065 -0.00809742 0)
        0.275             (0.936236 -0.00305034 1.04625e-21)             (0.995422 0.01981 -1.43845e-22)             (0.995422 -0.01981 1.15246e-22)             (1.00065 0.00811432 0)             (1.00065 -0.00811432 0)
       0.2775             (0.936118 -0.00305717 1.04888e-21)             (0.995424 0.019845 -1.4265e-22)             (0.995424 -0.019845 1.14223e-22)             (1.00066 0.00813117 0)             (1.00066 -0.00813117 0)
         0.28             (0.936 -0.003064 1.05148e-21)             (0.995427 0.0198799 -1.41458e-22)             (0.995427 -0.0198799 1.13204e-22)             (1.00066 0.00814797 0)             (1.00066 -0.00814797 0)
       0.2825             (0.935882 -0.00307085 1.05414e-21)             (0.995429 0.0199149 -1.40312e-22)             (0.995429 -0.0199149 1.12218e-22)             (1.00066 0.00816472 0)             (1.00066 -0.00816472 0)
        0.285             (0.935763 -0.00307771 1.05659e-21)             (0.995431 0.0199499 -1.3914e-22)             (0.995431 -0.0199499 1.11207e-22)             (1.00067 0.00818142 0)             (1.00067 -0.00818142 0)
       0.2875             (0.935644 -0.00308457 1.05924e-21)             (0.995434 0.0199848 -1.3798e-22)             (0.995434 -0.0199848 1.10222e-22)             (1.00067 0.00819807 0)             (1.00067 -0.00819807 0)
         0.29             (0.935526 -0.00309145 1.06181e-21)             (0.995436 0.0200198 -1.36807e-22)             (0.995436 -0.0200198 1.09235e-22)             (1.00068 0.0082147 0)             (1.00068 -0.0082147 0)
       0.2925             (0.935407 -0.00309834 1.06438e-21)             (0.995438 0.0200547 -1.3565e-22)             (0.995438 -0.0200547 1.08247e-22)             (1.00068 0.00823128 0)             (1.00068 -0.00823128 0)
        0.295             (0.935287 -0.00310523 1.06684e-21)             (0.99544 0.0200897 -1.34491e-22)             (0.99544 -0.0200897 1.07255e-22)             (1.00068 0.00824782 0)             (1.00068 -0.00824782 0)
       0.2975             (0.935168 -0.00311214 1.06936e-21)             (0.995442 0.0201246 -1.33299e-22)             (0.995442 -0.0201246 1.06244e-22)             (1.00069 0.00826432 0)             (1.00069 -0.00826432 0)
          0.3             (0.935049 -0.00311906 1.0719e-21)             (0.995444 0.0201596 -1.32039e-22)             (0.995444 -0.0201596 1.05189e-22)             (1.00069 0.00828078 0)             (1.00069 -0.00828078 0)
       0.3025             (0.934929 -0.00312599 1.07426e-21)             (0.995446 0.0201946 -1.30828e-22)             (0.995446 -0.0201946 1.04164e-22)             (1.0007 0.0082972 0)             (1.0007 -0.0082972 0)
        0.305             (0.934809 -0.00313294 1.0766e-21)             (0.995448 0.0202295 -1.29641e-22)             (0.995448 -0.0202295 1.03155e-22)             (1.0007 0.00831358 0)             (1.0007 -0.00831358 0)
       0.3075             (0.934689 -0.00313989 1.07928e-21)             (0.99545 0.0202645 -1.28515e-22)             (0.99545 -0.0202645 1.02195e-22)             (1.0007 0.00832992 0)             (1.0007 -0.00832992 0)
         0.31             (0.934569 -0.00314685 1.08175e-21)             (0.995452 0.0202995 -1.27373e-22)             (0.995452 -0.0202995 1.01219e-22)             (1.00071 0.00834623 0)             (1.00071 -0.00834623 0)
       0.3125             (0.934449 -0.00315383 1.08413e-21)             (0.995454 0.0203345 -1.26143e-22)             (0.995454 -0.0203345 1.00196e-22)             (1.00071 0.00836249 0)             (1.00071 -0.00836249 0)
        0.315             (0.934328 -0.00316082 1.08638e-21)             (0.995456 0.0203695 -1.24875e-22)             (0.995456 -0.0203695 9.91409e-23)             (1.00072 0.00837873 0)             (1.00072 -0.00837873 0)
       0.3175             (0.934208 -0.00316782 1.0888e-21)             (0.995458 0.0204044 -1.23667e-22)             (0.995458 -0.0204044 9.81265e-23)             (1.00072 0.00839492 0)             (1.00072 -0.00839492 0)
         0.32             (0.934087 -0.00317483 1.09119e-21)             (0.995459 0.0204394 -1.22491e-22)             (0.995459 -0.0204394 9.71318e-23)             (1.00072 0.00841109 0)             (1.00072 -0.00841109 0)
       0.3225             (0.933966 -0.00318186 1.09363e-21)             (0.995461 0.0204744 -1.21332e-22)             (0.995461 -0.0204744 9.61535e-23)             (1.00073 0.00842722 0)             (1.00073 -0.00842722 0)
        0.325             (0.933845 -0.0031889 1.09601e-21)             (0.995463 0.0205095 -1.20169e-22)             (0.995463 -0.0205095 9.51719e-23)             (1.00073 0.00844332 0)             (1.00073 -0.00844332 0)
       0.3275             (0.933723 -0.00319595 1.09807e-21)             (0.995464 0.0205445 -1.18957e-22)             (0.995464 -0.0205445 9.41508e-23)             (1.00074 0.00845938 0)             (1.00074 -0.00845938 0)
         0.33             (0.933602 -0.00320302 1.10039e-21)             (0.995466 0.0205795 -1.17787e-22)             (0.995466 -0.0205795 9.31664e-23)             (1.00074 0.00847542 0)             (1.00074 -0.00847542 0)
       0.3325             (0.93348 -0.0032101 1.10271e-21)             (0.995467 0.0206145 -1.16623e-22)             (0.995467 -0.0206145 9.21861e-23)             (1.00074 0.00849143 0)             (1.00074 -0.00849143 0)