/*--------------------------------*- C++ -*----------------------------------*\
  =========                 |
  \\      /  F ield         | OpenFOAM: The Open Source CFD Toolbox
   \\    /   O peration     | Website:  https://openfoam.org
    \\  /    A nd           | Version:  7
     \\/     M anipulation  |
\*---------------------------------------------------------------------------*/
FoamFile
{
    version     2.0;
    format      ascii;
    class       volVectorField;
    location    "15";
    object      U;
}
// * * * * * * * * * * * * * * * * * * * * * * * * * * * * * * * * * * * * * //

dimensions      [0 1 -1 0 0 0 0];

internalField   nonuniform List<vector> 
2625
(
(1.06762 -0.0604868 -2.68821e-20)
(1.07151 -0.0601776 1.50739e-20)
(1.07547 -0.0598049 9.19826e-20)
(1.0795 -0.0593716 -3.26778e-21)
(1.0836 -0.0588813 -7.43977e-21)
(1.08776 -0.0583374 3.61972e-20)
(1.09198 -0.0577436 -7.96534e-21)
(1.09625 -0.057104 -5.62473e-20)
(1.10058 -0.0564227 1.25875e-20)
(1.11005 -0.072855 -2.18313e-20)
(1.10495 -0.055704 6.07915e-20)
(1.11448 -0.0722726 3.84358e-20)
(1.10937 -0.0549525 -8.80938e-21)
(1.11895 -0.0716584 -7.34122e-21)
(1.11383 -0.0541727 -4.45115e-20)
(1.11832 -0.0533694 7.51051e-22)
(1.00001 -1.1285e-05 0)
(1.00014 -3.38792e-05 0)
(1.00044 -5.56701e-05 0)
(1.00085 -7.73549e-05 0)
(1.00139 -9.87396e-05 0)
(1.00204 -0.000120012 0)
(1.00279 -0.000141215 0)
(1.00365 -0.000162418 0)
(1.00461 -0.000183667 0)
(1.00566 -0.000204998 0)
(1.0068 -0.000226439 0)
(1.00802 -0.000248005 0)
(1.00932 -0.000269704 0)
(1.0107 -0.000291536 0)
(1.01215 -0.000313491 0)
(1.01367 -0.000335555 0)
(1.01525 -0.000357706 0)
(1.0169 -0.000379918 0)
(1.0186 -0.000402161 0)
(1.02036 -0.000424397 0)
(1.02217 -0.000446584 0)
(1.02402 -0.000468671 0)
(1.02592 -0.00049059 0)
(1.02786 -0.000512246 0)
(1.02983 -0.000533487 0)
(1.03184 -0.00055406 0)
(1.03387 -0.000573519 0)
(1.03592 -0.000591063 0)
(1.03797 -0.000605219 0)
(1.04002 -0.00061316 0)
(1.00001 -3.38002e-05 0)
(1.00014 -0.000101138 0)
(1.00044 -0.000166378 0)
(1.00085 -0.000231126 0)
(1.00139 -0.000295031 0)
(1.00204 -0.000358587 0)
(1.00279 -0.000421941 0)
(1.00365 -0.000485293 0)
(1.00461 -0.000548782 0)
(1.00566 -0.00061252 0)
(1.0068 -0.000676585 0)
(1.00802 -0.000741025 0)
(1.00932 -0.000805865 0)
(1.01069 -0.0008711 0)
(1.01214 -0.000936706 0)
(1.01366 -0.00100264 0)
(1.01524 -0.00106883 0)
(1.01689 -0.00113521 0)
(1.01859 -0.00120168 0)
(1.02035 -0.00126813 0)
(1.02216 -0.00133444 0)
(1.02401 -0.00140044 0)
(1.02591 -0.00146595 0)
(1.02785 -0.00153067 0)
(1.02982 -0.00159416 0)
(1.03183 -0.00165565 0)
(1.03386 -0.00171381 0)
(1.0359 -0.00176628 0)
(1.03796 -0.00180873 0)
(1.04001 -0.00183314 0)
(1.00001 -5.61257e-05 0)
(1.00014 -0.000167454 0)
(1.00044 -0.000275758 0)
(1.00085 -0.000382984 0)
(1.00138 -0.000488896 0)
(1.00203 -0.00059421 0)
(1.00279 -0.000699194 0)
(1.00365 -0.000804176 0)
(1.00461 -0.000909388 0)
(1.00565 -0.00101501 0)
(1.00679 -0.00112118 0)
(1.00801 -0.00122798 0)
(1.00931 -0.00133544 0)
(1.01068 -0.00144356 0)
(1.01213 -0.0015523 0)
(1.01365 -0.00166158 0)
(1.01523 -0.0017713 0)
(1.01687 -0.00188133 0)
(1.01858 -0.00199151 0)
(1.02033 -0.00210167 0)
(1.02214 -0.00221159 0)
(1.02399 -0.00232102 0)
(1.02589 -0.00242962 0)
(1.02783 -0.00253692 0)
(1.0298 -0.00264218 0)
(1.03181 -0.00274414 0)
(1.03383 -0.00284062 0)
(1.03588 -0.0029277 0)
(1.03794 -0.00299836 0)
(1.03999 -0.00303976 0)
(1.00001 -7.8167e-05 0)
(1.00014 -0.000232892 0)
(1.00043 -0.000383728 0)
(1.00085 -0.000532875 0)
(1.00138 -0.000680258 0)
(1.00203 -0.000826792 0)
(1.00279 -0.000972874 0)
(1.00364 -0.00111896 0)
(1.0046 -0.00126536 0)
(1.00565 -0.00141235 0)
(1.00678 -0.0015601 0)
(1.008 -0.00170873 0)
(1.0093 -0.00185829 0)
(1.01067 -0.00200877 0)
(1.01212 -0.00216012 0)
(1.01363 -0.00231223 0)
(1.01521 -0.00246497 0)
(1.01685 -0.00261814 0)
(1.01855 -0.00277153 0)
(1.02031 -0.00292489 0)
(1.02211 -0.00307793 0)
(1.02397 -0.0032303 0)
(1.02586 -0.00338152 0)
(1.0278 -0.00353094 0)
(1.02977 -0.00367752 0)
(1.03177 -0.00381953 0)
(1.0338 -0.00395393 0)
(1.03585 -0.00407533 0)
(1.0379 -0.0041741 0)
(1.03995 -0.00423274 0)
(1.00001 -9.9907e-05 0)
(1.00014 -0.000297458 0)
(1.00043 -0.000490252 0)
(1.00085 -0.000680762 0)
(1.00138 -0.000869063 0)
(1.00203 -0.00105627 0)
(1.00278 -0.00124291 0)
(1.00364 -0.00142955 0)
(1.00459 -0.00161662 0)
(1.00563 -0.00180444 0)
(1.00677 -0.00199324 0)
(1.00798 -0.00218317 0)
(1.00928 -0.0023743 0)
(1.01065 -0.00256662 0)
(1.0121 -0.00276006 0)
(1.01361 -0.00295449 0)
(1.01519 -0.00314973 0)
(1.01683 -0.00334554 0)
(1.01852 -0.00354164 0)
(1.02028 -0.00373772 0)
(1.02208 -0.0039334 0)
(1.02393 -0.00412823 0)
(1.02583 -0.00432161 0)
(1.02776 -0.0045127 0)
(1.02973 -0.00470017 0)
(1.03173 -0.00488182 0)
(1.03376 -0.00505378 0)
(1.03581 -0.00520921 0)
(1.03786 -0.00533596 0)
(1.03991 -0.00541198 0)
(1.00001 -0.000121345 0)
(1.00014 -0.00036113 0)
(1.00043 -0.000595306 0)
(1.00084 -0.000826606 0)
(1.00138 -0.00105526 0)
(1.00202 -0.00128259 0)
(1.00277 -0.00150923 0)
(1.00363 -0.00173589 0)
(1.00458 -0.00196307 0)
(1.00562 -0.00219118 0)
(1.00675 -0.00242049 0)
(1.00797 -0.00265119 0)
(1.00926 -0.00288336 0)
(1.01063 -0.003117 0)
(1.01207 -0.00335202 0)
(1.01358 -0.00358826 0)
(1.01516 -0.0038255 0)
(1.01679 -0.00406345 0)
(1.01849 -0.00430177 0)
(1.02024 -0.00454009 0)
(1.02204 -0.00477794 0)
(1.02389 -0.00501477 0)
(1.02578 -0.00524986 0)
(1.02771 -0.00548218 0)
(1.02968 -0.00571013 0)
(1.03168 -0.00593103 0)
(1.03371 -0.0061402 0)
(1.03575 -0.00632939 0)
(1.03781 -0.00648396 0)
(1.03985 -0.0065774 0)
(1.00001 -0.000142479 0)
(1.00014 -0.000423892 0)
(1.00043 -0.000698863 0)
(1.00084 -0.000970374 0)
(1.00137 -0.00123882 0)
(1.00202 -0.0015057 0)
(1.00277 -0.00177178 0)
(1.00362 -0.0020379 0)
(1.00457 -0.00230465 0)
(1.00561 -0.00257249 0)
(1.00673 -0.00284178 0)
(1.00794 -0.00311271 0)
(1.00923 -0.00338539 0)
(1.0106 -0.00365983 0)
(1.01204 -0.0039359 0)
(1.01355 -0.00421344 0)
(1.01512 -0.00449217 0)
(1.01675 -0.00477177 0)
(1.01845 -0.00505184 0)
(1.02019 -0.00533193 0)
(1.02199 -0.00561148 0)
(1.02384 -0.00588987 0)
(1.02573 -0.00616623 0)
(1.02766 -0.00643936 0)
(1.02963 -0.00670739 0)
(1.03162 -0.00696716 0)
(1.03365 -0.00721321 0)
(1.03569 -0.00743588 0)
(1.03774 -0.0076181 0)
(1.03979 -0.00772897 0)
(1.00001 -0.000163302 0)
(1.00014 -0.000485729 0)
(1.00043 -0.0008009 0)
(1.00084 -0.00111203 0)
(1.00137 -0.00141968 0)
(1.00201 -0.00172554 0)
(1.00276 -0.00203051 0)
(1.00361 -0.00233552 0)
(1.00455 -0.00264127 0)
(1.00559 -0.00294831 0)
(1.00671 -0.00325702 0)
(1.00792 -0.00356765 0)
(1.00921 -0.00388031 0)
(1.01057 -0.00419501 0)
(1.012 -0.00451163 0)
(1.01351 -0.00482996 0)
(1.01508 -0.00514969 0)
(1.01671 -0.00547045 0)
(1.0184 -0.00579179 0)
(1.02014 -0.00611318 0)
(1.02194 -0.00643399 0)
(1.02378 -0.00675349 0)
(1.02567 -0.00707071 0)
(1.02759 -0.00738425 0)
(1.02956 -0.00769196 0)
(1.03155 -0.00799024 0)
(1.03358 -0.00827284 0)
(1.03562 -0.00852872 0)
(1.03767 -0.00873842 0)
(1.03971 -0.00886666 0)
(1.00001 -0.00018381 0)
(1.00014 -0.00054663 0)
(1.00043 -0.000901397 0)
(1.00084 -0.00125155 0)
(1.00136 -0.00159782 0)
(1.002 -0.00194208 0)
(1.00275 -0.00228535 0)
(1.00359 -0.0026287 0)
(1.00454 -0.0029729 0)
(1.00557 -0.00331857 0)
(1.00669 -0.00366615 0)
(1.00789 -0.00401593 0)
(1.00917 -0.00436804 0)
(1.01053 -0.00472248 0)
(1.01196 -0.00507912 0)
(1.01346 -0.00543774 0)
(1.01503 -0.00579798 0)
(1.01665 -0.00615943 0)
(1.01834 -0.00652157 0)
(1.02008 -0.0068838 0)
(1.02187 -0.00724543 0)
(1.02371 -0.00760563 0)
(1.0256 -0.00796328 0)
(1.02752 -0.00831683 0)
(1.02948 -0.00866384 0)
(1.03148 -0.00900028 0)
(1.0335 -0.00931912 0)
(1.03554 -0.00960794 0)
(1.03759 -0.00984494 0)
(1.03963 -0.00999048 0)
(1.00001 -0.000204001 0)
(1.00014 -0.000606585 0)
(1.00043 -0.00100034 0)
(1.00083 -0.00138891 0)
(1.00136 -0.00177321 0)
(1.00199 -0.00215528 0)
(1.00274 -0.00253627 0)
(1.00358 -0.00291738 0)
(1.00452 -0.00329946 0)
(1.00555 -0.0036832 0)
(1.00666 -0.00406911 0)
(1.00786 -0.0044575 0)
(1.00914 -0.00484852 0)
(1.01049 -0.00524217 0)
(1.01192 -0.00563833 0)
(1.01341 -0.00603672 0)
(1.01498 -0.00643699 0)
(1.0166 -0.00683864 0)
(1.01828 -0.00724112 0)
(1.02001 -0.00764376 0)
(1.0218 -0.00804578 0)
(1.02364 -0.00844624 0)
(1.02552 -0.00884393 0)
(1.02744 -0.00923711 0)
(1.0294 -0.00962307 0)
(1.03139 -0.00999732 0)
(1.03341 -0.0103521 0)
(1.03545 -0.0106736 0)
(1.03749 -0.0109377 0)
(1.03953 -0.0111004 0)
(1.00001 -0.000223871 0)
(1.00014 -0.000665586 0)
(1.00043 -0.0010977 0)
(1.00083 -0.00152409 0)
(1.00135 -0.00194581 0)
(1.00199 -0.0023651 0)
(1.00272 -0.00278324 0)
(1.00356 -0.00320152 0)
(1.0045 -0.00362091 0)
(1.00552 -0.00404217 0)
(1.00663 -0.00446584 0)
(1.00783 -0.00489229 0)
(1.0091 -0.00532168 0)
(1.01045 -0.00575403 0)
(1.01187 -0.00618919 0)
(1.01336 -0.00662687 0)
(1.01492 -0.00706666 0)
(1.01653 -0.00750805 0)
(1.01821 -0.00795041 0)
(1.01994 -0.00839302 0)
(1.02173 -0.008835 0)
(1.02356 -0.00927534 0)
(1.02543 -0.00971267 0)
(1.02735 -0.0101451 0)
(1.02931 -0.0105697 0)
(1.0313 -0.0109814 0)
(1.03331 -0.0113718 0)
(1.03535 -0.0117257 0)
(1.03739 -0.0120167 0)
(1.03943 -0.0121966 0)
(1.00001 -0.000243418 0)
(1.00014 -0.000723623 0)
(1.00042 -0.00119349 0)
(1.00082 -0.00165707 0)
(1.00134 -0.00211562 0)
(1.00198 -0.00257153 0)
(1.00271 -0.00302622 0)
(1.00355 -0.0034811 0)
(1.00448 -0.00393722 0)
(1.0055 -0.00439542 0)
(1.0066 -0.00485631 0)
(1.00779 -0.00532027 0)
(1.00906 -0.0057875 0)
(1.0104 -0.00625801 0)
(1.01182 -0.00673165 0)
(1.0133 -0.00720812 0)
(1.01485 -0.00768696 0)
(1.01647 -0.00816763 0)
(1.01814 -0.00864942 0)
(1.01986 -0.00913156 0)
(1.02164 -0.0096131 0)
(1.02347 -0.0100929 0)
(1.02534 -0.0105695 0)
(1.02726 -0.0110408 0)
(1.02921 -0.0115036 0)
(1.03119 -0.0119525 0)
(1.03321 -0.0123782 0)
(1.03524 -0.0127643 0)
(1.03728 -0.0130821 0)
(1.03932 -0.0132789 0)
(1.00001 -0.000262639 0)
(1.00014 -0.000780693 0)
(1.00042 -0.00128767 0)
(1.00082 -0.00178784 0)
(1.00134 -0.0022826 0)
(1.00197 -0.00277453 0)
(1.0027 -0.00326518 0)
(1.00353 -0.00375607 0)
(1.00445 -0.00424835 0)
(1.00547 -0.00474293 0)
(1.00657 -0.00524046 0)
(1.00775 -0.00574139 0)
(1.00902 -0.00624592 0)
(1.01035 -0.00675407 0)
(1.01176 -0.00726569 0)
(1.01324 -0.00778044 0)
(1.01479 -0.00829786 0)
(1.01639 -0.00881733 0)
(1.01806 -0.00933812 0)
(1.01978 -0.00985937 0)
(1.02155 -0.01038 0)
(1.02338 -0.0108989 0)
(1.02524 -0.0114144 0)
(1.02715 -0.0119243 0)
(1.0291 -0.012425 0)
(1.03108 -0.0129107 0)
(1.03309 -0.0133715 0)
(1.03512 -0.0137895 0)
(1.03716 -0.0141338 0)
(1.03919 -0.0143475 0)
(1.00001 -0.000281533 0)
(1.00014 -0.000836788 0)
(1.00042 -0.00138025 0)
(1.00082 -0.00191638 0)
(1.00133 -0.00244674 0)
(1.00195 -0.0029741 0)
(1.00268 -0.0035001 0)
(1.00351 -0.00402642 0)
(1.00443 -0.00455427 0)
(1.00544 -0.00508466 0)
(1.00654 -0.00561828 0)
(1.00771 -0.00615562 0)
(1.00897 -0.00669691 0)
(1.0103 -0.00724218 0)
(1.0117 -0.00779126 0)
(1.01318 -0.00834381 0)
(1.01471 -0.00889933 0)
(1.01631 -0.00945715 0)
(1.01797 -0.0100165 0)
(1.01969 -0.0105764 0)
(1.02146 -0.0111359 0)
(1.02327 -0.0116935 0)
(1.02514 -0.0122475 0)
(1.02704 -0.0127955 0)
(1.02899 -0.0133338 0)
(1.03096 -0.0138561 0)
(1.03297 -0.0143516 0)
(1.035 -0.0148013 0)
(1.03704 -0.015172 0)
(1.03906 -0.0154025 0)
(1.00001 -0.000300099 0)
(1.00014 -0.000891907 0)
(1.00042 -0.00147123 0)
(1.00081 -0.00204268 0)
(1.00132 -0.00260803 0)
(1.00194 -0.0031702 0)
(1.00267 -0.00373097 0)
(1.00349 -0.00429212 0)
(1.0044 -0.00485497 0)
(1.00541 -0.00542058 0)
(1.0065 -0.00598973 0)
(1.00767 -0.00656293 0)
(1.00892 -0.00714044 0)
(1.01024 -0.0077223 0)
(1.01164 -0.00830834 0)
(1.01311 -0.0088982 0)
(1.01464 -0.00949134 0)
(1.01623 -0.0100871 0)
(1.01788 -0.0106845 0)
(1.01959 -0.0112828 0)
(1.02135 -0.0118805 0)
(1.02317 -0.0124765 0)
(1.02502 -0.0130687 0)
(1.02693 -0.0136546 0)
(1.02886 -0.0142301 0)
(1.03084 -0.0147887 0)
(1.03284 -0.0153187 0)
(1.03486 -0.0157998 0)
(1.0369 -0.0161967 0)
(1.03892 -0.0164438 0)
(1.00001 -0.000318336 0)
(1.00014 -0.000946046 0)
(1.00041 -0.00156058 0)
(1.00081 -0.00216674 0)
(1.00131 -0.00276646 0)
(1.00193 -0.00336284 0)
(1.00265 -0.00395777 0)
(1.00347 -0.00455316 0)
(1.00438 -0.00515042 0)
(1.00537 -0.00575069 0)
(1.00646 -0.0063548 0)
(1.00762 -0.00696331 0)
(1.00887 -0.0075765 0)
(1.01018 -0.00819443 0)
(1.01157 -0.00881692 0)
(1.01303 -0.00944359 0)
(1.01455 -0.0100739 0)
(1.01614 -0.0107071 0)
(1.01779 -0.0113422 0)
(1.01949 -0.0119783 0)
(1.02125 -0.0126141 0)
(1.02305 -0.013248 0)
(1.0249 -0.013878 0)
(1.0268 -0.0145015 0)
(1.02873 -0.015114 0)
(1.0307 -0.0157085 0)
(1.0327 -0.0162727 0)
(1.03472 -0.016785 0)
(1.03675 -0.0172079 0)
(1.03877 -0.0174716 0)
(1.00001 -0.000336243 0)
(1.00014 -0.000999203 0)
(1.00041 -0.00164832 0)
(1.0008 -0.00228856 0)
(1.00131 -0.00292203 0)
(1.00192 -0.003552 0)
(1.00263 -0.00418049 0)
(1.00344 -0.00480953 0)
(1.00435 -0.00544061 0)
(1.00534 -0.00607496 0)
(1.00642 -0.00671347 0)
(1.00757 -0.00735673 0)
(1.00881 -0.00800507 0)
(1.01012 -0.00865854 0)
(1.0115 -0.00931697 0)
(1.01295 -0.00997998 0)
(1.01447 -0.010647 0)
(1.01605 -0.0113172 0)
(1.01769 -0.0119896 0)
(1.01938 -0.0126632 0)
(1.02113 -0.0133365 0)
(1.02293 -0.014008 0)
(1.02478 -0.0146756 0)
(1.02667 -0.0153362 0)
(1.0286 -0.0159854 0)
(1.03056 -0.0166156 0)
(1.03256 -0.0172138 0)
(1.03457 -0.0177571 0)
(1.0366 -0.0182058 0)
(1.03862 -0.0184859 0)
(1.00001 -0.00035382 0)
(1.00014 -0.00105138 0)
(1.00041 -0.00173443 0)
(1.00079 -0.00240812 0)
(1.0013 -0.00307472 0)
(1.0019 -0.00373767 0)
(1.00261 -0.00439912 0)
(1.00342 -0.00506121 0)
(1.00432 -0.00572553 0)
(1.0053 -0.00639339 0)
(1.00637 -0.00706573 0)
(1.00752 -0.00774319 0)
(1.00875 -0.00842613 0)
(1.01005 -0.00911463 0)
(1.01143 -0.0098085 0)
(1.01287 -0.0105073 0)
(1.01438 -0.0112106 0)
(1.01595 -0.0119173 0)
(1.01758 -0.0126266 0)
(1.01927 -0.0133372 0)
(1.02101 -0.0140478 0)
(1.02281 -0.0147566 0)
(1.02465 -0.0154613 0)
(1.02653 -0.0161589 0)
(1.02845 -0.0168445 0)
(1.03041 -0.01751 0)
(1.0324 -0.018142 0)
(1.03441 -0.018716 0)
(1.03644 -0.0191905 0)
(1.03845 -0.0194869 0)
(1.00001 -0.000371068 0)
(1.00013 -0.00110257 0)
(1.0004 -0.00181893 0)
(1.00079 -0.00252543 0)
(1.00129 -0.00322455 0)
(1.00189 -0.00391987 0)
(1.00259 -0.00461367 0)
(1.00339 -0.00530821 0)
(1.00429 -0.00600518 0)
(1.00526 -0.00670596 0)
(1.00633 -0.00741157 0)
(1.00747 -0.00812269 0)
(1.00869 -0.00883969 0)
(1.00998 -0.00956268 0)
(1.01135 -0.0102915 0)
(1.01278 -0.0110257 0)
(1.01428 -0.0117647 0)
(1.01585 -0.0125076 0)
(1.01747 -0.0132533 0)
(1.01915 -0.0140006 0)
(1.02089 -0.0147481 0)
(1.02267 -0.0154938 0)
(1.02451 -0.0162354 0)
(1.02638 -0.0169696 0)
(1.0283 -0.0176912 0)
(1.03026 -0.0183919 0)
(1.03224 -0.0190574 0)
(1.03425 -0.0196619 0)
(1.03627 -0.0201619 0)
(1.03828 -0.0204745 0)
(1.00001 -0.000387987 0)
(1.00013 -0.00115278 0)
(1.0004 -0.00190181 0)
(1.00078 -0.0026405 0)
(1.00128 -0.00337151 0)
(1.00188 -0.00409858 0)
(1.00257 -0.00482413 0)
(1.00337 -0.00555053 0)
(1.00425 -0.00627956 0)
(1.00522 -0.00701269 0)
(1.00628 -0.007751 0)
(1.00741 -0.00849521 0)
(1.00862 -0.00924574 0)
(1.00991 -0.0100027 0)
(1.01127 -0.010766 0)
(1.01269 -0.011535 0)
(1.01419 -0.0123093 0)
(1.01574 -0.0130879 0)
(1.01736 -0.0138697 0)
(1.01903 -0.0146533 0)
(1.02076 -0.0154373 0)
(1.02253 -0.0162196 0)
(1.02436 -0.0169977 0)
(1.02623 -0.0177682 0)
(1.02815 -0.0185257 0)
(1.03009 -0.0192613 0)
(1.03207 -0.01996 0)
(1.03408 -0.0205948 0)
(1.0361 -0.0211202 0)
(1.0381 -0.0214489 0)
(1.00001 -0.000404577 0)
(1.00013 -0.00120202 0)
(1.0004 -0.00198307 0)
(1.00078 -0.00275332 0)
(1.00127 -0.0035156 0)
(1.00186 -0.00427382 0)
(1.00255 -0.0050305 0)
(1.00334 -0.00578816 0)
(1.00422 -0.00654867 0)
(1.00518 -0.00731357 0)
(1.00623 -0.00808401 0)
(1.00736 -0.00886077 0)
(1.00856 -0.0096443 0)
(1.00984 -0.0104347 0)
(1.01118 -0.0112319 0)
(1.0126 -0.0120354 0)
(1.01408 -0.0128445 0)
(1.01563 -0.0136583 0)
(1.01723 -0.0144757 0)
(1.0189 -0.0152953 0)
(1.02062 -0.0161154 0)
(1.02239 -0.016934 0)
(1.02421 -0.0177484 0)
(1.02607 -0.018555 0)
(1.02798 -0.019348 0)
(1.02992 -0.0201182 0)
(1.0319 -0.02085 0)
(1.0339 -0.0215149 0)
(1.03591 -0.0220655 0)
(1.03791 -0.0224102 0)
(1.00001 -0.000420841 0)
(1.00013 -0.00125028 0)
(1.0004 -0.00206272 0)
(1.00077 -0.0028639 0)
(1.00126 -0.00365683 0)
(1.00184 -0.00444558 0)
(1.00253 -0.0052328 0)
(1.00331 -0.00602112 0)
(1.00418 -0.00681252 0)
(1.00514 -0.00760862 0)
(1.00618 -0.00841062 0)
(1.0073 -0.00921938 0)
(1.00849 -0.0100354 0)
(1.00976 -0.0108587 0)
(1.0111 -0.0116893 0)
(1.0125 -0.0125267 0)
(1.01398 -0.0133702 0)
(1.01551 -0.0142189 0)
(1.01711 -0.0150715 0)
(1.01877 -0.0159267 0)
(1.02048 -0.0167826 0)
(1.02224 -0.0176371 0)
(1.02405 -0.0184875 0)
(1.02591 -0.0193298 0)
(1.02781 -0.0201582 0)
(1.02975 -0.0209628 0)
(1.03172 -0.0217273 0)
(1.03371 -0.0224221 0)
(1.03572 -0.0229979 0)
(1.03771 -0.0233584 0)
(1.00001 -0.000436778 0)
(1.00013 -0.00129756 0)
(1.00039 -0.00214077 0)
(1.00076 -0.00297225 0)
(1.00124 -0.00379521 0)
(1.00183 -0.00461387 0)
(1.00251 -0.00543102 0)
(1.00328 -0.00624941 0)
(1.00415 -0.00707111 0)
(1.00509 -0.00789783 0)
(1.00612 -0.00873084 0)
(1.00723 -0.00957104 0)
(1.00842 -0.0104189 0)
(1.00968 -0.0112747 0)
(1.011 -0.0121382 0)
(1.0124 -0.0130091 0)
(1.01387 -0.0138865 0)
(1.01539 -0.0147696 0)
(1.01698 -0.0156571 0)
(1.01863 -0.0165474 0)
(1.02033 -0.0174388 0)
(1.02208 -0.018329 0)
(1.02389 -0.019215 0)
(1.02574 -0.0200929 0)
(1.02763 -0.0209563 0)
(1.02956 -0.0217951 0)
(1.03153 -0.0225922 0)
(1.03351 -0.0233167 0)
(1.03553 -0.0239174 0)
(1.0375 -0.0242937 0)
(1.00001 -0.000452391 0)
(1.00013 -0.00134388 0)
(1.00039 -0.00221722 0)
(1.00076 -0.00307837 0)
(1.00123 -0.00393075 0)
(1.00181 -0.00477871 0)
(1.00249 -0.00562519 0)
(1.00325 -0.00647306 0)
(1.00411 -0.00732447 0)
(1.00505 -0.00818123 0)
(1.00607 -0.00904469 0)
(1.00717 -0.00991577 0)
(1.00834 -0.010795 0)
(1.00959 -0.0116827 0)
(1.01091 -0.0125787 0)
(1.0123 -0.0134825 0)
(1.01375 -0.0143934 0)
(1.01527 -0.0153105 0)
(1.01685 -0.0162324 0)
(1.01848 -0.0171575 0)
(1.02018 -0.0180841 0)
(1.02192 -0.0190096 0)
(1.02372 -0.019931 0)
(1.02556 -0.0208441 0)
(1.02745 -0.0217424 0)
(1.02937 -0.0226152 0)
(1.03133 -0.0234447 0)
(1.03331 -0.0241987 0)
(1.03532 -0.0248241 0)
(1.03729 -0.0252161 0)
(1.00001 -0.000467682 0)
(1.00013 -0.00138924 0)
(1.00038 -0.00229207 0)
(1.00075 -0.00318228 0)
(1.00122 -0.00406345 0)
(1.00179 -0.00494011 0)
(1.00246 -0.00581532 0)
(1.00322 -0.00669206 0)
(1.00407 -0.0075726 0)
(1.005 -0.00845884 0)
(1.00601 -0.00935217 0)
(1.0071 -0.0102536 0)
(1.00827 -0.0111637 0)
(1.00951 -0.0120828 0)
(1.01081 -0.0130107 0)
(1.01219 -0.013947 0)
(1.01363 -0.014891 0)
(1.01514 -0.0158416 0)
(1.01671 -0.0167975 0)
(1.01833 -0.0177571 0)
(1.02002 -0.0187185 0)
(1.02175 -0.019679 0)
(1.02354 -0.0206356 0)
(1.02538 -0.0215837 0)
(1.02726 -0.0225166 0)
(1.02918 -0.0234231 0)
(1.03113 -0.0242848 0)
(1.0331 -0.0250681 0)
(1.03511 -0.0257183 0)
(1.03707 -0.0261258 0)
(1.00001 -0.000482653 0)
(1.00013 -0.00143364 0)
(1.00038 -0.00236534 0)
(1.00074 -0.00328398 0)
(1.00121 -0.00419334 0)
(1.00178 -0.00509808 0)
(1.00244 -0.00600141 0)
(1.00319 -0.00690644 0)
(1.00403 -0.00781553 0)
(1.00495 -0.00873067 0)
(1.00596 -0.00965331 0)
(1.00703 -0.0105845 0)
(1.00819 -0.011525 0)
(1.00942 -0.0124749 0)
(1.01071 -0.0134342 0)
(1.01208 -0.0144025 0)
(1.01351 -0.0153791 0)
(1.01501 -0.0163629 0)
(1.01656 -0.0173524 0)
(1.01818 -0.0183462 0)
(1.01985 -0.019342 0)
(1.02158 -0.0203373 0)
(1.02336 -0.0213288 0)
(1.02519 -0.0223117 0)
(1.02706 -0.023279 0)
(1.02897 -0.0242191 0)
(1.03092 -0.0251128 0)
(1.03289 -0.0259252 0)
(1.03489 -0.0265999 0)
(1.03684 -0.0270228 0)
(1.00001 -0.000497306 0)
(1.00012 -0.00147709 0)
(1.00038 -0.00243704 0)
(1.00073 -0.00338349 0)
(1.0012 -0.00432041 0)
(1.00176 -0.00525264 0)
(1.00241 -0.0061835 0)
(1.00316 -0.00711622 0)
(1.00399 -0.00805328 0)
(1.0049 -0.00899674 0)
(1.0059 -0.00994814 0)
(1.00697 -0.0109086 0)
(1.00811 -0.0118788 0)
(1.00933 -0.0128591 0)
(1.01061 -0.0138494 0)
(1.01197 -0.0148492 0)
(1.01339 -0.0158579 0)
(1.01487 -0.0168744 0)
(1.01642 -0.0178973 0)
(1.01802 -0.0189247 0)
(1.01969 -0.0199547 0)
(1.0214 -0.0209846 0)
(1.02317 -0.0220107 0)
(1.02499 -0.0230282 0)
(1.02686 -0.0240297 0)
(1.02876 -0.0250031 0)
(1.0307 -0.0259286 0)
(1.03267 -0.0267699 0)
(1.03466 -0.027469 0)
(1.03661 -0.0279073 0)
(1.00001 -0.000511644 0)
(1.00012 -0.00151959 0)
(1.00037 -0.00250718 0)
(1.00073 -0.00348081 0)
(1.00119 -0.0044447 0)
(1.00174 -0.0054038 0)
(1.00239 -0.00636159 0)
(1.00313 -0.00732142 0)
(1.00395 -0.00828587 0)
(1.00485 -0.00925709 0)
(1.00583 -0.0102367 0)
(1.00689 -0.0112259 0)
(1.00803 -0.0122253 0)
(1.00923 -0.0132354 0)
(1.01051 -0.0142562 0)
(1.01185 -0.0152871 0)
(1.01326 -0.0163275 0)
(1.01473 -0.0173762 0)
(1.01627 -0.018432 0)
(1.01786 -0.0194929 0)
(1.01951 -0.0205567 0)
(1.02122 -0.0216207 0)
(1.02298 -0.0226813 0)
(1.02479 -0.0237331 0)
(1.02665 -0.0247686 0)
(1.02855 -0.0257752 0)
(1.03048 -0.0267324 0)
(1.03244 -0.0276025 0)
(1.03443 -0.0283259 0)
(1.03637 -0.0287793 0)
(1.00001 -0.000525669 0)
(1.00012 -0.00156116 0)
(1.00037 -0.00257576 0)
(1.00072 -0.00357597 0)
(1.00117 -0.00456621 0)
(1.00172 -0.00555158 0)
(1.00236 -0.00653571 0)
(1.00309 -0.00752207 0)
(1.00391 -0.00851333 0)
(1.0048 -0.00951174 0)
(1.00577 -0.010519 0)
(1.00682 -0.0115363 0)
(1.00794 -0.0125645 0)
(1.00913 -0.0136039 0)
(1.0104 -0.0146546 0)
(1.01173 -0.0157161 0)
(1.01313 -0.0167878 0)
(1.01459 -0.0178684 0)
(1.01611 -0.0189566 0)
(1.01769 -0.0200506 0)
(1.01934 -0.021148 0)
(1.02103 -0.0222459 0)
(1.02278 -0.0233406 0)
(1.02459 -0.0244267 0)
(1.02643 -0.025496 0)
(1.02832 -0.0265357 0)
(1.03025 -0.0275244 0)
(1.0322 -0.0284231 0)
(1.03419 -0.0291706 0)
(1.03612 -0.0296391 0)
(1.00001 -0.000539386 0)
(1.00012 -0.0016018 0)
(1.00037 -0.0026428 0)
(1.00071 -0.00366897 0)
(1.00116 -0.00468496 0)
(1.0017 -0.00569601 0)
(1.00234 -0.00670589 0)
(1.00306 -0.00771818 0)
(1.00386 -0.00873568 0)
(1.00475 -0.00976072 0)
(1.00571 -0.010795 0)
(1.00674 -0.01184 0)
(1.00785 -0.0128964 0)
(1.00904 -0.0139646 0)
(1.01029 -0.0150447 0)
(1.01161 -0.0161364 0)
(1.01299 -0.0172388 0)
(1.01444 -0.0183509 0)
(1.01595 -0.0194713 0)
(1.01752 -0.0205979 0)
(1.01915 -0.0217286 0)
(1.02084 -0.0228602 0)
(1.02258 -0.0239889 0)
(1.02437 -0.0251089 0)
(1.02621 -0.026212 0)
(1.0281 -0.0272845 0)
(1.03002 -0.0283046 0)
(1.03196 -0.0292317 0)
(1.03395 -0.0300033 0)
(1.03587 -0.0304867 0)
(1.00001 -0.000552797 0)
(1.00012 -0.00164152 0)
(1.00036 -0.0027083 0)
(1.0007 -0.00375984 0)
(1.00115 -0.00480097 0)
(1.00168 -0.0058371 0)
(1.00231 -0.00687214 0)
(1.00302 -0.0079098 0)
(1.00382 -0.00895296 0)
(1.00469 -0.0100041 0)
(1.00564 -0.0110649 0)
(1.00667 -0.0121369 0)
(1.00777 -0.013221 0)
(1.00894 -0.0143175 0)
(1.01017 -0.0154266 0)
(1.01148 -0.0165479 0)
(1.01285 -0.0176807 0)
(1.01429 -0.0188239 0)
(1.01579 -0.0199759 0)
(1.01735 -0.021135 0)
(1.01897 -0.0222986 0)
(1.02064 -0.0234636 0)
(1.02237 -0.024626 0)
(1.02416 -0.0257798 0)
(1.02599 -0.0269165 0)
(1.02786 -0.0280218 0)
(1.02978 -0.0290731 0)
(1.03172 -0.0300285 0)
(1.0337 -0.030824 0)
(1.03561 -0.0313222 0)
(1.00001 -0.000565906 0)
(1.00012 -0.00168032 0)
(1.00036 -0.00277229 0)
(1.00069 -0.00384858 0)
(1.00113 -0.00491426 0)
(1.00166 -0.00597488 0)
(1.00228 -0.00703449 0)
(1.00299 -0.00809693 0)
(1.00377 -0.0091652 0)
(1.00463 -0.0102418 0)
(1.00557 -0.0113287 0)
(1.00659 -0.0124272 0)
(1.00768 -0.0135384 0)
(1.00883 -0.0146627 0)
(1.01006 -0.0158003 0)
(1.01135 -0.0169508 0)
(1.01271 -0.0181135 0)
(1.01413 -0.0192873 0)
(1.01562 -0.0204707 0)
(1.01717 -0.0216618 0)
(1.01877 -0.022858 0)
(1.02044 -0.0240562 0)
(1.02216 -0.0252521 0)
(1.02393 -0.0264396 0)
(1.02575 -0.0276098 0)
(1.02762 -0.0287477 0)
(1.02953 -0.0298302 0)
(1.03146 -0.0308137 0)
(1.03344 -0.031633 0)
(1.03534 -0.0321459 0)
(1.00001 -0.000578716 0)
(1.00012 -0.00171822 0)
(1.00035 -0.00283478 0)
(1.00069 -0.00393521 0)
(1.00112 -0.00502485 0)
(1.00164 -0.00610936 0)
(1.00225 -0.00719297 0)
(1.00295 -0.00827963 0)
(1.00372 -0.00937243 0)
(1.00458 -0.010474 0)
(1.00551 -0.0115863 0)
(1.00651 -0.0127109 0)
(1.00758 -0.0138487 0)
(1.00873 -0.0150003 0)
(1.00994 -0.0161658 0)
(1.01122 -0.017345 0)
(1.01256 -0.0185372 0)
(1.01397 -0.0197412 0)
(1.01545 -0.0209556 0)
(1.01698 -0.0221783 0)
(1.01858 -0.0234069 0)
(1.02023 -0.0246381 0)
(1.02194 -0.0258673 0)
(1.0237 -0.0270883 0)
(1.02552 -0.0282918 0)
(1.02738 -0.0294623 0)
(1.02928 -0.0305759 0)
(1.0312 -0.0315875 0)
(1.03317 -0.0324304 0)
(1.03507 -0.0329578 0)
(1.00001 -0.000591232 0)
(1.00012 -0.00175523 0)
(1.00035 -0.00289577 0)
(1.00068 -0.00401975 0)
(1.0011 -0.00513275 0)
(1.00162 -0.00624058 0)
(1.00222 -0.00734761 0)
(1.00291 -0.00845791 0)
(1.00368 -0.0095747 0)
(1.00452 -0.0107007 0)
(1.00544 -0.0118379 0)
(1.00643 -0.0129879 0)
(1.00749 -0.0141518 0)
(1.00862 -0.0153302 0)
(1.00982 -0.0165232 0)
(1.01108 -0.0177307 0)
(1.01242 -0.0189518 0)
(1.01381 -0.0201856 0)
(1.01527 -0.0214306 0)
(1.01679 -0.0226847 0)
(1.01838 -0.0239453 0)
(1.02002 -0.0252092 0)
(1.02171 -0.0264716 0)
(1.02347 -0.027726 0)
(1.02527 -0.0289628 0)
(1.02712 -0.0301658 0)
(1.02902 -0.0313104 0)
(1.03094 -0.0323499 0)
(1.03291 -0.0332164 0)
(1.03479 -0.0337581 0)
(1.00001 -0.000603457 0)
(1.00011 -0.00179134 0)
(1.00034 -0.00295528 0)
(1.00067 -0.00410221 0)
(1.00109 -0.00523799 0)
(1.0016 -0.00636855 0)
(1.0022 -0.00749843 0)
(1.00287 -0.00863182 0)
(1.00363 -0.00977203 0)
(1.00446 -0.0109218 0)
(1.00537 -0.0120834 0)
(1.00634 -0.0132584 0)
(1.00739 -0.0144479 0)
(1.00851 -0.0156525 0)
(1.00969 -0.0168726 0)
(1.01095 -0.0181078 0)
(1.01226 -0.0193575 0)
(1.01365 -0.0206207 0)
(1.01509 -0.0218958 0)
(1.0166 -0.0231809 0)
(1.01817 -0.0244734 0)
(1.0198 -0.0257696 0)
(1.02148 -0.027065 0)
(1.02323 -0.0283527 0)
(1.02502 -0.0296227 0)
(1.02686 -0.0308582 0)
(1.02875 -0.0320339 0)
(1.03066 -0.0331012 0)
(1.03263 -0.0339911 0)
(1.0345 -0.0345469 0)
(1.00001 -0.000615396 0)
(1.00011 -0.00182658 0)
(1.00034 -0.00301332 0)
(1.00066 -0.00418261 0)
(1.00108 -0.00534059 0)
(1.00158 -0.00649331 0)
(1.00217 -0.00764547 0)
(1.00283 -0.00880138 0)
(1.00358 -0.00996446 0)
(1.0044 -0.0111376 0)
(1.00529 -0.012323 0)
(1.00626 -0.0135224 0)
(1.00729 -0.0147369 0)
(1.0084 -0.0159674 0)
(1.00957 -0.0172139 0)
(1.01081 -0.0184764 0)
(1.01211 -0.0197543 0)
(1.01348 -0.0210464 0)
(1.01491 -0.0223514 0)
(1.0164 -0.0236671 0)
(1.01796 -0.024991 0)
(1.01958 -0.0263195 0)
(1.02125 -0.0276477 0)
(1.02298 -0.0289686 0)
(1.02477 -0.0302718 0)
(1.0266 -0.0315398 0)
(1.02848 -0.0327465 0)
(1.03039 -0.0338416 0)
(1.03235 -0.0347549 0)
(1.03421 -0.0353246 0)
(1.00001 -0.000627053 0)
(1.00011 -0.00186095 0)
(1.00034 -0.00306991 0)
(1.00065 -0.00426097 0)
(1.00106 -0.00544057 0)
(1.00156 -0.00661487 0)
(1.00213 -0.00778875 0)
(1.00279 -0.00896663 0)
(1.00353 -0.010152 0)
(1.00434 -0.0113479 0)
(1.00522 -0.0125567 0)
(1.00617 -0.0137799 0)
(1.00719 -0.0150191 0)
(1.00828 -0.0162747 0)
(1.00944 -0.0175473 0)
(1.01066 -0.0188367 0)
(1.01195 -0.0201422 0)
(1.01331 -0.0214629 0)
(1.01472 -0.0227972 0)
(1.0162 -0.0241433 0)
(1.01774 -0.0254983 0)
(1.01935 -0.0268588 0)
(1.02101 -0.0282197 0)
(1.02273 -0.0295736 0)
(1.02451 -0.03091 0)
(1.02633 -0.0322106 0)
(1.02821 -0.0334484 0)
(1.0301 -0.0345713 0)
(1.03206 -0.0355077 0)
(1.03392 -0.0360912 0)
(1.00001 -0.000638432 0)
(1.00011 -0.00189446 0)
(1.00033 -0.00312506 0)
(1.00064 -0.0043373 0)
(1.00105 -0.00553794 0)
(1.00153 -0.00673327 0)
(1.0021 -0.00792832 0)
(1.00275 -0.00912762 0)
(1.00348 -0.0103348 0)
(1.00427 -0.011553 0)
(1.00514 -0.0127844 0)
(1.00608 -0.0140311 0)
(1.00709 -0.0152943 0)
(1.00817 -0.0165747 0)
(1.00931 -0.0178728 0)
(1.01052 -0.0191885 0)
(1.01179 -0.0205213 0)
(1.01313 -0.0218701 0)
(1.01453 -0.0232335 0)
(1.016 -0.0246095 0)
(1.01753 -0.0259954 0)
(1.01912 -0.0273876 0)
(1.02077 -0.0287809 0)
(1.02247 -0.030168 0)
(1.02424 -0.0315375 0)
(1.02606 -0.0328707 0)
(1.02792 -0.0341398 0)
(1.02981 -0.0352905 0)
(1.03177 -0.03625 0)
(1.03362 -0.0368471 0)
(1.00001 -0.000649539 0)
(1.00011 -0.00192711 0)
(1.00033 -0.00317877 0)
(1.00063 -0.00441163 0)
(1.00103 -0.00563274 0)
(1.00151 -0.00684853 0)
(1.00207 -0.00806419 0)
(1.00271 -0.00928438 0)
(1.00342 -0.0105128 0)
(1.00421 -0.0117527 0)
(1.00507 -0.0130064 0)
(1.00599 -0.014276 0)
(1.00699 -0.0155626 0)
(1.00805 -0.0168674 0)
(1.00918 -0.0181906 0)
(1.01037 -0.0195321 0)
(1.01163 -0.0208916 0)
(1.01295 -0.0222681 0)
(1.01434 -0.0236601 0)
(1.01579 -0.0250657 0)
(1.0173 -0.0264822 0)
(1.01888 -0.0279059 0)
(1.02052 -0.0293316 0)
(1.02221 -0.0307516 0)
(1.02397 -0.0321544 0)
(1.02577 -0.0335204 0)
(1.02764 -0.0348208 0)
(1.02952 -0.0359994 0)
(1.03148 -0.036982 0)
(1.03331 -0.0375924 0)
(1.00001 -0.000660377 0)
(1.00011 -0.00195892 0)
(1.00032 -0.00323107 0)
(1.00062 -0.00448395 0)
(1.00101 -0.00572498 0)
(1.00149 -0.00696068 0)
(1.00204 -0.00819642 0)
(1.00267 -0.00943695 0)
(1.00337 -0.0106861 0)
(1.00415 -0.0119472 0)
(1.00499 -0.0132226 0)
(1.0059 -0.0145145 0)
(1.00688 -0.0158242 0)
(1.04211 -0.000608472 1.05333e-21)
(1.04432 -0.000604371 9.82014e-22)
(1.04659 -0.000600422 6.36148e-22)
(1.04894 -0.000596286 2.10786e-21)
(1.05135 -0.000591806 -2.4735e-22)
(1.05382 -0.000586938 -1.07614e-21)
(1.05637 -0.000581666 -2.32958e-21)
(1.05898 -0.000575996 6.06205e-22)
(1.06166 -0.000569943 -1.6293e-21)
(1.06441 -0.000563533 3.52158e-22)
(1.06723 -0.000556799 -4.24464e-22)
(1.07012 -0.000549777 4.82383e-22)
(1.07308 -0.00054251 9.27684e-22)
(1.07611 -0.000535046 -3.18846e-22)
(1.0792 -0.000527435 -1.42165e-21)
(1.08236 -0.00051973 2.14413e-21)
(1.08559 -0.000511986 -7.49276e-22)
(1.08889 -0.000504259 -1.35246e-21)
(1.09225 -0.000496603 5.62296e-23)
(1.09568 -0.000489073 1.02016e-21)
(1.09918 -0.000481717 1.68383e-21)
(1.10274 -0.000474581 4.87764e-22)
(1.10637 -0.000467701 -8.11444e-23)
(1.11006 -0.00046111 -4.41904e-22)
(1.11381 -0.000454829 5.88778e-22)
(1.04209 -0.00182489 6.902e-22)
(1.0443 -0.00181568 -2.44403e-21)
(1.04658 -0.00180631 -2.888e-21)
(1.04892 -0.00179614 -2.11091e-22)