/*--------------------------------*- C++ -*----------------------------------*\
  =========                 |
  \\      /  F ield         | OpenFOAM: The Open Source CFD Toolbox
   \\    /   O peration     | Website:  https://openfoam.org
    \\  /    A nd           | Version:  7
     \\/     M anipulation  |
\*---------------------------------------------------------------------------*/
FoamFile
{
    version     2.0;
    format      ascii;
    class       volScalarField;
    location    "10";
    object      p;
}
// * * * * * * * * * * * * * * * * * * * * * * * * * * * * * * * * * * * * * //

dimensions      [0 2 -2 0 0 0 0];

internalField   nonuniform List<scalar> 
12100
(
-0.324809
-0.330458
-0.33231
-0.335832
-0.339753
-0.34449
-0.349933
-0.356112
-0.362994
-0.370484
-0.378381
-0.386333
-0.393803
-0.400049
-0.4041
-0.404827
-0.400868
-0.390974
-0.374459
-0.34893
-0.32522
-0.330761
-0.3326
-0.336101
-0.340013
-0.344743
-0.350188
-0.356381
-0.363296
-0.370847
-0.378844
-0.386945
-0.394624
-0.401157
-0.405567
-0.406759
-0.403394
-0.393885
-0.378389
-0.352582
-0.326025
-0.331352
-0.333162
-0.336619
-0.340505
-0.345217
-0.350656
-0.356864
-0.363827
-0.371474
-0.379632
-0.387978
-0.396001
-0.403008
-0.408
-0.409908
-0.407611
-0.398452
-0.384914
-0.358662
-0.327191
-0.332206
-0.333964
-0.337345
-0.34118
-0.345847
-0.351257
-0.357461
-0.364457
-0.372193
-0.380514
-0.389119
-0.397502
-0.405017
-0.41063
-0.413173
-0.412271
-0.403118
-0.392476
-0.364941
-0.328671
-0.333285
-0.33496
-0.338223
-0.341968
-0.346551
-0.35189
-0.358044
-0.365026
-0.372798
-0.381221
-0.390016
-0.398661
-0.406572
-0.412688
-0.415537
-0.416235
-0.406474
-0.397811
-0.370567
-0.330413
-0.334547
-0.336099
-0.33919
-0.342793
-0.347236
-0.352445
-0.358483
-0.365374
-0.373095
-0.38151
-0.390367
-0.399101
-0.407203
-0.413607
-0.416614
-0.417787
-0.408165
-0.400079
-0.373714
-0.332358
-0.335946
-0.337324
-0.340179
-0.343577
-0.347812
-0.352818
-0.35866
-0.365371
-0.372931
-0.381207
-0.389977
-0.39861
-0.406657
-0.413006
-0.415869
-0.417026
-0.407402
-0.398801
-0.373617
-0.334448
-0.337439
-0.338584
-0.341129
-0.344248
-0.348201
-0.352928
-0.358492
-0.36493
-0.372227
-0.380244
-0.388758
-0.3971
-0.404854
-0.410853
-0.413285
-0.413749
-0.404132
-0.393933
-0.369768
-0.336631
-0.338986
-0.339834
-0.34199
-0.344752
-0.348348
-0.352722
-0.357935
-0.364024
-0.370969
-0.378621
-0.386747
-0.394633
-0.401864
-0.407206
-0.408911
-0.407985
-0.398197
-0.385779
-0.362039
-0.338864
-0.340557
-0.341037
-0.342724
-0.345054
-0.348224
-0.352185
-0.356991
-0.362676
-0.369208
-0.376415
-0.38404
-0.391332
-0.397754
-0.402131
-0.4027
-0.399895
-0.389425
-0.374754
-0.350861
-0.341113
-0.34213
-0.342173
-0.343315
-0.345142
-0.34783
-0.351335
-0.355702
-0.360953
-0.367028
-0.373739
-0.38073
-0.387265
-0.392539
-0.395603
-0.394538
-0.389615
-0.377911
-0.361407
-0.337278
-0.343363
-0.343694
-0.343235
-0.34376
-0.34503
-0.347195
-0.350221
-0.354137
-0.358941
-0.364533
-0.370667
-0.376854
-0.382388
-0.386148
-0.387498
-0.384396
-0.377339
-0.364204
-0.346562
-0.322614
-0.345609
-0.345246
-0.344234
-0.344081
-0.34475
-0.346371
-0.348913
-0.352378
-0.356725
-0.361777
-0.367201
-0.372363
-0.376549
-0.378469
-0.377745
-0.372471
-0.363514
-0.349205
-0.331214
-0.308005
-0.347868
-0.346796
-0.345191
-0.344313
-0.344355
-0.345425
-0.347486
-0.350501
-0.354351
-0.358758
-0.363263
-0.367123
-0.369583
-0.369449
-0.366493
-0.359241
-0.348841
-0.333867
-0.316217
-0.294146
-0.350167
-0.348374
-0.346135
-0.344503
-0.343909
-0.34443
-0.346015
-0.348552
-0.351817
-0.355404
-0.358717
-0.360983
-0.361439
-0.359208
-0.354142
-0.345348
-0.334038
-0.318908
-0.30209
-0.281308
-0.352547
-0.350011
-0.34711
-0.344711
-0.34348
-0.343457
-0.344548
-0.346539
-0.349066
-0.351594
-0.353428
-0.35387
-0.352236
-0.348057
-0.341219
-0.331403
-0.31961
-0.304718
-0.289004
-0.269502
-0.355065
-0.351747
-0.34817
-0.344998
-0.343135
-0.34256
-0.343105
-0.344425
-0.346001
-0.347203
-0.347333
-0.345846
-0.342239
-0.336398
-0.328218
-0.317822
-0.305804
-0.291428
-0.276874
-0.258585
-0.357781
-0.35363
-0.349372
-0.345428
-0.342932
-0.341768
-0.34167
-0.342136
-0.342517
-0.342157
-0.340464
-0.337098
-0.331776
-0.324606
-0.315496
-0.304817
-0.292706
-0.279019
-0.265412
-0.248322
-0.360761
-0.355713
-0.350772
-0.346055
-0.342906
-0.341085
-0.340198
-0.339587
-0.338532
-0.336452
-0.332943
-0.327867
-0.321141
-0.312959
-0.303256
-0.292455
-0.280359
-0.267397
-0.254227
-0.238501
-0.36408
-0.358048
-0.352425
-0.346919
-0.343067
-0.340484
-0.33862
-0.336692
-0.33401
-0.330153
-0.324936
-0.318388
-0.310554
-0.301629
-0.291573
-0.280735
-0.268798
-0.256456
-0.243209
-0.22906
-0.367817
-0.360684
-0.354368
-0.348029
-0.343398
-0.339919
-0.336858
-0.333389
-0.32896
-0.323365
-0.316615
-0.308844
-0.300152
-0.290695
-0.280438
-0.269624
-0.257976
-0.24612
-0.233035
-0.22001
-0.372015
-0.363675
-0.356657
-0.349409
-0.343911
-0.339362
-0.334856
-0.329657
-0.323441
-0.316215
-0.308129
-0.299359
-0.290006
-0.280169
-0.269807
-0.259078
-0.247757
-0.236269
-0.223966
-0.211993
-0.376745
-0.367066
-0.359304
-0.351042
-0.344575
-0.338732
-0.332534
-0.325482
-0.317514
-0.308807
-0.299582
-0.290001
-0.280137
-0.27003
-0.259628
-0.249026
-0.238022
-0.227014
-0.21541
-0.204262
-0.382062
-0.370898
-0.3623
-0.352923
-0.345352
-0.337943
-0.329839
-0.320884
-0.311256
-0.301232
-0.29104
-0.2808
-0.270536
-0.260236
-0.249839
-0.239387
-0.228727
-0.218162
-0.207211
-0.196936
-0.388014
-0.375203
-0.365631
-0.355068
-0.346175
-0.336902
-0.326739
-0.315898
-0.304731
-0.29355
-0.282539
-0.271756
-0.261173
-0.250738
-0.240378
-0.230098
-0.219771
-0.209654
-0.19934
-0.18974
-0.39464
-0.379992
-0.369289
-0.357486
-0.346941
-0.335527
-0.323221
-0.310559
-0.29799
-0.285795
-0.274086
-0.26285
-0.252013
-0.241485
-0.231186
-0.221087
-0.211095
-0.201399
-0.191644
-0.182688
-0.401977
-0.385247
-0.373301
-0.360137
-0.347531
-0.333753
-0.319286
-0.304902
-0.291066
-0.277982
-0.265672
-0.254056
-0.243012
-0.232427
-0.222205
-0.212299
-0.202628
-0.193329
-0.184106
-0.1757
-0.410044
-0.39092
-0.377727
-0.362912
-0.347827
-0.331533
-0.31494
-0.298949
-0.283974
-0.270108
-0.257277
-0.245338
-0.23413
-0.223515
-0.213387
-0.203677
-0.194318
-0.185393
-0.176651
-0.16875
-0.41884
-0.396946
-0.382623
-0.365648
-0.347723
-0.328833
-0.310186
-0.292712
-0.276714
-0.262157
-0.248874
-0.236661
-0.225325
-0.214707
-0.204685
-0.195175
-0.186116
-0.17754
-0.169252
-0.161803
-0.428314
-0.403269
-0.387973
-0.368176
-0.347125
-0.325624
-0.305025
-0.286191
-0.269275
-0.254107
-0.240432
-0.227991
-0.21656
-0.205961
-0.196057
-0.186752
-0.177981
-0.169737
-0.161867
-0.154831
-0.438354
-0.409858
-0.393632
-0.370341
-0.34595
-0.321879
-0.29945
-0.279376
-0.261638
-0.245932
-0.231918
-0.219291
-0.207798
-0.19724
-0.187468
-0.17837
-0.169877
-0.161948
-0.154474
-0.147812
-0.448768
-0.416709
-0.399326
-0.372001
-0.344128
-0.31757
-0.293444
-0.272248
-0.253777
-0.237601
-0.223302
-0.21053
-0.199007
-0.188514
-0.178885
-0.169999
-0.161776
-0.15415
-0.147046
-0.140727
-0.45931
-0.423822
-0.404699
-0.373015
-0.3416
-0.312666
-0.286986
-0.264783
-0.245666
-0.229085
-0.214552
-0.201678
-0.190157
-0.179751
-0.17028
-0.161612
-0.153652
-0.14632
-0.139567
-0.13356
-0.469699
-0.431162
-0.40939
-0.373237
-0.33831
-0.307135
-0.280048
-0.256953
-0.237273
-0.220353
-0.20564
-0.192707
-0.181221
-0.170927
-0.161629
-0.153185
-0.145486
-0.13844
-0.13202
-0.1263
-0.479649
-0.438622
-0.413093
-0.372517
-0.334204
-0.300945
-0.272598
-0.248726
-0.228569
-0.211377
-0.19654
-0.183592
-0.172176
-0.162019
-0.152912
-0.144699
-0.13726
-0.130499
-0.124394
-0.11894
-0.488897
-0.445995
-0.415577
-0.370719
-0.329226
-0.294061
-0.264604
-0.240069
-0.219524
-0.20213
-0.187225
-0.174309
-0.163001
-0.153009
-0.14411
-0.13614
-0.128963
-0.122484
-0.116681
-0.111473
-0.497211
-0.452972
-0.416689
-0.367724
-0.323319
-0.286449
-0.256032
-0.230952
-0.210109
-0.192588
-0.177676
-0.164841
-0.153678
-0.14388
-0.135211
-0.127494
-0.120586
-0.114389
-0.108876
-0.1039
-0.504395
-0.459167
-0.416324
-0.363439
-0.316431
-0.278073
-0.246852
-0.221347
-0.200302
-0.18273
-0.167874
-0.155171
-0.144194
-0.13462
-0.126203
-0.118753
-0.112121
-0.106209
-0.100977
-0.0962215
-0.510278
-0.464154
-0.414404
-0.357802
-0.308516
-0.268901
-0.237036
-0.211229
-0.190081
-0.172539
-0.157805
-0.145286
-0.134538
-0.125221
-0.117078
-0.109912
-0.103566
-0.0979424
-0.0929822
-0.0884451
-0.514677
-0.467512
-0.410841
-0.350771
-0.299539
-0.258907
-0.226562
-0.200579
-0.17943
-0.162002
-0.147457
-0.135178
-0.124702
-0.115676
-0.107832
-0.100967
-0.0949185
-0.0895887
-0.0848965
-0.0805791
-0.517393
-0.468876
-0.405527
-0.342305
-0.289459
-0.248057
-0.215403
-0.189377
-0.168334
-0.151105
-0.13682
-0.124837
-0.114679
-0.10598
-0.09846
-0.0919154
-0.0861788
-0.0811534
-0.0767318
-0.0726261
-0.518445
-0.468063
-0.398394
-0.332368
-0.278237
-0.236316
-0.203533
-0.177602
-0.156776
-0.139836
-0.125883
-0.114256
-0.104462
-0.0961285
-0.088963
-0.0827584
-0.0773486
-0.0726455
-0.0685066
-0.0645843
-0.517616
-0.46482
-0.389344
-0.320929
-0.265854
-0.223668
-0.19094
-0.165246
-0.144749
-0.12819
-0.114645
-0.103434
-0.0940526
-0.0861198
-0.0793498
-0.0735048
-0.0684366
-0.0640749
-0.0602192
-0.0564751
-0.514721
-0.459005
-0.378326
-0.307972
-0.252298
-0.210101
-0.177612
-0.1523
-0.132249
-0.116167
-0.103105
-0.0923773
-0.0834567
-0.0759599
-0.0696267
-0.0641642
-0.0594642
-0.055448
-0.0518466
-0.0483334
-0.509577
-0.450518
-0.3653
-0.293486
-0.237561
-0.195603
-0.163541
-0.138761
-0.119276
-0.103778
-0.0912749
-0.0810963
-0.0726882
-0.0656748
-0.0597806
-0.054738
-0.0504322
-0.0467663
-0.0434217
-0.0401651
-0.501996
-0.439296
-0.350246
-0.277466
-0.221638
-0.180167
-0.148726
-0.124641
-0.105847
-0.0910415
-0.0791768
-0.0695907
-0.0617443
-0.0552559
-0.0498316
-0.0452356
-0.0413462
-0.0380406
-0.0349665
-0.0319818
-0.491787
-0.425305
-0.333157
-0.259914
-0.204516
-0.163801
-0.133198
-0.109972
-0.0920043
-0.0779484
-0.0667998
-0.0578713
-0.0506367
-0.0447109
-0.0397943
-0.0356697
-0.0322166
-0.0292844
-0.0264963
-0.0237996
-0.47877
-0.408533
-0.314044
-0.240829
-0.186189
-0.146554
-0.117013
-0.0947691
-0.0777209
-0.0645168
-0.0541595
-0.0459531
-0.0393793
-0.0340542
-0.0296806
-0.0260536
-0.0230563
-0.0205117
-0.0180249
-0.0156355
-0.462788
-0.388988
-0.292928
-0.220233
-0.166708
-0.128514
-0.100147
-0.0790297
-0.0630227
-0.0507681
-0.0412761
-0.0338531
-0.0279881
-0.0233021
-0.0195047
-0.0164016
-0.0138796
-0.0117373
-0.00956678
-0.00750656
-0.443717
-0.366688
-0.269821
-0.198203
-0.146245
-0.109586
-0.0826268
-0.0627863
-0.0479382
-0.0367269
-0.0281724
-0.0215913
-0.0164815
-0.0124724
-0.00928244
-0.00672915
-0.00470189
-0.00297636
-0.00113797
0.000570312
-0.421475
-0.341695
-0.244712
-0.174891
-0.124764
-0.0898389
-0.0644905
-0.0460762
-0.0325
-0.0224212
-0.0148739
-0.00919033
-0.00488017
-0.00158397
0.000968328
0.00294699
0.00446082
0.00575461
0.00724352
0.00857757
-0.39603
-0.314163
-0.217618
-0.150331
-0.102297
-0.0693383
-0.0457853
-0.0289411
-0.0167447
-0.00788282
-0.00140905
0.00332466
0.00679323
0.00934241
0.0112286
0.0126091
0.0135915
0.0144377
0.0155575
0.0164963
-0.367404
-0.284321
-0.188759
-0.124368
-0.0789067
-0.0481548
-0.0265663
-0.0114274
-0.00071316
0.00685276
0.012191
0.0159259
0.018514
0.0202846
0.0214781
0.0222388
0.0226733
0.0230554
0.0237837
0.0243067
-0.335671
-0.252194
-0.158239
-0.0971793
-0.0546698
-0.0263611
-0.00689547
0.00641311
0.0155499
0.0217465
0.025892
0.0285834
0.0302557
0.0312187
0.0316951
0.0318169
0.0316901
0.0315937
0.0319063
0.031991
-0.300986
-0.217259
-0.126655
-0.0689485
-0.0296751
-0.00403428
0.0131595
0.0245234
0.0319955
0.0367559
0.0396572
0.041265
0.0419898
0.042119
0.0418562
0.0413231
0.0406273
0.0400436
0.0399171
0.0395371
-0.263587
-0.179874
-0.0938363
-0.0398397
-0.00402779
0.0187421
0.0335257
0.0428418
0.0485708
0.0518356
0.0534472
0.0539363
0.0536861
0.0529584
0.0519365
0.0507363
0.0494703
0.0483956
0.0478038
0.0469294
-0.223545
-0.140534
-0.0598099
-0.00999476
0.0221543
0.0418766
0.0541251
0.0613018
0.0652194
0.066937
0.0672201
0.0665612
0.0653129
0.0637083
0.0619113
0.0600375
0.0582045
0.056627
0.0555141
0.0540992
-0.180548
-0.100237
-0.0247561
0.0204524
0.0487469
0.0652703
0.0748745
0.0798333
0.0818815
0.0820092
0.0809323
0.0791021
0.0768371
0.0743404
0.0717586
0.0692131
0.0668174
0.064696
0.0629287
0.060845
-0.135352
-0.0589401
0.0110987
0.0513557
0.0756192
0.0888172
0.0956864
0.0983626
0.0984951
0.0969995
0.0945386
0.0915197
0.0882248
0.0848264
0.0814591
0.0782528
0.0752957
0.0725529
0.0699146
0.0669372
-0.0882175
-0.0167523
0.0475168
0.0825512
0.102635
0.112406
0.116469
0.116814
0.114996
0.111854
0.107993
0.103774
0.0994413
0.0951384
0.0909923
0.087138
0.0836086
0.0801548
0.0764841
0.0727213
-0.0393612
0.0261248
0.0842711
0.113874
0.129658
0.135926
0.137131
0.135109
0.131319
0.126515
0.121246
0.115823
0.110451
0.105247
0.100333
0.0958323
0.0916982
0.0874843
0.0828664
0.0795087
0.0104082
0.0693909
0.121144
0.145166
0.156558
0.159265
0.157577
0.153168
0.147395
0.140926
0.134249
0.127623
0.121217
0.115123
0.109451
0.104294
0.0995148
0.0945967
0.0894487
0.0863563
0.0607484
0.112779
0.157895
0.176236
0.183181
0.1823
0.177707
0.170908
0.163154
0.155027
0.14695
0.139132
0.131704
0.124734
0.118314
0.112495
0.107071
0.101552
0.0960686
0.0929482
0.111253
0.155974
0.194285
0.2069
0.209378
0.20491
0.19742
0.188245
0.178527
0.168758
0.159298
0.150306
0.141873
0.134045
0.126888
0.120408
0.114368
0.108341
0.102574
0.0992001
0.161497
0.198665
0.230072
0.236968
0.235001
0.226973
0.216615
0.205095
0.193443
0.18206
0.171244
0.161101
0.151688
0.143023
0.135143
0.128017
0.121399
0.114922
0.108867
0.105141
0.211052
0.240535
0.265017
0.266255
0.259898
0.248367
0.235194
0.221376
0.207832
0.194874
0.182736
0.171474
0.16111
0.151634
0.14305
0.135301
0.128143
0.121251
0.114899
0.11078
0.259498
0.281275
0.298886
0.294575
0.283922
0.268971
0.253057
0.237005
0.221625
0.207142
0.193726
0.181384
0.170103
0.159843
0.150582
0.142238
0.134573
0.127292
0.120643
0.116126
0.306422
0.320582
0.331446
0.321746
0.306928
0.288669
0.270107
0.251902
0.234756
0.218806
0.204163
0.190787
0.178629
0.16762
0.157712
0.148804
0.140663
0.133017
0.12608
0.121177
0.351424
0.358161
0.362475
0.347592
0.328775
0.307346
0.286251
0.26599
0.247158
0.229812
0.214002
0.199643
0.186652
0.174934
0.164413
0.154974
0.146387
0.138398
0.131194
0.125925
0.394125
0.393729
0.391757
0.371944
0.349327
0.324892
0.301399
0.279193
0.25877
0.240107
0.223197
0.207913
0.19414
0.181755
0.170659
0.160722
0.151719
0.143416
0.135971
0.130361
0.434176
0.427005
0.419089
0.394639
0.368456
0.341203
0.315466
0.291441
0.269532
0.249639
0.231705
0.21556
0.201059
0.188054
0.176425
0.166026
0.156638
0.148049
0.140387
0.134451
0.471254
0.457723
0.444275
0.415527
0.386041
0.356182
0.32837
0.302668
0.279388
0.258363
0.239486
0.222549
0.207379
0.193806
0.181687
0.170863
0.161125
0.152276
0.144411
0.13814
0.505049
0.485644
0.467137
0.434466
0.40197
0.369738
0.340039
0.312811
0.288287
0.266234
0.246502
0.228847
0.213073
0.198984
0.186422
0.175216
0.165164
0.156082
0.14802
0.141434
0.535278
0.510554
0.487512
0.451329
0.41614
0.381787
0.350403
0.321814
0.29618
0.273213
0.25272
0.234427
0.218114
0.203568
0.190611
0.179067
0.168739
0.15945
0.151208
0.144338
0.561684
0.532265
0.505254
0.466001
0.428461
0.392257
0.359403
0.329628
0.303027
0.279263
0.258107
0.239259
0.222479
0.207535
0.194237
0.182399
0.171831
0.162365
0.153967
0.146853
0.584044
0.550612
0.520236
0.478383
0.438852
0.401082
0.366986
0.336207
0.308791
0.284353
0.262639
0.243323
0.226149
0.21087
0.197283
0.185198
0.174429
0.164814
0.156287
0.148968
0.602166
0.565457
0.532352
0.488391
0.447246
0.408207
0.373105
0.341516
0.313439
0.288458
0.266292
0.246598
0.229105
0.213555
0.199736
0.187451
0.176522
0.166786
0.158157
0.150673
0.615897
0.576688
0.541514
0.495954
0.453589
0.413589
0.377726
0.345523
0.316947
0.291554
0.269047
0.249067
0.231334
0.21558
0.201586
0.18915
0.178099
0.168274
0.159568
0.15196
0.625119
0.584222
0.547656
0.501023
0.457838
0.417194
0.380821
0.348206
0.319295
0.293627
0.270891
0.25072
0.232826
0.216935
0.202823
0.190287
0.179154
0.169269
0.160513
0.152822
0.629752
0.588002
0.550737
0.503566
0.459969
0.419002
0.382372
0.349551
0.320472
0.294666
0.271815
0.251549
0.233574
0.217614
0.203443
0.190857
0.179683
0.169768
0.160986
0.153254
0.629752
0.588002
0.550737
0.503566
0.459969
0.419002
0.382372
0.349551
0.320472
0.294666
0.271815
0.251549
0.233574
0.217614
0.203443
0.190857
0.179683
0.169768
0.160986
0.153254
0.625119
0.584222
0.547656
0.501023
0.457838
0.417194
0.380821
0.348206
0.319295
0.293627
0.270891
0.25072
0.232826
0.216935
0.202823
0.190287
0.179154
0.169269
0.160513
0.152822
0.615897
0.576688
0.541514
0.495954
0.453589
0.413589
0.377726
0.345523
0.316947
0.291554
0.269047
0.249067
0.231334
0.21558
0.201586
0.18915
0.178099
0.168274
0.159568
0.15196
0.602166
0.565457
0.532352
0.488391
0.447246
0.408207
0.373105
0.341516
0.313439
0.288458
0.266292
0.246598
0.229105
0.213555
0.199736
0.187451
0.176522
0.166786
0.158157
0.150673
0.584044
0.550612
0.520236
0.478383
0.438852
0.401082
0.366986
0.336207
0.308791
0.284353
0.262639
0.243323
0.226149
0.21087
0.197283
0.185198
0.174429
0.164814
0.156287
0.148968
0.561684
0.532265
0.505254
0.466001
0.428461
0.392257
0.359403
0.329628
0.303027
0.279263
0.258107
0.239259
0.222479
0.207535
0.194237
0.182399
0.171831
0.162365
0.153967
0.146853
0.535278
0.510554
0.487512
0.451329
0.41614
0.381787
0.350403
0.321814
0.29618
0.273213
0.25272
0.234427
0.218114
0.203568
0.190611
0.179067
0.168739
0.15945
0.151208
0.144338
0.505049
0.485644
0.467137
0.434466
0.40197
0.369738
0.340039
0.312811
0.288287
0.266234
0.246502
0.228847
0.213073
0.198984
0.186422
0.175216
0.165164
0.156082
0.14802
0.141434
0.471254
0.457723
0.444275
0.415527
0.386041
0.356182
0.32837
0.302668
0.279388
0.258363
0.239486
0.222549
0.207379
0.193806
0.181687
0.170863
0.161125
0.152276
0.144411
0.13814
0.434176
0.427005
0.419089
0.394639
0.368456
0.341203
0.315466
0.291441
0.269532
0.249639
0.231705
0.21556
0.201059
0.188054
0.176425
0.166025
0.156638
0.148049
0.140387
0.134451
0.394125
0.393729
0.391757
0.371944
0.349327
0.324892
0.301399
0.279193
0.25877
0.240107
0.223197
0.207913
0.19414
0.181755
0.170659
0.160722
0.151719
0.143416
0.135971
0.130361
0.351424
0.358161
0.362475
0.347592
0.328775
0.307346
0.286251
0.26599
0.247158
0.229812
0.214002
0.199643
0.186652
0.174934
0.164413
0.154974
0.146387
0.138398
0.131194
0.125925
0.306422
0.320582
0.331446
0.321746
0.306928
0.288669
0.270107
0.251902
0.234756
0.218806
0.204163
0.190787
0.178629
0.16762
0.157712
0.148804
0.140663
0.133017
0.12608
0.121177
0.259498
0.281275
0.298886
0.294575
0.283922
0.268971
0.253057
0.237005
0.221625
0.207142
0.193726
0.181384
0.170103
0.159843
0.150582
0.142238
0.134573
0.127292
0.120643
0.116126
0.211052
0.240535
0.265017
0.266255
0.259898
0.248367
0.235194
0.221376
0.207832
0.194874
0.182736
0.171474
0.16111
0.151634
0.14305
0.135301
0.128143
0.121251
0.114899
0.11078
0.161497
0.198665
0.230072
0.236968
0.235001
0.226973
0.216615
0.205095
0.193443
0.18206
0.171244
0.161101
0.151688
0.143023
0.135143
0.128017
0.121399
0.114922
0.108867
0.105141
0.111253
0.155974
0.194285
0.2069
0.209378
0.20491
0.19742
0.188245
0.178527
0.168758
0.159298
0.150306
0.141873
0.134045
0.126888
0.120408
0.114368
0.108341
0.102574
0.0992001
0.0607484
0.112779
0.157895
0.176236
0.183181
0.1823
0.177707
0.170908
0.163154
0.155027
0.14695
0.139132
0.131704
0.124734
0.118314
0.112495
0.107071
0.101552
0.0960686
0.0929482
0.0104081
0.0693909
0.121144
0.145166
0.156558
0.159265
0.157577
0.153168
0.147395
0.140926
0.134249
0.127623
0.121217
0.115123
0.109451
0.104294
0.0995148
0.0945967
0.0894487
0.0863563
-0.0393612
0.0261248
0.0842711
0.113874
0.129658
0.135926
0.137131
0.135109
0.131319
0.126515
0.121246
0.115823
0.110451
0.105247
0.100333
0.0958323
0.0916982
0.0874843
0.0828664
0.0795087
-0.0882175
-0.0167524
0.0475168
0.0825512
0.102635
0.112406
0.116469
0.116814
0.114996
0.111854
0.107993
0.103774
0.0994413
0.0951384
0.0909923
0.0871379
0.0836086
0.0801548
0.0764841
0.0727213
-0.135352
-0.0589402
0.0110987
0.0513557
0.0756192
0.0888172
0.0956864
0.0983626
0.0984951
0.0969995
0.0945386
0.0915197
0.0882248
0.0848264
0.081459
0.0782528
0.0752957
0.0725529
0.0699146
0.0669372
-0.180548
-0.100237
-0.0247561
0.0204524
0.0487469
0.0652703
0.0748745
0.0798333
0.0818815
0.0820092
0.0809323
0.0791021
0.0768371
0.0743404
0.0717586
0.0692131
0.0668174
0.064696
0.0629287
0.060845
-0.223545
-0.140534
-0.0598099
-0.00999477
0.0221543
0.0418766
0.0541251
0.0613018
0.0652193
0.066937
0.0672201
0.0665612
0.0653129
0.0637083
0.0619113
0.0600375
0.0582045
0.056627
0.0555141
0.0540992
-0.263587
-0.179874
-0.0938364
-0.0398397
-0.0040278
0.0187421
0.0335257
0.0428418
0.0485708
0.0518356
0.0534472
0.0539363
0.0536861
0.0529584
0.0519365
0.0507363
0.0494703
0.0483956
0.0478038
0.0469294
-0.300986
-0.217259
-0.126655
-0.0689485
-0.0296751
-0.00403429
0.0131595
0.0245234
0.0319955
0.0367559
0.0396572
0.041265
0.0419898
0.042119
0.0418562
0.0413231
0.0406273
0.0400436
0.0399171
0.0395371
-0.335671
-0.252194
-0.158239
-0.0971793
-0.0546698
-0.0263611
-0.00689548
0.00641311
0.0155499
0.0217465
0.025892
0.0285834
0.0302557
0.0312187
0.0316951
0.0318169
0.0316901
0.0315937
0.0319062
0.031991
-0.367404
-0.284321
-0.188759
-0.124368
-0.0789067
-0.0481548
-0.0265663
-0.0114274
-0.000713166
0.00685275
0.012191
0.0159259
0.018514
0.0202846
0.021478
0.0222388
0.0226733
0.0230554
0.0237837
0.0243067
-0.39603
-0.314163
-0.217618
-0.150331
-0.102297
-0.0693384
-0.0457853
-0.0289411
-0.0167447
-0.00788283
-0.00140905
0.00332465
0.00679322
0.00934241
0.0112286
0.0126091
0.0135915
0.0144377
0.0155575
0.0164963
-0.421475
-0.341695
-0.244712
-0.174891
-0.124764
-0.0898389
-0.0644905
-0.0460762
-0.0325
-0.0224212
-0.0148739
-0.00919033
-0.00488018
-0.00158397
0.000968324
0.00294698
0.00446081
0.00575461
0.00724352
0.00857756
-0.443717
-0.366688
-0.269821
-0.198203
-0.146245
-0.109586
-0.0826268
-0.0627863
-0.0479382
-0.0367269
-0.0281724
-0.0215913
-0.0164815
-0.0124724
-0.00928244
-0.00672916
-0.00470189
-0.00297636
-0.00113797
0.000570307
-0.462788
-0.388988
-0.292928
-0.220233
-0.166708
-0.128514
-0.100147
-0.0790297
-0.0630228
-0.0507681
-0.0412761
-0.0338532
-0.0279881
-0.0233021
-0.0195047
-0.0164016
-0.0138796
-0.0117373
-0.00956679
-0.00750656
-0.47877
-0.408533
-0.314044
-0.240829
-0.186189
-0.146554
-0.117013
-0.0947691
-0.0777209
-0.0645168
-0.0541595
-0.0459531
-0.0393793
-0.0340542
-0.0296806
-0.0260536
-0.0230563
-0.0205117
-0.0180249
-0.0156355
-0.491787
-0.425305
-0.333157
-0.259914
-0.204516
-0.163801
-0.133198
-0.109972
-0.0920043
-0.0779484
-0.0667998
-0.0578713
-0.0506367
-0.0447109
-0.0397943
-0.0356697
-0.0322166
-0.0292844
-0.0264963
-0.0237996
-0.501996
-0.439296
-0.350246
-0.277466
-0.221638
-0.180167
-0.148726
-0.124641
-0.105847
-0.0910415
-0.0791768
-0.0695907
-0.0617443
-0.0552559
-0.0498316
-0.0452356
-0.0413462
-0.0380406
-0.0349665
-0.0319819
-0.509577
-0.450518
-0.3653
-0.293486
-0.237561
-0.195603
-0.163541
-0.138761
-0.119276
-0.103778
-0.0912749
-0.0810963
-0.0726882
-0.0656748
-0.0597806
-0.054738
-0.0504322
-0.0467663
-0.0434217
-0.0401651
-0.514721
-0.459005
-0.378326
-0.307972
-0.252298
-0.210101
-0.177612
-0.1523
-0.132249
-0.116167
-0.103105
-0.0923773
-0.0834567
-0.0759599
-0.0696267
-0.0641642
-0.0594642
-0.055448
-0.0518466
-0.0483334
-0.517616
-0.46482
-0.389344
-0.320929
-0.265854
-0.223668
-0.19094
-0.165246
-0.144749
-0.12819
-0.114645
-0.103434
-0.0940527
-0.0861199
-0.0793498
-0.0735048
-0.0684366
-0.0640749
-0.0602192
-0.0564751
-0.518445
-0.468063
-0.398394
-0.332368
-0.278237
-0.236316
-0.203533
-0.177602
-0.156776
-0.139836
-0.125883
-0.114256
-0.104462
-0.0961285
-0.088963
-0.0827584
-0.0773486
-0.0726455
-0.0685066
-0.0645843
-0.517393
-0.468876
-0.405527
-0.342305
-0.289459
-0.248057
-0.215403
-0.189377
-0.168334
-0.151105
-0.13682
-0.124837
-0.114679
-0.10598
-0.09846
-0.0919154
-0.0861788
-0.0811534
-0.0767318
-0.0726261
-0.514677
-0.467512
-0.410841
-0.350771
-0.299539
-0.258907
-0.226562
-0.200579
-0.17943
-0.162002
-0.147457
-0.135178
-0.124702
-0.115676
-0.107832
-0.100967
-0.0949185
-0.0895887
-0.0848965
-0.0805791
-0.510278
-0.464154
-0.414404
-0.357802
-0.308516
-0.268901
-0.237036
-0.211229
-0.190081
-0.172539
-0.157805
-0.145286
-0.134538
-0.125221
-0.117078
-0.109913
-0.103566
-0.0979424
-0.0929822
-0.0884451
-0.504395
-0.459167
-0.416324
-0.363439
-0.316431
-0.278073
-0.246852
-0.221347
-0.200302
-0.18273
-0.167874
-0.155171
-0.144194
-0.13462
-0.126203
-0.118753
-0.112121
-0.106209
-0.100977
-0.0962215
-0.497211
-0.452972
-0.416689
-0.367724
-0.323319
-0.286449
-0.256032
-0.230952
-0.210109
-0.192588
-0.177676
-0.164841
-0.153678
-0.14388
-0.135211
-0.127494
-0.120586
-0.114389
-0.108876
-0.1039
-0.488897
-0.445995
-0.415577
-0.370719
-0.329226
-0.294061
-0.264604
-0.240069
-0.219524
-0.20213
-0.187225
-0.174309
-0.163001
-0.153009
-0.14411
-0.13614
-0.128964
-0.122484
-0.116681
-0.111473
-0.479649
-0.438622
-0.413093
-0.372517
-0.334204
-0.300945
-0.272598
-0.248726
-0.228569
-0.211377
-0.19654
-0.183592
-0.172176
-0.162019
-0.152912
-0.144699
-0.13726
-0.130499
-0.124394
-0.11894
-0.469699
-0.431162
-0.40939
-0.373237
-0.33831
-0.307135
-0.280048
-0.256953
-0.237273
-0.220353
-0.20564
-0.192707
-0.181221
-0.170927
-0.161629
-0.153185
-0.145486
-0.13844
-0.13202
-0.1263
-0.45931
-0.423822
-0.404699
-0.373015
-0.3416
-0.312666
-0.286986
-0.264783
-0.245666
-0.229085
-0.214552
-0.201678
-0.190157
-0.179751
-0.17028
-0.161612
-0.153652
-0.14632
-0.139567
-0.13356
-0.448768
-0.416709
-0.399326
-0.372001
-0.344128
-0.31757
-0.293444
-0.272248
-0.253777
-0.237601
-0.223302
-0.21053
-0.199007
-0.188514
-0.178885
-0.169999
-0.161776
-0.15415
-0.147046
-0.140727
-0.438354
-0.409858
-0.393632
-0.370341
-0.34595
-0.321879
-0.29945
-0.279376
-0.261638
-0.245932
-0.231918
-0.219291
-0.207798
-0.19724
-0.187468
-0.17837
-0.169877
-0.161948
-0.154474
-0.147812
-0.428314
-0.403269
-0.387973
-0.368176
-0.347125
-0.325624
-0.305025
-0.286191
-0.269275
-0.254107
-0.240432
-0.227991
-0.21656
-0.205961
-0.196057
-0.186752
-0.177981
-0.169737
-0.161868
-0.154831
-0.41884
-0.396946
-0.382623
-0.365648
-0.347723
-0.328833
-0.310186
-0.292712
-0.276714
-0.262157
-0.248874
-0.236661
-0.225325
-0.214707
-0.204685
-0.195175
-0.186116
-0.17754
-0.169252
-0.161803
-0.410044
-0.39092
-0.377727
-0.362912
-0.347827
-0.331533
-0.31494
-0.298949
-0.283974
-0.270108
-0.257277
-0.245338
-0.23413
-0.223515
-0.213387
-0.203677
-0.194318
-0.185393
-0.176651
-0.16875
-0.401977
-0.385247
-0.373301
-0.360137
-0.347531
-0.333753
-0.319286
-0.304902
-0.291066
-0.277982
-0.265672
-0.254056
-0.243012
-0.232427
-0.222205
-0.212299
-0.202628
-0.193329
-0.184106
-0.1757
-0.39464
-0.379992
-0.369289
-0.357486
-0.346941
-0.335527
-0.323221
-0.310559
-0.29799
-0.285795
-0.274086
-0.262851
-0.252013
-0.241485
-0.231186
-0.221087
-0.211095
-0.201399
-0.191644
-0.182688
-0.388014
-0.375203
-0.365631
-0.355068
-0.346175
-0.336902
-0.326739
-0.315898
-0.304731
-0.29355
-0.282539
-0.271756
-0.261173
-0.250738
-0.240378
-0.230098
-0.219771
-0.209654
-0.19934
-0.18974
-0.382062
-0.370898
-0.3623
-0.352923
-0.345352
-0.337943
-0.329839
-0.320884
-0.311256
-0.301232
-0.29104
-0.2808
-0.270536
-0.260236
-0.249839
-0.239387
-0.228727
-0.218162
-0.207211
-0.196936
-0.376745
-0.367066
-0.359304
-0.351042
-0.344575
-0.338732
-0.332534
-0.325482
-0.317514
-0.308807
-0.299582
-0.290001
-0.280137
-0.27003
-0.259628
-0.249026
-0.238022
-0.227014
-0.215411
-0.204262
-0.372015
-0.363675
-0.356657
-0.349409
-0.343911
-0.339362
-0.334856
-0.329657
-0.323441
-0.316215
-0.308129
-0.299359
-0.290006
-0.280169
-0.269807
-0.259078
-0.247758
-0.236269
-0.223966
-0.211993
-0.367817
-0.360684
-0.354368
-0.348029
-0.343398
-0.339919
-0.336858
-0.333389
-0.32896
-0.323365
-0.316615
-0.308844
-0.300152
-0.290695
-0.280438
-0.269624
-0.257976
-0.24612
-0.233035
-0.22001
-0.36408
-0.358048
-0.352425
-0.346919
-0.343067
-0.340484
-0.33862
-0.336692
-0.33401
-0.330153
-0.324936
-0.318388
-0.310554
-0.301629
-0.291573
-0.280735
-0.268798
-0.256456
-0.243209
-0.22906
-0.360761
-0.355713
-0.350772
-0.346055
-0.342906
-0.341085
-0.340198
-0.339587
-0.338532
-0.336452
-0.332943
-0.327867
-0.321142
-0.312959
-0.303256
-0.292455
-0.280359
-0.267397
-0.254227
-0.238501
-0.357781
-0.35363
-0.349372
-0.345428
-0.342932
-0.341768
-0.34167
-0.342136
-0.342517
-0.342157
-0.340464
-0.337098
-0.331776
-0.324606
-0.315496
-0.304817
-0.292706
-0.279019
-0.265412
-0.248322
-0.355065
-0.351747
-0.34817
-0.344998
-0.343135
-0.34256
-0.343105
-0.344425
-0.346001
-0.347203
-0.347333
-0.345846
-0.342239
-0.336398
-0.328218
-0.317822
-0.305804
-0.291428
-0.276874
-0.258585
-0.352547
-0.350011
-0.34711
-0.344711
-0.34348
-0.343457
-0.344548
-0.34654
-0.349066
-0.351594
-0.353428
-0.35387
-0.352236
-0.348057
-0.341219
-0.331403
-0.31961
-0.304718
-0.289004
-0.269502
-0.350167
-0.348374
-0.346135
-0.344503
-0.343909
-0.34443
-0.346015
-0.348552
-0.351817
-0.355404
-0.358717
-0.360983
-0.361439
-0.359208
-0.354142
-0.345348
-0.334038
-0.318909
-0.30209
-0.281308
-0.347868
-0.346796
-0.345191
-0.344313
-0.344355
-0.345425
-0.347486
-0.350501
-0.354351
-0.358758
-0.363263
-0.367123
-0.369584
-0.369449
-0.366493
-0.359241
-0.348841
-0.333867
-0.316217
-0.294146
-0.345609
-0.345246
-0.344234
-0.344081
-0.34475
-0.346371
-0.348913
-0.352378
-0.356725
-0.361777
-0.367201
-0.372363
-0.376549
-0.378469
-0.377745
-0.372472
-0.363514
-0.349205
-0.331214
-0.308005
-0.343363
-0.343694
-0.343235
-0.34376
-0.34503
-0.347195
-0.350221
-0.354137
-0.358941
-0.364533
-0.370667
-0.376854
-0.382388
-0.386148
-0.387498
-0.384396
-0.377339
-0.364204
-0.346562
-0.322614
-0.341113
-0.34213
-0.342173
-0.343315
-0.345142
-0.34783
-0.351335
-0.355702
-0.360953
-0.367028
-0.373739
-0.38073
-0.387265
-0.392539
-0.395603
-0.394538
-0.389615
-0.377912
-0.361407
-0.337278
-0.338864
-0.340557
-0.341037