/*--------------------------------*- C++ -*----------------------------------*\
  =========                 |
  \\      /  F ield         | OpenFOAM: The Open Source CFD Toolbox
   \\    /   O peration     | Website:  https://openfoam.org
    \\  /    A nd           | Version:  7
     \\/     M anipulation  |
\*---------------------------------------------------------------------------*/
FoamFile
{
    version     2.0;
    format      ascii;
    class       volVectorField;
    location    "10";
    object      U;
}
// * * * * * * * * * * * * * * * * * * * * * * * * * * * * * * * * * * * * * //

dimensions      [0 1 -1 0 0 0 0];

internalField   nonuniform List<vector> 
12100
(
(-0.0091488 0.00348769 -2.25395e-20)
(-0.0385084 0.0059851 -2.68255e-20)
(-0.0788012 0.00686692 3.3205e-21)
(-0.116184 0.00715825 -8.52929e-21)
(-0.15259 0.00729095 4.15823e-20)
(-0.187137 0.00744489 1.31977e-20)
(-0.22065 0.00765287 -1.85495e-20)
(-0.2534 0.00789631 2.00417e-20)
(-0.285595 0.00813251 -2.78482e-20)
(-0.317176 0.00830595 1.64782e-20)
(-0.347871 0.00835052 8.73091e-21)
(-0.377165 0.00819001 3.21364e-21)
(-0.404311 0.00773987 -1.07155e-20)
(-0.428339 0.00691572 -6.23354e-21)
(-0.448029 0.00561272 -4.12443e-21)
(-0.462034 0.00378779 1.72068e-20)
(-0.468657 0.00131837 -2.00829e-20)
(-0.466244 -0.00193484 -4.15338e-21)
(-0.454423 -0.00500861 4.6511e-21)
(-0.427489 -0.0100288 -1.2809e-20)
(-0.00943393 0.0103615 1.14292e-21)
(-0.0384974 0.0178143 -1.6933e-20)
(-0.0779863 0.0204523 -3.52238e-20)
(-0.114349 0.021315 2.84161e-20)
(-0.149467 0.0216923 1.81859e-20)
(-0.182424 0.0221228 2.82253e-21)
(-0.213976 0.0227064 5.36801e-20)
(-0.244328 0.0233885 -8.74234e-20)
(-0.273618 0.0240418 5.40501e-20)
(-0.301711 0.0245009 -4.29219e-20)
(-0.328264 0.0245702 5.12883e-21)
(-0.3527 0.024026 -2.59642e-20)
(-0.374216 0.0226211 9.54401e-21)
(-0.391841 0.0201203 1.95591e-20)
(-0.404341 0.0162116 3.30054e-20)
(-0.410519 0.0107853 2.00636e-20)
(-0.408922 0.00359066 5.54418e-20)
(-0.397207 -0.00624345 4.99741e-21)
(-0.378122 -0.0148565 -4.33385e-20)
(-0.339193 -0.0301248 2.96853e-20)
(-0.00999271 0.0169391 -6.42042e-21)
(-0.0384862 0.0292288 -2.42655e-20)
(-0.0764028 0.0335986 3.4513e-20)
(-0.110766 0.0349997 2.66338e-20)
(-0.143364 0.0355618 -9.0061e-20)
(-0.173225 0.0361786 1.18081e-20)
(-0.200979 0.037022 -9.01755e-20)
(-0.226719 0.0380051 7.40563e-21)
(-0.250459 0.0389194 -2.07374e-20)
(-0.271953 0.0394942 4.25858e-20)
(-0.290753 0.039412 -1.30845e-20)
(-0.306202 0.0383172 1.55889e-20)
(-0.317445 0.0358153 -1.60461e-20)
(-0.323567 0.0315711 -3.11059e-20)
(-0.323337 0.0250766 -3.63795e-20)
(-0.315773 0.0161843 -4.49278e-20)
(-0.300467 0.00495854 -9.04768e-20)
(-0.272138 -0.0114704 3.28247e-20)
(-0.242834 -0.0244849 2.70738e-20)
(-0.183011 -0.049868 8.06307e-20)
(-0.0108036 0.0230431 3.23073e-20)
(-0.0384955 0.0399704 1.28463e-19)
(-0.0741398 0.0460264 -4.16776e-20)
(-0.105602 0.047912 -8.50524e-20)
(-0.134555 0.0485642 -4.92946e-20)
(-0.159969 0.0492267 6.88376e-20)
(-0.182317 0.0501511 8.66979e-20)
(-0.201557 0.0512255 -6.25623e-21)
(-0.217572 0.0521678 -1.84073e-21)
(-0.230006 0.0526117 -1.22318e-19)
(-0.238329 0.0521325 -5.91673e-20)
(-0.241862 0.0502677 2.80442e-20)
(-0.239736 0.0464926 3.35753e-21)
(-0.23124 0.040442 2.85543e-20)
(-0.215207 0.0314407 -8.75289e-20)
(-0.190543 0.0192921 3.42665e-20)
(-0.159869 0.00485475 5.03776e-20)
(-0.110232 -0.0174455 5.70204e-20)
(-0.072125 -0.03562 -3e-20)
(0.0134841 -0.0666256 -6.59347e-20)
(-0.0118369 0.028522 -8.80109e-20)
(-0.0385536 0.0498053 -2.50815e-20)
(-0.0713215 0.0574749 7.47194e-20)
(-0.0990891 0.05977 3.89105e-20)
(-0.123419 0.0603901 1.91313e-19)
(-0.143242 0.0609194 -1.78268e-19)
(-0.158873 0.0617003 -1.00942e-19)
(-0.170145 0.0626077 -4.88826e-21)
(-0.176836 0.0632991 -2.06528e-21)
(-0.178525 0.0633283 2.48816e-20)
(-0.174663 0.0621844 3.75619e-20)
(-0.164647 0.0593331 -1.02676e-19)
(-0.147645 0.0541346 1.26734e-19)
(-0.123327 0.0462651 6.59642e-20)
(-0.0907522 0.0348975 1.0366e-19)
(-0.0478282 0.0200626 -2.47088e-21)
(-0.00301916 0.0015385 -2.5106e-20)
(0.0690496 -0.0229944 2.87828e-21)
(0.113937 -0.0483188 -3.63762e-20)
(0.226635 -0.0806568 -6.32452e-20)
(-0.0130579 0.033258 5.72755e-20)
(-0.0386942 0.0585321 4.64192e-21)
(-0.068097 0.0677084 -1.39288e-19)
(-0.0915068 0.0703172 -6.8801e-20)
(-0.110406 0.0707629 -2.25815e-19)
(-0.123728 0.0709571 -8.00705e-21)
(-0.131657 0.0713446 -1.16524e-20)
(-0.133938 0.0718038 -2.00523e-20)
(-0.130293 0.0719497 9.19725e-21)
(-0.120303 0.0712786 2.54804e-20)
(-0.103468 0.06922 2.07357e-19)
(-0.0793765 0.0652022 -9.63904e-22)
(-0.0472417 0.0585006 7.6543e-20)
(-0.00721892 0.0488669 -1.89459e-19)
(0.0412503 0.0351098 2.44334e-20)
(0.101648 0.0186242 -3.96452e-20)
(0.158888 -0.00506959 -3.15233e-20)
(0.253524 -0.0289944 2.9545e-20)
(0.301128 -0.060261 -6.3835e-20)
(0.441295 -0.0940928 6.19185e-20)
(-0.0144301 0.0371723 -1.46731e-19)
(-0.0389524 0.0659892 -2.58029e-19)
(-0.0646271 0.0765231 9.26012e-20)
(-0.0831549 0.079328 -2.5745e-20)
(-0.0959908 0.0794452 2.03305e-19)
(-0.102138 0.0790939 1.96516e-19)
(-0.10169 0.078834 -6.79178e-20)
(-0.094359 0.0785658 9.49542e-20)
(-0.079866 0.0778849 -1.315e-19)
(-0.0578591 0.0762558 1.58497e-20)
(-0.0279358 0.0730818 -4.28627e-20)
(0.0100566 0.06775 6.79771e-20)
(0.0568861 0.0595148 -2.72148e-21)
(0.111835 0.04833 -6.59806e-20)
(0.175219 0.0319843 1.74059e-19)
(0.252091 0.0149208 -6.80864e-20)
(0.320713 -0.0132998 -5.74567e-20)
(0.435283 -0.036716 8.91511e-20)
(0.486299 -0.0717364 3.29469e-20)
(0.647565 -0.105894 1.38549e-19)
(-0.0159184 0.0402279 1.08697e-19)
(-0.0393609 0.0720597 1.18804e-19)
(-0.0610694 0.083752 8.19433e-20)
(-0.0743267 0.0866126 2.91292e-19)
(-0.0806324 0.0862422 -6.46391e-20)
(-0.07913 0.0851421 9.83743e-20)
(-0.0698806 0.0839974 1.28892e-19)
(-0.0526098 0.0827505 -1.63131e-19)
(-0.0270845 0.081003 4.00165e-19)
(0.0069486 0.0782106 5.6121e-21)
(0.0497771 0.0737827 -2.6478e-19)
(0.101303 0.0670773 -2.75455e-20)
(0.162407 0.0573149 -2.68006e-19)
(0.231664 0.0449774 1.29197e-19)
(0.309775 0.0261064 -9.71243e-20)
(0.401279 0.00906005 1.02151e-19)
(0.483641 -0.0224206 1.42771e-19)
(0.611025 -0.0451234 5.42127e-20)
(0.670218 -0.0824066 -1.49752e-19)
(0.839917 -0.114291 -1.24287e-19)
(-0.0174927 0.0424287 -5.34659e-20)
(-0.0399446 0.0766741 3.11939e-20)
(-0.0575609 0.0892707 -2.49019e-19)
(-0.0652769 0.0920223 -1.42418e-19)
(-0.0647145 0.0910068 -1.13841e-19)
(-0.0552271 0.0889759 -6.36898e-20)
(-0.03689 0.0867474 -3.14398e-19)
(-0.00947272 0.0843267 5.71858e-20)
(0.0272026 0.0813465 -3.27126e-19)
(0.0733075 0.0772759 -9.47197e-20)
(0.12906 0.0715625 6.16647e-20)
(0.194162 0.0635891 1.14289e-19)
(0.269693 0.0524582 -3.5477e-20)
(0.353336 0.0393565 1.37587e-19)
(0.447055 0.0187104 7.93005e-21)
(0.550933 0.00161754 -1.52822e-19)
(0.649679 -0.0310101 9.84082e-21)
(0.780417 -0.05247 -2.12832e-19)
(0.851036 -0.0905048 4.02119e-20)
(1.011 -0.117243 -7.92993e-20)
(-0.0191305 0.0438165 2.04057e-19)
(-0.0407163 0.0798112 2.31663e-19)
(-0.0541998 0.0930013 6.05193e-20)
(-0.0561859 0.0954546 2.4753e-19)
(-0.0484883 0.0936452 6.90527e-20)
(-0.030719 0.0905377 1.54497e-19)
(-0.00298773 0.08709 1.74773e-19)
(0.0349038 0.0833906 1.62484e-19)
(0.0831163 0.079132 1.52064e-19)
(0.141807 0.0738218 -1.26214e-19)
(0.211162 0.0669876 1.99588e-19)
(0.290783 0.0580522 1.99786e-19)
(0.381652 0.046005 2.62772e-19)
(0.480484 0.0325191 -2.54881e-19)
(0.590078 0.011502 2.27719e-20)
(0.704155 -0.00559079 2.23827e-19)
(0.816883 -0.0371348 -7.96131e-20)
(0.941252 -0.0566602 4.24764e-22)
(1.01934 -0.0936382 -5.76209e-21)
(1.1503 -0.113712 9.91101e-20)
(-0.0208176 0.044465 -1.27875e-19)
(-0.0416695 0.0814948 -2.10393e-19)
(-0.0510262 0.0949167 3.63861e-19)
(-0.0471204 0.0968598 -3.71814e-19)
(-0.0320051 0.0941249 -2.65416e-19)
(-0.00555764 0.0898499 -1.1457e-19)
(0.0321048 0.0851408 -5.01642e-20)
(0.0812102 0.0801942 -2.77477e-19)
(0.141974 0.0747947 -1.65101e-19)
(0.2146 0.0685276 -2.68843e-20)
(0.299148 0.0609888 -8.69547e-20)
(0.395035 0.051674 -5.90836e-20)
(0.502288 0.0395204 -1.41962e-19)
(0.616694 0.0262658 -7.03893e-20)
(0.739421 0.00634931 2.61607e-20)
(0.859892 -0.0101394 -1.39969e-19)
(0.976899 -0.0389959 1.54075e-20)
(1.08586 -0.0561771 6.81084e-21)
(1.15953 -0.0905251 -9.80066e-20)
(1.249 -0.104529 6.57672e-20)
(-0.0225489 0.0444714 1.19725e-19)
(-0.0427711 0.0817895 9.32135e-20)
(-0.0480006 0.095043 -4.22496e-19)
(-0.0379935 0.0962484 -1.41432e-19)
(-0.015045 0.0924858 1.50124e-19)
(0.020751 0.0870313 -7.9635e-20)
(0.0693547 0.0811523 2.15927e-19)
(0.131113 0.075185 2.07635e-19)
(0.206327 0.0690412 -2.73979e-19)
(0.29513 0.0624022 -8.68384e-20)
(0.397045 0.0548939 2.76337e-19)
(0.510727 0.0460759 -3.17662e-19)
(0.633991 0.0348769 -2.90367e-19)
(0.76149 0.0226596 4.07053e-19)
(0.890364 0.00491992 -9.03414e-20)
(1.00935 -0.0103421 4.62986e-20)
(1.11676 -0.0359249 6.21946e-20)
(1.20253 -0.0509316 -5.38256e-20)
(1.2588 -0.0821568 1.45176e-19)
(1.30648 -0.0919857 1.7216e-19)
(-0.0243262 0.0439466 -3.83571e-19)
(-0.0439571 0.080799 -3.6672e-19)
(-0.0449808 0.093455 2.70355e-19)
(-0.0285224 0.0936974 1.70763e-19)
(0.00295094 0.0888552 9.08364e-20)
(0.0492392 0.0823221 -7.43213e-20)
(0.110497 0.0755496 -1.34086e-19)
(0.18722 0.0690529 6.82701e-20)
(0.279606 0.0628789 9.48197e-21)
(0.387186 0.056776 1.37231e-19)
(0.508055 0.0503451 -1.58179e-19)
(0.638946 0.0430126 -6.71883e-20)
(0.77451 0.033753 2.2471e-19)
(0.907862 0.0231119 -2.96763e-19)
(1.03231 0.00793267 -1.70292e-20)
(1.13869 -0.00618313 1.22426e-19)
(1.22447 -0.0288266 -4.90317e-20)
(1.28264 -0.0424223 -5.98297e-20)
(1.31579 -0.0710229 7.60029e-21)
(1.33155 -0.0784295 -7.91501e-20)
(-0.0261525 0.0430046 5.94073e-20)
(-0.0451269 0.0786593 3.85015e-19)
(-0.0417041 0.0902734 -1.19599e-19)
(-0.018189 0.0893557 -1.52891e-20)
(0.0229357 0.0834641 -1.18208e-19)
(0.0815209 0.0761126 -4.45716e-20)
(0.157979 0.0689751 4.01813e-20)
(0.252737 0.0627573 1.3169e-19)
(0.365238 0.0576011 3.75759e-20)
(0.493274 0.0531876 -2.85555e-19)
(0.632261 0.0489357 1.70218e-19)
(0.77584 0.0438334 1.00015e-19)
(0.915652 0.0369349 -1.30767e-19)
(1.04371 0.0277132 2.07447e-19)
(1.15235 0.0146264 1.58886e-19)
(1.23644 0.000841678 -4.15878e-20)
(1.29504 -0.0195894 7.06115e-22)
(1.32718 -0.0327837 -6.86152e-21)
(1.34039 -0.059302 -1.88728e-19)
(1.33698 -0.065264 -2.49283e-19)
(-0.0280266 0.0417541 3.34775e-19)
(-0.0461291 0.0755167 -9.54289e-20)
(-0.0377775 0.0856685 -2.42058e-19)
(-0.00621516 0.0834504 3.20263e-19)
(0.0462773 0.0766639 2.82389e-19)
(0.119743 0.0689741 2.03632e-19)
(0.214682 0.0623073 1.8781e-19)
(0.330736 0.0575069 -6.55377e-20)
(0.465274 0.054644 1.21009e-19)
(0.612798 0.0530402 1.16012e-19)
(0.765019 0.0516755 -9.87474e-20)
(0.912452 0.0489046 7.07898e-20)
(1.04541 0.0438705 6.0899e-20)
(1.15676 0.0352331 -4.77993e-20)
(1.24147 0.0231817 1.07722e-19)
(1.29948 0.00880344 -1.20345e-19)
(1.33285 -0.00995655 1.43594e-19)
(1.34556 -0.0235223 2.73705e-19)
(1.34585 -0.0479651 1.32982e-19)
(1.33296 -0.0530156 2.03822e-19)
(-0.0299394 0.0402886 -1.05567e-19)
(-0.0467524 0.0715179 5.7336e-20)
(-0.0326658 0.0798547 1.40387e-19)
(0.00843991 0.0762887 -3.8856e-19)
(0.0747227 0.06894 -6.58645e-20)
(0.166394 0.0616751 -3.28708e-19)
(0.28338 0.0566472 1.34253e-19)
(0.423069 0.054638 -3.22989e-19)
(0.578931 0.0552728 1.26384e-19)
(0.740945 0.057136 -3.04071e-19)
(0.897346 0.0585432 1.29644e-20)
(1.03734 0.057365 3.88294e-20)
(1.15279 0.0529457 -6.61948e-20)
(1.24 0.0438494 -1.68515e-19)
(1.29871 0.0318068 -6.00811e-21)
(1.33322 0.016414 2.01491e-19)
(1.34785 -0.00080653 -1.6772e-19)
(1.34875 -0.0151658 -3.7286e-19)
(1.34196 -0.0371458 -2.68169e-19)
(1.32518 -0.0418544 9.92367e-20)
(-0.0318652 0.038678 3.32855e-21)
(-0.0467266 0.066809 2.54495e-19)
(-0.0256898 0.0730754 -6.64187e-20)
(0.0270589 0.0682553 -2.25395e-20)
(0.110285 0.0609229 7.42904e-20)
(0.223941 0.0551799 2.56015e-19)
(0.365919 0.0532322 -1.26e-19)
(0.529199 0.0553456 -1.1367e-19)
(0.701752 0.0601683 7.55724e-20)
(0.869248 0.0652924 1.70859e-19)
(1.0186 0.0684394 -2.80725e-19)
(1.14089 0.0675192 2.13957e-19)
(1.23226 0.0623482 2.8582e-20)
(1.2939 0.0521075 7.31679e-20)
(1.32992 0.0395253 -1.62871e-19)
(1.34694 0.0233232 -4.68366e-20)
(1.34971 0.00768288 -4.22981e-20)
(1.34438 -0.00771329 4.69886e-20)
(1.33392 -0.0267 1.59571e-19)
(1.31628 -0.0318959 -3.18017e-19)
(-0.0337559 0.0369662 -2.81557e-20)
(-0.0457189 0.0615244 -2.48736e-20)
(-0.0160391 0.0655942 2.83103e-19)
(0.0511122 0.0598116 1.45329e-19)
(0.155042 0.053387 -1.31365e-19)
(0.294285 0.050595 3.76605e-20)
(0.46231 0.0532225 4.18694e-20)
(0.645472 0.0603137 3.72091e-19)
(0.826122 0.0691084 -3.15665e-19)
(0.988005 0.0763484 -4.50122e-19)
(1.12023 0.0796682 -4.47018e-19)
(1.21866 0.0776657 -1.0035e-19)
(1.28488 0.0708739 2.79804e-20)
(1.32426 0.0593782 -1.57961e-19)
(1.34333 0.0461779 -1.34748e-20)
(1.34888 0.0297161 3.12305e-20)
(1.34489 0.0155133 -2.20069e-20)
(1.33655 -0.000975678 3.05388e-19)
(1.32422 -0.0163982 5.81767e-21)
(1.30744 -0.0232932 3.00641e-19)
(-0.03554 0.0351732 2.40356e-20)
(-0.0433341 0.0557764 -3.21504e-19)
(-0.00279577 0.0576882 8.36266e-20)
(0.0821658 0.0514956 -2.80156e-19)
(0.210835 0.0472375 3.54982e-19)
(0.378098 0.0490378 -2.3967e-19)
(0.570032 0.0573902 9.86182e-21)
(0.76541 0.0694155 -1.99651e-20)
(0.943283 0.0809915 -2.48505e-19)
(1.08943 0.0886536 6.15731e-19)
(1.19833 0.0906729 2.61917e-19)
(1.27179 0.0867521 -3.76526e-20)
(1.3159 0.0781409 -1.31355e-19)
(1.33832 0.0656563 -2.37298e-19)
(1.34596 0.0520015 -6.19559e-21)
(1.3446 0.0358379 -1.06695e-19)
(1.33701 0.0226353 9.18482e-20)
(1.32731 0.00543074 -4.76716e-20)
(1.31397 -0.00604858 -3.41103e-19)
(1.2991 -0.016409 -1.27437e-19)
(-0.0371189 0.033292 -1.73149e-19)
(-0.0391212 0.0496524 2.21822e-19)
(0.0150328 0.0496484 -1.92832e-19)
(0.121752 0.0439336 -2.10236e-19)
(0.278852 0.0434706 -3.88712e-19)
(0.474187 0.0514085 1.53122e-19)
(0.68403 0.0658271 -1.06228e-19)
(0.881241 0.0817065 -3.09362e-19)
(1.04596 0.0942709 2.69876e-19)
(1.16973 0.100735 -2.19615e-19)
(1.25373 0.100531 3.15239e-19)
(1.30478 0.0944712 3.63129e-19)
(1.33157 0.0842876 1.96502e-19)
(1.34216 0.0711714 2.98466e-19)
(1.3426 0.057305 -4.91905e-20)
(1.3373 0.0417869 7.16859e-20)
(1.32796 0.0290472 -2.49852e-20)
(1.3177 0.0120718 1.54897e-19)
(1.30372 0.00402521 7.56585e-20)
(1.29134 -0.0116792 8.49933e-20)
(-0.0383577 0.0312855 9.01244e-19)
(-0.0325856 0.043224 -2.25466e-19)
(0.0384692 0.0417968 1.96766e-19)
(0.171184 0.0378631 2.39053e-19)
(0.359153 0.0430578 3.66585e-19)
(0.579201 0.0581097 -1.93979e-19)
(0.797685 0.077858 1.14502e-19)
(0.986044 0.0957754 -1.54721e-19)
(1.13013 0.107535 -2.86295e-19)
(1.2291 0.111703 1.47934e-19)
(1.29008 0.108972 -2.67733e-19)
(1.323 0.100971 -1.69963e-19)
(1.33722 0.0896155 1.8849e-20)
(1.34002 0.0761758 8.08591e-20)
(1.33617 0.0623311 -1.49579e-20)
(1.32872 0.0475304 1.41924e-19)
(1.31866 0.0349646 1.51716e-20)
(1.3082 0.0192825 -3.59065e-19)
(1.2942 0.0125521 1.5542e-19)
(1.28322 -0.0104387 -1.41256e-19)
(-0.039102 0.0291161 -6.32921e-19)
(-0.0231938 0.0365629 2.69823e-19)
(0.0685387 0.0344982 -2.81304e-20)
(0.231325 0.034105 -1.36788e-19)
(0.450241 0.0466968 -4.08085e-19)
(0.687992 0.0688325 2.89865e-19)
(0.904431 0.0922521 -2.63553e-19)
(1.07533 0.110238 1.17002e-19)
(1.19513 0.119864 1.44966e-19)
(1.27026 0.121255 -6.16575e-19)
(1.31188 0.116129 1.18694e-19)
(1.33111 0.10656 2.1132e-20)
(1.33671 0.094419 2.59561e-19)
(1.33461 0.0808866 -3.14469e-20)
(1.32831 0.0672176 -3.31809e-20)
(1.31975 0.0530471 -2.44237e-20)
(1.30948 0.04074 1.4042e-19)
(1.29896 0.0265564 1.0497e-19)
(1.28552 0.0177915 3.05031e-20)
(1.27576 0.00308162 8.68002e-20)
(-0.039183 0.0267429 -4.61458e-20)
(-0.0103787 0.0297297 -4.05929e-19)
(0.106221 0.0281817 2.21842e-19)
(0.30232 0.0334806 1.4607e-19)
(0.549038 0.0545794 -1.18438e-19)
(0.794854 0.0826716 -3.67081e-19)
(0.999471 0.107701 2.47747e-19)
(1.14762 0.124129 -6.40462e-20)
(1.24281 0.130882 4.70098e-20)
(1.29698 0.129471 3.85449e-19)
(1.32332 0.122283 -2.06437e-19)
(1.33271 0.111534 -1.90519e-19)
(1.33262 0.098914 -1.75214e-19)
(1.32755 0.0854359 -3.26478e-20)
(1.31988 0.072001 -1.26009e-20)
(1.31078 0.0583917 1.1482e-19)
(1.30054 0.046484 -6.0056e-20)
(1.29006 0.032686 -6.80312e-20)
(1.27749 0.025588 -1.53258e-19)
(1.26755 0.00917948 -9.90873e-20)
(-0.0384048 0.0241194 -1.954e-20)
(0.00645537 0.0228084 2.37609e-19)
(0.152331 0.0234183 -4.1535e-19)
(0.383234 0.0366762 8.22289e-20)
(0.651205 0.0663234 2.83477e-19)
(0.894696 0.0984716 5.36005e-20)
(1.08022 0.123171 8.51033e-20)
(1.20357 0.136948 1.54688e-19)
(1.27599 0.140569 -1.74402e-19)
(1.31283 0.136588 -1.30164e-19)
(1.32769 0.127729 2.42265e-19)
(1.33027 0.116139 4.49055e-19)
(1.32655 0.103257 4.96873e-20)
(1.31972 0.0899064 -1.75704e-19)
(1.3113 0.0767179 6.04017e-21)
(1.30198 0.0636357 -1.48477e-19)
(1.29185 0.0518232 3.6204e-20)
(1.28158 0.039259 -6.85539e-20)
(1.2695 0.0309895 -2.57664e-19)
(1.26042 0.0168215 1.34213e-19)
(-0.0365529 0.0212088 4.74269e-20)
(0.0279332 0.015942 4.4599e-19)
(0.207364 0.0209288 -1.35137e-19)
(0.471922 0.0440041 3.68899e-19)
(0.752041 0.0810906 -3.01188e-19)
(0.983979 0.115155 3.55862e-19)
(1.14614 0.138008 -2.90124e-19)
(1.2451 0.148541 1.88417e-19)
(1.29772 0.149086 -1.22602e-19)
(1.32089 0.14288 1.31934e-20)
(1.32742 0.132721 -1.45452e-19)
(1.32544 0.12055 -2.5351e-19)
(1.31944 0.107542 -1.24347e-19)
(1.31159 0.0943387 8.63279e-20)
(1.30278 0.0813925 2.89784e-20)
(1.29337 0.0686772 7.91986e-20)
(1.28343 0.0571871 -1.88558e-20)
(1.2733 0.0449057 2.3109e-19)
(1.262 0.0370613 2.17829e-19)
(1.25299 0.0233976 8.75346e-20)
(-0.0333969 0.0179918 -4.29275e-19)
(0.0546974 0.00938096 -4.02291e-19)
(0.271281 0.0215021 3.10307e-19)
(0.565219 0.0552705 -1.85735e-20)
(0.847442 0.0978833 4.29379e-19)
(1.06092 0.131918 -2.58888e-19)
(1.1981 0.151891 1.12747e-19)
(1.27462 0.158959 -1.46225e-19)
(1.31079 0.156667 2.7526e-19)
(1.32354 0.148606 -1.09209e-19)
(1.3242 0.137456 1.0733e-19)
(1.31923 0.124885 -7.15925e-21)
(1.31183 0.111821 8.47039e-20)
(1.30338 0.0987563 -1.13242e-20)
(1.29437 0.0859993 1.27603e-19)
(1.28498 0.0736331 2.65986e-20)
(1.2752 0.0621923 -4.78751e-21)
(1.26534 0.050603 -1.5686e-19)
(1.25454 0.0422915 -5.89069e-20)
(1.2459 0.0293781 -8.39777e-20)
(-0.0286865 0.014471 6.16545e-19)
(0.0873664 0.00354128 -3.89853e-19)
(0.343296 0.0258025 9.86732e-20)
(0.659486 0.0698616 -3.86186e-19)
(0.93448 0.115809 -2.70342e-19)
(1.12516 0.148262 2.94073e-20)
(1.23771 0.164732 5.28536e-20)
(1.29452 0.168363 -1.47879e-19)
(1.31751 0.163552 2.69984e-20)
(1.32254 0.153977 2.10449e-19)
(1.31916 0.142071 -1.55068e-19)
(1.31226 0.129214 -9.24052e-20)
(1.304 0.11612 -5.06178e-20)
(1.29519 0.103157 -4.56705e-20)
(1.28608 0.0905605 -5.8119e-20)
(1.27674 0.0784011 1.08965e-19)
(1.26717 0.0671246 -5.27584e-20)
(1.25752 0.0557922 -1.08537e-20)
(1.24731 0.0473899 1.41567e-19)
(1.23881 0.0351136 1.50773e-19)
(-0.0221429 0.0106783 -1.46569e-19)
(0.126445 -0.000953701 3.61986e-19)
(0.421815 0.0341526 2.14357e-19)
(0.751271 0.0869826 -2.41547e-19)
(1.0115 0.1342 2.97405e-19)
(1.17731 0.163922 -1.77174e-21)
(1.26684 0.176576 2.66301e-19)
(1.30696 0.176951 1.73799e-19)
(1.31966 0.169958 1.54025e-19)
(1.31913 0.159155 -1.48243e-19)
(1.31302 0.14666 1.03543e-19)
(1.30487 0.133576 1.09566e-19)
(1.29607 0.120445 1.82724e-19)
(1.28705 0.107545 -9.62739e-20)
(1.27791 0.0950445 -2.18841e-22)
(1.26865 0.083059 -9.11815e-20)
(1.25926 0.071802 3.75214e-21)
(1.24988 0.0608113 -3.92866e-20)
(1.24013 0.0521352 -8.34482e-20)
(1.23182 0.0402939 -3.14725e-20)
(-0.0134504 0.0066861 -1.33585e-19)
(0.172193 -0.0032945 -1.46235e-19)
(0.504576 0.0464352 -7.44878e-21)
(0.837811 0.10588 2.28984e-19)
(1.0779 0.152609 -2.22416e-19)
(1.21852 0.178796 -2.41777e-19)
(1.28736 0.187541 9.20886e-20)
(1.31373 0.184921 -1.08621e-19)
(1.31861 0.176062 -6.91835e-20)
(1.31413 0.164254 2.71607e-20)
(1.3062 0.151275 -2.34283e-19)
(1.29725 0.137987 2.15519e-19)
(1.2881 0.124793 -2.09156e-20)
(1.27896 0.111906 -4.75134e-20)
(1.26982 0.0994628 4.25984e-20)
(1.26067 0.0875539 -6.42626e-20)
(1.25148 0.0763448 -5.68124e-20)
(1.24234 0.065516 -3.04969e-21)
(1.23303 0.0566113 -4.12231e-20)
(1.22487 0.0452113 7.69933e-20)
(-0.00225763 0.00262678 1.53791e-19)
(0.224485 -0.0026032 2.65485e-19)
(0.588988 0.0621878 -3.55381e-19)
(0.917221 0.125953 -1.31164e-19)
(1.13385 0.170765 -5.91825e-20)
(1.25017 0.192884 3.38594e-19)
(1.30096 0.19778 -9.01925e-20)
(1.31629 0.192456 -5.5986e-20)
(1.31534 0.182003 -7.78324e-20)
(1.30809 0.169351 9.35034e-20)
(1.29895 0.155945 3.46871e-20)
(1.28948 0.142447 -4.04805e-20)
(1.28011 0.129156 -1.08121e-19)
(1.2709 0.116236 1.1096e-20)
(1.2618 0.103794 -4.62977e-20)
(1.25276 0.091922 8.2687e-20)
(1.24378 0.0806916 2.01585e-20)
(1.2349 0.0699966 2.09099e-20)
(1.22597 0.060842 2.80042e-20)
(1.21798 0.0497454 -8.12301e-20)
(0.0118035 -0.00128628 -2.89279e-19)
(0.282724 0.00187379 -1.66694e-20)
(0.672502 0.0808002 -5.42888e-20)
(0.988438 0.146766 1.55018e-19)
(1.17994 0.188514 -5.33677e-20)
(1.27366 0.206242 -1.48762e-19)
(1.30909 0.207447 -2.08541e-19)
(1.31573 0.199707 1.46228e-19)
(1.3105 0.18788 -1.71404e-19)
(1.30136 0.174488 8.50634e-20)
(1.29141 0.160679 5.00669e-20)
(1.28159 0.146949 -2.61669e-20)
(1.27209 0.133521 6.17673e-20)
(1.26286 0.120521 6.91068e-20)
(1.25381 0.10804 -1.46643e-19)
(1.24491 0.0961424 1.0933e-19)
(1.23613 0.0848829 9.2856e-21)
(1.2275 0.0742331 1.85514e-20)
(1.21892 0.0648227 8.90693e-20)
(1.21111 0.0540064 2.19791e-20)
(0.0290707 -0.00473781 8.6042e-20)
(0.345849 0.0105851 -3.44468e-19)
(0.752906 0.101681 3.2166e-19)
(1.05104 0.168017 1.45573e-19)
(1.21707 0.205785 -1.08072e-19)
(1.29032 0.21896 -1.77667e-19)
(1.31295 0.216687 6.13867e-21)
(1.31289 0.206792 -3.48307e-20)
(1.30458 0.193756 2.94766e-19)
(1.29413 0.179688 -1.34386e-19)
(1.28364 0.165473 -1.54811e-20)
(1.27361 0.15148 3.54118e-20)
(1.26403 0.137874 -2.19691e-20)
(1.2548 0.124754 -4.49762e-20)
(1.24584 0.112188 1.26096e-19)
(1.23708 0.100229 -1.03306e-19)
(1.22851 0.0889019 1.23292e-20)
(1.22013 0.0782488 -5.77474e-20)
(1.21188 0.0685898 -6.04384e-20)
(1.20426 0.0579783 -1.93051e-20)
(0.0497928 -0.00731013 -6.18514e-20)
(0.412454 0.0235977 1.44054e-19)
(0.828482 0.124325 -1.3013e-19)
(1.10503 0.189492 -1.34019e-19)
(1.24619 0.222558 2.21427e-19)
(1.30132 0.23114 2.34322e-19)
(1.3135 0.225625 1.13109e-19)
(1.30834 0.2138 -1.88448e-21)
(1.29785 0.199671 -2.89519e-19)
(1.28653 0.184954 2.44345e-20)
(1.27569 0.170314 9.22043e-21)
(1.26551 0.156023 6.21929e-20)
(1.2559 0.1422 1.01644e-19)
(1.24672 0.12892 -5.4553e-21)
(1.23786 0.116234 -2.31352e-20)
(1.22926 0.104172 9.25722e-20)
(1.2209 0.0927601 -6.03399e-20)
(1.21277 0.0820498 7.35073e-20)
(1.20483 0.0721416 -6.528e-21)
(1.19741 0.0617011 7.42445e-20)
(0.0740781 -0.00851084 1.07915e-19)
(0.480948 0.0406567 5.63689e-20)
(0.898036 0.148323 -1.27652e-19)
(1.15073 0.21103 -1.57129e-19)
(1.2683 0.238845 -1.11182e-20)
(1.30769 0.24288 -2.57177e-20)
(1.31148 0.234363 1.26361e-19)
(1.30252 0.220788 8.79898e-20)
(1.2905 0.205639 9.4604e-20)
(1.2786 0.190277 -3.43069e-20)
(1.26754 0.175186 4.51795e-20)
(1.25729 0.16056 -4.15386e-20)
(1.2477 0.146483 -8.42924e-20)
(1.23859 0.133008 1.02594e-20)
(1.22986 0.120168 2.17673e-20)
(1.22143 0.107976 2.578e-20)
(1.21329 0.0964527 3.42161e-20)
(1.2054 0.0856446 -2.04945e-20)
(1.19775 0.0755008 3.93482e-20)
(1.19056 0.0651861 -8.95093e-20)
(0.101858 -0.0078285 1.42319e-19)
(0.549722 0.0613206 -1.27968e-20)
(0.96085 0.173342 1.79256e-19)
(1.18861 0.232498 1.08746e-19)
(1.28431 0.254673 4.85073e-20)
(1.31027 0.254271 -1.18667e-19)
(1.30744 0.242973 -1.12458e-19)
(1.29571 0.227788 -3.12257e-20)
(1.28264 0.211661 -8.40907e-21)
(1.27037 0.19564 -8.18388e-21)
(1.25919 0.180066 -1.09004e-19)
(1.24894 0.165072 2.38546e-20)
(1.23939 0.150707 4.29792e-20)
(1.23039 0.137006 1.30327e-21)
(1.22181 0.123983 5.13789e-21)
(1.21358 0.111635 -1.32706e-20)
(1.20566 0.0999813 -3.18182e-20)
(1.19801 0.0890413 -2.62111e-20)
(1.19065 0.0786716 -5.43374e-20)
(1.18368 0.0684513 8.20694e-21)
(0.132878 -0.00480513 -8.7417e-20)
(0.617264 0.0850896 5.40011e-20)
(1.01659 0.199116 -2.22138e-20)
(1.21923 0.253785 5.18419e-21)
(1.29507 0.270076 -1.99525e-19)
(1.30976 0.265389 4.93204e-20)
(1.30179 0.251507 3.16964e-20)
(1.28808 0.234812 -2.18511e-20)
(1.27434 0.217722 7.81404e-20)
(1.26186 0.201021 -1.23397e-21)
(1.25064 0.184932 3.41455e-20)
(1.24042 0.169536 3.98628e-20)
(1.23097 0.154854 -2.72635e-20)
(1.22211 0.140901 -3.20807e-20)
(1.2137 0.127669 -1.73291e-20)
(1.20568 0.115146 -1.84967e-20)
(1.19799 0.103343 1.6243e-20)
(1.1906 0.0922452 1.85968e-20)
(1.18352 0.0816667 2.9662e-20)
(1.17677 0.0715103 3.3974e-20)
(0.16672 0.000898324 -4.07163e-20)
(0.68224 0.111479 -7.99299e-21)
(1.06519 0.225425 -7.22029e-20)
(1.24321 0.274798 6.6628e-20)
(1.30132 0.285084 1.43216e-19)
(1.3067 0.27629 7.80471e-20)
(1.29484 0.259989 -3.51004e-20)
(1.27976 0.241853 -2.04311e-20)
(1.26561 0.2238 -4.62744e-20)
(1.25304 0.206392 4.44743e-20)
(1.24186 0.189756 -1.73032e-21)
(1.23174 0.17393 -2.19614e-20)
(1.22243 0.158905 -2.57903e-20)
(1.21374 0.144677 -2.46363e-20)
(1.20553 0.131218 5.10167e-20)
(1.19773 0.118504 -1.72536e-20)
(1.19028 0.106536 -1.85828e-20)
(1.18315 0.0952621 -3.17648e-21)
(1.17634 0.084491 -3.2308e-21)
(1.16982 0.0743725 -1.89107e-20)
(0.202835 0.00946513 -4.03592e-21)
(0.743532 0.140036 -5.35813e-20)
(1.1068 0.252084 2.46477e-20)
(1.26115 0.295458 -8.74838e-20)
(1.30369 0.299721 -6.09247e-20)
(1.30152 0.287011 9.05201e-21)
(1.28679 0.268428 -9.09913e-22)
(1.27082 0.248892 3.99959e-21)
(1.25647 0.229865 1.25629e-20)
(1.24393 0.211722 2.21943e-20)
(1.23285 0.194512 -3.01509e-20)
(1.22288 0.178231 1.27761e-20)
(1.21374 0.162843 2.22795e-20)
(1.20526 0.148321 -4.85974e-21)
(1.19728 0.134619 -2.15011e-20)
(1.18972 0.121701 1.2035e-20)
(1.18253 0.109556 1.36942e-20)
(1.17566 0.0980951 1.38305e-20)
(1.16912 0.0871507 -6.98394e-21)
(1.16281 0.0770479 2.50075e-21)
(0.24058 0.0209243 4.51473e-20)
(0.80025 0.170342 -6.23751e-20)
(1.14167 0.278922 -8.4605e-21)
(1.27364 0.315701 3.5768e-20)
(1.30273 0.314002 5.75201e-20)
(1.29456 0.29757 -1.75798e-20)
(1.27779 0.276812 -5.01014e-20)
(1.2613 0.255899 4.9586e-20)
(1.24692 0.23588 -1.33637e-20)
(1.23449 0.216977 -1.53653e-20)
(1.22359 0.19917 1.39619e-20)
(1.21382 0.182415 -6.91676e-21)
(1.20491 0.166645 -2.03039e-21)
(1.19667 0.151817 5.37753e-21)
(1.18894 0.137861 7.70818e-21)
(1.18165 0.12473 9.85728e-21)
(1.17472 0.112399 -1.75139e-20)
(1.16812 0.100747 -4.32308e-21)
(1.16185 0.0896476 -1.06383e-21)
(1.15576 0.0795405 5.18548e-21)
(0.279232 0.0351828 -2.47745e-20)
(0.851734 0.201997 4.33444e-20)
(1.17011 0.305777 -5.35304e-21)
(1.28126 0.335475 -1.15002e-20)
(1.29888 0.32793 -3.74315e-20)
(1.28606 0.307964 1.74976e-20)
(1.26792 0.285117 1.14707e-20)
(1.25122 0.262837 -1.26613e-20)
(1.23696 0.241808 -2.06544e-21)
(1.22473 0.222124 6.00794e-21)
(1.21407 0.203699 -6.49137e-21)
(1.20456 0.186455 3.26316e-21)
(1.19593 0.170293 -7.06867e-21)
(1.18796 0.155148 4.04286e-21)
(1.18052 0.140932 8.3346e-22)
(1.17351 0.127583 -3.66679e-21)
(1.16686 0.115062 2.10154e-21)
(1.16054 0.10322 -3.25102e-21)
(1.15454 0.091981 1.05686e-21)
(1.14866 0.0818549 3.75024e-21)
(0.317979 0.052061 -1.77768e-20)
(0.897536 0.23462 3.79316e-20)
(1.19244 0.332482 -3.95115e-21)
(1.2845 0.354733 -1.47734e-20)
(1.29252 0.341498 -3.44319e-20)
(1.27621 0.318178 1.72309e-20)
(1.25726 0.293306 1.11683e-20)
(1.24059 0.269661 -9.98955e-21)
(1.22657 0.247606 -1.16919e-22)
(1.21465 0.227124 4.68788e-21)
(1.20429 0.20807 -4.13046e-21)
(1.1951 0.190326 -1.12648e-21)
(1.18679 0.173764 -2.46806e-21)
(1.17914 0.158299 1.46688e-21)
(1.172 0.143818 9.48344e-22)
(1.16529 0.13025 -3.72511e-21)
(1.15894 0.117539 4.13562e-21)
(1.15292 0.105511 -3.96644e-21)
(1.14718 0.094148 -9.59502e-22)
(1.14152 0.0839898 2.46997e-21)
(0.356029 0.0712938 5.14668e-20)
(0.93732 0.267812 -5.11505e-20)
(1.20893 0.35885 -3.65004e-20)
(1.28377 0.373421 4.71917e-20)
(1.28393 0.354693 5.34742e-20)
(1.26514 0.328187 -2.17e-20)
(1.24584 0.301341 -3.58277e-20)
(1.2294 0.276332 3.91005e-20)
(1.21575 0.253238 -1.08832e-20)
(1.20421 0.231947 -1.26644e-20)
(1.19425 0.212254 9.88459e-21)
(1.18543 0.194006 -1.90141e-21)
(1.17748 0.17704 -4.60725e-21)
(1.17019 0.161254 1.46959e-21)
(1.16339 0.146511 7.04055e-21)
(1.15701 0.132724 8.20779e-21)
(1.15097 0.119822 -1.02491e-20)
(1.14526 0.107617 -2.70096e-21)
(1.13981 0.0961502 -1.75004e-21)
(1.13433 0.0859495 3.71692e-21)
(0.392834 0.0926498 2.29238e-20)
(0.971184 0.301315 -8.12082e-20)
(1.22005 0.384764 2.25412e-20)
(1.27952 0.391499 -5.84954e-20)
(1.27338 0.367476 -6.78319e-20)
(1.25295 0.337933 1.09552e-20)
(1.23368 0.309157 4.30952e-21)
(1.21766 0.282784 -4.33422e-21)
(1.2045 0.258647 1.4475e-20)
(1.19343 0.236543 -5.67669e-22)
(1.18393 0.216212 -9.37555e-21)
(1.17554 0.197459 1.90686e-21)
(1.16801 0.180091 1.82368e-20)
(1.16111 0.16399 -1.53752e-21)
(1.15469 0.14899 -6.18703e-21)
(1.14866 0.13499 -3.57163e-21)
(1.14296 0.121901 1.55165e-20)
(1.13758 0.109525 6.63408e-21)
(1.13241 0.0979907 -3.87667e-21)
(1.1271 0.0877474 -4.53492e-21)
(0.427757 0.115882 -5.08778e-20)
(0.999112 0.334843 -9.6779e-21)
(1.22611 0.410061 -7.02967e-20)
(1.27207 0.408903 7.82971e-20)
(1.26104 0.379805 9.68551e-20)
(1.2397 0.347363 3.74578e-20)
(1.2208 0.316697 -6.83818e-21)
(1.20537 0.288969 7.7364e-21)
(1.19281 0.263791 -3.92758e-20)
(1.18231 0.240878 2.81151e-20)
(1.17333 0.219912 -8.50806e-21)
(1.16545 0.200663 -6.48811e-21)
(1.15838 0.182901 -1.76197e-20)
(1.15191 0.166485 -5.34944e-21)
(1.14592 0.151242 8.27058e-21)
(1.14026 0.137042 -5.34305e-21)
(1.13491 0.123768 -7.00162e-21)
(1.12988 0.111233 2.01424e-21)
(1.12497 0.0996648 -1.24262e-21)
(1.11987 0.0893705 -1.04685e-20)
(0.460214 0.140723 -7.51821e-20)
(1.02119 0.368126 1.42411e-20)
(1.22746 0.434588 3.40055e-20)
(1.26175 0.425568 -3.69877e-20)
(1.2471 0.391622 -1.32776e-19)
(1.22547 0.356412 1.10673e-20)
(1.2072 0.323895 4.75083e-20)
(1.19253 0.294826 -1.75178e-20)
(1.18069 0.268617 3.76735e-20)
(1.17085 0.244908 -9.97432e-21)
(1.16248 0.223317 2.49518e-20)
(1.15517 0.203585 3.3945e-21)
(1.14861 0.185446 3.93545e-22)