/*--------------------------------*- C++ -*----------------------------------*\
  =========                 |
  \\      /  F ield         | OpenFOAM: The Open Source CFD Toolbox
   \\    /   O peration     | Website:  https://openfoam.org
    \\  /    A nd           | Version:  7
     \\/     M anipulation  |
\*---------------------------------------------------------------------------*/
FoamFile
{
    version     2.0;
    format      ascii;
    class       volVectorField;
    location    "25";
    object      U;
}
// * * * * * * * * * * * * * * * * * * * * * * * * * * * * * * * * * * * * * //

dimensions      [0 1 -1 0 0 0 0];

internalField   nonuniform List<vector> 
2625
(
(1.12513 -0.201663 2.43394e-20)
(1.13142 -0.201324 -7.57435e-21)
(1.13767 -0.200849 1.26478e-20)
(1.1439 -0.20024 -2.70813e-21)
(1.00002 -2.95359e-05 0)
(1.0004 -8.82828e-05 0)
(1.00118 -0.000145829 0)
(1.00228 -0.000205441 0)
(1.00369 -0.000267533 0)
(1.0054 -0.000333211 0)
(1.00739 -0.000402995 0)
(1.00967 -0.000477197 0)
(1.01221 -0.000555889 0)
(1.01502 -0.000638937 0)
(1.01808 -0.000726023 0)
(1.02138 -0.000816676 0)
(1.0249 -0.000910295 0)
(1.02863 -0.00100618 0)
(1.03254 -0.00110358 0)
(1.03662 -0.00120167 0)
(1.04084 -0.00129965 0)
(1.04517 -0.00139672 0)
(1.0496 -0.00149214 0)
(1.0541 -0.0015852 0)
(1.05864 -0.00167529 0)
(1.06321 -0.00176187 0)
(1.06778 -0.00184448 0)
(1.07233 -0.00192274 0)
(1.07684 -0.00199627 0)
(1.0813 -0.0020646 0)
(1.08569 -0.00212696 0)
(1.08999 -0.00218171 0)
(1.09418 -0.00222532 0)
(1.09825 -0.00224996 0)
(1.00002 -8.80306e-05 0)
(1.0004 -0.000262286 0)
(1.00118 -0.000433734 0)
(1.00227 -0.000610913 0)
(1.00368 -0.000795587 0)
(1.00538 -0.000990923 0)
(1.00737 -0.00119849 0)
(1.00964 -0.00141922 0)
(1.01218 -0.00165334 0)
(1.01498 -0.00190043 0)
(1.01803 -0.00215958 0)
(1.02133 -0.00242938 0)
(1.02484 -0.00270804 0)
(1.02856 -0.0029935 0)
(1.03247 -0.00328348 0)
(1.03654 -0.00357558 0)
(1.04075 -0.0038674 0)
(1.04508 -0.00415656 0)
(1.04951 -0.00444082 0)
(1.054 -0.00471812 0)
(1.05854 -0.0049866 0)
(1.06311 -0.00524466 0)
(1.06768 -0.00549094 0)
(1.07223 -0.00572426 0)
(1.07674 -0.00594351 0)
(1.08121 -0.00614731 0)
(1.0856 -0.00633333 0)
(1.0899 -0.00649678 0)
(1.0941 -0.00662744 0)
(1.09818 -0.00670405 0)
(1.00002 -0.000145133 0)
(1.0004 -0.000431153 0)
(1.00117 -0.000713743 0)
(1.00226 -0.00100513 0)
(1.00365 -0.00130906 0)
(1.00535 -0.00163055 0)
(1.00733 -0.00197224 0)
(1.00958 -0.00233566 0)
(1.01211 -0.0027212 0)
(1.0149 -0.00312821 0)
(1.01794 -0.00355517 0)
(1.02121 -0.00399978 0)
(1.02472 -0.00445913 0)
(1.02842 -0.00492981 0)
(1.03232 -0.00540807 0)
(1.03638 -0.00588998 0)
(1.04058 -0.00637156 0)
(1.0449 -0.00684889 0)
(1.04932 -0.00731828 0)
(1.05381 -0.0077763 0)
(1.05835 -0.00821988 0)
(1.06292 -0.00864638 0)
(1.06749 -0.00905351 0)
(1.07204 -0.00943934 0)
(1.07656 -0.00980199 0)
(1.08102 -0.0101392 0)
(1.08542 -0.0104471 0)
(1.08973 -0.0107179 0)
(1.09394 -0.0109349 0)
(1.09802 -0.0110643 0)
(1.00002 -0.000200522 0)
(1.0004 -0.000594748 0)
(1.00116 -0.000985184 0)
(1.00224 -0.0013873 0)
(1.00362 -0.00180693 0)
(1.0053 -0.00225089 0)
(1.00726 -0.00272284 0)
(1.0095 -0.00322496 0)
(1.01201 -0.00375779 0)
(1.01478 -0.00432047 0)
(1.0178 -0.00491094 0)
(1.02105 -0.00552604 0)
(1.02454 -0.00616177 0)
(1.02822 -0.00681344 0)
(1.0321 -0.00747588 0)
(1.03614 -0.00814365 0)
(1.04033 -0.00881124 0)
(1.04464 -0.00947323 0)
(1.04905 -0.0101245 0)
(1.05354 -0.0107602 0)
(1.05807 -0.0113762 0)
(1.06263 -0.0119687 0)
(1.0672 -0.0125345 0)
(1.07176 -0.0130709 0)
(1.07628 -0.0135753 0)
(1.08076 -0.0140445 0)
(1.08516 -0.0144732 0)
(1.08948 -0.0148505 0)
(1.09371 -0.0151536 0)
(1.0978 -0.0153362 0)
(1.00002 -0.000254069 0)
(1.00039 -0.000752846 0)
(1.00115 -0.00124758 0)
(1.00221 -0.00175678 0)
(1.00358 -0.0022884 0)
(1.00524 -0.00285097 0)
(1.00718 -0.00344919 0)
(1.0094 -0.00408588 0)
(1.01188 -0.00476176 0)
(1.01462 -0.00547581 0)
(1.01762 -0.00622545 0)
(1.02085 -0.00700672 0)
(1.0243 -0.00781459 0)
(1.02797 -0.00864312 0)
(1.03182 -0.00948579 0)
(1.03584 -0.0103357 0)
(1.04001 -0.0111858 0)
(1.04431 -0.0120293 0)
(1.04871 -0.0128596 0)
(1.05318 -0.0136705 0)
(1.05771 -0.0144566 0)
(1.06227 -0.0152132 0)
(1.06684 -0.015936 0)
(1.0714 -0.0166217 0)
(1.07593 -0.0172668 0)
(1.08041 -0.0178672 0)
(1.08483 -0.0184161 0)
(1.08916 -0.0188996 0)
(1.0934 -0.0192888 0)
(1.09751 -0.019525 0)
(1.00002 -0.000305704 0)
(1.00038 -0.000905218 0)
(1.00113 -0.00150056 0)
(1.00218 -0.00211307 0)
(1.00353 -0.00275283 0)
(1.00517 -0.00343002 0)
(1.00708 -0.00415041 0)
(1.00927 -0.00491744 0)
(1.01172 -0.00573205 0)
(1.01444 -0.0065931 0)
(1.0174 -0.00749753 0)
(1.0206 -0.00844066 0)
(1.02402 -0.00941646 0)
(1.02766 -0.0104178 0)
(1.03148 -0.0114369 0)
(1.03548 -0.0124655 0)
(1.03963 -0.0134949 0)
(1.0439 -0.014517 0)
(1.04828 -0.0155237 0)
(1.05275 -0.0165077 0)
(1.05727 -0.0174621 0)
(1.06182 -0.0183813 0)
(1.06639 -0.0192601 0)
(1.07096 -0.0200943 0)
(1.07549 -0.0208795 0)
(1.07999 -0.0216108 0)
(1.08442 -0.0222797 0)
(1.08877 -0.0228695 0)
(1.09303 -0.0233452 0)
(1.09716 -0.0236355 0)
(1.00002 -0.000355368 0)
(1.00038 -0.00105169 0)
(1.00111 -0.00174385 0)
(1.00214 -0.00245579 0)
(1.00347 -0.00319972 0)
(1.00508 -0.00398746 0)
(1.00697 -0.00482582 0)
(1.00912 -0.00571887 0)
(1.01154 -0.00666783 0)
(1.01422 -0.00767146 0)
(1.01714 -0.00872629 0)
(1.02031 -0.00982697 0)
(1.0237 -0.0109665 0)
(1.02729 -0.0121368 0)
(1.03109 -0.0133287 0)
(1.03506 -0.0145325 0)
(1.03918 -0.0157383 0)
(1.04343 -0.0169363 0)
(1.04779 -0.0181173 0)
(1.05224 -0.0192724 0)
(1.05675 -0.0203938 0)
(1.0613 -0.0214745 0)
(1.06587 -0.0225085 0)
(1.07044 -0.0234907 0)
(1.07499 -0.024416 0)
(1.07949 -0.0252782 0)
(1.08394 -0.0260676 0)
(1.08831 -0.0267642 0)
(1.09259 -0.0273269 0)
(1.09674 -0.0276721 0)
(1.00002 -0.000403015 0)
(1.00037 -0.00119215 0)
(1.00109 -0.00197724 0)
(1.0021 -0.00278464 0)
(1.00341 -0.00362872 0)
(1.00499 -0.00452286 0)
(1.00684 -0.0054749 0)
(1.00896 -0.00648961 0)
(1.01134 -0.00756849 0)
(1.01398 -0.00871024 0)
(1.01686 -0.00991107 0)
(1.01998 -0.011165 0)
(1.02333 -0.0124642 0)
(1.02689 -0.0137995 0)
(1.03064 -0.0151606 0)
(1.03457 -0.0165363 0)
(1.03867 -0.0179156 0)
(1.04289 -0.0192873 0)
(1.04723 -0.0206405 0)
(1.05166 -0.0219652 0)
(1.05616 -0.0232524 0)
(1.06071 -0.0244939 0)
(1.06528 -0.0256829 0)
(1.06985 -0.026813 0)
(1.07441 -0.0278786 0)
(1.07892 -0.0288724 0)
(1.08339 -0.0297828 0)
(1.08778 -0.0305872 0)
(1.09208 -0.0312379 0)
(1.09625 -0.0316389 0)
(1.00002 -0.000448615 0)
(1.00036 -0.0013265 0)
(1.00107 -0.0022006 0)
(1.00206 -0.00309945 0)
(1.00333 -0.00403959 0)
(1.00488 -0.00503592 0)
(1.0067 -0.00609734 0)
(1.00878 -0.0072293 0)
(1.01112 -0.00843362 0)
(1.01371 -0.00970902 0)
(1.01654 -0.0110514 0)
(1.01962 -0.0124543 0)
(1.02292 -0.0139091 0)
(1.02643 -0.0154056 0)
(1.03015 -0.0169323 0)
(1.03404 -0.0184769 0)
(1.0381 -0.020027 0)
(1.04229 -0.02157 0)
(1.04661 -0.0230936 0)
(1.05102 -0.0245867 0)
(1.05551 -0.0260388 0)
(1.06005 -0.0274407 0)
(1.06462 -0.0287845 0)
(1.06919 -0.030063 0)
(1.07375 -0.0312694 0)
(1.07829 -0.0323956 0)
(1.08277 -0.0334283 0)
(1.08719 -0.0343415 0)
(1.09151 -0.0350815 0)
(1.09571 -0.0355394 0)
(1.00002 -0.000492152 0)
(1.00035 -0.00145472 0)
(1.00104 -0.00241384 0)
(1.00201 -0.0034001 0)
(1.00325 -0.00443219 0)
(1.00477 -0.00552648 0)
(1.00655 -0.00669294 0)
(1.00858 -0.00793771 0)
(1.01087 -0.00926299 0)
(1.01341 -0.0106675 0)
(1.0162 -0.0121471 0)
(1.01922 -0.0136946 0)
(1.02247 -0.0153009 0)
(1.02594 -0.0169548 0)
(1.02961 -0.0186437 0)
(1.03346 -0.0203542 0)
(1.03748 -0.0220725 0)
(1.04164 -0.0237846 0)
(1.04593 -0.0254771 0)
(1.05032 -0.0271374 0)
(1.05479 -0.0287538 0)
(1.05932 -0.0303159 0)
(1.06388 -0.0318147 0)
(1.06846 -0.0332421 0)
(1.07304 -0.0345904 0)
(1.07758 -0.0358502 0)
(1.08209 -0.0370064 0)
(1.08653 -0.03803 0)
(1.09088 -0.0388607 0)
(1.0951 -0.0393768 0)
(1.00002 -0.00053362 0)
(1.00034 -0.00157679 0)
(1.00101 -0.00261695 0)
(1.00195 -0.00368657 0)
(1.00317 -0.00480649 0)
(1.00465 -0.00599451 0)
(1.00638 -0.00726164 0)
(1.00837 -0.00861478 0)
(1.01061 -0.0100565 0)
(1.0131 -0.0115857 0)
(1.01583 -0.013198 0)
(1.0188 -0.0148859 0)
(1.02199 -0.0166396 0)
(1.02541 -0.0184471 0)
(1.02902 -0.0202948 0)
(1.03283 -0.0221682 0)
(1.0368 -0.0240521 0)
(1.04093 -0.0259314 0)
(1.04519 -0.0277913 0)
(1.04955 -0.0296178 0)
(1.05401 -0.031398 0)
(1.05853 -0.0331203 0)
(1.06309 -0.0347746 0)
(1.06767 -0.0363518 0)
(1.07225 -0.0378431 0)
(1.07681 -0.0392378 0)
(1.08134 -0.0405192 0)
(1.0858 -0.0416549 0)
(1.09019 -0.0425781 0)
(1.09444 -0.043154 0)
(1.00002 -0.000573024 0)
(1.00033 -0.00169274 0)
(1.00098 -0.00280996 0)
(1.0019 -0.00395891 0)
(1.00308 -0.00516254 0)
(1.00452 -0.00644005 0)
(1.00621 -0.00780352 0)
(1.00815 -0.00926057 0)
(1.01033 -0.0108143 0)
(1.01276 -0.0124636 0)
(1.01544 -0.0142042 0)
(1.01835 -0.0160282 0)
(1.02148 -0.0179252 0)
(1.02484 -0.0198825 0)
(1.0284 -0.0218857 0)
(1.03216 -0.023919 0)
(1.03608 -0.0259662 0)
(1.04017 -0.0280107 0)
(1.04439 -0.0300366 0)
(1.04873 -0.0320284 0)
(1.05317 -0.033972 0)
(1.05767 -0.0358547 0)
(1.06223 -0.0376651 0)
(1.06681 -0.0393931 0)
(1.0714 -0.0410288 0)
(1.07598 -0.0425602 0)
(1.08053 -0.0439687 0)
(1.08502 -0.0452185 0)
(1.08944 -0.046236 0)
(1.09371 -0.0468734 0)
(1.00002 -0.00061038 0)
(1.00032 -0.00180261 0)
(1.00095 -0.00299295 0)
(1.00184 -0.00421721 0)
(1.00299 -0.00550047 0)
(1.00438 -0.00686325 0)
(1.00602 -0.00831873 0)
(1.00791 -0.00987527 0)
(1.01004 -0.0115364 0)
(1.01241 -0.0133015 0)
(1.01502 -0.0151659 0)
(1.01787 -0.0171217 0)
(1.02094 -0.019158 0)
(1.02424 -0.0212614 0)
(1.02774 -0.0234166 0)
(1.03144 -0.0256069 0)
(1.03532 -0.0278149 0)
(1.03936 -0.0300228 0)
(1.04355 -0.0322132 0)
(1.04786 -0.0343696 0)
(1.05227 -0.0364765 0)
(1.05676 -0.0385199 0)
(1.06131 -0.0404872 0)
(1.06589 -0.0423672 0)
(1.07049 -0.0441488 0)
(1.07509 -0.0458188 0)
(1.07965 -0.0473564 0)
(1.08417 -0.0487224 0)
(1.08862 -0.0498364 0)
(1.09293 -0.0505372 0)
(1.00002 -0.00064571 0)
(1.00031 -0.00190647 0)
(1.00092 -0.00316603 0)
(1.00178 -0.00446162 0)
(1.00289 -0.00582047 0)
(1.00424 -0.00726435 0)
(1.00583 -0.00880753 0)
(1.00766 -0.0104592 0)
(1.00973 -0.0122233 0)
(1.01204 -0.0140996 0)
(1.01459 -0.0160834 0)
(1.01737 -0.0181668 0)
(1.02038 -0.0203383 0)
(1.02361 -0.0225841 0)
(1.02705 -0.0248879 0)
(1.03069 -0.0272323 0)
(1.03451 -0.0295986 0)
(1.03851 -0.031968 0)
(1.04265 -0.0343217 0)
(1.04693 -0.036642 0)
(1.05131 -0.038912 0)
(1.05579 -0.0411164 0)
(1.06033 -0.0432415 0)
(1.06491 -0.0452748 0)
(1.06952 -0.047204 0)
(1.07413 -0.0490146 0)
(1.07872 -0.0506836 0)
(1.08327 -0.0521682 0)
(1.08775 -0.0533812 0)
(1.09209 -0.0541472 0)
(1.00002 -0.000679043 0)
(1.0003 -0.00200441 0)
(1.00089 -0.00332934 0)
(1.00172 -0.00469235 0)
(1.00279 -0.00612279 0)
(1.0041 -0.00764363 0)
(1.00564 -0.00927026 0)
(1.00741 -0.0110126 0)
(1.00942 -0.0128753 0)
(1.01166 -0.0148583 0)
(1.01414 -0.0169572 0)
(1.01685 -0.0191639 0)
(1.01978 -0.0214666 0)
(1.02295 -0.0238509 0)
(1.02632 -0.0263 0)
(1.0299 -0.0287955 0)
(1.03367 -0.0313177 0)
(1.03761 -0.0338467 0)
(1.04171 -0.0363625 0)
(1.04595 -0.0388459 0)
(1.05031 -0.0412788 0)
(1.05476 -0.0436447 0)
(1.05929 -0.0459286 0)
(1.06387 -0.0481166 0)
(1.06849 -0.0501954 0)
(1.07311 -0.0521487 0)
(1.07772 -0.0539515 0)
(1.0823 -0.0555572 0)
(1.08682 -0.0568716 0)
(1.09118 -0.0577051 0)
(1.00002 -0.000710415 0)
(1.00029 -0.00209655 0)
(1.00086 -0.00348306 0)
(1.00165 -0.00490964 0)
(1.00269 -0.00640773 0)
(1.00394 -0.00800145 0)
(1.00543 -0.00970733 0)
(1.00714 -0.0115361 0)
(1.00909 -0.013493 0)
(1.01126 -0.0155783 0)
(1.01367 -0.0177878 0)
(1.01631 -0.0201135 0)
(1.01917 -0.0225433 0)
(1.02226 -0.0250624 0)
(1.02557 -0.0276534 0)
(1.02908 -0.030297 0)
(1.03279 -0.0329727 0)
(1.03667 -0.0356594 0)
(1.04073 -0.0383359 0)
(1.04493 -0.0409817 0)
(1.04925 -0.0435776 0)
(1.05368 -0.0461054 0)
(1.0582 -0.0485491 0)
(1.06278 -0.0508934 0)
(1.0674 -0.0531236 0)
(1.07203 -0.055222 0)
(1.07667 -0.057161 0)
(1.08127 -0.0588905 0)
(1.08582 -0.0603089 0)
(1.09022 -0.0612122 0)
(1.00002 -0.000739867 0)
(1.00028 -0.00218301 0)
(1.00082 -0.00362739 0)
(1.00159 -0.00511377 0)
(1.00258 -0.00667563 0)
(1.00379 -0.00833824 0)
(1.00522 -0.0101192 0)
(1.00687 -0.0120301 0)
(1.00875 -0.0140768 0)
(1.01085 -0.01626 0)
(1.01319 -0.0185759 0)
(1.01575 -0.0210162 0)
(1.01854 -0.0235691 0)
(1.02155 -0.0262192 0)
(1.02478 -0.0289486 0)
(1.02823 -0.0317374 0)
(1.03187 -0.0345641 0)
(1.0357 -0.0374065 0)
(1.0397 -0.0402424 0)
(1.04386 -0.04305 0)
(1.04815 -0.0458086 0)
(1.05256 -0.0484989 0)
(1.05706 -0.0511034 0)
(1.06163 -0.0536056 0)
(1.06625 -0.0559893 0)
(1.0709 -0.058235 0)
(1.07555 -0.060313 0)
(1.08019 -0.062169 0)
(1.08477 -0.0636941 0)
(1.0892 -0.0646695 0)
(1.00001 -0.000767444 0)
(1.00027 -0.00226393 0)
(1.00079 -0.00376255 0)
(1.00152 -0.00530503 0)
(1.00247 -0.00692689 0)
(1.00363 -0.00865444 0)
(1.00501 -0.0105064 0)
(1.0066 -0.0124953 0)
(1.0084 -0.0146274 0)
(1.01044 -0.0169042 0)
(1.01269 -0.0193221 0)
(1.01517 -0.0218729 0)
(1.01788 -0.0245447 0)
(1.02082 -0.027322 0)
(1.02397 -0.0301864 0)
(1.02734 -0.0331173 0)
(1.03092 -0.0360925 0)
(1.03469 -0.0390887 0)
(1.03863 -0.0420825 0)
(1.04274 -0.0450511 0)
(1.047 -0.0479723 0)
(1.05138 -0.0508256 0)
(1.05586 -0.0535919 0)
(1.06042 -0.0562536 0)
(1.06505 -0.0587928 0)
(1.06971 -0.0611883 0)
(1.07438 -0.063408 0)
(1.07904 -0.0653933 0)
(1.08367 -0.0670282 0)
(1.08812 -0.0680781 0)
(1.00001 -0.000793195 0)
(1.00025 -0.00233944 0)
(1.00075 -0.00388877 0)
(1.00145 -0.00548375 0)
(1.00236 -0.00716191 0)
(1.00347 -0.00895056 0)
(1.00479 -0.0108696 0)
(1.00631 -0.0129322 0)
(1.00805 -0.0151456 0)
(1.01001 -0.0175117 0)
(1.01218 -0.0200272 0)
(1.01459 -0.0226842 0)
(1.01721 -0.0254709 0)
(1.02007 -0.0283716 0)
(1.02314 -0.0313675 0)
(1.02644 -0.0344374 0)
(1.02994 -0.0375584 0)
(1.03364 -0.0407063 0)
(1.03753 -0.0438567 0)
(1.04159 -0.0469854 0)
(1.0458 -0.0500691 0)
(1.05015 -0.0530858 0)
(1.05461 -0.0560151 0)
(1.05917 -0.0588378 0)
(1.06379 -0.0615345 0)
(1.06846 -0.0640824 0)
(1.07315 -0.0664465 0)
(1.07784 -0.0685641 0)
(1.0825 -0.0703115 0)
(1.08699 -0.0714385 0)
(1.00001 -0.000817172 0)
(1.00024 -0.00240972 0)
(1.00071 -0.00400632 0)
(1.00138 -0.00565029 0)
(1.00225 -0.00738113 0)
(1.00331 -0.00922713 0)
(1.00456 -0.0112093 0)
(1.00602 -0.0133416 0)
(1.00769 -0.0156321 0)
(1.00957 -0.0180832 0)
(1.01167 -0.020692 0)
(1.01399 -0.0234511 0)
(1.01653 -0.0263486 0)
(1.0193 -0.0293688 0)
(1.02229 -0.0324926 0)
(1.02551 -0.0356984 0)
(1.02893 -0.0389626 0)
(1.03257 -0.0422601 0)
(1.03639 -0.0455656 0)
(1.0404 -0.0488535 0)
(1.04457 -0.0520994 0)
(1.04888 -0.0552799 0)
(1.05332 -0.0583731 0)
(1.05786 -0.0613584 0)
(1.06248 -0.0642148 0)
(1.06716 -0.0669175 0)
(1.07187 -0.0694288 0)
(1.07658 -0.0716817 0)
(1.08128 -0.0735448 0)
(1.08579 -0.0747513 0)
(1.00001 -0.000839429 0)
(1.00023 -0.00247492 0)
(1.00068 -0.00411545 0)
(1.00131 -0.00580501 0)
(1.00213 -0.00758503 0)
(1.00314 -0.0094847 0)
(1.00434 -0.0115262 0)
(1.00573 -0.0137242 0)
(1.00733 -0.0160877 0)
(1.00913 -0.0186195 0)
(1.01114 -0.0213175 0)
(1.01338 -0.0241745 0)
(1.01583 -0.0271787 0)
(1.01852 -0.0303145 0)
(1.02142 -0.0335627 0)
(1.02455 -0.0369012 0)
(1.0279 -0.0403058 0)
(1.03146 -0.0437508 0)
(1.03522 -0.0472096 0)
(1.03917 -0.0506559 0)
(1.0433 -0.0540636 0)
(1.04757 -0.0574082 0)
(1.05198 -0.0606663 0)
(1.05651 -0.0638157 0)
(1.06112 -0.0668339 0)
(1.06581 -0.0696938 0)
(1.07053 -0.0723552 0)
(1.07527 -0.0747464 0)
(1.08001 -0.0767282 0)
(1.08454 -0.0780169 0)
(1.00001 -0.000860024 0)
(1.00022 -0.0025352 0)
(1.00064 -0.00421645 0)
(1.00124 -0.0059483 0)
(1.00202 -0.00777409 0)
(1.00297 -0.00972386 0)
(1.00411 -0.0118209 0)
(1.00544 -0.0140808 0)
(1.00696 -0.0165132 0)
(1.00868 -0.0191217 0)
(1.01061 -0.0219047 0)
(1.01276 -0.0248553 0)
(1.01513 -0.0279622 0)
(1.01772 -0.0312097 0)
(1.02054 -0.0345786 0)
(1.02358 -0.0380466 0)
(1.02685 -0.0415888 0)
(1.03033 -0.0451789 0)
(1.03403 -0.0487895 0)
(1.03791 -0.0523929 0)
(1.04198 -0.0559621 0)
(1.04622 -0.059471 0)
(1.0506 -0.0628949 0)
(1.05511 -0.0662099 0)
(1.05971 -0.0693918 0)
(1.0644 -0.0724115 0)
(1.06914 -0.0752258 0)
(1.0739 -0.0777583 0)
(1.07867 -0.079862 0)
(1.08324 -0.0812356 0)
(1.00001 -0.000879013 0)
(1.0002 -0.00259076 0)
(1.0006 -0.00430959 0)
(1.00117 -0.00608054 0)
(1.0019 -0.00794879 0)
(1.00281 -0.0099452 0)
(1.00388 -0.0120941 0)
(1.00514 -0.0144121 0)
(1.00659 -0.0169095 0)
(1.00823 -0.0195906 0)
(1.01007 -0.0224544 0)
(1.01213 -0.0254945 0)
(1.01441 -0.0287 0)
(1.01691 -0.0320554 0)
(1.01964 -0.0355414 0)
(1.02259 -0.0391355 0)
(1.02577 -0.0428125 0)
(1.02918 -0.0465453 0)
(1.0328 -0.0503058 0)
(1.03662 -0.0540652 0)
(1.04064 -0.0577953 0)
(1.04483 -0.0614687 0)
(1.04918 -0.0650591 0)
(1.05366 -0.0685411 0)
(1.05826 -0.0718887 0)
(1.06295 -0.0750706 0)
(1.0677 -0.0780407 0)
(1.07248 -0.0807175 0)
(1.07729 -0.0829463 0)
(1.08187 -0.0844074 0)
(1.00001 -0.000896456 0)
(1.00019 -0.00264175 0)
(1.00057 -0.00439515 0)
(1.00109 -0.00620213 0)
(1.00179 -0.00810965 0)
(1.00264 -0.0101493 0)
(1.00365 -0.0123467 0)
(1.00484 -0.014719 0)
(1.00621 -0.0172774 0)
(1.00777 -0.0200272 0)
(1.00953 -0.0229677 0)
(1.0115 -0.0260933 0)
(1.01368 -0.0293934 0)
(1.01609 -0.0328527 0)
(1.01872 -0.0364521 0)
(1.02159 -0.040169 0)
(1.02468 -0.0439777 0)
(1.028 -0.0478508 0)
(1.03155 -0.0517593 0)
(1.0353 -0.0556734 0)
(1.03926 -0.0595638 0)
(1.0434 -0.0634016 0)
(1.04771 -0.0671592 0)
(1.05217 -0.0708095 0)
(1.05676 -0.0743247 0)
(1.06144 -0.0776712 0)
(1.06621 -0.0807998 0)
(1.07101 -0.0836239 0)
(1.07585 -0.085981 0)
(1.08045 -0.0875323 0)
(1.00001 -0.000912413 0)
(1.00018 -0.00268836 0)
(1.00053 -0.00447344 0)
(1.00102 -0.00631348 0)
(1.00167 -0.00825718 0)
(1.00247 -0.0103369 0)
(1.00342 -0.0125792 0)
(1.00454 -0.0150022 0)
(1.00584 -0.017618 0)
(1.00731 -0.0204324 0)
(1.00899 -0.0234457 0)
(1.01086 -0.0266527 0)
(1.01295 -0.0300433 0)
(1.01526 -0.0336027 0)
(1.0178 -0.0373118 0)
(1.02057 -0.041148 0)
(1.02357 -0.0450855 0)
(1.02681 -0.0490963 0)
(1.03027 -0.0531506 0)
(1.03396 -0.057218 0)
(1.03785 -0.0612679 0)
(1.04194 -0.06527 0)
(1.04621 -0.0691954 0)
(1.05064 -0.0730153 0)
(1.05521 -0.0766999 0)
(1.0599 -0.0802133 0)
(1.06466 -0.0835032 0)
(1.06949 -0.0864775 0)
(1.07436 -0.0889661 0)
(1.07898 -0.0906102 0)
(1.00001 -0.000926944 0)
(1.00017 -0.00273076 0)
(1.00049 -0.00454474 0)
(1.00095 -0.00641498 0)
(1.00155 -0.00839189 0)
(1.0023 -0.0105085 0)
(1.00319 -0.0127925 0)
(1.00424 -0.0152627 0)
(1.00546 -0.0179321 0)
(1.00685 -0.0208074 0)
(1.00844 -0.0238895 0)
(1.01022 -0.0271739 0)
(1.01221 -0.030651 0)
(1.01443 -0.0343065 0)
(1.01686 -0.0381216 0)
(1.01954 -0.0420736 0)
(1.02245 -0.0461368 0)
(1.02559 -0.0502826 0)
(1.02898 -0.0544807 0)
(1.03259 -0.0586998 0)
(1.03641 -0.0629082 0)
(1.04045 -0.0670744 0)
(1.04468 -0.071168 0)
(1.04908 -0.0751584 0)
(1.05362 -0.0790141 0)
(1.0583 -0.0826967 0)
(1.06308 -0.0861506 0)
(1.06792 -0.089278 0)
(1.07282 -0.0919013 0)
(1.07746 -0.0936409 0)
(1.00001 -0.000940108 0)
(1.00015 -0.00276914 0)
(1.00045 -0.00460934 0)
(1.00088 -0.00650705 0)
(1.00144 -0.00851431 0)
(1.00213 -0.0106648 0)
(1.00296 -0.0129872 0)
(1.00394 -0.0155012 0)
(1.00508 -0.0182207 0)
(1.00639 -0.0211531 0)
(1.00789 -0.0243001 0)
(1.00958 -0.027658 0)
(1.01147 -0.0312177 0)
(1.01359 -0.0349654 0)
(1.01592 -0.0388827 0)
(1.0185 -0.042947 0)
(1.02131 -0.0471326 0)
(1.02437 -0.0514106 0)
(1.02766 -0.0557503 0)
(1.03119 -0.0601194 0)
(1.03495 -0.0644852 0)
(1.03893 -0.0688152 0)
(1.04311 -0.0730772 0)
(1.04747 -0.0772392 0)
(1.052 -0.0812676 0)
(1.05666 -0.0851214 0)
(1.06144 -0.0887419 0)
(1.0663 -0.0920253 0)
(1.07123 -0.0947865 0)
(1.07588 -0.0966241 0)
(1.00001 -0.000951966 0)
(1.00014 -0.00280368 0)
(1.00042 -0.00466753 0)
(1.00081 -0.00659009 0)
(1.00132 -0.00862495 0)
(1.00196 -0.0108064 0)
(1.00273 -0.0131642 0)
(1.00364 -0.0157187 0)
(1.00471 -0.0184848 0)
(1.00593 -0.0214706 0)
(1.00734 -0.0246787 0)
(1.00893 -0.0281061 0)
(1.01073 -0.0317445 0)
(1.01274 -0.0355805 0)
(1.01498 -0.0395962 0)
(1.01745 -0.0437694 0)
(1.02017 -0.0480741 0)
(1.02312 -0.0524815 0)
(1.02633 -0.0569603 0)
(1.02978 -0.0614775 0)
(1.03347 -0.0659996 0)
(1.03738 -0.0704927 0)
(1.04151 -0.0749234 0)
(1.04583 -0.0792577 0)
(1.05033 -0.0834602 0)
(1.05499 -0.0874873 0)
(1.05976 -0.0912769 0)
(1.06463 -0.094719 0)
(1.06959 -0.0976213 0)
(1.07425 -0.0995595 0)
(1.00001 -0.000962576 0)
(1.00013 -0.00283454 0)
(1.00038 -0.0047196 0)
(1.00074 -0.0066645 0)
(1.00121 -0.00872432 0)
(1.00179 -0.0109339 0)
(1.0025 -0.0133241 0)
(1.00335 -0.0159159 0)
(1.00433 -0.0187252 0)
(1.00548 -0.0217609 0)
(1.00679 -0.0250264 0)
(1.00829 -0.0285196 0)
(1.00999 -0.0322327 0)
(1.0119 -0.0361532 0)
(1.01403 -0.0402635 0)
(1.0164 -0.0445419 0)
(1.01901 -0.0489624 0)
(1.02187 -0.0534962 0)
(1.02499 -0.0581116 0)
(1.02835 -0.062775 0)
(1.03196 -0.067452 0)
(1.03581 -0.0721076 0)
(1.03988 -0.0767068 0)
(1.04416 -0.0812141 0)
(1.04863 -0.0855921 0)
(1.05327 -0.0897942 0)
(1.05804 -0.0937555 0)
(1.06292 -0.0973589 0)
(1.06791 -0.100405 0)
(1.07257 -0.102447 0)
(1.00001 -0.000971997 0)
(1.00012 -0.0028619 0)
(1.00034 -0.00476584 0)
(1.00067 -0.00673068 0)
(1.00109 -0.00881294 0)
(1.00163 -0.011048 0)
(1.00228 -0.0134676 0)
(1.00305 -0.0160938 0)
(1.00396 -0.018943 0)
(1.00502 -0.0220251 0)
(1.00624 -0.0253444 0)
(1.00765 -0.0288995 0)
(1.00924 -0.0326836 0)
(1.01105 -0.0366847 0)
(1.01308 -0.0408859 0)
(1.01534 -0.0452657 0)
(1.01785 -0.0497987 0)
(1.02061 -0.0544558 0)
(1.02363 -0.0592052 0)
(1.02691 -0.0640127 0)
(1.03043 -0.0688431 0)
(1.03421 -0.0736602 0)
(1.03823 -0.0784278 0)
(1.04246 -0.0831086 0)
(1.0469 -0.0876632 0)
(1.05152 -0.0920422 0)
(1.05628 -0.0961773 0)
(1.06116 -0.0999445 0)
(1.06618 -0.103138 0)
(1.07084 -0.105285 0)
(1.00001 -0.000980286 0)
(1.0001 -0.00288593 0)
(1.00031 -0.00480652 0)
(1.0006 -0.00678902 0)
(1.00098 -0.00889131 0)
(1.00146 -0.0111493 0)
(1.00205 -0.0135957 0)
(1.00276 -0.0162531 0)
(1.00359 -0.0191391 0)
(1.00456 -0.0222642 0)
(1.0057 -0.0256337 0)
(1.00701 -0.0292471 0)
(1.0085 -0.0330983 0)
(1.0102 -0.0371762 0)
(1.01213 -0.0414645 0)
(1.01428 -0.0459422 0)
(1.01669 -0.0505843 0)
(1.01934 -0.0553616 0)
(1.02226 -0.0602421 0)
(1.02545 -0.0651915 0)
(1.02889 -0.0701736 0)
(1.0326 -0.0751511 0)
(1.03655 -0.0800868 0)
(1.04073 -0.0849413 0)
(1.04513 -0.0896736 0)
(1.04973 -0.094231 0)
(1.05449 -0.0985423 0)
(1.05936 -0.102476 0)
(1.06441 -0.10582 0)
(1.06906 -0.108074 0)
(1.00001 -0.000987501 0)
(1.00009 -0.0029068 0)
(1.00027 -0.00484191 0)
(1.00053 -0.0068399 0)
(1.00087 -0.00895992 0)
(1.0013 -0.0112383 0)
(1.00183 -0.0137088 0)
(1.00246 -0.0163947 0)
(1.00322 -0.0193144 0)
(1.00411 -0.0224793 0)
(1.00516 -0.0258956 0)
(1.00637 -0.0295636 0)
(1.00776 -0.0334783 0)
(1.00936 -0.0376292 0)
(1.01118 -0.0420008 0)
(1.01322 -0.0465727 0)
(1.01552 -0.0513202 0)
(1.01807 -0.0562145 0)
(1.02089 -0.0612235 0)
(1.02398 -0.0663122 0)
(1.02734 -0.0714442 0)
(1.03096 -0.0765811 0)
(1.03485 -0.0816842 0)
(1.03898 -0.0867127 0)
(1.04334 -0.0916234 0)
(1.0479 -0.0963606 0)
(1.05265 -0.10085 0)
(1.05752 -0.104952 0)
(1.06259 -0.10845 0)
(1.06724 -0.110814 0)
(1 -0.000993695 0)
(1.00008 -0.00292467 0)
(1.00024 -0.0048723 0)
(1.00046 -0.00688371 0)
(1.00076 -0.00901926 0)
(1.00114 -0.0113158 0)
(1.00161 -0.0138078 0)
(1.00218 -0.0165194 0)
(1.00286 -0.0194698 0)
(1.00367 -0.0226714 0)
(1.00462 -0.0261311 0)
(1.00573 -0.0298503 0)
(1.00703 -0.0338247 0)
(1.00852 -0.0380449 0)
(1.01023 -0.042496 0)
(1.01217 -0.0471585 0)
(1.01435 -0.0520079 0)
(1.0168 -0.0570159 0)
(1.01951 -0.0621503 0)
(1.0225 -0.067376 0)
(1.02577 -0.0726558 0)
(1.02931 -0.0779506 0)
(1.03313 -0.0832205 0)
(1.0372 -0.0884228 0)
(1.04152 -0.0935126 0)
(1.04605 -0.0984309 0)
(1.05078 -0.1031 0)
(1.05565 -0.107373 0)
(1.06074 -0.111027 0)
(1.06537 -0.113503 0)
(1 -0.000998924 0)
(1.00007 -0.0029397 0)
(1.0002 -0.00489793 0)
(1.00039 -0.0069208 0)
(1.00065 -0.00906981 0)
(1.00098 -0.0113822 0)
(1.00139 -0.0138934 0)
(1.00189 -0.0166281 0)
(1.0025 -0.0196064 0)
(1.00322 -0.0228415 0)
(1.00409 -0.0263414 0)
(1.00511 -0.0301083 0)
(1.0063 -0.0341389 0)
(1.00768 -0.0384246 0)
(1.00928 -0.0429516 0)
(1.01111 -0.0477009 0)
(1.01319 -0.0526487 0)
(1.01552 -0.057767 0)
(1.01813 -0.0630238 0)
(1.02102 -0.0683838 0)
(1.02419 -0.0738093 0)
(1.02765 -0.0792604 0)
(1.03139 -0.0846962 0)
(1.0354 -0.0900721 0)
(1.03967 -0.0953415 0)
(1.04417 -0.100442 0)
(1.04888 -0.105293 0)
(1.05373 -0.109738 0)
(1.05884 -0.113551 0)
(1.06346 -0.116141 0)
(1 -0.00100324 0)
(1.00006 -0.00295204 0)
(1.00017 -0.00491907 0)
(1.00033 -0.00695155 0)
(1.00054 -0.00911202 0)
(1.00082 -0.0114382 0)
(1.00117 -0.0139662 0)
(1.00161 -0.0167215 0)
(1.00214 -0.0197249 0)
(1.00278 -0.0229907 0)
(1.00356 -0.0265276 0)
(1.00448 -0.0303388 0)
(1.00557 -0.0344221 0)
(1.00685 -0.0387698 0)
(1.00834 -0.0433689 0)
(1.01006 -0.0482013 0)
(1.01202 -0.0532439 0)
(1.01425 -0.0584691 0)
(1.01675 -0.0638451 0)
(1.01953 -0.0693366 0)
(1.02261 -0.0749056 0)
(1.02598 -0.0805113 0)
(1.02964 -0.0861118 0)
(1.03359 -0.0916608 0)
(1.0378 -0.0971101 0)
(1.04226 -0.102393 0)
(1.04695 -0.107429 0)
(1.05179 -0.112047 0)
(1.05691 -0.116023 0)
(1.0615 -0.118729 0)
(1 -0.00100669 0)
(1.00005 -0.00296185 0)
(1.00013 -0.00493596 0)
(1.00026 -0.00697629 0)
(1.00044 -0.00914637 0)
(1.00067 -0.0114842 0)
(1.00096 -0.0140269 0)
(1.00133 -0.0168004 0)
(1.00179 -0.0198264 0)
(1.00235 -0.0231199 0)
(1.00304 -0.0266908 0)
(1.00387 -0.030543 0)
(1.00486 -0.0346756 0)
(1.00603 -0.0390816 0)
(1.00741 -0.0437492 0)
(1.00901 -0.0486611 0)
(1.01086 -0.0537949 0)
(1.01297 -0.0591235 0)
(1.01536 -0.0646155 0)
(1.01804 -0.0702356 0)
(1.02102 -0.0759457 0)
(1.0243 -0.081704 0)
(1.02788 -0.087468 0)
(1.03175 -0.0931895 0)
(1.03591 -0.0988188 0)
(1.04032 -0.104286 0)
(1.04499 -0.109506 0)
(1.04981 -0.114301 0)
(1.05495 -0.118441 0)
(1.05951 -0.121264 0)
(1 -0.00100933 0)
(1.00003 -0.00296927 0)
(1.0001 -0.00494885 0)
(1.0002 -0.00699538 0)
(1.00033 -0.00917328 0)
(1.00051 -0.011521 0)
(1.00075 -0.0140761 0)
(1.00106 -0.0168655 0)
(1.00144 -0.0199116 0)
(1.00192 -0.0232302 0)
(1.00252 -0.026832 0)
(1.00326 -0.0307222 0)
(1.00415 -0.0349006 0)
(1.00522 -0.0393616 0)
(1.00648 -0.044094 0)
(1.00797 -0.0490817 0)
(1.00971 -0.054303 0)
(1.01171 -0.0597315 0)
(1.01398 -0.0653362 0)
(1.01655 -0.071082 0)
(1.01943 -0.0769304 0)
(1.02261 -0.0828394 0)
(1.02611 -0.0887653 0)
(1.0299 -0.0946584 0)
(1.034 -0.100468 0)
(1.03837 -0.106118 0)
(1.043 -0.111525 0)
(1.04779 -0.116497 0)
(1.05295 -0.120804 0)
(1.05748 -0.123747 0)
(1 -0.0010112 0)
(1.00002 -0.00297444 0)
(1.00007 -0.00495797 0)
(1.00013 -0.00700913 0)
(1.00023 -0.00919319 0)
(1.00036 -0.0115489 0)
(1.00055 -0.0141146 0)
(1.00079 -0.0169177 0)
(1.0011 -0.0199814 0)
(1.0015 -0.0233224 0)
(1.00201 -0.0269524 0)
(1.00265 -0.0308775 0)
(1.00344 -0.0350985 0)
(1.00441 -0.0396109 0)
(1.00557 -0.0444046 0)
(1.00694 -0.0494644 0)
(1.00856 -0.0547697 0)
(1.01044 -0.0602945 0)
(1.01261 -0.0660086 0)
(1.01506 -0.0718768 0)
(1.01783 -0.077861 0)
(1.02092 -0.0839183 0)
(1.02433 -0.0900045 0)
(1.02805 -0.0960682 0)
(1.03208 -0.102057 0)
(1.03639 -0.107892 0)
(1.04099 -0.113486 0)
(1.04575 -0.118636 0)
(1.05092 -0.123114 0)
(1.05541 -0.126177 0)
(1 -0.00101236 0)
(1.00001 -0.0029775 0)
(1.00004 -0.00496355 0)
(1.00007 -0.00701788 0)
(1.00013 -0.00920651 0)
(1.00022 -0.0115685 0)
(1.00034 -0.0141429 0)
(1.00052 -0.0169576 0)
(1.00076 -0.0200367 0)
(1.00109 -0.0233977 0)
(1.00151 -0.027053 0)
(1.00206 -0.03101 0)
(1.00275 -0.0352704 0)
(1.00361 -0.0398309 0)
(1.00466 -0.0446824 0)
(1.00592 -0.0498108 0)
(1.00742 -0.0551963 0)
(1.00919 -0.0608139 0)
(1.01123 -0.0666338 0)
(1.01358 -0.0726214 0)
(1.01624 -0.0787384 0)
(1.01923 -0.0849416 0)
(1.02254 -0.0911863 0)
(1.02618 -0.0974192 0)
(1.03014 -0.103587 0)
(1.03439 -0.109606 0)
(1.03895 -0.115389 0)
(1.04368 -0.120719 0)
(1.04886 -0.125369 0)
(1.0533 -0.128555 0)
(1 -0.00101283 0)
(1 -0.00297858 0)
(1 -0.0049658 0)
(1.00001 -0.00702193 0)
(1.00003 -0.00921364 0)
(1.00007 -0.0115803 0)
(1.00014 -0.0141616 0)
(1.00026 -0.016986 0)
(1.00043 -0.0200783 0)
(1.00068 -0.0234567 0)
(1.00102 -0.0271349 0)
(1.00148 -0.0311208 0)
(1.00207 -0.0354176 0)
(1.00282 -0.0400228 0)
(1.00376 -0.0449288 0)
(1.00491 -0.0501221 0)
(1.0063 -0.0555842 0)
(1.00794 -0.061291 0)
(1.00987 -0.0672133 0)
(1.0121 -0.073317 0)
(1.01465 -0.0795638 0)
(1.01753 -0.0859104 0)
(1.02075 -0.0923114 0)
(1.0243 -0.0987122 0)
(1.02819 -0.105058 0)
(1.03238 -0.111262 0)
(1.0369 -0.117233 0)
(1.04159 -0.122744 0)
(1.04677 -0.127569 0)
(1.05117 -0.130879 0)
(1 -0.00101268 0)
(0.999991 -0.00297779 0)
(0.999973 -0.00496493 0)
(0.999952 -0.00702157 0)
(0.999935 -0.00921498 0)
(0.999931 -0.0115848 0)
(0.999949 -0.0141713 0)
(1 -0.0170035 0)
(1.00011 -0.0201069 0)
(1.00028 -0.0235006 0)
(1.00054 -0.027199 0)
(1.0009 -0.0312112 0)
(1.0014 -0.0355413 0)
(1.00204 -0.0401881 0)
(1.00287 -0.045145 0)
(1.00391 -0.0503998 0)
(1.00518 -0.0559349 0)
(1.00671 -0.0617273 0)
(1.00852 -0.0677485 0)
(1.01063 -0.0739648 0)
(1.01307 -0.0803384 0)
(1.01584 -0.0868256 0)
(1.01896 -0.0933807 0)
(1.02242 -0.0999477 0)
(1.02623 -0.106471 0)
(1.03036 -0.112858 0)
(1.03483 -0.11902 0)
(1.03947 -0.124712 0)
(1.04465 -0.129713 0)
(1.049 -0.133149 0)
(1 -0.00101192 0)
(0.999981 -0.00297528 0)
(0.999942 -0.00496115 0)
(0.999894 -0.0070171 0)
(0.99984 -0.00921089 0)
(0.999792 -0.0115825 0)
(0.999758 -0.0141726 0)
(0.999753 -0.0170108 0)
(0.99979 -0.0201234 0)
(0.999887 -0.0235301 0)
(1.00006 -0.0272463 0)
(1.00034 -0.0312821 0)
(1.00073 -0.0356427 0)
(1.00128 -0.0403279 0)
(1.002 -0.0453324 0)
(1.00292 -0.0506452 0)
(1.00408 -0.0562498 0)
(1.00548 -0.0621241 0)
(1.00717 -0.0682406 0)
(1.00917 -0.0745661 0)
(1.01149 -0.0810633 0)
(1.01415 -0.0876882 0)
(1.01717 -0.0943951 0)
(1.02054 -0.101126 0)
(1.02426 -0.107825 0)
(1.02832 -0.114396 0)
(1.03274 -0.120747 0)
(1.03734 -0.126622 0)
(1.04252 -0.131803 0)
(1.0468 -0.135366 0)
(1 -0.00101062 0)
(0.999971 -0.00297114 0)
(0.999913 -0.00495465 0)
(0.999836 -0.00700878 0)
(0.999747 -0.00920174 0)
(0.999656 -0.0115738 0)
(0.999571 -0.014166 0)