/*--------------------------------*- C++ -*----------------------------------*\
  =========                 |
  \\      /  F ield         | OpenFOAM: The Open Source CFD Toolbox
   \\    /   O peration     | Website:  https://openfoam.org
    \\  /    A nd           | Version:  7
     \\/     M anipulation  |
\*---------------------------------------------------------------------------*/
FoamFile
{
    version     2.0;
    format      ascii;
    class       volVectorField;
    location    "15";
    object      U;
}
// * * * * * * * * * * * * * * * * * * * * * * * * * * * * * * * * * * * * * //

dimensions      [0 1 -1 0 0 0 0];

internalField   nonuniform List<vector> 
2625
(
(1.21434 0.0369048 -9.38573e-22)
(1.21047 0.0374995 1.04499e-21)
(1.20652 0.0381011 -9.13317e-22)
(1.2025 0.038713 7.36235e-22)
(1.19842 0.0393382 -5.84701e-22)
(1.19426 0.0399792 1.51725e-23)
(1.19005 0.0406382 -6.44757e-23)
(1.18578 0.0413168 -2.35867e-22)
(1.18146 0.042016 9.08803e-22)
(1.17709 0.0427364 1.82532e-21)
(1.17268 0.0434781 -2.68742e-21)
(1.16823 0.0442406 1.50318e-21)
(1.16375 0.0450228 -1.63568e-21)
(1.18705 0.032052 3.3095e-23)
(1.19128 0.0315879 4.69082e-23)
(1.19545 0.0311468 2.1571e-23)
(1.19956 0.0307266 1.12222e-22)
(1.20358 0.0303247 -2.70696e-22)
(1.20753 0.0299378 -2.09007e-21)
(1.2114 0.0295628 -3.8337e-21)
(1.21517 0.0291958 -1.2525e-21)
(1.21886 0.028833 2.36789e-21)
(1.22245 0.0284703 -6.14745e-21)
(1.22594 0.0281034 -3.04515e-21)
(1.22934 0.0277279 -4.41262e-21)
(1.23264 0.0273396 8.53935e-21)
(1.23583 0.0269339 6.09047e-21)
(1.23893 0.0265066 2.6643e-20)
(1.24192 0.0260535 9.44006e-21)
(1.1869 0.0316321 -2.55543e-23)
(1.19114 0.0311759 -3.48764e-23)
(1.19531 0.0307419 -6.21281e-23)
(1.19941 0.0303282 1.98093e-23)
(1.20344 0.029932 4.54431e-22)
(1.20738 0.0295505 -4.27648e-22)
(1.21124 0.0291803 1.52087e-21)
(1.21501 0.028818 -2.9719e-21)
(1.2187 0.0284597 -1.9187e-21)
(1.22228 0.0281014 5.37103e-21)
(1.22577 0.027739 6.44875e-22)
(1.22916 0.0273683 -3.95265e-21)
(1.23245 0.026985 -4.81839e-21)
(1.23564 0.0265849 1.02136e-20)
(1.23872 0.0261637 -1.02832e-20)
(1.2417 0.0257175 -1.26615e-20)
(1.18675 0.0312088 4.5347e-23)
(1.19099 0.0307605 -6.01697e-24)
(1.19516 0.030334 3.35781e-23)
(1.19926 0.0299269 -2.37993e-23)
(1.20329 0.0295369 2.40311e-22)
(1.20723 0.0291612 8.38986e-22)
(1.21109 0.0287965 2.50853e-22)
(1.21486 0.0284394 2.02024e-21)
(1.21853 0.0280861 -2.51705e-21)
(1.22211 0.0277329 -7.5404e-21)
(1.2256 0.0273757 -2.68029e-21)
(1.22898 0.0270104 -5.0585e-21)
(1.23226 0.0266328 1.14544e-20)
(1.23544 0.026239 7.28265e-22)
(1.23851 0.0258246 -1.26052e-20)
(1.24149 0.025386 1.11276e-20)
(1.24435 0.024919 5.53136e-21)
(1.1866 0.0307818 6.24255e-24)
(1.19084 0.0303419 8.36118e-23)
(1.19501 0.029923 -2.3224e-23)
(1.19911 0.029523 4.62629e-23)
(1.20313 0.0291396 -7.42175e-22)
(1.20708 0.0287699 2.33858e-22)
(1.21093 0.028411 -3.9634e-22)
(1.2147 0.0280594 -1.17919e-21)
(1.21837 0.0277116 6.67385e-21)
(1.22195 0.0273638 5.3418e-21)
(1.22542 0.0270121 2.78944e-21)
(1.2288 0.0266525 9.40433e-21)
(1.23207 0.026281 -2.10818e-21)
(1.23524 0.0258936 -1.11682e-20)
(1.23831 0.0254864 2.03014e-20)
(1.24127 0.0250554 -6.14994e-21)
(1.24413 0.024597 -3.11766e-21)
(1.18645 0.0303513 -5.24694e-23)
(1.19069 0.0299199 -6.31678e-23)
(1.19486 0.0295087 -1.27053e-23)
(1.19896 0.0291158 -2.43045e-22)
(1.20298 0.028739 2.08004e-22)
(1.20692 0.0283756 -3.51858e-22)
(1.21077 0.0280225 1.56724e-22)
(1.21454 0.0276765 9.42855e-23)
(1.21821 0.0273342 -5.40776e-21)
(1.22178 0.0269919 -2.48639e-21)
(1.22525 0.0266457 -1.20034e-21)
(1.22862 0.0262918 3.0717e-21)
(1.23188 0.0259264 6.2336e-22)
(1.23505 0.0255454 2.21139e-21)
(1.2381 0.0251452 -7.84237e-21)
(1.24106 0.0247219 1.08666e-20)
(1.2439 0.0242719 2.55662e-21)
(1.24664 0.0237918 7.24623e-21)
(1.1863 0.0299172 1.75142e-23)
(1.19054 0.0294942 -6.72565e-23)
(1.19471 0.0290908 -1.1356e-23)
(1.19881 0.0287051 3.77577e-23)
(1.20283 0.028335 8.71571e-22)
(1.20677 0.0279778 -9.09338e-22)
(1.21062 0.0276306 1.53798e-21)
(1.21438 0.0272904 1.67341e-21)
(1.21804 0.0269536 1.76579e-21)
(1.22161 0.0266167 -2.66583e-21)
(1.22507 0.0262761 -2.06051e-21)
(1.22844 0.025928 -3.89314e-21)
(1.2317 0.0255686 -5.76662e-21)
(1.23485 0.0251941 8.45546e-21)
(1.2379 0.0248008 2.46198e-21)
(1.24084 0.0243851 -8.14852e-21)
(1.24368 0.0239435 -1.10002e-21)
(1.24641 0.0234726 9.25753e-21)
(1.18615 0.0294794 -4.01202e-23)
(1.19038 0.0290649 7.60725e-23)
(1.19455 0.0286693 3.82376e-24)
(1.19865 0.0282909 1.25389e-23)
(1.20267 0.0279275 -4.79501e-22)
(1.20661 0.0275767 1.30499e-21)
(1.21046 0.0272355 -2.2459e-21)
(1.21421 0.026901 -4.10898e-22)
(1.21787 0.0265698 3.31585e-21)
(1.22144 0.0262385 4.15504e-21)
(1.2249 0.0259035 3.7971e-21)
(1.22825 0.0255612 3.66629e-22)
(1.23151 0.0252078 7.27698e-22)
(1.23465 0.0248398 -1.00463e-20)
(1.23769 0.0244534 -9.07029e-21)
(1.24063 0.0240453 -4.99654e-22)
(1.24345 0.023612 2.05464e-20)
(1.24617 0.0231503 -1.24182e-20)
(1.24878 0.0226571 -1.05727e-20)
(1.18599 0.0290379 6.69209e-23)
(1.19023 0.028632 -2.12988e-23)
(1.1944 0.0282443 2.28114e-23)
(1.1985 0.0278732 1.95449e-22)
(1.20251 0.0275167 4.82117e-22)
(1.20645 0.0271722 -2.95398e-22)
(1.2103 0.0268371 -5.64819e-22)
(1.21405 0.0265084 -2.48179e-21)
(1.21771 0.0261829 -1.07603e-21)
(1.22126 0.0258572 7.93828e-22)
(1.22472 0.0255279 -8.6643e-22)
(1.22807 0.0251914 1.98891e-21)
(1.23132 0.0248441 3.59215e-21)
(1.23446 0.0244826 -6.68178e-21)
(1.23749 0.0241032 -7.57827e-21)
(1.24041 0.0237027 -2.08042e-21)
(1.24323 0.0232777 -1.81526e-20)
(1.24594 0.0228251 -1.39204e-21)
(1.24854 0.022342 -2.62206e-21)
(1.18584 0.0285928 -6.96634e-23)
(1.19007 0.0281954 -2.50195e-23)
(1.19424 0.0278157 3.34573e-23)
(1.19834 0.027452 8.26994e-24)
(1.20236 0.0271023 -5.5637e-22)
(1.20629 0.0267643 -9.796e-23)
(1.21013 0.0264353 -2.31686e-22)
(1.21388 0.0261125 4.16695e-21)
(1.21754 0.0257927 -3.02014e-22)
(1.22109 0.0254727 -4.81466e-22)
(1.22454 0.0251492 -2.48736e-21)
(1.22789 0.0248186 -5.60094e-21)
(1.23113 0.0244775 -4.04872e-21)
(1.23426 0.0241224 8.18351e-21)
(1.23728 0.0237501 9.6844e-21)
(1.2402 0.0233571 -7.41452e-21)
(1.24301 0.0229404 -1.3661e-21)
(1.24571 0.0224968 1.48305e-20)
(1.2483 0.0220237 -2.24956e-21)
(1.18568 0.0281439 6.71612e-23)
(1.18992 0.0277551 2.60857e-23)
(1.19409 0.0273834 -7.12338e-24)
(1.19818 0.0270272 -1.40121e-22)
(1.2022 0.0266845 -2.86654e-23)
(1.20613 0.026353 8.33335e-22)
(1.20997 0.0260302 9.43367e-22)
(1.21372 0.0257133 -7.70478e-22)
(1.21737 0.0253994 -3.14086e-21)
(1.22092 0.0250851 2.66232e-21)
(1.22436 0.0247673 4.68035e-21)
(1.2277 0.0244427 1.58962e-21)
(1.23094 0.0241078 8.49178e-22)
(1.23406 0.0237593 -8.91757e-22)
(1.23708 0.0233939 -5.3106e-21)
(1.23999 0.0230085 6.41e-21)
(1.24279 0.0226 9.18788e-21)
(1.24547 0.0221654 -2.78341e-20)
(1.24805 0.0217022 -1.30785e-20)
(1.25053 0.0212076 -1.25802e-20)
(1.18552 0.0276912 -1.71875e-23)
(1.18976 0.0273111 4.2445e-23)
(1.19393 0.0269475 3.36774e-25)
(1.19802 0.0265987 3.05492e-22)
(1.20204 0.026263 -2.30004e-22)
(1.20597 0.0259381 -9.33779e-23)
(1.20981 0.0256216 3.2632e-22)
(1.21355 0.0253108 -1.47357e-21)
(1.2172 0.0250027 1.77888e-21)
(1.22074 0.0246942 -4.74777e-21)
(1.22419 0.0243823 -6.78866e-22)
(1.22752 0.0240636 3.14365e-22)
(1.23075 0.0237349 -6.96015e-22)
(1.23387 0.023393 3.29278e-21)
(1.23688 0.0230346 3.50984e-21)
(1.23977 0.0226567 1.66156e-20)
(1.24256 0.0222564 1.26932e-20)
(1.24524 0.0218309 1.32407e-20)
(1.24781 0.0213774 1.23509e-20)
(1.25028 0.0208937 1.00915e-20)
(1.18537 0.0272348 -6.79996e-24)
(1.1896 0.0268634 -2.15298e-23)
(1.19377 0.0265078 -7.75209e-24)
(1.19786 0.0261666 3.93e-23)
(1.20188 0.025838 1.26344e-22)
(1.2058 0.0255197 -7.03878e-22)
(1.20964 0.0252095 -1.17573e-22)
(1.21338 0.0249048 -1.55375e-21)
(1.21703 0.0246026 -1.0254e-21)
(1.22057 0.0243 2.77228e-21)
(1.22401 0.023994 -3.26459e-21)
(1.22734 0.0236813 3.02175e-21)
(1.23056 0.0233589 8.5868e-22)
(1.23367 0.0230235 -5.75117e-21)
(1.23667 0.0226722 -9.71559e-21)
(1.23956 0.0223019 -4.14283e-21)
(1.24234 0.0219097 -1.34161e-20)
(1.24501 0.0214931 1.14972e-20)
(1.24758 0.0210494 -1.01856e-20)
(1.25003 0.0205763 7.84152e-21)
(1.25237 0.0200717 1.36297e-20)
(1.18521 0.0267746 -3.37138e-23)
(1.18944 0.0264119 1.3363e-25)
(1.19361 0.0260644 -2.99019e-23)
(1.1977 0.0257308 -2.915e-22)
(1.20171 0.0254093 5.20985e-22)
(1.20564 0.0250977 -3.52743e-22)
(1.20948 0.0247939 3.34783e-22)
(1.21322 0.0244953 1.05232e-21)
(1.21686 0.0241991 1.35195e-21)
(1.22039 0.0239024 -4.63464e-21)
(1.22383 0.0236023 4.14008e-21)
(1.22715 0.0232957 -6.28067e-21)
(1.23037 0.0229796 6.32363e-21)
(1.23347 0.0226508 -4.00672e-21)
(1.23647 0.0223065 1.10866e-20)
(1.23935 0.0219437 -1.66517e-20)
(1.24212 0.0215598 -1.82307e-21)
(1.24479 0.021152 -1.69576e-20)
(1.24734 0.0207179 1.19482e-20)
(1.24978 0.0202554 1.13962e-20)
(1.25211 0.0197624 -7.50032e-21)
(1.18505 0.0263106 7.35926e-23)
(1.18928 0.0259566 5.49448e-23)
(1.19345 0.0256173 1.69404e-23)
(1.19754 0.0252913 2.69134e-22)
(1.20155 0.0249769 -3.0509e-22)
(1.20548 0.0246721 6.72841e-22)
(1.20931 0.0243747 2.35305e-22)
(1.21305 0.0240822 4.3272e-22)
(1.21668 0.0237921 -9.62603e-23)
(1.22022 0.0235014 1.22166e-21)
(1.22365 0.0232073 -8.13223e-22)
(1.22697 0.0229068 4.58368e-21)
(1.23018 0.022597 -7.1965e-21)
(1.23328 0.0222749 6.76258e-21)
(1.23626 0.0219376 1.1974e-20)
(1.23914 0.0215824 -3.9688e-21)
(1.24191 0.0212065 6.87015e-21)
(1.24456 0.0208075 -2.66259e-21)
(1.2471 0.0203831 2.62767e-21)
(1.24953 0.0199311 -1.46908e-20)
(1.25186 0.0194496 -1.48097e-20)
(1.25407 0.0189367 -2.77671e-21)
(1.18489 0.0258427 -9.57065e-23)
(1.18912 0.0254975 -6.58712e-23)
(1.19329 0.0251663 -5.276e-24)
(1.19738 0.024848 -1.84691e-22)
(1.20139 0.0245407 -1.77017e-22)
(1.20531 0.0242427 -8.00867e-22)
(1.20914 0.0239518 2.46428e-22)
(1.21288 0.0236656 -2.29419e-21)
(1.21651 0.0233815 1.64423e-21)
(1.22004 0.0230969 3.85243e-21)
(1.22347 0.0228088 -1.29397e-21)
(1.22678 0.0225145 -2.38326e-21)
(1.22999 0.022211 2.87459e-21)
(1.23308 0.0218956 4.79184e-21)
(1.23606 0.0215653 -6.47899e-21)
(1.23893 0.0212176 1.06188e-20)
(1.24169 0.0208499 -5.3275e-21)
(1.24433 0.0204597 -6.42131e-22)
(1.24687 0.0200448 3.87643e-21)
(1.24929 0.0196032 8.60622e-21)
(1.2516 0.019133 8.18457e-21)
(1.2538 0.0186325 9.63482e-21)
(1.2559 0.0181003 -8.04271e-21)
(1.18473 0.025371 7.98706e-24)
(1.18896 0.0250345 -2.1762e-23)
(1.19313 0.0247115 4.73534e-24)
(1.19722 0.0244008 -1.22308e-22)
(1.20122 0.0241008 2.5862e-22)
(1.20515 0.0238097 7.4863e-23)
(1.20898 0.0235253 5.03632e-23)
(1.21271 0.0232453 -3.37328e-22)
(1.21634 0.0229674 -2.17081e-21)
(1.21987 0.0226888 -3.60767e-21)
(1.22329 0.0224068 -2.32081e-21)
(1.2266 0.0221187 -1.48135e-22)
(1.2298 0.0218216 -4.78907e-21)
(1.23288 0.0215128 -3.33992e-21)
(1.23586 0.0211897 -4.77619e-21)
(1.23872 0.0208495 8.74229e-21)
(1.24147 0.0204899 -9.98177e-21)
(1.24411 0.0201084 2.35474e-20)
(1.24663 0.019703 -7.70719e-21)
(1.24905 0.0192717 -1.29571e-20)
(1.25135 0.0188128 7.19533e-21)
(1.25354 0.0183245 -8.55408e-21)
(1.25563 0.0178056 1.4649e-20)
(1.18457 0.0248954 -5.82214e-24)
(1.1888 0.0245676 3.52422e-23)
(1.19297 0.0242529 9.87093e-24)
(1.19705 0.0239499 -7.14231e-23)
(1.20106 0.0236571 9.78299e-23)
(1.20498 0.0233728 7.4233e-22)
(1.20881 0.023095 -1.36544e-21)
(1.21254 0.0228214 1.452e-21)
(1.21617 0.0225496 -4.79527e-22)
(1.21969 0.0222771 3.72882e-21)
(1.22311 0.0220012 -2.57776e-21)
(1.22641 0.0217193 4.12745e-21)
(1.22961 0.0214287 1.00171e-20)
(1.23269 0.0211266 -1.41721e-21)
(1.23566 0.0208105 -2.43225e-21)
(1.23851 0.0204779 -6.05608e-21)
(1.24125 0.0201263 1.8673e-20)
(1.24388 0.0197536 -4.76074e-21)
(1.2464 0.0193577 9.18507e-21)
(1.24881 0.0189366 2.05188e-20)
(1.2511 0.0184888 -1.58728e-20)
(1.25328 0.0180126 -1.38406e-20)
(1.25536 0.0175068 -2.0976e-21)
(1.25733 0.0169703 -1.90988e-20)
(1.18442 0.0244159 8.45712e-23)
(1.18864 0.0240969 -1.08091e-23)
(1.1928 0.0237903 -1.34988e-23)
(1.19689 0.023495 8.07656e-23)
(1.2009 0.0232095 -1.31068e-22)
(1.20481 0.0229321 -9.67076e-22)
(1.20864 0.0226609 5.15466e-22)
(1.21237 0.0223936 -7.29416e-22)
(1.21599 0.0221281 1.24532e-21)
(1.21951 0.0218617 -3.47797e-21)
(1.22293 0.021592 2.50277e-21)
(1.22623 0.0213164 -4.2581e-21)
(1.22942 0.0210322 -2.9179e-21)
(1.23249 0.0207368 -5.42214e-21)
(1.23546 0.0204278 1.04906e-20)
(1.23831 0.0201027 -4.44747e-21)
(1.24104 0.0197592 -1.36414e-20)
(1.24366 0.0193952 -1.19816e-20)
(1.24617 0.0190087 1.28974e-20)
(1.24857 0.0185978 -1.0734e-20)
(1.25085 0.018161 2.98932e-20)
(1.25303 0.0176968 1.02301e-21)
(1.25509 0.017204 -1.82787e-20)
(1.25705 0.0166815 6.95506e-21)
(1.18426 0.0239325 1.40054e-23)
(1.18848 0.0236222 1.6017e-23)
(1.19264 0.0233238 -4.21403e-24)
(1.19673 0.0230362 -1.21607e-22)
(1.20073 0.022758 -4.5056e-23)
(1.20465 0.0224875 1.14709e-21)
(1.20847 0.0222229 1.33467e-21)
(1.2122 0.0219621 2.17338e-21)
(1.21582 0.0217027 1.64323e-21)
(1.21934 0.0214426 1.46351e-21)
(1.22275 0.0211791 -2.62809e-21)
(1.22604 0.0209097 4.04772e-21)
(1.22923 0.020632 -6.81931e-21)
(1.2323 0.0203434 1.09577e-21)
(1.23526 0.0200415 -1.98983e-21)
(1.2381 0.019724 1.25661e-21)
(1.24083 0.0193885 -2.16268e-21)
(1.24344 0.0190332 1.50625e-21)
(1.24594 0.0186559 -2.59681e-20)
(1.24833 0.0182552 -7.70713e-22)
(1.25061 0.0178293 -3.06757e-20)
(1.25277 0.0173769 2.11129e-20)
(1.25483 0.0168969 1.16981e-20)
(1.25678 0.0163883 6.49674e-21)
(1.25862 0.0158502 -1.54259e-20)
(1.1841 0.0234451 1.63531e-23)
(1.18832 0.0231435 2.11482e-23)
(1.19248 0.0228533 5.69844e-24)
(1.19656 0.0225735 2.33633e-22)
(1.20057 0.0223025 -5.17851e-22)
(1.20448 0.022039 -1.11076e-21)
(1.2083 0.021781 -1.25249e-21)
(1.21203 0.0215266 -6.73817e-22)
(1.21565 0.0212736 -8.31427e-22)
(1.21916 0.0210197 -1.04929e-21)
(1.22257 0.0207624 -8.3091e-23)
(1.22586 0.0204994 8.2872e-22)
(1.22904 0.0202282 9.54847e-21)
(1.23211 0.0199464 3.5353e-21)
(1.23506 0.0196516 -7.92668e-21)
(1.23789 0.0193415 -6.29125e-21)
(1.24061 0.0190142 1.3595e-20)
(1.24322 0.0186674 -6.44548e-21)
(1.24571 0.0182995 6.37707e-22)
(1.24809 0.0179087 7.41254e-21)
(1.25036 0.0174937 2.89686e-20)
(1.25252 0.017053 -1.39128e-21)
(1.25457 0.0165857 -1.6608e-20)
(1.25651 0.0160908 -1.78392e-20)
(1.25835 0.0155674 3.75823e-20)
(1.18394 0.0229538 -1.17465e-22)
(1.18816 0.0226609 3.00443e-23)
(1.19232 0.0223789 -6.82361e-24)
(1.1964 0.0221067 1.07544e-23)
(1.2004 0.0218431 9.7185e-22)
(1.20431 0.0215865 5.02094e-22)
(1.20813 0.0213352 -3.34897e-22)
(1.21185 0.0210873 8.4539e-22)
(1.21547 0.0208406 3.07928e-22)
(1.21898 0.0205929 3.48174e-21)
(1.22239 0.0203419 3.85632e-21)
(1.22568 0.0200852 -4.63684e-21)
(1.22885 0.0198205 -2.2948e-21)
(1.23191 0.0195455 1.60161e-22)
(1.23486 0.0192578 5.36147e-21)
(1.23769 0.0189554 8.31704e-21)
(1.2404 0.018636 -9.96657e-21)
(1.243 0.0182979 1.11432e-20)
(1.24549 0.0179392 1.06968e-20)
(1.24786 0.0175584 -1.08644e-20)
(1.25012 0.0171541 -3.26774e-20)
(1.25227 0.0167251 6.68809e-21)
(1.25431 0.0162703 3.02178e-20)
(1.25625 0.0157888 -4.38646e-21)
(1.25807 0.01528 -4.14808e-21)
(1.25979 0.0147431 -5.22263e-21)
(1.18378 0.0224585 4.70751e-23)
(1.188 0.0221742 -3.11677e-23)
(1.19216 0.0219004 -3.63545e-24)
(1.19624 0.0216359 -1.20235e-22)
(1.20024 0.0213796 -2.70447e-22)
(1.20415 0.02113 1.46915e-22)
(1.20797 0.0208854 1.01549e-21)
(1.21168 0.0206439 -8.64833e-22)
(1.2153 0.0204036 -3.81815e-21)
(1.21881 0.0201622 -5.01069e-21)
(1.22221 0.0199175 3.87237e-21)
(1.22549 0.0196672 -2.35863e-21)
(1.22866 0.0194091 -4.50911e-21)
(1.23172 0.0191408 1.89779e-21)
(1.23466 0.0188603 -1.5394e-21)
(1.23749 0.0185654 -2.87087e-21)
(1.24019 0.0182541 -2.95058e-22)
(1.24279 0.0179245 -2.07391e-21)
(1.24527 0.017575 -1.08663e-20)
(1.24763 0.0172041 9.22247e-21)
(1.24988 0.0168105 1.25245e-20)
(1.25203 0.016393 -2.8222e-20)
(1.25406 0.0159506 -9.08797e-21)
(1.25598 0.0154825 3.51402e-21)
(1.2578 0.0149879 -1.94589e-20)
(1.25951 0.0144664 3.20139e-20)
(1.26112 0.0139174 4.53063e-22)
(1.18363 0.0219592 -1.18887e-23)
(1.18785 0.0216835 -3.0216e-23)
(1.192 0.0214178 4.5935e-24)
(1.19608 0.021161 4.6426e-23)
(1.20007 0.0209121 -2.40495e-22)
(1.20398 0.0206694 6.90743e-22)
(1.2078 0.0204316 -1.41262e-21)
(1.21151 0.0201966 -1.0481e-21)
(1.21513 0.0199626 1.18707e-21)
(1.21863 0.0197275 4.63557e-21)
(1.22203 0.0194891 -9.56626e-22)
(1.22531 0.0192452 3.6145e-21)
(1.22848 0.0189937 3.439e-21)
(1.23153 0.0187323 1.81252e-21)
(1.23447 0.0184589 -3.12841e-21)
(1.23728 0.0181715 -6.57533e-22)
(1.23999 0.0178682 5.29494e-21)
(1.24257 0.0175472 -1.25846e-20)
(1.24504 0.0172069 4.17723e-21)
(1.2474 0.0168459 -1.21362e-20)
(1.24965 0.0164628 5.34505e-21)
(1.25178 0.0160567 -3.66195e-21)
(1.25381 0.0156266 -1.0743e-20)
(1.25573 0.0151716 -7.36279e-21)
(1.25754 0.0146912 1.60314e-20)
(1.25924 0.0141848 -1.10524e-20)
(1.26084 0.013652 -4.55655e-21)
(1.18347 0.0214559 1.00897e-23)
(1.18769 0.0211888 -9.53308e-25)
(1.19184 0.0209311 3.64334e-25)
(1.19591 0.0206821 4.30693e-23)
(1.19991 0.0204404 4.27824e-22)
(1.20382 0.0202048 -9.2839e-22)
(1.20763 0.0199736 1.20858e-21)
(1.21134 0.0197451 1.18334e-21)
(1.21495 0.0195175 1.71619e-21)
(1.21846 0.0192887 -3.9034e-21)
(1.22185 0.0190567 -2.16119e-21)
(1.22513 0.0188192 -4.51096e-21)
(1.22829 0.0185743 -2.99395e-21)
(1.23134 0.0183197 -4.1397e-21)
(1.23427 0.0180535 -2.98127e-21)
(1.23708 0.0177737 3.45949e-21)
(1.23978 0.0174784 1.22997e-21)
(1.24236 0.0171659 8.61682e-21)
(1.24483 0.0168348 3.43698e-21)
(1.24718 0.0164835 6.77719e-21)
(1.24942 0.016111 -7.45273e-21)
(1.25154 0.0157162 1.64436e-20)
(1.25356 0.0152982 4.12129e-21)
(1.25547 0.0148562 1.41893e-20)
(1.25727 0.0143898 -1.21828e-20)
(1.25897 0.0138983 -1.18002e-20)
(1.26056 0.0133813 2.29885e-20)
(1.26205 0.0128385 -2.12378e-21)
(1.18332 0.0209484 -2.73204e-24)
(1.18753 0.0206899 -1.11237e-23)
(1.19168 0.0204403 -1.22533e-24)
(1.19575 0.0201989 4.77959e-23)
(1.19975 0.0199646 -6.82496e-23)
(1.20365 0.0197359 8.01001e-23)
(1.20746 0.0195115 -1.20804e-21)
(1.21117 0.0192895 -1.01263e-21)
(1.21478 0.0190683 -9.23699e-22)
(1.21828 0.0188459 4.65241e-22)
(1.22167 0.0186202 -4.14606e-21)
(1.22495 0.0183892 9.9181e-21)
(1.22811 0.0181509 2.00115e-21)
(1.23115 0.0179032 -3.18877e-21)
(1.23408 0.0176441 6.13525e-21)
(1.23688 0.0173718 -1.49403e-22)
(1.23958 0.0170845 -6.27307e-21)
(1.24215 0.0167806 -3.5886e-21)
(1.24461 0.0164585 -1.02797e-20)
(1.24695 0.0161171 -7.76254e-21)
(1.24918 0.015755 1.76076e-20)
(1.2513 0.0153714 2.78032e-21)
(1.25331 0.0149654 2.45328e-20)
(1.25522 0.0145363 -1.61177e-20)
(1.25701 0.0140836 -1.29154e-20)
(1.2587 0.0136068 1.4492e-20)
(1.26029 0.0131056 -9.79461e-21)
(1.26178 0.0125794 -4.99918e-21)
(1.26316 0.012028 2.6464e-20)
(1.18316 0.0204369 1.38225e-23)
(1.18737 0.0201869 1.71448e-23)
(1.19152 0.0199454 4.01889e-24)
(1.19559 0.0197116 -7.294e-23)
(1.19958 0.0194845 -5.8825e-23)
(1.20349 0.0192628 -1.48281e-22)
(1.2073 0.0190451 1.303e-21)
(1.21101 0.0188297 2.0382e-21)
(1.21461 0.0186149 1.41413e-21)
(1.21811 0.0183988 -2.44586e-21)
(1.22149 0.0181795 1.38017e-21)
(1.22477 0.017955 -8.32403e-21)
(1.22792 0.0177233 -4.59957e-21)
(1.23096 0.0174825 5.07331e-21)
(1.23388 0.0172306 -1.83922e-21)
(1.23669 0.0169659 -2.2612e-21)
(1.23937 0.0166866 -1.69136e-21)
(1.24194 0.0163911 1.45659e-21)
(1.24439 0.0160782 1.43377e-20)
(1.24673 0.0157464 -1.83195e-20)
(1.24896 0.0153948 -1.30798e-20)
(1.25107 0.0150223 1.64082e-20)
(1.25307 0.0146282 -2.04931e-20)
(1.25497 0.0142118 2.11697e-20)
(1.25676 0.0137727 1.22168e-20)
(1.25844 0.0133104 5.13251e-21)
(1.26002 0.0128246 1.39567e-20)
(1.2615 0.0123148 1.32387e-21)
(1.26288 0.0117807 -2.48702e-20)
(1.18301 0.0199213 7.44949e-24)
(1.18722 0.0196797 -2.03508e-23)
(1.19136 0.0194462 -1.52417e-24)
(1.19543 0.0192201 -4.70214e-25)
(1.19942 0.0190003 -4.26131e-22)
(1.20332 0.0187855 -4.00698e-22)
(1.20713 0.0185745 -1.05855e-21)
(1.21084 0.0183657 -4.38997e-22)
(1.21444 0.0181573 3.32846e-22)
(1.21794 0.0179476 5.15643e-21)
(1.22132 0.0177346 -1.25188e-21)
(1.22459 0.0175166 5.78638e-22)
(1.22774 0.0172916 2.58257e-21)
(1.23078 0.0170576 -1.39748e-21)
(1.23369 0.0168129 -1.26491e-21)
(1.23649 0.0165557 1.76929e-21)
(1.23917 0.0162844 -2.34159e-21)
(1.24174 0.0159975 6.27878e-21)
(1.24418 0.0156936 -3.1037e-21)
(1.24651 0.0153715 2.33961e-20)
(1.24873 0.0150302 -4.53753e-21)
(1.25084 0.0146687 -6.86713e-22)
(1.25283 0.0142864 6.27942e-21)
(1.25472 0.0138827 9.43998e-21)
(1.2565 0.0134571 -1.85839e-21)
(1.25818 0.0130091 -2.27939e-20)
(1.25976 0.0125385 -5.67253e-22)
(1.26123 0.0120448 1.40405e-20)
(1.2626 0.0115278 2.25233e-20)
(1.26388 0.0109869 1.27502e-20)
(1.18286 0.0194016 2.00442e-23)
(1.18707 0.0191683 -4.81041e-23)
(1.19121 0.0189428 8.57731e-24)
(1.19527 0.0187243 -6.13333e-23)
(1.19926 0.0185117 3.84702e-22)
(1.20316 0.0183039 -1.47353e-22)
(1.20697 0.0180996 5.98608e-22)
(1.21067 0.0178973 -1.26969e-21)
(1.21427 0.0176953 -6.96675e-22)
(1.21776 0.017492 -1.40878e-21)
(1.22115 0.0172855 5.55801e-21)
(1.22441 0.017074 5.95185e-21)
(1.22756 0.0168556 -1.31938e-22)
(1.23059 0.0166285 -2.52688e-21)
(1.23351 0.016391 3.19583e-21)
(1.2363 0.0161414 -5.79386e-21)
(1.23897 0.015878 7.4648e-21)
(1.24153 0.0155996 2.97456e-21)
(1.24397 0.0153047 -1.09895e-21)
(1.2463 0.0149922 -8.38369e-21)
(1.24851 0.0146612 4.65471e-21)
(1.25061 0.0143107 -1.80162e-20)
(1.2526 0.0139402 5.05551e-21)
(1.25448 0.0135489 -6.82437e-21)
(1.25626 0.0131366 1.65016e-20)
(1.25793 0.0127028 1.10727e-20)
(1.25949 0.0122471 -1.97476e-20)
(1.26096 0.0117694 -3.27872e-20)
(1.26233 0.0112692 -1.41006e-20)
(1.2636 0.010746 -6.30766e-21)
(1.26478 0.0101993 2.26122e-20)
(1.18271 0.0188777 -1.83644e-24)
(1.18691 0.0186527 4.41581e-23)
(1.19105 0.0184351 -6.01e-24)
(1.19512 0.0182241 3.42471e-23)
(1.1991 0.0180188 -3.32492e-22)
(1.203 0.0178179 9.0072e-22)
(1.2068 0.0176204 -9.10151e-24)
(1.21051 0.0174246 3.89169e-22)
(1.2141 0.017229 2.94127e-22)
(1.21759 0.0170321 3.28681e-22)
(1.22097 0.016832 -5.43383e-21)
(1.22424 0.016627 9.55399e-22)
(1.22738 0.0164152 5.58607e-21)
(1.23041 0.0161951 2.43867e-22)
(1.23332 0.0159647 2.94237e-21)
(1.23611 0.0157227 4.77423e-21)
(1.23878 0.0154673 2.96615e-21)
(1.24133 0.0151973 -2.0063e-21)
(1.24377 0.0149115 8.0248e-22)
(1.24609 0.0146086 3.12197e-21)
(1.24829 0.0142878 -7.96507e-22)
(1.25039 0.0139482 -1.41243e-20)
(1.25237 0.0135893 -1.61111e-20)
(1.25424 0.0132104 3.9402e-21)
(1.25601 0.0128113 -2.66802e-20)
(1.25768 0.0123914 -4.8012e-22)
(1.25924 0.0119506 7.8618e-21)
(1.2607 0.0114886 2.46616e-20)
(1.26207 0.0110049 -1.39997e-20)
(1.26333 0.0104992 4.58812e-21)
(1.26451 0.00997086 -1.42193e-20)
(1.26559 0.00941887 -5.45489e-21)
(1.18256 0.0183496 -2.01851e-23)
(1.18676 0.0181329 8.39909e-23)
(1.1909 0.0179232 -1.27741e-25)
(1.19496 0.0177197 -6.64295e-23)
(1.19894 0.0175215 1.59751e-22)
(1.20284 0.0173276 -1.95892e-22)
(1.20664 0.0171367 1.92103e-22)
(1.21034 0.0169474 6.09187e-22)
(1.21394 0.0167583 -7.68772e-22)
(1.21743 0.0165678 -5.4846e-22)
(1.2208 0.0163741 5.74918e-21)
(1.22406 0.0161756 -6.69925e-21)
(1.2272 0.0159705 -7.34234e-21)
(1.23023 0.0157572 1.09175e-21)
(1.23313 0.0155341 -8.31219e-21)
(1.23592 0.0152996 -6.21768e-21)
(1.23859 0.0150522 -3.62129e-21)
(1.24113 0.0147907 -2.72829e-21)
(1.24356 0.0145138 -1.49917e-21)
(1.24588 0.0142205 5.3798e-21)
(1.24808 0.0139098 -1.77839e-21)
(1.25016 0.0135811 1.62279e-20)
(1.25214 0.0132338 8.71478e-21)
(1.25401 0.0128672 -8.44646e-21)
(1.25577 0.0124811 2.16883e-20)
(1.25743 0.0120751 -6.00791e-22)
(1.25899 0.0116489 -2.57667e-20)
(1.26044 0.0112023 -1.68903e-21)
(1.2618 0.010735 1.46732e-20)
(1.26307 0.0102465 -2.06639e-20)
(1.26424 0.00973624 6.64646e-21)
(1.26531 0.00920328 -1.13256e-20)
(1.18241 0.0178173 -4.63153e-24)
(1.18661 0.0176088 -9.19043e-24)
(1.19075 0.0174068 2.88906e-24)
(1.19481 0.0172108 5.05309e-23)
(1.19879 0.0170198 -3.03062e-22)
(1.20268 0.0168328 7.0616e-22)
(1.20648 0.0166486 -5.1344e-23)
(1.21018 0.0164658 -7.64466e-22)
(1.21377 0.0162831 -5.4904e-22)
(1.21726 0.016099 -2.75505e-22)
(1.22063 0.0159117 -3.18801e-21)
(1.22389 0.0157197 6.27774e-21)
(1.22703 0.0155213 8.02476e-22)
(1.23005 0.015315 2.776e-21)
(1.23295 0.015099 8.27331e-21)
(1.23573 0.0148721 8.35413e-21)
(1.2384 0.0146327 6.44551e-22)
(1.24094 0.0143796 6.83441e-23)
(1.24336 0.0141116 -9.60601e-23)
(1.24567 0.0138278 4.83885e-22)
(1.24787 0.0135274 -5.61626e-22)
(1.24995 0.0132094 -9.30906e-21)
(1.25192 0.0128735 -4.01141e-21)
(1.25378 0.0125192 5.47827e-21)
(1.25554 0.012146 -6.99328e-21)
(1.25719 0.0117537 -2.21743e-20)
(1.25874 0.011342 3.07297e-20)
(1.26019 0.0109107 1.92863e-21)
(1.26155 0.0104595 -1.69675e-20)
(1.2628 0.00998793 1.07953e-21)
(1.26397 0.00949551 2.67909e-21)
(1.26505 0.0089813 2.53848e-20)
(1.26603 0.0084444 4.37598e-21)
(1.18227 0.0172807 3.21651e-23)
(1.18646 0.0170803 -8.30546e-23)
(1.1906 0.0168861 1.51322e-24)
(1.19466 0.0166975 5.55602e-23)
(1.19863 0.0165136 4.04215e-22)
(1.20253 0.0163335 -1.15325e-21)
(1.20632 0.0161559 -3.22093e-22)
(1.21002 0.0159797 1.43438e-21)
(1.21361 0.0158034 1.84414e-21)
(1.21709 0.0156256 9.22565e-22)
(1.22046 0.0154448 -1.21095e-21)
(1.22372 0.0152593 -3.48505e-21)
(1.22686 0.0150676 9.6624e-22)
(1.22987 0.0148682 -1.12839e-21)
(1.23277 0.0146594 -4.15739e-21)
(1.23555 0.01444 -7.59845e-21)
(1.23821 0.0142086 -1.98547e-21)
(1.24075 0.0139639 2.35305e-22)
(1.24317 0.0137049 6.19771e-21)
(1.24547 0.0134306 -8.10354e-21)
(1.24766 0.0131402 -1.60578e-21)
(1.24973 0.0128331 4.74096e-22)
(1.2517 0.0125086 -1.07876e-21)
(1.25356 0.0121663 -4.92979e-21)
(1.25531 0.011806 -5.95516e-21)
(1.25695 0.0114272 1.44739e-20)
(1.2585 0.0110299 -1.34058e-20)
(1.25994 0.0106137 -2.1702e-20)
(1.26129 0.0101784 1.84717e-20)
(1.26255 0.00972358 3.26598e-20)
(1.26371 0.00924874 -7.90109e-21)
(1.26478 0.00875301 -2.81056e-20)
(1.26577 0.00823553 -4.09185e-22)
(1.26666 0.00769443 -6.86207e-21)
(1.18213 0.0167398 -4.41138e-23)
(1.18632 0.0165475 2.36995e-23)
(1.19045 0.016361 -1.57299e-23)
(1.19451 0.0161798 -2.11374e-23)
(1.19848 0.016003 -3.58661e-22)
(1.20237 0.0158296 4.14545e-22)
(1.20617 0.0156587 -3.86425e-22)
(1.20986 0.015489 -9.73326e-22)
(1.21345 0.0153191 -1.69529e-21)
(1.21693 0.0151477 -2.24883e-21)
(1.2203 0.0149732 -4.61695e-22)
(1.22355 0.0147943 2.77778e-21)
(1.22669 0.0146093 -2.73387e-21)
(1.2297 0.0144168 -2.16733e-21)
(1.23259 0.0142152 5.52846e-23)
(1.23537 0.0140034 4.9207e-21)
(1.23802 0.0137799 -5.88846e-22)
(1.24056 0.0135437 -6.04607e-22)
(1.24297 0.0132936 -8.77986e-21)
(1.24527 0.0130288 -3.36003e-21)
(1.24746 0.0127484 4.99699e-22)
(1.24953 0.012452 3.82418e-21)
(1.25149 0.0121388 -3.69956e-22)
(1.25334 0.0118086 -7.08499e-21)
(1.25508 0.011461 1.11897e-20)
(1.25672 0.0110957 1.87075e-20)
(1.25826 0.0107126 -8.51705e-21)
(1.2597 0.0103113 -3.01145e-21)
(1.26105 0.00989177 -6.40924e-21)
(1.2623 0.00945347 -1.11558e-20)
(1.26346 0.00899599 1.37047e-20)
(1.26453 0.00851849 2.65706e-20)
(1.26551 0.00802016 -8.04073e-21)
(1.2664 0.00749927 -1.54266e-20)
(1.26721 0.00695463 3.28563e-22)
(1.18199 0.0161947 -2.79126e-23)
(1.18618 0.0160103 4.14465e-23)
(1.1903 0.0158314 1.67975e-23)
(1.19436 0.0156575 -7.50749e-23)
(1.19833 0.0154877 1.45762e-22)
(1.20222 0.0153212 9.34046e-23)
(1.20601 0.0151569 5.94904e-22)
(1.2097 0.0149936 -1.38647e-21)
(1.21329 0.0148301 3.47484e-22)
(1.21677 0.0146651 1.30067e-21)
(1.22014 0.0144971 1.50649e-21)
(1.22339 0.0143246 -1.49417e-21)
(1.22652 0.0141463 2.41805e-21)
(1.22953 0.0139607 9.44118e-22)
(1.23242 0.0137664 4.18031e-21)
(1.23519 0.0135621 5.07395e-21)
(1.23784 0.0133466 3.0578e-21)
(1.24037 0.0131187 -3.98506e-21)
(1.24278 0.0128775 5.49455e-21)
(1.24508 0.0126222 1.28777e-21)
(1.24726 0.0123519 1.39619e-20)
(1.24932 0.0120661 5.35744e-21)
(1.25128 0.0117642 5.77824e-21)
(1.25312 0.0114459 6.12633e-21)
(1.25486 0.011111 -1.32671e-20)
(1.25649 0.010759 -1.72959e-20)
(1.25803 0.01039 3.13385e-20)
(1.25946 0.0100036 -9.47232e-21)
(1.2608 0.00959959 -4.75276e-21)
(1.26205 0.00917765 8.39993e-21)
(1.26321 0.00873732 -4.86188e-21)
(1.26427 0.00827782 -2.33332e-20)
(1.26525 0.0077984 2.42472e-20)
(1.26615 0.00729746 9.40905e-21)
(1.26696 0.00677384 -5.86683e-21)
(1.18185 0.0156451 -5.05594e-24)
(1.18604 0.0154686 -1.82508e-23)
(1.19016 0.0152973 -1.20183e-23)
(1.19421 0.0151307 -9.07512e-24)
(1.19818 0.0149679 -7.71467e-23)
(1.20207 0.0148081 -1.72903e-22)
(1.20586 0.0146504 -2.5793e-22)
(1.20955 0.0144936 8.25487e-22)
(1.21314 0.0143365 1.56896e-21)
(1.21661 0.0141778 -9.85214e-22)
(1.21998 0.0140162 -1.35527e-21)
(1.22322 0.0138502 -1.38767e-22)
(1.22635 0.0136786 1.97382e-21)
(1.22936 0.0134999 1.82727e-21)
(1.23225 0.0133128 -2.0395e-22)
(1.23502 0.0131161 -1.04351e-20)
(1.23766 0.0129085 -5.53842e-21)
(1.24019 0.012689 1.35537e-23)
(1.2426 0.0124568 3.32918e-21)
(1.24489 0.0122108 8.76799e-21)
(1.24706 0.0119505 -9.36098e-21)
(1.24912 0.0116753 3.58167e-21)
(1.25107 0.0113847 -8.84625e-21)
(1.25291 0.0110783 8.76746e-21)
(1.25464 0.0107559 1.46983e-20)
(1.25627 0.0104173 2.40883e-21)
(1.2578 0.0100622 -2.48622e-20)
(1.25923 0.00969047 9.15629e-21)
(1.26057 0.0093019 1.4369e-21)
(1.26181 0.00889614 -1.80361e-21)
(1.26296 0.00847278 -1.75082e-20)
(1.26403 0.00803109 7.7865e-21)
(1.265 0.00757035 -1.0189e-20)
(1.26589 0.00708911 1.06715e-20)
(1.2667 0.00658626 1.99508e-20)
(1.18171 0.0150912 7.80927e-23)
(1.1859 0.0149225 -3.47465e-23)
(1.19002 0.0147587 -1.16889e-23)
(1.19407 0.0145993 1.32264e-23)
(1.19804 0.0144434 -1.13283e-22)
(1.20192 0.0142904 2.23969e-22)
(1.20571 0.0141392 6.52126e-22)
(1.2094 0.0139888 -2.27579e-22)
(1.21298 0.013838 -2.89091e-21)
(1.21646 0.0136857 4.25678e-22)
(1.21982 0.0135305 3.2266e-21)
(1.22306 0.0133711 -3.07927e-22)
(1.22619 0.0132061 -1.06826e-21)
(1.2292 0.0130343 2.02788e-22)
(1.23208 0.0128544 -3.37616e-21)
(1.23485 0.0126652 1.14275e-20)
(1.23749 0.0124656 5.83418e-21)
(1.24001 0.0122546 -7.095e-22)
(1.24241 0.0120312 -1.12103e-20)
(1.2447 0.0117946 -8.45137e-21)
(1.24687 0.0115443 2.22842e-21)
(1.24893 0.0112797 -1.52692e-21)
(1.25087 0.0110003 1.16601e-20)
(1.25271 0.0107057 -3.99907e-21)
(1.25443 0.0103958 -1.47328e-20)
(1.25606 0.0100704 9.41211e-21)
(1.25758 0.00972915 -3.58111e-21)