/*--------------------------------*- C++ -*----------------------------------*\
  =========                 |
  \\      /  F ield         | OpenFOAM: The Open Source CFD Toolbox
   \\    /   O peration     | Website:  https://openfoam.org
    \\  /    A nd           | Version:  7
     \\/     M anipulation  |
\*---------------------------------------------------------------------------*/
FoamFile
{
    version     2.0;
    format      ascii;
    class       surfaceScalarField;
    location    "20";
    object      phi;
}
// * * * * * * * * * * * * * * * * * * * * * * * * * * * * * * * * * * * * * //

dimensions      [0 3 -1 0 0 0 0];

internalField   nonuniform List<scalar> 
1259
(
0.00418763
0.00134162
-0.00415264
0.00167089
0.00438488
0.00130526
-0.00434851
0.00442622
0.00162954
0.00447237
0.00195354
0.00452309
0.00227634
0.00259693
0.00459104
0.00126753
-0.00455331
0.00463415
0.00158644
0.00468246
0.00190523
0.00473577
0.00222303
0.00479379
0.00253891
0.00485617
0.00285182
0.00492248
0.00316065
0.00346414
0.00480657
0.00122847
-0.00476752
0.00485142
0.00154159
0.00490192
0.00185473
0.00495786
0.0021671
0.00501898
0.00247779
0.00508496
0.00278585
0.00515538
0.00309022
0.00522976
0.00338976
0.00368322
0.00503195
0.00118814
-0.00499162
0.00507853
0.00149502
0.00513121
0.00180205
0.00518981
0.0021085
0.00525409
0.00241351
0.00532374
0.00271619
0.00539839
0.00301557
0.00547758
0.00331057
0.00556074
0.00360006
0.00564723
0.00388276
0.00415735
0.00526771
0.00114659
-0.00522617
0.00531597
0.00144675
0.00537083
0.0017472
0.0054321
0.00204722
0.00549957
0.00234603
0.00557296
0.0026428
0.00565193
0.00293661
0.00573603
0.00322647
0.00582476
0.00351132
0.00591751
0.00379001
0.00601356
0.0040613
0.00432388
0.00551442
0.0011039
-0.00547173
0.00556432
0.00139686
0.00562131
0.00169021
0.00568525
0.00198328
0.00575594
0.00227535
0.00583312
0.00256562
0.00591646
0.00285326
0.00600558
0.00313735
0.00609999
0.00341691
0.00619913
0.00369087
0.00630234
0.0039581
0.00640885
0.00421737
0.00651778
0.0044674
0.00470686
0.00577269
0.00106015
-0.00572893
0.00582416
0.00134539
0.00588326
0.00163111
0.00594985
0.00191669
0.00602375
0.00220145
0.00610473
0.00248464
0.0061925
0.0027655
0.00628669
0.00304316
0.00638687
0.00331673
0.00649251
0.00358523
0.006603
0.00384761
0.00671763
0.00410274
0.00683558
0.00434945
0.00695594
0.0045865
0.0048126
0.00604315
0.00101541
-0.0059984
0.00609613
0.0012924
0.00615729
0.00156996
0.0062265
0.00184748
0.0063036
0.00212434
0.0063884
0.00239985
0.00648061
0.00267328
0.00657992
0.00294385
0.00668592
0.00321073
0.00679814
0.00347301
0.006916
0.00372974
0.00703885
0.00397989
0.00716593
0.00422238
0.00729638
0.00445605
0.00742925
0.00467972
0.00756352
0.00489219
0.00509225
0.00632648
0.000969759
-0.00628083
0.00638091
0.00123796
0.00644408
0.00150679
0.00651587
0.00177569
0.00659616
0.00204405
0.00668476
0.00231125
0.00678143
0.00257661
0.00688587
0.00283941
0.00699773
0.00309887
0.00711657
0.00335418
0.00724186
0.00360445
0.00737299
0.00384876
0.00750927
0.0040861
0.00764989
0.00431543
0.00779395
0.00453565
0.00794049
0.00474566
0.00808841
0.00494433
0.00513081
0.00662339
0.000923268
-0.0065769
0.00667922
0.00118214
0.00674434
0.00144167
0.00681868
0.00170135
0.00690213
0.00196061
0.00699451
0.00221886
0.00709563
0.00247549
0.00720522
0.00272982
0.00732295
0.00298114
0.00744842
0.00322871
0.00758116
0.00347172
0.00772061
0.00370931
0.00786611
0.00394059
0.00801694
0.0041646
0.00817224
0.00438035
0.00833109
0.00458681
0.00849246
0.00478296
0.00496799
0.00693463
0.000875996
-0.00688736
0.0069918
0.00112497
0.00705884
0.00137463
0.0071357
0.00162449
0.00722227
0.00187403
0.00731843
0.00212271
0.00742399
0.00236993
0.00753871
0.0026151
0.0076623
0.00285755
0.0077944
0.0030966
0.00793459
0.00333153
0.00808235
0.00356156
0.00823708
0.00378586
0.0083981
0.00400358
0.00856463
0.00421382
0.0087358
0.00441564
0.00891062
0.00460813
0.0047905
0.00726095
0.000827985
-0.00721294
0.00731943
0.00106649
0.00738836
0.00130569
0.00746771
0.00154514
0.0075574
0.00178434
0.00765732
0.00202279
0.0077673
0.00225995
0.00788715
0.00249525
0.0080166
0.0027281
0.00815532
0.00295788
0.00830293
0.00318392
0.00845898
0.00340551
0.0086229
0.00362194
0.00879407
0.00383241
0.00897178
0.00403612
0.0091552
0.00423223
0.00934342
0.0044199
0.00459841
0.00760316
0.000779264
-0.00755444
0.00766292
0.00100672
0.00773374
0.00123488
0.00781557
0.0014633
0.00790838
0.00169154
0.00801205
0.00191911
0.00812647
0.00214553
0.00825144
0.00237028
0.00838673
0.00259281
0.00853206
0.00281255
0.00868708
0.0030289
0.00885137
0.00324123
0.00902443
0.00344888
0.00920568
0.00365115
0.00939447
0.00384733
0.00959004
0.00403666
0.00979156
0.00421839
0.00439183
0.00796207
0.000729843
-0.00791265
0.00802312
0.000945671
0.00809583
0.00116218
0.00818017
0.00137896
0.0082761
0.0015956
0.00838356
0.00181166
0.00850242
0.00202667
0.00863253
0.00224017
0.00877368
0.00245166
0.00892562
0.00266061
0.00908802
0.00286649
0.00926052
0.00306873
0.00944266
0.00326674
0.00963392
0.00345989
0.00983369
0.00364756
0.0100413
0.00382906
0.0102559
0.00400375
0.00417095
0.00833855
0.000679715
-0.00828842
0.00840091
0.00088331
0.00847553
0.00108756
0.00856241
0.00129208
0.00866153
0.00149648
0.00877281
0.00170037
0.00889617
0.00190332
0.00903146
0.00210488
0.0091785
0.00230462
0.00933706
0.00250205
0.00950686
0.00269669
0.00968755
0.00288804
0.00987873
0.00307555
0.0100799
0.0032587
0.0102906
0.0034369
0.0105101
0.00360959
0.0107377
0.00377615
0.00393599
0.00873347
0.000628857
-0.00868262
0.00879718
0.000819601
0.00887378
0.00101096
0.00896327
0.00120259
0.00906564
0.00139412
0.00918083
0.00158518
0.00930876
0.00177539
0.00944931
0.00196434
0.00960231
0.00215162
0.00976756
0.00233681
0.00994479
0.00251946
0.0101337
0.00269912
0.0103339
0.00287534
0.010545
0.00304761
0.0107665
0.00321545
0.0109977
0.00337834
0.0112381
0.00353576
0.00368714
0.0091478
0.000577232
-0.00909617
0.00921291
0.000754487
0.00929156
0.000932316
0.00938375
0.0011104
0.00948947
0.00128839
0.00960868
0.00146597
0.00974131
0.00164276
0.00988724
0.00181841
0.0100463
0.00199254
0.0102184
0.00216477
0.0104031
0.00233469
0.0106003
0.00250192
0.0108096
0.00266604
0.0110306
0.00282661
0.0112629
0.00298321
0.0115058
0.0031354
0.0117589
0.00328269
0.0034246
0.00958251
0.000524789
-0.00953007
0.0096491
0.000687893
0.00972989
0.000851524
0.0098249
0.00101539
0.00993412
0.00117918
0.0100575
0.00134258
0.010195
0.00150528
0.0103465
0.00166694
0.0105118
0.00182721
0.0106908
0.00198577
0.0108832
0.00214224
0.0110889
0.00229629
0.0113074
0.00244754
0.0115384
0.00259562
0.0117814
0.00274015
0.0120361
0.00288075
0.0123018
0.00301701
0.00314847
0.0100387
0.000471467
-0.00998534
0.0101068
0.000619728
0.0101899
0.000768468
0.0102879
0.00091742
0.0104007
0.00106631
0.0105285
0.00121484
0.010671
0.00136274
0.0108282
0.0015097
0.011
0.00165541
0.0111862
0.00179958
0.0113866
0.00194188
0.0116009
0.00208201
0.0118288
0.00221964
0.0120699
0.00235445
0.012324
0.00248611
0.0125904
0.00261429
0.0128688
0.00273864
0.00285874
0.0105174
0.000417191
-0.0104631
0.0105872
0.000549885
0.0106727
0.000683009
0.0107738
0.000816323
0.0108905
0.000949579
0.0110228
0.00108252
0.0111707
0.00121489
0.011334
0.00134643
0.0115125
0.00147685
0.0117062
0.0016059
0.0119148
0.0017333
0.012138
0.00185877
0.0123756
0.00198204
0.0126272
0.00210282
0.0128925
0.00222084
0.013171
0.0023358
0.0134622
0.0024474
0.0025553
0.0110199
0.000361874
-0.0109646
0.0110916
0.00047824
0.0111796
0.000594986
0.011284
0.000711901
0.0114048
0.000828765
0.011542
0.000945356
0.0116954
0.00106145
0.0118651
0.0011768
0.0120507
0.00129119
0.0122523
0.00140438
0.0124694
0.00151612
0.012702
0.00162619
0.0129497
0.00173434
0.0132122
0.00184033
0.0134891
0.00194394
0.01378
0.0020449
0.0140844
0.00214297
0.00223784
0.0115476
0.00030541
-0.0114911
0.0116211
0.00040465
0.0117119
0.000504218
0.0118199
0.000603931
0.011945
0.000703604
0.0120874
0.000803044
0.0122467
0.000902058
0.0124231
0.00100045
0.0126163
0.00109801
0.0128261
0.00119456
0.0130523
0.00128987
0.0132948
0.00138377
0.0135531
0.00147603
0.0138269
0.00156648
0.014116
0.0016549
0.0144198
0.0017411
0.0147379
0.00182485
0.0019059
0.0121017
0.000247674
-0.012044
0.0121774
0.000328945
0.0122712
0.00041049
0.0123829
0.000492156
0.0125128
0.000573792
0.0126606
0.00065524
0.0128263
0.00073634
0.0130098
0.00081693
0.013211
0.000896847
0.0134296
0.000975927
0.0136655
0.00105401
0.0139183
0.00113092
0.0141878
0.00120651
0.0144737
0.00128061
0.0147755
0.00135307
0.0150929
0.00142372
0.0154254
0.00149238
0.00155884
0.012684
0.000188508
-0.0126249
0.0127621
0.000250922
0.012859
0.00031355
0.0129749
0.000376276
0.0131097
0.000438981
0.0132634
0.000501544
0.0134359
0.000563842
0.0136271
0.00062575
0.0138368
0.000687142
0.0140648
0.000747894
0.0143109
0.000807878
0.0145749
0.00086697
0.0148563
0.000925047
0.015155
0.000981984
0.0154704
0.00103766
0.0158022
0.00109195
0.0161498
0.00114472
0.00119582
0.0132962
0.000127708
-0.0132354
0.0133768
0.000170325
0.0134772
0.000213092
0.0135976
0.00025593
0.0137378
0.000298756
0.0138978
0.000341488
0.0140776
0.000384041
0.0142771
0.00042633
0.0144959
0.000468268
0.0147341
0.00050977
0.0149912
0.000550749
0.015267
0.00059112
0.0155613
0.000630798
0.0158736
0.0006697
0.0162035
0.000707741
0.0165506
0.000744838
0.0169144
0.0007809
0.000815818
0.0139401
6.49987e-05
-0.0138774
0.0140236
8.68276e-05
0.014128
0.000108736
0.0142532
0.000130683
0.0143993
0.000152626
0.0145663
0.000174522
0.014754
0.000196329
0.0149623
0.000218001
0.0151911
0.000239496
0.0154401
0.000260767
0.0157091
0.000281772
0.0159978
0.000302466
0.0163057
0.000322805
0.0166327
0.000342747
0.0169782
0.000362249
0.0173418
0.000381266
0.0177229
0.000399753
0.000417655
0.0146182
-0.0145532
0.0147051
0.0148138
0.0149445
0.0150971
0.0152716
0.0154679
0.0156859
0.0159254
0.0161862
0.016468
0.0167705
0.0170933
0.017436
0.0177983
0.0181795
0.0185793
0.00412235
0.000687688
0.00101534
0.00425458
-0.000291354
0.0042702
2.32199e-05
0.00429107
0.000341098
0.0043172
0.000661566
0.000984024
0.00444369
-0.000907475
0.0044479
-0.000606429
0.00445772
-0.000301176
0.00447321
7.73818e-06
0.0044943
0.000320002
0.00452102
0.000634845
0.000951731
0.0046611
-0.00119521
0.00465832
-0.000904702
0.0046615
-0.000609604
0.00467066
-0.000310343
0.00468586
-7.45522e-06
0.00470707
0.000298786
0.00473431
0.000607612
0.000918523
0.00488801
-0.00118456
0.00488363
-0.000900321
0.00488559
-0.000611563
0.00489394
-0.000318697
0.0049087
-2.22118e-05
0.00492992
0.000277566
0.00495757
0.000579962
0.000884471
0.00512636
-0.00117171
0.00512018
-0.000894142
0.00512075
-0.000612127
0.00512811
-0.000326065
0.00514231
-3.64122e-05
0.0051634
0.000256479
0.00519136
0.000552004
0.000849663
0.00537672
-0.00115648
0.00536856
-0.000885982
0.00536755
-0.000611124
0.00537378
-0.00033229
0.00538728
-4.99119e-05
0.0054081
0.000235654
0.00543626
0.000523849
0.000814188
0.00563967
-0.00113869
0.00562935
-0.000875669
0.00562662
-0.00060839
0.00563155
-0.000337221
0.00564421
-6.25679e-05
0.00566464
0.000215214
0.00569289
0.000495607
0.000778143
0.0059158
-0.00111816
0.00590317
-0.00086304
0.00589856
-0.000603774
0.00590205
-0.000340714
0.00591373
-7.42475e-05
0.00593366
0.000195281
0.00596188
0.000467386
0.000741621
0.00620574
-0.00109474
0.00619064
-0.000847943
0.006184
-0.000597133
0.00618592
-0.000342639
0.0061965
-8.48279e-05
0.00621582
0.000175966
0.00624392
0.000439288
0.000704711
0.0065101
-0.00106826
0.00649239
-0.000830237
0.00648359
-0.000588336
0.00648383
-0.000342875
0.0064932
-9.41988e-05
0.0065118
0.000157368
0.00653968
0.000411402
0.000667493
0.00682954
-0.00103858
0.00680908
-0.000809785
0.00679801
-0.000577261
0.00679644
-0.000341311
0.00680451
-0.000102261
0.0068223
0.000139576
0.0068499
0.000383805
0.000630035
0.00716473
-0.00100555
0.0071414
-0.000786457
0.00712794
-0.000563793
0.00712447
-0.000337847
0.00713114
-0.000108929
0.00714805
0.000122664
0.0071753
0.000356561
0.000592389
0.0075164
-0.000969025
0.00749007
-0.000760123
0.00747409
-0.000547821
0.00746864
-0.000332389
0.00747383
-0.000114123
0.0074898
0.000106695
0.00751664
0.000329719
0.000554593
0.0078853
-0.000928844
0.00785582
-0.000730652
0.00783724
-0.000529235
0.0078297
-0.00032485
0.00783335
-0.000117774
0.00784832
9.1721e-05
0.00787473
0.000303317
0.000516671
0.00827222
-0.000884855
0.00823948
-0.000697912
0.00821817
-0.000507927
0.00820846
-0.000315141
0.0082105
-0.000119817
0.00822444
7.77872e-05
0.00825038
0.000277379
0.000478629
0.00867801
-0.000836896
0.00864187
-0.000661768
0.00861773
-0.000483787
0.00860576
-0.000303179
0.00860614
-0.000120191
0.00861899
6.49311e-05
0.00864445
0.000251922
0.000440464
0.00910359
-0.000784801
0.0090639
-0.00062208
0.00903682
-0.000456701
0.00902251
-0.000288877
0.00902116
-0.000118836
0.0090329
5.3187e-05
0.00905787
0.000226954
0.000402162
0.00954991
-0.000728402
0.00950654
-0.000578706
0.00947639
-0.000426555
0.00945967
-0.000272147
0.00945652
-0.000115694
0.00946713
4.25847e-05
0.0094916
0.000202478
0.000363696
0.010018
-0.000667527
0.00997081
-0.000531502
0.00993749
-0.000393234
0.00991825
-0.000252904
0.00991326
-0.000110707
0.00992269
3.31514e-05
0.00994668
0.000178491
0.000325034
0.0105745
-0.000721513
0.010509
-0.000602004
0.0104578
-0.000480322
0.0104212
-0.00035662
0.0103994
-0.00023106
0.0103925
-0.00010382
0.0104007
2.49104e-05
0.0104242
0.000154984
0.000286135
0.0110944
-0.000636382
0.011024
-0.000531664
0.0109687
-0.000425025
0.0109287
-0.0003166
0.0109042
-0.000206534
0.0108953
-9.49821e-05
0.0109024
1.78791e-05
0.0109254
0.000131941
0.000246945
0.0116397
-0.000545551
0.0115643
-0.000456338
0.0115048
-0.00036547
0.0114612
-0.000273065
0.011434
-0.000179246
0.0114231
-8.41493e-05
0.0114289
1.20661e-05
0.0114515
0.000109332
0.0002074
0.0122117
-0.000448835
0.0121313
-0.000375866
0.0120673
-0.000301526
0.0120202
-0.000225913
0.0119901
-0.00014913
0.0119772
-7.12891e-05
0.0119818
7.4663e-06
0.012004
8.7114e-05
0.000167415
0.012812
-0.000346056
0.0127262
-0.000290097
0.0126578
-0.000233072
0.0126069
-0.000175058
0.0125739
-0.000116134
0.012559
-5.63887e-05
0.0125624
4.05285e-06
0.0125843
6.52184e-05
0.000126876
0.0134418
-0.000237056
0.0133506
-0.000198903
0.0132776
-0.000160015
0.013223
-0.000120441
0.0131871
-8.02389e-05
0.0131701
-3.9469e-05
0.0131724
1.76139e-06
0.0131941
4.35365e-05
8.56286e-05
0.0141027
-0.000121712
0.014006
-0.000102199
0.0139283
-8.23042e-05
0.0138699
-6.20539e-05
0.0138311
-4.14767e-05
0.0138123
-2.06029e-05
0.0138136
4.54665e-07
0.0138352
2.1899e-05
4.34485e-05
0.0147961
0.0146939
0.0146116
0.0145495
0.014508
0.0144874
0.0144879
0.0145098
)
;

boundaryField
{
    inlet
    {
        type            calculated;
        value           nonuniform 0();
    }
    outlet
    {
        type            calculated;
        value           nonuniform 0();
    }
    cylinder
    {
        type            calculated;
        value           nonuniform 0();
    }
    top
    {
        type            symmetryPlane;
        value           uniform 0;
    }
    bottom
    {
        type            symmetryPlane;
        value           nonuniform 0();
    }
    defaultFaces
    {
        type            empty;
        value           nonuniform 0();
    }
    procBoundary13to9
    {
        type            processor;
        value           nonuniform List<scalar> 
38
(
-0.00137661
-0.00171048
0.00422722
-0.00199969
-0.00232706
-0.00265192
0.00457808
-0.00291421
-0.00322696
-0.00353385
0.00499219
-0.00376096
0.0053075
-0.00396925
-0.0042464
0.00573627
-0.00442241
0.00611209
-0.00457634
-0.00481726
0.00662819
-0.00493437
0.00707771
-0.00502646
-0.00522679
0.00769806
-0.00527898
-0.000713139
-0.00104563
0.000281024
-3.88357e-05
-0.0040969
-0.000361972
0.000908836
-0.00424425
0.000602216
-0.00444505
0.00120387
)
;
    }
    procBoundary13to12
    {
        type            processor;
        value           nonuniform List<scalar> 
26
(
-0.00466976
-0.00489867
-0.00513921
-0.00539194
-0.00565746
-0.00593633
-0.00622916
-0.00653657
-0.00685921
-0.00719776
-0.00755293
-0.00792548
-0.0083162
-0.00872597
-0.00915568
-0.00960631
-0.0100789
0.00080114
-0.0106541
-0.0111795
-0.0117305
-0.0123085
-0.0129148
-0.0135508
-0.014218
-0.0149178
)
;
    }
    procBoundary13to14
    {
        type            processor;
        value           nonuniform List<scalar> 
19
(
0.00823658
0.00865528
0.00908811
0.00953552
0.00999813
0.0104768
0.0109726
0.0114869
0.0120214
0.0125779
0.0131585
0.0137657
0.0144019
0.0150698
0.0157724
0.0165128
0.0172944
0.0181211
0.0189969
)
;
    }
}


// ************************************************************************* //
