/*--------------------------------*- C++ -*----------------------------------*\
  =========                 |
  \\      /  F ield         | OpenFOAM: The Open Source CFD Toolbox
   \\    /   O peration     | Website:  https://openfoam.org
    \\  /    A nd           | Version:  7
     \\/     M anipulation  |
\*---------------------------------------------------------------------------*/
FoamFile
{
    version     2.0;
    format      ascii;
    class       volVectorField;
    location    "20";
    object      U;
}
// * * * * * * * * * * * * * * * * * * * * * * * * * * * * * * * * * * * * * //

dimensions      [0 1 -1 0 0 0 0];

internalField   nonuniform List<vector> 
657
(
(1.23617 0.15054 8.42471e-22)
(1.24475 0.145909 -4.99783e-21)
(1.23401 0.146689 -9.90942e-22)
(1.24253 0.142365 3.36627e-21)
(1.25054 0.137699 -5.27392e-22)
(1.25796 0.132688 1.17773e-20)
(1.26471 0.127325 4.28687e-21)
(1.23176 0.142679 5.13473e-22)
(1.24021 0.138655 -4.34289e-21)
(1.24819 0.134314 -8.26723e-21)
(1.25562 0.129652 -1.00997e-20)
(1.26245 0.124664 1.85196e-20)
(1.26857 0.119343 -4.14394e-20)
(1.27392 0.113678 3.65304e-20)
(1.27836 0.10766 2.14415e-20)
(1.22945 0.138515 -9.68207e-22)
(1.2378 0.134782 1.45491e-21)
(1.24572 0.130757 5.93457e-21)
(1.25315 0.126435 -7.48927e-21)
(1.26003 0.121813 1.61794e-20)
(1.26628 0.116883 3.36299e-20)
(1.27181 0.111637 -1.84795e-20)
(1.27653 0.106064 -7.16738e-21)
(1.28034 0.100153 -7.60382e-20)
(1.22708 0.134201 -3.74206e-22)
(1.23532 0.13075 2.57085e-21)
(1.24316 0.127029 -1.04303e-20)
(1.25057 0.123037 3.7997e-21)
(1.25748 0.118769 -8.78301e-21)
(1.26382 0.114218 -1.30419e-21)
(1.26951 0.109378 -4.89335e-21)
(1.27447 0.104237 6.17439e-21)
(1.27861 0.0987841 4.38073e-20)
(1.28183 0.0930065 -9.13408e-21)
(1.284 0.0868912 7.95807e-20)
(1.22469 0.129744 7.67828e-22)
(1.23278 0.126561 -4.96302e-21)
(1.24054 0.123133 1.45966e-20)
(1.24789 0.119457 -2.12865e-21)
(1.2548 0.11553 -1.74399e-20)
(1.2612 0.111345 4.27999e-21)
(1.26703 0.106895 -1.49036e-20)
(1.2722 0.10217 -2.68918e-20)
(1.27664 0.0971578 -1.26973e-20)
(1.28024 0.0918457 -2.69918e-20)
(1.28292 0.0862193 -7.0607e-20)
(1.28456 0.0802641 9.51535e-20)
(1.22229 0.125151 5.18432e-22)
(1.23023 0.122222 5.49191e-21)
(1.23786 0.119072 -9.82667e-21)
(1.24514 0.115698 3.91663e-21)
(1.25203 0.112096 2.29538e-21)
(1.25846 0.108261 -1.38831e-21)
(1.26438 0.104184 -2.02467e-21)
(1.26972 0.0998563 4.10982e-20)
(1.27441 0.0952665 3.09454e-20)
(1.27837 0.0904006 3.75439e-20)
(1.2815 0.0852432 2.15006e-20)
(1.2837 0.0797778 -1.97613e-20)
(1.28488 0.0739879 1.23499e-19)
(1.28492 0.067859 -4.53074e-20)
(1.21991 0.120432 -7.10357e-22)
(1.22766 0.11774 -1.00669e-21)
(1.23515 0.114851 -9.87597e-22)
(1.24233 0.111762 7.87426e-21)
(1.24917 0.108469 1.76606e-20)
(1.2556 0.104965 2.50072e-21)
(1.26159 0.101243 2.89307e-21)
(1.26706 0.0972938 -1.96834e-20)
(1.27196 0.0931061 -4.55836e-20)
(1.27621 0.0886658 -5.15039e-20)
(1.27973 0.0839568 1.41235e-20)
(1.28244 0.0789611 -4.98782e-20)
(1.28425 0.0736595 -3.2676e-20)
(1.28504 0.0680327 9.97099e-20)
(1.28472 0.0620628 -8.40056e-20)
(1.21756 0.115595 4.6296e-22)
(1.22512 0.113124 -7.60961e-22)
(1.23244 0.11048 1.84937e-21)
(1.2395 0.107657 -1.12443e-20)
(1.24626 0.104653 -2.06592e-20)
(1.25266 0.101461 -3.13374e-21)
(1.25867 0.0980738 -2.27929e-20)
(1.26423 0.0944823 2.33038e-20)
(1.26929 0.0906752 -3.6378e-21)
(1.27379 0.0866386 -1.52485e-20)
(1.27764 0.0823561 -3.67434e-20)
(1.28079 0.077809 3.99461e-20)
(1.28314 0.0729763 -6.18199e-20)
(1.2846 0.0678357 -1.10351e-20)
(1.28509 0.0623648 1.53997e-19)
(1.28451 0.0565429 -1.98585e-20)
(1.28274 0.0503539 9.71463e-20)
(1.21527 0.110649 -6.51931e-25)
(1.22261 0.108383 6.47896e-22)
(1.22975 0.105965 1.45042e-21)
(1.23666 0.10339 5.27705e-21)
(1.24331 0.100656 1.567e-20)
(1.24966 0.0977548 -9.69226e-22)
(1.25566 0.0946809 3.46742e-20)
(1.26127 0.0914249 -4.10891e-21)
(1.26644 0.0879756 4.85756e-20)
(1.27112 0.0843194 2.80485e-20)
(1.27525 0.0804402 7.31494e-21)
(1.27876 0.0763189 -1.04024e-20)
(1.28158 0.071934 6.63644e-20)
(1.28363 0.0672617 1.10674e-20)
(1.28482 0.0622768 -1.62485e-19)
(1.28507 0.0569547 1.12559e-20)
(1.28429 0.051275 -1.26972e-20)
(1.2824 0.0452447 6.09423e-20)
(1.21304 0.105605 -2.38247e-22)
(1.22015 0.103527 -1.5321e-21)
(1.2271 0.101316 -2.26483e-21)
(1.23385 0.0989705 -6.27648e-21)
(1.24037 0.0964851 -7.71361e-21)
(1.24662 0.0938543 1.37769e-21)
(1.25258 0.0910714 1.03001e-20)
(1.2582 0.0881275 -3.94471e-20)
(1.26344 0.0850121 -3.88177e-20)
(1.26825 0.081712 -4.60831e-21)
(1.27259 0.0782115 -2.24783e-20)
(1.27639 0.0744921 3.6205e-21)
(1.2796 0.0705322 -2.54882e-20)
(1.28214 0.0663078 -1.04446e-19)
(1.28394 0.0617926 1.53123e-19)
(1.28492 0.0569603 6.40248e-20)
(1.28499 0.0517882 -3.4732e-22)
(1.2841 0.0462783 6.62554e-20)
(1.21088 0.100469 -1.05545e-22)
(1.21777 0.0985626 8.03694e-22)
(1.22451 0.0965434 -7.96352e-22)
(1.23107 0.0944076 2.49988e-21)
(1.23744 0.0921513 6.51409e-21)
(1.24358 0.089769 -6.77582e-21)
(1.24946 0.0872544 -2.92912e-20)
(1.25505 0.0845991 1.69165e-20)
(1.26031 0.081793 2.73386e-20)
(1.26521 0.0788238 4.38539e-21)
(1.2697 0.0756765 2.41812e-21)
(1.27372 0.0723334 -2.07604e-20)
(1.27724 0.068774 9.22054e-21)
(1.28018 0.0649746 7.50962e-20)
(1.28249 0.0609095 -1.46489e-19)
(1.28408 0.0565521 -3.54458e-20)
(1.28489 0.0518787 -2.0006e-20)
(1.28487 0.046886 -1.20735e-19)
(1.20881 0.0952464 5.13161e-23)
(1.21547 0.0934988 -8.52287e-22)
(1.22199 0.0916547 3.60961e-22)
(1.22836 0.0897112 5.80134e-21)
(1.23456 0.0876646 -5.53322e-21)
(1.24056 0.0855099 9.26007e-21)
(1.24633 0.0832412 6.17882e-22)
(1.25186 0.0808507 5.74346e-22)
(1.2571 0.0783292 -5.56339e-21)
(1.26203 0.0756653 -3.95704e-21)
(1.26661 0.0728449 7.46799e-21)
(1.2708 0.0698518 2.73173e-20)
(1.27455 0.0666667 -1.23207e-20)
(1.2778 0.0632674 1.28372e-20)
(1.28052 0.0596294 8.94145e-20)
(1.28262 0.0557271 4.27807e-20)
(1.28405 0.0515369 -1.00623e-19)
(1.28477 0.0470503 4.4189e-20)
(1.20683 0.0899424 2.6603e-23)
(1.21325 0.0883409 8.18319e-22)
(1.21956 0.0866577 1.53242e-21)
(1.22573 0.0848902 -3.76224e-21)
(1.23174 0.0830351 -8.39961e-22)
(1.23759 0.0810881 -3.30296e-21)
(1.24324 0.0790439 8.81315e-21)
(1.24867 0.0768953 1.53291e-20)
(1.25385 0.0746341 -2.24517e-20)
(1.25877 0.0722499 1.42918e-20)
(1.26339 0.0697301 2.54283e-21)
(1.26767 0.0670599 -1.32224e-20)
(1.27158 0.0642217 6.28006e-21)
(1.27507 0.0611955 -2.45852e-20)
(1.2781 0.0579588 -3.16375e-20)
(1.28061 0.0544876 -1.51037e-20)
(1.28254 0.0507593 3.70735e-20)
(1.28387 0.0467606 -2.7111e-21)
(1.20493 0.0845581 -3.70695e-23)
(1.21113 0.0830925 -5.53959e-22)
(1.21722 0.0815577 1.66468e-22)
(1.22318 0.0799518 -7.73042e-22)
(1.22901 0.078272 -9.20111e-22)
(1.23469 0.0765146 -2.97298e-21)
(1.24019 0.0746748 1.42354e-21)
(1.2455 0.0727465 -1.12515e-20)
(1.2506 0.0707223 4.91878e-22)
(1.25547 0.068593 -4.32687e-21)
(1.26007 0.0663477 2.70375e-21)
(1.26439 0.0639733 8.78186e-21)
(1.2684 0.0614543 5.54809e-21)
(1.27205 0.0587729 -2.06908e-20)
(1.2753 0.0559092 1.60323e-20)
(1.27812 0.0528416 -3.06088e-20)
(1.28045 0.0495487 3.76164e-20)
(1.28226 0.0460136 -1.76819e-20)
(1.20313 0.0790928 2.37487e-26)
(1.2091 0.0777547 2.13078e-22)
(1.21498 0.0763581 -3.03788e-22)
(1.22074 0.0749016 3.11345e-21)
(1.22638 0.0733829 4.80935e-21)
(1.23188 0.0717989 -3.31015e-21)
(1.23722 0.0701455 7.8332e-21)
(1.24239 0.0684176 -3.80436e-21)
(1.24738 0.0666087 -2.14898e-21)
(1.25216 0.0647112 1.41575e-21)
(1.25672 0.0627154 -1.39009e-20)
(1.26103 0.0606104 -2.48539e-20)
(1.26507 0.0583828 4.29544e-22)
(1.26881 0.0560173 3.38956e-20)
(1.27221 0.0534969 -8.0623e-21)
(1.27525 0.0508025 2.69659e-20)
(1.27787 0.0479147 1.59904e-20)
(1.28006 0.0448138 -4.73174e-21)
(1.20142 0.0735435 -7.63005e-23)
(1.20718 0.0723263 2.16052e-23)
(1.21285 0.0710596 -7.36663e-22)
(1.21841 0.0697424 -1.63162e-21)
(1.22386 0.0683728 -2.29137e-21)
(1.22917 0.0669484 5.53385e-21)
(1.23435 0.0654658 -2.05975e-21)
(1.23937 0.0639207 3.51522e-21)
(1.24423 0.0623077 1.34932e-20)
(1.2489 0.0606205 -1.19693e-20)
(1.25338 0.0588512 6.54471e-21)
(1.25764 0.0569905 3.01098e-20)
(1.26167 0.0550274 -1.27939e-21)
(1.26543 0.0529493 -5.86323e-21)
(1.26892 0.0507419 8.10106e-21)
(1.27209 0.048389 -1.97621e-20)
(1.27492 0.045873 -8.43975e-21)
(1.27737 0.0431731 1.652e-20)
(1.19979 0.0679049 7.82067e-23)
(1.20535 0.0668036 3.57837e-23)
(1.21082 0.0656603 1.0653e-22)
(1.21619 0.0644744 1.89158e-21)
(1.22145 0.0632443 3.57215e-21)
(1.22659 0.061968 -4.71878e-21)
(1.2316 0.060643 -2.98688e-21)
(1.23647 0.0592656 4.44064e-21)
(1.24118 0.0578317 -4.98293e-21)
(1.24573 0.056336 1.68534e-20)
(1.2501 0.0547722 1.90101e-20)
(1.25428 0.0531329 -1.98481e-20)
(1.25825 0.0514092 -2.57366e-21)
(1.262 0.0495911 1.99079e-21)
(1.26551 0.0476669 4.41369e-21)
(1.26874 0.0456234 -1.01502e-20)
(1.27169 0.043445 -1.00863e-20)
(1.27432 0.0411106 -1.00751e-20)
(1.19825 0.0621695 1.66007e-23)
(1.20362 0.0611805 5.15147e-23)
(1.20891 0.0601558 2.19665e-22)
(1.2141 0.0590948 -1.57643e-21)
(1.21918 0.0579966 -1.96913e-21)
(1.22414 0.0568594 5.51357e-21)
(1.22899 0.0556812 2.19328e-22)
(1.23369 0.0544593 -1.5671e-21)
(1.23826 0.0531902 2.48118e-21)
(1.24267 0.0518699 -1.43545e-20)
(1.24692 0.0504935 -5.24454e-21)
(1.251 0.0490551 -6.63428e-21)
(1.25489 0.0475481 2.71815e-22)
(1.25858 0.0459646 -3.19311e-21)
(1.26206 0.0442956 -2.69662e-20)
(1.26531 0.0425303 1.94622e-20)
(1.26832 0.0406555 -3.67992e-21)
(1.27105 0.0386506 1.88645e-20)
(1.19681 0.0563281 3.55754e-23)
(1.202 0.0554486 -2.76161e-23)
(1.20711 0.0545388 -1.97231e-23)
(1.21213 0.0535982 4.67143e-22)
(1.21704 0.052626 -1.77931e-21)
(1.22184 0.0516208 -4.83215e-21)
(1.22652 0.050581 -2.95755e-22)
(1.23107 0.0495046 -5.67556e-21)
(1.23549 0.0483889 -3.50765e-21)
(1.23976 0.0472307 6.88289e-21)
(1.24388 0.0460264 -3.41077e-21)
(1.24784 0.0447717 5.52644e-21)
(1.25164 0.0434616 -1.37507e-20)
(1.25525 0.0420901 2.20633e-21)
(1.25867 0.0406507 3.70696e-22)
(1.26189 0.0391349 -6.3475e-21)
(1.2649 0.0375313 6.00099e-21)
(1.26767 0.035821 -3.11053e-20)
(1.19545 0.0503692 -2.09491e-23)
(1.20048 0.0495973 -3.40465e-22)
(1.20543 0.0487998 1.6136e-23)
(1.21029 0.047976 9.57953e-23)
(1.21504 0.0471254 -7.08355e-22)
(1.21969 0.0462469 2.19581e-21)
(1.22422 0.0453392 7.37788e-22)
(1.22862 0.0444006 1.20264e-21)
(1.23289 0.0434292 1.0995e-21)
(1.23703 0.0424227 -2.61733e-21)
(1.24102 0.0413783 -7.94839e-21)
(1.24486 0.0402929 -2.28298e-21)
(1.24854 0.0391629 1.2925e-20)
(1.25206 0.0379843 -1.31297e-20)
(1.2554 0.0367521 -3.6002e-21)
(1.25857 0.03546 -5.89674e-21)
(1.26154 0.0340987 4.20226e-21)
(1.26431 0.0326507 2.44936e-20)
(1.1942 0.0442795 -2.70412e-23)
(1.19908 0.0436138 2.64968e-22)
(1.20388 0.0429264 3.93612e-23)
(1.20859 0.0422169 -2.58091e-23)
(1.2132 0.0414847 6.18557e-22)
(1.21771 0.0407288 -7.04369e-22)
(1.22209 0.0399483 3.00913e-22)
(1.22636 0.0391419 2.94711e-21)
(1.2305 0.038308 1.15821e-21)
(1.2345 0.037445 3.61824e-21)
(1.23837 0.0365509 5.54101e-21)
(1.24209 0.0356235 3.41875e-21)
(1.24566 0.0346604 -1.02188e-21)
(1.24907 0.0336588 1.26267e-20)
(1.25233 0.0326153 1.34364e-20)
(1.25542 0.0315252 1.09154e-21)
(1.25833 0.0303809 1.32198e-20)
(1.26107 0.0291672 5.40354e-22)
(1.19306 0.038043 9.8923e-23)
(1.1978 0.0374822 2.15411e-23)
(1.20247 0.0369035 -5.93649e-24)
(1.20705 0.0363062 8.74925e-23)
(1.21153 0.03569 1.79951e-22)
(1.2159 0.0350538 8.78009e-22)
(1.22016 0.034397 4.03412e-22)
(1.2243 0.0337185 2.02915e-21)
(1.22832 0.0330171 1.11512e-21)
(1.2322 0.0322916 -9.50542e-22)
(1.23595 0.0315406 -7.26352e-21)
(1.23956 0.0307627 2.70053e-21)
(1.24303 0.0299562 -1.7199e-21)
(1.24634 0.0291193 4.30381e-21)
(1.24951 0.0282498 -2.0222e-21)
(1.25251 0.0273442 7.03532e-21)
(1.25536 0.0263966 -4.51046e-21)
(1.25804 0.0253939 -9.67549e-21)
(1.19203 0.0316405 8.85834e-24)
(1.19666 0.0311838 -9.08008e-23)
(1.20121 0.0307125 -1.64633e-22)
(1.20567 0.030226 1.06744e-22)
(1.21003 0.0297237 -2.67987e-22)
(1.21429 0.0292052 -6.26311e-22)
(1.21844 0.0286694 2.98751e-22)
(1.22247 0.0281157 -1.03617e-21)
(1.22638 0.0275432 -3.31286e-21)
(1.23016 0.026951 -9.30397e-22)
(1.23381 0.0263381 2.22932e-22)
(1.23732 0.0257035 4.97872e-21)
(1.24069 0.0250461 1.34067e-21)
(1.24391 0.024365 -1.15079e-22)
(1.24699 0.0236585 -2.07103e-21)
(1.24992 0.0229244 4.26487e-21)
(1.2527 0.0221579 -4.21833e-21)
(1.25532 0.0213486 9.06046e-22)
(1.19115 0.0250488 -5.08749e-23)
(1.19567 0.0246953 9.058e-23)
(1.20012 0.0243302 6.26103e-23)
(1.20448 0.0239532 1.17637e-22)
(1.20874 0.0235636 3.08634e-23)
(1.2129 0.0231609 5.43887e-22)
(1.21696 0.0227445 -7.1353e-22)
(1.2209 0.0223136 2.82713e-23)
(1.22471 0.0218676 1.05963e-21)
(1.22841 0.0214059 -3.24454e-21)
(1.23197 0.0209277 4.41914e-21)
(1.2354 0.0204326 -1.53505e-21)
(1.23869 0.0199197 -8.30821e-22)
(1.24184 0.0193884 -1.34619e-21)
(1.24484 0.0188379 -3.62417e-22)
(1.24771 0.0182664 3.74631e-21)
(1.25042 0.0176707 6.59191e-21)
(1.25299 0.0170424 -1.2652e-20)
(1.19041 0.0182382 -1.96012e-22)
(1.19485 0.0179871 2.80454e-22)
(1.19922 0.0177274 -3.32571e-22)
(1.2035 0.0174588 2.89742e-23)
(1.20768 0.0171807 -6.31312e-23)
(1.21177 0.0168927 6.19893e-22)
(1.21575 0.0165943 9.14341e-22)
(1.21961 0.016285 6.43687e-22)
(1.22336 0.0159643 -5.32949e-22)
(1.22699 0.0156317 1.49025e-21)
(1.23048 0.0152869 -9.37848e-22)
(1.23385 0.0149294 9.42258e-22)
(1.23707 0.0145588 -1.79504e-21)
(1.24017 0.0141748 3.52642e-22)
(1.24312 0.0137767 7.18612e-22)
(1.24593 0.0133637 -5.27104e-21)
(1.2486 0.0129334 -4.82267e-21)
(1.25113 0.0124799 8.40237e-21)
(1.18987 0.0111714 9.53928e-23)
(1.19424 0.0110226 -1.20494e-22)
(1.19855 0.0108682 2.78866e-23)
(1.20277 0.0107079 1.23079e-22)
(1.2069 0.0105414 4.52744e-23)
(1.21093 0.0103682 1.45508e-22)
(1.21486 0.0101881 -9.8853e-22)
(1.21868 0.0100006 3.87094e-22)
(1.22238 0.00980559 2.93675e-22)
(1.22595 0.00960265 -1.7387e-21)
(1.22941 0.00939159 -4.76397e-22)
(1.23273 0.00917221 -9.87264e-22)
(1.23592 0.00894434 2.53473e-21)
(1.23897 0.00870782 -3.52093e-21)
(1.24189 0.00846242 -5.99197e-22)
(1.24467 0.00820764 5.24031e-22)
(1.24731 0.00794217 5.08529e-21)
(1.24981 0.00766272 -9.43686e-22)
(1.18955 0.0037923 -3.55257e-23)
(1.19389 0.00374858 -1.25325e-22)
(1.19816 0.00370248 7.20216e-23)
(1.20235 0.00365375 5.28203e-23)
(1.20646 0.00360217 7.40343e-24)
(1.21046 0.00354755 -3.45093e-23)
(1.21436 0.00348968 -1.71555e-22)
(1.21815 0.00342842 7.17282e-22)
(1.22183 0.00336362 -2.47265e-22)
(1.22539 0.00329515 3.06275e-22)
(1.22882 0.00322295 -1.27242e-22)
(1.23212 0.00314694 6.63898e-22)
(1.2353 0.00306708 2.68687e-21)
(1.23834 0.00298337 -1.19608e-21)
(1.24124 0.00289577 -7.69015e-22)
(1.24401 0.00280418 -1.88903e-21)
(1.24663 0.00270826 -1.03667e-21)
(1.24912 0.00260707 1.50857e-21)
(1.21759 0.158708 1.63723e-21)
(1.22709 0.154807 -6.03704e-22)
(1.18569 0.163168 5.22341e-22)
(1.19594 0.160564 1.94328e-21)
(1.20595 0.157613 2.71571e-22)
(1.21566 0.154315 -9.22963e-22)
(1.22503 0.150673 7.01717e-22)
(1.16385 0.16188 1.97729e-20)
(1.17417 0.160116 -1.83601e-20)
(1.18435 0.15802 5.54175e-21)
(1.19436 0.155597 -1.66131e-21)
(1.20416 0.152846 1.71821e-22)
(1.21368 0.149776 1.09156e-21)
(1.2229 0.146386 -3.231e-22)
(1.15308 0.157737 -1.95377e-22)
(1.16316 0.156385 -1.00465e-20)
(1.17316 0.154728 3.24154e-20)
(1.18306 0.15277 2.15799e-22)
(1.1928 0.150516 -1.79746e-21)
(1.20235 0.147954 3.16585e-22)
(1.21168 0.145101 -4.00458e-22)
(1.22072 0.141955 6.29213e-22)
(1.15281 0.152118 5.26665e-21)
(1.16255 0.150829 -3.74644e-21)
(1.17222 0.149266 -1.7452e-20)
(1.18181 0.14743 2.9988e-21)
(1.19127 0.145326 6.28516e-22)
(1.20056 0.142946 -9.0459e-22)
(1.20966 0.140299 -4.27976e-22)
(1.21852 0.137385 2.3041e-22)
(1.15264 0.146459 -1.92983e-20)
(1.16201 0.145221 -8.61085e-21)
(1.17135 0.143739 1.18515e-21)
(1.18062 0.142013 -6.96093e-21)
(1.18978 0.140044 -9.71323e-22)
(1.19881 0.137833 2.13783e-21)
(1.20766 0.13538 5.79714e-22)
(1.2163 0.132684 -4.35113e-22)
(1.15254 0.140766 2.96668e-20)
(1.16156 0.139569 -2.22232e-21)
(1.17056 0.138157 -3.95355e-22)
(1.1795 0.13653 1.37292e-21)
(1.18835 0.134686 9.42587e-22)
(1.19709 0.132628 -1.52156e-21)
(1.20569 0.130354 -4.09557e-22)
(1.2141 0.127862 -2.45808e-22)
(1.15252 0.135041 -1.57411e-20)
(1.16119 0.13388 1.39215e-21)
(1.16984 0.132529 3.12964e-21)
(1.17845 0.13099 3.10419e-21)
(1.18699 0.12926 3.43101e-21)
(1.19544 0.127341 -3.79604e-22)
(1.20376 0.125231 1.47059e-22)
(1.21193 0.122929 3.47117e-22)
(1.15256 0.129284 1.91476e-20)
(1.16088 0.128154 -1.74425e-20)
(1.16919 0.126859 -2.06322e-21)
(1.17747 0.125399 -6.32178e-21)
(1.1857 0.123773 -5.84291e-21)
(1.19385 0.121981 5.48065e-22)
(1.2019 0.120021 4.74127e-23)
(1.20981 0.117893 -1.90398e-22)
(1.15264 0.123492 -4.4525e-21)
(1.16063 0.122393 3.0156e-20)
(1.16861 0.12115 -6.83226e-22)
(1.17657 0.119762 1.04964e-20)
(1.18449 0.11823 2.7289e-21)
(1.19234 0.116555 9.45136e-22)
(1.2001 0.114734 2.01365e-22)
(1.20776 0.112766 3.16209e-23)
(1.15276 0.11766 -3.61842e-20)
(1.16042 0.116593 7.98317e-21)
(1.16808 0.1154 -5.76224e-21)
(1.17573 0.114081 -6.44746e-21)
(1.18334 0.112637 -5.26378e-21)
(1.1909 0.111068 -9.8245e-22)
(1.19838 0.109374 -4.00492e-22)
(1.20577 0.107554 6.40005e-23)
(1.15289 0.111783 1.61835e-20)
(1.16024 0.110751 -2.72533e-20)
(1.1676 0.109607 2.05112e-21)
(1.17495 0.108354 4.24605e-21)
(1.18227 0.106993 2.54063e-21)
(1.18954 0.105525 -1.21104e-21)
(1.19674 0.103948 4.73968e-22)
(1.20387 0.102264 -2.19028e-23)
(1.15302 0.105854 -7.55023e-22)
(1.16009 0.104859 -5.21419e-22)
(1.16716 0.103767 1.23936e-20)
(1.17422 0.10258 -6.69318e-21)
(1.18125 0.101299 5.17692e-21)
(1.18825 0.0999248 4.03467e-23)
(1.19518 0.0984585 -7.87363e-22)
(1.20204 0.0968995 2.22133e-23)
(1.15315 0.0998641 1.89387e-20)
(1.15994 0.0989117 8.5677e-21)
(1.16674 0.0978737 -3.06213e-21)
(1.17353 0.0967524 -1.10918e-21)
(1.18029 0.0955497 -4.32256e-21)
(1.18702 0.0942669 1.59261e-21)
(1.1937 0.0929049 9.60921e-22)
(1.2003 0.0914636 1.15914e-22)
(1.15326 0.0938069 -1.12712e-20)
(1.1598 0.0929011 -1.57498e-21)
(1.16634 0.09192 -3.61347e-21)
(1.17287 0.0908661 3.64049e-22)
(1.17938 0.0897413 2.60137e-21)
(1.18586 0.0885474 5.75971e-22)
(1.19228 0.0872855 -1.06526e-21)
(1.19865 0.0859558 2.14607e-23)
(1.15335 0.0876744 -2.94073e-21)
(1.15965 0.0868194 -1.30905e-21)
(1.16595 0.0858983 -4.24465e-21)
(1.17224 0.0849134 6.71022e-21)
(1.17851 0.0838671 -9.74341e-22)
(1.18475 0.0827609 5.25566e-23)
(1.19094 0.0815961 3.81603e-22)
(1.19707 0.0803735 -7.28563e-23)
(1.15342 0.0814587 3.24664e-21)
(1.15949 0.0806583 8.31844e-21)
(1.16556 0.0798001 7.92389e-21)
(1.17163 0.0788863 -2.93823e-21)
(1.17768 0.0779191 -2.2967e-21)
(1.18369 0.0769002 -2.0432e-21)
(1.18966 0.0758309 -4.47936e-22)
(1.19557 0.0747119 1.40478e-22)
(1.15346 0.0751514 1.18101e-20)
(1.15932 0.0744091 -1.24417e-20)
(1.16518 0.0736164 -5.25785e-21)
(1.17104 0.0727757 8.55087e-21)
(1.17688 0.0718887 3.53583e-21)
(1.18268 0.070957 7.47155e-22)
(1.18845 0.0699821 3.51249e-22)
(1.19415 0.0689646 -1.31647e-22)
(1.15347 0.0687437 -4.49643e-21)
(1.15914 0.0680623 1.21161e-21)
(1.16481 0.0673377 1.18863e-20)
(1.17047 0.0665716 -2.57806e-21)
(1.17611 0.0657658 -4.20301e-21)
(1.18172 0.0649218 4.07642e-22)
(1.18729 0.0640407 -9.2174e-22)
(1.19281 0.0631232 1.01622e-22)
(1.15346 0.0622253 -1.08291e-20)
(1.15895 0.0616076 -3.56761e-21)
(1.16444 0.060953 -1.14979e-20)
(1.16992 0.0602632 -3.9311e-21)
(1.17538 0.0595397 2.73435e-21)
(1.18081 0.0587836 2.02938e-22)
(1.1862 0.057996 -1.26807e-22)
(1.19154 0.0571774 8.10967e-23)
(1.14814 0.0561042 -6.74746e-21)
(1.15344 0.0555848 -1.20499e-23)
(1.15876 0.0550331 4.35743e-21)
(1.16408 0.0544504 3.57615e-21)
(1.16939 0.0538383 -7.23979e-22)
(1.17469 0.0531979 -8.71161e-22)
(1.17995 0.0525301 -1.13856e-21)
(1.18518 0.0518359 8.29599e-22)
(1.19035 0.0511155 1.31313e-22)
(1.14825 0.0492655 4.17873e-21)
(1.1534 0.0488085 8.60663e-21)
(1.15857 0.0483249 -1.47275e-24)
(1.16374 0.0478159 -5.48945e-21)
(1.1689 0.0472827 1.01929e-21)
(1.17404 0.0467263 7.41365e-22)
(1.17916 0.0461473 -6.32587e-22)
(1.18423 0.0455464 -2.79865e-22)
(1.18924 0.0449238 -1.83533e-22)
(1.14835 0.0422722 1.16651e-20)
(1.15336 0.0418802 -3.11681e-21)
(1.15839 0.0414668 -2.62959e-21)
(1.16342 0.0410332 4.30129e-21)
(1.16845 0.0405802 5.35529e-21)
(1.17345 0.0401086 -6.38583e-23)
(1.17842 0.0396188 1.24252e-21)
(1.18336 0.0391112 -4.84753e-22)
(1.18824 0.038586 -2.24028e-22)
(1.14843 0.0351046 -6.37815e-21)
(1.15332 0.0347802 -3.01303e-21)
(1.15823 0.0344393 1.30017e-21)
(1.16314 0.0340828 -2.3078e-21)
(1.16804 0.0337113 -3.00081e-22)
(1.17292 0.0333254 -1.21772e-21)
(1.17777 0.0329252 -5.95181e-22)
(1.18258 0.0325111 5.86719e-22)
(1.18734 0.032083 1.28263e-22)
(1.1485 0.0277392 7.85007e-21)
(1.15329 0.0274849 -4.54714e-21)
(1.15809 0.0272187 -4.06458e-21)
(1.16289 0.0269411 -1.36315e-21)
(1.16768 0.0266524 1.62524e-22)
(1.17245 0.026353 1.73657e-21)
(1.1772 0.026043 -1.73116e-21)
(1.1819 0.0257224 -1.68164e-22)
(1.18655 0.0253911 -1.13382e-22)
(1.14857 0.0201485 2.33236e-21)
(1.15327 0.0199669 1.29405e-21)
(1.15798 0.0197774 1.11167e-21)
(1.16269 0.0195801 2.37231e-21)
(1.16739 0.0193752 -1.67972e-22)
(1.17208 0.0191629 1.4382e-21)
(1.17673 0.0189432 -3.5907e-22)
(1.18134 0.018716 5.92824e-22)
(1.18591 0.0184812 -8.17973e-23)
(1.14862 0.0122935 -7.75273e-22)
(1.15326 0.0121866 -2.68371e-22)
(1.1579 0.0120754 3.85438e-21)
(1.16254 0.0119598 -3.24861e-21)
(1.16718 0.0118401 -1.08019e-21)
(1.17179 0.0117163 1.28115e-22)
(1.17638 0.0115882 -7.57188e-22)
(1.18092 0.011454 -3.83124e-22)
(1.18542 0.0113151 5.90727e-23)
(1.14866 0.004108 1.80177e-21)
(1.15325 0.00407748 -2.84837e-21)
(1.15786 0.00404623 2.20345e-21)
(1.16246 0.00401417 4.52569e-22)
(1.16705 0.00398121 -1.32256e-21)
(1.17163 0.00394736 1.05525e-21)
(1.17617 0.00391237 4.13164e-22)
(1.18068 0.00387407 -3.89835e-22)
(1.18514 0.003834 -1.52753e-23)
)
;

boundaryField
{
    inlet
    {
        type            uniformFixedValue;
        uniformValue    constant (1 0 0);
        value           nonuniform 0();
    }
    outlet
    {
        type            pressureInletOutletVelocity;
        value           nonuniform 0();
    }
    cylinder
    {
        type            fixedValue;
        value           nonuniform 0();
    }
    top
    {
        type            symmetryPlane;
    }
    bottom
    {
        type            symmetryPlane;
    }
    defaultFaces
    {
        type            empty;
    }
    procBoundary13to9
    {
        type            processor;
        value           nonuniform List<vector> 
38
(
(1.23822 0.15423 -1.4625e-21)
(1.24685 0.149291 -1.00242e-20)
(1.25277 0.140912 -1.78118e-20)
(1.25277 0.140912 -1.78118e-20)
(1.26015 0.135544 -8.68246e-21)
(1.26681 0.129796 4.0547e-20)
(1.2707 0.121602 -9.42121e-21)
(1.2707 0.121602 -9.42121e-21)
(1.27583 0.115508 -2.8147e-20)
(1.27998 0.109031 -2.06395e-20)
(1.2818 0.101276 -3.22653e-20)
(1.2818 0.101276 -3.22653e-20)
(1.28311 0.0938917 1.04639e-22)
(1.28311 0.0938917 1.04639e-22)
(1.28473 0.0872689 1.09919e-19)
(1.285 0.0804272 6.30555e-20)
(1.285 0.0804272 6.30555e-20)
(1.28504 0.073968 7.78747e-21)
(1.28504 0.073968 7.78747e-21)
(1.28423 0.067323 1.08076e-20)
(1.2837 0.0613803 -3.64958e-20)
(1.2837 0.0613803 -3.64958e-20)
(1.28319 0.0557359 2.85376e-20)
(1.28319 0.0557359 2.85376e-20)
(1.28033 0.0490433 1.30411e-19)
(1.27973 0.0438087 1.04427e-19)
(1.27973 0.0438087 1.04427e-19)
(1.21945 0.162942 3.53649e-21)
(1.22907 0.15878 1.04098e-21)
(1.18703 0.168198 1.04578e-20)
(1.19751 0.165406 -9.33559e-22)
(1.20771 0.162243 1.21837e-21)
(1.20771 0.162243 1.21837e-21)
(1.16462 0.167302 -1.49956e-20)
(1.17523 0.165416 -3.58809e-21)
(1.17523 0.165416 -3.58809e-21)
(1.15343 0.163308 -8.65624e-21)
(1.15343 0.163308 -8.65624e-21)
)
;
    }
    procBoundary13to12
    {
        type            processor;
        value           nonuniform List<vector> 
26
(
(1.14296 0.158783 5.2028e-21)
(1.14306 0.153134 3.14958e-20)
(1.14325 0.147455 -9.65825e-21)
(1.14353 0.141749 2.41346e-20)
(1.14387 0.136014 -3.68352e-20)
(1.14426 0.130248 -1.61221e-21)
(1.14468 0.124445 4.56901e-20)
(1.14511 0.1186 -3.8005e-20)
(1.14555 0.112703 3.07107e-20)
(1.14597 0.106749 -6.60758e-21)
(1.14637 0.100728 -2.71036e-20)
(1.14674 0.0946348 -4.32095e-21)
(1.14707 0.0884607 -4.74294e-21)
(1.14736 0.0821988 2.21038e-20)
(1.14761 0.0758412 -2.19658e-21)
(1.14782 0.0693797 1.12209e-20)
(1.148 0.0628044 -1.13627e-20)
(1.148 0.0628044 -1.13627e-20)
(1.14286 0.0565894 -4.39274e-21)
(1.14313 0.0496944 1.28302e-20)
(1.14336 0.0426417 -5.17353e-21)
(1.14356 0.0354117 -4.76926e-22)
(1.14374 0.0279808 1.23418e-22)
(1.14389 0.0203216 -6.17693e-21)
(1.14401 0.0123958 5.51464e-21)
(1.14408 0.00413788 2.87281e-21)
)
;
    }
    procBoundary13to14
    {
        type            processor;
        value           nonuniform List<vector> 
19
(
(1.27942 0.0389414 1.13608e-19)
(1.28219 0.0404803 1.7845e-20)
(1.28392 0.0416002 -7.35339e-20)
(1.28466 0.0422746 -7.94579e-20)
(1.28447 0.0424841 2.59353e-21)
(1.28346 0.0422177 9.71522e-20)
(1.28172 0.0414729 -6.87863e-21)
(1.27939 0.0402566 -2.65148e-20)
(1.2766 0.0385839 -9.76259e-21)
(1.27349 0.0364776 1.54792e-20)
(1.2702 0.0339659 -8.98243e-21)
(1.26687 0.0310799 1.74675e-20)
(1.26361 0.0278506 -2.16053e-20)
(1.26056 0.0243067 2.47902e-21)
(1.25779 0.0204714 1.28779e-20)
(1.25541 0.016362 -4.11501e-21)
(1.25351 0.0119893 5.85718e-21)
(1.25217 0.0073611 -2.02427e-21)
(1.25147 0.00249826 -2.91378e-23)
)
;
    }
}


// ************************************************************************* //
