/*--------------------------------*- C++ -*----------------------------------*\
  =========                 |
  \\      /  F ield         | OpenFOAM: The Open Source CFD Toolbox
   \\    /   O peration     | Website:  https://openfoam.org
    \\  /    A nd           | Version:  7
     \\/     M anipulation  |
\*---------------------------------------------------------------------------*/
FoamFile
{
    version     2.0;
    format      ascii;
    class       volScalarField;
    location    "10";
    object      p;
}
// * * * * * * * * * * * * * * * * * * * * * * * * * * * * * * * * * * * * * //

dimensions      [0 2 -2 0 0 0 0];

internalField   nonuniform List<scalar> 
656
(
-0.0674004
-0.0700315
-0.068229
-0.0708483
-0.0697079
-0.0723386
-0.0717779
-0.0744368
-0.0743794
-0.0770814
-0.0774617
-0.0802215
-0.0809833
-0.0838163
-0.0849081
-0.0878318
-0.0892033
-0.0922395
-0.0938379
-0.0970141
-0.0987807
-0.102132
-0.103999
-0.107571
-0.109456
-0.113307
-0.115112
-0.119314
-0.120924
-0.125565
-0.126844
-0.132033
-0.13282
-0.138688
-0.138799
-0.145505
-0.144723
-0.152459
-0.150535
-0.159528
-0.156178
-0.166695
-0.161599
-0.173938
-0.16676
-0.181232
-0.171628
-0.188524
-0.176146
-0.195678
-0.180306
-0.202448
-0.184382
-0.182017
-0.0733026
-0.0770009
-0.0803275
-0.0832655
-0.0858028
-0.0879247
-0.0896196
-0.0908814
-0.091709
-0.0921053
-0.0920777
-0.0916374
-0.0907997
-0.0895829
-0.0880084
-0.0860998
-0.0838824
-0.0813827
-0.078628
-0.0756456
-0.0724628
-0.0691062
-0.0656018
-0.0619748
-0.0741512
-0.0778311
-0.0811146
-0.084012
-0.0865094
-0.0885879
-0.0902362
-0.0914496
-0.0922278
-0.0925746
-0.0924979
-0.0920098
-0.0911261
-0.0898657
-0.0882505
-0.0863043
-0.0840526
-0.0815222
-0.0787403
-0.0757342
-0.072531
-0.0691572
-0.0656386
-0.0619999
-0.0757282
-0.0793799
-0.0825852
-0.0854082
-0.0878309
-0.0898276
-0.0913879
-0.0925101
-0.0931955
-0.0934491
-0.0932804
-0.0927027
-0.091733
-0.0903912
-0.0886999
-0.0866836
-0.0843683
-0.0817808
-0.0789485
-0.0758984
-0.0726575
-0.0692518
-0.0657067
-0.0620464
-0.0779562
-0.0815621
-0.0846538
-0.0873704
-0.0896858
-0.091565
-0.0929998
-0.0939923
-0.0945461
-0.094668
-0.0943695
-0.0936658
-0.0925753
-0.0911195
-0.089322
-0.0872079
-0.084804
-0.0821372
-0.0792348
-0.0761239
-0.0728309
-0.0693813
-0.0657998
-0.0621098
-0.0807659
-0.0843033
-0.0872467
-0.0898265
-0.0920035
-0.0937315
-0.0950061
-0.0958338
-0.0962209
-0.0961768
-0.0957151
-0.0948534
-0.0936121
-0.0920142
-0.0900846
-0.0878495
-0.085336
-0.0825714
-0.079583
-0.0763975
-0.0730407
-0.0695375
-0.0659116
-0.0621856
-0.0840968
-0.0875376
-0.0902984
-0.0927124
-0.0947208
-0.0962656
-0.0973475
-0.0979782
-0.098167
-0.0979259
-0.0972715
-0.0962238
-0.0948057
-0.0930418
-0.0909584
-0.0885828
-0.0859426
-0.0830652
-0.0799779
-0.0767068
-0.0732771
-0.0697127
-0.0660363
-0.0622694
-0.0878943
-0.0912048
-0.0937498
-0.0959703
-0.0977803
-0.0991111
-0.09997
-0.100374
-0.100336
-0.09987
-0.0989968
-0.097739
-0.0961218
-0.0941717
-0.0919167
-0.0893847
-0.0866039
-0.083602
-0.0804057
-0.0770406
-0.0735311
-0.0698999
-0.0661686
-0.0623573
-0.0921067
-0.0952483
-0.0975467
-0.0995466
-0.101129
-0.102216
-0.102824
-0.102974
-0.102683
-0.101968
-0.100853
-0.0993643
-0.0975293
-0.0953765
-0.0929352
-0.0902343
-0.0873023
-0.0841668
-0.0808541
-0.0773889
-0.0737947
-0.0700929
-0.0663037
-0.0624457
-0.0966825
-0.0996132
-0.101638
-0.103391
-0.104718
-0.105534
-0.105864
-0.105736
-0.105167
-0.104182
-0.102806
-0.101068
-0.0990001
-0.0966312
-0.0939922
-0.0911129
-0.0880219
-0.0847464
-0.0813121
-0.0777429
-0.0740608
-0.070286
-0.0664371
-0.0625312
-0.101568
-0.104246
-0.105974
-0.107458
-0.108501
-0.10902
-0.109049
-0.108619
-0.107753
-0.106477
-0.104823
-0.102823
-0.100509
-0.0979137
-0.0950687
-0.0920042
-0.0887487
-0.0853292
-0.0817702
-0.0780947
-0.0743232
-0.0704744
-0.0665652
-0.0626109
-0.106708
-0.109092
-0.11051
-0.1117
-0.112434
-0.112632
-0.112338
-0.111587
-0.110405
-0.108823
-0.106877
-0.104602
-0.102033
-0.0992044
-0.0961477
-0.0928937
-0.0894709
-0.0859053
-0.0822205
-0.0784379
-0.0745768
-0.070654
-0.0666847
-0.0626823
-0.112042
-0.114102
-0.115202
-0.116076
-0.116476
-0.116334
-0.115698
-0.114607
-0.113092
-0.111191
-0.108943
-0.106385
-0.103554
-0.100486
-0.0972148
-0.0937695
-0.0901783
-0.0864664
-0.082656
-0.0787672
-0.0748172
-0.0708214
-0.0667929
-0.0627434
-0.117507
-0.119224
-0.120007
-0.120545
-0.120591
-0.120089
-0.119094
-0.117647
-0.115788
-0.113557
-0.110997
-0.108149
-0.105053
-0.101745
-0.0982576
-0.0946211
-0.0908625
-0.0870056
-0.0830714
-0.079078
-0.075041
-0.0709738
-0.0668877
-0.0627924
-0.123035
-0.124412
-0.124887
-0.12507
-0.124742
-0.123866
-0.122497
-0.120682
-0.118467
-0.115897
-0.11302
-0.10988
-0.106517
-0.102968
-0.0992661
-0.0954404
-0.0915169
-0.0875177
-0.0834623
-0.079367
-0.0752455
-0.0711092
-0.0669675
-0.062828
-0.128557
-0.129624
-0.129806
-0.129615
-0.1289
-0.127636
-0.12588
-0.123686
-0.121106
-0.118193
-0.114996
-0.111562
-0.107933
-0.104146
-0.100232
-0.0962208
-0.0921361
-0.0879986
-0.0838257
-0.0796319
-0.075429
-0.0712263
-0.0670312
-0.0628496
-0.134003
-0.134827
-0.134734
-0.13415
-0.133037
-0.131374
-0.12922
-0.126637
-0.123687
-0.120427
-0.116909
-0.113184
-0.109291
-0.10527
-0.101149
-0.0969574
-0.0927165
-0.0884453
-0.0841594
-0.0798711
-0.0755902
-0.0713241
-0.0670783
-0.0628565
-0.139303
-0.139992
-0.139641
-0.138648
-0.137129
-0.135058
-0.132495
-0.129518
-0.126194
-0.122585
-0.118749
-0.114735
-0.110585
-0.106334
-0.102013
-0.0976469
-0.0932556
-0.0888562
-0.0844621
-0.0800837
-0.0757287
-0.0714025
-0.0671085
-0.0628489
-0.144387
-0.145101
-0.144504
-0.143085
-0.141156
-0.138667
-0.135688
-0.132311
-0.128611
-0.124657
-0.120506
-0.116209
-0.111808
-0.107336
-0.102821
-0.0982873
-0.0937521
-0.0892304
-0.0847335
-0.0802696
-0.0758445
-0.0714614
-0.0671221
-0.0628268
-0.149192
-0.150145
-0.149301
-0.147444
-0.145102
-0.142185
-0.138783
-0.135003
-0.130929
-0.126633
-0.122173
-0.117602
-0.112957
-0.108272
-0.103572
-0.0988778
-0.0942058
-0.0895681
-0.0849739
-0.0804293
-0.075938
-0.0715016
-0.0671197
-0.062791
-0.153659
-0.155125
-0.154017
-0.151711
-0.148952
-0.145597
-0.141767
-0.137585
-0.133139
-0.128506
-0.123747
-0.118909
-0.11403
-0.109141
-0.104265
-0.0994186
-0.0946171
-0.0898699
-0.085184
-0.0805635
-0.0760102
-0.0715237
-0.0671021
-0.0627422
-0.157743
-0.16005
-0.158638
-0.155878
-0.152697
-0.148894
-0.144631
-0.140047
-0.135235
-0.130274
-0.125223
-0.120129
-0.115027
-0.109944
-0.1049
-0.0999108
-0.0949871
-0.090137
-0.0853651
-0.0806736
-0.0760622
-0.071529
-0.0670702
-0.0626812
-0.161415
-0.164935
-0.163158
-0.15994
-0.156326
-0.152064
-0.147367
-0.142384
-0.137213
-0.131933
-0.126602
-0.121263
-0.115949
-0.110682
-0.10548
-0.100356
-0.0953177
-0.0903711
-0.0855188
-0.0807609
-0.0760955
-0.0715187
-0.0670254
-0.0626093
-0.164675
-0.169799
-0.167573
-0.163895
-0.159834
-0.155101
-0.149968
-0.144591
-0.13907
-0.133483
-0.127884
-0.122313
-0.116797
-0.111357
-0.106007
-0.100756
-0.095611
-0.0905743
-0.085647
-0.0808273
-0.0761115
-0.0714943
-0.0669688
-0.0625276
-0.167562
-0.174663
-0.171887
-0.167746
-0.163214
-0.157999
-0.152432
-0.146668
-0.140807
-0.134925
-0.129071
-0.12328
-0.117575
-0.111973
-0.106483
-0.101115
-0.0958692
-0.0907487
-0.0857515
-0.0808743
-0.0761118
-0.071457
-0.0669018
-0.0624373
-0.170181
-0.179547
-0.176108
-0.171492
-0.16646
-0.160754
-0.154754
-0.148612
-0.142424
-0.13626
-0.130165
-0.124166
-0.118284
-0.11253
-0.106912
-0.101433
-0.0960944
-0.0908959
-0.085834
-0.0809035
-0.0760976
-0.071408
-0.0668252
-0.0623391
-0.172712
-0.184466
)
;

boundaryField
{
    inlet
    {
        type            zeroGradient;
    }
    outlet
    {
        type            fixedValue;
        value           nonuniform 0();
    }
    cylinder
    {
        type            zeroGradient;
    }
    top
    {
        type            symmetryPlane;
    }
    bottom
    {
        type            symmetryPlane;
    }
    defaultFaces
    {
        type            empty;
    }
    procBoundary2to1
    {
        type            processor;
        value           nonuniform List<scalar> 
19
(
-0.0646096
-0.0654466
-0.0669113
-0.0689482
-0.0714996
-0.0745146
-0.0779507
-0.0817701
-0.0859378
-0.0904204
-0.0951846
-0.100196
-0.10542
-0.110819
-0.116354
-0.121985
-0.127672
-0.133374
-0.13905
)
;
    }
    procBoundary2to3
    {
        type            processor;
        value           nonuniform List<scalar> 
25
(
-0.0582495
-0.0582652
-0.0582944
-0.0583341
-0.058381
-0.0584322
-0.0584849
-0.0585362
-0.0585839
-0.0586255
-0.0586591
-0.0586832
-0.0586963
-0.0586975
-0.0586861
-0.0586619
-0.0586248
-0.0585751
-0.0585133
-0.0584403
-0.0583568
-0.0582639
-0.0581628
-0.0580545
-0.0579396
)
;
    }
    procBoundary2to5
    {
        type            processor;
        value           nonuniform List<scalar> 10(-0.14466 -0.150164 -0.155521 -0.160693 -0.165625 -0.170224 -0.174459 -0.178476 -0.178476 -0.174346);
    }
    procBoundary2to6
    {
        type            processor;
        value           nonuniform List<scalar> 
30
(
-0.208718
-0.208718
-0.188408
-0.188408
-0.183539
-0.180245
-0.175125
-0.169558
-0.163355
-0.15693
-0.150421
-0.14392
-0.13749
-0.131168
-0.124976
-0.118928
-0.113033
-0.107294
-0.101713
-0.0962888
-0.0910181
-0.0858962
-0.0809163
-0.0760703
-0.0713485
-0.0667401
-0.062234
-0.175368
-0.180245
-0.189432
)
;
    }
}


// ************************************************************************* //
