/*--------------------------------*- C++ -*----------------------------------*\
  =========                 |
  \\      /  F ield         | OpenFOAM: The Open Source CFD Toolbox
   \\    /   O peration     | Website:  https://openfoam.org
    \\  /    A nd           | Version:  7
     \\/     M anipulation  |
\*---------------------------------------------------------------------------*/
FoamFile
{
    version     2.0;
    format      ascii;
    class       volScalarField;
    location    "5";
    object      p;
}
// * * * * * * * * * * * * * * * * * * * * * * * * * * * * * * * * * * * * * //

dimensions      [0 2 -2 0 0 0 0];

internalField   nonuniform List<scalar> 
2625
(
-0.348928
-0.338646
-0.328274
-0.317908
-0.307632
-0.297548
-0.287626
-0.278317
-0.268388
-0.349069
-0.33877
-0.328381
-0.317998
-0.307704
-0.297603
-0.287656
-0.278381
-0.268222
-0.349281
-0.338956
-0.328541
-0.318132
-0.307811
-0.297686
-0.287702
-0.278476
-0.267972
-0.349562
-0.339203
-0.328754
-0.31831
-0.307953
-0.297795
-0.287761
-0.278603
-0.26764
-0.349911
-0.339509
-0.329018
-0.318531
-0.30813
-0.297931
-0.287835
-0.278761
-0.267225
-0.350328
-0.339876
-0.329334
-0.318794
-0.30834
-0.298093
-0.287922
-0.278949
-0.266728
-0.350811
-0.3403
-0.329699
-0.3191
-0.308585
-0.29828
-0.288022
-0.279166
-0.26615
-0.340782
-0.330115
-0.319447
-0.308861
-0.298493
-0.288133
-0.279412
-0.265492
-0.34132
-0.330578
-0.319835
-0.30917
-0.298729
-0.288256
-0.279685
-0.264753
-0.341913
-0.331089
-0.320262
-0.309509
-0.298989
-0.288388
-0.279985
-0.263935
-0.342559
-0.331645
-0.320727
-0.309879
-0.299271
-0.28853
-0.28031
-0.26304
-0.343257
-0.332247
-0.321229
-0.310279
-0.299575
-0.28868
-0.280659
-0.262067
-0.344006
-0.332892
-0.321768
-0.310706
-0.299901
-0.288837
-0.281029
-0.261018
-0.344803
-0.333579
-0.322343
-0.311161
-0.300246
-0.289001
-0.28142
-0.259894
-0.345647
-0.334307
-0.322951
-0.311643
-0.300611
-0.289169
-0.281828
-0.258696
-0.346537
-0.335074
-0.323593
-0.312151
-0.300995
-0.289342
-0.282252
-0.257424
-0.34747
-0.33588
-0.324267
-0.312683
-0.301397
-0.289517
-0.282689
-0.25608
-0.336722
-0.324972
-0.31324
-0.301816
-0.289695
-0.283137
-0.254663
-0.3376
-0.325707
-0.313821
-0.302251
-0.289874
-0.283592
-0.253175
-0.338512
-0.326472
-0.314425
-0.302703
-0.290053
-0.284053
-0.251615
-0.339457
-0.327265
-0.315052
-0.30317
-0.290232
-0.284515
-0.249983
-0.340433
-0.328087
-0.315701
-0.303653
-0.290412
-0.284976
-0.24828
-0.34144
-0.328935
-0.316372
-0.304151
-0.290591
-0.285432
-0.246504
-0.32981
-0.317067
-0.304665
-0.290771
-0.285879
-0.244656
-0.330711
-0.317784
-0.305196
-0.290953
-0.286314
-0.242734
-0.331639
-0.318526
-0.305745
-0.29114
-0.286733
-0.240739
-0.332592
-0.319292
-0.306312
-0.291336
-0.28713
-0.238673
-0.333571
-0.320085
-0.306901
-0.291546
-0.287503
-0.236536
-0.320907
-0.307516
-0.291779
-0.287846
-0.234337
-0.321761
-0.308159
-0.292046
-0.288155
-0.232085
-0.322649
-0.308838
-0.292364
-0.288424
-0.229803
-0.30956
-0.292756
-0.288647
-0.227526
-0.310334
-0.293252
-0.288817
-0.225319
-0.311174
-0.293895
-0.288939
-0.22332
-0.294737
-0.289029
-0.221772
-0.295845
-0.28906
-0.220855
-0.297305
-0.288876
-0.220468
-0.288624
-0.222225
-0.289947
-0.236975
-0.294098
-0.282963
-0.30178
-0.308876
-0.192184
-0.186413
-0.180623
-0.174821
-0.169011
-0.163202
-0.157397
-0.151605
-0.14583
-0.140079
-0.134357
-0.12867
-0.123025
-0.117426
-0.11188
-0.106393
-0.100971
-0.0956195
-0.0903447
-0.0851529
-0.0800502
-0.0750429
-0.0701374
-0.06534
-0.0606572
-0.0560953
-0.0516606
-0.0473595
-0.0431981
-0.0391824
-0.0353183
-0.0316112
-0.262552
-0.257678
-0.252622
-0.247508
-0.242296
-0.23699
-0.231604
-0.226146
-0.220622
-0.215039
-0.209406
-0.203728
-0.198012
-0.192264
-0.186492
-0.180701
-0.174897
-0.169086
-0.163276
-0.157471
-0.151678
-0.145903
-0.140151
-0.134428
-0.128741
-0.123095
-0.117496
-0.11195
-0.106462
-0.101039
-0.0956869
-0.0904113
-0.0852186
-0.080115
-0.0751067
-0.0702002
-0.0654017
-0.0607176
-0.0561544
-0.0517183
-0.0474158
-0.0432529
-0.0392357
-0.0353699
-0.0316611
-0.26291
-0.257992
-0.252884
-0.247754
-0.242525
-0.237205
-0.231807
-0.226339
-0.220807
-0.215218
-0.209578
-0.203895
-0.198175
-0.192424
-0.186648
-0.180854
-0.175048
-0.169236
-0.163424
-0.157618
-0.151824
-0.146047
-0.140294
-0.134571
-0.128883
-0.123236
-0.117635
-0.112088
-0.106599
-0.101175
-0.0958212
-0.090544
-0.0853497
-0.0802443
-0.075234
-0.0703254
-0.0655246
-0.0608381
-0.0562723
-0.0518336
-0.0475282
-0.0433623
-0.039342
-0.035473
-0.0317608
-0.263445
-0.25846
-0.253275
-0.24812
-0.242868
-0.237527
-0.232111
-0.226628
-0.221083
-0.215483
-0.209835
-0.204145
-0.198418
-0.192662
-0.186881
-0.181084
-0.175274
-0.16946
-0.163645
-0.157837
-0.152041
-0.146263
-0.140508
-0.134783
-0.129094
-0.123445
-0.117843
-0.112294
-0.106804
-0.101378
-0.0960217
-0.0907423
-0.0855455
-0.0804374
-0.0754242
-0.0705124
-0.0657083
-0.0610182
-0.0564486
-0.0520059
-0.0476962
-0.0435259
-0.0395009
-0.0356271
-0.0319099
-0.264155
-0.259082
-0.253794
-0.248606
-0.243323
-0.237953
-0.232514
-0.227011
-0.221449
-0.215836
-0.210176
-0.204475
-0.19874
-0.192976
-0.18719
-0.181388
-0.175574
-0.169755
-0.163938
-0.158127
-0.152328
-0.146548
-0.140792
-0.135065
-0.129373
-0.123723
-0.118119
-0.112568
-0.107075
-0.101646
-0.0962877
-0.0910053
-0.0858052
-0.0806935
-0.0756766
-0.0707606
-0.065952
-0.0612572
-0.0566826
-0.0522345
-0.0479192
-0.043743
-0.0397119
-0.0358316
-0.0321079
-0.265035
-0.259853
-0.254438
-0.249209
-0.243889
-0.238482
-0.233014
-0.227486
-0.221904
-0.216273
-0.210598
-0.204885
-0.199139
-0.193367
-0.187573
-0.181764
-0.175945
-0.170122
-0.164301
-0.158487
-0.152685
-0.146902
-0.141143
-0.135414
-0.12972
-0.124068
-0.118461
-0.112907
-0.107412
-0.10198
-0.0966179
-0.0913318
-0.0861277
-0.0810116
-0.07599
-0.0710689
-0.0662549
-0.0615542
-0.0569733
-0.0525187
-0.0481964
-0.0440129
-0.0399742
-0.036086
-0.032354
-0.266081
-0.26077
-0.255205
-0.249927
-0.244561
-0.239112
-0.233608
-0.228052
-0.222445
-0.216792
-0.2111
-0.205372
-0.199614
-0.193831
-0.188029
-0.182212
-0.176387
-0.170558
-0.164732
-0.158914
-0.153109
-0.147323
-0.141561
-0.13583
-0.130133
-0.124477
-0.118868
-0.113311
-0.107812
-0.102377
-0.0970109
-0.0917205
-0.0865116
-0.0813904
-0.0763632
-0.0714361
-0.0666156
-0.061908
-0.0573198
-0.0528573
-0.0485268
-0.0443347
-0.0402869
-0.0363894
-0.0326477
-0.267287
-0.26183
-0.256091
-0.250757
-0.245339
-0.23984
-0.234296
-0.228705
-0.223069
-0.217392
-0.211679
-0.205934
-0.200161
-0.194366
-0.188553
-0.182728
-0.176896
-0.171061
-0.16523
-0.159407
-0.153599
-0.147809
-0.142044
-0.136309
-0.130609
-0.124951
-0.119338
-0.113778
-0.108275
-0.102835
-0.097465
-0.0921697
-0.0869555
-0.0818284
-0.0767947
-0.0718608
-0.0670328
-0.0623173
-0.0577206
-0.0532492
-0.0489093
-0.0447072
-0.040649
-0.0367407
-0.0329878
-0.268648
-0.263027
-0.257092
-0.251695
-0.246217
-0.240662
-0.235072
-0.229442
-0.223774
-0.218069
-0.212333
-0.206568
-0.200779
-0.19497
-0.189145
-0.18331
-0.17747
-0.171628
-0.165791
-0.159964
-0.154151
-0.148357
-0.142589
-0.13685
-0.131147
-0.125485
-0.119869
-0.114305
-0.108798
-0.103354
-0.0979784
-0.0926776
-0.0874573
-0.0823237
-0.0772829
-0.0723413
-0.067505
-0.0627806
-0.0581744
-0.0536929
-0.0493424
-0.0451291
-0.0410593
-0.0371388
-0.0333732
-0.270156
-0.264355
-0.258203
-0.252737
-0.247193
-0.241576
-0.235934
-0.230261
-0.224556
-0.21882
-0.213058
-0.207271
-0.201463
-0.195639
-0.189801
-0.183956
-0.178106
-0.172257
-0.166414
-0.160581
-0.154763
-0.148965
-0.143193
-0.137451
-0.131744
-0.126079
-0.120459
-0.11489
-0.109379
-0.10393
-0.0985489
-0.0932421
-0.0880153
-0.0828745
-0.0778259
-0.0728757
-0.0680304
-0.0632962
-0.0586796
-0.0541869
-0.0498247
-0.0455991
-0.0415163
-0.0375824
-0.0338029
-0.271804
-0.265809
-0.25942
-0.253878
-0.248262
-0.242576
-0.236878
-0.231157
-0.225411
-0.219642
-0.21385
-0.208039
-0.202211
-0.19637
-0.190518
-0.184661
-0.178801
-0.172944
-0.167094
-0.161255
-0.155432
-0.14963
-0.143854
-0.138108
-0.132398
-0.126728
-0.121104
-0.115531
-0.110015
-0.104561
-0.0991741
-0.0938609
-0.088627
-0.0834785
-0.0784215
-0.0734622
-0.068607
-0.0638622
-0.0592342
-0.0547295
-0.0503546
-0.0461156
-0.0420187
-0.0380701
-0.0342754
-0.273581
-0.267381
-0.260736
-0.255113
-0.249419
-0.243659
-0.237898
-0.232126
-0.226336
-0.220529
-0.214707
-0.208869
-0.203019
-0.197159
-0.191292
-0.185422
-0.179552
-0.173686
-0.167828
-0.161983
-0.156155
-0.150349
-0.144568
-0.138819
-0.133104
-0.127431
-0.121803
-0.116225
-0.110704
-0.105244
-0.0998515
-0.0945316
-0.0892902
-0.0841335
-0.0790675
-0.0740985
-0.0692327
-0.0644765
-0.0598364
-0.0553189
-0.0509302
-0.0466768
-0.0425648
-0.0386004
-0.0347893
-0.27548
-0.269063
-0.262145
-0.256436
-0.250658
-0.244818
-0.238992
-0.233163
-0.227326
-0.221479
-0.215622
-0.209756
-0.203882
-0.198003
-0.192119
-0.186235
-0.180354
-0.174479
-0.168614
-0.162763
-0.156929
-0.151118
-0.145333
-0.13958
-0.133862
-0.128184
-0.122552
-0.11697
-0.111443
-0.105978
-0.100579
-0.0952515
-0.0900024
-0.0848371
-0.0797616
-0.0747823
-0.0699054
-0.0651372
-0.0604842
-0.0559529
-0.0515497
-0.0472809
-0.0431529
-0.0391716
-0.035343
-0.277488
-0.270846
-0.26364
-0.257841
-0.251974
-0.246049
-0.240152
-0.234264
-0.228376
-0.222486
-0.216593
-0.210697
-0.204797
-0.198896
-0.192996
-0.187098
-0.181205
-0.17532
-0.169447
-0.163589
-0.15775
-0.151935
-0.146146
-0.140388
-0.134666
-0.128984
-0.123347
-0.117761
-0.112229
-0.106758
-0.101352
-0.096018
-0.0907608
-0.0855865
-0.0805013
-0.0755112
-0.0706226
-0.0658418
-0.0611754
-0.0566296
-0.0522111
-0.0479262
-0.0437811
-0.0397821
-0.035935
-0.279594
-0.272722
-0.265212
-0.25932
-0.25336
-0.247345
-0.241374
-0.235422
-0.22948
-0.223545
-0.217614
-0.211685
-0.205759
-0.199836
-0.193917
-0.188004
-0.182099
-0.176205
-0.170324
-0.164459
-0.158615
-0.152794
-0.147001
-0.14124
-0.135514
-0.129828
-0.124187
-0.118596
-0.113059
-0.107582
-0.10217
-0.0968282
-0.0915627
-0.0863792
-0.0812839
-0.0762827
-0.071382
-0.0665882
-0.0619076
-0.0573469
-0.0529123
-0.0486105
-0.0444477
-0.04043
-0.0365635
-0.281787
-0.274679
-0.266855
-0.260866
-0.254809
-0.2487
-0.242651
-0.236633
-0.230634
-0.224651
-0.218679
-0.212717
-0.206763
-0.200817
-0.194879
-0.18895
-0.183033
-0.177129
-0.17124
-0.165369
-0.159519
-0.153694
-0.147897
-0.142132
-0.136402
-0.130713
-0.125068
-0.119472
-0.11393
-0.108447
-0.103028
-0.0976791
-0.0924052
-0.0872125
-0.0821067
-0.0770941
-0.072181
-0.0673737
-0.0626786
-0.0581023
-0.0536512
-0.0493319
-0.0451505
-0.0411135
-0.0372268
-0.284053
-0.276707
-0.268557
-0.262471
-0.256314
-0.250107
-0.243976
-0.237889
-0.231831
-0.225798
-0.219784
-0.213787
-0.207804
-0.201834
-0.195877
-0.189933
-0.184002
-0.178088
-0.172191
-0.166314
-0.160459
-0.15463
-0.148829
-0.14306
-0.137327
-0.131634
-0.125986
-0.120385
-0.114838
-0.10935
-0.103924
-0.0985678
-0.0932855
-0.0880833
-0.0829671
-0.0779429
-0.0730171
-0.068196
-0.0634861
-0.0588937
-0.0544256
-0.0500881
-0.0458877
-0.0418306
-0.037923
-0.286378
-0.278795
-0.270311
-0.264125
-0.257865
-0.251558
-0.245343
-0.239185
-0.233066
-0.226981
-0.220924
-0.21489
-0.208877
-0.202883
-0.196906
-0.190946
-0.185003
-0.179079
-0.173174
-0.167291
-0.161431
-0.155598
-0.149793
-0.144022
-0.138286
-0.13259
-0.126937
-0.121333
-0.115781
-0.110287
-0.104855
-0.0994913
-0.0942006
-0.088989
-0.0838622
-0.0788263
-0.0738877
-0.0690526
-0.0643274
-0.0597188
-0.0552332
-0.0508772
-0.0466571
-0.0425794
-0.0386503
-0.288749
-0.280929
-0.272104
-0.265819
-0.259455
-0.253045
-0.246744
-0.240512
-0.234331
-0.228192
-0.222091
-0.216021
-0.209977
-0.203958
-0.197961
-0.191985
-0.18603
-0.180096
-0.174184
-0.168295
-0.162431
-0.156594
-0.150787
-0.145012
-0.139274
-0.133575
-0.127919
-0.122311
-0.116755
-0.111255
-0.105818
-0.100446
-0.0951476
-0.0899265
-0.0847892
-0.0797417
-0.0747901
-0.0699408
-0.0652003
-0.0605751
-0.0560718
-0.0516968
-0.0474568
-0.043358
-0.0394068
-0.291149
-0.283095
-0.273926
-0.267543
-0.261073
-0.254559
-0.248171
-0.241865
-0.235619
-0.229427
-0.22328
-0.217173
-0.211099
-0.205055
-0.199038
-0.193047
-0.187079
-0.181136
-0.175217
-0.169322
-0.163455
-0.157615
-0.151805
-0.146029
-0.140288
-0.134587
-0.128928
-0.123317
-0.117757
-0.112252
-0.106808
-0.10143
-0.0961234
-0.0908931
-0.0857454
-0.0806862
-0.0757217
-0.0708582
-0.0661022
-0.0614603
-0.056939
-0.0525449
-0.0482845
-0.0441643
-0.0401907
-0.036369
-0.293562
-0.285281
-0.275765
-0.269286
-0.26271
-0.256091
-0.249615
-0.243234
-0.236924
-0.230677
-0.224486
-0.218341
-0.212236
-0.206168
-0.200132
-0.194125
-0.188146
-0.182194
-0.176269
-0.17037
-0.164498
-0.158656
-0.152845
-0.147067
-0.141325
-0.135621
-0.129961
-0.124347
-0.118783
-0.113274
-0.107824
-0.10244
-0.0971251
-0.0918859
-0.0867279
-0.0816572
-0.0766798
-0.0718022
-0.0670307
-0.062372
-0.0578327
-0.0534192
-0.0491383
-0.0449963
-0.0409999
-0.0371545
-0.295973
-0.287469
-0.277607
-0.271036
-0.264354
-0.25763
-0.251068
-0.244611
-0.238237
-0.231937
-0.2257
-0.219518
-0.213384
-0.207292
-0.201237
-0.195216
-0.189226
-0.183266
-0.177335
-0.171433
-0.165559
-0.159715
-0.153902
-0.148123
-0.14238
-0.136676
-0.131014
-0.125397
-0.11983
-0.114317
-0.108863
-0.103472
-0.0981499
-0.092902
-0.0877341
-0.082652
-0.077662
-0.0727703
-0.0679835
-0.063308
-0.0587505
-0.0543176
-0.050016
-0.0458522
-0.0418326
-0.0379631
-0.298364
-0.289645
-0.279438
-0.272779
-0.265994
-0.259168
-0.252519
-0.245989
-0.239551
-0.233198
-0.226918
-0.2207
-0.214537
-0.208422
-0.202349
-0.196315
-0.190315
-0.184349
-0.178413
-0.172507
-0.166632
-0.160787
-0.154974
-0.149195
-0.143452
-0.137747
-0.132084
-0.126465
-0.120896
-0.11538
-0.109921
-0.104524
-0.0991949
-0.0939387
-0.0887611
-0.083668
-0.0786656
-0.0737601
-0.068958
-0.0642658
-0.0596903
-0.055238
-0.0509157
-0.0467298
-0.0426871
-0.0387933
-0.300717
-0.291791
-0.281245
-0.274503
-0.267618
-0.260691
-0.253958
-0.247357
-0.240858
-0.234454
-0.228131
-0.221879
-0.215689
-0.209552
-0.203463
-0.197417
-0.191409
-0.185436
-0.179497
-0.173589
-0.167713
-0.161869
-0.156057
-0.150278
-0.144536
-0.138831
-0.133168
-0.127548
-0.121977
-0.116458
-0.110995
-0.105593
-0.100257
-0.0949933
-0.0898065
-0.0847027
-0.0796882
-0.0747691
-0.0699519
-0.0652433
-0.0606498
-0.0561783
-0.0518353
-0.0476274
-0.0435613
-0.0396432
-0.303012
-0.293887
-0.28301
-0.276193
-0.269212
-0.262188
-0.255375
-0.248705
-0.242149
-0.235696
-0.229333
-0.22305
-0.216834
-0.210678
-0.204575
-0.198518
-0.192503
-0.186526
-0.180584
-0.174676
-0.1688
-0.162957
-0.157147
-0.15137
-0.145629
-0.139926
-0.134263
-0.128643
-0.123071
-0.117549
-0.112083
-0.106676
-0.101335
-0.0960632
-0.0908676
-0.0857536
-0.0807273
-0.075795
-0.0709631
-0.0662383
-0.0616271
-0.0571363
-0.0527728
-0.048543
-0.0444537
-0.0405111
-0.305231
-0.295916
-0.284717
-0.277833
-0.270761
-0.263646
-0.256759
-0.250024
-0.243414
-0.236916
-0.230518
-0.224205
-0.217967
-0.211794
-0.205679
-0.199613
-0.193593
-0.187613
-0.181671
-0.175763
-0.16989
-0.164049
-0.158241
-0.152467
-0.146729
-0.141027
-0.135366
-0.129746
-0.124174
-0.11865
-0.113181
-0.107771
-0.102424
-0.0971459
-0.091942
-0.0868183
-0.0817807
-0.0768356
-0.0719893
-0.0672486
-0.06262
-0.0581103
-0.0537263
-0.0494747
-0.0453623
-0.0413953
-0.307352
-0.297855
-0.286346
-0.279406
-0.27225
-0.26505
-0.258095
-0.251303
-0.244644
-0.238107
-0.231677
-0.225339
-0.219082
-0.212895
-0.20677
-0.200699
-0.194675
-0.188695
-0.182753
-0.176848
-0.170977
-0.16514
-0.159336
-0.153566
-0.147831
-0.142133
-0.136474
-0.130856
-0.125283
-0.11976
-0.114289
-0.108875
-0.103523
-0.098239
-0.0930275
-0.0878945
-0.0828462
-0.0778887
-0.0730285
-0.0682722
-0.0636265
-0.0590982
-0.0546941
-0.0504209
-0.0462854
-0.0422942
-0.309354
-0.299682
-0.287879
-0.280893
-0.273662
-0.266388
-0.259373
-0.252531
-0.24583
-0.23926
-0.232803
-0.226445
-0.220173
-0.213976
-0.207845
-0.20177
-0.195746
-0.189767
-0.183828
-0.177927
-0.172061
-0.166229
-0.16043
-0.154665
-0.148935
-0.14324
-0.137584
-0.131969
-0.126398
-0.120874
-0.115402
-0.109986
-0.10463
-0.0993402
-0.0941217
-0.0889801
-0.0839215
-0.0789522
-0.0740785
-0.0693071
-0.0646447
-0.0600981
-0.0556742
-0.0513798
-0.0472215
-0.0432062
-0.0393395
-0.311213
-0.301372
-0.289293
-0.282273
-0.274979
-0.267641
-0.260577
-0.253695
-0.246962
-0.240365
-0.233889
-0.227517
-0.221235
-0.215032
-0.208898
-0.202823
-0.196801
-0.190826
-0.184892
-0.178997
-0.173137
-0.167312
-0.16152
-0.155761
-0.150036
-0.144347
-0.138695
-0.133083
-0.127514
-0.121992
-0.116519
-0.111101
-0.105742
-0.100447
-0.0952225
-0.090073
-0.0850048
-0.0800242
-0.0751376
-0.0703516
-0.0656729
-0.0611085
-0.0566651
-0.0523497
-0.0481689
-0.0441298
-0.040238
-0.312904
-0.302897
-0.290564
-0.283525
-0.276179
-0.268792
-0.261694
-0.254783
-0.248028
-0.241415
-0.234927
-0.228547
-0.222262
-0.216058
-0.209925
-0.203854
-0.197837
-0.191868
-0.185942
-0.180055
-0.174203
-0.168386
-0.162602
-0.156851
-0.151133
-0.145451
-0.139804
-0.134197
-0.128631
-0.12311
-0.117638
-0.112219
-0.106857
-0.101559
-0.0963281
-0.0911713
-0.0860941
-0.0811028
-0.0762038
-0.0714037
-0.0667093
-0.0621275
-0.0576651
-0.0533291
-0.0491262
-0.0450635
-0.0411468
-0.314396
-0.304226
-0.291665
-0.284621
-0.277241
-0.269823
-0.262706
-0.255782
-0.249017
-0.2424
-0.23591
-0.229531
-0.223248
-0.217049
-0.210923
-0.20486
-0.198851
-0.192892
-0.186975
-0.181098
-0.175257
-0.16945
-0.163675
-0.157933
-0.152224
-0.146549
-0.140909
-0.135307
-0.129745
-0.124227
-0.118756
-0.113337
-0.107974
-0.102672
-0.0974366
-0.0922732
-0.0871877
-0.0821864
-0.0772756
-0.072462
-0.0677524
-0.0631537
-0.0586727
-0.0543165
-0.050092
-0.0460059
-0.0420648
-0.315653
-0.305321
-0.292564
-0.285533
-0.27814
-0.270714
-0.263597
-0.256677
-0.249919
-0.243309
-0.236829
-0.23046
-0.224188
-0.218001
-0.211886
-0.205835
-0.19984
-0.193893
-0.187989
-0.182124
-0.176295
-0.1705
-0.164737
-0.159006
-0.153306
-0.14764
-0.142007
-0.136412
-0.130855
-0.125341
-0.119872
-0.114454
-0.10909
-0.103786
-0.0985464
-0.0933771
-0.088284
-0.0832733
-0.0783513
-0.0735249
-0.0688006
-0.0641855
-0.0596865
-0.0553106
-0.0510647
-0.0469558
-0.0429905
-0.316626
-0.306136
-0.293228
-0.286227
-0.278848
-0.271441
-0.26435
-0.257455
-0.250722
-0.244136
-0.237677
-0.231329
-0.225077
-0.218909
-0.212812
-0.206778
-0.200799
-0.194869
-0.188981
-0.183131
-0.177317
-0.171536
-0.165786
-0.160066
-0.154378
-0.148722
-0.143098
-0.13751
-0.13196
-0.12645
-0.120985
-0.115569
-0.110205
-0.104899
-0.0996559
-0.0944815
-0.0893815
-0.084362
-0.0794296
-0.0745909
-0.0698525
-0.0652216
-0.060705
-0.0563099
-0.0520432
-0.0479119
-0.0439228
-0.317255
-0.306622
-0.29362
-0.286667
-0.279334
-0.271982
-0.264945
-0.2581
-0.251413
-0.244869
-0.238447
-0.232132
-0.225909
-0.219767
-0.213696
-0.207685
-0.201727
-0.195817
-0.189948
-0.184116
-0.178319
-0.172554
-0.166819
-0.161113
-0.155438
-0.149793
-0.14418
-0.1386
-0.133057
-0.127553
-0.122093
-0.116679
-0.111316
-0.106009
-0.100763
-0.0955847
-0.0904785
-0.0854511
-0.0805089
-0.0756586
-0.0709068
-0.0662607
-0.0617272
-0.0573134
-0.0530265
-0.0488732
-0.0448607
-0.317459
-0.306702
-0.293684
-0.286794
-0.279549
-0.272298
-0.265351
-0.258588
-0.251973
-0.24549
-0.239123
-0.232854
-0.226673
-0.220568
-0.214528
-0.208547
-0.202616
-0.19673
-0.190884
-0.185074
-0.179297
-0.17355
-0.167832
-0.162143
-0.156481
-0.150849
-0.145248
-0.139679
-0.134144
-0.128648
-0.123192
-0.117782
-0.112421
-0.107114
-0.101867
-0.096685
-0.0915736
-0.0865391
-0.0815879
-0.0767267
-0.0719623
-0.0673017
-0.0627519
-0.0583201
-0.0540133
-0.0498387
-0.0458032
-0.0419129
-0.317032
-0.306206
-0.293322
-0.286531
-0.279441
-0.272353
-0.265542
-0.258897
-0.252384
-0.245988
-0.239695
-0.23349
-0.227363
-0.221304
-0.215307
-0.209362
-0.203465
-0.197609
-0.19179
-0.186005
-0.180251
-0.174525
-0.168827
-0.163156
-0.157511
-0.151894
-0.146305
-0.140748
-0.135223
-0.129735
-0.124286
-0.11888
-0.113522
-0.108216
-0.102969
-0.0977836
-0.0926675
-0.0876264
-0.0826667
-0.0777951
-0.0730183
-0.0683435
-0.0637777
-0.0593281
-0.0550018
-0.0508059
-0.0467476
-0.0428331
-0.315582
-0.305005
-0.292559
-0.28592
-0.279066
-0.272209
-0.265581
-0.259089
-0.252706
-0.246419
-0.240216
-0.234087
-0.228025
-0.222022
-0.216072
-0.21017
-0.204309
-0.198487
-0.192698
-0.186939
-0.18121
-0.175506
-0.169828
-0.164175
-0.158547
-0.152944
-0.147369
-0.141823
-0.136308
-0.130827
-0.125384
-0.119983
-0.114627
-0.109322
-0.104073
-0.0988848
-0.0937636
-0.0887154
-0.0837468
-0.0788643
-0.0740749
-0.0693855
-0.0648032
-0.0603355
-0.0559893
-0.0517719
-0.0476905
-0.0437516
-0.313302
-0.303393
-0.291553
-0.285001
-0.278434
-0.271877
-0.265481
-0.259182
-0.252958
-0.246801
-0.240704
-0.234663
-0.228673
-0.222731
-0.216833
-0.210974
-0.205151
-0.199361
-0.193602
-0.187869
-0.182163
-0.17648
-0.170821
-0.165185
-0.159573
-0.153984
-0.148421
-0.142885
-0.137379
-0.131906
-0.126469
-0.121072
-0.115719
-0.110415
-0.105166
-0.0999751
-0.0948499
-0.0897961
-0.0848201
-0.0799285
-0.0751283
-0.0704265
-0.0658302
-0.0613467
-0.0569832
-0.0527471
-0.0486454
-0.044685
-0.310524
-0.300179
-0.289038
-0.282573
-0.276477
-0.270415
-0.264409
-0.258429
-0.252466
-0.246522
-0.2406
-0.234703
-0.228834
-0.222993
-0.217181
-0.211396
-0.205638
-0.199906
-0.194197
-0.18851
-0.182845
-0.1772
-0.171576
-0.165973
-0.16039
-0.154829
-0.149292
-0.14378
-0.138296
-0.132843
-0.127424
-0.122044
-0.116706
-0.111415
-0.106176
-0.100995
-0.0958778
-0.0908298
-0.0858577
-0.0809683
-0.0761683
-0.0714648
-0.066865
-0.0623762
-0.0580057
-0.0537606
-0.0496482
-0.0456755
-0.296738
-0.290714
-0.283388
-0.277657
-0.272514
-0.267238
-0.261822
-0.256322
-0.250755
-0.245142
-0.239501
-0.233844
-0.228183
-0.222523
-0.21687
-0.211227
-0.205595
-0.199975
-0.194369
-0.188775
-0.183195
-0.177628
-0.172075
-0.166537
-0.161014
-0.155509
-0.150022
-0.144557
-0.139115
-0.1337
-0.128316
-0.122966
-0.117655
-0.112387
-0.107168
-0.102002
-0.0968968
-0.0918573
-0.0868904
-0.0820025
-0.0772008
-0.0724922
-0.067884
-0.0633836
-0.0589983
-0.0547355
-0.0506024
-0.0466063
-0.250436
-0.284251
-0.2854
-0.280197
-0.275412
-0.270195
-0.264722
-0.259142
-0.253491
-0.247799
-0.242088
-0.23637
-0.230655
-0.224949
-0.219255
-0.213574
-0.207907
-0.202255
-0.196617
-0.190992
-0.18538
-0.17978
-0.174194
-0.16862
-0.16306
-0.157515
-0.151986
-0.146476
-0.140986
-0.13552
-0.130082
-0.124674
-0.119301
-0.113967
-0.108679
-0.10344
-0.0982579
-0.0931375
-0.0880858
-0.0831094
-0.0782154
-0.0734111
-0.0687039
-0.0641015
-0.0596114
-0.0552415
-0.0509992
-0.0468924
-0.0429274
-0.235666
-0.274765
-0.279075
-0.275165
-0.271483
-0.26698
-0.262
-0.256798
-0.25145
-0.246008
-0.24051
-0.234977
-0.229424
-0.223861
-0.218296
-0.212732
-0.207173
-0.201618
-0.19607
-0.190529
-0.184995
-0.179469
-0.17395
-0.168441
-0.162941
-0.157453
-0.151977
-0.146517
-0.141074
-0.135652
-0.130254
-0.124884
-0.119546
-0.114245
-0.108986
-0.103774
-0.0986152
-0.0935156
-0.0884817
-0.0835204
-0.0786386
-0.0738437
-0.0691431
-0.0645444
-0.0600554
-0.0556838
-0.0514371
-0.0473234
-0.0433492
-0.232555
-0.267492
-0.272093
-0.269047
-0.26627
-0.262468
-0.258021
-0.253245
-0.248248
-0.243102
-0.237856
-0.232543
-0.227183
-0.221794
-0.216384
-0.210961
-0.205531
-0.200096
-0.194659
-0.189222
-0.183786
-0.178352
-0.172922
-0.167496
-0.162076
-0.156665
-0.151263
-0.145874
-0.1405
-0.135145
-0.129811
-0.124503
-0.119224
-0.113981
-0.108777
-0.103619
-0.0985117
-0.0934616
-0.0884752
-0.0835592
-0.0787206
-0.0739667
-0.0693049
-0.0647427
-0.0602879
-0.0559481
-0.0517309
-0.0476441
-0.0436945
-0.231452
-0.261932
-0.26648
-0.263893
-0.26166
-0.258377
-0.254363
-0.249952
-0.245265
-0.240383
-0.235367
-0.230256
-0.225077
-0.219848
-0.214585
-0.209295
-0.203987
-0.198666
-0.193334
-0.187996
-0.182652
-0.177306
-0.171959
-0.166613
-0.16127
-0.155931
-0.150599
-0.145277
-0.139968
-0.134674
-0.1294
-0.12415
-0.118927
-0.113737
-0.108585
-0.103476
-0.0984156
-0.0934106
-0.0884672
-0.0835922
-0.0787924
-0.0740752
-0.0694479
-0.064918
-0.0604932
-0.0561811
-0.0519893
-0.0479255
-0.0439967
-0.230894
-0.257183
-0.261612
-0.259269
-0.257355
-0.254465
-0.250814
-0.246726
-0.242323
-0.237693
-0.232899
-0.227987
-0.222985
-0.217918
-0.212801
-0.207646
-0.202462
-0.197255
-0.192031
-0.186793
-0.181544
-0.176287
-0.171025
-0.165759
-0.160492
-0.155227
-0.149965
-0.14471
-0.139465
-0.134234
-0.129019
-0.123826
-0.118658
-0.113521
-0.108419
-0.103357
-0.0983432
-0.0933817
-0.0884796
-0.0836436
-0.0788805
-0.0741977
-0.0696024
-0.0651023
-0.0607049
-0.0564178
-0.0522486
-0.048205
-0.044294
-0.2305
-0.252938
-0.257107
-0.254879
-0.253144
-0.250554
-0.247211
-0.243415
-0.23928
-0.234893
-0.23032
-0.225606
-0.220785
-0.215882
-0.210916
-0.205901
-0.200845
-0.195758
-0.190646
-0.185513
-0.180363
-0.1752
-0.170026
-0.164845
-0.159659
-0.15447
-0.149282
-0.144098
-0.138921
-0.133754
-0.128602
-0.123469
-0.118358
-0.113276
-0.108226
-0.103216
-0.0982492
-0.0933333
-0.0884745
-0.0836793
-0.0789548
-0.0743081
-0.0697465
-0.0652776
-0.060909
-0.0566482
-0.0525029
-0.0484806
-0.0445885
-0.230013
-0.249029
-0.252855
-0.250667
-0.249017
-0.246649
-0.243566
-0.240027
-0.236142
-0.231987
-0.227628
-0.223111
-0.218472
-0.213737
-0.208925
-0.204052
-0.199129
-0.194166
-0.18917
-0.184146
-0.179099
-0.174034
-0.168953
-0.16386
-0.158758
-0.15365
-0.148539
-0.143429
-0.138323
-0.133224
-0.128137
-0.123067
-0.118016
-0.112992
-0.107997
-0.103039
-0.0981235
-0.0932557
-0.0884424
-0.0836904
-0.0790066
-0.0743982
-0.0698724
-0.0654368
-0.0610989
-0.0568664
-0.0527467
-0.0487475
-0.0448759
-0.22928
-0.245312
-0.248775
-0.246596
-0.244968
-0.242764
-0.239895
-0.236584
-0.232926
-0.228991
-0.22484
-0.220517
-0.216058
-0.211491
-0.206835
-0.202108
-0.197321
-0.192486
-0.187609
-0.182699
-0.177759
-0.172794
-0.16781
-0.162809
-0.157794
-0.15277
-0.147739
-0.142706
-0.137674
-0.132646
-0.127628
-0.122622
-0.117635
-0.11267
-0.107734
-0.102831
-0.0979676
-0.09315
-0.0883844
-0.0836776
-0.0790364
-0.0744682
-0.06998
-0.0655795
-0.061274
-0.0570713
-0.0529789
-0.0490042
-0.0451546
-0.228228
-0.241685
-0.244791
-0.242614
-0.240976
-0.23889
-0.236199
-0.233088
-0.229638
-0.22591
-0.221958
-0.217825
-0.213546
-0.209146
-0.204649
-0.200069
-0.195422
-0.190717
-0.185964
-0.18117
-0.176341
-0.171481
-0.166597
-0.161691
-0.156767
-0.15183
-0.146883
-0.14193
-0.136975
-0.132021
-0.127073
-0.122136
-0.117214
-0.112312
-0.107435
-0.10259
-0.0977813
-0.0930159
-0.0883001
-0.0836405
-0.079044
-0.0745177
-0.0700689
-0.0657051
-0.0614338
-0.0572625
-0.0531988
-0.0492502
-0.0454239
-0.226836
-0.238077
-0.240843
-0.238675
-0.23701
-0.235013
-0.232471
-0.229537
-0.226279
-0.222746
-0.218985
-0.215038
-0.210935
-0.206704
-0.202365
-0.197935
-0.19343
-0.188859
-0.184233
-0.179559
-0.174843
-0.170093
-0.165311
-0.160504
-0.155675
-0.150828
-0.145968
-0.141098
-0.136222
-0.131345
-0.126471
-0.121605
-0.11675
-0.111914
-0.1071
-0.102314
-0.0975628
-0.092852
-0.0881881
-0.0835777
-0.0790278
-0.0745455
-0.070138
-0.0658127
-0.0615772
-0.057439
-0.0534056
-0.0494845
-0.0456829
-0.225104
-0.23444
-0.236885
-0.23474
-0.233048
-0.231119
-0.228706
-0.22593
-0.222848
-0.219498
-0.215922
-0.212154
-0.269029
-0.271747
-0.27818
-0.300291
-0.276594
-0.2824
-0.293136
-0.321301
-0.27791
-0.283746
-0.29454
-0.321629
-0.274937
-0.280565
-0.291234
-0.316539
-0.27196
-0.277617
-0.288226
-0.311246
-0.268799
-0.274426
-0.284794
-0.305447
-0.265085
-0.270635
-0.280702
-0.299244
-0.260956
-0.266427
-0.276185
-0.292873
-0.261908
-0.271345
-0.286397
-0.266217
-0.279829
)
;

boundaryField
{
    inlet
    {
        type            zeroGradient;
    }
    outlet
    {
        type            fixedValue;
        value           nonuniform 0();
    }
    cylinder
    {
        type            zeroGradient;
    }
    top
    {
        type            symmetryPlane;
    }
    bottom
    {
        type            symmetryPlane;
    }
    defaultFaces
    {
        type            empty;
    }
    procBoundary10to6
    {
        type            processor;
        value           nonuniform List<scalar> 
55
(
-0.348857
-0.338584
-0.32822
-0.317863
-0.307596
-0.29752
-0.28761
-0.278284
-0.268471
-0.262372
-0.257521
-0.25249
-0.247385
-0.24218
-0.236882
-0.231502
-0.226048
-0.220529
-0.21495
-0.20932
-0.203644
-0.19793
-0.19793
-0.192184
-0.186413
-0.180623
-0.174821
-0.169011
-0.163202
-0.157397
-0.151605
-0.14583
-0.140079
-0.134357
-0.12867
-0.123025
-0.117426
-0.11188
-0.106393
-0.100971
-0.0956195
-0.0903447
-0.0851529
-0.0800502
-0.0750429
-0.0701374
-0.06534
-0.0606572
-0.0560953
-0.0516606
-0.0473595
-0.0431981
-0.0391824
-0.0353183
-0.0316112
)
;
    }
    procBoundary10to9
    {
        type            processor;
        value           nonuniform List<scalar> 
60
(
-0.359019
-0.359178
-0.359416
-0.359732
-0.360125
-0.360594
-0.361137
-0.35136
-0.35136
-0.351972
-0.352647
-0.353383
-0.354177
-0.355029
-0.355935
-0.356895
-0.357906
-0.358966
-0.348445
-0.348445
-0.34946
-0.350514
-0.351604
-0.352729
-0.353887
-0.342476
-0.342476
-0.34354
-0.344631
-0.345748
-0.346889
-0.334575
-0.334575
-0.335605
-0.336661
-0.323576
-0.323576
-0.324546
-0.325562
-0.312093
-0.312093
-0.313108
-0.314245
-0.299253
-0.299253
-0.301773
-0.304542
-0.29595
-0.29595
-0.296137
-0.312368
-0.312368
-0.265999
-0.270855
-0.271835
-0.268933
-0.2659
-0.262756
-0.25914
-0.255133
)
;
    }
    procBoundary10to11
    {
        type            processor;
        value           nonuniform List<scalar> 
53
(
-0.0280661
-0.0281143
-0.0282106
-0.0283545
-0.0285456
-0.0287834
-0.029067
-0.0293955
-0.0297679
-0.0301832
-0.0306399
-0.0311368
-0.0316724
-0.0322452
-0.0328536
-0.0334958
-0.0341702
-0.0348751
-0.0356086
-0.0356086
-0.0327053
-0.0334659
-0.0342494
-0.0350541
-0.0358785
-0.0367207
-0.0375794
-0.0384528
-0.0384528
-0.0356277
-0.0364997
-0.0373823
-0.0382743
-0.0391744
-0.0400814
-0.0409946
-0.0409946
-0.0381742
-0.0390686
-0.0399611
-0.0408716
-0.0418481
-0.042753
-0.042753
-0.0391119
-0.0395219
-0.0398893
-0.0402099
-0.0405226
-0.0408335
-0.0411389
-0.041437
-0.0417269
)
;
    }
    procBoundary10to14
    {
        type            processor;
        value           nonuniform List<scalar> 
57
(
-0.208226
-0.204162
-0.199983