/*--------------------------------*- C++ -*----------------------------------*\
  =========                 |
  \\      /  F ield         | OpenFOAM: The Open Source CFD Toolbox
   \\    /   O peration     | Website:  https://openfoam.org
    \\  /    A nd           | Version:  7
     \\/     M anipulation  |
\*---------------------------------------------------------------------------*/
FoamFile
{
    version     2.0;
    format      ascii;
    class       volVectorField;
    location    "95";
    object      U;
}
// * * * * * * * * * * * * * * * * * * * * * * * * * * * * * * * * * * * * * //

dimensions      [0 1 -1 0 0 0 0];

internalField   nonuniform List<vector> 
657
(
(0.959246 -0.0213717 0)
(0.958749 -0.0203231 0)
(0.958251 -0.0195585 0)
(0.958092 -0.0183761 0)
(0.957748 -0.0180103 0)
(0.957984 -0.0163043 0)
(0.957717 -0.0167501 0)
(0.958386 -0.0142065 0)
(1.01182 -0.0453985 0)
(1.00775 -0.0438651 0)
(1.0039 -0.0423079 0)
(1.00027 -0.0407418 0)
(0.99686 -0.0391794 0)
(0.99365 -0.0376318 0)
(0.990638 -0.0361085 0)
(0.987818 -0.034617 0)
(0.985186 -0.0331636 0)
(0.982737 -0.0317528 0)
(0.980466 -0.0303887 0)
(0.97837 -0.0290726 0)
(0.976443 -0.0278081 0)
(0.974687 -0.0265911 0)
(0.973086 -0.0254303 0)
(0.971658 -0.0243075 0)
(0.970365 -0.0232534 0)
(0.969257 -0.0222052 0)
(0.968247 -0.0212734 0)
(0.967459 -0.0202441 0)
(0.966692 -0.0194997 0)
(0.96624 -0.0183329 0)
(0.96566 -0.0179846 0)
(0.965574 -0.016294 0)
(0.96515 -0.0167497 0)
(0.965399 -0.014236 0)
(1.02682 -0.0444163 0)
(1.02243 -0.0429609 0)
(1.01826 -0.0414765 0)
(1.01431 -0.0399781 0)
(1.01057 -0.038479 0)
(1.00704 -0.0369905 0)
(1.0037 -0.0355224 0)
(1.00056 -0.0340826 0)
(0.997613 -0.0326776 0)
(0.994846 -0.0313121 0)
(0.992259 -0.0299906 0)
(0.98985 -0.0287143 0)
(0.987613 -0.0274872 0)
(0.985548 -0.0263051 0)
(0.983644 -0.0251771 0)
(0.981913 -0.0240848 0)
(0.980324 -0.0230596 0)
(0.978919 -0.0220376 0)
(0.977622 -0.0211311 0)
(0.976542 -0.0201241 0)
(0.975502 -0.0194018 0)
(0.974754 -0.0182544 0)
(0.973934 -0.0179237 0)
(0.97352 -0.0162545 0)
(0.972938 -0.0167166 0)
(0.972756 -0.0142427 0)
(1.04204 -0.0433122 0)
(1.03734 -0.0419402 0)
(1.03287 -0.0405337 0)
(1.02861 -0.0391082 0)
(1.02456 -0.0376773 0)
(1.02072 -0.0362527 0)
(1.01707 -0.0348444 0)
(1.01362 -0.0334607 0)
(1.01036 -0.0321084 0)
(1.00729 -0.0307925 0)
(1.00439 -0.0295175 0)
(1.00168 -0.0282848 0)
(0.999135 -0.0270988 0)
(0.996767 -0.0259552 0)
(0.994562 -0.0248635 0)
(0.992532 -0.0238049 0)
(0.990648 -0.0228116 0)
(0.988948 -0.0218191 0)
(0.987364 -0.0209406 0)
(0.98599 -0.0199592 0)
(0.984678 -0.0192607 0)
(0.98363 -0.0181367 0)
(0.982569 -0.0178237 0)
(0.981821 -0.0161825 0)
(0.981081 -0.0166469 0)
(0.980458 -0.0142232 0)
(1.05738 -0.0420826 0)
(1.05241 -0.0407991 0)
(1.04765 -0.0394755 0)
(1.04311 -0.0381277 0)
(1.03877 -0.0367697 0)
(1.03464 -0.0354136 0)
(1.0307 -0.0340698 0)
(1.02695 -0.0327466 0)
(1.0234 -0.0314513 0)
(1.02002 -0.030189 0)
(1.01683 -0.0289646 0)
(1.01382 -0.0277795 0)
(1.01098 -0.0266383 0)
(1.00832 -0.0255368 0)
(1.00582 -0.0244848 0)
(1.00349 -0.0234634 0)
(1.00132 -0.0225052 0)
(0.999328 -0.0215454 0)
(0.997459 -0.0206975 0)
(0.995794 -0.0197452 0)
(0.99421 -0.0190724 0)
(0.992861 -0.017976 0)
(0.99156 -0.0176806 0)
(0.990474 -0.0160744 0)
(0.989576 -0.0165367 0)
(0.988503 -0.0141745 0)
(1.07277 -0.0407253 0)
(1.06755 -0.0395348 0)
(1.06254 -0.0382986 0)
(1.05774 -0.0370331 0)
(1.05314 -0.0357526 0)
(1.04873 -0.0344695 0)
(1.04452 -0.0331944 0)
(1.0405 -0.0319361 0)
(1.03666 -0.030702 0)
(1.03301 -0.0294975 0)
(1.02954 -0.0283275 0)
(1.02624 -0.0271938 0)
(1.02312 -0.0261012 0)
(1.02017 -0.0250455 0)
(1.01738 -0.0240367 0)
(1.01477 -0.023056 0)
(1.01232 -0.022136 0)
(1.01004 -0.0212123 0)
(1.00789 -0.0203978 0)
(1.00593 -0.0194779 0)
(1.00408 -0.0188328 0)
(1.00243 -0.0177684 0)
(1.00089 -0.0174905 0)
(0.999468 -0.0159265 0)
(0.998415 -0.0163823 0)
(0.996886 -0.0140929 0)
(1.08812 -0.0392402 0)
(1.08269 -0.0381465 0)
(1.07746 -0.0370017 0)
(1.07243 -0.0358225 0)
(1.06759 -0.0346236 0)
(1.06294 -0.0334176 0)
(1.05848 -0.0322154 0)
(1.0542 -0.031026 0)
(1.05011 -0.0298571 0)
(1.04619 -0.0287142 0)
(1.04245 -0.0276026 0)
(1.03889 -0.0265241 0)
(1.0355 -0.0254837 0)
(1.03228 -0.0244774 0)
(1.02922 -0.0235152 0)
(1.02634 -0.0225785 0)
(1.0236 -0.0216999 0)
(1.02105 -0.0208156 0)
(1.01863 -0.0200372 0)
(1.01639 -0.0191534 0)
(1.01428 -0.0185378 0)
(1.01233 -0.01751 0)
(1.01056 -0.0172494 0)
(1.00879 -0.0157353 0)
(1.00759 -0.0161796 0)
(1.0056 -0.0139749 0)
(1.10331 -0.0376292 0)
(1.09771 -0.0366352 0)
(1.0923 -0.035585 0)
(1.08707 -0.0344956 0)
(1.08203 -0.0333818 0)
(1.07717 -0.0322565 0)
(1.07249 -0.0311309 0)
(1.06799 -0.0300141 0)
(1.06366 -0.0289141 0)
(1.05951 -0.0278365 0)
(1.05553 -0.0267869 0)
(1.05172 -0.0257672 0)
(1.04807 -0.0247825 0)
(1.0446 -0.0238289 0)
(1.04129 -0.0229167 0)
(1.03814 -0.0220274 0)
(1.03515 -0.0211933 0)
(1.03233 -0.0203517 0)
(1.02964 -0.019612 0)
(1.02713 -0.0187678 0)
(1.02476 -0.0181836 0)
(1.02253 -0.017197 0)
(1.02052 -0.0169532 0)
(1.01842 -0.0154968 0)
(1.01707 -0.0159248 0)
(1.01462 -0.0138166 0)
(1.11825 -0.0358969 0)
(1.11252 -0.0350044 0)
(1.10697 -0.0340511 0)
(1.10159 -0.0330539 0)
(1.09638 -0.0320281 0)
(1.09135 -0.0309865 0)
(1.08648 -0.0299406 0)
(1.08178 -0.0288996 0)
(1.07725 -0.0278718 0)
(1.07289 -0.0268628 0)
(1.06869 -0.0258784 0)
(1.06466 -0.0249208 0)
(1.06079 -0.023995 0)
(1.05708 -0.0230975 0)
(1.05353 -0.0222383 0)
(1.05014 -0.0213996 0)
(1.0469 -0.0206128 0)
(1.04383 -0.0198171 0)
(1.0409 -0.0191188 0)
(1.03812 -0.0183177 0)
(1.03551 -0.0177664 0)
(1.03299 -0.0168257 0)
(1.03077 -0.0165983 0)
(1.02834 -0.0152076 0)
(1.02684 -0.0156141 0)
(1.02393 -0.0136143 0)
(1.13281 -0.0340505 0)
(1.12701 -0.0332599 0)
(1.12136 -0.0324045 0)
(1.11587 -0.0315013 0)
(1.11054 -0.0305652 0)
(1.10536 -0.0296096 0)
(1.10035 -0.0286458 0)
(1.09549 -0.0276833 0)
(1.09079 -0.0267303 0)
(1.08625 -0.0257928 0)
(1.08186 -0.0248766 0)
(1.07763 -0.0239839 0)
(1.07356 -0.0231199 0)
(1.06964 -0.0222814 0)
(1.06588 -0.021478 0)
(1.06227 -0.0206928 0)
(1.05881 -0.019956 0)
(1.0555 -0.0192092 0)
(1.05234 -0.0185546 0)
(1.04932 -0.0177999 0)
(1.04647 -0.0172832 0)
(1.04369 -0.0163928 0)
(1.04125 -0.0161812 0)
(1.0385 -0.0148639 0)
(1.03687 -0.0152442 0)
(1.03351 -0.013364 0)
(1.14687 -0.0321001 0)
(1.14104 -0.0314106 0)
(1.13535 -0.0306529 0)
(1.1298 -0.0298438 0)
(1.12438 -0.0289985 0)
(1.11912 -0.02813 0)
(1.11399 -0.0272499 0)
(1.10901 -0.0263678 0)
(1.10418 -0.0254917 0)
(1.0995 -0.0246278 0)
(1.09496 -0.023782 0)
(1.09057 -0.0229566 0)
(1.08632 -0.0221569 0)
(1.08223 -0.0213798 0)
(1.07827 -0.0206347 0)
(1.07447 -0.0199055 0)
(1.0708 -0.0192212 0)
(1.06728 -0.018526 0)
(1.06391 -0.0179171 0)
(1.06066 -0.0172119 0)
(1.0576 -0.0167311 0)
(1.05456 -0.0158954 0)
(1.05193 -0.015699 0)
(1.04887 -0.0144625 0)
(1.04711 -0.0148118 0)
(1.04331 -0.013062 0)
(1.16031 -0.0300589 0)
(1.15451 -0.0294678 0)
(1.14883 -0.028806 0)
(1.14326 -0.0280902 0)
(1.13782 -0.0273352 0)
(1.1325 -0.0265542 0)
(1.12731 -0.0257584 0)
(1.12226 -0.0249575 0)
(1.11733 -0.0241596 0)
(1.11254 -0.0233708 0)
(1.10789 -0.022597 0)
(1.10337 -0.0218407 0)
(1.09899 -0.0211071 0)
(1.09474 -0.0203934 0)
(1.09063 -0.0197086 0)
(1.08666 -0.0190376 0)
(1.08282 -0.0184076 0)
(1.07911 -0.0177662 0)
(1.07555 -0.0172048 0)
(1.07209 -0.0165518 0)
(1.06884 -0.0161081 0)
(1.06556 -0.0153311 0)
(1.06275 -0.015149 0)
(1.05939 -0.0140003 0)
(1.05752 -0.0143143 0)
(1.0533 -0.0127044 0)
(1.17302 -0.0279426 0)
(1.1673 -0.0274456 0)
(1.16167 -0.0268765 0)
(1.15615 -0.0262516 0)
(1.15072 -0.0255854 0)
(1.1454 -0.0248908 0)
(1.1402 -0.0241789 0)
(1.13511 -0.0234591 0)
(1.13013 -0.0227397 0)
(1.12528 -0.0220266 0)
(1.12055 -0.0213257 0)
(1.11594 -0.0206396 0)
(1.11145 -0.0199732 0)
(1.1071 -0.0193242 0)
(1.10286 -0.0187011 0)
(1.09875 -0.0180897 0)
(1.09477 -0.0175155 0)
(1.0909 -0.0169298 0)
(1.08718 -0.0164173 0)
(1.08354 -0.0158188 0)
(1.08011 -0.0154129 0)
(1.07662 -0.0146981 0)
(1.07365 -0.0145294 0)
(1.07001 -0.0134747 0)
(1.06804 -0.0137498 0)
(1.06341 -0.0122879 0)
(1.18488 -0.0257694 0)
(1.1793 -0.0253606 0)
(1.17378 -0.0248794 0)
(1.16834 -0.0243415 0)
(1.16298 -0.0237612 0)
(1.15771 -0.0231507 0)
(1.15253 -0.0225211 0)
(1.14746 -0.0218815 0)
(1.14248 -0.0212398 0)
(1.1376 -0.0206022 0)
(1.13284 -0.0199741 0)
(1.12818 -0.0193583 0)
(1.12363 -0.0187596 0)
(1.1192 -0.0181759 0)
(1.11487 -0.0176151 0)
(1.11066 -0.0170643 0)
(1.10656 -0.0165468 0)
(1.10257 -0.0160179 0)
(1.09871 -0.0155551 0)
(1.09492 -0.0150128 0)
(1.09135 -0.0146451 0)
(1.08766 -0.0139953 0)
(1.08455 -0.0138393 0)
(1.08067 -0.0128837 0)
(1.0786 -0.0131167 0)
(1.0736 -0.011809 0)
(1.1958 -0.0235591 0)
(1.1904 -0.023231 0)
(1.18504 -0.0228315 0)
(1.17974 -0.0223756 0)
(1.1745 -0.0218768 0)
(1.16932 -0.0213471 0)
(1.16422 -0.0207969 0)
(1.1592 -0.0202353 0)
(1.15426 -0.0196697 0)
(1.14941 -0.0191061 0)
(1.14465 -0.0185499 0)
(1.13998 -0.0180038 0)
(1.13541 -0.0174723 0)
(1.13094 -0.0169536 0)
(1.12656 -0.016455 0)
(1.12228 -0.0159649 0)
(1.11811 -0.0155042 0)
(1.11402 -0.0150327 0)
(1.11006 -0.0146199 0)
(1.10614 -0.0141348 0)
(1.10245 -0.0138054 0)
(1.09861 -0.0132226 0)
(1.09538 -0.0130783 0)
(1.09127 -0.0122257 0)
(1.08912 -0.0124145 0)
(1.08377 -0.0112652 0)
(1.2057 -0.0213324 0)
(1.20053 -0.0210764 0)
(1.19538 -0.0207511 0)
(1.19025 -0.0203708 0)
(1.18517 -0.0199481 0)
(1.18013 -0.0194945 0)
(1.17515 -0.01902 0)
(1.17023 -0.0185329 0)
(1.16537 -0.0180406 0)
(1.16059 -0.0175488 0)
(1.15588 -0.0170625 0)
(1.15125 -0.0165845 0)
(1.14669 -0.0161188 0)
(1.14222 -0.0156641 0)
(1.13783 -0.0152269 0)
(1.13352 -0.0147968 0)
(1.1293 -0.0143923 0)
(1.12516 -0.0139778 0)
(1.12113 -0.0136146 0)
(1.11712 -0.0131869 0)
(1.11333 -0.0128954 0)
(1.10935 -0.0123808 0)
(1.10603 -0.0122473 0)
(1.10172 -0.0115 0)
(1.09952 -0.0116435 0)
(1.09385 -0.0106539 0)
(1.21454 -0.01911 0)
(1.20962 -0.0189164 0)
(1.20471 -0.0186569 0)
(1.1998 -0.0183447 0)
(1.19491 -0.0179918 0)
(1.19005 -0.0176087 0)
(1.18523 -0.0172048 0)
(1.18045 -0.0167881 0)
(1.17572 -0.0163654 0)
(1.17104 -0.0159421 0)
(1.16642 -0.0155229 0)
(1.16186 -0.0151103 0)
(1.15737 -0.0147083 0)
(1.15293 -0.0143156 0)
(1.14857 -0.0139378 0)
(1.14427 -0.0135662 0)
(1.14004 -0.0132166 0)
(1.13587 -0.012858 0)
(1.1318 -0.0125433 0)
(1.12773 -0.0121725 0)
(1.12389 -0.011918 0)
(1.11981 -0.0114715 0)
(1.11641 -0.0113479 0)
(1.11194 -0.0107064 0)
(1.10969 -0.0108048 0)
(1.10374 -0.00997336 0)
(1.22227 -0.0169108 0)
(1.21764 -0.0167696 0)
(1.21299 -0.0165669 0)
(1.20833 -0.0163148 0)
(1.20367 -0.0160245 0)
(1.19902 -0.0157055 0)
(1.19439 -0.0153667 0)
(1.18979 -0.0150153 0)
(1.18522 -0.0146576 0)
(1.18068 -0.0142986 0)
(1.17619 -0.0139427 0)
(1.17173 -0.0135923 0)
(1.16733 -0.0132507 0)
(1.16297 -0.0129171 0)
(1.15867 -0.0125963 0)
(1.15441 -0.0122808 0)
(1.15021 -0.0119838 0)
(1.14604 -0.0116791 0)
(1.14197 -0.0114112 0)
(1.13787 -0.0110956 0)
(1.134 -0.0108767 0)
(1.12985 -0.0104973 0)
(1.12641 -0.0103829 0)
(1.12181 -0.00984564 0)
(1.11953 -0.00990041 0)
(1.11333 -0.00922249 0)
(1.2289 -0.0147512 0)
(1.22457 -0.0146522 0)
(1.2202 -0.0144972 0)
(1.21581 -0.0142971 0)
(1.2114 -0.0140618 0)
(1.20699 -0.0138002 0)
(1.20257 -0.0135202 0)
(1.19817 -0.0132284 0)
(1.19379 -0.0129306 0)
(1.18942 -0.0126312 0)
(1.18508 -0.0123341 0)
(1.18077 -0.0120416 0)
(1.17649 -0.0117567 0)
(1.17224 -0.0114786 0)
(1.16803 -0.0112113 0)
(1.16384 -0.0109486 0)
(1.1597 -0.0107013 0)
(1.15557 -0.0104477 0)
(1.15153 -0.010224 0)
(1.14743 -0.00996131 0)
(1.14356 -0.00977601 0)
(1.13937 -0.00946148 0)
(1.13591 -0.00935553 0)
(1.13121 -0.008919 0)
(1.12892 -0.00893296 0)
(1.12251 -0.00840071 0)
(1.23446 -0.0126433 0)
(1.23043 -0.012577 0)
(1.22635 -0.0124609 0)
(1.22223 -0.0123046 0)
(1.21808 -0.012117 0)
(1.21391 -0.011906 0)
(1.20974 -0.0116784 0)
(1.20556 -0.0114404 0)
(1.20138 -0.0111968 0)
(1.19721 -0.0109517 0)
(1.19304 -0.0107085 0)
(1.1889 -0.0104693 0)
(1.18476 -0.0102364 0)
(1.18064 -0.0100095 0)
(1.17655 -0.00979166 0)
(1.17246 -0.00957791 0)
(1.1684 -0.0093766 0)
(1.16434 -0.00917066 0)
(1.16035 -0.00898799 0)
(1.15629 -0.00877485 0)
(1.15243 -0.00862092 0)
(1.14823 -0.00836767 0)
(1.14477 -0.00826983 0)
(1.14001 -0.00792827 0)
(1.13771 -0.00790571 0)
(1.13115 -0.00750804 0)
(1.239 -0.0105938 0)
(1.23526 -0.0105518 0)
(1.23145 -0.0104666 0)
(1.2276 -0.0103467 0)
(1.22372 -0.0101998 0)
(1.2198 -0.0100327 0)
(1.21586 -0.00985146 0)
(1.21191 -0.0096612 0)
(1.20795 -0.00946627 0)
(1.20398 -0.00927012 0)
(1.20001 -0.00907565 0)
(1.19604 -0.00888462 0)
(1.19207 -0.008699 0)
(1.1881 -0.00851856 0)
(1.18413 -0.00834559 0)
(1.18017 -0.00817632 0)
(1.17622 -0.00801685 0)
(1.17224 -0.00785428 0)
(1.16833 -0.00770906 0)
(1.16431 -0.0075414 0)
(1.1605 -0.00741624 0)
(1.15631 -0.00721964 0)
(1.15287 -0.00712983 0)
(1.14807 -0.00687544 0)
(1.14579 -0.00682215 0)
(1.1391 -0.00654497 0)
(1.24259 -0.00860324 0)
(1.23911 -0.00857803 0)
(1.23557 -0.00851691 0)
(1.23198 -0.00842698 0)
(1.22834 -0.00831466 0)
(1.22466 -0.00818569 0)
(1.22095 -0.00804511 0)
(1.21722 -0.0078972 0)
(1.21347 -0.00774559 0)
(1.20971 -0.00759314 0)
(1.20593 -0.00744225 0)
(1.20214 -0.00729436 0)
(1.19834 -0.00715103 0)
(1.19452 -0.00701213 0)
(1.1907 -0.00687927 0)
(1.18687 -0.0067497 0)
(1.18303 -0.00662759 0)
(1.17916 -0.00650379 0)
(1.17533 -0.00639208 0)
(1.17138 -0.00626529 0)
(1.16763 -0.00616616 0)
(1.16346 -0.00602062 0)
(1.16006 -0.00593925 0)
(1.15525 -0.00576238 0)
(1.15298 -0.00568564 0)
(1.14621 -0.00551227 0)
(1.24532 -0.0066645 0)
(1.24208 -0.00665037 0)
(1.23877 -0.00660788 0)
(1.2354 -0.00654269 0)
(1.23198 -0.00645994 0)
(1.22852 -0.0063642 0)
(1.22502 -0.00625947 0)
(1.22149 -0.00614916 0)
(1.21794 -0.00603615 0)
(1.21437 -0.00592268 0)
(1.21077 -0.00581063 0)
(1.20715 -0.00570113 0)
(1.20351 -0.00559532 0)
(1.19985 -0.00549317 0)
(1.19617 -0.00539572 0)
(1.19246 -0.00530113 0)
(1.18874 -0.00521187 0)
(1.18497 -0.00512213 0)
(1.18123 -0.00503996 0)
(1.17735 -0.00494914 0)
(1.17367 -0.0048734 0)
(1.16955 -0.00477275 0)
(1.16618 -0.00470075 0)
(1.16138 -0.00459046 0)
(1.15913 -0.00449864 0)
(1.1523 -0.00441087 0)
(1.24728 -0.0047626 0)
(1.24423 -0.0047553 0)
(1.24111 -0.00472743 0)
(1.23792 -0.00468315 0)
(1.23469 -0.00462624 0)
(1.23141 -0.00456003 0)
(1.22809 -0.00448746 0)
(1.22474 -0.00441101 0)
(1.22135 -0.00433277 0)
(1.21794 -0.00425436 0)
(1.2145 -0.00417713 0)
(1.21103 -0.00410191 0)
(1.20753 -0.00402946 0)
(1.20401 -0.0039598 0)
(1.20045 -0.00389351 0)
(1.19686 -0.00382953 0)
(1.19324 -0.00376898 0)
(1.18956 -0.00370889 0)
(1.18591 -0.00365257 0)
(1.1821 -0.00359298 0)
(1.17848 -0.00353834 0)
(1.1744 -0.00347629 0)
(1.17108 -0.00341521 0)
(1.16629 -0.00336012 0)
(1.16406 -0.00326224 0)
(1.1572 -0.00324137 0)
(1.24856 -0.00287376 0)
(1.24565 -0.00287046 0)
(1.24266 -0.00285462 0)
(1.23961 -0.00282881 0)
(1.23651 -0.00279534 0)
(1.23336 -0.00275628 0)
(1.23017 -0.00271342 0)
(1.22695 -0.00266829 0)
(1.22369 -0.00262215 0)
(1.2204 -0.00257601 0)
(1.21707 -0.00253066 0)
(1.21372 -0.00248662 0)
(1.21033 -0.00244432 0)
(1.2069 -0.00240382 0)
(1.20344 -0.00236532 0)
(1.19994 -0.00232842 0)
(1.1964 -0.00229328 0)
(1.1928 -0.00225908 0)
(1.18921 -0.00222583 0)
(1.18546 -0.0021931 0)
(1.18189 -0.00215846 0)
(1.17785 -0.00212828 0)
(1.17456 -0.00208214 0)
(1.16979 -0.00206836 0)
(1.16758 -0.00197929 0)
(1.16071 -0.00200165 0)
(1.24636 -0.000963443 0)
(1.24345 -0.000958294 0)
(1.24047 -0.000949787 0)
(1.23744 -0.000938707 0)
(1.23437 -0.000925753 0)
(1.23125 -0.000911533 0)
(1.22809 -0.000896565 0)
(1.2249 -0.000881276 0)
(1.22168 -0.000866004 0)
(1.21842 -0.000851018 0)
(1.21513 -0.000836492 0)
(1.2118 -0.000822561 0)
(1.20843 -0.000809258 0)
(1.20502 -0.000796615 0)
(1.20157 -0.000784571 0)
(1.19808 -0.000773013 0)
(1.19452 -0.000761992 0)
(1.19097 -0.000750851 0)
(1.18725 -0.000740716 0)
(1.1837 -0.000728338 0)
(1.1797 -0.000720401 0)
(1.17642 -0.000701684 0)
(1.17167 -0.000703366 0)
(1.16947 -0.000663116 0)
(1.16259 -0.000681975 0)
)
;

boundaryField
{
    inlet
    {
        type            uniformFixedValue;
        uniformValue    constant (1 0 0);
        value           nonuniform 0();
    }
    outlet
    {
        type            pressureInletOutletVelocity;
        value           nonuniform List<vector> 
26
(
(0.958386 -0.0142065 0)
(0.965399 -0.014236 0)
(0.972756 -0.0142427 0)
(0.980458 -0.0142232 0)
(0.988503 -0.0141745 0)
(0.996886 -0.0140929 0)
(1.0056 -0.0139749 0)
(1.01462 -0.0138166 0)
(1.02393 -0.0136143 0)
(1.03351 -0.013364 0)
(1.04331 -0.013062 0)
(1.0533 -0.0127044 0)
(1.06341 -0.0122879 0)
(1.0736 -0.011809 0)
(1.08377 -0.0112652 0)
(1.09385 -0.0106539 0)
(1.10374 -0.00997336 0)
(1.11333 -0.00922249 0)
(1.12251 -0.00840071 0)
(1.13115 -0.00750804 0)
(1.1391 -0.00654497 0)
(1.14621 -0.00551227 0)
(1.1523 -0.00441087 0)
(1.1572 -0.00324137 0)
(1.16071 -0.00200165 0)
(1.16259 -0.000681975 0)
)
;
    }
    cylinder
    {
        type            fixedValue;
        value           nonuniform 0();
    }
    top
    {
        type            symmetryPlane;
    }
    bottom
    {
        type            symmetryPlane;
    }
    defaultFaces
    {
        type            empty;
    }
    procBoundary15to11
    {
        type            processor;
        value           nonuniform List<vector> 
27
(
(0.950625 -0.02143 0)
(0.950413 -0.020365 0)
(0.950181 -0.019582 0)
(0.95031 -0.0183874 0)
(0.950199 -0.0180045 0)
(0.950748 -0.0162886 0)
(0.950636 -0.0167212 0)
(0.951712 -0.0141568 0)
(0.997079 -0.0462636 0)
(0.993345 -0.0446577 0)
(0.989838 -0.0430332 0)
(0.986549 -0.0414043 0)
(0.983469 -0.0397837 0)
(0.980592 -0.0381818 0)
(0.977912 -0.0366079 0)
(0.975421 -0.0350691 0)
(0.973115 -0.0335715 0)
(0.97099 -0.0321195 0)
(0.969039 -0.0307168 0)
(0.967261 -0.0293647 0)
(0.965646 -0.0280664 0)
(0.9642 -0.026818 0)
(0.962906 -0.0256276 0)
(0.961779 -0.0244776 0)
(0.960784 -0.0233977 0)
(0.959971 -0.0223262 0)
(0.959971 -0.0223262 0)
)
;
    }
    procBoundary15to14
    {
        type            processor;
        value           nonuniform List<vector> 
26
(
(1.01612 -0.0468916 0)
(1.03145 -0.0458255 0)
(1.04696 -0.044632 0)
(1.06258 -0.043308 0)
(1.07821 -0.0418519 0)
(1.09375 -0.0402643 0)
(1.10911 -0.0385483 0)
(1.12415 -0.0367096 0)
(1.13877 -0.0347571 0)
(1.15283 -0.0327026 0)
(1.16622 -0.0305608 0)
(1.17882 -0.0283495 0)
(1.19052 -0.0260885 0)
(1.20123 -0.0237993 0)
(1.21088 -0.0215038 0)
(1.21944 -0.0192233 0)
(1.22686 -0.0169775 0)
(1.23318 -0.0147822 0)
(1.23842 -0.0126491 0)
(1.24266 -0.0105837 0)
(1.24598 -0.00858489 0)
(1.24848 -0.00664415 0)
(1.25025 -0.00474483 0)
(1.2514 -0.00286176 0)
(1.24921 -0.000964362 0)
(1.24921 -0.000964362 0)
)
;
    }
}


// ************************************************************************* //
