/*--------------------------------*- C++ -*----------------------------------*\
  =========                 |
  \\      /  F ield         | OpenFOAM: The Open Source CFD Toolbox
   \\    /   O peration     | Website:  https://openfoam.org
    \\  /    A nd           | Version:  7
     \\/     M anipulation  |
\*---------------------------------------------------------------------------*/
FoamFile
{
    version     2.0;
    format      ascii;
    class       volScalarField;
    location    "10";
    object      p;
}
// * * * * * * * * * * * * * * * * * * * * * * * * * * * * * * * * * * * * * //

dimensions      [0 2 -2 0 0 0 0];

internalField   nonuniform List<scalar> 
2625
(
-0.0849494
-0.0905678
-0.09609
-0.101515
-0.106842
-0.112071
-0.117202
-0.122235
-0.127172
-0.0813576
-0.0868593
-0.092272
-0.0975946
-0.102827
-0.107969
-0.11302
-0.117981
-0.122852
-0.127636
-0.132331
-0.136942
-0.141469
-0.0778358
-0.0832217
-0.0885253
-0.0937455
-0.0988823
-0.103936
-0.108905
-0.113792
-0.118596
-0.123319
-0.127961
-0.132525
-0.137013
-0.141427
-0.14577
-0.150045
-0.154258
-0.074384
-0.079655
-0.0848499
-0.0899679
-0.0950087
-0.0999724
-0.104859
-0.109669
-0.114403
-0.119062
-0.123648
-0.128161
-0.132604
-0.13698
-0.14129
-0.145539
-0.14973
-0.153868
-0.157957
-0.162002
-0.0710021
-0.0761591
-0.081246
-0.0862617
-0.0912063
-0.0960796
-0.100882
-0.105614
-0.110275
-0.114868
-0.119393
-0.123851
-0.128245
-0.132577
-0.13685
-0.141066
-0.145229
-0.149343
-0.153413
-0.157444
-0.161441
-0.165411
-0.0676896
-0.0727339
-0.0777134
-0.0826271
-0.0874751
-0.0922575
-0.0969743
-0.101626
-0.106213
-0.110737
-0.115198
-0.119598
-0.123939
-0.128222
-0.132452
-0.136629
-0.140758
-0.144842
-0.148885
-0.152893
-0.15687
-0.160822
-0.164757
-0.16868
-0.172601
-0.0644462
-0.0693789
-0.0742517
-0.0790638
-0.0838152
-0.088506
-0.0931363
-0.0977065
-0.102217
-0.106669
-0.111064
-0.115402
-0.119686
-0.123917
-0.128098
-0.132231
-0.13632
-0.140367
-0.144377
-0.148354
-0.152304
-0.15623
-0.16014
-0.16404
-0.167937
-0.17184
-0.175757
-0.0612713
-0.0660936
-0.0708607
-0.0755716
-0.0802264
-0.0848253
-0.0893683
-0.0938558
-0.0982883
-0.102667
-0.106992
-0.111265
-0.115489
-0.119663
-0.123791
-0.127875
-0.131918
-0.135923
-0.139894
-0.143834
-0.147748
-0.151641
-0.155519
-0.159387
-0.163252
-0.167121
-0.171003
-0.174906
-0.178839
-0.0581643
-0.0628776
-0.0675397
-0.07215
-0.0767085
-0.0812152
-0.0856702
-0.0900739
-0.0944269
-0.0987298
-0.102984
-0.107189
-0.111349
-0.115463
-0.119534
-0.123565
-0.127557
-0.131514
-0.135439
-0.139336
-0.143208
-0.147061
-0.150899
-0.154727
-0.158552
-0.16238
-0.166218
-0.170075
-0.173958
-0.177877
-0.181842
-0.0551245
-0.05973
-0.0642884
-0.0687987
-0.0732611
-0.0776755
-0.0820421
-0.0863613
-0.0906334
-0.0948591
-0.0990392
-0.103175
-0.107267
-0.111318
-0.115329
-0.119302
-0.123239
-0.127144
-0.131018
-0.134866
-0.13869
-0.142496
-0.146287
-0.150069
-0.153847
-0.157626
-0.161413
-0.165216
-0.169041
-0.172897
-0.176793
-0.180739
-0.184744
-0.18882
-0.0521512
-0.0566504
-0.061106
-0.0655171
-0.0698838
-0.074206
-0.078484
-0.0827178
-0.0869081
-0.0910552
-0.09516
-0.0992234
-0.103247
-0.107231
-0.111178
-0.11509
-0.118968
-0.122815
-0.126634
-0.130428
-0.134199
-0.137952
-0.141691
-0.14542
-0.149144
-0.152867
-0.156597
-0.160339
-0.1641
-0.167887
-0.171708
-0.175571
-0.179486
-0.183462
-0.187519
-0.191665
-0.0492436
-0.053638
-0.057992
-0.0623047
-0.0665762
-0.0708065
-0.0749956
-0.0791438
-0.0832513
-0.0873187
-0.0913466
-0.0953359
-0.0992876
-0.103203
-0.107083
-0.11093
-0.114746
-0.118532
-0.122291
-0.126026
-0.12974
-0.133435
-0.137116
-0.140787
-0.144451
-0.148114
-0.15178
-0.155455
-0.159146
-0.162857
-0.166598
-0.170374
-0.174194
-0.178066
-0.182008
-0.186025
-0.046401
-0.0506921
-0.0549457
-0.059161
-0.063338
-0.0674767
-0.071577
-0.0756391
-0.0796633
-0.0836501
-0.0875999
-0.0915136
-0.0953919
-0.099236
-0.103047
-0.106827
-0.110576
-0.114298
-0.117994
-0.121666
-0.125318
-0.128951
-0.13257
-0.136177
-0.139777
-0.143374
-0.146971
-0.150575
-0.154189
-0.157821
-0.161476
-0.165161
-0.168881
-0.172646
-0.176471
-0.180357
-0.0436227
-0.047812
-0.0519665
-0.0560855
-0.0601687
-0.0642162
-0.0682279
-0.0722039
-0.0761445
-0.0800499
-0.0839206
-0.0877573
-0.0915607
-0.0953318
-0.0990716
-0.102781
-0.106463
-0.110117
-0.113746
-0.117353
-0.120938
-0.124506
-0.128058
-0.131598
-0.135129
-0.138655
-0.14218
-0.145707
-0.149242
-0.15279
-0.156355
-0.159944
-0.163563
-0.167218
-0.170923
-0.174678
-0.040908
-0.0449972
-0.049054
-0.0530776
-0.0570679
-0.0610249
-0.0649483
-0.0688383
-0.0726949
-0.0765185
-0.0803095
-0.0840682
-0.0877955
-0.091492
-0.0951586
-0.0987966
-0.102407
-0.105992
-0.109552
-0.113089
-0.116606
-0.120104
-0.123587
-0.127056
-0.130515
-0.133966
-0.137414
-0.140862
-0.144314
-0.147774
-0.151247
-0.154738
-0.158252
-0.161796
-0.16538
-0.169002
-0.0382564
-0.042247
-0.0462075
-0.050137
-0.0540354
-0.0579024
-0.0617381
-0.0655422
-0.069315
-0.0730566
-0.0767672
-0.0804473
-0.0840974
-0.0877182
-0.0913103
-0.0948748
-0.0984127
-0.101925
-0.105414
-0.10888
-0.112325
-0.115752
-0.119162
-0.122557
-0.125941
-0.129316
-0.132684
-0.136049
-0.139415
-0.142785
-0.146164
-0.149555
-0.152962
-0.156393
-0.159855
-0.163346
-0.0356672
-0.039561
-0.0434266
-0.0472633
-0.0510707
-0.0548488
-0.0585972
-0.062316
-0.0660051
-0.0696645
-0.0732946
-0.0768956
-0.0804679
-0.084012
-0.0875286
-0.0910184
-0.0944822
-0.0979212
-0.101337
-0.104729
-0.108101
-0.111454
-0.114789
-0.118109
-0.121415
-0.12471
-0.127997
-0.131278
-0.134556
-0.137834
-0.141116
-0.144406
-0.147706
-0.151023
-0.154364
-0.157725
-0.03314
-0.0369386
-0.040711
-0.0444561
-0.0481738
-0.0518638
-0.0555258
-0.0591597
-0.0627654
-0.066343
-0.0698925
-0.0734142
-0.0769082
-0.0803752
-0.0838154
-0.0872295
-0.0906183
-0.0939826
-0.0973233
-0.100642
-0.103939
-0.107216
-0.110474
-0.113716
-0.116943
-0.120158
-0.123361
-0.126556
-0.129745
-0.13293
-0.136115
-0.139303
-0.142496
-0.145699
-0.148919
-0.152152
-0.0306743
-0.0343796
-0.0380603
-0.0417153
-0.0453445
-0.0489474
-0.0525239
-0.0560736
-0.0595965
-0.0630925
-0.0665617
-0.070004
-0.0734198
-0.0768092
-0.0801726
-0.0835105
-0.0868235
-0.0901122
-0.0933774
-0.09662
-0.099841
-0.103041
-0.106223
-0.109386
-0.112533
-0.115665
-0.118784
-0.121892
-0.124991
-0.128083
-0.131171
-0.134257
-0.137343
-0.140434
-0.143535
-0.146641
-0.0282699
-0.0318837
-0.0354742
-0.0390407
-0.0425826
-0.0460997
-0.0495916
-0.0530581
-0.0564989
-0.0599139
-0.063303
-0.0666663
-0.0700038
-0.0733157
-0.0766022
-0.0798636
-0.0831005
-0.0863132
-0.0895024
-0.0926687
-0.095813
-0.0989361
-0.102039
-0.105123
-0.108189
-0.111239
-0.114273
-0.117294
-0.120303
-0.123302
-0.126293
-0.129278
-0.132259
-0.135239
-0.138223
-0.141206
-0.0259264
-0.0294506
-0.0329528
-0.0364322
-0.0398883
-0.0433208
-0.0467293
-0.0501134
-0.053473
-0.0568077
-0.0601174
-0.0634021
-0.0666617
-0.0698963
-0.073106
-0.0762911
-0.0794517
-0.0825883
-0.0857013
-0.0887912
-0.0918585
-0.0949041
-0.0979287
-0.100933
-0.103918
-0.106885
-0.109835
-0.112769
-0.115689
-0.118596
-0.121491
-0.124376
-0.127254
-0.130125
-0.132995
-0.135858
-0.0236439
-0.0270802
-0.0304958
-0.0338898
-0.0372616
-0.0406109
-0.0439373
-0.0472402
-0.0505195
-0.0537748
-0.0570059
-0.0602126
-0.0633949
-0.0665527
-0.0696861
-0.072795
-0.0758797
-0.0789404
-0.0819773
-0.0849909
-0.0879816
-0.0909498
-0.0938961
-0.0968212
-0.0997258
-0.102611
-0.105477
-0.108325
-0.111156
-0.113972
-0.116773
-0.119561
-0.122337
-0.125103
-0.127861
-0.130609
-0.021422
-0.0247725
-0.0281033
-0.0314136
-0.0347028
-0.0379704
-0.0412159
-0.0444389
-0.0476391
-0.050816
-0.0539694
-0.0570991
-0.0602049
-0.0632866
-0.0663442
-0.0693776
-0.0723869
-0.0753722
-0.0783336
-0.0812714
-0.0841858
-0.0870771
-0.0899458
-0.0927923
-0.0956172
-0.0984209
-0.101204
-0.103968
-0.106712
-0.109439
-0.112148
-0.11484
-0.117518
-0.120181
-0.122832
-0.12547
-0.0192609
-0.0225275
-0.0257755
-0.0290039
-0.032212
-0.0353995
-0.0385657
-0.0417102
-0.0448325
-0.0479323
-0.0510092
-0.0540628
-0.057093
-0.0600996
-0.0630822
-0.066041
-0.0689757
-0.0718863
-0.074773
-0.0776357
-0.0804747
-0.0832901
-0.0860821
-0.0888511
-0.0915973
-0.0943211
-0.097023
-0.0997035
-0.102363
-0.105002
-0.107622
-0.110222
-0.112804
-0.115369
-0.117917
-0.120449
-0.0171606
-0.0203455
-0.0235126
-0.0266608
-0.0297897
-0.0328987
-0.0359872
-0.0390546
-0.0421005
-0.0451245
-0.0481261
-0.051105
-0.0540608
-0.0569933
-0.0599022
-0.0627873
-0.0656484
-0.0684855
-0.0712985
-0.0740872
-0.0768519
-0.0795925
-0.082309
-0.0850017
-0.0876708
-0.0903164
-0.0929387
-0.0955382
-0.098115
-0.10067
-0.103202
-0.105714
-0.108204
-0.110674
-0.113124
-0.115554
-0.0151214
-0.0182266
-0.0213147
-0.0243849
-0.0274363
-0.0304686
-0.033481
-0.036473
-0.0394441
-0.0423938
-0.0453216
-0.048227
-0.0511098
-0.0539695
-0.0568059
-0.0596186
-0.0624074
-0.0651722
-0.0679127
-0.0706289
-0.0733206
-0.0759878
-0.0786304
-0.0812485
-0.0838421
-0.0864113
-0.0889562
-0.0914769
-0.0939735
-0.0964463
-0.0988953
-0.101321
-0.103723
-0.106103
-0.10846
-0.110794
-0.0131434
-0.0161711
-0.0191824
-0.0221763
-0.0251523
-0.0281097
-0.0310479
-0.0339662
-0.0368641
-0.0397411
-0.0425966
-0.0454302
-0.0482415
-0.0510299
-0.0537952
-0.056537
-0.059255
-0.0619489
-0.0646185
-0.0672636
-0.0698839
-0.0724794
-0.0750499
-0.0775953
-0.0801155
-0.0826105
-0.0850802
-0.0875246
-0.0899438
-0.0923378
-0.0947065
-0.0970501
-0.0993687
-0.101662
-0.103931
-0.106175
-0.011227
-0.0141793
-0.0171159
-0.0200358
-0.0229383
-0.0258228
-0.0286886
-0.0315351
-0.0343616
-0.0371676
-0.0399526
-0.042716
-0.0454573
-0.0481762
-0.050872
-0.0535445
-0.0561933
-0.0588181
-0.0614185
-0.0639942
-0.066545
-0.0690706
-0.0715709
-0.0740456
-0.0764946
-0.0789178
-0.0813149
-0.0836858
-0.0860306
-0.0883489
-0.0906408
-0.0929063
-0.0951451
-0.0973572
-0.0995424
-0.101702
-0.00937257
-0.0122518
-0.0151159
-0.0179639
-0.020795
-0.0236086
-0.026404
-0.0291805
-0.0319375
-0.0346745
-0.0373907
-0.0400857
-0.042759
-0.0454099
-0.0480382
-0.0506432
-0.0532246
-0.055782
-0.058315
-0.0608233
-0.0633066
-0.0657645
-0.0681967
-0.070603
-0.0729832
-0.075337
-0.0776642
-0.0799646
-0.082238
-0.0844841
-0.0867028
-0.088894
-0.0910574
-0.0931927
-0.0952996
-0.09738
-0.0075806
-0.0103891
-0.0131829
-0.0159611
-0.018723
-0.0214678
-0.0241949
-0.0269035
-0.029593
-0.0322629
-0.0349123
-0.0375409
-0.0401479
-0.042733
-0.0452955
-0.0478349
-0.0503509
-0.052843
-0.0553107
-0.0577536
-0.0601714
-0.0625638
-0.0649303
-0.0672707
-0.0695846
-0.0718718
-0.0741319
-0.0763647
-0.0785699
-0.0807472
-0.0828965
-0.0850173
-0.0871095
-0.0891726
-0.0912064
-0.0932128
-0.00585166
-0.0085917
-0.0113176
-0.0140283
-0.0167232
-0.0194014
-0.0220623
-0.0247051
-0.0273292
-0.029934
-0.0325188
-0.0350829
-0.0376258
-0.040147
-0.0426458
-0.0451217
-0.0475744
-0.0500032
-0.0524077
-0.0547875
-0.0571422
-0.0594714
-0.0617746
-0.0640516
-0.0663019
-0.0685252
-0.0707212
-0.0728895
-0.0750299
-0.0771419
-0.0792253
-0.0812798
-0.0833051
-0.0853006
-0.087266
-0.0892036
-0.00418641
-0.00686043
-0.00952072
-0.0121663
-0.0147964
-0.0174103
-0.0200072
-0.0225865
-0.0251474
-0.0276892
-0.0302114
-0.0327133
-0.0351942
-0.0376536
-0.0400909
-0.0425055
-0.044897
-0.0472648
-0.0496085
-0.0519275
-0.0542214
-0.0564899
-0.0587324
-0.0609485
-0.063138
-0.0653003
-0.0674351
-0.0695422
-0.0716209
-0.0736712
-0.0756925
-0.0776846
-0.0796471
-0.0815794
-0.0834813
-0.085355
-0.00258555
-0.00519603
-0.00779315
-0.0103759
-0.0129436
-0.0154955
-0.0180307
-0.0205487
-0.0230486
-0.0255298
-0.0279917
-0.0304335
-0.0328546
-0.0352545
-0.0376326
-0.0399882
-0.0423208
-0.04463
-0.0469151
-0.0491758
-0.0514114
-0.0536217
-0.0558061
-0.0579642
-0.0600956
-0.0621999
-0.0642766
-0.0663255
-0.0683461
-0.070338
-0.0723009
-0.0742344
-0.0761382
-0.0780117
-0.0798546
-0.0816693
-0.00105003
-0.00359942
-0.00613581
-0.00865824
-0.0111659
-0.0136581
-0.0161341
-0.0185931
-0.0210344
-0.0234572
-0.0258611
-0.0282451
-0.0306089
-0.0329516
-0.0352727
-0.0375716
-0.0398478
-0.0421007
-0.0443298
-0.0465346
-0.0487146
-0.0508693
-0.0529983
-0.0551011
-0.0571773
-0.0592265
-0.0612482
-0.0632421
-0.0652078
-0.0671449
-0.069053
-0.0709318
-0.0727809
-0.0745997
-0.076388
-0.078148
0.000419345
-0.00207152
-0.00454971
-0.00701427
-0.00946442
-0.0118994
-0.0143185
-0.0167209
-0.019106
-0.0214729
-0.0238211
-0.0261498
-0.0284585
-0.0307464
-0.033013
-0.0352577
-0.03748
-0.0396791
-0.0418547
-0.0440063
-0.0461332
-0.048235
-0.0503114
-0.0523617
-0.0543856
-0.0563827
-0.0583525
-0.0602946
-0.0622087
-0.0640944
-0.0659512
-0.0677789
-0.069577
-0.0713451
-0.073083
-0.0747927
0.00182141
-0.000613491
-0.00303602
-0.00544523
-0.00784036
-0.0102206
-0.0125853
-0.0149336
-0.0172649
-0.0195784
-0.0218734
-0.0241492
-0.0264053
-0.0286409
-0.0308556
-0.0330485
-0.0352193
-0.0373673
-0.039492
-0.0415929
-0.0436694
-0.0457212
-0.0477476
-0.0497483
-0.0517229
-0.0536708
-0.0555917
-0.0574853
-0.059351
-0.0611886
-0.0629976
-0.0647778
-0.0665287
-0.0682499
-0.0699413
-0.0716048
-0.0732411
0.00315503
0.00077348
-0.00159598
-0.00395243
-0.00629508
-0.00862318
-0.010936
-0.0132327
-0.0155127
-0.0177752
-0.0200196
-0.0222451
-0.0244511
-0.026637
-0.0288022
-0.030946
-0.0330679
-0.0351674
-0.0372438
-0.0392967
-0.0413256
-0.04333
-0.0453094
-0.0472633
-0.0491914
-0.0510932
-0.0529683
-0.0548164
-0.056637
-0.0584297
-0.0601943
-0.0619305
-0.0636378
-0.0653158
-0.0669644
-0.0685855
-0.0701794
0.00441891
0.00208805
-0.000230986
-0.00253728
-0.00483007
-0.0071086
-0.00937211
-0.0116199
-0.0138512
-0.0160653
-0.0182615
-0.0204393
-0.0225978
-0.0247366
-0.0268549
-0.0289522
-0.0310279
-0.0330815
-0.0351123
-0.03712
-0.039104
-0.0410638
-0.042999
-0.0449091
-0.0467936
-0.0486523
-0.0504846
-0.0522903
-0.0540689
-0.0558201
-0.0575435
-0.0592389
-0.060906
-0.0625443
-0.0641538
-0.0657361
-0.0672913
0.00561158
0.0033287
0.00105742
-0.0012014
-0.00344698
-0.00567857
-0.00789543
-0.0100968
-0.0122821
-0.0144504
-0.0166012
-0.0187338
-0.0208475
-0.0229417
-0.0250159
-0.0270693
-0.0291015
-0.0311119
-0.0331
-0.0350652
-0.0370071
-0.0389251
-0.0408189
-0.042688
-0.044532
-0.0463505
-0.0481431
-0.0499094
-0.0516491
-0.0533618
-0.0550474
-0.0567054
-0.0583355
-0.0599375
-0.0615112
-0.0630581
-0.0645782
0.00673141
0.00449378
0.00226752
5.3469e-05
-0.0021476
-0.00433495
-0.00650785
-0.00866556
-0.0108074
-0.0129327
-0.0150407
-0.0171308
-0.0192024
-0.0212548
-0.0232874
-0.0252998
-0.0272912
-0.0292612
-0.0312092
-0.0331347
-0.0350373
-0.0369165
-0.0387718
-0.0406028
-0.0424091
-0.0441904
-0.0459462
-0.0476762
-0.0493801
-0.0510575
-0.0527082
-0.054332
-0.0559284
-0.0574972
-0.0590384
-0.0605533
-0.0620416
0.00777658
0.00558141
0.00339739
0.00122535
-0.00093396
-0.00307981
-0.00521148
-0.00732825
-0.00942942
-0.0115143
-0.0135823
-0.0156327
-0.0176648
-0.0196782
-0.0216721
-0.0236461
-0.0255995
-0.0275319
-0.0294426
-0.0313313
-0.0331975
-0.0350406
-0.0368603
-0.0386562
-0.0404278
-0.0421748
-0.0438968
-0.0455935
-0.0472646
-0.0489098
-0.0505288
-0.0521213
-0.0536872
-0.055226
-0.0567379
-0.0582238
-0.0596835
0.00874503
0.0065895
0.0044449
0.00231205
0.000191694
-0.00191545
-0.00400868
-0.00608729
-0.00815059
-0.0101979
-0.0122286
-0.014242
-0.0162376
-0.0182147
-0.0201727
-0.0221111
-0.0240294
-0.0259269
-0.0278033
-0.029658
-0.0314906
-0.0333006
-0.0350876
-0.0368512
-0.0385911
-0.0403068
-0.041998
-0.0436644
-0.0453057
-0.0469216
-0.0485119
-0.0500763
-0.0516147
-0.0531266
-0.0546122
-0.0560722
-0.0575065
0.00963446
0.00751567
0.00540761
0.00331109
0.00122683
-0.000844467
-0.0029021
-0.00494539
-0.00697365
-0.00898624
-0.0109825
-0.0129619
-0.0149237
-0.0168673
-0.0187923
-0.020698
-0.022584
-0.0244496
-0.0262945
-0.0281182
-0.0299201
-0.0316999
-0.0334571
-0.0351914
-0.0369025
-0.0385898
-0.0402532
-0.0418923
-0.0435068
-0.0450965
-0.0466611
-0.0482005
-0.0497142
-0.0512023
-0.0526645
-0.0541017
-0.0555135
0.0104423
0.00835725
0.0062828
0.00421968
0.00216859
0.00013023
-0.00189472
-0.00390559
-0.00590173
-0.00788249
-0.00984725
-0.0117954
-0.0137263
-0.0156395
-0.0175343
-0.0194103
-0.0212669
-0.0231036
-0.0249199
-0.0267154
-0.0284897
-0.0302422
-0.0319727
-0.0336807
-0.0353659
-0.0370279
-0.0386665
-0.0402813
-0.041872
-0.0434385
-0.0449804
-0.0464976
-0.0479899
-0.049457
-0.0508989
-0.0523161
-0.0537084
0.0111655
0.00911122
0.00706737
0.00503465
0.00301374
0.00100533
-0.000989926
-0.00297136
-0.00493835
-0.00689025
-0.00882647
-0.0107464
-0.0126495
-0.0145351
-0.0164028
-0.018252
-0.0200822
-0.021893
-0.0236838
-0.0254541
-0.0272037
-0.0289321
-0.0306388
-0.0323235
-0.0339859
-0.0356256
-0.0372424
-0.0388359
-0.0404059
-0.0419522
-0.0434744
-0.0449725
-0.0464462
-0.0478953
-0.0493198
-0.0507201
-0.0520958
0.0118007
0.00977413
0.00775779
0.00575238
0.00375858
0.00177705
-0.000191569
-0.00214663
-0.00408753
-0.00601363
-0.00792436
-0.00981914
-0.0116974
-0.0135586
-0.0154022
-0.0172277
-0.0190346
-0.0208225
-0.0225908
-0.0243392
-0.0260672
-0.0277744
-0.0294605
-0.031125
-0.0327677
-0.0343883
-0.0359863
-0.0375617
-0.039114
-0.0406431
-0.0421487
-0.0436307
-0.0450889
-0.046523
-0.0479331
-0.0493193
-0.0506814
0.0123441
0.010342
0.00835
0.00636874
0.00439889
0.00244108
0.000495954
-0.00143588
-0.00335383
-0.00525728
-0.00714567
-0.00901844
-0.010875
-0.0127149
-0.0145376
-0.0163426
-0.0181294
-0.0198975
-0.0216465
-0.023376
-0.0250856
-0.0267749
-0.0284434
-0.030091
-0.0317171
-0.0333216
-0.0349042
-0.0364645
-0.0380023
-0.0395173
-0.0410095
-0.0424785
-0.0439242
-0.0453464
-0.046745
-0.0481202
-0.0494717
0.0127914
0.0108104
0.00883941
0.00687898
0.00492976
0.00299237
0.00106742
-0.000844493
-0.00274279
-0.00462689
-0.00649624
-0.0083503
-0.0101885
-0.0120104
-0.0138155
-0.0156032
-0.0173732
-0.0191249
-0.0208579
-0.0225719
-0.0242664
-0.025941
-0.0275954
-0.0292293
-0.0308422
-0.0324339
-0.0340042
-0.0355527
-0.0370792
-0.0385835
-0.0400653
-0.0415245
-0.0429609
-0.0443743
-0.0457646
-0.0471318
-0.0484757
0.013137
0.0111739
0.00922066
0.00727781
0.00534599
0.00342578
0.00151778
-0.000377439
-0.00225932
-0.0041273
-0.00598084
-0.00781943
-0.00964254
-0.0114497
-0.0132404
-0.0150141
-0.0167705
-0.0185091
-0.0202295
-0.0219312
-0.0236139
-0.0252772
-0.0269208
-0.0285442
-0.0301473
-0.0317297
-0.033291
-0.0348312
-0.0363498
-0.0378467
-0.0393216
-0.0407744
-0.0422048
-0.0436128
-0.0449981
-0.0463607
-0.0477004
0.0133761
0.0114267
0.00948689
0.0075574
0.00563876
0.00373155
0.00183632
-4.63651e-05
-0.00191596
-0.00377195
-0.00561379
-0.00744099
-0.00925305
-0.0110495
-0.0128298
-0.0145936
-0.0163404
-0.0180698
-0.0197814
-0.0214747
-0.0231495
-0.0248052
-0.0264417
-0.0280584
-0.0296552
-0.0312318
-0.0327877
-0.0343229
-0.0358369
-0.0373296
-0.0388008
-0.0402502
-0.0416777
-0.043083
-0.0444661
-0.0458268
-0.0471649
0.0135002
0.0115632
0.00963573
0.00771835
0.0058116
0.00391602
0.00203215
0.000160497
-0.00169841
-0.00354407
-0.005376
-0.00719371
-0.00899673
-0.0107846
-0.0125569
-0.0143131
-0.0160529
-0.0177758
-0.0194815
-0.0211695
-0.0228395
-0.0244911
-0.0261241
-0.027738
-0.0293325
-0.0309074
-0.0324624
-0.0339971
-0.0355114
-0.037005
-0.0384776
-0.0399291
-0.0413592
-0.0427677
-0.0441544
-0.0455192
-0.0468618
-0.030275
-0.0366959
-0.0430354
-0.0492907
-0.0554597
-0.0615408
-0.0675319
-0.0734318
-0.0792389
-0.0023162
-0.00884774
-0.0152939
-0.0217083
-0.0280319
-0.0342783
-0.040449
-0.0465415
-0.0525539
-0.0584845
-0.0643318
-0.0700943
-0.0757708
0.025126
0.0185463
0.0120229
0.00555761
-0.000847514
-0.00719124
-0.0134705
-0.0196851
-0.0258319
-0.0319087
-0.0379147
-0.0438481
-0.0497072
-0.0554904
-0.0611963
-0.0668237
-0.0723713
0.0257914
0.0194125
0.013086
0.00681363
0.00059735
-0.00556385
-0.0116803
-0.0177005
-0.0236748
-0.0295868
-0.0354323
-0.0412103
-0.0469194
-0.0525582
-0.0581254
-0.0636199
-0.0690405
0.0264567
0.0202726
0.0141372
0.0080521
0.00201915
-0.00396075
-0.00989101
-0.0157511
-0.0215613
-0.0273123
-0.0330013
-0.0386277
-0.0441902
-0.0496876
-0.0551187
-0.0604825
-0.065778
0.0271217
0.0211264
0.0151763
0.0092729
0.00341776
-0.00238782
-0.00814403
-0.0138423
-0.0194915
-0.0250851
-0.0306215
-0.0360999
-0.0415192
-0.0468782
-0.0521759
-0.0574113
-0.0625836
0.0336387
0.0277858
0.0219735
0.016203
0.0104758
0.00479318
-0.000843699
-0.00643401
-0.0119721
-0.0174643
-0.0229048
-0.0282924
-0.0336265
-0.0389058
-0.0441294
-0.0492963
-0.0544056
-0.0594566
0.0341212
0.0284486
0.0228136
0.0172172
0.0116607
0.00614538
0.000672201
-0.00475764
-0.0101394
-0.0154793
-0.0207708
-0.0260135
-0.0312067
-0.0363494
-0.0414406
-0.0464793
-0.0514649
-0.0563965
0.0346076
0.0291097
0.0236463
0.0182185
0.0128275
0.00747437
0.00215974
-0.00311499
-0.00834446
-0.013537
-0.018683
-0.0237841
-0.02884
-0.0338493
-0.038811
-0.0437242
-0.0485884
-0.0534026
0.0350974
0.0297686
0.0244714
0.019207
0.0139764
0.00878058
0.00362011
-0.00150214
-0.00657717
-0.0116351
-0.0166407
-0.0216035
-0.0265255
-0.0314047
-0.0362398
-0.0410303
-0.0457753
-0.0504743
0.0355897
0.0304246
0.0252883
0.0201821
0.0151068
0.0100638
0.00505391
8.51924e-05
-0.00481298
-0.00976497
-0.0146415
-0.0194711
-0.0242627
-0.0290149
-0.0337265
-0.0383967
-0.043025
-0.0476106
0.036084
0.0310771
0.0260966
0.0211432
0.0162179
0.0113218
0.00645575
0.00161277
-0.00323022
-0.007958
-0.0126864
-0.017387
-0.0220516
-0.0266795
-0.0312702
-0.0358227
-0.0403366
-0.044811
0.0365794
0.0317258
0.0268959
0.0220906
0.0173109
0.0125577
0.00783257
0.00313466
-0.00154261
-0.00616762
-0.010773
-0.0153486
-0.01989
-0.0243973
-0.02887
-0.0333076
-0.0377093
-0.0420745
0.0370754
0.0323699
0.0276857
0.0230239
0.0183852
0.0137706
0.00918138
0.00461825
8.02458e-05
-0.00442512
-0.00890597
-0.0133578
-0.0177786
-0.022168
-0.0265255
-0.0308506
-0.0351425
-0.0394006
0.0375712
0.0330089
0.0284658
0.0239427
0.0194405
0.0149601
0.0105025
0.0060684
0.00165815
-0.002724
-0.0070821
-0.0114134
-0.0157165
-0.019991
-0.024236
-0.028451
-0.0326354
-0.0367884
0.0380662
0.0336424
0.0292356
0.0248467
0.0204766
0.0161261
0.0117963
0.00748768
0.00320108
-0.00106062
-0.00529994
-0.00951448
-0.0137032
-0.0178656
-0.0220008
-0.0261083
-0.0301874
-0.0342374
0.0385597
0.0342696
0.0299946
0.0257355
0.0214932
0.0172686
0.0130625
0.00887564
0.00470895
0.000564587
-0.00355956
-0.00766076
-0.0117382
-0.0157913
-0.0198193
-0.0238218
-0.0277979
-0.031747
0.0390509
0.0348901
0.0307425
0.0266089
0.0224902
0.0183873
0.0143011
0.0102321
0.00618161
0.0021515
-0.00186084
-0.00585186
-0.00982091
-0.0137676
-0.0176911
-0.0215909
-0.0254664
-0.0293166
0.0395394
0.0355033
0.0314787
0.0274665
0.0234673
0.0194822
0.0155118
0.0115567
0.00761803
0.00369867
-0.000205089
-0.0040882
-0.00795127
-0.0117941
-0.0156157
-0.0194154
-0.0231924
-0.0269459
0.0400244
0.0361088
0.0322031
0.028308
0.0244245
0.0205534
0.0166954
0.0128505
0.00902179
0.0052149
0.00140898
-0.00236999
-0.00612887
-0.00987033
-0.0135927
-0.0172946
-0.0209755
-0.0246345
0.0405054
0.036706
0.032915
0.0291332
0.0253616
0.0216012
0.0178529
0.0141178
0.0104071
0.00675018
0.00299957
-0.000691086
-0.00435173
-0.00799542
-0.0116214
-0.0152282
-0.0188154
-0.022382
0.0409817
0.0372943
0.0336138
0.0299411
0.0262768
0.0226218
0.018977
0.0153427
0.0117084
0.00804898
0.00450853
0.000940653
-0.00262384
-0.00617195
-0.00970297
-0.0132166
-0.016712
-0.0201883
0.0414528
0.0378733
0.0342995
0.0307322
0.0271721
0.0236203
0.0200776
0.0165457
0.0130238
0.00950799
0.00601891
0.00253444
-0.000938448
-0.00439499
-0.00783507
-0.0112586
-0.014665
-0.0180533
0.041918
0.0384425
0.0349716
0.0315059
0.0280464
0.024594
0.0211495
0.017714
0.0142883
0.0108724
0.00746973
0.00407722
0.000697195
-0.00266859
-0.00601953
-0.00935506
-0.0126745
-0.015977
0.0423769
0.0390015
0.0356296
0.0322619
0.0288993
0.0255427
0.0221929
0.0188508
0.0155172
0.0121927
0.00887994
0.00557748
0.00228666
-0.000991339
-0.0042557
-0.00750567
-0.0107405
-0.0139593
0.0428289
0.0395497
0.0362731
0.0329997
0.0297304
0.0264662
0.0232079
0.0199563
0.0167123
0.0134766
0.010251
0.00703509
0.00383006
0.000636932
-0.00254348
-0.00571039
-0.00886305
-0.0120006
0.0432732
0.0400866
0.0369015
0.0337189
0.0305395
0.0273643
0.0241941
0.0210298
0.0178722
0.0147221
0.011581
0.00844885
0.00532685
0.00221592
-0.000883103
-0.00396943
-0.0070423
-0.0101008
0.0437094
0.0406116
0.0375145
0.0344191
0.0313262
0.0282366
0.0251513
0.022071
0.0189967
0.0159292
0.0128698
0.00981861
0.00677687
0.00374549
0.000725261
-0.002283
-0.00527849
-0.0082603
0.0441367
0.0411241
0.0381115
0.0350998
0.03209
0.0290827
0.026079
0.0230797
0.0200857
0.0170978
0.0141172
0.0111441
0.00817989
0.00522537
0.00228134
-0.000651373
-0.00357196
-0.00647949
0.0445545
0.0416235
0.0386919
0.0357606
0.0328304
0.0299023
0.026977
0.0240555
0.0211387
0.0182274
0.0153229
0.0124251
0.00953556
0.00665521
0.00378477
0.000925056
-0.0019231
-0.00475877
0.0449621
0.0421092
0.0392551
0.0364007
0.033547
0.0306947
0.0278447
0.024998
0.0221553
0.0193177
0.0164864
0.0136609
0.0108434
0.00803458
0.00523511
0.00244582
-0.000332421
-0.00309869
0.0453588
0.0425804
0.0398004
0.0370197
0.0342391
0.0314594
0.0286816
0.0259065
0.023135
0.0203681
0.0176076
0.0148509
0.0121027
0.00936287
0.0066318
0.00391037
0.0011995
-0.00149985
0.0457437
0.0430365
0.0403273
0.0376169
0.0349062
0.0321961
0.0294874
0.0267812
0.0240781
0.0213804
0.0186912
0.0159972
0.013314
0.0106401
0.00797455
0.00531824
0.00267211
3.71008e-05
0.046116
0.0434766
0.0408347
0.0381913
0.0355472
0.0329033
0.0302604
0.0276195
0.0249812
0.0223456
0.019712
0.017092
0.0144752
0.0118645
0.00926186
0.00666824
0.00408438
0.00151121
0.046475
0.0438999
0.0413221
0.0387425
0.0361619
0.0335812
0.0310012
0.0284229
0.0258471
0.0232743
0.0207045
0.0181436
0.015587
0.0130365
0.010494
0.00796013
0.00543577
0.00292178
0.0468195
0.0443054
0.0417885
0.0392694
0.0367491
0.0342284
0.0317082
0.0291894
0.0266729
0.0241593
0.0216493
0.0191454
0.0166465
0.0141541
0.0116691
0.00919247
0.00672501
0.00426761
0.0471486
0.0446923
0.0422328
0.0397711
0.0373079
0.0348442
0.0323807
0.0299183
0.027458
0.0250005
0.0225465
0.0200977
0.0176541
0.0152167
0.0127865
0.0103644
0.00795112
0.00554764
0.0474613
0.0450594
0.0426542
0.0402465
0.0378373
0.0354273
0.0330175
0.0306086
0.0282015
0.025797
0.023396
0.0209997
0.0186085
0.0162233
0.0138451
0.0114747
0.00911287
0.0067606
0.0477564
0.0454055
0.0430513
0.0406946
0.0383361
0.0359768
0.0336175
0.031259
0.0289021
0.0265477
0.0241967
0.02185
0.0195083
0.0171725
0.0148434
0.0125219
0.0102089
0.00790506
0.0480326
0.0457295
0.043423
0.0411139
0.0388031
0.0364913
0.0341794
0.0318682
0.0295586
0.0272513
0.0249472
0.0226473
0.0203522
0.0180629
0.0157801
0.0135047
0.0112376
0.00897945
0.0482886
0.04603
0.0437679
0.0415033
0.0392369
0.0369694
0.0347018
0.0324348
0.0301693
0.0279061
0.025646
0.0233899
0.0211386
0.0188928
0.0166534
0.0144213
0.0121972
0.00998198
0.048523
0.0463055
0.0440846
0.0418611
0.0396359
0.0374096
0.0351831
0.0329573
0.0307328
0.0285106
0.0262915
0.0240762
0.0218656
0.0196604
0.0174615
0.0152698
0.0130859
0.0109106
0.0487342
0.0465544
0.0443714
0.0421858
0.0399984
0.0378101
0.0356216
0.0334337
0.0312472
0.0290629
0.0268816
0.0247041
0.0225312
0.0203637
0.0182023
0.016048
0.0139013
0.0117632
0.0489206
0.0467751
0.0446265
0.0424754
0.0403227
0.038169
0.0360152
0.0338621
0.0317104
0.0295608
0.0274143
0.0252715
0.0231333
0.0210003
0.0188734
0.0167534
0.014641
0.012537
0.0490802
0.0469656
0.044848
0.042728
0.0406065
0.0384843
0.0363619
0.0342402
0.03212
0.0300021
0.0278871
0.0257758
0.0236691
0.0215676
0.0194721
0.0173834
0.0153023
0.0132293
0.0512949
0.0492112
0.0471239
0.0450338
0.0429415
0.0408478
0.0387534
0.0366591
0.0345656
0.0324737
0.0303839
0.0282972
0.0262143
0.0241359
0.0220627
0.0199954
0.0179349
0.0158817
0.0138368
0.0513714
0.0493111
0.0472475
0.0451812
0.0431131
0.0410437
0.0389738
0.0369041
0.0348353
0.0327681
0.0307033
0.0286416
0.0265836
0.0245302
0.022482
0.0204397
0.0184041
0.0163758
0.0143556
0.0514193
0.0493786
0.0473349
0.0452888
0.043241
0.0411922
0.0391431
0.0370943
0.0350467
0.0330008
0.0309573
0.028917
0.0268806
0.0248487
0.0228221
0.0208013
0.0187872
0.0167804
0.0147816
0.0514319
0.049407
0.0473793
0.0453496
0.0433185
0.0412867
0.0392547
0.0372234
0.0351933
0.0331652
0.0311397
0.0291174
0.0270991
0.0250854
0.023077
0.0210745
0.0190786
0.0170899
0.0151092
0.0514226
0.0494088
0.0473927
0.0453749
0.0433559
0.0413365
0.0393173
0.0372989
0.0352819
0.0332671
0.031255
0.0292464
0.0272419
0.0252418
0.0232471
0.0212584
0.0192764
0.0173015
0.0153346
0.0513324
0.0493266
0.0473191
0.0453103
0.043301
0.0412917
0.0392829
0.0372754
0.0352697
0.0332665
0.0312662
0.0292696
0.0272771
0.0252899
0.0233079
0.0213319
0.0193626
0.0174004
0.0154461
)
;

boundaryField
{
    inlet
    {
        type            zeroGradient;
    }
    outlet
    {
        type            fixedValue;
        value           nonuniform 0();
    }
    cylinder
    {
        type            zeroGradient;
    }
    top
    {
        type            symmetryPlane;
    }
    bottom
    {
        type            symmetryPlane;
    }
    defaultFaces
    {
        type            empty;
    }
    procBoundary13to9
    {
        type            processor;
        value           nonuniform List<scalar> 
65
(
-0.088611
-0.0943468
-0.0999789
-0.105506
-0.110927
-0.116242
-0.121451
-0.126554
-0.131552
-0.132012
-0.132012
-0.136757
-0.14141
-0.145972
-0.145916
-0.145916
-0.150286
-0.154582
-0.158808
-0.158411
-0.158411
-0.162511
-0.166564
-0.166011
-0.166011
-0.16999
-0.169361
-0.169361
-0.1733
-0.177235
-0.176528
-0.176528
-0.180471
-0.179698
-0.179698
-0.183673
-0.182813
-0.182813
-0.18684
-0.185864
-0.185864
-0.189954
-0.194123
-0.192988
-0.192988
-0.197261
-0.0325614
-0.0391616
-0.0456738
-0.0520956
-0.0584247
-0.0646591
-0.0707968
-0.0768361
-0.0827754
-0.00380873
-0.010538
-0.0171851
-0.0237732
-0.0237732
0.0244608
0.0176742
0.0109477
0.00428364
0.00428364
)
;
    }
    procBoundary13to12
    {
        type            processor;
        value           nonuniform List<scalar> 
51
(
0.0317599
0.0322209
0.032688
0.0331608
0.0331608
0.0395308
0.0398299
0.0401388
0.0404567
0.0407827
0.0411161
0.0414559
0.0418015
0.0421519
0.0425063
0.042864
0.0432242
0.0435861