/*--------------------------------*- C++ -*----------------------------------*\
  =========                 |
  \\      /  F ield         | OpenFOAM: The Open Source CFD Toolbox
   \\    /   O peration     | Website:  https://openfoam.org
    \\  /    A nd           | Version:  7
     \\/     M anipulation  |
\*---------------------------------------------------------------------------*/
FoamFile
{
    version     2.0;
    format      ascii;
    class       surfaceScalarField;
    location    "10";
    object      phi;
}
// * * * * * * * * * * * * * * * * * * * * * * * * * * * * * * * * * * * * * //

dimensions      [0 3 -1 0 0 0 0];

internalField   nonuniform List<scalar> 
5143
(
0.00300901
0.000645557
-0.00299845
0.00301975
0.000702916
0.00303063
0.000760027
0.00304164
0.000816835
0.00305272
0.000873285
0.00306386
0.000929319
0.003075
0.000984878
0.00308611
0.0010399
0.00109432
0.00307598
0.000634692
-0.00306511
0.00308707
0.000691827
0.00309835
0.000748742
0.0031098
0.000805385
0.00312139
0.000861702
0.00313307
0.000917639
0.00314481
0.000973139
0.00315657
0.00102814
0.00316831
0.00108258
0.00317998
0.0011364
0.00319154
0.00118954
0.00320295
0.00124192
0.00129348
0.00314419
0.00062354
-0.00313304
0.00315561
0.000680404
0.00316728
0.000737075
0.00317916
0.000793504
0.00319122
0.000849639
0.00320343
0.000905428
0.00321576
0.000960814
0.00322816
0.00101574
0.00324059
0.00107015
0.00325301
0.00112398
0.00326538
0.00117717
0.00327765
0.00122965
0.00328977
0.00128136
0.00330169
0.00133223
0.00331335
0.00138219
0.00332471
0.00143118
0.00147912
0.00321368
0.00061212
-0.00320226
0.00322542
0.000668666
0.00323745
0.000725045
0.00324974
0.000781211
0.00326227
0.000837113
0.00327499
0.0008927
0.00328789
0.000947921
0.00330091
0.00100272
0.00331402
0.00105704
0.00332719
0.00111082
0.00334035
0.001164
0.00335348
0.00121652
0.00336651
0.00126832
0.00337941
0.00131933
0.00339212
0.00136948
0.00340458
0.00141872
0.00341674
0.00146696
0.00342854
0.00151415
0.00343993
0.00156022
0.0016051
0.0032845
0.000600452
-0.00327283
0.00329653
0.000656633
0.0033089
0.000712672
0.00332159
0.000768524
0.00333456
0.000824141
0.00334779
0.000879476
0.00336123
0.000934476
0.00337486
0.000989089
0.00338864
0.00104326
0.00340252
0.00109693
0.00341647
0.00115005
0.00343044
0.00120255
0.00344438
0.00125438
0.00345825
0.00130546
0.00347199
0.00135574
0.00348555
0.00140515
0.00349888
0.00145363
0.00351191
0.00150111
0.0035246
0.00154753
0.00353688
0.00159282
0.0035487
0.00163691
0.00167975
0.00335669
0.000588557
-0.00334479
0.00336899
0.000644325
0.00338169
0.000699975
0.00339475
0.000755464
0.00340815
0.000810746
0.00342185
0.000865774
0.00343582
0.000920499
0.00345004
0.000974872
0.00346446
0.00102884
0.00347905
0.00108235
0.00349376
0.00113534
0.00350856
0.00118776
0.00352339
0.00123955
0.00353821
0.00129064
0.00355297
0.00134098
0.00356762
0.00139051
0.00358211
0.00143915
0.00359637
0.00148685
0.00361035
0.00153354
0.003624
0.00157917
0.00363726
0.00162366
0.00365006
0.00166695
0.00366234
0.00170898
0.00367405
0.00174971
0.00178906
0.0034303
0.000576455
-0.0034182
0.00344286
0.000631765
0.00345586
0.000686978
0.00346927
0.000742053
0.00348306
0.000796948
0.00349722
0.000851616
0.00351171
0.000906013
0.00352649
0.000960089
0.00354154
0.00101379
0.00355681
0.00106708
0.00357226
0.00111988
0.00358786
0.00117216
0.00360357
0.00122384
0.00361932
0.00127488
0.00363509
0.00132522
0.00365081
0.00137478
0.00366644
0.00142353
0.00368191
0.00147138
0.00369718
0.00151828
0.00371219
0.00156416
0.00372687
0.00160897
0.00374118
0.00165264
0.00375504
0.00169512
0.0037684
0.00173634
0.0037812
0.00177626
0.00379338
0.0018148
0.00185194
0.00350538
0.000564169
-0.00349309
0.00351817
0.000618973
0.00353145
0.000673701
0.00354519
0.000728314
0.00355937
0.00078277
0.00357395
0.000837027
0.00358893
0.00089104
0.00360425
0.000944763
0.0036199
0.000998149
0.00363583
0.00105115
0.00365201
0.0011037
0.00366839
0.00115577
0.00368494
0.00120729
0.00370161
0.00125821
0.00371836
0.00130847
0.00373513
0.00135801
0.00375188
0.00140678
0.00376855
0.00145471
0.00378509
0.00150174
0.00380144
0.00154781
0.00381754
0.00159287
0.00383333
0.00163685
0.00384877
0.00167969
0.00386377
0.00172134
0.0038783
0.00176173
0.00389227
0.00180083
0.00390565
0.00183857
0.00391835
0.0018749
0.0019098
0.00358199
0.00055172
-0.00356954
0.00359499
0.000605972
0.00360852
0.000660168
0.00362256
0.00071427
0.0036371
0.000768237
0.0036521
0.00082203
0.00366753
0.000875606
0.00368337
0.00092892
0.00369959
0.000981928
0.00371616
0.00103458
0.00373303
0.00108683
0.00375018
0.00113863
0.00376755
0.00118992
0.00378511
0.00124065
0.00380281
0.00129077
0.00382061
0.00134021
0.00383846
0.00138893
0.0038563
0.00143687
0.00387408
0.00148396
0.00389175
0.00153014
0.00390925
0.00157537
0.00392653
0.00161958
0.00394351
0.0016627
0.00396015
0.0017047
0.00397638
0.0017455
0.00399215
0.00178506
0.00400739
0.00182333
0.00402204
0.00186025
0.00403605
0.00189579
0.00404935
0.00192991
0.00196257
0.00366016
0.000539127
-0.00364757
0.00367335
0.000592784
0.00368712
0.000646401
0.00370145
0.000699943
0.00371631
0.000753372
0.00373169
0.000806649
0.00374756
0.000859734
0.0037639
0.000912585
0.00378067
0.000965158
0.00379784
0.00101741
0.00381538
0.00106929
0.00383326
0.00112075
0.00385143
0.00117175
0.00386985
0.00122223
0.00388848
0.00127213
0.00390728
0.00132141
0.0039262
0.00137001
0.00394519
0.00141788
0.00396419
0.00146495
0.00398315
0.00151118
0.00400203
0.0015565
0.00402075
0.00160085
0.00403927
0.00164419
0.00405752
0.00168645
0.00407545
0.00172758
0.00409299
0.00176752
0.00411008
0.00180623
0.00412667
0.00184367
0.00414269
0.00187977
0.00415808
0.00191451
0.00417279
0.00194785
0.00418676
0.00197977
0.00419994
0.00201025
0.0020393
0.00373997
0.00052641
-0.00372725
0.00375332
0.000579428
0.0037673
0.000632421
0.00378189
0.000685357
0.00379706
0.000738198
0.0038128
0.000790909
0.00382908
0.000843451
0.00384588
0.000895785
0.00386318
0.000947868
0.00388093
0.000999658
0.00389911
0.00105111
0.00391768
0.00110218
0.00393662
0.00115282
0.00395587
0.00120297
0.00397541
0.0012526
0.00399517
0.00130165
0.00401513
0.00135006
0.00403523
0.00139778
0.00405542
0.00144476
0.00407566
0.00149095
0.00409587
0.00153628
0.00411602
0.0015807
0.00413604
0.00162416
0.00415588
0.00166661
0.00417548
0.00170798
0.00419477
0.00174823
0.00421369
0.00178731
0.0042322
0.00182516
0.00425021
0.00186175
0.00426769
0.00189704
0.00428456
0.00193098
0.00430077
0.00196357
0.00431625
0.00199477
0.00433097
0.00202458
0.00434486
0.00205303
0.00208015
0.00382144
0.00051359
-0.00380862
0.00383495
0.000565925
0.00384912
0.00061825
0.00386394
0.000670533
0.0038794
0.00072274
0.00389547
0.000774835
0.00391214
0.000826783
0.00392938
0.000878546
0.00394716
0.000930083
0.00396547
0.000981355
0.00398426
0.00103232
0.0040035
0.00108293
0.00402317
0.00113315
0.00404323
0.00118292
0.00406363
0.0012322
0.00408433
0.00128094
0.0041053
0.00132909
0.00412648
0.0013766
0.00414782
0.00142341
0.00416929
0.00146948
0.00419082
0.00151475
0.00421236
0.00155916
0.00423385
0.00160267
0.00425524
0.00164521
0.00427648
0.00168675
0.00429749
0.00172722
0.00431822
0.00176657
0.00433862
0.00180477
0.00435861
0.00184176
0.00437814
0.0018775
0.00439716
0.00191197
0.00441559
0.00194513
0.00443339
0.00197697
0.00445049
0.00200748
0.00446684
0.00203667
0.00206459
0.00390465
0.000500681
-0.00389174
0.00391828
0.000552293
0.00393262
0.000603908
0.00394766
0.000655494
0.00396338
0.000707019
0.00397976
0.000758451
0.00399679
0.000809755
0.00401444
0.000860895
0.00403269
0.000911833
0.00405152
0.000962531
0.00407089
0.00101295
0.00409077
0.00106305
0.00411114
0.00111278
0.00413196
0.0011621
0.00415319
0.00121097
0.0041748
0.00125934
0.00419673
0.00130715
0.00421896
0.00135438
0.00424142
0.00140095
0.00426408
0.00144682
0.00428688
0.00149195
0.00430978
0.00153627
0.00433271
0.00157974
0.00435562
0.0016223
0.00437845
0.00166391
0.00440116
0.00170452
0.00442366
0.00174407
0.00444592
0.00178252
0.00446786
0.00181982
0.00448942
0.00185594
0.00451056
0.00189084
0.00453119
0.00192449
0.00455128
0.00195688
0.00457076
0.001988
0.00458957
0.00201786
0.00204649
0.00398963
0.000487702
-0.00397665
0.00400337
0.000538551
0.00401786
0.000589413
0.0040331
0.000640259
0.00404906
0.000691059
0.00406573
0.00074178
0.00408309
0.000792392
0.00410113
0.000842858
0.00411982
0.000893145
0.00413913
0.000943215
0.00415905
0.000993031
0.00417955
0.00104255
0.00420058
0.00109174
0.00422213
0.00114055
0.00424416
0.00118894
0.00426663
0.00123687
0.0042895
0.00128429
0.00431273
0.00133115
0.00433627
0.0013774
0.00436008
0.00142301
0.00438412
0.00146791
0.00440832
0.00151206
0.00443265
0.00155541
0.00445704
0.00159792
0.00448143
0.00163952
0.00450578
0.00168017
0.00453002
0.00171982
0.0045541
0.00175844
0.00457795
0.00179597
0.00460152
0.00183237
0.00462474
0.00186762
0.00464755
0.00190168
0.0046699
0.00193453
0.00469173
0.00196617
0.00471299
0.0019966
0.00202585
0.00407643
0.000474666
-0.0040634
0.00409027
0.000524713
0.0041049
0.000574783
0.00412031
0.000624847
0.00413649
0.000674878
0.00415343
0.000724845
0.0041711
0.000774716
0.0041895
0.000824461
0.0042086
0.000874046
0.00422838
0.000923435
0.00424882
0.000972594
0.00426988
0.00102148
0.00429156
0.00107007
0.0043138
0.00111831
0.00433659
0.00116616
0.00435988
0.00121358
0.00438364
0.00126052
0.00440784
0.00130695
0.00443242
0.00135282
0.00445734
0.00139808
0.00448256
0.00144269
0.00450804
0.00148659
0.00453371
0.00152974
0.00455953
0.0015721
0.00458544
0.0016136
0.00461139
0.00165422
0.00463733
0.00169389
0.00466318
0.00173258
0.0046889
0.00177025
0.00471442
0.00180685
0.00473969
0.00184235
0.00476464
0.00187673
0.00478923
0.00190995
0.00481338
0.00194202
0.00483705
0.00197293
0.00200271
0.00416512
0.000461587
-0.00415204
0.00417904
0.000510796
0.00419378
0.000560034
0.00420935
0.000609277
0.00422574
0.000658497
0.00424292
0.000707665
0.00426088
0.000756752
0.00427961
0.000805728
0.0042991
0.000854562
0.00431931
0.00090322
0.00434024
0.000951668
0.00436185
0.000999872
0.00438412
0.00104779
0.00440703
0.0010954
0.00443054
0.00114265
0.00445462
0.0011895
0.00447923
0.00123591
0.00450435
0.00128184
0.00452992
0.00132725
0.00455591
0.00137209
0.00458228
0.00141632
0.00460897
0.0014599
0.00463594
0.00150277
0.00466314
0.00154489
0.00469052
0.00158622
0.00471803
0.00162671
0.0047456
0.00166632
0.00477318
0.001705
0.00480072
0.00174271
0.00482815
0.00177942
0.00485542
0.00181508
0.00488247
0.00184968
0.00490924
0.00188318
0.00493568
0.00191558
0.00496172
0.00194688
0.00197709
0.00425573
0.000448477
-0.00424262
0.00426971
0.00049681
0.00428457
0.000545181
0.00430028
0.000593563
0.00431684
0.000641932
0.00433425
0.00069026
0.00435248
0.000738519
0.00437153
0.000786682
0.00439137
0.000834717
0.004412
0.000882595
0.00443338
0.000930282
0.00445551
0.000977746
0.00447835
0.00102495
0.00450188
0.00107187
0.00452608
0.00111845
0.00455091
0.00116467
0.00457633
0.00121048
0.00460233
0.00125585
0.00462885
0.00130073
0.00465586
0.00134508
0.00468332
0.00138886
0.00471118
0.00143203
0.0047394
0.00147455
0.00476794
0.00151636
0.00479673
0.00155743
0.00482573
0.00159771
0.00485489
0.00163716
0.00488415
0.00167574
0.00491345
0.00171341
0.00494274
0.00175013
0.00497195
0.00178586
0.00500104
0.00182059
0.00502995
0.00185427
0.00505862
0.00188691
0.005087
0.0019185
0.00194905
0.00434831
0.000435345
-0.00433518
0.00436236
0.00048277
0.0043773
0.000530236
0.00439314
0.000577721
0.00440987
0.0006252
0.00442749
0.000672648
0.00444597
0.000720038
0.00446531
0.000767343
0.00448549
0.000814535
0.0045065
0.000861585
0.00452832
0.000908463
0.00455093
0.000955136
0.00457431
0.00100157
0.00459843
0.00104774
0.00462328
0.00109361
0.00464881
0.00113913
0.00467501
0.00118428
0.00470184
0.00122902
0.00472927
0.0012733
0.00475725
0.0013171
0.00478576
0.00136036
0.00481474
0.00140305
0.00484416
0.00144513
0.00487397
0.00148655
0.00490412
0.00152728
0.00493456
0.00156727
0.00496525
0.00160648
0.00499612
0.00164487
0.00502713
0.00168241
0.00505821
0.00171904
0.00508932
0.00175476
0.00512039
0.00178951
0.00515138
0.00182329
0.00518222
0.00185607
0.00521287
0.00188785
0.00191864
0.00444293
0.000422201
-0.00442978
0.00445701
0.000468683
0.00447204
0.000515211
0.004488
0.000561763
0.00450488
0.000608315
0.00452269
0.000654844
0.0045414
0.000701324
0.00456101
0.000747731
0.00458151
0.000794037
0.00460288
0.000840214
0.00462511
0.000886235
0.00464818
0.00093207
0.00467206
0.000977688
0.00469675
0.00102306
0.00472221
0.00106815
0.00474842
0.00111292
0.00477535
0.00115735
0.00480298
0.00120139
0.00483126
0.00124502
0.00486017
0.00128818
0.00488967
0.00133086
0.00491973
0.001373
0.00495029
0.00141457
0.00498132
0.00145552
0.00501277
0.00149583
0.0050446
0.00153544
0.00507675
0.00157433
0.00510917
0.00161245
0.00514182
0.00164976
0.00517464
0.00168623
0.00520757
0.00172183
0.00524056
0.00175652
0.00527356
0.00179029
0.00530651
0.00182312
0.00533937
0.00185499
0.00188592
0.00453962
0.000409052
-0.00452647
0.00455374
0.000454559
0.00456884
0.000500115
0.0045849
0.000545699
0.00460193
0.000591289
0.00461991
0.000636862
0.00463884
0.000682395
0.0046587
0.000727863
0.0046795
0.000773241
0.00470121
0.000818503
0.00472382
0.000863623
0.00474732
0.000908572
0.00477169
0.000953321
0.0047969
0.000997842
0.00482295
0.0010421
0.00484979
0.00108607
0.00487742
0.00112972
0.0049058
0.00117301
0.0049349
0.00121591
0.0049647
0.00125839
0.00499515
0.00130041
0.00502622
0.00134193
0.00505787
0.00138291
0.00509007
0.00142333
0.00512276
0.00146313
0.00515591
0.0015023
0.00518946
0.00154077
0.00522338
0.00157853
0.0052576
0.00161553
0.00529208
0.00165175
0.00532677
0.00168714
0.00536161
0.00172168
0.00539655
0.00175535
0.00543155
0.00178812
0.00546654
0.00181999
0.00185096
0.00463843
0.000395905
-0.00462529
0.00465259
0.000440405
0.00466775
0.000484957
0.00468391
0.00052954
0.00470106
0.000574134
0.00471921
0.000618716
0.00473834
0.000663264
0.00475845
0.000707755
0.00477952
0.000752166
0.00480155
0.000796472
0.00482453
0.000840647
0.00484844
0.000884666
0.00487326
0.0009285
0.00489897
0.000972124
0.00492557
0.00101551
0.00495302
0.00105862
0.00498131
0.00110143
0.00501041
0.00114392
0.00504029
0.00118604
0.00507092
0.00122776
0.00510227
0.00126906
0.00513431
0.00130989
0.005167
0.00135022
0.0052003
0.00139002
0.00523418
0.00142926
0.00526859
0.00146789
0.00530348
0.00150588
0.00533882
0.00154319
0.00537455
0.0015798
0.00541063
0.00161567
0.005447
0.00165077
0.00548362
0.00168506
0.00552043
0.00171854
0.00555739
0.00175116
0.00559444
0.00178293
0.00181385
0.00473943
0.000382763
-0.00472629
0.00475361
0.000426227
0.00476882
0.000469743
0.00478507
0.000513293
0.00480235
0.000556857
0.00482065
0.000600414
0.00483997
0.000643942
0.0048603
0.000687421
0.00488164
0.000730827
0.00490398
0.000774137
0.0049273
0.000817327
0.00495159
0.000860373
0.00497684
0.000903249
0.00500304
0.000945929
0.00503016
0.000988386
0.00505819
0.00103059
0.0050871
0.00107252
0.00511688
0.00111414
0.00514749
0.00115542
0.00517892
0.00119633
0.00521113
0.00123685
0.00524409
0.00127693
0.00527776
0.00131654
0.00531212
0.00135566
0.00534713
0.00139425
0.00538274
0.00143228
0.00541891
0.0014697
0.00545561
0.0015065
0.00549278
0.00154263
0.00553038
0.00157807
0.00556836
0.00161279
0.00560667
0.00164675
0.00564528
0.00167993
0.00568412
0.00171232
0.00572316
0.0017439
0.00177465
0.00484266
0.000369633
-0.00482953
0.00485686
0.000412029
0.00487212
0.00045448
0.00488845
0.000496965
0.00490584
0.000539467
0.00492429
0.000581966
0.00494379
0.00062444
0.00496434
0.000666871
0.00498593
0.000709235
0.00500855
0.000751512
0.0050322
0.000793678
0.00505686
0.000835711
0.00508253
0.000877587
0.00510918
0.00091928
0.0051368
0.000960766
0.00516537
0.00100202
0.00519488
0.00104301
0.0052253
0.00108372
0.00525662
0.00112411
0.0052888
0.00116415
0.00532182
0.00120383
0.00535566
0.00124309
0.00539027
0.00128193
0.00542564
0.0013203
0.00546171
0.00135818
0.00549846
0.00139552
0.00553585
0.00143231
0.00557384
0.00146851
0.00561238
0.00150409
0.00565144
0.00153902
0.00569095
0.00157327
0.00573089
0.00160681
0.00577121
0.00163962
0.00581185
0.00167168
0.00585278
0.00170297
0.00173347
0.00494818
0.000356516
-0.00493506
0.00496239
0.000397816
0.0049777
0.000439171
0.0049941
0.000480562
0.0050116
0.00052197
0.00503019
0.000563378
0.00504986
0.000604766
0.00507062
0.000646114
0.00509245
0.000687403
0.00511535
0.00072861
0.00513931
0.000769716
0.00516433
0.000810697
0.00519038
0.000851532
0.00521746
0.000892197
0.00524556
0.000932669
0.00527466
0.000972923
0.00530473
0.00101293
0.00533577
0.00105268
0.00536776
0.00109212
0.00540066
0.00113125
0.00543446
0.00117003
0.00546912
0.00120843
0.00550463
0.00124642
0.00554095
0.00128398
0.00557804
0.00132108
0.00561588
0.00135768
0.00565443
0.00139377
0.00569364
0.0014293
0.00573349
0.00146424
0.00577393
0.00149858
0.00581491
0.00153229
0.00585639
0.00156532
0.00589834
0.00159767
0.0059407
0.00162931
0.00598344
0.00166022
0.00169039
0.00505604
0.000343415
-0.00504294
0.00507027
0.000383591
0.00508562
0.00042382
0.00510209
0.000464086
0.00511969
0.000504371
0.00513841
0.000544657
0.00515825
0.000584926
0.00517921
0.00062516
0.00520127
0.000665339
0.00522444
0.000705443
0.0052487
0.000745451
0.00527406
0.000785345
0.00530049
0.000825101
0.00532799
0.000864698
0.00535654
0.000904115
0.00538614
0.000943327
0.00541676
0.000982313
0.00544839
0.00102105
0.00548101
0.0010595
0.0055146
0.00109766
0.00554913
0.00113549
0.00558459
0.00117297
0.00562095
0.00121007
0.00565818
0.00124676
0.00569624
0.00128302
0.00573511
0.00131881
0.00577476
0.00135412
0.00581515
0.00138891
0.00585623
0.00142316
0.00589798
0.00145683
0.00594035
0.00148991
0.00598331
0.00152237
0.00602681
0.00155418
0.00607081
0.00158531
0.00611527
0.00161576
0.0016455
0.00516631
0.000330332
-0.00515323
0.00518055
0.000369354
0.00519594
0.000408429
0.00521248
0.00044754
0.00523018
0.000486672
0.00524903
0.000525806
0.00526903
0.000564926
0.00529018
0.000604013
0.00531247
0.000643049
0.0053359
0.000682016
0.00536045
0.000720894
0.00538613
0.000759664
0.00541293
0.000798305
0.00544083
0.000836798
0.00546982
0.00087512
0.0054999
0.000913251
0.00553104
0.000951169
0.00556324
0.00098885
0.00559647
0.00102627
0.00563072
0.00106341
0.00566596
0.00110025
0.00570218
0.00113675
0.00573935
0.0011729
0.00577744
0.00120867
0.00581643
0.00124403
0.00585629
0.00127896
0.00589698
0.00131343
0.00593848
0.00134741
0.00598074
0.00138089
0.00602374
0.00141383
0.00606744
0.00144622
0.00611179
0.00147801
0.00615677
0.0015092
0.00620233
0.00153976
0.00624843
0.00156966
0.00159889
0.00527905
0.000317267
-0.00526598
0.00529329
0.000355107
0.00530872
0.000392999
0.00532534
0.000430927
0.00534313
0.000468876
0.00536211
0.000506828
0.00538227
0.000544768
0.0054036
0.000582678
0.00542611
0.00062054
0.00544979
0.000658338
0.00547463
0.000696052
0.00550063
0.000733664
0.00552778
0.000771156
0.00555607
0.000808507
0.0055855
0.000845698
0.00561604
0.000882709
0.00564769
0.000919519
0.00568043
0.000956108
0.00571425
0.000992453
0.00574913
0.00102853
0.00578505
0.00106432
0.005822
0.00109981
0.00585994
0.00113495
0.00589886
0.00116974
0.00593874
0.00120415
0.00597953
0.00123816
0.00602123
0.00127174
0.00606378
0.00130486
0.00610717
0.0013375
0.00615136
0.00136965
0.00619632
0.00140126
0.006242
0.00143233
0.00628838
0.00146282
0.00633541
0.00149272
0.00638307
0.001522
0.00155064
0.00539432
0.000304222
-0.00538127
0.00540858
0.000340851
0.00542404
0.000377531
0.00544072
0.000414248
0.00545862
0.000450984
0.00547772
0.000487725
0.00549803
0.000524455
0.00551955
0.000561156
0.00554228
0.000597814
0.00556621
0.000634411
0.00559133
0.000670929
0.00561764
0.000707351
0.00564514
0.000743659
0.00567381
0.000779835
0.00570365
0.00081586
0.00573464
0.000851714
0.00576678
0.000887379
0.00580006
0.000922836
0.00583445
0.000958062
0.00586994
0.000993039
0.00590652
0.00102775
0.00594416
0.00106216
0.00598286
0.00109626
0.00602257
0.00113003
0.00606329
0.00116343
0.00610499
0.00119646
0.00614764
0.00122909
0.00619121
0.00126129
0.00623567
0.00129304
0.00628099
0.00132432
0.00632715
0.00135511
0.0063741
0.00138538
0.00642181
0.00141511
0.00647025
0.00144428
0.00651939
0.00147286
0.00150083
0.0055122
0.000291194
-0.00549917
0.00552646
0.000326585
0.00554197
0.000362026
0.00555872
0.000397501
0.0055767
0.000432996
0.00559593
0.000468496
0.0056164
0.000503986
0.00563811
0.000539451
0.00566105
0.000574873
0.00568522
0.000610238
0.00571062
0.000645529
0.00573724
0.000680729
0.00576508
0.000715821
0.00579413
0.000750788
0.00582438
0.000785612
0.00585582
0.000820275
0.00588844
0.000854759
0.00592223
0.000889046
0.00595717
0.000923116
0.00599326
0.000956951
0.00603047
0.000990531
0.0060688
0.00102384
0.00610821
0.00105685
0.0061487
0.00108954
0.00619024
0.0011219
0.0062328
0.0011539
0.00627636
0.00118552
0.0063209
0.00121675
0.00636639
0.00124755
0.0064128
0.00127791
0.0064601
0.00130781
0.00650826
0.00133722
0.00655724
0.00136612
0.00660703
0.00139449
0.00665757
0.00142231
0.00144955
0.00563275
0.000278185
-0.00561975
0.00564703
0.000312308
0.00566258
0.00034648
0.00567939
0.000380686
0.00569748
0.000414911
0.00571683
0.000449141
0.00573746
0.000483362
0.00575935
0.000517559
0.0057825
0.000551717
0.00580692
0.00058582
0.0058326
0.000619853
0.00585953
0.000653799
0.0058877
0.000687644
0.00591712
0.000721369
0.00594778
0.000754959
0.00597965
0.000788398
0.00601275
0.000821666
0.00604704
0.000854748
0.00608253
0.000887626
0.00611921
0.000920281
0.00615704
0.000952695
0.00619603
0.00098485
0.00623614
0.00101673
0.00627738
0.00104831
0.0063197
0.00107957
0.0063631
0.0011105
0.00640755
0.00114107
0.00645303
0.00117127
0.0064995
0.00120107
0.00654695
0.00123046
0.00659535
0.00125941
0.00664467
0.00128791
0.00669487
0.00131592
0.00674593
0.00134343
0.00679782
0.00137042
0.00139686
0.00575607
0.000265192
-0.00574308
0.00577036
0.000298019
0.00578595
0.000330894
0.00580283
0.0003638
0.00582102
0.000396727
0.0058405
0.000429658
0.00586128
0.000462581
0.00588336
0.000495481
0.00590673
0.000528344
0.0059314
0.000561155
0.00595735
0.0005939
0.00598459
0.000626562
0.0060131
0.000659128
0.00604289
0.00069158
0.00607395
0.000723905
0.00610626
0.000756085
0.00613982
0.000788105
0.00617462
0.000819948
0.00621065
0.000851597
0.00624789
0.000883037
0.00628634
0.000914249
0.00632597
0.000945216
0.00636678
0.000975922
0.00640874
0.00100635
0.00645183
0.00103648
0.00649605
0.00106629
0.00654136
0.00109577
0.00658774
0.00112489
0.00663517
0.00115364
0.00668362
0.00118201
0.00673308
0.00120996
0.0067835
0.00123748
0.00683487
0.00126455
0.00688716
0.00129115
0.00694033
0.00131725
0.00134283
0.00588223
0.000252213
-0.00586925
0.00589653
0.000283716
0.00591216
0.000315263
0.00592912
0.000346843
0.00594741
0.000378441
0.00596702
0.000410044
0.00598796
0.000441639
0.00601023
0.000473213
0.00603382
0.000504752
0.00605874
0.000536241
0.00608497
0.000567667
0.00611252
0.000599015
0.00614137
0.000630271
0.00617153
0.00066142
0.00620299
0.000692447
0.00623574
0.000723338
0.00626977
0.000754076
0.00630507
0.000784647
0.00634163
0.000815035
0.00637944
0.000845224
0.00641849
0.000875199
0.00645877
0.000904942
0.00650025
0.000934439
0.00654293
0.000963671
0.00658678
0.000992623
0.00663179
0.00102128
0.00667793
0.00104962
0.0067252
0.00107763
0.00677356
0.00110529
0.00682299
0.00113258
0.00687346
0.00115948
0.00692496
0.00118598
0.00697746
0.00121206
0.00703092
0.00123769
0.00708533
0.00126285
0.00128751
0.00601132
0.000239245
-0.00599835
0.00602564
0.000269395
0.00604132
0.000299586
0.00605835
0.000329809
0.00607674
0.000360049
0.00609649
0.000390295
0.0061176
0.000420533
0.00614006
0.000450751
0.00616388
0.000480936
0.00618904
0.000511073
0.00621556
0.000541151
0.00624342
0.000571154
0.00627262
0.00060107
0.00630316
0.000630885
0.00633502
0.000660584
0.0063682
0.000690153
0.0064027
0.000719579
0.0064385
0.000748846
0.0064756
0.000777939
0.00651398
0.000806845
0.00655363
0.000835548
0.00659454
0.000864032
0.0066367
0.000892284
0.00668008
0.000920286
0.00672468
0.000948025
0.00677047
0.000975484
0.00681744
0.00100265
0.00686557
0.0010295
0.00691484
0.00105602
0.00696522
0.00108219
0.0070167
0.00110801
0.00706924
0.00113344
0.00712283
0.00115847
0.00717743
0.00118308
0.00723303
0.00120725
0.00123095
0.00614344
0.000226287
-0.00613048
0.00615778
0.000255052
0.00617351
0.000283859
0.00619062
0.000312695
0.00620912
0.000341548
0.00622901
0.000370406
0.00625029
0.000399257
0.00627295
0.00042809
0.00629699
0.00045689
0.00632242
0.000485646
0.00634923
0.000514345
0.00637741
0.000542974
0.00640696
0.000571519
0.00643787
0.000599969
0.00647015
0.000628309
0.00650378
0.000656527
0.00653875
0.000684608
0.00657505
0.000712539
0.00661269
0.000740306
0.00665164
0.000767895
0.00669189
0.000795294
0.00673344
0.000822486
0.00677626
0.000849458
0.00682035
0.000876196
0.00686569
0.000902686
0.00691226
0.000928911
0.00696005
0.000954859
0.00700904
0.000980512
0.0070592
0.00100586
0.00711051
0.00103088
0.00716297
0.00105556
0.00721653
0.00107988
0.00727118
0.00110382
0.0073269
0.00112737
0.00738365
0.00115049
0.00117318
0.00627868
0.000213333
-0.00626573
0.00629305
0.000240685
0.00630883
0.000268076
0.00632603
0.000295495
0.00634465
0.00032293
0.00636468
0.000350371
0.00638614
0.000377805
0.006409
0.000405222
0.00643329
0.000432608
0.00645898
0.000459952
0.00648608
0.000487242
0.00651459
0.000514466
0.0065445
0.000541611
0.0065758
0.000568665
0.0066085
0.000595616
0.00664257
0.00062245
0.00667802
0.000649156
0.00671484
0.00067572
0.00675302
0.000702129
0.00679255
0.000728371
0.00683341
0.000754432
0.00687559
0.000780299
0.00691909
0.000805959
0.00696389
0.000831399
0.00700997
0.000856604
0.00705732
0.000881562
0.00710592
0.000906258
0.00715576
0.000930678
0.00720681
0.000954808
0.00725905
0.000978633
0.00731247
0.00100214
0.00736704
0.00102531
0.00742274
0.00104812
0.00747955
0.00107056
0.00753744
0.0010926
0.00111423
0.00641717
0.00020038
-0.00640421
0.00643156
0.000226288
0.00644741
0.000252232
0.0064647
0.000278204
0.00648344
0.000304191
0.00650362
0.000330184
0.00652526
0.00035617
0.00654834
0.00038214
0.00657287
0.000408081
0.00659884
0.000433983
0.00662625
0.000459833
0.00665509
0.000485621
0.00668537
0.000511335
0.00671707
0.000536963
0.00675019
0.000562493
0.00678473
0.000587914
0.00682067
0.000613213
0.00685801
0.000638379
0.00689674
0.000663399
0.00693685
0.000688261
0.00697833
0.000712954
0.00702116
0.000737464
0.00706534
0.000761779
0.00711086
0.000785887
0.00715768
0.000809775
0.00720582
0.000833431
0.00725523
0.000856841
0.00730592
0.000879993
0.00735785
0.000902872
0.00741102
0.000925466
0.0074654
0.000947758
0.00752097
0.000969735
0.00757771
0.00099138
0.00763559
0.00101267
0.0076946
0.0010336
0.00775471
0.00105412
0.00107423
0.006559
0.000187423
-0.00654605
0.00657344
0.000211854
0.00658935
0.000236322
0.00660674
0.000260814
0.00662561
0.000285322
0.00664595
0.000309835
0.00666778
0.000334343
0.00669109
0.000358835
0.00671587
0.0003833
0.00674212
0.000407728
0.00676985
0.000432108
0.00679904
0.000456429
0.00682969
0.000480681
0.00686181
0.000504851
0.00689537
0.00052893
0.00693038
0.000552906
0.00696682
0.000576768
0.0070047
0.000600504
0.00704399
0.000624104
0.0070847
0.000647555
0.00712681
0.000670847
0.0071703
0.000693968
0.00721517
0.000716906
0.00726141
0.00073965
0.007309
0.000762189
0.00735792
0.000784509
0.00740816
0.0008066
0.0074597
0.000828449
0.00751253
0.000850043
0.00756663
0.00087137
0.00762197
0.000892416
0.00767854
0.000913166
0.00773631
0.000933605
0.00779527
0.000953715
0.00785539
0.000973478
0.00791664
0.000992869
0.00101186
0.00670432
0.000174455
-0.00669135
0.00671879
0.000197379
0.00673478
0.000220337
0.00675227
0.000243319
0.00677128
0.000266316
0.0067918
0.000289317
0.00681383
0.000312314
0.00683737
0.000335296
0.00686241
0.000358254
0.00688896
0.000381176
0.00691702
0.000404054
0.00694657
0.000426877
0.00697762
0.000449634
0.00701015
0.000472316
0.00704417
0.000494912
0.00707967
0.000517412
0.00711663
0.000539804
0.00715505
0.00056208
0.00719493
0.000584227
0.00723625
0.000606236
0.007279
0.000628096
0.00732317
0.000649796
0.00736875
0.000671326
0.00741573
0.000692674
0.00746409
0.00071383
0.00751381
0.000734783
0.00756489
0.000755522
0.00761731
0.000776035
0.00767104
0.000796311
0.00772607
0.000816337
0.00778239
0.000836102
0.00783996
0.00085559
0.00789878
0.000874789
0.00795881
0.00089368
0.00802004
0.000912247
0.00808244
0.000930467
0.000948316
0.00685324
0.000161469
-0.00684026
0.00686777
0.000182854
0.00688384
0.00020427
0.00690145
0.000225709
0.0069206
0.000247161
0.0069413
0.000268619
0.00696354
0.000290073
0.00698733
0.000311512
0.00701265
0.000332929
0.00703951
0.000354314
0.00706791
0.000375657
0.00709784
0.000396949
0.00712929
0.000418181
0.00716226
0.000439341
0.00719675
0.000460422
0.00723275
0.000481413
0.00727025
0.000502305
0.00730924
0.000523088
0.00734972
0.000543751
0.00739167
0.000564286
0.00743508
0.000584682
0.00747995
0.000604929
0.00752626
0.000625018
0.00757399
0.000644939
0.00762314
0.000664681
0.00767369
0.000684234
0.00772562
0.000703588
0.00777893
0.000722733
0.00783358
0.000741657
0.00788957
0.00076035
0.00794687
0.0007788
0.00800546
0.000796994
0.00806533
0.000814918
0.00812646
0.000832557
0.00818881
0.000849895
0.00825237
0.000866909
0.000883578
0.00700592
0.000148459
-0.00699291
0.00702051
0.00016827
0.00703666
0.000188111
0.0070544
0.000207973
0.00707371
0.000227849
0.0070946
0.000247729
0.00711707
0.000267606
0.00714111
0.00028747
0.00716673
0.000307313
0.00719391
0.000327127
0.00722267
0.000346902
0.00725299
0.000366631
0.00728487
0.000386303
0.0073183
0.00040591
0.00735328
0.000425442
0.0073898
0.000444893
0.00742785
0.000464251
0.00746743
0.000483508
0.00750853
0.000502655
0.00755113
0.000521683
0.00759523
0.000540582
0.00764082
0.000559345
0.00768787
0.000577961
0.00773639
0.000596421
0.00778636
0.000614717
0.00783775
0.000632838
0.00789056
0.000650776
0.00794478
0.00066852
0.00800037
0.000686061
0.00805734
0.000703388
0.00811565
0.00072049
0.00817528
0.000737356
0.00823623
0.000753974
0.00829846
0.000770328
0.00836195
0.000786403
0.00842668
0.00080218