/*--------------------------------*- C++ -*----------------------------------*\
  =========                 |
  \\      /  F ield         | OpenFOAM: The Open Source CFD Toolbox
   \\    /   O peration     | Website:  https://openfoam.org
    \\  /    A nd           | Version:  7
     \\/     M anipulation  |
\*---------------------------------------------------------------------------*/
FoamFile
{
    version     2.0;
    format      ascii;
    class       volVectorField;
    location    "10";
    object      U;
}
// * * * * * * * * * * * * * * * * * * * * * * * * * * * * * * * * * * * * * //

dimensions      [0 1 -1 0 0 0 0];

internalField   nonuniform List<vector> 
2625
(
(1.06755 -0.0603833 -2.64943e-20)
(1.07144 -0.0600708 1.4905e-20)
(1.07539 -0.0596946 9.07123e-20)
(1.07941 -0.0592579 -3.21487e-21)
(1.0835 -0.058764 -7.3228e-21)
(1.08765 -0.0582163 3.56379e-20)
(1.09186 -0.0576187 -7.84742e-21)
(1.09613 -0.056975 -5.53039e-20)
(1.10044 -0.0562896 1.23951e-20)
(1.10992 -0.072669 -2.13899e-20)
(1.10481 -0.0555665 5.96961e-20)
(1.11434 -0.0720795 3.76483e-20)
(1.10922 -0.0548105 -8.66324e-21)
(1.1188 -0.0714578 -7.19544e-21)
(1.11366 -0.0540259 -4.36283e-20)
(1.11813 -0.0532176 7.64146e-22)
(1.00001 -1.12782e-05 0)
(1.00014 -3.38578e-05 0)
(1.00044 -5.56337e-05 0)
(1.00085 -7.73026e-05 0)
(1.00139 -9.86706e-05 0)
(1.00204 -0.000119926 0)
(1.00279 -0.00014111 0)
(1.00365 -0.000162294 0)
(1.00461 -0.000183522 0)
(1.00566 -0.000204831 0)
(1.00679 -0.000226249 0)
(1.00801 -0.00024779 0)
(1.00931 -0.000269464 0)
(1.01069 -0.000291268 0)
(1.01214 -0.000313195 0)
(1.01366 -0.000335228 0)
(1.01524 -0.000357348 0)
(1.01688 -0.000379528 0)
(1.01858 -0.000401736 0)
(1.02034 -0.000423936 0)
(1.02215 -0.000446085 0)
(1.024 -0.000468133 0)
(1.0259 -0.000490012 0)
(1.02783 -0.000511627 0)
(1.0298 -0.000532825 0)
(1.03181 -0.000553354 0)
(1.03383 -0.000572769 0)
(1.03588 -0.000590272 0)
(1.03793 -0.000604388 0)
(1.03998 -0.000612298 0)
(1.00001 -3.37797e-05 0)
(1.00014 -0.000101074 0)
(1.00044 -0.000166269 0)
(1.00085 -0.000230969 0)
(1.00138 -0.000294825 0)
(1.00203 -0.000358329 0)
(1.00279 -0.000421627 0)
(1.00365 -0.000484921 0)
(1.00461 -0.000548348 0)
(1.00565 -0.00061202 0)
(1.00679 -0.000676016 0)
(1.00801 -0.000740384 0)
(1.00931 -0.000805146 0)
(1.01069 -0.0008703 0)
(1.01213 -0.00093582 0)
(1.01365 -0.00100166 0)
(1.01523 -0.00106776 0)
(1.01687 -0.00113404 0)
(1.01858 -0.00120041 0)
(1.02033 -0.00126675 0)
(1.02214 -0.00133295 0)
(1.02399 -0.00139884 0)
(1.02589 -0.00146423 0)
(1.02782 -0.00152882 0)
(1.02979 -0.00159218 0)
(1.0318 -0.00165354 0)
(1.03382 -0.00171158 0)
(1.03587 -0.00176392 0)
(1.03792 -0.00180625 0)
(1.03997 -0.00183056 0)
(1.00001 -5.60916e-05 0)
(1.00014 -0.000167348 0)
(1.00044 -0.000275578 0)
(1.00085 -0.000382725 0)
(1.00138 -0.000488555 0)
(1.00203 -0.000593782 0)
(1.00279 -0.000698674 0)
(1.00365 -0.000803559 0)
(1.0046 -0.000908668 0)
(1.00565 -0.00101419 0)
(1.00678 -0.00112024 0)
(1.008 -0.00122692 0)
(1.0093 -0.00133425 0)
(1.01068 -0.00144224 0)
(1.01212 -0.00155083 0)
(1.01364 -0.00165996 0)
(1.01522 -0.00176953 0)
(1.01686 -0.0018794 0)
(1.01856 -0.00198941 0)
(1.02031 -0.00209939 0)
(1.02212 -0.00220912 0)
(1.02397 -0.00231836 0)
(1.02587 -0.00242676 0)
(1.0278 -0.00253386 0)
(1.02977 -0.00263891 0)
(1.03177 -0.00274065 0)
(1.0338 -0.00283691 0)
(1.03584 -0.00292378 0)
(1.0379 -0.00299425 0)
(1.03994 -0.00303549 0)
(1.00001 -7.81195e-05 0)
(1.00014 -0.000232745 0)
(1.00043 -0.000383477 0)
(1.00085 -0.000532515 0)
(1.00138 -0.000679783 0)
(1.00203 -0.000826196 0)
(1.00278 -0.000972151 0)
(1.00364 -0.0011181 0)
(1.0046 -0.00126436 0)
(1.00564 -0.0014112 0)
(1.00677 -0.00155879 0)
(1.00799 -0.00170725 0)
(1.00929 -0.00185663 0)
(1.01066 -0.00200693 0)
(1.01211 -0.00215808 0)
(1.01362 -0.00230999 0)
(1.0152 -0.00246251 0)
(1.01684 -0.00261545 0)
(1.01854 -0.0027686 0)
(1.02029 -0.00292172 0)
(1.02209 -0.0030745 0)
(1.02395 -0.0032266 0)
(1.02584 -0.00337754 0)
(1.02777 -0.00352668 0)
(1.02974 -0.00367297 0)
(1.03174 -0.00381467 0)
(1.03377 -0.00394877 0)
(1.03581 -0.00406988 0)
(1.03786 -0.00416838 0)
(1.03991 -0.0042268 0)
(1.00001 -9.98464e-05 0)
(1.00014 -0.00029727 0)
(1.00043 -0.000489932 0)
(1.00085 -0.000680302 0)
(1.00138 -0.000868457 0)
(1.00203 -0.00105551 0)
(1.00278 -0.00124199 0)
(1.00363 -0.00142846 0)
(1.00459 -0.00161534 0)
(1.00563 -0.00180296 0)
(1.00676 -0.00199156 0)
(1.00798 -0.00218128 0)
(1.00927 -0.00237218 0)
(1.01064 -0.00256426 0)
(1.01209 -0.00275746 0)
(1.0136 -0.00295163 0)
(1.01517 -0.00314659 0)
(1.01681 -0.00334211 0)
(1.01851 -0.00353791 0)
(1.02026 -0.00373367 0)
(1.02206 -0.00392902 0)
(1.02391 -0.00412351 0)
(1.0258 -0.00431653 0)
(1.02774 -0.00450725 0)
(1.0297 -0.00469435 0)
(1.0317 -0.00487562 0)
(1.03373 -0.0050472 0)
(1.03577 -0.00520225 0)
(1.03782 -0.00532865 0)
(1.03987 -0.00540439 0)
(1.00001 -0.000121272 0)
(1.00014 -0.000360902 0)
(1.00043 -0.000594917 0)
(1.00084 -0.000826048 0)
(1.00138 -0.00105453 0)
(1.00202 -0.00128167 0)
(1.00277 -0.00150811 0)
(1.00363 -0.00173456 0)
(1.00458 -0.00196152 0)
(1.00562 -0.00218939 0)
(1.00675 -0.00241846 0)
(1.00796 -0.0026489 0)
(1.00925 -0.00288079 0)
(1.01062 -0.00311414 0)
(1.01206 -0.00334886 0)
(1.01357 -0.00358478 0)
(1.01514 -0.00382168 0)
(1.01678 -0.00405928 0)
(1.01847 -0.00429724 0)
(1.02022 -0.00453517 0)
(1.02202 -0.00477262 0)
(1.02387 -0.00500903 0)
(1.02576 -0.00524369 0)
(1.02769 -0.00547557 0)
(1.02965 -0.00570306 0)
(1.03165 -0.0059235 0)
(1.03367 -0.00613221 0)
(1.03572 -0.00632094 0)
(1.03777 -0.00647509 0)
(1.03981 -0.00656819 0)
(1.00001 -0.000142392 0)
(1.00014 -0.000423624 0)
(1.00043 -0.000698406 0)
(1.00084 -0.000969719 0)
(1.00137 -0.00123795 0)
(1.00201 -0.00150461 0)
(1.00276 -0.00177047 0)
(1.00362 -0.00203634 0)
(1.00456 -0.00230283 0)
(1.0056 -0.0025704 0)
(1.00673 -0.00283939 0)
(1.00794 -0.00311002 0)
(1.00923 -0.00338238 0)
(1.01059 -0.00365647 0)
(1.01203 -0.00393219 0)
(1.01353 -0.00420935 0)
(1.01511 -0.0044877 0)
(1.01674 -0.00476688 0)
(1.01843 -0.00504652 0)
(1.02017 -0.00532615 0)
(1.02197 -0.00560524 0)
(1.02382 -0.00588314 0)
(1.0257 -0.006159 0)
(1.02763 -0.00643161 0)
(1.0296 -0.0066991 0)
(1.03159 -0.00695833 0)
(1.03361 -0.00720383 0)
(1.03565 -0.00742596 0)
(1.0377 -0.00760769 0)
(1.03975 -0.00771816 0)
(1.00001 -0.000163203 0)
(1.00014 -0.000485422 0)
(1.00043 -0.000800377 0)
(1.00084 -0.00111128 0)
(1.00137 -0.00141869 0)
(1.00201 -0.0017243 0)
(1.00276 -0.002029 0)
(1.0036 -0.00233374 0)
(1.00455 -0.00263919 0)
(1.00558 -0.00294591 0)
(1.00671 -0.00325429 0)
(1.00791 -0.00356457 0)
(1.0092 -0.00387686 0)
(1.01056 -0.00419117 0)
(1.01199 -0.00450738 0)
(1.0135 -0.00482528 0)
(1.01506 -0.00514456 0)
(1.01669 -0.00546485 0)
(1.01838 -0.0057857 0)
(1.02012 -0.00610657 0)
(1.02192 -0.00642685 0)
(1.02376 -0.00674579 0)
(1.02564 -0.00706242 0)
(1.02757 -0.00737537 0)
(1.02953 -0.00768246 0)
(1.03152 -0.00798012 0)
(1.03354 -0.0082621 0)
(1.03558 -0.00851736 0)
(1.03763 -0.0087265 0)
(1.03967 -0.00885428 0)
(1.00001 -0.000183699 0)
(1.00014 -0.000546285 0)
(1.00043 -0.000900809 0)
(1.00083 -0.00125071 0)
(1.00136 -0.00159671 0)
(1.002 -0.00194068 0)
(1.00275 -0.00228366 0)
(1.00359 -0.00262669 0)
(1.00453 -0.00297055 0)
(1.00556 -0.00331587 0)
(1.00668 -0.00366308 0)
(1.00789 -0.00401246 0)
(1.00917 -0.00436416 0)
(1.01052 -0.00471816 0)
(1.01195 -0.00507435 0)
(1.01345 -0.00543248 0)
(1.01502 -0.00579221 0)
(1.01664 -0.00615313 0)
(1.01832 -0.00651471 0)
(1.02006 -0.00687637 0)
(1.02185 -0.0072374 0)
(1.02369 -0.00759696 0)
(1.02557 -0.00795396 0)
(1.0275 -0.00830684 0)
(1.02945 -0.00865317 0)
(1.03145 -0.0089889 0)
(1.03346 -0.00930704 0)
(1.0355 -0.00959517 0)
(1.03755 -0.00983153 0)
(1.03959 -0.00997655 0)
(1.00001 -0.000203878 0)
(1.00014 -0.000606203 0)
(1.00043 -0.000999685 0)
(1.00083 -0.00138798 0)
(1.00136 -0.00177198 0)
(1.00199 -0.00215373 0)
(1.00273 -0.0025344 0)
(1.00358 -0.00291515 0)
(1.00451 -0.00329686 0)
(1.00554 -0.00368021 0)
(1.00666 -0.0040657 0)
(1.00786 -0.00445365 0)
(1.00913 -0.00484421 0)
(1.01049 -0.00523738 0)
(1.01191 -0.00563303 0)
(1.0134 -0.00603089 0)
(1.01496 -0.00643059 0)
(1.01658 -0.00683166 0)
(1.01826 -0.00723352 0)
(1.02 -0.00763551 0)
(1.02178 -0.00803687 0)
(1.02362 -0.00843664 0)
(1.0255 -0.0088336 0)
(1.02742 -0.00922603 0)
(1.02937 -0.00961123 0)
(1.03136 -0.0099847 0)
(1.03337 -0.0103387 0)
(1.03541 -0.0106594 0)
(1.03746 -0.0109228 0)
(1.03949 -0.011085 0)
(1.00001 -0.000223736 0)
(1.00014 -0.000665166 0)
(1.00042 -0.00109699 0)
(1.00083 -0.00152307 0)
(1.00135 -0.00194446 0)
(1.00198 -0.00236341 0)
(1.00272 -0.00278118 0)
(1.00356 -0.00319908 0)
(1.00449 -0.00361806 0)
(1.00552 -0.00403889 0)
(1.00663 -0.00446211 0)
(1.00782 -0.00488808 0)
(1.0091 -0.00531697 0)
(1.01044 -0.00574878 0)
(1.01186 -0.00618338 0)
(1.01335 -0.00662047 0)
(1.0149 -0.00705965 0)
(1.01652 -0.00750039 0)
(1.01819 -0.00794208 0)
(1.01992 -0.00838398 0)
(1.02171 -0.00882523 0)
(1.02354 -0.0092648 0)
(1.02541 -0.00970135 0)
(1.02733 -0.010133 0)
(1.02928 -0.0105567 0)
(1.03127 -0.0109676 0)
(1.03328 -0.0113571 0)
(1.03531 -0.0117102 0)
(1.03735 -0.0120004 0)
(1.03939 -0.0121796 0)
(1.00001 -0.000243271 0)
(1.00014 -0.000723168 0)
(1.00042 -0.00119271 0)
(1.00082 -0.00165596 0)
(1.00134 -0.00211415 0)
(1.00197 -0.00256969 0)
(1.00271 -0.00302398 0)
(1.00354 -0.00347844 0)
(1.00447 -0.00393412 0)
(1.00549 -0.00439186 0)
(1.0066 -0.00485225 0)
(1.00779 -0.00531569 0)
(1.00905 -0.00578237 0)
(1.0104 -0.00625231 0)
(1.01181 -0.00672534 0)
(1.01329 -0.00720117 0)
(1.01484 -0.00767935 0)
(1.01645 -0.00815931 0)
(1.01812 -0.00864037 0)
(1.01985 -0.00912174 0)
(1.02162 -0.00960248 0)
(1.02345 -0.0100815 0)
(1.02532 -0.0105572 0)
(1.02723 -0.0110276 0)
(1.02918 -0.0114895 0)
(1.03116 -0.0119375 0)
(1.03317 -0.0123623 0)
(1.0352 -0.0127474 0)
(1.03724 -0.0130644 0)
(1.03928 -0.0132605 0)
(1.00001 -0.00026248 0)
(1.00014 -0.000780202 0)
(1.00042 -0.00128684 0)
(1.00082 -0.00178664 0)
(1.00134 -0.00228101 0)
(1.00196 -0.00277255 0)
(1.0027 -0.00326277 0)
(1.00353 -0.00375321 0)
(1.00445 -0.00424501 0)
(1.00547 -0.00473909 0)
(1.00657 -0.00523609 0)
(1.00775 -0.00573645 0)
(1.00901 -0.00624039 0)
(1.01035 -0.00674792 0)
(1.01175 -0.00725888 0)
(1.01323 -0.00777295 0)
(1.01477 -0.00828965 0)
(1.01638 -0.00880837 0)
(1.01804 -0.00932837 0)
(1.01976 -0.00984879 0)
(1.02153 -0.0103686 0)
(1.02335 -0.0108866 0)
(1.02522 -0.0114012 0)
(1.02713 -0.0119101 0)
(1.02907 -0.0124098 0)
(1.03105 -0.0128945 0)
(1.03306 -0.0133543 0)
(1.03509 -0.0137713 0)
(1.03713 -0.0141147 0)
(1.03915 -0.0143277 0)
(1.00001 -0.000281363 0)
(1.00014 -0.000836263 0)
(1.00042 -0.00137936 0)
(1.00081 -0.00191509 0)
(1.00133 -0.00244504 0)
(1.00195 -0.00297197 0)
(1.00268 -0.00349752 0)
(1.00351 -0.00402336 0)
(1.00443 -0.0045507 0)
(1.00544 -0.00508054 0)
(1.00653 -0.0056136 0)
(1.00771 -0.00615034 0)
(1.00896 -0.00669099 0)
(1.01029 -0.00723559 0)
(1.01169 -0.00778397 0)
(1.01317 -0.00833579 0)
(1.0147 -0.00889053 0)
(1.0163 -0.00944755 0)
(1.01796 -0.0100061 0)
(1.01967 -0.0105651 0)
(1.02144 -0.0111236 0)
(1.02325 -0.0116802 0)
(1.02511 -0.0122333 0)
(1.02702 -0.0127803 0)
(1.02896 -0.0133175 0)
(1.03093 -0.0138388 0)
(1.03294 -0.0143332 0)
(1.03496 -0.0147818 0)
(1.037 -0.0151515 0)
(1.03902 -0.0153812 0)
(1.00001 -0.000299918 0)
(1.00014 -0.000891347 0)
(1.00042 -0.00147027 0)
(1.00081 -0.00204131 0)
(1.00132 -0.00260622 0)
(1.00194 -0.00316794 0)
(1.00266 -0.00372822 0)
(1.00349 -0.00428886 0)
(1.0044 -0.00485116 0)
(1.0054 -0.0054162 0)
(1.00649 -0.00598475 0)
(1.00766 -0.00655731 0)
(1.00891 -0.00713414 0)
(1.01024 -0.00771529 0)
(1.01163 -0.00830059 0)
(1.01309 -0.00888966 0)
(1.01462 -0.00948198 0)
(1.01622 -0.0100768 0)
(1.01787 -0.0106734 0)
(1.01958 -0.0112707 0)
(1.02134 -0.0118675 0)
(1.02315 -0.0124624 0)
(1.025 -0.0130536 0)
(1.0269 -0.0136384 0)
(1.02884 -0.0142128 0)
(1.03081 -0.0147702 0)
(1.03281 -0.0152991 0)
(1.03483 -0.015779 0)
(1.03686 -0.0161749 0)
(1.03888 -0.0164212 0)
(1.00001 -0.000318144 0)
(1.00014 -0.000945453 0)
(1.00041 -0.00155957 0)
(1.0008 -0.00216529 0)
(1.00131 -0.00276455 0)
(1.00193 -0.00336044 0)
(1.00265 -0.00395486 0)
(1.00346 -0.0045497 0)
(1.00437 -0.00514639 0)
(1.00537 -0.00574605 0)
(1.00645 -0.00634952 0)
(1.00762 -0.00695735 0)
(1.00886 -0.00756983 0)
(1.01018 -0.008187 0)
(1.01156 -0.0088087 0)
(1.01302 -0.00943454 0)
(1.01454 -0.010064 0)
(1.01613 -0.0106962 0)
(1.01777 -0.0113304 0)
(1.01947 -0.0119655 0)
(1.02123 -0.0126003 0)
(1.02303 -0.0132331 0)
(1.02488 -0.013862 0)
(1.02678 -0.0144843 0)
(1.02871 -0.0150956 0)
(1.03067 -0.0156889 0)
(1.03267 -0.0162519 0)
(1.03469 -0.016763 0)
(1.03672 -0.0171849 0)
(1.03873 -0.0174476 0)
(1.00001 -0.000336041 0)
(1.00014 -0.000998577 0)
(1.00041 -0.00164725 0)
(1.0008 -0.00228702 0)
(1.0013 -0.00292001 0)
(1.00192 -0.00354946 0)
(1.00263 -0.00417741 0)
(1.00344 -0.00480588 0)
(1.00434 -0.00543635 0)
(1.00534 -0.00607007 0)
(1.00641 -0.0067079 0)
(1.00757 -0.00735044 0)
(1.0088 -0.00799803 0)
(1.01011 -0.0086507 0)
(1.01149 -0.0093083 0)
(1.01294 -0.00997043 0)
(1.01446 -0.0106365 0)
(1.01603 -0.0113057 0)
(1.01767 -0.0119772 0)
(1.01937 -0.0126497 0)
(1.02111 -0.0133219 0)
(1.02291 -0.0139923 0)
(1.02476 -0.0146587 0)
(1.02664 -0.0153181 0)
(1.02857 -0.015966 0)
(1.03053 -0.0165949 0)
(1.03252 -0.0171919 0)
(1.03454 -0.0177339 0)
(1.03657 -0.0181815 0)
(1.03858 -0.0184606 0)
(1.00001 -0.000353608 0)
(1.00014 -0.00105072 0)
(1.00041 -0.00173331 0)
(1.00079 -0.00240651 0)
(1.0013 -0.0030726 0)
(1.0019 -0.00373501 0)
(1.00261 -0.00439589 0)
(1.00342 -0.00505738 0)
(1.00431 -0.00572106 0)
(1.0053 -0.00638824 0)
(1.00637 -0.00705987 0)
(1.00752 -0.00773658 0)
(1.00874 -0.00841873 0)
(1.01005 -0.00910639 0)
(1.01142 -0.00979939 0)
(1.01286 -0.0104973 0)
(1.01437 -0.0111996 0)
(1.01594 -0.0119053 0)
(1.01757 -0.0126135 0)
(1.01925 -0.0133231 0)
(1.02099 -0.0140325 0)
(1.02279 -0.0147401 0)
(1.02462 -0.0154436 0)
(1.02651 -0.0161399 0)
(1.02843 -0.0168241 0)
(1.03038 -0.0174884 0)
(1.03237 -0.018119 0)
(1.03438 -0.0186916 0)
(1.03641 -0.0191649 0)
(1.03841 -0.0194603 0)
(1.00001 -0.000370846 0)
(1.00013 -0.00110188 0)
(1.0004 -0.00181776 0)
(1.00079 -0.00252375 0)
(1.00129 -0.00322233 0)
(1.00189 -0.00391708 0)
(1.00259 -0.00461028 0)
(1.00339 -0.00530419 0)
(1.00428 -0.0060005 0)
(1.00526 -0.00670058 0)
(1.00632 -0.00740544 0)
(1.00746 -0.00811577 0)
(1.00868 -0.00883194 0)
(1.00998 -0.00955406 0)
(1.01134 -0.010282 0)
(1.01277 -0.0110152 0)
(1.01427 -0.0117532 0)
(1.01583 -0.012495 0)
(1.01746 -0.0132396 0)
(1.01914 -0.0139858 0)
(1.02087 -0.014732 0)
(1.02265 -0.0154765 0)
(1.02448 -0.0162168 0)
(1.02636 -0.0169496 0)
(1.02828 -0.0176699 0)
(1.03023 -0.0183692 0)
(1.03221 -0.0190332 0)
(1.03422 -0.0196364 0)
(1.03624 -0.0201351 0)
(1.03824 -0.0204466 0)
(1.00001 -0.000387755 0)
(1.00013 -0.00115206 0)
(1.0004 -0.00190058 0)
(1.00078 -0.00263874 0)
(1.00128 -0.00336919 0)
(1.00187 -0.00409567 0)
(1.00257 -0.00482059 0)
(1.00337 -0.00554633 0)
(1.00425 -0.00627467 0)
(1.00522 -0.00700707 0)
(1.00627 -0.00774459 0)
(1.00741 -0.00848798 0)
(1.00862 -0.00923765 0)
(1.0099 -0.00999371 0)
(1.01126 -0.010756 0)
(1.01268 -0.0115241 0)
(1.01417 -0.0122973 0)
(1.01573 -0.0130748 0)
(1.01734 -0.0138554 0)
(1.01901 -0.0146378 0)
(1.02074 -0.0154205 0)
(1.02251 -0.0162015 0)
(1.02434 -0.0169783 0)
(1.02621 -0.0177474 0)
(1.02812 -0.0185034 0)
(1.03007 -0.0192376 0)
(1.03204 -0.0199348 0)
(1.03404 -0.0205682 0)
(1.03606 -0.0210922 0)
(1.03806 -0.0214198 0)
(1.00001 -0.000404336 0)
(1.00013 -0.00120127 0)
(1.0004 -0.00198179 0)
(1.00078 -0.00275149 0)
(1.00127 -0.00351318 0)
(1.00186 -0.00427078 0)
(1.00255 -0.00502682 0)
(1.00334 -0.00578379 0)
(1.00422 -0.00654358 0)
(1.00518 -0.00730772 0)
(1.00622 -0.00807734 0)
(1.00735 -0.00885325 0)
(1.00855 -0.00963587 0)
(1.00983 -0.0104253 0)
(1.01117 -0.0112215 0)
(1.01259 -0.012024 0)
(1.01407 -0.012832 0)
(1.01562 -0.0136447 0)
(1.01722 -0.0144609 0)
(1.01888 -0.0152792 0)
(1.0206 -0.016098 0)
(1.02237 -0.0169152 0)
(1.02419 -0.0177282 0)
(1.02605 -0.0185333 0)
(1.02796 -0.0193248 0)
(1.0299 -0.0200935 0)
(1.03187 -0.0208237 0)
(1.03386 -0.0214871 0)
(1.03588 -0.0220364 0)
(1.03787 -0.0223799 0)
(1.00001 -0.000420589 0)
(1.00013 -0.0012495 0)
(1.0004 -0.0020614 0)
(1.00077 -0.002862 0)
(1.00125 -0.00365432 0)
(1.00184 -0.00444243 0)
(1.00253 -0.00522897 0)
(1.00331 -0.00601658 0)
(1.00418 -0.00680723 0)
(1.00514 -0.00760253 0)
(1.00617 -0.0084037 0)
(1.00729 -0.00921156 0)
(1.00848 -0.0100266 0)
(1.00975 -0.010849 0)
(1.01109 -0.0116785 0)
(1.01249 -0.0125149 0)
(1.01396 -0.0133572 0)
(1.0155 -0.0142047 0)
(1.0171 -0.0150561 0)
(1.01875 -0.0159099 0)
(1.02046 -0.0167645 0)
(1.02222 -0.0176176 0)
(1.02403 -0.0184665 0)
(1.02589 -0.0193073 0)
(1.02778 -0.0201341 0)
(1.02972 -0.0209371 0)
(1.03169 -0.0217001 0)
(1.03368 -0.0223933 0)
(1.03569 -0.0229676 0)
(1.03767 -0.023327 0)
(1.00001 -0.000436517 0)
(1.00013 -0.00129676 0)
(1.00039 -0.00213939 0)
(1.00076 -0.00297028 0)
(1.00124 -0.00379261 0)
(1.00183 -0.00461061 0)
(1.00251 -0.00542706 0)
(1.00328 -0.00624471 0)
(1.00414 -0.00706563 0)
(1.00509 -0.00789153 0)
(1.00612 -0.00872367 0)
(1.00723 -0.00956294 0)
(1.00841 -0.0104099 0)
(1.00967 -0.0112646 0)
(1.011 -0.0121271 0)
(1.01239 -0.0129968 0)
(1.01385 -0.0138731 0)
(1.01538 -0.0147549 0)
(1.01697 -0.0156411 0)
(1.01861 -0.01653 0)
(1.02031 -0.01742 0)
(1.02206 -0.0183087 0)
(1.02387 -0.0191932 0)
(1.02572 -0.0200695 0)
(1.02761 -0.0209313 0)
(1.02954 -0.0217685 0)
(1.0315 -0.0225639 0)
(1.03348 -0.0232868 0)
(1.03549 -0.023886 0)
(1.03747 -0.0242611 0)
(1.00001 -0.000452122 0)
(1.00013 -0.00134305 0)
(1.00039 -0.00221579 0)
(1.00076 -0.00307633 0)
(1.00123 -0.00392806 0)
(1.00181 -0.00477534 0)
(1.00249 -0.0056211 0)
(1.00325 -0.00646819 0)
(1.00411 -0.0073188 0)
(1.00505 -0.00817471 0)
(1.00607 -0.00903726 0)
(1.00716 -0.00990739 0)
(1.00834 -0.0107857 0)
(1.00958 -0.0116723 0)
(1.0109 -0.0125671 0)
(1.01229 -0.0134698 0)
(1.01374 -0.0143795 0)
(1.01526 -0.0152953 0)
(1.01683 -0.0162158 0)
(1.01847 -0.0171396 0)
(1.02016 -0.0180646 0)
(1.0219 -0.0189886 0)
(1.0237 -0.0199085 0)
(1.02554 -0.02082 0)
(1.02742 -0.0217166 0)
(1.02935 -0.0225877 0)
(1.0313 -0.0234154 0)
(1.03328 -0.0241678 0)
(1.03529 -0.0247917 0)
(1.03726 -0.0251824 0)
(1.00001 -0.000467404 0)
(1.00013 -0.00138838 0)
(1.00038 -0.0022906 0)
(1.00075 -0.00318017 0)
(1.00122 -0.00406068 0)
(1.00179 -0.00493663 0)
(1.00246 -0.00581109 0)
(1.00322 -0.00668704 0)
(1.00407 -0.00756675 0)
(1.005 -0.00845211 0)
(1.00601 -0.00934451 0)
(1.0071 -0.0102449 0)
(1.00826 -0.011154 0)
(1.0095 -0.012072 0)
(1.01081 -0.0129988 0)
(1.01218 -0.0139339 0)
(1.01362 -0.0148766 0)
(1.01513 -0.0158259 0)
(1.01669 -0.0167804 0)
(1.01832 -0.0177386 0)
(1.02 -0.0186984 0)
(1.02174 -0.0196574 0)
(1.02352 -0.0206124 0)
(1.02536 -0.0215588 0)
(1.02723 -0.02249 0)
(1.02915 -0.0233947 0)
(1.0311 -0.0242547 0)
(1.03307 -0.0250362 0)
(1.03508 -0.0256848 0)
(1.03704 -0.026091 0)
(1.00001 -0.000482366 0)
(1.00013 -0.00143275 0)
(1.00038 -0.00236383 0)
(1.00074 -0.00328181 0)
(1.00121 -0.00419047 0)
(1.00178 -0.00509449 0)
(1.00244 -0.00599706 0)
(1.00319 -0.00690127 0)
(1.00403 -0.00780951 0)
(1.00495 -0.00872373 0)
(1.00595 -0.00964542 0)
(1.00703 -0.0105756 0)
(1.00818 -0.011515 0)
(1.00941 -0.0124638 0)
(1.01071 -0.0134219 0)
(1.01207 -0.014389 0)
(1.0135 -0.0153643 0)
(1.015 -0.0163467 0)
(1.01655 -0.0173348 0)
(1.01817 -0.0183271 0)
(1.01984 -0.0193213 0)
(1.02156 -0.0203151 0)
(1.02334 -0.0213049 0)
(1.02517 -0.0222861 0)
(1.02704 -0.0232516 0)
(1.02895 -0.0241898 0)
(1.03089 -0.0250817 0)
(1.03286 -0.0258923 0)
(1.03486 -0.0265654 0)
(1.03681 -0.026987 0)
(1.00001 -0.000497011 0)
(1.00012 -0.00147618 0)
(1.00038 -0.00243549 0)
(1.00073 -0.00338126 0)
(1.0012 -0.00431747 0)
(1.00176 -0.00524895 0)
(1.00241 -0.00617901 0)
(1.00316 -0.0071109 0)
(1.00399 -0.00804708 0)
(1.0049 -0.00898961 0)
(1.00589 -0.00994002 0)
(1.00696 -0.0108994 0)
(1.0081 -0.0118686 0)
(1.00932 -0.0128477 0)
(1.0106 -0.0138367 0)
(1.01196 -0.0148353 0)
(1.01338 -0.0158427 0)
(1.01486 -0.0168578 0)
(1.0164 -0.0178791 0)
(1.01801 -0.0189051 0)
(1.01967 -0.0199335 0)
(1.02139 -0.0209616 0)
(1.02316 -0.021986 0)
(1.02497 -0.0230017 0)
(1.02684 -0.0240014 0)
(1.02874 -0.024973 0)
(1.03068 -0.0258966 0)
(1.03264 -0.0267361 0)
(1.03463 -0.0274336 0)
(1.03658 -0.0278704 0)
(1.00001 -0.000511341 0)
(1.00012 -0.00151866 0)
(1.00037 -0.00250558 0)
(1.00073 -0.00347852 0)
(1.00118 -0.00444168 0)
(1.00174 -0.00540001 0)
(1.00239 -0.00635699 0)
(1.00312 -0.00731596 0)
(1.00395 -0.0082795 0)
(1.00485 -0.00924976 0)
(1.00583 -0.0102283 0)
(1.00689 -0.0112164 0)
(1.00802 -0.0122148 0)
(1.00922 -0.0132237 0)
(1.0105 -0.0142432 0)
(1.01184 -0.0152728 0)
(1.01325 -0.0163118 0)
(1.01472 -0.0173591 0)
(1.01625 -0.0184134 0)
(1.01785 -0.0194727 0)
(1.0195 -0.0205349 0)
(1.0212 -0.0215972 0)
(1.02296 -0.022656 0)
(1.02477 -0.023706 0)
(1.02663 -0.0247396 0)
(1.02852 -0.0257443 0)
(1.03045 -0.0266996 0)
(1.03241 -0.0275678 0)
(1.0344 -0.0282895 0)
(1.03634 -0.0287415 0)
(1.00001 -0.000525359 0)
(1.00012 -0.0015602 0)
(1.00037 -0.00257412 0)
(1.00072 -0.00357362 0)
(1.00117 -0.00456311 0)
(1.00172 -0.0055477 0)
(1.00236 -0.00653099 0)
(1.00309 -0.00751647 0)
(1.0039 -0.0085068 0)
(1.0048 -0.00950422 0)
(1.00577 -0.0105104 0)
(1.00682 -0.0115266 0)
(1.00794 -0.0125537 0)
(1.00913 -0.0135919 0)
(1.01039 -0.0146413 0)
(1.01172 -0.0157015 0)
(1.01312 -0.0167717 0)
(1.01458 -0.0178509 0)
(1.0161 -0.0189375 0)
(1.01768 -0.0200299 0)
(1.01932 -0.0211256 0)
(1.02102 -0.0222218 0)
(1.02277 -0.0233147 0)
(1.02457 -0.0243988 0)
(1.02641 -0.0254663 0)
(1.0283 -0.0265039 0)
(1.03023 -0.0274907 0)
(1.03218 -0.0283875 0)
(1.03416 -0.0291332 0)
(1.03609 -0.0296003 0)
(1.00001 -0.000539068 0)
(1.00012 -0.00160082 0)
(1.00037 -0.00264112 0)
(1.00071 -0.00366656 0)
(1.00116 -0.00468178 0)
(1.0017 -0.00569203 0)
(1.00234 -0.00670105 0)
(1.00306 -0.00771245 0)
(1.00386 -0.00872899 0)
(1.00474 -0.00975302 0)
(1.0057 -0.0107863 0)
(1.00674 -0.0118301 0)
(1.00785 -0.0128853 0)
(1.00903 -0.0139523 0)
(1.01028 -0.0150311 0)
(1.0116 -0.0161214 0)
(1.01298 -0.0172224 0)
(1.01443 -0.018333 0)
(1.01594 -0.0194517 0)
(1.01751 -0.0205767 0)
(1.01914 -0.0217057 0)
(1.02082 -0.0228355 0)
(1.02256 -0.0239623 0)
(1.02435 -0.0250804 0)
(1.02619 -0.0261815 0)
(1.02807 -0.027252 0)
(1.02999 -0.0282701 0)
(1.03193 -0.0291952 0)
(1.03392 -0.029965 0)
(1.03584 -0.0304469 0)
(1.00001 -0.000552471 0)
(1.00012 -0.00164051 0)
(1.00036 -0.00270658 0)
(1.0007 -0.00375737 0)
(1.00115 -0.00479772 0)
(1.00168 -0.00583303 0)
(1.00231 -0.00686719 0)
(1.00302 -0.00790393 0)
(1.00381 -0.00894612 0)
(1.00469 -0.00999619 0)
(1.00564 -0.011056 0)
(1.00666 -0.0121268 0)
(1.00776 -0.0132097 0)
(1.00893 -0.0143049 0)
(1.01017 -0.0154127 0)
(1.01147 -0.0165326 0)
(1.01284 -0.0176639 0)
(1.01428 -0.0188055 0)
(1.01577 -0.0199559 0)
(1.01733 -0.0211133 0)
(1.01895 -0.0222751 0)
(1.02062 -0.0234383 0)
(1.02235 -0.0245988 0)
(1.02414 -0.0257507 0)
(1.02597 -0.0268854 0)
(1.02784 -0.0279885 0)
(1.02975 -0.0290378 0)
(1.03169 -0.0299912 0)
(1.03367 -0.0307849 0)
(1.03558 -0.0312815 0)
(1.00001 -0.000565573 0)
(1.00012 -0.00167929 0)
(1.00036 -0.00277054 0)
(1.00069 -0.00384606 0)
(1.00113 -0.00491094 0)
(1.00166 -0.00597071 0)
(1.00228 -0.00702943 0)
(1.00298 -0.00809094 0)
(1.00377 -0.00915821 0)
(1.00463 -0.0102338 0)
(1.00557 -0.0113195 0)
(1.00658 -0.0124169 0)
(1.00767 -0.0135268 0)
(1.00883 -0.0146499 0)
(1.01005 -0.0157861 0)
(1.01134 -0.0169351 0)
(1.0127 -0.0180963 0)
(1.01412 -0.0192685 0)
(1.01561 -0.0204502 0)
(1.01715 -0.0216396 0)
(1.01876 -0.022834 0)
(1.02042 -0.0240304 0)
(1.02214 -0.0252244 0)
(1.02391 -0.0264099 0)
(1.02573 -0.0275779 0)
(1.0276 -0.0287137 0)
(1.0295 -0.0297941 0)
(1.03143 -0.0307756 0)
(1.03341 -0.031593 0)
(1.03531 -0.0321043 0)
(1.00001 -0.000578376 0)
(1.00012 -0.00171717 0)
(1.00035 -0.00283298 0)
(1.00069 -0.00393263 0)
(1.00112 -0.00502146 0)
(1.00164 -0.00610511 0)
(1.00225 -0.00718781 0)
(1.00295 -0.00827351 0)
(1.00372 -0.0093653 0)
(1.00457 -0.0104658 0)
(1.0055 -0.011577 0)
(1.0065 -0.0127003 0)
(1.00758 -0.0138369 0)
(1.00872 -0.0149871 0)
(1.00993 -0.0161513 0)
(1.01121 -0.017329 0)
(1.01255 -0.0185196 0)
(1.01396 -0.019722 0)
(1.01544 -0.0209347 0)
(1.01697 -0.0221557 0)
(1.01856 -0.0233824 0)
(1.02021 -0.0246117 0)
(1.02192 -0.025839 0)
(1.02368 -0.0270579 0)
(1.0255 -0.0282593 0)
(1.02735 -0.0294276 0)
(1.02925 -0.0305391 0)
(1.03118 -0.0315486 0)
(1.03315 -0.0323896 0)
(1.03504 -0.0329153 0)
(1.00001 -0.000590885 0)
(1.00012 -0.00175415 0)
(1.00035 -0.00289394 0)
(1.00068 -0.00401712 0)
(1.0011 -0.00512929 0)
(1.00162 -0.00623624 0)
(1.00222 -0.00734234 0)
(1.00291 -0.00845167 0)
(1.00367 -0.00956742 0)
(1.00452 -0.0106923 0)
(1.00543 -0.0118283 0)
(1.00642 -0.0129771 0)
(1.00748 -0.0141398 0)
(1.00861 -0.0153168 0)
(1.00981 -0.0165084 0)
(1.01108 -0.0177143 0)
(1.01241 -0.0189339 0)
(1.0138 -0.0201661 0)
(1.01526 -0.0214093 0)
(1.01678 -0.0226616 0)
(1.01836 -0.0239204 0)
(1.02 -0.0251823 0)
(1.0217 -0.0264427 0)
(1.02345 -0.027695 0)
(1.02525 -0.0289296 0)
(1.0271 -0.0301304 0)
(1.02899 -0.0312729 0)
(1.03091 -0.0323102 0)
(1.03288 -0.0331747 0)
(1.03476 -0.0337147 0)
(1.00001 -0.000603103 0)
(1.00011 -0.00179025 0)
(1.00034 -0.00295342 0)
(1.00067 -0.00409954 0)
(1.00109 -0.00523447 0)
(1.0016 -0.00636413 0)
(1.00219 -0.00749307 0)
(1.00287 -0.00862546 0)
(1.00363 -0.00976461 0)
(1.00446 -0.0109133 0)
(1.00536 -0.0120737 0)
(1.00634 -0.0132474 0)
(1.00739 -0.0144356 0)
(1.0085 -0.0156389 0)
(1.00969 -0.0168575 0)
(1.01094 -0.0180912 0)
(1.01226 -0.0193393 0)
(1.01364 -0.0206008 0)
(1.01508 -0.0218742 0)
(1.01659 -0.0231574 0)
(1.01816 -0.0244479 0)
(1.01978 -0.0257422 0)
(1.02147 -0.0270356 0)
(1.02321 -0.0283211 0)
(1.025 -0.0295889 0)
(1.02684 -0.0308222 0)
(1.02873 -0.0319957 0)
(1.03064 -0.0330608 0)
(1.0326 -0.0339487 0)
(1.03447 -0.0345028 0)
(1.00001 -0.000615036 0)
(1.00011 -0.00182547 0)
(1.00034 -0.00301143 0)
(1.00066 -0.00417989 0)
(1.00107 -0.005337 0)
(1.00158 -0.00648881 0)
(1.00216 -0.00764001 0)
(1.00283 -0.00879491 0)
(1.00358 -0.00995692 0)
(1.0044 -0.0111289 0)
(1.00529 -0.0123131 0)
(1.00625 -0.0135112 0)
(1.00729 -0.0147245 0)
(1.00839 -0.0159535 0)
(1.00956 -0.0171986 0)
(1.0108 -0.0184595 0)
(1.0121 -0.0197357 0)
(1.01347 -0.0210261 0)
(1.0149 -0.0223293 0)
(1.01639 -0.0236432 0)
(1.01795 -0.0249651 0)
(1.01956 -0.0262916 0)
(1.02123 -0.0276177 0)
(1.02296 -0.0289364 0)
(1.02475 -0.0302374 0)
(1.02658 -0.0315031 0)
(1.02846 -0.0327076 0)
(1.03036 -0.0338005 0)
(1.03232 -0.0347116 0)
(1.03418 -0.0352797 0)
(1.00001 -0.000626687 0)
(1.00011 -0.00185982 0)
(1.00034 -0.00306798 0)
(1.00065 -0.0042582 0)
(1.00106 -0.00543692 0)
(1.00156 -0.0066103 0)
(1.00213 -0.0077832 0)
(1.00279 -0.00896005 0)
(1.00353 -0.0101444 0)
(1.00433 -0.0113391 0)
(1.00522 -0.0125466 0)
(1.00617 -0.0137686 0)
(1.00719 -0.0150064 0)
(1.00828 -0.0162606 0)
(1.00943 -0.0175317 0)
(1.01066 -0.0188194 0)
(1.01194 -0.0201233 0)
(1.0133 -0.0214422 0)
(1.01471 -0.0227748 0)
(1.01619 -0.0241189 0)
(1.01773 -0.025472 0)
(1.01933 -0.0268304 0)
(1.02099 -0.0281892 0)
(1.02271 -0.0295409 0)
(1.02449 -0.030875 0)
(1.02631 -0.0321733 0)
(1.02818 -0.0334088 0)
(1.03008 -0.0345295 0)
(1.03204 -0.0354638 0)
(1.03389 -0.0360456 0)
(1.00001 -0.00063806 0)
(1.00011 -0.00189331 0)
(1.00033 -0.00312309 0)
(1.00064 -0.00433449 0)
(1.00104 -0.00553424 0)
(1.00153 -0.00672862 0)
(1.0021 -0.00792268 0)
(1.00275 -0.00912094 0)
(1.00347 -0.010327 0)
(1.00427 -0.011544 0)
(1.00514 -0.0127742 0)
(1.00608 -0.0140196 0)
(1.00709 -0.0152814 0)
(1.00816 -0.0165604 0)
(1.0093 -0.017857 0)
(1.01051 -0.0191711 0)
(1.01178 -0.0205021 0)
(1.01312 -0.0218491 0)
(1.01452 -0.0232107 0)
(1.01599 -0.0245847 0)
(1.01751 -0.0259686 0)
(1.0191 -0.0273587 0)
(1.02075 -0.0287499 0)
(1.02246 -0.0301347 0)
(1.02422 -0.031502 0)
(1.02603 -0.0328328 0)
(1.0279 -0.0340995 0)
(1.02979 -0.035248 0)
(1.03175 -0.0362054 0)
(1.03359 -0.0368007 0)
(1.00001 -0.000649161 0)
(1.00011 -0.00192594 0)
(1.00033 -0.00317678 0)
(1.00063 -0.00440877 0)
(1.00103 -0.00562898 0)
(1.00151 -0.00684381 0)
(1.00207 -0.00805847 0)
(1.00271 -0.00927759 0)
(1.00342 -0.0105049 0)
(1.00421 -0.0117436 0)
(1.00506 -0.0129961 0)
(1.00599 -0.0142643 0)
(1.00698 -0.0155496 0)
(1.00804 -0.0168528 0)
(1.00917 -0.0181744 0)
(1.01036 -0.0195144 0)
(1.01162 -0.0208722 0)
(1.01294 -0.0222468 0)
(1.01433 -0.023637 0)
(1.01578 -0.0250406 0)
(1.01729 -0.0264551 0)
(1.01886 -0.0278766 0)
(1.0205 -0.0293001 0)
(1.02219 -0.0307178 0)
(1.02395 -0.0321183 0)
(1.02575 -0.0334819 0)
(1.02761 -0.0347799 0)
(1.0295 -0.0359563 0)
(1.03145 -0.0369367 0)
(1.03328 -0.0375453 0)
(1.00001 -0.000659993 0)
(1.00011 -0.00195773 0)
(1.00032 -0.00322905 0)
(1.00062 -0.00448106 0)
(1.00101 -0.00572117 0)
(1.00149 -0.00695589 0)
(1.00204 -0.00819061 0)
(1.00267 -0.00943006 0)
(1.00337 -0.0106781 0)
(1.00414 -0.0119379 0)
(1.00499 -0.0132121 0)
(1.0059 -0.0145027 0)
(1.00688 -0.015811 0)
(1.04206 -0.000607596 1.04068e-21)
(1.04427 -0.000603477 9.70068e-22)
(1.04654 -0.000599511 6.28302e-22)
(1.04888 -0.000595357 2.08146e-21)
(1.05129 -0.000590857 -2.44256e-22)
(1.05376 -0.00058597 -1.0623e-21)
(1.0563 -0.00058068 -2.29882e-21)
(1.05891 -0.00057499 5.98183e-22)
(1.06158 -0.000568918 -1.60698e-21)
(1.06433 -0.000562489 3.47272e-22)
(1.06715 -0.000555734 -4.18411e-22)
(1.07003 -0.000548691 4.75607e-22)
(1.07298 -0.000541404 9.13955e-22)
(1.076 -0.000533918 -3.13993e-22)
(1.07909 -0.000526284 -1.39919e-21)
(1.08224 -0.000518556 2.10956e-21)
(1.08546 -0.000510787 -7.37063e-22)
(1.08875 -0.000503034 -1.32916e-21)
(1.09211 -0.000495352 5.57701e-23)
(1.09553 -0.000487792 1.00193e-21)
(1.09902 -0.000480405 1.65191e-21)
(1.10257 -0.000473234 4.77757e-22)
(1.10619 -0.000466318 -7.98313e-23)
(1.10987 -0.000459688 -4.32363e-22)
(1.11361 -0.000453364 5.75592e-22)
(1.04205 -0.00182226 6.81911e-22)
(1.04425 -0.001813 -2.41432e-21)
(1.04653 -0.00180358 -2.85239e-21)
(1.04886 -0.00179335 -2.08388e-22)