/*--------------------------------*- C++ -*----------------------------------*\
  =========                 |
  \\      /  F ield         | OpenFOAM: The Open Source CFD Toolbox
   \\    /   O peration     | Website:  https://openfoam.org
    \\  /    A nd           | Version:  7
     \\/     M anipulation  |
\*---------------------------------------------------------------------------*/
FoamFile
{
    version     2.0;
    format      ascii;
    class       surfaceScalarField;
    location    "20";
    object      phi;
}
// * * * * * * * * * * * * * * * * * * * * * * * * * * * * * * * * * * * * * //

dimensions      [0 3 -1 0 0 0 0];

internalField   nonuniform List<scalar> 
5134
(
0.00280974
-8.60253e-05
0.00280619
-9.21088e-05
0.00280255
-9.80235e-05
0.00279883
-0.000103762
0.00279503
-0.000109316
0.00279116
-0.000114681
0.00278722
-0.000119852
0.00278322
-0.000124826
0.00277916
-0.0001296
0.00277505
-0.000134173
0.00277089
-0.000138546
0.00276668
-0.000142719
0.00276243
-0.000146695
0.00275815
-0.000150478
0.00275383
-0.000154069
0.00274948
-0.000157476
0.00274509
-0.000160702
0.00274069
-0.000163753
0.00273626
-0.000166636
0.00273181
-0.000169357
0.00272734
-0.000171923
0.00272285
-0.000174342
0.00271835
-0.00017662
0.00271383
-0.000178765
0.0027093
-0.000180784
0.00270476
-0.000182686
0.00270022
-0.000184477
0.00269566
-0.000186165
0.0026911
-0.000187758
0.00268653
-0.000189263
0.00268196
-0.000190687
0.00267739
-0.000192038
0.00267282
-0.000193322
0.00266824
-0.000194547
-0.000195719
0.00286672
1.22788e-05
-0.00286769
0.00286545
5.66829e-06
0.00286389
-1.24991e-06
0.00286205
-8.37861e-06
0.00285999
-1.55703e-05
0.00285772
-2.27384e-05
0.0028553
-2.98373e-05
0.00285272
-3.68446e-05
0.00285001
-4.37494e-05
0.00284718
-5.0545e-05
0.00284423
-5.72253e-05
0.00284116
-6.37837e-05
0.00283799
-7.02126e-05
0.00283471
-7.65034e-05
0.00283133
-8.26474e-05
0.00282786
-8.86358e-05
0.0028243
-9.44602e-05
0.00282065
-0.000100113
0.00281692
-0.000105587
0.00281312
-0.000110877
0.00280924
-0.000115977
0.0028053
-0.000120886
0.0028013
-0.000125599
0.00279724
-0.000130116
0.00279313
-0.000134436
0.00278897
-0.000138562
0.00278477
-0.000142494
0.00278053
-0.000146236
0.00277625
-0.00014979
0.00277194
-0.000153163
0.0027676
-0.000156358
0.00276322
-0.000159381
0.00275883
-0.000162239
0.00275441
-0.000164936
0.00274996
-0.000167482
0.0027455
-0.000169881
0.00274103
-0.000172142
0.00273653
-0.000174272
0.00273203
-0.000176278
0.00272751
-0.000178168
0.00272298
-0.000179949
0.00271844
-0.000181628
0.0027139
-0.000183213
0.00270935
-0.000184711
0.00270479
-0.00018613
0.00270023
-0.000187477
0.00269566
-0.000188758
0.0026911
-0.00018998
-0.000191151
0.00288671
1.31688e-05
-0.0028876
0.00288556
6.81786e-06
0.00288414
1.73701e-07
0.00288245
-6.69159e-06
0.00288053
-1.36501e-05
0.00287841
-2.06166e-05
0.00287611
-2.75403e-05
0.00287366
-3.4392e-05
0.00287107
-4.1155e-05
0.00286834
-4.78187e-05
0.00286549
-5.43746e-05
0.00286252
-6.08145e-05
0.00285944
-6.713e-05
0.00285625
-7.33125e-05
0.00285295
-7.9353e-05
0.00284956
-8.52428e-05
0.00284607
-9.09736e-05
0.0028425
-9.65378e-05
0.00283884
-0.000101929
0.0028351
-0.00010714
0.00283129
-0.000112167
0.00282741
-0.000117007
0.00282347
-0.000121656
0.00281947
-0.000126114
0.00281541
-0.00013038
0.00281131
-0.000134455
0.00280715
-0.00013834
0.00280296
-0.000142039
0.00279872
-0.000145554
0.00279445
-0.000148891
0.00279014
-0.000152053
0.00278581
-0.000155046
0.00278144
-0.000157875
0.00277705
-0.000160548
0.00277264
-0.00016307
0.00276821
-0.000165449
0.00276376
-0.000167692
0.00275929
-0.000169805
0.00275481
-0.000171795
0.00275031
-0.000173671
0.00274581
-0.00017544
0.00274129
-0.000177109
0.00273676
-0.000178685
0.00273222
-0.000180175
0.00272768
-0.000181587
0.00272313
-0.000182928
0.00271858
-0.000184205
0.00271402
-0.000185424
-0.000186592
0.00290677
1.39841e-05
-0.00290759
0.00290573
7.86469e-06
0.00290443
1.47186e-06
0.00290288
-5.14229e-06
0.0029011
-1.187e-05
0.00289911
-1.86312e-05
0.00289695
-2.53728e-05
0.00289461
-3.20611e-05
0.00289213
-3.8675e-05
0.00288952
-4.52003e-05
0.00288677
-5.16259e-05
0.00288389
-5.79423e-05
0.0028809
-6.41401e-05
0.0028778
-7.02102e-05
0.00287459
-7.61436e-05
0.00287128
-8.19314e-05
0.00286787
-8.75654e-05
0.00286437
-9.30379e-05
0.00286079
-9.83421e-05
0.00285712
-0.000103472
0.00285338
-0.000108423
0.00284956
-0.000113191
0.00284568
-0.000117774
0.00284173
-0.00012217
0.00283773
-0.000126378
0.00283368
-0.0001304
0.00282957
-0.000134236
0.00282542
-0.000137889
0.00282123
-0.000141363
0.002817
-0.000144661
0.00281274
-0.000147787
0.00280844
-0.000150748
0.00280411
-0.000153548
0.00279976
-0.000156193
0.00279538
-0.000158691
0.00279097
-0.000161047
0.00278655
-0.000163269
0.00278211
-0.000165363
0.00277765
-0.000167337
0.00277318
-0.000169198
0.00276869
-0.000170953
0.00276419
-0.00017261
0.00275968
-0.000174175
0.00275516
-0.000175656
0.00275064
-0.00017706
0.0027461
-0.000178394
0.00274156
-0.000179665
0.00273702
-0.000180879
-0.000182044
0.0029269
1.47287e-05
-0.00292765
0.00292595
8.81798e-06
0.00292477
2.65614e-06
0.00292334
-3.72e-06
0.00292169
-1.02219e-05
0.00291984
-1.67766e-05
0.0029178
-2.33316e-05
0.00291559
-2.98506e-05
0.00291322
-3.63092e-05
0.00291071
-4.26901e-05
0.00290807
-4.89802e-05
0.00290529
-5.51682e-05
0.0029024
-6.1244e-05
0.00289938
-6.71979e-05
0.00289626
-7.30205e-05
0.00289303
-7.87029e-05
0.0028897
-8.42368e-05
0.00288628
-8.96144e-05
0.00288277
-9.4829e-05
0.00287917
-9.98745e-05
0.00287549
-0.000104746
0.00287174
-0.00010944
0.00286792
-0.000113953
0.00286404
-0.000118284
0.00286009
-0.000122433
0.00285609
-0.000126398
0.00285203
-0.000130183
0.00284793
-0.000133788
0.00284379
-0.000137217
0.0028396
-0.000140474
0.00283538
-0.000143563
0.00283112
-0.000146489
0.00282683
-0.000149257
0.00282251
-0.000151873
0.00281816
-0.000154344
0.00281379
-0.000156676
0.0028094
-0.000158876
0.00280498
-0.00016095
0.00280055
-0.000162905
0.0027961
-0.00016475
0.00279164
-0.00016649
0.00278716
-0.000168133
0.00278267
-0.000169686
0.00277817
-0.000171156
0.00277366
-0.000172551
0.00276914
-0.000173877
0.00276462
-0.00017514
0.00276009
-0.000176348
-0.000177508
0.00294711
1.54053e-05
-0.00294778
0.00294624
9.68504e-06
0.00294516
3.73638e-06
0.00294386
-2.41486e-06
0.00294233
-8.69762e-06
0.0029406
-1.5047e-05
0.00293868
-2.1413e-05
0.00293659
-2.77584e-05
0.00293434
-3.40565e-05
0.00293194
-4.0288e-05
0.00292939
-4.64376e-05
0.00292672
-5.24928e-05
0.00292392
-5.84424e-05
0.00292099
-6.42762e-05
0.00291796
-6.99845e-05
0.00291481
-7.55581e-05
0.00291157
-8.09886e-05
0.00290822
-8.62683e-05
0.00290478
-9.13901e-05
0.00290125
-9.63483e-05
0.00289765
-0.000101138
0.00289396
-0.000105754
0.0028902
-0.000110195
0.00288638
-0.000114459
0.00288249
-0.000118544
0.00287854
-0.000122451
0.00287454
-0.000126181
0.00287049
-0.000129736
0.00286639
-0.000133118
0.00286225
-0.000136332
0.00285806
-0.000139381
0.00285385
-0.00014227
0.00284959
-0.000145004
0.00284531
-0.000147589
0.002841
-0.000150032
0.00283666
-0.000152337
0.0028323
-0.000154513
0.00282791
-0.000156565
0.00282351
-0.0001585
0.00281908
-0.000160327
0.00281464
-0.00016205
0.00281019
-0.000163678
0.00280572
-0.000165218
0.00280124
-0.000166676
0.00279675
-0.00016806
0.00279225
-0.000169376
0.00278774
-0.000170631
0.00278322
-0.000171832
-0.000172985
0.00296739
1.60162e-05
-0.002968
0.00296661
1.04717e-05
0.00296562
4.72093e-06
0.00296442
-1.21795e-06
0.00296302
-7.28908e-06
0.0029614
-1.34361e-05
0.0029596
-1.96124e-05
0.00295763
-2.57813e-05
0.00295549
-3.19152e-05
0.00295319
-3.79929e-05
0.00295075
-4.39978e-05
0.00294817
-4.9916e-05
0.00294547
-5.57357e-05
0.00294264
-6.14457e-05
0.00293969
-6.70362e-05
0.00293663
-7.24977e-05
0.00293346
-7.78217e-05
0.00293019
-8.30002e-05
0.00292683
-8.80264e-05
0.00292338
-9.28941e-05
0.00291984
-9.75983e-05
0.00291622
-0.000102135
0.00291252
-0.000106501
0.00290876
-0.000110694
0.00290493
-0.000114714
0.00290104
-0.000118559
0.00289709
-0.000122232
0.00289309
-0.000125734
0.00288903
-0.000129068
0.00288494
-0.000132236
0.0028808
-0.000135242
0.00287662
-0.000138093
0.00287241
-0.000140791
0.00286816
-0.000143343
0.00286389
-0.000145755
0.00285958
-0.000148032
0.00285525
-0.000150182
0.0028509
-0.00015221
0.00284652
-0.000154124
0.00284212
-0.000155931
0.00283771
-0.000157636
0.00283328
-0.000159248
0.00282883
-0.000160773
0.00282437
-0.000162217
0.0028199
-0.000163589
0.00281542
-0.000164894
0.00281093
-0.000166139
0.00280643
-0.000167331
-0.000168477
0.00298776
1.65631e-05
-0.00298831
0.00298705
1.11828e-05
0.00298615
5.61686e-06
0.00298506
-1.21308e-07
0.00298376
-5.98878e-06
0.00298226
-1.19374e-05
0.00298057
-1.79248e-05
0.00297871
-2.39159e-05
0.00297667
-2.98828e-05
0.00297448
-3.58033e-05
0.00297215
-4.16598e-05
0.00296967
-4.74375e-05
0.00296706
-5.31235e-05
0.00296432
-5.87065e-05
0.00296146
-6.41758e-05
0.00295848
-6.95221e-05
0.00295539
-7.47364e-05
0.00295221
-7.98109e-05
0.00294892
-8.47384e-05
0.00294554
-8.95129e-05
0.00294207
-9.4129e-05
0.00293851
-9.85827e-05
0.00293488
-0.000102871
0.00293118
-0.000106991
0.00292741
-0.000110942
0.00292357
-0.000114724
0.00291968
-0.000118338
0.00291573
-0.000121784
0.00291173
-0.000125066
0.00290768
-0.000128186
0.00290359
-0.000131149
0.00289945
-0.000133958
0.00289528
-0.000136618
0.00289107
-0.000139135
0.00288683
-0.000141514
0.00288256
-0.000143762
0.00287826
-0.000145884
0.00287394
-0.000147887
0.00286959
-0.000149778
0.00286522
-0.000151563
0.00286084
-0.000153249
0.00285643
-0.000154842
0.00285201
-0.000156351
0.00284757
-0.000157781
0.00284312
-0.000159139
0.00283866
-0.000160432
0.00283419
-0.000161666
0.0028297
-0.000162848
-0.000163984
0.00300822
1.70476e-05
-0.0030087
0.00300758
1.18222e-05
0.00300677
6.43015e-06
0.00300576
8.8211e-07
0.00300456
-4.78968e-06
0.00300317
-1.05447e-05
0.00300159
-1.63452e-05
0.00299983
-2.21582e-05
0.00299791
-2.79563e-05
0.00299582
-3.37172e-05
0.00299358
-3.94223e-05
0.0029912
-4.50563e-05
0.00298868
-5.06055e-05
0.00298603
-5.60581e-05
0.00298326
-6.14033e-05
0.00298037
-6.66312e-05
0.00297737
-7.1733e-05
0.00297426
-7.67004e-05
0.00297105
-8.15265e-05
0.00296774
-8.62048e-05
0.00296434
-9.07302e-05
0.00296085
-9.50983e-05
0.00295729
-9.93057e-05
0.00295365
-0.00010335
0.00294994
-0.000107231
0.00294616
-0.000110946
0.00294232
-0.000114498
0.00293842
-0.000117886
0.00293447
-0.000121114
0.00293047
-0.000124185
0.00292642
-0.0001271
0.00292233
-0.000129866
0.0029182
-0.000132487
0.00291403
-0.000134967
0.00290983
-0.000137312
0.00290559
-0.000139527
0.00290133
-0.00014162
0.00289704
-0.000143596
0.00289272
-0.000145462
0.00288838
-0.000147224
0.00288402
-0.000148889
0.00287964
-0.000150463
0.00287525
-0.000151954
0.00287083
-0.000153368
0.0028664
-0.000154711
0.00286196
-0.00015599
0.00285751
-0.000157212
0.00285304
-0.000158383
-0.000159509
0.00302877
1.74708e-05
-0.00302919
0.0030282
1.2393e-05
0.00302746
7.16587e-06
0.00302654
1.79853e-06
0.00302544
-3.68528e-06
0.00302415
-9.25191e-06
0.00302267
-1.48682e-05
0.00302102
-2.05039e-05
0.00301919
-2.61325e-05
0.00301721
-3.17319e-05
0.00301507
-3.72834e-05
0.00301278
-4.27709e-05
0.00301036
-4.81805e-05
0.0030078
-5.35e-05
0.00300511
-5.87181e-05
0.00300231
-6.38249e-05
0.00299939
-6.88113e-05
0.00299635
-7.3669e-05
0.00299322
-7.83908e-05
0.00298998
-8.29703e-05
0.00298666
-8.74021e-05
0.00298324
-9.16819e-05
0.00297974
-9.58062e-05
0.00297616
-9.97725e-05
0.00297251
-0.000103579
0.00296879
-0.000107226
0.00296501
-0.000110713
0.00296116
-0.000114042
0.00295726
-0.000117213
0.00295331
-0.000120231
0.00294931
-0.000123099
0.00294526
-0.000125819
0.00294117
-0.000128397
0.00293704
-0.000130838
0.00293288
-0.000133147
0.00292868
-0.000135329
0.00292445
-0.000137391
0.00292019
-0.000139339
0.00291591
-0.000141178
0.0029116
-0.000142915
0.00290727
-0.000144558
0.00290292
-0.000146111
0.00289855
-0.000147583
0.00289416
-0.000148979
0.00288975
-0.000150306
0.00288533
-0.000151571
0.0028809
-0.000152779
0.00287645
-0.000153938
-0.000155052
0.00304941
1.7834e-05
-0.00304978
0.00304891
1.28981e-05
0.00304824
7.82833e-06
0.00304741
2.63342e-06
0.00304639
-2.66967e-06
0.0030452
-8.05332e-06
0.00304382
-1.34888e-05
0.00304226
-1.89485e-05
0.00304054
-2.44077e-05
0.00303865
-2.98446e-05
0.00303661
-3.52406e-05
0.00303441
-4.05796e-05
0.00303208
-4.58473e-05
0.00302961
-5.1031e-05
0.00302701
-5.61195e-05
0.00302429
-6.11026e-05
0.00302145
-6.59709e-05
0.0030185
-7.07162e-05
0.00301544
-7.53312e-05
0.00301228
-7.98092e-05
0.00300902
-8.4145e-05
0.00300567
-8.83339e-05
0.00300224
-9.23725e-05
0.00299872
-9.6258e-05
0.00299513
-9.99888e-05
0.00299147
-0.000103564
0.00298774
-0.000106985
0.00298395
-0.00011025
0.0029801
-0.000113364
0.0029762
-0.000116327
0.00297224
-0.000119144
0.00296824
-0.000121817
0.0029642
-0.000124351
0.00296011
-0.000126751
0.00295598
-0.000129022
0.00295182
-0.000131169
0.00294763
-0.000133198
0.00294341
-0.000135115
0.00293915
-0.000136926
0.00293488
-0.000138638
0.00293057
-0.000140256
0.00292625
-0.000141788
0.00292191
-0.000143239
0.00291754
-0.000144616
0.00291316
-0.000145926
0.00290877
-0.000147174
0.00290436
-0.000148368
0.00289993
-0.000149513
-0.000150615
0.00307016
1.81382e-05
-0.00307046
0.00306972
1.33397e-05
0.00306912
8.42125e-06
0.00306837
3.39159e-06
0.00306743
-1.73745e-06
0.00306632
-6.94348e-06
0.00306504
-1.22018e-05
0.00306358
-1.74876e-05
0.00306195
-2.2778e-05
0.00306015
-2.8052e-05
0.0030582
-3.32915e-05
0.0030561
-3.84803e-05
0.00305386
-4.3604e-05
0.00305148
-4.86499e-05
0.00304897
-5.36065e-05
0.00304633
-5.84634e-05
0.00304357
-6.32113e-05
0.00304069
-6.78418e-05
0.00303771
-7.23473e-05
0.00303462
-7.67215e-05
0.00303144
-8.09587e-05
0.00302816
-8.50543e-05
0.00302479
-8.90046e-05
0.00302134
-9.28069e-05
0.00301781
-9.64594e-05
0.00301421
-9.99612e-05
0.00301053
-0.000103312
0.0030068
-0.000106513
0.003003
-0.000109566
0.00299914
-0.000112473
0.00299524
-0.000115236
0.00299128
-0.00011786
0.00298728
-0.000120348
0.00298323
-0.000122705
0.00297915
-0.000124936
0.00297502
-0.000127046
0.00297087
-0.000129041
0.00296668
-0.000130926
0.00296246
-0.000132708
0.00295821
-0.000134392
0.00295394
-0.000135985
0.00294965
-0.000137493
0.00294533
-0.000138922
0.00294099
-0.000140279
0.00293664
-0.00014157
0.00293227
-0.000142801
0.00292788
-0.000143979
0.00292347
-0.000145109
-0.000146197
0.00309101
1.83844e-05
-0.00309125
0.00309063
1.372e-05
0.0030901
8.94784e-06
0.00308942
4.07728e-06
0.00308856
-8.83777e-07
0.00308754
-5.91731e-06
0.00308634
-1.10022e-05
0.00308497
-1.61167e-05
0.00308343
-2.12394e-05
0.00308173
-2.63508e-05
0.00307987
-3.14332e-05
0.00307786
-3.64706e-05
0.0030757
-4.14488e-05
0.00307341
-4.6355e-05
0.00307098
-5.11777e-05
0.00306842
-5.59063e-05
0.00306574
-6.05315e-05
0.00306294
-6.50448e-05
0.00306004
-6.94387e-05
0.00305702
-7.37066e-05
0.00305391
-7.78429e-05
0.00305069
-8.18427e-05
0.00304739
-8.57025e-05
0.003044
-8.94192e-05
0.00304054
-9.2991e-05
0.00303699
-9.64168e-05
0.00303338
-9.96965e-05
0.00302969
-0.000102831
0.00302595
-0.000105821
0.00302214
-0.000108668
0.00301828
-0.000111377
0.00301437
-0.000113949
0.00301041
-0.00011639
0.00300641
-0.000118702
0.00300237
-0.000120892
0.00299828
-0.000122963
0.00299416
-0.000124922
0.00299001
-0.000126773
0.00298583
-0.000128524
0.00298161
-0.000130179
0.00297737
-0.000131745
0.00297311
-0.000133228
0.00296882
-0.000134634
0.00296451
-0.00013597
0.00296018
-0.000137241
0.00295583
-0.000138453
0.00295147
-0.000139613
0.00294708
-0.000140727
-0.000141801
0.00311197
1.85737e-05
-0.00311216
0.00311165
1.40407e-05
0.00311118
9.41091e-06
0.00311057
4.69423e-06
0.00310979
-1.04242e-07
0.00310884
-4.97014e-06
0.00310772
-9.88557e-06
0.00310644
-1.48313e-05
0.00310499
-1.9788e-05
0.00310337
-2.47374e-05
0.0031016
-2.96625e-05
0.00309968
-3.45478e-05
0.00309761
-3.93794e-05
0.0030954
-4.41444e-05
0.00309305
-4.88314e-05
0.00309058
-5.34299e-05
0.00308798
-5.79304e-05
0.00308525
-6.23245e-05
0.00308242
-6.66046e-05
0.00307948
-7.0764e-05
0.00307643
-7.4797e-05
0.00307329
-7.86989e-05
0.00307005
-8.24658e-05
0.00306673
-8.60947e-05
0.00306332
-8.95836e-05
0.00305983
-9.29312e-05
0.00305628
-9.61373e-05
0.00305265
-9.92022e-05
0.00304895
-0.000102127
0.0030452
-0.000104914
0.00304139
-0.000107566
0.00303752
-0.000110085
0.00303361
-0.000112475
0.00302965
-0.000114741
0.00302565
-0.000116888
0.0030216
-0.000118918
0.00301752
-0.000120839
0.0030134
-0.000122656
0.00300925
-0.000124374
0.00300507
-0.000125999
0.00300086
-0.000127537
0.00299663
-0.000128993
0.00299237
-0.000130375
0.00298809
-0.000131688
0.00298378
-0.000132937
0.00297946
-0.00013413
0.00297512
-0.000135272
0.00297076
-0.000136369
-0.000137426
0.00313304
1.87072e-05
-0.00313317
0.00313277
1.43035e-05
0.00313237
9.81295e-06
0.00313182
5.24577e-06
0.00313111
6.05114e-07
0.00313024
-4.09762e-06
0.0031292
-8.84732e-06
0.003128
-1.36272e-05
0.00312663
-1.84198e-05
0.0031251
-2.32081e-05
0.00312341
-2.79762e-05
0.00312157
-3.27092e-05
0.00311959
-3.73932e-05
0.00311746
-4.20159e-05
0.00311519
-4.65659e-05
0.0031128
-5.10326e-05
0.00311027
-5.54066e-05
0.00310763
-5.96796e-05
0.00310487
-6.38438e-05
0.003102
-6.78927e-05
0.00309902
-7.18205e-05
0.00309594
-7.56223e-05
0.00309277
-7.92942e-05
0.00308951
-8.28331e-05
0.00308616
-8.62369e-05
0.00308274
-8.95042e-05
0.00307923
-9.26346e-05
0.00307566
-9.56283e-05
0.00307202
-9.84863e-05
0.00306831
-0.00010121
0.00306455
-0.000103803
0.00306073
-0.000106267
0.00305686
-0.000108606
0.00305295
-0.000110824
0.00304898
-0.000112925
0.00304498
-0.000114914
0.00304094
-0.000116795
0.00303685
-0.000118575
0.00303274
-0.000120259
0.00302859
-0.000121852
0.00302442
-0.00012336
0.00302021
-0.00012479
0.00301598
-0.000126146
0.00301173
-0.000127434
0.00300745
-0.000128661
0.00300316
-0.000129833
0.00299884
-0.000130955
0.00299451
-0.000132034
-0.000133073
0.00315422
1.87857e-05
-0.0031543
0.00315402
1.451e-05
0.00315367
1.01562e-05
0.00315319
5.73485e-06
0.00315254
1.24788e-06
0.00315174
-3.29577e-06
0.00315078
-7.88333e-06
0.00314965
-1.25002e-05
0.00314836
-1.71307e-05
0.00314691
-2.17594e-05
0.00314531
-2.63711e-05
0.00314355
-3.09516e-05
0.00314164
-3.54877e-05
0.00313959
-3.99672e-05
0.00313741
-4.43789e-05
0.00313509
-4.87125e-05
0.00313264
-5.29585e-05
0.00313007
-5.71086e-05
0.00312738
-6.11553e-05
0.00312458
-6.50918e-05
0.00312167
-6.89123e-05
0.00311866
-7.26121e-05
0.00311555
-7.61869e-05
0.00311235
-7.96338e-05
0.00310907
-8.29505e-05
0.0031057
-8.61355e-05
0.00310225
-8.91881e-05
0.00309873
-9.21085e-05
0.00309514
-9.48977e-05
0.00309149
-9.75571e-05
0.00308778
-0.000100089
0.00308401
-0.000102496
0.00308018
-0.000104781
0.00307631
-0.000106949
0.00307239
-0.000109003
0.00306842
-0.000110949
0.00306441
-0.00011279
0.00306037
-0.000114532
0.00305629
-0.00011618
0.00305218
-0.00011774
0.00304804
-0.000119217
0.00304386
-0.000120617
0.00303966
-0.000121946
0.00303544
-0.00012321
0.00303119
-0.000124413
0.00302692
-0.000125563
0.00302263
-0.000126664
0.00301832
-0.000127723
-0.000128744
0.00317553
1.88103e-05
-0.00317556
0.00317538
1.46617e-05
0.00317509
1.04426e-05
0.00317466
6.16415e-06
0.00317408
1.8273e-06
0.00317335
-2.56091e-06
0.00317246
-6.9897e-06
0.0031714
-1.14464e-05
0.00317019
-1.5917e-05
0.00316882
-2.03874e-05
0.00316729
-2.48436e-05
0.00316561
-2.9272e-05
0.00316378
-3.366e-05
0.00316181
-3.79958e-05
0.0031597
-4.22684e-05
0.00315745
-4.64676e-05
0.00315508
-5.05843e-05
0.00315258
-5.46101e-05
0.00314996
-5.85376e-05
0.00314723
-6.23599e-05
0.00314439
-6.60715e-05
0.00314145
-6.96672e-05
0.0031384
-7.31432e-05
0.00313526
-7.64962e-05
0.00313204
-7.97238e-05
0.00312873
-8.28244e-05
0.00312534
-8.57974e-05
0.00312187
-8.86427e-05
0.00311833
-9.1361e-05
0.00311473
-9.39538e-05
0.00311106
-9.6423e-05
0.00310734
-9.87712e-05
0.00310356
-0.000101002
0.00309973
-0.000103118
0.00309585
-0.000105124
0.00309192
-0.000107024
0.00308796
-0.000108822
0.00308395
-0.000110525
0.00307991
-0.000112136
0.00307583
-0.000113662
0.00307172
-0.000115106
0.00306758
-0.000116476
0.00306341
-0.000117777
0.00305921
-0.000119014
0.00305499
-0.000120193
0.00305075
-0.000121319
0.00304648
-0.000122399
0.0030422
-0.000123437
-0.000124439
0.00319696
1.87821e-05
-0.00319693
0.00319686
1.47599e-05
0.00319663
1.06742e-05
0.00319626
6.53611e-06
0.00319574
2.34634e-06
0.00319507
-1.88967e-06
0.00319424
-6.16278e-06
0.00319326
-1.0462e-05
0.00319212
-1.4775e-05
0.00319082
-1.90888e-05
0.00318936
-2.33904e-05
0.00318776
-2.76672e-05
0.00318601
-3.19072e-05
0.00318411
-3.60989e-05
0.00318207
-4.02317e-05
0.0031799
-4.42958e-05
0.0031776
-4.82821e-05
0.00317517
-5.21823e-05
0.00317262
-5.5989e-05
0.00316996
-5.96957e-05
0.00316718
-6.32966e-05
0.0031643
-6.67867e-05
0.00316132
-7.0162e-05
0.00315824
-7.34193e-05
0.00315508
-7.65559e-05
0.00315182
-7.95705e-05
0.00314849
-8.24619e-05
0.00314507
-8.52302e-05
0.00314159
-8.78759e-05
0.00313804
-9.04003e-05
0.00313442
-9.28051e-05
0.00313074
-9.50929e-05
0.00312701
-9.72666e-05
0.00312322
-9.93295e-05
0.00311938
-0.000101285
0.00311549
-0.000103139
0.00311156
-0.000104894
0.0031076
-0.000106555
0.00310359
-0.000108128
0.00309954
-0.000109618
0.00309547
-0.000111029
0.00309136
-0.000112368
0.00308722
-0.000113639
0.00308305
-0.000114848
0.00307886
-0.000116001
0.00307464
-0.000117103
0.00307041
-0.000118159
0.00306614
-0.000119176
-0.000120157
0.00321852
1.87021e-05
-0.00321844
0.00321847
1.48059e-05
0.00321829
1.08525e-05
0.00321798
6.85294e-06
0.00321752
2.8077e-06
0.00321691
-1.27892e-06
0.00321614
-5.39917e-06
0.00321522
-9.54349e-06
0.00321415
-1.37009e-05
0.00321292
-1.78598e-05
0.00321154
-2.20081e-05
0.00321
-2.61341e-05
0.00320832
-3.02263e-05
0.0032065
-3.42739e-05
0.00320453
-3.82665e-05
0.00320243
-4.21947e-05
0.0032002
-4.60496e-05
0.00319784
-4.98231e-05
0.00319536
-5.35079e-05
0.00319276
-5.70976e-05
0.00319005
-6.05863e-05
0.00318723
-6.39692e-05
0.00318431
-6.72422e-05
0.0031813
-7.0402e-05
0.00317819
-7.34461e-05
0.00317499
-7.63727e-05
0.00317171
-7.9181e-05
0.00316835
-8.18705e-05
0.00316491
-8.44419e-05
0.00316141
-8.68961e-05
0.00315784
-8.9235e-05
0.00315421
-9.14606e-05
0.00315052
-9.35759e-05
0.00314677
-9.5584e-05
0.00314297
-9.74886e-05
0.00313913
-9.92936e-05
0.00313524
-0.000101003
0.00313131
-0.000102623
0.00312733
-0.000104156
0.00312333
-0.000105608
0.00311928
-0.000106985
0.0031152
-0.000108291
0.0031111
-0.000109531
0.00310696
-0.000110712
0.0031028
-0.000111838
0.00309861
-0.000112914
0.0030944
-0.000113946
0.00309016
-0.00011494
-0.000115899
0.00324021
1.85714e-05
-0.00324008
0.00324021
1.48011e-05
0.00324009
1.09794e-05
0.00323982
7.11672e-06
0.00323942
3.2139e-06
0.00323886
-7.25775e-07
0.00323816
-4.69566e-06
0.0032373
-8.68745e-06
0.00323629
-1.26914e-05
0.00323513
-1.6697e-05
0.00323382
-2.06933e-05
0.00323235
-2.46693e-05
0.00323074
-2.86142e-05
0.00322898
-3.25178e-05
0.00322709
-3.637e-05
0.00322505
-4.01619e-05
0.00322289
-4.38847e-05
0.0032206
-4.75306e-05
0.00321818
-5.10924e-05
0.00321565
-5.45637e-05
0.003213
-5.7939e-05
0.00321024
-6.12133e-05
0.00320738
-6.43824e-05
0.00320443
-6.74432e-05
0.00320137
-7.03931e-05
0.00319823
-7.32303e-05
0.003195
-7.59536e-05
0.00319169
-7.85628e-05
0.00318831
-8.10582e-05
0.00318486
-8.34407e-05
0.00318133
-8.57119e-05
0.00317775
-8.78739e-05
0.0031741
-8.99293e-05
0.0031704
-9.18811e-05
0.00316664
-9.37328e-05
0.00316283
-9.54882e-05
0.00315898
-9.71515e-05
0.00315509
-9.8727e-05
0.00315115
-0.000100219
0.00314718
-0.000101633
0.00314316
-0.000102974
0.00313912
-0.000104246
0.00313504
-0.000105455
0.00313094
-0.000106605
0.0031268
-0.000107703
0.00312264
-0.000108753
0.00311845
-0.00010976
0.00311424
-0.00011073
-0.000111667
0.00326203
1.8391e-05
-0.00326185
0.00326209
1.47468e-05
0.00326201
1.10562e-05
0.0032618
7.32937e-06
0.00326144
3.56725e-06
0.00326095
-2.27543e-07
0.0032603
-4.04927e-06
0.0032595
-7.8907e-06
0.00325855
-1.17432e-05
0.00325745
-1.55972e-05
0.0032562
-1.94428e-05
0.0032548
-2.32697e-05
0.00325326
-2.70679e-05
0.00325157
-3.08277e-05
0.00324974
-3.45396e-05
0.00324777
-3.81947e-05
0.00324567
-4.17849e-05
0.00324344
-4.53024e-05
0.00324109
-4.87403e-05
0.00323862
-5.20923e-05
0.00323603
-5.53529e-05
0.00323334
-5.85172e-05
0.00323053
-6.15812e-05
0.00322763
-6.45416e-05
0.00322464
-6.73958e-05
0.00322155
-7.01419e-05
0.00321837
-7.27788e-05
0.00321512
-7.53061e-05
0.00321178
-7.7724e-05
0.00320837
-8.00332e-05
0.0032049
-8.22353e-05
0.00320136
-8.43321e-05
0.00319775
-8.63261e-05
0.00319409
-8.82201e-05
0.00319038
-9.00176e-05
0.00318661
-9.1722e-05
0.0031828
-9.33374e-05
0.00317894
-9.48679e-05
0.00317504
-9.63181e-05
0.0031711
-9.76925e-05
0.00316712
-9.89958e-05
0.0031631
-0.000100233
0.00315906
-0.000101409
0.00315498
-0.000102529
0.00315088
-0.000103597
0.00314674
-0.000104619
0.00314258
-0.0001056
0.0031384
-0.000106545
-0.000107458
0.00328399
1.8162e-05
-0.00328377
0.0032841
1.46442e-05
0.00328407
1.10846e-05
0.00328391
7.49272e-06
0.0032836
3.86994e-06
0.00328316
2.18288e-07
0.00328257
-3.45721e-06
0.00328182
-7.15021e-06
0.00328093
-1.0853e-05
0.00327989
-1.45571e-05
0.0032787
-1.82532e-05
0.00327737
-2.19321e-05
0.00327588
-2.55843e-05
0.00327426
-2.92007e-05
0.00327249
-3.27722e-05
0.00327059
-3.62906e-05
0.00326855
-3.97477e-05
0.00326638
-4.31363e-05
0.00326409
-4.64495e-05
0.00326168
-4.96812e-05
0.00325915
-5.28261e-05
0.00325652
-5.58793e-05
0.00325377
-5.88369e-05
0.00325092
-6.16956e-05
0.00324798
-6.44527e-05
0.00324495
-6.71064e-05
0.00324182
-6.96555e-05
0.00323862
-7.20994e-05
0.00323533
-7.44383e-05
0.00323197
-7.66728e-05
0.00322854
-7.88043e-05
0.00322504
-8.08344e-05
0.00322148
-8.27657e-05
0.00321786
-8.46006e-05
0.00321419
-8.63424e-05
0.00321046
-8.79946e-05
0.00320668
-8.95608e-05
0.00320286
-9.10452e-05
0.00319899
-9.2452e-05
0.00319509
-9.37856e-05
0.00319114
-9.50506e-05
0.00318716
-9.62517e-05
0.00318314
-9.73938e-05
0.0031791
-9.84815e-05
0.00317502
-9.95197e-05
0.00317091
-0.000100513
0.00316678
-0.000101467
0.00316262
-0.000102386
-0.000103275
0.0033061
1.78858e-05
-0.00330582
0.00330625
1.44947e-05
0.00330627
1.1066e-05
0.00330615
7.60854e-06
0.0033059
4.12402e-06
0.0033055
6.14083e-07
0.00330496
-2.91683e-06
0.00330428
-6.46311e-06
0.00330344
-1.00179e-05
0.00330246
-1.35735e-05
0.00330132
-1.71215e-05
0.00330005
-2.06534e-05
0.00329862
-2.41604e-05
0.00329706
-2.76338e-05
0.00329535
-3.10653e-05
0.0032935
-3.44467e-05
0.00329153
-3.77706e-05
0.00328942
-4.10297e-05
0.00328719
-4.42176e-05
0.00328484
-4.73284e-05
0.00328237
-5.03566e-05
0.00327979
-5.32977e-05
0.0032771
-5.61478e-05
0.0032743
-5.89035e-05
0.00327141
-6.15624e-05
0.00326843
-6.41223e-05
0.00326536
-6.65822e-05
0.0032622
-6.89414e-05
0.00325896
-7.11999e-05
0.00325565
-7.33584e-05
0.00325226
-7.54179e-05
0.0032488
-7.73801e-05
0.00324529
-7.92472e-05
0.00324171
-8.10217e-05
0.00323807
-8.27066e-05
0.00323438
-8.43052e-05
0.00323064
-8.58211e-05
0.00322686
-8.72581e-05
0.00322302
-8.86204e-05
0.00321915
-8.99121e-05
0.00321524
-9.11377e-05
0.00321129
-9.23018e-05
0.0032073
-9.34088e-05
0.00320328
-9.44635e-05
0.00319924
-9.54705e-05
0.00319516
-9.64346e-05
0.00319105
-9.73603e-05
0.00318692
-9.82524e-05
-9.91153e-05
0.00332835
1.75633e-05
-0.00332803
0.00332855
1.42996e-05
0.00332861
1.10019e-05
0.00332854
7.67851e-06
0.00332833
4.33145e-06
0.00332799
9.62085e-07
0.0033275
-2.42562e-06
0.00332686
-5.82668e-06
0.00332608
-9.23495e-06
0.00332515
-1.26435e-05
0.00332407
-1.60446e-05
0.00332285
-1.94305e-05
0.00332148
-2.2793e-05
0.00331997
-2.61241e-05
0.00331832
-2.94158e-05
0.00331653
-3.26605e-05
0.00331461
-3.58509e-05
0.00331256
-3.89803e-05
0.00331039
-4.20424e-05
0.00330809
-4.50314e-05
0.00330568
-4.79423e-05
0.00330315
-5.07704e-05
0.00330051
-5.3512e-05
0.00329777
-5.61637e-05
0.00329494
-5.87231e-05
0.003292
-6.11881e-05
0.00328898
-6.35576e-05
0.00328587
-6.58308e-05
0.00328267
-6.80077e-05
0.0032794
-7.00888e-05
0.00327606
-7.20751e-05
0.00327265
-7.3968e-05
0.00326917
-7.57698e-05
0.00326563
-7.74826e-05
0.00326204
-7.91094e-05
0.00325838
-8.06533e-05
0.00325468
-8.21176e-05
0.00325093
-8.35062e-05
0.00324713
-8.48228e-05
0.00324329
-8.60715e-05
0.00323941
-8.72567e-05
0.00323549
-8.83826e-05
0.00323153
-8.94537e-05
0.00322755
-9.04744e-05
0.00322352
-9.14492e-05
0.00321947
-9.23827e-05
0.00321539
-9.32794e-05
0.00321128
-9.41438e-05
-9.49802e-05
0.00335075
1.7196e-05
-0.00335039
0.00335099
1.40601e-05
0.0033511
1.08938e-05
0.00335108
7.7043e-06
0.00335091
4.49413e-06
0.00335061
1.26443e-06
0.00335017
-1.98122e-06
0.00334958
-5.23833e-06
0.00334884
-8.50141e-06
0.00334797
-1.17641e-05
0.00334694
-1.50196e-05
0.00334577
-1.82605e-05
0.00334446
-2.14793e-05
0.003343
-2.46686e-05
0.00334141
-2.78208e-05
0.00333967
-3.09289e-05
0.00333781
-3.3986e-05
0.00333581
-3.69854e-05
0.00333369
-3.99213e-05
0.00333145
-4.27881e-05
0.00332909
-4.55809e-05
0.00332661
-4.82953e-05
0.00332403
-5.09274e-05
0.00332134
-5.34742e-05
0.00331855
-5.59331e-05
0.00331566
-5.83022e-05
0.00331269
-6.05801e-05
0.00330962
-6.27662e-05
0.00330647
-6.48602e-05
0.00330325
-6.68627e-05
0.00329995
-6.87745e-05
0.00329658
-7.05971e-05
0.00329314
-7.23323e-05
0.00328964
-7.39823e-05
0.00328608
-7.55498e-05
0.00328246
-7.70378e-05
0.0032788
-7.84495e-05
0.00327508
-7.97885e-05
0.00327131
-8.10584e-05
0.00326751
-8.22632e-05
0.00326366
-8.34069e-05
0.00325977
-8.44937e-05
0.00325584
-8.55278e-05
0.00325188
-8.65136e-05
0.00324789
-8.74553e-05
0.00324386
-8.83574e-05
0.00323981
-8.92241e-05
0.00323572
-9.00599e-05
-9.08689e-05
0.00337331
1.67851e-05
-0.0033729
0.00337359
1.37778e-05
0.00337374
1.07431e-05
0.00337376
7.68754e-06
0.00337364
4.61389e-06
0.00337338
1.52318e-06
0.00337298
-1.58133e-06
0.00337244
-4.69559e-06
0.00337175
-7.81461e-06
0.00337092
-1.09327e-05
0.00336994
-1.40435e-05
0.00336882
-1.71403e-05
0.00336756
-2.02163e-05
0.00336616
-2.32644e-05
0.00336461
-2.62777e-05
0.00336293
-2.92494e-05
0.00336112
-3.2173e-05
0.00335918
-3.50424e-05
0.00335711
-3.78519e-05
0.00335492
-4.0596e-05
0.00335261
-4.32702e-05
0.00335018
-4.58701e-05
0.00334765
-4.83921e-05
0.003345
-5.0833e-05
0.00334226