/*--------------------------------*- C++ -*----------------------------------*\
  =========                 |
  \\      /  F ield         | OpenFOAM: The Open Source CFD Toolbox
   \\    /   O peration     | Website:  https://openfoam.org
    \\  /    A nd           | Version:  7
     \\/     M anipulation  |
\*---------------------------------------------------------------------------*/
FoamFile
{
    version     2.0;
    format      ascii;
    class       volScalarField;
    location    "10";
    object      p;
}
// * * * * * * * * * * * * * * * * * * * * * * * * * * * * * * * * * * * * * //

dimensions      [0 2 -2 0 0 0 0];

internalField   nonuniform List<scalar> 
2625
(
-0.141932
-0.123442
-0.11724
-0.0962408
-0.172839
-0.154786
-0.142003
-0.123453
-0.117386
-0.0960838
-0.17295
-0.154875
-0.142145
-0.123477
-0.117674
-0.0957741
-0.173117
-0.155009
-0.142356
-0.123514
-0.1181
-0.0953198
-0.173337
-0.155187
-0.142634
-0.123566
-0.118656
-0.0947329
-0.173609
-0.155408
-0.142975
-0.123633
-0.119331
-0.0940289
-0.173931
-0.155671
-0.143376
-0.123719
-0.120112
-0.0932264
-0.1743
-0.155975
-0.143832
-0.123825
-0.120987
-0.0923465
-0.174714
-0.156317
-0.144338
-0.123954
-0.121939
-0.0914126
-0.156698
-0.144888
-0.124108
-0.122951
-0.0904494
-0.157114
-0.145477
-0.124289
-0.124006
-0.0894825
-0.157562
-0.146097
-0.124501
-0.125086
-0.0885378
-0.158041
-0.146741
-0.124743
-0.126174
-0.0876403
-0.158546
-0.147402
-0.125018
-0.127251
-0.0868142
-0.159075
-0.148073
-0.125326
-0.128303
-0.0860817
-0.159622
-0.148745
-0.125666
-0.129312
-0.0854627
-0.160184
-0.149412
-0.126039
-0.130264
-0.084974
-0.160756
-0.150065
-0.12644
-0.131146
-0.084629
-0.161332
-0.150696
-0.126868
-0.131946
-0.0844377
-0.161906
-0.151298
-0.127319
-0.132655
-0.0844057
-0.162472
-0.151864
-0.127788
-0.133265
-0.0845349
-0.163024
-0.152386
-0.128269
-0.133767
-0.0848231
-0.152857
-0.128756
-0.134158
-0.0852642
-0.153272
-0.129242
-0.134434
-0.0858486
-0.153622
-0.12972
-0.134593
-0.0865637
-0.153903
-0.130182
-0.134635
-0.087394
-0.154109
-0.130619
-0.13456
-0.0883221
-0.154234
-0.131025
-0.13437
-0.0893289
-0.154275
-0.131391
-0.134068
-0.0903943
-0.154226
-0.13171
-0.133655
-0.0914979
-0.131973
-0.133135
-0.0926194
-0.132175
-0.132511
-0.093739
-0.132308
-0.131786
-0.0948381
-0.132366
-0.13096
-0.0959008
-0.132345
-0.130036
-0.0969166
-0.132239
-0.129013
-0.0978776
-0.127886
-0.0987573
-0.126641
-0.0995161
-0.125258
-0.100306
-0.123761
-0.101807
-0.1045
-0.1056
-0.105925
-0.105894
-0.096182
-0.0950795
-0.0935141
-0.0920018
-0.0905201
-0.0890225
-0.0875114
-0.0859946
-0.0844752
-0.0829551
-0.0814361
-0.0799197
-0.0784073
-0.0769
-0.0753986
-0.0739037
-0.0724159
-0.0709356
-0.0694628
-0.0679977
-0.0665403
-0.0650905
-0.063648
-0.0622126
-0.0607839
-0.0593615
-0.057945
-0.0565339
-0.0551276
-0.0537257
-0.0523275
-0.0509325
-0.0495402
-0.04815
-0.0467613
-0.0453738
-0.0439869
-0.0426002
-0.0412136
-0.0398267
-0.0384395
-0.0370519
-0.035664
-0.09637
-0.0952703
-0.0936735
-0.0921419
-0.0906477
-0.0891392
-0.0876184
-0.0860934
-0.084567
-0.0830408
-0.0815166
-0.0799958
-0.0784796
-0.076969
-0.0754647
-0.0739674
-0.0724774
-0.0709952
-0.0695207
-0.0680542
-0.0665955
-0.0651446
-0.0637011
-0.0622648
-0.0608353
-0.0594123
-0.0579952
-0.0565835
-0.0551768
-0.0537744
-0.0523759
-0.0509805
-0.0495879
-0.0481973
-0.0468084
-0.0454205
-0.0440334
-0.0426465
-0.0412595
-0.0398724
-0.0384848
-0.0370969
-0.0357087
-0.0967429
-0.095649
-0.0939902
-0.0924205
-0.0909018
-0.0893717
-0.0878317
-0.0862903
-0.08475
-0.083212
-0.0816775
-0.0801478
-0.078624
-0.0771068
-0.0755968
-0.0740945
-0.0726002
-0.0711141
-0.0696364
-0.068167
-0.0667058
-0.0652526
-0.0638071
-0.0623691
-0.0609381
-0.0595136
-0.0580953
-0.0566826
-0.0552749
-0.0538716
-0.0524723
-0.0510762
-0.0496829
-0.0482917
-0.0469021
-0.0455137
-0.044126
-0.0427385
-0.041351
-0.0399633
-0.0385751
-0.0371865
-0.0357976
-0.0972945
-0.0962101
-0.0944602
-0.0928345
-0.0912799
-0.089718
-0.0881497
-0.0865841
-0.0850232
-0.0834674
-0.0819177
-0.0803749
-0.0788397
-0.0773126
-0.0757941
-0.0742843
-0.0727835
-0.0712918
-0.0698091
-0.0683353
-0.0668703
-0.0654137
-0.0639653
-0.0625246
-0.0610913
-0.0596648
-0.0582446
-0.0568302
-0.055421
-0.0540164
-0.0526158
-0.0512186
-0.0498242
-0.0484321
-0.0470416
-0.0456523
-0.0442637
-0.0428754
-0.041487
-0.0400984
-0.0387093
-0.0373197
-0.0359298
-0.0980156
-0.0969447
-0.0950771
-0.0933791
-0.0917779
-0.0901748
-0.0885696
-0.0869724
-0.0853845
-0.0838056
-0.0822358
-0.0806757
-0.0791254
-0.0775853
-0.0760554
-0.0745358
-0.0730264
-0.0715271
-0.0700378
-0.0685582
-0.067088
-0.0656269
-0.0641745
-0.0627303
-0.0612938
-0.0598645
-0.0584418
-0.0570251
-0.0556139
-0.0542075
-0.0528052
-0.0514065
-0.0500107
-0.0486173
-0.0472255
-0.045835
-0.0444452
-0.0430557
-0.0416662
-0.0402763
-0.0388859
-0.0374951
-0.0361037
-0.0988938
-0.0978413
-0.0958326
-0.0940477
-0.0923905
-0.0907377
-0.0890878
-0.0874522
-0.0858314
-0.084224
-0.0826297
-0.0810483
-0.0794796
-0.0779233
-0.0763794
-0.0748475
-0.0733274
-0.0718187
-0.0703211
-0.0688342
-0.0673576
-0.0658908
-0.0644333
-0.0629846
-0.0615441
-0.0601112
-0.0586854
-0.0572659
-0.055852
-0.0544433
-0.0530389
-0.0516382
-0.0502406
-0.0488454
-0.0474521
-0.04606
-0.0446687
-0.0432777
-0.0418866
-0.0404952
-0.0391033
-0.0377107
-0.0363176
-0.0999138
-0.0988854
-0.0967158
-0.0948319
-0.093111
-0.091401
-0.0896996
-0.0880195
-0.0863605
-0.08472
-0.0830969
-0.0814904
-0.0798999
-0.0783246
-0.0767641
-0.0752176
-0.0736847
-0.0721647
-0.0706572
-0.0691616
-0.0676772
-0.0662035
-0.06474
-0.0632858
-0.0618405
-0.0604033
-0.0589735
-0.0575504
-0.0561335
-0.0547218
-0.0533148
-0.0519116
-0.0505118
-0.0491145
-0.0477191
-0.0463251
-0.0449319
-0.0435391
-0.0421462
-0.0407529
-0.039359
-0.0379644
-0.0365692
-0.101058
-0.10006
-0.0977141
-0.0957217
-0.0939309
-0.0921579
-0.0903992
-0.0886695
-0.0869675
-0.0852897
-0.083634
-0.0819991
-0.0803838
-0.0787868
-0.0772071
-0.0756439
-0.0740962
-0.0725632
-0.0710441
-0.0695383
-0.0680449
-0.0665631
-0.0650924
-0.0636318
-0.0621807
-0.0607384
-0.0593039
-0.0578767
-0.0564559
-0.0550408
-0.0536306
-0.0522245
-0.0508219
-0.049422
-0.0480243
-0.0466279
-0.0452325
-0.0438374
-0.0424423
-0.0410468
-0.0396506
-0.0382537
-0.036856
-0.102305
-0.101345
-0.0988126
-0.0967052
-0.0948404
-0.0930001
-0.0911797
-0.0893962
-0.0876475
-0.0859288
-0.0842373
-0.082571
-0.080928
-0.0793068
-0.0777058
-0.0761237
-0.0745593
-0.0730116
-0.0714795
-0.069962
-0.0684582
-0.0669673
-0.0654883
-0.0640203
-0.0625626
-0.0611142
-0.0596744
-0.0582422
-0.0568169
-0.0553977
-0.0539837
-0.0525742
-0.0511684
-0.0497655
-0.0483648
-0.0469658
-0.0455677
-0.04417
-0.0427723
-0.0413742
-0.0399754
-0.0385758
-0.0371752
-0.103633
-0.102719
-0.0999946
-0.097769
-0.0958283
-0.093918
-0.092033
-0.0901927
-0.0883944
-0.086632
-0.084902
-0.0832018
-0.0815289
-0.0798812
-0.0782568
-0.076654
-0.0750713
-0.0735072
-0.0719606
-0.0704301
-0.0689147
-0.0674134
-0.065925
-0.0644487
-0.0629834
-0.0615282
-0.0600821
-0.0586443
-0.0572139
-0.05579
-0.0543716
-0.0529581
-0.0515485
-0.050142
-0.048738
-0.0473358
-0.0459346
-0.0445339
-0.0431332
-0.0417321
-0.0403303
-0.0389276
-0.0375239
-0.105018
-0.104159
-0.101242
-0.098898
-0.0968816
-0.0949007
-0.0929498
-0.0910511
-0.0892014
-0.0873935
-0.085623
-0.0838869
-0.0821822
-0.0805063
-0.0788567
-0.0772316
-0.0756289
-0.074047
-0.0724844
-0.0709397
-0.0694115
-0.0678987
-0.0663999
-0.0649142
-0.0634404
-0.0619775
-0.0605245
-0.0590803
-0.057644
-0.0562146
-0.0547913
-0.0533731
-0.0519592
-0.0505487
-0.0491409
-0.047735
-0.0463302
-0.0449261
-0.043522
-0.0421176
-0.0407123
-0.0393062
-0.0378989
-0.106434
-0.105638
-0.102534
-0.100076
-0.0979865
-0.0959363
-0.0939197
-0.0919625
-0.0900607
-0.0882063
-0.0863943
-0.084621
-0.0828831
-0.0811775
-0.0795015
-0.0778525
-0.0762286
-0.0746276
-0.0730479
-0.0714877
-0.0699456
-0.0684202
-0.0669101
-0.0654141
-0.0639309
-0.0624594
-0.0609986
-0.0595472
-0.0581043
-0.0566689
-0.05524
-0.0538165
-0.0523977
-0.0509826
-0.0495704
-0.0481603
-0.0467516
-0.0453435
-0.0439356
-0.0425274
-0.0411184
-0.0397084
-0.0382972
-0.107857
-0.10713
-0.10385
-0.101286
-0.0991279
-0.0970116
-0.0949316
-0.092917
-0.0909638
-0.089063
-0.0872091
-0.0853981
-0.0836263
-0.0818901
-0.0801865
-0.0785128
-0.0768665
-0.0752454
-0.0736475
-0.0720709
-0.0705139
-0.0689749
-0.0674525
-0.0659452
-0.0644518
-0.062971
-0.0615015
-0.0600422
-0.058592
-0.0571498
-0.0557146
-0.0542853
-0.052861
-0.0514407
-0.0500236
-0.0486088
-0.0471955
-0.0457831
-0.044371
-0.0429585
-0.0415453
-0.0401311
-0.0387157
-0.109259
-0.108611
-0.10517
-0.102509
-0.10029
-0.0981129
-0.0959734
-0.0939042
-0.0919015
-0.0899554
-0.0880603
-0.0862118
-0.0844059
-0.0826388
-0.0809072
-0.0792081
-0.0775387
-0.0758966
-0.0742796
-0.0726857
-0.0711129
-0.0695595
-0.068024
-0.0665047
-0.0650002
-0.0635092
-0.0620303
-0.0605624
-0.0591042
-0.0576546
-0.0562124
-0.0547766
-0.0533462
-0.0519201
-0.0504975
-0.0490775
-0.0476592
-0.046242
-0.0448251
-0.043408
-0.0419902
-0.0405714
-0.0391514
-0.03773
-0.110619
-0.110054
-0.106471
-0.103727
-0.101457
-0.0992257
-0.0970322
-0.0949129
-0.0928638
-0.0908748
-0.08894
-0.0870551
-0.0852157
-0.083418
-0.0816583
-0.0799335
-0.0782407
-0.0765772
-0.0749406
-0.0733286
-0.0717394
-0.0701709
-0.0686214
-0.0670893
-0.0655731
-0.0640712
-0.0625822
-0.0611049
-0.059638
-0.0581803
-0.0567305
-0.0552876
-0.0538504
-0.052418
-0.0509894
-0.0495636
-0.0481398
-0.0467172
-0.0452951
-0.043873
-0.0424502
-0.0410264
-0.0396013
-0.0381749
-0.111911
-0.111435
-0.107734
-0.104923
-0.102611
-0.100335
-0.0980952
-0.0959314
-0.0938405
-0.091812
-0.0898402
-0.0879207
-0.0860492
-0.0842217
-0.0824345
-0.0806843
-0.078968
-0.0772829
-0.0756263
-0.073996
-0.0723898
-0.0708057
-0.0692417
-0.0676962
-0.0661675
-0.0646541
-0.0631544
-0.0616671
-0.0601908
-0.0587243
-0.0572663
-0.0558156
-0.0543711
-0.0529318
-0.0514966
-0.0500645
-0.0486346
-0.0472062
-0.0457785
-0.0443508
-0.0429226
-0.0414934
-0.040063
-0.0386312
-0.113117
-0.11273
-0.108939
-0.106079
-0.103738
-0.101428
-0.0991492
-0.0969481
-0.094821
-0.0927575
-0.0907522
-0.0888009
-0.0868995
-0.0850437
-0.0832301
-0.0814552
-0.079716
-0.0780094
-0.076333
-0.0746842
-0.0730607
-0.0714606
-0.0698817
-0.0683223
-0.0667807
-0.0652551
-0.0637441
-0.0622462
-0.06076
-0.0592841
-0.0578173
-0.0563583
-0.0549059
-0.0534591
-0.0520167
-0.0505778
-0.0491414
-0.0477066
-0.0462728
-0.0448391
-0.043405
-0.0419701
-0.0405339
-0.0390964
-0.114217
-0.113921
-0.110067
-0.107178
-0.104822
-0.102488
-0.100181
-0.0979512
-0.0957947
-0.0937019
-0.0916676
-0.0896881
-0.0877595
-0.0858778
-0.0840395
-0.0822412
-0.0804798
-0.0787525
-0.0770565
-0.0753893
-0.0737487
-0.0721324
-0.0705384
-0.0689648
-0.0674098
-0.0658717
-0.0643489
-0.0628399
-0.0613432
-0.0598574
-0.0583812
-0.0569133
-0.0554525
-0.0539976
-0.0525475
-0.0511012
-0.0496578
-0.0482162
-0.0467758
-0.0453357
-0.0438953
-0.0424542
-0.041012
-0.0395684
-0.115197
-0.11499
-0.111102
-0.108205
-0.105848
-0.103503
-0.101179
-0.0989293
-0.0967513
-0.0946355
-0.0925777
-0.0905744
-0.0886223
-0.0867175
-0.0848568
-0.0830369
-0.0812548
-0.0795076
-0.0777928
-0.0761078
-0.0744502
-0.0728179
-0.0712087
-0.0696208
-0.0680522
-0.0665013
-0.0649664
-0.0634458
-0.0619382
-0.060442
-0.0589559
-0.0574786
-0.0560089
-0.0545454
-0.0530872
-0.051633
-0.050182
-0.0487332
-0.0472856
-0.0458387
-0.0443917
-0.042944
-0.0414953
-0.0400453
-0.116045
-0.115922
-0.112032
-0.109148
-0.106805
-0.104461
-0.102131
-0.0998717
-0.0976807
-0.0955493
-0.093474
-0.0914522
-0.0894807
-0.0875564
-0.0856762
-0.083837
-0.082036
-0.0802705
-0.078538
-0.0768359
-0.075162
-0.073514
-0.0718899
-0.0702877
-0.0687055
-0.0671416
-0.0655943
-0.0640619
-0.062543
-0.0610361
-0.0595397
-0.0580526
-0.0565734
-0.0551009
-0.053634
-0.0521715
-0.0507125
-0.0492559
-0.0478008
-0.0463466
-0.0448924
-0.0434378
-0.0419823
-0.0405256
-0.116754
-0.116708
-0.112846
-0.109996
-0.10768
-0.10535
-0.103027
-0.100768
-0.0985735
-0.0964345
-0.0943485
-0.0923139
-0.0903281
-0.0883884
-0.086492
-0.0846364
-0.0828189
-0.0810369
-0.0792882
-0.0775702
-0.0758808
-0.0742178
-0.0725792
-0.0709629
-0.0693673
-0.0677904
-0.0662306
-0.0646863
-0.0631559
-0.0616379
-0.0601309
-0.0586336
-0.0571446
-0.0556626
-0.0541866
-0.0527154
-0.0512478
-0.049783
-0.0483201
-0.0468581
-0.0453964
-0.0439345
-0.0424718
-0.0410079
-0.0395428
-0.117317
-0.117341
-0.113535
-0.110739
-0.108464
-0.106162
-0.103857
-0.10161
-0.0994212
-0.0972829
-0.0951936
-0.0931526
-0.0911579
-0.0892074
-0.0872988
-0.0854301
-0.0835988
-0.0818027
-0.0800395
-0.0783072
-0.0766035
-0.0749264
-0.073274
-0.0716442
-0.0700354
-0.0684458
-0.0668736
-0.0653173
-0.0637752
-0.062246
-0.0607282
-0.0592203
-0.0577212
-0.0562294
-0.0547439
-0.0532635
-0.0517871
-0.0503137
-0.0488423
-0.0473723
-0.0459027
-0.044433
-0.0429627
-0.0414915
-0.0400191
-0.117734
-0.117817
-0.114095
-0.111371
-0.10915
-0.106889
-0.104614
-0.10239
-0.100216
-0.0980871
-0.0960023
-0.0939615
-0.0919638
-0.0900076
-0.0880914
-0.0862132
-0.0843713
-0.0825637
-0.0807884
-0.0790436
-0.0773271
-0.0756372
-0.0739718
-0.0723294
-0.070708
-0.0691059
-0.0675216
-0.0659533
-0.0643997
-0.0628592
-0.0613303
-0.0598118
-0.0583022
-0.0568004
-0.0553051
-0.0538151
-0.0523294
-0.050847
-0.0493669
-0.0478884
-0.0464105
-0.0449327
-0.0434545
-0.0419755
-0.0404954
-0.118006
-0.118137
-0.114523
-0.111889
-0.109734
-0.107524
-0.105291
-0.1031
-0.100952
-0.0988407
-0.0967682
-0.0947348
-0.0927403
-0.0907839
-0.0888647
-0.0869813
-0.0851323
-0.0833163
-0.0815315
-0.0797762
-0.0780488
-0.0763475
-0.0746705
-0.0730163
-0.071383
-0.0697691
-0.068173
-0.0665932
-0.0650281
-0.0634764
-0.0619365
-0.0604071
-0.058887
-0.0573748
-0.0558694
-0.0543696
-0.0528744
-0.0513826
-0.0498934
-0.048406
-0.0469195
-0.0454332
-0.0439468
-0.0424596
-0.0409716
-0.118138
-0.118305
-0.11482
-0.112291
-0.110212
-0.108063
-0.105884
-0.103736
-0.101622
-0.0995381
-0.0974858
-0.095467
-0.0934821
-0.0915313
-0.0896142
-0.08773
-0.0858779
-0.0840568
-0.0822654
-0.0805023
-0.078766
-0.0770551
-0.0753679
-0.0737031
-0.0720589
-0.070434
-0.0688268
-0.0672358
-0.0656595
-0.0640967
-0.0625458
-0.0610057
-0.0594749
-0.0579523
-0.0564366
-0.0549267
-0.0534216
-0.0519202
-0.0504216
-0.048925
-0.0474294
-0.0459344
-0.0444393
-0.0429438
-0.0414475
-0.118136
-0.118326
-0.114988
-0.112576
-0.110583
-0.108506
-0.106389
-0.104294
-0.102223
-0.100175
-0.0981505
-0.0961534
-0.0941848
-0.0922455
-0.0903358
-0.0884556
-0.0866045
-0.084782
-0.0829871
-0.0812189
-0.0794761
-0.0777576
-0.076062
-0.074388
-0.0727342
-0.0710992
-0.0694816
-0.06788
-0.0662931
-0.0647195
-0.0631579
-0.061607
-0.0600656
-0.0585324
-0.0570064
-0.0554863
-0.0539711
-0.0524598
-0.0509515
-0.0494453
-0.0479405
-0.0464363
-0.0449323
-0.043428
-0.041923
-0.0404174
-0.118008
-0.118208
-0.115034
-0.112749
-0.110847
-0.10885
-0.106804
-0.104771
-0.102752
-0.100747
-0.0987584
-0.0967902
-0.0948444
-0.0929226
-0.0910257
-0.0891544
-0.0873088
-0.0854888
-0.0836939
-0.0819235
-0.0801769
-0.0784531
-0.076751
-0.0750695
-0.0734074
-0.0717635
-0.0701365
-0.0685251
-0.0669281
-0.0653442
-0.0637722
-0.0622108
-0.0606589
-0.0591152
-0.0575787
-0.0560483
-0.0545229
-0.0530015
-0.0514833
-0.0499673
-0.0484528
-0.0469392
-0.0454259
-0.0439125
-0.0423987
-0.0408843
-0.117764
-0.117962
-0.114963
-0.112812
-0.111008
-0.109097
-0.10713
-0.105166
-0.103207
-0.101252
-0.0993067
-0.0973742
-0.0954576
-0.0935593
-0.0916808
-0.0898234
-0.0879877
-0.0861743
-0.0843831
-0.0826139
-0.0808663
-0.0791397
-0.0774333
-0.0757461
-0.0740774
-0.0724259
-0.0707905
-0.0691703
-0.067564
-0.0659704
-0.0643884
-0.0628169
-0.0612547
-0.0597007
-0.0581538
-0.0566129
-0.0550772
-0.0535456
-0.0520172
-0.0504912
-0.0489669
-0.0474435
-0.0459207
-0.0443979
-0.0428748
-0.0413513
-0.117416
-0.117599
-0.114783
-0.112772
-0.111069
-0.109249
-0.107367
-0.105479
-0.103586
-0.101689
-0.0997932
-0.0979029
-0.0960218
-0.0941528
-0.0922982
-0.0904597
-0.0886387
-0.0868361
-0.0850524
-0.0832878
-0.0815423
-0.0798155
-0.0781071
-0.0764165
-0.0747428
-0.0730853
-0.071443
-0.069815
-0.0682002
-0.0665977
-0.0650063
-0.0634251
-0.0618529
-0.0602888
-0.0587316
-0.0571805
-0.0556344
-0.0540924
-0.0525538
-0.0510176
-0.0494831
-0.0479498
-0.0464171
-0.0448846
-0.043352
-0.0418191
-0.116975
-0.117133
-0.114504
-0.112635
-0.111035
-0.10931
-0.107518
-0.105711
-0.103891
-0.102057
-0.100217
-0.0983745
-0.0965348
-0.0947008
-0.0928755
-0.091061
-0.0892594
-0.0874719
-0.0856997
-0.0839432
-0.082203
-0.0804791
-0.0787713
-0.0770793
-0.0754027
-0.0737409
-0.0720931
-0.0704586
-0.0688365
-0.0672259
-0.0656258
-0.0640355
-0.0624538
-0.0608798
-0.0593126
-0.0577513
-0.0561949
-0.0546425
-0.0530935
-0.051547
-0.0500022
-0.0484587
-0.0469159
-0.0453734
-0.0438309
-0.0422883
-0.0407456
-0.116453
-0.116575
-0.114136
-0.112408
-0.110911
-0.109284
-0.107586
-0.105864
-0.10412
-0.102355
-0.100576
-0.098788
-0.0969952
-0.0952017
-0.0934108
-0.0916254
-0.0898478
-0.0880798
-0.086323
-0.0845785
-0.0828469
-0.0811288
-0.0794243
-0.0777335
-0.0760561
-0.0743918
-0.0727402
-0.0711005
-0.0694723
-0.0678546
-0.0662468
-0.064648
-0.0630573
-0.0614739
-0.059897
-0.0583256
-0.0567591
-0.0551964
-0.053637
-0.05208
-0.0505248
-0.0489709
-0.0474178
-0.0458651
-0.0443124
-0.0427598
-0.0412072
-0.115864
-0.11594
-0.113688
-0.112099
-0.110705
-0.109176
-0.107574
-0.10594
-0.104277
-0.102585
-0.100872
-0.0991427
-0.0974019
-0.0956539
-0.0939026
-0.092151
-0.0904021
-0.088658
-0.0869208
-0.0851919
-0.0834725
-0.0817633
-0.080065
-0.0783779
-0.076702
-0.0750373
-0.0733836
-0.0717404
-0.0701073
-0.0684837
-0.066869
-0.0652626
-0.0636636
-0.0620713
-0.0604851
-0.058904
-0.0573275
-0.0557546
-0.0541848
-0.0526173
-0.0510516
-0.0494872
-0.0479235
-0.0463603
-0.0447973
-0.0432344
-0.0416716
-0.11522
-0.115242
-0.113171
-0.111716
-0.110422
-0.108992
-0.107486
-0.105943
-0.104363
-0.102748
-0.101104
-0.0994384
-0.0977543
-0.0960567
-0.0943496
-0.0926366
-0.0909209
-0.0892051
-0.0874915
-0.0857821
-0.0840783
-0.0823814
-0.0806922
-0.0790115
-0.0773396
-0.0756766
-0.0740227
-0.0723777
-0.0707412
-0.069113
-0.0674926
-0.0658794
-0.0642729
-0.0626724
-0.0610773
-0.0594869
-0.0579006
-0.0563177
-0.0547376
-0.0531597
-0.0515834
-0.0500084
-0.048434
-0.0468601
-0.0452865
-0.043713
-0.0421397
-0.114539
-0.114497
-0.112595
-0.111268
-0.11007
-0.108736
-0.107326
-0.105875
-0.10438
-0.102845
-0.101275
-0.099676
-0.0980528
-0.0964099
-0.0947516
-0.0930816
-0.0914034
-0.0897201
-0.0880342
-0.086348
-0.0846635
-0.0829822
-0.0813052
-0.0796337
-0.0779682
-0.0763093
-0.0746573
-0.0730122
-0.071374
-0.0697425
-0.0681175
-0.0664986
-0.0648854
-0.0632774
-0.0616741
-0.0600748
-0.0584791
-0.0568865
-0.0552962
-0.0537079
-0.0521211
-0.0505352
-0.0489501
-0.0473653
-0.0457808
-0.0441965
-0.0426124
-0.0410288
-0.113844
-0.113723
-0.111972
-0.110763
-0.109657
-0.108416
-0.107101
-0.10574
-0.104332
-0.102878
-0.101385
-0.0998561
-0.0982975
-0.0967133
-0.0951077
-0.0934849
-0.0918485
-0.0902016
-0.0885474
-0.0868883
-0.0852266
-0.0835642
-0.0819026
-0.0802431
-0.0785867
-0.0769342
-0.0752862
-0.0736429
-0.0720046
-0.0703714
-0.0687432
-0.0671197
-0.0655007
-0.063886
-0.062275
-0.0606674
-0.0590627
-0.0574606
-0.0558604
-0.0542618
-0.0526644
-0.0510678
-0.0494717
-0.0478759
-0.0462803
-0.0446849
-0.0430897
-0.0414951
-0.113164
-0.112941
-0.111312
-0.110206
-0.109184
-0.108032
-0.106807
-0.105537
-0.104215
-0.102844
-0.101429
-0.0999736
-0.0984829
-0.0969611
-0.0954124
-0.0938409
-0.0922503
-0.0906442
-0.0890256
-0.0873975
-0.0857624
-0.0841224
-0.0824794
-0.080835
-0.0791906
-0.0775471
-0.0759054
-0.0742661
-0.0726297
-0.0709964
-0.0693664
-0.0677397
-0.0661161
-0.0644956
-0.0628779
-0.0612627
-0.0596496
-0.0580384
-0.0564287
-0.0548201
-0.0532123
-0.0516051
-0.0499981
-0.0483913
-0.0467846
-0.045178
-0.0435716
-0.0419657
-0.112512
-0.11215
-0.110605
-0.109597
-0.108656
-0.107587
-0.106453
-0.105272
-0.104038
-0.102751
-0.101416
-0.100037
-0.0986173
-0.0971615
-0.0956733
-0.0941569
-0.0926162
-0.0910546
-0.0894755
-0.0878821
-0.0862771
-0.0846629
-0.0830417
-0.0814155
-0.0797858
-0.0781539
-0.076521
-0.0748879
-0.0732554
-0.0716239
-0.0699938
-0.0683653
-0.0667385
-0.0651135
-0.06349
-0.0618681
-0.0602475
-0.058628
-0.0570093
-0.0553912
-0.0537735
-0.0521559
-0.0505383
-0.0489206
-0.0473028
-0.045685
-0.0440673
-0.0424501
-0.0408338
-0.111986
-0.11141
-0.109907
-0.109001
-0.108144
-0.107161
-0.106117
-0.105025
-0.103876
-0.102672
-0.101417
-0.100113
-0.0987644
-0.0973745
-0.0959474
-0.094487
-0.0929971
-0.0914814
-0.0899433
-0.0883861
-0.0868129
-0.0852262
-0.0836285
-0.082022
-0.0804085
-0.0787896
-0.0771667
-0.075541
-0.0739133
-0.0722845
-0.070655
-0.0690253
-0.0673957
-0.0657664
-0.0641374
-0.0625088
-0.0608805
-0.0592523
-0.0576243
-0.0559962
-0.0543679
-0.0527393
-0.0511102
-0.0494808
-0.047851
-0.0462209
-0.0445908
-0.042961
-0.0413322
-0.112128
-0.110912
-0.109241
-0.108341
-0.107507
-0.10658
-0.105614
-0.104604
-0.103541
-0.102422
-0.10125
-0.100028
-0.0987568
-0.0974406
-0.0960828
-0.0946869
-0.0932566
-0.0917954
-0.0903068
-0.088794
-0.0872603
-0.0857084
-0.0841409
-0.0825603
-0.0809686
-0.0793677
-0.0777593
-0.0761446
-0.074525
-0.0729014
-0.0712745
-0.0696452
-0.0680138
-0.0663808
-0.0647465
-0.0631111
-0.0614746
-0.0598372
-0.0581989
-0.0565598
-0.0549197
-0.0532788
-0.051637
-0.0499945
-0.0483514
-0.046708
-0.0450645
-0.0434215
-0.0417794
-0.112328
-0.109713
-0.107787
-0.106827
-0.105959
-0.105089
-0.104221
-0.10332
-0.10237
-0.101367
-0.10031
-0.0991995
-0.0980364
-0.0968232
-0.095563
-0.0942588
-0.0929141
-0.0915322
-0.0901168
-0.0886709
-0.087198
-0.085701
-0.0841827
-0.0826458
-0.0810927
-0.0795255
-0.0779462
-0.0763566
-0.074758
-0.0731519
-0.0715393
-0.0699213
-0.0682986
-0.0666718
-0.0650416
-0.0634084
-0.0617725
-0.0601342
-0.0584937
-0.0568513
-0.0552071
-0.0535613
-0.051914
-0.0502656
-0.0486162
-0.0469662
-0.0453161
-0.0436663
-0.0420176
-0.108785
-0.109715
-0.108702
-0.107867
-0.107011
-0.106144
-0.10525
-0.104312
-0.103321
-0.102277
-0.101177
-0.100024
-0.0988187
-0.0975654
-0.0962669
-0.0949265
-0.0935478
-0.0921344
-0.0906899
-0.0892175
-0.0877206
-0.086202
-0.0846647
-0.083111
-0.0815434
-0.0799639
-0.0783743
-0.0767762
-0.075171
-0.0735598
-0.0719437
-0.0703233
-0.0686995
-0.0670727
-0.0654433
-0.0638115
-0.0621776
-0.0605417
-0.0589039
-0.0572641
-0.0556224
-0.0539788
-0.0523333
-0.050686
-0.0490368
-0.047386
-0.0457338
-0.0440807
-0.0424269
-0.10694
-0.108584
-0.107945
-0.107266
-0.106488
-0.105667
-0.104803
-0.103888
-0.102918
-0.101892
-0.10081
-0.0996748
-0.0984876
-0.0972515
-0.0959698
-0.094646
-0.0932835
-0.091886
-0.0904567
-0.0889992
-0.0875164
-0.0860116
-0.0844873
-0.0829461
-0.0813903
-0.079822
-0.078243
-0.076655
-0.0750592
-0.073457
-0.0718492
-0.0702367
-0.0686203
-0.0670004
-0.0653774
-0.0637517
-0.0621235
-0.0604929
-0.05886
-0.0572248
-0.0555874
-0.0539477
-0.0523059
-0.0506619
-0.0490158
-0.0473678
-0.0457181
-0.0440671
-0.0424153
-0.105893
-0.107463
-0.107012
-0.106474
-0.105781
-0.105016
-0.104194
-0.103314
-0.102377
-0.101382
-0.100331
-0.0992247
-0.098066
-0.0968578
-0.0956031
-0.0943055
-0.0929682
-0.0915947
-0.0901885
-0.0887527
-0.0872906
-0.085805
-0.0842988
-0.0827744
-0.0812343
-0.0796804
-0.0781146
-0.0765386
-0.0749538
-0.0733614
-0.0717626
-0.0701582
-0.0685489
-0.0669354
-0.0653181
-0.0636974
-0.0620735
-0.0604467
-0.0588171
-0.0571848
-0.0555499
-0.0539125
-0.0522725
-0.0506302
-0.0489857
-0.0473391
-0.0456908
-0.0440411
-0.0423906
-0.105187
-0.106587
-0.106245
-0.105805
-0.105181
-0.104466
-0.103682
-0.102836
-0.101928
-0.100961
-0.0999366
-0.0988564
-0.0977231
-0.0965395
-0.0953088
-0.0940343
-0.0927193
-0.0913672
-0.0899813
-0.0885649
-0.087121
-0.0856526
-0.0841624
-0.0826529
-0.0811266
-0.0795854
-0.0780312
-0.0764658
-0.0748907
-0.0733071
-0.071716
-0.0701186
-0.0685155
-0.0669075
-0.0652949
-0.0636784
-0.0620581
-0.0604344
-0.0588074
-0.0571773
-0.0555443
-0.0539084
-0.0522697
-0.0506285
-0.0489848
-0.047339
-0.0456913
-0.0440423
-0.0423923
-0.10461
-0.105834
-0.105563
-0.10519
-0.104623
-0.103953
-0.103205
-0.102389
-0.101509
-0.100568
-0.0995687
-0.0985127
-0.0974029
-0.0962422
-0.0950338
-0.0937808
-0.0924866
-0.0911544
-0.0897876
-0.0883892
-0.0869625
-0.0855102
-0.0840352
-0.0825398
-0.0810266
-0.0794975
-0.0779545
-0.0763993
-0.0748335
-0.0732582
-0.0716748
-0.0700842
-0.0684872
-0.0668845
-0.0652768
-0.0636644
-0.0620477
-0.0604272
-0.0588029
-0.0571751
-0.055544
-0.0539098
-0.0522725
-0.0506324
-0.0489896
-0.0473446
-0.0456976
-0.0440492
-0.0423998
-0.10411
-0.10514
-0.104913
-0.104588
-0.104068
-0.103439
-0.102726
-0.10194
-0.101088
-0.100173
-0.0991979
-0.0981659
-0.0970794
-0.0959415
-0.0947551
-0.0935235
-0.0922499
-0.0909375
-0.0895896
-0.0882093
-0.0867997
-0.0853635
-0.0839036
-0.0824224
-0.0809222
-0.0794053
-0.0778735
-0.0763286
-0.0747721
-0.0732054
-0.0716297
-0.070046
-0.0684552
-0.066858
-0.0652551
-0.063647
-0.0620341
-0.0604168
-0.0587953
-0.05717
-0.055541
-0.0539084
-0.0522726
-0.0506338
-0.0489921
-0.047348
-0.0457017
-0.0440539
-0.0424051
-0.10366
-0.104492
-0.104291
-0.103999
-0.10352
-0.102927
-0.102247
-0.10149
-0.100665
-0.0997757
-0.0988256
-0.0978175
-0.0967543
-0.095639
-0.0944746
-0.0932642
-0.0920111
-0.0907185
-0.0893895
-0.0880272
-0.0866346
-0.0852145
-0.0837697
-0.0823026
-0.0808157
-0.0793109
-0.0777904
-0.0762558
-0.0747087
-0.0731505
-0.0715826
-0.0700058
-0.0684213
-0.0668297
-0.0652317
-0.0636279
-0.0620188
-0.0604048
-0.0587862
-0.0571633
-0.0555364
-0.0539056
-0.0522713
-0.0506337
-0.0489931
-0.0473499
-0.0457044
-0.0440574
-0.0424091
-0.103239
-0.103883
-0.103697
-0.103427
-0.102981
-0.102422
-0.101772
-0.101043
-0.100245
-0.0993809
-0.0984551
-0.0974706
-0.0964304
-0.0953375
-0.0941948
-0.0930055
-0.0917727
-0.0904997
-0.0891894
-0.0878449
-0.0864693
-0.0850652
-0.0836354
-0.0821824
-0.0807085
-0.0792159
-0.0777066
-0.0761823
-0.0746446
-0.0730951
-0.0715348
-0.0699651
-0.0683868
-0.0668008
-0.0652077
-0.0636083
-0.062003
-0.0603923
-0.0587766
-0.0571562
-0.0555313
-0.0539024
-0.0522696
-0.0506333
-0.0489938
-0.0473514
-0.0457068
-0.0440604
-0.0424128
-0.10283
-0.103302
-0.103127
-0.102871
-0.102453
-0.101923
-0.101302
-0.100601
-0.0998282
-0.098989
-0.0980872
-0.0971259
-0.0961084
-0.0950375
-0.0939162
-0.0927478
-0.0915351
-0.0902813
-0.0889896
-0.0876628
-0.0863039
-0.0849157
-0.0835009
-0.0820618
-0.080601
-0.0791205
-0.0776223
-0.0761083
-0.07458
-0.073039
-0.0714866
-0.0699238
-0.0683518
-0.0667713
-0.0651832
-0.0635882
-0.0619868
-0.0603794
-0.0587666
-0.0571486
-0.0555259
-0.0538988
-0.0522675
-0.0506325
-0.0489941
-0.0473527
-0.0457089
-0.0440632
-0.0424162
-0.102425
-0.102743
-0.102576
-0.102329
-0.101935
-0.101432
-0.100838
-0.100163
-0.099415
-0.0986
-0.0977217
-0.0967833
-0.0957881
-0.0947389
-0.0936389
-0.0924909
-0.0912981
-0.0900635
-0.08879
-0.0874808
-0.0861385
-0.0847661
-0.083366
-0.0819409
-0.080493
-0.0790245
-0.0775375
-0.0760337
-0.0745148
-0.0729824
-0.0714376
-0.0698819
-0.0683161
-0.0667413
-0.0651582
-0.0635676
-0.06197
-0.060366
-0.0587561
-0.0571406
-0.0555201
-0.0538948
-0.0522651
-0.0506314
-0.0489941
-0.0473536
-0.0457106
-0.0440656
-0.0424193
-0.102019
-0.102201
-0.102041
-0.101802
-0.101427
-0.100948
-0.100379
-0.0997287
-0.0990053
-0.098214
-0.0973587
-0.0964429
-0.0954697
-0.094442
-0.0933628
-0.0922351
-0.0910619
-0.0898462
-0.0885909
-0.0872989
-0.0859731
-0.0846163
-0.0832309
-0.0818196
-0.0803846
-0.0789281
-0.0774521
-0.0759585
-0.074449
-0.0729251
-0.0713881
-0.0698394
-0.0682799
-0.0667107
-0.0651326
-0.0635464
-0.0619527
-0.060352
-0.0587451
-0.0571322
-0.0555138
-0.0538903
-0.0522622
-0.0506298
-0.0489936
-0.0473542
-0.045712
-0.0440677
-0.042422
-0.101608
-0.101674
-0.10152
-0.101286
-0.100929
-0.100472
-0.0999258
-0.0992994
-0.0985996
-0.0978313
-0.0969987
-0.096105
-0.0951533
-0.0941467
-0.0930881
-0.0919805
-0.0908266
-0.0896295
-0.0883922
-0.0871173
-0.0858079
-0.0844665
-0.0830957
-0.081698
-0.0802759
-0.0788313
-0.0773663
-0.0758829
-0.0743827
-0.0728673
-0.0713381
-0.0697963
-0.0682431
-0.0666796
-0.0651065
-0.0635247
-0.0619349
-0.0603377
-0.0587336
-0.0571233
-0.0555071
-0.0538855
-0.052259
-0.0506279
-0.0489929
-0.0473544
-0.045713
-0.0440695
-0.0424245
-0.101191
-0.101157
-0.101011
-0.100781
-0.10044
-0.100003
-0.0994788
-0.0988751
-0.098198
-0.0974522
-0.0966416
-0.0957696
-0.0948392
-0.0938534
-0.0993818
-0.10036
-0.101306
-0.102319
-0.103098
-0.103591
-0.100025
-0.101075
-0.102259
-0.103311
-0.104577
-0.0997337
-0.1008
-0.102038
-0.103164
-0.105097
-0.10047
-0.10172
-0.102795
-0.105166
-0.100124
-0.101389
-0.102381
-0.105009
-0.0997702
-0.101052
-0.101957
-0.104713
-0.1007
-0.101522
-0.10431
-0.100332
-0.101083
-0.103831
-0.100646
-0.103303
-0.100215
-0.102743
-0.102164
-0.101576
)
;

boundaryField
{
    inlet
    {
        type            zeroGradient;
    }
    outlet
    {
        type            fixedValue;
        value           nonuniform 0();
    }
    cylinder
    {
        type            zeroGradient;
    }
    top
    {
        type            symmetryPlane;
    }
    bottom
    {
        type            symmetryPlane;
    }
    defaultFaces
    {
        type            empty;
    }
    procBoundary10to6
    {
        type            processor;
        value           nonuniform List<scalar> 
50
(
-0.172783
-0.154741
-0.154741
-0.141932
-0.123442
-0.11724
-0.0962409
-0.0961822
-0.0950797
-0.0935143
-0.092002
-0.0905203
-0.0890226
-0.0875115
-0.0859948
-0.0844754
-0.0829553
-0.0814362
-0.0799198
-0.0784075
-0.0769001
-0.0753987
-0.0739039
-0.0724161
-0.0709357
-0.069463
-0.0679979
-0.0665405
-0.0650906
-0.0636481
-0.0622127
-0.060784
-0.0593616
-0.0579451
-0.056534
-0.0551277
-0.0537258
-0.0523276
-0.0509326
-0.0495403
-0.04815
-0.0467614
-0.0453738
-0.0439869
-0.0426003
-0.0412136
-0.0398267
-0.0384395
-0.0370519
-0.0356641
)
;
    }
    procBoundary10to9
    {
        type            processor;
        value           nonuniform List<scalar> 
52
(
-0.189622
-0.189724
-0.189877
-0.190078
-0.190329
-0.190626
-0.190968
-0.191354
-0.17517
-0.17517