/*--------------------------------*- C++ -*----------------------------------*\
  =========                 |
  \\      /  F ield         | OpenFOAM: The Open Source CFD Toolbox
   \\    /   O peration     | Website:  https://openfoam.org
    \\  /    A nd           | Version:  7
     \\/     M anipulation  |
\*---------------------------------------------------------------------------*/
FoamFile
{
    version     2.0;
    format      ascii;
    class       volScalarField;
    location    "5";
    object      p;
}
// * * * * * * * * * * * * * * * * * * * * * * * * * * * * * * * * * * * * * //

dimensions      [0 2 -2 0 0 0 0];

internalField   nonuniform List<scalar> 
2625
(
0.0362119
0.0317718
0.0462199
0.0330151
0.0422472
0.0562874
0.0329443
0.044152
0.0527965
0.0664065
0.0328327
0.0447728
0.0553623
0.0634119
0.0765692
0.0325308
0.0453923
0.0566784
0.0666367
0.0740851
0.0867668
0.0320672
0.045868
0.058033
0.0686508
0.0779655
0.0848079
0.0969904
0.0462268
0.0592912
0.0707431
0.0806792
0.0893387
0.0955717
0.10723
0.0465472
0.0604788
0.0727876
0.0835107
0.0927527
0.100746
0.106367
0.117476
0.0469586
0.0616748
0.0748088
0.0863439
0.0963235
0.10486
0.112177
0.117186
0.127717
0.0630076
0.0768865
0.0892023
0.0999467
0.109169
0.11699
0.12362
0.128019
0.137938
0.0646851
0.0791482
0.0921665
0.103645
0.113582
0.122035
0.129129
0.135064
0.138857
0.148127
0.0817989
0.0953627
0.107499
0.118121
0.127237
0.134909
0.141268
0.146496
0.14969
0.158264
0.0851427
0.0989931
0.111634
0.122867
0.132616
0.140897
0.147776
0.153392
0.157906
0.160509
0.168328
0.103357
0.116248
0.127943
0.138254
0.147115
0.154548
0.160626
0.16549
0.169279
0.171307
0.178293
0.108882
0.121637
0.133545
0.144273
0.153645
0.161603
0.168177
0.173443
0.177549
0.180604
0.182077
0.188123
0.128222
0.139962
0.150863
0.160605
0.169021
0.176064
0.181768
0.186217
0.189556
0.191868
0.192811
0.197769
0.136574
0.147609
0.158309
0.168184
0.176921
0.184368
0.190484
0.195309
0.198933
0.2015
0.203058
0.203505
0.207169
0.157047
0.167018
0.176657
0.185485
0.193204
0.199668
0.204847
0.208786
0.21158
0.213367
0.214165
0.214171
0.216246
0.169057
0.177539
0.186423
0.194982
0.202748
0.209434
0.214905
0.219138
0.222186
0.224146
0.225145
0.225189
0.224858
0.224895
0.190644
0.19802
0.2058
0.213263
0.219952
0.225593
0.230062
0.233344
0.235494
0.236618
0.236822
0.23613
0.235551
0.232876
0.21225
0.218491
0.225141
0.231485
0.237081
0.241664
0.245122
0.247447
0.248698
0.248983
0.248387
0.246971
0.245939
0.23934
0.230122
0.23393
0.238979
0.244454
0.249647
0.254125
0.257634
0.26007
0.261432
0.261781
0.261228
0.259838
0.257708
0.255677
0.24267
0.252767
0.255416
0.259299
0.263616
0.267667
0.271033
0.273472
0.274889
0.275289
0.27474
0.273355
0.271188
0.268382
0.266021
0.251476
0.27528
0.276772
0.279487
0.282643
0.285548
0.287799
0.289165
0.289563
0.289004
0.287559
0.285347
0.282422
0.27895
0.276309
0.261807
0.300226
0.297686
0.298007
0.299541
0.301525
0.303276
0.304407
0.304698
0.304076
0.302559
0.300222
0.297189
0.293517
0.289382
0.286262
0.271929
0.323686
0.319947
0.319088
0.319432
0.320236
0.320829
0.320837
0.320053
0.318412
0.31594
0.312716
0.308867
0.304456
0.299661
0.295957
0.281673
0.346968
0.342026
0.339981
0.339131
0.338752
0.338184
0.337069
0.335211
0.332556
0.329133
0.325027
0.320368
0.315222
0.309771
0.305446
0.291164
0.370037
0.363892
0.360658
0.358611
0.357047
0.355319
0.353083
0.350156
0.34649
0.342124
0.337142
0.331679
0.325803
0.319697
0.314727
0.300433
0.402892
0.392861
0.385513
0.381091
0.377846
0.375099
0.372213
0.36886
0.364869
0.360201
0.354897
0.349049
0.342787
0.336186
0.329427
0.323795
0.30947
0.426572
0.415405
0.406859
0.40125
0.396811
0.392883
0.388845
0.384382
0.379335
0.373672
0.367441
0.360733
0.353682
0.346361
0.33895
0.332648
0.318268
0.449933
0.437638
0.427899
0.421107
0.415478
0.410377
0.405193
0.399629
0.393535
0.386888
0.37974
0.372183
0.364351
0.356317
0.348258
0.341284
0.326829
0.472939
0.459526
0.448602
0.440635
0.433824
0.427557
0.421238
0.414584
0.407455
0.399835
0.391781
0.383387
0.374784
0.366045
0.357344
0.349701
0.335154
0.495556
0.481037
0.468938
0.459806
0.451823
0.444401
0.436959
0.429227
0.421077
0.412499
0.403552
0.394334
0.384971
0.375537
0.366199
0.357895
0.343242
0.543678
0.517751
0.502138
0.488879
0.478593
0.46945
0.460887
0.452336
0.443542
0.434385
0.424864
0.415041
0.405012
0.394902
0.384783
0.374818
0.365862
0.351091
0.56666
0.539489
0.522799
0.508394
0.496969
0.486682
0.476994
0.46735
0.45751
0.447365
0.436918
0.426234
0.41541
0.404567
0.393777
0.383194
0.373598
0.3587
0.589128
0.560738
0.542988
0.527455
0.514908
0.503495
0.4927
0.481982
0.471116
0.460002
0.448647
0.43712
0.425518
0.413957
0.402509
0.39132
0.3811
0.366066
0.611047
0.581464
0.562674
0.546034
0.532384
0.519865
0.507984
0.496214
0.484343
0.47228
0.460038
0.447688
0.435325
0.423064
0.410972
0.399192
0.388362
0.373188
0.632383
0.601636
0.581829
0.564103
0.549374
0.53577
0.522826
0.510027
0.497174
0.484185
0.471079
0.457926
0.444822
0.431879
0.41916
0.406802
0.395381
0.380061
0.653102
0.621224
0.600423
0.581637
0.565851
0.551189
0.537206
0.523404
0.509595
0.495704
0.481756
0.467824
0.454
0.440393
0.427066
0.414145
0.402151
0.386683
0.698919
0.673173
0.640195
0.618427
0.598608
0.581793
0.5661
0.551107
0.536328
0.521589
0.506823
0.492059
0.47737
0.462848
0.448598
0.434681
0.421216
0.408669
0.39305
0.719038
0.692564
0.658522
0.635814
0.614992
0.597177
0.580481
0.564508
0.548782
0.533143
0.51753
0.501976
0.486555
0.471359
0.456488
0.442
0.428008
0.414929
0.399159
0.738422
0.711245
0.676176
0.652559
0.630764
0.611981
0.594315
0.577392
0.560752
0.544242
0.527812
0.511496
0.49537
0.479524
0.464053
0.449017
0.434518
0.420928
0.405006
0.757038
0.729186
0.693128
0.668634
0.645901
0.626182
0.607581
0.589743
0.57222
0.554873
0.537656
0.520608
0.503804
0.487333
0.471288
0.455724
0.440738
0.426659
0.410588
0.774858
0.74636
0.709352
0.684015
0.66038
0.639762
0.62026
0.601543
0.583174
0.565024
0.547052
0.529302
0.511849
0.49478
0.478185
0.462117
0.446664
0.432119
0.415902
0.791853
0.762737
0.724823
0.698678
0.67418
0.652699
0.632336
0.612778
0.593599
0.57468
0.555988
0.537568
0.519496
0.501857
0.484737
0.468188
0.452292
0.437304
0.420943
0.807996
0.778293
0.739517
0.712602
0.687279
0.664976
0.643791
0.623432
0.603482
0.583832
0.564455
0.545398
0.526738
0.508557
0.490939
0.473933
0.457615
0.442208
0.425708
0.823261
0.793003
0.753409
0.725763
0.699658
0.676575
0.65461
0.63349
0.612809
0.592467
0.572441
0.552782
0.533565
0.514873
0.496784
0.479347
0.46263
0.446829
0.430193
0.837624
0.806842
0.766478
0.738143
0.711298
0.687479
0.664778
0.64294
0.62157
0.600575
0.579939
0.559712
0.539971
0.520797
0.502265
0.484423
0.467332
0.451161
0.434396
0.940395
0.851061
0.81979
0.778704
0.74972
0.722182
0.697671
0.674279
0.651768
0.629752
0.608147
0.586938
0.56618
0.54595
0.526325
0.507379
0.489158
0.471717
0.4552
0.438313
0.954008
0.863551
0.831824
0.790066
0.760479
0.732294
0.707137
0.683102
0.659964
0.637346
0.615172
0.593431
0.57218
0.551493
0.53145
0.51212
0.493546
0.47578
0.458944
0.441942
0.966566
0.875074
0.842925
0.800546
0.770401
0.741617
0.715864
0.691233
0.667516
0.644342
0.621642
0.59941
0.577703
0.556597
0.536167
0.516482
0.497584
0.479519
0.462389
0.445278
0.97805
0.88561
0.853076
0.810128
0.779471
0.750139
0.723838
0.698662
0.674413
0.650731
0.62755
0.604868
0.582744
0.561254
0.540471
0.520462
0.501268
0.482929
0.465531
0.448321
0.988441
0.895143
0.86226
0.818796
0.787675
0.757845
0.731048
0.705377
0.680647
0.656504
0.632887
0.609798
0.587298
0.56546
0.544358
0.524056
0.504594
0.486007
0.468367
0.451066
0.997721
0.903657
0.870462
0.826537
0.795
0.764725
0.737484
0.71137
0.68621
0.661654
0.637648
0.614196
0.591358
0.56921
0.547823
0.527259
0.507558
0.488751
0.470896
0.453512
1.00588
0.911138
0.877668
0.833337
0.801434
0.770767
0.743135
0.716632
0.691093
0.666174
0.641826
0.618054
0.594921
0.5725
0.550863
0.53007
0.510158
0.491157
0.473113
0.455657
1.0129
0.917573
0.883867
0.839186
0.806968
0.775963
0.747995
0.721155
0.69529
0.670059
0.645417
0.62137
0.597982
0.575326
0.553474
0.532483
0.512392
0.493224
0.475018
0.457498
1.01876
0.922953
0.889049
0.844075
0.811593
0.780305
0.752054
0.724934
0.698796
0.673304
0.648416
0.624139
0.600538
0.577686
0.555654
0.534499
0.514256
0.494949
0.476608
0.459035
1.02347
0.927266
0.893204
0.847995
0.815301
0.783786
0.755309
0.727963
0.701606
0.675905
0.650818
0.626357
0.602585
0.579577
0.557401
0.536113
0.51575
0.496331
0.477881
0.460266
1.02701
0.930508
0.896326
0.85094
0.818087
0.7864
0.757753
0.730237
0.703716
0.677857
0.652622
0.628022
0.604122
0.580996
0.558711
0.537324
0.51687
0.497368
0.478837
0.46119
1.02938
0.932672
0.898411
0.852905
0.819945
0.788145
0.759383
0.731755
0.705123
0.679159
0.653825
0.629133
0.605147
0.581942
0.559585
0.538132
0.517618
0.49806
0.479474
0.461806
0.732514
0.705827
0.67981
0.654426
0.629688
0.60566
0.582415
0.560022
0.538536
0.517991
0.498405
0.479793
0.462114
0.240385
0.226909
0.216981
0.207835
0.198254
0.188551
0.178793
0.168981
0.159134
0.149267
0.139391
0.129519
0.119659
0.10982
0.100012
0.0902406
0.0805143
0.07084
0.0612243
0.241862
0.227543
0.216996
0.207591
0.197727
0.187831
0.177962
0.168094
0.158231
0.148383
0.138553
0.128749
0.118976
0.10924
0.0995476
0.089905
0.0803178
0.237284
0.222547
0.211914
0.20274
0.193098
0.183443
0.173845
0.164258
0.154685
0.14513
0.135599
0.126095
0.116623
0.107189
0.0977983
0.0884554
0.231681
0.217228
0.206663
0.197726
0.18834
0.178938
0.16961
0.160302
0.151013
0.141749
0.132512
0.123304
0.114131
0.104997
0.226064
0.21228
0.201899
0.19318
0.184035
0.174862
0.165774
0.156715
0.147681
0.138678
0.129707
0.120769
0.220452
0.207345
0.197192
0.188691
0.179799
0.170869
0.162027
0.153222
0.144446
0.135705
0.126998
0.214899
0.202422
0.192517
0.184232
0.175601
0.166922
0.158333
0.149785
0.14127
0.209439
0.197561
0.187922
0.179856
0.171488
0.163064
0.154727
0.146436
0.20409
0.192776
0.18342
0.175575
0.16747
0.159302
0.198867
0.188082
0.179016
0.171394
0.16355
0.193776
0.183489
0.174716
0.188821
0.179003
0.259916
0.25993
0.260732
0.261766
0.263246
0.264963
0.266945
0.269097
0.271387
0.273749
0.276133
0.278475
0.280715
0.282788
0.284628
0.286166
0.287332
0.288057
0.288274
0.287917
0.286929
0.285256
0.282857
0.279703
0.275774
0.271075
0.265579
0.259227
0.252427
0.233628
0.259178
0.259171
0.259922
0.260892
0.262287
0.263902
0.265764
0.267775
0.269904
0.272084
0.274261
0.276374
0.27836
0.280156
0.281693
0.282905
0.283723
0.28408
0.283913
0.283161
0.281772
0.279701
0.276914
0.273387
0.269108
0.26408
0.258246
0.251547
0.244416
0.225577
0.25843
0.258433
0.259162
0.260098
0.261441
0.262993
0.264775
0.266696
0.268722
0.270786
0.272837
0.274814
0.276655
0.278296
0.279673
0.280719
0.281369
0.281559
0.281227
0.280316
0.278776
0.276563
0.273644
0.269994
0.265596
0.260443
0.254464
0.247631
0.240745
0.223457
0.257655
0.257663
0.258363
0.259259
0.260541
0.262018
0.263709
0.265524
0.267428
0.269357
0.271258
0.273071
0.274734
0.276186
0.277362
0.278198
0.278631
0.278599
0.278042
0.276907
0.275146
0.272719
0.269594
0.265748
0.261162
0.255831
0.249684
0.242736
0.235862
0.219653
0.25685
0.256859
0.257526
0.258376
0.259591
0.260985
0.262577
0.264276
0.266048
0.267828
0.269565
0.271198
0.272666
0.273909
0.274863
0.275466
0.275656
0.275375
0.274566
0.273179
0.271169
0.2685
0.265144
0.26108
0.256291
0.250779
0.244481
0.237454
0.230478
0.21514
0.256018
0.256027
0.256659
0.257463
0.258608
0.259919
0.261408
0.26299
0.264627
0.266258
0.267829
0.26928
0.270553
0.271586
0.272319
0.272691
0.272642
0.272117
0.271062
0.269431
0.267182
0.264284
0.26071
0.256445
0.251477
0.245808
0.239392
0.232324
0.225245
0.210695
0.255158
0.255168
0.255764
0.256521
0.257596
0.258822
0.260208
0.261671
0.263173
0.264653
0.266057
0.267328
0.268406
0.269232
0.269747
0.269892
0.269611
0.268849
0.267557
0.265692
0.263216
0.260101
0.256326
0.251877
0.246747
0.240946
0.234434
0.227347
0.220176
0.206344
0.254269
0.254279
0.25484
0.255548
0.256552
0.257691
0.258973
0.260316
0.261681
0.263009
0.264246
0.265335
0.266218
0.266838
0.267137
0.267058
0.266546
0.265552
0.264029
0.261938
0.259244
0.255923
0.251958
0.247339
0.242063
0.236146
0.229558
0.222463
0.215209
0.202036
0.253351
0.253362
0.253885
0.254544
0.255476
0.256527
0.257702
0.258923
0.26015
0.261324
0.262392
0.263299
0.263988
0.264402
0.264485
0.264184
0.263447
0.262225
0.260477
0.258166
0.255263
0.251747
0.247602
0.242826
0.237419
0.231402
0.224754
0.217659
0.210337
0.19777
0.252404
0.252414
0.252899
0.253508
0.254366
0.255328
0.256395
0.257492
0.258579
0.259598
0.260498
0.261222
0.261716
0.261925
0.261795
0.261275
0.260315
0.258872
0.256906
0.254384
0.25128
0.247578
0.243267
0.238347
0.232824
0.226722
0.220029
0.212941
0.205566
0.193558
0.251426
0.251436
0.251883
0.25244
0.253223
0.254094
0.255053
0.256024
0.25697
0.257833
0.258563
0.259104
0.259405
0.25941
0.25907
0.258334
0.257157
0.255497
0.253319
0.250594
0.2473
0.243423
0.238958
0.233907
0.228282
0.222108
0.215384
0.20831
0.200901
0.189411
0.250418
0.250426
0.250834
0.25134
0.252046
0.252826
0.253673
0.254519
0.255323
0.256029
0.256588
0.256948
0.257055
0.256859
0.25631
0.255362
0.253973
0.252103
0.249721
0.246802
0.243327
0.239287
0.234679
0.22951
0.223796
0.217565
0.210822
0.203767
0.196342
0.185333
0.249379
0.249386
0.249754
0.250207
0.250836
0.251522
0.252258
0.252976
0.253637
0.254186
0.254575
0.254753
0.254668
0.254272
0.253519
0.252364
0.250767
0.248694
0.246116
0.243012
0.239367
0.235174
0.278368
0.278302
0.279473
0.281023
0.283284
0.286013
0.289259
0.292945
0.297068
0.301587
0.306489
0.311753
0.317362
0.323299
0.329549
0.336096
0.342925
0.350021
0.357366
0.364945
0.372739
0.380731
0.388901
0.397229
0.405695
0.414277
0.422956
0.43171
0.440514
0.449343
0.278343
0.278278
0.279448
0.280997
0.283257
0.285985
0.289229
0.292914
0.297035
0.301552
0.306451
0.311711
0.317316
0.323249
0.329494
0.336036
0.342859
0.349947
0.357285
0.364854
0.372639
0.380619
0.388777
0.397092
0.405543
0.41411
0.422771
0.431506
0.440291
0.449093
0.278294
0.278228
0.279398
0.280946
0.283204
0.285929
0.289171
0.292851
0.296969
0.301481
0.306375
0.311629
0.317226
0.32315
0.329386
0.335916
0.342726
0.3498
0.357122
0.364673
0.372438
0.380396
0.388529
0.396817
0.405239
0.413774
0.4224
0.431097
0.439845
0.448592
0.278221
0.278154
0.279322
0.280869
0.283124
0.285846
0.289083
0.292753
0.29687
0.301375
0.30626
0.311505
0.317091
0.323002
0.329222
0.335736
0.342527
0.349579
0.356877
0.364401
0.372136
0.380061
0.388158
0.396405
0.404783
0.41327
0.421844
0.430485
0.439176
0.447841
0.278123
0.278056
0.279222
0.280766
0.283018
0.285735
0.288967
0.292643
0.296738
0.301234
0.306108
0.311339
0.31691
0.322804
0.329005
0.335496
0.342262
0.349285
0.35655
0.364039
0.371734
0.379615
0.387662
0.395857
0.404176
0.412599
0.421102
0.429668
0.438284
0.446839
0.278001
0.277933
0.279097
0.280637
0.282885
0.285597
0.288821
0.292488
0.296574
0.301058
0.305918
0.311133
0.316685
0.322558
0.328733
0.335196
0.34193
0.348918
0.356143
0.363587
0.371231
0.379057
0.387044
0.395171
0.403417
0.411761
0.420177
0.428648
0.43717
0.44559
0.277855
0.277785
0.278947
0.280483
0.282726
0.285431
0.288647
0.292301
0.296377
0.300847
0.30569
0.310886
0.316415
0.322262
0.328408
0.334837
0.341533
0.348478
0.355654
0.363044
0.370629
0.378389
0.386303
0.39435
0.402508
0.410756
0.419067
0.427426
0.435836
0.444092
0.277685
0.277614
0.278772
0.280304
0.28254
0.285238
0.288444
0.292086
0.296148
0.300602
0.305425
0.310598
0.316101
0.321917
0.328029
0.334419
0.34107
0.347965
0.355085
0.362412
0.369927
0.37761
0.385439
0.393392
0.401449
0.409585
0.417775
0.426003
0.434281
0.442349
0.277491
0.277418
0.278573
0.2801
0.282329
0.285018
0.288213
0.291842
0.295887
0.300322
0.305123
0.31027
0.315743
0.321525
0.327597
0.333942
0.340542
0.34738
0.354436
0.361692
0.369127
0.376721
0.384453
0.3923
0.40024
0.408249
0.4163
0.424379
0.432508
0.440361
0.277272
0.277198
0.278349
0.27987
0.282092
0.284771
0.287953
0.291567
0.295595
0.300008
0.304784
0.309901
0.315341
0.321084
0.327112
0.333407
0.33995
0.346723
0.353707
0.360883
0.368228
0.375724
0.383347
0.391074
0.398883
0.406749
0.414644
0.422555
0.430519
0.438131
0.27703
0.276954
0.278102
0.279616
0.28183
0.284497
0.287666
0.291263
0.29527
0.29966
0.304408
0.309493
0.314896
0.320596
0.326575
0.332813
0.339293
0.345995
0.352899
0.359986
0.367232
0.374618
0.38212
0.389714
0.397378
0.405087
0.412809
0.420534
0.428313
0.43566
0.276765
0.276687
0.27783
0.279338
0.281542
0.284197
0.287351
0.290929
0.294915
0.299278
0.303996
0.309046
0.314407
0.32006
0.325985
0.332163
0.338573
0.345197
0.352013
0.359001
0.366139
0.373404
0.380773
0.388222
0.395727
0.403262
0.410795
0.418316
0.425894
0.43295
0.276476
0.276396
0.277535
0.279035
0.281229
0.283871
0.287008
0.290567
0.294529
0.298864
0.303549
0.30856
0.313877
0.319478
0.325344
0.331455
0.33779
0.344329
0.351049
0.357931
0.36495
0.372084
0.379308
0.386599
0.39393
0.401277
0.408604
0.415904
0.423263
0.430005
0.276164
0.276083
0.277216
0.278708
0.280891
0.283519
0.286636
0.290176
0.294112
0.298416
0.303065
0.308035
0.313304
0.31885
0.324653
0.330692
0.336945
0.343391
0.350009
0.356775
0.363666
0.370658
0.377726
0.384845
0.391989
0.399132
0.406238
0.413298
0.420423
0.426826
0.275828
0.275746
0.276873
0.278357
0.280529
0.283141
0.286236
0.289756
0.293665
0.297937
0.302547
0.307472
0.312689
0.318176
0.323911
0.329872
0.336038
0.342385
0.348892
0.355534
0.362287
0.369126
0.376027
0.382962
0.389904
0.396829
0.403697
0.410501
0.417374
0.423417
0.27547
0.275387
0.276508
0.277983
0.280143
0.282739
0.285824
0.289309
0.293188
0.297425
0.301995
0.306872
0.312034
0.317457
0.323119
0.328998
0.33507
0.341311
0.347699
0.354209
0.360815
0.367491
0.374212
0.38095
0.387678
0.39437
0.400984
0.407514
0.41412
0.41978
0.27509
0.275005
0.27612
0.277586
0.279733
0.282311
0.285377
0.288834
0.292682
0.296882
0.301408
0.306235
0.311338
0.316694
0.322279
0.32807
0.334042
0.340171
0.346433
0.352801
0.35925
0.365753
0.372284
0.378813
0.385312
0.391756
0.3981
0.40434
0.410663
0.415918
0.274686
0.274601
0.27571
0.277167
0.2793
0.28186
0.2849
0.288332
0.292148
0.296308
0.300788
0.305561
0.310603
0.315887
0.32139
0.327088
0.332954
0.338964
0.345092
0.351311
0.357595
0.363914
0.370242
0.376549
0.382807
0.388989
0.395048
0.40098
0.407004
0.411834
0.274261
0.274175
0.275278
0.276724
0.278843
0.281384
0.2844
0.287803
0.291585
0.295704
0.300135
0.304852
0.309828
0.315037
0.320454
0.326053
0.331809
0.337693
0.34368
0.349741
0.355849
0.361974
0.368089
0.374162
0.380165
0.38607
0.391828
0.397436
0.403147
0.40753
0.273814
0.273728
0.274824
0.27626
0.278364
0.280883
0.283876
0.287249
0.290994
0.295069
0.29945
0.304108
0.309015
0.314145
0.319472
0.324967
0.330605
0.336358
0.342196
0.348091
0.354014
0.359936
0.365825
0.371652
0.377386
0.383001
0.388444
0.39371
0.399093
0.403011
0.273345
0.27326
0.274349
0.275775
0.277863
0.280356
0.283328
0.286669
0.290376
0.294406
0.298734
0.303329
0.308164
0.313211
0.318443
0.323831
0.329346
0.334959
0.340642
0.346363
0.352092
0.357799
0.363453
0.369021
0.374474
0.379783
0.384895
0.389804
0.394845
0.398278
0.272855
0.272771
0.273853
0.275268
0.27734
0.279827
0.282756
0.286065
0.289731
0.293714
0.297986
0.302516
0.307276
0.312237
0.317369
0.322644
0.328031
0.333499
0.339018
0.344557
0.350084
0.355567
0.360973
0.366271
0.371429
0.376419
0.381186
0.385721
0.390404
0.393335
0.272344
0.272262
0.273336
0.274741
0.276795
0.279257
0.282161
0.285435
0.28906
0.292994
0.297208
0.30167
0.306352
0.311223
0.316252
0.321408
0.326661
0.331978
0.337327
0.342676
0.347991
0.353239
0.358387
0.363403
0.368253
0.37291
0.377316
0.381462
0.385774
0.388184
0.271812
0.271733
0.272799
0.274193
0.27623
0.278665
0.281544
0.284782
0.288364
0.292246
0.2964
0.300792
0.305393
0.31017
0.315091
0.320125
0.325238
0.330398
0.33557
0.34072
0.345814
0.350818
0.355698
0.360418
0.364947
0.369258
0.373289
0.377029
0.380956
0.382827
0.271259
0.271184
0.272243
0.273625
0.275644
0.278056
0.280904
0.284105
0.287642
0.291471
0.295563
0.299883
0.304399
0.309079
0.313888
0.318795
0.323764
0.32876
0.333747
0.338691
0.343556
0.348306
0.352905
0.357319
0.361514
0.365464
0.369105
0.372423
0.375951
0.377268
0.270687
0.270615
0.271667
0.273038
0.275039
0.277426
0.280243
0.283406
0.286897
0.290671
0.294698
0.298942
0.303371
0.30795
0.312645
0.317419
0.322238
0.327064
0.331861
0.336591
0.341217
0.345703
0.350011
0.354107
0.357954
0.361529
0.364767
0.367646
0.370762
0.371507
0.270094
0.270028
0.271072
0.272432
0.274417
0.276776
0.279561
0.282684
0.286127
0.289845
0.293805
0.297972
0.302311
0.306786
0.311361
0.315999
0.320662
0.325313
0.329912
0.334421
0.3388
0.343012
0.347018
0.350783
0.35427
0.357456
0.360275
0.362699
0.365389
0.365546
0.269482
0.269423
0.270459
0.271808
0.273772
0.276107
0.278859
0.281941
0.285335
0.288994
0.292886
0.296972
0.301218
0.305586
0.310038
0.314535
0.319039
0.323508
0.327903
0.332182
0.336305
0.340234
0.343927
0.347349
0.350463
0.353246
0.355631
0.357584
0.359833
0.359387
0.268851
0.2688
0.269828
0.271165
0.27311
0.275418
0.278137
0.281177
0.28452
0.288119
0.29194
0.295944
0.300094
0.304352
0.308677
0.313029
0.317368
0.32165
0.325834
0.329876
0.333736
0.33737
0.34074
0.343807
0.346534
0.348899
0.350835
0.352299
0.354094
0.35303
0.268201
0.268159
0.26918
0.270507
0.272431
0.274712
0.277395
0.280392
0.283684
0.287221
0.290969
0.294889
0.298941
0.303085
0.307279
0.311483
0.315651
0.319741
0.323707
0.327506
0.331092
0.334424
0.337459
0.340159
0.342485
0.344417
0.345888
0.346847
0.348172
0.346475
0.267533
0.267501
0.268515
0.269831
0.271734
0.273987
0.276635
0.279588
0.282826
0.2863
0.289974
0.293807
0.297758
0.301785
0.305846
0.309896
0.31389
0.317782
0.321524
0.325071
0.328377
0.331396
0.334085
0.336405
0.338316
0.3398
0.34079
0.341226
0.342066
0.339722
0.266847
0.266826
0.267833
0.269138
0.271021
0.273246
0.275857
0.278765
0.281948
0.285357
0.288955
0.292698
0.296546
0.300455
0.304378
0.308271
0.312086
0.315774
0.319287
0.322575
0.325591
0.328287
0.33062
0.332547
0.334028
0.335048
0.33554
0.335434
0.335773
0.332769
0.266143
0.266136
0.267136
0.26843
0.270291
0.272488
0.275061
0.277923
0.281051
0.284393
0.287913
0.291566
0.295308
0.299094
0.302878
0.30661
0.310241
0.313721
0.316997
0.32002
0.322737
0.325101
0.327064
0.328585
0.329622
0.330161
0.330136
0.329467
0.329289
0.325615
0.265421
0.26543
0.266424
0.267706
0.269547
0.271714
0.27425
0.277064
0.280135
0.28341
0.28685
0.29041
0.294045
0.297707
0.301347
0.304915
0.308359
0.311626
0.314661
0.317411
0.319822
0.321844
0.323427
0.324528
0.325104
0.325143
0.324581
0.323329
0.322613
0.31826
0.264683
0.264708
0.265696
0.266968
0.268786
0.270924
0.273421
0.276187
0.2792
0.282406
0.285765
0.28923
0.292755
0.29629
0.299785
0.303186
0.306439
0.309488
0.312277
0.314749
0.316848
0.318519
0.319712
0.32038
0.32048
0.32
0.31888
0.317023
0.315751
0.310714
0.263927
0.263971
0.264953
0.266214
0.26801
0.270116
0.272572
0.275288
0.27824
0.281374
0.284649
0.288015
0.291426
0.294829
0.298171
0.301399
0.304453
0.307277
0.309811
0.311995
0.31377
0.315078
0.315867
0.316088
0.315696
0.314678
0.312978
0.310492
0.308643
0.302937
0.263156
0.26322
0.264196
0.265447
0.267219
0.269294
0.271709
0.274373
0.277263
0.280322
0.283509
0.286773
0.290064
0.293329
0.296513
0.299557
0.302402
0.304988
0.307251
0.309129
0.310559
0.311482
0.311841
0.311586
0.310671
0.309082
0.306766
0.303621
0.301154
0.294779
0.262372
0.262463
0.263439
0.264684
0.26644
0.26849
0.270871
0.273493
0.276331
0.279329
0.282442
0.285619
0.288807
0.291952
0.294996
0.297878
0.300536
0.302904
0.304916
0.306504
0.307602
0.308145
0.308071
0.307324
0.305858
0.303658
0.300679
0.296852
0.293759
0.286668
0.261575
0.261702
0.262686
0.263935
0.265683
0.26772
0.270082
0.272679
0.275487
0.278448
0.281518
0.284645
0.287774
0.29085
0.293813
0.296599
0.299142
0.301374
0.303224
0.304617
0.30548
0.305739
0.305321
0.304162
0.302202
0.299417
0.295768
0.291257
0.287633
0.280195
0.260748
0.26088
0.261838
0.26305
0.264747
0.26672
0.269004
0.27151
0.274213
0.277054
0.279987
0.282959
0.285914
0.288794
0.291537
0.294078
0.29635
0.29828
0.299796
0.300824
0.301285
0.301104
0.300207
0.298522
0.295984
0.292556
0.288187
0.282863
0.278238
0.269795
)
;

boundaryField
{
    inlet
    {
        type            zeroGradient;
    }
    outlet
    {
        type            fixedValue;
        value           nonuniform 0();
    }
    cylinder
    {
        type            zeroGradient;
    }
    top
    {
        type            symmetryPlane;
    }
    bottom
    {
        type            symmetryPlane;
    }
    defaultFaces
    {
        type            empty;
    }
    procBoundary8to4
    {
        type            processor;
        value           nonuniform List<scalar> 
51
(
1.03057
0.933758
0.899457
0.85389
0.820877
0.789018
0.760199
0.760199
0.732514
0.705827
0.67981
0.654426
0.629688
0.60566
0.582415
0.560022
0.538536
0.517991
0.498405
0.479793
0.462114
0.278368
0.278302
0.279473
0.281023
0.283284
0.286013
0.289259
0.292945
0.297068
0.301587
0.306489
0.311753
0.317362
0.323299
0.329549
0.336096
0.342925
0.350021
0.357366
0.364945
0.372739
0.380731
0.388901
0.397229
0.405695
0.414277
0.422956
0.43171
0.440514
0.449343
)
;
    }
    procBoundary8to9
    {
        type            processor;
        value           nonuniform List<scalar> 
69
(
0.026271
0.0213779
0.0213779
0.0219606
0.0219606
0.0212032
0.0212032
0.0203654
0.0203654
0.0192923
0.0192923
0.0180138
0.0180138
0.0166072
0.0315196
0.0315196
0.0310183
0.0310183
0.0307752
0.047671
0.047671
0.0489959
0.0670153
0.0670153
0.0704358
0.0896126
0.0896126
0.0957935
0.116147
0.116147
0.125944
0.147481
0.147481
0.161827
0.184507
0.207242
0.207242
0.229108
0.252938
0.27663
0.27663
0.305683
0.330288
0.354715
0.378928
0.378928
0.422284
0.447306
0.471993
0.496308
0.520215
0.520215
0.564571
0.588413
0.611723
0.634462
0.656598
0.678094
0.678094
0.774484
0.796437
0.817582
0.837887
0.857321
0.875852
0.893452
0.910093
0.925749
0.925749
)
;
    }
    procBoundary8to12
    {
        type            processor;
        value           nonuniform List<scalar> 
65
(
0.0327932
0.0421947
0.0516737
0.070792
0.0516737
0.0613331
0.070792
0.0791661
0.095906
0.0791661
0.0868624
0.111869
0.095906
0.103009
0.111869
0.118328
0.132791
0.118328
0.124348
0.132791
0.138179
0.151218
0.138179
0.143181
0.151218
0.155638
0.167319
0.155638
0.159732
0.167319
0.170527
0.184007
0.170527
0.174632
0.230436
0.225162
0.219372
0.213096
0.206344
0.199314
0.191891
0.18133
0.248308
0.248314
0.248642
0.249041
0.249592
0.250183
0.250807
0.251396
0.251914
0.252306
0.252525
0.252521
0.252246
0.251654
0.250699
0.249341
0.247543
0.245274
0.242508
0.239228
0.235422
0.230436
0.231088
)
;
    }
}


// ************************************************************************* //
