/*--------------------------------*- C++ -*----------------------------------*\
  =========                 |
  \\      /  F ield         | OpenFOAM: The Open Source CFD Toolbox
   \\    /   O peration     | Website:  https://openfoam.org
    \\  /    A nd           | Version:  7
     \\/     M anipulation  |
\*---------------------------------------------------------------------------*/
FoamFile
{
    version     2.0;
    format      ascii;
    class       volScalarField;
    location    "15";
    object      p;
}
// * * * * * * * * * * * * * * * * * * * * * * * * * * * * * * * * * * * * * //

dimensions      [0 2 -2 0 0 0 0];

internalField   nonuniform List<scalar> 
2625
(
-0.409736
0.985297
0.81008
0.985297
0.81008
0.797437
0.7121
0.679463
0.984175
0.809136
0.796546
0.711344
0.678794
0.981931
0.80725
0.794767
0.709833
0.677456
0.978571
0.804424
0.792101
0.707568
0.675453
0.974099
0.800664
0.788553
0.704555
0.672786
0.968522
0.795975
0.784128
0.700796
0.669459
0.96185
0.790366
0.778834
0.696297
0.665476
0.60895
0.954093
0.783845
0.772678
0.691065
0.660843
0.605026
0.945264
0.776424
0.765669
0.685107
0.655566
0.600556
0.935376
0.768115
0.75782
0.678433
0.649652
0.595545
0.924447
0.758931
0.749142
0.671051
0.643108
0.589999
0.912492
0.748887
0.739648
0.662973
0.635945
0.583925
0.899532
0.738001
0.729353
0.654211
0.62817
0.577331
0.885588
0.726289
0.718274
0.644776
0.619795
0.570224
0.87068
0.713772
0.706426
0.634683
0.610831
0.562614
0.854834
0.700468
0.693828
0.623947
0.601289
0.55451
0.838074
0.686401
0.6805
0.612582
0.591182
0.545922
0.820426
0.671594
0.666463
0.600605
0.580524
0.536861
0.801919
0.656069
0.651736
0.588034
0.569329
0.527337
0.782581
0.639852
0.636344
0.574887
0.557611
0.517362
0.762444
0.622969
0.620309
0.561182
0.545387
0.506949
0.741538
0.605447
0.603656
0.546939
0.532671
0.49611
0.719896
0.587315
0.58641
0.532178
0.519482
0.484858
0.697551
0.568601
0.568597
0.516921
0.505835
0.473208
0.452457
0.674539
0.549334
0.550244
0.50119
0.49175
0.461173
0.441961
0.650893
0.529545
0.531379
0.485006
0.477245
0.448767
0.431133
0.626652
0.509266
0.51203
0.468393
0.462338
0.436007
0.419987
0.60185
0.488527
0.492225
0.451374
0.447049
0.422907
0.408535
0.576527
0.467361
0.471994
0.433973
0.431398
0.409483
0.396788
0.55072
0.445801
0.451367
0.416214
0.415406
0.395751
0.384761
0.524468
0.423879
0.430375
0.398123
0.399092
0.381728
0.372467
0.497809
0.40163
0.409048
0.379724
0.382478
0.36743
0.35992
0.470784
0.379085
0.387417
0.361043
0.365586
0.352875
0.347132
0.333726
0.443431
0.35628
0.365513
0.342106
0.348437
0.338079
0.334119
0.322472
0.415791
0.333248
0.343369
0.322939
0.331053
0.323061
0.320894
0.311024
0.387903
0.310023
0.321015
0.303568
0.313456
0.307837
0.307473
0.299394
0.359808
0.286639
0.298483
0.28402
0.295668
0.292427
0.293869
0.287594
0.331544
0.263129
0.275806
0.26432
0.277713
0.276847
0.280097
0.275635
0.303152
0.239527
0.253014
0.244496
0.259612
0.261116
0.266172
0.263529
0.260344
0.274677
0.21587
0.230142
0.224574
0.241388
0.245253
0.25211
0.251288
0.249576
0.246174
0.192199
0.207224
0.204584
0.223066
0.229276
0.237925
0.238925
0.23869
0.217637
0.168524
0.184281
0.184545
0.204665
0.213202
0.223632
0.226452
0.227695
0.189121
0.144885
0.161347
0.164486
0.186209
0.197052
0.209246
0.213881
0.216601
0.160671
0.121317
0.138454
0.144434
0.167721
0.180842
0.194783
0.201224
0.205418
0.205634
0.132322
0.0978524
0.115634
0.124415
0.149224
0.164591
0.180258
0.188494
0.194157
0.195713
0.104112
0.0745202
0.0929142
0.104453
0.130739
0.148318
0.165686
0.175702
0.182827
0.185721
0.0760759
0.0513504
0.0703248
0.0845739
0.112289
0.132041
0.151083
0.162861
0.171439
0.175665
0.0482484
0.0283719
0.0478941
0.0648021
0.0938959
0.115778
0.136462
0.149984
0.160002
0.165555
0.168749
0.020664
0.00561271
0.0256498
0.0451618
0.0755812
0.0995464
0.12184
0.137083
0.148527
0.155399
0.1597
-0.00664332
-0.0169003
0.00361906
0.0256767
0.0573662
0.0833651
0.107231
0.124169
0.137024
0.145204
0.150606
-0.0336414
-0.039141
-0.0181719
0.00636986
0.0392719
0.0672513
0.0926498
0.111255
0.125503
0.13498
0.141476
0.145434
-0.060304
-0.0610801
-0.0396977
-0.0127362
0.021319
0.0512224
0.0781117
0.0983531
0.113973
0.124734
0.132316
0.13723
-0.0865983
-0.0826955
-0.0609334
-0.0316196
0.00352766
0.0352954
0.0636309
0.085475
0.102445
0.114475
0.123132
0.128996
-0.112492
-0.103967
-0.0818557
-0.0502591
-0.0140824
0.0194874
0.0492219
0.0726328
0.0909292
0.10421
0.113932
0.120738
0.12558
-0.137958
-0.124871
-0.102442
-0.068634
-0.0314918
0.00381488
0.0348988
0.059838
0.0794342
0.0939482
0.104722
0.112461
0.118097
-0.162973
-0.145385
-0.12267
-0.0867244
-0.048682
-0.0117059
0.0206756
0.0471023
0.0679701
0.0836973
0.0955096
0.104171
0.110594
0.115395
-0.187509
-0.16549
-0.142518
-0.104513
-0.0656347
-0.0270591
0.00656628
0.0344371
0.0565466
0.0734653
0.0863009
0.0958739
0.103075
0.108551
-0.211544
-0.185167
-0.161969
-0.12198
-0.0823323
-0.0422292
-0.00741578
0.0218539
0.0451731
0.06326
0.0771028
0.0875754
0.0955458
0.101689
-0.235056
-0.204399
-0.181002
-0.139109
-0.0987582
-0.0572009
-0.0212572
0.00936373
0.033859
0.0530893
0.0679219
0.079281
0.0880107
0.0948123
0.100126
-0.258022
-0.223169
-0.199601
-0.155882
-0.114896
-0.0719598
-0.0349451
-0.00302242
0.0226134
0.0429608
0.0587646
0.0709964
0.0804748
0.0879262
0.0937895
0.0987923
-0.280423
-0.241463
-0.21775
-0.172286
-0.130729
-0.086492
-0.0484667
-0.0152938
0.0114456
0.0328823
0.0496376
0.0627271
0.0729429
0.0810347
0.0874402
0.0929024
-0.302242
-0.259266
-0.235433
-0.188305
-0.146244
-0.100783
-0.0618095
-0.0274397
0.000364568
0.0228611
0.0405471
0.0544786
0.0654199
0.074142
0.0810814
0.0869942
0.0915384
-0.32346
-0.276566
-0.252638
-0.203927
-0.161426
-0.114821
-0.0749616
-0.0394498
-0.0106209
0.0129049
0.0314997
0.0462564
0.0579106
0.0672524
0.074717
0.0810712
0.0859838
-0.344063
-0.293352
-0.26935
-0.219138
-0.176263
-0.128591
-0.0879112
-0.0513139
-0.0215022
0.00302095
0.0225014
0.038066
0.0504197
0.0603703
0.068351
0.075137
0.0804107
0.0860861
-0.364037
-0.309614
-0.28556
-0.233927
-0.19074
-0.142083
-0.100647
-0.0630222
-0.0322707
-0.00678354
0.0135586
0.0299128
0.0429521
0.0534999
0.0619873
0.0691955
0.0748227
0.0807394
0.0837197
-0.383369
-0.325344
-0.301256
-0.248284
-0.204848
-0.155285
-0.113158
-0.074565
-0.0429179
-0.0165014
0.0046774
0.021802
0.0355125
0.0466456
0.0556299
0.0632503
0.0692232
0.0753685
0.0786289
0.0865964
-0.402048
-0.340534
-0.31643
-0.262199
-0.218575
-0.168186
-0.125434
-0.0859329
-0.0534357
-0.0261257
-0.00413625
0.0137389
0.0281056
0.0398117
0.0492828
0.0573054
0.0636159
0.0699773
0.0735099
0.0812966
-0.420064
-0.355178
-0.331076
-0.275665
-0.23191
-0.180776
-0.137465
-0.0971167
-0.0638163
-0.0356495
-0.0128764
0.00572881
0.0207361
0.0330024
0.04295
0.0513648
0.0580047
0.0645702
0.0683659
0.075956
-0.43741
-0.369271
-0.345185
-0.288674
-0.244847
-0.193045
-0.14924
-0.108108
-0.0740516
-0.0450661
-0.021537
-0.00222324
0.0134086
0.0262221
0.0366357
0.0454323
0.0523933
0.0591516
0.0632005
0.0705817
-0.454078
-0.38281
-0.358754
-0.30122
-0.257375
-0.204984
-0.160752
-0.118897
-0.0841341
-0.0543688
-0.0301123
-0.0101122
0.00612767
0.019475
0.0303438
0.0395122
0.0467858
0.0537261
0.0580178
0.0651811
-0.470063
-0.395792
-0.371778
-0.313299
-0.269488
-0.216585
-0.17199
-0.129477
-0.0940562
-0.0635512
-0.0385972
-0.0179325
-0.00110209
0.0127654
0.0240784
0.0336086
0.0411863
0.0482986
0.052822
0.0597617
-0.485362
-0.408216
-0.384255
-0.324906
-0.28118
-0.22784
-0.182948
-0.139839
-0.103811
-0.0726068
-0.0469856
-0.02568
-0.00827604
0.00609754
0.0178438
0.0277255
0.035599
0.042874
0.0476176
-0.499972
-0.420081
-0.396184
-0.336038
-0.292445
-0.238743
-0.193617
-0.149976
-0.113391
-0.0815294
-0.0552719
-0.0333495
-0.0153899
-0.000524285
0.0116439
0.0218674
0.0300281
0.0374573
0.0424094
-0.51389
-0.43139
-0.407564
-0.346694
-0.30328
-0.249289
-0.203991
-0.159881
-0.12279
-0.0903131
-0.0634511
-0.0409361
-0.0224392
-0.00709596
0.00548291
0.0160383
0.0244781
0.0320537
0.0372028
-0.527119
-0.442143
-0.418396
-0.356874
-0.31368
-0.25947
-0.214062
-0.169547
-0.132001
-0.0989519
-0.0715177
-0.0484351
-0.0294197
-0.0136134
-0.000634993
0.0102426
0.0189533
0.0266687
0.0320029
-0.539658
-0.452344
-0.428682
-0.366577
-0.323644
-0.269284
-0.223825
-0.178967
-0.141018
-0.10744
-0.0794666
-0.0558419
-0.0363269
-0.0200724
-0.00670588
0.0044845
0.0134582
0.0213074
0.0268154
-0.551511
-0.461998
-0.438426
-0.375805
-0.33317
-0.278726
-0.233274
-0.188136
-0.149835
-0.115772
-0.0872929
-0.063152
-0.0431567
-0.0264688
-0.0127256
-0.00123192
0.00799774
0.0159754
0.0216462
-0.562682
-0.471109
-0.447631
-0.384561
-0.342258
-0.287793
-0.242406
-0.197048
-0.158446
-0.123942
-0.0949915
-0.0703608
-0.0499048
-0.0327986
-0.0186903
-0.00690203
0.00257598
0.0106769
0.0165021
-0.573174
-0.479684
-0.456304
-0.392848
-0.350909
-0.296485
-0.251215
-0.205697
-0.166846
-0.131946
-0.102558
-0.0774639
-0.0565673
-0.0390579
-0.0245957
-0.0125216
-0.00280251
0.00541831
0.0113898
-0.582994
-0.487728
-0.464448
-0.400669
-0.359122
-0.304797
-0.259697
-0.214079
-0.175029
-0.139777
-0.109987
-0.084457
-0.06314
-0.0452427
-0.0304381
-0.0180866
-0.00813311
0.000205549
0.00631343
-0.592144
-0.495245
-0.472068
-0.408026
-0.366899
-0.312729
-0.267849
-0.222189
-0.182991
-0.147432
-0.117274
-0.091336
-0.0696191
-0.0513493
-0.0362136
-0.0235928
-0.0134114
-0.00495651
0.00127968
-0.600644
-0.502253
-0.47918
-0.414934
-0.374248
-0.320285
-0.275672
-0.230024
-0.190726
-0.154905
-0.124415
-0.0980965
-0.0760004
-0.0573736
-0.0419181
-0.029036
-0.0186327
-0.0100627
-0.00370438
-0.608498
-0.508759
-0.48579
-0.421396
-0.38117
-0.327465
-0.283162
-0.237581
-0.198232
-0.162192
-0.131405
-0.104735
-0.0822802
-0.0633119
-0.0475479
-0.0344122
-0.0237926
-0.0151079
-0.00863232
-0.615714
-0.51477
-0.491906
-0.427419
-0.387672
-0.334269
-0.290319
-0.244857
-0.205504
-0.169289
-0.138241
-0.111246
-0.0884549
-0.0691607
-0.0530995
-0.0397176
-0.0288869
-0.0200872
-0.0134979
-0.622305
-0.520297
-0.497538
-0.433011
-0.393757
-0.340701
-0.297142
-0.25185
-0.212538
-0.176192
-0.144918
-0.117628
-0.0945208
-0.0749165
-0.0585692
-0.0449482
-0.0339113
-0.0249959
-0.0182951
-0.628281
-0.525352
-0.502698
-0.438182
-0.399433
-0.346765
-0.303633
-0.258557
-0.219331
-0.182898
-0.151433
-0.123876
-0.100474
-0.0805757
-0.0639535
-0.0501003
-0.0388618
-0.0298294
-0.0230178
-0.633656
-0.529945
-0.507396
-0.442942
-0.404708
-0.352463
-0.309791
-0.264977
-0.225881
-0.189401
-0.157782
-0.129986
-0.106312
-0.086135
-0.0692489
-0.0551703
-0.0437342
-0.0345832
-0.0276602
-0.638442
-0.534089
-0.511646
-0.447301
-0.409589
-0.357802
-0.31562
-0.271111
-0.232186
-0.1957
-0.16396
-0.135955
-0.112031
-0.0915909
-0.0744522
-0.0601548
-0.0485247
-0.0392531
-0.032217
-0.642653
-0.537797
-0.515458
-0.45127
-0.414085
-0.362787
-0.321121
-0.276957
-0.238242
-0.201791
-0.169966
-0.14178
-0.117627
-0.0969404
-0.0795601
-0.0650502
-0.0532297
-0.0438352
-0.0366827
-0.646303
-0.541082
-0.518848
-0.454861
-0.418206
-0.367424
-0.326298
-0.282516
-0.244049
-0.207672
-0.175795
-0.147456
-0.123097
-0.10218
-0.0845695
-0.0698533
-0.0578456
-0.0483257
-0.0410526
-0.0365129
-0.649408
-0.543955
-0.521827
-0.458085
-0.42196
-0.37172
-0.331154
-0.287789
-0.249606
-0.21334
-0.181445
-0.152982
-0.128439
-0.107307
-0.0894774
-0.0745611
-0.0623691
-0.052721
-0.0453221
-0.0407582
-0.651983
-0.546432
-0.524409
-0.460954
-0.42536
-0.375684
-0.335695
-0.292779
-0.254911
-0.218794
-0.186912
-0.158354
-0.133648
-0.112319
-0.0942808
-0.0791704
-0.066797
-0.057018
-0.049487
-0.0448874
-0.654042
-0.548525
-0.526609
-0.463481
-0.428416
-0.379322
-0.339926
-0.297486
-0.259966
-0.22403
-0.192195
-0.163569
-0.138723
-0.117211
-0.0989771
-0.0836785
-0.0711262
-0.0612135
-0.0535436
-0.048898
-0.655604
-0.550248
-0.52844
-0.46568
-0.431139
-0.382644
-0.343851
-0.301914
-0.264769
-0.229048
-0.19729
-0.168624
-0.14366
-0.121983
-0.103563
-0.0880827
-0.0753542
-0.0653049
-0.0574886
-0.0527879
-0.656683
-0.551615
-0.529916
-0.467562
-0.433541
-0.385659
-0.347477
-0.306066
-0.269322
-0.233847
-0.202196
-0.173517
-0.148457
-0.12663
-0.108037
-0.0923803
-0.0794782
-0.0692895
-0.0613191
-0.0565551
-0.657296
-0.552639
-0.531053
-0.469142
-0.435634
-0.388376
-0.350812
-0.309945
-0.273626
-0.238427
-0.206911
-0.178245
-0.153111
-0.131151
-0.112396
-0.0965689
-0.0834961
-0.0731649
-0.0650326
-0.0601982
-0.657461
-0.553336
-0.531865
-0.470432
-0.43743
-0.390806
-0.353863
-0.313557
-0.277683
-0.242786
-0.211433
-0.182805
-0.157619
-0.135543
-0.116638
-0.100646
-0.0874056
-0.0769291
-0.068627
-0.0637161
-0.657194
-0.553719
-0.532365
-0.471446
-0.438942
-0.392959
-0.356637
-0.316906
-0.281495
-0.246925
-0.215761
-0.187197
-0.161979
-0.139803
-0.12076
-0.10461
-0.0912048
-0.08058
-0.0721008
-0.0671077
-0.656512
-0.553801
-0.532568
-0.472198
-0.440182
-0.394846
-0.359143
-0.319998
-0.285065
-0.250844
-0.219893
-0.191417
-0.16619
-0.143929
-0.124761
-0.108458
-0.094892
-0.0841159
-0.0754528
-0.0703724
-0.655433
-0.553597
-0.532489
-0.472699
-0.441164
-0.396477
-0.361389
-0.322838
-0.288396
-0.254544
-0.22383
-0.195464
-0.170248
-0.147919
-0.128638
-0.112188
-0.0984658
-0.0875351
-0.0786822
-0.0735095
-0.653972
-0.55312
-0.532142
-0.472965
-0.4419
-0.397865
-0.363385
-0.325433
-0.291491
-0.258027
-0.227569
-0.199337
-0.174151
-0.15177
-0.132389
-0.115799
-0.101925
-0.0908361
-0.0817887
-0.0765185
-0.652149
-0.552383
-0.53154
-0.473007
-0.442402
-0.399019
-0.365141
-0.327789
-0.294355
-0.261294
-0.231113
-0.203033
-0.177899
-0.155482
-0.136013
-0.119289
-0.105268
-0.0940174
-0.0847725
-0.079399
-0.649979
-0.551401
-0.530698
-0.472839
-0.442684
-0.399952
-0.366664
-0.329915
-0.296993
-0.264348
-0.23446
-0.206554
-0.181489
-0.159051
-0.139508
-0.122656
-0.108495
-0.0970777
-0.0876342
-0.0821503
-0.647479
-0.550185
-0.529628
-0.472472
-0.442758
-0.400675
-0.367967
-0.331817
-0.299409
-0.267191
-0.237612
-0.209896
-0.18492
-0.162476
-0.142873
-0.125898
-0.111604
-0.100016
-0.0903749
-0.0847716
-0.644666
-0.54875
-0.528345
-0.47192
-0.442637
-0.401199
-0.369058
-0.333504
-0.30161
-0.269826
-0.240569
-0.213061
-0.188191
-0.165755
-0.146105
-0.129013
-0.114595
-0.10283
-0.0929961
-0.0872618
-0.641557
-0.547108
-0.526862
-0.471195
-0.442332
-0.401536
-0.369949
-0.334983
-0.303601
-0.272257
-0.243333
-0.216048
-0.1913
-0.168888
-0.149205
-0.132001
-0.117469
-0.105519
-0.0955001
-0.0896194
-0.638169
-0.545271
-0.52519
-0.470308
-0.441856
-0.401697
-0.370648
-0.336264
-0.305388
-0.274488
-0.245906
-0.218857
-0.194247
-0.171872
-0.152169
-0.13486
-0.120224
-0.108081
-0.0978897
-0.0918421
-0.634516
-0.543251
-0.523343
-0.469271
-0.44122
-0.401694
-0.371167
-0.337355
-0.306978
-0.276524
-0.248291
-0.221489
-0.197032
-0.174706
-0.154998
-0.137589
-0.122861
-0.110515
-0.100168
-0.0939267
-0.630616
-0.54106
-0.521332
-0.468095
-0.440436
-0.401536
-0.371516
-0.338264
-0.308379
-0.278368
-0.250489
-0.223945
-0.199653
-0.177389
-0.157691
-0.140186
-0.125381
-0.112819
-0.102341
-0.0958688
-0.626484
-0.538711
-0.51917
-0.46679
-0.439515
-0.401235
-0.371705
-0.339002
-0.309597
-0.280027
-0.252505
-0.226226
-0.202112
-0.179921
-0.160246
-0.14265
-0.127784
-0.114991
-0.104411
-0.0976627
-0.622136
-0.536214
-0.516867
-0.465366
-0.438468
-0.400801
-0.371745
-0.339576
-0.31064
-0.281506
-0.254341
-0.228334
-0.204409
-0.182302
-0.162664
-0.14498
-0.13007
-0.11703
-0.106387
-0.0993005
-0.617586
-0.53358
-0.514435
-0.463835
-0.437304
-0.400245
-0.371644
-0.339996
-0.311516
-0.28281
-0.256002
-0.230271
-0.206544
-0.18453
-0.164943
-0.147176
-0.132241
-0.118933
-0.108274
-0.100772
-0.612851
-0.53082
-0.511884
-0.462204
-0.436034
-0.399575
-0.371414
-0.340271
-0.312233
-0.283947
-0.257492
-0.232039
-0.208518
-0.186606
-0.167084
-0.149235
-0.134297
-0.120697
-0.110081
-0.102064
-0.607943
-0.527945
-0.509225
-0.460483
-0.434667
-0.398802
-0.371063
-0.34041
-0.312798
-0.284922
-0.258816
-0.233643
-0.210334
-0.188531
-0.169086
-0.151159
-0.13624
-0.12232
-0.111818
-0.103159
-0.602879
-0.524964
-0.506467
-0.458682
-0.433213
-0.397934
-0.370601
-0.340423
-0.31322
-0.285743
-0.25998
-0.235085
-0.211992
-0.190305
-0.17095
-0.152946
-0.138071
-0.123799
-0.113495
-0.104035
-0.597673
-0.521888
-0.503621
-0.456807
-0.431679
-0.396981
-0.370036
-0.340316
-0.313508
-0.286416
-0.260987
-0.236369
-0.213496
-0.191929
-0.172676
-0.154597
-0.13979
-0.125133
-0.115122
-0.104664
-0.592337
-0.518726
-0.500695
-0.454867
-0.430075
-0.39595
-0.369378
-0.340101
-0.313668
-0.286949
-0.261846
-0.237499
-0.214849
-0.193405
-0.174265
-0.156112
-0.141401
-0.126319
-0.11671
-0.586886
-0.515488
-0.497699
-0.45287
-0.428408
-0.394849
-0.368635
-0.339783
-0.313711
-0.28735
-0.262561
-0.23848
-0.216052
-0.194735
-0.175718
-0.157491
-0.142902
-0.127356
-0.118274
-0.581334
-0.512182
-0.494641
-0.450823
-0.426686
-0.393685
-0.367815
-0.339373
-0.313642
-0.287624
-0.263139
-0.239318
-0.217111
-0.195921
-0.177037
-0.158736
-0.144296
-0.128242
-0.119825
-0.575693
-0.508818
-0.491529
-0.448732
-0.424914
-0.392467
-0.366924
-0.338877
-0.313471
-0.287781
-0.263587
-0.240017
-0.218029
-0.196967
-0.178223
-0.159848
-0.145583
-0.12898
-0.121369
-0.569973
-0.5054
-0.488369
-0.446601
-0.423099
-0.391198
-0.365971
-0.338303
-0.313205
-0.287827
-0.263911
-0.240584
-0.21881
-0.197876
-0.179278
-0.16083
-0.146763
-0.12958
-0.564194
-0.501945
-0.485175
-0.444442
-0.421251
-0.389888
-0.364963
-0.337659
-0.312852
-0.287771
-0.264119
-0.241024
-0.21946
-0.19865
-0.180205
-0.161684
-0.147836
-0.130056
-0.558366
-0.498457
-0.481951
-0.442258
-0.419373
-0.388542
-0.363906
-0.336952
-0.312419
-0.287618
-0.264218
-0.241344
-0.219983
-0.199296
-0.181007
-0.162415
-0.148802
-0.130425
-0.552501
-0.494944
-0.478705
-0.440055
-0.417471
-0.387166
-0.362806
-0.336188
-0.311913
-0.287378
-0.264214
-0.241551
-0.220386
-0.199818
-0.181686
-0.163025
-0.14966
-0.130697
-0.546611
-0.491414
-0.475444
-0.437838
-0.415552
-0.385763
-0.361669
-0.335374
-0.311342
-0.287057
-0.264115
-0.241651
-0.220673
-0.20022
-0.182246
-0.163519
-0.150412
-0.540708
-0.487875
-0.472175
-0.435612
-0.413619
-0.384341
-0.360501
-0.334515
-0.310712
-0.286662
-0.263928
-0.241651
-0.220853
-0.200509
-0.182692
-0.163901
-0.151056
-0.534804
-0.484334
-0.468905
-0.433383
-0.411677
-0.382902
-0.359307
-0.333618
-0.310029
-0.2862
-0.263661
-0.241559
-0.22093
-0.20069
-0.183027
-0.164177
-0.151596
-0.528911
-0.480799
-0.465641
-0.431155
-0.409732
-0.381452
-0.358092
-0.332687
-0.3093
-0.285678
-0.26332
-0.241381
-0.220911
-0.20077
-0.183257
-0.164352
-0.152033
-0.523042
-0.477277
-0.462389
-0.428933
-0.407789
-0.379994
-0.35686
-0.331729
-0.308531
-0.285102
-0.262912
-0.241125
-0.220804
-0.200755
-0.183387
-0.164431
-0.152369
-0.517207
-0.473776
-0.459155
-0.426721
-0.40585
-0.378534
-0.355616
-0.330748
-0.307726
-0.284479
-0.262444
-0.240797
-0.220615
-0.200652
-0.183423
-0.16442
-0.152608
-0.511418
-0.470302
-0.455947
-0.424524
-0.403921
-0.377074
-0.354365
-0.329748
-0.306892
-0.283815
-0.261922
-0.240406
-0.220352
-0.200469
-0.18337
-0.164327
-0.505687
-0.466862
-0.452771
-0.422347
-0.402006
-0.375618
-0.353109
-0.328735
-0.306034
-0.283115
-0.261354
-0.239956
-0.220021
-0.200212
-0.183235
-0.164158
-0.500024
-0.463464
-0.449633
-0.420193
-0.400109
-0.37417
-0.351854
-0.327712
-0.305157
-0.282385
-0.260745
-0.239457
-0.219629
-0.199889
-0.183025
-0.163919
-0.494442
-0.460115
-0.446538
-0.418067
-0.398233
-0.372734
-0.350602
-0.326684
-0.304265
-0.281631
-0.260102
-0.238913
-0.219184
-0.199507
-0.182745
-0.163618
-0.488951
-0.45682
-0.443494
-0.415974
-0.396383
-0.371313
-0.349358
-0.325654
-0.303363
-0.280858
-0.25943
-0.238333
-0.218691
-0.199073
-0.182404
-0.163263
-0.483563
-0.453587
-0.440506
-0.413916
-0.394563
-0.36991
-0.348125
-0.324627
-0.302455
-0.280071
-0.258735
-0.237721
-0.218159
-0.198595
-0.182007
-0.162861
-0.478288
-0.450423
-0.43758
-0.4119
-0.392776
-0.368528
-0.346907
-0.323605
-0.301546
-0.279274
-0.258023
-0.237085
-0.217594
-0.198079
-0.181562
-0.162419
-0.473137
-0.447333
-0.434722
-0.409928
-0.391026
-0.367172
-0.345707
-0.322593
-0.30064
-0.278472
-0.257298
-0.236429
-0.217001
-0.197533
-0.181075
-0.468121
-0.444325
-0.431938
-0.408004
-0.389317
-0.365843
-0.344528
-0.321594
-0.29974
-0.27767
-0.256566
-0.235761
-0.216388
-0.196962
-0.180554
-0.46325
-0.441403
-0.429234
-0.406134
-0.387653
-0.364546
-0.343373
-0.320612
-0.29885
-0.276872
-0.255832
-0.235084
-0.21576
-0.196375
-0.180006
-0.458535
-0.438575
-0.426615
-0.40432
-0.386037
-0.363284
-0.342246
-0.319649
-0.297975
-0.276082
-0.255101
-0.234405
-0.215123
-0.195776
-0.179436
-0.453985
-0.435847
-0.424087
-0.402568
-0.384474
-0.36206
-0.341151
-0.31871
-0.297117
-0.275304
-0.254376
-0.233729
-0.214483
-0.195172
-0.178852
-0.449609
-0.433224
-0.421656
-0.40088
-0.382967
-0.360876
-0.34009
-0.317797
-0.29628
-0.274542
-0.253662
-0.233059
-0.213845
-0.194569
-0.17826
-0.445419
-0.430712
-0.419326
-0.39926
-0.381519
-0.359737
-0.339066
-0.316914
-0.295468
-0.273799
-0.252963
-0.232401
-0.213214
-0.193971
-0.177666
-0.441426
-0.428313
-0.417103
-0.397713
-0.380135
-0.358645
-0.338084
-0.316063
-0.294683
-0.27308
-0.252284
-0.231759
-0.212594
-0.193383
-0.177075
-0.437641
-0.426032
-0.414992
-0.396243
-0.378817
-0.357604
-0.337144
-0.315248
-0.29393
-0.272387
-0.251627
-0.231136
-0.211991
-0.192811
-0.176494
-0.434048
-0.423894
-0.412998
-0.394852
-0.377569
-0.356616
-0.336252
-0.314472
-0.293211
-0.271724
-0.250997
-0.230538
-0.211408
-0.192258
-0.175927
-0.43068
-0.421882
-0.411125
-0.393544
-0.376395
-0.355685
-0.33541
-0.313738
-0.292529
-0.271094
-0.250397
-0.229966
-0.21085
-0.191729
-0.175379
-0.427544
-0.420002
-0.409378
-0.392323
-0.375297
-0.354813
-0.33462
-0.313048
-0.291888
-0.270499
-0.24983
-0.229425
-0.210321
-0.191227
-0.174856
-0.424642
-0.418264
-0.40776
-0.391191
-0.37428
-0.354003
-0.333885
-0.312405
-0.291289
-0.269944
-0.249299
-0.228918
-0.209822
-0.190755
-0.174361
-0.421981
-0.41667
-0.406277
-0.390152
-0.373344
-0.353258
-0.333208
-0.311812
-0.290736
-0.26943
-0.248807
-0.228448
-0.209359
-0.190317
-0.173898
-0.419568
-0.415225
-0.404931
-0.389209
-0.372494
-0.352579
-0.332591
-0.311271
-0.29023
-0.26896
-0.248356
-0.228017
-0.208934
-0.189915
-0.417408
-0.413931
-0.403726
-0.388364
-0.371732
-0.35197
-0.332037
-0.310784
-0.289775
-0.268536
-0.247949
-0.227627
-0.208549
-0.189552
-0.415506
-0.412792
-0.402665
-0.387619
-0.37106
-0.351433
-0.331547
-0.310353
-0.289372
-0.26816
-0.247588
-0.227282
-0.208207
-0.189229
-0.413868
-0.411811
-0.40175
-0.386976
-0.37048
-0.350968
-0.331124
-0.309981
-0.289023
-0.267835
-0.247275
-0.226982
-0.20791
-0.188949
-0.412496
-0.410989
-0.400984
-0.386438
-0.369994
-0.350579
-0.330768
-0.309668
-0.28873
-0.267561
-0.247011
-0.226729
-0.20766
-0.188713
-0.411395
-0.410329
-0.400369
-0.386006
-0.369603
-0.350266
-0.330483
-0.309416
-0.288494
-0.26734
-0.246799
-0.226526
-0.207458
-0.188523
-0.410566
-0.409833
-0.399907
-0.38568
-0.369309
-0.35003
-0.330267
-0.309226
-0.288315
-0.267174
-0.246639
-0.226372
-0.207305
-0.18838
-0.410013
-0.409502
-0.399597
-0.385463
-0.369113
-0.349872
-0.330123
-0.309098
-0.288196
-0.267062
-0.246531
-0.226269
-0.207203
-0.188284
-0.409736
-0.409336
-0.399443
-0.385354
-0.369014
-0.349793
-0.330051
-0.309035
-0.288136
-0.267007
-0.246478
-0.226218
-0.207152
-0.188236
-0.0882926
-0.0876034
-0.0886224
-0.0868173
-0.0879312
-0.0889562
-0.0859432
-0.0871417
-0.0882627
-0.0892936
-0.0862654
-0.0874692
-0.0885975
-0.0896342
-0.0852868
-0.0865904
-0.0877997
-0.0889351
-0.0899775
-0.0842078
-0.0856088
-0.086918
-0.0881326
-0.0892752
-0.0903232
-0.0845271
-0.0859332
-0.0872478
-0.0884677
-0.0896174
-0.0906708
-0.083335
-0.0848485
-0.0862597
-0.0875796
-0.0888046
-0.0899614
-0.0910201
-0.0820294
-0.0836532
-0.0851718
-0.0865878
-0.0879129
-0.089143
-0.0903066
-0.0913706
-0.0823441
-0.0839731
-0.0854966
-0.0869175
-0.0882476
-0.0894826
-0.0906527
-0.0809139
-0.0826604
-0.0842946
-0.0858229
-0.0872485
-0.0885833
-0.0898231
-0.0909994
-0.0793576
-0.0812262
-0.0829781
-0.0846173
-0.0861503
-0.0875804
-0.0889197
-0.0901642
-0.0913463
-0.0796655
-0.0815398
-0.083297
-0.084941
-0.0864786
-0.087913
-0.0892566
-0.0905054
-0.091693
-0.0779723
-0.0799744
-0.0818545
-0.0836169
-0.0852657
-0.0868076
-0.0882461
-0.0895936
-0.0908466
-0.092039
-0.0782761
-0.0802844
-0.08217
-0.0839376
-0.085591
-0.0871371
-0.0885794
-0.0899305
-0.0911874
-0.0923841
-0.07644
-0.0785809
-0.0805952
-0.0824864
-0.0842589
-0.0859169
-0.0874669
-0.0889128
-0.0902671
-0.0915274
-0.092728
-0.0767389
-0.0788863
-0.0809067
-0.0828034
-0.0845808
-0.086243
-0.0877967
-0.0892459
-0.090603
-0.0918665
-0.0930701
-0.0747537
-0.0770385
-0.0791924
-0.0812188
-0.0831208
-0.0849029
-0.0865693
-0.0881263
-0.0895785
-0.090938
-0.0922042
-0.0934102
-0.0750468
-0.0773386
-0.0794991
-0.0815313
-0.0834386
-0.0852253
-0.0868954
-0.0884557
-0.0899104
-0.0912719
-0.0925403
-0.093748
-0.0753403
-0.0776391
-0.079806
-0.0818441
-0.0837566
-0.0855476
-0.0872214
-0.0887844
-0.0902414
-0.0916044
-0.0928744
-0.0940831
-0.0731936
-0.0756342
-0.07794
-0.0801133
-0.0821571
-0.0840746
-0.0858698
-0.087547
-0.0891125
-0.0905712
-0.0919351
-0.0932063
-0.0944152
-0.0734803
-0.0759283
-0.078241
-0.0804207
-0.0824702
-0.0843925
-0.0861917
-0.087872
-0.0894396
-0.0908997
-0.092264
-0.0935356
-0.0947439
-0.0711737
-0.0737671
-0.0762226
-0.0785423
-0.0807282
-0.0827832
-0.0847102
-0.0865132
-0.0881963
-0.0897657
-0.0912267
-0.0925908
-0.093862
-0.0950689
-0.0714527
-0.0740539
-0.0765169
-0.0788434
-0.0810356
-0.083096
-0.0850275
-0.0868341
-0.0885197
-0.0900905
-0.0915518
-0.0929151
-0.0941853
-0.0953899
-0.0689821
-0.0717316
-0.0743408
-0.0768112
-0.0791445
-0.0813427
-0.0834084
-0.0853443
-0.0871542
-0.088842
-0.0904137
-0.0918749
-0.0932367
-0.0945051
-0.0957063
-0.069253
-0.0720108
-0.0746279
-0.0771057
-0.0794457
-0.0816499
-0.0837207
-0.0856608
-0.0874737
-0.0891633
-0.0907355
-0.0921958
-0.0935554
-0.094821
-0.0960179
-0.0695245
-0.0722907
-0.0749158
-0.077401
-0.0797477
-0.0819579
-0.0840337
-0.0859778
-0.0877934
-0.0894845
-0.0910567
-0.0925156
-0.0938721
-0.0951337
-0.096325
-0.0668762
-0.0697935
-0.0725682
-0.0752014
-0.077694
-0.0800476
-0.0822639
-0.0843448
-0.086293
-0.0881115
-0.0898041
-0.0913762
-0.0928334
-0.0941865
-0.0954434
-0.0966281
-0.0671276
-0.0700532
-0.072836
-0.0754767
-0.0779765
-0.0803366
-0.0825586
-0.0846445
-0.0865965
-0.0884178
-0.0901119
-0.0916839
-0.0931398
-0.0944898
-0.0957428
-0.0969217
-0.0643105
-0.0673873
-0.0703203
-0.07311
-0.075757
-0.0782622
-0.080627
-0.0828528
-0.0849415
-0.0868951
-0.0887166
-0.0904095
-0.0919789
-0.0934309
-0.0947757
-0.0960231
-0.0971959
-0.0646434
-0.0677309
-0.0706735
-0.0734716
-0.0761258
-0.0786369
-0.0810059
-0.0832341
-0.0853231
-0.0872748
-0.0890919
-0.0907775
-0.0923366
-0.0937751
-0.0951033
-0.0963315
-0.0974826
-0.0650068
-0.068113
-0.0710738
-0.0738895
-0.0765605
-0.0790875
-0.0814712
-0.0837125
-0.0858125
-0.0877727
-0.0895948
-0.0912812
-0.0928357
-0.0942628
-0.0955711
-0.0967691
-0.0978765
)
;

boundaryField
{
    inlet
    {
        type            zeroGradient;
    }
    outlet
    {
        type            fixedValue;
        value           nonuniform 0();
    }
    cylinder
    {
        type            zeroGradient;
    }
    top
    {
        type            symmetryPlane;
    }
    bottom
    {
        type            symmetryPlane;
    }
    defaultFaces
    {
        type            empty;
    }
    procBoundary5to0
    {
        type            processor;
        value           nonuniform List<scalar> 5(0.0887791 0.0887791 0.0918488 0.0918488 0.0859047);
    }
    procBoundary5to1
    {
        type            processor;
        value           nonuniform List<scalar> 
84
(
0.0808922
0.0758258
0.0707098
0.0655492
0.0543314
0.0603498
0.0543314
0.048898
0.0434697
0.0380544
0.0326604
0.0272957
0.0219681
0.0166843
0.0114535
0.00628282
0.00117916
-0.00385086
-0.00880086
-0.0136648
-0.0184371
-0.0231126
-0.0276865
-0.0321545
-0.0321545
-0.0350316
-0.0392576
-0.043353
-0.0473139
-0.0511369
-0.0548194
-0.0583594
-0.0617555
-0.0879672
-0.0872796
-0.0872796
-0.0864964
-0.0864964
-0.0856243
-0.0856243
-0.0846508
-0.0849673
-0.0849673
-0.0838909
-0.0838909
-0.0827046
-0.0830187
-0.0830187
-0.0817164
-0.0817164
-0.0802938
-0.080603
-0.080603
-0.0790511
-0.0790511
-0.0773679
-0.0776695
-0.0776695
-0.0758446
-0.0761419
-0.0761419
-0.0741694
-0.0744612
-0.0744612
-0.0723357
-0.0726212
-0.0729072
-0.0729072
-0.0706162
-0.0708949
-0.0708949
-0.068441
-0.0687116
-0.0687116
-0.0660914
-0.0663535
-0.0666161
-0.0666161
-0.0638159
-0.0640586
-0.0640586
-0.0610897
-0.0614111
-0.0617555
)
;
    }
    procBoundary5to2
    {
        type            processor;
        value           nonuniform List<scalar> 
35
(
-0.0989063
-0.0892368
-0.0895765
-0.0899207
-0.090269
-0.090621
-0.0909763
-0.0913345
-0.0916949
-0.0920573
-0.0924209
-0.091722
-0.091722
-0.0920738
-0.0924258
-0.0927776
-0.0931289
-0.0934791
-0.093828
-0.0941751
-0.09452
-0.0948623
-0.0952014
-0.095537
-0.0958684
-0.0961954
-0.0965172
-0.0968334
-0.0971434
-0.0974469
-0.0977448
-0.0980341
-0.0983051
-0.0985706
-0.0989063
)
;
    }
    procBoundary5to4
    {
        type            processor;
        value           nonuniform List<scalar> 
76
(
0.62079
0.620223
0.619092
0.617396
0.615139
0.612322
0.612322
0.570343
0.566947
0.563078
0.558739
0.553936
0.548674
0.54296
0.536799
0.5302
0.523169
0.515715
0.507846
0.499571
0.4909
0.481843
0.472409
0.46261
0.46261
0.424454
0.415439
0.406133
0.396548
0.386692
0.376576
0.366211
0.355606
0.344775
0.344775
0.321896
0.312049
0.302025
0.291832
0.281481
0.270982
0.270982
0.253879
0.244439
0.234886
0.225229
0.215476
0.215476
0.204368
0.195564
0.186688
0.177747
0.177747
0.169805
0.161727
0.153601
0.153601
0.147857
0.140465
0.133038
0.133038
0.129012
0.122217
0.122217
0.119016
0.112743
0.106445
0.106445
0.10466
0.10466
0.102579
0.0970713
0.0970713
0.0966912
0.0914046
0.0914046
)
;
    }
    procBoundary5to6
    {
        type            processor;
        value           nonuniform List<scalar> 
51
(
-0.105012
-0.0999048