/*--------------------------------*- C++ -*----------------------------------*\
  =========                 |
  \\      /  F ield         | OpenFOAM: The Open Source CFD Toolbox
   \\    /   O peration     | Website:  https://openfoam.org
    \\  /    A nd           | Version:  7
     \\/     M anipulation  |
\*---------------------------------------------------------------------------*/
FoamFile
{
    version     2.0;
    format      ascii;
    class       surfaceScalarField;
    location    "15";
    object      phi;
}
// * * * * * * * * * * * * * * * * * * * * * * * * * * * * * * * * * * * * * //

dimensions      [0 3 -1 0 0 0 0];

internalField   nonuniform List<scalar> 
5033
(
-2.45512e-10
-5.07283e-05
3.9244e-10
9.21447e-10
-5.07283e-05
5.07287e-05
-0.000170087
0.00011936
-0.000341312
0.000171227
-0.000549962
0.000208651
0.000236474
-5.06764e-05
0.000101405
-0.000169932
0.000238615
-0.00034103
0.000342325
-0.000549549
0.00041717
0.00047282
-5.05726e-05
0.000151978
-0.000169621
0.000357663
-0.000340466
0.000513171
-0.000548725
0.000625428
0.000708915
-5.0417e-05
0.000202395
-0.000169154
0.0004764
-0.00033962
0.000683637
-0.000547488
0.000833295
0.000944633
-5.02097e-05
0.000252604
-0.000168533
0.000594723
-0.000338493
0.000853598
-0.000545839
0.00104064
0.00117985
-4.99511e-05
0.000302555
-0.000167758
0.00071253
-0.000337086
0.00102293
-0.000543781
0.00124734
0.00141443
-4.96414e-05
0.000352197
-0.000166829
0.000829718
-0.0003354
0.0011915
-0.000541313
0.00145325
-0.000775146
0.00164827
0.00179502
-4.92811e-05
0.000401478
-0.000165748
0.000946185
-0.000333437
0.00135919
-0.000538439
0.00165825
-0.000771392
0.00188122
0.00204909
-4.88706e-05
0.000450349
-0.000164516
0.00106183
-0.000331197
0.00152587
-0.000535159
0.00186221
-0.000767108
0.00211317
0.0023022
-4.84104e-05
0.000498759
-0.000163133
0.00117655
-0.000328683
0.00169142
-0.000531476
0.002065
-0.000762295
0.00234399
0.00255425
-4.79011e-05
0.00054666
-0.000161602
0.00129025
-0.000325897
0.00185571
-0.000527392
0.0022665
-0.000756955
0.00257355
0.00280512
-4.73434e-05
0.000594004
-0.000159924
0.00140283
-0.000322842
0.00201863
-0.000522909
0.00246657
-0.000751093
0.00280174
0.00305469
-4.67379e-05
0.000640741
-0.0001581
0.0015142
-0.000319519
0.00218005
-0.000518032
0.00266508
-0.00074471
0.00302842
0.00330284
-4.60854e-05
0.000686827
-0.000156133
0.00162424
-0.000315931
0.00233985
-0.000512762
0.00286191
-0.000737811
0.00325346
0.00354945
-4.53868e-05
0.000732214
-0.000154024
0.00173288
-0.000312082
0.00249791
-0.000507104
0.00305693
-0.000730399
0.00347676
0.0037944
-4.46428e-05
0.000776856
-0.000151776
0.00184001
-0.000307974
0.0026541
-0.000501062
0.00325002
-0.000722478
0.00369818
0.00403758
-4.38546e-05
0.000820711
-0.000149391
0.00194555
-0.000303612
0.00280833
-0.000494639
0.00344105
-0.000714053
0.00391759
0.00427887
-4.3023e-05
0.000863734
-0.000146871
0.0020494
-0.000298998
0.00296045
-0.00048784
0.00362989
-0.000705127
0.00413488
0.00451815
-4.21492e-05
0.000905883
-0.00014422
0.00215147
-0.000294138
0.00311037
-0.000480669
0.00381642
-0.000695707
0.00434992
0.0047553
-4.12342e-05
0.000947117
-0.00014144
0.00225167
-0.000289034
0.00325796
-0.000473132
0.00400052
-0.000685796
0.00456258
0.0049902
-4.02792e-05
0.000987397
-0.000138533
0.00234993
-0.000283691
0.00340312
-0.000465233
0.00418206
-0.000675402
0.00477275
0.00522274
-3.92855e-05
0.00102668
-0.000135504
0.00244615
-0.000278115
0.00354573
-0.000456979
0.00436092
-0.000664529
0.0049803
0.0054528
-3.82543e-05
0.00106494
-0.000132355
0.00254025
-0.000272309
0.00368569
-0.000448374
0.00453699
-0.000653184
0.00518511
0.00568026
-3.7187e-05
0.00110212
-0.000129089
0.00263215
-0.000266279
0.00382288
-0.000439426
0.00471014
-0.000641373
0.00538706
-0.000866115
0.005905
0.00633427
-3.6085e-05
0.00113821
-0.000125711
0.00272177
-0.000260031
0.0039572
-0.000430141
0.00488025
-0.000629104
0.00558602
-0.000851011
0.00612691
0.00657523
-3.49496e-05
0.00117316
-0.000122223
0.00280905
-0.00025357
0.00408855
-0.000420525
0.0050472
-0.000616383
0.00578188
-0.000835338
0.00634586
0.00681338
-3.37824e-05
0.00120694
-0.00011863
0.0028939
-0.000246901
0.00421682
-0.000410586
0.00521089
-0.000603219
0.00597451
-0.000819103
0.00656175
0.00704861
-3.25849e-05
0.00123953
-0.000114936
0.00297625
-0.000240032
0.00434191
-0.000400331
0.00537119
-0.000589619
0.0061638
-0.000802315
0.00677444
0.0072808
-3.13587e-05
0.00127088
-0.000111144
0.00305603
-0.000232967
0.00446374
-0.000389767
0.00552799
-0.000575591
0.00634962
-0.000784983
0.00698383
0.00750985
-3.01054e-05
0.00130099
-0.000107259
0.00313319
-0.000225715
0.00458219
-0.000378904
0.00568117
-0.000561145
0.00653186
-0.000767114
0.0071898
0.00773564
-2.88266e-05
0.00132982
-0.000103286
0.00320764
-0.000218281
0.00469719
-0.000367749
0.00583064
-0.000546288
0.0067104
-0.000748718
0.00739223
0.00795807
-2.7524e-05
0.00135734
-9.92278e-05
0.00327935
-0.000210672
0.00480863
-0.00035631
0.00597628
-0.000531032
0.00688512
-0.000729805
0.00759101
0.00817701
-2.61995e-05
0.00138354
-9.50904e-05
0.00334824
-0.000202897
0.00491644
-0.000344598
0.00611798
-0.000515386
0.00705591
-0.000710384
0.00778601
-0.000925729
0.00839235
0.00892924
-2.48546e-05
0.00140839
-9.0878e-05
0.00341426
-0.000194962
0.00502052
-0.000332621
0.00625564
-0.000499359
0.00722265
-0.000690467
0.00797711
-0.000902103
0.00860399
0.00915853
-2.34913e-05
0.00143189
-8.65956e-05
0.00347737
-0.000186876
0.0051208
-0.00032039
0.00638916
-0.000482964
0.00738522
-0.000670064
0.00816421
-0.000877878
0.0088118
0.00938414
-2.21113e-05
0.001454
-8.22481e-05
0.0035375
-0.000178645
0.0052172
-0.000307914
0.00651842
-0.00046621
0.00754352
-0.000649186
0.00834719
-0.000853065
0.00901568
0.00960597
-2.07166e-05
0.00147471
-7.78406e-05
0.00359463
-0.000170279
0.00530964
-0.000295204
0.00664335
-0.000449109
0.00769743
-0.000627845
0.00852592
-0.000827676
0.00921551
0.0098239
-1.9309e-05
0.00149402
-7.33782e-05
0.0036487
-0.000161787
0.00539805
-0.00028227
0.00676383
-0.000431675
0.00784683
-0.000606053
0.0087003
-0.000801722
0.00941118
0.0100378
-1.78903e-05
0.00151191
-6.88664e-05
0.00369967
-0.000153176
0.00548235
-0.000269124
0.00687978
-0.000413918
0.00799162
-0.000583824
0.00887021
-0.000775217
0.00960257
-0.000985039
0.0102477
0.0108653
-1.64626e-05
0.00152838
-6.43104e-05
0.00374752
-0.000144455
0.0055625
-0.000255778
0.0069911
-0.000395852
0.0081317
-0.00056117
0.00903553
-0.000748172
0.00978958
-0.000953777
0.0104533
0.0110874
-1.50485e-05
0.00154342
-5.97483e-05
0.00379222
-0.000135672
0.00563842
-0.000242282
0.00709771
-0.000377528
0.00826694
-0.000538139
0.00919614
-0.000720631
0.00997207
-0.000921903
0.0106545
0.0113052
-1.36089e-05
0.00155703
-5.5121e-05
0.00383373
-0.000126761
0.00571006
-0.000228571
0.00719952
-0.000358885
0.00839726
-0.000514679
0.00935193
-0.00069255
0.0101499
-0.000889386
0.0108514
0.0115188
-1.21662e-05
0.0015692
-5.04665e-05
0.00387203
-0.000117768
0.00577736
-0.000214695
0.00729645
-0.000339975
0.00852254
-0.000490837
0.00950279
-0.000663972
0.0103231
-0.000856262
0.0110437
0.0117279
-1.07224e-05
0.00157992
-4.57903e-05
0.0039071
-0.000108704
0.00584028
-0.000200669
0.00738841
-0.000320812
0.00864268
-0.000466628
0.00964861
-0.000634913
0.0104914
-0.000822545
0.0112313
-0.00102711
0.0119324
0.0126355
-9.27945e-06
0.0015892
-4.10983e-05
0.00393892
-9.95783e-05
0.00589876
-0.000186506
0.00747534
-0.000301411
0.00875759
-0.00044207
0.00978927
-0.000605388
0.0106547
-0.000788251
0.0114142
-0.000988168
0.0121323
0.012851
-7.83941e-06
0.00159704
-3.63962e-05
0.00396748
-9.04009e-05
0.00595276
-0.000172218
0.00755716
-0.000281789
0.00886716
-0.000417178
0.00992466
-0.000575414
0.0108129
-0.000753396
0.0115921
-0.000948565
0.0123275
0.0130617
-6.40423e-06
0.00160344
-3.16901e-05
0.00399276
-8.11823e-05
0.00600226
-0.00015782
0.0076338
-0.000261962
0.0089713
-0.00039197
0.0100547
-0.000545008
0.010966
-0.000717996
0.0117651
-0.000908311
0.0125178
0.0132676
-4.97591e-06
0.00160842
-2.69858e-05
0.00401477
-7.19329e-05
0.0060472
-0.000143326
0.00770519
-0.000241947
0.00906992
-0.000366464
0.0101792
-0.000514187
0.0111137
-0.000682067
0.011933
-0.000867422
0.0127032
-0.00106842
0.0134686
0.0142646
-3.55644e-06
0.00161198
-2.22892e-05
0.00403351
-6.26634e-05
0.00608758
-0.000128752
0.00777128
-0.000221761
0.00916293
-0.000340678
0.0102981
-0.00048297
0.011256
-0.000645628
0.0120957
-0.000825916
0.0128835
-0.0010219
0.0136646
0.0144753
-2.1479e-06
0.00161412
-1.76065e-05
0.00404896
-5.33845e-05
0.00612335
-0.000114111
0.007832
-0.000201422
0.00925024
-0.000314631
0.0104113
-0.000451376
0.0113927
-0.000608697
0.012253
-0.00078381
0.0130586
-0.000974692
0.0138554
0.0146808
-7.5336e-07
0.00161488
-1.29434e-05
0.00406115
-4.41071e-05
0.00615452
-9.942e-05
0.00788732
-0.000180948
0.00933177
-0.000288344
0.0105187
-0.000419425
0.0115238
-0.000571293
0.0124049
-0.000741121
0.0132284
-0.000926796
0.0140411
-0.00112712
0.0148811
0.0157705
6.29614e-07
0.00161425
-8.30612e-06
0.00407009
-3.48423e-05
0.00618105
-8.46937e-05
0.00793717
-0.000160358
0.00940743
-0.000261836
0.0106202
-0.000387137
0.0116491
-0.000533436
0.0125511
-0.000697868
0.0133928
-0.000878235
0.0142215
-0.00107323
0.0150761
0.0159797
1.99677e-06
0.00161225
-3.70048e-06
0.00407579
-2.56011e-05
0.00620296
-6.99483e-05
0.00798152
-0.000139673
0.00947716
-0.00023513
0.0107156
-0.000354535
0.0117685
-0.000495147
0.0126918
-0.000654072
0.0135518
-0.000829027
0.0143964
-0.0010186
0.0152657
0.0161834
3.3438e-06
0.00160891
8.67416e-07
0.00407826
-1.63948e-05
0.00622022
-5.52e-05
0.00802032
-0.000118911
0.00954087
-0.000208246
0.010805
-0.000321641
0.0118819
-0.000456446
0.0128266
-0.000609751
0.0137051
-0.00077919
0.0145659
-0.000963243
0.0154498
-0.00116132
0.0163815
0.0173776
4.67051e-06
0.00160424
5.39155e-06
0.00407754
-7.23449e-06
0.00623284
-4.04652e-05
0.00805355
-9.80933e-05
0.0095985
-0.000181209
0.0108881
-0.000288477
0.0119892
-0.000417357
0.0129554
-0.000564928
0.0138526
-0.000728745
0.0147297
-0.000907182
0.0156282
-0.00109956
0.0165739
0.017584
5.9754e-06
0.00159826
9.86633e-06
0.00407365
1.86919e-06
0.00624084
-2.57608e-05
0.00808118
-7.72411e-05
0.00964998
-0.00015404
0.0109649
-0.000255068
0.0120902
-0.000377903
0.0130783
-0.000519623
0.0139944
-0.000677712
0.0148878
-0.000850436
0.0158009
-0.00103701
0.0167604
-0.00123745
0.0177844
0.0188822
7.25673e-06
0.001591
1.42857e-05
0.00406662
1.09022e-05
0.00624422
-1.11036e-05
0.00810319
-5.63756e-05
0.00969525
-0.000126765
0.0110353
-0.000221439
0.0121849
-0.000338108
0.013195
-0.000473861
0.0141301
-0.000626112
0.01504
-0.000793023
0.0159678
-0.000973703
0.0169411
-0.00116809
0.0179788
0.0190908
8.51278e-06
0.00158249
1.8644e-05
0.00405649
1.98557e-05
0.00624301
3.48907e-06
0.00811955
-3.55188e-05
0.00973426
-9.94089e-05
0.0110992
-0.000187615
0.0122731
-0.000297997
0.0133053
-0.000427664
0.0142598
-0.000573968
0.0151863
-0.000734965
0.0161288
-0.000909658
0.0171158
-0.0010979
0.018167
0.0192932
9.74191e-06
0.00157275
2.29355e-05
0.0040433
2.87177e-05
0.00623723
1.8e-05
0.00813027
-1.4693e-05
0.00976695
-7.19963e-05
0.0111565
-0.000153624
0.0123547
-0.000257598
0.0134093
-0.000381058
0.0143832
-0.000521302
0.0153266
-0.000676283
0.0162838
-0.000844893
0.0172844
-0.0010269
0.018349
-0.00122278
0.0194891
0.0207117
1.09425e-05
0.00156181
2.71545e-05
0.00402709
3.74768e-05
0.00622691
3.24115e-05
0.00813534
6.07892e-06
0.00979328
-4.45543e-05
0.0112071
-0.000119494
0.0124296
-0.000216936
0.0135067
-0.000334068
0.0145004
-0.000468139
0.0154606
-0.000616999
0.0164327
-0.000779431
0.0174469
-0.000955106
0.0185247
-0.00114445
0.0196784
-0.00134843
0.0209157
0.0222409
1.21131e-05
0.00154969
3.12956e-05
0.0040079
4.61216e-05
0.00621208
4.67059e-05
0.00813475
2.67725e-05
0.00981322
-1.71101e-05
0.011251
-8.52526e-05
0.0124978
-0.000176042
0.0135975
-0.000286721
0.0146111
-0.000414503
0.0155884
-0.000557137
0.0165753
-0.000713293
0.017603
-0.000882544
0.018694
-0.00106525
0.0198611
-0.00126235
0.0211128
0.0224539
1.32521e-05
0.00153644
3.53534e-05
0.0039858
5.4641e-05
0.00619279
6.08656e-05
0.00812853
4.73654e-05
0.00982672
1.03084e-05
0.011288
-5.09308e-05
0.012559
-0.000134944
0.0136816
-0.000239047
0.0147152
-0.000360421
0.0157098
-0.000496721
0.0167116
-0.000646502
0.0177528
-0.000809233
0.0188567
-0.000985205
0.0200371
-0.00117532
0.0213029
-0.00138101
0.0226596
0.0241119
1.43581e-05
0.00152208
3.93227e-05
0.00396084
6.30237e-05
0.00616909
7.48725e-05
0.00811668
6.7833e-05
0.00983375
3.76727e-05
0.0113182
-1.65592e-05
0.0126132
-9.36737e-05
0.0137587
-0.000191074
0.0148126
-0.00030592
0.0158247
-0.000435776
0.0168414
-0.00057908
0.0178961
-0.000735196
0.0190128
-0.000904337
0.0202062
-0.00108736
0.021486
-0.0012857
0.0228579
0.0243273
1.54299e-05
0.00150665
4.31983e-05
0.00393307
7.1259e-05
0.00614103
8.87088e-05
0.00809923
8.81509e-05
0.00983431
6.49531e-05
0.0113414
1.78301e-05
0.0126604
-5.22636e-05
0.0138288
-0.000142833
0.0149031
-0.000251029
0.0159328
-0.000374328
0.0169647
-0.000511053
0.0180328
-0.000660456
0.0191622
-0.000822667
0.0203684
-0.000998497
0.0216618
-0.00118935
0.0230488
-0.001397
0.0245349
0.0261261
1.64662e-05
0.00149019
4.69752e-05
0.00390256
7.93358e-05
0.00610867
0.000102357
0.00807621
0.000108294
0.00982838
9.21196e-05
0.0113576
5.2204e-05
0.0127003
-1.07474e-05
0.0138917
-9.43561e-05
0.0149867
-0.000195777
0.0160343
-0.000312405
0.0170814
-0.000442446
0.0181629
-0.000585037
0.0193048
-0.000740218
0.0205236
-0.000908745
0.0218303
-0.001092
0.023232
-0.00129176
0.0247347
-0.00151048
0.0263449
0.0280647
1.74656e-05
0.00147272
5.06488e-05
0.00386938
8.72435e-05
0.00607208
0.000115798
0.00804765
0.000128238
0.00981594
0.000119141
0.0113667
8.65283e-05
0.0127329
3.08406e-05
0.0139474
-4.5678e-05
0.0150633
-0.000140196
0.0161288
-0.000250035
0.0171912
-0.000373285
0.0182861
-0.000508963
0.0194405
-0.000657013
0.0206717
-0.000818129
0.0219914
-0.000993664
0.0234076
-0.00118539
0.0249264
-0.00139578
0.0265552
-0.00162706
0.028296
0.0301688
1.84272e-05
0.0014543
5.42143e-05
0.00383359
9.49717e-05
0.00603132
0.000129015
0.00801361
0.000147956
0.00979699
0.000145987
0.0113686
0.000120768
0.0127581
7.24633e-05
0.0139957
3.16663e-06
0.0151325
-8.43193e-05
0.0162163
-0.00018725
0.0172941
-0.000303599
0.0184025
-0.000432261
0.0195691
-0.000573078
0.0208125
-0.000726672
0.022145
-0.00089436
0.0235752
-0.00107791
0.02511
-0.0012798
0.0267571
-0.00150233
0.0285185
0.0304158
1.93499e-05
0.00143495
5.76675e-05
0.00379527
0.00010251
0.00598648
0.00014199
0.00797413
0.000167425
0.00977156
0.000172624
0.0113634
0.000154886
0.0127759
0.000114083
0.0140365
5.21411e-05
0.0151945
-2.81807e-05
0.0162966
-0.000124079
0.01739
-0.000233417
0.0185118
-0.000354959
0.0196907
-0.000488439
0.020946
-0.0006344
0.022291
-0.000794114
0.023735
-0.000969332
0.0252852
-0.00116253
0.0269503
-0.00137612
0.0287321
0.0306536
2.02328e-05
0.00141471
6.1004e-05
0.0037545
0.000109849
0.00593763
0.000154706
0.00792927
0.000186617
0.00973965
0.00019902
0.011351
0.000188846
0.012786
0.000155661
0.0140697
0.000101207
0.0152489
2.81832e-05
0.0163696
-6.05578e-05
0.0174788
-0.000162768
0.018614
-0.000277084
0.019805
-0.000403122
0.021072
-0.000541339
0.0224292
-0.000692951
0.0238866
-0.000859687
0.0254519
-0.00104402
0.0271347
-0.00124841
0.0289365
0.0308817
2.10749e-05
0.00139364
6.422e-05
0.00371136
0.000116978
0.00588487
0.000167144
0.00787911
0.000205506
0.00970129
0.000225142
0.0113314
0.000222609
0.0127886
0.000197156
0.0140951
0.000150323
0.0152958
8.47348e-05
0.0164352
3.27935e-06
0.0175602
-9.16855e-05
0.018709
-0.000198666
0.019912
-0.000317156
0.0211905
-0.000447516
0.0225596
-0.000590897
0.02403
-0.000748998
0.02561
-0.000924264
0.0273099
-0.00111924
0.0291315
0.0311
2.18754e-05
0.00137176
6.73116e-05
0.00366592
0.000123889
0.0058283
0.000179289
0.00782371
0.000224069
0.00965651
0.000250956
0.0113045
0.000256135
0.0127834
0.000238526
0.0141128
0.000199447
0.0153349
0.000141434
0.0164932
6.73983e-05
0.0176343
-2.02028e-05
0.0187966
-0.000119737
0.0200115
-0.000230571
0.0213013
-0.00035296
0.0226819
-0.00048798
0.024165
-0.000637291
0.0257593
-0.000803301
0.0274759
-0.000988611
0.0293168
2.26338e-05
0.00134913
7.02753e-05
0.00361828
0.000130571
0.005768
0.000191123
0.00776316
0.000242277
0.00960535
0.000276427
0.0112704
0.000289384
0.0127704
0.000279727
0.0141224
0.000248537
0.015366
0.000198239
0.0165435
0.000131757
0.0177008
5.16457e-05
0.0188767
-4.03301e-05
0.0201035
-0.000143397
0.0214044
-0.000257701
0.0227962
-0.000384231
0.0242915
-0.000524594
0.0258997
-0.000681152
0.0276325
0.0294922
2.33494e-05
0.00132578
7.3108e-05
0.00356852
0.000137018
0.00570409
0.000202629
0.00769754
0.000260106
0.00954788
0.000301522
0.011229
0.000322315
0.0127496
0.000320714
0.014124
0.000297545
0.0153892
0.000255105
0.016586
0.000196317
0.0177595
0.000123822
0.0189492
3.95214e-05
0.0201878
-5.56694e-05
0.0214996
-0.000161772
0.0229024
-0.00027968
0.0244094
-0.00041094
0.026031
-0.000557849
0.0277794
0.0296574
2.40216e-05
0.00130176
7.58066e-05
0.00351673
0.00014322
0.00563668
0.000213792
0.00762697
0.000277531
0.00948414
0.000326204
0.0111803
0.000354885
0.012721
0.00036144
0.0141175
0.000346424
0.0154042
0.000311987
0.0166204
0.000261034
0.0178105
0.000196286
0.0190139
0.000119781
0.0202643
3.25793e-05
0.0215868
-6.52065e-05
0.0230001
-0.000174363
0.0245186
-0.000296361
0.026153
-0.000433425
0.0279165
0.0298122
2.46501e-05
0.00127711
7.83684e-05
0.00346302
0.000149169
0.00556588
0.000224597
0.00755154
0.000294525
0.00941421
0.00035044
0.0111244
0.00038705
0.0126843
0.000401856
0.0141027
0.000395124
0.015411
0.000368836
0.0166467
0.000325864
0.0178535
0.000268998
0.0190708
0.00020041
0.0203329
0.000121313
0.0216659
3.196e-05
0.0230895
-6.83158e-05
0.0246188
-0.000180895
0.0262655
-0.000307918
0.0280435
0.0299564
2.52345e-05
0.00125187
8.07909e-05
0.00340746
0.000154859
0.00549181
0.000235026
0.00747138
0.000311064
0.00933817
0.000374193
0.0110612
0.000418767
0.0126398
0.000441913
0.0140795
0.000443592
0.0154093
0.000425602
0.0166647
0.000390758
0.0178883
0.000341913
0.0191196
0.000281367
0.0203934
0.000210492
0.0217368
0.00012969
0.0231703
3.84244e-05
0.0247101
-6.45816e-05
0.0263686
-0.000181369
0.0281603
0.0300896
2.57746e-05
0.0012261
8.30721e-05
0.00335016
0.000160283
0.0054146
0.000245068
0.00738659
0.000327123
0.00925612
0.000397428
0.0109909
0.000449991
0.0125872
0.00048156
0.0140479
0.000491776
0.0153991
0.00048223
0.0166742
0.000455667
0.0179149
0.000414986
0.0191603
0.000362612
0.0204458
0.000300077
0.0217993
0.000227944
0.0232424
0.000145819
0.0247922
5.2537e-05
0.0264618
-5.38292e-05
0.0282667
0.0302116
2.62704e-05
0.00119983
8.521e-05
0.00329122
0.000165433
0.00533438
0.000254706
0.00729732
0.000342678
0.00916814
0.000420111
0.0109135
0.000480675
0.0125266
0.000520743
0.0140079
0.000539618
0.0153802
0.000538666
0.0166752
0.000520538
0.017933
0.000488167
0.0191927
0.000444098
0.0204899
0.000390026
0.0218534
0.000326679
0.0233058
0.000253823
0.0248651
0.000170416
0.0265452
7.46737e-05
0.0283624
0.0303221
2.67216e-05
0.00117311
8.72031e-05
0.00323074
0.000170305
0.00525127
0.000263929
0.00720369
0.000357706
0.00907437
0.000442205
0.010829
0.000510775
0.0124581
0.000559408
0.0139592
0.000587061
0.0153525
0.000594849
0.0166674
0.000585314
0.0179425
0.000561405
0.0192166
0.000525778
0.0205255
0.000480292
0.0218988
0.000425852
0.0233602
0.00036239
0.0249286
0.000289007
0.0266186
0.000204071
0.0284473
0.030421
2.71285e-05
0.00114598
8.90501e-05
0.00316882
0.000174893
0.00516543
0.000272723
0.00710586
0.000372183
0.00897491
0.000463675
0.0107375
0.000540244
0.0123815
0.0005975
0.013902
0.000634043
0.015316
0.00065072
0.0166507
0.000649938
0.0179433
0.000634645
0.0192319
0.000607601
0.0205525
0.00057083
0.0219356
0.000525417
0.0234056
0.000471474
0.0249825
0.000408259
0.0266818
0.000334304
0.0285213
0.030508
2.74848e-05
0.00111849
9.07356e-05
0.00310557
0.000179168
0.005077
0.00028104
0.00700399
0.000386037
0.00886991
0.000484424
0.0106391
0.000568956
0.012297
0.000634871
0.0138361
0.000680395
0.0152705
0.000706092
0.016625
0.00071421
0.0179352
0.000707677
0.0192384
0.000689347
0.0205709
0.000661405
0.0219636
0.000625123
0.0234419
0.000580804
0.0250268
0.000527876
0.0267348
0.000465051
0.0285841
0.0305829
2.78035e-05
0.00109069
9.22882e-05
0.00304108
0.000183176
0.00498611
0.000288943
0.00689822
0.000399347
0.00875951
0.000504545
0.0105339
0.000597021
0.0122045
0.000671645
0.0137614
0.000726267
0.0152159
0.000761141
0.0165901
0.000778337
0.017918
0.000780744
0.019236
0.000771294
0.0205803
0.000752332
0.0219825
0.000725322
0.0234689
0.000690768
0.0250614
0.000648285
0.0267772
0.000596776
0.0286356
0.0306454
2.80785e-05
0.00106261
9.36929e-05
0.00297547
0.000186887
0.00489292
0.000296385
0.00678873
0.000412043
0.00864385
0.000523941
0.010422
0.000624314
0.0121041
0.000707674
0.0136781
0.000771484
0.015152
0.000815677
0.0165459
0.000842116
0.0178916
0.00085363
0.0192245
0.000853216
0.0205807
0.000843371
0.0219924
0.000825759
0.0234865
0.000801091
0.025086
0.000769184
0.0268092
0.000729147
0.0286757
0.0306954
2.83102e-05
0.0010343
9.49496e-05
0.00290883
0.0001903
0.00479757
0.000303356
0.00667567
0.000424105
0.0085231
0.000542578
0.0103036
0.000650787
0.0119959
0.000742896
0.013586
0.000815979
0.015079
0.000869625
0.0164923
0.000905473
0.0178557
0.000926265
0.0192037
0.000935048
0.020572
0.000934464
0.021993
0.000926376
0.0234946
0.000911715
0.0251007
0.000890511
0.0268304
0.000862094
0.0287041
0.0307326
2.84991e-05
0.0010058
9.60586e-05
0.00284127
0.000193412
0.00470021
0.000309848
0.00655923
0.000435514
0.00839744
0.000560424
0.0101786
0.000676394
0.0118799
0.000777251
0.0134851
0.000859679
0.0149965
0.000922911
0.0164291
0.000968332
0.0178103
0.000998578
0.0191735
0.00101672
0.0205538
0.00102555
0.0219841
0.00102711
0.0234931
0.00102258
0.0251052
0.0010122
0.0268407
0.000995541
0.0287207
0.0307568
2.86458e-05
0.000977156
9.70204e-05
0.0027729
0.000196221
0.00460101
0.000315854
0.0064396
0.000446253
0.00826704
0.00057745
0.0100474
0.000701088
0.0117563
0.000810678
0.0133755
0.000902513
0.0149047
0.000975454
0.0163561
0.00103061
0.0177551
0.00107049
0.0191336
0.00109817
0.0205261
0.00111656
0.0219657
0.00112791
0.0234817
0.00113362
0.0250995
0.00113418
0.0268402
0.00112941
0.0287255
0.030768
2.87509e-05
0.000948405
9.7836e-05
0.00270381
0.000198727
0.00450012
0.000321368
0.00631696
0.000456306
0.0081321
0.000593624
0.00991013
0.000724824
0.0116251
0.000843116
0.0132572
0.000944407
0.0148034
0.00102717
0.0162734
0.00109223
0.0176901
0.00114192
0.0190839
0.00117931
0.0204887
0.00120742
0.0219376
0.00122869
0.0234604
0.00124477
0.0250834
0.00125639
0.0268286
0.00126362
0.0287183
0.030766
2.88152e-05
0.00091959
9.85066e-05
0.00263412
0.000200929
0.0043977
0.000326384
0.00619151
0.000465659
0.00799282
0.000608919
0.00976687
0.000747556
0.0114865
0.000874503
0.0131303
0.000985284
0.0146926
0.00107799
0.0161807
0.0011531
0.017615
0.00121279
0.0190242
0.00126007
0.0204415
0.00129806
0.0218996
0.00132939
0.0234291
0.00135595
0.0250569
0.00137874
0.0268058
0.00139809
0.0286989
0.0307505
2.88395e-05
0.00089075
9.90335e-05
0.00256393
0.000202828
0.0042939
0.000330898
0.00606344
0.000474298
0.00784942
0.000623308
0.00961786
0.000769241
0.0113405
0.000904777
0.0129947
0.00102507
0.0145723
0.0011278
0.0160779
0.00121313
0.0175296
0.00128299
0.0189544
0.00134035
0.0203841
0.0013884
0.0218516
0.00142994
0.0233875
0.00146711
0.0250197
0.00150116
0.0267717
0.00153272
0.0286674
0.0307216
2.88246e-05
0.000861926
9.94185e-05
0.00249333
0.000204425
0.0041889
0.000334908
0.00593295
0.000482212
0.00770212
0.000636766
0.0094633
0.000789837
0.0111875
0.000933878
0.0128507
0.00106368
0.0144425
0.00117653
0.0159651
0.00127222
0.017434
0.00135245
0.0188741
0.00142007
0.0203165
0.00147835
0.0217933
0.00153025
0.0233356
0.00157814
0.0249718
0.00162357
0.0267263
0.00166744
0.0286235
0.0017099
0.0306792
0.0329151
2.87715e-05
0.000833154
9.96637e-05
0.00242244
0.000205721
0.00408284
0.000338411
0.00580026
0.000489391
0.00755114
0.000649269
0.00930343
0.000809301
0.0110274
0.000961744
0.0126983
0.00110105
0.0143032
0.00122409
0.015842
0.00133028
0.0173278
0.00142104
0.0187834
0.00149913
0.0202384
0.00156782
0.0217246
0.00163024
0.0232732
0.00168899
0.0249131
0.00174589
0.0266694
0.00180215
0.0285672
0.00185825
0.0306231
0.0328586
2.86812e-05
0.000804473
9.97713e-05
0.00235135
0.000206719
0.00397589
0.000341407
0.00566558
0.000495826
0.00739672
0.000660796
0.00913846
0.000827596
0.0108606
0.000988317
0.0125375
0.00113708
0.0141545
0.00127037
0.0157087
0.00138719
0.0172109
0.00148868
0.0186819
0.00157743
0.0201496
0.00165672
0.0216453
0.00172982
0.0232001
0.00179955
0.0248434
0.00186803
0.0266009
0.00193675
0.0284985
0.00200656
0.0305533
0.0327869
2.85546e-05
0.000775918
9.97438e-05
0.00228016
0.000207422
0.00386821
0.000343896
0.0055291
0.000501511
0.00723911
0.000671326
0.00896864
0.000844683
0.0106873
0.00101354
0.0123687
0.00117171
0.0139963
0.00131528
0.0155652
0.00144285
0.0170834
0.00155525
0.0185695
0.00165486
0.02005
0.00174495
0.0215553
0.00182889
0.0231162
0.00190974
0.0247625
0.00198989
0.0265208
0.00207115
0.0284173
0.0021547
0.0304697
0.0327
2.83929e-05
0.000747525
9.95839e-05
0.00220897
0.000207832
0.00375996
0.00034588
0.00539105
0.00050644
0.00707855
0.000680844
0.00879424
0.000860526
0.0105076
0.00103735
0.0121919
0.00120485
0.0138288
0.00135872
0.0154113
0.00149716
0.0169449
0.00162062
0.018446
0.0017313
0.0199393
0.00183239
0.0214542
0.00192736
0.0230212
0.00201947
0.0246704
0.00211139
0.0264288
0.00220524
0.0283234
0.00230258
0.0303724
0.032598
2.81972e-05
0.000719328
9.92945e-05
0.00213787
0.000207955
0.0036513
0.000347361
0.00525165
0.00051061
0.0069153
0.000689333
0.00861552
0.000875094
0.0103218
0.00105969
0.0120073
0.00123643
0.0136521
0.0014006
0.0152471
0.00154999
0.0167955
0.00168469
0.0183113
0.00180663
0.0198174
0.00191893
0.0213419
0.00202511
0.022915
0.00212863
0.0245669
0.00223242
0.0263251
0.00233893
0.0282169
0.00245007
0.0302612
0.0324807
2.79687e-05
0.000691359
9.88789e-05
0.00206696
0.000207795
0.00354239
0.000348343
0.0051111
0.00051402
0.00674962
0.000696781
0.00843275
0.000888356
0.0101303
0.00108052
0.0118151
0.00126636
0.0134662
0.00144081
0.0150727
0.00160123
0.0166351
0.00174731
0.0181652
0.00188072
0.019684
0.00200444
0.0212182
0.00212202
0.0227975
0.00223711
0.0244518
0.00235288
0.0262093
0.00247212
0.0280976
0.00259706
0.0301363
0.0323484
2.77085e-05
0.000663651
9.83403e-05
0.00199633
0.000207357
0.00343337
0.000348831
0.00496962
0.00051667
0.00658178
0.000703178
0.00824625
0.000900285
0.00993315
0.00109978
0.0116156
0.00129457
0.0132714
0.00147925
0.014888
0.00165075
0.0164636
0.00180836
0.0180076
0.00195344
0.0195389
0.00208879
0.0210828
0.00221798
0.0226683
0.00234479
0.024325
0.00247266
0.0260814
0.00260468
0.0279656
0.00274344
0.0299975
0.032201
2.74179e-05
0.000636233
9.76823e-05
0.00192607
0.000206646
0.00332441
0.000348831
0.00482744
0.000518562
0.00641205
0.000708516
0.00805629
0.000910856
0.00973081
0.00111743
0.011409
0.00132099
0.0130679
0.00151581
0.0146932
0.00169843
0.016281
0.00186771
0.0178383
0.00202464
0.019382
0.00217184
0.0209356
0.00231285
0.0225273
0.00245157
0.0241862
0.00259164
0.0259413
0.00273651
0.0278208
0.00288908
0.029845
0.0320386
0.0030515
2.70981e-05
0.000609135
9.69084e-05
0.00185626
0.000205669
0.00321565
0.00034835
0.00468476
0.000519701
0.0062407
0.000712791
0.0078632
0.000920048
0.00952355
0.00113342
0.0111957
0.00134554
0.0128558
0.00155041
0.0144883
0.00174416
0.0160872
0.0019252
0.0176573
0.00209417
0.019213
0.00225345
0.0207763
0.00240649
0.0223742
0.0025573
0.0240354
0.00270971
0.0257889
0.00286749
0.027663
0.00303386
0.0296786
0.0318612
0.00321123
2.67504e-05
0.000582384
9.60225e-05
0.00178698
0.000204433
0.00310724
0.000347395
0.0045418
0.000520092
0.006068
0.000716
0.0076673
0.000927845
0.0093117
0.00114771
0.0109758
0.00136816
0.0126353
0.00158294
0.0142735
0.00178779
0.0158824
0.00198069
0.0174644
0.00216187
0.0190318
0.00233345
0.0206047
0.00249875
0.0222089
0.00266184
0.0238723
0.00282674
0.025624
0.00299751
0.0274922
0.00317766
0.0294985
0.0316689
0.00336992
2.63759e-05
0.000556009
9.50285e-05
0.00171833
0.000202944
0.00299932
0.000345977
0.00439876
0.000519743
0.00589424
0.000718144
0.00746889
0.00093423
0.00909562
0.00116026
0.0107498
0.00138877
0.0124068
0.00161331
0.014049
0.00182921
0.0156665
0.00203403
0.0172596
0.00222758
0.0188383
0.00241167
0.0204206
0.00258946
0.0220311
0.00276505
0.0236968
0.00294257
0.0254465
0.00312642
0.0273083
0.00332036
0.0293045
0.0314619
0.00352743
2.5976e-05
0.000530032
9.39303e-05
0.00165038
0.00020121
0.00289204
0.000344104
0.00425587
0.000518663
0.00571968
0.000719226
0.00726833
0.000939196
0.00887565
0.00117104
0.0105179
0.00140733
0.0121705
0.00164141
0.0138149
0.00186828
0.0154396
0.00208506
0.0170428
0.00229113
0.0186322
0.00248794
0.0202238
0.00267845
0.0218406
0.00286675
0.0235085
0.00305707
0.0252562
0.0032541
0.0271113
0.00346182
0.0290968
0.03124
0.00368364
2.5552e-05
0.00050448
9.27321e-05
0.0015832
0.000199239
0.00278553
0.000341787
0.00411332
0.000516863
0.0055446
0.000719253
0.00706594
0.000942736
0.00865216
0.00118003
0.0102806
0.00142377
0.0119268
0.00166715
0.0135715
0.00190488
0.0152019
0.00213363
0.0168141
0.00235233
0.0184135
0.00256207
0.0200141
0.00276555
0.0216371
0.00296679
0.0233072
0.00317008
0.0250529
0.0033804
0.026901
0.0036019
0.0288753
0.0310035
0.00383843
2.5105e-05
0.000479375
9.1438e-05
0.00151686
0.000197038
0.00267993
0.000339039
0.00397132
0.000514357
0.00536928
0.000718234
0.00686206
0.000944846
0.00842555
0.0011872
0.0100383
0.00143803
0.0116759
0.00169046
0.0133191
0.00193888
0.0149535
0.00217958
0.0165734
0.00241102
0.0181821
0.00263387
0.0197912
0.00285054
0.0214205
0.00306496
0.0230928
0.00328142
0.0248364
0.00350517
0.0266773
0.00374046
0.02864
0.0307523
0.00399166
2.46363e-05
0.000454739
9.00523e-05
0.00145145
0.000194617
0.00257537
0.000335871
0.00383007
0.000511158
0.005194
0.000716181
0.00665704
0.00094553
0.0081962
0.00119253
0.00979127
0.00145008
0.0114184
0.00171124
0.0130579