/*--------------------------------*- C++ -*----------------------------------*\
  =========                 |
  \\      /  F ield         | OpenFOAM: The Open Source CFD Toolbox
   \\    /   O peration     | Website:  https://openfoam.org
    \\  /    A nd           | Version:  7
     \\/     M anipulation  |
\*---------------------------------------------------------------------------*/
FoamFile
{
    version     2.0;
    format      ascii;
    class       volVectorField;
    location    "10";
    object      U;
}
// * * * * * * * * * * * * * * * * * * * * * * * * * * * * * * * * * * * * * //

dimensions      [0 1 -1 0 0 0 0];

internalField   nonuniform List<vector> 
2625
(
(1.19417 0.000512601 0)
(1.19077 0.000523251 0)
(1.18725 0.000533979 0)
(1.18361 0.000544741 0)
(1.17984 0.00055548 0)
(1.17595 0.000566132 0)
(1.17193 0.000576619 0)
(1.16777 0.000586856 0)
(1.16349 0.000596743 0)
(1.15907 0.000606171 0)
(1.15452 0.000615021 0)
(1.14985 0.000623163 0)
(1.14504 0.000630457 0)
(1.14012 0.000636757 0)
(1.13508 0.000641907 0)
(1.12994 0.00064575 0)
(1.1247 0.000648126 0)
(1.11937 0.000648874 0)
(1.11396 0.000647841 0)
(1.1085 0.00064488 0)
(1.10299 0.00063986 0)
(1.09746 0.000632666 0)
(1.09193 0.000623211 0)
(1.08641 0.000611436 0)
(1.08093 0.000597319 0)
(1.07551 0.000580878 0)
(1.07018 0.000562177 0)
(1.06497 0.000541327 0)
(1.05988 0.00051849 0)
(1.05496 0.000493871 0)
(1.05022 0.000467726 0)
(1.04568 0.000440342 0)
(1.04136 0.000412045 0)
(1.03728 0.000383167 0)
(1.03344 0.000354076 0)
(1.02985 0.000325092 0)
(1.02652 0.000296591 0)
(1.02345 0.000268817 0)
(1.02064 0.000242142 0)
(1.01808 0.00021665 0)
(1.01576 0.000192751 0)
(1.01369 0.00017025 0)
(1.01182 0.000149731 0)
(1.01018 0.000130511 0)
(1.0087 0.000113659 0)
(1.00746 9.7601e-05 0)
(1.00628 8.44847e-05 0)
(1.00542 7.11015e-05 0)
(1.00441 6.16603e-05 0)
(1.00395 5.0286e-05 0)
(1.00295 4.29026e-05 0)
(1.19414 0.00153196 0)
(1.19074 0.00156378 0)
(1.18722 0.00159583 0)
(1.18357 0.00162798 0)
(1.17981 0.00166006 0)
(1.17591 0.00169188 0)
(1.17189 0.00172321 0)
(1.16773 0.00175378 0)
(1.16345 0.00178332 0)
(1.15903 0.00181148 0)
(1.15448 0.00183791 0)
(1.1498 0.00186223 0)
(1.145 0.00188401 0)
(1.14008 0.00190283 0)
(1.13504 0.0019182 0)
(1.1299 0.00192967 0)
(1.12466 0.00193676 0)
(1.11933 0.00193898 0)
(1.11392 0.00193588 0)
(1.10846 0.00192702 0)
(1.10296 0.001912 0)
(1.09743 0.00189049 0)
(1.09189 0.00186223 0)
(1.08637 0.00182703 0)
(1.08089 0.00178483 0)
(1.07548 0.00173569 0)
(1.07015 0.0016798 0)
(1.06494 0.00161749 0)
(1.05986 0.00154925 0)
(1.05494 0.00147568 0)
(1.0502 0.00139755 0)
(1.04566 0.00131572 0)
(1.04134 0.00123116 0)
(1.03726 0.00114487 0)
(1.03342 0.00105794 0)
(1.02983 0.000971338 0)
(1.02651 0.000886169 0)
(1.02344 0.000803191 0)
(1.02063 0.000723469 0)
(1.01807 0.000647328 0)
(1.01575 0.000575877 0)
(1.01368 0.000508709 0)
(1.01181 0.000447303 0)
(1.01018 0.000390025 0)
(1.00869 0.000339452 0)
(1.00746 0.000291804 0)
(1.00627 0.000252121 0)
(1.00541 0.000212869 0)
(1.00441 0.000183574 0)
(1.00395 0.000151213 0)
(1.00294 0.000127588 0)
(1.19407 0.00253984 0)
(1.19067 0.00259255 0)
(1.18714 0.00264565 0)
(1.1835 0.0026989 0)
(1.17973 0.00275205 0)
(1.17584 0.00280475 0)
(1.17181 0.00285665 0)
(1.16765 0.00290729 0)
(1.16337 0.00295621 0)
(1.15895 0.00300285 0)
(1.1544 0.00304662 0)
(1.14972 0.00308689 0)
(1.14492 0.00312295 0)
(1.14 0.00315408 0)
(1.13496 0.00317953 0)
(1.12982 0.00319849 0)
(1.12458 0.00321019 0)
(1.11925 0.00321383 0)
(1.11385 0.00320864 0)
(1.10839 0.00319391 0)
(1.10288 0.00316898 0)
(1.09735 0.00313328 0)
(1.09182 0.00308639 0)
(1.08631 0.00302802 0)
(1.08083 0.00295805 0)
(1.07542 0.00287657 0)
(1.07009 0.00278391 0)
(1.06488 0.00268061 0)
(1.0598 0.00256747 0)
(1.05489 0.00244552 0)
(1.05015 0.00231602 0)
(1.04562 0.00218038 0)
(1.0413 0.00204023 0)
(1.03722 0.00189722 0)
(1.03338 0.00175314 0)
(1.0298 0.00160962 0)
(1.02648 0.00146846 0)
(1.02341 0.00133096 0)
(1.0206 0.00119882 0)
(1.01805 0.00107268 0)
(1.01573 0.000954205 0)
(1.01366 0.000843002 0)
(1.01179 0.000741086 0)
(1.01017 0.000646408 0)
(1.00868 0.000562249 0)
(1.00745 0.000483824 0)
(1.00626 0.000417278 0)
(1.00541 0.000353409 0)
(1.0044 0.00030314 0)
(1.00395 0.000252087 0)
(1.00294 0.000210454 0)
(1.19397 0.00353664 0)
(1.19056 0.00360995 0)
(1.18704 0.0036838 0)
(1.18339 0.00375787 0)
(1.17962 0.00383178 0)
(1.17572 0.00390508 0)
(1.1717 0.00397724 0)
(1.16754 0.00404767 0)
(1.16325 0.00411568 0)
(1.15883 0.00418052 0)
(1.15428 0.00424137 0)
(1.1496 0.00429733 0)
(1.1448 0.00434744 0)
(1.13988 0.00439069 0)
(1.13484 0.00442601 0)
(1.1297 0.00445232 0)
(1.12446 0.00446851 0)
(1.11913 0.00447348 0)
(1.11373 0.00446616 0)
(1.10827 0.00444557 0)
(1.10277 0.00441077 0)
(1.09725 0.00436101 0)
(1.09172 0.00429566 0)
(1.0862 0.00421433 0)
(1.08073 0.00411686 0)
(1.07532 0.00400339 0)
(1.07 0.00387436 0)
(1.0648 0.00373053 0)
(1.05972 0.00357302 0)
(1.05481 0.00340325 0)
(1.05008 0.00322297 0)
(1.04555 0.00303417 0)
(1.04124 0.0028391 0)
(1.03717 0.00264005 0)
(1.03333 0.00243951 0)
(1.02976 0.00223978 0)
(1.02643 0.00204331 0)
(1.02338 0.00185198 0)
(1.02057 0.00166805 0)
(1.01802 0.00149256 0)
(1.01571 0.00132764 0)
(1.01364 0.00117298 0)
(1.01177 0.00103103 0)
(1.01015 0.000899482 0)
(1.00866 0.000782093 0)
(1.00744 0.000673397 0)
(1.00625 0.000580171 0)
(1.0054 0.000492247 0)
(1.0044 0.000420931 0)
(1.00394 0.000351925 0)
(1.00293 0.000292021 0)
(1.19384 0.00452272 0)
(1.19043 0.00461633 0)
(1.1869 0.00471063 0)
(1.18325 0.0048052 0)
(1.17948 0.00489957 0)
(1.17558 0.00499315 0)
(1.17155 0.00508527 0)
(1.16739 0.00517517 0)
(1.1631 0.00526197 0)
(1.15868 0.00534472 0)
(1.15413 0.00542237 0)
(1.14945 0.00549375 0)
(1.14464 0.00555766 0)
(1.13972 0.00561279 0)
(1.13469 0.00565779 0)
(1.12954 0.00569126 0)
(1.12431 0.0057118 0)
(1.11898 0.00571799 0)
(1.11358 0.00570849 0)
(1.10813 0.00568201 0)
(1.10263 0.00563739 0)
(1.09711 0.00557363 0)
(1.09158 0.00548997 0)
(1.08607 0.00538589 0)
(1.08061 0.0052612 0)
(1.0752 0.00511606 0)
(1.06989 0.00495104 0)
(1.06469 0.00476713 0)
(1.05962 0.00456574 0)
(1.05471 0.0043487 0)
(1.04999 0.00411825 0)
(1.04547 0.00387693 0)
(1.04116 0.00362759 0)
(1.03709 0.00337319 0)
(1.03327 0.0031169 0)
(1.0297 0.00286165 0)
(1.02638 0.00261058 0)
(1.02333 0.0023661 0)
(1.02052 0.00213105 0)
(1.01798 0.00190684 0)
(1.01567 0.00169607 0)
(1.01361 0.00149853 0)
(1.01175 0.00131707 0)
(1.01012 0.00114914 0)
(1.00864 0.000998937 0)
(1.00742 0.000860414 0)
(1.00624 0.000740804 0)
(1.00538 0.000629234 0)
(1.00438 0.000537043 0)
(1.00393 0.000450474 0)
(1.00293 0.00037239 0)
(1.19367 0.00549843 0)
(1.19026 0.00561203 0)
(1.18673 0.00572646 0)
(1.18307 0.00584121 0)
(1.1793 0.00595571 0)
(1.17539 0.00606925 0)
(1.17136 0.00618101 0)
(1.1672 0.00629006 0)
(1.16291 0.00639534 0)
(1.15849 0.00649569 0)
(1.15393 0.00658982 0)
(1.14925 0.00667635 0)
(1.14445 0.00675378 0)
(1.13953 0.00682054 0)
(1.13449 0.00687498 0)
(1.12935 0.00691542 0)
(1.12412 0.00694014 0)
(1.11879 0.00694743 0)
(1.1134 0.00693566 0)
(1.10795 0.00690325 0)
(1.10245 0.00684882 0)
(1.09693 0.00677115 0)
(1.09141 0.00666929 0)
(1.08591 0.00654265 0)
(1.08045 0.00639097 0)
(1.07505 0.00621448 0)
(1.06975 0.00601385 0)
(1.06455 0.00579029 0)
(1.05949 0.00554552 0)
(1.05459 0.00528176 0)
(1.04988 0.00500173 0)
(1.04536 0.00470851 0)
(1.04107 0.00440557 0)
(1.037 0.00409652 0)
(1.03319 0.00378517 0)
(1.02962 0.00347512 0)
(1.02631 0.00317014 0)
(1.02326 0.0028732 0)
(1.02047 0.0025877 0)
(1.01793 0.00231542 0)
(1.01563 0.0020594 0)
(1.01357 0.00181956 0)
(1.01171 0.0015991 0)
(1.01009 0.00139532 0)
(1.00862 0.00121271 0)
(1.0074 0.00104482 0)
(1.00622 0.000899112 0)
(1.00537 0.00076434 0)
(1.00437 0.00065141 0)
(1.00392 0.000547737 0)
(1.00292 0.000451509 0)
(1.19348 0.00646409 0)
(1.19006 0.00659736 0)
(1.18652 0.00673159 0)
(1.18287 0.0068662 0)
(1.17908 0.00700049 0)
(1.17518 0.00713365 0)
(1.17114 0.0072647 0)
(1.16698 0.00739256 0)
(1.16268 0.00751599 0)
(1.15826 0.00763361 0)
(1.15371 0.00774391 0)
(1.14903 0.00784528 0)
(1.14422 0.00793595 0)
(1.1393 0.00801407 0)
(1.13427 0.00807772 0)
(1.12913 0.00812491 0)
(1.12389 0.00815362 0)
(1.11857 0.00816187 0)
(1.11318 0.00814771 0)
(1.10773 0.00810933 0)
(1.10224 0.00804508 0)
(1.09673 0.00795353 0)
(1.09122 0.0078336 0)
(1.08572 0.00768456 0)
(1.08027 0.00750614 0)
(1.07488 0.00729859 0)
(1.06958 0.00706271 0)
(1.06439 0.00679992 0)
(1.05934 0.00651225 0)
(1.05445 0.00620231 0)
(1.04975 0.00587328 0)
(1.04524 0.0055288 0)
(1.04095 0.00517293 0)
(1.0369 0.0048099 0)
(1.03309 0.00444421 0)
(1.02953 0.00408006 0)
(1.02623 0.00372188 0)
(1.02319 0.00337317 0)
(1.02041 0.0030379 0)
(1.01787 0.0027182 0)
(1.01558 0.00241754 0)
(1.01353 0.00213599 0)
(1.01167 0.00187705 0)
(1.01006 0.00163795 0)
(1.00859 0.00142334 0)
(1.00737 0.00122657 0)
(1.00619 0.00105504 0)
(1.00535 0.000897531 0)
(1.00435 0.000763985 0)
(1.0039 0.000643696 0)
(1.00291 0.00052934 0)
(1.19325 0.00742001 0)
(1.18983 0.00757261 0)
(1.18629 0.0077263 0)
(1.18263 0.00788041 0)
(1.17884 0.00803416 0)
(1.17493 0.00818658 0)
(1.17089 0.00833659 0)
(1.16672 0.00848291 0)
(1.16242 0.00862413 0)
(1.158 0.00875868 0)
(1.15344 0.00888483 0)
(1.14876 0.00900071 0)
(1.14396 0.00910431 0)
(1.13904 0.00919351 0)
(1.134 0.00926611 0)
(1.12887 0.00931981 0)
(1.12363 0.00935232 0)
(1.11832 0.00936136 0)
(1.11293 0.00934471 0)
(1.10749 0.00930027 0)
(1.102 0.00922617 0)
(1.0965 0.00912079 0)
(1.09099 0.00898287 0)
(1.0855 0.00881159 0)
(1.08006 0.00860664 0)
(1.07468 0.00836831 0)
(1.06938 0.00809754 0)
(1.06421 0.00779595 0)
(1.05917 0.00746585 0)
(1.05429 0.00711026 0)
(1.04959 0.00673282 0)
(1.0451 0.00633769 0)
(1.04082 0.00592955 0)
(1.03678 0.00551324 0)
(1.03298 0.0050939 0)
(1.02943 0.00467637 0)
(1.02614 0.0042657 0)
(1.02311 0.00386593 0)
(1.02033 0.00348156 0)
(1.01781 0.0031151 0)
(1.01552 0.0027704 0)
(1.01347 0.00244775 0)
(1.01163 0.00215086 0)
(1.01002 0.00187697 0)
(1.00855 0.00163078 0)
(1.00734 0.0014056 0)
(1.00617 0.00120856 0)
(1.00533 0.00102876 0)
(1.00434 0.000874741 0)
(1.00389 0.000738314 0)
(1.00289 0.000605867 0)
(1.193 0.00836645 0)
(1.18957 0.00853804 0)
(1.18602 0.00871084 0)
(1.18235 0.00888412 0)
(1.17856 0.00905695 0)
(1.17465 0.00922829 0)
(1.1706 0.00939688 0)
(1.16643 0.0095613 0)
(1.16213 0.00971996 0)
(1.1577 0.00987109 0)
(1.15315 0.0100127 0)
(1.14846 0.0101428 0)
(1.14366 0.010259 0)
(1.13874 0.010359 0)
(1.13371 0.0104403 0)
(1.12857 0.0105002 0)
(1.12334 0.0105363 0)
(1.11803 0.010546 0)
(1.11265 0.0105267 0)
(1.10721 0.0104761 0)
(1.10173 0.0103921 0)
(1.09623 0.0102729 0)
(1.09073 0.0101171 0)
(1.08525 0.00992371 0)
(1.07982 0.00969244 0)
(1.07445 0.00942361 0)
(1.06917 0.00911829 0)
(1.064 0.00877829 0)
(1.05897 0.00840624 0)
(1.05411 0.00800551 0)
(1.04942 0.00758024 0)
(1.04494 0.0071351 0)
(1.04067 0.00667535 0)
(1.03664 0.00620644 0)
(1.03285 0.00573416 0)
(1.02932 0.00526397 0)
(1.02604 0.00480151 0)
(1.02302 0.00435139 0)
(1.02025 0.00391859 0)
(1.01773 0.00350603 0)
(1.01545 0.00311794 0)
(1.01342 0.00275478 0)
(1.01158 0.00242047 0)
(1.00998 0.00211232 0)
(1.00851 0.00183499 0)
(1.00731 0.00158188 0)
(1.00614 0.00135962 0)
(1.0053 0.001158 0)
(1.00431 0.000983659 0)
(1.00387 0.000831551 0)
(1.00288 0.000681076 0)
(1.19271 0.00930367 0)
(1.18927 0.0094939 0)
(1.18572 0.00968546 0)
(1.18205 0.00987753 0)
(1.17825 0.0100691 0)
(1.17433 0.010259 0)
(1.17028 0.0104458 0)
(1.16611 0.0106279 0)
(1.16181 0.0108037 0)
(1.15737 0.010971 0)
(1.15282 0.0111278 0)
(1.14813 0.0112717 0)
(1.14333 0.0114002 0)
(1.13841 0.0115106 0)
(1.13338 0.0116003 0)
(1.12824 0.0116663 0)
(1.12302 0.0117057 0)
(1.11771 0.0117158 0)
(1.11233 0.0116937 0)
(1.1069 0.0116369 0)
(1.10143 0.011543 0)
(1.09594 0.0114099 0)
(1.09045 0.0112363 0)
(1.08498 0.0110209 0)
(1.07955 0.0107635 0)
(1.0742 0.0104644 0)
(1.06893 0.0101249 0)
(1.06377 0.00974689 0)
(1.05876 0.00933334 0)
(1.05391 0.00888802 0)
(1.04923 0.00841548 0)
(1.04476 0.00792095 0)
(1.04051 0.00741024 0)
(1.03649 0.00688942 0)
(1.03272 0.00636491 0)
(1.02919 0.00584277 0)
(1.02593 0.00532924 0)
(1.02292 0.00482947 0)
(1.02016 0.00434894 0)
(1.01765 0.00389095 0)
(1.01538 0.00346007 0)
(1.01335 0.00305702 0)
(1.01152 0.00268583 0)
(1.00993 0.00234396 0)
(1.00847 0.00203593 0)
(1.00727 0.00175537 0)
(1.00611 0.00150819 0)
(1.00527 0.0012852 0)
(1.00429 0.00109072 0)
(1.00385 0.000923377 0)
(1.00286 0.000754955 0)
(1.19239 0.0102319 0)
(1.18895 0.0104404 0)
(1.18539 0.0106504 0)
(1.18171 0.0108609 0)
(1.17791 0.0110708 0)
(1.17398 0.0112788 0)
(1.16993 0.0114834 0)
(1.16575 0.011683 0)
(1.16145 0.0118754 0)
(1.15701 0.0120586 0)
(1.15245 0.0122301 0)
(1.14777 0.0123875 0)
(1.14297 0.012528 0)
(1.13805 0.0126485 0)
(1.13302 0.0127463 0)
(1.12789 0.012818 0)
(1.12266 0.0128605 0)
(1.11736 0.0128708 0)
(1.11199 0.0128458 0)
(1.10656 0.0127826 0)
(1.1011 0.0126787 0)
(1.09562 0.0125318 0)
(1.09014 0.0123404 0)
(1.08468 0.0121032 0)
(1.07927 0.0118198 0)
(1.07392 0.0114908 0)
(1.06867 0.0111173 0)
(1.06353 0.0107017 0)
(1.05852 0.0102471 0)
(1.05369 0.0097577 0)
(1.04903 0.00923848 0)
(1.04457 0.00869517 0)
(1.04033 0.00813417 0)
(1.03633 0.00756213 0)
(1.03257 0.00698608 0)
(1.02906 0.00641271 0)
(1.0258 0.00584883 0)
(1.0228 0.00530012 0)
(1.02006 0.00477254 0)
(1.01756 0.0042698 0)
(1.0153 0.00379676 0)
(1.01328 0.00335442 0)
(1.01146 0.0029469 0)
(1.00987 0.00257185 0)
(1.00842 0.00223355 0)
(1.00723 0.00192602 0)
(1.00607 0.00165427 0)
(1.00524 0.00141035 0)
(1.00427 0.0011959 0)
(1.00382 0.00101376 0)
(1.00285 0.000827493 0)
(1.19205 0.0111514 0)
(1.1886 0.0113778 0)
(1.18503 0.0116058 0)
(1.18134 0.0118343 0)
(1.17754 0.0120622 0)
(1.1736 0.012288 0)
(1.16955 0.0125101 0)
(1.16536 0.0127265 0)
(1.16106 0.0129353 0)
(1.15662 0.0131339 0)
(1.15206 0.0133199 0)
(1.14737 0.0134904 0)
(1.14257 0.0136424 0)
(1.13765 0.0137728 0)
(1.13262 0.0138783 0)
(1.1275 0.0139554 0)
(1.12228 0.0140009 0)
(1.11698 0.0140111 0)
(1.11162 0.013983 0)
(1.1062 0.0139133 0)
(1.10074 0.0137993 0)
(1.09527 0.0136387 0)
(1.0898 0.0134294 0)
(1.08436 0.0131705 0)
(1.07896 0.0128614 0)
(1.07362 0.0125026 0)
(1.06838 0.0120956 0)
(1.06326 0.0116427 0)
(1.05827 0.0111475 0)
(1.05345 0.0106145 0)
(1.0488 0.0100492 0)
(1.04436 0.00945771 0)
(1.04014 0.00884706 0)
(1.03615 0.00822449 0)
(1.03241 0.00759762 0)
(1.02891 0.00697373 0)
(1.02567 0.00636022 0)
(1.02268 0.00576328 0)
(1.01995 0.00518934 0)
(1.01747 0.00464252 0)
(1.01522 0.00412796 0)
(1.01321 0.00364694 0)
(1.01139 0.00320364 0)
(1.00981 0.00279595 0)
(1.00837 0.00242783 0)
(1.00719 0.00209382 0)
(1.00604 0.00179781 0)
(1.00521 0.00153341 0)
(1.00424 0.0012992 0)
(1.0038 0.00110269 0)
(1.00283 0.000898683 0)
(1.19167 0.0120622 0)
(1.18821 0.0123062 0)
(1.18464 0.0125518 0)
(1.18094 0.012798 0)
(1.17713 0.0130435 0)
(1.17319 0.0132867 0)
(1.16913 0.0135258 0)
(1.16494 0.0137588 0)
(1.16063 0.0139835 0)
(1.15619 0.0141972 0)
(1.15163 0.0143972 0)
(1.14695 0.0145804 0)
(1.14214 0.0147437 0)
(1.13723 0.0148835 0)
(1.1322 0.0149965 0)
(1.12708 0.0150788 0)
(1.12186 0.0151268 0)
(1.11657 0.0151368 0)
(1.11121 0.0151054 0)
(1.10581 0.0150291 0)
(1.10036 0.0149049 0)
(1.0949 0.0147304 0)
(1.08944 0.0145035 0)
(1.08401 0.0142229 0)
(1.07862 0.0138882 0)
(1.0733 0.0134999 0)
(1.06808 0.0130596 0)
(1.06297 0.0125699 0)
(1.058 0.0120345 0)
(1.05319 0.0114585 0)
(1.04857 0.0108476 0)
(1.04414 0.0102085 0)
(1.03994 0.0095489 0)
(1.03596 0.00887647 0)
(1.03223 0.00819949 0)
(1.02875 0.00752581 0)
(1.02553 0.00686338 0)
(1.02256 0.00621893 0)
(1.01983 0.00559932 0)
(1.01736 0.00500908 0)
(1.01512 0.00445363 0)
(1.01313 0.00393456 0)
(1.01132 0.00345602 0)
(1.00975 0.00301624 0)
(1.00832 0.00261875 0)
(1.00714 0.00225874 0)
(1.006 0.0019388 0)
(1.00518 0.00165436 0)
(1.00421 0.0014006 0)
(1.00377 0.00119013 0)
(1.00281 0.000968517 0)
(1.19126 0.0129647 0)
(1.1878 0.0132258 0)
(1.18421 0.0134887 0)
(1.18051 0.0137522 0)
(1.17669 0.0140148 0)
(1.17275 0.014275 0)
(1.16868 0.0145308 0)
(1.16449 0.01478 0)
(1.16018 0.0150201 0)
(1.15574 0.0152485 0)
(1.15117 0.0154621 0)
(1.14649 0.0156577 0)
(1.14168 0.0158318 0)
(1.13677 0.0159808 0)
(1.13175 0.0161009 0)
(1.12663 0.016188 0)
(1.12142 0.0162383 0)
(1.11614 0.0162479 0)
(1.11079 0.016213 0)
(1.10539 0.0161299 0)
(1.09995 0.0159955 0)
(1.0945 0.0158071 0)
(1.08906 0.0155625 0)
(1.08364 0.0152603 0)
(1.07826 0.0149002 0)
(1.07296 0.0144827 0)
(1.06775 0.0140094 0)
(1.06266 0.0134832 0)
(1.05771 0.0129081 0)
(1.05292 0.0122895 0)
(1.04831 0.0116336 0)
(1.04391 0.0109476 0)
(1.03972 0.0102396 0)
(1.03576 0.00951805 0)
(1.03205 0.00879165 0)
(1.02859 0.00806889 0)
(1.02537 0.00735826 0)
(1.02242 0.00666701 0)
(1.01971 0.00600243 0)
(1.01725 0.00536946 0)
(1.01503 0.00477376 0)
(1.01304 0.00421724 0)
(1.01125 0.00370402 0)
(1.00969 0.0032327 0)
(1.00826 0.00280629 0)
(1.00709 0.00242077 0)
(1.00595 0.00207724 0)
(1.00514 0.00177319 0)
(1.00418 0.00150009 0)
(1.00375 0.00127607 0)
(1.00279 0.00103699 0)
(1.19082 0.0138589 0)
(1.18735 0.0141368 0)
(1.18376 0.0144165 0)
(1.18005 0.0146969 0)
(1.17622 0.0149763 0)
(1.17228 0.0152531 0)
(1.16821 0.0155251 0)
(1.16401 0.0157901 0)
(1.15969 0.0160453 0)
(1.15525 0.016288 0)
(1.15068 0.0165148 0)
(1.146 0.0167224 0)
(1.1412 0.016907 0)
(1.13628 0.0170647 0)
(1.13126 0.0171915 0)
(1.12615 0.0172832 0)
(1.12095 0.0173356 0)
(1.11567 0.0173445 0)
(1.11033 0.0173058 0)
(1.10494 0.0172158 0)
(1.09952 0.0170711 0)
(1.09408 0.0168687 0)
(1.08865 0.0166065 0)
(1.08324 0.0162829 0)
(1.07788 0.0158975 0)
(1.0726 0.0154509 0)
(1.06741 0.0149449 0)
(1.06233 0.0143826 0)
(1.0574 0.0137683 0)
(1.05263 0.0131076 0)
(1.04804 0.0124072 0)
(1.04366 0.0116749 0)
(1.03949 0.0109193 0)
(1.03555 0.0101492 0)
(1.03185 0.00937408 0)
(1.02841 0.00860296 0)
(1.02521 0.00784486 0)
(1.02227 0.00710752 0)
(1.01958 0.00639866 0)
(1.01714 0.00572364 0)
(1.01492 0.00508831 0)
(1.01295 0.00449496 0)
(1.01117 0.00394762 0)
(1.00962 0.0034453 0)
(1.0082 0.00299044 0)
(1.00704 0.00257987 0)
(1.00591 0.0022131 0)
(1.0051 0.00188989 0)
(1.00415 0.00159766 0)
(1.00372 0.00136049 0)
(1.00277 0.0011041 0)
(1.19036 0.0147449 0)
(1.18687 0.0150392 0)
(1.18327 0.0153355 0)
(1.17956 0.0156323 0)
(1.17573 0.0159281 0)
(1.17177 0.016221 0)
(1.1677 0.0165089 0)
(1.1635 0.0167892 0)
(1.15917 0.0170591 0)
(1.15473 0.0173156 0)
(1.15016 0.0175553 0)
(1.14548 0.0177744 0)
(1.14068 0.0179692 0)
(1.13577 0.0181353 0)
(1.13075 0.0182686 0)
(1.12564 0.0183645 0)
(1.12045 0.0184186 0)
(1.11518 0.0184266 0)
(1.10985 0.018384 0)
(1.10447 0.0182869 0)
(1.09906 0.0181317 0)
(1.09363 0.0179154 0)
(1.08821 0.0176355 0)
(1.08283 0.0172905 0)
(1.07749 0.01688 0)
(1.07222 0.0164046 0)
(1.06704 0.0158662 0)
(1.06199 0.0152681 0)
(1.05708 0.014615 0)
(1.05232 0.0139127 0)
(1.04776 0.0131685 0)
(1.04339 0.0123905 0)
(1.03924 0.0115878 0)
(1.03533 0.0107699 0)
(1.03165 0.00994677 0)
(1.02822 0.00912801 0)
(1.02504 0.00832315 0)
(1.02212 0.00754044 0)
(1.01944 0.00678799 0)
(1.01702 0.00607159 0)
(1.01482 0.00539729 0)
(1.01285 0.00476772 0)
(1.01108 0.00418681 0)
(1.00954 0.00365404 0)
(1.00814 0.00317118 0)
(1.00698 0.00273606 0)
(1.00586 0.00234639 0)
(1.00506 0.00200444 0)
(1.00411 0.00169333 0)
(1.00369 0.00144339 0)
(1.00274 0.00116985 0)
(1.18986 0.0156229 0)
(1.18636 0.0159333 0)
(1.18276 0.0162456 0)
(1.17903 0.0165585 0)
(1.17519 0.0168702 0)
(1.17124 0.0171789 0)
(1.16715 0.0174822 0)
(1.16295 0.0177774 0)
(1.15863 0.0180617 0)
(1.15418 0.0183316 0)
(1.14961 0.0185837 0)
(1.14493 0.018814 0)
(1.14013 0.0190185 0)
(1.13522 0.0191926 0)
(1.13021 0.019332 0)
(1.12511 0.0194318 0)
(1.11992 0.0194874 0)
(1.11466 0.0194942 0)
(1.10934 0.0194475 0)
(1.10397 0.0193432 0)
(1.09857 0.0191775 0)
(1.09316 0.0189471 0)
(1.08776 0.0186495 0)
(1.08239 0.0182832 0)
(1.07706 0.0178477 0)
(1.07182 0.0173437 0)
(1.06666 0.0167733 0)
(1.06163 0.0161398 0)
(1.05673 0.0154483 0)
(1.05201 0.014705 0)
(1.04746 0.0139174 0)
(1.04311 0.0130942 0)
(1.03899 0.0122451 0)
(1.03509 0.0113801 0)
(1.03143 0.0105097 0)
(1.02803 0.00964403 0)
(1.02487 0.00879312 0)
(1.02196 0.00796575 0)
(1.0193 0.00717041 0)
(1.01689 0.00641331 0)
(1.0147 0.00570067 0)
(1.01275 0.00503551 0)
(1.011 0.00442158 0)
(1.00947 0.00385891 0)
(1.00807 0.0033485 0)
(1.00692 0.00288931 0)
(1.00581 0.0024771 0)
(1.00502 0.00211684 0)
(1.00408 0.00178707 0)
(1.00365 0.00152476 0)
(1.00272 0.00123424 0)
(1.18932 0.016493 0)
(1.18582 0.016819 0)
(1.18221 0.0171469 0)
(1.17848 0.0174755 0)
(1.17463 0.0178029 0)
(1.17067 0.0181269 0)
(1.16658 0.0184451 0)
(1.16238 0.0187549 0)
(1.15805 0.019053 0)
(1.1536 0.019336 0)
(1.14903 0.0196001 0)
(1.14435 0.0198412 0)
(1.13955 0.020055 0)
(1.13465 0.0202368 0)
(1.12964 0.0203819 0)
(1.12455 0.0204853 0)
(1.11937 0.0205421 0)
(1.11411 0.0205474 0)
(1.1088 0.0204964 0)
(1.10345 0.0203847 0)
(1.09806 0.0202083 0)
(1.09267 0.0199638 0)
(1.08728 0.0196486 0)
(1.08193 0.0192611 0)
(1.07662 0.0188008 0)
(1.0714 0.0182684 0)
(1.06626 0.0176662 0)
(1.06125 0.0169977 0)
(1.05638 0.0162682 0)
(1.05167 0.0154842 0)
(1.04715 0.0146539 0)
(1.04283 0.0137862 0)
(1.03872 0.0128914 0)
(1.03485 0.0119799 0)
(1.03121 0.0110629 0)
(1.02782 0.010151 0)
(1.02468 0.00925478 0)
(1.0218 0.00838347 0)
(1.01915 0.00754593 0)
(1.01676 0.0067488 0)
(1.01459 0.00599846 0)
(1.01265 0.00529832 0)
(1.0109 0.00465194 0)
(1.00939 0.00405991 0)
(1.008 0.00352242 0)
(1.00686 0.00303962 0)
(1.00576 0.00260522 0)
(1.00497 0.00222707 0)
(1.00404 0.0018789 0)
(1.00362 0.00160458 0)
(1.0027 0.00129726 0)
(1.18876 0.0173553 0)
(1.18525 0.0176964 0)
(1.18163 0.0180397 0)
(1.17789 0.0183835 0)
(1.17404 0.018726 0)
(1.17007 0.0190649 0)
(1.16598 0.0193978 0)
(1.16177 0.0197216 0)
(1.15744 0.0200331 0)
(1.15299 0.0203287 0)
(1.14842 0.0206044 0)
(1.14374 0.0208559 0)
(1.13895 0.0210787 0)
(1.13405 0.0212678 0)
(1.12905 0.0214183 0)
(1.12396 0.021525 0)
(1.11879 0.0215827 0)
(1.11354 0.0215863 0)
(1.10824 0.0215307 0)
(1.1029 0.0214115 0)
(1.09753 0.0212243 0)
(1.09215 0.0209656 0)
(1.08679 0.0206328 0)
(1.08145 0.0202242 0)
(1.07617 0.0197392 0)
(1.07096 0.0191786 0)
(1.06585 0.0185449 0)
(1.06086 0.0178417 0)
(1.05601 0.0170747 0)
(1.05132 0.0162506 0)
(1.04682 0.015378 0)
(1.04252 0.0144665 0)
(1.03844 0.0135265 0)
(1.03459 0.0125693 0)
(1.03098 0.0116064 0)
(1.02761 0.010649 0)
(1.02449 0.00970815 0)
(1.02162 0.0087936 0)
(1.019 0.00791455 0)
(1.01662 0.00707807 0)
(1.01446 0.00629066 0)
(1.01254 0.00555615 0)
(1.01081 0.00487788 0)
(1.0093 0.00425703 0)
(1.00793 0.00369293 0)
(1.0068 0.003187 0)
(1.00571 0.00273077 0)
(1.00493 0.00233514 0)
(1.004 0.00196882 0)
(1.00359 0.00168285 0)
(1.00267 0.00135893 0)
(1.18817 0.0182097 0)
(1.18465 0.0185657 0)
(1.18102 0.0189238 0)
(1.17727 0.0192825 0)
(1.17342 0.0196397 0)
(1.16944 0.0199932 0)
(1.16535 0.0203402 0)
(1.16113 0.0206777 0)
(1.1568 0.0210022 0)
(1.15235 0.02131 0)
(1.14778 0.0215969 0)
(1.1431 0.0218584 0)
(1.13831 0.0220897 0)
(1.13342 0.0222857 0)
(1.12842 0.0224413 0)
(1.12334 0.0225509 0)
(1.11818 0.0226092 0)
(1.11295 0.0226108 0)
(1.10766 0.0225505 0)
(1.10233 0.0224235 0)
(1.09698 0.0222254 0)
(1.09162 0.0219526 0)
(1.08627 0.0216022 0)
(1.08095 0.0211725 0)
(1.07569 0.0206629 0)
(1.0705 0.0200744 0)
(1.06541 0.0194094 0)
(1.06045 0.018672 0)
(1.05562 0.0178678 0)
(1.05096 0.0170042 0)
(1.04649 0.0160899 0)
(1.04221 0.015135 0)
(1.03815 0.0141506 0)
(1.03433 0.0131483 0)
(1.03073 0.0121401 0)
(1.02739 0.011138 0)
(1.02429 0.0101532 0)
(1.02144 0.00919615 0)
(1.01884 0.00827629 0)
(1.01648 0.00740113 0)
(1.01434 0.00657728 0)
(1.01243 0.00580903 0)
(1.01071 0.00509941 0)
(1.00922 0.00445029 0)
(1.00786 0.00386004 0)
(1.00674 0.00333145 0)
(1.00565 0.00285374 0)
(1.00488 0.00244106 0)
(1.00396 0.00205683 0)
(1.00355 0.00175958 0)
(1.00264 0.00141924 0)
(1.18754 0.0190565 0)
(1.18401 0.0194269 0)
(1.18038 0.0197995 0)
(1.17663 0.0201726 0)
(1.17276 0.0205441 0)
(1.16878 0.0209117 0)
(1.16468 0.0212724 0)
(1.16047 0.0216231 0)
(1.15613 0.0219603 0)
(1.15168 0.0222798 0)
(1.14711 0.0225775 0)
(1.14244 0.0228485 0)
(1.13765 0.023088 0)
(1.13276 0.0232906 0)
(1.12777 0.0234508 0)
(1.1227 0.0235631 0)
(1.11755 0.0236217 0)
(1.11233 0.0236211 0)
(1.10705 0.0235558 0)
(1.10174 0.0234209 0)
(1.0964 0.0232118 0)
(1.09106 0.0229247 0)
(1.08573 0.0225567 0)
(1.08043 0.022106 0)
(1.07519 0.021572 0)
(1.07003 0.0209558 0)
(1.06496 0.0202599 0)
(1.06002 0.0194885 0)
(1.05522 0.0186476 0)
(1.05059 0.0177448 0)
(1.04614 0.0167894 0)
(1.04189 0.0157918 0)
(1.03786 0.0147635 0)
(1.03405 0.0137168 0)
(1.03048 0.0126642 0)
(1.02716 0.011618 0)
(1.02409 0.01059 0)
(1.02126 0.00959114 0)
(1.01867 0.00863115 0)
(1.01633 0.00771799 0)
(1.0142 0.00685835 0)
(1.01231 0.00605695 0)
(1.01061 0.00531655 0)
(1.00913 0.00463969 0)
(1.00778 0.00402375 0)
(1.00667 0.00347297 0)
(1.00559 0.00297415 0)
(1.00483 0.00254481 0)
(1.00392 0.00214294 0)
(1.00351 0.00183476 0)
(1.00261 0.00147821 0)
(1.18689 0.0198956 0)
(1.18335 0.0202799 0)
(1.1797 0.0206666 0)
(1.17595 0.0210537 0)
(1.17207 0.0214392 0)
(1.16809 0.0218204 0)
(1.16399 0.0221944 0)
(1.15977 0.022558 0)
(1.15543 0.0229073 0)
(1.15098 0.0232382 0)
(1.14642 0.0235462 0)
(1.14174 0.0238264 0)
(1.13696 0.0240737 0)
(1.13208 0.0242825 0)
(1.1271 0.024447 0)
(1.12203 0.0245616 0)
(1.11689 0.0246202 0)
(1.11168 0.0246171 0)
(1.10642 0.0245467 0)
(1.10113 0.0244037 0)
(1.09581 0.0241835 0)
(1.09048 0.0238821 0)
(1.08517 0.0234965 0)
(1.0799 0.0230248 0)
(1.07468 0.0224666 0)
(1.06954 0.0218229 0)
(1.0645 0.0210963 0)
(1.05958 0.0202913 0)
(1.05481 0.0194141 0)
(1.0502 0.0184727 0)
(1.04578 0.0174767 0)
(1.04156 0.016437 0)
(1.03755 0.0153655 0)
(1.03377 0.0142751 0)
(1.03023 0.0131786 0)
(1.02693 0.012089 0)
(1.02387 0.0110186 0)
(1.02107 0.00997861 0)
(1.0185 0.00897918 0)
(1.01618 0.00802867 0)
(1.01407 0.00713387 0)
(1.0122 0.00629993 0)
(1.01051 0.00552931 0)
(1.00904 0.00482524 0)
(1.0077 0.00418408 0)
(1.0066 0.00361157 0)
(1.00554 0.003092 0)
(1.00478 0.00264641 0)
(1.00388 0.00222715 0)
(1.00348 0.00190838 0)
(1.00259 0.00153584 0)
(1.1862 0.020727 0)
(1.18265 0.021125 0)
(1.179 0.0215253 0)
(1.17523 0.021926 0)
(1.17136 0.0223249 0)
(1.16737 0.0227194 0)
(1.16326 0.0231063 0)
(1.15904 0.0234822 0)
(1.15471 0.0238433 0)
(1.15026 0.0241851 0)
(1.14569 0.0245031 0)
(1.14102 0.0247921 0)
(1.13624 0.0250468 0)
(1.13137 0.0252613 0)
(1.1264 0.0254299 0)
(1.12134 0.0255464 0)
(1.11621 0.0256048 0)
(1.11102 0.0255989 0)
(1.10577 0.0255231 0)
(1.10049 0.0253719 0)
(1.09519 0.0251404 0)
(1.08988 0.0248247 0)
(1.0846 0.0244215 0)
(1.07935 0.023929 0)
(1.07415 0.0233466 0)
(1.06904 0.0226756 0)
(1.06402 0.0219186 0)
(1.05913 0.0210804 0)
(1.05439 0.0201674 0)
(1.04981 0.0191878 0)
(1.04541 0.0181518 0)
(1.04121 0.0170705 0)
(1.03723 0.0159565 0)
(1.03348 0.014823 0)
(1.02996 0.0136834 0)
(1.02669 0.0125512 0)
(1.02365 0.011439 0)
(1.02087 0.0103586 0)
(1.01832 0.00932038 0)
(1.01602 0.00833321 0)
(1.01393 0.00740387 0)
(1.01207 0.006538 0)
(1.0104 0.00573771 0)
(1.00895 0.00500697 0)
(1.00762 0.00434104 0)
(1.00653 0.00374727 0)
(1.00548 0.00320731 0)
(1.00473 0.00274587 0)
(1.00383 0.00230949 0)
(1.00344 0.00198047 0)
(1.00256 0.00159214 0)
(1.18548 0.0215507 0)
(1.18192 0.0219619 0)
(1.17826 0.0223755 0)
(1.17449 0.0227894 0)
(1.17061 0.0232014 0)
(1.16662 0.0236087 0)
(1.16251 0.024008 0)
(1.15829 0.0243959 0)
(1.15395 0.0247683 0)
(1.1495 0.0251207 0)
(1.14494 0.0254482 0)
(1.14027 0.0257456 0)
(1.1355 0.0260072 0)
(1.13063 0.0262272 0)
(1.12567 0.0263995 0)
(1.12063 0.0265176 0)
(1.11551 0.0265754 0)
(1.11033 0.0265666 0)
(1.1051 0.0264852 0)
(1.09983 0.0263256 0)
(1.09455 0.0260828 0)
(1.08927 0.0257526 0)
(1.084 0.0253318 0)
(1.07877 0.0248185 0)
(1.07361 0.0242122 0)
(1.06852 0.0235141 0)
(1.06353 0.022727 0)
(1.05867 0.0218559 0)
(1.05395 0.0209074 0)
(1.0494 0.0198903 0)
(1.04503 0.0188147 0)
(1.04086 0.0176925 0)
(1.03691 0.0165366 0)
(1.03318 0.0153606 0)
(1.02969 0.0141787 0)
(1.02644 0.0130044 0)
(1.02343 0.0118512 0)
(1.02067 0.0107311 0)
(1.01814 0.00965481 0)
(1.01586 0.00863162 0)
(1.01379 0.00766837 0)
(1.01195 0.00677118 0)
(1.01029 0.00594176 0)
(1.00885 0.00518489 0)
(1.00754 0.00449465 0)
(1.00646 0.00388007 0)
(1.00541 0.00332009 0)
(1.00467 0.00284318 0)
(1.00379 0.00238996 0)
(1.0034 0.00205101 0)
(1.00253 0.00164712 0)
(1.18472 0.0223669 0)
(1.18116 0.0227909 0)
(1.17749 0.0232172 0)
(1.17372 0.023644 0)
(1.16983 0.0240686 0)
(1.16583 0.0244882 0)
(1.16172 0.0248997 0)
(1.1575 0.0252991 0)
(1.15316 0.0256824 0)
(1.14872 0.0260449 0)
(1.14416 0.0263815 0)
(1.1395 0.0266869 0)
(1.13473 0.0269552 0)
(1.12987 0.0271802 0)
(1.12492 0.0273557 0)
(1.11989 0.0274752 0)
(1.11478 0.0275322 0)
(1.10962 0.0275201 0)
(1.1044 0.0274329 0)
(1.09916 0.0272647 0)
(1.0939 0.0270105 0)
(1.08863 0.0266658 0)
(1.08339 0.0262275 0)
(1.07819 0.0256935 0)
(1.07304 0.0250634 0)
(1.06798 0.0243383 0)
(1.06302 0.0235215 0)
(1.05819 0.0226178 0)
(1.0535 0.0216344 0)
(1.04898 0.02058 0)
(1.04464 0.0194655 0)
(1.0405 0.0183029 0)
(1.03657 0.0171058 0)
(1.03287 0.0158881 0)
(1.02941 0.0146644 0)
(1.02618 0.0134489 0)
(1.0232 0.0122553 0)
(1.02046 0.0110961 0)
(1.01796 0.00998249 0)
(1.01569 0.00892395 0)
(1.01364 0.00792742 0)
(1.01182 0.0069995 0)
(1.01018 0.00614151 0)
(1.00875 0.00535902 0)
(1.00745 0.00464493 0)
(1.00639 0.00401 0)
(1.00535 0.00343036 0)
(1.00462 0.00293838 0)
(1.00374 0.00246857 0)
(1.00336 0.00212002 0)
(1.0025 0.00170078 0)
(1.18394 0.0231754 0)
(1.18037 0.0236118 0)
(1.17669 0.0240506 0)
(1.17291 0.0244897 0)
(1.16902 0.0249265 0)
(1.16502 0.0253581 0)
(1.16091 0.0257812 0)
(1.15668 0.0261918 0)
(1.15235 0.0265856 0)
(1.14791 0.0269577 0)
(1.14335 0.0273031 0)
(1.13869 0.027616 0)
(1.13394 0.0278905 0)
(1.12908 0.0281203 0)
(1.12414 0.0282988 0)
(1.11912 0.0284193 0)
(1.11403 0.0284751 0)
(1.10888 0.0284595 0)
(1.10369 0.0283663 0)
(1.09846 0.0281894 0)
(1.09322 0.0279236 0)
(1.08798 0.0275644 0)
(1.08276 0.0271086 0)
(1.07759 0.0265539 0)
(1.07247 0.0259002 0)
(1.06743 0.0251485 0)
(1.0625 0.0243021 0)
(1.0577 0.0233663 0)
(1.05304 0.0223482 0)
(1.04855 0.0212572 0)
(1.04424 0.0201043 0)
(1.04013 0.018902 0)
(1.03623 0.0176641 0)