/*--------------------------------*- C++ -*----------------------------------*\
  =========                 |
  \\      /  F ield         | OpenFOAM: The Open Source CFD Toolbox
   \\    /   O peration     | Website:  https://openfoam.org
    \\  /    A nd           | Version:  7
     \\/     M anipulation  |
\*---------------------------------------------------------------------------*/
FoamFile
{
    version     2.0;
    format      ascii;
    class       volScalarField;
    location    "25";
    object      p;
}
// * * * * * * * * * * * * * * * * * * * * * * * * * * * * * * * * * * * * * //

dimensions      [0 2 -2 0 0 0 0];

internalField   nonuniform List<scalar> 
2625
(
1.05119
0.954779
0.92062
0.875252
0.842392
0.810692
0.782028
1.05119
0.954779
0.92062
0.875252
0.842392
0.810692
0.782028
0.754497
0.727964
0.702097
0.676857
0.652254
0.62835
0.605218
0.582926
0.561527
0.541058
0.521534
0.502973
0.485335
1.05
0.953697
0.91958
0.874272
0.841466
0.809823
0.781216
0.753742
0.727263
0.701449
0.676258
0.651701
0.62784
0.604747
0.58249
0.561125
0.540685
0.52119
0.502655
0.485028
1.04764
0.951544
0.917505
0.872316
0.839616
0.808087
0.779593
0.752232
0.725863
0.700152
0.67506
0.650595
0.626819
0.603804
0.581619
0.560319
0.53994
0.5205
0.502019
0.484414
1.04412
0.948318
0.914398
0.869386
0.836845
0.805486
0.777161
0.749968
0.723762
0.698208
0.673264
0.648936
0.625287
0.60239
0.580313
0.559111
0.538822
0.519465
0.501066
0.483492
1.03943
0.944024
0.910263
0.865486
0.833155
0.802023
0.773922
0.746953
0.720965
0.695619
0.670871
0.646726
0.623247
0.600506
0.578572
0.557502
0.537333
0.518087
0.499795
0.482264
1.03358
0.938671
0.905107
0.860623
0.828554
0.797703
0.769883
0.743192
0.717475
0.692389
0.667885
0.643969
0.620701
0.598154
0.576399
0.555493
0.535474
0.516366
0.498209
0.480731
1.02659
0.932266
0.898938
0.854803
0.823048
0.792533
0.765047
0.73869
0.713297
0.688521
0.664309
0.640666
0.617651
0.595338
0.573796
0.553087
0.533247
0.514305
0.496308
0.478894
1.01847
0.924821
0.891768
0.848037
0.816647
0.786521
0.759424
0.733454
0.708436
0.68402
0.660148
0.636822
0.614102
0.592059
0.570766
0.550285
0.530654
0.511904
0.494096
0.476754
1.00923
0.916349
0.883607
0.840337
0.809359
0.779677
0.75302
0.72749
0.7029
0.678893
0.655408
0.632443
0.610056
0.588322
0.567313
0.547091
0.527698
0.509168
0.491573
0.474314
0.998883
0.906862
0.874469
0.831713
0.801198
0.77201
0.745846
0.720807
0.696695
0.673145
0.650093
0.627532
0.60552
0.584131
0.563439
0.543509
0.524381
0.506098
0.488743
0.471576
0.987449
0.896377
0.864369
0.822181
0.792175
0.763532
0.737912
0.713415
0.689829
0.666785
0.64421
0.622096
0.600498
0.579491
0.559149
0.539541
0.520708
0.502696
0.485609
0.468542
0.974945
0.884911
0.853324
0.811756
0.782305
0.754257
0.72923
0.705323
0.682313
0.659821
0.637768
0.616141
0.594996
0.574406
0.554448
0.535192
0.516682
0.498968
0.482172
0.465213
0.961391
0.872483
0.841351
0.800454
0.771604
0.744199
0.719812
0.696545
0.674157
0.652262
0.630773
0.609675
0.589019
0.568882
0.54934
0.530466
0.512306
0.494915
0.478437
0.461594
0.859113
0.82847
0.788293
0.760088
0.733372
0.709672
0.68709
0.66537
0.644116
0.623234
0.602704
0.582576
0.562925
0.543831
0.525368
0.507585
0.490542
0.474406
0.457687
0.844823
0.814703
0.775294
0.747775
0.721794
0.698825
0.676974
0.655966
0.635396
0.615162
0.595238
0.575673
0.556542
0.537926
0.519904
0.502523
0.485852
0.470084
0.453495
0.829636
0.80007
0.761478
0.734685
0.709481
0.687288
0.666211
0.645957
0.626112
0.606565
0.587285
0.568318
0.54974
0.531633
0.514078
0.497125
0.48085
0.465475
0.44902
0.813576
0.784597
0.746865
0.720838
0.696454
0.675076
0.654814
0.635356
0.616276
0.597454
0.578854
0.56052
0.542526
0.524956
0.507896
0.491397
0.475541
0.460582
0.444267
0.79667
0.768307
0.73148
0.706256
0.68273
0.662208
0.642801
0.624178
0.605901
0.587841
0.569956
0.552286
0.534907
0.517904
0.501364
0.485343
0.469929
0.455409
0.439239
0.778944
0.751228
0.715346
0.690961
0.668332
0.648702
0.630188
0.612437
0.595
0.577737
0.5606
0.543627
0.526892
0.510482
0.49449
0.47897
0.464018
0.449961
0.433939
0.760427
0.733385
0.69849
0.674978
0.65328
0.634579
0.616993
0.600149
0.583587
0.567155
0.550798
0.534553
0.51849
0.5027
0.487279
0.472282
0.457815
0.444243
0.428371
0.741148
0.714808
0.680938
0.65833
0.637598
0.619858
0.603234
0.587331
0.571677
0.556107
0.540562
0.525072
0.50971
0.494565
0.479738
0.465287
0.451323
0.438259
0.422539
0.721139
0.695526
0.662718
0.641044
0.621309
0.604561
0.588931
0.574
0.559284
0.544608
0.529903
0.515197
0.50056
0.486085
0.471874
0.45799
0.444549
0.432013
0.416445
0.67557
0.643858
0.623147
0.604437
0.58871
0.574103
0.560174
0.546426
0.532671
0.518834
0.504937
0.491051
0.477269
0.463696
0.450397
0.437497
0.425511
0.410094
0.654971
0.624389
0.604665
0.587008
0.572328
0.558771
0.545871
0.533117
0.520311
0.507367
0.494305
0.481193
0.468125
0.455211
0.442516
0.430174
0.418756
0.403488
0.633761
0.604339
0.585627
0.569047
0.555439
0.542956
0.53111
0.519376
0.507543
0.495517
0.483312
0.470996
0.458663
0.446426
0.434353
0.422584
0.411753
0.396632
0.611973
0.583741
0.566062
0.550582
0.538067
0.526681
0.515911
0.50522
0.494382
0.483297
0.471971
0.460471
0.448892
0.43735
0.425916
0.414735
0.404508
0.389528
0.589642
0.562625
0.546001
0.53164
0.520237
0.509967
0.500294
0.490666
0.480845
0.47072
0.460294
0.44963
0.438823
0.427992
0.417211
0.406631
0.397023
0.382179
0.566801
0.541026
0.525472
0.512249
0.501975
0.492838
0.484279
0.475734
0.466948
0.457803
0.448295
0.438484
0.428464
0.418361
0.408245
0.398278
0.389305
0.374588
0.518975
0.504508
0.492437
0.483307
0.475318
0.467889
0.460442
0.452708
0.44456
0.435986
0.427044
0.417828
0.408465
0.399028
0.389683
0.381356
0.366757
0.496506
0.483139
0.472233
0.464258
0.457431
0.451145
0.444809
0.438143
0.431006
0.423381
0.415323
0.406925
0.398315
0.389567
0.380852
0.373181
0.358687
0.473654
0.461399
0.451668
0.444858
0.439201
0.434068
0.428857
0.42327
0.417157
0.410495
0.403334
0.395765
0.387919
0.37987
0.371791
0.364783
0.350379
0.450453
0.439318
0.430771
0.425132
0.420653
0.416682
0.412604
0.408106
0.40303
0.397342
0.39109
0.384361
0.377289
0.369945
0.362509
0.356166
0.341835
0.426938
0.416931
0.409573
0.40511
0.401812
0.399009
0.396071
0.392672
0.388641
0.383937
0.378603
0.372725
0.366435
0.359804
0.353012
0.347333
0.333053
0.394269
0.388105
0.384818
0.382706
0.381073
0.379279
0.376985
0.374006
0.370295
0.365888
0.360869
0.355368
0.349455
0.34331
0.338285
0.324031
0.371367
0.366396
0.364286
0.363358
0.362897
0.36225
0.361064
0.359143
0.356431
0.352958
0.348805
0.344101
0.33891
0.333411
0.329026
0.314774
0.348258
0.344479
0.343543
0.343796
0.344504
0.345005
0.344928
0.344068
0.34236
0.339827
0.336547
0.332645
0.32818
0.32333
0.31956
0.305293
0.324974
0.322384
0.322616
0.324045
0.325919
0.327565
0.328598
0.328801
0.328099
0.32651
0.324108
0.321013
0.31728
0.313081
0.309888
0.295555
0.30015
0.30154
0.304136
0.307168
0.309953
0.312092
0.313357
0.313664
0.313022
0.311501
0.309218
0.306223
0.30268
0.299963
0.285435
0.277811
0.280347
0.284097
0.288276
0.292192
0.295432
0.297756
0.29907
0.299377
0.298741
0.297275
0.29503
0.292144
0.289708
0.2751
0.255347
0.259028
0.26393
0.269253
0.274295
0.278633
0.282014
0.284334
0.28559
0.285842
0.285198
0.283722
0.281505
0.2794
0.26626
0.237519
0.243599
0.250081
0.25626
0.261701
0.266142
0.26947
0.271678
0.272821
0.273006
0.272314
0.270804
0.269691
0.262814
0.216089
0.223289
0.230886
0.238168
0.244688
0.250171
0.254497
0.25765
0.259681
0.260695
0.260794
0.26
0.259347
0.256333
0.194682
0.202973
0.211659
0.220022
0.227603
0.234116
0.239431
0.243522
0.246438
0.248278
0.249164
0.249098
0.2487
0.248376
0.182651
0.192407
0.201834
0.210462
0.217993
0.224287
0.22931
0.233107
0.23577
0.237433
0.238113
0.238053
0.239753
0.162351
0.173155
0.183627
0.193285
0.201821
0.209082
0.215029
0.219699
0.223181
0.225615
0.227045
0.227422
0.230699
0.153929
0.165425
0.176093
0.185617
0.193833
0.200693
0.20623
0.210525
0.213721
0.215896
0.216763
0.221323
0.134754
0.147248
0.158906
0.1694
0.178556
0.186318
0.192711
0.197813
0.201765
0.204673
0.206063
0.211702
0.129119
0.141744
0.153188
0.163269
0.171918
0.179158
0.185058
0.189758
0.19339
0.195328
0.201898
0.111059
0.124626
0.137
0.147987
0.15751
0.165584
0.172273
0.177713
0.18206
0.184564
0.191959
0.107572
0.120853
0.132726
0.143107
0.152002
0.159471
0.165643
0.170694
0.173778
0.181922
0.0906023
0.104765
0.117505
0.128726
0.138428
0.146665
0.153561
0.159305
0.162979
0.171812
0.0887542
0.102338
0.114381
0.124875
0.133868
0.141477
0.147906
0.152176
0.161651
0.0728374
0.0872413
0.100087
0.111357
0.121093
0.129405
0.136509
0.141378
0.151458
0.0722317
0.0858583
0.0978865
0.108352
0.117357
0.125125
0.130594
0.141246
0.0717102
0.0844782
0.0956578
0.105343
0.113764
0.119834
0.131029
0.0576567
0.0711451
0.0830227
0.0933757
0.102439
0.109106
0.120818
0.0578999
0.0704587
0.0814656
0.0911597
0.0984189
0.110624
0.0579774
0.0696237
0.0799353
0.0877822
0.100457
0.0578602
0.068776
0.077204
0.0903252
0.0576911
0.0666923
0.0802377
0.0562551
0.0702026
0.0602276
0.283626
0.283759
0.284725
0.285948
0.287659
0.289649
0.291953
0.294482
0.297209
0.300075
0.303035
0.306034
0.309017
0.311924
0.314695
0.317263
0.319561
0.321517
0.323059
0.32411
0.324594
0.324436
0.323561
0.321898
0.319382
0.315978
0.311633
0.306338
0.301752
0.293159
0.284458
0.284586
0.285578
0.286838
0.288601
0.290655
0.293037
0.295656
0.298488
0.301474
0.304571
0.307725
0.310882
0.313985
0.316974
0.319786
0.322355
0.324611
0.326483
0.327898
0.328782
0.32906
0.328662
0.32752
0.325577
0.32281
0.319178
0.314686
0.311085
0.30353
0.28526
0.285351
0.286335
0.287591
0.289362
0.291428
0.293829
0.296473
0.299334
0.302356
0.305495
0.308698
0.311913
0.315084
0.318154
0.321062
0.323744
0.326135
0.328169
0.329779
0.330897
0.331459
0.331403
0.330674
0.329224
0.327041
0.324077
0.320268
0.317201
0.310023
0.286049
0.286114
0.287097
0.288358
0.290145
0.292236
0.29467
0.297356
0.300269
0.303352
0.306565
0.309854
0.313172
0.316462
0.319671
0.322741
0.32561
0.328219
0.330504
0.332403
0.333853
0.334795
0.335172
0.334934
0.334035
0.332462
0.33016
0.327033
0.324589
0.318141
0.286825
0.286869
0.287858
0.289129
0.290939
0.293062
0.295537
0.298274
0.301249
0.304407
0.307707
0.311099
0.314536
0.317964
0.321332
0.324584
0.327663
0.33051
0.333065
0.335269
0.337064
0.338391
0.339197
0.339434
0.339058
0.338055
0.336367
0.333897
0.332068
0.326299
0.287585
0.28761
0.288606
0.289888
0.29172
0.293874
0.29639
0.299177
0.302212
0.305442
0.308826
0.312317
0.315867
0.319428
0.322947
0.326373
0.329649
0.332721
0.335531
0.338023
0.340141
0.34183
0.343039
0.343723
0.343838
0.343371
0.342263
0.34042
0.339165
0.334074
0.288328
0.288336
0.289338
0.29063
0.292484
0.294668
0.297222
0.300057
0.303151
0.306449
0.309914
0.313499
0.317159
0.320846
0.324511
0.328103
0.33157
0.334859
0.337915
0.340685
0.343115
0.345153
0.346752
0.347868
0.348458
0.348509
0.347958
0.346719
0.346017
0.341617
0.289054
0.289047
0.290055
0.291357
0.293233
0.295445
0.298038
0.30092
0.30407
0.307436
0.31098
0.314657
0.318424
0.322235
0.326043
0.329799
0.333453
0.336954
0.340251
0.343293
0.346028
0.348409
0.350387
0.351922
0.352972
0.353522
0.353508
0.352851
0.352684
0.348969
0.289762
0.289741
0.290756
0.29207
0.293966
0.296207
0.298837
0.301765
0.30497
0.308402
0.312024
0.315792
0.319664
0.323597
0.327545
0.331461
0.335299
0.339008
0.342541
0.345848
0.348881
0.351594
0.35394
0.355881
0.357375
0.358405
0.358906
0.358811
0.35916
0.356118
0.290453
0.29042
0.291441
0.292766
0.294683
0.296952
0.299618
0.302591
0.305851
0.309348
0.313046
0.316902
0.320878
0.32493
0.329014
0.333087
0.337104
0.341016
0.344778
0.348344
0.351666
0.354701
0.357404
0.359736
0.361659
0.363153
0.364151
0.364596
0.365444
0.363065
0.291125
0.291082
0.29211
0.293447
0.295383
0.29768
0.300381
0.303398
0.306712
0.310271
0.314043
0.317987
0.322063
0.326231
0.330449
0.334675
0.338865
0.342975
0.346961
0.350778
0.354381
0.357727
0.360776
0.363487
0.365824
0.367765
0.369244
0.370211
0.371542
0.369813
0.291779
0.291726
0.292762
0.294108
0.296066
0.29839
0.301126
0.304186
0.307551
0.311172
0.315016
0.319044
0.323218
0.3275
0.331848
0.336223
0.340582
0.344885
0.349088
0.353148
0.357023
0.360672
0.364055
0.367133
0.36987
0.372243
0.374185
0.375658
0.377456
0.376362
0.292414
0.292353
0.293397
0.294754
0.296732
0.299082
0.301851
0.304953
0.308368
0.31205
0.315964
0.320074
0.324344
0.328735
0.33321
0.337729
0.342254
0.346743
0.351156
0.355453
0.359592
0.363534
0.36724
0.370673
0.373796
0.376586
0.378976
0.380936
0.383188
0.382714
0.293029
0.292962
0.294013
0.295382
0.297379
0.299754
0.302557
0.305699
0.309163
0.312903
0.316886
0.321076
0.325438
0.329936
0.334534
0.339194
0.343878
0.348549
0.353166
0.357691
0.362086
0.366311
0.370329
0.374104
0.3776
0.380793
0.383616
0.386046
0.388737
0.388868
0.293625
0.293553
0.294611
0.295991
0.298006
0.300407
0.303242
0.306424
0.309935
0.313731
0.317781
0.322049
0.326501
0.331102
0.335819
0.340615
0.345455
0.3503
0.355115
0.359861
0.364502
0.369001
0.37332
0.377425
0.381281
0.384862
0.388103
0.390987
0.394103
0.394823
0.294201
0.294124
0.29519
0.296581
0.298612
0.301039
0.303905
0.307126
0.310684
0.314534
0.318648
0.322991
0.32753
0.332232
0.337064
0.341992
0.346981
0.351996
0.357001
0.361961
0.36684
0.371602
0.376212
0.380635
0.384837
0.388792
0.392437
0.395758
0.399286
0.400579
0.294756
0.294676
0.29575
0.297152
0.299202
0.301652
0.304547
0.307805
0.311407
0.315311
0.319487
0.323902
0.328526
0.333325
0.338268
0.343323
0.348456
0.353635
0.358824
0.36399
0.369098
0.374114
0.379003
0.383732
0.388267
0.392583
0.396617
0.400359
0.404284
0.406134
0.295291
0.295209
0.296289
0.297703
0.29977
0.302248
0.305168
0.30846
0.312106
0.316061
0.320297
0.324782
0.329487
0.334379
0.33943
0.344607
0.34988
0.355215
0.360581
0.365945
0.371273
0.376533
0.381691
0.386715
0.39157
0.396232
0.40064
0.404787
0.409096
0.411485
0.295805
0.295721
0.296809
0.298233
0.300317
0.302829
0.305766
0.309092
0.312779
0.316783
0.321077
0.32563
0.330412
0.335395
0.340549
0.345844
0.35125
0.356736
0.362272
0.367826
0.373366
0.37886
0.384275
0.389581
0.394743
0.399737
0.404505
0.409041
0.413721
0.416631
0.296298
0.296212
0.297308
0.298742
0.300842
0.303341
0.30634
0.309699
0.313426
0.317477
0.321827
0.326444
0.331301
0.33637
0.341623
0.347031
0.352565
0.358197
0.363895
0.369631
0.375373
0.381091
0.386754
0.392329
0.397786
0.403098
0.408211
0.41312
0.418155
0.42157
0.29677
0.296683
0.297785
0.29923
0.301346
0.303877
0.306891
0.310281
0.314046
0.318143
0.322545
0.327224
0.332154
0.337305
0.342653
0.348169
0.353826
0.359595
0.36545
0.371359
0.377295
0.383227
0.389125
0.394958
0.400696
0.406313
0.411755
0.417021
0.422398
0.426298
0.297219
0.297133
0.298242
0.299697
0.301828
0.304384
0.307416
0.310837
0.314639
0.318779
0.323232
0.32797
0.332968
0.338199
0.343637
0.349256
0.355029
0.360931
0.366934
0.373009
0.379129
0.385264
0.391387
0.397466
0.403472
0.409379
0.415137
0.420742
0.426447
0.430813
0.297647
0.297561
0.298676
0.300141
0.302287
0.304861
0.307917
0.311367
0.315204
0.319385
0.323886
0.328681
0.333744
0.33905
0.344574
0.350291
0.356176
0.362203
0.368346
0.374579
0.380874
0.387203
0.393539
0.399851
0.406112
0.412295
0.418353
0.424282
0.4303
0.435113
0.298053
0.297967
0.299089
0.300563
0.302722
0.305314
0.308402
0.311871
0.31574
0.31996
0.324508
0.329356
0.334481
0.339858
0.345463
0.351273
0.357263
0.36341
0.369686
0.376068
0.382529
0.389042
0.395579
0.402113
0.408615
0.41506
0.421402
0.427639
0.433954
0.439193
0.298435
0.298351
0.299479
0.300962
0.303134
0.305744
0.308872
0.312349
0.316248
0.320505
0.325096
0.329995
0.335178
0.340622
0.346304
0.352202
0.358292
0.36455
0.370953
0.377476
0.384093
0.390779
0.397507
0.404249
0.41098
0.417672
0.424283
0.43081
0.437408
0.443052
0.298795
0.298712
0.299846
0.301338
0.303522
0.306147
0.309237
0.312798
0.316726
0.321018
0.32565
0.330596
0.335834
0.341342
0.347097
0.353077
0.35926
0.365624
0.372146
0.378801
0.385565
0.392413
0.39932
0.406259
0.413204
0.420128
0.426993
0.433793
0.440658
0.446685
0.299133
0.299051
0.30019
0.30169
0.303886
0.306527
0.309655
0.31322
0.317174
0.321499
0.326169
0.33116
0.33645
0.342016
0.347839
0.353897
0.360168
0.366631
0.373263
0.380041
0.386943
0.393944
0.401018
0.408141
0.415286
0.422429
0.429531
0.436587
0.443703
0.450091
0.299447
0.299366
0.300511
0.302019
0.304225
0.306881
0.310035
0.313612
0.317593
0.321948
0.326653
0.331686
0.337023
0.342646
0.348532
0.354661
0.361014
0.367568
0.374304
0.381197
0.388227
0.395369
0.4026
0.409894
0.417226
0.424572
0.431896
0.43919
0.44654
0.453267
0.299737
0.299658
0.300808
0.302323
0.304539
0.307209
0.310379
0.313976
0.31798
0.322364
0.327102
0.332173
0.337555
0.343228
0.349173
0.355369
0.361797
0.368437
0.375268
0.382268
0.389416
0.396689
0.404064
0.411516
0.419021
0.426555
0.434084
0.4416
0.449168
0.456209
0.300004
0.299927
0.301081
0.302603
0.304829
0.30751
0.310695
0.31431
0.318337
0.322746
0.327515
0.332621
0.338044
0.343765
0.349763
0.35602
0.362518
0.369235
0.376154
0.383252
0.390509
0.397902
0.40541
0.413007
0.420671
0.428378
0.436096
0.443815
0.451584
0.458916
0.300247
0.300172
0.30133
0.302859
0.305092
0.307785
0.310983
0.314615
0.318662
0.323095
0.327892
0.33303
0.33849
0.344253
0.350301
0.356614
0.363174
0.369963
0.376962
0.384149
0.391505
0.399008
0.406636
0.414366
0.422175
0.430039
0.43793
0.445834
0.453787
0.461385
0.300467
0.300393
0.301555
0.303089
0.305331
0.308033
0.311244
0.314891
0.318956
0.32341
0.328232
0.333399
0.338893
0.344695
0.350786
0.35715
0.363767
0.37062
0.37769
0.384958
0.392403
0.400005
0.407742
0.415592
0.423531
0.431538
0.439584
0.447655
0.455775
0.463613
0.300662
0.30059
0.301755
0.303295
0.305543
0.308254
0.311476
0.315137
0.319217
0.323691
0.328535
0.333728
0.339252
0.345088
0.351219
0.357627
0.364295
0.371205
0.378339
0.385679
0.393203
0.400893
0.408727
0.416683
0.424739
0.432872
0.441057
0.449277
0.457545
0.465599
0.300833
0.300763
0.30193
0.303475
0.305729
0.308448
0.31168
0.315352
0.319447
0.323937
0.328801
0.334016
0.339567
0.345433
0.351598
0.358046
0.364758
0.371718
0.378909
0.38631
0.393904
0.401671
0.40959
0.417639
0.425797
0.434042
0.442348
0.450699
0.459098
0.467341
0.30098
0.300911
0.302081
0.30363
0.305889
0.308615
0.311855
0.315537
0.319644
0.324149
0.329029
0.334264
0.339837
0.345729
0.351924
0.358405
0.365156
0.372159
0.379397
0.386853
0.394506
0.402339
0.410331
0.41846
0.426706
0.435046
0.443457
0.45192
0.460431
0.468837
0.301103
0.301035
0.302207
0.303759
0.306022
0.308754
0.312001
0.315692
0.319809
0.324325
0.329219
0.334471
0.340062
0.345976
0.352196
0.358705
0.365487
0.372526
0.379805
0.387305
0.395009
0.402897
0.410949
0.419145
0.427464
0.435884
0.444381
0.452939
0.461544
0.470085
0.301201
0.301134
0.302308
0.303862
0.306129
0.308865
0.312118
0.315817
0.319941
0.324466
0.329372
0.334637
0.340243
0.346174
0.352413
0.358945
0.365753
0.372821
0.380131
0.387667
0.395411
0.403343
0.411444
0.419694
0.428071
0.436555
0.445122
0.453754
0.462435
0.471086
0.301275
0.301208
0.302384
0.30394
0.306209
0.308949
0.312206
0.315903
0.32004
0.324573
0.329486
0.334761
0.340379
0.346323
0.352577
0.359125
0.365952
0.373041
0.380376
0.387939
0.395713
0.403678
0.411815
0.420105
0.428526
0.437058
0.445678
0.454367
0.463103
0.471836
0.301324
0.301258
0.302434
0.303992
0.306263
0.309005
0.312265
0.315966
0.320107
0.324643
0.329563
0.334844
0.340469
0.346422
0.352686
0.359245
0.366085
0.373189
0.380539
0.38812
0.395914
0.403901
0.412063
0.420379
0.42883
0.437393
0.446048
0.454774
0.463549
0.472337
0.301349
0.301282
0.302459
0.304017
0.30629
0.309033
0.312294
0.315998
0.32014
0.324679
0.329601
0.334885
0.340514
0.346471
0.35274
0.359305
0.366151
0.373262
0.380621
0.388211
0.396014
0.404013
0.412187
0.420516
0.428981
0.437561
0.446233
0.454978
0.463772
0.472587
0.24833
0.242567
0.23632
0.2296
0.222607
0.215219
0.20464
0.273228
0.273237
0.27365
0.274162
0.274878
0.275668
0.276529
0.277388
0.278208
0.278931
0.279507
0.279884
0.280009
0.279832
0.279302
0.278374
0.277004
0.275154
0.272793
0.269895
0.266442
0.262425
0.257842
0.2527
0.247014
0.240814
0.234103
0.227087
0.2197
0.208674
0.274243
0.274253
0.274705
0.27527
0.276062
0.276945
0.277916
0.278903
0.279865
0.280745
0.281492
0.282052
0.282371
0.282396
0.282075
0.281359
0.280202
0.278563
0.276407
0.273703
0.270432
0.266579
0.262139
0.257116
0.25152
0.245379
0.238689
0.231655
0.224288
0.212781
0.275228
0.275238
0.275729
0.276344
0.277212
0.278186
0.279267
0.280379
0.281483
0.28252
0.283438
0.284181
0.284695
0.284924
0.284814
0.284314
0.283375
0.281953
0.280008
0.277508
0.274428
0.270751
0.266466
0.261574
0.256081
0.250012
0.243355
0.236309
0.228979
0.216956
0.276181
0.276192
0.276721
0.277387
0.278329
0.279392
0.280582
0.281818
0.283062
0.284254
0.285342
0.286269
0.286978
0.287412
0.287516
0.287236
0.28652
0.28532
0.283594
0.281306
0.278427
0.274935
0.270817
0.266069
0.260694
0.254711
0.2481
0.241048
0.233774
0.221191
0.277105
0.277116
0.277682
0.278397
0.279412
0.280564
0.28186
0.283219
0.284602
0.285948
0.287205
0.288314
0.289219
0.28986
0.290179
0.290122
0.289632
0.28866
0.287159
0.285091
0.282421
0.279126
0.275187
0.270597
0.265353
0.259471
0.252921
0.24587
0.238668
0.225478
0.278
0.27801
0.278612
0.279376
0.280463
0.281701
0.283103
0.284582
0.286102
0.287601
0.289026
0.290317
0.291416
0.292264
0.292801
0.292968
0.292708
0.291969
0.290699
0.288858
0.286407
0.283317
0.279569
0.27515
0.270052
0.264286
0.257812
0.25077
0.243654
0.229805
0.278866
0.278875
0.279513
0.280324
0.281481
0.282805
0.28431
0.285908
0.287565
0.289215
0.290806
0.292278
0.293573
0.294628
0.295383
0.295777
0.295751
0.295249
0.294217
0.292609
0.290385
0.287512
0.283966
0.27973
0.274793
0.269161
0.262783
0.255761
0.248739
0.234171
0.279703
0.279712
0.280385
0.281243
0.282469
0.283877
0.285485
0.287201
0.288992
0.290793
0.292551
0.294205
0.295696
0.296961
0.297937
0.298563
0.298776
0.298518
0.297732
0.296368
0.294383
0.29174
0.288411
0.284376
0.27962
0.274142
0.267883
0.260902
0.253985
0.238627
0.280513
0.280521
0.281227
0.282132
0.283425
0.284916
0.286624
0.288456
0.29038
0.29233
0.294252
0.296087
0.297773
0.299247
0.300447
0.301306
0.301762
0.301752
0.301219
0.300108
0.298371
0.29597
0.292872
0.289055
0.2845
0.279204
0.273096
0.266193
0.25938
0.243147
0.281294
0.281296
0.282031
0.282976
0.284331
0.285896
0.287696
0.289635
0.29168
0.293765
0.295838
0.297837
0.299701
0.301365
0.302765
0.303835
0.304508
0.304721
0.304413
0.303526
0.302009
0.299822
0.29693
0.293309
0.288942
0.283824
0.277883
0.271095
0.264268
0.246951
0.282046
0.282039
0.282796
0.283774
0.285181
0.286811
0.288689
0.290719
0.292868
0.295068
0.297268
0.299403
0.301412
0.303231
0.304791
0.306026
0.306867
0.307247
0.307103
0.306375
0.30501
0.302964
0.300203
0.296705
0.292457
0.287463
0.281667
0.275011
0.267937
0.249063
0.282788
0.282802
0.283612
0.284654
0.286146
0.287878
0.289878
0.292049
0.29436
0.296744
0.29915
0.301515
0.303779
0.305876
0.307739
0.3093
0.31049
0.311238
0.311477
0.311144
0.310178
0.308529
0.306156
0.303028
0.299128
0.294462
0.289
0.282685
0.275936
0.25708
0.212405
0.202621
0.217392
0.207143
0.198356
0.222515
0.211772
0.202692
0.195072
0.187231
0.227768
0.216499
0.207131
0.19929
0.19119
0.183026
0.233144
0.221314
0.211666
0.203605
0.195245
0.186827
0.178495
0.170207
0.23863
0.226205
0.216291
0.208014
0.199394
0.190723
0.18214
0.173598
0.165087
0.244208
0.231157
0.220996
0.212505
0.203626
0.194705
0.185872
0.177075
0.168306
0.159571
0.15087
0.249845
0.23612
0.225731
0.217024
0.207893
0.198732
0.189654
0.180605
0.171581
0.162587
0.153623
0.144693
0.135799
0.255487
0.241094
0.230519
0.221596
0.212226
0.202837
0.193522
0.184227
0.17495
0.165697
0.15647
0.147273
0.138109
0.128982
0.261122
0.246445
0.235798
0.226639
0.217015
0.207375
0.197792
0.18822
0.178661
0.169121
0.159602
0.150111
0.140651
0.131228
0.121847
0.112514
0.265766
0.251499
0.240931
0.231539
0.221693
0.211812
0.201961
0.192109
0.182263
0.17243
0.162616
0.152826
0.143067
0.133345
0.123666
0.114036
0.10446
0.264339
0.250882
0.240924
0.231788
0.222223
0.212537
0.202797
0.193003
0.183174
0.173325
0.163467
0.153612
0.143769
0.133947
0.124154
0.114398
0.104686
0.0950264
0.0854247
)
;

boundaryField
{
    inlet
    {
        type            zeroGradient;
    }
    outlet
    {
        type            fixedValue;
        value           nonuniform 0();
    }
    cylinder
    {
        type            zeroGradient;
    }
    top
    {
        type            symmetryPlane;
    }
    bottom
    {
        type            symmetryPlane;
    }
    defaultFaces
    {
        type            empty;
    }
    procBoundary4to0
    {
        type            processor;
        value           nonuniform List<scalar> 
66
(
0.0758876
0.0664217
0.0570328
0.24401
0.238182
0.231901
0.225181
0.218217
0.210845
0.200683
0.272182
0.27219
0.272562
0.273022
0.27366
0.274356
0.275105
0.275836
0.276512
0.277077
0.277483
0.277677
0.27761
0.277233
0.276497
0.275361
0.273783
0.271729
0.269171
0.266087
0.262463
0.258293
0.253578
0.253578
0.207555
0.207555
0.198211
0.194127
0.194127
0.190957
0.190957
0.183372
0.17932
0.17932
0.174944
0.174944
0.166908
0.161952
0.161952
0.156612
0.156612
0.148172
0.142204
0.142204
0.133577
0.126945
0.126945
0.119899
0.119899
0.110862
0.103234
0.103234
0.0949455
0.0949455
0.0854971
0.0758876
)
;
    }
    procBoundary4to5
    {
        type            processor;
        value           nonuniform List<scalar> 
69
(
0.946809
0.946809
0.931222
0.914656
0.897136
0.878689
0.859346
0.839136
0.818092
0.796246
0.70043
0.70043
0.679055
0.657046
0.634439
0.611268
0.587568
0.543486
0.543486
0.519732
0.495575
0.471051
0.446197
0.403143
0.403143
0.379105
0.354857
0.330436
0.301559
0.301559
0.278054
0.254413
0.232651
0.232651
0.210105
0.187618
0.173289
0.173289
0.151939
0.142101
0.142101
0.121927
0.115652
0.115652
0.0966457
0.0930891
0.0930891
0.0752304
0.0737347
0.0737347
0.0569884
0.0570321
0.0570321
0.0573245
0.0573245
0.042535
0.0437116
0.0437116
0.0447554
0.0447554
0.0455901
0.0455901
0.0461854
0.0461854
0.0466898
0.0466898
0.0459
0.0459
0.0503205
)
;
    }
    procBoundary4to8
    {
        type            processor;
        value           nonuniform List<scalar> 
51
(
1.05
0.953697
0.91958
0.874272
0.841466
0.809823
0.781216
0.754497
0.754497
0.727964
0.702097
0.676857
0.652254
0.62835
0.605218
0.582926
0.561527
0.541058
0.521534
0.502973
0.485335
0.301349
0.301282
0.302459
0.304017
0.30629
0.309033
0.312294
0.315998
0.32014
0.324679
0.329601
0.334885
0.340514
0.346471
0.35274
0.359305
0.366151
0.373262
0.380621
0.388211
0.396014
0.404013
0.412187
0.420516
0.428981
0.437561
0.446233
0.454978
0.463772
0.472587
)
;
    }
}


// ************************************************************************* //
