/*--------------------------------*- C++ -*----------------------------------*\
  =========                 |
  \\      /  F ield         | OpenFOAM: The Open Source CFD Toolbox
   \\    /   O peration     | Website:  https://openfoam.org
    \\  /    A nd           | Version:  7
     \\/     M anipulation  |
\*---------------------------------------------------------------------------*/
FoamFile
{
    version     2.0;
    format      ascii;
    class       volVectorField;
    location    "25";
    object      U;
}
// * * * * * * * * * * * * * * * * * * * * * * * * * * * * * * * * * * * * * //

dimensions      [0 1 -1 0 0 0 0];

internalField   nonuniform List<vector> 
2625
(
(0.0031553 0.00188581 4.93161e-21)
(0.0238615 0.00464161 -4.50114e-21)
(0.0629109 0.00659685 2.79344e-22)
(0.109568 0.00795007 1.99824e-21)
(0.16235 0.00880631 -4.98618e-21)
(0.217523 0.00927767 -3.82132e-21)
(0.27334 0.0094488 7.7616e-21)
(0.0031553 -0.00188581 -4.93161e-21)
(0.0238615 -0.00464161 4.50114e-21)
(0.0629109 -0.00659685 -2.79344e-22)
(0.109568 -0.00795007 -1.99824e-21)
(0.16235 -0.00880631 4.98618e-21)
(0.217523 -0.00927767 3.82132e-21)
(0.27334 -0.0094488 -7.7616e-21)
(0.3282 -0.00939402 -4.14735e-22)
(0.38113 -0.00917392 -4.54773e-21)
(0.431459 -0.00883855 -1.55136e-22)
(0.478809 -0.00842811 -7.85801e-22)
(0.523004 -0.00797421 3.20127e-22)
(0.564015 -0.00750096 -2.35556e-22)
(0.601915 -0.00702612 -3.68535e-21)
(0.636846 -0.00656215 -2.31092e-21)
(0.668988 -0.00611735 4.75929e-22)
(0.698542 -0.00569673 -8.50517e-22)
(0.725716 -0.00530287 3.37052e-21)
(0.750711 -0.00493678 3.17313e-22)
(0.773727 -0.0045991 -3.82935e-21)
(0.00330111 -0.00565214 -6.70405e-22)
(0.0242108 -0.0139139 7.82351e-21)
(0.0633922 -0.0197769 9.0726e-22)
(0.110133 -0.0238349 7.56652e-21)
(0.162962 -0.0264031 -1.57414e-20)
(0.218155 -0.0278174 1.68772e-20)
(0.273971 -0.0283315 1.73756e-20)
(0.328818 -0.0281681 -2.83763e-21)
(0.381724 -0.0275089 7.49737e-21)
(0.432024 -0.026504 3.43329e-21)
(0.479344 -0.0252738 -1.07252e-20)
(0.523506 -0.0239131 8.36435e-21)
(0.564483 -0.0224943 -3.65708e-21)
(0.602352 -0.0210705 5.08709e-21)
(0.637252 -0.0196794 1.93377e-20)
(0.669365 -0.0183456 6.62871e-21)
(0.698892 -0.0170843 4.92626e-21)
(0.726042 -0.0159031 4.91205e-21)
(0.751013 -0.0148053 -9.36812e-21)
(0.77401 -0.0137925 8.56081e-21)
(0.00359222 -0.00940496 -1.35951e-20)
(0.0249083 -0.0231564 -2.35043e-20)
(0.0643534 -0.0329177 1.58957e-20)
(0.111263 -0.0396754 1.07877e-20)
(0.164185 -0.043954 3.8149e-21)
(0.219417 -0.0463117 -2.45095e-21)
(0.275232 -0.0471708 -2.79014e-20)
(0.330052 -0.0469017 2.77757e-21)
(0.382912 -0.0458066 -1.26254e-20)
(0.433155 -0.0441354 2.70578e-21)
(0.480411 -0.0420887 -1.3172e-20)
(0.524507 -0.0398243 -5.32564e-22)
(0.56542 -0.0374626 -1.11804e-20)
(0.603224 -0.0350925 -7.90925e-21)
(0.638063 -0.0327762 -3.45756e-20)
(0.670119 -0.0305552 2.67243e-22)
(0.699593 -0.0284548 8.93041e-21)
(0.726692 -0.0264877 4.9835e-21)
(0.751617 -0.0246592 1.22622e-20)
(0.774576 -0.0229721 -2.94949e-20)
(0.00402766 -0.0131365 2.06145e-21)
(0.025952 -0.0323506 -3.62433e-21)
(0.0657921 -0.0459943 -1.07359e-20)
(0.112955 -0.0554431 -2.64444e-20)
(0.166015 -0.0614291 1.65095e-20)
(0.221306 -0.0647309 -1.41053e-20)
(0.277121 -0.0659381 3.50633e-20)
(0.3319 -0.0655679 -2.78714e-21)
(0.384692 -0.0640423 3.14198e-20)
(0.434849 -0.0617105 2.01783e-20)
(0.48201 -0.0588526 3.45461e-20)
(0.526008 -0.0556895 1.0854e-21)
(0.566822 -0.0523896 3.30741e-20)
(0.604531 -0.049077 2.31181e-21)
(0.639279 -0.0458392 -4.87836e-21)
(0.671249 -0.0427341 -1.79147e-23)
(0.700643 -0.039797 -2.1734e-20)
(0.727668 -0.0370462 -1.3125e-20)
(0.752522 -0.034489 2.2586e-20)
(0.775425 -0.0321288 9.4943e-21)
(0.00460612 -0.016839 1.79241e-20)
(0.027339 -0.0414778 1.36625e-20)
(0.0677046 -0.0589815 9.45969e-21)
(0.115204 -0.0711093 2.00137e-20)
(0.16845 -0.0787983 -1.30611e-20)
(0.223819 -0.0830452 -7.014e-21)
(0.279634 -0.084605 -1.06454e-20)
(0.334358 -0.0841401 2.01628e-20)
(0.38706 -0.0821916 -4.74049e-20)
(0.437104 -0.0792068 -5.02619e-20)
(0.484139 -0.0755454 -5.53042e-21)
(0.528006 -0.0714906 -1.71118e-20)
(0.568689 -0.0672588 1.98473e-20)
(0.606271 -0.0630094 -2.75298e-20)
(0.640899 -0.0588549 6.27483e-21)
(0.672755 -0.0548698 1.50926e-20)
(0.702042 -0.0510998 9.69218e-21)
(0.728968 -0.0475683 -2.16323e-20)
(0.753728 -0.0442851 -1.14545e-20)
(0.776557 -0.0412535 2.31504e-20)
(0.00532586 -0.0205044 -1.75015e-20)
(0.0290655 -0.0505195 -2.62371e-20)
(0.0700857 -0.0718543 1.9396e-21)
(0.118005 -0.0866455 3.65921e-20)
(0.171482 -0.0960319 -1.17822e-21)
(0.22695 -0.101225 5.79742e-21)
(0.282766 -0.103143 7.64607e-21)
(0.337423 -0.102592 -2.97822e-21)
(0.390012 -0.10023 -1.16287e-20)
(0.439915 -0.096602 2.06628e-20)
(0.486794 -0.0921467 5.26035e-20)
(0.530498 -0.0872093 -3.68258e-20)
(0.571019 -0.0820538 -2.96316e-20)
(0.608443 -0.0768748 3.63323e-20)
(0.642919 -0.0718099 3.45524e-20)
(0.674633 -0.0669503 1.48832e-21)
(0.703788 -0.0623519 -1.38836e-20)
(0.73059 -0.0580437 1.1197e-20)
(0.755233 -0.0540379 -2.67563e-21)
(0.777969 -0.0503371 -3.81917e-20)
(0.00618478 -0.0241251 4.49689e-20)
(0.0311266 -0.0594575 1.53768e-20)
(0.0729295 -0.0845881 -4.78032e-20)
(0.12135 -0.102024 -6.70284e-20)
(0.175106 -0.113101 2.91805e-20)
(0.230693 -0.119241 3.23358e-20)
(0.28651 -0.121524 7.60753e-21)
(0.341088 -0.120897 -3.636e-20)
(0.393543 -0.118133 -8.22503e-22)
(0.443279 -0.113874 -1.30033e-21)
(0.489971 -0.108637 -2.42999e-20)
(0.533481 -0.102828 1.57484e-20)
(0.573808 -0.0967582 -3.54746e-20)
(0.611043 -0.0906585 -8.93958e-21)
(0.645339 -0.0846909 3.5797e-20)
(0.676883 -0.0789633 -3.88112e-20)
(0.705879 -0.0735423 -9.77297e-21)
(0.732533 -0.0684621 -4.26653e-20)
(0.757037 -0.063738 -2.31319e-20)
(0.779662 -0.0593705 6.9355e-20)
(0.00718038 -0.0276934 -9.91204e-22)
(0.0335167 -0.0682736 -2.95057e-20)
(0.0762286 -0.0971585 8.92361e-21)
(0.125233 -0.117216 6.57226e-20)
(0.179313 -0.129975 -6.17416e-20)
(0.235038 -0.137065 3.82678e-22)
(0.29086 -0.139721 -4.85052e-20)
(0.345347 -0.139028 3.35655e-20)
(0.397647 -0.135876 5.57589e-21)
(0.447189 -0.131001 -1.10454e-20)
(0.493665 -0.124995 -1.85266e-20)
(0.53695 -0.118327 3.2071e-20)
(0.577052 -0.111356 1.30707e-20)
(0.614068 -0.104346 -2.81044e-20)
(0.648155 -0.0974846 -5.49112e-20)
(0.679502 -0.0908969 1.53952e-20)
(0.708313 -0.0846598 2.65061e-20)
(0.734796 -0.0788133 1.02446e-19)
(0.759137 -0.0733758 1.36373e-20)
(0.781633 -0.0683448 -9.22011e-21)
(0.0083098 -0.0312017 -1.71141e-21)
(0.0362295 -0.0769501 8.8064e-21)
(0.0799744 -0.109542 2.69642e-20)
(0.129643 -0.132195 -4.49918e-20)
(0.184093 -0.146627 8.71136e-20)
(0.239978 -0.154667 -4.4451e-20)
(0.295805 -0.157705 5.21738e-20)
(0.350191 -0.156961 3.42662e-20)
(0.402318 -0.153436 7.12178e-20)
(0.45164 -0.147961 -6.31512e-21)
(0.497872 -0.141203 3.1615e-20)
(0.540901 -0.133691 -3.37007e-20)
(0.580747 -0.125831 5.73112e-20)
(0.617515 -0.117923 -5.08701e-20)
(0.651364 -0.110178 -3.01428e-21)
(0.682487 -0.102739 7.05044e-20)
(0.711089 -0.0956937 3.89481e-20)
(0.737376 -0.0890873 -4.99819e-21)
(0.761533 -0.0829421 3.96745e-20)
(0.783882 -0.0772511 1.11805e-20)
(0.00956981 -0.0346428 6.06524e-21)
(0.0392574 -0.0854698 -2.26755e-20)
(0.0841574 -0.121714 2.13057e-20)
(0.134571 -0.146933 5.33251e-20)
(0.189436 -0.163027 -7.31181e-20)
(0.245502 -0.17202 4.44515e-20)
(0.301337 -0.175449 -2.26988e-20)
(0.355611 -0.17467 -8.93734e-20)
(0.407546 -0.17079 -3.1602e-20)
(0.456624 -0.164732 -3.1636e-20)
(0.502583 -0.15724 -7.32445e-20)
(0.545328 -0.148901 3.02399e-20)
(0.584889 -0.140168 -2.66523e-20)
(0.621379 -0.131374 9.5077e-20)
(0.654963 -0.122758 -2.62067e-20)
(0.685835 -0.114478 -1.09969e-20)
(0.714202 -0.106633 -9.7562e-20)
(0.740271 -0.0992743 -5.74752e-20)
(0.764221 -0.0924277 -5.51607e-21)
(0.786407 -0.0860807 -1.91791e-20)
(0.0109568 -0.0380092 -3.66451e-20)
(0.0425924 -0.0938156 1.55588e-19)
(0.0887669 -0.133653 -9.61032e-20)
(0.140003 -0.161405 2.65341e-20)
(0.195328 -0.179149 4.9089e-20)
(0.251597 -0.189096 -7.94693e-20)
(0.307445 -0.192928 -3.62973e-21)
(0.361598 -0.192129 3.40523e-20)
(0.413322 -0.187913 -2.28112e-20)
(0.462133 -0.181294 4.66592e-20)
(0.507793 -0.173087 1.3717e-19)
(0.550225 -0.16394 3.51087e-20)
(0.589472 -0.15435 1.47863e-20)
(0.625655 -0.144687 -5.15641e-20)
(0.658946 -0.135212 7.97007e-20)
(0.689542 -0.126103 -1.96758e-20)
(0.717651 -0.117467 3.07477e-21)
(0.743479 -0.109364 3.27597e-20)
(0.767201 -0.101824 -2.19988e-20)
(0.789205 -0.0948248 5.30214e-20)
(0.0124669 -0.0412942 1.53556e-21)
(0.0462253 -0.101971 -1.12187e-19)
(0.0937909 -0.145336 5.21582e-20)
(0.145926 -0.175585 -1.03386e-21)
(0.201758 -0.194965 -2.63204e-20)
(0.258251 -0.205867 1.35978e-19)
(0.314116 -0.210114 -4.53603e-20)
(0.36814 -0.209313 1.93992e-20)
(0.419637 -0.204784 3.39672e-20)
(0.468158 -0.197625 -1.09201e-19)
(0.513493 -0.188725 -5.05848e-20)
(0.555584 -0.17879 -1.09279e-19)
(0.594489 -0.168363 -2.31689e-20)
(0.630339 -0.157846 3.88052e-20)
(0.66331 -0.147528 -4.81495e-20)
(0.693604 -0.137601 -4.37135e-20)
(0.721431 -0.128186 2.05084e-21)
(0.746996 -0.119348 2.8527e-20)
(0.770468 -0.111121 -7.42767e-20)
(0.792275 -0.103475 -2.30745e-20)
(0.0140956 -0.0444908 -4.76505e-20)
(0.0501466 -0.10992 8.59043e-20)
(0.0992167 -0.15674 4.87103e-20)
(0.152327 -0.189448 -1.31262e-19)
(0.208709 -0.210448 4.73298e-21)
(0.265449 -0.222308 -1.12262e-19)
(0.321336 -0.226983 5.73046e-20)
(0.375225 -0.2262 -1.73387e-20)
(0.426479 -0.221379 -1.33039e-19)
(0.47469 -0.213705 1.10463e-19)
(0.519675 -0.204136 -3.53233e-20)
(0.561399 -0.193436 8.77619e-20)
(0.599934 -0.182191 -5.39051e-20)
(0.635424 -0.170839 4.64882e-20)
(0.66805 -0.159692 6.05193e-20)
(0.698018 -0.148962 1.98536e-20)
(0.725538 -0.138779 5.71047e-20)
(0.750819 -0.129215 -5.89416e-20)
(0.774021 -0.12031 1.52665e-19)
(0.795614 -0.112023 -6.25172e-20)
(0.0543455 -0.117647 -1.28372e-19)
(0.10503 -0.167846 -5.46432e-20)
(0.15919 -0.202968 1.03683e-19)
(0.216167 -0.225573 -2.99439e-21)
(0.273176 -0.238392 -1.41823e-20)
(0.329091 -0.243508 2.62508e-21)
(0.38284 -0.242764 9.83249e-20)
(0.433837 -0.237676 1.57125e-19)
(0.481717 -0.229513 -4.74259e-20)
(0.526329 -0.219301 -6.45479e-20)
(0.56766 -0.207859 -2.90991e-20)
(0.605801 -0.195819 8.66088e-20)
(0.640904 -0.183651 -3.16381e-20)
(0.67316 -0.171694 -4.5779e-20)
(0.702777 -0.160174 4.63091e-20)
(0.72997 -0.149236 1.12845e-20)
(0.754944 -0.138957 -4.4738e-20)
(0.777856 -0.129384 -1.0567e-19)
(0.79922 -0.12046 4.77959e-20)
(0.0588109 -0.125137 7.55788e-21)
(0.111217 -0.178632 8.50134e-20)
(0.166498 -0.216124 -1.18069e-19)
(0.224114 -0.240315 -2.19623e-20)
(0.281416 -0.254094 6.07722e-20)
(0.337366 -0.259665 -7.01413e-20)
(0.390969 -0.258982 -4.7125e-20)
(0.441697 -0.253655 -1.00008e-20)
(0.489228 -0.24503 1.61896e-20)
(0.533445 -0.234202 7.7086e-21)
(0.57436 -0.222045 -4.62533e-20)
(0.61208 -0.209232 -1.23435e-19)
(0.646772 -0.19627 -9.61509e-20)
(0.678633 -0.18352 8.94832e-20)
(0.707877 -0.171228 6.27233e-20)
(0.73472 -0.159547 -6.00085e-20)
(0.759369 -0.148565 9.53843e-20)
(0.781971 -0.138333 -1.80414e-21)
(0.80309 -0.128778 4.16786e-20)
(0.0635306 -0.132377 4.83204e-20)
(0.117761 -0.18908 -4.37544e-20)
(0.174234 -0.228891 6.59698e-20)
(0.232532 -0.254649 4.81468e-20)
(0.29015 -0.269389 -4.07465e-20)
(0.346144 -0.275431 1.17556e-19)
(0.399599 -0.274832 -8.60181e-20)
(0.450046 -0.269292 4.81815e-20)
(0.497211 -0.260236 1.42633e-21)
(0.541011 -0.248822 4.9383e-20)
(0.581487 -0.235976 5.28337e-20)
(0.618764 -0.222417 1.32285e-19)
(0.65302 -0.208683 7.96979e-20)
(0.684464 -0.19516 -1.13127e-19)
(0.713313 -0.182111 -2.77004e-20)
(0.739785 -0.169703 -2.5328e-20)
(0.764088 -0.158029 -6.92213e-20)
(0.786361 -0.147149 -2.21679e-20)
(0.807221 -0.13697 2.48952e-20)
(0.0684922 -0.139351 -6.53907e-20)
(0.124645 -0.199169 -3.66713e-20)
(0.182378 -0.241247 -6.89646e-22)
(0.241401 -0.268552 -1.19288e-19)
(0.299359 -0.284254 1.96704e-20)
(0.355406 -0.290782 -3.14491e-20)
(0.408711 -0.290292 -4.03922e-20)
(0.458868 -0.284569 4.43893e-21)
(0.505652 -0.275112 -6.55681e-20)
(0.549018 -0.263142 -2.78099e-22)
(0.589032 -0.249638 7.98742e-20)
(0.625843 -0.235359 2.95442e-20)
(0.659642 -0.220876 -7.13113e-20)
(0.690646 -0.206601 4.11056e-20)
(0.719078 -0.192814 -3.37268e-20)
(0.745159 -0.179694 -3.02748e-20)
(0.769097 -0.167341 8.55451e-20)
(0.791023 -0.155824 -2.53681e-20)
(0.81161 -0.145027 -1.60806e-19)
(0.0736822 -0.146047 -2.26658e-20)
(0.131852 -0.208882 1.42345e-20)
(0.190911 -0.253173 -2.62008e-21)
(0.250702 -0.282001 -8.53397e-21)
(0.309024 -0.298665 5.09972e-20)
(0.365135 -0.305695 1.50464e-20)
(0.41829 -0.30534 1.14517e-19)
(0.468149 -0.299465 -1.15764e-19)
(0.514537 -0.28964 1.84807e-20)
(0.557451 -0.277147 -1.75588e-20)
(0.596985 -0.263015 -1.92506e-20)
(0.633308 -0.248044 8.0752e-21)
(0.666628 -0.232838 1.10287e-19)
(0.697171 -0.217833 6.27662e-20)
(0.725166 -0.203327 -8.59791e-20)
(0.750837 -0.189511 1.19711e-19)
(0.774391 -0.176494 -2.12085e-20)
(0.795954 -0.164351 1.31161e-19)
(0.816253 -0.152943 1.08175e-19)
(0.0790868 -0.152453 1.45359e-20)
(0.139364 -0.218203 6.06233e-20)
(0.199813 -0.264647 -2.20468e-20)
(0.260413 -0.294975 2.14053e-19)
(0.319124 -0.312601 -1.17358e-19)
(0.375311 -0.320149 -1.4715e-19)
(0.428317 -0.319955 -8.86546e-20)
(0.477871 -0.313961 -4.1477e-20)
(0.523853 -0.303802 -2.45592e-20)
(0.566298 -0.29082 3.46843e-20)
(0.605333 -0.276091 1.79067e-20)
(0.641149 -0.260458 -4.30856e-20)
(0.67397 -0.244556 -1.73035e-19)
(0.704032 -0.228844 -5.38898e-20)
(0.73157 -0.21364 1.15769e-19)
(0.756812 -0.199145 -2.70405e-20)
(0.779967 -0.185478 -4.13623e-20)
(0.801147 -0.172722 -1.13234e-19)
(0.821147 -0.16071 -1.76441e-20)
(0.0846914 -0.158556 7.30504e-20)
(0.14716 -0.227114 1.08072e-19)
(0.209061 -0.27565 -3.3584e-20)
(0.270511 -0.307453 -7.6202e-20)
(0.329638 -0.326041 -5.0337e-21)
(0.385912 -0.334124 1.47798e-19)
(0.438772 -0.334118 9.23586e-20)
(0.488017 -0.328037 1.42365e-19)
(0.533582 -0.31758 7.4028e-20)
(0.575545 -0.304144 -4.0624e-20)
(0.614064 -0.288854 -8.46943e-20)
(0.649355 -0.27259 -1.53518e-19)
(0.681658 -0.256019 8.74084e-20)
(0.71122 -0.239625 -7.15837e-20)
(0.738283 -0.223743 5.75954e-20)
(0.763079 -0.208589 2.4548e-21)
(0.785817 -0.194285 3.27683e-20)
(0.806601 -0.180931 -1.00488e-20)
(0.826288 -0.16832 -4.03285e-20)
(0.0904812 -0.164348 -9.68279e-20)
(0.155223 -0.2356 -5.12408e-20)
(0.218633 -0.286165 3.18896e-20)
(0.280974 -0.319415 -7.48592e-20)
(0.340541 -0.338964 -2.62303e-20)
(0.396917 -0.347598 8.22396e-21)
(0.449637 -0.347809 -2.83933e-20)
(0.49857 -0.341675 -9.2417e-20)
(0.543709 -0.330957 3.73422e-20)
(0.585177 -0.317105 7.08244e-20)
(0.623166 -0.301288 9.54756e-20)
(0.657915 -0.284425 1.23979e-19)
(0.689682 -0.267215 -2.14906e-20)
(0.718727 -0.250165 -1.40997e-20)
(0.745298 -0.233628 -7.37771e-20)
(0.769632 -0.217832 -7.0422e-20)
(0.791937 -0.20291 9.69043e-20)
(0.812308 -0.188969 1.91834e-20)
(0.831672 -0.175768 -1.27162e-19)
(0.0964406 -0.169816 2.56661e-21)
(0.163529 -0.243648 -1.24582e-19)
(0.228506 -0.296174 1.69314e-19)
(0.291776 -0.330843 1.15828e-19)
(0.35181 -0.35135 9.34067e-20)
(0.408304 -0.360553 -4.8038e-20)
(0.460889 -0.361009 -4.26545e-20)
(0.509509 -0.354858 6.59321e-21)
(0.554217 -0.343918 -2.69378e-20)
(0.59518 -0.329687 -7.24563e-20)
(0.632626 -0.31338 -1.7681e-19)
(0.666818 -0.295953 -3.49217e-20)
(0.698033 -0.278134 4.14694e-20)
(0.726544 -0.260454 -9.83937e-21)
(0.752607 -0.243286 -5.37023e-20)
(0.776462 -0.226868 -8.09889e-20)
(0.798321 -0.211343 -8.13114e-20)
(0.818265 -0.196831 -4.84232e-20)
(0.837294 -0.183048 2.26115e-20)
(0.17206 -0.251244 1.94719e-19)
(0.238656 -0.305662 -1.5433e-19)
(0.302895 -0.34172 -3.90349e-20)
(0.363422 -0.363183 -1.58784e-19)
(0.420049 -0.372971 9.65343e-20)
(0.472507 -0.3737 5.21469e-20)
(0.520816 -0.367569 2.29144e-20)
(0.565089 -0.356445 9.44489e-21)
(0.605538 -0.341875 1.49547e-20)
(0.642428 -0.325116 1.76113e-19)
(0.67605 -0.30716 -1.37688e-20)
(0.706698 -0.288763 2.66276e-20)
(0.734661 -0.270483 9.97791e-21)
(0.760201 -0.252708 3.69964e-20)
(0.783564 -0.235689 1.33926e-19)
(0.804962 -0.219579 -3.42996e-20)
(0.824467 -0.20451 9.56797e-20)
(0.84315 -0.190152 5.85195e-21)
(0.180792 -0.258376 -2.04798e-19)
(0.249058 -0.314614 1.27613e-19)
(0.314302 -0.352028 3.55622e-20)
(0.37535 -0.374444 1.77629e-19)
(0.432128 -0.384833 -1.8725e-19)
(0.484469 -0.385867 -1.5101e-20)
(0.53247 -0.379792 -2.1602e-20)
(0.576305 -0.368524 2.11319e-20)
(0.616234 -0.353656 6.40276e-20)
(0.652559 -0.336484 -1.89114e-19)
(0.685599 -0.318035 1.2164e-19)
(0.715668 -0.299095 -6.98608e-20)
(0.743068 -0.280242 -4.54263e-20)
(0.768071 -0.261885 3.49936e-20)
(0.790929 -0.244289 -1.85433e-20)
(0.811855 -0.227612 3.47951e-20)
(0.830906 -0.212002 -9.11703e-20)
(0.849236 -0.197076 2.44823e-20)
(0.189704 -0.265034 1.08838e-20)
(0.259686 -0.323016 -2.45521e-19)
(0.325973 -0.361753 3.88026e-20)
(0.387568 -0.385118 -8.06325e-20)
(0.444516 -0.396125 1.747e-19)
(0.496751 -0.397492 -2.27853e-20)
(0.544449 -0.391511 3.11728e-20)
(0.587846 -0.380141 -5.94069e-20)
(0.627252 -0.365017 -7.40061e-20)
(0.663004 -0.347472 2.15562e-19)
(0.695451 -0.328567 -3.15509e-20)
(0.72493 -0.309117 -3.67858e-20)
(0.751755 -0.289723 6.1138e-20)
(0.77621 -0.270811 -2.04913e-20)
(0.79855 -0.252659 -1.23997e-19)
(0.818991 -0.235434 4.40437e-20)
(0.837579 -0.219299 8.88045e-20)
(0.855545 -0.203814 8.88052e-20)
(0.198772 -0.271206 8.8971e-20)
(0.270516 -0.330856 1.338e-19)
(0.33788 -0.370881 -1.54646e-19)
(0.400049 -0.395189 -2.80911e-20)
(0.457187 -0.406831 5.55203e-20)
(0.509331 -0.408561 2.13145e-22)
(0.556733 -0.402711 -1.12069e-19)
(0.599694 -0.391282 -1.37414e-19)
(0.638573 -0.375944 1.08323e-19)
(0.673747 -0.358068 -6.15751e-20)
(0.705594 -0.338746 -2.69092e-20)
(0.734472 -0.318821 -9.39679e-21)
(0.760712 -0.298917 8.70684e-20)
(0.784606 -0.279478 1.18667e-19)
(0.806418 -0.260793 -2.33348e-20)
(0.826365 -0.243041 2.66671e-20)
(0.844479 -0.226398 -3.31435e-20)
(0.862074 -0.210362 -8.84563e-20)
(0.207975 -0.276885 -2.8515e-20)
(0.28152 -0.338123 -1.31094e-19)
(0.349996 -0.379399 1.40877e-19)
(0.412767 -0.404644 1.15358e-19)
(0.470116 -0.416935 -2.56532e-20)
(0.522182 -0.419059 5.06321e-20)
(0.569297 -0.41338 -1.32345e-20)
(0.611827 -0.401933 2.15359e-19)
(0.650179 -0.386425 -7.39349e-20)
(0.684772 -0.36826 -2.61031e-20)
(0.716013 -0.348561 -1.29942e-19)
(0.744282 -0.328198 5.33312e-20)
(0.769927 -0.307816 2.30039e-20)
(0.793252 -0.287878 -1.526e-19)
(0.814524 -0.268686 1.71063e-19)
(0.833968 -0.250427 -1.45624e-20)
(0.851599 -0.233294 -3.80485e-20)
(0.868816 -0.216715 -9.70718e-20)
(0.217287 -0.282063 9.75135e-21)
(0.292672 -0.344807 2.16264e-19)
(0.362291 -0.387295 -8.12209e-20)
(0.425692 -0.41347 -4.51927e-20)
(0.483274 -0.426426 2.47491e-20)
(0.53528 -0.428973 -9.75878e-20)
(0.58212 -0.423503 1.01367e-19)
(0.624224 -0.412082 -2.11603e-19)
(0.662053 -0.396449 1.36601e-19)
(0.696063 -0.378038 1.81644e-19)
(0.726692 -0.358003 5.29953e-20)
(0.754346 -0.337238 -7.3758e-21)
(0.779389 -0.316412 -1.21782e-19)
(0.802135 -0.296005 1.38951e-19)
(0.822861 -0.276332 -8.6564e-20)
(0.841794 -0.257588 -3.17826e-21)
(0.858933 -0.239983 -3.30522e-20)
(0.875765 -0.222869 2.73171e-19)
(0.303944 -0.350899 -1.29677e-19)
(0.374739 -0.39456 7.72267e-20)
(0.438797 -0.421656 -7.43586e-20)
(0.496635 -0.435291 -5.91922e-20)
(0.548598 -0.438291 7.41494e-20)
(0.595177 -0.433068 5.75266e-20)
(0.636865 -0.421717 1.15527e-19)
(0.674174 -0.406003 -2.07699e-19)
(0.707601 -0.387392 -2.07369e-19)
(0.737618 -0.367061 8.0618e-20)
(0.764652 -0.345933 -6.92199e-20)
(0.789085 -0.324698 -4.66879e-20)
(0.811246 -0.303852 -7.09363e-20)
(0.831419 -0.283725 4.37052e-20)
(0.849833 -0.264518 -3.04792e-20)
(0.866474 -0.246461 -1.05033e-19)
(0.882917 -0.228821 5.8031e-21)
(0.315309 -0.356393 7.89914e-21)
(0.387308 -0.401184 -1.1895e-20)
(0.452051 -0.429191 2.85302e-20)
(0.51017 -0.443519 7.07317e-20)
(0.562111 -0.447 -1.10005e-19)
(0.608444 -0.442065 -1.36912e-19)
(0.649727 -0.430828 -1.03282e-19)
(0.686523 -0.415079 1.6747e-19)
(0.719371 -0.396311 1.45873e-19)
(0.748773 -0.375728 2.53173e-20)
(0.775184 -0.354276 5.50421e-20)
(0.799005 -0.332667 6.55671e-20)
(0.820575 -0.311414 4.53995e-20)
(0.840187 -0.29086 -3.2128e-20)
(0.858077 -0.271214 -2.73924e-20)
(0.874215 -0.252726 1.87308e-19)
(0.890264 -0.234567 -1.86263e-20)
(0.326739 -0.361282 4.00806e-20)
(0.399971 -0.40716 8.0988e-20)
(0.465426 -0.436068 -2.04345e-20)
(0.523851 -0.451101 -9.65653e-20)
(0.575792 -0.455092 3.76575e-20)
(0.621897 -0.450483 9.80032e-20)
(0.662787 -0.439403 4.07289e-20)
(0.699079 -0.423666 -1.16049e-19)
(0.731352 -0.404786 3.77205e-20)
(0.760143 -0.383994 -7.00744e-21)
(0.78593 -0.362258 9.50903e-20)
(0.809134 -0.340311 -3.04045e-20)
(0.830109 -0.318683 -1.12605e-19)
(0.849157 -0.297731 -5.95625e-20)
(0.866519 -0.277672 1.09168e-19)
(0.88215 -0.258773 5.8808e-20)
(0.897801 -0.240105 -3.55616e-20)
(0.338206 -0.365561 2.02829e-20)
(0.412697 -0.412482 2.79779e-20)
(0.478892 -0.442277 4.81838e-20)
(0.537648 -0.458027 -5.38335e-20)
(0.589613 -0.462557 6.94155e-21)
(0.635509 -0.458312 5.11615e-20)
(0.676023 -0.447434 4.37226e-21)
(0.711822 -0.431754 -1.12427e-19)
(0.743528 -0.412809 -2.39278e-20)
(0.77171 -0.391852 -8.15258e-20)
(0.796875 -0.369872 -1.11076e-19)
(0.819461 -0.347624 4.22266e-20)
(0.839838 -0.325656 1.10355e-19)
(0.858318 -0.304335 2.61037e-20)
(0.875149 -0.283888 9.31356e-20)
(0.890271 -0.264601 -9.8108e-21)
(0.905523 -0.245432 -4.81487e-20)
(0.349682 -0.369228 -6.59517e-20)
(0.425455 -0.417144 -1.12556e-19)
(0.492417 -0.447813 -1.25061e-19)
(0.551533 -0.46429 3.03602e-20)
(0.603545 -0.469386 -5.35051e-20)
(0.649255 -0.465543 6.50325e-20)
(0.68941 -0.454911 4.82522e-20)
(0.72473 -0.439336 5.90431e-20)
(0.755879 -0.420372 -1.15864e-19)
(0.783459 -0.399293 3.43088e-20)
(0.808003 -0.377111 8.26578e-20)
(0.829972 -0.3546 -8.01923e-20)
(0.84975 -0.332325 8.40604e-20)
(0.867661 -0.310667 5.42727e-20)
(0.883959 -0.289859 -1.6827e-19)
(0.898573 -0.270208 -4.51268e-20)
(0.913423 -0.250546 6.93165e-20)
(0.438217 -0.421143 -3.25737e-20)
(0.505972 -0.452671 3.0259e-20)
(0.565474 -0.469885 3.33695e-20)
(0.617562 -0.475572 7.76637e-20)
(0.663109 -0.472169 1.34225e-20)
(0.702926 -0.461827 1.88327e-20)
(0.737782 -0.446403 -4.12682e-21)
(0.768385 -0.427467 4.36288e-20)
(0.795371 -0.406312 1.09009e-19)
(0.819301 -0.38397 -3.03496e-20)
(0.840655 -0.361233 8.03253e-20)
(0.859835 -0.338685 6.88992e-21)
(0.877176 -0.316721 -9.65233e-20)
(0.892941 -0.295581 2.37587e-20)
(0.907048 -0.27559 -1.13725e-20)
(0.921497 -0.255444 4.33572e-20)
(0.450952 -0.424478 3.84969e-20)
(0.519526 -0.456847 -3.09901e-20)
(0.579444 -0.474805 2.38086e-21)
(0.631634 -0.48111 1.12042e-19)
(0.677044 -0.478183 -5.21286e-20)
(0.716544 -0.468175 -3.13072e-20)
(0.750956 -0.452949 4.86861e-20)
(0.781028 -0.434087 3.32152e-20)
(0.80743 -0.412901 -1.77199e-19)
(0.830751 -0.39044 4.49811e-21)
(0.851495 -0.367518 -4.10197e-20)
(0.870079 -0.344733 -6.15601e-20)
(0.886852 -0.322494 3.67279e-20)
(0.902086 -0.30105 1.09786e-19)
(0.915693 -0.280746 -1.51062e-19)
(0.929742 -0.260122 -1.61888e-20)
(0.463628 -0.427146 4.08014e-20)
(0.533048 -0.460339 3.46271e-20)
(0.59341 -0.479047 4.28005e-20)
(0.645733 -0.485993 -4.51873e-20)
(0.691033 -0.48358 -6.46404e-20)
(0.730242 -0.473949 1.40272e-20)
(0.76423 -0.458966 -2.89567e-21)
(0.793786 -0.440226 -8.6187e-20)
(0.819617 -0.419054 1.63533e-19)
(0.84234 -0.396518 -3.55417e-20)
(0.862479 -0.373448 -6.61565e-20)
(0.880472 -0.350461 5.46209e-20)
(0.89668 -0.32798 -5.8445e-21)
(0.911388 -0.306263 -9.51377e-20)
(0.924506 -0.285672 1.34055e-19)
(0.938156 -0.264579 -1.15408e-19)
(0.476216 -0.429149 -2.8112e-20)
(0.546507 -0.463145 1.16058e-20)
(0.607342 -0.482609 -2.88509e-20)
(0.659828 -0.490219 -5.49814e-20)
(0.705049 -0.488353 1.11143e-19)
(0.743993 -0.479142 -8.8158e-20)
(0.77758 -0.464449 3.87745e-21)
(0.80664 -0.445878 6.16862e-20)
(0.831915 -0.424766 -1.60418e-19)
(0.85405 -0.402198 3.41365e-20)
(0.873593 -0.37902 8.45641e-21)
(0.891001 -0.355867 -4.7001e-20)
(0.906651 -0.333175 -4.40831e-20)
(0.920839 -0.311215 1.70252e-20)
(0.933486 -0.290365 -7.9181e-20)
(0.946741 -0.268808 -5.89214e-20)
(0.559871 -0.465266 -2.3409e-20)
(0.62121 -0.485489 -4.26404e-20)
(0.673892 -0.493785 2.2226e-20)
(0.719064 -0.492501 -9.99996e-21)
(0.757772 -0.48375 7.3769e-20)
(0.790983 -0.469394 1.26138e-20)
(0.819569 -0.451038 -2.87657e-20)
(0.844305 -0.430031 6.1486e-20)
(0.865865 -0.407474 -3.78972e-20)
(0.884824 -0.384229 -3.42211e-20)
(0.901657 -0.360945 -2.23125e-20)
(0.916757 -0.338075 1.41117e-20)
(0.930436 -0.315903 1.1217e-19)
(0.942638 -0.294813 7.50198e-20)
(0.955493 -0.272776 5.63748e-20)
(0.573112 -0.466706 3.57976e-20)
(0.634985 -0.487688 2.49391e-20)
(0.687894 -0.496689 -6.60774e-20)
(0.73305 -0.496019 -1.59836e-19)
(0.771554 -0.487771 1.46026e-20)
(0.804417 -0.473795 -1.70677e-20)
(0.832552 -0.455701 5.46624e-20)
(0.856768 -0.434847 2.62873e-20)
(0.87777 -0.412343 7.45655e-20)
(0.896157 -0.38907 4.83743e-20)
(0.912426 -0.365693 2.32067e-20)
(0.926989 -0.342676 9.85184e-22)
(0.940178 -0.32032 3.30244e-21)
(0.951967 -0.298984 -1.48308e-19)
(0.964371 -0.27646 1.34656e-20)
(0.586196 -0.467464 -9.71947e-21)
(0.648633 -0.489206 -1.08782e-20)
(0.701805 -0.498931 1.9807e-20)
(0.74698 -0.498906 1.22301e-19)
(0.785312 -0.4912 -1.34115e-19)
(0.817857 -0.47765 -4.08473e-20)
(0.845566 -0.459865 6.70031e-20)
(0.869285 -0.439207 -8.1334e-20)
(0.889747 -0.416802 -6.93593e-20)
(0.907576 -0.393542 3.05451e-21)
(0.923297 -0.370108 9.28199e-22)
(0.93734 -0.346979 -8.46848e-21)
(0.950072 -0.324461 -8.39903e-20)
(0.961523 -0.302853 9.88309e-20)
(0.973353 -0.28006 1.18206e-19)
(0.662117 -0.490037 1.76121e-20)
(0.715589 -0.500504 5.76977e-20)
(0.760821 -0.501157 -3.24814e-20)
(0.799017 -0.494033 1.37905e-19)
(0.831277 -0.480954 5.62594e-20)
(0.85859 -0.463524 -1.51467e-19)
(0.881836 -0.44311 7.81321e-20)
(0.901778 -0.420848 6.1864e-20)
(0.919068 -0.397643 -8.00311e-21)
(0.934256 -0.374191 3.71012e-21)
(0.947802 -0.350986 -2.72377e-21)
(0.960126 -0.328337 -4.32661e-20)
(0.971436 -0.306509 1.68871e-20)
(0.98325 -0.2842 1.27323e-20)
(0.675405 -0.490186 -1.84657e-20)
(0.729215 -0.501412 -4.31549e-20)
(0.774545 -0.502773 3.03339e-20)
(0.812644 -0.496269 -1.0864e-19)
(0.844654 -0.483705 -6.06643e-20)
(0.871602 -0.466676 2.92946e-20)
(0.894401 -0.446552 -1.12356e-20)
(0.913846 -0.424477 3.29864e-21)
(0.930616 -0.401369 -2.46097e-20)
(0.945289 -0.377941 -2.83424e-20)
(0.958354 -0.354703 1.30245e-20)
(0.970286 -0.331987 1.35768e-19)
(0.981477 -0.310091 -1.18264e-20)
(0.992908 -0.288552 -1.32783e-19)
(0.688474 -0.489667 -8.0973e-21)
(0.74266 -0.501664 -1.65371e-20)
(0.788127 -0.503757 -1.30493e-20)
(0.826168 -0.49791 5.58617e-20)
(0.857964 -0.485902 5.21979e-20)
(0.88458 -0.469319 2.25329e-20)
(0.906961 -0.44953 -4.35764e-20)
(0.925932 -0.427686 -4.33579e-20)
(0.942203 -0.40472 1.3893e-19)
(0.956376 -0.381356 -8.50975e-21)
(0.968973 -0.35813 4.44007e-20)
(0.980502 -0.335407 -7.12245e-20)
(0.991479 -0.313515 -9.62555e-20)
(1.00234 -0.292607 -3.12612e-20)
(0.755895 -0.501264 2.00223e-20)
(0.801539 -0.504114 1.60701e-20)
(0.839562 -0.498956 4.74208e-20)
(0.871184 -0.487545 1.88909e-21)
(0.897502 -0.471451 -3.5009e-20)
(0.919495 -0.452043 2.63846e-20)
(0.938018 -0.430475 -4.44171e-21)
(0.953808 -0.407692 -2.1095e-21)
(0.967498 -0.384436 4.32684e-20)
(0.979633 -0.361266 1.34437e-20)
(0.99074 -0.338583 -9.21709e-21)
(1.00139 -0.316726 5.55327e-20)
(1.01161 -0.29628 6.90179e-20)
(0.76889 -0.500218 1.14895e-20)
(0.814753 -0.503846 -4.8983e-20)
(0.8528 -0.499411 2.61361e-21)
(0.884287 -0.488635 6.53863e-21)
(0.910344 -0.473074 4.02927e-20)
(0.931981 -0.454089 4.29732e-20)
(0.950083 -0.432841 9.07392e-20)
(0.965415 -0.410285 -7.3686e-20)
(0.978634 -0.387179 -5.69614e-20)
(0.99031 -0.364106 5.99676e-21)
(1.00097 -0.341503 5.22557e-20)
(1.01121 -0.319706 -7.73927e-20)
(1.02073 -0.299609 -2.58669e-20)
(0.82774 -0.502958 -4.26564e-20)
(0.865855 -0.499275 1.56401e-21)
(0.897249 -0.489172 -2.15295e-20)
(0.923083 -0.474185 -1.21003e-20)
(0.944398 -0.455668 2.04584e-20)
(0.962108 -0.434784 -5.55698e-20)
(0.977003 -0.412497 6.40677e-20)
(0.989766 -0.389582 4.75664e-20)
(1.00098 -0.366645 -3.2758e-20)
(1.01118 -0.344157 -4.43964e-20)
(1.02094 -0.32244 -2.50401e-20)
(1.02975 -0.30261 1.3645e-20)
(0.840473 -0.501455 4.86931e-20)
(0.878701 -0.498553 -1.54218e-20)
(0.910044 -0.489159 -6.37183e-21)
(0.935696 -0.474785 5.33041e-20)
(0.956725 -0.456778 -9.09396e-21)
(0.974071 -0.436301 1.45607e-20)
(0.988553 -0.414326 -6.30558e-20)
(1.00087 -0.391643 -3.11208e-20)
(1.01164 -0.36888 -5.72565e-20)
(1.02136 -0.346536 -1.02069e-20)
(1.03059 -0.324918 5.85238e-21)
(1.03868 -0.305297 6.03023e-20)
(0.891309 -0.497248 -1.36837e-20)
(0.922648 -0.488597 -1.76804e-20)
(0.948159 -0.474876 -2.29236e-20)
(0.968939 -0.457422 -5.03373e-20)
(0.985954 -0.437393 5.03434e-21)
(1.00005 -0.415771 -3.24332e-20)
(1.01194 -0.39336 3.06148e-20)
(1.02225 -0.370805 1.19734e-20)
(1.03148 -0.348632 1.12696e-19)
(1.04016 -0.327128 -8.31825e-21)
(1.04754 -0.307678 -2.2377e-20)
(0.903655 -0.495366 -4.7889e-21)
(0.935034 -0.487489 3.65829e-20)
(0.960449 -0.47446 -3.64235e-20)
(0.981018 -0.457597 -1.80211e-20)
(0.997734 -0.438059 -2.65693e-21)
(1.01146 -0.416831 2.43175e-20)
(1.02294 -0.394729 1.35243e-20)
(1.0328 -0.372416 -2.58215e-20)
(1.04153 -0.350439 -9.44865e-20)
(1.04964 -0.329066 1.5674e-20)
(1.05633 -0.309763 1.73264e-20)
(0.947179 -0.485841 -8.89995e-21)
(0.972541 -0.473538 2.18572e-20)
(0.992941 -0.457307 5.00064e-20)
(1.00939 -0.438298 -3.34391e-20)
(1.02278 -0.417504 4.26666e-20)
(1.03387 -0.395748 -3.49121e-20)
(1.04329 -0.37371 3.05045e-20)
(1.05152 -0.351952 3.93133e-20)
(1.05906 -0.330726 3.65915e-20)
(1.06508 -0.311559 -4.73961e-20)
(0.959056 -0.483656 3.32647e-22)
(0.984413 -0.472114 -3.41689e-20)
(1.00468 -0.456551 -1.30113e-21)
(1.02091 -0.438112 -2.2117e-20)
(1.03399 -0.417789 -5.96192e-20)
(1.0447 -0.396416 2.3433e-20)
(1.05369 -0.374683 8.49972e-21)
(1.06143 -0.353168 -2.90441e-20)
(1.06839 -0.332106 -7.11514e-20)
(1.07377 -0.313074 7.02558e-20)
(0.99604 -0.47019 3.50048e-20)
(1.01623 -0.455332 1.94329e-20)
(1.03226 -0.4375 2.2804e-20)
(1.04507 -0.417686 8.57926e-21)