/*--------------------------------*- C++ -*----------------------------------*\
  =========                 |
  \\      /  F ield         | OpenFOAM: The Open Source CFD Toolbox
   \\    /   O peration     | Website:  https://openfoam.org
    \\  /    A nd           | Version:  7
     \\/     M anipulation  |
\*---------------------------------------------------------------------------*/
FoamFile
{
    version     2.0;
    format      ascii;
    class       volScalarField;
    location    "35";
    object      p;
}
// * * * * * * * * * * * * * * * * * * * * * * * * * * * * * * * * * * * * * //

dimensions      [0 2 -2 0 0 0 0];

internalField   nonuniform List<scalar> 
42000
(
-0.390477
-0.392932
-0.387278
-0.380224
-0.370518
-0.359542
-0.347494
-0.334775
-0.321631
-0.308262
-0.294836
-0.281486
-0.268338
-0.255489
-0.243068
-0.231107
-0.219885
-0.20903
-0.199784
-0.189634
-0.390754
-0.393123
-0.387451
-0.380361
-0.370638
-0.359644
-0.347585
-0.334856
-0.321704
-0.308328
-0.294897
-0.281542
-0.268388
-0.255533
-0.243105
-0.231134
-0.219905
-0.209025
-0.19981
-0.1895
-0.391308
-0.393504
-0.387797
-0.380633
-0.370877
-0.359848
-0.347766
-0.335017
-0.32185
-0.308461
-0.295019
-0.281653
-0.268489
-0.255621
-0.24318
-0.231188
-0.219946
-0.209015
-0.199862
-0.189231
-0.392136
-0.394074
-0.388315
-0.381042
-0.371236
-0.360153
-0.348036
-0.335257
-0.322068
-0.30866
-0.295201
-0.281819
-0.268639
-0.255753
-0.243291
-0.231269
-0.220007
-0.209
-0.199942
-0.188831
-0.393237
-0.394833
-0.389003
-0.381584
-0.371712
-0.360558
-0.348395
-0.335577
-0.322357
-0.308924
-0.295442
-0.28204
-0.268838
-0.255927
-0.243439
-0.231377
-0.220089
-0.208981
-0.200048
-0.188302
-0.394608
-0.395778
-0.389861
-0.382259
-0.372305
-0.361062
-0.348842
-0.335974
-0.322717
-0.309251
-0.295743
-0.282314
-0.269086
-0.256144
-0.243622
-0.231512
-0.220191
-0.208957
-0.200182
-0.187647
-0.396247
-0.396907
-0.390885
-0.383066
-0.373013
-0.361663
-0.349375
-0.336447
-0.323145
-0.309641
-0.2961
-0.28264
-0.269381
-0.256403
-0.243841
-0.231672
-0.220314
-0.20893
-0.200343
-0.186871
-0.398148
-0.398217
-0.392073
-0.384001
-0.373835
-0.362359
-0.349992
-0.336995
-0.323641
-0.310093
-0.296513
-0.283017
-0.269721
-0.256701
-0.244094
-0.231858
-0.220457
-0.2089
-0.200532
-0.185978
-0.400307
-0.399705
-0.393423
-0.385064
-0.374766
-0.36315
-0.350692
-0.337616
-0.324202
-0.310603
-0.29698
-0.283444
-0.270106
-0.257039
-0.24438
-0.232068
-0.22062
-0.208868
-0.20075
-0.184975
-0.40272
-0.401369
-0.394931
-0.38625
-0.375807
-0.364032
-0.351473
-0.338307
-0.324827
-0.311172
-0.2975
-0.283918
-0.270534
-0.257414
-0.244699
-0.232303
-0.220803
-0.208833
-0.200995
-0.183868
-0.40538
-0.403203
-0.396594
-0.387558
-0.376953
-0.365002
-0.352331
-0.339068
-0.325514
-0.311795
-0.29807
-0.284437
-0.271003
-0.257825
-0.245048
-0.232561
-0.221006
-0.208797
-0.201269
-0.182665
-0.408281
-0.405205
-0.398407
-0.388983
-0.378202
-0.36606
-0.353265
-0.339894
-0.326259
-0.312472
-0.298688
-0.285
-0.27151
-0.258271
-0.245427
-0.232842
-0.221229
-0.208761
-0.201569
-0.181374
-0.411418
-0.407368
-0.400368
-0.390524
-0.37955
-0.3672
-0.354272
-0.340785
-0.327062
-0.3132
-0.299352
-0.285604
-0.272055
-0.258748
-0.245834
-0.233144
-0.22147
-0.208725
-0.201896
-0.180003
-0.414783
-0.409689
-0.40247
-0.392175
-0.380995
-0.368421
-0.35535
-0.341736
-0.327918
-0.313976
-0.300059
-0.286247
-0.272635
-0.259257
-0.246268
-0.233466
-0.221729
-0.20869
-0.202249
-0.178562
-0.418371
-0.412159
-0.404709
-0.393933
-0.382532
-0.36972
-0.356494
-0.342746
-0.328826
-0.314797
-0.300807
-0.286926
-0.273247
-0.259794
-0.246726
-0.233808
-0.222006
-0.208656
-0.202624
-0.17706
-0.422164
-0.414781
-0.407081
-0.395794
-0.384159
-0.371092
-0.357702
-0.343811
-0.329782
-0.315662
-0.301593
-0.28764
-0.273889
-0.260357
-0.247207
-0.234167
-0.222298
-0.208624
-0.203021
-0.175506
-0.426162
-0.417544
-0.40958
-0.397754
-0.38587
-0.372535
-0.358971
-0.344928
-0.330785
-0.316566
-0.302415
-0.288384
-0.274559
-0.260944
-0.247709
-0.234542
-0.222606
-0.208595
-0.203436
-0.173912
-0.430356
-0.420441
-0.4122
-0.399809
-0.387663
-0.374045
-0.360298
-0.346095
-0.33183
-0.317508
-0.303269
-0.289158
-0.275253
-0.261552
-0.248229
-0.234932
-0.222928
-0.208569
-0.203867
-0.172287
-0.434736
-0.423466
-0.414937
-0.401953
-0.389533
-0.375618
-0.361679
-0.347307
-0.332915
-0.318484
-0.304153
-0.289957
-0.27597
-0.262179
-0.248765
-0.235335
-0.223261
-0.208546
-0.204308
-0.170642
-0.439293
-0.426614
-0.417783
-0.404182
-0.391476
-0.377251
-0.363111
-0.348563
-0.334036
-0.319492
-0.305064
-0.290779
-0.276706
-0.262823
-0.249316
-0.23575
-0.223604
-0.208527
-0.204757
-0.168986
-0.444016
-0.429878
-0.420733
-0.406491
-0.393487
-0.37894
-0.36459
-0.349858
-0.335191
-0.320528
-0.305999
-0.29162
-0.277459
-0.263481
-0.249877
-0.236173
-0.223955
-0.208512
-0.205208
-0.167329
-0.448896
-0.433251
-0.423781
-0.408876
-0.395563
-0.380681
-0.366114
-0.35119
-0.336377
-0.32159
-0.306955
-0.29248
-0.278226
-0.26415
-0.250448
-0.236603
-0.22431
-0.2085
-0.205654
-0.16568
-0.453923
-0.436726
-0.42692
-0.411331
-0.397698
-0.382471
-0.367678
-0.352555
-0.33759
-0.322674
-0.307928
-0.293353
-0.279003
-0.264827
-0.251024
-0.237039
-0.224669
-0.208492
-0.206091
-0.164049
-0.459086
-0.440296
-0.430145
-0.413852
-0.399889
-0.384306
-0.369279
-0.353951
-0.338828
-0.323777
-0.308917
-0.294237
-0.279788
-0.265509
-0.251603
-0.237477
-0.225026
-0.208487
-0.20651
-0.162445
-0.464375
-0.443953
-0.433448
-0.416433
-0.402131
-0.386181
-0.370913
-0.355373
-0.340087
-0.324896
-0.309917
-0.295129
-0.280578
-0.266193
-0.252182
-0.237915
-0.225379
-0.208486
-0.206904
-0.160874
-0.469779
-0.44769
-0.436822
-0.419068
-0.40442
-0.388093
-0.372578
-0.356819
-0.341364
-0.326029
-0.310927
-0.296026
-0.281369
-0.266876
-0.252758
-0.238351
-0.225725
-0.208488
-0.207265
-0.159346
-0.475288
-0.4515
-0.440262
-0.421754
-0.40675
-0.390038
-0.374269
-0.358285
-0.342657
-0.327171
-0.311941
-0.296924
-0.282158
-0.267555
-0.253327
-0.238782
-0.22606
-0.208494
-0.207583
-0.157868
-0.48089
-0.455374
-0.44376
-0.424484
-0.409118
-0.392012
-0.375983
-0.359768
-0.34396
-0.328321
-0.312958
-0.29782
-0.282941
-0.268227
-0.253886
-0.239206
-0.22638
-0.208506
-0.207849
-0.156447
-0.486575
-0.459306
-0.44731
-0.427252
-0.411518
-0.394012
-0.377716
-0.361265
-0.345272
-0.329473
-0.313973
-0.298711
-0.283715
-0.268887
-0.254432
-0.239621
-0.226682
-0.208524
-0.208051
-0.155093
-0.49233
-0.463286
-0.450903
-0.430055
-0.413946
-0.396032
-0.379465
-0.362771
-0.346589
-0.330625
-0.314983
-0.299592
-0.284476
-0.269532
-0.25496
-0.240024
-0.226961
-0.208552
-0.208178
-0.153814
-0.498146
-0.467308
-0.454534
-0.432885
-0.416397
-0.39807
-0.381226
-0.364285
-0.347908
-0.331774
-0.315984
-0.30046
-0.28522
-0.270158
-0.255468
-0.240412
-0.227214
-0.208594
-0.208217
-0.152624
-0.504009
-0.471363
-0.458194
-0.435738
-0.418866
-0.40012
-0.382995
-0.365801
-0.349224
-0.332915
-0.316972
-0.30131
-0.285942
-0.270762
-0.25595
-0.240783
-0.227437
-0.208657
-0.208152
-0.151541
-0.509909
-0.475442
-0.461878
-0.438608
-0.421348
-0.402179
-0.384768
-0.367317
-0.350534
-0.334044
-0.317943
-0.302139
-0.286639
-0.271337
-0.256403
-0.241135
-0.227628
-0.20875
-0.207967
-0.150589
-0.515833
-0.479537
-0.465576
-0.441489
-0.423839
-0.404243
-0.386541
-0.368828
-0.351834
-0.335157
-0.318893
-0.30294
-0.287304
-0.271879
-0.256823
-0.241465
-0.227785
-0.208886
-0.207643
-0.149808
-0.52177
-0.48364
-0.469282
-0.444375
-0.426333
-0.406306
-0.388311
-0.37033
-0.353119
-0.33625
-0.319817
-0.30371
-0.287933
-0.272384
-0.257203
-0.24177
-0.227907
-0.209083
-0.207165
-0.149282
-0.527706
-0.487742
-0.472988
-0.447259
-0.428825
-0.408364
-0.390071
-0.371818
-0.354386
-0.337319
-0.320709
-0.304443
-0.288519
-0.272844
-0.25754
-0.242047
-0.227991
-0.209361
-0.20652
-0.149147
-0.53363
-0.491834
-0.476687
-0.450137
-0.43131
-0.410413
-0.391819
-0.373289
-0.355629
-0.338357
-0.321564
-0.305132
-0.289057
-0.273254
-0.257827
-0.24229
-0.22804
-0.209746
-0.205668
-0.149445
-0.539533
-0.495912
-0.480373
-0.453005
-0.433783
-0.412449
-0.39355
-0.374739
-0.356845
-0.33936
-0.322377
-0.305772
-0.28954
-0.273606
-0.258057
-0.242493
-0.228058
-0.210277
-0.204494
-0.149972
-0.545403
-0.499967
-0.484041
-0.455857
-0.436241
-0.414468
-0.395261
-0.376162
-0.358027
-0.340323
-0.323142
-0.306357
-0.289961
-0.273892
-0.258221
-0.242647
-0.228057
-0.211009
-0.203022
-0.151634
-0.551194
-0.50396
-0.487653
-0.458663
-0.438658
-0.416449
-0.396933
-0.377544
-0.359164
-0.341234
-0.323849
-0.306876
-0.290311
-0.274102
-0.258311
-0.242738
-0.228033
-0.211942
-0.201987
-0.160754
-0.556818
-0.507806
-0.491135
-0.461358
-0.44098
-0.418347
-0.39853
-0.378856
-0.360232
-0.342076
-0.324482
-0.307318
-0.290579
-0.274228
-0.258313
-0.242745
-0.22795
-0.212888
-0.202032
-0.187012
-0.562468
-0.511696
-0.494656
-0.464089
-0.443328
-0.420259
-0.400128
-0.380155
-0.361272
-0.342873
-0.325057
-0.307688
-0.290763
-0.274259
-0.258214
-0.24264
-0.227747
-0.213602
-0.201135
-0.197811
-0.568066
-0.515551
-0.498146
-0.466795
-0.445648
-0.422142
-0.401691
-0.38141
-0.362258
-0.343607
-0.325558
-0.307973
-0.290852
-0.274185
-0.258001
-0.242402
-0.227387
-0.213941
-0.199632
-0.201687
-0.573563
-0.519326
-0.501565
-0.469442
-0.447914
-0.423972
-0.403198
-0.382605
-0.363177
-0.344265
-0.325973
-0.308162
-0.290835
-0.273996
-0.257662
-0.242014
-0.226856
-0.2139
-0.198131
-0.203438
-0.578948
-0.523013
-0.504905
-0.472022
-0.450118
-0.425742
-0.404643
-0.383732
-0.36402
-0.344838
-0.326293
-0.308247
-0.290705
-0.273681
-0.257187
-0.241465
-0.22615
-0.213503
-0.196641
-0.203864
-0.584208
-0.526605
-0.508159
-0.47453
-0.452254
-0.427447
-0.40602
-0.384785
-0.364781
-0.345319
-0.326511
-0.308218
-0.29045
-0.273232
-0.256566
-0.240744
-0.225263
-0.212771
-0.195085
-0.203158
-0.589331
-0.530091
-0.511318
-0.476959
-0.454316
-0.429079
-0.40732
-0.385756
-0.365452
-0.345699
-0.326617
-0.308067
-0.290063
-0.272638
-0.255789
-0.239844
-0.22419
-0.211728
-0.193436
-0.201591
-0.594303
-0.53346
-0.514373
-0.479298
-0.456294
-0.43063
-0.408536
-0.386637
-0.366023
-0.34597
-0.326603
-0.307785
-0.289534
-0.271891
-0.254849
-0.238759
-0.222929
-0.210397
-0.191684
-0.199395
-0.599107
-0.536702
-0.517311
-0.48154
-0.458178
-0.432091
-0.409659
-0.387417
-0.366485
-0.346122
-0.326459
-0.307363
-0.288855
-0.270984
-0.253739
-0.237484
-0.221477
-0.208802
-0.189818
-0.196733
-0.603731
-0.539805
-0.520123
-0.483674
-0.459961
-0.433452
-0.410679
-0.388089
-0.366828
-0.346145
-0.326176
-0.306791
-0.288017
-0.269908
-0.252452
-0.236017
-0.219833
-0.206961
-0.187828
-0.19372
-0.608158
-0.542757
-0.522797
-0.48569
-0.461632
-0.434705
-0.411586
-0.388641
-0.367044
-0.346029
-0.325744
-0.306061
-0.287012
-0.268657
-0.250982
-0.234356
-0.217998
-0.204893
-0.185706
-0.19044
-0.612374
-0.545546
-0.525322
-0.487578
-0.463182
-0.435839
-0.412371
-0.389065
-0.367121
-0.345766
-0.325154
-0.305163
-0.285832
-0.267223
-0.249326
-0.232499
-0.21597
-0.202611
-0.183445
-0.186955
-0.616363
-0.54816
-0.527687
-0.489328
-0.464599
-0.436844
-0.413023
-0.389349
-0.36705
-0.345344
-0.324397
-0.30409
-0.284469
-0.265601
-0.247477
-0.230445
-0.213752
-0.200127
-0.181041
-0.183307
-0.620109
-0.550587
-0.529878
-0.490928
-0.465872
-0.437709
-0.413532
-0.389483
-0.36682
-0.344754
-0.323463
-0.302833
-0.282917
-0.263786
-0.245433
-0.228193
-0.211343
-0.197453
-0.178488
-0.179528
-0.623596
-0.552813
-0.531885
-0.492368
-0.466991
-0.438424
-0.413886
-0.389455
-0.36642
-0.343986
-0.322342
-0.301383
-0.281168
-0.261771
-0.24319
-0.225744
-0.208744
-0.194595
-0.175784
-0.175638
-0.626808
-0.554826
-0.533694
-0.493635
-0.467944
-0.438976
-0.414073
-0.389255
-0.36584
-0.343029
-0.321026
-0.299732
-0.279216
-0.259552
-0.240746
-0.223096
-0.205957
-0.19156
-0.172927
-0.171652
-0.629728
-0.556612
-0.535293
-0.494718
-0.468719
-0.439353
-0.414083
-0.388872
-0.365068
-0.341873
-0.319506
-0.297874
-0.277054
-0.257126
-0.238097
-0.22025
-0.202982
-0.188353
-0.169914
-0.167577
-0.63234
-0.558159
-0.536667
-0.495603
-0.469304
-0.439545
-0.413903
-0.388293
-0.364093
-0.340509
-0.317772
-0.2958
-0.274678
-0.254488
-0.235243
-0.217206
-0.199821
-0.184977
-0.166744
-0.163418
-0.634628
-0.559452
-0.537805
-0.496279
-0.469685
-0.439538
-0.41352
-0.387507
-0.362906
-0.338927
-0.315817
-0.293505
-0.272083
-0.251635
-0.232181
-0.213965
-0.196475
-0.181437
-0.163417
-0.159178
-0.636573
-0.560477
-0.538691
-0.496733
-0.46985
-0.439319
-0.412924
-0.386502
-0.361494
-0.337117
-0.313633
-0.290981
-0.269262
-0.248564
-0.22891
-0.210527
-0.192945
-0.177734
-0.159933
-0.154855
-0.63816
-0.56122
-0.539312
-0.496951
-0.469787
-0.438877
-0.412101
-0.385267
-0.359848
-0.33507
-0.311212
-0.288223
-0.266214
-0.245273
-0.22543
-0.206893
-0.189233
-0.173871
-0.156291
-0.150449
-0.63937
-0.561667
-0.539654
-0.496921
-0.469481
-0.438198
-0.411038
-0.383791
-0.357957
-0.332776
-0.308545
-0.285224
-0.262932
-0.24176
-0.22174
-0.203063
-0.185339
-0.169849
-0.152492
-0.145957
-0.640187
-0.561805
-0.539703
-0.496627
-0.46892
-0.437268
-0.409724
-0.38206
-0.355811
-0.330228
-0.305628
-0.281981
-0.259415
-0.238023
-0.21784
-0.199038
-0.181266
-0.16567
-0.148537
-0.141376
-0.640593
-0.561617
-0.539444
-0.496058
-0.468089
-0.436076
-0.408146
-0.380065
-0.3534
-0.327417
-0.302453
-0.278488
-0.25566
-0.23406
-0.213729
-0.19482
-0.177014
-0.161336
-0.144427
-0.136704
-0.640571
-0.56109
-0.538862
-0.495198
-0.466975
-0.434607
-0.406292
-0.377795
-0.350714
-0.324335
-0.299013
-0.274742
-0.251664
-0.229872
-0.209409
-0.19041
-0.172586
-0.156846
-0.140163
-0.131938
-0.640104
-0.560209
-0.537944
-0.494035
-0.465564
-0.432849
-0.40415
-0.375237
-0.347744
-0.320975
-0.295305
-0.270738
-0.247425
-0.225458
-0.204879
-0.185809
-0.167984
-0.152204
-0.135748
-0.127075
-0.639175
-0.55896
-0.536673
-0.492554
-0.463843
-0.430789
-0.401707
-0.372383
-0.344481
-0.317331
-0.291323
-0.266474
-0.242942
-0.220817
-0.200142
-0.181019
-0.163209
-0.14741
-0.131184
-0.122113
-0.637766
-0.557328
-0.535037
-0.490741
-0.461798
-0.428415
-0.398952
-0.369222
-0.340918
-0.313395
-0.287062
-0.261948
-0.238214
-0.215951
-0.195198
-0.176042
-0.158263
-0.142466
-0.126472
-0.11705
-0.63586
-0.555299
-0.53302
-0.488582
-0.459415
-0.425713
-0.395874
-0.365743
-0.337046
-0.309161
-0.282518
-0.257156
-0.233241
-0.210859
-0.190049
-0.17088
-0.153149
-0.137374
-0.121614
-0.111884
-0.633441
-0.552858
-0.530607
-0.486064
-0.456682
-0.422671
-0.392462
-0.361939
-0.332858
-0.304626
-0.27769
-0.252099
-0.228022
-0.205544
-0.184697
-0.165534
-0.147869
-0.132135
-0.116614
-0.106615
-0.630493
-0.549991
-0.527786
-0.483174
-0.453585
-0.419277
-0.388706
-0.3578
-0.328347
-0.299784
-0.272573
-0.246774
-0.222559
-0.200005
-0.179143
-0.160008
-0.142426
-0.126753
-0.111474
-0.101242
-0.626998
-0.546686
-0.52454
-0.479897
-0.450112
-0.415521
-0.384594
-0.353318
-0.323508
-0.294631
-0.267166
-0.241182
-0.216851
-0.194246
-0.173391
-0.154304
-0.136822
-0.121228
-0.106197
-0.0957633
-0.622942
-0.542926
-0.520858
-0.476221
-0.446249
-0.41139
-0.380119
-0.348486
-0.318335
-0.289164
-0.261467
-0.235322
-0.2109
-0.188268
-0.167442
-0.148425
-0.13106
-0.115563
-0.100786
-0.0901807
-0.618307
-0.538701
-0.516725
-0.472133
-0.441987
-0.406875
-0.375271
-0.343297
-0.312823
-0.28338
-0.255476
-0.229195
-0.204708
-0.182074
-0.1613
-0.142373
-0.125143
-0.109761
-0.0952446
-0.0844942
-0.613079
-0.533997
-0.512129
-0.467621
-0.437311
-0.401965
-0.370042
-0.337745
-0.306968
-0.277277
-0.249191
-0.222802
-0.198276
-0.175665
-0.154968
-0.136152
-0.119074
-0.103825
-0.0895751
-0.078705
-0.607242
-0.528799
-0.507055
-0.462673
-0.432213
-0.39665
-0.364423
-0.331824
-0.300768
-0.270854
-0.242614
-0.216145
-0.191608
-0.169046
-0.148448
-0.129765
-0.112857
-0.097757
-0.0837814
-0.0728143
-0.600781
-0.523099
-0.501494
-0.457278
-0.426681
-0.390923
-0.35841
-0.325529
-0.294218
-0.26411
-0.235746
-0.209225
-0.184706
-0.16222
-0.141745
-0.123216
-0.106494
-0.0915607
-0.0778669
-0.066824
-0.593698
-0.516896
-0.495442
-0.451431
-0.42071
-0.384777
-0.351996
-0.318859
-0.287319
-0.257045
-0.228587
-0.202046
-0.177573
-0.155189
-0.134862
-0.116508
-0.0999904
-0.0852391
-0.0718353
-0.0607361
-0.585984
-0.510184
-0.488892
-0.445123
-0.414293
-0.378206
-0.345177
-0.311809
-0.280068
-0.24966
-0.221139
-0.194609
-0.170213
-0.147959
-0.127802
-0.109644
-0.0933483
-0.0787957
-0.0656901
-0.054553
-0.577488
-0.502856
-0.481763
-0.438299
-0.407387
-0.371182
-0.337936
-0.304368
-0.272461
-0.241953
-0.213405
-0.186919
-0.162629
-0.140532
-0.120571
-0.10263
-0.0865717
-0.0722334
-0.0594345
-0.0482767
-0.5679
-0.494692
-0.473901
-0.430845
-0.399917
-0.363653
-0.330238
-0.296518
-0.264488
-0.233922
-0.205384
-0.178977
-0.154826
-0.132914
-0.113171
-0.0954674
-0.0796642
-0.0655553
-0.0530718
-0.0419093
-0.55807
-0.48627
-0.46571
-0.423046
-0.392075
-0.355749
-0.322168
-0.288312
-0.256181
-0.225585
-0.197089
-0.170792
-0.146809
-0.125108
-0.105608
-0.0881624
-0.0726307
-0.0587666
-0.0466076
-0.0354562
-0.547701
-0.477371
-0.457032
-0.414787
-0.383781
-0.347413
-0.31369
-0.279728
-0.24753
-0.21694
-0.188519
-0.162367
-0.138582
-0.11712
-0.0978865
-0.0807188
-0.0654751
-0.0518709
-0.0400455
-0.0289199
-0.536648
-0.467891
-0.447793
-0.406013
-0.374997
-0.338623
-0.30479
-0.270759
-0.238532
-0.207986
-0.179679
-0.153705
-0.13015
-0.108955
-0.0900109
-0.0731414
-0.0582019
-0.044872
-0.0333894
-0.0223038
-0.524906
-0.45783
-0.437992
-0.396722
-0.365722
-0.329376
-0.295467
-0.261407
-0.22919
-0.198728
-0.170573
-0.144813
-0.121519
-0.100618
-0.0819865
-0.0654348
-0.0508155
-0.0377743
-0.0266436
-0.0156118
-0.512485
-0.447193
-0.42763
-0.386916
-0.355956
-0.319674
-0.285725
-0.251675
-0.21951
-0.189172
-0.161208
-0.135696
-0.112694
-0.092114
-0.0738183
-0.0576038
-0.0433203
-0.0305818
-0.0198122
-0.00884768
-0.499383
-0.435978
-0.416705
-0.376592
-0.345698
-0.309518
-0.275566
-0.241567
-0.209495
-0.179323
-0.151588
-0.12636
-0.103681
-0.0834491
-0.0655117
-0.0496534
-0.0357211
-0.0232989
-0.0129001
-0.00201399
-0.485596
-0.424182
-0.405214
-0.365748
-0.334947
-0.298908
-0.264992
-0.231087
-0.199151
-0.169188
-0.14172
-0.116812
-0.0944872
-0.0746289
-0.057072
-0.0415885
-0.0280224
-0.0159304
-0.00591463
0.00488834
-0.471123
-0.411803
-0.393155
-0.354382
-0.323704
-0.287846
-0.254006
-0.22024
-0.188484
-0.158772
-0.131611
-0.107057
-0.0851179
-0.0656596
-0.0485049
-0.0334145
-0.0202292
-0.00848058
0.00114001
0.0118492
-0.455963
-0.39884
-0.380527
-0.342495
-0.31197
-0.276335
-0.242613
-0.209032
-0.177501
-0.148083
-0.121269
-0.0971048
-0.0755801
-0.0565473
-0.0398161
-0.0251365
-0.0123464
-0.000954772
0.00827824
0.0188515
-0.44012
-0.385294
-0.367333
-0.330087
-0.299747
-0.26438
-0.23082
-0.19747
-0.166209
-0.137128
-0.110701
-0.0869607
-0.0658806
-0.0472984
-0.0310115
-0.01676
-0.004379
0.00664163
0.0154789
0.025907
-0.423597
-0.371167
-0.353572
-0.317162
-0.287039
-0.251985
-0.218631
-0.18556
-0.154617
-0.125916
-0.0999146
-0.0766329
-0.0560267
-0.0379196
-0.0220971
-0.00829083
0.00366801
0.0143052
0.022737
0.03301
-0.406398
-0.356461
-0.33925
-0.303722
-0.273852
-0.239156
-0.206054
-0.173311
-0.142732
-0.114456
-0.0889186
-0.0661292
-0.0460256
-0.0284174
-0.0130793
0.000265664
0.0117891
0.0220311
0.0300496
0.0401544
-0.388531
-0.341182
-0.324369
-0.289772
-0.26019
-0.2259
-0.193099
-0.160733
-0.130563
-0.102756
-0.0777215
-0.0554578
-0.0358848
-0.018799
-0.00396424
0.00890359
0.0199788
0.0298143
0.0374123
0.0473353
-0.370002
-0.325334
-0.308936
-0.275318
-0.246061
-0.212226
-0.179773
-0.147833
-0.118122
-0.0908256
-0.0663325
-0.0446272
-0.0256122
-0.00907133
0.00524163
0.017617
0.0282318
0.0376494
0.0448206
0.0545479
-0.350822
-0.308923
-0.292957
-0.260368
-0.231473
-0.198143
-0.166086
-0.134624
-0.105417
-0.0786752
-0.0547609
-0.033646
-0.0152157
0.000758392
0.0145316
0.0263999
0.0365425
0.0455315
0.0522696
0.0617873
-0.331001
-0.291959
-0.276441
-0.244929
-0.216435
-0.18366
-0.152049
-0.121115
-0.0924598
-0.0663151
-0.0430164
-0.0225232
-0.00470334
0.0106827
0.0238991
0.0352461
0.0449053
0.0534552
0.0597547
0.0690483
-0.310553
-0.27445
-0.259397
-0.229011
-0.200959
-0.168789
-0.137675
-0.107318
-0.0792616
-0.0537559
-0.031109
-0.0112679
0.00591646
0.0206941
0.0333371
0.0441494
0.0533145
0.0614152
0.0672713
0.0763259
-0.28949
-0.256407
-0.241836
-0.212625
-0.185054
-0.153542
-0.122974
-0.0932463
-0.0658341
-0.0410086
-0.0190489
0.000110639
0.0166352
0.0307849
0.0428387
0.0531034
0.0617642
0.0694061
0.0748143
0.0836151
-0.267828
-0.237842
-0.22377
-0.195782
-0.168734
-0.137931
-0.10796
-0.0789114
-0.0521896
-0.0280848
-0.0068466
0.0116027
0.0274443
0.0409472
0.0523968
0.0621016
0.0702485
0.0774224
0.082379
0.0909106
-0.245585
-0.218768
-0.205212
-0.178495
-0.152012
-0.12197
-0.0926475
-0.0643271
-0.0383407
-0.0149963
0.00548707
0.0231986
0.0383349
0.051173
0.0620041
0.0711375
0.0787614
0.0854585
0.0899606
0.0982071
-0.222778
-0.199199
-0.186177
-0.160779
-0.134903
-0.105674
-0.0770499
-0.0495076
-0.0243006
-0.00175499
0.0179411
0.0348885
0.049298
0.0614543
0.0716533
0.0802043
0.0872968
0.0935088
0.097554
0.105499
-0.199426
-0.179151
-0.16668
-0.142649
-0.117422
-0.0890586
-0.0611828
-0.0344671
-0.0100827
0.0116266
0.0305044
0.046662
0.0603245
0.0717828
0.0813369
0.0892953
0.0958485
0.101567
0.105154
0.112781
-0.175552
-0.158641
-0.146739
-0.124121
-0.0995862
-0.0721397
-0.0450622
-0.0192206
0.00429904
0.0251359
0.0431654
0.0585091
0.0714051
0.0821503
0.0910474
0.0984036
0.10441
0.109629
0.112756
0.120048
-0.151176
-0.137688
-0.126372
-0.105212
-0.0814128
-0.0549349
-0.0287043
-0.00378336
0.0188305
0.03876
0.0559125
0.0704192
0.0825306
0.0925481
0.100777
0.107522
0.112976
0.117687
0.120356
0.127293
-0.126323
-0.11631
-0.105598
-0.0859422
-0.0629206
-0.0374615
-0.0121262
0.0118286
0.0334972
0.0524858
0.068734
0.0823818
0.0936914
0.102968
0.110518
0.116644
0.121539
0.125735
0.127947
0.13451
-0.101018
-0.0945286
-0.0844377
-0.0663302
-0.0441288
-0.0197382
0.00465462
0.0275991
0.0482842
0.0662999
0.0816179
0.0943863
0.104878
0.113401
0.120263
0.125762
0.130092
0.133768
0.135525
0.141693
-0.0752854
-0.0723656
-0.062913
-0.0463966
-0.0250575
-0.00178421
0.0216201
0.0435116
0.0631765
0.0801888
0.0945521
0.106422
0.116081
0.123839
0.130004
0.134869
0.13863
0.141778
0.143085
0.148834
-0.0491508
-0.0498459
-0.0410468
-0.026163
-0.00572779
0.0163806
0.0387516
0.059549
0.0781588
0.0941388
0.107524
0.118477
0.12729
0.134272
0.139733
0.143957
0.147145
0.14976
0.150622
0.155924
-0.0226425
-0.0269933
-0.0188629
-0.00565187
0.0138386
0.0347359
0.0560302
0.0756941
0.0932155
0.108136
0.120523
0.130542
0.138495
0.144693
0.149441
0.15302
0.155631
0.157708
0.158133
0.162956
0.00420233
-0.00382592
0.00361388
0.0151134
0.0336192
0.0532606
0.0734365
0.0919293
0.108331
0.122166
0.133534
0.142605
0.149688
0.155091
0.159121
0.16205
0.164082
0.165613
0.165611
0.169918
0.0313611
0.0196241
0.0263578
0.0361087
0.0535908
0.0719332
0.0909507
0.108237
0.123489
0.136216
0.146546
0.154656
0.160857
0.165459
0.168765
0.17104
0.172489
0.17347
0.173055
0.176798
0.0588035
0.0433292
0.049342
0.0573088
0.0737296
0.0907318
0.108553
0.124598
0.138674
0.15027
0.159547
0.166682
0.171993
0.175788
0.178364
0.179981
0.180847
0.181271
0.18046
0.18358
0.0864975
0.0672619
0.072539
0.0786881
0.0940111
0.109634
0.126222
0.140996
0.153869
0.164315
0.172524
0.178673
0.183086
0.186068
0.187911
0.188868
0.189148
0.189011
0.187824
0.190245
0.114412
0.0913939
0.0959206
0.10022
0.114411
0.128616
0.143938
0.157411
0.169058
0.178336
0.185463
0.190618
0.194127
0.19629
0.197398
0.197693
0.197385
0.196681
0.195145
0.196767
0.142517
0.115696
0.119458
0.121879
0.134903
0.147657
0.16168
0.173825
0.184225
0.19232
0.198353
0.202505
0.205105
0.206447
0.206817
0.206448
0.205552
0.204275
0.20242
0.20311
0.170776
0.140136
0.143121
0.143635
0.155461
0.166731
0.179426
0.190219
0.199353
0.20625
0.211181
0.214324
0.21601
0.216529
0.216159
0.215127
0.213642
0.211789
0.209658
0.209245
0.199129
0.164662
0.166866
0.165454
0.176056
0.185814
0.197155
0.206574
0.214426
0.220113
0.223934
0.226064
0.226833
0.226528
0.225418
0.223722
0.221647
0.21922
0.216888
0.215145
0.227539
0.189238
0.190659
0.187306
0.19666
0.20488
0.214845
0.222872
0.229427
0.233896
0.2366
0.237712
0.237565
0.236435
0.234585
0.232227
0.229559
0.226568
0.224105
0.220668
0.256226
0.213989
0.214564
0.209217
0.217276
0.223922
0.232481
0.239095
0.244341
0.247582
0.249165
0.249259
0.248194
0.246241
0.243654
0.240636
0.237373
0.233826
0.23111
0.225218
0.285682
0.239208
0.23874
0.231269
0.23794
0.242948
0.250058
0.255232
0.259151
0.261157
0.261616
0.260692
0.258712
0.255938
0.252617
0.248942
0.245087
0.240992
0.237734
0.227918
0.314301
0.263929
0.262594
0.253105
0.25844
0.261836
0.267508
0.271244
0.273838
0.274608
0.273944
0.272003
0.26911
0.265518
0.261466
0.25714
0.252701
0.248079
0.24456
0.233658
0.342586
0.288461
0.286301
0.274819
0.278819
0.2806
0.284826
0.287121
0.288387
0.287921
0.286135
0.28318
0.279377
0.274972
0.270195
0.265222
0.260209
0.255074
0.251294
0.240266
0.370753
0.312918
0.309917
0.296432
0.299078
0.299231
0.302
0.302847
0.302782
0.301081
0.298177
0.294212
0.289505
0.284293
0.278795
0.273181
0.267602
0.261964
0.257813
0.246743
0.398756
0.337258
0.333402
0.31791
0.319189
0.317703
0.319007
0.318403
0.317007
0.314074
0.310057
0.305088
0.299484
0.293471
0.287259
0.281011
0.274871
0.268741
0.264161
0.252994
0.426536
0.361427
0.356713
0.339218
0.33912
0.33599
0.335826
0.333771
0.331047
0.326887
0.321763
0.315799
0.309305
0.302498
0.29558
0.288705
0.282009
0.275393
0.27036
0.259096
0.454051
0.385389
0.379815
0.360325
0.358843
0.354068
0.352435
0.348931
0.344885
0.339506
0.333284
0.326333
0.318958
0.311367
0.303751
0.296255
0.289009
0.281914
0.276412
0.265064
0.481266
0.40911
0.402676
0.3812
0.378332
0.371913
0.368812
0.363867
0.358506
0.351918
0.344607
0.33668
0.328435
0.320069
0.311764
0.303656
0.295864
0.288295
0.282314
0.270886
0.508145
0.432554
0.425261
0.401814
0.397559
0.389502
0.384939
0.37856
0.371894
0.364108
0.355722
0.34683
0.337727
0.328596
0.319612
0.3109
0.30257
0.294532
0.288066
0.276555
0.534651
0.455688
0.447538
0.422136
0.416498
0.406811
0.400794
0.392993
0.385035
0.376065
0.366616
0.356774
0.346825
0.336941
0.327288
0.317981
0.309121
0.300619
0.293669
0.28207
0.560746
0.478475
0.469474
0.442138
0.435122
0.423818
0.416357
0.407148
0.397914
0.387775
0.37728
0.366502
0.35572
0.345097
0.334787
0.324894
0.315512
0.306552
0.299119
0.287429
0.586392
0.500883
0.491035
0.461789
0.453404
0.440498
0.431609
0.421009
0.410515
0.399225
0.387701
0.376003
0.364405
0.353056
0.3421
0.331634
0.321737
0.312326
0.304418
0.292631
0.611551
0.522876
0.512191
0.481062
0.47132
0.45683
0.44653
0.434558
0.422825
0.410404
0.397869
0.38527
0.37287
0.36081
0.349222
0.338193
0.327792
0.317939
0.309562
0.297675
0.636188
0.544421
0.532908
0.499927
0.488844
0.472792
0.461101
0.44778
0.434829
0.421299
0.407774
0.394292
0.381109
0.368353
0.356148
0.344568
0.333674
0.323386
0.314551
0.302559
0.660266
0.565486
0.553157
0.518356
0.50595
0.488362
0.475304
0.460659
0.446514
0.431898
0.417405
0.403061
0.389113
0.375678
0.36287
0.350752
0.339376
0.328664
0.319381
0.307282
0.683748
0.586038
0.572905
0.536323
0.522616
0.50352
0.48912
0.473178
0.457866
0.44219
0.426753
0.411568
0.396875
0.382779
0.369383
0.356742
0.344896
0.333769
0.324051
0.311843
0.7066
0.606044
0.592123
0.553801
0.538816
0.518244
0.502531
0.485323
0.468873
0.452164
0.435807
0.419804
0.404387
0.389649
0.375682
0.362532
0.35023
0.338699
0.328558
0.316238
0.728786
0.625475
0.610782
0.570763
0.554528
0.532515
0.515521
0.49708
0.479522
0.461808
0.444559
0.427763
0.411643
0.396281
0.381761
0.368118
0.355372
0.343449
0.3329
0.320468
0.750273
0.644299
0.628853
0.587184
0.569729
0.546313
0.528073
0.508433
0.4898
0.471113
0.452999
0.435434
0.418635
0.402671
0.387615
0.373495
0.360321
0.348018
0.337075
0.32453
0.771027
0.662486
0.646307
0.603039
0.584398
0.55962
0.540171
0.51937
0.499696
0.480067
0.461118
0.442812
0.425356
0.408811
0.393239
0.378659
0.365071
0.352402
0.34108
0.328423
0.791018
0.680008
0.663119
0.618304
0.598513
0.572418
0.551799
0.529876
0.509198
0.488662
0.468909
0.449889
0.431802
0.414697
0.398629
0.383605
0.36962
0.356598
0.344913
0.332144
0.810214
0.696838
0.679262
0.632957
0.612054
0.584688
0.562941
0.539939
0.518295
0.496888
0.476362
0.456657
0.437964
0.420323
0.403778
0.38833
0.373964
0.360603
0.348572
0.335692
0.828584
0.712948
0.69471
0.646975
0.625002
0.596415
0.573585
0.549547
0.526977
0.504735
0.48347
0.463109
0.443838
0.425684
0.408684
0.39283
0.3781
0.364416
0.352053
0.339066
0.846102
0.728313
0.70944
0.660337
0.637338
0.607582
0.583716
0.558687
0.535235
0.512196
0.490225
0.469241
0.449418
0.430775
0.413342
0.397102
0.382025
0.368032
0.355356
0.342263
0.862739
0.742908
0.723429
0.673022
0.649044
0.618173
0.59332
0.56735
0.543057
0.519261
0.496622
0.475044
0.454698
0.435592
0.417748
0.401141
0.385735
0.371449
0.358477
0.345282
0.878469
0.756709
0.736654
0.685011
0.660103
0.628175
0.602386
0.575524
0.550435
0.525924
0.502651
0.480514
0.459673
0.44013
0.421897
0.404944
0.389228
0.374666
0.361414
0.348121
0.893267
0.769695
0.749095
0.696286
0.670499
0.637574
0.610902
0.583199
0.557361
0.532176
0.508308
0.485644
0.464339
0.444385
0.425787
0.408508
0.392501
0.377679
0.364166
0.350779
0.907111
0.781844
0.760732
0.70683
0.680218
0.646357
0.618857
0.590366
0.563827
0.538011
0.513587
0.49043
0.46869
0.448352
0.429414
0.411831
0.395551
0.380487
0.36673
0.353254
0.919977
0.793137
0.771546
0.716627
0.689244
0.654511
0.62624
0.597015
0.569824
0.543423
0.518481
0.494867
0.472724
0.452029
0.432774
0.414909
0.398377
0.383087
0.369104
0.355545
0.931847
0.803554
0.781522
0.725661
0.697564
0.662026
0.633042
0.60314
0.575347
0.548404
0.522986
0.498951
0.476436
0.455411
0.435865
0.41774
0.400975
0.385477
0.371288
0.35765
0.9427
0.81308
0.790642
0.733918
0.705168
0.66889
0.639254
0.608732
0.580388
0.552951
0.527097
0.502676
0.479821
0.458497
0.438684
0.420322
0.403344
0.387656
0.373278
0.359568
0.95252
0.821699
0.798892
0.741386
0.712043
0.675096
0.644867
0.613785
0.584942
0.557058
0.530809
0.50604