/*--------------------------------*- C++ -*----------------------------------*\
  =========                 |
  \\      /  F ield         | OpenFOAM: The Open Source CFD Toolbox
   \\    /   O peration     | Website:  https://openfoam.org
    \\  /    A nd           | Version:  7
     \\/     M anipulation  |
\*---------------------------------------------------------------------------*/
FoamFile
{
    version     2.0;
    format      ascii;
    class       volVectorField;
    location    "35";
    object      U;
}
// * * * * * * * * * * * * * * * * * * * * * * * * * * * * * * * * * * * * * //

dimensions      [0 1 -1 0 0 0 0];

internalField   nonuniform List<vector> 
42000
(
(-0.000834951 0.000172376 1.04342e-21)
(-0.00273946 0.000174428 -3.41748e-21)
(-0.00403406 2.73616e-05 1.77837e-21)
(-0.0032731 -0.000207665 -1.01479e-22)
(-0.000449659 -0.000476621 -3.27557e-21)
(0.00452344 -0.00075891 3.90552e-21)
(0.0114657 -0.00103866 3.42142e-21)
(0.0202014 -0.0013097 2.29688e-21)
(0.0305322 -0.00156825 -1.78974e-21)
(0.0422748 -0.00181333 2.29748e-21)
(0.0552645 -0.0020448 9.72113e-22)
(0.069356 -0.00226297 8.2289e-23)
(0.0844198 -0.00246778 -1.43255e-21)
(0.100339 -0.00265828 1.56423e-21)
(0.11699 -0.00283161 3.42003e-21)
(0.134255 -0.00298267 1.28167e-21)
(0.151931 -0.00310092 -2.59493e-21)
(0.169906 -0.00317631 -8.41311e-22)
(0.187609 -0.00317337 2.39138e-21)
(0.205213 -0.00312389 7.52432e-22)
(-0.000844346 0.00051524 2.95704e-21)
(-0.00272273 0.000519692 -1.46749e-21)
(-0.00395896 7.8002e-05 3.61415e-21)
(-0.0031245 -0.00062698 -1.6766e-21)
(-0.000215839 -0.00143331 1.23174e-20)
(0.00484872 -0.0022794 -1.50405e-22)
(0.0118872 -0.00311771 6.20499e-21)
(0.0207223 -0.00392974 -4.6709e-21)
(0.0311549 -0.00470422 6.07674e-21)
(0.0430011 -0.00543822 5.79827e-21)
(0.0560959 -0.00613131 -2.02991e-21)
(0.0702935 -0.00678443 4.72449e-21)
(0.0854644 -0.00739743 -9.61137e-21)
(0.101491 -0.00796748 -1.0497e-20)
(0.11825 -0.00848602 2.09426e-21)
(0.135623 -0.00893776 -4.29532e-21)
(0.153406 -0.00929122 3.40909e-21)
(0.171492 -0.00951604 -5.02023e-21)
(0.189285 -0.0095064 2.12396e-21)
(0.207034 -0.00935525 3.49174e-21)
(-0.000862868 0.000852503 -1.97149e-20)
(-0.00268873 0.000854171 -7.12147e-21)
(-0.00380816 0.000116248 -1.28607e-20)
(-0.00282671 -0.00105845 2.56932e-21)
(0.000252325 -0.0024006 -1.62646e-20)
(0.00549969 -0.00380818 -9.35171e-21)
(0.0127306 -0.00520217 -1.63652e-20)
(0.0217642 -0.00655197 -8.30721e-21)
(0.0324001 -0.00783885 1.87792e-21)
(0.0444533 -0.009058 -9.6605e-21)
(0.0577578 -0.0102087 -1.0735e-20)
(0.0721674 -0.0112926 2.2631e-21)
(0.087552 -0.0123095 1.05598e-20)
(0.103794 -0.0132547 1.19449e-20)
(0.120768 -0.014114 3.43992e-21)
(0.138357 -0.0148622 9.06266e-21)
(0.156352 -0.0154469 -1.2734e-20)
(0.174658 -0.015817 -8.77336e-21)
(0.192633 -0.0157982 1.13062e-20)
(0.210671 -0.0155372 2.26062e-21)
(-0.000889984 0.00118051 1.28101e-20)
(-0.00263642 0.00117074 1.10141e-20)
(-0.00358045 0.000133875 1.41349e-20)
(-0.00237852 -0.00151015 2.2079e-20)
(0.000955879 -0.00338552 2.04013e-20)
(0.00647714 -0.00535074 1.23658e-21)
(0.0139963 -0.00729564 2.99101e-22)
(0.0233272 -0.00917782 1.94087e-20)
(0.0342675 -0.0109712 -8.25232e-21)
(0.0466303 -0.0126693 1.09684e-20)
(0.0602487 -0.014271 6.75989e-21)
(0.0749755 -0.0157787 -2.05799e-20)
(0.0906795 -0.0171923 -4.78428e-21)
(0.107242 -0.0185052 -2.25717e-20)
(0.124538 -0.0196981 -1.64366e-20)
(0.14245 -0.0207354 8.12394e-21)
(0.160763 -0.0215448 5.48956e-21)
(0.179397 -0.0220536 5.85859e-21)
(0.197641 -0.0220214 -1.67579e-20)
(0.21611 -0.0216371 -8.97125e-21)
(-0.000924906 0.00149567 -3.94717e-21)
(-0.00256425 0.00146239 1.12759e-20)
(-0.00327403 0.000122818 2.14266e-20)
(-0.00177815 -0.00198999 -2.22631e-20)
(0.00189639 -0.00439493 -3.90373e-20)
(0.00778229 -0.00691241 -7.23467e-21)
(0.015685 -0.00940156 -2.89242e-21)
(0.0254113 -0.0118086 1.55285e-20)
(0.0367564 -0.0141003 -5.1018e-21)
(0.0495309 -0.0162684 -3.06028e-20)
(0.0635663 -0.0183119 -2.8181e-20)
(0.0787143 -0.0202338 1.71415e-20)
(0.0948424 -0.022034 1.08095e-20)
(0.111832 -0.0237045 3.21059e-20)
(0.129553 -0.0252206 2.24054e-20)
(0.147893 -0.0265371 -1.57606e-20)
(0.166626 -0.027562 -8.3819e-21)
(0.185694 -0.0282 2.21817e-20)
(0.204295 -0.028149 6.96937e-21)
(0.223333 -0.0276225 -2.63878e-21)
(-0.00096659 0.00179445 -3.05256e-21)
(-0.00247014 0.00172228 -3.74761e-20)
(-0.00288649 7.52136e-05 -4.84668e-20)
(-0.00102321 -0.00250563 -6.36384e-21)
(0.00307594 -0.00543546 2.47386e-20)
(0.00941674 -0.00849829 8.71788e-21)
(0.0177977 -0.0115231 9.96831e-21)
(0.0280168 -0.0144454 -1.46785e-20)
(0.0398662 -0.0172249 2.58279e-20)
(0.0531531 -0.0198519 -9.88148e-21)
(0.0677076 -0.0223252 4.1643e-20)
(0.0833794 -0.0246488 -5.21659e-21)
(0.100035 -0.0268228 -1.08231e-20)
(0.117553 -0.0288378 -2.06757e-21)
(0.135804 -0.0306641 -1.24257e-20)
(0.154674 -0.0322471 -5.1061e-21)
(0.173927 -0.0334757 1.4584e-20)
(0.193533 -0.034231 -1.42573e-20)
(0.212574 -0.034154 1.5939e-20)
(0.232315 -0.0334614 1.51225e-20)
(-0.00101375 0.00207345 1.94643e-20)
(-0.00235155 0.00194377 1.68131e-20)
(-0.00241488 -1.65522e-05 2.44597e-20)
(-0.000110761 -0.00306447 3.0883e-20)
(0.00449711 -0.00651348 4.10141e-20)
(0.0113824 -0.0101132 1.29953e-20)
(0.0203355 -0.0136633 -9.14668e-21)
(0.0311438 -0.017089 5.60423e-21)
(0.0435957 -0.0203434 -1.34683e-20)
(0.0574947 -0.0234156 1.8919e-20)
(0.0726685 -0.0263045 -2.35813e-20)
(0.088965 -0.0290147 9.39502e-21)
(0.106248 -0.031547 1.07278e-20)
(0.124397 -0.0338904 6.88377e-21)
(0.143277 -0.0360111 -1.63931e-20)
(0.162777 -0.037845 1.6818e-20)
(0.182647 -0.0392633 -1.48233e-20)
(0.202891 -0.0401214 1.04778e-20)
(0.222453 -0.04001 -7.35792e-21)
(0.243024 -0.0391225 -1.88643e-20)
(-0.00106484 0.00232935 -2.70208e-20)
(-0.00220543 0.00212046 1.32384e-20)
(-0.00185566 -0.000159788 -1.79642e-21)
(0.000962695 -0.0036736 -1.89717e-20)
(0.00616294 -0.00763501 -5.14363e-20)
(0.0136818 -0.0117617 3.84387e-20)
(0.0232998 -0.0158247 1.30332e-20)
(0.0347926 -0.01974 -2.21981e-21)
(0.0479439 -0.0234543 -3.60463e-21)
(0.0625528 -0.0269557 -1.68764e-20)
(0.0784445 -0.030243 3.78861e-20)
(0.0954643 -0.0333223 5.49584e-21)
(0.113474 -0.0361944 2.1416e-21)
(0.132351 -0.0388478 -4.85066e-21)
(0.151958 -0.0412442 2.15357e-20)
(0.172184 -0.0433109 -1.42858e-23)
(0.192765 -0.0449024 2.77349e-21)
(0.213743 -0.0458463 -3.98153e-21)
(0.2339 -0.0456911 -2.28912e-20)
(0.255424 -0.0445751 1.37169e-20)
(-0.00111812 0.00255899 2.6358e-20)
(-0.00202829 0.00224623 5.29418e-20)
(-0.00120476 -0.000361448 -6.25738e-20)
(0.0022012 -0.00433969 -4.95209e-20)
(0.00807698 -0.00880566 6.08823e-20)
(0.0163174 -0.0134478 -4.53178e-20)
(0.0266922 -0.0180096 9.381e-21)
(0.0389633 -0.0223986 -7.98775e-21)
(0.0529092 -0.0265555 -4.26819e-20)
(0.068324 -0.0304676 4.34556e-20)
(0.08503 -0.0341341 -5.39092e-20)
(0.10287 -0.0375621 2.81218e-20)
(0.121702 -0.0407532 -2.08887e-21)
(0.141402 -0.0436951 3.86203e-20)
(0.161829 -0.0463461 -3.95404e-21)
(0.182874 -0.0486249 -2.20405e-20)
(0.204254 -0.0503707 -4.38728e-21)
(0.226056 -0.0513814 -9.79971e-21)
(0.246881 -0.0511719 -2.02457e-21)
(0.269469 -0.0497894 -9.96052e-21)
(-0.00117158 0.00275939 2.69751e-20)
(-0.00181617 0.00231531 -8.13838e-20)
(-0.000457586 -0.000628075 9.18983e-21)
(0.00360932 -0.00506899 9.41435e-20)
(0.0102432 -0.0100306 -2.26648e-20)
(0.0192924 -0.0151752 -4.76588e-21)
(0.0305145 -0.0202198 1.09205e-20)
(0.0436561 -0.0250646 -8.51258e-21)
(0.0584901 -0.0296447 4.01776e-20)
(0.0748047 -0.0339468 4.93613e-20)
(0.0924187 -0.0379706 8.93336e-20)
(0.111171 -0.0417246 6.07289e-21)
(0.130919 -0.0452113 -5.38608e-20)
(0.151534 -0.0484177 -1.60965e-20)
(0.17287 -0.0512995 -1.82425e-21)
(0.194821 -0.0537671 6.30664e-21)
(0.217085 -0.0556463 2.38311e-20)
(0.239796 -0.0567026 -1.4905e-20)
(0.261353 -0.0564274 3.51804e-20)
(0.285111 -0.0547365 2.55933e-20)
(-0.00122305 0.00292772 -7.54506e-20)
(-0.0015647 0.00232227 4.50392e-20)
(0.000390947 -0.00096576 2.1129e-20)
(0.00519208 -0.00586723 -4.09907e-20)
(0.0126659 -0.0113145 -6.88629e-22)
(0.02261 -0.016947 -3.78028e-21)
(0.0347685 -0.0224567 -5.55854e-20)
(0.0488712 -0.0277374 -7.17152e-21)
(0.0646846 -0.0327189 -6.82788e-20)
(0.0819904 -0.0373881 -2.85059e-20)
(0.100604 -0.0417451 -2.43274e-20)
(0.12036 -0.0458 -4.54966e-20)
(0.141111 -0.0495563 -1.60618e-20)
(0.162728 -0.0530009 -2.07632e-20)
(0.185059 -0.0560873 -3.58432e-21)
(0.207999 -0.0587182 2.82723e-20)
(0.231225 -0.0607078 8.90405e-21)
(0.254923 -0.0617864 1.94495e-20)
(0.277273 -0.0614337 -2.91062e-20)
(0.302293 -0.059389 -1.52736e-20)
(-0.00127013 0.00306137 6.15668e-20)
(-0.0012691 0.00226208 -4.81581e-20)
(0.0013464 -0.00138009 -2.61445e-20)
(0.00695501 -0.0067396 -1.38012e-21)
(0.0153501 -0.0126614 -7.86165e-20)
(0.0262739 -0.0187659 -4.41034e-20)
(0.0394563 -0.0247211 4.66606e-20)
(0.0546087 -0.0304157 -1.63329e-20)
(0.0714905 -0.0357751 7.33295e-20)
(0.0898763 -0.0407862 -4.01718e-20)
(0.109577 -0.0454501 -7.47053e-20)
(0.130423 -0.0497783 2.29406e-20)
(0.152264 -0.0537759 1.55451e-20)
(0.174965 -0.0574301 -3.09635e-20)
(0.198371 -0.0606924 -2.26842e-20)
(0.222377 -0.0634589 -2.74659e-20)
(0.246636 -0.065534 -5.43961e-20)
(0.271393 -0.0666098 1.37551e-20)
(0.294588 -0.0661674 -4.61396e-20)
(0.320953 -0.0637205 3.68339e-20)
(-0.00131025 0.00315793 3.92473e-20)
(-0.000924246 0.00213013 8.67369e-20)
(0.00241477 -0.00187613 8.91815e-21)
(0.00890404 -0.00769069 -1.56695e-21)
(0.0183007 -0.0140748 1.01331e-19)
(0.030288 -0.0206339 7.06695e-20)
(0.0445801 -0.0270133 4.47041e-20)
(0.0608686 -0.033098 9.32876e-20)
(0.0789052 -0.0388095 -1.80347e-20)
(0.0984569 -0.0441352 6.49199e-20)
(0.119329 -0.0490774 9.1161e-20)
(0.141348 -0.0536494 -6.67462e-20)
(0.164359 -0.0578578 -1.58561e-20)
(0.188222 -0.0616904 -1.96862e-21)
(0.212777 -0.0650981 4.97638e-20)
(0.23792 -0.0679701 2.84718e-20)
(0.263278 -0.0701043 9.96658e-20)
(0.289158 -0.0711507 -5.24053e-20)
(0.313243 -0.0706062 3.4678e-20)
(0.341024 -0.0677065 -5.88708e-20)
(-0.00134065 0.00321514 -8.30713e-20)
(-0.000524642 0.00192237 -7.24424e-20)
(0.00360246 -0.00245834 -6.08383e-22)
(0.0110455 -0.00872445 3.21678e-20)
(0.0215233 -0.0155575 -1.04568e-19)
(0.0346563 -0.0225521 -3.67737e-20)
(0.050142 -0.0293327 2.05703e-21)
(0.0676508 -0.035782 -4.34198e-20)
(0.086926 -0.0418178 6.84881e-20)
(0.107726 -0.047429 -4.88032e-20)
(0.129851 -0.0526188 -7.91593e-20)
(0.153122 -0.0574028 4.40178e-20)
(0.177378 -0.0617894 -5.1567e-21)
(0.202476 -0.0657674 4.75499e-20)
(0.228248 -0.0692876 -6.4416e-20)
(0.254593 -0.0722335 3.24227e-20)
(0.281108 -0.0743984 -6.08671e-20)
(0.308166 -0.0753875 1.62709e-20)
(0.333178 -0.0747285 -2.68959e-20)
(0.36243 -0.0713239 1.87464e-20)
(-0.00135837 0.00323088 4.34069e-21)
(-6.45157e-05 0.00163532 -2.65591e-20)
(0.00491624 -0.00313055 6.25601e-20)
(0.0133861 -0.00984412 -3.05962e-20)
(0.0250237 -0.0171116 8.50876e-20)
(0.0393832 -0.0245214 2.78271e-20)
(0.0561443 -0.0316784 -7.30639e-20)
(0.074955 -0.0384647 1.17002e-21)
(0.0955497 -0.0447953 -1.68861e-20)
(0.117677 -0.0506606 -8.93055e-20)
(0.141132 -0.0560655 7.51742e-20)
(0.165728 -0.0610278 -8.65724e-21)
(0.191301 -0.0655581 -3.91537e-21)
(0.217701 -0.0696464 -3.62096e-20)
(0.244752 -0.0732445 7.24024e-20)
(0.272354 -0.0762307 -5.82545e-20)
(0.300076 -0.0783969 -3.80507e-20)
(0.328359 -0.0792995 1.10442e-20)
(0.354329 -0.0785141 3.41554e-20)
(0.385094 -0.0745515 5.08455e-20)
(-0.00136033 0.00320361 1.74348e-20)
(0.000462319 0.00126572 -1.76796e-20)
(0.00636319 -0.00389597 2.4976e-20)
(0.0159329 -0.0110523 -9.82139e-20)
(0.0288079 -0.0187385 6.96699e-20)
(0.044473 -0.0265415 -2.55665e-20)
(0.0625892 -0.0340486 3.42986e-20)
(0.0827809 -0.0411427 3.26927e-20)
(0.104773 -0.0477366 -3.36416e-20)
(0.128303 -0.053823 7.74105e-20)
(0.15316 -0.0594085 -5.20974e-20)
(0.179152 -0.0645136 -2.31725e-20)
(0.206105 -0.0691511 -3.40261e-20)
(0.233867 -0.0733129 2.60622e-20)
(0.262253 -0.0769527 -5.61432e-21)
(0.291162 -0.0799441 5.76431e-20)
(0.320132 -0.0820809 3.12738e-20)
(0.349676 -0.082867 6.04491e-21)
(0.376625 -0.0819438 -1.91439e-20)
(0.408931 -0.0773703 -7.85638e-21)
(-0.00134348 0.00313209 2.58891e-20)
(0.00106225 0.000810779 1.07997e-19)
(0.00795075 -0.0047571 -8.09058e-20)
(0.0186931 -0.0123506 1.02918e-19)
(0.0328821 -0.0204387 -1.6674e-19)
(0.0499303 -0.0286115 -2.89397e-20)
(0.0694791 -0.0364407 -3.62398e-22)
(0.0911279 -0.0438116 -7.45214e-20)
(0.114591 -0.0506356 9.43412e-21)
(0.139596 -0.0569083 1.53706e-20)
(0.165923 -0.0626383 1.02936e-20)
(0.193374 -0.0678488 -4.23906e-20)
(0.221768 -0.0725556 2.86474e-20)
(0.250946 -0.0767526 -2.71726e-20)
(0.280714 -0.0803963 -1.31388e-19)
(0.310971 -0.0833564 7.36426e-21)
(0.341222 -0.0854321 -4.69806e-21)
(0.372054 -0.0860711 -3.94844e-20)
(0.399993 -0.0849995 2.48857e-20)
(0.433852 -0.0797632 -2.45802e-20)
(-0.00130454 0.00301501 -1.85452e-20)
(0.00174183 0.000268587 -7.58216e-21)
(0.00968659 -0.00571571 8.00377e-21)
(0.0216744 -0.0137402 4.59411e-20)
(0.0372528 -0.022212 8.3288e-20)
(0.0557597 -0.0307299 9.49642e-20)
(0.0768159 -0.0388514 -7.60885e-20)
(0.0999949 -0.0464665 3.73608e-20)
(0.124999 -0.0534858 -4.69086e-20)
(0.151546 -0.0599082 -4.8548e-20)
(0.179407 -0.0657449 -1.03697e-20)
(0.208376 -0.0710221 6.27378e-20)
(0.238264 -0.0757588 -4.5984e-21)
(0.268905 -0.0799513 -2.00845e-20)
(0.300094 -0.0835599 3.63114e-20)
(0.331731 -0.0864511 -7.68691e-20)
(0.363287 -0.0884334 7.17586e-21)
(0.395423 -0.0888944 3.38888e-20)
(0.424355 -0.0876647 -9.34698e-22)
(0.459761 -0.0817155 -2.59914e-20)
(-0.00124012 0.00285139 -3.86638e-20)
(0.00250779 -0.000362248 -5.18143e-20)
(0.0115786 -0.00677287 -8.59458e-21)
(0.0248844 -0.0152211 -3.54344e-20)
(0.0419265 -0.0240572 -5.25781e-20)
(0.0619658 -0.0328939 -1.00561e-19)
(0.0846018 -0.0412766 8.84402e-20)
(0.109381 -0.0491016 -6.50394e-20)
(0.135994 -0.0562797 7.46645e-20)
(0.164145 -0.0628139 5.965e-20)
(0.193598 -0.068718 2.88653e-21)
(0.224137 -0.0740219 1.00169e-19)
(0.255566 -0.0787477 1.38112e-20)
(0.287709 -0.0828948 1.16773e-19)
(0.320351 -0.0864284 8.61574e-20)
(0.353392 -0.0892124 9.26237e-20)
(0.386267 -0.0910682 -8.04513e-21)
(0.419711 -0.0913203 4.93388e-21)
(0.44963 -0.0899242 -2.78212e-20)
(0.486562 -0.083215 2.51707e-20)
(-0.00114678 0.00264061 2.59825e-20)
(0.00336707 -0.00108257 -3.28733e-21)
(0.0136348 -0.00792884 -2.5668e-20)
(0.028331 -0.0167926 -6.29524e-20)
(0.0469098 -0.0259724 7.49249e-20)
(0.0685531 -0.0351001 3.86548e-20)
(0.0928384 -0.0437113 -1.18878e-19)
(0.119284 -0.0517105 3.8619e-20)
(0.147568 -0.0590094 -2.5734e-20)
(0.177382 -0.0656159 3.65963e-20)
(0.20848 -0.071547 9.8123e-20)
(0.240636 -0.0768362 -1.02245e-19)
(0.273644 -0.0815094 4.9887e-20)
(0.307322 -0.0855695 -1.02848e-19)
(0.341441 -0.0889872 -3.54579e-20)
(0.375899 -0.091625 -1.41189e-19)
(0.410096 -0.0933213 -1.20764e-20)
(0.444843 -0.0933337 4.51231e-20)
(0.475732 -0.0917643 6.96088e-21)
(0.514153 -0.0842519 -7.71031e-21)
(-0.00102102 0.00238228 2.57461e-20)
(0.00432671 -0.00189264 1.20027e-19)
(0.0158634 -0.00918316 1.20824e-19)
(0.0320221 -0.0184532 6.02254e-21)
(0.0522092 -0.0279546 3.80858e-20)
(0.075526 -0.0373442 -7.70134e-20)
(0.101527 -0.0461498 1.36881e-19)
(0.129703 -0.0542859 9.07963e-21)
(0.159716 -0.0616663 -8.48317e-20)
(0.191246 -0.0683043 -4.79601e-20)
(0.224035 -0.0742207 -1.91337e-19)
(0.257849 -0.0794529 1.40663e-20)
(0.29247 -0.084031 -1.54118e-20)
(0.327705 -0.0879617 -6.90017e-20)
(0.363316 -0.0912225 -3.05509e-20)
(0.399196 -0.0936749 1.85535e-20)
(0.434709 -0.0951783 4.49348e-20)
(0.47074 -0.0949211 -3.98802e-20)
(0.502575 -0.0931729 -3.03052e-20)
(0.542428 -0.0848189 -5.78574e-20)
(-0.000859306 0.00207635 -5.94726e-20)
(0.00539383 -0.00279209 7.38508e-21)
(0.0182726 -0.0105345 -6.28202e-20)
(0.0359658 -0.0202004 -4.19753e-20)
(0.0578315 -0.0300001 -1.72617e-19)
(0.082889 -0.039621 5.04325e-21)
(0.11067 -0.0485853 -3.13838e-20)
(0.140634 -0.0568197 8.70992e-21)
(0.172431 -0.0642409 6.03198e-20)
(0.205725 -0.0708687 -4.747e-21)
(0.240247 -0.0767277 2.68012e-20)
(0.275751 -0.0818599 3.44966e-20)
(0.31201 -0.0862999 -4.00073e-21)
(0.348819 -0.0900585 1.20814e-20)
(0.385927 -0.0931209 -5.47491e-20)
(0.423222 -0.0953486 1.55391e-20)
(0.460036 -0.0966264 -2.50599e-20)
(0.49732 -0.0960703 -4.8381e-20)
(0.530066 -0.0941398 1.58618e-20)
(0.571281 -0.0849115 5.50776e-20)
(-0.000658076 0.00172302 -4.22721e-20)
(0.00657561 -0.00377994 -1.83159e-19)
(0.0208708 -0.0119809 -1.0543e-19)
(0.04017 -0.0220308 1.36584e-19)
(0.0637829 -0.032104 5.69439e-20)
(0.090646 -0.0419242 2.77258e-20)
(0.120267 -0.0510102 -5.16788e-20)
(0.152075 -0.059303 -6.92931e-20)
(0.185705 -0.0667232 -8.77197e-20)
(0.220805 -0.0732978 1.15609e-19)
(0.257095 -0.0790561 5.30211e-20)
(0.294317 -0.0840448 3.847e-20)
(0.332231 -0.0883033 -1.14217e-19)
(0.370621 -0.0918472 -3.97574e-20)
(0.409222 -0.09467 1.06337e-19)
(0.447917 -0.0966341 2.22654e-20)
(0.486004 -0.0976538 4.12934e-22)
(0.5245 -0.0967709 5.68248e-20)
(0.558113 -0.0946562 5.36102e-20)
(0.600601 -0.0845275 1.05449e-21)
(-0.000413759 0.00132276 1.05183e-20)
(0.00787921 -0.00485459 9.27055e-20)
(0.0236661 -0.0135193 2.48912e-19)
(0.0446425 -0.0239402 -5.03834e-20)
(0.0700698 -0.0342607 1.58285e-19)
(0.0988008 -0.0442468 -1.96504e-20)
(0.130319 -0.053416 -6.84186e-21)
(0.164022 -0.0617261 1.3748e-19)
(0.199529 -0.0691025 1.03196e-19)
(0.236473 -0.0755803 -8.20813e-20)
(0.27456 -0.0811938 -1.02306e-19)
(0.313518 -0.0859951 -2.66428e-20)
(0.353096 -0.0900288 2.3143e-20)
(0.393066 -0.0933155 -2.29307e-20)
(0.433147 -0.095858 -8.91039e-20)
(0.473217 -0.0975205 7.30185e-21)
(0.51254 -0.0982504 3.91088e-20)
(0.552193 -0.0970142 -1.61107e-20)
(0.586621 -0.0947155 1.5e-20)
(0.630278 -0.0836676 5.08553e-20)
(-0.000122793 0.000876359 -1.4106e-20)
(0.00931179 -0.00601383 -1.59005e-19)
(0.0266667 -0.0151462 -2.46536e-20)
(0.0493912 -0.0259234 -5.34335e-20)
(0.0766982 -0.0364636 -2.2176e-19)
(0.107357 -0.0465807 -4.73807e-20)
(0.140826 -0.0557936 1.68459e-20)
(0.176471 -0.0640787 -9.33951e-20)
(0.213895 -0.0713675 1.29252e-19)
(0.252713 -0.077704 5.05136e-20)
(0.292618 -0.0831283 1.04906e-19)
(0.333326 -0.0876984 -2.6481e-20)
(0.374569 -0.0914642 1.52966e-19)
(0.416108 -0.0944519 7.4498e-21)
(0.457647 -0.0966744 1.02176e-19)
(0.499055 -0.0979981 3.38639e-20)
(0.539567 -0.0984076 -2.40565e-20)
(0.580312 -0.0967935 5.38334e-21)
(0.615493 -0.0943129 -3.8636e-20)
(0.660202 -0.0823348 -5.25195e-20)
(0.000218358 0.000384852 6.84682e-20)
(0.0108804 -0.00725481 1.85101e-19)
(0.0298808 -0.016857 -2.16509e-19)
(0.0544236 -0.0279742 3.8073e-20)
(0.0836738 -0.038705 1.85345e-19)
(0.116317 -0.0489171 1.86517e-19)
(0.151787 -0.0581327 9.61798e-20)
(0.189416 -0.0663494 -1.82388e-20)
(0.228791 -0.073506 -1.63127e-19)
(0.269509 -0.0796565 -6.30243e-20)
(0.311248 -0.0848471 6.47147e-20)
(0.353708 -0.0891422 -9.02927e-20)
(0.396611 -0.0925978 -1.54745e-19)
(0.4397 -0.0952458 -1.26983e-20)
(0.482664 -0.0971096 -4.17545e-20)
(0.525364 -0.0980588 7.14479e-21)
(0.567008 -0.0981186 4.71917e-20)
(0.608766 -0.096104 -7.62206e-20)
(0.644635 -0.0934455 -6.93263e-20)
(0.690261 -0.0805347 -2.4554e-20)
(0.000613192 -0.000150441 1.59807e-19)
(0.012592 -0.00857409 -5.03681e-20)
(0.0333161 -0.0186463 3.98604e-21)
(0.0597469 -0.0300858 7.29827e-20)
(0.0910021 -0.0409765 4.55203e-20)
(0.125684 -0.0512459 -2.71729e-20)
(0.163201 -0.0604223 -5.60715e-20)
(0.202852 -0.0685264 1.77374e-19)
(0.244207 -0.0755056 4.74399e-21)
(0.286843 -0.0814248 -9.89268e-20)
(0.330424 -0.0863374 -9.1865e-20)
(0.374634 -0.0903143 6.73013e-20)
(0.41918 -0.0934181 -1.7072e-20)
(0.46379 -0.0956869 1.33112e-19)
(0.508139 -0.0971551 -1.57257e-20)
(0.552075 -0.0976961 -8.24107e-20)
(0.594783 -0.0973784 -4.60806e-20)
(0.637467 -0.0949431 1.93481e-20)
(0.673948 -0.0921123 1.40324e-20)
(0.720345 -0.0782748 -1.29631e-20)
(0.00106515 -0.000727933 -1.42468e-19)
(0.0144535 -0.00996761 2.54189e-20)
(0.0369804 -0.0205082 4.91001e-20)
(0.065368 -0.0322503 -8.79055e-20)
(0.098688 -0.0432686 -9.54507e-20)
(0.13546 -0.0535564 -1.01071e-19)
(0.175066 -0.0626505 -1.39138e-21)
(0.216772 -0.070597 -4.18212e-20)
(0.26013 -0.0773531 -4.68337e-20)
(0.304696 -0.0829958 9.16752e-20)
(0.35012 -0.0875861 1.18646e-19)
(0.396069 -0.0912025 1.15818e-19)
(0.442234 -0.0939144 1.82998e-19)
(0.488328 -0.0957663 -1.3884e-19)
(0.53401 -0.0968039 7.11187e-20)
(0.579117 -0.0969053 5.77877e-20)
(0.622815 -0.096184 2.55915e-20)
(0.666324 -0.0933104 1.60194e-19)
(0.703338 -0.0903144 -2.28507e-20)
(0.750346 -0.0755649 7.80725e-20)
(0.00157761 -0.00134578 5.66613e-20)
(0.0164715 -0.0114307 7.66033e-21)
(0.0408809 -0.0224358 4.01904e-20)
(0.0712936 -0.0344588 4.49658e-20)
(0.106736 -0.045571 1.58546e-20)
(0.145645 -0.0558372 4.2005e-20)
(0.187379 -0.0648047 -1.21989e-19)
(0.231168 -0.072548 6.1539e-20)
(0.276545 -0.079035 2.76352e-20)
(0.323048 -0.084356 -9.72061e-20)
(0.370308 -0.0885805 -6.42433e-21)
(0.417977 -0.0917951 -6.11168e-20)
(0.465728 -0.0940764 -9.49694e-20)
(0.51326 -0.0954759 5.82923e-20)
(0.560217 -0.0960505 3.84195e-20)
(0.606419 -0.0956836 3.05004e-20)
(0.651021 -0.0945345 9.73018e-21)
(0.695247 -0.0912078 -1.12899e-19)
(0.73271 -0.0880545 1.05199e-19)
(0.780157 -0.0724163 -4.86325e-20)
(0.00215385 -0.00200186 1.26454e-20)
(0.0186523 -0.0129583 -1.24406e-19)
(0.0450248 -0.0244213 -2.72409e-20)
(0.0775297 -0.0367018 -2.50682e-20)
(0.115149 -0.0478726 -1.16927e-19)
(0.156241 -0.0580756 -6.41009e-21)
(0.200136 -0.0668717 1.65891e-19)
(0.246031 -0.0743654 2.02285e-20)
(0.293439 -0.0805372 -1.37626e-20)
(0.341878 -0.0854916 1.22356e-19)
(0.39096 -0.0893076 -7.71539e-20)
(0.440321 -0.0920805 -1.02392e-19)
(0.489617 -0.0938947 8.90454e-21)
(0.538531 -0.0948088 -2.33045e-20)
(0.586694 -0.0948908 -1.65196e-19)
(0.633908 -0.0940301 -4.6871e-20)
(0.679324 -0.0924315 2.48094e-20)
(0.724148 -0.0886399 8.77888e-21)
(0.761976 -0.0853371 -7.01287e-20)
(0.809675 -0.068842 3.92047e-20)
(0.00279706 -0.00269385 5.82272e-20)
(0.0210022 -0.0145444 2.12011e-19)
(0.0494187 -0.0264566 8.19004e-20)
(0.084082 -0.0389689 2.37552e-20)
(0.123932 -0.0501613 -3.28892e-20)
(0.167247 -0.0602586 1.05428e-19)
(0.213332 -0.0688373 -1.22163e-19)
(0.261351 -0.0760348 -6.99925e-20)
(0.310796 -0.0818452 8.47323e-21)
(0.361162 -0.0863888 -4.21273e-21)
(0.412045 -0.0897547 1.57537e-20)
(0.463062 -0.0920478 -1.89817e-20)
(0.513853 -0.0933606 -4.81044e-20)
(0.564086 -0.0937592 9.02138e-20)
(0.613377 -0.0933225 1.69963e-19)
(0.661512 -0.0919464 6.43804e-20)
(0.707643 -0.0898787 -1.25983e-19)
(0.752938 -0.0856138 2.04178e-21)
(0.791046 -0.0821679 1.31205e-19)
(0.838798 -0.0648559 2.58388e-20)
(0.00351034 -0.00341914 -2.05082e-19)
(0.0235271 -0.0161827 -1.33177e-19)
(0.0540687 -0.0285324 -8.23576e-21)
(0.0909553 -0.0412489 -3.16733e-20)
(0.133086 -0.0524244 1.08505e-20)
(0.178662 -0.0623721 -1.42526e-19)
(0.226962 -0.070687 -1.88142e-19)
(0.277117 -0.0775413 -1.32556e-19)
(0.328597 -0.0829446 1.42631e-19)
(0.380875 -0.0870338 -1.37054e-19)
(0.43353 -0.0899094 4.92603e-20)
(0.486159 -0.0916865 1.18261e-19)
(0.538388 -0.0924663 4.69885e-20)
(0.589866 -0.092323 -2.70132e-20)
(0.640201 -0.0913452 -1.32776e-19)
(0.689157 -0.0894363 9.75715e-20)
(0.7359 -0.0868826 2.22914e-19)
(0.781532 -0.0821397 -8.28716e-20)
(0.819841 -0.0785536 -1.38889e-19)
(0.86743 -0.0604728 -3.70212e-20)
(0.00429662 -0.00417492 2.23968e-19)
(0.0262325 -0.0178665 3.75552e-20)
(0.0589806 -0.0306391 -4.33704e-20)
(0.0981541 -0.0435298 5.5821e-20)
(0.142612 -0.0546483 1.17856e-19)
(0.190483 -0.0644015 -6.36316e-21)
(0.241019 -0.0724054 4.04169e-19)
(0.293316 -0.0788696 1.05538e-19)
(0.346823 -0.0838203 -1.76651e-19)
(0.400992 -0.0874127 9.62209e-20)
(0.455382 -0.0897595 -1.67279e-20)
(0.509572 -0.0909869 -3.82424e-20)
(0.563171 -0.0912052 6.90876e-20)
(0.615815 -0.0904971 -3.99612e-20)
(0.6671 -0.0889603 1.83259e-20)
(0.716772 -0.0865061 2.02496e-20)
(0.764019 -0.0834526 -1.42659e-19)
(0.80985 -0.0782311 1.10998e-19)
(0.848285 -0.0745007 5.03709e-20)
(0.895475 -0.0557076 6.1609e-21)
(0.00515872 -0.00495815 -1.53807e-19)
(0.0291235 -0.0195882 -6.48566e-22)
(0.0641596 -0.0327662 3.81396e-21)
(0.105682 -0.045799 -4.62453e-20)
(0.152513 -0.0568187 -7.88229e-20)
(0.202709 -0.0663316 1.14343e-19)
(0.255495 -0.0739769 -2.90782e-19)
(0.309935 -0.080004 -6.14555e-20)
(0.365455 -0.0844575 1.95946e-19)
(0.421486 -0.087512 1.80741e-19)
(0.477565 -0.0892933 -1.98488e-19)
(0.533255 -0.0899398 4.83335e-20)
(0.588151 -0.0895717 -5.29967e-20)
(0.641871 -0.0882803 6.11097e-20)
(0.694007 -0.0861713 1.00964e-21)
(0.744283 -0.0831648 5.63689e-21)
(0.791924 -0.079601 -4.78607e-20)
(0.837813 -0.0739055 -2.22293e-20)
(0.876311 -0.0700151 4.43819e-21)
(0.922841 -0.0505753 -3.17092e-20)
(0.00609931 -0.00576558 1.44496e-19)
(0.032205 -0.0213402 -4.82908e-21)
(0.0696102 -0.0349028 7.00504e-20)
(0.113542 -0.0480431 2.23148e-20)
(0.162787 -0.0589209 -7.929e-20)
(0.215333 -0.0681466 3.25966e-20)
(0.27038 -0.0753853 -7.53398e-20)
(0.326958 -0.0809288 2.32953e-20)
(0.384471 -0.0848412 -1.74514e-19)
(0.442326 -0.0873181 -2.3164e-19)
(0.500043 -0.0884997 8.06436e-20)
(0.557166 -0.0885373 -7.41722e-21)
(0.613274 -0.0875614 1.55709e-20)
(0.667975 -0.0856725 -3.33114e-20)
(0.720856 -0.0829836 7.6333e-20)
(0.771621 -0.0794241 -1.9427e-19)
(0.819542 -0.0753438 1.39125e-19)
(0.865349 -0.0691849 -1.17913e-20)
(0.903864 -0.0651013 8.23165e-20)
(0.949437 -0.0450942 2.64887e-20)
(0.00712086 -0.00659375 -2.16267e-19)
(0.0354813 -0.023114 -9.80093e-20)
(0.0753363 -0.0370372 -1.451e-19)
(0.121736 -0.0502482 9.14561e-20)
(0.173434 -0.0609392 -2.26909e-20)
(0.228352 -0.0698301 2.06596e-20)
(0.285665 -0.0766142 1.57336e-19)
(0.344369 -0.0816279 3.48962e-20)
(0.403847 -0.0849566 1.19559e-20)
(0.463483 -0.0868181 3.39936e-20)
(0.522777 -0.0873681 9.91005e-20)
(0.581257 -0.0867719 2.91049e-20)
(0.638488 -0.085171 2.54809e-20)
(0.694067 -0.0826757 -2.45892e-20)
(0.747579 -0.0794048 -1.01484e-19)
(0.798714 -0.0752985 1.32292e-19)
(0.846803 -0.0707008 7.41289e-20)
(0.892389 -0.0640973 5.8226e-20)
(0.9309 -0.0597632 -9.88222e-20)
(0.97518 -0.0392911 -3.46811e-20)
(0.00822569 -0.00743901 1.41646e-19)
(0.0389562 -0.024901 1.71493e-19)
(0.0813412 -0.0391572 5.40695e-21)
(0.130265 -0.0523997 1.3142e-20)
(0.184451 -0.0628578 2.19445e-19)
(0.241758 -0.0713655 -1.62327e-19)
(0.301336 -0.077647 1.7985e-19)
(0.362149 -0.0820854 1.14344e-19)
(0.423559 -0.084789 1.86327e-19)
(0.484924 -0.0859995 -4.79877e-20)
(0.545729 -0.085889 -3.86178e-20)
(0.605481 -0.0846376 -3.46705e-21)
(0.663738 -0.0823987 3.09737e-20)
(0.720084 -0.0792931 -9.2122e-20)
(0.774111 -0.0754446 1.08798e-19)
(0.825494 -0.070805 -7.17657e-20)
(0.873636 -0.065696 2.52923e-20)
(0.918875 -0.0586782 -4.6008e-20)
(0.957387 -0.0540004 -9.68338e-20)
(0.999982 -0.0331807 3.43767e-20)
(0.00941604 -0.00829771 -7.12757e-20)
(0.0426333 -0.0266921 -9.78222e-20)
(0.0876275 -0.0412505 1.94459e-19)
(0.139129 -0.0544828 -1.02447e-19)
(0.195835 -0.0646604 -1.01704e-19)
(0.255544 -0.0727359 3.12579e-20)
(0.317382 -0.0784668 -1.01295e-19)
(0.380281 -0.0822853 -2.24695e-19)
(0.44358 -0.0843242 -1.45166e-19)
(0.506617 -0.0848503 1.38625e-21)
(0.568856 -0.0840533 -3.25426e-20)
(0.629792 -0.0821293 -1.3238e-19)
(0.688969 -0.079244 -1.3792e-19)
(0.745968 -0.0755296 1.65741e-19)
(0.800386 -0.0711142 -1.15463e-19)
(0.851891 -0.0659635 3.3831e-20)
(0.899974 -0.0603587 2.68116e-20)
(0.944752 -0.0529726 -1.00908e-19)
(0.983297 -0.0477928 4.49664e-20)
(1.0237 -0.0267013 3.83736e-20)
(0.0106941 -0.00916623 -8.39796e-20)
(0.0465157 -0.0284784 -7.20691e-20)
(0.0941972 -0.0433043 -1.38104e-19)
(0.148329 -0.0564824 3.27905e-20)
(0.207582 -0.0663306 2.27498e-20)
(0.2697 -0.0739244 3.02208e-21)
(0.333786 -0.0790571 1.51389e-19)
(0.398741 -0.0822122 4.08717e-20)
(0.463883 -0.0835486 -6.47434e-20)
(0.528526 -0.0833594 8.15718e-20)
(0.592118 -0.0818533 -3.89213e-20)
(0.654139 -0.0792431 9.81324e-21)
(0.714126 -0.0757077 3.66154e-20)
(0.771655 -0.0713915 -8.58308e-20)
(0.826337 -0.066427 6.9747e-20)
(0.87784 -0.0607957 -1.50527e-20)
(0.925752 -0.0547253 1.08955e-19)
(0.969986 -0.0470377 -2.20926e-20)
(1.00864 -0.0410977 1.48076e-19)
(1.04617 -0.0198271 -2.67477e-20)
(0.0120609 -0.0100397 1.86047e-19)
(0.050605 -0.0302492 -4.9262e-20)
(0.101051 -0.0453045 1.57345e-19)
(0.157861 -0.058382 1.31157e-19)
(0.219686 -0.0678505 3.13313e-20)
(0.284216 -0.074913 1.23929e-20)
(0.350533 -0.0794005 -3.4173e-19)
(0.417508 -0.0818502 -8.03772e-20)
(0.484438 -0.0824484 -1.19309e-21)
(0.550615 -0.0815162 -1.6425e-19)
(0.615471 -0.0792818 1.01729e-19)
(0.678473 -0.0759762 5.36234e-20)
(0.739153 -0.0717919 8.43512e-20)
(0.797087 -0.0668864 2.73867e-21)
(0.851901 -0.0613971 -4.86315e-20)
(0.903272 -0.0553252 1.18191e-19)
(0.9509 -0.0488392 -2.68495e-19)
(0.994553 -0.0409446 -6.75876e-20)
(1.03353 -0.0339718 -1.43626e-19)
(1.06778 -0.0133379 8.15661e-22)
(0.0135129 -0.0109092 -1.80469e-19)
(0.0548977 -0.0319894 3.72412e-20)
(0.108183 -0.0472322 -1.52137e-19)
(0.167718 -0.0601608 -1.27615e-19)
(0.232134 -0.069199 -2.16705e-20)
(0.299076 -0.0756807 -2.05146e-20)
(0.367602 -0.0794775 3.43224e-19)
(0.436556 -0.0811818 7.18425e-20)
(0.505212 -0.0810091 1.83479e-19)
(0.572845 -0.0793096 1.74505e-19)
(0.63887 -0.0763323 -1.18692e-19)
(0.702745 -0.0723265 -4.10272e-20)
(0.763996 -0.0674997 -1.03434e-19)
(0.822204 -0.062023 1.68555e-20)
(0.877014 -0.05604 4.44281e-20)
(0.92812 -0.0495759 -8.73583e-20)
(0.975341 -0.0427456 1.09742e-19)
(1.01838 -0.0347799 5.17736e-20)
(1.05796 -0.0268154 1.34136e-19)
(1.09095 -0.00919263 2.73336e-21)
(0.0150505 -0.0117695 8.14081e-20)
(0.0593935 -0.0336879 -1.00897e-19)
(0.115591 -0.049073 1.46003e-19)
(0.177895 -0.0618022 -5.33023e-20)
(0.244919 -0.0703585 -5.31801e-21)
(0.314265 -0.0762103 6.55171e-21)
(0.384972 -0.0792718 -1.71602e-19)
(0.455857 -0.0801928 1.7202e-19)
(0.526173 -0.0792192 -1.23486e-19)
(0.595177 -0.0767315 7.59403e-20)
(0.66227 -0.0730004 3.64518e-20)
(0.726902 -0.0682945 -6.37135e-21)
(0.788598 -0.0628362 -3.54192e-20)
(0.846947 -0.0568115 -1.35883e-20)
(0.901614 -0.050371 -7.7125e-20)
(0.952319 -0.043569 3.09342e-20)
(0.99899 -0.0364793 -1.07889e-19)
(1.04128 -0.0286248 -1.16251e-19)
(1.08103 -0.0203275 1.38668e-19)
(1.11293 -0.00809816 3.15756e-20)