/*--------------------------------*- C++ -*----------------------------------*\
  =========                 |
  \\      /  F ield         | OpenFOAM: The Open Source CFD Toolbox
   \\    /   O peration     | Website:  https://openfoam.org
    \\  /    A nd           | Version:  7
     \\/     M anipulation  |
\*---------------------------------------------------------------------------*/
FoamFile
{
    version     2.0;
    format      ascii;
    class       surfaceScalarField;
    location    "25";
    object      phi;
}
// * * * * * * * * * * * * * * * * * * * * * * * * * * * * * * * * * * * * * //

dimensions      [0 3 -1 0 0 0 0];

internalField   nonuniform List<scalar> 
5042
(
-1.86879e-06
1.86879e-06
-4.02439e-06
2.15559e-06
-4.75642e-06
7.32025e-07
-2.70527e-06
-2.05115e-06
2.98662e-06
-5.69189e-06
1.30154e-05
-1.00288e-05
2.79121e-05
-1.48967e-05
4.81436e-05
-2.02315e-05
7.41297e-05
-2.59861e-05
0.000106276
-3.2146e-05
0.000144983
-3.87071e-05
-4.56727e-05
-1.85014e-06
3.71893e-06
-3.95945e-06
4.26491e-06
-4.62013e-06
1.3927e-06
-2.474e-06
-4.19727e-06
3.33647e-06
-1.15024e-05
1.35079e-05
-2.02002e-05
2.85724e-05
-2.99612e-05
4.89981e-05
-4.06572e-05
7.52062e-05
-5.21942e-05
0.000107604
-6.45433e-05
0.000146593
-7.76966e-05
-9.16605e-05
-1.81311e-06
5.53204e-06
-3.82992e-06
6.28172e-06
-4.34788e-06
1.91066e-06
-2.01178e-06
-6.53337e-06
4.03576e-06
-1.75499e-05
1.44923e-05
-3.06568e-05
2.98921e-05
-4.5361e-05
5.07055e-05
-6.14707e-05
7.73569e-05
-7.88456e-05
0.000110256
-9.74426e-05
0.000149809
-0.00011725
-0.000138277
-1.75783e-06
7.28987e-06
-3.63617e-06
8.16006e-06
-3.94042e-06
2.21491e-06
-1.31988e-06
-9.15392e-06
5.08256e-06
-2.39523e-05
1.59659e-05
-4.15402e-05
3.18672e-05
-6.12623e-05
5.32609e-05
-8.28643e-05
8.05753e-05
-0.00010616
0.000114225
-0.000131092
0.00015462
-0.000157645
-0.000185833
-1.68446e-06
8.97433e-06
-3.37875e-06
9.85435e-06
-3.3989e-06
2.23506e-06
-4.00171e-07
-1.21526e-05
6.47394e-06
-3.08265e-05
1.79245e-05
-5.29907e-05
3.44923e-05
-7.78301e-05
5.66566e-05
-0.000105029
8.48515e-05
-0.000134355
0.000119497
-0.000165738
0.000161011
-0.000199159
-0.000234635
-1.59322e-06
1.05675e-05
-3.05839e-06
1.13195e-05
-2.72482e-06
1.90149e-06
7.4464e-07
-1.56221e-05
8.20606e-06
-3.82879e-05
2.03625e-05
-6.51471e-05
3.77596e-05
-9.52272e-05
6.08826e-05
-0.000128152
9.01725e-05
-0.000163645
0.000126057
-0.000201622
0.00016896
-0.000242062
-0.000284986
-1.48437e-06
1.20519e-05
-2.67598e-06
1.25111e-05
-1.92001e-06
1.14552e-06
2.11157e-06
-1.96537e-05
1.02741e-05
-4.64505e-05
2.32732e-05
-7.81462e-05
4.16599e-05
-0.000113614
6.59266e-05
-0.000152418
9.65221e-05
-0.00019424
0.000133883
-0.000238983
0.000178442
-0.000286621
-0.00033718
-1.35824e-06
1.34102e-05
-2.23259e-06
1.33855e-05
-9.86691e-07
-1.00382e-07
3.69689e-06
-2.43373e-05
1.26725e-05
-5.54261e-05
2.66484e-05
-9.21221e-05
4.61821e-05
-0.000133148
7.17736e-05
-0.00017801
0.000103881
-0.000226348
0.00014295
-0.000278052
0.000189424
-0.000333095
-0.000391506
-1.2152e-06
1.46254e-05
-1.72944e-06
1.38997e-05
7.26296e-08
-1.90245e-06
5.49631e-06
-2.97609e-05
1.53947e-05
-6.53245e-05
3.04789e-05
-0.000107206
5.13133e-05
-0.000153982
7.84067e-05
-0.000205103
0.000112227
-0.000260169
0.000153231
-0.000319056
0.000201872
-0.000381736
-0.000448241
-1.05565e-06
1.5681e-05
-1.16789e-06
1.4012e-05
1.2551e-06
-4.32544e-06
7.50499e-06
-3.60108e-05
1.84332e-05
-7.62527e-05
3.4754e-05
-0.000123527
5.7039e-05
-0.000176267
8.58066e-05
-0.000233871
0.000121536
-0.000295898
0.000164693
-0.000362214
0.000215745
-0.000432787
-0.000507654
-8.80045e-07
1.6561e-05
-5.49456e-07
1.36814e-05
2.55758e-06
-7.43248e-06
9.71761e-06
-4.31709e-05
2.178e-05
-8.83151e-05
3.9462e-05
-0.000141209
6.33431e-05
-0.000200148
9.39516e-05
-0.000264479
0.000131778
-0.000333724
0.000177301
-0.000407737
0.000230996
-0.000486483
0.000293346
-0.000570004
-0.000658304
-6.88888e-07
1.72499e-05
1.24228e-07
1.28683e-05
3.97666e-06
-1.12849e-05
1.21283e-05
-5.13225e-05
2.54261e-05
-0.000101613
4.45902e-05
-0.000160373
7.02081e-05
-0.000225766
0.000102818
-0.00029709
0.000142923
-0.000373828
0.000191014
-0.000455827
0.000247578
-0.000543047
0.000313107
-0.000635533
-0.000733293
-4.82708e-07
1.77326e-05
8.51296e-07
1.15343e-05
5.50865e-06
-1.59423e-05
1.47309e-05
-6.05448e-05
2.93619e-05
-0.000116244
5.01246e-05
-0.000181136
7.76148e-05
-0.000253256
0.000112381
-0.000331856
0.000154939
-0.000416386
0.00020579
-0.000506678
0.000265435
-0.000602692
0.000334376
-0.000704474
-0.000812035
-2.61955e-07
1.79946e-05
1.63004e-06
9.64227e-06
7.14962e-06
-2.14618e-05
1.75186e-05
-7.09137e-05
3.3577e-05
-0.000132302
5.60504e-05
-0.000203609
8.55427e-05
-0.000282748
0.000122613
-0.000368927
0.000167788
-0.000461561
0.000221583
-0.000560473
0.000284508
-0.000665617
0.000357077
-0.000777043
-0.000894761
-2.48684e-08
1.80195e-05
2.45844e-06
7.15897e-06
8.89543e-06
-2.78988e-05
2.04843e-05
-8.25026e-05
3.80606e-05
-0.000149879
6.2352e-05
-0.000227901
9.39701e-05
-0.000314367
0.000133485
-0.000408442
0.000181434
-0.00050951
0.000238344
-0.000617383
0.000304738
-0.00073201
0.000381135
-0.000853441
-0.000981686
2.21278e-07
1.77982e-05
3.33431e-06
4.04594e-06
1.07417e-05
-3.53063e-05
2.36205e-05
-9.53814e-05
4.28011e-05
-0.000169059
6.90126e-05
-0.000254112
0.000102874
-0.000348228
0.000144966
-0.000450533
0.000195836
-0.00056038
0.000256022
-0.00067757
0.000326056
-0.000802044
0.000406467
-0.000933852
-0.001073
4.81783e-07
1.73164e-05
4.25561e-06
2.72114e-07
1.2684e-05
-4.37347e-05
2.69196e-05
-0.000109617
4.77866e-05
-0.000189926
7.60148e-05
-0.00028234
0.00011223
-0.000384444
0.000157023
-0.000495326
0.00021095
-0.000614308
0.000274561
-0.000741181
0.000348394
-0.000875877
0.000432985
-0.00101844
-0.00116888
7.54489e-07
1.65619e-05
5.22012e-06
-4.19352e-06
1.47176e-05
-5.32321e-05
3.03733e-05
-0.000125273
5.30045e-05
-0.000212557
8.33407e-05
-0.000312676
0.000122014
-0.000423117
0.000169623
-0.000542934
0.000226734
-0.00067142
0.000293905
-0.000808351
0.00037168
-0.000953653
0.000460599
-0.00110736
-0.00126947
1.03863e-06
1.55233e-05
6.22557e-06
-9.38045e-06
1.68376e-05
-6.38441e-05
3.39735e-05
-0.000142409
5.84418e-05
-0.000237026
9.09712e-05
-0.000345206
0.000132199
-0.000464345
0.00018273
-0.000593465
0.000243141
-0.00073183
0.000313993
-0.000879204
0.000395838
-0.0010355
0.000489214
-0.00120074
-0.00137491
1.33354e-06
1.41897e-05
7.26965e-06
-1.53166e-05
1.90392e-05
-7.56137e-05
3.77114e-05
-0.000161081
6.40854e-05
-0.0002634
9.88872e-05
-0.000380008
0.000142758
-0.000508216
0.000196309
-0.000647016
0.000260122
-0.000795644
0.000334765
-0.000953847
0.000420789
-0.00112152
0.000518731
-0.00129868
-0.00148529
1.63855e-06
1.25512e-05
8.35001e-06
-2.2028e-05
2.13173e-05
-8.8581e-05
4.15784e-05
-0.000181342
6.99214e-05
-0.000291743
0.000107069
-0.000417155
0.000153664
-0.000554811
0.000210322
-0.000703674
0.00027763
-0.000862951
0.000356156
-0.00103237
0.000446452
-0.00121182
0.000549049
-0.00140128
0.000664458
-0.0016007
-0.00180988
1.95298e-06
1.05982e-05
9.4643e-06
-2.95393e-05
2.36669e-05
-0.000102784
4.55656e-05
-0.000203241
7.5936e-05
-0.000322113
0.000115495
-0.000456714
0.000164887
-0.000604204
0.00022473
-0.000763516
0.000295612
-0.000933833
0.000378101
-0.00111486
0.000472744
-0.00130646
0.000580064
-0.0015086
0.000700554
-0.00172119
-0.00194401
2.27619e-06
8.32202e-06
1.06101e-05
-3.78733e-05
2.60827e-05
-0.000118256
4.96639e-05
-0.000226822
8.2115e-05
-0.000354564
0.000124146
-0.000498745
0.0001764
-0.000656458
0.000239494
-0.000826611
0.000314017
-0.00100836
0.000400532
-0.00120138
0.00049958
-0.00140551
0.000611667
-0.00162068
0.000737268
-0.00184679
-0.00208356
2.60751e-06
5.71451e-06
1.17851e-05
-4.70509e-05
2.85596e-05
-0.000135031
5.38641e-05
-0.000252126
8.84439e-05
-0.000389144
0.000133
-0.000543301
0.000188172
-0.00071163
0.000254574
-0.000893013
0.000332791
-0.00108657
0.000423381
-0.00129197
0.000526871
-0.001509
0.000643749
-0.00173756
0.000774465
-0.00197751
-0.00222852
2.9463e-06
2.76821e-06
1.29868e-05
-5.70914e-05
3.10923e-05
-0.000153136
5.8157e-05
-0.000279191
9.49082e-05
-0.000425895
0.000142036
-0.000590428
0.000200173
-0.000769767
0.000269929
-0.000962769
0.000351882
-0.00116852
0.000446578
-0.00138666
0.000554528
-0.00161695
0.000676199
-0.00185923
0.000812007
-0.00211332
-0.00237883
3.29193e-06
-5.23719e-07
1.4213e-05
-6.80124e-05
3.36757e-05
-0.000172599
6.25333e-05
-0.000308049
0.000101493
-0.000464855
0.000151231
-0.000640166
0.000212373
-0.000830908
0.000285517
-0.00103591
0.000371233
-0.00125424
0.000470051
-0.00148548
0.000582462
-0.00172936
0.000708903
-0.00198567
0.000849755
-0.00225417
-0.00253441
3.64378e-06
-4.16749e-06
1.54611e-05
-7.98298e-05
3.63044e-05
-0.000193442
6.69837e-05
-0.000338728
0.000108184
-0.000506055
0.000160565
-0.000692547
0.00022474
-0.000895084
0.000301297
-0.00111247
0.000390789
-0.00134373
0.000493729
-0.00158842
0.00061058
-0.00184621
0.000741746
-0.00211684
0.000887566
-0.00239999
0.0010483
-0.00269514
-0.00300143
4.00123e-06
-8.16872e-06
1.6729e-05
-9.25576e-05
3.89732e-05
-0.000215686
7.14987e-05
-0.000371253
0.000114966
-0.000549522
0.000170014
-0.000747596
0.000237244
-0.000962313
0.000317226
-0.00119245
0.000410494
-0.001437
0.000517537
-0.00169547
0.000638789
-0.00196746
0.000774613
-0.00225266
0.000925298
-0.00255067
0.00109105
-0.00286089
-0.00318238
4.3637e-06
-1.25324e-05
1.80142e-05
-0.000106208
4.16769e-05
-0.000239349
7.6069e-05
-0.000405645
0.000121823
-0.000595276
0.000179557
-0.00080533
0.000249852
-0.00103261
0.00033326
-0.00127586
0.000430291
-0.00153403
0.000541404
-0.00180658
0.000666995
-0.00209305
0.000807386
-0.00239305
0.000962809
-0.0027061
0.0011334
-0.00303149
-0.0033682
4.7306e-06
-1.7263e-05
1.93145e-05
-0.000120792
4.44103e-05
-0.000264445
8.06852e-05
-0.00044192
0.000128741
-0.000643332
0.000189172
-0.00086576
0.000262535
-0.00110597
0.000349357
-0.00136268
0.000450122
-0.0016348
0.000565253
-0.00192171
0.000695106
-0.0022229
0.000839948
-0.0025379
0.000999955
-0.0028661
0.00117519
-0.00320673
-0.00355865
5.10138e-06
-2.23644e-05
2.06275e-05
-0.000136318
4.71682e-05
-0.000290986
8.53378e-05
-0.00048009
0.000135705
-0.0006937
0.000198835
-0.00092889
0.000275258
-0.00118239
0.000365474
-0.0014529
0.00046993
-0.00173925
0.000589012
-0.00204079
0.000723025
-0.00235692
0.000872183
-0.00268705
0.00103659
-0.00303051
0.00121625
-0.00338638
-0.00375343
5.47549e-06
-2.78399e-05
2.19511e-05
-0.000152794
4.99455e-05
-0.00031898
9.00176e-05
-0.000520162
0.0001427
-0.000746383
0.000208524
-0.000994714
0.000287992
-0.00126186
0.000381567
-0.00154647
0.000489658
-0.00184734
0.000612605
-0.00216374
0.00075066
-0.00249497
0.000903974
-0.00284037
0.00107258
-0.00319912
0.0012564
-0.0035702
0.00145522
-0.00395226
-0.00434319
5.85239e-06
-3.36923e-05
2.3283e-05
-0.000170224
5.2737e-05
-0.000348434
9.47151e-05
-0.00056214
0.00014971
-0.000801378
0.000218218
-0.00106322
0.000300703
-0.00134435
0.000397591
-0.00164336
0.000509248
-0.001959
0.000635959
-0.00229045
0.000777917
-0.00263693
0.000935204
-0.00299766
0.00110778
-0.0033717
0.00129548
-0.0037579
0.00149801
-0.00415479
-0.00456009
6.23156e-06
-3.99238e-05
2.4621e-05
-0.000188614
5.55375e-05
-0.00037935
9.9421e-05
-0.000606024
0.000156721
-0.000858678
0.000227892
-0.00113439
0.000313359
-0.00142981
0.000413504
-0.00174351
0.000528641
-0.00207414
0.000658998
-0.00242081
0.000804701
-0.00278263
0.000965759
-0.00315871
0.00114205
-0.003548
0.00133333
-0.00394917
0.0015392
-0.00436066
-0.00478002
6.61248e-06
-4.65363e-05
2.5963e-05
-0.000207964
5.83421e-05
-0.00041173
0.000104126
-0.000651807
0.000163717
-0.000918269
0.000237524
-0.0012082
0.000325929
-0.00151822
0.000429262
-0.00184684
0.000547781
-0.00219266
0.000681649
-0.00255468
0.00083092
-0.0029319
0.000995524
-0.00332332
0.00117526
-0.00372773
0.00136978
-0.00414369
0.00157862
-0.0045695
-0.00500254
6.99465e-06
-5.3531e-05
2.73066e-05
-0.000228276
6.11456e-05
-0.000445569
0.000108821
-0.000699482
0.000170683
-0.000980132
0.000247093
-0.00128461
0.000338381
-0.00160951
0.000444822
-0.00195328
0.000566611
-0.00231444
0.00070384
-0.0026919
0.000856484
-0.00308455
0.00102439
-0.00349122
0.00120726
-0.00391061
0.00140468
-0.00434111
0.00161608
-0.0047809
0.00184077
-0.00522722
-0.00567772
7.37755e-06
-6.09085e-05
2.86498e-05
-0.000249549
6.3943e-05
-0.000480862
0.000113496
-0.000749035
0.000177605
-0.00104424
0.000256575
-0.00136358
0.000350682
-0.00170361
0.00046014
-0.00206274
0.000585072
-0.00243938
0.000725497
-0.00283233
0.000881302
-0.00324036
0.00105224
-0.00366216
0.00123794
-0.0040963
0.00143788
-0.00454105
0.00165142
-0.00499445
0.00187781
-0.0054536
-0.00591621
7.76066e-06
-6.86692e-05
2.99903e-05
-0.000271778
6.67291e-05
-0.000517601
0.000118142
-0.000800447
0.000184466
-0.00111057
0.000265948
-0.00144506
0.000362802
-0.00180047
0.000475173
-0.00217511
0.000603111
-0.00256732
0.000746549
-0.00297577
0.000905287
-0.00339909
0.00107898
-0.00383586
0.00126717
-0.00428448
0.00146922
-0.0047431
0.00168446
-0.00520968
0.00191208
-0.00568122
-0.00615544
8.14341e-06
-7.68126e-05
3.1326e-05
-0.000294961
6.94989e-05
-0.000555773
0.00012275
-0.000853698
0.000191253
-0.00117907
0.000275189
-0.001529
0.000374707
-0.00189999
0.000489878
-0.00229028
0.000620671
-0.00269811
0.000766927
-0.00312202
0.000928352
-0.00356052
0.00110451
-0.00401202
0.00129481
-0.00447479
0.00149858
-0.00494687
0.00171504
-0.00542614
0.0019434
-0.00590957
0.00218291
-0.00639495
-0.00687208
8.52521e-06
-8.53378e-05
3.26545e-05
-0.00031909
7.22473e-05
-0.000595366
0.00012731
-0.000908761
0.000197949
-0.00124971
0.000284277
-0.00161533
0.000386368
-0.00200208
0.000504214
-0.00240813
0.000637697
-0.00283159
0.000786563
-0.00327089
0.000950415
-0.00372437
0.00112871
-0.00419031
0.00132077
-0.00466685
0.00152582
-0.00515192
0.00174302
-0.00564334
0.00197157
-0.00613813
0.00221087
-0.00663425
-0.00712219
8.83204e-06
-9.41698e-05
3.38227e-05
-0.000344081
7.4746e-05
-0.00063629
0.000131528
-0.000965543
0.000204207
-0.00132239
0.000292822
-0.00170394
0.00039737
-0.00210662
0.00051776
-0.00252852
0.000653777
-0.00296761
0.00080507
-0.00342218
0.000971133
-0.00389043
0.00115132
-0.0043705
0.00134484
-0.00486038
0.00155084
-0.00535792
0.00176839
-0.0058609
0.00199673
-0.00636646
0.00223532
-0.00687285
-0.00737192
9.20442e-06
-0.000103374
3.51197e-05
-0.000369996
7.74218e-05
-0.000678592
0.000135948
-0.00102407
0.000210659
-0.0013971
0.000301514
-0.00179479
0.000408427
-0.00221354
0.000531212
-0.0026513
0.000669559
-0.00310595
0.000823007
-0.00357563
0.000990941
-0.00405837
0.0011726
-0.00455216
0.0013671
-0.00505488
0.00157347
-0.00556429
0.00179074
-0.00607817
0.0020181
-0.00659381
0.00225505
-0.0071098
0.00250283
-0.0076197
-0.00813692
9.57411e-06
-0.000112948
3.64026e-05
-0.000396824
8.00603e-05
-0.000722249
0.000140292
-0.0010843
0.000216975
-0.00147378
0.000309984
-0.0018878
0.000419143
-0.0023227
0.000544171
-0.00277633
0.000684649
-0.00324643
0.000840006
-0.00373099
0.00100951
-0.00422788
0.0011923
-0.00473494
0.00138737
-0.00524995
0.00159366
-0.00577058
0.00181011
-0.00629462
0.00203586
-0.00681956
0.00227033
-0.00734427
0.00251459
-0.00786396
-0.00839131
9.94045e-06
-0.000122889
3.76691e-05
-0.000424553
8.26564e-05
-0.000767237
0.000144549
-0.00114619
0.00022314
-0.00155237
0.00031821
-0.00198287
0.000429491
-0.00243398
0.000556595
-0.00290344
0.000698997
-0.00338883
0.000856009
-0.003888
0.00102679
-0.00439865
0.00121034
-0.00491849
0.00140556
-0.00544517
0.0016113
-0.00597632
0.00182641
-0.00650973
0.00204994
-0.00704309
0.00228116
-0.00757549
0.00252076
-0.00810355
0.00276755
-0.00863811
-0.00915742
1.03028e-05
-0.000133192
3.89171e-05
-0.000453167
8.52048e-05
-0.000813524
0.000148712
-0.0012097
0.000229138
-0.0016328
0.000326171
-0.00207991
0.000439439
-0.00254725
0.000568448
-0.00303244
0.000712556
-0.00353294
0.000870959
-0.0040464
0.00104269
-0.00457038
0.00122664
-0.00510245
0.00142161
-0.00564014
0.00162634
-0.00618105
0.00183959
-0.00672298
0.00206032
-0.00726382
0.00228762
-0.00780279
0.00252174
-0.00833766
0.00276058
-0.00887695
-0.00940878
1.06607e-05
-0.000143852
4.01441e-05
-0.000482651
8.77006e-05
-0.000861081
0.00015277
-0.00127477
0.000234957
-0.00171499
0.000333845
-0.0021788
0.000448959
-0.00266236
0.000579691
-0.00316318
0.000725281
-0.00367853
0.000884802
-0.00420592
0.00105717
-0.00474275
0.00124116
-0.00528644
0.00143546
-0.00583444
0.00163872
-0.0063843
0.00184961
-0.00693388
0.002067
-0.00748121
0.00228981
-0.0080256
0.00251786
-0.00856571
0.0027486
-0.00910768
-0.00964692
0.00298674
1.10134e-05
-0.000154866
4.1348e-05
-0.000512985
9.01386e-05
-0.000909872
0.000156715
-0.00134135
0.00024058
-0.00179885
0.000341212
-0.00227943
0.000458024
-0.00277917
0.00059029
-0.00329544
0.000737128
-0.00382537
0.000897489
-0.00436628
0.00107016
-0.00491543
0.00125382
-0.00547009
0.00144704
-0.00602766
0.00164839
-0.00658565
0.00185646
-0.00714195
0.00207001
-0.00769476
0.00228783
-0.00824343
0.00250939
-0.00878728
0.00273199
-0.00933028
-0.00987316
0.00295823
1.13604e-05
-0.000166226
4.25265e-05
-0.000544151
9.25135e-05
-0.000959859
0.000160537
-0.00140937
0.000245993
-0.00188431
0.00034825
-0.00238168
0.000466604
-0.00289752
0.000600208
-0.00342905
0.000748056
-0.00397322
0.000908972
-0.0045272
0.00108163
-0.00508808
0.00126459
-0.00565305
0.00145633
-0.0062194
0.00165533
-0.00678465
0.00186012
-0.00734674
0.00206937
-0.00790402
0.00228179
-0.00845584
0.00249657
-0.00900205
0.00271104
-0.00954475
-0.0100885
0.00292637
1.17012e-05
-0.000177927
4.36772e-05
-0.000576127
9.48203e-05
-0.001011
0.000164227
-0.00147878
0.000251183
-0.00197126
0.00035494
-0.00248544
0.000474674
-0.00301726
0.000609414
-0.00356379
0.000758026
-0.00412183
0.000919209
-0.00468838
0.00109152
-0.00526039
0.00127341
-0.00583494
0.00146328
-0.00640926
0.00165952
-0.0069809
0.00186061
-0.00754783
0.00206516
-0.00810857
0.00227181
-0.00866249
0.00247957
-0.00920981
0.00268595
-0.00975114
-0.0102937
0.00289116
1.20351e-05
-0.000189962
4.47979e-05
-0.00060889
9.70537e-05
-0.00106326
0.000167776
-0.0015495
0.000256134
-0.00205962
0.000361261
-0.00259057
0.000482208
-0.00313821
0.000617875
-0.00369945
0.000767
-0.00427096
0.00092816
-0.00484954
0.0010998
-0.00543203
0.00128026
-0.0060154
0.00146787
-0.00659687
0.00166096
-0.00717399
0.00185796
-0.00774483
0.00205744
-0.00830805
0.00225801
-0.00886306
0.00245857
-0.00941037
0.0026569
-0.00994946
-0.0104894
0.00285257
1.23616e-05
-0.000202324
4.58862e-05
-0.000642415
9.92085e-05
-0.00111658
0.000171174
-0.00162146
0.000260834
-0.00214928
0.000367194
-0.00269693
0.00048918
-0.00326019
0.00062556
-0.00383583
0.000774946
-0.00442034
0.00093579
-0.00501039
0.00110643
-0.00560267
0.00128511
-0.00619409
0.00147009
-0.00678185
0.00165965
-0.00736355
0.0018522
-0.00793737
0.00204627
-0.00850213
0.0022405
-0.00905728
0.00243374
-0.00960361
0.00262405
-0.0101398
-0.010676
0.00281063
1.268e-05
-0.000215004
4.69398e-05
-0.000676675
0.00010128
-0.00117092
0.000174413
-0.0016946
0.000265268
-0.00224014
0.000372721
-0.00280438
0.000495566
-0.00338304
0.000632442
-0.00397271
0.000781831
-0.00456973
0.000942068
-0.00517062
0.00111138
-0.00577198
0.00128794
-0.00637065
0.00146994
-0.00696384
0.00165562
-0.00754924
0.00184337
-0.00812512
0.00203175
-0.00869051
0.00221941
-0.00924494
0.00240523
-0.00978943
0.00258755
-0.0103221
-0.0108538
0.00276539
1.29897e-05
-0.000227994
4.79563e-05
-0.000711641
0.000103262
-0.00122622
0.000177484
-0.00176882
0.000269422
-0.00233207
0.000377822
-0.00291278
0.000501344
-0.00350656
0.000638495
-0.00410986
0.000787629
-0.00471886
0.000946966
-0.00532996
0.00111464
-0.00593965
0.00128874
-0.00654476
0.00146741
-0.00714251
0.00164888
-0.00773071
0.00183154
-0.00830777
0.00201396
-0.00887293
0.00219486
-0.00942585
0.00237319
-0.00996775
0.00254756
-0.0104965
-0.0110232
0.00271694
1.32902e-05
-0.000241284
4.89333e-05
-0.000747285
0.00010515
-0.00128244
0.000180377
-0.00184405
0.000273285
-0.00242498
0.000382481
-0.00302198
0.000506492
-0.00363057
0.000643693
-0.00424706
0.000792312
-0.00486748
0.000950461
-0.00548811
0.00111618
-0.00610537
0.0012875
-0.00671608
0.00146252
-0.00731753
0.00163947
-0.00790765
0.00181675
-0.00848505
0.00199299
-0.00904917
0.00216699
-0.00959985
0.00233777
-0.0101385
0.00250424
-0.010663
-0.0111843
0.00266537
1.35807e-05
-0.000254865
4.98684e-05
-0.000783572
0.000106938
-0.00133951
0.000183085
-0.00192019
0.000276842
-0.00251874
0.00038668
-0.00313182
0.00051099
-0.00375488
0.000648014
-0.00438408
0.00079586
-0.00501533
0.000952535
-0.00564478
0.001116
-0.00626883
0.00128423
-0.00688431
0.0014553
-0.0074886
0.00162744
-0.0080798
0.0017991
-0.00865671
0.00196896
-0.00921903
0.00213593
-0.00976682
0.00229912
-0.0103017
0.00245773
-0.0108216
-0.0113374
0.0026108
1.38606e-05
-0.000268725
5.07592e-05
-0.000820471
0.000108622
-0.00139737
0.000185598
-0.00199717
0.000280082
-0.00261322
0.000390404
-0.00324214
0.000514819
-0.0038793
0.000651438
-0.0045207
0.000798253
-0.00516215
0.000953173
-0.0057997
0.00111408
-0.00642974
0.00127892
-0.00704915
0.00144575
-0.00765543
0.00161283
-0.00824687
0.00177865
-0.00882253
0.00194196
-0.00938235
0.0021018
-0.00992665
0.0022574
-0.0104573
0.0024082
-0.0109724
-0.0114825
0.00255337
1.41292e-05
-0.000282854
5.16032e-05
-0.000857945
0.000110197
-0.00145597
0.000187909
-0.00207488
0.000282992
-0.00270831
0.000393637
-0.00335278
0.000517961
-0.00400362
0.000653946
-0.00465669
0.000799475
-0.00530767
0.000952364
-0.00595259
0.00111044
-0.00658782
0.00127161
-0.00721032
0.00143393
-0.00781776
0.0015957
-0.00840864
0.00175548
-0.00898231
0.00191212
-0.00953899
0.00206475
-0.0100793
0.00221276
-0.0106053
0.00235581
-0.0111154
-0.0116199
0.00249321
1.43859e-05
-0.00029724
5.23982e-05
-0.000895957
0.000111657
-0.00151523
0.000190008
-0.00215323
0.000285562
-0.00280386
0.000396365
-0.00346359
0.0005204
-0.00412765
0.000655524
-0.00479181
0.000799513
-0.00545166
0.000950104
-0.00610318
0.00110507
-0.00674279
0.0012623
-0.00736755
0.00141987
-0.00797533
0.00157612
-0.0085649
0.00172969
-0.00913588
0.00187954
-0.00968883
0.00202492
-0.0102247
0.00216536
-0.0107458
0.00230072
-0.0112508
-0.0117497
0.00243048
1.463e-05
-0.00031187
5.31415e-05
-0.000934469
0.000112998
-0.00157508
0.000191889
-0.00223212
0.00028778
-0.00289975
0.000398575
-0.00357438
0.000522121
-0.0042512
0.000656158
-0.00492585
0.000798359
-0.00559387
0.00094639
-0.00625122
0.00109798
-0.00689438
0.00125102
-0.00752058
0.00140361
-0.00812792
0.00155416
-0.00871544
0.00170138
-0.0092831
0.00184434
-0.00983179
0.00198244
-0.0103628
0.00211534
-0.0108787
0.00224309
-0.0113785
-0.0118719
0.00236533
1.48608e-05
-0.000326731
5.3831e-05
-0.000973439
0.000114214
-0.00163547
0.000193542
-0.00231145
0.000289635
-0.00299584
0.000400253
-0.003685
0.000523113
-0.00437406
0.000655836
-0.00505857
0.000796007
-0.00573404
0.000941226
-0.00639643
0.0010892
-0.00704235
0.00123781
-0.0076692
0.00138522
-0.00827533
0.00152988
-0.00886011
0.00167063
-0.00942385
0.00180665
-0.00996781
0.00193746
-0.0104936
0.00206287
-0.0110041
0.00218309
-0.0114987
-0.0119868
0.00229793
1.50776e-05
-0.000341809
5.44642e-05
-0.00101283
0.000115301
-0.0016963
0.000194962
-0.00239111
0.000291119
-0.003092
0.00040139
-0.00379527
0.000523364
-0.00449603
0.000654551
-0.00518976
0.000792453
-0.00587194
0.000934617
-0.0065386
0.00107873
-0.00718646
0.0012227
-0.00781317
0.00136473
-0.00841736
0.00150338
-0.00899875
0.00163756
-0.00955803
0.00176659
-0.0100968
0.00189012
-0.0106171
0.00200809
-0.011122
0.00212086
-0.0116115
-0.0120943
0.00222841
1.52798e-05
-0.000357089
5.50388e-05
-0.00105258
0.000116255
-0.00175752
0.000196141
-0.002471
0.000292222
-0.00318808
0.000401975
-0.00390502
0.000522864
-0.00461692
0.000652297
-0.00531919
0.000787698
-0.00600734
0.000926574
-0.00667747
0.00106661
-0.0073265
0.00120573
-0.0079523
0.00134223
-0.00855385
0.00147472
-0.00913125
0.00160226
-0.00968557
0.00172427
-0.0102188
0.00184055
-0.0107334
0.00195115
-0.0112326
0.00205658
-0.0117169
-0.0121947
0.00215694
1.54667e-05
-0.000372555
5.55526e-05
-0.00109267
0.000117071
-0.00181904
0.000197072
-0.002551
0.000292935
-0.00328394
0.000401999
-0.00401409
0.000521606
-0.00473653
0.00064907
-0.00544666
0.000781746
-0.00614001
0.000917113
-0.00681284
0.00105286
-0.00746224
0.00118696
-0.0080864
0.00131776
-0.00868465
0.00144401
-0.00925749
0.00156485
-0.00980642
0.00167984
-0.0103338
0.0017889
-0.0108425
0.00189221
-0.011336
0.00199038
-0.0118151
-0.012288
0.00208367
1.56375e-05
-0.000388193
5.60032e-05
-0.00113304
0.000117744
-0.00188078
0.00019775
-0.00263101
0.000293252
-0.00337945
0.000401454
-0.00412229
0.000519586
-0.00485466
0.000644869
-0.00557194
0.000774605
-0.00626975
0.00090625
-0.00694449
0.00103751
-0.0075935
0.00116642
-0.00821531
0.00129141
-0.00880964
0.00141132
-0.0093774
0.00152542
-0.00992052
0.0016334
-0.0104418
0.00173529
-0.0109444
0.0018314
-0.0114321
0.00192243
-0.0119061
-0.0123743
0.00200875
1.57917e-05
-0.000403985
5.63887e-05
-0.00117363
0.000118271
-0.00194266
0.000198167
-0.0027109
0.000293164
-0.00347444
0.000400335
-0.00422946
0.000516798
-0.00497112
0.000639695
-0.00569484
0.000766283
-0.00639634
0.000894009
-0.00707221
0.00102061
-0.0077201
0.00114418
-0.00833888
0.00126324
-0.0089287
0.00137674
-0.00949091
0.00148409
-0.0100279
0.00158509
-0.0105428
0.00167988
-0.0110391
0.00176887
-0.0115211
0.00185286
-0.0119901
-0.0124538
0.00193232
1.59287e-05
-0.000419913
5.67069e-05
-0.00121441
0.000118648
-0.0020046
0.00019832
-0.00279057
0.000292667
-0.00356879
0.000398635
-0.00433543
0.000513241
-0.00508573
0.000633554
-0.00581515
0.000756795
-0.00651958
0.000880414
-0.00719583
0.00100219
-0.00784187
0.00112029
-0.00845698
0.00123333
-0.00904174
0.00134038
-0.00959796
0.00144097
-0.0101285
0.00153501
-0.0106368
0.00162277
-0.0111269
0.00170476
-0.0116031
0.00178181
-0.0120672
-0.0125265
0.00185451
1.60478e-05
-0.000435961
5.69558e-05
-0.00125532
0.000118871
-0.00206652
0.000198203
-0.00286991
0.000291755
-0.00366234
0.000396352
-0.00444002
0.000508914
-0.00519829
0.000626451
-0.00593269
0.000746155
-0.00663928
0.000865493
-0.00731517
0.00098229
-0.00795867
0.0010948
-0.00856949
0.00120175
-0.00914868
0.00130232
-0.00969854
0.00139616
-0.0102223
0.0014833
-0.010724
0.00156411
-0.0112077
0.00163918
-0.0116781
0.00170942
-0.0121374
-0.0125925
0.00177547
1.61483e-05
-0.000452109
5.71335e-05
-0.0012963
0.000118938
-0.00212832
0.000197811
-0.00294878
0.000290424
-0.00375495
0.000393482
-0.00454308
0.000503821
-0.00530863
0.000618394
-0.00604726
0.000734383
-0.00675527
0.000849278
-0.00743006
0.000960964
-0.00807036
0.00106779
-0.00867631
0.00116858
-0.00924948
0.00126265
-0.00979261
0.00134977
-0.0103094
0.00143007
-0.0108043
0.00150402
-0.0112817
0.00157228
-0.0117464
0.00163581
-0.0122009
-0.012652
0.00169531
1.62299e-05
-0.000468339
5.72382e-05
-0.00133731
0.000118843
-0.00218993
0.000197141
-0.00302708
0.00028867
-0.00384648
0.000390025
-0.00464444
0.000497964
-0.00541657
0.000609396
-0.00615869
0.0007215
-0.00686738
0.000831802
-0.00754036
0.000938258
-0.00817681
0.00103931
-0.00877737
0.00113391
-0.00934407
0.00122148
-0.00988018
0.0013019
-0.0103898
0.00137543
-0.0108778
0.00144262
-0.0113488
0.00150418
-0.0118079
0.0015611
-0.0122578
-0.0127051
0.00161416
1.62919e-05
-0.000484631
5.72683e-05
-0.00137829
0.000118586
-0.00225124
0.00019619
-0.00310468
0.000286491
-0.00393678
0.000385981
-0.00474393
0.000491348
-0.00552194
0.000599469
-0.00626682
0.00070753
-0.00697544
0.000813101
-0.00764594
0.00091422
-0.00827793
0.00100943
-0.00887258
0.0010978
-0.00943244
0.00117888
-0.00996126
0.00125267
-0.0104636
0.0013195
-0.0109446
0.00138001
-0.0114094
0.00143498
-0.0118629
0.00148542
-0.0123083
-0.0127518
0.00153213
1.63339e-05
-0.000500965
5.72222e-05
-0.00141918
0.000118163
-0.00231219
0.000194954
-0.00318147
0.000283885
-0.00402572
0.000381352
-0.00484139
0.000483981
-0.00562457
0.000588629
-0.00637146
0.000692497
-0.00707931
0.000793215
-0.00774665
0.000888905
-0.00837362
0.000978222
-0.00896189
0.00106035
-0.00951457
0.00113496
-0.0100359
0.00120216
-0.0105308
0.00126238
-0.0110049
0.00131632
-0.0114633
0.00136481
-0.0119114
0.00140887
-0.0123523
-0.0127922
0.00144933
1.63553e-05
-0.00051732
5.70985e-05
-0.00145992
0.000117572
-0.00237266
0.000193432
-0.00325733
0.000280852
-0.00411313
0.000376141
-0.00493668
0.000475873
-0.0057243
0.000576892
-0.00647248
0.000676432
-0.00717885
0.000772184
-0.00784241
0.000862366
-0.0084638
0.000945746
-0.00904527
0.00102163
-0.00959045
0.0010898
-0.010104
0.00115048
-0.0105915
0.00120417
-0.0110586
0.00125165
-0.0115108
0.00129377
-0.0119535
0.00133157
-0.0123901
-0.0128265
0.00136587
1.63558e-05
-0.000533676
5.68958e-05
-0.00150046
0.000116812
-0.00243258
0.000191622
-0.00333214
0.000277392
-0.0041989
0.000370351
-0.00502964
0.000467032
-0.00582098
0.000564279
-0.00656973
0.000659363
-0.00727393
0.00075005
-0.00793309
0.000834659
-0.00854841
0.000912073
-0.00912269
0.000981717
-0.00966009
0.0010435
-0.0101658
0.00109772
-0.0106457
0.00114498
-0.0111058
0.0011861
-0.0115519
0.00122196
-0.0119894
0.00125359
-0.0124218
-0.0128548
0.00128183
1.6335e-05
-0.000550011
5.6613e-05
-0.00154074
0.00011588
-0.00249184
0.000189523
-0.00340579
0.000273507
-0.00428289
0.000363989
-0.00512012
0.000457472
-0.00591446
0.00055081
-0.00666307
0.000641322
-0.00736444
0.000726857
-0.00801863
0.000805839
-0.00862739
0.000877271
-0.00919412
0.000940697
-0.00972352
0.000996135
-0.0102213
0.00104398
-0.0106936
0.00108491
-0.0111468
0.00111977
-0.0115868
0.00114948
-0.0120191
0.00117506
-0.0124473
-0.012877
0.00119732
1.62925e-05
-0.000566304
5.62491e-05
-0.0015807
0.000114775
-0.00255037
0.000187135
-0.00347815
0.000269197
-0.00436495
0.000357061
-0.00520799
0.000447207
-0.00600461
0.000536508
-0.00675237
0.000622344
-0.00745028
0.000702651
-0.00809893
0.000775965
-0.00870071
0.000841409
-0.00925956
0.000898646
-0.00978075
0.000947799
-0.0102704
0.000989354
-0.0107351
0.00102404
-0.0111815
0.00105276
-0.0116155
0.00107642
-0.0120428
0.00109604
-0.0124669
-0.0128934
0.00111242
1.62279e-05
-0.000582532
5.58031e-05
-0.00162027
0.000113497
-0.00260806