/*--------------------------------*- C++ -*----------------------------------*\
  =========                 |
  \\      /  F ield         | OpenFOAM: The Open Source CFD Toolbox
   \\    /   O peration     | Website:  https://openfoam.org
    \\  /    A nd           | Version:  7
     \\/     M anipulation  |
\*---------------------------------------------------------------------------*/
FoamFile
{
    version     2.0;
    format      ascii;
    class       volVectorField;
    location    "20";
    object      U;
}
// * * * * * * * * * * * * * * * * * * * * * * * * * * * * * * * * * * * * * //

dimensions      [0 1 -1 0 0 0 0];

internalField   nonuniform List<vector> 
12100
(
(-0.00672634 0.00258904 -2.12536e-20)
(-0.0287886 0.00446656 -2.52157e-20)
(-0.0587103 0.00496476 3.11196e-21)
(-0.0851587 0.0049074 -7.961e-21)
(-0.109377 0.00464577 3.84784e-20)
(-0.130534 0.00435076 1.20843e-20)
(-0.149274 0.00407595 -1.68024e-20)
(-0.165938 0.00383478 1.7886e-20)
(-0.180893 0.00362378 -2.43784e-20)
(-0.194393 0.00343492 1.41781e-20)
(-0.206631 0.0032588 7.37681e-21)
(-0.21773 0.00308425 2.66724e-21)
(-0.227755 0.00289809 -8.61523e-21)
(-0.236724 0.00268641 -4.88502e-21)
(-0.244567 0.00242646 -3.20248e-21)
(-0.251126 0.00208582 1.32724e-20)
(-0.256405 0.00173662 -1.55444e-20)
(-0.259752 0.00111318 -3.29285e-21)
(-0.261989 0.000940579 3.81668e-21)
(-0.260908 7.44668e-05 -1.07162e-20)
(-0.0070131 0.00771247 1.08959e-21)
(-0.0290315 0.0133195 -1.59021e-20)
(-0.0585604 0.0148117 -3.30109e-20)
(-0.084484 0.0146398 2.65027e-20)
(-0.108056 0.0138539 1.68372e-20)
(-0.128458 0.012965 2.55888e-21)
(-0.146314 0.0121337 4.85851e-20)
(-0.161947 0.0114006 -7.79692e-20)
(-0.175697 0.0107553 4.74001e-20)
(-0.187794 0.0101736 -3.68522e-20)
(-0.198403 0.00962752 4.40733e-21)
(-0.207618 0.00908402 -2.11913e-20)
(-0.215473 0.00850453 7.67197e-21)
(-0.221964 0.0078492 1.53265e-20)
(-0.227012 0.007057 2.55306e-20)
(-0.230369 0.00600271 1.53152e-20)
(-0.232296 0.00500222 4.25301e-20)
(-0.231456 0.00297469 4.03094e-21)
(-0.230013 0.00258981 -3.45448e-20)
(-0.222872 -0.000424697 2.56273e-20)
(-0.00757831 0.0126767 -6.03847e-21)
(-0.0295136 0.0219372 -2.27665e-20)
(-0.0582664 0.0244141 3.23754e-20)
(-0.0831483 0.0241277 2.48511e-20)
(-0.105437 0.0228147 -8.33064e-20)
(-0.124337 0.0213202 1.07614e-20)
(-0.140439 0.0199127 -8.16935e-20)
(-0.154029 0.0186599 6.58192e-21)
(-0.165402 0.0175448 -1.83303e-20)
(-0.17474 0.0165272 3.62396e-20)
(-0.182157 0.0155607 -1.12924e-20)
(-0.187698 0.0145919 1.27942e-20)
(-0.191343 0.0135596 -1.29118e-20)
(-0.193046 0.0124022 -2.45659e-20)
(-0.192749 0.0110497 -2.81829e-20)
(-0.189915 0.00918036 -3.43086e-20)
(-0.185661 0.0077042 -6.91861e-20)
(-0.17663 0.00385464 2.56521e-20)
(-0.168929 0.00364905 2.15183e-20)
(-0.150248 -0.00230623 6.69664e-20)
(-0.00840619 0.0173842 3.04222e-20)
(-0.0302276 0.0301701 1.20636e-19)
(-0.0578388 0.0336131 -3.90472e-20)
(-0.0811767 0.0332109 -7.92471e-20)
(-0.101559 0.0313657 -4.55576e-20)
(-0.118228 0.0292479 6.30595e-20)
(-0.131731 0.0272337 7.8563e-20)
(-0.142302 0.025419 -5.68378e-21)
(-0.150177 0.0237809 -1.77818e-21)
(-0.155474 0.0222633 -1.04962e-19)
(-0.158246 0.0208025 -4.95372e-20)
(-0.158475 0.0193265 2.3085e-20)
(-0.15608 0.0177563 2.85478e-21)
(-0.150948 0.0160096 2.25346e-20)
(-0.143174 0.0140753 -6.71185e-20)
(-0.131422 0.0112348 2.61429e-20)
(-0.119031 0.00953248 3.80755e-20)
(-0.0979411 0.00355324 4.3907e-20)
(-0.082746 0.00368372 -2.34141e-20)
(-0.0475571 -0.00508656 -5.41197e-20)
(-0.00947457 0.021748 -8.27375e-20)
(-0.0311625 0.0378785 -2.35743e-20)
(-0.057291 0.0422555 6.99948e-20)
(-0.0786022 0.0417328 3.63003e-20)
(-0.0964736 0.0393482 1.76958e-19)
(-0.110204 0.0365849 -1.63284e-19)
(-0.120288 0.0339266 -9.12108e-20)
(-0.126902 0.031499 -4.35268e-21)
(-0.130211 0.0292749 -1.58033e-21)
(-0.130264 0.0271833 2.14192e-20)
(-0.127046 0.0251452 3.12307e-20)
(-0.120478 0.0230715 -8.41968e-20)
(-0.110423 0.0208742 1.01708e-19)
(-0.096639 0.0184457 5.18601e-20)
(-0.0797068 0.0158931 7.97246e-20)
(-0.0565333 0.0120522 -2.02233e-21)
(-0.0348219 0.0098727 -1.88329e-20)
(0.00185812 0.00290928 1.8797e-21)
(0.0249356 0.00161222 -2.82809e-20)
(0.0808006 -0.00761907 -5.03384e-20)
(-0.0107565 0.0256949 5.38513e-20)
(-0.0323033 0.0449354 4.30233e-21)
(-0.0566368 0.0501963 -1.30339e-19)
(-0.0754605 0.0495417 -6.41231e-20)
(-0.0902347 0.0466083 -2.08928e-19)
(-0.100334 0.0431752 -7.6214e-21)
(-0.1062 0.0398332 -1.0864e-20)
(-0.107943 0.03674 -1.79121e-20)
(-0.10565 0.033867 7.99404e-21)
(-0.0993003 0.0311311 2.2081e-20)
(-0.0888097 0.0284417 1.74464e-19)
(-0.0740389 0.0256943 -1.11293e-21)
(-0.05483 0.0228041 6.08489e-20)
(-0.0306927 0.0196675 -1.47932e-19)
(-0.00314415 0.0162751 1.91107e-20)
(0.0336231 0.0118878 -2.98425e-20)
(0.0655771 0.00849442 -2.37056e-20)
(0.121445 0.00187331 2.23881e-20)
(0.150328 -0.00211449 -4.93438e-20)
(0.233681 -0.00973691 4.96768e-20)
(-0.012222 0.0291682 -1.37603e-19)
(-0.0336311 0.0512298 -2.41835e-19)
(-0.0558861 0.0573009 8.66577e-20)
(-0.0717816 0.056493 -2.39147e-20)
(-0.0828854 0.0529987 1.88086e-19)
(-0.088669 0.0488718 1.79997e-19)
(-0.0895144 0.0448095 -6.15495e-20)
(-0.0854623 0.0410046 8.51662e-20)
(-0.0765183 0.0374321 -1.16024e-19)
(-0.0625798 0.0340018 1.35658e-20)
(-0.0435006 0.0306188 -3.57402e-20)
(-0.0190785 0.0271679 5.60526e-20)
(0.0108227 0.0235581 -1.49945e-21)
(0.0469829 0.0198062 -5.13375e-20)
(0.0866222 0.015359 1.33957e-19)
(0.139369 0.0110947 -5.16369e-20)
(0.181115 0.00575973 -4.35382e-20)
(0.260904 0.00050553 6.73887e-20)
(0.291926 -0.00615057 2.519e-20)
(0.407697 -0.0116815 1.08496e-19)
(-0.0138404 0.0321292 1.01988e-19)
(-0.0351216 0.0566693 1.11355e-19)
(-0.0550404 0.0634474 7.65759e-20)
(-0.0675807 0.062451 2.71176e-19)
(-0.0744414 0.0583804 -5.97801e-20)
(-0.0752063 0.0535392 9.01627e-20)
(-0.0701933 0.0487295 1.16783e-19)
(-0.0593619 0.0441837 -1.46439e-19)
(-0.0426236 0.0398886 3.52559e-19)
(-0.0197863 0.0357544 4.4962e-21)
(0.00935371 0.0316942 -2.24119e-19)
(0.0450518 0.0275954 -2.34059e-20)
(0.0873647 0.023306 -2.15956e-19)
(0.137393 0.019213 1.01665e-19)
(0.190575 0.0136128 -7.5069e-20)
(0.261258 0.0103176 7.79835e-20)
(0.313108 0.00240222 1.08426e-19)
(0.417776 -3.35008e-05 4.20738e-20)
(0.450166 -0.00937439 -1.1725e-19)
(0.595964 -0.0126367 -1.00804e-19)
(-0.0155815 0.0345581 -5.00194e-20)
(-0.0367444 0.0611812 2.92392e-20)
(-0.0540859 0.0685292 -2.32818e-19)
(-0.0628448 0.0672922 -1.32554e-19)
(-0.0648693 0.0626265 -1.0534e-19)
(-0.059862 0.0570576 -5.8532e-20)
(-0.0480631 0.0514912 -2.85748e-19)
(-0.0293313 0.0462066 5.14767e-20)
(-0.00346786 0.0412128 -2.8943e-19)
(0.0298184 0.0364337 -8.27292e-20)
(0.0707667 0.0318035 5.15162e-20)
(0.119637 0.0272273 9.45663e-20)
(0.176295 0.0224419 -2.83399e-20)
(0.241911 0.0184764 1.0988e-19)
(0.310512 0.0118613 6.31433e-21)
(0.398565 0.0102553 -1.17608e-19)
(0.463223 0.00030197 8.19442e-21)
(0.586156 0.000750247 -1.63769e-19)
(0.623459 -0.00998056 3.01142e-20)
(0.786684 -0.0109169 -6.42856e-20)
(-0.0174181 0.036453 1.91039e-19)
(-0.0384611 0.064714 2.17022e-19)
(-0.0529863 0.0724575 5.65834e-20)
(-0.0575182 0.0709084 2.30905e-19)
(-0.0540608 0.0656267 6.38985e-20)
(-0.0424277 0.0593301 1.42279e-19)
(-0.022755 0.0530282 1.59474e-19)
(0.0052272 0.0470577 1.46609e-19)
(0.0418413 0.041466 1.34302e-19)
(0.0874631 0.0362075 -1.10333e-19)
(0.142281 0.0312485 1.7113e-19)
(0.20643 0.0265412 1.6719e-19)
(0.279394 0.0216762 2.14337e-19)
(0.361558 0.0182929 -2.03653e-19)
(0.447221 0.011608 1.88289e-20)
(0.548671 0.0113405 1.73099e-19)
(0.629087 0.00155036 -6.13365e-20)
(0.756847 0.00365242 9.35061e-22)
(0.803694 -0.00687551 -6.83664e-21)
(0.963339 -0.00555018 8.10894e-20)
(-0.0193264 0.0378285 -1.19679e-19)
(-0.0402222 0.0672371 -1.97107e-19)
(-0.0516726 0.0751646 3.40456e-19)
(-0.0514827 0.0732121 -3.46963e-19)
(-0.0418007 0.0672955 -2.46761e-19)
(-0.0225224 0.0602945 -1.05309e-19)
(0.00635987 0.0533279 -4.58392e-20)
(0.0452721 0.0468056 -2.50913e-19)
(0.0946422 0.0408342 -1.47433e-19)
(0.154841 0.035419 -2.34103e-20)
(0.225788 0.0305626 -7.42642e-20)
(0.30717 0.0262678 -4.91399e-20)
(0.397709 0.0220345 -1.15547e-19)
(0.496006 0.0195333 -5.75886e-20)
(0.597844 0.0142623 2.18976e-20)
(0.706658 0.0145263 -1.11707e-19)
(0.800577 0.00693893 1.21387e-20)
(0.918653 0.00941369 7.09968e-21)
(0.974595 -4.67571e-06 -8.27307e-20)
(1.10881 0.00279152 5.44567e-20)
(-0.0212864 0.0387131 1.12029e-19)
(-0.0419637 0.0687409 8.73501e-20)
(-0.0500326 0.0766064 -3.9558e-19)
(-0.044536 0.0741429 -1.32348e-19)
(-0.0277303 0.0675826 1.39419e-19)
(0.000460046 0.0599417 -7.33459e-20)
(0.0402324 0.0524601 1.98804e-19)
(0.0921649 0.0456439 1.88145e-19)
(0.156684 0.0396806 -2.45049e-19)
(0.233895 0.0346388 -7.67931e-20)
(0.323003 0.0305373 2.39177e-19)
(0.422687 0.027353 -2.6856e-19)
(0.530188 0.024615 -2.40672e-19)
(0.642074 0.0233282 3.32702e-19)
(0.754559 0.0203771 -7.18209e-20)
(0.863975 0.0208804 3.47916e-20)
(0.961397 0.0158565 5.00923e-20)
(1.05963 0.0177825 -4.44804e-20)
(1.11653 0.00945516 1.21157e-19)
(1.21142 0.0119682 1.51354e-19)
(-0.0232815 0.0391455 -3.59018e-19)
(-0.0436018 0.0692343 -3.43848e-19)
(-0.0478981 0.0767663 2.53309e-19)
(-0.0363671 0.0736755 1.59707e-19)
(-0.0113072 0.066488 8.47183e-20)
(0.0274016 0.0583407 -6.87644e-20)
(0.0801732 0.0506148 -1.23406e-19)
(0.147638 0.0439405 6.17519e-20)
(0.229919 0.0385961 7.6622e-21)
(0.326308 0.0346842 1.21551e-19)
(0.434565 0.032172 -1.36364e-19)
(0.551613 0.0308532 -5.7876e-20)
(0.672473 0.0302651 1.88301e-19)
(0.792239 0.0305 -2.43849e-19)
(0.905866 0.0296907 -1.35245e-20)
(1.00802 0.0303036 9.92296e-20)
(1.09555 0.0267443 -3.95151e-20)
(1.16935 0.0274155 -5.162e-20)
(1.21608 0.0193067 6.50296e-21)
(1.27115 0.0200913 -6.85045e-20)
(-0.0252973 0.0391711 5.54931e-20)
(-0.0450261 0.0687418 3.61052e-19)
(-0.0450308 0.075658 -1.12158e-19)
(-0.0265315 0.07183 -1.4344e-20)
(0.00823094 0.064082 -1.10587e-19)
(0.0594934 0.05567 -4.14217e-20)
(0.127832 0.0481477 3.69455e-20)
(0.213618 0.0422841 1.20743e-19)
(0.31604 0.0384138 3.35114e-20)
(0.432658 0.0365563 -2.54151e-19)
(0.558894 0.0364811 1.49518e-19)
(0.689236 0.037581 8.53792e-20)
(0.816514 0.0392797 -1.10126e-19)
(0.935162 0.0408264 1.72848e-19)
(1.03934 0.0412269 1.33468e-19)
(1.12589 0.0412671 -3.42474e-20)
(1.19371 0.0377108 1.1767e-21)
(1.24287 0.0365166 -5.29762e-21)
(1.27328 0.0276644 -1.68248e-19)
(1.29831 0.0264329 -2.34839e-19)
(-0.0273194 0.0388378 3.13546e-19)
(-0.0460946 0.0673029 -8.95714e-20)
(-0.041107 0.0733276 -2.2741e-19)
(-0.0144267 0.0686821 3.00863e-19)
(0.0318932 0.0605268 2.6448e-19)
(0.0982281 0.0522549 1.90136e-19)
(0.185065 0.0456214 1.73969e-19)
(0.291837 0.041498 -5.95514e-20)
(0.415724 0.0401387 1.09729e-19)
(0.551394 0.0412387 1.03091e-19)
(0.691265 0.0441467 -8.57755e-20)
(0.827393 0.0476718 6.0479e-20)
(0.951638 0.0510874 5.16846e-20)
(1.05902 0.0530183 -3.91594e-20)
(1.14516 0.0533622 9.35846e-20)
(1.21046 0.0517768 -1.03065e-19)
(1.2557 0.0472749 1.2284e-19)
(1.28387 0.0438184 2.40395e-19)
(1.29925 0.0339916 1.19296e-19)
(1.30661 0.0312553 1.88592e-19)
(-0.029329 0.0381897 -9.8944e-20)
(-0.0466321 0.0649761 5.38163e-20)
(-0.035703 0.0698513 1.31745e-19)
(0.000726363 0.0643732 -3.65035e-19)
(0.0609375 0.0561016 -6.16954e-20)
(0.145318 0.0486025 -3.07297e-19)
(0.25364 0.0438224 1.24603e-19)
(0.383185 0.042578 -2.9711e-19)
(0.527707 0.0447434 1.15594e-19)
(0.678064 0.049358 -2.71838e-19)
(0.823863 0.0551404 1.14023e-20)
(0.956003 0.0603569 3.35321e-20)
(1.06749 0.064259 -5.70592e-20)
(1.15566 0.0653183 -1.44007e-19)
(1.21956 0.0644214 -2.51099e-21)
(1.26306 0.0605057 1.73948e-19)
(1.28876 0.0548711 -1.4604e-19)
(1.30211 0.049122 -3.34196e-19)
(1.30746 0.0388466 -2.49659e-19)
(1.30618 0.0351435 9.39825e-20)
(-0.0312933 0.0372613 3.12982e-21)
(-0.0464206 0.0618276 2.39269e-19)
(-0.0282941 0.0653436 -6.26212e-20)
(0.0198883 0.0591255 -2.1258e-20)
(0.0968306 0.0512279 6.98538e-20)
(0.202497 0.0454218 2.39666e-19)
(0.334724 0.043717 -1.17334e-19)
(0.486913 0.0465098 -1.05329e-19)
(0.648105 0.0528432 6.92932e-20)
(0.805465 0.0608339 1.5352e-19)
(0.947366 0.0685713 -2.4905e-19)
(1.06595 0.0741487 1.8861e-19)
(1.15756 0.0770799 2.44753e-20)
(1.22318 0.0762678 6.4178e-20)
(1.26561 0.0734429 -1.40299e-19)
(1.29105 0.0672143 -4.04216e-20)
(1.30289 0.0607603 -3.79945e-20)
(1.3075 0.0529378 3.99075e-20)
(1.30717 0.0430368 1.46016e-19)
(1.30226 0.0384048 -3.12322e-19)
(-0.0331603 0.0360731 -2.64589e-20)
(-0.0451894 0.0579283 -2.32298e-20)
(-0.0182503 0.0599642 2.66484e-19)
(0.0441851 0.0532522 1.36958e-19)
(0.141143 0.0464887 -1.23659e-19)
(0.271174 0.0436066 3.54942e-20)
(0.428227 0.0463067 3.89877e-20)
(0.599978 0.0539686 3.44188e-19)
(0.770526 0.0643787 -2.88757e-19)
(0.925107 0.0747639 -4.08082e-19)
(1.05362 0.08295 -4.00247e-19)
(1.15195 0.0874294 -8.87304e-20)
(1.22098 0.0882861 2.43297e-20)
(1.26534 0.0852103 -1.38051e-19)
(1.29044 0.080377 -1.16129e-20)
(1.3031 0.0723957 2.81316e-20)
(1.30645 0.0654742 -2.06034e-20)
(1.30649 0.0558854 2.82157e-19)
(1.30298 0.0471293 5.45509e-21)
(1.29711 0.041061 2.93428e-19)
(-0.0348544 0.0346343 2.25426e-20)
(-0.0426164 0.0533606 -3.02463e-19)
(-0.00483644 0.0539097 7.88142e-20)
(0.0748656 0.0471704 -2.6405e-19)
(0.195353 0.0426346 3.34319e-19)
(0.351928 0.0441461 -2.24899e-19)
(0.532162 0.052372 9.11291e-21)
(0.717015 0.0650131 -1.86012e-20)
(0.887311 0.0785188 -2.29027e-19)
(1.02956 0.0897051 5.59463e-19)
(1.138 0.0967667 2.35296e-19)
(1.2136 0.0990767 -3.35794e-20)
(1.26149 0.0974185 -1.1799e-19)
(1.28866 0.0922397 -2.12286e-19)
(1.30147 0.085708 -5.93405e-21)
(1.30602 0.0766781 -9.68602e-20)
(1.30464 0.0693889 8.34696e-20)
(1.30238 0.0585039 -4.22437e-20)
(1.29697 0.0514404 -3.27116e-19)
(1.29167 0.0429112 -1.28801e-19)
(-0.0362919 0.0329649 -1.62868e-19)
(-0.0383078 0.0481956 2.08809e-19)
(0.0127766 0.0474177 -1.8167e-19)
(0.113222 0.0414174 -1.98306e-19)
(0.260534 0.0405612 -3.66247e-19)
(0.443947 0.0479398 1.43844e-19)
(0.64243 0.0621806 -9.91867e-20)
(0.831265 0.07897 -2.86815e-19)
(0.991551 0.0939192 2.47858e-19)
(1.11445 0.10422 -1.99381e-19)
(1.2001 0.10901 2.86572e-19)
(1.25424 0.108703 3.28145e-19)
(1.28479 0.104659 1.76249e-19)
(1.29949 0.0978021 2.68191e-19)
(1.30432 0.0900115 -4.51286e-20)
(1.30409 0.0804802 6.49195e-20)
(1.30027 0.0727221 -2.40353e-20)
(1.29682 0.0613238 1.47951e-19)
(1.29018 0.0558479 7.29432e-20)
(1.28625 0.0436157 8.37325e-20)
(-0.0373714 0.0310635 8.48018e-19)
(-0.0318209 0.0425022 -2.12268e-19)
(0.0354872 0.040791 1.85474e-19)
(0.160447 0.0366754 2.25437e-19)
(0.336932 0.0412202 3.45411e-19)
(0.544629 0.0555312 -1.8227e-19)
(0.753354 0.0753194 1.06948e-19)
(0.936236 0.0946345 -1.44172e-19)
(1.07882 0.109208 -2.64613e-19)
(1.17902 0.11733 1.36517e-19)
(1.24265 0.119321 -2.43101e-19)
(1.27877 0.116471 -1.53409e-19)
(1.29634 0.110456 1.75435e-20)
(1.30266 0.102374 7.42068e-20)
(1.30264 0.0937357 -1.39912e-20)
(1.29973 0.0839868 1.31459e-19)
(1.29477 0.0757292 1.41367e-20)
(1.29064 0.0646694 -3.43214e-19)
(1.28347 0.0594983 1.54373e-19)
(1.28055 0.042692 -1.42566e-19)
(-0.0379587 0.0289183 -5.95663e-19)
(-0.0226766 0.0363846 2.54077e-19)
(0.0642374 0.0344011 -2.65324e-20)
(0.21743 0.0337455 -1.28981e-19)
(0.423533 0.0453937 -3.84467e-19)
(0.649671 0.0668508 2.72569e-19)
(0.858889 0.0907776 -2.46669e-19)
(1.02722 0.11068 1.08686e-19)
(1.14771 0.123386 1.33553e-19)
(1.2252 0.128637 -5.67446e-19)
(1.26973 0.12782 1.08943e-19)
(1.2919 0.122784 1.94768e-20)
(1.3004 0.115268 2.37807e-19)
(1.30138 0.106343 -2.87491e-20)
(1.29856 0.0971594 -3.1017e-20)
(1.29422 0.0872937 -2.25572e-20)
(1.28878 0.0787185 1.33231e-19)
(1.28418 0.0682168 1.01185e-19)
(1.27722 0.0613613 3.24696e-20)
(1.27424 0.0499278 8.93126e-20)
(-0.037904 0.026519 -4.3474e-20)
(-0.0103484 0.029949 -3.82314e-19)
(0.0999673 0.0286951 2.09082e-19)
(0.284509 0.0334719 1.37762e-19)
(0.517912 0.0534541 -1.11618e-19)
(0.753968 0.0812223 -3.45218e-19)
(0.954209 0.107333 2.31831e-19)
(1.10216 0.126081 -5.99149e-20)
(1.19938 0.135981 4.33683e-20)
(1.25634 0.138185 3.55758e-19)
(1.28547 0.134848 -1.90256e-19)
(1.29744 0.128063 -1.75697e-19)
(1.29991 0.119454 -1.60863e-19)
(1.29765 0.109966 -3.03568e-20)
(1.29327 0.100418 -1.18768e-20)
(1.28819 0.0905017 1.08624e-19)
(1.28258 0.0817883 -5.71538e-20)
(1.27772 0.0711713 -6.68256e-20)
(1.27096 0.0652582 -1.52889e-19)
(1.26792 0.0524946 -1.0296e-19)
(-0.0370302 0.0238507 -1.8412e-20)
(0.00573004 0.0233272 2.23791e-19)
(0.143503 0.0242558 -3.91448e-19)
(0.361102 0.0366214 7.75198e-20)
(0.616348 0.0652382 2.67063e-19)
(0.852619 0.0976203 5.03167e-20)
(1.03635 0.123925 7.98725e-20)
(1.16115 0.140247 1.44343e-19)
(1.23626 0.146925 -1.62693e-19)
(1.27591 0.146239 -1.20662e-19)
(1.29327 0.140785 2.24373e-19)
(1.29814 0.132659 4.15803e-19)
(1.29675 0.123275 4.61618e-20)
(1.29259 0.113403 -1.6362e-19)
(1.28738 0.103599 6.17199e-21)
(1.28193 0.0936896 -1.40233e-19)
(1.27628 0.0846776 3.44793e-20)
(1.27126 0.074618 -6.84551e-20)
(1.26477 0.0677442 -2.5949e-19)
(1.26188 0.0561708 1.35272e-19)
(-0.035139 0.0209039 4.46948e-20)
(0.0261592 0.0167024 4.20073e-19)
(0.195411 0.0218065 -1.27339e-19)
(0.445518 0.0436517 3.47674e-19)
(0.714525 0.0800812 -2.83655e-19)
(0.941915 0.114982 3.34852e-19)
(1.1043 0.139821 -2.72214e-19)
(1.20569 0.152961 1.76439e-19)
(1.26122 0.156376 -1.14988e-19)
(1.287 0.153128 1.19656e-20)
(1.29576 0.145969 -1.35039e-19)
(1.29585 0.136837 -2.35514e-19)
(1.29208 0.1269 -1.16566e-19)
(1.28684 0.116748 8.10809e-20)
(1.28119 0.106756 2.75167e-20)
(1.27556 0.0967928 7.59881e-20)
(1.26993 0.0876869 -1.84482e-20)
(1.26482 0.0775859 2.27319e-19)
(1.25867 0.070783 2.1889e-19)
(1.25564 0.0593197 9.09352e-20)
(-0.0320127 0.0176802 -4.04583e-19)
(0.0515581 0.010345 -3.78906e-19)
(0.255797 0.0221445 2.92412e-19)
(0.535031 0.0545427 -1.75694e-20)
(0.808417 0.0970615 4.04495e-19)
(1.01973 0.132455 -2.43543e-19)
(1.15855 0.154635 1.05843e-19)
(1.23798 0.164256 -1.36937e-19)
(1.277 0.164597 2.57007e-19)
(1.29212 0.159171 -1.02561e-19)
(1.29479 0.150669 1.00558e-19)
(1.29177 0.140782 -6.84679e-21)
(1.28656 0.130431 7.89139e-20)
(1.28071 0.120055 -1.03511e-20)
(1.27483 0.109886 1.21614e-19)
(1.26912 0.0998963 2.49347e-20)
(1.26353 0.0905415 -4.37875e-21)
(1.25839 0.0807027 -1.553e-19)
(1.25254 0.073397 -5.97447e-20)
(1.24947 0.0622158 -8.69636e-20)
(-0.0274132 0.0141965 5.8116e-19)
(0.0825259 0.00466006 -3.67242e-19)
(0.324097 0.0259794 9.29722e-20)
(0.626303 0.0688191 -3.63882e-19)
(0.894943 0.115277 -2.54663e-19)
(1.08537 0.149473 2.76905e-20)
(1.20044 0.168238 4.96448e-20)
(1.26031 0.174294 -1.38989e-19)
(1.28596 0.17187 2.52189e-20)
(1.29313 0.164639 1.96776e-19)
(1.29162 0.155084 -1.45069e-19)
(1.28662 0.144614 -8.72264e-20)
(1.28055 0.133929 -4.81483e-20)
(1.27437 0.123344 -4.33332e-20)
(1.26837 0.113015 -5.57624e-20)
(1.26263 0.102926 1.05224e-19)
(1.25709 0.0934267 -5.15469e-20)
(1.25195 0.0835882 -1.08518e-20)
(1.2464 0.0760089 1.43027e-19)
(1.24317 0.0650679 1.55941e-19)
(-0.0210755 0.0104914 -1.3816e-19)
(0.119564 0.000226302 3.40987e-19)
(0.398977 0.0337269 2.01959e-19)
(0.715991 0.0857476 -2.2758e-19)
(0.972202 0.13401 2.80273e-19)
(1.13918 0.165723 -1.65323e-21)
(1.23171 0.180666 2.50686e-19)
(1.27483 0.183299 1.63264e-19)
(1.28997 0.178455 1.44766e-19)
(1.29139 0.169744 -1.39423e-19)
(1.28706 0.15935 9.75243e-20)
(1.28083 0.148403 1.02938e-19)
(1.27425 0.137422 1.72941e-19)
(1.26787 0.12663 -9.15445e-20)
(1.26181 0.116123 -9.73263e-23)
(1.25607 0.105932 -8.85739e-20)
(1.2506 0.0962146 3.42073e-21)
(1.2455 0.0864436 -3.9744e-20)
(1.24019 0.0784833 -8.4504e-20)
(1.23683 0.067679 -3.21992e-20)
(-0.0127028 0.00663642 -1.25942e-19)
(0.162959 -0.00221029 -1.37785e-19)
(0.478427 0.0453844 -7.03316e-21)
(0.801275 0.104569 2.1574e-19)
(1.03935 0.152763 -2.09584e-19)
(1.18211 0.181077 -2.27966e-19)
(1.25415 0.192041 8.69202e-20)
(1.28337 0.191498 -1.02368e-19)
(1.29046 0.184573 -6.49711e-20)
(1.2878 0.174643 2.53822e-20)
(1.28162 0.163556 -2.20897e-19)
(1.27461 0.152192 2.03759e-19)
(1.26774 0.140925 -1.97077e-20)
(1.26125 0.129911 -4.55913e-20)
(1.25516 0.119219 4.11931e-20)
(1.24945 0.108874 -6.30447e-20)
(1.24404 0.0989767 -5.63696e-20)
(1.23899 0.0891701 -3.43743e-21)
(1.23391 0.0808572 -4.21154e-20)
(1.23039 0.0702114 7.96493e-20)
(-0.00196693 0.00275333 1.45021e-19)
(0.212656 -0.00182379 2.50209e-19)
(0.560035 0.0605774 -3.34813e-19)
(0.880121 0.124642 -1.2365e-19)
(1.09634 0.171224 -5.58064e-20)
(1.21544 0.195522 3.1934e-19)
(1.26943 0.202528 -8.49331e-20)
(1.2874 0.199103 -5.29448e-20)
(1.28848 0.190396 -7.33862e-20)
(1.28298 0.179443 8.81417e-20)
(1.2756 0.167755 3.26727e-20)
(1.26811 0.155997 -3.82317e-20)
(1.26105 0.144438 -1.02878e-19)
(1.2545 0.133186 1.0513e-20)
(1.24842 0.122287 -4.47515e-20)
(1.24274 0.111773 8.04846e-20)
(1.2374 0.101668 1.9904e-20)
(1.23243 0.0918131 2.09905e-20)
(1.22754 0.0831427 2.8743e-20)
(1.2239 0.0725893 -8.39264e-20)
(0.0114767 -0.000965699 -2.72841e-19)
(0.268167 0.00212971 -1.56604e-20)
(0.641342 0.078732 -5.11634e-20)
(0.951297 0.145487 1.46134e-19)
(1.14365 0.189216 -5.03759e-20)
(1.24049 0.209117 -1.4038e-19)
(1.27901 0.212303 -1.96877e-19)
(1.28809 0.206295 1.37965e-19)
(1.28475 0.196054 -1.62031e-19)
(1.27732 0.184214 8.054e-20)
(1.26916 0.171974 4.74382e-20)
(1.26138 0.159825 -2.50566e-20)
(1.25421 0.147958 5.90933e-20)
(1.24763 0.136447 6.66487e-20)
(1.24157 0.125325 -1.4232e-19)
(1.23594 0.114611 1.07446e-19)
(1.23068 0.104309 9.62878e-21)
(1.22579 0.0943541 1.87078e-20)
(1.22106 0.0853299 9.09521e-20)
(1.21733 0.0748684 2.28002e-20)
(0.0279494 -0.00423822 8.11319e-20)
(0.328562 0.0101406 -3.24798e-19)
(0.720141 0.0992489 3.03144e-19)
(1.01423 0.166767 1.37386e-19)
(1.18203 0.206657 -1.02066e-19)
(1.25856 0.221958 -1.67892e-19)
(1.28413 0.22153 5.70387e-21)
(1.2863 0.213219 -3.29758e-20)
(1.27979 0.201636 2.78856e-19)
(1.27105 0.188995 -1.27238e-19)
(1.2624 0.176222 -1.46363e-20)
(1.25443 0.163673 3.37108e-20)
(1.24721 0.151478 -2.10245e-20)
(1.24063 0.139687 -4.33123e-20)
(1.2346 0.128323 1.22584e-19)
(1.22903 0.117394 -1.01379e-19)
(1.22387 0.106883 1.25893e-20)
(1.21907 0.0967997 -5.79155e-20)
(1.21448 0.087437 -6.16164e-20)
(1.21069 0.0770351 -2.00641e-20)
(0.0476972 -0.00668734 -5.84348e-20)
(0.392555 0.0223503 1.35836e-19)
(0.79466 0.121599 -1.22654e-19)
(1.06881 0.188246 -1.26416e-19)
(1.21241 0.223522 2.09141e-19)
(1.27084 0.234158 2.21408e-19)
(1.28575 0.230355 1.06894e-19)
(1.28267 0.219986 -1.82905e-21)
(1.27392 0.207199 -2.74219e-19)
(1.26432 0.193805 2.31735e-20)
(1.25535 0.180499 8.76743e-21)
(1.24728 0.16753 5.93501e-20)
(1.24004 0.154986 9.76947e-20)
(1.23349 0.142897 -5.13079e-21)
(1.22751 0.131274 -2.24732e-20)
(1.22202 0.120112 9.11257e-20)
(1.21695 0.109392 -5.99259e-20)
(1.21224 0.099148 7.42112e-20)
(1.2078 0.0894587 -6.71012e-21)
(1.20399 0.0791067 7.70148e-20)
(0.0708411 -0.00786174 1.01845e-19)
(0.458658 0.0385776 5.31911e-20)
(0.863619 0.145345 -1.20445e-19)
(1.11526 0.20975 -1.48369e-19)
(1.23571 0.239824 -1.04554e-20)
(1.27833 0.245826 -2.43026e-20)
(1.28466 0.238897 1.19599e-19)
(1.27766 0.22667 8.32945e-20)
(1.26735 0.212773 8.9633e-20)
(1.25719 0.198647 -3.26212e-20)
(1.24803 0.184794 4.31328e-20)
(1.23992 0.171385 -3.97183e-20)
(1.23269 0.158471 -8.10557e-20)
(1.22619 0.146067 9.87026e-21)
(1.22029 0.134169 2.1275e-20)
(1.21489 0.122762 2.54894e-20)
(1.20993 0.111828 3.41578e-20)
(1.20532 0.101398 -2.06569e-20)
(1.20101 0.0914048 4.02105e-20)
(1.19721 0.0810849 -9.30974e-20)
(0.0973394 -0.00728161 1.34444e-19)
(0.525325 0.0584304 -1.20655e-20)
(0.926207 0.170133 1.69195e-19)
(1.154 0.231147 1.02721e-19)
(1.25285 0.255595 4.59257e-20)
(1.28191 0.257068 -1.12311e-19)
(1.28144 0.247247 -1.06457e-19)
(1.27156 0.233319 -2.95989e-20)
(1.2602 0.218371 -7.99594e-21)
(1.24969 0.203513 -7.79068e-21)
(1.24045 0.189094 -1.03958e-19)
(1.23234 0.175221 2.28721e-20)
(1.22516 0.161919 4.15004e-20)
(1.21873 0.149183 1.25576e-21)
(1.21292 0.136998 5.05063e-21)
(1.20763 0.125338 -1.29372e-20)
(1.20279 0.114185 -3.16797e-20)
(1.1983 0.103551 -2.64713e-20)
(1.19412 0.0932741 -5.55995e-20)
(1.19036 0.0829753 8.58682e-21)
(0.126975 -0.00450305 -8.25749e-20)
(0.591085 0.0814307 5.09864e-20)
(0.982 0.195676 -2.09449e-20)
(1.18553 0.252325 4.88175e-21)
(1.26465 0.270875 -1.88778e-19)
(1.28228 0.26797 4.66571e-20)
(1.27652 0.255468 3.00306e-20)
(1.26459 0.239958 -2.07511e-20)
(1.25254 0.223987 7.42143e-20)
(1.24185 0.208386 -1.21405e-21)
(1.23259 0.193378 3.26005e-20)
(1.22453 0.179022 3.82501e-20)
(1.21743 0.165314 -2.62676e-20)
(1.21111 0.152233 -3.11361e-20)
(1.20542 0.139752 -1.69934e-20)
(1.20025 0.127834 -1.83106e-20)
(1.19553 0.116457 1.61362e-20)
(1.19117 0.105605 1.87345e-20)
(1.18712 0.0950705 3.03705e-20)
(1.18342 0.0847804 3.5244e-20)
(0.15937 0.000818979 -3.85078e-20)
(0.654616 0.107096 -7.52023e-21)
(1.03087 0.221743 -6.82295e-20)
(1.21043 0.273191 6.30255e-20)
(1.27186 0.285702 1.35556e-19)
(1.28001 0.2786 7.39132e-20)
(1.27022 0.263599 -3.32492e-20)
(1.25688 0.24659 -1.9411e-20)
(1.24442 0.229606 -4.39838e-20)
(1.23367 0.213243 4.23373e-20)
(1.22445 0.197626 -1.65397e-21)
(1.21649 0.182767 -2.10935e-20)
(1.20951 0.168639 -2.49132e-20)
(1.20331 0.155204 -2.39765e-20)
(1.19776 0.142419 4.99956e-20)
(1.19274 0.130239 -1.70002e-20)
(1.18816 0.118635 -1.85301e-20)
(1.18394 0.107558 -3.20889e-21)
(1.18003 0.0967926 -3.32428e-21)
(1.1764 0.086501 -1.95994e-20)
(0.194016 0.00888971 -3.8261e-21)
(0.714796 0.134973 -5.05594e-20)
(1.07289 0.24814 2.3332e-20)
(1.22929 0.293671 -8.27924e-20)
(1.27511 0.300109 -5.7687e-20)
(1.27554 0.289007 8.58119e-21)
(1.26276 0.271658 -8.53547e-22)
(1.2485 0.253203 3.79075e-21)
(1.23585 0.235204 1.19474e-20)
(1.22513 0.21806 2.11727e-20)
(1.21603 0.201813 -2.88102e-20)
(1.2082 0.186436 1.22981e-20)
(1.20137 0.171877 2.15536e-20)
(1.19534 0.15808 -4.71145e-21)
(1.18995 0.144988 -2.1094e-20)
(1.1851 0.132544 1.19036e-20)
(1.18068 0.120712 1.36956e-20)
(1.1766 0.109409 1.39669e-20)
(1.17284 0.0984399 -7.16123e-21)
(1.16929 0.0881368 2.60768e-21)
(0.23031 0.0197674 4.27367e-20)
(0.770717 0.164636 -5.8928e-20)
(1.10827 0.274695 -8.00697e-21)
(1.24269 0.313702 3.38655e-20)
(1.27496 0.314117 5.44857e-20)
(1.26922 0.299216 -1.66581e-20)
(1.25431 0.279641 -4.75032e-20)
(1.2395 0.259775 4.70628e-20)
(1.22683 0.24075 -1.27083e-20)
(1.21623 0.222805 -1.46485e-20)
(1.2073 0.205912 1.33551e-20)
(1.19966 0.190006 -6.65041e-21)
(1.19303 0.175009 -1.95789e-21)
(1.18719 0.160846 5.24662e-21)
(1.182 0.147445 7.56844e-21)
(1.17733 0.134739 9.75621e-21)
(1.17308 0.122679 -1.75146e-20)
(1.16917 0.111155 -4.38431e-21)
(1.16555 0.100008 -1.09608e-21)
(1.16209 0.0896848 5.36519e-21)
(0.267562 0.0333867 -2.34547e-20)
(0.821681 0.195686 4.09553e-20)
(1.1373 0.301245 -5.06772e-21)
(1.25118 0.333233 -1.08914e-20)
(1.27186 0.327738 -3.54602e-20)
(1.26132 0.309237 1.6582e-20)
(1.24496 0.287531 1.08766e-20)
(1.22991 0.266271 -1.20183e-20)
(1.21736 0.246209 -1.96582e-21)
(1.20697 0.227448 5.72403e-21)
(1.19827 0.209895 -6.21446e-21)
(1.19087 0.193452 3.13379e-21)
(1.18447 0.178014 -6.83305e-21)
(1.17886 0.163484 3.92847e-21)
(1.17389 0.149776 8.15703e-22)
(1.16943 0.136813 -3.62892e-21)
(1.16537 0.124529 2.09492e-21)
(1.16164 0.112792 -3.29403e-21)
(1.15818 0.101492 1.0823e-21)
(1.15482 0.0911406 3.89223e-21)
(0.304996 0.0495898 -1.68456e-20)
(0.8672 0.227738 3.58752e-20)
(1.16028 0.327626 -3.74522e-21)
(1.25525 0.352219 -1.40004e-20)
(1.26619 0.340971 -3.26247e-20)
(1.25202 0.319058 1.63263e-20)
(1.23479 0.295298 1.05854e-20)
(1.21975 0.272654 -9.47618e-21)
(1.20744 0.251543 -1.09038e-22)
(1.19734 0.231954 4.46806e-21)
(1.18893 0.213735 -3.9431e-21)
(1.18182 0.196752 -1.08064e-21)
(1.1757 0.180871 -2.3801e-21)
(1.17036 0.165977 1.43003e-21)
(1.16563 0.151967 9.3086e-22)
(1.1614 0.138753 -3.68325e-21)
(1.15756 0.126251 4.13624e-21)
(1.15403 0.114316 -3.99722e-21)
(1.15073 0.102882 -9.82134e-22)
(1.14748 0.0924966 2.54494e-21)
(0.341848 0.0681273 4.87681e-20)
(0.9069 0.260388 -4.83826e-20)
(1.17746 0.353654 -3.45931e-20)
(1.25532 0.370611 4.47272e-20)
(1.25825 0.353809 5.06652e-20)
(1.24147 0.328662 -2.05592e-20)
(1.22383 0.302909 -3.39446e-20)
(1.20901 0.278886 3.70756e-20)
(1.19706 0.256717 -1.03302e-20)
(1.18733 0.236292 -1.2055e-20)
(1.17928 0.217404 9.44282e-21)
(1.17251 0.199883 -1.8204e-21)
(1.16672 0.183563 -4.43448e-21)
(1.16168 0.16831 1.4196e-21)
(1.15723 0.154005 6.8847e-21)
(1.15326 0.140549 8.11082e-21)
(1.14965 0.127837 -1.02251e-20)
(1.14633 0.115716 -2.71216e-21)
(1.14322 0.104174 -1.78116e-21)
(1.14006 0.0937492 3.84656e-21)
(0.37758 0.0887738 2.17274e-20)
(0.94084 0.293371 -7.69051e-20)
(1.1893 0.379218 2.13642e-20)
(1.25184 0.388374 -5.54428e-20)
(1.2483 0.366221 -6.42524e-20)
(1.22977 0.337998 1.03767e-20)
(1.21211 0.310302 4.09694e-21)
(1.1977 0.284906 -4.13566e-21)
(1.18622 0.261677 1.3739e-20)
(1.17694 0.240418 -5.47521e-22)
(1.16933 0.220864 -8.9586e-21)
(1.16295 0.20281 1.81123e-21)
(1.15753 0.18606 1.75559e-20)
(1.15283 0.170457 -1.51031e-21)
(1.1487 0.155871 -6.04681e-21)
(1.145 0.142185 -3.53192e-21)
(1.14164 0.129273 1.54761e-20)
(1.13856 0.116972 6.69906e-21)
(1.13567 0.105363 -3.96671e-21)
(1.13257 0.0949049 -4.71412e-21)
(0.411573 0.111285 -4.82262e-20)
(0.968979 0.326398 -9.20247e-21)
(1.19611 0.404156 -6.66598e-20)
(1.24513 0.405448 7.42068e-20)
(1.23654 0.378168 9.1702e-20)
(1.217 0.347017 3.54288e-20)
(1.19966 0.317424 -6.44092e-21)
(1.18582 0.290668 7.29379e-21)
(1.17491 0.266383 -3.71748e-20)
(1.16617 0.244296 2.66764e-20)
(1.15906 0.224086 -8.07379e-21)
(1.15314 0.205511 -6.19526e-21)
(1.14814 0.188343 -1.69429e-20)
(1.14382 0.172401 -5.16349e-21)
(1.14003 0.157548 8.05988e-21)
(1.13664 0.14365 -5.30547e-21)
(1.13356 0.13055 -6.99437e-21)
(1.13075 0.118076 2.02721e-21)
(1.12805 0.106442 -1.25754e-21)
(1.12506 0.0959586 -1.08223e-20)
(0.443252 0.135396 -7.12712e-20)
(0.991383 0.359194 1.34618e-20)
(1.19822 0.428321 3.22408e-20)
(1.23552 0.421773 -3.50601e-20)
(1.22315 0.389598 -1.25642e-19)
(1.20323 0.355659 1.04004e-20)
(1.18649 0.324212 4.49072e-20)
(1.17337 0.296113 -1.6575e-20)
(1.16315 0.270786 3.56488e-20)
(1.15504 0.247885 -9.50685e-21)
(1.1485 0.227034 2.37171e-20)
(1.1431 0.207952 3.23768e-21)