/*--------------------------------*- C++ -*----------------------------------*\
  =========                 |
  \\      /  F ield         | OpenFOAM: The Open Source CFD Toolbox
   \\    /   O peration     | Website:  https://openfoam.org
    \\  /    A nd           | Version:  7
     \\/     M anipulation  |
\*---------------------------------------------------------------------------*/
FoamFile
{
    version     2.0;
    format      ascii;
    class       surfaceScalarField;
    location    "10";
    object      phi;
}
// * * * * * * * * * * * * * * * * * * * * * * * * * * * * * * * * * * * * * //

dimensions      [0 3 -1 0 0 0 0];

internalField   nonuniform List<scalar> 
5136
(
0.00170603
-0.000294383
0.00204551
-0.000339505
0.00242364
-0.000378139
-0.000455017
0.00287866
0.00116348
-0.000447377
0.00142303
-0.00051717
0.00171969
-0.000591043
0.00206176
-0.000681578
0.00244301
-0.000759387
-0.000912949
0.00290094
0.00118214
-0.000675262
0.00144561
-0.000780637
0.00174686
-0.000892295
0.00209408
-0.0010288
0.00248151
-0.00114682
-0.00137663
0.00294519
0.00120995
-0.000908151
0.00147922
-0.00104991
0.00178727
-0.00120035
0.00214209
-0.00138362
0.00253866
-0.00154338
-0.00184878
0.00301081
0.00124668
-0.00114762
0.00152358
-0.00132681
0.00184052
-0.00151729
0.00220527
-0.00174836
0.00261373
-0.00195185
-0.00233195
0.00309691
0.00129205
-0.00139516
0.00157827
-0.00161303
0.00190608
-0.0018451
0.00228289
-0.00212517
0.0027058
-0.00237475
-0.00282847
0.00320232
0.0013457
-0.00165217
0.00164283
-0.00191015
0.00198329
-0.00218557
0.00237409
-0.00251597
0.0028137
-0.00281437
-0.00334038
0.00332561
0.0014072
-0.00191996
0.00171667
-0.00221962
0.00207139
-0.00254028
0.00247785
-0.00292243
0.00293611
-0.00327262
-0.0038694
0.00346513
0.00147608
0.00179916
-0.0025427
0.00216951
-0.00291063
0.00259304
-0.00334596
0.00307151
-0.00375109
-0.0044169
0.003619
0.00188956
-0.00288047
0.00227669
-0.00329776
0.00271839
-0.00378767
0.00321825
-0.00425095
-0.00498384
0.00378519
0.00198711
-0.00323382
0.00239189
-0.00370254
0.00285255
-0.00424833
0.00337455
-0.00477295
-0.0055708
0.00396151
0.00209096
-0.00360342
0.00251402
-0.00412559
0.00299411
-0.00472842
0.00353856
-0.0053174
-0.0061779
0.00414567
0.00220023
-0.00398975
0.00264191
-0.00456727
0.00314157
-0.00522808
0.00370836
-0.00588419
-0.00680487
0.00433533
0.002314
-0.00439305
0.00277436
-0.00502763
0.00329342
-0.00574714
0.00388198
-0.00647275
-0.007451
0.00452811
0.00243132
-0.00481335
0.00291014
-0.00550645
0.00344811
-0.00628511
0.00405748
-0.00708213
-0.00811519
0.00472167
0.00255121
-0.00525044
0.00304803
-0.00600328
0.00360411
-0.00684119
0.00423293
-0.00771095
-0.00879595
0.0049137
0.00267271
-0.00570392
0.00318678
-0.00651735
0.00375991
-0.00741431
0.00440648
-0.00835752
-0.0094915
0.00510202
0.00279484
-0.00617317
0.00332518
-0.00704769
0.00391403
-0.00800315
0.00457633
-0.00901982
-0.0101997
0.00528457
0.00291664
-0.00665738
0.00346203
-0.00759308
0.00406504
-0.00860617
0.00474081
-0.00969559
-0.0109184
0.00545943
0.00303715
-0.00715555
0.00359618
-0.00815211
0.00421161
-0.0092216
0.00489839
-0.0103824
-0.0116449
0.00562491
0.00315546
-0.00766651
0.00372655
-0.0087232
0.00435248
-0.00984753
0.00504766
-0.0110776
-0.0123767
0.00577951
0.0032707
0.00385209
-0.00930459
0.00448648
-0.0104819
0.0051874
-0.0117785
-0.0131113
0.00592193
0.00397187
-0.00989443
0.00461258
-0.0111226
0.00531652
-0.0124824
-0.0138459
0.00605114
0.004085
-0.0104908
0.00472984
-0.0117675
0.00543415
-0.0131867
-0.014578
0.00616631
0.00419073
-0.0110916
0.00483749
-0.0124142
0.00553958
-0.0138888
-0.0153053
0.00626686
0.00428836
-0.0116949
0.00493485
-0.0130607
0.00563227
-0.0145862
-0.0160255
0.00635241
0.00437733
-0.0122987
0.00502141
-0.0137048
0.00571187
-0.0152767
-0.0167364
0.00642281
0.00445717
-0.012901
0.00509679
-0.0143444
0.0057782
-0.0159581
-0.0174363
0.00647806
0.0045275
-0.0134998
0.00516073
-0.0149776
0.00583121
-0.0166286
-0.0181234
0.00651838
0.00458806
0.0052131
-0.0156027
0.00587101
-0.0172865
-0.0187965
0.00654408
0.00525391
-0.0162179
0.00589783
-0.0179304
-0.0194543
0.00655562
0.00528325
-0.0168218
0.005912
-0.0185592
-0.0200959
0.00655356
0.00530133
-0.0174132
0.00591396
-0.0191718
-0.0207204
0.00653854
0.00530845
-0.0179908
0.00590419
-0.0197675
-0.0213275
0.00651125
0.00530496
-0.018554
0.00588324
-0.0203458
-0.0219167
0.00647242
0.0052913
0.00585168
-0.0209062
-0.0224878
0.00642285
0.00581007
-0.0214483
-0.0230412
0.00636344
0.00575898
-0.0219719
-0.0235773
0.00629508
0.00569891
-0.0224767
-0.0240976
0.00621924
0.00563051
-0.024607
0.00613982
-0.0251294
0.0060782
-0.0256294
0.00597421
-0.0261069
0.0058642
0.0057501
0.00291847
-3.97999e-05
0.00295748
-3.90016e-05
0.00299584
-3.83516e-05
0.00303364
-3.77962e-05
0.00307096
-3.73122e-05
0.00310787
-3.68924e-05
0.00314441
-3.65291e-05
0.00318064
-3.62145e-05
0.0032166
-3.59422e-05
0.00325232
-3.57067e-05
0.00328785
-3.55035e-05
0.0033232
-3.53291e-05
0.0033584
-3.51802e-05
0.00339349
-3.50544e-05
0.00342846
-3.49495e-05
0.00346336
-3.48639e-05
0.00349819
-3.47962e-05
0.00353298
-3.47455e-05
0.00356773
-3.47111e-05
0.00360247
-3.46924e-05
0.0036372
-3.46893e-05
0.00367195
-3.47016e-05
0.00370674
-3.47295e-05
0.00374157
-3.47731e-05
0.00377646
-3.48328e-05
0.00381144
-3.49092e-05
0.00384651
-3.50028e-05
0.0038817
-3.51143e-05
0.00391702
-3.52445e-05
0.0039525
-3.5394e-05
0.00398815
-3.55638e-05
0.00402399
-3.57546e-05
0.00406006
-3.59674e-05
0.00409636
-3.6203e-05
0.00413292
-3.64621e-05
0.00416978
-3.67455e-05
0.00420694
-3.70538e-05
0.00424444
-3.73875e-05
0.00428231
-3.77471e-05
0.00432057
-3.81326e-05
0.00435924
-3.85442e-05
0.00439835
-3.89816e-05
-3.94442e-05
0.00294027
-7.91284e-05
0.00297882
-7.75569e-05
0.00301675
-7.6282e-05
0.00305415
-7.5192e-05
0.00309108
-7.42414e-05
0.0031276
-7.34167e-05
0.00316378
-7.27032e-05
0.00319965
-7.20856e-05
0.00323526
-7.15512e-05
0.00327064
-7.10895e-05
0.00330583
-7.06918e-05
0.00334085
-7.03509e-05
0.00337573
-7.00606e-05
0.00341049
-6.9816e-05
0.00344516
-6.9613e-05
0.00347974
-6.94484e-05
0.00351426
-6.93196e-05
0.00354874
-6.92245e-05
0.00358319
-6.9162e-05
0.00361763
-6.91309e-05
0.00365207
-6.91307e-05
0.00368653
-6.91615e-05
0.00372103
-6.92232e-05
0.00375557
-6.93165e-05
0.00379018
-6.94421e-05
0.00382487
-6.96009e-05
0.00385966
-6.97942e-05
0.00389457
-7.00231e-05
0.00392962
-7.02893e-05
0.00396482
-7.05942e-05
0.00400019
-7.09395e-05
0.00403576
-7.1327e-05
0.00407156
-7.17581e-05
0.00410759
-7.22347e-05
0.00414388
-7.27582e-05
0.00418047
-7.333e-05
0.00421737
-7.39515e-05
0.0042546
-7.46236e-05
0.0042922
-7.53471e-05
0.00433019
-7.61224e-05
0.0043686
-7.69494e-05
0.00440744
-7.78275e-05
-7.87557e-05
0.00298357
-0.000117512
0.00302123
-0.000115215
0.00305831
-0.000113362
0.00309489
-0.000111776
0.00313104
-0.00011039
0.00316681
-0.000109187
0.00320226
-0.000108146
0.00323742
-0.000107245
0.00327233
-0.000106465
0.00330703
-0.000105792
0.00334155
-0.000105213
0.00337592
-0.000104717
0.00341016
-0.000104296
0.00344428
-0.000103942
0.00347832
-0.000103649
0.00351228
-0.000103414
0.00354619
-0.000103231
0.00358007
-0.000103099
0.00361392
-0.000103014
0.00364777
-0.000102977
0.00368162
-0.000102985
0.0037155
-0.00010304
0.00374942
-0.000103141
0.00378339
-0.000103289
0.00381743
-0.000103485
0.00385156
-0.00010373
0.00388579
-0.000104027
0.00392015
-0.000104377
0.00395464
-0.000104783
0.0039893
-0.000105247
0.00402413
-0.000105771
0.00405916
-0.000106358
0.00409441
-0.00010701
0.0041299
-0.00010773
0.00416567
-0.00010852
0.00420172
-0.000109382
0.00423808
-0.000110318
0.00427479
-0.00011133
0.00431186
-0.000112418
0.00434932
-0.000113584
0.0043872
-0.000114827
0.00442552
-0.000116146
-0.00011754
0.0030478
-0.000154499
0.00308413
-0.000151544
0.00311994
-0.000149181
0.00315533
-0.000147156
0.00319032
-0.000145382
0.00322497
-0.00014384
0.00325933
-0.000142505
0.00329343
-0.00014135
0.00332732
-0.00014035
0.00336101
-0.000139487
0.00339454
-0.000138745
0.00342794
-0.000138111
0.00346122
-0.000137575
0.0034944
-0.000137125
0.00352751
-0.000136756
0.00356055
-0.000136461
0.00359356
-0.000136236
0.00362654
-0.000136076
0.0036595
-0.000135979
0.00369247
-0.000135945
0.00372545
-0.00013597
0.00375847
-0.000136057
0.00379154
-0.000136204
0.00382466
-0.000136414
0.00385786
-0.000136687
0.00389116
-0.000137026
0.00392456
-0.000137433
0.0039581
-0.00013791
0.00399177
-0.000138461
0.00402562
-0.000139088
0.00405964
-0.000139795
0.00409387
-0.000140586
0.00412832
-0.000141462
0.00416302
-0.000142429
0.00419799
-0.000143488
0.00423325
-0.000144643
0.00426883
-0.000145896
0.00430475
-0.00014725
0.00434104
-0.000148705
0.00437771
-0.000150262
0.00441481
-0.000151921
0.00445234
-0.000153682
-0.000155542
0.00313207
-0.00018966
0.00316666
-0.000186135
0.00320083
-0.00018335
0.00323463
-0.000180959
0.00326811
-0.000178857
0.00330129
-0.000177027
0.00333423
-0.000175442
0.00336695
-0.000174069
0.00339948
-0.000172882
0.00343185
-0.000171858
0.00346409
-0.00017098
0.00349621
-0.000170231
0.00352823
-0.000169599
0.00356018
-0.000169073
0.00359207
-0.000168644
0.00362391
-0.000168305
0.00365573
-0.000168051
0.00368753
-0.000167878
0.00371933
-0.000167782
0.00375115
-0.000167761
0.00378299
-0.000167816
0.00381488
-0.000167945
0.00384682
-0.000168149
0.00387884
-0.00016843
0.00391094
-0.000168789
0.00394315
-0.000169229
0.00397547
-0.000169754
0.00400792
-0.000170365
0.00404053
-0.000171068
0.00407331
-0.000171865
0.00410627
-0.000172762
0.00413945
-0.000173761
0.00417285
-0.000174867
0.00420651
-0.000176085
0.00424044
-0.000177418
0.00427466
-0.000178869
0.00430921
-0.000180442
0.0043441
-0.000182139
0.00437936
-0.000183962
0.00441501
-0.000185912
0.00445107
-0.000187989
0.00448758
-0.000190192
-0.000192517
0.00323526
-0.000222598
0.00326773
-0.000218606
0.00329988
-0.000215503
0.00333175
-0.000212834
0.00336337
-0.000210477
0.00339477
-0.000208421
0.00342596
-0.000206638
0.00345699
-0.000205094
0.00348787
-0.00020376
0.00351862
-0.00020261
0.00354926
-0.000201626
0.00357982
-0.00020079
0.00361031
-0.000200088
0.00364075
-0.000199508
0.00367114
-0.00019904
0.00370152
-0.000198677
0.00373188
-0.000198412
0.00376224
-0.000198242
0.00379262
-0.000198162
0.00382303
-0.00019817
0.00385348
-0.000198267
0.00388399
-0.000198451
0.00391456
-0.000198724
0.00394522
-0.000199088
0.00397598
-0.000199544
0.00400684
-0.000200097
0.00403784
-0.000200748
0.00406898
-0.000201503
0.00410028
-0.000202366
0.00413175
-0.000203341
0.00416342
-0.000204434
0.00419531
-0.000205649
0.00422743
-0.000206991
0.00425981
-0.000208465
0.00429247
-0.000210075
0.00432543
-0.000211827
0.00435871
-0.000213723
0.00439234
-0.000215766
0.00442634
-0.00021796
0.00446073
-0.000220304
0.00449554
-0.000222799
0.00453079
-0.000225445
-0.000228236
0.00335597
-0.000252953
0.00338597
-0.00024861
0.00341577
-0.000245307
0.0034454
-0.000242459
0.00347485
-0.000239929
0.00350415
-0.000237717
0.00353331
-0.0002358
0.00356235
-0.000234138
0.0035913
-0.000232703
0.00362015
-0.000231469
0.00364894
-0.000230416
0.00367768
-0.000229525
0.00370637
-0.000228783
0.00373504
-0.000228176
0.0037637
-0.000227694
0.00379235
-0.000227329
0.00382101
-0.000227074
0.00384969
-0.000226926
0.00387841
-0.00022688
0.00390718
-0.000226935
0.003936
-0.00022709
0.00396489
-0.000227345
0.00399387
-0.000227701
0.00402294
-0.000228161
0.00405213
-0.000228727
0.00408143
-0.000229403
0.00411088
-0.000230193
0.00414048
-0.000231102
0.00417025
-0.000232135
0.0042002
-0.000233297
0.00423036
-0.000234594
0.00426075
-0.000236032
0.00429137
-0.000237616
0.00432226
-0.000239353
0.00435343
-0.000241246
0.00438491
-0.000243303
0.00441671
-0.000245525
0.00444886
-0.000247918
0.00448139
-0.000250484
0.00451431
-0.000253225
0.00454765
-0.000256139
0.00458143
-0.000259227
-0.000262484
0.00349258
-0.000280411
0.00351982
-0.000275841
0.00354697
-0.000272464
0.00357406
-0.000269545
0.00360106
-0.000266933
0.00362799
-0.000264646
0.00365485
-0.000262661
0.00368166
-0.000260942
0.00370841
-0.000259459
0.00373513
-0.000258187
0.00376182
-0.000257106
0.0037885
-0.000256199
0.00381516
-0.000255449
0.00384183
-0.000254846
0.00386852
-0.000254378
0.00389523
-0.000254037
0.00392197
-0.000253817
0.00394875
-0.000253713
0.0039756
-0.000253722
0.0040025
-0.000253843
0.00402949
-0.000254074
0.00405656
-0.000254417
0.00408373
-0.000254872
0.00411101
-0.000255444
0.00413842
-0.000256134
0.00416596
-0.000256947
0.00419366
-0.000257888
0.00422152
-0.000258963
0.00424956
-0.000260176
0.0042778
-0.000261535
0.00430625
-0.000263046
0.00433493
-0.000264715
0.00436387
-0.000266549
0.00439307
-0.000268554
0.00442256
-0.000270737
0.00445236
-0.000273102
0.00448249
-0.000275656
0.00451297
-0.000278402
0.00454383
-0.000281342
0.00457509
-0.00028448
0.00460676
-0.000287815
0.00463888
-0.000291345
-0.000295067
0.0036433
-0.000304706
0.00366749
-0.000300039
0.00369175
-0.000296721
0.00371605
-0.000293845
0.00374036
-0.000291248
0.00376469
-0.000288968
0.00378902
-0.00028699
0.00381335
-0.000285279
0.0038377
-0.000283805
0.00386206
-0.000282547
0.00388644
-0.000281485
0.00391084
-0.000280601
0.00393527
-0.000279882
0.00395974
-0.000279316
0.00398426
-0.000278893
0.00400883
-0.000278605
0.00403346
-0.000278446
0.00405815
-0.000278411
0.00408293
-0.000278499
0.00410779
-0.000278706
0.00413275
-0.000279034
0.00415782
-0.000279483
0.004183
-0.000280056
0.00420832
-0.000280755
0.00423377
-0.000281585
0.00425937
-0.00028255
0.00428514
-0.000283656
0.00431108
-0.000284909
0.00433722
-0.000286315
0.00436357
-0.000287881
0.00439014
-0.000289616
0.00441695
-0.000291525
0.00444401
-0.000293616
0.00447136
-0.000295897
0.004499
-0.000298375
0.00452695
-0.000301055
0.00455523
-0.000303943
0.00458388
-0.000307045
0.0046129
-0.000310363
0.00464232
-0.000313899
0.00467216
-0.000317654
0.00470244
-0.000321627
-0.000325812
0.00380611
-0.000325629
0.00382707
-0.000320996
0.00384822
-0.000317869
0.00386952
-0.000315151
0.00389094
-0.000312669
0.00391246
-0.000310485
0.00393406
-0.000308592
0.00395574
-0.000306957
0.00397749
-0.000305555
0.00399931
-0.000304365
0.00402119
-0.00030337
0.00404315
-0.000302555
0.00406517
-0.000301908
0.00408727
-0.000301416
0.00410945
-0.000301071
0.00413171
-0.000300867
0.00415406
-0.000300797
0.00417651
-0.000300859
0.00419906
-0.000301049
0.00422172
-0.000301366
0.0042445
-0.000301813
0.00426741
-0.000302389
0.00429045
-0.000303098
0.00431364
-0.000303943
0.00433698
-0.000304929
0.00436049
-0.000306061
0.00438418
-0.000307346
0.00440806
-0.000308791
0.00443215
-0.000310402
0.00445646
-0.000312187
0.004481
-0.000314155
0.00450579
-0.000316314
0.00453084
-0.000318671
0.00455618
-0.000321235
0.00458182
-0.000324013
0.00460777
-0.000327013
0.00463407
-0.00033024
0.00466073
-0.0003337
0.00468776
-0.000337397
0.0047152
-0.000341333
0.00474305
-0.000345509
0.00477135
-0.000349923
-0.00035457
0.00397891
-0.00034303
0.00399647
-0.000338556
0.00401435
-0.00033575
0.0040325
-0.000333306
0.00405087
-0.000331039
0.00406943
-0.00032904
0.00408815
-0.000327312
0.00410702
-0.000325825
0.00412602
-0.000324557
0.00414515
-0.000323493
0.00416439
-0.000322618
0.00418376
-0.000321919
0.00420323
-0.000321384
0.00422282
-0.000321006
0.00424253
-0.000320776
0.00426235
-0.000320688
0.00428229
-0.000320739
0.00430236
-0.000320924
0.00432255
-0.000321243
0.00434288
-0.000321696
0.00436335
-0.000322283
0.00438397
-0.000323008
0.00440475
-0.000323873
0.00442569
-0.000324882
0.0044468
-0.000326042
0.0044681
-0.000327358
0.00448959
-0.000328838
0.00451128
-0.000330488
0.0045332
-0.000332316
0.00455534
-0.000334333
0.00457773
-0.000336545
0.00460038
-0.000338962
0.0046233
-0.000341593
0.00464652
-0.000344447
0.00467003
-0.000347532
0.00469388
-0.000350856
0.00471806
-0.000354426
0.00474261
-0.000358247
0.00476754
-0.000362324
0.00479286
-0.00036666
0.00481861
-0.000371256
0.0048448
-0.000376109
-0.000381216
0.00415946
-0.000356817
0.00417352
-0.000352623
0.00418803
-0.00035026
0.00420293
-0.0003482
0.00421814
-0.000346247
0.00423362
-0.00034452
0.00424934
-0.000343037
0.00426529
-0.00034177
0.00428143
-0.000340702
0.00429776
-0.000339822
0.00431426
-0.000339119
0.00433093
-0.000338584
0.00434775
-0.000338208
0.00436473
-0.000337984
0.00438186
-0.000337905
0.00439914
-0.000337969
0.00441657
-0.000338171
0.00443416
-0.00033851
0.0044519
-0.000338985
0.0044698
-0.000339598
0.00448787
-0.000340351
0.0045061
-0.000341246
0.00452452
-0.000342287
0.00454312
-0.000343481
0.00456191
-0.000344832
0.0045809
-0.000346349
0.0046001
-0.000348037
0.00461952
-0.000349907
0.00463917
-0.000351966
0.00465906
-0.000354225
0.00467921
-0.000356692
0.00469962
-0.000359377
0.00472032
-0.00036229
0.00474131
-0.00036544
0.00476262
-0.000368838
0.00478425
-0.00037249
0.00480623
-0.000376405
0.00482857
-0.000380589
0.0048513
-0.000385048
0.00487442
-0.000389784
0.00489796
-0.000394798
0.00492194
-0.000400089
-0.000405652
0.00434547
-0.000366962
0.00435601
-0.000363157
0.0043671
-0.00036135
0.00437867
-0.000359777
0.00439066
-0.000358229
0.004403
-0.000356861
0.00441566
-0.000355699
0.00442861
-0.000354722
0.00444183
-0.000353919
0.00445529
-0.000353282
0.00446897
-0.000352806
0.00448287
-0.000352484
0.00449698
-0.00035231
0.00451127
-0.000352281
0.00452576
-0.000352392
0.00454043
-0.000352642
0.00455529
-0.000353028
0.00457033
-0.000353551
0.00458556
-0.000354211
0.00460097
-0.00035501
0.00461657
-0.000355952
0.00463237
-0.00035704
0.00464836
-0.000358279
0.00466455
-0.000359676
0.00468096
-0.000361237
0.00469758
-0.00036297
0.00471442
-0.000364883
0.0047315
-0.000366987
0.00474883
-0.000369289
0.0047664
-0.000371801
0.00478424
-0.000374532
0.00480236
-0.000377494
0.00482077
-0.000380697
0.00483948
-0.00038415
0.0048585
-0.000387865
0.00487786
-0.000391849
0.00489757
-0.000396112
0.00491764
-0.000400661
0.00493809
-0.0004055
0.00495895
-0.000410635
0.00498021
-0.000416065
0.00500191
-0.00042179
-0.000427805
0.00453464
-0.000373495
0.00454166
-0.000370177
0.00454934
-0.000369025
0.00455759
-0.00036803
0.00456634
-0.000366973
0.00457552
-0.000366042
0.00458509
-0.000365276
0.00459503
-0.000364657
0.00460529
-0.00036418
0.00461585
-0.000363844
0.00462669
-0.000363647
0.0046378
-0.000363586
0.00464915
-0.000363661
0.00466073
-0.000363868
0.00467255
-0.000364207
0.00468458
-0.000364678
0.00469684
-0.000365281
0.0047093
-0.000366017
0.00472198
-0.00036689
0.00473487
-0.000367901
0.00474798
-0.000369056
0.0047613
-0.000370359
0.00477483
-0.000371817
0.00478859
-0.000373436
0.00480258
-0.000375224
0.0048168
-0.00037719
0.00483126
-0.000379344
0.00484597
-0.000381694
0.00486093
-0.000384251
0.00487616
-0.000387028
0.00489166
-0.000390033
0.00490744
-0.00039328
0.00492353
-0.000396778
0.00493992
-0.00040054
0.00495663
-0.000404576
0.00497367
-0.000408896
0.00499107
-0.000413508
0.00500883
-0.000418421
0.00502697
-0.00042364
0.0050455
-0.000429171
0.00506445
-0.000435013
0.00508383
-0.000441168
0.00510366
-0.000447629
-0.000454389
0.00472468
-0.000376505
0.00472826
-0.000373757
0.00473257
-0.000373343
0.00473755
-0.000373005
0.00474309
-0.000372515
0.00474914
-0.000372093
0.00475566
-0.000371789
0.00476259
-0.000371592
0.00476991
-0.0003715
0.00477759
-0.000371519
0.00478559
-0.000371652
0.0047939
-0.0003719
0.00480251
-0.000372265
0.00481139
-0.000372749
0.00482054
-0.000373354
0.00482994
-0.00037408
0.00483959
-0.000374932
0.00484949
-0.000375912
0.00485962
-0.000377024
0.00486999
-0.000378273
0.0048806
-0.000379665
0.00489145
-0.000381205
0.00490253
-0.000382901
0.00491386
-0.000384762
0.00492543
-0.000386794
0.00493725
-0.000389009
0.00494932
-0.000391416
0.00496165
-0.000394026
0.00497425
-0.00039685
0.00498712
-0.0003999
0.00500028
-0.000403188
0.00501372
-0.000406727
0.00502747
-0.000410527
0.00504153
-0.000414602
0.00505592
-0.000418962
0.00507064
-0.000423618
0.00508571
-0.00042858
0.00510115
-0.000433856
0.00511696
-0.000439454
0.00513317
-0.000445376
0.00514978
-0.000451627
0.00516682
-0.000458204
0.00518429
-0.000465105
-0.00047232
0.00491333
-0.000376135
0.0049136
-0.000374026
0.00491467
-0.000374414
0.00491646
-0.000374798
0.00491889
-0.000374937
0.00492188
-0.000375086
0.00492539
-0.000375305
0.00492939
-0.000375586
0.00493382
-0.000375933
0.00493866
-0.000376358
0.00494388
-0.000376868
0.00494945
-0.00037747
0.00495535
-0.000378168
0.00496157
-0.000378967
0.00496809
-0.000379872
0.00497489
-0.000380888
0.00498198
-0.000382019
0.00498934
-0.000383271
0.00499697
-0.00038465
0.00500485
-0.000386161
0.005013
-0.000387812
0.0050214
-0.00038961
0.00503007
-0.000391564
0.00503899
-0.000393683
0.00504817
-0.000395976
0.00505761
-0.000398453
0.00506733
-0.000401127
0.00507731
-0.000404008
0.00508757
-0.000407109
0.00509811
-0.000410442
0.00510894
-0.00041402
0.00512007
-0.000417856
0.00513151
-0.000421963
0.00514326
-0.000426353
0.00515534
-0.00043104
0.00516775
-0.000436033
0.00518051
-0.000441343
0.00519364
-0.000446981
0.00520714
-0.000452952
0.00522102
-0.000459262
0.00523531
-0.000465914
0.00525001
-0.000472908
0.00526515
-0.000480239
-0.0004879
0.00509846
-0.000372576
0.00509559
-0.000371158
0.00509357
-0.000372394
0.00509232
-0.000373547
0.00509175
-0.000374368
0.00509181
-0.000375139
0.00509243
-0.000375931
0.00509359
-0.00037674
0.00509523
-0.000377575
0.00509732
-0.000378451
0.00509984
-0.000379381
0.00510274
-0.000380377
0.00510602
-0.000381445
0.00510965
-0.000382596
0.00511361
-0.000383835
0.00511789
-0.000385171
0.00512249
-0.000386611
0.00512738
-0.000388162
0.00513256
-0.000389832
0.00513803
-0.000391628
0.00514377
-0.00039356
0.0051498
-0.000395635
0.0051561
-0.000397865
0.00516267
-0.000400258
0.00516952
-0.000402826
0.00517665
-0.00040558
0.00518406
-0.000408532
0.00519174
-0.000411694
0.00519971
-0.00041508
0.00520798
-0.000418704
0.00521653
-0.000422578
0.00522539
-0.000426716
0.00523456
-0.000431132
0.00524405
-0.00043584
0.00525386
-0.000440852
0.00526401
-0.000446181
0.0052745
-0.000451838
0.00528536
-0.000457832
0.00529658
-0.000464172
0.00530818
-0.000470863
0.00532017
-0.000477909
0.00533258
-0.00048531
0.0053454
-0.000493062
-0.000501158
0.00527805
-0.000366061
0.00527226
-0.000365371
0.00526735
-0.000367482
0.00526324
-0.000369436
0.00525985
-0.000370975
0.00525712
-0.000372408
0.005255
-0.000373815
0.00525345
-0.000375192
0.00525243
-0.000376553
0.0052519
-0.00037792
0.00525183
-0.000379309
0.00525219
-0.000380735
0.00525295
-0.000382208
0.0052541
-0.000383742
0.00525561
-0.000385346
0.00525747
-0.000387031
0.00525966
-0.000388806
0.00526218
-0.000390681
0.00526501
-0.000392665
0.00526815
-0.000394767
0.00527159
-0.000396999
0.00527533
-0.00039937
0.00527935
-0.000401891
0.00528367
-0.000404573
0.00528827
-0.000407429
0.00529316
-0.000410471
0.00529834
-0.000413711
0.00530381
-0.000417164
0.00530957
-0.000420842
0.00531563
-0.000424761
0.00532199
-0.000428935
0.00532865
-0.000433378
0.00533562
-0.000438105
0.00534291
-0.00044313
0.00535053
-0.000448467
0.00535848
-0.000454129
0.00536677
-0.000460128
0.00537541
-0.000466473
0.00538441
-0.000473175
0.00539379
-0.000480239
0.00540355
-0.000487669
0.0054137
-0.000495467
0.00542427
-0.000503628
-0.000512146
0.00545023
-0.000356859
0.00544178
-0.000356919
0.00543421
-0.000359913
0.00542746
-0.000362683
0.00542144
-0.000364962
0.00541612
-0.000367084
0.00541144
-0.000369135
0.00540736
-0.000371112
0.00540384
-0.000373033
0.00540084
-0.000374923
0.00539834
-0.000376802
0.00539629
-0.000378688
0.00539468
-0.000380597
0.00539348
-0.000382542
0.00539267
-0.000384538
0.00539224
-0.000386597
0.00539216
-0.000388731
0.00539243
-0.000390952
0.00539304
-0.00039327
0.00539397
-0.000395698
0.00539522
-0.000398247
0.00539677
-0.000400928
0.00539864
-0.000403755
0.0054008
-0.000406739
0.00540327
-0.000409894
0.00540603
-0.000413232
0.00540909
-0.000416769
0.00541244
-0.000420518
0.0054161
-0.000424494
0.00542005
-0.000428713
0.0054243
-0.000433189
0.00542886
-0.000437938
0.00543373
-0.000442975
0.00543892
-0.000448316
0.00544442
-0.000453975
0.00545026
-0.000459964
0.00545643
-0.000466299
0.00546295
-0.000472988
0.00546981
-0.000480043
0.00547704
-0.00048747
0.00548465
-0.000495274
0.00549264
-0.000503455
0.00550102
-0.000512012
-0.000520937
0.00561332
-0.000345268
0.00560249
-0.000346084
0.00559253
-0.000349951
0.00558338
-0.000353536
0.00557498
-0.000356564
0.00556729
-0.00035939
0.00556025
-0.000362103
0.00555384
-0.000364701
0.00554801
-0.000367205
0.00554273
-0.000369642
0.00553797
-0.000372037
0.00553369
-0.000374409
0.00552987
-0.000376777
0.00552649
-0.000379158
0.00552352
-0.000381569
0.00552094
-0.000384023
0.00551875
-0.000386537
0.00551692
-0.000389122
0.00551544
-0.000391792
0.0055143
-0.000394561
0.0055135
-0.000397442
0.00551302
-0.000400447
0.00551285
-0.000403591
0.005513
-0.000406887
0.00551346
-0.00041035
0.00551422
-0.000413993
0.00551528
-0.000417832
0.00551664
-0.000421882
0.00551831
-0.000426159
0.00552028
-0.000430679
0.00552254
-0.000435458
0.00552512
-0.000440511
0.005528
-0.000445856
0.00553119
-0.000451509
0.0055347
-0.000457483
0.00553853
-0.000463795
0.00554269
-0.000470457
0.00554718
-0.000477482
0.00555202
-0.000484879
0.0055572
-0.000492657
0.00556275
-0.00050082
0.00556867
-0.000509372
0.00557496
-0.000518309
-0.000527625
0.00576584
-0.000331602
0.00575293
-0.000333169
0.00574086
-0.000337883
0.00572959
-0.000342266
0.00571906
-0.000346038
0.00570924
-0.00034957
0.00570009
-0.000352953
0.00569158
-0.000356184
0.00568366
-0.000359285
0.0056763
-0.000362287
0.00566948
-0.000365214
0.00566316
-0.000368091
0.00565732
-0.000370937
0.00565194
-0.000373773
0.00564698
-0.000376616
0.00564244
-0.000379485
0.0056383
-0.000382393
0.00563454
-0.000385359
0.00563114
-0.000388396
0.0056281
-0.000391519
0.0056254
-0.000394743
0.00562304
-0.000398083
0.005621
-0.000401554
0.00561928
-0.00040517
0.00561788
-0.000408946
0.00561679
-0.000412899
0.005616
-0.000417044
0.00561551
-0.000421397
0.00561533
-0.000425976
0.00561545
-0.000430797
0.00561587
-0.000435876
0.00561659
-0.000441232
0.00561761
-0.00044688
0.00561894
-0.000452838
0.00562058
-0.000459122
0.00562253
-0.000465747
0.0056248
-0.000472727
0.00562739
-0.000480075
0.00563032
-0.000487802
0.00563358
-0.000495917
0.00563718
-0.000504426
0.00564114
-0.000513331
0.00564546
-0.000522632
0.00565016
-0.000532322
-0.00054239
0.00590652
-0.000316191
0.00589184
-0.000318492
0.00587797
-0.000324012
0.00586487
-0.000329162
0.00585249
-0.00033366
0.00584081
-0.00033789
0.0058298
-0.000341939
0.00581942
-0.000345805
0.00580964
-0.000349508
0.00580043
-0.000353082
0.00579177
-0.000356554
0.00578363
-0.000359947
0.00577598
-0.000363285
0.00576879
-0.000366589
0.00576205
-0.000369879
0.00575574
-0.000373173
0.00574984
-0.000376491
0.00574433
-0.000379848
0.0057392
-0.000383263
0.00573443
-0.00038675
0.00573001
-0.000390327
0.00572594
-0.000394009
0.0057222
-0.000397813
0.00571878
-0.000401753
0.00571568
-0.000405848
0.0057129
-0.000410113
0.00571042
-0.000414565
0.00570824
-0.000419222
0.00570637
-0.000424101
0.00570479
-0.00042922
0.00570351
-0.000434596
0.00570253
-0.000440248
0.00570184
-0.000446193
0.00570145
-0.000452449
0.00570136
-0.000459033
0.00570158
-0.00046596
0.0057021
-0.000473246
0.00570293
-0.000480905
0.00570407
-0.000488948
0.00570554
-0.000497385
0.00570734
-0.000506222
0.00570947
-0.000515464
0.00571195
-0.000525109
0.00571478
-0.000535152
-0.000545584
0.00603431
-0.000299367
0.00601819
-0.000302374
0.00600283
-0.000308648
0.00598819
-0.000314523
0.00597425
-0.000319718
0.00596098
-0.000324624
0.00594837
-0.000329327
0.00593639
-0.000333819
0.005925
-0.000338122
0.00591419
-0.000342269
0.00590392
-0.000346288
0.00589418
-0.000350204
0.00588494
-0.000354041
0.00587617
-0.000357821
0.00586786
-0.000361566
0.00585998
-0.000365296
0.00585252
-0.000369031
0.00584546
-0.000372789
0.00583878
-0.000376588
0.00583248
-0.000380447
0.00582653
-0.000384382
0.00582094
-0.000388411
0.00581567
-0.00039255
0.00581074
-0.000396818
0.00580612
-0.000401232
0.00580182
-0.00040581
0.00579782
-0.000410568
0.00579413
-0.000415526
0.00579073
-0.000420702
0.00578762
-0.000426114
0.00578481
-0.000431781
0.00578228
-0.000437722
0.00578004
-0.000443956
0.00577809
-0.000450499
0.00577643
-0.000457372
0.00577506
-0.000464589
0.00577398
-0.000472168
0.0057732
-0.000480123
0.00577272
-0.000488465
0.00577254
-0.000497207
0.00577267
-0.000506354
0.00577312
-0.000515912
0.00577389
-0.000525881
0.005775
-0.000536256
-0.000547029
0.0061484
-0.00028146
0.00613116
-0.000285136
0.00611462
-0.000292103
0.00609875
-0.00029865
0.00608353
-0.000304504
0.00606896
-0.000310057
0.00605503
-0.00031539
0.0060417
-0.000320492
0.00602896
-0.000325384
0.00601679
-0.000330098
0.00600516
-0.000334661
0.00599406
-0.000339099
0.00598345
-0.000343436
0.00597333
-0.000347695
0.00596366
-0.000351899
0.00595444
-0.000356069
0.00594563
-0.000360225
0.00593723
-0.000364388
0.00592922
-0.000368576
0.00592158
-0.000372809
0.0059143
-0.000377105
0.00590737
-0.000381482
0.00590078
-0.00038596
0.00589452
-0.000390555
0.00588857
-0.000395287
0.00588294
-0.000400174
0.00587761
-0.000405235
0.00587257
-0.000410489
0.00586782
-0.000415956
0.00586336
-0.000421654
0.00585919
-0.000427604
0.00585529
-0.000433825
0.00585167
-0.000440336
0.00584833
-0.000447156
0.00584526
-0.000454304
0.00584247
-0.000461798
0.00583995
-0.000469654
0.00583772
-0.000477887
0.00583576
-0.000486512
0.0058341
-0.000495539
0.00583272
-0.000504977
0.00583164
-0.00051483
0.00583086
-0.0005251
0.00583038
-0.000535785
-0.000546874
0.00624819
-0.00026279
0.00623014
-0.000267094
0.00621272
-0.000274682
0.00619592
-0.000281842
0.00617972
-0.000288308
0.00616413
-0.000294472
0.00614915
-0.000300404
0.00613475
-0.000306092
0.00612092
-0.000311554
0.00610764
-0.000316822
0.0060949
-0.00032192
0.00608268
-0.000326873
0.00607095
-0.000331707
0.00605969
-0.000336443
0.0060489
-0.000341105
0.00603854
-0.000345714
0.00602861
-0.000350293
0.00601908
-0.00035486
0.00600994
-0.000359438
0.00600118
-0.000364045
0.00599278
-0.000368701
0.00598472
-0.000373426
0.005977
-0.000378238
0.0059696
-0.000383158
0.00596252
-0.000388204
0.00595574
-0.000393396
0.00594926
-0.000398754
0.00594307
-0.000404298
0.00593716
-0.000410048
0.00593153
-0.000416023
0.00592617