/*--------------------------------*- C++ -*----------------------------------*\
  =========                 |
  \\      /  F ield         | OpenFOAM: The Open Source CFD Toolbox
   \\    /   O peration     | Website:  https://openfoam.org
    \\  /    A nd           | Version:  7
     \\/     M anipulation  |
\*---------------------------------------------------------------------------*/
FoamFile
{
    version     2.0;
    format      ascii;
    class       volVectorField;
    location    "15";
    object      U;
}
// * * * * * * * * * * * * * * * * * * * * * * * * * * * * * * * * * * * * * //

dimensions      [0 1 -1 0 0 0 0];

internalField   nonuniform List<vector> 
42000
(
(-0.0017733 0.000225403 -6.35394e-21)
(-0.00438166 0.000123439 2.20032e-21)
(-0.00475937 -0.000152712 -8.21617e-22)
(-0.000717691 -0.000536262 -4.23549e-21)
(0.00753548 -0.00092464 -9.94307e-22)
(0.0197353 -0.00131053 4.41997e-21)
(0.035505 -0.00166467 5.54979e-21)
(0.0542576 -0.0019907 -4.66534e-21)
(0.0756379 -0.00228193 6.45423e-21)
(0.0991795 -0.00254259 -1.81543e-21)
(0.124555 -0.00277262 -1.08679e-21)
(0.151489 -0.00297498 -2.06908e-22)
(0.179601 -0.00315123 -4.12358e-21)
(0.20892 -0.00330401 -3.68053e-21)
(0.238706 -0.00343262 9.98073e-22)
(0.269836 -0.00354952 3.0828e-21)
(0.30018 -0.00362525 -1.78182e-21)
(0.33318 -0.00376224 -3.82705e-21)
(0.362926 -0.00369494 -3.8669e-22)
(0.397704 -0.00420287 -1.72529e-21)
(-0.00178313 0.000673701 -6.1933e-21)
(-0.00433845 0.000366009 -1.20022e-20)
(-0.00461649 -0.000462601 -4.16237e-21)
(-0.00045384 -0.00161262 3.01159e-21)
(0.00793782 -0.0027766 -8.01145e-21)
(0.0202862 -0.00393287 -1.58739e-21)
(0.0362147 -0.00499365 2.13092e-21)
(0.0551344 -0.00597 -8.98261e-21)
(0.0766909 -0.00684183 -3.89519e-21)
(0.100418 -0.00762178 3.8111e-21)
(0.125988 -0.00830973 -8.12152e-21)
(0.153126 -0.00891448 -3.99075e-21)
(0.181452 -0.00944073 3.5624e-21)
(0.210997 -0.00989629 1.12953e-20)
(0.241015 -0.0102793 7.24009e-21)
(0.272396 -0.0106263 -9.11896e-22)
(0.302979 -0.0108509 3.40917e-21)
(0.33628 -0.0112552 1.09002e-20)
(0.366199 -0.0110542 -2.58355e-22)
(0.401477 -0.0125555 -8.27757e-22)
(-0.00180245 0.0011147 2.32851e-21)
(-0.00425144 0.00059616 6.65307e-21)
(-0.00433012 -0.000785188 -7.69309e-21)
(7.4348e-05 -0.00269962 1.10319e-20)
(0.00874277 -0.00463561 2.09433e-20)
(0.021388 -0.0065579 -1.66396e-20)
(0.0376336 -0.00832035 -2.18302e-21)
(0.0568871 -0.00994165 2.09913e-21)
(0.0787953 -0.0113883 -6.18837e-21)
(0.102891 -0.0126814 -1.91361e-20)
(0.12885 -0.0138207 -1.08323e-20)
(0.156396 -0.0148208 -4.02172e-21)
(0.185148 -0.0156897 1.02065e-20)
(0.215142 -0.0164397 -1.4054e-21)
(0.245622 -0.0170689 5.9913e-21)
(0.277501 -0.0176353 6.36476e-21)
(0.308558 -0.0180012 -7.29807e-21)
(0.342453 -0.0186541 -8.85494e-21)
(0.372716 -0.0183233 2.94095e-21)
(0.40898 -0.0207525 1.16885e-20)
(-0.00183059 0.00154359 -2.56551e-20)
(-0.00411944 0.000805702 -8.06254e-21)
(-0.00389907 -0.00112883 4.04107e-20)
(0.000867847 -0.00380425 -1.34922e-20)
(0.00995085 -0.00650625 -3.44616e-20)
(0.0230406 -0.0091873 3.76332e-20)
(0.0397608 -0.0116431 -2.57445e-20)
(0.0595135 -0.0139005 -9.7598e-21)
(0.0819475 -0.0159123 6.09325e-21)
(0.106595 -0.0177084 1.53969e-20)
(0.133133 -0.0192882 1.65325e-20)
(0.161287 -0.020672 -1.06791e-20)
(0.190674 -0.0218711 1.04532e-20)
(0.221336 -0.022902 -2.38578e-20)
(0.252502 -0.0237636 -7.39867e-21)
(0.285119 -0.024532 -5.70711e-21)
(0.316877 -0.0250269 1.20773e-20)
(0.35165 -0.0258974 2.1196e-21)
(0.382417 -0.0254434 -7.43576e-21)
(0.42013 -0.0286937 -9.78827e-21)
(-0.00186651 0.00195564 3.5566e-20)
(-0.00394068 0.000986584 -2.15796e-20)
(-0.00332154 -0.00150172 -5.30984e-20)
(0.00192811 -0.00493331 4.12979e-20)
(0.0115628 -0.00839296 2.58235e-20)
(0.0252437 -0.0118226 -2.97037e-20)
(0.0425949 -0.0149603 2.88593e-20)
(0.0630107 -0.0178411 -1.61926e-20)
(0.0861425 -0.0204048 1.76919e-20)
(0.111522 -0.0226896 5.67515e-21)
(0.138827 -0.0246948 -9.25805e-22)
(0.167784 -0.0264461 1.40049e-20)
(0.19801 -0.0279582 -1.81694e-20)
(0.229551 -0.029251 1.25817e-20)
(0.261619 -0.0303261 1.95989e-21)
(0.295202 -0.0312724 -6.07567e-21)
(0.327877 -0.0318793 5.56759e-21)
(0.363792 -0.032925 -1.49553e-20)
(0.395211 -0.0323577 -5.60821e-21)
(0.434804 -0.0362832 5.01699e-21)
(-0.00190887 0.00234619 2.03575e-20)
(-0.00371282 0.00113094 2.7638e-20)
(-0.00259514 -0.00191187 6.0509e-20)
(0.00325707 -0.00609338 -7.65908e-20)
(0.0135798 -0.0102999 -7.33617e-20)
(0.0279973 -0.0144652 6.7072e-20)
(0.0461339 -0.0182698 -4.64345e-21)
(0.0673746 -0.0217582 5.24476e-20)
(0.0913735 -0.0248566 -3.18941e-20)
(0.117661 -0.0276119 4.6548e-20)
(0.145916 -0.0300231 1.64757e-20)
(0.175867 -0.0321211 -1.02296e-20)
(0.207127 -0.0339245 -2.33631e-20)
(0.23975 -0.0354552 -1.39306e-21)
(0.272926 -0.0367198 -3.61389e-20)
(0.30769 -0.0378136 -5.38445e-21)
(0.341481 -0.0385113 8.14188e-21)
(0.378779 -0.0396791 9.81431e-21)
(0.410984 -0.0390118 1.83779e-20)
(0.452838 -0.0434322 -4.39781e-21)
(-0.001956 0.00271077 -5.94689e-20)
(-0.00343295 0.00123116 -1.55687e-20)
(-0.00171692 -0.00236694 -4.51831e-21)
(0.00485711 -0.00729077 4.6251e-20)
(0.016003 -0.0122311 9.04093e-20)
(0.031301 -0.017116 -4.69372e-20)
(0.0503757 -0.0215695 -3.32005e-20)
(0.0726002 -0.025646 1.30747e-20)
(0.0976319 -0.0292582 5.92631e-20)
(0.124999 -0.0324619 -5.05781e-20)
(0.154382 -0.0352556 -3.83187e-20)
(0.185509 -0.0376755 -2.60306e-20)
(0.217992 -0.0397438 3.59508e-20)
(0.251887 -0.0414836 3.13138e-20)
(0.286362 -0.0429091 4.6684e-20)
(0.322505 -0.0441142 4.04711e-20)
(0.357594 -0.0448774 -3.14967e-20)
(0.396487 -0.0461049 1.70506e-20)
(0.429591 -0.0453547 -1.13517e-20)
(0.474034 -0.0500601 -2.3842e-21)
(-0.00200591 0.00304502 1.08665e-20)
(-0.0030976 0.00127991 3.19094e-20)
(-0.000683368 -0.00287426 -6.83555e-20)
(0.00673107 -0.00853143 -3.11575e-21)
(0.0188339 -0.01419 -2.33686e-20)
(0.0351544 -0.0197758 -7.54858e-20)
(0.0553173 -0.0248569 5.34907e-20)
(0.0786814 -0.0294986 3.10685e-21)
(0.104908 -0.0336001 -7.34577e-20)
(0.133521 -0.0372263 -6.29047e-21)
(0.164203 -0.0403752 1.62454e-20)
(0.196681 -0.0430876 5.26259e-20)
(0.230562 -0.0453904 -2.5468e-20)
(0.265909 -0.0473059 -2.36252e-20)
(0.301859 -0.0488592 -2.10436e-20)
(0.339556 -0.0501343 -1.62952e-20)
(0.376102 -0.0509345 3.24132e-20)
(0.416771 -0.0521507 -7.00613e-21)
(0.450865 -0.0513388 -2.70463e-20)
(0.498157 -0.0560961 2.20373e-20)
(-0.00205632 0.0033448 3.47367e-20)
(-0.00270279 0.00127021 -2.94208e-20)
(0.000509562 -0.00344078 -3.4448e-20)
(0.00888223 -0.00982087 -2.56066e-20)
(0.0220743 -0.0161798 -1.57336e-21)
(0.0395573 -0.0224451 3.21458e-20)
(0.0609554 -0.0281293 -1.53053e-20)
(0.0856114 -0.0333097 -9.79791e-20)
(0.113189 -0.0378726 7.19042e-20)
(0.143208 -0.0418916 7.23778e-20)
(0.175353 -0.0453644 1.21683e-20)
(0.209347 -0.0483363 -3.2049e-20)
(0.244791 -0.0508389 -1.14821e-20)
(0.281753 -0.0528926 -6.96127e-21)
(0.319334 -0.0545367 -2.48887e-20)
(0.358741 -0.0558361 -3.32487e-20)
(0.396878 -0.0566417 -3.75471e-20)
(0.439464 -0.0577693 4.30394e-21)
(0.474617 -0.0569205 1.28602e-20)
(0.524942 -0.0614804 -3.1858e-20)
(-0.00210464 0.00360617 2.09674e-20)
(-0.00224402 0.00119546 8.51222e-20)
(0.00186644 -0.00407302 1.2704e-19)
(0.0113142 -0.0111641 8.21521e-20)
(0.0257261 -0.0182032 3.35091e-21)
(0.0445091 -0.0251235 2.44134e-20)
(0.0672862 -0.0313832 3.38842e-20)
(0.0933819 -0.037073 -1.97009e-20)
(0.122462 -0.0420656 -9.21561e-20)
(0.154042 -0.0464441 -9.19821e-20)
(0.187803 -0.0502059 -2.49492e-21)
(0.223467 -0.0534005 7.63444e-20)
(0.260625 -0.0560647 -1.64677e-20)
(0.299347 -0.0582152 8.69852e-21)
(0.338698 -0.0599097 -2.25068e-20)
(0.379941 -0.0611837 5.07509e-20)
(0.419779 -0.0619608 1.48083e-20)
(0.464383 -0.0629176 -3.25855e-21)
(0.500637 -0.0620603 4.29427e-20)
(0.5541 -0.0661654 8.56306e-21)
(-0.00214805 0.00382543 -3.68787e-20)
(-0.00171631 0.00104951 -9.53554e-20)
(0.00339233 -0.00477693 -2.54829e-20)
(0.0140312 -0.0125657 -1.10849e-19)
(0.0297914 -0.0202623 2.76575e-20)
(0.0500091 -0.0278106 -6.2112e-20)
(0.0743056 -0.0346152 -6.73929e-20)
(0.101984 -0.0407814 2.71099e-20)
(0.132712 -0.0461688 3.43514e-20)
(0.165998 -0.0508703 -1.7871e-20)
(0.20152 -0.0548826 -8.81687e-20)
(0.238995 -0.0582595 -9.90678e-20)
(0.278003 -0.0610435 4.75903e-20)
(0.318614 -0.0632464 -1.21396e-20)
(0.35985 -0.0649479 -7.92667e-21)
(0.40303 -0.0661442 -7.94375e-20)
(0.444645 -0.066857 -8.1773e-22)
(0.491326 -0.0675579 -1.73505e-20)
(0.528698 -0.0667231 4.15181e-21)
(0.585316 -0.0701163 -4.85055e-21)
(-0.00218342 0.00399914 -9.27137e-20)
(-0.00111423 0.000826665 -3.53597e-20)
(0.00509274 -0.00555794 3.84612e-20)
(0.0170375 -0.0140294 8.07249e-20)
(0.0342726 -0.0223588 -7.2789e-20)
(0.0560567 -0.0305052 9.75165e-20)
(0.0820086 -0.037821 1.2573e-19)
(0.111408 -0.0444276 3.17584e-20)
(0.143923 -0.0501716 -1.70734e-20)
(0.179051 -0.0551561 1.27578e-19)
(0.216469 -0.0593773 1.64973e-19)
(0.255884 -0.0628929 1.22277e-19)
(0.296862 -0.0657522 -4.92833e-20)
(0.339468 -0.0679602 -8.67601e-22)
(0.38268 -0.0696228 1.15219e-20)
(0.427868 -0.0706871 7.16216e-20)
(0.471309 -0.0712989 1.20392e-20)
(0.520079 -0.071658 1.99889e-20)
(0.558561 -0.0708781 -4.07669e-20)
(0.618259 -0.0733114 2.38232e-20)
(-0.00220742 0.00412417 8.53701e-20)
(-0.000431889 0.00052175 5.71216e-20)
(0.00697366 -0.00642083 -9.32548e-20)
(0.020338 -0.0155587 -4.52538e-20)
(0.039172 -0.0244935 5.58333e-20)
(0.0626509 -0.0332056 -5.78038e-20)
(0.0903901 -0.0409959 -2.49802e-20)
(0.121642 -0.0480038 2.41425e-20)
(0.156075 -0.0540632 3.11797e-20)
(0.193175 -0.0592876 -3.55308e-20)
(0.232611 -0.0636729 -5.36208e-20)
(0.274079 -0.067281 -6.45339e-20)
(0.317129 -0.0701681 2.70096e-20)
(0.361817 -0.0723318 -1.51029e-20)
(0.407072 -0.073908 3.56991e-20)
(0.454307 -0.0747851 -9.13791e-21)
(0.49959 -0.0752586 -9.22286e-21)
(0.550415 -0.0751919 -1.96504e-20)
(0.589972 -0.0744993 3.1992e-20)
(0.652587 -0.0757422 -3.81825e-20)
(-0.00221644 0.00419746 -7.82634e-20)
(0.000336921 0.000130336 9.76937e-20)
(0.00904144 -0.00736974 2.77274e-20)
(0.0239377 -0.0171559 3.62188e-20)
(0.0444922 -0.0266668 1.28001e-19)
(0.0697908 -0.0359094 -6.10805e-20)
(0.0994441 -0.0441347 -1.55672e-19)
(0.132675 -0.0515019 2.97807e-21)
(0.16915 -0.0578324 -5.60161e-21)
(0.208339 -0.0632506 -1.18312e-19)
(0.249903 -0.0677526 -6.2803e-20)
(0.293523 -0.0714043 -4.25593e-20)
(0.338728 -0.0742698 -1.75798e-20)
(0.385561 -0.076338 2.7327e-21)
(0.432901 -0.0777793 -6.95301e-20)
(0.48219 -0.0784141 5.4155e-22)
(0.529299 -0.0787123 -4.5671e-21)
(0.582098 -0.0781399 4.6902e-20)
(0.622669 -0.0775653 -8.77298e-21)
(0.68795 -0.0774129 3.9072e-20)
(-0.00220649 0.00421592 4.67232e-20)
(0.00119872 -0.000351074 -7.221e-20)
(0.0113028 -0.00840809 9.64913e-21)
(0.0278419 -0.0188231 -1.59365e-19)
(0.0502358 -0.0288782 -1.19564e-19)
(0.0774751 -0.0386136 1.35286e-19)
(0.109164 -0.0472315 -2.22753e-20)
(0.144494 -0.0549131 8.76741e-20)
(0.183125 -0.0614675 1.43053e-20)
(0.224511 -0.067031 1.06026e-19)
(0.2683 -0.0715997 7.79308e-20)
(0.314155 -0.075244 -1.8229e-20)
(0.36158 -0.0780368 3.23586e-20)
(0.410597 -0.0799576 1.00705e-19)
(0.460035 -0.081215 2.12483e-20)
(0.511353 -0.0815538 2.58314e-22)
(0.560239 -0.0816407 3.00264e-20)
(0.614887 -0.0804888 -6.36161e-20)
(0.656388 -0.0800596 4.62009e-20)
(0.723999 -0.0783398 -3.25007e-20)
(-0.00217367 0.004178 5.56977e-20)
(0.00216074 -0.000926397 2.86366e-20)
(0.0137646 -0.00953859 -2.74409e-20)
(0.0320563 -0.0205611 1.91863e-19)
(0.0564055 -0.0311265 -1.05704e-19)
(0.0857023 -0.0413143 -1.02091e-19)
(0.119544 -0.0502798 7.0718e-20)
(0.157084 -0.0582282 -1.03817e-20)
(0.197978 -0.0649567 6.4782e-20)
(0.241658 -0.0706143 -7.01053e-20)
(0.287755 -0.0751976 2.7285e-20)
(0.335909 -0.0787819 3.64333e-20)
(0.385597 -0.0814497 1.24053e-19)
(0.436814 -0.0831709 -8.81187e-20)
(0.488337 -0.0841959 -5.60978e-20)
(0.541627 -0.0841874 -5.00644e-20)
(0.592207 -0.0840285 -2.63574e-20)
(0.648534 -0.0822326 8.34393e-20)
(0.690859 -0.081971 -6.39899e-20)
(0.76039 -0.0785503 -3.48385e-21)
(-0.00211417 0.00408247 -9.70206e-20)
(0.00323032 -0.00159901 -4.65505e-20)
(0.0164345 -0.0107631 1.02656e-19)
(0.0365866 -0.0223701 -2.5418e-20)
(0.0630038 -0.0334096 1.02993e-19)
(0.0944708 -0.0440069 1.45582e-19)
(0.130575 -0.0532724 -6.18229e-20)
(0.170431 -0.0614375 -6.97028e-20)
(0.213685 -0.0682879 -2.02328e-19)
(0.259741 -0.0739862 1.47276e-19)
(0.308215 -0.0785303 -1.8594e-20)
(0.358717 -0.0820005 -1.0527e-20)
(0.410691 -0.0844906 -7.58388e-20)
(0.464099 -0.0859605 4.52149e-20)
(0.517664 -0.0867058 4.22152e-20)
(0.572837 -0.0863021 2.79088e-20)
(0.624998 -0.0858653 1.02878e-20)
(0.682794 -0.0833719 -5.50747e-20)
(0.725812 -0.0832936 -4.43198e-21)
(0.796791 -0.0780818 3.78241e-20)
(-0.00202365 0.00392732 -4.42206e-20)
(0.00441482 -0.00237054 -3.4112e-20)
(0.0193198 -0.0120828 -1.28726e-19)
(0.0414386 -0.0242497 -1.78236e-20)
(0.0700335 -0.0357245 7.84408e-20)
(0.103779 -0.0466863 -1.19584e-19)
(0.14225 -0.0562016 1.91088e-20)
(0.184518 -0.0645306 7.67331e-20)
(0.230218 -0.0714484 1.51167e-19)
(0.278724 -0.0771323 -1.50184e-19)
(0.329628 -0.0815817 -5.19273e-20)
(0.382506 -0.0848833 7.43582e-20)
(0.436767 -0.0871429 1.69324e-20)
(0.492332 -0.0883109 2.10475e-20)
(0.547871 -0.0887312 3.55502e-20)
(0.604805 -0.0878892 -2.852e-21)
(0.658405 -0.0871456 -3.94956e-20)
(0.717422 -0.0839144 -1.60721e-20)
(0.760985 -0.0840274 -1.5653e-20)
(0.832885 -0.0769803 -5.83313e-21)
(-0.00189768 0.0037112 2.17387e-19)
(0.0057219 -0.00324219 -6.97953e-20)
(0.0224285 -0.0134978 1.68562e-19)
(0.0466185 -0.0261981 -8.20716e-21)
(0.0774971 -0.0380677 -9.00063e-20)
(0.113623 -0.0493462 2.11208e-21)
(0.154559 -0.0590587 6.28743e-20)
(0.199329 -0.0674968 -1.1038e-20)
(0.24755 -0.0744255 -1.07682e-19)
(0.298565 -0.0800381 1.09461e-20)
(0.351936 -0.0843364 -2.02225e-21)
(0.407201 -0.0874146 -6.97474e-21)
(0.463729 -0.0893915 -1.90329e-19)
(0.521392 -0.0902091 -4.48741e-20)
(0.578808 -0.0902621 -4.44143e-20)
(0.637352 -0.0889441 2.93317e-20)
(0.692218 -0.0878685 -1.39489e-20)
(0.752176 -0.083874 6.21404e-20)
(0.796118 -0.0841784 3.27e-20)
(0.868377 -0.0752986 -2.90956e-20)
(-0.00173178 0.00343334 -1.36176e-19)
(0.00715946 -0.00421457 2.1182e-19)
(0.0257684 -0.0150075 -2.0485e-19)
(0.0521321 -0.0282129 1.36698e-22)
(0.0853969 -0.0404343 -2.01299e-20)
(0.124002 -0.0519797 -8.465e-20)
(0.167493 -0.0618346 1.29431e-21)
(0.214844 -0.0703247 9.49951e-20)
(0.265652 -0.0772061 1.94661e-19)
(0.319221 -0.0826893 -1.01661e-19)
(0.375081 -0.0867796 6.52961e-20)
(0.432725 -0.0895797 -2.91012e-20)
(0.491477 -0.091223 1.31019e-19)
(0.551154 -0.0916445 -1.69435e-20)
(0.610324 -0.0912913 -2.14023e-20)
(0.670299 -0.0894666 -6.154e-20)
(0.726234 -0.0880381 3.73932e-20)
(0.786826 -0.0832711 -2.89266e-20)
(0.830963 -0.0837587 -6.66095e-20)
(0.902999 -0.0730949 4.71697e-20)
(-0.00152141 0.00309332 -5.64941e-20)
(0.00873552 -0.00528762 -2.52076e-19)
(0.0293476 -0.0166104 1.86989e-19)
(0.0579856 -0.0302907 1.4674e-19)
(0.0937351 -0.0428188 1.21219e-19)
(0.134912 -0.054579 1.15625e-19)
(0.181042 -0.0645192 2.0574e-19)
(0.231045 -0.0730025 -2.74447e-19)
(0.284493 -0.0797769 -1.5733e-19)
(0.340648 -0.0850717 4.28682e-20)
(0.399001 -0.0888969 -2.70061e-20)
(0.458996 -0.0913652 -9.28687e-20)
(0.519907 -0.092626 -6.88476e-20)
(0.58149 -0.0926091 3.17878e-21)
(0.642267 -0.0918153 5.74321e-20)
(0.703468 -0.0894605 3.85659e-20)
(0.76025 -0.0876637 2.3382e-20)
(0.821149 -0.0821317 -3.2705e-20)
(0.865285 -0.082787 7.293e-20)
(0.936509 -0.0704315 -4.36151e-20)
(-0.00126199 0.0026911 1.45996e-19)
(0.0104582 -0.0064605 1.88928e-19)
(0.033174 -0.0183041 -7.61742e-20)
(0.0641849 -0.0324272 -1.75147e-19)
(0.102514 -0.0452147 -1.27912e-19)
(0.146349 -0.0571353 -7.33856e-20)
(0.195195 -0.067102 -1.72146e-19)
(0.24791 -0.0755179 5.08294e-20)
(0.304041 -0.0821243 6.1315e-20)
(0.362799 -0.0871713 -3.04604e-20)
(0.423633 -0.0906745 2.79839e-20)
(0.485932 -0.0927588 1.50499e-21)
(0.548916 -0.0935908 1.4651e-19)
(0.612273 -0.0930977 -6.38171e-20)
(0.674484 -0.0918341 -2.84079e-20)
(0.736685 -0.0889341 2.77048e-21)
(0.794072 -0.086759 -2.7364e-20)
(0.854935 -0.0804866 8.51018e-21)
(0.898863 -0.0812879 2.96891e-20)
(0.968698 -0.0673724 -6.8583e-22)
(-0.000948891 0.00222703 -1.70279e-19)
(0.0123356 -0.0077316 -1.50842e-19)
(0.0372558 -0.0200852 -1.99522e-19)
(0.0707358 -0.0346169 2.44391e-20)
(0.111734 -0.0476146 6.95387e-20)
(0.158309 -0.0596393 3.97861e-20)
(0.209939 -0.0695716 -1.22702e-19)
(0.265418 -0.0778581 1.13474e-19)
(0.324261 -0.0842347 -1.31234e-19)
(0.385625 -0.0889742 6.20254e-20)
(0.448912 -0.0920997 5.61476e-20)
(0.513446 -0.0937497 1.54216e-19)
(0.578396 -0.09411 2.39908e-20)
(0.643375 -0.0931078 6.18122e-20)
(0.706826 -0.0913511 -3.02595e-20)
(0.769779 -0.0878998 9.98363e-20)
(0.827513 -0.0853427 2.59478e-20)
(0.887991 -0.0783713 -4.15961e-20)
(0.931496 -0.0792924 -1.12311e-20)
(0.999391 -0.0639825 -1.18684e-20)
(-0.000577484 0.0017018 7.5657e-20)
(0.0143759 -0.00909859 -1.32852e-20)
(0.0416009 -0.0219495 6.27405e-20)
(0.0776439 -0.0368535 -5.18745e-20)
(0.121398 -0.0500099 3.33354e-20)
(0.170787 -0.0620806 1.65607e-19)
(0.225261 -0.071916 -1.06203e-19)
(0.283546 -0.08001 -2.94182e-20)
(0.345118 -0.0860945 1.95499e-19)
(0.409076 -0.0904673 -8.73132e-20)
(0.474768 -0.0931604 2.46242e-20)
(0.541453 -0.0943286 2.80129e-20)
(0.60824 -0.0941783 -1.83885e-19)
(0.674666 -0.0926398 5.77994e-20)
(0.739145 -0.0903733 -2.793e-20)
(0.802585 -0.0863737 -2.06177e-20)
(0.860396 -0.0834377 -3.59948e-20)
(0.92014 -0.0758246 3.50699e-20)
(0.963001 -0.0768365 -3.08684e-20)
(1.02844 -0.060326 3.27929e-20)
(-0.000143157 0.00111652 1.18432e-19)
(0.0165871 -0.0105584 2.88065e-19)
(0.046217 -0.0238919 1.63523e-19)
(0.0849146 -0.0391298 -2.71801e-21)
(0.131506 -0.0523915 -1.24137e-19)
(0.183778 -0.064448 -6.92872e-20)
(0.241147 -0.0741227 1.86234e-19)
(0.302269 -0.08196 -7.32641e-21)
(0.366575 -0.0876899 9.20872e-22)
(0.433099 -0.0916375 1.5813e-19)
(0.501133 -0.0938457 -9.03634e-20)
(0.569864 -0.094488 -1.00228e-19)
(0.638341 -0.0937926 1.56903e-19)
(0.70602 -0.0916969 5.75813e-20)
(0.771295 -0.0889111 1.24693e-19)
(0.834947 -0.084376 -1.461e-19)
(0.892556 -0.0810712 -8.51026e-21)
(0.951221 -0.0728881 5.03001e-20)
(0.99322 -0.0739614 6.78324e-20)
(1.05575 -0.0564646 -2.08391e-21)
(0.000358664 0.000472628 1.07643e-19)
(0.0189773 -0.0121071 -1.14119e-19)
(0.051112 -0.0259061 -9.9269e-20)
(0.0925529 -0.0414375 9.47839e-20)
(0.142058 -0.0547491 1.65561e-19)
(0.197274 -0.0667296 4.76177e-20)
(0.257583 -0.0761785 7.30695e-20)
(0.321561 -0.0836944 -1.28919e-19)
(0.388592 -0.0890075 8.50626e-20)
(0.457641 -0.0924726 -1.66387e-19)
(0.527936 -0.0941458 -1.91993e-19)
(0.59859 -0.0942219 -4.20811e-21)
(0.66859 -0.0929525 -3.98703e-20)
(0.737312 -0.0902856 -1.33555e-19)
(0.803137 -0.0869786 -5.98515e-20)
(0.866717 -0.0819302 9.58676e-20)
(0.92384 -0.078274 8.16744e-20)
(0.981098 -0.0696053 -4.76053e-20)
(1.02202 -0.0707121 -5.45885e-21)
(1.08124 -0.0524573 -2.87727e-20)
(0.000932492 -0.000228038 -1.1523e-19)
(0.0215542 -0.0137401 -1.47369e-19)
(0.056293 -0.0279853 8.01192e-20)
(0.100563 -0.0437673 9.54213e-20)
(0.153054 -0.0570715 -5.68355e-20)
(0.21127 -0.0689126 -1.6203e-19)
(0.274552 -0.0780696 -1.65806e-20)
(0.341395 -0.0851992 -4.55126e-20)
(0.41113 -0.0900337 -3.13234e-19)
(0.482645 -0.0929611 1.25998e-19)
(0.555104 -0.0940523 2.57933e-19)
(0.62754 -0.0935263 3.74919e-20)
(0.69888 -0.0916597 -6.01493e-20)
(0.76842 -0.0884151 2.47592e-20)
(0.834538 -0.0845928 -1.39509e-19)
(0.897757 -0.0790629 -3.38688e-20)
(0.954113 -0.0750801 -9.1961e-21)
(1.00965 -0.0660207 4.36388e-22)
(1.04928 -0.0671363 -3.16786e-20)
(1.10485 -0.0483586 -2.08396e-21)
(0.00158276 -0.000983299 -3.08012e-19)
(0.0243255 -0.0154522 1.87636e-19)
(0.0617673 -0.0301215 -1.34622e-19)
(0.10895 -0.0461091 -2.79607e-19)
(0.164493 -0.0593467 -9.48176e-20)
(0.225756 -0.0709838 4.12944e-20)
(0.292037 -0.0797818 -8.782e-21)
(0.361742 -0.0864601 1.49768e-19)
(0.434145 -0.0907556 2.07578e-19)
(0.508055 -0.0930921 2.02795e-19)
(0.582564 -0.0935579 -7.37014e-20)
(0.656625 -0.0923992 -1.26189e-19)
(0.729106 -0.0899188 2.10773e-20)
(0.799225 -0.0860975 -5.74626e-20)
(0.865371 -0.0817741 5.4071e-20)
(0.927941 -0.0758036 3.45294e-20)
(0.983252 -0.0715261 -2.29592e-20)
(1.03678 -0.0621793 -2.40453e-21)
(1.07493 -0.0632836 -5.10168e-20)
(1.12658 -0.0442183 4.89522e-20)
(0.00231381 -0.00179062 1.10403e-19)
(0.0272986 -0.0172372 -4.03276e-20)
(0.0675415 -0.0323059 2.51578e-20)
(0.117717 -0.0484519 2.39093e-19)
(0.176373 -0.0615618 7.19272e-20)
(0.240724 -0.0729289 -2.90837e-19)
(0.310018 -0.0813007 1.59842e-19)
(0.382572 -0.0874632 -1.47854e-19)
(0.457596 -0.0911606 -4.50069e-20)
(0.533812 -0.0928558 -8.80849e-20)
(0.610241 -0.0926571 6.89452e-20)
(0.685754 -0.0908407 -9.82177e-20)
(0.759163 -0.0877366 -8.73952e-20)
(0.829613 -0.0833477 1.24318e-19)
(0.895517 -0.0785457 1.7388e-19)
(0.957153 -0.0721841 1.06318e-20)
(1.01115 -0.0676506 6.97289e-20)
(1.06242 -0.0581255 6.8352e-20)
(1.09891 -0.059204 -2.8714e-20)
(1.14644 -0.040081 -1.08793e-19)
(0.00312984 -0.00264714 -3.39391e-21)
(0.0304807 -0.0190885 8.7212e-20)
(0.0736217 -0.0345289 1.68698e-19)
(0.126866 -0.0507836 -8.75936e-20)
(0.188691 -0.0637033 -2.96516e-19)
(0.256163 -0.0747334 1.48415e-19)
(0.328477 -0.0826113 -3.35761e-19)
(0.403854 -0.0881942 2.01112e-19)
(0.481435 -0.0912365 9.11007e-20)
(0.559857 -0.0922434 -1.22392e-20)
(0.638061 -0.0913458 -9.46833e-20)
(0.714839 -0.0888528 2.01952e-20)
(0.788951 -0.0851226 1.4e-19)
(0.859477 -0.0801834 -1.23767e-19)
(0.924867 -0.0749334 -9.43779e-21)
(0.985293 -0.068238 -6.10145e-20)
(1.03773 -0.0634936 -1.70358e-19)
(1.0865 -0.0539029 -1.01422e-19)
(1.12118 -0.0549467 3.18319e-20)
(1.16446 -0.0359855 1.07939e-19)
(0.00403494 -0.00354964 2.13885e-19)
(0.0338784 -0.0209985 -2.43295e-20)
(0.0800139 -0.0367799 -1.18467e-19)
(0.136401 -0.0530914 -1.67131e-19)
(0.201445 -0.0657568 1.42791e-19)
(0.272062 -0.076382 -1.5623e-19)
(0.347392 -0.0836986 1.44591e-19)
(0.425555 -0.0886392 -4.44191e-20)
(0.505618 -0.0909719 -1.89018e-19)
(0.586127 -0.0912474 -9.05854e-21)
(0.665948 -0.0896218 1.01178e-19)
(0.743792 -0.0864401 2.07426e-19)
(0.818373 -0.0820888 -9.22701e-20)
(0.888714 -0.0766246 1.55077e-19)
(0.953321 -0.0709653 2.59411e-21)
(1.01227 -0.0640001 9.91654e-20)
(1.06291 -0.0590958 -1.00435e-19)
(1.10899 -0.0495533 1.13098e-20)
(1.14172 -0.0505593 7.962e-20)
(1.1807 -0.0319652 -1.37204e-20)
(0.00503301 -0.00449461 -1.81536e-19)
(0.0374982 -0.0229593 -9.84501e-20)
(0.0867231 -0.0390478 -9.1336e-20)
(0.146322 -0.0553618 3.30166e-19)
(0.214628 -0.0677071 1.75733e-19)
(0.288409 -0.077859 2.06807e-19)
(0.36674 -0.0845472 9.5033e-20)
(0.447639 -0.0887847 3.77756e-20)
(0.530097 -0.0903561 1.32487e-19)
(0.612563 -0.0898615 -3.57238e-19)
(0.693828 -0.0874847 -1.17951e-20)
(0.772526 -0.0836089 -4.74666e-20)
(0.847333 -0.0786495 1.80594e-19)
(0.91723 -0.0726937 2.55002e-21)
(0.980789 -0.0666711 3.71574e-20)
(1.03802 -0.0595063 -9.74873e-20)
(1.08664 -0.0544979 3.9306e-20)
(1.12988 -0.0451164 1.19472e-19)
(1.16055 -0.0460864 6.00445e-21)
(1.19521 -0.0280481 -4.39678e-20)
(0.0061278 -0.00547822 -1.68967e-19)
(0.041346 -0.024962 4.64696e-20)
(0.0937538 -0.0413205 2.2684e-20)
(0.156631 -0.0575804 -1.14592e-19)
(0.228236 -0.0695388 -1.19929e-19)
(0.305188 -0.0791485 -5.86979e-20)
(0.386497 -0.085142 1.31946e-19)
(0.470071 -0.0886174 6.71008e-20)
(0.554821 -0.0893793 -6.03747e-20)
(0.639101 -0.0880809 1.77884e-19)
(0.721625 -0.0849358 1.01748e-19)
(0.800956 -0.0803681 -8.81842e-21)
(0.875744 -0.0748214 -1.10208e-19)
(0.944936 -0.068415 -1.5358e-19)
(1.00719 -0.0620824 -9.34538e-20)
(1.06247 -0.0547928 3.15607e-20)
(1.10889 -0.0497398 -1.01024e-21)
(1.14917 -0.0406296 -6.84485e-20)
(1.17771 -0.0415686 -9.68186e-20)
(1.20807 -0.0242575 6.04263e-20)
(0.00732285 -0.00649635 -7.01946e-21)
(0.0454273 -0.0269973 1.77743e-21)
(0.10111 -0.0435853 1.65483e-19)
(0.167326 -0.0597322 -2.15517e-19)
(0.242262 -0.0712355 1.25344e-19)
(0.322386 -0.0802341 1.57246e-19)
(0.406637 -0.0854678 -8.65132e-20)
(0.492814 -0.0881247 4.13305e-20)
(0.579742 -0.088033 -5.55098e-20)
(0.665679 -0.0859022 -1.07188e-20)
(0.749266 -0.0819785 4.00829e-20)
(0.829003 -0.0767285 7.04765e-20)
(0.90352 -0.0706232 -1.10055e-20)
(0.971753 -0.0638147 1.24879e-19)
(1.03247 -0.0572314 8.44883e-20)
(1.08559 -0.0498953 3.71983e-20)
(1.12963 -0.0448604 -1.04285e-20)
(1.16687 -0.0361272 2.54013e-20)
(1.19322 -0.0370422 -1.39156e-20)
(1.21939 -0.0206131 -1.34042e-19)
(0.00862149 -0.0075446 4.59166e-19)
(0.0497472 -0.0290554 -1.28569e-19)
(0.108795 -0.0458287 -2.65761e-19)
(0.178407 -0.0618014 2.23423e-19)
(0.256698 -0.0727806 -1.06036e-19)
(0.339986 -0.0810994 -3.25345e-20)
(0.427134 -0.0855097 2.88704e-20)
(0.515829 -0.0872945 2.35214e-20)
(0.604807 -0.0863094 3.61403e-20)
(0.692234 -0.0833237 -7.84554e-20)
(0.776679 -0.0786181 -1.10933e-20)
(0.856588 -0.0727031 -2.60809e-19)
(0.930586 -0.0660756 -5.70107e-20)
(0.997612 -0.0589202 -4.8654e-20)
(1.05655 -0.0521513 -1.68642e-20)
(1.10733 -0.0448493 2.62812e-20)
(1.14887 -0.0398968 -6.91091e-21)
(1.18302 -0.0316403 9.23876e-21)
(1.20717 -0.032538 -6.01197e-20)
(1.22924 -0.017133 1.23269e-19)
(0.0100268 -0.00861832 -3.78418e-19)
(0.0543101 -0.0311258 3.54838e-20)
(0.11681 -0.0480368 1.63261e-19)
(0.189872 -0.063772 -1.53696e-19)
(0.271534 -0.0741571 -1.36774e-19)
(0.357969 -0.0817278 -1.9654e-19)
(0.447958 -0.085253 -8.68767e-20)
(0.539075 -0.0861156 -2.10359e-19)
(0.629966 -0.0842023 -1.98016e-20)
(0.718703 -0.0803454 6.99128e-20)
(0.803793 -0.0748619 -2.02589e-19)
(0.883636 -0.0683069 9.12547e-20)
(0.956867 -0.0612011 -3.92289e-20)
(1.02245 -0.05376 -9.35188e-20)
(1.07941 -0.0468753 -1.20431e-19)
(1.12769 -0.0396888 1.14314e-20)
(1.1666 -0.0348838 4.69546e-20)
(1.19766 -0.0271968 -1.28126e-20)
(1.21961 -0.0280819 1.20809e-19)
(1.23772 -0.0138356 -5.66289e-20)
(0.0115417 -0.00971258 3.24602e-19)
(0.0591198 -0.0331976 8.14295e-20)
(0.125157 -0.0501949 1.50636e-19)
(0.201716 -0.0656272 1.24263e-19)
(0.286761 -0.0753478 3.62068e-19)
(0.376316 -0.0821029 1.64467e-19)
(0.46908 -0.0846836 -3.14126e-20)
(0.562511 -0.0845778 8.5537e-20)
(0.655165 -0.0817068 -1.01137e-19)
(0.745024 -0.076969 1.79265e-19)
(0.830538 -0.070719 9.10111e-20)
(0.910077 -0.0635567 2.04194e-20)
(0.9823 -0.0560236 1.55371e-19)
(1.04621 -0.0483636 2.95461e-20)
(1.101 -0.0414363 9.4572e-20)
(1.14665 -0.0344464 -1.46121e-19)
(1.18287 -0.029854 -1.13858e-19)
(1.21086 -0.022821 1.26025e-21)
(1.23062 -0.0236934 6.63851e-20)
(1.24493 -0.0107378 9.41386e-20)
(0.0131688 -0.0108222 -4.11516e-19)
(0.0641795 -0.0352592 1.17962e-20)
(0.133838 -0.052288 -1.82203e-19)
(0.213935 -0.0673498 1.6395e-20)
(0.302366 -0.0763352 -4.55849e-19)
(0.395006 -0.0822083 2.24669e-20)
(0.490469 -0.0837879 2.9431e-20)
(0.586095 -0.0826717 -2.07267e-20)
(0.680351 -0.0788193 6.34343e-20)
(0.771136 -0.073198 -1.71262e-20)
(0.85685 -0.0662005 4.70668e-20)
(0.935846 -0.0584711 2.53278e-20)
(1.00683 -0.0505682 -4.03752e-20)
(1.06886 -0.0427606 -1.28003e-20)
(1.1213 -0.0358665 -4.84142e-20)
(1.16422 -0.0291527 1.49781e-19)
(1.19769 -0.0248369 5.86783e-20)
(1.22267 -0.0185336 5.92264e-20)
(1.24029 -0.0193837 -4.39426e-20)
(1.25094 -0.00785088 -7.40829e-20)
(0.0149103 -0.0119419 3.25562e-19)
(0.0694918 -0.037299 -1.97476e-19)
(0.14285 -0.0543004 1.75901e-20)
(0.226524 -0.0689225 -2.03709e-19)
(0.318335 -0.0771018 5.1358e-19)
(0.414016 -0.082028 1.81377e-19)
(0.512091 -0.0825531 -2.86353e-19)
(0.609783 -0.0803893 -6.67838e-20)
(0.705472 -0.0755381 1.1235e-21)
(0.796978 -0.0690377 1.25411e-20)
(0.882665 -0.0613195 -1.20435e-19)
(0.960882 -0.0530703 4.62449e-20)
(1.03039 -0.0448611 1.20181e-19)
(1.09036 -0.0369806 1.81143e-19)
(1.14031 -0.0301972 5.19112e-20)
(1.18042 -0.0238363 -4.83565e-20)
(1.21111 -0.0198597 -2.02942e-20)
(1.23317 -0.0143511 -7.77264e-20)
(1.24869 -0.0151534 1.41167e-20)
(1.25585 -0.0052234 -1.40559e-20)
(0.0167684 -0.0130661 8.81383e-20)
(0.0750585 -0.0393046 3.09119e-19)
(0.152193 -0.0562164 -9.80825e-20)
(0.239475 -0.0703275 9.24224e-20)
(0.334655 -0.07763 -1.98614e-19)
(0.433322 -0.0815463 -6.93913e-20)
(0.533912 -0.0809671 2.01901e-19)
(0.633531 -0.0777236 1.69087e-20)
(0.730474 -0.0718628 8.92961e-20)
(0.822491 -0.0644952 -4.1374e-20)
(0.907921 -0.0560905 6.8424e-20)
(0.98513 -0.0473756 -3.57327e-20)
(1.05296 -0.0389289 -5.34431e-20)
(1.11069 -0.0310531 -1.87074e-19)
(1.15802 -0.0244583 -1.01839e-19)
(1.19527 -0.0185232 -4.25252e-20)
(1.22318 -0.0149466 7.03225e-21)
(1.24244 -0.0102842 5.73825e-20)
(1.25592 -0.0110079 -1.16315e-20)
(1.25984 -0.00309866 1.3266e-20)
(0.018745 -0.0141892 -3.85845e-19)
(0.080881 -0.0412637 -5.8528e-20)
(0.161864 -0.0580198 9.59392e-20)
(0.25278 -0.0715473 -9.74156e-20)
(0.351308 -0.0779027 -1.22086e-19)
(0.4529 -0.0807482 -2.30462e-19)
(0.555897 -0.0790188 -2.13499e-19)
(0.657294 -0.0746693 1.91743e-19)
(0.755304 -0.0677947 6.54773e-20)
(0.847618 -0.0595794 -2.10942e-19)
(0.932563 -0.0505299 -5.42634e-20)
(1.00854 -0.0414097 -1.56261e-19)
(1.07449 -0.0327987 -7.4677e-20)
(1.12982 -0.0250068 1.82441e-19)
(1.17444 -0.018678 9.91244e-20)
(1.20882 -0.0132369 -8.78877e-20)
(1.23397 -0.0101189 -6.98468e-21)
(1.25056 -0.00633716 -5.48494e-20)
(1.26203 -0.00700124 8.16054e-20)
(1.26331 -0.0018293 -9.64284e-21)
(0.0208414 -0.0153052 2.65096e-19)
(0.0869595 -0.0431635 -5.04053e-20)
(0.17186 -0.0596942 2.10676e-19)
(0.266429 -0.072564 2.08997e-19)
(0.368277 -0.0779027 1.75631e-19)
(0.472722 -0.0796192 1.07348e-19)
(0.578009 -0.0766983 2.8646e-19)
(0.681026 -0.0712223 -1.30547e-19)
(0.77991 -0.063337 -1.28619e-20)
(0.872304 -0.0543009 2.5943e-19)
(0.956538 -0.0446554 1.16905e-19)
(1.03107 -0.0351961 2.9353e-19)
(1.09496 -0.0264977 1.70374e-20)
(1.14776 -0.0188696 -1.66167e-19)
(1.1896 -0.0128824 -5.60126e-20)
(1.22109 -0.00799844 1.74653e-19)
(1.24353 -0.00539441 2.46431e-20)
(1.2576 -0.00251172 7.092e-20)
(1.26708 -0.00323085 -9.66686e-21)
(1.26689 -0.000446895 1.21784e-20)
(0.0230587 -0.0164081 -1.92902e-19)
(0.0932934 -0.0449907 -8.87656e-21)
(0.182176 -0.0612229 -2.78354e-19)
(0.280411 -0.0733596 -2.22424e-20)
(0.385543 -0.0776133 1.14573e-19)
(0.492759 -0.0781454 -1.02564e-20)