/*--------------------------------*- C++ -*----------------------------------*\
  =========                 |
  \\      /  F ield         | OpenFOAM: The Open Source CFD Toolbox
   \\    /   O peration     | Website:  https://openfoam.org
    \\  /    A nd           | Version:  7
     \\/     M anipulation  |
\*---------------------------------------------------------------------------*/
FoamFile
{
    version     2.0;
    format      ascii;
    class       volScalarField;
    location    "5";
    object      p;
}
// * * * * * * * * * * * * * * * * * * * * * * * * * * * * * * * * * * * * * //

dimensions      [0 2 -2 0 0 0 0];

internalField   nonuniform List<scalar> 
656
(
0.0731808
0.0881161
0.0778916
0.0895626
0.102803
0.0808062
0.0965044
0.105984
0.117403
0.102264
0.11512
0.122402
0.13186
0.106982
0.123727
0.133681
0.13877
0.146109
0.131804
0.145124
0.152127
0.155044
0.160083
0.140859
0.156551
0.166378
0.170402
0.171191
0.173714
0.169911
0.181132
0.187415
0.188451
0.1872
0.18691
0.198774
0.205454
0.208158
0.206223
0.203008
0.199434
0.212802
0.227328
0.229423
0.228535
0.223654
0.218329
0.210761
0.245769
0.255453
0.252948
0.248477
0.240672
0.232871
0.220443
0.27821
0.283028
0.275941
0.267918
0.257227
0.247228
0.232357
0.309988
0.309938
0.298314
0.286791
0.273251
0.261071
0.244648
0.340959
0.336069
0.319979
0.305027
0.288693
0.274289
0.256508
0.396359
0.370975
0.361309
0.340853
0.322559
0.303508
0.286899
0.267798
0.431788
0.399892
0.38555
0.360855
0.339326
0.317646
0.298894
0.278529
0.465802
0.427571
0.408689
0.379906
0.355268
0.331062
0.310247
0.288681
0.498219
0.453878
0.430625
0.397933
0.370327
0.343713
0.320929
0.298219
0.528865
0.478687
0.451264
0.414865
0.384451
0.355558
0.330915
0.307114
0.557577
0.501878
0.470517
0.430634
0.397587
0.36656
0.340177
0.315344
0.584199
0.523338
0.488298
0.445179
0.409688
0.376682
0.348691
0.322891
0.608589
0.542962
0.504532
0.458441
0.420711
0.385891
0.356431
0.329736
0.648334
0.630615
0.560655
0.519147
0.470367
0.430615
0.394157
0.363375
0.335864
0.670591
0.650157
0.576331
0.53208
0.480911
0.439363
0.401453
0.369501
0.34126
0.689931
0.667108
0.589913
0.543272
0.490029
0.446923
0.407754
0.374789
0.34591
0.706233
0.681378
0.601334
0.552675
0.497684
0.453267
0.413038
0.379224
0.349804
0.719397
0.692888
0.610539
0.560248
0.503846
0.458372
0.417288
0.382789
0.352932
0.729341
0.701575
0.617481
0.565956
0.508489
0.462217
0.420488
0.385474
0.355285
0.736004
0.707393
0.622127
0.569775
0.511595
0.464788
0.422628
0.38727
0.356857
0.624455
0.571689
0.513151
0.466077
0.4237
0.388169
0.357645
0.206021
0.190484
0.178065
0.165464
0.152455
0.139302
0.126021
0.20441
0.188082
0.175806
0.163342
0.15048
0.137542
0.199859
0.183388
0.171427
0.159383
0.146916
0.194905
0.178857
0.167148
0.155541
0.189899
0.174594
0.163111
0.184821
0.170369
0.179742
0.22711
0.227565
0.228643
0.230112
0.231951
0.23401
0.236102
0.238031
0.239405
0.240043
0.239212
0.237218
0.232091
0.227129
0.210766
0.226827
0.227234
0.228209
0.229526
0.231153
0.232933
0.234667
0.23615
0.236982
0.236982
0.235407
0.232611
0.22653
0.220803
0.203412
0.226532
0.226902
0.227786
0.228967
0.230408
0.231951
0.233393
0.234531
0.234967
0.234533
0.232492
0.229251
0.222699
0.216707
0.199909
0.226219
0.226549
0.227333
0.228366
0.229605
0.230888
0.232011
0.23277
0.232771
0.231862
0.229316
0.225582
0.218565
0.212216
0.195853
0.225887
0.226172
0.226849
0.227724
0.228745
0.22975
0.230531
0.230885
0.230423
0.229005
0.225925
0.22166
0.214187
0.207389
0.191346
0.225535
0.225773
0.226337
0.227046
0.22784
0.228557
0.228986
0.228924
0.227993
0.226064
0.222461
0.217671
0.209797
0.20254
0.18686
0.225162
0.225351
0.225797
0.226334
0.226892
0.227311
0.227378
0.226896
0.225495
0.223058
0.218951
0.213656
0.205437
0.197737
0.182473
0.224769
0.224907
0.225229
0.225585
0.225899
0.226011
0.225709
0.224798
0.222926
0.219986
0.215393
0.209613
0.201098
0.232575
0.233445
0.235655
0.23879
0.242963
0.248127
0.254306
0.261517
0.269727
0.278939
0.289105
0.300182
0.31208
0.324742
0.337943
0.232546
0.233413
0.235618
0.238746
0.242908
0.248058
0.25422
0.261406
0.269585
0.278758
0.288874
0.299889
0.31171
0.324282
0.337364
0.232486
0.23335
0.235545
0.238657
0.242798
0.24792
0.254048
0.261183
0.269301
0.278395
0.288411
0.299303
0.31097
0.323363
0.336209
0.232397
0.233255
0.235434
0.238524
0.242634
0.247714
0.253789
0.26085
0.268875
0.277852
0.287719
0.298426
0.309863
0.321987
0.334481
0.232279
0.233129
0.235288
0.238347
0.242415
0.24744
0.253445
0.260407
0.26831
0.277131
0.286798
0.29726
0.30839
0.320158
0.332183
0.232133
0.232972
0.235105
0.238128
0.242144
0.247099
0.253015
0.259856
0.267605
0.276231
0.285649
0.295807
0.306554
0.317879
0.329321
0.231958
0.232786
0.234888
0.237866
0.241819
0.246688
0.2525
0.259198
0.266762
0.275156
0.284276
0.294069
0.304358
0.315154
0.325901
0.231755
0.23257
0.234636
0.237563
0.241442
0.246202
0.2519
0.258433
0.265783
0.273906
0.28268
0.292049
0.301805
0.31199
0.321932
0.231526
0.232325
0.234351
0.237219
0.241016
0.245673
0.251216
0.257565
0.26467
0.272486
0.280864
0.289751
0.2989
0.308391
0.31742
0.23127
0.232053
0.234034
0.236835
0.240542
0.245129
0.250452
0.256594
0.263425
0.270896
0.278831
0.28718
0.295648
0.304365
0.312374
0.23099
0.231755
0.233685
0.236413
0.240014
0.24445
0.249609
0.255522
0.26205
0.269141
0.276585
0.284339
0.292052
0.299919
0.306803
0.230684
0.23143
0.233306
0.235955
0.239434
0.24372
0.248691
0.254352
0.260549
0.267223
0.274128
0.281232
0.288117
0.295059
0.300715
0.230356
0.231082
0.232898
0.23546
0.238831
0.242939
0.2477
0.253087
0.258925
0.265147
0.271465
0.277867
0.283848
0.289793
0.294113
0.230006
0.23071
0.232462
0.234922
0.238193
0.242103
0.246638
0.25173
0.257181
0.262917
0.268604
0.27425
0.279252
0.284132
0.287005
0.229634
0.230317
0.232
0.23434
0.237479
0.241212
0.245505
0.250282
0.255321
0.260538
0.265548
0.270389
0.274337
0.278087
0.279396
0.229243
0.229902
0.231511
0.233804
0.236725
0.240265
0.244298
0.248737
0.253333
0.257994
0.262279
0.26626
0.269073
0.271634
0.271258
0.228833
0.229468
0.230996
0.233158
0.235937
0.239267
0.243022
0.247098
0.25122
0.25528
0.258781
0.261831
0.263408
0.264696
0.262484
0.228407
0.22902
0.230481
0.232508
0.235138
0.238259
0.24174
0.245457
0.249106
0.252558
0.255258
0.257339
0.257598
0.25754
0.253299
0.227967
0.228563
0.229944
0.231863
0.234344
0.237273
0.24051
0.243911
0.247148
0.250072
0.252065
0.253278
0.25228
0.250966
0.244698
0.227507
0.228065
0.229336
0.231097
0.233359
0.236002
0.238877
0.241822
0.244488
0.246714
0.247819
0.248025
0.245543
0.242923
0.23386
)
;

boundaryField
{
    inlet
    {
        type            zeroGradient;
    }
    outlet
    {
        type            fixedValue;
        value           nonuniform 0();
    }
    cylinder
    {
        type            zeroGradient;
    }
    top
    {
        type            symmetryPlane;
    }
    bottom
    {
        type            symmetryPlane;
    }
    defaultFaces
    {
        type            empty;
    }
    procBoundary8to4
    {
        type            processor;
        value           nonuniform List<scalar> 
25
(
0.739348
0.71031
0.71031
0.624455
0.571689
0.513151
0.466077
0.4237
0.388169
0.357645
0.232575
0.233445
0.235655
0.23879
0.242963
0.248127
0.254306
0.261517
0.269727
0.278939
0.289105
0.300182
0.31208
0.324742
0.337943
)
;
    }
    procBoundary8to9
    {
        type            processor;
        value           nonuniform List<scalar> 
37
(
0.0568817
0.0593387
0.0593387
0.0594269
0.0594269
0.057482
0.0821777
0.0821777
0.082663
0.111736
0.111736
0.112482
0.146014
0.179503
0.179503
0.204613
0.244306
0.283486
0.32201
0.359701
0.359701
0.384822
0.424265
0.462275
0.498628
0.533107
0.565507
0.59563
0.623296
0.623296
0.820427
0.848213
0.872362
0.892722
0.909169
0.921598
0.929933
)
;
    }
    procBoundary8to12
    {
        type            processor;
        value           nonuniform List<scalar> 
34
(
0.0733921
0.0857912
0.0992273
0.112649
0.112649
0.124512
0.124512
0.134409
0.134409
0.143487
0.143487
0.151927
0.151927
0.159121
0.159121
0.166167
0.166167
0.174722
0.192972
0.178154
0.224354
0.224438
0.224631
0.2248
0.224861
0.224656
0.223976
0.222633
0.22029
0.216854
0.211793
0.205551
0.192972
0.196781
)
;
    }
}


// ************************************************************************* //
