2 	-3.9316 	5.08281e-19 	1.11192 	0.00150414 	0
2 	-3.79799 	-7.92762e-19 	1.11231 	0.00449996 	0
2 	-3.67062 	-7.92762e-19 	1.11303 	0.00741165 	0
2 	-3.5492 	-7.92762e-19 	1.11403 	0.010297 	0
2 	-3.43344 	-7.92762e-19 	1.11527 	0.0131802 	0
2 	-3.32309 	-7.92762e-19 	1.11671 	0.0160814 	0
2 	-3.21789 	5.08281e-19 	1.11832 	0.0190175 	0
2 	-3.11759 	1.80932e-18 	1.12008 	0.0220001 	0
2 	-3.02198 	2.243e-18 	1.12197 	0.0250375 	0
2 	-2.93084 	2.67669e-18 	1.12396 	0.0281351 	0
2 	-2.84394 	1.37564e-18 	1.12604 	0.031296 	0
2 	-2.76111 	7.46002e-20 	1.12819 	0.0345217 	0
2 	-2.68214 	7.46002e-20 	1.13041 	0.0378119 	0
2 	-2.60685 	7.46002e-20 	1.13265 	0.0411642 	0
2 	-2.53509 	-1.22644e-18 	1.13491 	0.0445748 	0
2 	-2.46667 	-2.52749e-18 	1.13715 	0.0480378 	0
2 	-2.40144 	-2.52749e-18 	1.13938 	0.0515471 	0
2 	-2.33926 	-2.52749e-18 	1.14158 	0.0550961 	0
2 	-2.27998 	-2.52749e-18 	1.14375 	0.0586783 	0
2 	-2.22347 	-2.52749e-18 	1.14587 	0.0622876 	0
2 	-2.1696 	-3.82853e-18 	1.14796 	0.0659179 	0
2 	-2.11824 	-5.12957e-18 	1.15 	0.0695633 	0
2 	-2.06928 	-5.12957e-18 	1.15199 	0.0732173 	0
2 	-2.0226 	-5.12957e-18 	1.15394 	0.0768734 	0
2 	-1.9781 	-3.82853e-18 	1.15584 	0.0805274 	0
2 	-1.93568 	-2.52749e-18 	1.15766 	0.0841859 	0
2 	-1.89524 	-2.52749e-18 	1.15937 	0.0878687 	0
2 	-1.85669 	-1.22644e-18 	1.16085 	0.0915246 	0
2 	-1.81994 	-2.52749e-18 	1.16191 	0.0949016 	0
2 	-1.7849 	-5.12957e-18 	1.16222 	0.098325 	0
2 	-1.74599 	-5.34034e-18 	1.16082 	0.111135 	-6.11306e-20
2 	-1.71046 	-5.55112e-18 	1.17255 	0.106376 	-2.91355e-20
2 	-1.66003 	-5.29004e-18 	1.16955 	0.117657 	-7.92334e-20
2 	-1.61969 	-5.07631e-18 	1.16549 	0.131074 	-2.41348e-20
2 	-1.58182 	-7.18907e-18 	1.17815 	0.126638 	2.629e-20
2 	-1.52344 	-9.13753e-18 	1.17389 	0.1407 	-8.17273e-21
2 	-1.47619 	-1.07553e-17 	1.19188 	0.133834 	-2.22025e-19
2 	-1.39473 	-9.45903e-18 	1.18774 	0.150222 	4.60574e-20
2 	-1.29583 	-8.07125e-18 	1.18201 	0.167878 	1.81106e-19
2 	-1.24045 	-8.32667e-18 	1.20689 	0.185561 	9.58305e-20
2 	-1.17283 	-7.21445e-18 	1.19916 	0.206663 	-1.38574e-20
2 	-1.06956 	-1.01604e-17 	1.18713 	0.228728 	-8.94815e-20
2 	-1.00029 	-1.12828e-17 	1.16829 	0.251337 	7.88001e-20
2 	-0.951771 	-1.14593e-17 	1.19226 	0.255707 	-1.00873e-19
2 	-0.875226 	-1.49186e-17 	1.15408 	0.27945 	-2.02731e-20
2 	-0.783138 	-1.64794e-17 	1.09679 	0.300433 	2.38048e-20
2 	-0.693844 	-1.82494e-17 	1.01638 	0.316134 	2.76534e-20
2 	-0.644209 	-1.92977e-17 	0.910691 	0.323898 	3.40102e-21
2 	-0.601318 	-1.89155e-17 	0.847409 	0.318903 	6.442e-20
2 	-0.522111 	-1.80411e-17 	0.696802 	0.312093 	3.72606e-20
2 	-0.438993 	-1.66533e-17 	0.527533 	0.293844 	-1.77662e-20
2 	-0.357298 	-1.69446e-17 	0.346965 	0.26339 	-5.46486e-20
2 	-0.276743 	-1.51181e-17 	0.165556 	0.220786 	2.70409e-20
2 	-0.19706 	-1.22195e-17 	-0.00267387 	0.166903 	-2.12906e-20
2 	-0.117992 	-1.10396e-17 	-0.137828 	0.103935 	2.7281e-20
2 	-0.0392901 	-1.09702e-17 	-0.215185 	0.0352919 	-3.66757e-21
2 	0.0392901 	-1.18376e-17 	-0.215185 	-0.0352919 	-7.53407e-21
2 	0.117992 	-1.36416e-17 	-0.137828 	-0.103935 	2.3516e-20
2 	0.19706 	-1.34338e-17 	-0.00267387 	-0.166903 	-3.96272e-20
2 	0.276743 	-1.19089e-17 	0.165556 	-0.220786 	2.6692e-20
2 	0.357298 	-1.3215e-17 	0.346965 	-0.26339 	-1.30574e-20
2 	0.438993 	-1.45717e-17 	0.527533 	-0.293844 	-1.28621e-20
2 	0.522111 	-1.45717e-17 	0.696802 	-0.312093 	-3.34409e-20
2 	0.601318 	-1.26565e-17 	0.847409 	-0.318903 	8.75699e-20
2 	0.644209 	-9.91627e-18 	0.910691 	-0.323898 	2.45105e-20
2 	0.693844 	-9.05539e-18 	1.01638 	-0.316134 	-1.05918e-19
2 	0.783138 	-1.14487e-17 	1.09679 	-0.300433 	-1.5519e-21
2 	0.875226 	-1.52656e-17 	1.15408 	-0.27945 	3.38807e-21
2 	0.951771 	-1.39544e-17 	1.19226 	-0.255707 	-2.65762e-20
2 	1.00029 	-9.61457e-18 	1.16829 	-0.251337 	6.9824e-20
2 	1.06956 	-9.1413e-18 	1.18713 	-0.228728 	5.07292e-21
2 	1.17283 	-1.38281e-17 	1.19916 	-0.206663 	-1.07354e-19
2 	1.24045 	-1.99173e-17 	1.20689 	-0.185561 	7.25675e-20
2 	1.29583 	-1.91415e-17 	1.18201 	-0.167878 	1.02438e-19
2 	1.39473 	-1.44897e-17 	1.18774 	-0.150222 	5.89514e-20
2 	1.47619 	-1.36964e-17 	1.19188 	-0.133834 	-1.76507e-19
2 	1.52344 	-1.48541e-17 	1.17389 	-0.1407 	7.76099e-21
2 	1.58182 	-1.83718e-17 	1.17815 	-0.126638 	-2.68405e-20
2 	1.61969 	-2.07693e-17 	1.16549 	-0.131074 	2.33984e-20
2 	1.66003 	-1.77801e-17 	1.16955 	-0.117657 	7.93302e-20
2 	1.71046 	-1.6117e-17 	1.17255 	-0.106376 	2.91358e-20
2 	1.74599 	-1.5993e-17 	1.16082 	-0.111135 	6.08139e-20
2 	1.7849 	-1.80533e-17 	1.16222 	-0.098325 	0
2 	1.81994 	-2.1089e-17 	1.16191 	-0.0949017 	0
2 	1.85669 	-1.93543e-17 	1.16085 	-0.0915246 	0
2 	1.89524 	-1.76196e-17 	1.15937 	-0.0878687 	0
2 	1.93568 	-1.76196e-17 	1.15766 	-0.0841859 	0
2 	1.9781 	-1.89206e-17 	1.15584 	-0.0805274 	0
2 	2.0226 	-2.15227e-17 	1.15394 	-0.0768734 	0
2 	2.06928 	-2.58595e-17 	1.15199 	-0.0732173 	0
2 	2.11824 	-2.88953e-17 	1.15 	-0.0695633 	0
2 	2.1696 	-2.88953e-17 	1.14796 	-0.0659179 	0
2 	2.22347 	-2.85483e-17 	1.14587 	-0.0622876 	0
2 	2.27998 	-2.77677e-17 	1.14375 	-0.0586783 	0
2 	2.33926 	-2.90688e-17 	1.14158 	-0.0550961 	0
2 	2.40144 	-3.08035e-17 	1.13938 	-0.0515471 	0
2 	2.46667 	-3.08035e-17 	1.13715 	-0.0480378 	0
2 	2.53509 	-3.21045e-17 	1.13491 	-0.0445748 	0
2 	2.60685 	-3.29719e-17 	1.13265 	-0.0411642 	0
2 	2.68214 	-3.25382e-17 	1.13041 	-0.0378119 	0
2 	2.76111 	-3.25382e-17 	1.12819 	-0.0345217 	0
2 	2.84394 	-3.25382e-17 	1.12604 	-0.031296 	0
2 	2.93084 	-3.25382e-17 	1.12396 	-0.0281351 	0
2 	3.02198 	-3.15841e-17 	1.12197 	-0.0250375 	0
2 	3.11759 	-3.063e-17 	1.12008 	-0.0220001 	0
2 	3.21789 	-2.72473e-17 	1.11832 	-0.0190175 	0
2 	3.32309 	-2.42983e-17 	1.11671 	-0.0160814 	0
2 	3.43344 	-2.47319e-17 	1.11527 	-0.0131802 	0
2 	3.5492 	-2.47319e-17 	1.11403 	-0.010297 	0
2 	3.67062 	-2.47319e-17 	1.11303 	-0.00741165 	0
2 	3.79799 	-2.34309e-17 	1.11231 	-0.00449996 	0
2 	3.9316 	-2.19443e-17 	1.11192 	-0.00150414 	0
