-0.428313 	0.428313 	-1.20458e-17 	0.372834 	0.339725 	-1.38061e-19
-0.482588 	0.482588 	-2.13987e-17 	0.540223 	0.442681 	3.8942e-20
-0.540971 	0.540971 	-2.23748e-17 	0.66125 	0.486848 	-5.68007e-20
-0.603773 	0.603773 	-1.48542e-17 	0.752083 	0.489241 	1.37046e-19
-0.671328 	0.671328 	-4.51151e-18 	0.816697 	0.465603 	3.85283e-20
