/*--------------------------------*- C++ -*----------------------------------*\
  =========                 |
  \\      /  F ield         | OpenFOAM: The Open Source CFD Toolbox
   \\    /   O peration     | Website:  https://openfoam.org
    \\  /    A nd           | Version:  7
     \\/     M anipulation  |
\*---------------------------------------------------------------------------*/
FoamFile
{
    version     2.0;
    format      ascii;
    class       volScalarField;
    location    "20";
    object      p;
}
// * * * * * * * * * * * * * * * * * * * * * * * * * * * * * * * * * * * * * //

dimensions      [0 2 -2 0 0 0 0];

internalField   nonuniform List<scalar> 
6050
(
-0.306358
-0.310682
-0.311561
-0.313226
-0.314556
-0.315824
-0.31688
-0.306645
-0.310904
-0.31177
-0.313417
-0.314738
-0.316
-0.317052
-0.307209
-0.311342
-0.312179
-0.313792
-0.315093
-0.31634
-0.317383
-0.308038
-0.311983
-0.312775
-0.314332
-0.3156
-0.316821
-0.317847
-0.30911
-0.312812
-0.313539
-0.315016
-0.316232
-0.317413
-0.318408
-0.310402
-0.313808
-0.314444
-0.315814
-0.316956
-0.318076
-0.319024
-0.319765
-0.311886
-0.314948
-0.315465
-0.316693
-0.317734
-0.31877
-0.319648
-0.320329
-0.313533
-0.316208
-0.316573
-0.317621
-0.318528
-0.31945
-0.320233
-0.320831
-0.315318
-0.317566
-0.31774
-0.318565
-0.319301
-0.320076
-0.320736
-0.321224
-0.317215
-0.319003
-0.318942
-0.319495
-0.320018
-0.320612
-0.321118
-0.321469
-0.319207
-0.3205
-0.320158
-0.320388
-0.320655
-0.32103
-0.321351
-0.321538
-0.321282
-0.322047
-0.321373
-0.321227
-0.321193
-0.321312
-0.321418
-0.321413
-0.321219
-0.323435
-0.323639
-0.322581
-0.322005
-0.321624
-0.321452
-0.321313
-0.321086
-0.320669
-0.325671
-0.325277
-0.323783
-0.322722
-0.321954
-0.321455
-0.32104
-0.320554
-0.319859
-0.328004
-0.326968
-0.324991
-0.323392
-0.322197
-0.321339
-0.320612
-0.319817
-0.318763
-0.330462
-0.32872
-0.326229
-0.324039
-0.322381
-0.321129
-0.320043
-0.318866
-0.31734
-0.315222
-0.333081
-0.330565
-0.327516
-0.324695
-0.32254
-0.320853
-0.319344
-0.317681
-0.315534
-0.31264
-0.335907
-0.33253
-0.328892
-0.325402
-0.322714
-0.320536
-0.318513
-0.316225
-0.313286
-0.309452
-0.304635
-0.338986
-0.334652
-0.330398
-0.326203
-0.322937
-0.320194
-0.317535
-0.314454
-0.310548
-0.305649
-0.299792
-0.342344
-0.336998
-0.332083
-0.327138
-0.323232
-0.319825
-0.31638
-0.312322
-0.307297
-0.301266
-0.294402
-0.287017
-0.346068
-0.339589
-0.333983
-0.32823
-0.323604
-0.319415
-0.315006
-0.309791
-0.303539
-0.296371
-0.288578
-0.280506
-0.350199
-0.342476
-0.33616
-0.329521
-0.324086
-0.318968
-0.313389
-0.306852
-0.299315
-0.291052
-0.28243
-0.273785
-0.265325
-0.354798
-0.345711
-0.338641
-0.331014
-0.324673
-0.318438
-0.311475
-0.303494
-0.294668
-0.285388
-0.276043
-0.266922
-0.258179
-0.359921
-0.349339
-0.341437
-0.332719
-0.325353
-0.317766
-0.309223
-0.29973
-0.289656
-0.279451
-0.269479
-0.259959
-0.250984
-0.242578
-0.365618
-0.3534
-0.344549
-0.334662
-0.326088
-0.316882
-0.306603
-0.295583
-0.284329
-0.273294
-0.262776
-0.252916
-0.243743
-0.23523
-0.227306
-0.371934
-0.357916
-0.347978
-0.336862
-0.326801
-0.315716
-0.303601
-0.29108
-0.27873
-0.26695
-0.255952
-0.245795
-0.236449
-0.227847
-0.219904
-0.212569
-0.378907
-0.362883
-0.351743
-0.339303
-0.32739
-0.314204
-0.30021
-0.286245
-0.272884
-0.260437
-0.249012
-0.23859
-0.22909
-0.220413
-0.212459
-0.205156
-0.198382
-0.386562
-0.368267
-0.355895
-0.341902
-0.327745
-0.312296
-0.296426
-0.281093
-0.266807
-0.253757
-0.241948
-0.231288
-0.221651
-0.212912
-0.204956
-0.197693
-0.191019
-0.184967
-0.394903
-0.37401
-0.360484
-0.344516
-0.327763
-0.309951
-0.292247
-0.275633
-0.2605
-0.246904
-0.234746
-0.223871
-0.214114
-0.205326
-0.197377
-0.190165
-0.183593
-0.177657
-0.172139
-0.167513
-0.403891
-0.380056
-0.365509
-0.346984
-0.327348
-0.307134
-0.287667
-0.269861
-0.253954
-0.239861
-0.227388
-0.216322
-0.206463
-0.197638
-0.189708
-0.182556
-0.176088
-0.170269
-0.16492
-0.160442
-0.413431
-0.386366
-0.370859
-0.349151
-0.326412
-0.303812
-0.282673
-0.263766
-0.247153
-0.23261
-0.219855
-0.208621
-0.198679
-0.189835
-0.181934
-0.174851
-0.16849
-0.162787
-0.157605
-0.153264
-0.423358
-0.392922
-0.376302
-0.350872
-0.324878
-0.299952
-0.277248
-0.257331
-0.240077
-0.225129
-0.212125
-0.200751
-0.190746
-0.1819
-0.174043
-0.167039
-0.160788
-0.155204
-0.150186
-0.14597
-0.433448
-0.399714
-0.381519
-0.352006
-0.32268
-0.295516
-0.271365
-0.250531
-0.2327
-0.217395
-0.204178
-0.192693
-0.182651
-0.173822
-0.166023
-0.15911
-0.152973
-0.147512
-0.142656
-0.138556
-0.443437
-0.406708
-0.386164
-0.352411
-0.319757
-0.290471
-0.264998
-0.24334
-0.224999
-0.209385
-0.195995
-0.184431
-0.174379
-0.165589
-0.157866
-0.151056
-0.14504
-0.139708
-0.135012
-0.131019
-0.453052
-0.41381
-0.389928
-0.351939
-0.316049
-0.284778
-0.258113
-0.235729
-0.216946
-0.201077
-0.187557
-0.175951
-0.165917
-0.157191
-0.149563
-0.142871
-0.136983
-0.131789
-0.127251
-0.123358
-0.462034
-0.42084
-0.392567
-0.350453
-0.3115
-0.278402
-0.250678
-0.227667
-0.208516
-0.19245
-0.178848
-0.167238
-0.157257
-0.148622
-0.14111
-0.13455
-0.128802
-0.123755
-0.119374
-0.115577
-0.47015
-0.427526
-0.393909
-0.34783
-0.306051
-0.271306
-0.242659
-0.219125
-0.199686
-0.183485
-0.169853
-0.158283
-0.14839
-0.139874
-0.132502
-0.126093
-0.120497
-0.115607
-0.111383
-0.107679
-0.477202
-0.433517
-0.393835
-0.343971
-0.299647
-0.263454
-0.234027
-0.210077
-0.190434
-0.174167
-0.16056
-0.149077
-0.13931
-0.130945
-0.123738
-0.117498
-0.11207
-0.107349
-0.103283
-0.0996718
-0.483012
-0.438416
-0.392257
-0.338805
-0.292241
-0.254816
-0.224756
-0.200503
-0.180744
-0.164482
-0.150961
-0.139614
-0.130014
-0.121833
-0.114818
-0.108768
-0.103525
-0.0989843
-0.0950776
-0.0915675
-0.487394
-0.441815
-0.389091
-0.332286
-0.283796
-0.245363
-0.214823
-0.190383
-0.170603
-0.154424
-0.14105
-0.129891
-0.120501
-0.112539
-0.105744
-0.0999073
-0.0948674
-0.0905202
-0.086776
-0.0833788
-0.490148
-0.44335
-0.384232
-0.324367
-0.274272
-0.235063
-0.204203
-0.1797
-0.159996
-0.143981
-0.130822
-0.119905
-0.110768
-0.103063
-0.0965177
-0.0909183
-0.0861012
-0.0819645
-0.078395
-0.0751137
-0.491289
-0.442834
-0.377615
-0.315014
-0.263629
-0.223884
-0.192873
-0.168436
-0.148914
-0.133146
-0.120271
-0.109654
-0.100818
-0.0934085
-0.0871458
-0.0818081
-0.0772325
-0.0733264
-0.0699614
-0.066772
-0.490605
-0.440006
-0.36914
-0.304192
-0.251845
-0.211807
-0.180821
-0.156585
-0.137351
-0.121918
-0.109399
-0.0991407
-0.0906559
-0.0835821
-0.0776368
-0.0725878
-0.0682751
-0.0646182
-0.0614828
-0.0583696
-0.487916
-0.43471
-0.358753
-0.291886
-0.238909
-0.198823
-0.168039
-0.144142
-0.125305
-0.110299
-0.0982098
-0.0883725
-0.0802935
-0.0735949
-0.0680013
-0.0632702
-0.0592521
-0.0558768
-0.0529087
-0.0499548
-0.483053
-0.426839
-0.346414
-0.278084
-0.224814
-0.184921
-0.154519
-0.131104
-0.11278
-0.0982986
-0.086718
-0.0773619
-0.0697453
-0.063463
-0.0582472
-0.0538622
-0.0501721
-0.0470855
-0.0442927
-0.041531
-0.475836
-0.416324
-0.332098
-0.262782
-0.209554
-0.170097
-0.140261
-0.117479
-0.0997994
-0.0859373
-0.0749446
-0.0661283
-0.0590074
-0.0531881
-0.0483863
-0.0443796
-0.0410427
-0.0382549
-0.0356623
-0.0331102
-0.466084
-0.403125
-0.315802
-0.24598
-0.193122
-0.154359
-0.125289
-0.103295
-0.086395
-0.0732271
-0.0628838
-0.0546729
-0.0481
-0.042784
-0.0384333
-0.0348368
-0.0318761
-0.0294021
-0.0270337
-0.0247099
-0.45363
-0.387228
-0.297534
-0.227683
-0.175518
-0.137746
-0.109653
-0.0885937
-0.0725423
-0.0601737
-0.0505571
-0.0430122
-0.0370402
-0.0322675
-0.028404
-0.0252482
-0.0226869
-0.0205445
-0.018421
-0.0163485
-0.438324
-0.368639
-0.277317
-0.20791
-0.156783
-0.120331
-0.0933594
-0.0733583
-0.0582764
-0.0467994
-0.037986
-0.0311665
-0.025846
-0.021657
-0.0183153
-0.01563
-0.0134912
-0.011699
-0.00983953
-0.00804397
-0.420046
-0.347378
-0.255162
-0.186734
-0.137053
-0.10207
-0.0764207
-0.057622
-0.0436272
-0.0331312
-0.0251943
-0.0191586
-0.0145377
-0.0109719
-0.00818557
-0.0059993
-0.00430597
-0.00288229
-0.00130627
0.000186074
-0.39872
-0.323501
-0.231048
-0.164294
-0.116341
-0.0830033
-0.0588755
-0.0414234
-0.028628
-0.0191993
-0.0122088
-0.00701295
-0.00313744
-0.000232758
0.00196576
0.00362544
0.0048513
0.00588783
0.00715966
0.00832345
-0.374314
-0.297143
-0.204992
-0.140657
-0.0946672
-0.0631962
-0.0407702
-0.0248051
-0.0133155
-0.00503703
0.000940982
0.00524375
0.00833065
0.0105382
0.0121182
0.0132252
0.0139624
0.0145923
0.0155371
0.0163487
-0.346844
-0.268512
-0.177263
-0.11564
-0.0720906
-0.0427179
-0.0221596
-0.00781397
0.00226915
0.00931915
0.0142227
0.0175827
0.0198407
0.0213178
0.0222505
0.0227804
0.0230094
0.0232129
0.0238051
0.0242417
-0.316378
-0.237652
-0.147929
-0.0894286
-0.0486862
-0.021641
-0.00310517
0.0094982
0.0180808
0.0238296
0.0276014
0.0299729
0.0313653
0.0320811
0.0323399
0.0322712
0.0319757
0.031735
0.0319477
0.0319849
-0.283061
-0.204175
-0.117474
-0.0621966
-0.0245415
-4.16473e-05
0.016326
0.0270746
0.0340705
0.0384515
0.0410396
0.0423816
0.0428753
0.0428017
0.0423623
0.0416766
0.040846
0.0401491
0.0399564
0.0395664
-0.247125
-0.168311
-0.0858326
-0.0341036
0.000240753
0.0219975
0.0360617
0.044854
0.0501855
0.0531394
0.0544977
0.0547742
0.0543401
0.053452
0.0522924
0.0509752
0.0496052
0.0484442
0.0478159
0.0469693
-0.208663
-0.130505
-0.0530282
-0.00529015
0.0255457
0.0443868
0.056025
0.0627706
0.0663699
0.0678448
0.067934
0.0671145
0.0657279
0.0640034
0.0621055
0.0601481
0.0582384
0.0565946
0.0554676
0.0541178
-0.167364
-0.0917235
-0.019229
0.0241115
0.0512519
0.067029
0.0761341
0.0807553
0.0825644
0.0825173
0.081305
0.0793647
0.0770055
0.0744277
0.0717803
0.0691823
0.0667323
0.0645549
0.0627849
0.0608019
-0.123934
-0.0519579
0.0153502
0.0539582
0.0772319
0.0898205
0.0963031
0.0987357
0.0987081
0.0971048
0.094566
0.0914864
0.0881396
0.0846972
0.0812979
0.0780678
0.0750724
0.0722725
0.0696372
0.0668112
-0.0786296
-0.0113178
0.0504808
0.0840907
0.103352
0.112653
0.116443
0.116637
0.114738
0.111554
0.107671
0.10344
0.0990961
0.0947849
0.090639
0.0867859
0.0832267
0.0797052
0.0760533
0.0725747
-0.0316585
0.0300012
0.0859428
0.114349
0.129482
0.135417
0.136462
0.134383
0.130589
0.125809
0.120574
0.115184
0.10984
0.104663
0.0997786
0.0953002
0.091138
0.0868461
0.0822819
0.079484
0.0161976
0.0717041
0.121525
0.144578
0.155491
0.158006
0.15627
0.151897
0.146196
0.139815
0.133224
0.126677
0.120337
0.114302
0.108688
0.103569
0.0987618
0.0937698
0.0887413
0.0863469
0.0646128
0.113533
0.156994
0.174595
0.181232
0.180298
0.175767
0.169096
0.16149
0.153512
0.145573
0.137877
0.130551
0.123671
0.117334
0.111566
0.106117
0.100541
0.0952467
0.0928682
0.113197
0.155184
0.192118
0.204218
0.206561
0.202176
0.194858
0.1859
0.176402
0.166843
0.157572
0.148742
0.140446
0.132738
0.125685
0.119268
0.113208
0.107147
0.101626
0.0990081
0.161539
0.196354
0.226664
0.233267
0.231333
0.223521
0.213444
0.202227
0.190865
0.179751
0.169171
0.15923
0.149987
0.141469
0.133712
0.126659
0.120029
0.11354
0.107771
0.104793
0.209228
0.236739
0.260399
0.26156
0.255401
0.244217
0.231428
0.217997
0.204812
0.192179
0.180323
0.169301
0.159137
0.149831
0.141389
0.133723
0.12656
0.119676
0.113634
0.110241
0.255857
0.276037
0.293096
0.288918
0.278623
0.264145
0.248715
0.233131
0.218176
0.20407
0.190979
0.178913
0.167861
0.157795
0.14869
0.140438
0.132778
0.12552
0.119189
0.115357
0.301027
0.313956
0.324531
0.315166
0.300859
0.283194
0.265212
0.247552
0.230892
0.215371
0.201094
0.188026
0.176124
0.16533
0.155591
0.146783
0.138656
0.131043
0.124419
0.12014
0.344354
0.350212
0.354488
0.340132
0.321973
0.301253
0.280829
0.261185
0.242899
0.226028
0.210623
0.196603
0.183894
0.172407
0.162068
0.152736
0.144172
0.136224
0.129311
0.124587
0.385472
0.384527
0.382759
0.363654
0.341833
0.318216
0.295479
0.273958
0.254136
0.235992
0.219523
0.204607
0.191137
0.179
0.168097
0.158274
0.149305
0.141045
0.133851
0.128692
0.424045
0.416631
0.409145
0.385574
0.360317
0.333982
0.30908
0.285804
0.264546
0.245214
0.227753
0.212002
0.197825
0.185083
0.173655
0.163379
0.154035
0.145487
0.138028
0.132448
0.459759
0.446267
0.433461
0.405747
0.377306
0.348458
0.321555
0.296659
0.274077
0.25365
0.235276
0.218757
0.20393
0.190631
0.178722
0.16803
0.158345
0.149535
0.141827
0.135847
0.492314
0.473204
0.455532
0.424037
0.392694
0.361557
0.332833
0.306464
0.282679
0.261258
0.242056
0.22484
0.209424
0.195622
0.183277
0.17221
0.162218
0.153174
0.145238
0.138884
0.521435
0.497237
0.475202
0.440322
0.406383
0.373199
0.342848
0.315165
0.290307
0.268
0.248061
0.230226
0.214286
0.200036
0.187303
0.175903
0.165642
0.15639
0.148249
0.141553
0.546875
0.518183
0.492329
0.45449
0.418283
0.383314
0.351544
0.322714
0.296922
0.273844
0.253262
0.234889
0.218493
0.203854
0.190785
0.179095
0.168601
0.159172
0.15085
0.14385
0.568417
0.535885
0.506793
0.466446
0.428319
0.391838
0.358869
0.32907
0.302489
0.278759
0.257636
0.238808
0.222028
0.207061
0.193707
0.181774
0.171085
0.161507
0.153032
0.145769
0.585878
0.550208
0.518489
0.476109
0.436426
0.398721
0.36478
0.334197
0.306977
0.282721
0.26116
0.241964
0.224875
0.209642
0.196059
0.18393
0.173084
0.163387
0.154787
0.147309
0.599107
0.561045
0.527333
0.483412
0.442551
0.403919
0.369243
0.338067
0.310364
0.28571
0.263818
0.244345
0.227021
0.211588
0.197832
0.185555
0.17459
0.164804
0.15611
0.148465
0.607992
0.568314
0.533262
0.488306
0.446654
0.4074
0.372232
0.340658
0.312632
0.28771
0.265596
0.245937
0.228456
0.212889
0.199017
0.186641
0.175597
0.165752
0.156994
0.149237
0.612456
0.571962
0.536237
0.490761
0.448712
0.409146
0.37373
0.341957
0.313768
0.288713
0.266488
0.246735
0.229176
0.213541
0.199611
0.187185
0.176102
0.166227
0.157437
0.149623
0.612456
0.571962
0.536237
0.490761
0.448712
0.409146
0.37373
0.341957
0.313768
0.288713
0.266488
0.246735
0.229176
0.213542
0.199611
0.187185
0.176102
0.166227
0.157437
0.149623
0.607992
0.568314
0.533262
0.488306
0.446654
0.4074
0.372232
0.340658
0.312632
0.28771
0.265596
0.245937
0.228456
0.212889
0.199017
0.186641
0.175598
0.165752
0.156994
0.149237
0.599107
0.561045
0.527333
0.483412
0.442551
0.403919
0.369243
0.338067
0.310364
0.28571
0.263818
0.244345
0.227021
0.211588
0.197832
0.185555
0.17459
0.164804
0.15611
0.148465
0.585878
0.550208
0.518489
0.476109
0.436426
0.398721
0.36478
0.334197
0.306977
0.282721
0.26116
0.241965
0.224875
0.209642
0.196059
0.18393
0.173084
0.163387
0.154787
0.147309
0.568417
0.535885
0.506793
0.466446
0.428319
0.391838
0.358869
0.32907
0.302489
0.278759
0.257636
0.238808
0.222028
0.207061
0.193707
0.181774
0.171085
0.161507
0.153032
0.145769
0.546875
0.518183
0.492329
0.45449
0.418283
0.383314
0.351544
0.322714
0.296922
0.273844
0.253262
0.234889
0.218493
0.203854
0.190785
0.179095
0.168601
0.159172
0.15085
0.14385
0.521435
0.497237
0.475202
0.440322
0.406383
0.373199
0.342848
0.315165
0.290307
0.268
0.248061
0.230226
0.214286
0.200036
0.187303
0.175903
0.165642
0.15639
0.148249
0.141553
0.492314
0.473204
0.455532
0.424037
0.392694
0.361557
0.332833
0.306464
0.282679
0.261258
0.242056
0.22484
0.209424
0.195622
0.183277
0.17221
0.162219
0.153174
0.145238
0.138884
0.459759
0.446267
0.433461
0.405747
0.377306
0.348459
0.321555
0.296659
0.274077
0.25365
0.235276
0.218757
0.20393
0.190631
0.178722
0.16803
0.158345
0.149535
0.141827
0.135847
0.424045
0.416631
0.409145
0.385574
0.360317
0.333982
0.30908
0.285804
0.264546
0.245214
0.227753
0.212002
0.197825
0.185083
0.173655
0.163379
0.154035
0.145487
0.138028
0.132448
0.385472
0.384527
0.382759
0.363654
0.341834
0.318216
0.295479
0.273958
0.254136
0.235992
0.219523
0.204607
0.191137
0.179
0.168097
0.158274
0.149305
0.141045
0.133851
0.128692
0.344354
0.350212
0.354488
0.340132
0.321973
0.301253
0.280829
0.261185
0.242899
0.226028
0.210623
0.196603
0.183894
0.172407
0.162068
0.152736
0.144172
0.136224
0.129311
0.124587
0.301027
0.313956
0.324531
0.315166
0.300859
0.283194
0.265212
0.247552
0.230893
0.215371
0.201094
0.188026
0.176124
0.16533
0.155591
0.146783
0.138656
0.131043
0.124419
0.12014
0.255857
0.276037
0.293096
0.288918
0.278623
0.264145
0.248715
0.233131
0.218176
0.20407
0.190979
0.178913
0.167861
0.157795
0.14869
0.140438
0.132778
0.12552
0.119189
0.115357
0.209228
0.236739
0.260399
0.26156
0.255401
0.244217
0.231428
0.217997
0.204812
0.192179
0.180323
0.169301
0.159137
0.149831
0.141389
0.133723
0.12656
0.119676
0.113634
0.110241
0.161539
0.196354
0.226664
0.233267
0.231333
0.223521
0.213444
0.202227
0.190865
0.179751
0.169171
0.15923
0.149987
0.141469
0.133712
0.126659
0.120029
0.11354
0.107771
0.104794
0.113197
0.155184
0.192118
0.204218
0.206561
0.202176
0.194858
0.1859
0.176402
0.166843
0.157572
0.148742
0.140446
0.132738
0.125685
0.119268
0.113208
0.107147
0.101626
0.0990081
0.0646128
0.113533
0.156994
0.174595
0.181232
0.180298
0.175767
0.169096
0.16149
0.153512
0.145573
0.137877
0.130551
0.123671
0.117334
0.111566
0.106117
0.100541
0.0952467
0.0928682
0.0161977
0.0717042
0.121525
0.144578
0.155491
0.158006
0.15627
0.151897
0.146196
0.139815
0.133224
0.126677
0.120337
0.114302
0.108688
0.103569
0.0987618
0.0937698
0.0887414
0.086347
-0.0316585
0.0300012
0.0859428
0.114349
0.129482
0.135417
0.136462
0.134384
0.130589
0.125809
0.120574
0.115184
0.10984
0.104663
0.0997787
0.0953002
0.0911381
0.0868461
0.082282
0.079484
-0.0786295
-0.0113177
0.0504808
0.0840908
0.103352
0.112653
0.116443
0.116637
0.114738
0.111554
0.107672
0.10344
0.0990961
0.094785
0.090639
0.086786
0.0832267
0.0797052
0.0760533
0.0725748
-0.123934
-0.0519578
0.0153502
0.0539583
0.0772319
0.0898206
0.0963031
0.0987358
0.0987081
0.0971048
0.0945661
0.0914864
0.0881396
0.0846973
0.081298
0.0780679
0.0750724
0.0722726
0.0696373
0.0668112
-0.167364
-0.0917235
-0.019229
0.0241115
0.051252
0.067029
0.0761341
0.0807554
0.0825645
0.0825174
0.081305
0.0793648
0.0770056
0.0744277
0.0717803
0.0691823
0.0667324
0.064555
0.0627849
0.060802
-0.208663
-0.130505
-0.0530282
-0.00529011
0.0255457
0.0443868
0.056025
0.0627707
0.0663699
0.0678448
0.067934
0.0671145
0.0657279
0.0640034
0.0621056
0.0601482
0.0582385
0.0565947
0.0554676
0.0541178
-0.247125
-0.168311
-0.0858326
-0.0341036
0.000240793
0.0219976
0.0360617
0.044854
0.0501856
0.0531394
0.0544978
0.0547743
0.0543402
0.053452
0.0522924
0.0509752
0.0496053
0.0484443
0.047816
0.0469693
-0.283061
-0.204175
-0.117474
-0.0621965
-0.0245414
-4.16073e-05
0.016326
0.0270747
0.0340705
0.0384516
0.0410396
0.0423817
0.0428754
0.0428017
0.0423623
0.0416766
0.040846
0.0401491
0.0399564
0.0395664
-0.316377
-0.237652
-0.147929
-0.0894285
-0.0486862
-0.0216409
-0.00310513
0.00949824
0.0180809
0.0238296
0.0276014
0.0299729
0.0313654
0.0320811
0.0323399
0.0322713
0.0319757
0.031735
0.0319478
0.0319849
-0.346844
-0.268512
-0.177263
-0.11564
-0.0720906
-0.0427179
-0.0221595
-0.00781393
0.00226919
0.00931919
0.0142227
0.0175827
0.0198408
0.0213178
0.0222505
0.0227805
0.0230094
0.0232129
0.0238052
0.0242418
-0.374314
-0.297143
-0.204992
-0.140657
-0.0946672
-0.0631962
-0.0407701
-0.0248051
-0.0133154
-0.00503699
0.000941025
0.00524379
0.0083307
0.0105383
0.0121183
0.0132252
0.0139624
0.0145924
0.0155372
0.0163488
-0.39872
-0.323501
-0.231048
-0.164294
-0.116341
-0.0830032
-0.0588754
-0.0414234
-0.0286279
-0.0191993
-0.0122088
-0.00701291
-0.00313739
-0.000232712
0.00196581
0.00362548
0.00485135
0.00588788
0.00715971
0.00832351
-0.420046
-0.347378
-0.255162
-0.186734
-0.137053
-0.10207
-0.0764207
-0.0576219
-0.0436272
-0.0331312
-0.0251943
-0.0191586
-0.0145377
-0.0109718
-0.00818552
-0.00599925
-0.00430592
-0.00288224
-0.00130622
0.000186126
-0.438323
-0.368639
-0.277317
-0.20791
-0.156783
-0.120331
-0.0933593
-0.0733582
-0.0582764
-0.0467994
-0.0379859
-0.0311665
-0.025846
-0.021657
-0.0183153
-0.0156299
-0.0134912
-0.011699
-0.00983948
-0.00804392
-0.45363
-0.387228
-0.297534
-0.227683
-0.175518
-0.137746
-0.109653
-0.0885937
-0.0725423
-0.0601737
-0.0505571
-0.0430121
-0.0370401
-0.0322675
-0.028404
-0.0252482
-0.0226869
-0.0205445
-0.0184209
-0.0163484
-0.466084
-0.403125
-0.315802
-0.24598
-0.193122
-0.154359
-0.125289
-0.103295
-0.0863949
-0.073227
-0.0628838
-0.0546728
-0.0481
-0.0427839
-0.0384333
-0.0348367
-0.0318761
-0.029402
-0.0270336
-0.0247098
-0.475835
-0.416324
-0.332098
-0.262782
-0.209554
-0.170097
-0.140261
-0.117479
-0.0997993
-0.0859372
-0.0749445
-0.0661282
-0.0590073
-0.053188
-0.0483862
-0.0443796
-0.0410427
-0.0382548
-0.0356622
-0.0331101
-0.483053
-0.426839
-0.346414
-0.278084
-0.224814
-0.184921
-0.154519
-0.131104
-0.11278
-0.0982986
-0.0867179
-0.0773619
-0.0697453
-0.0634629
-0.0582471
-0.0538621
-0.050172
-0.0470855
-0.0442926
-0.0415309
-0.487916
-0.43471
-0.358753
-0.291886
-0.238909
-0.198823
-0.168039
-0.144142
-0.125305
-0.110299
-0.0982097
-0.0883725
-0.0802935
-0.0735948
-0.0680013
-0.0632701
-0.0592521
-0.0558767
-0.0529087
-0.0499548
-0.490605
-0.440006
-0.36914
-0.304192
-0.251845
-0.211807
-0.180821
-0.156585
-0.137351
-0.121918
-0.109399
-0.0991407
-0.0906559
-0.0835821
-0.0776368
-0.0725878
-0.068275
-0.0646182
-0.0614828
-0.0583696
-0.491289
-0.442834
-0.377615
-0.315014
-0.263629
-0.223884
-0.192873
-0.168436
-0.148914
-0.133146
-0.120271
-0.109654
-0.100818
-0.0934084
-0.0871457
-0.081808
-0.0772325
-0.0733263
-0.0699614
-0.066772
-0.490148
-0.44335
-0.384232
-0.324367
-0.274272
-0.235063
-0.204203
-0.1797
-0.159996
-0.143981
-0.130822
-0.119905
-0.110768
-0.103063
-0.0965177
-0.0909183
-0.0861011
-0.0819645
-0.0783949
-0.0751137
-0.487394
-0.441815
-0.389091
-0.332286
-0.283796
-0.245363
-0.214823
-0.190383
-0.170603
-0.154424
-0.14105
-0.129891
-0.120501
-0.112539
-0.105743
-0.0999072
-0.0948673
-0.0905201
-0.086776
-0.0833788
-0.483012
-0.438416
-0.392257
-0.338805
-0.292241
-0.254816
-0.224756
-0.200503
-0.180744
-0.164482
-0.150961
-0.139614
-0.130014
-0.121833
-0.114818
-0.108768
-0.103525
-0.0989842
-0.0950775
-0.0915675
-0.477201
-0.433517
-0.393835
-0.343971
-0.299647
-0.263454
-0.234027
-0.210077
-0.190434
-0.174167
-0.16056
-0.149077
-0.13931
-0.130945
-0.123738
-0.117498
-0.11207
-0.107348
-0.103283
-0.0996717
-0.47015
-0.427525
-0.393909
-0.34783
-0.306051
-0.271306
-0.242659
-0.219125
-0.199686
-0.183485
-0.169853
-0.158283
-0.14839
-0.139874
-0.132502
-0.126093
-0.120497
-0.115607
-0.111383
-0.107679
-0.462034
-0.42084
-0.392567
-0.350453
-0.3115
-0.278402
-0.250678
-0.227667
-0.208516
-0.19245
-0.178848
-0.167238
-0.157257
-0.148622
-0.14111
-0.13455
-0.128802
-0.123754
-0.119374
-0.115577
-0.453052
-0.41381
-0.389928
-0.351939
-0.316049
-0.284778
-0.258113
-0.235729
-0.216946
-0.201077
-0.187557
-0.17595
-0.165917
-0.157191
-0.149563
-0.142871
-0.136983
-0.131789
-0.127251
-0.123358
-0.443437
-0.406708
-0.386164
-0.352411
-0.319757
-0.290471
-0.264998
-0.24334
-0.224999
-0.209385
-0.195995
-0.184431
-0.174378
-0.165589
-0.157866
-0.151056
-0.14504
-0.139708
-0.135011
-0.131019
-0.433448
-0.399714
-0.381519
-0.352006
-0.32268
-0.295516
-0.271365
-0.250531
-0.2327
-0.217395
-0.204178
-0.192693
-0.182651
-0.173822
-0.166023
-0.15911
-0.152973
-0.147512
-0.142656
-0.138556
-0.423358
-0.392922
-0.376302
-0.350872
-0.324878
-0.299952
-0.277248
-0.257331
-0.240077
-0.225129
-0.212125
-0.200751
-0.190746
-0.1819
-0.174043
-0.167039
-0.160788
-0.155204
-0.150186
-0.14597
-0.413431
-0.386366
-0.370859
-0.349151
-0.326412
-0.303812
-0.282673
-0.263766
-0.247153
-0.23261
-0.219855
-0.208621
-0.198679
-0.189835
-0.181934
-0.174851
-0.16849
-0.162787
-0.157605
-0.153264
-0.403891
-0.380056
-0.365509
-0.346984
-0.327348
-0.307134
-0.287667
-0.269861
-0.253954
-0.239861
-0.227388
-0.216322
-0.206463
-0.197638
-0.189708
-0.182556
-0.176088
-0.170269
-0.16492
-0.160442
-0.394903
-0.37401
-0.360484
-0.344516
-0.327763
-0.30995
-0.292247
-0.275633
-0.2605
-0.246903
-0.234746
-0.223871
-0.214114
-0.205325
-0.197377
-0.190165
-0.183593
-0.177657
-0.172139
-0.167513
-0.386562
-0.368267
-0.355895
-0.341901
-0.327745
-0.312296
-0.296426
-0.281093
-0.266807
-0.253757
-0.241948
-0.231288
-0.221651
-0.212911
-0.204956
-0.197693
-0.191019
-0.184967
-0.378907
-0.362883
-0.351743
-0.339303
-0.32739
-0.314204
-0.300209
-0.286245
-0.272884
-0.260437
-0.249012
-0.23859
-0.22909
-0.220413
-0.212459
-0.205156
-0.198381
-0.371934
-0.357916
-0.347978
-0.336862
-0.326801
-0.315716
-0.303601
-0.29108
-0.27873
-0.26695
-0.255952
-0.245795
-0.236449
-0.227847
-0.219904
-0.212569
-0.365618
-0.3534
-0.344549
-0.334662
-0.326088
-0.316882
-0.306603
-0.295583
-0.284329
-0.273294
-0.262776
-0.252916
-0.243743
-0.23523
-0.227306
-0.359921
-0.349339
-0.341437
-0.332719
-0.325353
-0.317766
-0.309223
-0.29973
-0.289656
-0.279451
-0.269479
-0.259959
-0.250984
-0.242578
-0.354797
-0.345711
-0.338641
-0.331014
-0.324673
-0.318438
-0.311475
-0.303494
-0.294668
-0.285388
-0.276043
-0.266922
-0.258179
-0.350199
-0.342476
-0.33616
-0.329521
-0.324086
-0.318968
-0.313389
-0.306852
-0.299315
-0.291052
-0.28243
-0.273785
-0.265324
-0.346068
-0.339589
-0.333983
-0.32823
-0.323604
-0.319415
-0.315006
-0.309791
-0.303539
-0.296371
-0.288578
-0.280506
-0.342344
-0.336998
-0.332082
-0.327138
-0.323232
-0.319825
-0.31638
-0.312322
-0.307297
-0.301266
-0.294402
-0.287017
-0.338986
-0.334652
-0.330398
-0.326202
-0.322937
-0.320194
-0.317535
-0.314454
-0.310548
-0.305649
-0.299792
-0.335907
-0.33253
-0.328892
-0.325402
-0.322714
-0.320536
-0.318513
-0.316225
-0.313286
-0.309452
-0.304635
-0.333081
-0.330565
-0.327516
-0.324695
-0.32254
-0.320853
-0.319344
-0.317681
-0.315534
-0.31264
-0.330462
-0.32872
-0.326229
-0.324039
-0.322381
-0.321129
-0.320043
-0.318866
-0.31734
-0.315222
-0.328004
-0.326968
-0.324991
-0.323392
-0.322197
-0.321339
-0.320612
-0.319817
-0.318763
-0.325671
-0.325277
-0.323783
-0.322722
-0.321954
-0.321455
-0.32104
-0.320554
-0.319859
-0.323435
-0.323639
-0.322581
-0.322005
-0.321624
-0.321452
-0.321313
-0.321086
-0.320669
-0.321282
-0.322047
-0.321373
-0.321227
-0.321193
-0.321312
-0.321418
-0.321413
-0.321219
-0.319207
-0.3205
-0.320158
-0.320388
-0.320655
-0.32103
-0.321351
-0.321538
-0.317215
-0.319003
-0.318942
-0.319495
-0.320018
-0.320612
-0.321118
-0.321469
-0.315318
-0.317566
-0.31774
-0.318565
-0.319301
-0.320076
-0.320736
-0.321224
-0.313533
-0.316208
-0.316573
-0.317621
-0.318528
-0.31945
-0.320233
-0.320831
-0.311886
-0.314948
-0.315465
-0.316693
-0.317734
-0.31877
-0.319648
-0.320329
-0.310402
-0.313808
-0.314444
-0.315814
-0.316956
-0.318076
-0.319024
-0.319765
-0.30911
-0.312812
-0.313538
-0.315016
-0.316232
-0.317413
-0.318408
-0.308038
-0.311983
-0.312775
-0.314332
-0.3156
-0.316821
-0.317847
-0.307209
-0.311342
-0.312179
-0.313792
-0.315093
-0.316339
-0.317383
-0.306645
-0.310904
-0.31177
-0.313417
-0.314738
-0.316
-0.317052
-0.306358
-0.310682
-0.311561
-0.313226
-0.314556
-0.315824
-0.31688
-0.0816495
-0.0897159
-0.097719
-0.105642
-0.113473
-0.1212
-0.128818
-0.136319
-0.143703
-0.150967
-0.158117
-0.0811679
-0.0891393
-0.0970479
-0.104877
-0.112613
-0.120245
-0.127766
-0.135168
-0.142449
-0.149603
-0.156637
-0.0806805
-0.0885244
-0.0963028
-0.103999
-0.111599
-0.119091
-0.126466
-0.133716
-0.140838
-0.147823
-0.154678
-0.0801871
-0.0879145
-0.0955764
-0.103155
-0.110637
-0.11801
-0.125265
-0.132391
-0.139387
-0.146241
-0.152961
-0.0796883
-0.087304
-0.0948555
-0.102325
-0.109699
-0.116965
-0.124113
-0.131133
-0.138023
-0.144772
-0.151387
-0.0791854
-0.0866874
-0.0941266
-0.101485
-0.108748
-0.115905
-0.122944
-0.129856
-0.136637
-0.143277
-0.149783
-0.0786789
-0.0860646
-0.0933886
-0.100632
-0.107782
-0.114824
-0.121749
-0.128546
-0.135211
-0.141733
-0.148119
-0.0781695
-0.0854371
-0.0926441
-0.099771
-0.106804
-0.113729
-0.120537
-0.127215
-0.13376
-0.14016
-0.146419
-0.077658
-0.0848064
-0.091895
-0.0989038
-0.105818
-0.112625
-0.119314
-0.125871
-0.132295
-0.13857
-0.144701
-0.0771456
-0.0841738
-0.0911428
-0.0980323
-0.104827
-0.111514
-0.118082
-0.124518
-0.130817
-0.136967
-0.142969
-0.0766334
-0.0835406
-0.0903891
-0.0971581
-0.103832
-0.110398
-0.116843
-0.123156
-0.12933
-0.135353
-0.141224
-0.0761225
-0.0829083
-0.0896354
-0.0962831
-0.102836
-0.109278
-0.1156
-0.121789
-0.127835
-0.133731
-0.139469
-0.0756144
-0.0822784
-0.0888838
-0.0954096
-0.10184
-0.108159
-0.114357
-0.120419
-0.126338
-0.132104
-0.137709
-0.0751102
-0.0816528
-0.0881362
-0.0945398
-0.100847
-0.107043
-0.113115
-0.119051
-0.124842
-0.130478
-0.13595
-0.0746116
-0.0810331
-0.0873948
-0.0936762
-0.0998603
-0.105932
-0.11188
-0.11769
-0.123352
-0.128857
-0.134197
-0.07412
-0.0804214
-0.086662
-0.0928217
-0.0988832
-0.104832
-0.110654
-0.116338
-0.121872
-0.127248
-0.132456
-0.13749
-0.0736372
-0.0798198
-0.0859403
-0.0919791
-0.0979189
-0.103745
-0.109443
-0.115002
-0.120409
-0.125656
-0.130735
-0.135635
-0.0731651
-0.0792306
-0.0852325
-0.0911517
-0.0969712
-0.102675
-0.108252
-0.113686
-0.118969
-0.124088
-0.12904
-0.13381
-0.072706
-0.0786564
-0.0845416
-0.0903432
-0.0960442
-0.101629
-0.107085
-0.112397
-0.117558
-0.122553
-0.12738
-0.132023
-0.072262
-0.0781
-0.0838712
-0.0895575
-0.0951425
-0.10061
-0.105949
-0.111143
-0.116184
-0.121058
-0.125764
-0.130284
-0.071836
-0.0775647
-0.0832249
-0.0887991
-0.0942713
-0.0996255
-0.104849
-0.109929
-0.114854
-0.119613
-0.124201
-0.128605
-0.0714309
-0.0770539
-0.082607
-0.0880729
-0.093436
-0.0986807
-0.103795
-0.108763
-0.113579
-0.118226
-0.122704
-0.126997
-0.0710502
-0.0765719
-0.0820223
-0.0873843
-0.092643
-0.0977831
-0.102792
-0.107656
-0.112366
-0.11691
-0.121283
-0.125473
-0.0706977
-0.0761231
-0.081476
-0.0867395
-0.0918994
-0.0969405
-0.101851
-0.106616
-0.111229
-0.115675
-0.119952
-0.124047
-0.0703781
-0.0757129
-0.0809742
-0.0861455
-0.0912128
-0.0961618
-0.10098
-0.105655
-0.110177
-0.114535
-0.118723
-0.122733
-0.0700963
-0.0753473
-0.080524
-0.0856101
-0.0905923
-0.0954567
-0.100192
-0.104784
-0.109225
-0.113504
-0.117614
-0.121548
-0.0698579
-0.0750329
-0.080133
-0.0851423
-0.0900477
-0.0948364
-0.0994968
-0.104017
-0.108387
-0.112597
-0.116641
-0.120512
-0.0696712
-0.0747786
-0.0798112
-0.0847531
-0.0895918
-0.0943151
-0.0989119
-0.10337
-0.107681
-0.111835
-0.115826
-0.119645
-0.0695366
-0.0745858
-0.0795604
-0.0844453
-0.0892287
-0.093899
-0.0984455
-0.102857
-0.107123
-0.111236
-0.115188