/*--------------------------------*- C++ -*----------------------------------*\
  =========                 |
  \\      /  F ield         | OpenFOAM: The Open Source CFD Toolbox
   \\    /   O peration     | Website:  https://openfoam.org
    \\  /    A nd           | Version:  7
     \\/     M anipulation  |
\*---------------------------------------------------------------------------*/
FoamFile
{
    version     2.0;
    format      ascii;
    class       surfaceScalarField;
    location    "20";
    object      phi;
}
// * * * * * * * * * * * * * * * * * * * * * * * * * * * * * * * * * * * * * //

dimensions      [0 3 -1 0 0 0 0];

internalField   nonuniform List<scalar> 
11850
(
-3.74754e-05
3.74757e-05
-3.37519e-10
-0.000109376
7.19013e-05
-6.40755e-10
-0.000200036
9.06604e-05
-7.86174e-10
-0.000301118
0.000101083
-8.61358e-10
-0.000409282
0.000108165
-9.17033e-10
-0.000523333
0.000114053
-9.6469e-10
0.000119727
-9.96896e-10
-3.68016e-05
7.42774e-05
-0.000107474
0.000142573
-0.000196425
0.000179612
-0.000295255
0.000199913
-0.000400469
0.000213379
-0.000510674
0.000224257
0.000234468
-3.54941e-05
0.000109772
-0.000103754
0.000210833
-0.000189337
0.000265195
-0.000283717
0.000294293
-0.000383103
0.000312764
-0.000485713
0.000326867
0.000339386
-3.36113e-05
0.000143383
-9.83532e-05
0.000275575
-0.000178995
0.000345838
-0.000266833
0.000382131
-0.000357647
0.000403578
-0.000449103
0.000418323
0.000429909
-3.12372e-05
0.00017462
-9.14691e-05
0.000335807
-0.000165723
0.000420092
-0.000245069
0.000461476
-0.00032475
0.000483259
-0.000401736
0.000495309
0.0005018
-2.84765e-05
0.000203097
-8.33475e-05
0.000390677
-0.000149921
0.000486665
-0.000218999
0.000530554
-0.000285193
0.000549453
-0.000344653
0.000554769
-0.00039401
0.000551157
0.000539304
-2.54496e-05
0.000228546
-7.427e-05
0.000439498
-0.000132046
0.000544442
-0.000189265
0.000587773
-0.000239821
0.00060001
-0.000278927
0.000593875
-0.000302103
0.000574332
0.000541769
-2.2285e-05
0.000250831
-6.45376e-05
0.00048175
-0.000112579
0.000592483
-0.000156523
0.000631716
-0.000189456
0.000632943
-0.000205521
0.000609941
-0.000198961
0.000567772
0.00050635
-1.91124e-05
0.000269944
-5.4451e-05
0.000517089
-9.19923e-05
0.000630024
-0.000121389
0.000661113
-0.000134804
0.000646357
-0.000125135
0.000600273
-8.51222e-05
0.000527759
0.000428041
-1.60539e-05
0.000285998
-4.42897e-05
0.000545325
-7.07085e-05
0.000656443
-8.43691e-05
0.000674774
-7.63374e-05
0.000638326
-3.80237e-05
0.000561959
3.96551e-05
0.00045008
0.00030098
-1.32158e-05
0.000299213
-3.42879e-05
0.000566397
-4.90553e-05
0.000671211
-4.57781e-05
0.000671497
-1.41763e-05
0.000606724
5.61962e-05
0.000491586
0.000176643
0.000329634
0.000117998
-1.06802e-05
0.000309894
-2.46104e-05
0.000580327
-2.7217e-05
0.000673817
-5.65552e-06
0.000649935
5.20767e-05
0.000548992
0.000158729
0.000384934
0.00032832
0.000160043
0.000575987
-0.000129669
-0.000489685
-8.49745e-06
0.000318391
-1.53271e-05
0.000587157
-5.19076e-06
0.000663681
3.63194e-05
0.000608425
0.000123417
0.000461895
0.000271737
0.000236613
0.000498382
-6.6602e-05
0.000820912
-0.000452199
-0.000924034
-6.68112e-06
0.000325072
-6.38093e-06
0.000586856
1.7303e-05
0.000639997
8.09145e-05
0.000544813
0.000201575
0.000341234
0.000398352
3.98365e-05
0.000691391
-0.000359641
0.00109934
-0.000860144
-0.00146016
-5.21371e-06
0.000330286
2.38101e-06
0.000579262
4.07552e-05
0.000601623
0.000129387
0.000456181
0.000289016
0.000181606
0.000542455
-0.000213603
0.000911893
-0.000729079
0.0014139
-0.00136216
-0.00210002
-3.98284e-06
0.000334269
1.11553e-05
0.000564124
6.5996e-05
0.000546782
0.0001835
0.000338677
0.000388812
-2.37062e-05
0.000708089
-0.000532879
0.00116284
-0.00118383
0.00176213
-0.00196145
0.00249657
-0.00283446
-0.00375947
-2.82869e-06
0.000337097
2.05784e-05
0.000540716
9.41464e-05
0.000473214
0.000245448
0.000187376
0.00050431
-0.000282568
0.000898405
-0.000926974
0.00144346
-0.00172889
0.00213376
-0.00265174
0.00293967
-0.00364037
-0.00463397
-1.56929e-06
0.000338667
3.11725e-05
0.000507975
0.000126559
0.000377827
0.00031769
-3.7555e-06
0.000638512
-0.00060339
0.00111417
-0.00140263
0.00174709
-0.00236182
0.00250992
-0.00341457
0.00335188
-0.00448233
0.0042141
-0.00549618
-0.00640948
1.19837e-07
0.000338547
4.36021e-05
0.000464492
0.000164748
0.000256681
0.000402657
-0.000241665
0.000793176
-0.000993908
0.0013521
-0.00196155
0.00206021
-0.00306994
0.00286564
-0.00422001
0.00370262
-0.00531931
0.00451229
-0.00630585
-0.00715326
1.89597e-06
0.000336651
5.85627e-05
0.000407826
0.000210283
0.000104961
0.0005023
-0.000533681
0.000967692
-0.0014593
0.00160376
-0.00259762
0.00236377
-0.00382994
0.00317557
-0.00503181
0.00397025
-0.00611399
0.00470086
-0.00703646
0.00534752
-0.00779992
-0.00843101
4.63282e-06
0.000332018
7.69113e-05
0.000335547
0.000264457
-8.25842e-05
0.000616971
-0.000886196
0.00115707
-0.0019994
0.00185448
-0.00329503
0.00263535
-0.0046108
0.00341839
-0.00581486
0.00414435
-0.00683995
0.00478521
-0.00767732
0.00533958
-0.00835429
-0.00891341
8.09012e-06
0.000323928
9.90992e-05
0.000244538
0.000328592
-0.000312077
0.000746652
-0.00130426
0.00135513
-0.00260788
0.00209076
-0.00403065
0.00286081
-0.00538086
0.00358864
-0.00654268
0.00423327
-0.00748458
0.00478646
-0.00823052
0.00526092
-0.00882874
0.00567798
-0.00933048
-0.00977785
1.26458e-05
0.000311282
0.000125918
0.000131266
0.000403187
-0.000589345
0.000887826
-0.0017889
0.00155042
-0.00327047
0.00229662
-0.00477686
0.00302858
-0.00611282
0.00368543
-0.00719953
0.00424716
-0.00804632
0.00472182
-0.00870517
0.00513062
-0.00923755
0.00549687
-0.00969673
-0.0101211
1.84563e-05
0.000292826
0.000157887
-8.16542e-06
0.000487854
-0.000919311
0.00103488
-0.00233592
0.00173116
-0.00396675
0.00246119
-0.00550689
0.00313603
-0.00678767
0.00371621
-0.00777971
0.00420067
-0.00853078
0.0046086
-0.0091131
0.00496488
-0.00959383
0.00529155
-0.0100234
0.00560463
-0.0104342
-0.0108451
2.56582e-05
0.000267168
0.000195356
-0.000177863
0.000580963
-0.00130492
0.00118032
-0.00293528
0.00188693
-0.00467335
0.00257903
-0.00619898
0.00318653
-0.00739517
0.00369166
-0.00828484
0.00410796
-0.00894708
0.00446086
-0.00946599
0.00477533
-0.00990831
0.0050704
-0.0103185
0.00535836
-0.0107222
0.00564601
-0.0111327
-0.0115556
3.43819e-05
0.000232786
0.000238401
-0.000381882
0.000679507
-0.00174603
0.00131602
-0.00357179
0.0020105
-0.00536784
0.00264979
-0.00683827
0.00318694
-0.00793231
0.00362293
-0.00872083
0.0039811
-0.00930525
0.00428914
-0.00977403
0.00456986
-0.010189
0.00483866
-0.0105873
0.00510446
-0.010988
0.00537182
-0.0114001
0.00564319
-0.011827
-0.0122708
4.47704e-05
0.000188015
0.000286677
-0.000623789
0.000779296
-0.00223864
0.00143465
-0.00422714
0.00209843
-0.00603163
0.00267672
-0.00741656
0.00314549
-0.00840108
0.00352019
-0.00909554
0.00382965
-0.00961471
0.00410096
-0.0100453
0.00435365
-0.0104417
0.00459952
-0.0108331
0.00484479
-0.0112333
0.00509245
-0.0116477
0.00534401
-0.0120785
0.00559996
-0.0125267
-0.0129908
5.69925e-05
0.000131023
0.000339279
-0.000906075
0.000875461
-0.00277483
0.00153086
-0.00488254
0.00215057
-0.00665134
0.00266504
-0.00793103
0.00307034
-0.00880638
0.00339197
-0.00941717
0.00366081
-0.00988354
0.00390153
-0.0102861
0.00413002
-0.0106702
0.00435493
-0.011058
0.00458048
-0.0114588
0.0048086
-0.0118759
0.00504028
-0.0123102
0.0052759
-0.0127624
0.00551671
-0.0132316
-0.0137223
7.1226e-05
5.97967e-05
0.000394714
-0.00122956
0.000963151
-0.00334326
0.00160174
-0.00552113
0.00216909
-0.00721869
0.00262072
-0.00838266
0.00296884
-0.0091545
0.00324509
-0.00969342
0.00347981
-0.0101183
0.00369436
-0.0105006
0.00390108
-0.0108769
0.00410613
-0.0112631
0.0043123
-0.011665
0.00452084
-0.0120844
0.00473244
-0.0125218
0.00494749
-0.0129774
0.00516689
-0.013451
0.00538983
-0.0139453
0.00562057
-0.0144504
-0.0150037
8.75911e-05
-2.77944e-05
0.000451025
-0.001593
0.00103822
-0.00393046
0.00164655
-0.00612945
0.00215751
-0.00772965
0.00254965
-0.0087748
0.00284723
-0.00945207
0.00308476
-0.00993096
0.00329038
-0.0103239
0.00348178
-0.010692
0.00366821
-0.0110634
0.00385395
-0.0114488
0.00404083
-0.0118518
0.00422967
-0.0122732
0.00442099
-0.0127131
0.00461516
-0.0131716
0.00481289
-0.0136488
0.00501371
-0.0141461
0.00522081
-0.0146575
-0.0152106
0.00542771
0.000106043
-0.000133837
0.000505994
-0.00199295
0.00109775
-0.00452222
0.00166622
-0.00669792
0.00211994
-0.00818337
0.0024572
-0.00911207
0.00271057
-0.00970544
0.00291489
-0.0101353
0.00309511
-0.0105041
0.00326534
-0.0108622
0.00343235
-0.0112304
0.00359902
-0.0116155
0.00376655
-0.0120194
0.00393554
-0.0124422
0.00410639
-0.012884
0.00427946
-0.0133447
0.00445526
-0.0138246
0.00463355
-0.0143244
0.00481679
-0.0148408
-0.0153933
0.00499949
0.000126281
-0.000260118
0.000557346
-0.00242401
0.00114021
-0.00510509
0.00166273
-0.00722044
0.00206054
-0.00858117
0.00234806
-0.00939959
0.00256287
-0.00992025
0.00273835
-0.0103108
0.00289579
-0.0106615
0.00304612
-0.0110126
0.00319415
-0.0113784
0.00334182
-0.0117632
0.00348993
-0.0121675
0.00363892
-0.0125912
0.00378913
-0.0130342
0.00394088
-0.0134964
0.00409455
-0.0139782
0.00425005
-0.0144799
0.00440915
-0.0149999
-0.0155516
0.00456742
0.000147726
-0.000407844
0.00060293
-0.00287922
0.0011653
-0.00566746
0.00163859
-0.00769372
0.00198323
-0.00892581
0.00222613
-0.0096425
0.00240724
-0.0101014
0.00255722
-0.0104607
0.00269369
-0.010798
0.00282488
-0.0111438
0.00295416
-0.0115077
0.0030828
-0.0118918
0.00321139
-0.0122961
0.00334026
-0.0127201
0.00346969
-0.0131636
0.00359997
-0.0136267
0.00373134
-0.0141096
0.00386383
-0.0146124
0.00399864
-0.0151347
-0.0156852
0.00413229
0.000169606
-0.00057745
0.000640895
-0.00335051
0.00117365
-0.00620021
0.00159653
-0.0081166
0.00189152
-0.0092208
0.00209462
-0.0098456
0.00224603
-0.0102528
0.002373
-0.0105877
0.0024897
-0.0109147
0.00260219
-0.0112563
0.0027128
-0.0116183
0.00282239
-0.0120014
0.00293138
-0.0124051
0.00304003
-0.0128287
0.00314859
-0.0132722
0.00325727
-0.0137354
0.00336623
-0.0142186
0.00347555
-0.0147217
0.00358599
-0.0152451
-0.0157941
0.00369485
0.00019108
-0.00076853
0.000669853
-0.00382928
0.00116645
-0.00669681
0.00153927
-0.00848942
0.00178847
-0.00947001
0.0019561
-0.0100132
0.00208102
-0.0103777
0.00218677
-0.0106935
0.00228448
-0.0110124
0.00237853
-0.0113503
0.00247049
-0.0117103
0.00256098
-0.0120919
0.0026503
-0.0124944
0.00273868
-0.0129171
0.0028263
-0.0133598
0.00291332
-0.0138224
0.00299982
-0.0143051
0.00308588
-0.0148077
0.00317193
-0.0153312
-0.015878
0.00325588
0.000211345
-0.000979875
0.000688982
-0.00430692
0.00114523
-0.00715306
0.00146939
-0.00881358
0.00167668
-0.0096773
0.0018126
-0.0101491
0.00191354
-0.0104786
0.00199935
-0.0107793
0.00207856
-0.0110916
0.00215428
-0.011426
0.00222761
-0.0117836
0.00229897
-0.0121633
0.0023686
-0.012564
0.00243668
-0.0129852
0.00250333
-0.0134264
0.00256867
-0.0138877
0.0026327
-0.0143691
0.00269549
-0.0148705
0.00275718
-0.0153929
-0.015937
0.00281618
0.000229678
-0.00120955
0.000698029
-0.00477527
0.00111161
-0.00756663
0.00138921
-0.00909118
0.00155829
-0.00984638
0.0016657
-0.0102565
0.00174459
-0.0105575
0.00181133
-0.010846
0.00187235
-0.0111526
0.00192983
-0.0114835
0.00198453
-0.0118383
0.00203676
-0.0122155
0.0020867
-0.012614
0.00213448
-0.013033
0.00218019
-0.0134722
0.00222386
-0.0139314
0.00226547
-0.0144107
0.00230502
-0.0149101
0.00234245
-0.0154303
-0.0159711
0.00237652
0.000245442
-0.001455
0.000697222
-0.00522705
0.00106725
-0.00793667
0.00130083
-0.00932476
0.00143512
-0.00998067
0.00151664
-0.0103381
0.00157493
-0.0106158
0.00162321
-0.0108943
0.00166624
-0.0111957
0.00170552
-0.0115228
0.00174161
-0.0118744
0.00177472
-0.0122486
0.00180501
-0.0126442
0.00183253
-0.0130605
0.00185735
-0.013497
0.00187944
-0.0139535
0.00189871
-0.01443
0.00191514
-0.0149265
0.00192845
-0.0154436
-0.0159803
0.00193769
0.000258083
-0.00171308
0.000687143
-0.00565611
0.00101376
-0.00826328
0.00120605
-0.00951705
0.00130861
-0.0100832
0.00136639
-0.0103958
0.00140516
-0.0106546
0.00143539
-0.0109245
0.00146054
-0.0112208
0.00148169
-0.011544
0.0014992
-0.0118919
0.00151325
-0.0122626
0.00152394
-0.0126549
0.0015313
-0.0130679
0.00153532
-0.013501
0.00153593
-0.0139541
0.00153301
-0.0144271
0.00152645
-0.0149199
0.00151591
-0.0154331
-0.0159649
0.00150047
0.000267149
-0.00198023
0.000668616
-0.00605757
0.000952629
-0.0085473
0.00110643
-0.00967084
0.00117995
-0.0101568
0.0012157
-0.0104316
0.00123574
-0.0106746
0.0012482
-0.010937
0.00125559
-0.0112282
0.00125865
-0.011547
0.00125766
-0.0118909
0.00125272
-0.0122577
0.00124391
-0.0126461
0.00123121
-0.0130552
0.00121456
-0.0134844
0.00119386
-0.0139334
0.00116893
-0.0144021
0.00113958
-0.0148906
0.00110544
-0.0153989
-0.0159251
0.00106563
0.000270784
-0.00225101
0.000640116
-0.00642691
0.000882217
-0.0087894
0.00100022
-0.00978884
0.00104716
-0.0102037
0.00106238
-0.0104468
0.00106442
-0.0106767
0.00105948
-0.010932
0.00104935
-0.0112181
0.00103454
-0.0115322
0.00101527
-0.0118716
0.000991604
-0.0122341
0.00096356
-0.0126181
0.000931089
-0.0130227
0.000894099
-0.0134474
0.000852425
-0.0138917
0.000805881
-0.0143556
0.000754203
-0.0148389
0.000696758
-0.0153415
-0.0158616
0.000633272
0.000271729
-0.00252274
0.000607686
-0.00676286
0.000809783
-0.00899149
0.00089464
-0.0098737
0.000916911
-0.010226
0.00091253
-0.0104424
0.000896835
-0.010661
0.000874502
-0.0109097
0.000846797
-0.0111904
0.000814083
-0.0114995
0.000776503
-0.011834
0.000734087
-0.0121916
0.000686821
-0.0125708
0.00063461
-0.0129705
0.000577312
-0.0133901
0.000514716
-0.0138291
0.000446633
-0.0142875
0.000372939
-0.0147652
0.000292403
-0.0152609
-0.0157745
0.000205251
0.000268658
-0.0027914
0.000569849
-0.00706405
0.000733564
-0.00915521
0.000787604
-0.00992774
0.000786874
-0.0102252
0.000763698
-0.0104193
0.000730593
-0.0106279
0.000691012
-0.0108701
0.000645845
-0.0111452
0.000595339
-0.011449
0.000539591
-0.0117783
0.000478586
-0.0121306
0.000412264
-0.0125045
0.000340524
-0.0128987
0.000263145
-0.0133127
0.000179878
-0.0137459
9.039e-05
-0.014198
-5.80639e-06
-0.014669
-0.000107297
-0.0151594
-0.0156633
-0.000218415
0.000261769
-0.00305317
0.000527481
-0.00732977
0.00065454
-0.00928227
0.00067988
-0.00995308
0.00065755
-0.0102029
0.000616226
-0.0103779
0.000565969
-0.0105776
0.00050928
-0.0108134
0.000446783
-0.0110827
0.000378618
-0.0113808
0.000304852
-0.0117045
0.000225447
-0.0120512
0.000140213
-0.0124192
4.90706e-05
-0.0128076
-4.80529e-05
-0.0132156
-0.000151526
-0.0136424
-0.000261701
-0.0140879
-0.00037851
-0.0145522
-0.000503736
-0.0150342
-0.0155302
-0.000636878
0.000251368
-0.00330453
0.000481411
-0.00755981
0.000573586
-0.00937444
0.000572118
-0.00995161
0.000529345
-0.0101601
0.000470385
-0.010319
0.000403191
-0.0105104
0.000329537
-0.0107398
0.00024984
-0.011003
0.000164148
-0.0112951
7.2448e-05
-0.0116128
-2.52478e-05
-0.0119535
-0.000128801
-0.0123157
-0.000238776
-0.0126976
-0.000355439
-0.0130989
-0.000479026
-0.0135188
-0.000609664
-0.0139572
-0.000747781
-0.0144141
-0.000894581
-0.0148874
-0.0153749
-0.00104985
0.000237842
-0.00354238
0.00043241
-0.00775438
0.000491459
-0.00943349
0.000464857
-0.00992501
0.000402595
-0.0100979
0.000326417
-0.0102428
0.000242459
-0.0104265
0.000151974
-0.0106493
5.50667e-05
-0.0109061
-4.78417e-05
-0.0111922
-0.000156819
-0.0115038
-0.000272247
-0.0118381
-0.000394355
-0.0121936
-0.000523176
-0.0125688
-0.000659075
-0.012963
-0.000802319
-0.0133756
-0.00095314
-0.0138064
-0.00111207
-0.0142552
-0.00127986
-0.0147196
-0.015198
-0.00145678
0.000221626
-0.003764
0.000381185
-0.00791394
0.000408808
-0.00946111
0.000358541
-0.00987474
0.000277583
-0.0100169
0.000184509
-0.0101497
8.38248e-05
-0.0103258
-2.3458e-05
-0.010542
-0.000136592
-0.010793
-0.000256441
-0.0110724
-0.000382963
-0.0113773
-0.000516178
-0.0117049
-0.000656352
-0.0120534
-0.000803674
-0.0124215
-0.000958459
-0.0128082
-0.00112101
-0.013213
-0.00129163
-0.0136358
-0.00147084
-0.014076
-0.00165923
-0.0145312
-0.015
-0.0018572
0.000203165
-0.00396717
0.000328379
-0.00803915
0.000326162
-0.0094589
0.000253533
-0.00980211
0.00015451
-0.00991788
4.45784e-05
-0.0100398
-7.20907e-05
-0.0102091
-0.000195258
-0.0104188
-0.000325336
-0.0106629
-0.000462114
-0.0109356
-0.000605776
-0.0112336
-0.000756462
-0.0115542
-0.000914408
-0.0118955
-0.00107989
-0.012256
-0.00125321
-0.0126349
-0.0014347
-0.0130315
-0.00162472
-0.0134458
-0.00182373
-0.0138769
-0.00203223
-0.0143227
-0.0147816
-0.00225068
0.000182892
-0.00415006
0.000274572
-0.00813083
0.000243991
-0.00942832
0.000150135
-0.00970826
3.31104e-05
-0.00980086
-9.22636e-05
-0.00991443
-0.000224943
-0.0100764
-0.000364536
-0.0102792
-0.00051101
-0.0105164
-0.000664418
-0.0107822
-0.000824936
-0.0110731
-0.000992778
-0.0113864
-0.00116819
-0.01172
-0.00135149
-0.0120727
-0.00154298
-0.0124434
-0.00174302
-0.0128315
-0.001952
-0.0132368
-0.00217035
-0.0136586
-0.00239849
-0.0140946
-0.0145433
-0.00263684
0.000161216
-0.00431127
0.000220274
-0.00818989
0.000162704
-0.00937075
4.84851e-05
-0.00959404
-8.47806e-05
-0.00966759
-0.000226423
-0.00977279
-0.000375102
-0.00992775
-0.000530728
-0.0101236
-0.000693329
-0.0103538
-0.000863072
-0.0106124
-0.00104016
-0.010896
-0.00122484
-0.0112017
-0.0014174
-0.0115275
-0.00161815
-0.011872
-0.00182744
-0.0122341
-0.00204563
-0.0126133
-0.00227312
-0.0130093
-0.00251036
-0.0134213
-0.00275764
-0.0138473
-0.0142856
-0.00301532
0.000138529
-0.0044498
0.000165923
-0.00821728
8.26156e-05
-0.00928744
-5.07783e-05
-0.00946064
-0.00020022
-0.00951815
-0.000357851
-0.00961516
-0.000522241
-0.00976336
-0.000693602
-0.00995226
-0.000872056
-0.0101754
-0.00105784
-0.0104267
-0.00125118
-0.0107027
-0.00145238
-0.0110005
-0.00166173
-0.0113181
-0.00187957
-0.0116541
-0.00210626
-0.0120074
-0.00234217
-0.0123774
-0.00258775
-0.0127637
-0.00284341
-0.0131657
-0.00310933
-0.0135814
-0.0140091
-0.00338578
0.000115209
-0.00456501
0.000111957
-0.00821403
2.62453e-06
-0.00917811
-0.00014755
-0.00931047
-0.000313128
-0.00935257
-0.000486318
-0.00944197
-0.000666148
-0.00958353
-0.000852958
-0.00976545
-0.00104697
-0.00998137
-0.00124847
-0.0102252
-0.00145774
-0.0104934
-0.00167511
-0.0107831
-0.00190089
-0.0110924
-0.00213545
-0.0114196
-0.00237914
-0.0117637
-0.00263235
-0.0121242
-0.00289555
-0.0125005
-0.00316918
-0.0128921
-0.00345326
-0.0132973
-0.0137145
-0.00374791
9.15846e-05
-0.0046566
5.90248e-05
-0.00818147
-7.24837e-05
-0.0090466
-0.000241934
-0.00914102
-0.00042326
-0.00917125
-0.000611674
-0.00925355
-0.000806648
-0.00938856
-0.0010086
-0.00956349
-0.00121785
-0.00977212
-0.00143475
-0.0100083
-0.00165961
-0.0102686
-0.00189279
-0.0105499
-0.00213463
-0.0108505
-0.00238551
-0.0111687
-0.00264579
-0.0115035
-0.00291586
-0.0118541
-0.00319624
-0.0122201
-0.00348737
-0.0126009
-0.00378913
-0.0129955
-0.0134022
-0.00410141
6.78801e-05
-0.00472448
8.61706e-06
-0.00812221
-0.000146717
-0.00889126
-0.00033378
-0.00895396
-0.000530476
-0.00897455
-0.000733779
-0.00905025
-0.000943577
-0.00917876
-0.00116036
-0.00934671
-0.00138451
-0.00954796
-0.00161645
-0.00977633
-0.00185653
-0.0100285
-0.00210515
-0.0103013
-0.00236267
-0.010593
-0.00262947
-0.0109019
-0.00290592
-0.011227
-0.00319243
-0.0115676
-0.00348954
-0.011923
-0.00379771
-0.0122928
-0.00411664
-0.0126766
-0.0130729
-0.00444596
4.42715e-05
-0.00476875
-4.53626e-05
-0.00803257
-0.000219268
-0.00871736
-0.000422909
-0.00875031
-0.000634627
-0.00876284
-0.000852495
-0.00883238
-0.00107678
-0.00895448
-0.00130804
-0.00911545
-0.00154675
-0.00930926
-0.00179336
-0.00952972
-0.0020483
-0.00977355
-0.00231196
-0.0100376
-0.00258476
-0.0103202
-0.00286707
-0.0106196
-0.00315927
-0.0109348
-0.00346178
-0.0112651
-0.00377518
-0.0116096
-0.00409996
-0.011968
-0.00443557
-0.012341
-0.0127272
-0.00478125
2.13538e-05
-0.0047901
-9.66413e-05
-0.00791458
-0.00028979
-0.00852421
-0.000509228
-0.00853088
-0.00073559
-0.00853647
-0.00096769
-0.00860028
-0.0012061
-0.00871606
-0.00145149
-0.00887006
-0.00170437
-0.00905637
-0.00196528
-0.00926881
-0.00223467
-0.00950416
-0.00251298
-0.00975933
-0.00280064
-0.0100325
-0.00309805
-0.0103222
-0.00340556
-0.0106273
-0.00372363
-0.010947
-0.00405287
-0.0112804
-0.00439383
-0.011627
-0.00474572
-0.0119891
-0.0123659
-0.00510704
8.18808e-07
-0.00479092
-0.00014563
-0.00776813
-0.000358091
-0.00831175
-0.000592684
-0.00829628
-0.000833263
-0.00829589
-0.00107924
-0.00835431
-0.00133141
-0.00846389
-0.00159053
-0.00861094
-0.0018572
-0.0087897
-0.00213201
-0.008994
-0.00241544
-0.00922072
-0.00270799
-0.00946679
-0.00301009
-0.00973044
-0.00332215
-0.0100101
-0.00364455
-0.0103049
-0.00397773
-0.0106138
-0.00432231
-0.0109358
-0.0046789
-0.0112704
-0.00504673
-0.0116213
-0.0119894
-0.00542323
-2.59477e-05
-0.00476497
-0.000193052
-0.00760103
-0.000423934
-0.00808087
-0.000673183
-0.00804703
-0.000927554
-0.00804152
-0.00118702
-0.00809484
-0.00145256
-0.00819836
-0.00172501
-0.00833849
-0.00200506
-0.00850965
-0.00229334
-0.00870572
-0.0025904
-0.00892367
-0.00289675
-0.00916043
-0.00321286
-0.00941433
-0.00353914
-0.00968381
-0.003876
-0.00996803
-0.00422389
-0.010266
-0.00458336
-0.0105763
-0.00495495
-0.0108988
-0.00533825
-0.011238
-0.0115975
-0.00573015
-4.97039e-05
-0.00471527
-0.000238805
-0.00741192
-0.000487196
-0.00783248
-0.000750637
-0.00778359
-0.00101838
-0.00777378
-0.00129093
-0.00782228
-0.00156942
-0.00791987
-0.00185478
-0.00805313
-0.00214778
-0.00821665
-0.00244911
-0.0084044
-0.00275935
-0.00861343
-0.00307905
-0.00884073
-0.00340871
-0.00908467
-0.00374878
-0.00934375
-0.0040997
-0.00961711
-0.00446197
-0.00990368
-0.00483605
-0.0102023
-0.00522236
-0.0105125
-0.0056204
-0.0108399
-0.0111921
-0.00602575
-7.2183e-05
-0.00464309
-0.000282798
-0.00720131
-0.000547841
-0.00756743
-0.000824973
-0.00750646
-0.00110564
-0.00749311
-0.00139085
-0.00753708
-0.00168185
-0.00762887
-0.00197969
-0.00775529
-0.0022852
-0.00791114
-0.00259912
-0.00809048
-0.00292208
-0.00829046
-0.00325468
-0.00850813
-0.00359742
-0.00874193
-0.0039508
-0.00899037
-0.00431534
-0.00925257
-0.00469166
-0.00952736
-0.00508011
-0.0098138
-0.0054809
-0.0101117
-0.0058951
-0.0104257
-0.0107831
-0.00630409
-9.68309e-05
-0.00454626
-0.000328671
-0.00696947
-0.00060935
-0.00728675
-0.000899399
-0.00721641
-0.00119235
-0.00720016
-0.00148959
-0.00723984
-0.0017925
-0.00732595
-0.00210222
-0.00744558
-0.00241963
-0.00759372
-0.00274555
-0.00776457
-0.00308064
-0.00795537
-0.00342552
-0.00816325
-0.00378074
-0.00838671
-0.00414683
-0.00862428
-0.00452438
-0.00887502
-0.00491403
-0.00913771
-0.00531603
-0.0094118
-0.0057289
-0.00969886
-0.00615035
-0.0100043
-0.0103235
-0.00660993
-0.000117203
-0.00442905
-0.000368744
-0.00671793
-0.00066437
-0.00699113
-0.000967059
-0.00691372
-0.00127204
-0.00689519
-0.00158103
-0.00693085
-0.00189555
-0.00701142
-0.00221682
-0.00712431
-0.00254582
-0.00726473
-0.00288338
-0.00742701
-0.00323024
-0.00760851
-0.00358705
-0.00780644
-0.00395438
-0.00801937
-0.00433283
-0.00824583
-0.00472301
-0.00848484
-0.00512534
-0.00873537
-0.00553963
-0.00899751
-0.00596549
-0.009273
-0.00640737
-0.00956242
-0.00985581
-0.00687511
-0.000136658
-0.00429239
-0.000406874
-0.00644771
-0.000716662
-0.00668134
-0.00103144
-0.00659894
-0.00134796
-0.00657867
-0.00166821
-0.0066106
-0.00199386
-0.00668578
-0.00232619
-0.00679198
-0.00266626
-0.00692465
-0.00301497
-0.00707829
-0.00337309
-0.00725039
-0.00374131
-0.00743823
-0.00412025
-0.00764043
-0.00451053
-0.00785554
-0.00491278
-0.0080826
-0.00532736
-0.00832079
-0.00575433
-0.00857055
-0.00619457
-0.00883276
-0.00665179
-0.0091052
-0.00938084
-0.00712675
-0.000155155
-0.00413724
-0.000443008
-0.00615986
-0.000766176
-0.00635817
-0.00109248
-0.00627264
-0.00142002
-0.00625114
-0.00175102
-0.00627959
-0.00208728
-0.00634952
-0.00243016
-0.00644909
-0.0027808
-0.00657402
-0.00314014
-0.00671895
-0.003509
-0.00688153
-0.0038881
-0.00705913
-0.00427811
-0.00725043
-0.00467966
-0.00745399
-0.00509332
-0.00766894
-0.00551944
-0.00789467
-0.00595842
-0.00813156
-0.00641171
-0.00837948
-0.00688152
-0.00863539
-0.00889575
-0.00736661
-0.000172663
-0.00396458
-0.000477113
-0.00585541
-0.000812886
-0.0060224
-0.00115014
-0.00593538
-0.00148816
-0.00591312
-0.00182939
-0.00593836
-0.00217573
-0.00600317
-0.00252864
-0.00609619
-0.00288932
-0.00621334
-0.00325876
-0.00634951
-0.00363782
-0.00650247
-0.00402726
-0.00666969
-0.00442778
-0.00684991
-0.00484004
-0.00704173
-0.0052646
-0.00724438
-0.0057019
-0.00745737
-0.00615255
-0.00768091
-0.00661785
-0.00791418
-0.00709886
-0.00815438
-0.00839999
-0.00759462
-0.000189147
-0.00377543
-0.000509163
-0.00553539
-0.00085677
-0.00567479
-0.00120438
-0.00558777
-0.00155233
-0.00556517
-0.00190323
-0.00558746
-0.00225912
-0.00564729
-0.00262151
-0.00573379
-0.00299168
-0.00584317
-0.00337067
-0.00597053
-0.00375937
-0.00611376
-0.00415859
-0.00627047
-0.00456905
-0.00643945
-0.00499142
-0.00661936
-0.00542626
-0.00680953
-0.0058741
-0.00700953
-0.0063357
-0.00721931
-0.00681208
-0.0074378
-0.00730382
-0.00766264
-0.00789344
-0.00781037
-0.000204577
-0.00357085
-0.000539134
-0.00520084
-0.000897807
-0.00531612
-0.00125516
-0.00523042
-0.00161247
-0.00520787
-0.00197249
-0.00522744
-0.00233735
-0.00528242
-0.00270867
-0.00536248
-0.00308777
-0.00546407
-0.00347574
-0.00558256
-0.00387353
-0.00571598
-0.00428195
-0.00586204
-0.00470177
-0.00601963
-0.00513366
-0.00618747
-0.00557822
-0.00636497
-0.00603604
-0.00655171
-0.00650787
-0.00674748
-0.00699455
-0.00695113
-0.0074965
-0.00716069
-0.00737642
-0.00801352
-0.000218925
-0.00335193
-0.000567008
-0.00485275
-0.00093598
-0.00494715
-0.00130246
-0.00486394
-0.00166853
-0.00484179
-0.00203708
-0.00485889
-0.00241035
-0.00490915
-0.00279002
-0.00498281
-0.00317748
-0.00507661
-0.00357386
-0.00518618
-0.00398014
-0.0053097
-0.00439718
-0.00544501
-0.00482575
-0.00559106
-0.00526655
-0.00574667
-0.00572021
-0.00591131
-0.00618737
-0.00608455
-0.00666874
-0.00626611
-0.00716505
-0.00645482
-0.00767669
-0.00664905
-0.00684943
-0.00820367
-0.000232164
-0.00311976
-0.000592768
-0.00449215
-0.000971274
-0.00456864
-0.00134624
-0.00448898
-0.00172047
-0.00446756
-0.00209695
-0.00448241
-0.00247804
-0.00452805
-0.00286548
-0.00459537
-0.00326071
-0.00468138
-0.0036649
-0.00478198
-0.00407909
-0.00489552
-0.00450413
-0.00501996
-0.00494085
-0.00515434
-0.00538994
-0.00529758
-0.00585208
-0.00544917
-0.00632792
-0.00560872
-0.00681815
-0.00577588
-0.00732343
-0.00594954
-0.00784419
-0.00612829
-0.00631305
-0.00838057
-0.000244267
-0.0028755
-0.000616403
-0.00412001
-0.00100368
-0.00418137
-0.00138647
-0.00410619
-0.00176824
-0.0040858
-0.00215204
-0.0040986
-0.00254035
-0.00413974
-0.00293495
-0.00420077
-0.00333735
-0.00427898
-0.00374876
-0.00437057
-0.00417023
-0.00447404
-0.00460267
-0.00458752
-0.0050469
-0.00471011
-0.00550366
-0.00484082
-0.00597363
-0.0049792
-0.00645748
-0.00512487
-0.00695589
-0.00527747
-0.00746949
-0.00543594
-0.00799873
-0.00559906
-0.00576794
-0.00854384
-0.000255329
-0.00262017
-0.000637917
-0.00373743
-0.00103319
-0.0037861
-0.00142314
-0.00371623
-0.0018118
-0.00369714
-0.0022023
-0.00370809
-0.00259722
-0.00374483
-0.00299837
-0.00379962
-0.00340733
-0.00387002
-0.00382533
-0.00395257
-0.00425347
-0.00404591
-0.00469267
-0.00414832
-0.00514378
-0.004259
-0.00560755
-0.00437705
-0.00608469
-0.00450206
-0.00657588
-0.00463368
-0.00708179
-0.00477156
-0.00760304
-0.00491468
-0.00814009
-0.00506201
-0.00521476
-0.00869328
-0.000265387
-0.00235478
-0.000657309
-0.0033455
-0.00105978
-0.00338363
-0.00145622
-0.0033198
-0.00185111
-0.00330224
-0.00224769
-0.00331152
-0.00264857
-0.00334395
-0.00305566
-0.00339254
-0.00347055
-0.00345512
-0.00389452
-0.0035286
-0.0043287
-0.00361173
-0.00477402
-0.00370299
-0.00523136
-0.00380166
-0.00570148
-0.00390693
-0.00618512
-0.00401843
-0.00668295
-0.00413585
-0.00719567
-0.00425885
-0.00772386
-0.00438649
-0.008268
-0.00451786
-0.00465426
-0.0088285
-0.000274394
-0.00208039
-0.000674576
-0.00294532
-0.00108346
-0.00297474
-0.00148568
-0.00291758
-0.00188616
-0.00290177
-0.00228815
-0.00290953
-0.00269437
-0.00293772
-0.00310675
-0.00298015
-0.00352694
-0.00303493
-0.00395625
-0.00309929
-0.00439581
-0.00317217
-0.00484661
-0.0032522
-0.00530952
-0.00333876
-0.00578532
-0.00343112
-0.00627477
-0.00352898
-0.00677856
-0.00363206
-0.00729737
-0.00374003
-0.00783181
-0.00385205
-0.00838234
-0.00396733
-0.00408715
-0.00894945
-0.000282321
-0.00179807
-0.000689711
-0.00253793
-0.00110422
-0.00256023
-0.00151152
-0.00251028
-0.00191689
-0.00249639
-0.00232364
-0.00250278
-0.00273455
-0.00252681
-0.00315159
-0.00256312
-0.00357644
-0.00261008
-0.00401044
-0.0026653
-0.00445474
-0.00272786
-0.00491034
-0.00279659
-0.00537815
-0.00287096
-0.00585895
-0.00295032
-0.0063535
-0.00303443
-0.00686253
-0.00312303
-0.00738672
-0.00321585
-0.00792665
-0.00331212
-0.00848279
-0.00341119
-0.00351426
-0.00905569
-0.000289147
-0.00150892
-0.000702707
-0.00212437
-0.00112203
-0.00214091
-0.00153371
-0.00209861
-0.0019433
-0.0020868
-0.00235414
-0.00209193
-0.00276909
-0.00211187
-0.00319013
-0.00214208
-0.00361899
-0.00218122
-0.00405701
-0.00222727
-0.0045054
-0.00227948
-0.00496514
-0.00233685
-0.00543716
-0.00239894
-0.00592226
-0.00246521
-0.00642122
-0.00253546
-0.00693477
-0.00260948
-0.00746359
-0.00268703
-0.00800828
-0.00276743
-0.0085693
-0.00285017
-0.00293632
-0.00914723
-0.00029486
-0.00121406
-0.000713559
-0.00170567
-0.00113691
-0.00171756
-0.00155223
-0.00168328
-0.00196535
-0.00167368
-0.00237962
-0.00167767
-0.00279793
-0.00169355
-0.00322232
-0.00171769
-0.00365453
-0.001749
-0.00409593
-0.00178587
-0.00454772
-0.00182769
-0.00501092
-0.00187365
-0.00548646
-0.0019234
-0.00597517
-0.00197651
-0.00647782
-0.00203282
-0.00699515
-0.00209215
-0.00752786
-0.00215432
-0.00807652
-0.00221877
-0.00864162
-0.00228507
-0.00235416
-0.00922377
-0.000299451
-0.000914608
-0.000722263
-0.00128286
-0.00114883
-0.00129099
-0.00156709
-0.00126503
-0.00198303
-0.00125774
-0.00240004
-0.00126065
-0.00282106
-0.00127254
-0.00324813
-0.00129062
-0.00368303
-0.00131411
-0.00412713
-0.00134177
-0.00458165
-0.00137316
-0.00504763
-0.00140767