/*--------------------------------*- C++ -*----------------------------------*\
  =========                 |
  \\      /  F ield         | OpenFOAM: The Open Source CFD Toolbox
   \\    /   O peration     | Website:  https://openfoam.org
    \\  /    A nd           | Version:  7
     \\/     M anipulation  |
\*---------------------------------------------------------------------------*/
FoamFile
{
    version     2.0;
    format      ascii;
    class       volVectorField;
    location    "20";
    object      U;
}
// * * * * * * * * * * * * * * * * * * * * * * * * * * * * * * * * * * * * * //

dimensions      [0 1 -1 0 0 0 0];

internalField   nonuniform List<vector> 
6050
(
(-0.00672634 0.00258904 -2.12536e-20)
(-0.0287886 0.00446656 -2.52157e-20)
(-0.0587103 0.00496476 3.11196e-21)
(-0.0851587 0.0049074 -7.961e-21)
(-0.109377 0.00464577 3.84784e-20)
(-0.130534 0.00435076 1.20843e-20)
(-0.149274 0.00407595 -1.68024e-20)
(-0.0070131 0.00771247 1.08959e-21)
(-0.0290315 0.0133195 -1.59021e-20)
(-0.0585604 0.0148117 -3.30109e-20)
(-0.084484 0.0146398 2.65027e-20)
(-0.108056 0.0138539 1.68372e-20)
(-0.128458 0.012965 2.55888e-21)
(-0.146314 0.0121337 4.85851e-20)
(-0.00757831 0.0126767 -6.03847e-21)
(-0.0295136 0.0219372 -2.27665e-20)
(-0.0582664 0.0244141 3.23754e-20)
(-0.0831483 0.0241277 2.48511e-20)
(-0.105437 0.0228147 -8.33064e-20)
(-0.124337 0.0213202 1.07614e-20)
(-0.140439 0.0199127 -8.16935e-20)
(-0.00840619 0.0173842 3.04222e-20)
(-0.0302276 0.0301701 1.20636e-19)
(-0.0578388 0.0336131 -3.90472e-20)
(-0.0811767 0.0332109 -7.92471e-20)
(-0.101559 0.0313657 -4.55576e-20)
(-0.118228 0.0292479 6.30595e-20)
(-0.131731 0.0272337 7.8563e-20)
(-0.00947457 0.021748 -8.27375e-20)
(-0.0311625 0.0378785 -2.35743e-20)
(-0.057291 0.0422555 6.99948e-20)
(-0.0786022 0.0417328 3.63003e-20)
(-0.0964736 0.0393482 1.76958e-19)
(-0.110204 0.0365849 -1.63284e-19)
(-0.120288 0.0339266 -9.12108e-20)
(-0.0107565 0.0256949 5.38513e-20)
(-0.0323033 0.0449354 4.30233e-21)
(-0.0566368 0.0501963 -1.30339e-19)
(-0.0754605 0.0495417 -6.41231e-20)
(-0.0902347 0.0466083 -2.08928e-19)
(-0.100334 0.0431752 -7.6214e-21)
(-0.1062 0.0398332 -1.0864e-20)
(-0.107943 0.03674 -1.79121e-20)
(-0.012222 0.0291682 -1.37603e-19)
(-0.0336311 0.0512298 -2.41835e-19)
(-0.0558861 0.0573009 8.66577e-20)
(-0.0717816 0.056493 -2.39147e-20)
(-0.0828854 0.0529987 1.88086e-19)
(-0.088669 0.0488718 1.79997e-19)
(-0.0895144 0.0448095 -6.15495e-20)
(-0.0854623 0.0410046 8.51662e-20)
(-0.0138404 0.0321292 1.01988e-19)
(-0.0351216 0.0566693 1.11355e-19)
(-0.0550404 0.0634474 7.65759e-20)
(-0.0675807 0.062451 2.71176e-19)
(-0.0744414 0.0583804 -5.97801e-20)
(-0.0752063 0.0535392 9.01627e-20)
(-0.0701933 0.0487295 1.16783e-19)
(-0.0593619 0.0441837 -1.46439e-19)
(-0.0155815 0.0345581 -5.00194e-20)
(-0.0367444 0.0611812 2.92392e-20)
(-0.0540859 0.0685292 -2.32818e-19)
(-0.0628448 0.0672922 -1.32554e-19)
(-0.0648693 0.0626265 -1.0534e-19)
(-0.059862 0.0570576 -5.8532e-20)
(-0.0480631 0.0514912 -2.85748e-19)
(-0.0293313 0.0462066 5.14767e-20)
(-0.0174181 0.036453 1.91039e-19)
(-0.0384611 0.064714 2.17022e-19)
(-0.0529863 0.0724575 5.65834e-20)
(-0.0575182 0.0709084 2.30905e-19)
(-0.0540608 0.0656267 6.38985e-20)
(-0.0424277 0.0593301 1.42279e-19)
(-0.022755 0.0530282 1.59474e-19)
(0.0052272 0.0470577 1.46609e-19)
(-0.0193264 0.0378285 -1.19679e-19)
(-0.0402222 0.0672371 -1.97107e-19)
(-0.0516726 0.0751646 3.40456e-19)
(-0.0514827 0.0732121 -3.46963e-19)
(-0.0418007 0.0672955 -2.46761e-19)
(-0.0225224 0.0602945 -1.05309e-19)
(0.00635987 0.0533279 -4.58392e-20)
(0.0452721 0.0468056 -2.50913e-19)
(-0.0212864 0.0387131 1.12029e-19)
(-0.0419637 0.0687409 8.73501e-20)
(-0.0500326 0.0766064 -3.9558e-19)
(-0.044536 0.0741429 -1.32348e-19)
(-0.0277303 0.0675826 1.39419e-19)
(0.000460046 0.0599417 -7.33459e-20)
(0.0402324 0.0524601 1.98804e-19)
(0.0921649 0.0456439 1.88145e-19)
(0.156684 0.0396806 -2.45049e-19)
(-0.0232815 0.0391455 -3.59018e-19)
(-0.0436018 0.0692343 -3.43848e-19)
(-0.0478981 0.0767663 2.53309e-19)
(-0.0363671 0.0736755 1.59707e-19)
(-0.0113072 0.066488 8.47183e-20)
(0.0274016 0.0583407 -6.87644e-20)
(0.0801732 0.0506148 -1.23406e-19)
(0.147638 0.0439405 6.17519e-20)
(0.229919 0.0385961 7.6622e-21)
(-0.0252973 0.0391711 5.54931e-20)
(-0.0450261 0.0687418 3.61052e-19)
(-0.0450308 0.075658 -1.12158e-19)
(-0.0265315 0.07183 -1.4344e-20)
(0.00823094 0.064082 -1.10587e-19)
(0.0594934 0.05567 -4.14217e-20)
(0.127832 0.0481477 3.69455e-20)
(0.213618 0.0422841 1.20743e-19)
(0.31604 0.0384138 3.35114e-20)
(-0.0273194 0.0388378 3.13546e-19)
(-0.0460946 0.0673029 -8.95714e-20)
(-0.041107 0.0733276 -2.2741e-19)
(-0.0144267 0.0686821 3.00863e-19)
(0.0318932 0.0605268 2.6448e-19)
(0.0982281 0.0522549 1.90136e-19)
(0.185065 0.0456214 1.73969e-19)
(0.291837 0.041498 -5.95514e-20)
(0.415724 0.0401387 1.09729e-19)
(-0.029329 0.0381897 -9.8944e-20)
(-0.0466321 0.0649761 5.38163e-20)
(-0.035703 0.0698513 1.31745e-19)
(0.000726363 0.0643732 -3.65035e-19)
(0.0609375 0.0561016 -6.16954e-20)
(0.145318 0.0486025 -3.07297e-19)
(0.25364 0.0438224 1.24603e-19)
(0.383185 0.042578 -2.9711e-19)
(0.527707 0.0447434 1.15594e-19)
(0.678064 0.049358 -2.71838e-19)
(-0.0312933 0.0372613 3.12982e-21)
(-0.0464206 0.0618276 2.39269e-19)
(-0.0282941 0.0653436 -6.26212e-20)
(0.0198883 0.0591255 -2.1258e-20)
(0.0968306 0.0512279 6.98538e-20)
(0.202497 0.0454218 2.39666e-19)
(0.334724 0.043717 -1.17334e-19)
(0.486913 0.0465098 -1.05329e-19)
(0.648105 0.0528432 6.92932e-20)
(0.805465 0.0608339 1.5352e-19)
(-0.0331603 0.0360731 -2.64589e-20)
(-0.0451894 0.0579283 -2.32298e-20)
(-0.0182503 0.0599642 2.66484e-19)
(0.0441851 0.0532522 1.36958e-19)
(0.141143 0.0464887 -1.23659e-19)
(0.271174 0.0436066 3.54942e-20)
(0.428227 0.0463067 3.89877e-20)
(0.599978 0.0539686 3.44188e-19)
(0.770526 0.0643787 -2.88757e-19)
(0.925107 0.0747639 -4.08082e-19)
(1.05362 0.08295 -4.00247e-19)
(-0.0348544 0.0346343 2.25426e-20)
(-0.0426164 0.0533606 -3.02463e-19)
(-0.00483644 0.0539097 7.88142e-20)
(0.0748656 0.0471704 -2.6405e-19)
(0.195353 0.0426346 3.34319e-19)
(0.351928 0.0441461 -2.24899e-19)
(0.532162 0.052372 9.11291e-21)
(0.717015 0.0650131 -1.86012e-20)
(0.887311 0.0785188 -2.29027e-19)
(1.02956 0.0897051 5.59463e-19)
(1.138 0.0967667 2.35296e-19)
(-0.0362919 0.0329649 -1.62868e-19)
(-0.0383078 0.0481956 2.08809e-19)
(0.0127766 0.0474177 -1.8167e-19)
(0.113222 0.0414174 -1.98306e-19)
(0.260534 0.0405612 -3.66247e-19)
(0.443947 0.0479398 1.43844e-19)
(0.64243 0.0621806 -9.91867e-20)
(0.831265 0.07897 -2.86815e-19)
(0.991551 0.0939192 2.47858e-19)
(1.11445 0.10422 -1.99381e-19)
(1.2001 0.10901 2.86572e-19)
(1.25424 0.108703 3.28145e-19)
(-0.0373714 0.0310635 8.48018e-19)
(-0.0318209 0.0425022 -2.12268e-19)
(0.0354872 0.040791 1.85474e-19)
(0.160447 0.0366754 2.25437e-19)
(0.336932 0.0412202 3.45411e-19)
(0.544629 0.0555312 -1.8227e-19)
(0.753354 0.0753194 1.06948e-19)
(0.936236 0.0946345 -1.44172e-19)
(1.07882 0.109208 -2.64613e-19)
(1.17902 0.11733 1.36517e-19)
(1.24265 0.119321 -2.43101e-19)
(1.27877 0.116471 -1.53409e-19)
(-0.0379587 0.0289183 -5.95663e-19)
(-0.0226766 0.0363846 2.54077e-19)
(0.0642374 0.0344011 -2.65324e-20)
(0.21743 0.0337455 -1.28981e-19)
(0.423533 0.0453937 -3.84467e-19)
(0.649671 0.0668508 2.72569e-19)
(0.858889 0.0907776 -2.46669e-19)
(1.02722 0.11068 1.08686e-19)
(1.14771 0.123386 1.33553e-19)
(1.2252 0.128637 -5.67446e-19)
(1.26973 0.12782 1.08943e-19)
(1.2919 0.122784 1.94768e-20)
(1.3004 0.115268 2.37807e-19)
(-0.037904 0.026519 -4.3474e-20)
(-0.0103484 0.029949 -3.82314e-19)
(0.0999673 0.0286951 2.09082e-19)
(0.284509 0.0334719 1.37762e-19)
(0.517912 0.0534541 -1.11618e-19)
(0.753968 0.0812223 -3.45218e-19)
(0.954209 0.107333 2.31831e-19)
(1.10216 0.126081 -5.99149e-20)
(1.19938 0.135981 4.33683e-20)
(1.25634 0.138185 3.55758e-19)
(1.28547 0.134848 -1.90256e-19)
(1.29744 0.128063 -1.75697e-19)
(1.29991 0.119454 -1.60863e-19)
(-0.0370302 0.0238507 -1.8412e-20)
(0.00573004 0.0233272 2.23791e-19)
(0.143503 0.0242558 -3.91448e-19)
(0.361102 0.0366214 7.75198e-20)
(0.616348 0.0652382 2.67063e-19)
(0.852619 0.0976203 5.03167e-20)
(1.03635 0.123925 7.98725e-20)
(1.16115 0.140247 1.44343e-19)
(1.23626 0.146925 -1.62693e-19)
(1.27591 0.146239 -1.20662e-19)
(1.29327 0.140785 2.24373e-19)
(1.29814 0.132659 4.15803e-19)
(1.29675 0.123275 4.61618e-20)
(1.29259 0.113403 -1.6362e-19)
(-0.035139 0.0209039 4.46948e-20)
(0.0261592 0.0167024 4.20073e-19)
(0.195411 0.0218065 -1.27339e-19)
(0.445518 0.0436517 3.47674e-19)
(0.714525 0.0800812 -2.83655e-19)
(0.941915 0.114982 3.34852e-19)
(1.1043 0.139821 -2.72214e-19)
(1.20569 0.152961 1.76439e-19)
(1.26122 0.156376 -1.14988e-19)
(1.287 0.153128 1.19656e-20)
(1.29576 0.145969 -1.35039e-19)
(1.29585 0.136837 -2.35514e-19)
(1.29208 0.1269 -1.16566e-19)
(1.28684 0.116748 8.10809e-20)
(1.28119 0.106756 2.75167e-20)
(-0.0320127 0.0176802 -4.04583e-19)
(0.0515581 0.010345 -3.78906e-19)
(0.255797 0.0221445 2.92412e-19)
(0.535031 0.0545427 -1.75694e-20)
(0.808417 0.0970615 4.04495e-19)
(1.01973 0.132455 -2.43543e-19)
(1.15855 0.154635 1.05843e-19)
(1.23798 0.164256 -1.36937e-19)
(1.277 0.164597 2.57007e-19)
(1.29212 0.159171 -1.02561e-19)
(1.29479 0.150669 1.00558e-19)
(1.29177 0.140782 -6.84679e-21)
(1.28656 0.130431 7.89139e-20)
(1.28071 0.120055 -1.03511e-20)
(1.27483 0.109886 1.21614e-19)
(1.26912 0.0998963 2.49347e-20)
(-0.0274132 0.0141965 5.8116e-19)
(0.0825259 0.00466006 -3.67242e-19)
(0.324097 0.0259794 9.29722e-20)
(0.626303 0.0688191 -3.63882e-19)
(0.894943 0.115277 -2.54663e-19)
(1.08537 0.149473 2.76905e-20)
(1.20044 0.168238 4.96448e-20)
(1.26031 0.174294 -1.38989e-19)
(1.28596 0.17187 2.52189e-20)
(1.29313 0.164639 1.96776e-19)
(1.29162 0.155084 -1.45069e-19)
(1.28662 0.144614 -8.72264e-20)
(1.28055 0.133929 -4.81483e-20)
(1.27437 0.123344 -4.33332e-20)
(1.26837 0.113015 -5.57624e-20)
(1.26263 0.102926 1.05224e-19)
(1.25709 0.0934267 -5.15469e-20)
(-0.0210755 0.0104914 -1.3816e-19)
(0.119564 0.000226302 3.40987e-19)
(0.398977 0.0337269 2.01959e-19)
(0.715991 0.0857476 -2.2758e-19)
(0.972202 0.13401 2.80273e-19)
(1.13918 0.165723 -1.65323e-21)
(1.23171 0.180666 2.50686e-19)
(1.27483 0.183299 1.63264e-19)
(1.28997 0.178455 1.44766e-19)
(1.29139 0.169744 -1.39423e-19)
(1.28706 0.15935 9.75243e-20)
(1.28083 0.148403 1.02938e-19)
(1.27425 0.137422 1.72941e-19)
(1.26787 0.12663 -9.15445e-20)
(1.26181 0.116123 -9.73263e-23)
(1.25607 0.105932 -8.85739e-20)
(1.2506 0.0962146 3.42073e-21)
(1.2455 0.0864436 -3.9744e-20)
(-0.0127028 0.00663642 -1.25942e-19)
(0.162959 -0.00221029 -1.37785e-19)
(0.478427 0.0453844 -7.03316e-21)
(0.801275 0.104569 2.1574e-19)
(1.03935 0.152763 -2.09584e-19)
(1.18211 0.181077 -2.27966e-19)
(1.25415 0.192041 8.69202e-20)
(1.28337 0.191498 -1.02368e-19)
(1.29046 0.184573 -6.49711e-20)
(1.2878 0.174643 2.53822e-20)
(1.28162 0.163556 -2.20897e-19)
(1.27461 0.152192 2.03759e-19)
(1.26774 0.140925 -1.97077e-20)
(1.26125 0.129911 -4.55913e-20)
(1.25516 0.119219 4.11931e-20)
(1.24945 0.108874 -6.30447e-20)
(1.24404 0.0989767 -5.63696e-20)
(1.23899 0.0891701 -3.43743e-21)
(1.23391 0.0808572 -4.21154e-20)
(1.23039 0.0702114 7.96493e-20)
(-0.00196693 0.00275333 1.45021e-19)
(0.212656 -0.00182379 2.50209e-19)
(0.560035 0.0605774 -3.34813e-19)
(0.880121 0.124642 -1.2365e-19)
(1.09634 0.171224 -5.58064e-20)
(1.21544 0.195522 3.1934e-19)
(1.26943 0.202528 -8.49331e-20)
(1.2874 0.199103 -5.29448e-20)
(1.28848 0.190396 -7.33862e-20)
(1.28298 0.179443 8.81417e-20)
(1.2756 0.167755 3.26727e-20)
(1.26811 0.155997 -3.82317e-20)
(1.26105 0.144438 -1.02878e-19)
(1.2545 0.133186 1.0513e-20)
(1.24842 0.122287 -4.47515e-20)
(1.24274 0.111773 8.04846e-20)
(1.2374 0.101668 1.9904e-20)
(1.23243 0.0918131 2.09905e-20)
(1.22754 0.0831427 2.8743e-20)
(1.2239 0.0725893 -8.39264e-20)
(0.0114767 -0.000965699 -2.72841e-19)
(0.268167 0.00212971 -1.56604e-20)
(0.641342 0.078732 -5.11634e-20)
(0.951297 0.145487 1.46134e-19)
(1.14365 0.189216 -5.03759e-20)
(1.24049 0.209117 -1.4038e-19)
(1.27901 0.212303 -1.96877e-19)
(1.28809 0.206295 1.37965e-19)
(1.28475 0.196054 -1.62031e-19)
(1.27732 0.184214 8.054e-20)
(1.26916 0.171974 4.74382e-20)
(1.26138 0.159825 -2.50566e-20)
(1.25421 0.147958 5.90933e-20)
(1.24763 0.136447 6.66487e-20)
(1.24157 0.125325 -1.4232e-19)
(1.23594 0.114611 1.07446e-19)
(1.23068 0.104309 9.62878e-21)
(1.22579 0.0943541 1.87078e-20)
(1.22106 0.0853299 9.09521e-20)
(1.21733 0.0748684 2.28002e-20)
(0.0279494 -0.00423822 8.11319e-20)
(0.328562 0.0101406 -3.24798e-19)
(0.720141 0.0992489 3.03144e-19)
(1.01423 0.166767 1.37386e-19)
(1.18203 0.206657 -1.02066e-19)
(1.25856 0.221958 -1.67892e-19)
(1.28413 0.22153 5.70387e-21)
(1.2863 0.213219 -3.29758e-20)
(1.27979 0.201636 2.78856e-19)
(1.27105 0.188995 -1.27238e-19)
(1.2624 0.176222 -1.46363e-20)
(1.25443 0.163673 3.37108e-20)
(1.24721 0.151478 -2.10245e-20)
(1.24063 0.139687 -4.33123e-20)
(1.2346 0.128323 1.22584e-19)
(1.22903 0.117394 -1.01379e-19)
(1.22387 0.106883 1.25893e-20)
(1.21907 0.0967997 -5.79155e-20)
(1.21448 0.087437 -6.16164e-20)
(1.21069 0.0770351 -2.00641e-20)
(0.0476972 -0.00668734 -5.84348e-20)
(0.392555 0.0223503 1.35836e-19)
(0.79466 0.121599 -1.22654e-19)
(1.06881 0.188246 -1.26416e-19)
(1.21241 0.223522 2.09141e-19)
(1.27084 0.234158 2.21408e-19)
(1.28575 0.230355 1.06894e-19)
(1.28267 0.219986 -1.82905e-21)
(1.27392 0.207199 -2.74219e-19)
(1.26432 0.193805 2.31735e-20)
(1.25535 0.180499 8.76743e-21)
(1.24728 0.16753 5.93501e-20)
(1.24004 0.154986 9.76947e-20)
(1.23349 0.142897 -5.13079e-21)
(1.22751 0.131274 -2.24732e-20)
(1.22202 0.120112 9.11257e-20)
(1.21695 0.109392 -5.99259e-20)
(1.21224 0.099148 7.42112e-20)
(1.2078 0.0894587 -6.71012e-21)
(1.20399 0.0791067 7.70148e-20)
(0.0708411 -0.00786174 1.01845e-19)
(0.458658 0.0385776 5.31911e-20)
(0.863619 0.145345 -1.20445e-19)
(1.11526 0.20975 -1.48369e-19)
(1.23571 0.239824 -1.04554e-20)
(1.27833 0.245826 -2.43026e-20)
(1.28466 0.238897 1.19599e-19)
(1.27766 0.22667 8.32945e-20)
(1.26735 0.212773 8.9633e-20)
(1.25719 0.198647 -3.26212e-20)
(1.24803 0.184794 4.31328e-20)
(1.23992 0.171385 -3.97183e-20)
(1.23269 0.158471 -8.10557e-20)
(1.22619 0.146067 9.87026e-21)
(1.22029 0.134169 2.1275e-20)
(1.21489 0.122762 2.54894e-20)
(1.20993 0.111828 3.41578e-20)
(1.20532 0.101398 -2.06569e-20)
(1.20101 0.0914048 4.02105e-20)
(1.19721 0.0810849 -9.30974e-20)
(0.0973394 -0.00728161 1.34444e-19)
(0.525325 0.0584304 -1.20655e-20)
(0.926207 0.170133 1.69195e-19)
(1.154 0.231147 1.02721e-19)
(1.25285 0.255595 4.59257e-20)
(1.28191 0.257068 -1.12311e-19)
(1.28144 0.247247 -1.06457e-19)
(1.27156 0.233319 -2.95989e-20)
(1.2602 0.218371 -7.99594e-21)
(1.24969 0.203513 -7.79068e-21)
(1.24045 0.189094 -1.03958e-19)
(1.23234 0.175221 2.28721e-20)
(1.22516 0.161919 4.15004e-20)
(1.21873 0.149183 1.25576e-21)
(1.21292 0.136998 5.05063e-21)
(1.20763 0.125338 -1.29372e-20)
(1.20279 0.114185 -3.16797e-20)
(1.1983 0.103551 -2.64713e-20)
(1.19412 0.0932741 -5.55995e-20)
(1.19036 0.0829753 8.58682e-21)
(0.126975 -0.00450305 -8.25749e-20)
(0.591085 0.0814307 5.09864e-20)
(0.982 0.195676 -2.09449e-20)
(1.18553 0.252325 4.88175e-21)
(1.26465 0.270875 -1.88778e-19)
(1.28228 0.26797 4.66571e-20)
(1.27652 0.255468 3.00306e-20)
(1.26459 0.239958 -2.07511e-20)
(1.25254 0.223987 7.42143e-20)
(1.24185 0.208386 -1.21405e-21)
(1.23259 0.193378 3.26005e-20)
(1.22453 0.179022 3.82501e-20)
(1.21743 0.165314 -2.62676e-20)
(1.21111 0.152233 -3.11361e-20)
(1.20542 0.139752 -1.69934e-20)
(1.20025 0.127834 -1.83106e-20)
(1.19553 0.116457 1.61362e-20)
(1.19117 0.105605 1.87345e-20)
(1.18712 0.0950705 3.03705e-20)
(1.18342 0.0847804 3.5244e-20)
(0.15937 0.000818979 -3.85078e-20)
(0.654616 0.107096 -7.52023e-21)
(1.03087 0.221743 -6.82295e-20)
(1.21043 0.273191 6.30255e-20)
(1.27186 0.285702 1.35556e-19)
(1.28001 0.2786 7.39132e-20)
(1.27022 0.263599 -3.32492e-20)
(1.25688 0.24659 -1.9411e-20)
(1.24442 0.229606 -4.39838e-20)
(1.23367 0.213243 4.23373e-20)
(1.22445 0.197626 -1.65397e-21)
(1.21649 0.182767 -2.10935e-20)
(1.20951 0.168639 -2.49132e-20)
(1.20331 0.155204 -2.39765e-20)
(1.19776 0.142419 4.99956e-20)
(1.19274 0.130239 -1.70002e-20)
(1.18816 0.118635 -1.85301e-20)
(1.18394 0.107558 -3.20889e-21)
(1.18003 0.0967926 -3.32428e-21)
(1.1764 0.086501 -1.95994e-20)
(0.194016 0.00888971 -3.8261e-21)
(0.714796 0.134973 -5.05594e-20)
(1.07289 0.24814 2.3332e-20)
(1.22929 0.293671 -8.27924e-20)
(1.27511 0.300109 -5.7687e-20)
(1.27554 0.289007 8.58119e-21)
(1.26276 0.271658 -8.53547e-22)
(1.2485 0.253203 3.79075e-21)
(1.23585 0.235204 1.19474e-20)
(1.22513 0.21806 2.11727e-20)
(1.21603 0.201813 -2.88102e-20)
(1.2082 0.186436 1.22981e-20)
(1.20137 0.171877 2.15536e-20)
(1.19534 0.15808 -4.71145e-21)
(1.18995 0.144988 -2.1094e-20)
(1.1851 0.132544 1.19036e-20)
(1.18068 0.120712 1.36956e-20)
(1.1766 0.109409 1.39669e-20)
(1.17284 0.0984399 -7.16123e-21)
(1.16929 0.0881368 2.60768e-21)
(0.23031 0.0197674 4.27367e-20)
(0.770717 0.164636 -5.8928e-20)
(1.10827 0.274695 -8.00697e-21)
(1.24269 0.313702 3.38655e-20)
(1.27496 0.314117 5.44857e-20)
(1.26922 0.299216 -1.66581e-20)
(1.25431 0.279641 -4.75032e-20)
(1.2395 0.259775 4.70628e-20)
(1.22683 0.24075 -1.27083e-20)
(1.21623 0.222805 -1.46485e-20)
(1.2073 0.205912 1.33551e-20)
(1.19966 0.190006 -6.65041e-21)
(1.19303 0.175009 -1.95789e-21)
(1.18719 0.160846 5.24662e-21)
(1.182 0.147445 7.56844e-21)
(1.17733 0.134739 9.75621e-21)
(1.17308 0.122679 -1.75146e-20)
(1.16917 0.111155 -4.38431e-21)
(1.16555 0.100008 -1.09608e-21)
(1.16209 0.0896848 5.36519e-21)
(0.267562 0.0333867 -2.34547e-20)
(0.821681 0.195686 4.09553e-20)
(1.1373 0.301245 -5.06772e-21)
(1.25118 0.333233 -1.08914e-20)
(1.27186 0.327738 -3.54602e-20)
(1.26132 0.309237 1.6582e-20)
(1.24496 0.287531 1.08766e-20)
(1.22991 0.266271 -1.20183e-20)
(1.21736 0.246209 -1.96582e-21)
(1.20697 0.227448 5.72403e-21)
(1.19827 0.209895 -6.21446e-21)
(1.19087 0.193452 3.13379e-21)
(1.18447 0.178014 -6.83305e-21)
(1.17886 0.163484 3.92847e-21)
(1.17389 0.149776 8.15703e-22)
(1.16943 0.136813 -3.62892e-21)
(1.16537 0.124529 2.09492e-21)
(1.16164 0.112792 -3.29403e-21)
(1.15818 0.101492 1.0823e-21)
(1.15482 0.0911406 3.89223e-21)
(0.304996 0.0495898 -1.68456e-20)
(0.8672 0.227738 3.58752e-20)
(1.16028 0.327626 -3.74522e-21)
(1.25525 0.352219 -1.40004e-20)
(1.26619 0.340971 -3.26247e-20)
(1.25202 0.319058 1.63263e-20)
(1.23479 0.295298 1.05854e-20)
(1.21975 0.272654 -9.47618e-21)
(1.20744 0.251543 -1.09038e-22)
(1.19734 0.231954 4.46806e-21)
(1.18893 0.213735 -3.9431e-21)
(1.18182 0.196752 -1.08064e-21)
(1.1757 0.180871 -2.3801e-21)
(1.17036 0.165977 1.43003e-21)
(1.16563 0.151967 9.3086e-22)
(1.1614 0.138753 -3.68325e-21)
(1.15756 0.126251 4.13624e-21)
(1.15403 0.114316 -3.99722e-21)
(1.15073 0.102882 -9.82134e-22)
(1.14748 0.0924966 2.54494e-21)
(0.341848 0.0681273 4.87681e-20)
(0.9069 0.260388 -4.83826e-20)
(1.17746 0.353654 -3.45931e-20)
(1.25532 0.370611 4.47272e-20)
(1.25825 0.353809 5.06652e-20)
(1.24147 0.328662 -2.05592e-20)
(1.22383 0.302909 -3.39446e-20)
(1.20901 0.278886 3.70756e-20)
(1.19706 0.256717 -1.03302e-20)
(1.18733 0.236292 -1.2055e-20)
(1.17928 0.217404 9.44282e-21)
(1.17251 0.199883 -1.8204e-21)
(1.16672 0.183563 -4.43448e-21)
(1.16168 0.16831 1.4196e-21)
(1.15723 0.154005 6.8847e-21)
(1.15326 0.140549 8.11082e-21)
(1.14965 0.127837 -1.02251e-20)
(1.14633 0.115716 -2.71216e-21)
(1.14322 0.104174 -1.78116e-21)
(1.14006 0.0937492 3.84656e-21)
(0.37758 0.0887738 2.17274e-20)
(0.94084 0.293371 -7.69051e-20)
(1.1893 0.379218 2.13642e-20)
(1.25184 0.388374 -5.54428e-20)
(1.2483 0.366221 -6.42524e-20)
(1.22977 0.337998 1.03767e-20)
(1.21211 0.310302 4.09694e-21)
(1.1977 0.284906 -4.13566e-21)
(1.18622 0.261677 1.3739e-20)
(1.17694 0.240418 -5.47521e-22)
(1.16933 0.220864 -8.9586e-21)
(1.16295 0.20281 1.81123e-21)
(1.15753 0.18606 1.75559e-20)
(1.15283 0.170457 -1.51031e-21)
(1.1487 0.155871 -6.04681e-21)
(1.145 0.142185 -3.53192e-21)
(1.14164 0.129273 1.54761e-20)
(1.13856 0.116972 6.69906e-21)
(1.13567 0.105363 -3.96671e-21)
(1.13257 0.0949049 -4.71412e-21)
(0.411573 0.111285 -4.82262e-20)
(0.968979 0.326398 -9.20247e-21)
(1.19611 0.404156 -6.66598e-20)
(1.24513 0.405448 7.42068e-20)
(1.23654 0.378168 9.1702e-20)
(1.217 0.347017 3.54288e-20)
(1.19966 0.317424 -6.44092e-21)
(1.18582 0.290668 7.29379e-21)
(1.17491 0.266383 -3.71748e-20)
(1.16617 0.244296 2.66764e-20)
(1.15906 0.224086 -8.07379e-21)
(1.15314 0.205511 -6.19526e-21)
(1.14814 0.188343 -1.69429e-20)
(1.14382 0.172401 -5.16349e-21)
(1.14003 0.157548 8.05988e-21)
(1.13664 0.14365 -5.30547e-21)
(1.13356 0.13055 -6.99437e-21)
(1.13075 0.118076 2.02721e-21)
(1.12805 0.106442 -1.25754e-21)
(1.12506 0.0959586 -1.08223e-20)
(0.443252 0.135396 -7.12712e-20)
(0.991383 0.359194 1.34618e-20)
(1.19822 0.428321 3.22408e-20)
(1.23552 0.421773 -3.50601e-20)
(1.22315 0.389598 -1.25642e-19)
(1.20323 0.355659 1.04004e-20)
(1.18649 0.324212 4.49072e-20)
(1.17337 0.296113 -1.6575e-20)
(1.16315 0.270786 3.56488e-20)
(1.15504 0.247885 -9.50685e-21)
(1.1485 0.227034 2.37171e-20)
(1.1431 0.207952 3.23768e-21)
(1.13856 0.190385 4.04111e-22)
(1.13466 0.174123 -1.41447e-20)
(1.13125 0.159019 -6.65555e-21)
(1.12819 0.144924 -3.07448e-21)
(1.12543 0.131648 3.00659e-21)
(1.1229 0.119042 4.93423e-21)
(1.12036 0.107398 8.85122e-21)
(1.11753 0.0968819 1.53369e-20)
(0.472119 0.160824 9.08931e-20)
(1.00817 0.391498 3.32524e-20)
(1.19596 0.451565 1.09384e-19)
(1.22325 0.437278 5.28132e-20)
(1.20826 0.400451 4.1278e-20)
(1.18849 0.363855 -5.32613e-20)
(1.1726 0.330603 -4.72692e-20)
(1.16035 0.301185 -1.58536e-20)
(1.15094 0.274839 -8.8318e-21)
(1.14356 0.251145 -1.91446e-20)
(1.13766 0.229678 -2.93091e-20)
(1.13283 0.210108 -5.62245e-22)
(1.1288 0.192161 1.3653e-20)
(1.12536 0.175605 2.6543e-20)
(1.12235 0.160269 -2.64818e-20)
(1.11966 0.145992 5.76113e-21)
(1.11723 0.132559 -7.57846e-21)
(1.115 0.11985 -3.08472e-21)
(1.11266 0.108219 -1.73461e-20)
(1.11 0.0976705 -3.59439e-21)
(0.497756 0.187269 1.99815e-19)
(1.01951 0.42306 -1.85263e-20)
(1.18963 0.473742 -8.57823e-20)
(1.20858 0.451889 -1.16417e-19)
(1.19196 0.410657 -2.49096e-20)
(1.17282 0.371533 -3.60833e-23)
(1.15803 0.336528 6.36304e-20)
(1.14681 0.305824 5.06744e-20)
(1.13833 0.278494 3.36091e-20)
(1.13174 0.254036 -1.36751e-20)
(1.12654 0.231981 1.05619e-20)
(1.12234 0.211955 -9.65235e-21)
(1.11887 0.19365 -1.7808e-20)
(1.11593 0.176821 6.76738e-21)
(1.11336 0.161278 -2.22907e-21)
(1.11106 0.146839 6.15973e-21)
(1.109 0.133271 8.87731e-21)
(1.10707 0.120491 -1.98969e-21)
(1.10495 0.108891 1.12508e-20)
(1.10248 0.0983119 -8.35663e-21)
(0.519828 0.214406 -1.2589e-19)
(1.02558 0.453632 1.47864e-19)
(1.17953 0.494711 -6.46246e-20)
(1.19168 0.465522 -3.02926e-20)
(1.17435 0.420131 9.43183e-20)
(1.15629 0.378613 9.01994e-20)
(1.14282 0.34192 3.00145e-20)
(1.13276 0.309973 -2.32951e-20)
(1.1253 0.2817 -4.86721e-20)
(1.11958 0.256526 -7.72061e-22)
(1.11517 0.233912 5.74441e-21)
(1.11165 0.21346 1.26297e-20)
(1.10879 0.194827 1.1571e-20)
(1.10638 0.177754 -4.00801e-21)
(1.10428 0.162028 7.96021e-21)
(1.10241 0.14745 2.7681e-21)
(1.10073 0.133773 -4.37172e-21)
(1.09913 0.12095 6.82561e-21)
(1.09724 0.1094 6.30194e-21)
(1.095 0.0987988 3.60045e-21)
(0.538085 0.241895 2.02572e-20)
(1.0266 0.482969 -2.63565e-19)
(1.16594 0.514332 1.61608e-19)
(1.17275 0.478092 9.80253e-20)
(1.15552 0.428783 -9.8053e-21)
(1.13896 0.385012 -7.77063e-20)
(1.12698 0.346708 -6.85463e-21)
(1.11822 0.313583 -1.62983e-20)
(1.11186 0.284416 5.00487e-20)
(1.10712 0.258567 -3.85289e-21)
(1.10355 0.235437 -8.70294e-21)
(1.10077 0.214595 2.56631e-21)
(1.09856 0.19567 -2.99709e-21)
(1.09673 0.178381 -2.01502e-21)
(1.09514 0.162501 9.14131e-21)
(1.09372 0.14781 -1.33083e-20)
(1.09245 0.134052 1.35581e-21)
(1.0912 0.121215 -3.34394e-21)
(1.08956 0.109732 -2.97987e-21)
(1.08756 0.099121 4.16297e-22)
(0.552357 0.269383 -2.52963e-19)
(1.0228 0.510826 2.5376e-20)
(1.14912 0.532458 -5.48457e-20)
(1.15196 0.489511 6.98677e-20)
(1.1356 0.436528 -1.33404e-20)
(1.12086 0.39064 -5.36616e-20)
(1.11054 0.350836 -5.29252e-20)
(1.10319 0.316594 1.02876e-20)
(1.09806 0.286593 -1.09491e-20)
(1.09437 0.260123 9.72637e-21)
(1.09171 0.236524 1.21936e-20)
(1.08974 0.215334 -8.30062e-21)
(1.08822 0.196153 -1.21181e-21)
(1.087 0.178683 5.69311e-21)
(1.08595 0.16268 -7.85364e-21)
(1.08501 0.147904 2.10917e-21)
(1.08417 0.134095 2.82885e-21)
(1.08328 0.121271 -6.29611e-22)
(1.08192 0.109875 2.66774e-22)
(1.0802 0.0992697 -8.39948e-22)
(0.562552 0.296512 1.14785e-19)
(1.01442 0.536965 2.38602e-19)
(1.12927 0.548927 -2.31464e-19)
(1.12953 0.499683 1.29427e-20)
(1.1147 0.44329 -5.30051e-20)
(1.10199 0.395417 1.04453e-19)
(1.09353 0.354225 -2.93847e-20)
(1.08773 0.318951 -2.96721e-21)
(1.08392 0.288187 -8.3431e-21)
(1.08136 0.261155 9.3514e-21)
(1.07969 0.237141 -2.35108e-21)
(1.07856 0.215651 -2.98376e-21)
(1.07779 0.196256 8.09315e-22)
(1.07721 0.178642 -2.38475e-21)
(1.07673 0.162548 2.50187e-21)
(1.07629 0.14772 -4.5413e-21)
(1.0759 0.133891 1.16121e-22)
(1.07539 0.121107 -2.47224e-21)
(1.07434 0.109813 -2.63289e-21)
(1.07292 0.0992364 2.79997e-21)
(0.568657 0.322929 -8.93184e-20)
(1.00175 0.561179 -8.44965e-20)
(1.1066 0.563549 3.77113e-20)
(1.10565 0.508503 7.57716e-21)
(1.09284 0.448985 -6.37067e-21)
(1.08243 0.399274 -6.90587e-20)
(1.07599 0.35681 2.3858e-20)
(1.07187 0.320602 -1.80579e-20)
(1.06948 0.289154 2.65992e-21)
(1.06813 0.261629 -4.8435e-21)
(1.06749 0.237259 2.43377e-21)
(1.06726 0.21552 -3.6216e-21)
(1.06728 0.195957 3.80586e-21)
(1.06739 0.178239 1.86212e-21)
(1.06751 0.16209 -6.96912e-22)
(1.0676 0.147243 -2.52696e-21)
(1.06767 0.133428 3.03317e-21)
(1.06756 0.120709 2.83351e-21)
(1.06684 0.109536 5.44133e-21)
(1.06576 0.0990146 3.57497e-21)
(0.570732 0.34828 -2.0778e-19)
(0.985122 0.583303 2.98168e-19)
(1.08141 0.576203 9.63215e-20)
(1.08038 0.515796 -6.6676e-20)
(1.07011 0.453533 4.92887e-20)
(1.06224 0.402136 1.38459e-20)
(1.05798 0.358527 1.3881e-20)
(1.05565 0.321495 -1.8555e-21)
(1.05478 0.289453 2.03423e-21)
(1.0547 0.261511 -1.57629e-21)
(1.05517 0.23685 -2.96033e-21)
(1.05588 0.214917 -5.08375e-21)
(1.05672 0.195235 -2.10563e-20)
(1.05755 0.177456 8.47854e-21)
(1.05829 0.16129 3.99158e-21)
(1.05894 0.14646 6.49182e-21)
(1.0595 0.132693 -8.27146e-21)
(1.0598 0.120065 3.55601e-22)
(1.05943 0.10903 7.52675e-21)
(1.05872 0.0986004 2.21133e-20)
(0.568906 0.372205 4.66674e-19)
(0.964844 0.603126 -2.35791e-19)
(1.05396 0.586809 2.84426e-20)
(1.05382 0.521422 -8.13392e-20)
(1.04659 0.456812 -2.46235e-20)
(1.04149 0.403931 -1.25084e-21)
(1.03956 0.359317 -4.15244e-21)
(1.03912 0.321582 -1.74428e-21)
(1.03985 0.289046 -7.30785e-23)
(1.04112 0.260769 -2.99479e-20)
(1.04274 0.235888 1.71511e-20)
(1.04444 0.213822 2.85755e-21)
(1.04614 0.194072 9.63793e-21)
(1.04771 0.176277 -1.40397e-20)
(1.04911 0.160133 1.77056e-20)
(1.05033 0.145358 6.11414e-21)
(1.0514 0.131674 -8.72938e-21)
(1.05213 0.11916 -1.64786e-21)
(1.05213 0.108279 -2.72464e-20)
(1.05183 0.0979897 -1.24551e-20)
(0.563373 0.394383 -2.25076e-19)
(0.940961 0.620295 -2.36499e-19)
(1.02461 0.595331 7.24902e-20)
(1.02619 0.525316 4.18558e-20)
(1.02239 0.458733 3.22561e-20)
(1.02025 0.404591 3.32642e-21)
(1.02078 0.359128 -1.55521e-20)
(1.02235 0.320821 2.66387e-20)
(1.02475 0.287897 -4.51676e-20)
(1.02743 0.259374 1.20528e-20)
(1.03024 0.234348 -1.6465e-20)
(1.03298 0.212214 5.9335e-21)
(1.03556 0.192452 -3.24436e-20)
(1.03791 0.174688 1.28578e-20)
(1.03999 0.158608 -2.61305e-20)
(1.04181 0.143928 1.1611e-20)
(1.04338 0.130362 5.29758e-21)
(1.04455 0.117977 1.60205e-20)
(1.04496 0.107257 2.43324e-20)
(1.04509 0.0971704 -3.23997e-21)
(0.554368 0.414644 7.58425e-20)
(0.913591 0.634446 2.35605e-19)
(0.993677 0.601628 -5.77913e-20)
(0.997659 0.527453 4.91956e-20)
(0.997613 0.459215 -8.15853e-21)
(0.99861 0.404051 -2.40752e-20)
(1.00172 0.35791 3.98064e-20)
(1.00538 0.31917 -3.06128e-20)
(1.00953 0.285974 3.21684e-21)
(1.01367 0.257301 8.47395e-21)
(1.01772 0.23221 1.35284e-23)
(1.02152 0.210075 5.9107e-20)
(1.02502 0.190359 2.94627e-20)
(1.02817 0.172675 -1.46032e-20)
(1.03095 0.156704 1.65858e-20)
(1.03338 0.14216 -1.15204e-20)
(1.03548 0.128751 -5.51671e-22)
(1.03709 0.116507 -6.0982e-20)
(1.03792 0.105938 -2.73356e-20)
(1.03854 0.0961167 -2.16678e-20)
(0.542102 0.432849 1.63129e-20)
(0.883187 0.645458 6.92038e-20)
(0.96133 0.605458 -4.91477e-20)
(0.968377 0.527767 -6.29357e-21)
(0.972375 0.458191 -2.71537e-20)
(0.976657 0.402253 -1.45718e-20)
(0.982453 0.355619 -2.62652e-20)
(0.988278 0.316595 -1.54207e-20)
(0.994237 0.283249 -1.51939e-20)
(0.999879 0.254527 3.20177e-20)
(1.00522 0.229455 -2.96442e-20)
(1.0101 0.20739 -9.18315e-20)
(1.01455 0.18778 -2.15244e-20)
(1.01852 0.170228 -1.02108e-20)
(1.02203 0.15441 3.1278e-20)
(1.02508 0.140048 -5.19213e-21)
(1.02769 0.12684 6.27628e-21)
(1.02976 0.114754 -1.18238e-20)
(1.03107 0.104319 4.11909e-20)
(1.0322 0.0948242 -2.64368e-20)
(0.526579 0.448641 3.6331e-20)
(0.850478 0.653457 -1.33847e-19)
(0.927831 0.606674 2.04702e-20)
(0.938508 0.52618 -2.21763e-20)
(0.946791 0.455604 1.22301e-20)
(0.954483 0.399147 8.31136e-20)
(0.963054 0.352218 -7.04683e-20)
(0.971114 0.313067 -1.75793e-20)
(0.97893 0.2797 4.69041e-21)
(0.986116 0.251034 -1.15319e-19)
(0.992763 0.226068 2.01865e-20)
(0.998763 0.204147 7.30086e-20)
(1.00417 0.184705 7.12733e-20)
(1.00898 0.167337 1.75468e-20)
(1.01323 0.151717 -2.61543e-20)
(1.01691 0.137579 -1.00711e-20)
(1.02005 0.124616 3.0515e-20)
(1.02261 0.112715 3.11459e-21)
(1.02451 0.102427 5.036e-21)
(1.02626 0.0933989 4.47059e-20)
(0.507897 0.461466 -1.70126e-19)
(0.815845 0.658276 5.21972e-20)
(0.893387 0.605262 1.09843e-20)
(0.908217 0.522621 2.07732e-21)
(0.920983 0.451404 6.37543e-20)
(0.932186 0.394691 -3.83316e-20)
(0.943608 0.347674 5.03969e-20)
(0.953955 0.308561 -3.3685e-20)
(0.963668 0.275306 -5.51907e-20)
(0.972427 0.246805 1.77313e-19)
(0.980406 0.222037 4.38913e-21)
(0.987538 0.200336 -1.03126e-20)
(0.993926 0.181125 -3.19181e-20)
(0.999587 0.163994 -2.69662e-21)
(1.00458 0.148617 -2.18109e-21)
(1.00889 0.134741 1.99861e-20)
(1.01256 0.122054 -1.68441e-20)
(1.0157 0.110351 -1.56233e-20)
(1.01841 0.100209 3.3608e-21)