/*--------------------------------*- C++ -*----------------------------------*\
  =========                 |
  \\      /  F ield         | OpenFOAM: The Open Source CFD Toolbox
   \\    /   O peration     | Website:  https://openfoam.org
    \\  /    A nd           | Version:  7
     \\/     M anipulation  |
\*---------------------------------------------------------------------------*/
FoamFile
{
    version     2.0;
    format      ascii;
    class       volScalarField;
    location    "20";
    object      p;
}
// * * * * * * * * * * * * * * * * * * * * * * * * * * * * * * * * * * * * * //

dimensions      [0 2 -2 0 0 0 0];

internalField   nonuniform List<scalar> 
12100
(
-0.306319
-0.31065
-0.311593
-0.313289
-0.314679
-0.31601
-0.317139
-0.31804
-0.318681
-0.319041
-0.319105
-0.318854
-0.318267
-0.317315
-0.315954
-0.314126
-0.311814
-0.308872
-0.305392
-0.30096
-0.306608
-0.310875
-0.311803
-0.313482
-0.314863
-0.316187
-0.317313
-0.318212
-0.318853
-0.319216
-0.319286
-0.319043
-0.318467
-0.317533
-0.316194
-0.31438
-0.312115
-0.309127
-0.305721
-0.300901
-0.307178
-0.311318
-0.312217
-0.313861
-0.315221
-0.316531
-0.317646
-0.31854
-0.31918
-0.319546
-0.319623
-0.319393
-0.318835
-0.317926
-0.316628
-0.314821
-0.312668
-0.309529
-0.306385
-0.300754
-0.308015
-0.311968
-0.31282
-0.314408
-0.315734
-0.317017
-0.318114
-0.318996
-0.319628
-0.319992
-0.320072
-0.319852
-0.319309
-0.31842
-0.317176
-0.315323
-0.313407
-0.309858
-0.307372
-0.300468
-0.309097
-0.312808
-0.313592
-0.3151
-0.316373
-0.317614
-0.31868
-0.319537
-0.320152
-0.320503
-0.320576
-0.320354
-0.319813
-0.318922
-0.317751
-0.315725
-0.314255
-0.30986
-0.308576
-0.300173
-0.310401
-0.313817
-0.314508
-0.315907
-0.317104
-0.318284
-0.319301
-0.320118
-0.320698
-0.321021
-0.321069
-0.320827
-0.320269
-0.319332
-0.318273
-0.315918
-0.314887
-0.30995
-0.309067
-0.300026
-0.311899
-0.314971
-0.31554
-0.316797
-0.317891
-0.318984
-0.319929
-0.320685
-0.321211
-0.321484
-0.321486
-0.321198
-0.320602
-0.319579
-0.318554
-0.31592
-0.315193
-0.309573
-0.309126
-0.299771
-0.313561
-0.316248
-0.31666
-0.317735
-0.318693
-0.31967
-0.320518
-0.321188
-0.321637
-0.321836
-0.321767
-0.321403
-0.320735
-0.319587
-0.318552
-0.315565
-0.314997
-0.308816
-0.308321
-0.29925
-0.315361
-0.317624
-0.31784
-0.31869
-0.319473
-0.320302
-0.321023
-0.321581
-0.321927
-0.322026
-0.321859
-0.321387
-0.320602
-0.319281
-0.318119
-0.314845
-0.313972
-0.307695
-0.306338
-0.297994
-0.317275
-0.319078
-0.319054
-0.31963
-0.320198
-0.320842
-0.321407
-0.321824
-0.322042
-0.322012
-0.321714
-0.32109
-0.320128
-0.318591
-0.317099
-0.313665
-0.311921
-0.305944
-0.303138
-0.295411
-0.319283
-0.320594
-0.320282
-0.320533
-0.320841
-0.321262
-0.321639
-0.321889
-0.321951
-0.32176
-0.321289
-0.320455
-0.319231
-0.317391
-0.315366
-0.311758
-0.308837
-0.303131
-0.298803
-0.291238
-0.321374
-0.32216
-0.321509
-0.32138
-0.321382
-0.321544
-0.321702
-0.321757
-0.321632
-0.321238
-0.320537
-0.319403
-0.317811
-0.315512
-0.312813
-0.308815
-0.304762
-0.298987
-0.293418
-0.285598
-0.323542
-0.32377
-0.322727
-0.322165
-0.321815
-0.321681
-0.32159
-0.321419
-0.321067
-0.320415
-0.319395
-0.31784
-0.315731
-0.312791
-0.309317
-0.304677
-0.299701
-0.293552
-0.28714
-0.278968
-0.325793
-0.325427
-0.323937
-0.322887
-0.322143
-0.321678
-0.321306
-0.320872
-0.320238
-0.319244
-0.317779
-0.315653
-0.312845
-0.309118
-0.304788
-0.299397
-0.293714
-0.287106
-0.280242
-0.271852
-0.328141
-0.327137
-0.325151
-0.32356
-0.322382
-0.321553
-0.320864
-0.320117
-0.319118
-0.317662
-0.315588
-0.312729
-0.309053
-0.304465
-0.29926
-0.293178
-0.286984
-0.280018
-0.273036
-0.264588
-0.330611
-0.328909
-0.326394
-0.324208
-0.32256
-0.321331
-0.320278
-0.319142
-0.317662
-0.315588
-0.312728
-0.308988
-0.304349
-0.298906
-0.292896
-0.286289
-0.279748
-0.272595
-0.265753
-0.25735
-0.333242
-0.330774
-0.327686
-0.324863
-0.322709
-0.321039
-0.319557
-0.317927
-0.315813
-0.312943
-0.309142
-0.304421
-0.298822
-0.292605
-0.285933
-0.278986
-0.272195
-0.265021
-0.258466
-0.250189
-0.336079
-0.332761
-0.329064
-0.325568
-0.322872
-0.320704
-0.3187
-0.316433
-0.313508
-0.309671
-0.304825
-0.299103
-0.292635
-0.285768
-0.278602
-0.271453
-0.26445
-0.257378
-0.251074
-0.243042
-0.339174
-0.334904
-0.330574
-0.326366
-0.323083
-0.32034
-0.317689
-0.314613
-0.310696
-0.305761
-0.299838
-0.29317
-0.285967
-0.278584
-0.271082
-0.263805
-0.256624
-0.249697
-0.24335
-0.235776
-0.342554
-0.337269
-0.332262
-0.327298
-0.323363
-0.319946
-0.316494
-0.312419
-0.307352
-0.301248
-0.294283
-0.286775
-0.278979
-0.271203
-0.263486
-0.25611
-0.24883
-0.242003
-0.235249
-0.22827
-0.3463
-0.339887
-0.334167
-0.328388
-0.323719
-0.319507
-0.315073
-0.309811
-0.303482
-0.296205
-0.288279
-0.280058
-0.271794
-0.263727
-0.25587
-0.248417
-0.241122
-0.234326
-0.227308
-0.220569
-0.350456
-0.342806
-0.336353
-0.329678
-0.324184
-0.319027
-0.313398
-0.306781
-0.29913
-0.290724
-0.281941
-0.273126
-0.264495
-0.25621
-0.248257
-0.240758
-0.233483
-0.226656
-0.219774
-0.213391
-0.355088
-0.346077
-0.338845
-0.33117
-0.324753
-0.318459
-0.311416
-0.303318
-0.294341
-0.284888
-0.275359
-0.266053
-0.257129
-0.248677
-0.240659
-0.233139
-0.225891
-0.219138
-0.212406
-0.206319
-0.360255
-0.349748
-0.341656
-0.332875
-0.325416
-0.317744
-0.309084
-0.299436
-0.289177
-0.278774
-0.2686
-0.258883
-0.24972
-0.241135
-0.233073
-0.225547
-0.218363
-0.211698
-0.205133
-0.199402
-0.366008
-0.353861
-0.344786
-0.33482
-0.326134
-0.31681
-0.306374
-0.29516
-0.283692
-0.272437
-0.261703
-0.251638
-0.242271
-0.233579
-0.225487
-0.217973
-0.210867
-0.204318
-0.197963
-0.192479
-0.372393
-0.358438
-0.348234
-0.337029
-0.32683
-0.315585
-0.303271
-0.29052
-0.277929
-0.265913
-0.254689
-0.244321
-0.234779
-0.225997
-0.217887
-0.210398
-0.203386
-0.196964
-0.190798
-0.185554
-0.379452
-0.363476
-0.352023
-0.339487
-0.327399
-0.314006
-0.29977
-0.285543
-0.27192
-0.259221
-0.247563
-0.236925
-0.227229
-0.218373
-0.210256
-0.202804
-0.195894
-0.1896
-0.18363
-0.178588
-0.387213
-0.368939
-0.356206
-0.342109
-0.32773
-0.312023
-0.29587
-0.280245
-0.265678
-0.252366
-0.240316
-0.229439
-0.219606
-0.21069
-0.202576
-0.195171
-0.188369
-0.182204
-0.17642
-0.171564
-0.395683
-0.374769
-0.360841
-0.344751
-0.327717
-0.309594
-0.29157
-0.274637
-0.259206
-0.245338
-0.232937
-0.221844
-0.211893
-0.202931
-0.19483
-0.187482
-0.180792
-0.174753
-0.169152
-0.164466
-0.404826
-0.380908
-0.365932
-0.347247
-0.327262
-0.306687
-0.286863
-0.268715
-0.252497
-0.238125
-0.225406
-0.214122
-0.204071
-0.195079
-0.187002
-0.179722
-0.173145
-0.167232
-0.16181
-0.157279
-0.414549
-0.387318
-0.371368
-0.349438
-0.326278
-0.303267
-0.281739
-0.262469
-0.245534
-0.230707
-0.217704
-0.206254
-0.196123
-0.187117
-0.179076
-0.171874
-0.165413
-0.159627
-0.154381
-0.149993
-0.424684
-0.393987
-0.376907
-0.351178
-0.324689
-0.299302
-0.276179
-0.255882
-0.238296
-0.223061
-0.209809
-0.198221
-0.188033
-0.179031
-0.171041
-0.163927
-0.157585
-0.151928
-0.146855
-0.1426
-0.435002
-0.40091
-0.382218
-0.352325
-0.322426
-0.294755
-0.270159
-0.24893
-0.230759
-0.215164
-0.2017
-0.190004
-0.179785
-0.170807
-0.162884
-0.15587
-0.149652
-0.144127
-0.139226
-0.135093
-0.445232
-0.408058
-0.386947
-0.35273
-0.319429
-0.289591
-0.26365
-0.241585
-0.222898
-0.206992
-0.193357
-0.181588
-0.171364
-0.162433
-0.154595
-0.147694
-0.141605
-0.136221
-0.131489
-0.127469
-0.455092
-0.415338
-0.39078
-0.352243
-0.315639
-0.283774
-0.256619
-0.233817
-0.214684
-0.198523
-0.184762
-0.172955
-0.162758
-0.153899
-0.146166
-0.139392
-0.133442
-0.128205
-0.123641
-0.119729
-0.464313
-0.422564
-0.393473
-0.350722
-0.310997
-0.277266
-0.249033
-0.225596
-0.206093
-0.189736
-0.175897
-0.164094
-0.153957
-0.145198
-0.137591
-0.130959
-0.125159
-0.12008
-0.115682
-0.111873
-0.472658
-0.429453
-0.394856
-0.348043
-0.305443
-0.270031
-0.240859
-0.216891
-0.197099
-0.18061
-0.166746
-0.154992
-0.144951
-0.136321
-0.128865
-0.122394
-0.116756
-0.111845
-0.107614
-0.103907
-0.479921
-0.43564
-0.394808
-0.344106
-0.29892
-0.262031
-0.232065
-0.207677
-0.187681
-0.17113
-0.157299
-0.14564
-0.135735
-0.127267
-0.119986
-0.113695
-0.108235
-0.103505
-0.0994404
-0.095836
-0.485923
-0.440714
-0.393234
-0.33884
-0.29138
-0.253234
-0.222624
-0.19793
-0.177821
-0.161283
-0.147545
-0.136031
-0.126305
-0.118031
-0.110953
-0.104864
-0.0996
-0.0950619
-0.0911657
-0.0876711
-0.490477
-0.444255
-0.390042
-0.332195
-0.282785
-0.243612
-0.212514
-0.187633
-0.167507
-0.151059
-0.137478
-0.126163
-0.116657
-0.108615
-0.101769
-0.0959034
-0.0908548
-0.0865228
-0.0827977
-0.0794238
-0.493383
-0.445885
-0.385129
-0.324126
-0.273092
-0.23313
-0.201708
-0.176766
-0.156723
-0.140447
-0.127093
-0.116031
-0.106791
-0.099018
-0.0924343
-0.0868174
-0.0820044
-0.0778952
-0.0743504
-0.0711029
-0.494657
-0.445409
-0.378429
-0.314598
-0.262262
-0.221755
-0.190182
-0.16531
-0.145458
-0.129441
-0.116382
-0.105633
-0.0967069
-0.0892425
-0.082954
-0.0776114
-0.0730546
-0.0691883
-0.0658458
-0.0627118
-0.494085
-0.442562
-0.369842
-0.303578
-0.250273
-0.209469
-0.177924
-0.15326
-0.133706
-0.118037
-0.105348
-0.0949717
-0.0864101
-0.079295
-0.0733354
-0.0682955
-0.0640175
-0.0604123
-0.0572942
-0.0542639
-0.491485
-0.437189
-0.359312
-0.29105
-0.237111
-0.196259
-0.164924
-0.140609
-0.121465
-0.106237
-0.0939927
-0.0840506
-0.0759117
-0.0691856
-0.0635882
-0.0588817
-0.0549133
-0.0515948
-0.0486559
-0.0458043
-0.48668
-0.429185
-0.346791
-0.277003
-0.222769
-0.182117
-0.151176
-0.127355
-0.10874
-0.0940486
-0.0823293
-0.0728803
-0.0652243
-0.0589278
-0.0537229
-0.0493765
-0.0457488
-0.0427251
-0.0399793
-0.0373348
-0.479483
-0.418482
-0.332256
-0.261431
-0.207243
-0.167038
-0.136679
-0.113501
-0.0955495
-0.0814894
-0.0703767
-0.0614874
-0.0543407
-0.0485239
-0.043749
-0.0397951
-0.0365323
-0.033816
-0.031287
-0.0288679
-0.469706
-0.405043
-0.315696
-0.244336
-0.19053
-0.151028
-0.121451
-0.0990693
-0.0819231
-0.0685773
-0.058131
-0.0498678
-0.0432843
-0.0379874
-0.0336799
-0.0301506
-0.027276
-0.0248839
-0.0225933
-0.0204204
-0.457168
-0.388855
-0.297122
-0.225724
-0.172632
-0.134121
-0.105536
-0.0841132
-0.0678344
-0.0553144
-0.0456143
-0.038037
-0.0320716
-0.0273347
-0.0235306
-0.0204568
-0.0179941
-0.0159448
-0.0139119
-0.0120099
-0.44171
-0.369923
-0.276557
-0.205614
-0.153585
-0.116376
-0.0889461
-0.0686116
-0.053324
-0.0417218
-0.0328469
-0.0260153
-0.0207197
-0.0165834
-0.0133173
-0.010729
-0.00870175
-0.00701385
-0.0052577
-0.00365288
-0.423205
-0.348267
-0.254022
-0.184065
-0.133498
-0.0977736
-0.0716964
-0.052597
-0.0384217
-0.0278265
-0.0198518
-0.0138249
-0.00924775
-0.00575204
-0.00305773
-0.000983712
0.000585243
0.0018935
0.0033527
0.00463387
-0.401565
-0.32394
-0.229515
-0.161194
-0.112395
-0.0783513
-0.0538249
-0.036107
-0.0231596
-0.0136587
-0.00665497
-0.0014897
0.0023225
0.00513931
0.00722925
0.00876145
0.00985033
0.0107604
0.0119009
0.0128332
-0.376756
-0.297077
-0.20305
-0.13707
-0.090298
-0.0581712
-0.0353784
-0.0191839
-0.00757374
0.000748586
0.00671434
0.0109639
0.0139675
0.0160692
0.0175239
0.0184883
0.0190763
0.0195687
0.0203665
0.0209266
-0.34879
-0.267892
-0.17483
-0.111562
-0.0672698
-0.0372999
-0.0164114
-0.00187471
0.00829516
0.0153592
0.020224
0.0235076
0.025662
0.0270149
0.0278055
0.0281782
0.0282463
0.0283009
0.0287294
0.0288948
-0.317735
-0.236433
-0.144933
-0.0848369
-0.0433881
-0.015809
0.00301469
0.0157686
0.0244021
0.0301336
0.0338393
0.0361106
0.0373787
0.0379519
0.038052
0.037812
0.0373447
0.0369438
0.0369747
0.0367209
-0.283746
-0.202278
-0.11386
-0.0570665
-0.0187424
0.00622492
0.0228326
0.0336889
0.0406979
0.0450289
0.0475227
0.0487402
0.0490888
0.0488542
0.0482398
0.0473694
0.0463574
0.0454894
0.0450954
0.0443943
-0.247072
-0.165652
-0.0815322
-0.0284068
0.00656227
0.0287184
0.04297
0.0518242
0.0571294
0.0599994
0.0612345
0.0613619
0.0607617
0.0596943
0.0583436
0.0568294
0.0552699
0.0539276
0.0530783
0.0519
-0.207795
-0.127023
-0.0479768
0.0010055
0.0324094
0.05158
0.0633489
0.0701084
0.0736402
0.0749963
0.0749327
0.0739393
0.0723655
0.0704436
0.0683393
0.0661735
0.0640673
0.0622327
0.0608645
0.0591644
-0.165548
-0.0874264
-0.0133892
0.031039
0.0586764
0.0747107
0.0838865
0.0884711
0.0901703
0.0899686
0.0885734
0.0864343
0.083867
0.081074
0.0782053
0.0753891
0.072737
0.0703589
0.0683246
0.0659723
-0.121084
-0.0468254
0.0219998
0.0615473
0.0852342
0.0980048
0.104495
0.106839
0.106658
0.104863
0.102111
0.0988078
0.0952323
0.0915575
0.0879234
0.0844668
0.0812659
0.0782561
0.0753256
0.07209
-0.0746879
-0.00529838
0.0579558
0.092366
0.111948
0.121352
0.125084
0.125136
0.123038
0.119626
0.1155
0.11102
0.106427
0.101867
0.0974735
0.0933879
0.0896227
0.0858857
0.0819041
0.0779302
-0.0265763
0.0369656
0.0942576
0.12333
0.138683
0.14464
0.14556
0.143284
0.139246
0.134201
0.128691
0.123028
0.117415
0.111973
0.10683
0.102114
0.0977471
0.0932376
0.088323
0.0849116
0.0224566
0.0796634
0.130692
0.154278
0.165307
0.167759
0.16583
0.161203
0.155213
0.148529
0.141634
0.134789
0.128161
0.121846
0.115962
0.110602
0.105591
0.100383
0.0949908
0.0919043
0.0720753
0.122524
0.167024
0.185023
0.191669
0.190585
0.185793
0.178811
0.170869
0.162551
0.154278
0.14626
0.138627
0.131454
0.124838
0.118824
0.113175
0.107387
0.101709
0.0985956
0.12188
0.165232
0.203016
0.215377
0.217619
0.212997
0.205348
0.196022
0.186144
0.176208
0.166573
0.157398
0.148778
0.140762
0.133421
0.126755
0.120502
0.114234
0.108303
0.10492
0.17145
0.207469
0.238428
0.245154
0.243009
0.234873
0.224395
0.212755
0.200967
0.18944
0.178468
0.168159
0.158574
0.149736
0.141684
0.134381
0.127564
0.120872
0.114671
0.110916
0.220366
0.248917
0.273024
0.274168
0.267688
0.256092
0.242834
0.228924
0.21527
0.202188
0.189912
0.178501
0.167979
0.158342
0.149597
0.141682
0.13434
0.127256
0.120766
0.116603
0.268211
0.289265
0.306567
0.302232
0.291509
0.276534
0.260566
0.24445
0.228982
0.214394
0.200856
0.18838
0.176955
0.166547
0.157135
0.148635
0.140802
0.133347
0.126564
0.121989
0.314576
0.328205
0.338826
0.329165
0.314326
0.29608
0.277496
0.259251
0.242038
0.226001
0.211252
0.197755
0.185465
0.174319
0.16427
0.155216
0.146921
0.139115
0.132051
0.127079
0.359068
0.365441
0.369577
0.354792
0.335998
0.314617
0.293528
0.27325
0.254371
0.236954
0.221052
0.206584
0.193474
0.181628
0.170976
0.1614
0.15267
0.144536
0.13721
0.13187
0.401308
0.400686
0.398605
0.378942
0.356391
0.332036
0.308574
0.286372
0.265919
0.2472
0.230211
0.21483
0.200948
0.188444
0.177225
0.16716
0.158024
0.149587
0.142026
0.136345
0.440944
0.433664
0.425704
0.401455
0.375375
0.348231
0.322548
0.298547
0.276623
0.256688
0.238687
0.222455
0.207854
0.194739
0.182994
0.172474
0.162962
0.154248
0.146477
0.140468
0.477647
0.464114
0.450682
0.422178
0.39283
0.363106
0.335369
0.309707
0.286427
0.265372
0.246438
0.229424
0.214162
0.200486
0.188258
0.177321
0.167466
0.1585
0.150532
0.144188
0.511106
0.491799
0.473358
0.440971
0.408643
0.376568
0.346964
0.319791
0.295279
0.273207
0.253428
0.235704
0.219845
0.205661
0.192995
0.181681
0.171518
0.162326
0.154167
0.147502
0.541038
0.516506
0.493571
0.457707
0.422712
0.388537
0.357263
0.328742
0.303132
0.280154
0.259622
0.241268
0.224877
0.21024
0.197186
0.185538
0.175103
0.16571
0.157373
0.150419
0.567187
0.538045
0.511175
0.472271
0.434947
0.398937
0.366208
0.336512
0.309944
0.286178
0.26499
0.246087
0.229234
0.214205
0.200812
0.188874
0.178205
0.168638
0.160145
0.152941
0.58933
0.556251
0.526043
0.484563
0.445266
0.407705
0.373744
0.343055
0.315679
0.291246
0.269505
0.250139
0.232896
0.217536
0.203859
0.191677
0.18081
0.171096
0.162474
0.155063
0.607279
0.570985
0.538067
0.494498
0.453603
0.414784
0.379827
0.348334
0.320304
0.295332
0.273144
0.253404
0.235847
0.220219
0.206313
0.193934
0.182908
0.173076
0.16435
0.156773
0.620878
0.582133
0.54716
0.502008
0.459902
0.420132
0.38442
0.352319
0.323794
0.298415
0.275889
0.255867
0.238072
0.222242
0.208162
0.195635
0.184489
0.174569
0.165766
0.158064
0.630011
0.589612
0.553256
0.507041
0.464123
0.423714
0.387496
0.354987
0.326131
0.300479
0.277727
0.257515
0.239561
0.223596
0.2094
0.196774
0.185547
0.175567
0.166714
0.158929
0.6346
0.593365
0.556315
0.509566
0.46624
0.42551
0.389038
0.356325
0.327302
0.301514
0.278648
0.258341
0.240307
0.224274
0.21002
0.197344
0.186077
0.176068
0.167189
0.159362
0.6346
0.593365
0.556315
0.509566
0.46624
0.42551
0.389038
0.356325
0.327302
0.301514
0.278648
0.258341
0.240307
0.224274
0.21002
0.197344
0.186077
0.176068
0.167189
0.159362
0.630011
0.589612
0.553256
0.507041
0.464123
0.423714
0.387496
0.354987
0.326131
0.300479
0.277727
0.257515
0.239561
0.223596
0.2094
0.196774
0.185547
0.175567
0.166714
0.158929
0.620878
0.582133
0.54716
0.502008
0.459902
0.420132
0.38442
0.352319
0.323794
0.298415
0.275889
0.255867
0.238072
0.222242
0.208162
0.195635
0.184489
0.174569
0.165766
0.158064
0.607279
0.570985
0.538067
0.494498
0.453603
0.414784
0.379827
0.348334
0.320304
0.295332
0.273144
0.253404
0.235847
0.220219
0.206313
0.193934
0.182908
0.173076
0.16435
0.156773
0.58933
0.556251
0.526043
0.484563
0.445266
0.407705
0.373744
0.343055
0.315679
0.291246
0.269505
0.250139
0.232896
0.217536
0.203859
0.191677
0.18081
0.171096
0.162474
0.155063
0.567187
0.538045
0.511175
0.472271
0.434947
0.398937
0.366208
0.336512
0.309944
0.286178
0.26499
0.246087
0.229234
0.214205
0.200812
0.188874
0.178205
0.168638
0.160145
0.152941
0.541038
0.516506
0.493571
0.457707
0.422712
0.388537
0.357263
0.328742
0.303132
0.280154
0.259622
0.241268
0.224877
0.21024
0.197186
0.185538
0.175103
0.16571
0.157373
0.150419
0.511106
0.491799
0.473358
0.440971
0.408643
0.376568
0.346964
0.319791
0.295279
0.273207
0.253428
0.235704
0.219845
0.205661
0.192995
0.181681
0.171518
0.162326
0.154167
0.147502
0.477647
0.464114
0.450682
0.422178
0.39283
0.363106
0.335369
0.309707
0.286427
0.265372
0.246438
0.229424
0.214162
0.200486
0.188258
0.177321
0.167466
0.1585
0.150532
0.144188
0.440944
0.433664
0.425704
0.401455
0.375375
0.348231
0.322548
0.298547
0.276623
0.256688
0.238686
0.222455
0.207854
0.194739
0.182994
0.172474
0.162962
0.154248
0.146477
0.140468
0.401308
0.400686
0.398605
0.378942
0.356391
0.332036
0.308574
0.286372
0.265919
0.2472
0.230211
0.21483
0.200948
0.188444
0.177225
0.16716
0.158024
0.149587
0.142026
0.136345
0.359068
0.365441
0.369577
0.354792
0.335998
0.314617
0.293528
0.27325
0.254371
0.236954
0.221052
0.206584
0.193474
0.181628
0.170975
0.1614
0.15267
0.144536
0.13721
0.13187
0.314576
0.328205
0.338826
0.329165
0.314326
0.29608
0.277496
0.259251
0.242038
0.226001
0.211252
0.197755
0.185465
0.174319
0.16427
0.155216
0.146921
0.139115
0.132051
0.127079
0.268211
0.289265
0.306567
0.302232
0.291509
0.276534
0.260566
0.24445
0.228982
0.214394
0.200856
0.18838
0.176955
0.166547
0.157135
0.148635
0.140802
0.133346
0.126564
0.121989
0.220366
0.248918
0.273024
0.274168
0.267688
0.256092
0.242834
0.228924
0.21527
0.202188
0.189912
0.178501
0.167979
0.158342
0.149597
0.141682
0.13434
0.127256
0.120766
0.116603
0.17145
0.207469
0.238428
0.245154
0.243009
0.234873
0.224395
0.212754
0.200967
0.18944
0.178468
0.168159
0.158574
0.149736
0.141684
0.134381
0.127564
0.120872
0.114671
0.110916
0.12188
0.165232
0.203016
0.215377
0.217619
0.212997
0.205348
0.196022
0.186144
0.176208
0.166573
0.157398
0.148778
0.140762
0.133421
0.126755
0.120501
0.114234
0.108303
0.10492
0.0720754
0.122524
0.167024
0.185023
0.191669
0.190585
0.185793
0.178811
0.170869
0.162551
0.154278
0.14626
0.138627
0.131454
0.124837
0.118824
0.113175
0.107387
0.101709
0.0985956
0.0224567
0.0796634
0.130692
0.154279
0.165307
0.167759
0.16583
0.161203
0.155213
0.148529
0.141634
0.134789
0.128161
0.121846
0.115962
0.110602
0.105591
0.100383
0.0949907
0.0919042
-0.0265763
0.0369656
0.0942576
0.12333
0.138683
0.14464
0.14556
0.143284
0.139246
0.134201
0.128691
0.123028
0.117415
0.111973
0.10683
0.102114
0.097747
0.0932375
0.0883229
0.0849115
-0.0746878
-0.00529832
0.0579558
0.092366
0.111948
0.121352
0.125084
0.125136
0.123038
0.119626
0.1155
0.11102
0.106427
0.101867
0.0974734
0.0933878
0.0896226
0.0858856
0.081904
0.0779302
-0.121084
-0.0468254
0.0219998
0.0615473
0.0852342
0.0980048
0.104495
0.106839
0.106658
0.104863
0.102111
0.0988077
0.0952322
0.0915574
0.0879233
0.0844667
0.0812658
0.078256
0.0753255
0.0720899
-0.165548
-0.0874264
-0.0133891
0.031039
0.0586763
0.0747107
0.0838865
0.0884711
0.0901703
0.0899685
0.0885734
0.0864342
0.0838669
0.0810739
0.0782053
0.075389
0.0727369
0.0703588
0.0683245
0.0659722
-0.207795
-0.127023
-0.0479767
0.00100551
0.0324094
0.05158
0.0633489
0.0701084
0.0736401
0.0749963
0.0749327
0.0739392
0.0723654
0.0704435
0.0683392
0.0661734
0.0640672
0.0622326
0.0608644
0.0591643
-0.247072
-0.165652
-0.0815322
-0.0284068
0.00656226
0.0287184
0.0429699
0.0518242
0.0571294
0.0599993
0.0612344
0.0613619
0.0607616
0.0596942
0.0583435
0.0568293
0.0552698
0.0539275
0.0530782
0.0518998
-0.283746
-0.202278
-0.11386
-0.0570665
-0.0187424
0.0062249
0.0228326
0.0336888
0.0406978
0.0450289
0.0475226
0.0487402
0.0490887
0.0488541
0.0482397
0.0473693
0.0463572
0.0454893
0.0450953
0.0443942
-0.317735
-0.236433
-0.144933
-0.0848369
-0.0433881
-0.015809
0.00301465
0.0157685
0.024402
0.0301335
0.0338392
0.0361105
0.0373786
0.0379518
0.0380519
0.0378119
0.0373446
0.0369437
0.0369745
0.0367208
-0.34879
-0.267892
-0.174829
-0.111562
-0.0672698
-0.0372999
-0.0164114
-0.00187476
0.0082951
0.0153591
0.0202239
0.0235075
0.0256619
0.0270148
0.0278054
0.0281781
0.0282462
0.0283008
0.0287292
0.0288947
-0.376756
-0.297077
-0.20305
-0.13707
-0.090298
-0.0581712
-0.0353784
-0.019184
-0.0075738
0.000748513
0.00671426
0.0109638
0.0139674
0.0160691
0.0175238
0.0184882
0.0190762
0.0195686
0.0203664
0.0209265
-0.401565
-0.32394
-0.229515
-0.161194
-0.112395
-0.0783513
-0.053825
-0.036107
-0.0231597
-0.0136588
-0.00665505
-0.00148979
0.0023224
0.0051392
0.00722913
0.00876133
0.0098502
0.0107603
0.0119007
0.0128331
-0.423204
-0.348267
-0.254022
-0.184065
-0.133498
-0.0977736
-0.0716965
-0.0525971
-0.0384217
-0.0278266
-0.0198519
-0.013825
-0.00924785
-0.00575215
-0.00305785
-0.000983842
0.000585106
0.00189336
0.00335255
0.00463371
-0.44171
-0.369923
-0.276557
-0.205614
-0.153585
-0.116376
-0.0889462
-0.0686117
-0.0533241
-0.0417218
-0.032847
-0.0260154
-0.0207198
-0.0165835
-0.0133174
-0.0107291
-0.00870189
-0.007014
-0.00525786
-0.00365305
-0.457167
-0.388855
-0.297122
-0.225724
-0.172632
-0.134121
-0.105536
-0.0841133
-0.0678345
-0.0553144
-0.0456144
-0.0380371
-0.0320717
-0.0273348
-0.0235307
-0.0204569
-0.0179942
-0.015945
-0.0139121
-0.01201
-0.469705
-0.405043
-0.315696
-0.244336
-0.19053
-0.151028
-0.121451
-0.0990693
-0.0819232
-0.0685774
-0.0581311
-0.0498679
-0.0432844
-0.0379875
-0.0336801
-0.0301507
-0.0272761
-0.0248841
-0.0225935
-0.0204206
-0.479483
-0.418482
-0.332256
-0.261431
-0.207243
-0.167038
-0.136679
-0.113501
-0.0955496
-0.0814894
-0.0703768
-0.0614875
-0.0543408
-0.048524
-0.0437492
-0.0397953
-0.0365325
-0.0338161
-0.0312872
-0.0288681
-0.48668
-0.429185
-0.346791
-0.277003
-0.222769
-0.182117
-0.151176
-0.127355
-0.10874
-0.0940487
-0.0823294
-0.0728804
-0.0652244
-0.0589279
-0.053723
-0.0493767
-0.045749
-0.0427252
-0.0399795
-0.037335
-0.491485
-0.437189
-0.359312
-0.29105
-0.237111
-0.196259
-0.164924
-0.140609
-0.121465
-0.106237
-0.0939928
-0.0840507
-0.0759118
-0.0691858
-0.0635883
-0.0588818
-0.0549134
-0.0515949
-0.0486561
-0.0458045
-0.494085
-0.442562
-0.369842
-0.303578
-0.250273
-0.209469
-0.177924
-0.15326
-0.133706
-0.118037
-0.105348
-0.0949718
-0.0864103
-0.0792952
-0.0733356
-0.0682957
-0.0640177
-0.0604125
-0.0572944
-0.0542641
-0.494657
-0.445409
-0.378429
-0.314598
-0.262262
-0.221755
-0.190182
-0.16531
-0.145458
-0.129441
-0.116382
-0.105633
-0.096707
-0.0892427
-0.0829541
-0.0776116
-0.0730548
-0.0691885
-0.065846
-0.062712
-0.493383
-0.445885
-0.385129
-0.324126
-0.273092
-0.23313
-0.201708
-0.176766
-0.156723
-0.140447
-0.127093
-0.116031
-0.106791
-0.0990182
-0.0924344
-0.0868176
-0.0820046
-0.0778954
-0.0743507
-0.0711031
-0.490477
-0.444255
-0.390042
-0.332195
-0.282785
-0.243612
-0.212514
-0.187633
-0.167507
-0.151059
-0.137479
-0.126163
-0.116657
-0.108615
-0.101769
-0.0959036
-0.090855
-0.086523
-0.082798
-0.079424
-0.485923
-0.440714
-0.393234
-0.33884
-0.29138
-0.253234
-0.222624
-0.19793
-0.177821
-0.161283
-0.147545
-0.136031
-0.126305
-0.118031
-0.110953
-0.104864
-0.0996001
-0.0950621
-0.0911659
-0.0876713
-0.479921
-0.43564
-0.394808
-0.344106
-0.29892
-0.262031
-0.232065
-0.207677
-0.187681
-0.17113
-0.157299
-0.14564
-0.135735
-0.127267
-0.119986
-0.113695
-0.108235
-0.103505
-0.0994406
-0.0958362
-0.472658
-0.429453
-0.394856
-0.348043
-0.305443
-0.270031
-0.240859
-0.216891
-0.197099
-0.180611
-0.166747
-0.154992
-0.144952
-0.136322
-0.128865
-0.122394
-0.116756
-0.111846
-0.107614
-0.103907
-0.464313
-0.422564
-0.393473
-0.350722
-0.310997
-0.277266
-0.249033
-0.225596
-0.206093
-0.189736
-0.175897
-0.164094
-0.153957
-0.145198
-0.137591
-0.13096
-0.125159
-0.12008
-0.115682
-0.111874
-0.455092
-0.415338
-0.39078
-0.352243
-0.315639
-0.283774
-0.256619
-0.233817
-0.214684
-0.198523
-0.184762
-0.172955
-0.162758
-0.153899
-0.146166
-0.139392
-0.133442
-0.128205
-0.123641
-0.119729
-0.445232
-0.408058
-0.386947
-0.35273
-0.319429
-0.289591
-0.26365
-0.241585
-0.222898
-0.206992
-0.193357
-0.181588
-0.171364
-0.162433
-0.154595
-0.147694
-0.141605
-0.136221
-0.131489
-0.12747
-0.435002
-0.40091
-0.382218
-0.352325
-0.322426
-0.294755
-0.270159
-0.24893
-0.230759
-0.215164
-0.2017
-0.190004
-0.179785
-0.170807
-0.162884
-0.15587
-0.149652
-0.144128
-0.139227
-0.135093
-0.424684
-0.393987
-0.376907
-0.351178
-0.324689
-0.299302
-0.276179
-0.255882
-0.238296
-0.223061
-0.209809
-0.198221
-0.188033
-0.179031
-0.171041
-0.163928
-0.157585
-0.151928
-0.146856
-0.1426
-0.41455
-0.387318
-0.371368
-0.349438
-0.326278
-0.303267
-0.281739
-0.262469
-0.245534
-0.230707
-0.217704
-0.206254
-0.196123
-0.187117
-0.179077
-0.171875
-0.165413
-0.159627
-0.154381
-0.149993
-0.404826
-0.380908
-0.365932
-0.347247
-0.327262
-0.306687
-0.286863
-0.268715
-0.252497
-0.238125
-0.225406
-0.214122
-0.204071
-0.195079
-0.187002
-0.179722
-0.173145
-0.167232
-0.16181
-0.157279
-0.395683
-0.374769
-0.360841
-0.344751
-0.327717
-0.309594
-0.29157
-0.274637
-0.259206
-0.245338
-0.232937
-0.221844
-0.211893
-0.202931
-0.19483
-0.187483
-0.180792
-0.174753
-0.169153
-0.164466
-0.387213
-0.368939
-0.356206
-0.342109
-0.32773
-0.312023
-0.29587
-0.280245
-0.265678
-0.252366
-0.240316
-0.229439
-0.219606
-0.21069
-0.202576
-0.195171
-0.188369
-0.182205
-0.17642
-0.171564
-0.379452
-0.363476
-0.352023
-0.339487
-0.327399
-0.314006
-0.29977
-0.285543
-0.27192
-0.259221
-0.247563
-0.236925
-0.227229
-0.218373
-0.210256
-0.202804
-0.195894
-0.1896
-0.183631
-0.178588
-0.372393
-0.358438
-0.348234
-0.337029
-0.32683
-0.315586
-0.303271
-0.29052
-0.277929
-0.265913
-0.254689
-0.244321
-0.234779
-0.225997
-0.217887
-0.210398
-0.203386
-0.196964
-0.190798
-0.185555
-0.366008
-0.353861
-0.344786
-0.33482
-0.326135
-0.31681
-0.306374
-0.29516
-0.283692
-0.272436
-0.261703
-0.251638
-0.242271
-0.233579
-0.225487
-0.217973
-0.210867
-0.204318
-0.197964
-0.192479
-0.360255
-0.349748
-0.341656
-0.332876
-0.325416
-0.317744
-0.309084
-0.299435
-0.289177
-0.278774
-0.2686
-0.258883
-0.249719
-0.241135
-0.233073
-0.225547
-0.218363
-0.211698
-0.205133
-0.199403
-0.355088
-0.346077
-0.338845
-0.33117
-0.324753
-0.318459
-0.311416
-0.303318
-0.294341
-0.284888
-0.275359
-0.266053
-0.257129
-0.248677
-0.240659
-0.233139
-0.225891
-0.219138
-0.212406
-0.206319
-0.350456
-0.342806
-0.336353
-0.329678
-0.324184
-0.319027
-0.313398
-0.306781
-0.29913
-0.290724
-0.281941
-0.273126
-0.264495
-0.25621
-0.248257
-0.240758
-0.233484
-0.226656
-0.219775
-0.213391
-0.3463
-0.339887
-0.334167
-0.328388
-0.32372
-0.319507
-0.315073
-0.309811
-0.303482
-0.296205
-0.288279
-0.280058
-0.271794
-0.263727
-0.25587
-0.248417
-0.241122
-0.234326
-0.227308
-0.22057
-0.342554
-0.337269
-0.332262
-0.327298
-0.323363
-0.319946
-0.316494
-0.312419
-0.307352
-0.301248
-0.294283
-0.286775
-0.278979
-0.271203
-0.263486
-0.25611
-0.24883
-0.242003
-0.235249
-0.22827
-0.339174
-0.334904
-0.330574
-0.326366
-0.323083
-0.32034
-0.317689
-0.314613
-0.310696
-0.30576
-0.299838
-0.29317
-0.285966
-0.278583
-0.271082
-0.263805
-0.256625
-0.249697
-0.24335
-0.235777
-0.336079
-0.332761
-0.329064
-0.325568
-0.322872
-0.320704
-0.3187
-0.316432
-0.313507
-0.309671
-0.304825
-0.299103
-0.292634
-0.285767
-0.278601
-0.271453
-0.26445
-0.257379
-0.251074
-0.243043
-0.333242
-0.330774
-0.327686
-0.324863
-0.322709
-0.321039
-0.319557
-0.317927
-0.315813
-0.312943
-0.309141
-0.30442
-0.298822
-0.292605
-0.285932
-0.278986
-0.272195
-0.265021
-0.258466
-0.250189
-0.330611
-0.328909
-0.326394
-0.324208
-0.32256
-0.321331
-0.320278
-0.319142
-0.317662
-0.315588
-0.312728
-0.308987
-0.304348
-0.298905
-0.292895
-0.286289
-0.279748
-0.272596
-0.265753
-0.257351
-0.328141
-0.327137
-0.325151
-0.32356
-0.322382
-0.321553
-0.320864
-0.320116
-0.319118
-0.317661
-0.315587
-0.312728
-0.309053
-0.304465
-0.299259
-0.293177
-0.286984
-0.280018
-0.273037
-0.264589
-0.325793
-0.325427
-0.323937
-0.322887
-0.322143
-0.321678
-0.321306
-0.320872
-0.320238
-0.319243
-0.317778
-0.315652
-0.312844
-0.309117
-0.304787
-0.299396
-0.293714
-0.287106
-0.280242
-0.271853
-0.323542
-0.32377
-0.322727
-0.322165
-0.321815
-0.321681
-0.321589
-0.321418
-0.321066
-0.320414
-0.319394
-0.317839
-0.315729
-0.31279
-0.309316
-0.304676
-0.2997
-0.293552
-0.287141
-0.278969
-0.321374
-0.32216
-0.321508
-0.32138
-0.321382
-0.321544
-0.321702
-0.321757
-0.321631
-0.321237
-0.320536
-0.319402
-0.317809
-0.315511
-0.312812
-0.308814
-0.304761
-0.298987
-0.293419
-0.2856
-0.319283
-0.320594
-0.320282
-0.320533
-0.32084
-0.321262
-0.321639
-0.321889
-0.32195
-0.321759
-0.321288
-0.320454
-0.31923
-0.31739
-0.315365
-0.311757
-0.308837
-0.303131
-0.298803
-0.291239
-0.317275
-0.319078
-0.319054
-0.31963
-0.320198
-0.320842
-0.321406
-0.321824
-0.322042
-0.322011
-0.321713
-0.321089