/*--------------------------------*- C++ -*----------------------------------*\
  =========                 |
  \\      /  F ield         | OpenFOAM: The Open Source CFD Toolbox
   \\    /   O peration     | Website:  https://openfoam.org
    \\  /    A nd           | Version:  7
     \\/     M anipulation  |
\*---------------------------------------------------------------------------*/
FoamFile
{
    version     2.0;
    format      ascii;
    class       volVectorField;
    location    "20";
    object      U;
}
// * * * * * * * * * * * * * * * * * * * * * * * * * * * * * * * * * * * * * //

dimensions      [0 1 -1 0 0 0 0];

internalField   nonuniform List<vector> 
12100
(
(-0.00685335 0.00261508 -3.81601e-20)
(-0.0291134 0.00451499 -4.62877e-20)
(-0.0593121 0.00501801 5.79801e-21)
(-0.086075 0.00496111 -1.50049e-20)
(-0.110552 0.00470037 7.32071e-20)
(-0.131971 0.00440758 2.31663e-20)
(-0.150971 0.00413687 -3.24121e-20)
(-0.167905 0.00390144 3.35795e-20)
(-0.183142 0.00369765 -4.74826e-20)
(-0.196945 0.00351729 2.77185e-20)
(-0.209508 0.00335076 1.44683e-20)
(-0.220957 0.00318668 5.24615e-21)
(-0.23136 0.00301167 -1.69916e-20)
(-0.240731 0.00281131 -9.658e-21)
(-0.249005 0.00256349 -6.34431e-21)
(-0.256029 0.0022397 2.6342e-20)
(-0.261774 0.00188884 -3.09087e-20)
(-0.265769 0.00134017 -6.56264e-21)
(-0.268329 0.00107905 7.61405e-21)
(-0.268039 0.000408033 -2.13701e-20)
(-0.00714231 0.00778968 1.95586e-21)
(-0.0293602 0.0134635 -2.91921e-20)
(-0.0591657 0.0149701 -6.15032e-20)
(-0.0854028 0.0147995 4.99532e-20)
(-0.109233 0.0140163 3.20334e-20)
(-0.129896 0.0131338 4.90641e-21)
(-0.14801 0.0123146 9.37227e-20)
(-0.163909 0.0115985 -1.38972e-19)
(-0.177938 0.0109745 9.23193e-20)
(-0.190332 0.010418 -7.20485e-20)
(-0.201256 0.00990031 8.64119e-21)
(-0.210809 0.00938777 -4.16904e-20)
(-0.219025 0.00884124 1.51314e-20)
(-0.225896 0.00821927 3.03009e-20)
(-0.231342 0.00746101 5.05752e-20)
(-0.235141 0.00646111 3.03979e-20)
(-0.237429 0.00543303 8.4549e-20)
(-0.237274 0.00365723 8.02395e-21)
(-0.235886 0.00298667 -6.88774e-20)
(-0.229511 0.000577273 5.11309e-20)
(-0.00771189 0.0128039 -1.08428e-20)
(-0.0298501 0.0221751 -4.17966e-20)
(-0.0588789 0.0246764 6.03169e-20)
(-0.0840722 0.0243927 4.68404e-20)
(-0.106618 0.0230837 -1.58496e-19)
(-0.125777 0.0215997 2.06319e-20)
(-0.142134 0.0202116 -1.57587e-19)
(-0.155986 0.0189861 8.82492e-21)
(-0.167629 0.0179053 -3.56966e-20)
(-0.177252 0.0169279 7.08597e-20)
(-0.184969 0.0160069 -2.21408e-20)
(-0.190824 0.0150873 2.51683e-20)
(-0.1948 0.0141071 -2.54602e-20)
(-0.196847 0.0130024 -4.85527e-20)
(-0.196886 0.0116954 -5.58299e-20)
(-0.194479 0.00992914 -6.80972e-20)
(-0.190363 0.00833715 -1.37537e-19)
(-0.182134 0.0049519 5.1089e-20)
(-0.174028 0.00425634 4.28772e-20)
(-0.156018 -0.000752328 1.3368e-19)
(-0.0085462 0.0175594 5.46241e-20)
(-0.0305759 0.0304998 2.2146e-19)
(-0.0584624 0.0339776 -7.27514e-20)
(-0.082109 0.0335797 -1.49372e-19)
(-0.102746 0.03174 -8.66795e-20)
(-0.119673 0.029636 1.20888e-19)
(-0.133427 0.0276475 1.51548e-19)
(-0.144253 0.025869 3.66339e-20)
(-0.152389 0.0242763 -3.45851e-21)
(-0.157957 0.0228118 -2.05201e-19)
(-0.161008 0.0214106 -9.71661e-20)
(-0.161523 0.0199988 4.54055e-20)
(-0.159422 0.0184958 5.62646e-21)
(-0.154593 0.0168187 4.45337e-20)
(-0.147057 0.0149243 -1.32944e-19)
(-0.135774 0.0122393 5.18847e-20)
(-0.123193 0.0103119 7.56433e-20)
(-0.103055 0.0049361 8.74346e-20)
(-0.0870699 0.00450496 -4.67056e-20)
(-0.0523256 -0.00326623 -1.08106e-19)
(-0.00962299 0.0219686 -1.48566e-19)
(-0.0315267 0.0382967 -4.32745e-20)
(-0.0579303 0.0427197 1.30413e-19)
(-0.079547 0.0422035 6.84207e-20)
(-0.0976718 0.0398257 3.36677e-19)
(-0.111657 0.0370787 -3.13024e-19)
(-0.121989 0.0344512 -1.75952e-19)
(-0.128853 0.032067 6.58724e-20)
(-0.132413 0.029897 -3.08504e-21)
(-0.132722 0.0278684 4.18712e-20)
(-0.129763 0.0259006 6.1263e-20)
(-0.123453 0.023902 -1.6561e-19)
(-0.113651 0.0217814 2.00554e-19)
(-0.100139 0.0194353 1.0249e-19)
(-0.0833155 0.0169155 1.57906e-19)
(-0.0606724 0.0132104 -3.9892e-21)
(-0.0384935 0.0109202 -3.73784e-20)
(-0.00268249 0.00430793 3.83308e-21)
(0.0211831 0.0025768 -5.62582e-20)
(0.0773617 -0.00578319 -1.00609e-19)
(-0.0109152 0.0259577 9.66964e-20)
(-0.0326878 0.0454381 7.90467e-21)
(-0.0572967 0.0507571 -2.42853e-19)
(-0.0764228 0.0501119 -1.20869e-19)
(-0.0914495 0.0471864 -3.97506e-19)
(-0.101803 0.0437714 -1.46064e-20)
(-0.107914 0.0404639 -2.09468e-20)
(-0.109902 0.0374192 2.81299e-20)
(-0.107855 0.0346065 4.9349e-20)
(-0.101748 0.0319401 4.31597e-20)
(-0.0914971 0.0293277 3.42164e-19)
(-0.0769578 0.0266621 -2.17932e-21)
(-0.0579556 0.0238508 1.20001e-19)
(-0.0340638 0.0207851 -2.92381e-19)
(-0.00652472 0.0174873 3.78315e-20)
(0.0298219 0.0130695 -5.92272e-20)
(0.0622309 0.00986936 -4.71444e-20)
(0.117645 0.00315746 4.45086e-20)
(0.147015 -0.00109705 -9.83936e-20)
(0.231689 -0.00805827 9.92385e-20)
(-0.0123927 0.0294696 -2.47108e-19)
(-0.0340403 0.0518126 -4.44015e-19)
(-0.0565727 0.0579544 1.61465e-19)
(-0.0727678 0.0571595 -4.50876e-20)
(-0.0841245 0.0536742 3.57859e-19)
(-0.090162 0.0495665 3.45066e-19)
(-0.091253 0.045541 -1.18731e-19)
(-0.0874443 0.0417877 1.65135e-19)
(-0.0787403 0.038279 -1.74999e-19)
(-0.065035 0.0349212 2.65215e-20)
(-0.0461777 0.0316178 -7.00983e-20)
(-0.0219613 0.02825 1.10236e-19)
(0.00777926 0.024717 -2.97459e-21)
(0.0437689 0.0210047 -1.01469e-19)
(0.0834317 0.01675 2.65246e-19)
(0.136057 0.0122473 -1.02474e-19)
(0.178037 0.00732537 -8.65592e-20)
(0.25825 0.0016949 1.34212e-19)
(0.289052 -0.00500119 5.01256e-20)
(0.407365 -0.0102993 2.17247e-19)
(-0.0140247 0.0324653 1.83146e-19)
(-0.0355607 0.0573268 2.04445e-19)
(-0.0557605 0.0641888 1.42697e-19)
(-0.0685987 0.0632103 5.11186e-19)
(-0.0757142 0.0591496 -1.13738e-19)
(-0.076735 0.054328 1.72855e-19)
(-0.0719699 0.0495559 2.25283e-19)
(-0.0613825 0.0450629 -2.83932e-19)
(-0.0448808 0.0408323 5.24471e-19)
(-0.0222659 0.0367704 8.80017e-21)
(0.00667525 0.0327878 -4.395e-19)
(0.0422061 0.028764 -4.60092e-20)
(0.0844193 0.024553 -4.25764e-19)
(0.134407 0.0204732 2.00894e-19)
(0.187635 0.0151071 -1.4863e-19)
(0.258714 0.0114591 1.5472e-19)
(0.310397 0.00406088 2.15367e-19)
(0.416789 0.00103107 8.37588e-20)
(0.448186 -0.00804301 -2.33569e-19)
(0.597676 -0.011482 -2.02026e-19)
(-0.0157811 0.0349248 -8.98399e-20)
(-0.037219 0.0619077 5.36793e-20)
(-0.0548477 0.069353 -4.33844e-19)
(-0.0639048 0.0681395 -2.49875e-19)
(-0.0661877 0.0634849 -2.00434e-19)
(-0.0614404 0.0579353 -1.12209e-19)
(-0.0498934 0.0524061 -5.51207e-19)
(-0.0314065 0.0471734 9.98006e-20)
(-0.00577346 0.0422425 -5.33043e-19)
(0.0273101 0.0375322 -1.6169e-19)
(0.0680987 0.0329751 1.01034e-19)
(0.116875 0.0284666 1.85967e-19)
(0.173548 0.0237547 -5.58841e-20)
(0.239325 0.01979 2.17071e-19)
(0.308076 0.0133856 1.25039e-20)
(0.397159 0.0114264 -2.33302e-19)
(0.461445 0.0019778 1.63574e-20)
(0.587256 0.00175634 -3.26003e-19)
(0.623308 -0.00856332 6.00274e-20)
(0.79098 -0.00981742 -1.28732e-19)
(-0.0176347 0.0368464 3.43108e-19)
(-0.0389776 0.0655035 3.98513e-19)
(-0.0537995 0.0733574 1.05434e-19)
(-0.058632 0.0718381 4.35296e-19)
(-0.0554391 0.0665686 1.21583e-19)
(-0.0440716 0.0602904 2.72762e-19)
(-0.0246546 0.0540239 3.07611e-19)
(0.00308654 0.0481026 2.84249e-19)
(0.0394884 0.0425699 2.90692e-19)
(0.0849524 0.0373751 -2.15643e-19)
(0.139693 0.0324848 3.35523e-19)
(0.203883 0.0278393 3.28734e-19)
(0.277072 0.0230372 4.22504e-19)
(0.35968 0.0196612 -4.02317e-19)
(0.44584 0.0131229 3.72229e-20)
(0.548787 0.012603 3.43309e-19)
(0.629293 0.00318667 -1.21736e-19)
(0.760348 0.0047654 1.89748e-21)
(0.806501 -0.00545113 -1.36495e-20)
(0.970727 -0.00438295 1.62489e-19)
(-0.0195617 0.0382449 -2.14953e-19)
(-0.0407879 0.0680834 -3.61951e-19)
(-0.0525487 0.0761331 6.34468e-19)
(-0.0526645 0.0742175 -6.5408e-19)
(-0.0432552 0.0683136 -4.69522e-19)
(-0.024248 0.0613296 -2.01889e-19)
(0.00437973 0.0543952 -8.84186e-20)
(0.0430682 0.0479178 -4.86469e-19)
(0.0922725 0.0420002 -2.02192e-19)
(0.152408 0.0366431 -4.57649e-20)
(0.223435 0.0318521 -1.45606e-19)
(0.305097 0.0276119 -9.66143e-20)
(0.396206 0.023444 -2.27746e-19)
(0.495309 0.0209659 -1.13731e-19)
(0.598276 0.0157959 4.32918e-20)
(0.708776 0.0159399 -2.21455e-19)
(0.803816 0.00856339 2.41043e-20)
(0.924835 0.0107584 1.40476e-20)
(0.981144 0.00147869 -1.64611e-19)
(1.11921 0.00400389 1.09118e-19)
(-0.0215428 0.0391493 2.01227e-19)
(-0.0425873 0.0696378 1.60412e-19)
(-0.0509846 0.077635 -7.37204e-19)
(-0.0458022 0.0752156 -2.49508e-19)
(-0.0292781 0.0686678 2.65271e-19)
(-0.00136077 0.0610417 -1.40613e-19)
(0.0381712 0.0535877 3.83438e-19)
(0.0899266 0.0468112 3.64758e-19)
(0.154379 0.0408973 4.7931e-20)
(0.231705 0.0359115 -7.44618e-20)
(0.32116 0.0318788 4.68855e-19)
(0.421502 0.0287538 -5.27927e-19)
(0.530037 0.0261034 -4.74251e-19)
(0.643199 0.0248602 6.56981e-19)
(0.757485 0.0220139 -1.42125e-19)
(0.868688 0.0224963 6.90347e-20)
(0.96815 0.0175797 9.93564e-20)
(1.06863 0.0193986 -8.84389e-20)
(1.12674 0.0110607 2.41004e-19)
(1.22416 0.0132534 3.02501e-19)
(-0.0235617 0.0395991 -6.44901e-19)
(-0.0442933 0.0701758 -6.31509e-19)
(-0.0489406 0.0778448 4.72076e-19)
(-0.0377355 0.0748056 3.01078e-19)
(-0.0129647 0.0676292 1.61187e-19)
(0.0254801 0.059493 -1.31824e-19)
(0.0780525 0.0517896 -2.38013e-19)
(0.14544 0.0451513 1.19723e-19)
(0.227839 0.0398566 1.49401e-20)
(0.324639 0.0360097 9.90947e-20)
(0.433644 0.0335842 -2.67311e-19)
(0.551862 0.0323534 -1.13728e-19)
(0.674271 0.0318917 3.70952e-19)
(0.795841 0.0322081 -4.81438e-19)
(0.911685 0.0315305 -2.67622e-20)
(1.01571 0.0321743 1.96608e-19)
(1.10558 0.0286757 -7.84088e-20)
(1.18086 0.0292855 -1.0245e-19)
(1.22904 0.0210605 1.29185e-20)
(1.28504 0.0214455 -1.37059e-19)
(-0.0256044 0.0396402 9.96642e-20)
(-0.0457975 0.0697223 6.63112e-19)
(-0.0461797 0.0767754 -2.09026e-19)
(-0.0280191 0.0730058 -2.70421e-20)
(0.00645265 0.0652656 -2.10407e-19)
(0.0574825 0.05686 -7.94031e-20)
(0.125712 0.0493565 7.12562e-20)
(0.211605 0.0435312 2.34036e-19)
(0.314452 0.0397238 6.52463e-20)
(0.431914 0.0379603 -6.04187e-19)
(0.559422 0.0380128 2.92984e-19)
(0.6915 0.0392562 1.67796e-19)
(0.820784 0.041128 -2.16904e-19)
(0.941633 0.0428039 3.41128e-19)
(1.04806 0.0433491 2.63757e-19)
(1.13641 0.043425 -6.78065e-20)
(1.20621 0.0398845 2.34658e-21)
(1.25612 0.0385864 -1.04719e-20)
(1.28763 0.0295328 -3.33843e-19)
(1.31231 0.027809 -4.67444e-19)
(-0.0276569 0.0393209 5.63254e-19)
(-0.0469583 0.068316 -1.64522e-19)
(-0.0423802 0.0744735 -4.23828e-19)
(-0.0160477 0.0698897 5.67197e-19)
(0.0299946 0.061737 5.03196e-19)
(0.096169 0.0534675 3.64435e-19)
(0.183066 0.0468548 3.35485e-19)
(0.290249 0.0427862 -1.15443e-19)
(0.415008 0.0415264 2.13571e-19)
(0.552072 0.0427769 1.80505e-19)
(0.693786 0.045879 -1.68102e-19)
(0.832125 0.049615 1.1884e-19)
(0.958643 0.0532441 1.01766e-19)
(1.06829 0.0553284 -7.73263e-20)
(1.15636 0.0557927 1.84705e-19)
(1.22311 0.054199 -2.03842e-19)
(1.26962 0.0496466 2.43247e-19)
(1.29787 0.046008 4.76484e-19)
(1.31388 0.0359069 2.36692e-19)
(1.32004 0.032626 3.75967e-19)
(-0.0297014 0.0386866 -1.7775e-19)
(-0.0476004 0.0660157 9.88501e-20)
(-0.037117 0.0710144 2.45532e-19)
(-0.00103607 0.0655973 -6.88167e-19)
(0.0589406 0.0573215 -1.17379e-19)
(0.1433 0.0498248 -5.88966e-19)
(0.251964 0.0450817 2.40261e-19)
(0.382368 0.0439339 -5.75779e-19)
(0.528333 0.0462677 2.24921e-19)
(0.680668 0.0511156 -5.0311e-21)
(0.828785 0.0571695 2.6729e-19)
(0.96337 0.0626488 6.58665e-20)
(1.07709 0.0667739 -1.12295e-19)
(1.16724 0.0679627 -2.83931e-19)
(1.23249 0.0671195 -5.20652e-21)
(1.27694 0.0631203 3.43832e-19)
(1.30313 0.0573605 -2.89028e-19)
(1.31614 0.0513547 -6.6171e-19)
(1.32169 0.0407598 -4.94162e-19)
(1.31876 0.0364989 1.86974e-19)
(-0.0317074 0.0377742 5.62506e-21)
(-0.0475062 0.0628878 4.39546e-19)
(-0.0298612 0.0665109 -1.16711e-19)
(0.0179893 0.0603503 -4.00743e-20)
(0.0947907 0.0524424 1.32887e-19)
(0.200676 0.0466498 4.59308e-19)
(0.333672 0.0450239 -2.26227e-19)
(0.487298 0.0479908 -2.04061e-19)
(0.650546 0.0545919 1.34764e-19)
(0.810366 0.0629076 2.99744e-19)
(0.954814 0.0709748 -5.64914e-19)
(1.07576 0.0768245 3.70179e-19)
(1.16926 0.0799398 4.81424e-20)
(1.2363 0.079188 1.26335e-19)
(1.27948 0.0763273 -2.76924e-19)
(1.30534 0.0699405 -7.98805e-20)
(1.31706 0.0632969 -7.50314e-20)
(1.32118 0.0551686 7.93551e-20)
(1.32065 0.0449233 2.89241e-19)
(1.31386 0.0397646 -6.19514e-19)
(-0.0336259 0.0366062 -4.75373e-20)
(-0.0464034 0.0590018 -4.26549e-20)
(-0.019976 0.0611224 4.96644e-19)
(0.0421752 0.0544625 2.58182e-19)
(0.139165 0.0476879 -2.35231e-19)
(0.269789 0.0448528 6.79965e-20)
(0.428182 0.0477125 7.51569e-20)
(0.602013 0.0556621 6.66756e-19)
(0.775136 0.0664499 -5.61692e-19)
(0.932414 0.0772296 -7.964e-19)
(1.06338 0.0857557 -4.31634e-19)
(1.16369 0.0904637 3.71518e-20)
(1.23409 0.0914243 4.78582e-20)
(1.27927 0.0883205 -2.71887e-19)
(1.30461 0.0833684 -2.29176e-20)
(1.31727 0.0751734 5.54626e-20)
(1.32009 0.0680174 -4.05434e-20)
(1.31962 0.0580955 5.57468e-19)
(1.31548 0.0489894 1.06655e-20)
(1.30773 0.0424434 5.82038e-19)
(-0.0353824 0.0351906 4.04937e-20)
(-0.0439689 0.0544404 -5.55677e-19)
(-0.00671486 0.055046 1.46888e-19)
(0.0728025 0.0483522 -4.97753e-19)
(0.193608 0.0438196 6.35914e-19)
(0.351304 0.0454498 -4.30923e-19)
(0.533545 0.0539592 1.75659e-20)
(0.721058 0.0670192 -3.61062e-20)
(0.894215 0.08099 -4.45246e-19)
(1.03909 0.0925886 1.09152e-18)
(1.14961 0.0999439 4.60428e-19)
(1.22665 0.102399 5.63058e-20)
(1.27536 0.10075 -2.31599e-19)
(1.30284 0.0954629 -4.17377e-19)
(1.31552 0.0887512 -1.16309e-20)
(1.31976 0.0794736 -1.90832e-19)
(1.31762 0.0719216 1.64781e-19)
(1.31483 0.0606926 -8.36939e-20)
(1.30834 0.0532949 -6.45661e-19)
(1.30144 0.0443376 -2.54604e-19)
(-0.0368902 0.0335432 -2.92639e-19)
(-0.0398096 0.0492781 3.83641e-19)
(0.0107664 0.0485194 -3.38586e-19)
(0.111206 0.042562 -3.73808e-19)
(0.259266 0.0417538 -6.96597e-19)
(0.444464 0.0493722 2.7556e-19)
(0.645612 0.0640503 -1.91123e-19)
(0.83748 0.0813725 -5.55376e-19)
(1.00061 0.0968203 4.81925e-19)
(1.12579 0.107492 -3.88964e-19)
(1.213 0.112488 5.60139e-19)
(1.26805 0.112229 5.812e-19)
(1.29893 0.108109 1.30527e-19)
(1.31357 0.101085 5.27121e-19)
(1.31801 0.0930747 -8.86646e-20)
(1.31724 0.0832772 1.27924e-19)
(1.31255 0.0752402 -4.72174e-20)
(1.30846 0.0635043 2.91246e-19)
(1.3004 0.0577296 1.43884e-19)
(1.29539 0.0450588 1.65984e-19)
(-0.0380463 0.0316643 1.5238e-18)
(-0.0334755 0.0435841 -3.90027e-19)
(0.0333867 0.0418456 3.45664e-19)
(0.158631 0.0377858 4.24931e-19)
(0.336455 0.042471 6.56892e-19)
(0.546664 0.0571898 -3.4915e-19)
(0.758556 0.0775647 2.06063e-19)
(0.944552 0.0974741 -2.78989e-19)
(1.08969 0.112516 -5.14041e-19)
(1.19167 0.120923 2.65911e-19)
(1.25634 0.123019 -4.75132e-19)
(1.29289 0.120129 -3.00546e-19)
(1.31044 0.113973 -1.75838e-19)
(1.31642 0.105684 1.45572e-19)
(1.31583 0.0968026 -2.74434e-20)
(1.31221 0.0867785 2.58454e-19)
(1.30632 0.0782363 2.78897e-20)
(1.30137 0.0668622 -6.75489e-19)
(1.29267 0.0613951 3.03529e-19)
(1.28929 0.0442344 -2.81756e-19)
(-0.03872 0.0295448 -1.07036e-18)
(-0.0244764 0.0374574 4.66908e-19)
(0.0621178 0.035398 -4.94266e-20)
(0.21603 0.0348427 -2.43111e-19)
(0.424199 0.0467846 -7.311e-19)
(0.653507 0.0688372 5.22009e-19)
(0.86613 0.0934556 -4.75076e-19)
(1.03737 0.113947 2.10452e-19)
(1.15995 0.127042 2.59604e-19)
(1.2387 0.132474 -1.10533e-18)
(1.2838 0.131668 2.12669e-19)
(1.30603 0.126522 3.80129e-20)
(1.31425 0.118819 1.68628e-19)
(1.31471 0.109662 -9.90862e-20)
(1.31119 0.100222 -6.08178e-20)
(1.30602 0.090078 -4.44031e-20)
(1.29958 0.0812232 2.61791e-19)
(1.29399 0.0704179 1.9913e-19)
(1.28563 0.0632824 6.33722e-20)
(1.28187 0.0516726 1.76492e-19)
(-0.0387613 0.0271727 -7.81483e-20)
(-0.0122763 0.0310024 -7.02587e-19)
(0.0979364 0.0296288 3.89683e-19)
(0.283796 0.034604 2.59647e-19)
(0.520047 0.0550873 -2.12221e-19)
(0.759732 0.083615 -6.61063e-19)
(0.96332 0.110454 4.46463e-19)
(1.11378 0.129726 -1.1578e-19)
(1.21257 0.139912 8.43771e-20)
(1.27031 0.142196 6.92735e-19)
(1.29963 0.138791 -3.7115e-19)
(1.31141 0.131844 -3.43241e-19)
(1.3134 0.12302 -3.14988e-19)
(1.31048 0.113284 -1.52738e-19)
(1.3053 0.103473 -2.3274e-20)
(1.29929 0.0932796 2.12954e-19)
(1.2926 0.0842904 -1.12202e-19)
(1.2867 0.0733788 -1.30901e-19)
(1.27847 0.0672515 -3.00269e-19)
(1.27451 0.0542065 -2.02728e-19)
(-0.037991 0.0245307 -3.30986e-20)
(0.00370402 0.0243486 4.11282e-19)
(0.141713 0.0251313 -7.29558e-19)
(0.361383 0.0378674 1.46107e-19)
(0.620187 0.0672123 5.07748e-19)
(0.860263 0.100456 9.63594e-20)
(1.04704 0.127458 1.53728e-19)
(1.17385 0.144207 2.79166e-19)
(1.25004 0.151061 -3.15436e-19)
(1.29007 0.150367 -2.3462e-19)
(1.30735 0.144786 4.37467e-19)
(1.31182 0.136462 8.11919e-19)
(1.30982 0.126843 9.02132e-20)
(1.3049 0.116715 -9.93309e-20)
(1.29879 0.106644 1.264e-19)
(1.29234 0.0964608 -2.75027e-19)
(1.28557 0.0871743 6.76895e-20)
(1.27938 0.0768481 -1.33794e-19)
(1.27144 0.0697263 -5.08451e-19)
(1.2676 0.0579287 2.66716e-19)
(-0.0362084 0.0216066 8.03489e-20)
(0.0240825 0.0176763 7.72215e-19)
(0.194062 0.0226482 -2.37341e-19)
(0.447089 0.0451121 6.5526e-19)
(0.720164 0.0824672 -5.39194e-19)
(0.951254 0.118257 6.40986e-19)
(1.11625 0.143712 -5.23845e-19)
(1.21914 0.157168 3.40966e-19)
(1.27531 0.16066 -2.22623e-19)
(1.30117 0.157333 2.3418e-20)
(1.30962 0.150002 -2.63117e-19)
(1.30918 0.140649 -4.59573e-19)
(1.30469 0.130464 -2.27484e-19)
(1.29861 0.120051 1.58477e-19)
(1.29199 0.109791 7.49413e-20)
(1.2853 0.0995552 -3.28294e-21)
(1.27848 0.0901831 -3.60297e-20)
(1.27215 0.0798122 4.45176e-19)
(1.26455 0.0727844 4.28751e-19)
(1.26042 0.0610884 1.78763e-19)
(-0.0331929 0.0183996 -7.27437e-19)
(0.0495012 0.0112543 -6.96515e-19)
(0.25513 0.0230056 5.44987e-19)
(0.538122 0.056318 -3.30922e-20)
(0.815808 0.0998903 7.68904e-19)
(1.0305 0.136134 -4.66073e-19)
(1.17142 0.158824 2.03745e-19)
(1.25189 0.16865 -2.64588e-19)
(1.29121 0.168984 4.98249e-19)
(1.30616 0.163424 -1.99012e-19)
(1.30837 0.154719 1.95545e-19)
(1.30471 0.144595 -1.32958e-20)
(1.2987 0.133988 1.54202e-19)
(1.29194 0.123347 -2.03444e-20)
(1.28503 0.11291 2.37541e-19)
(1.2782 0.10265 -2.98896e-19)
(1.27138 0.0930286 1.76089e-19)
(1.26495 0.0829343 -3.03736e-19)
(1.25764 0.075391 -1.16688e-19)
(1.25341 0.0639822 -1.70769e-19)
(-0.0287023 0.0149235 1.04507e-18)
(0.0805883 0.00549022 -6.7528e-19)
(0.324371 0.0269431 1.73307e-19)
(0.631036 0.0709863 -6.85769e-19)
(0.903931 0.118544 -4.8403e-19)
(1.09729 0.153506 5.3029e-20)
(1.21397 0.172666 9.55184e-20)
(1.27447 0.178827 -2.68272e-19)
(1.30014 0.176327 4.88652e-20)
(1.30697 0.168921 3.82163e-19)
(1.30488 0.159142 -2.82234e-19)
(1.29915 0.148422 -1.69627e-19)
(1.29223 0.137477 -9.36435e-20)
(1.28506 0.126625 -8.45914e-20)
(1.27798 0.116027 -1.08876e-19)
(1.27107 0.105668 2.0546e-19)
(1.26426 0.0959071 -4.67143e-20)
(1.25778 0.0858114 2.70633e-20)
(1.25078 0.0779973 2.7937e-19)
(1.2463 0.0668362 3.05462e-19)
(-0.0224667 0.0112142 -2.48412e-19)
(0.117879 0.000973914 6.27045e-19)
(0.400434 0.0348945 3.76498e-19)
(0.722373 0.0883487 -4.28917e-19)
(0.982571 0.137687 5.32641e-19)
(1.15198 0.170057 -3.14819e-21)
(1.24565 0.185281 4.81868e-19)
(1.28908 0.187932 3.15052e-19)
(1.30403 0.182958 2.80037e-19)
(1.30497 0.174043 -2.70357e-19)
(1.29998 0.163409 1.89423e-19)
(1.29295 0.152206 2.00466e-19)
(1.28546 0.14096 3.3677e-19)
(1.27805 0.129898 -1.78468e-19)
(1.27086 0.119122 -2.52255e-22)
(1.2639 0.108662 -1.72664e-19)
(1.25711 0.0986823 6.66612e-21)
(1.25064 0.0886587 4.12894e-21)
(1.24388 0.0804607 -5.48619e-20)
(1.23921 0.069435 -6.32327e-20)
(-0.0141821 0.00734038 -2.26573e-19)
(0.161694 -0.00152638 -2.53414e-19)
(0.481253 0.0468528 -1.30041e-20)
(0.809214 0.107613 4.06587e-19)
(1.05087 0.156809 -3.983e-19)
(1.19555 0.185659 -4.3585e-19)
(1.26833 0.1968 1.6684e-19)
(1.29759 0.196203 -1.97425e-19)
(1.30434 0.189107 -1.25834e-19)
(1.3011 0.178951 4.92856e-20)
(1.2942 0.167614 -4.28855e-19)
(1.28633 0.155986 3.96067e-19)
(1.27849 0.144451 -3.84552e-20)
(1.27092 0.133165 -8.86353e-20)
(1.26366 0.122203 8.01004e-20)
(1.25668 0.111589 -1.22527e-19)
(1.24993 0.101431 -1.09764e-19)
(1.24348 0.0913715 -6.53407e-21)
(1.23695 0.0828194 -1.5999e-19)
(1.23208 0.0719565 1.16693e-21)
(-0.00351045 0.00342179 2.61043e-19)
(0.212004 -0.00115374 4.60313e-19)
(0.564338 0.0624202 -6.24249e-19)
(0.889465 0.128117 -2.33059e-19)
(1.10877 0.175594 -1.0602e-19)
(1.22932 0.200307 6.1054e-19)
(1.28372 0.207396 -1.63244e-19)
(1.30153 0.203859 -1.01907e-19)
(1.30214 0.19495 -1.41792e-19)
(1.29599 0.183756 1.70814e-19)
(1.28783 0.171809 6.34976e-20)
(1.27944 0.159783 -7.43264e-20)
(1.27136 0.147951 -1.99985e-19)
(1.2637 0.136425 2.05451e-20)
(1.2564 0.125254 -8.71098e-20)
(1.24942 0.114471 1.56713e-19)
(1.24271 0.104107 3.87172e-20)
(1.23631 0.0939984 4.09582e-20)
(1.22996 0.085088 5.59976e-20)
(1.22494 0.0743171 -1.63633e-19)
(0.00990617 -0.000350096 -4.91262e-19)
(0.268328 0.00286647 -2.8717e-20)
(0.647141 0.0809931 -9.54403e-20)
(0.961862 0.149366 2.75456e-19)
(1.15678 0.193867 -9.56769e-20)
(1.25465 0.214065 -2.68302e-19)
(1.29332 0.217254 -3.77895e-19)
(1.30207 0.211089 2.65838e-19)
(1.29818 0.200622 -3.12779e-19)
(1.29004 0.188529 1.55754e-19)
(1.28105 0.176023 9.19121e-20)
(1.27232 0.163602 -4.84396e-20)
(1.2641 0.151459 1.14653e-19)
(1.25637 0.139671 1.29302e-19)
(1.24905 0.128275 -2.76227e-19)
(1.24209 0.117291 2.0853e-19)
(1.23544 0.106729 1.85787e-20)
(1.2291 0.0965201 3.63744e-20)
(1.22292 0.0872551 1.76566e-19)
(1.21778 0.0765776 4.4417e-20)
(0.0264055 -0.00369063 1.46036e-19)
(0.329724 0.0110441 -5.97781e-19)
(0.72738 0.101948 5.65391e-19)
(1.02582 0.171018 2.58922e-19)
(1.19569 0.211548 -1.93855e-19)
(1.27288 0.227037 -3.20615e-19)
(1.29837 0.226545 1.10705e-20)
(1.30011 0.218041 -6.34139e-20)
(1.29298 0.206214 5.37992e-19)
(1.28349 0.193311 -2.46042e-19)
(1.27396 0.180266 -2.83935e-20)
(1.26501 0.167439 6.53627e-20)
(1.25669 0.154964 -4.07471e-20)
(1.24892 0.142895 -8.40343e-20)
(1.24162 0.131254 2.37764e-19)
(1.23469 0.120053 -1.96519e-19)
(1.22811 0.109283 2.42589e-20)
(1.22185 0.0989436 -1.12222e-19)
(1.21581 0.0893407 -1.1943e-19)
(1.21061 0.0787228 -3.89804e-20)
(0.0462512 -0.00621653 -1.05438e-19)
(0.394871 0.0235227 2.50007e-19)
(0.803229 0.124738 -2.28831e-19)
(1.08126 0.192835 -2.38272e-19)
(1.22644 0.228617 3.97237e-19)
(1.28522 0.239341 4.22908e-19)
(1.2999 0.23542 2.05058e-19)
(1.2963 0.224829 -3.48806e-21)
(1.28687 0.211785 -5.2864e-19)
(1.27647 0.198121 4.47698e-20)
(1.26659 0.184537 1.69228e-20)
(1.2575 0.171286 1.14839e-19)
(1.24914 0.158458 1.88946e-19)
(1.24137 0.146087 -9.98725e-21)
(1.23409 0.134185 -4.35746e-20)
(1.22722 0.122749 1.76468e-19)
(1.22072 0.11177 -1.15996e-19)
(1.21455 0.101267 1.43584e-19)
(1.20865 0.0913389 -1.29294e-20)
(1.20341 0.080771 1.49139e-19)
(0.0695809 -0.00746522 1.83538e-19)
(0.462229 0.0401073 9.79898e-20)
(0.873377 0.148915 -2.24756e-19)
(1.12839 0.214643 -2.797e-19)
(1.24999 0.245091 -1.99597e-20)
(1.29272 0.251094 -4.64886e-20)
(1.29867 0.244001 2.29108e-19)
(1.29108 0.231531 1.60138e-19)
(1.28006 0.217367 1.72764e-19)
(1.26906 0.202963 -6.28687e-20)
(1.25897 0.188826 8.31068e-20)
(1.24981 0.175129 -7.67292e-20)
(1.24143 0.161927 -1.56667e-19)
(1.23368 0.149237 1.90916e-20)
(1.22645 0.137058 4.10228e-20)
(1.21966 0.125377 4.91945e-20)
(1.21325 0.114181 6.5947e-20)
(1.20719 0.103491 -3.99366e-20)
(1.20142 0.0932604 7.75287e-20)
(1.19619 0.0827239 -1.7998e-19)
(0.0963654 -0.0069416 2.42513e-19)
(0.530199 0.060385 -2.2164e-20)
(0.937001 0.174119 3.15766e-19)
(1.16766 0.236309 1.936e-19)
(1.26728 0.26101 8.70688e-20)
(1.29624 0.262405 -2.14264e-19)
(1.2953 0.252384 -2.03925e-19)
(1.28479 0.238197 -5.681e-20)
(1.27268 0.222971 -1.53409e-20)
(1.26131 0.207828 -1.49591e-20)
(1.2511 0.193119 -2.00487e-19)
(1.24191 0.178953 4.41304e-20)
(1.23356 0.165358 7.99419e-20)
(1.22587 0.152333 2.32031e-21)
(1.21871 0.139864 9.72118e-21)
(1.21201 0.127928 -2.50575e-20)
(1.20571 0.116512 -6.10744e-20)
(1.19976 0.105615 -5.09686e-20)
(1.19414 0.0951038 -1.07128e-19)
(1.18894 0.084587 1.66574e-20)
(0.126395 -0.00418493 -1.48952e-19)
(0.597252 0.0838562 9.40325e-20)
(0.993683 0.200058 -3.90453e-20)
(1.19958 0.257723 9.2454e-21)
(1.27915 0.276416 -3.58221e-19)
(1.29652 0.273365 8.90689e-20)
(1.29022 0.260635 5.74625e-20)
(1.27763 0.244851 -3.96958e-20)
(1.2648 0.228594 1.42598e-19)
(1.25322 0.212699 -2.19826e-21)
(1.24297 0.197396 6.27407e-20)
(1.23381 0.182741 7.36153e-20)
(1.22552 0.168736 -5.0655e-20)
(1.21791 0.155362 -6.00316e-20)
(1.21086 0.142594 -3.25839e-20)
(1.20428 0.130397 -3.52444e-20)
(1.1981 0.118755 3.10368e-20)
(1.19227 0.107637 3.60552e-20)
(1.18679 0.0968728 5.83466e-20)
(1.18165 0.0863629 6.77484e-20)
(0.159291 0.0011651 -6.95206e-20)
(0.662022 0.110021 -1.38073e-20)
(1.0433 0.2265 -1.27351e-19)
(1.22477 0.278797 1.188e-19)
(1.28638 0.291352 2.57177e-19)
(1.29414 0.284046 1.40872e-19)
(1.28376 0.268794 -6.36726e-20)
(1.26972 0.251498 -3.70809e-20)
(1.25647 0.234219 -8.44147e-20)
(1.2448 0.217556 8.14096e-20)
(1.23458 0.201635 -3.22753e-21)
(1.22549 0.186472 -4.05265e-20)
(1.2173 0.172043 -4.78328e-20)
(1.20981 0.15831 -4.60232e-20)
(1.20289 0.145235 9.59799e-20)
(1.19644 0.132774 -3.26034e-20)
(1.19041 0.120903 -3.55344e-20)
(1.18472 0.109557 -6.12442e-21)
(1.17938 0.0985662 -6.41377e-21)
(1.17431 0.088052 -3.75803e-20)
(0.194538 0.00932473 -6.92226e-21)
(0.723351 0.13841 -9.32251e-20)
(1.08595 0.253251 4.35353e-20)
(1.24383 0.299458 -1.56005e-19)
(1.28959 0.305856 -1.09399e-19)
(1.28955 0.294499 1.6298e-20)
(1.27614 0.276879 -1.71207e-21)
(1.26116 0.258126 7.3351e-21)
(1.24769 0.239823 2.28621e-20)
(1.23605 0.22237 4.05419e-20)
(1.22591 0.205813 -5.52804e-20)
(1.21696 0.190126 2.35455e-20)
(1.2089 0.175261 4.12639e-20)
(1.20157 0.161162 -8.9916e-21)
(1.1948 0.147776 -4.03328e-20)
(1.18852 0.13505 2.28112e-20)
(1.18263 0.122948 2.6138e-20)
(1.17711 0.111373 2.66512e-20)
(1.17192 0.100183 -1.36922e-20)
(1.16693 0.0896543 5.02948e-21)
(0.231522 0.0203575 7.7199e-20)
(0.780314 0.168589 -1.08707e-19)
(1.12184 0.280139 -1.49386e-20)
(1.25734 0.31965 6.3789e-20)
(1.28937 0.31995 1.03266e-19)
(1.2831 0.304752 -3.16986e-20)
(1.26753 0.284888 -9.06778e-20)
(1.25199 0.264711 8.99983e-20)
(1.23848 0.245374 -2.43287e-20)
(1.22695 0.227113 -2.80278e-20)
(1.21697 0.209902 2.55464e-20)
(1.20819 0.19368 -1.27143e-20)
(1.20032 0.178372 -3.78837e-21)
(1.19317 0.163902 1.00374e-20)
(1.1866 0.150203 1.44601e-20)
(1.18049 0.137214 1.85892e-20)
(1.17479 0.12488 -3.33634e-20)
(1.16943 0.113081 -8.38568e-21)
(1.1644 0.10172 -2.08881e-21)
(1.15951 0.0911664 1.02496e-20)
(0.269535 0.0341975 -4.23738e-20)
(0.832205 0.200149 7.55751e-20)
(1.15126 0.307005 -9.46262e-21)
(1.26588 0.339323 -2.05198e-20)
(1.28618 0.333648 -6.71995e-20)
(1.27506 0.314813 3.15376e-20)
(1.25803 0.292803 2.07415e-20)
(1.24224 0.271222 -2.29522e-20)
(1.22884 0.250838 -3.74898e-21)
(1.2175 0.231751 1.09454e-20)
(1.20775 0.213875 -1.186e-20)
(1.19919 0.19711 5.9779e-21)
(1.19156 0.181354 -1.30211e-20)
(1.18463 0.166513 7.48315e-21)
(1.17828 0.152504 1.55369e-21)
(1.17238 0.139255 -6.89943e-21)
(1.16687 0.126693 3.98653e-21)
(1.1617 0.114677 -6.25138e-21)
(1.15683 0.10317 2.04655e-21)
(1.15205 0.0925843 7.36952e-21)
(0.307778 0.0506818 -3.0453e-20)
(0.878534 0.232701 6.62267e-20)
(1.17454 0.333685 -6.98779e-21)
(1.26995 0.358434 -2.63408e-20)
(1.2804 0.346952 -6.17158e-20)
(1.26562 0.324673 3.09984e-20)
(1.24771 0.300596 2.01327e-20)
(1.23192 0.277619 -1.80296e-20)
(1.21875 0.256176 -2.11565e-22)
(1.2077 0.236252 8.48174e-21)
(1.19823 0.217702 -7.48816e-21)
(1.18996 0.200391 -2.05853e-21)
(1.1826 0.184188 -4.49431e-21)
(1.17594 0.168977 2.69009e-21)
(1.16984 0.154663 1.75357e-21)
(1.16418 0.14116 -6.93013e-21)
(1.15888 0.128375 7.77374e-21)
(1.15393 0.116157 -7.5049e-21)
(1.14922 0.104526 -1.84596e-21)
(1.14455 0.093901 4.75952e-21)
(0.345463 0.0695533 8.81636e-20)
(0.918923 0.265838 -8.93456e-20)
(1.19193 0.359992 -6.45666e-20)
(1.26998 0.376937 8.41493e-20)
(1.27233 0.359854 9.5819e-20)
(1.25493 0.334315 -3.90273e-20)
(1.23661 0.308232 -6.44782e-20)
(1.22104 0.283863 7.04021e-20)
(1.20822 0.261353 -1.95917e-20)
(1.19753 0.240585 -2.28616e-20)
(1.18843 0.221357 1.78765e-20)
(1.1805 0.203501 -3.43604e-21)
(1.17346 0.186854 -8.30606e-21)
(1.16711 0.171278 2.62514e-21)
(1.16129 0.156667 1.28864e-20)
(1.15589 0.142919 1.51948e-20)
(1.15084 0.129918 -1.90912e-20)
(1.14611 0.117512 -5.00234e-21)
(1.14159 0.105782 -3.31485e-21)
(1.13702 0.095112 7.08315e-21)
(0.382032 0.0905815 3.9293e-20)
(0.953436 0.29929 -1.41961e-19)
(1.20391 0.385817 3.99048e-20)
(1.26642 0.3948 -1.04218e-19)
(1.26225 0.372326 -1.21363e-19)
(1.2431 0.343687 1.96719e-20)
(1.22476 0.315648 7.84482e-21)
(1.20959 0.289894 -7.97596e-21)
(1.19724 0.266314 2.60534e-20)
(1.18701 0.244702 -9.70865e-22)
(1.17833 0.224802 -1.68144e-20)
(1.17081 0.206408 3.43232e-21)
(1.16415 0.189324 3.29268e-20)
(1.15814 0.173393 -2.87419e-21)
(1.15264 0.158496 -1.13006e-20)
(1.14752 0.144515 -6.65835e-21)
(1.14273 0.131307 2.87488e-20)
(1.13825 0.118725 1.24332e-20)
(1.13395 0.106933 -7.27418e-21)
(1.12947 0.096218 -8.77164e-21)
(0.416843 0.113517 -8.72199e-20)
(0.982038 0.332768 -1.69577e-20)
(1.2108 0.410998 -1.2427e-19)
(1.25962 0.411963 1.39426e-19)
(1.25036 0.384328 1.72968e-19)
(1.2302 0.352741 6.69436e-20)
(1.21218 0.322793 -1.20008e-20)
(1.19758 0.295665 1.35622e-20)
(1.18581 0.271019 -7.00139e-20)
(1.17612 0.24857 4.99425e-20)
(1.16795 0.228006 -1.50081e-20)
(1.16089 0.209084 -1.15359e-20)
(1.15466 0.191578 -3.15067e-20)
(1.14904 0.175303 -9.5517e-21)
(1.14389 0.160135 1.47491e-20)
(1.13909 0.145936 -9.77116e-21)
(1.13459 0.132534 -1.27947e-20)
(1.13039 0.119787 3.65636e-21)
(1.12628 0.10797 -2.1861e-21)
(1.12193 0.0972159 -1.95845e-20)
(0.449302 0.138092 -1.28981e-19)
(1.0048 0.365996 2.4843e-20)
(1.21293 0.435386 6.00804e-20)
(1.24989 0.428371 -6.593e-20)
(1.23683 0.395811 -2.36704e-19)
(1.2163 0.361414 1.93532e-20)
(1.19889 0.329602 8.47115e-20)
(1.18501 0.301118 -3.14083e-20)
(1.17394 0.27542 6.68843e-20)
(1.16489 0.252146 -1.80828e-20)
(1.1573 0.230935 4.40726e-20)
(1.15076 0.211499 5.99581e-21)
(1.14501 0.193588 9.90805e-22)