/*--------------------------------*- C++ -*----------------------------------*\
  =========                 |
  \\      /  F ield         | OpenFOAM: The Open Source CFD Toolbox
   \\    /   O peration     | Website:  https://openfoam.org
    \\  /    A nd           | Version:  7
     \\/     M anipulation  |
\*---------------------------------------------------------------------------*/
FoamFile
{
    version     2.0;
    format      ascii;
    class       surfaceScalarField;
    location    "10";
    object      phi;
}
// * * * * * * * * * * * * * * * * * * * * * * * * * * * * * * * * * * * * * //

dimensions      [0 3 -1 0 0 0 0];

internalField   nonuniform List<scalar> 
5139
(
0.0314966
-0.00105484
0.0316828
-0.000910596
0.0318579
-0.000764666
0.0320214
-0.00061708
0.0321732
-0.000467883
0.0323127
-0.000317124
0.0324399
-0.000164862
0.0325542
-1.1165e-05
0.0326555
0.000143894
0.0327434
0.000299918
0.0328177
0.000457443
0.0328782
0.000616058
0.0329245
0.000775659
0.0329565
0.000936134
0.032974
0.00109736
0.0329769
0.00125923
0.0329649
0.00142159
0.00158433
0.00163177
4.41151e-05
0.00159076
4.10046e-05
0.00155291
3.78516e-05
0.00151825
3.4657e-05
0.00148683
3.14211e-05
0.00145869
2.81449e-05
0.00143386
2.48291e-05
0.00141238
2.14747e-05
0.0013943
1.80825e-05
0.00137965
1.4654e-05
0.00136846
1.11903e-05
0.00136076
7.6924e-06
0.0013566
4.16195e-06
0.001356
6.00579e-07
-2.99031e-06
0.00135899
0.00161253
8.77021e-05
0.00157202
8.15171e-05
0.00153463
7.5248e-05
0.00150039
6.88958e-05
0.00146935
6.24618e-05
0.00144154
5.59473e-05
0.00141702
4.93545e-05
0.00139581
4.26848e-05
0.00137795
3.59404e-05
0.00136348
2.91234e-05
0.00135243
2.22364e-05
0.00134485
1.52818e-05
0.00134074
8.26242e-06
0.00134016
1.18128e-06
-5.95818e-06
0.00134313
0.00159353
0.000130765
0.0015535
0.000121542
0.00151656
0.000112193
0.00148274
0.00010272
0.00145207
9.3125e-05
0.00142461
8.34107e-05
0.00140038
7.3579e-05
0.00137944
6.36329e-05
0.0013618
5.35756e-05
0.00134751
4.34099e-05
0.00133661
3.31398e-05
0.00132912
2.2769e-05
0.00132508
1.23017e-05
0.00132452
1.74237e-06
-8.90411e-06
0.00132747
0.00157475
0.00017331
0.00153521
0.000161083
0.00149871
0.00014869
0.0014653
0.000136133
0.00143501
0.000123415
0.00140788
0.000110538
0.00138395
9.75053e-05
0.00136326
8.43216e-05
0.00134585
7.099e-05
0.00133174
5.75152e-05
0.00132098
4.39019e-05
0.0013136
3.01552e-05
0.00130962
1.62804e-05
0.00130908
2.28368e-06
-1.18283e-05
0.001312
0.00155619
0.00021534
0.00151713
0.000200145
0.00148107
0.000184744
0.00144807
0.00016914
0.00141815
0.000153334
0.00139135
0.000137332
0.00136772
0.000121137
0.00134729
0.000104753
0.00133009
8.81862e-05
0.00131617
7.14412e-05
0.00130555
5.4524e-05
0.00129826
3.74411e-05
0.00129434
2.01991e-05
0.00129382
2.80556e-06
-1.47312e-05
0.00129672
0.00153785
0.000256862
0.00149926
0.000238734
0.00146365
0.00022036
0.00143104
0.000201743
0.00140149
0.000182887
0.00137503
0.000163796
0.00135169
0.000144476
0.00133151
0.00012493
0.00131453
0.000105166
0.00130078
8.51896e-05
0.0012903
6.50077e-05
0.00128311
4.46278e-05
0.00127925
2.40584e-05
0.00127875
3.30815e-06
-1.76131e-05
0.00128163
0.00151973
0.000297879
0.00148161
0.000276852
0.00144643
0.000255541
0.00141423
0.000233948
0.00138504
0.000212077
0.0013589
0.000189935
0.00133585
0.000167525
0.00131592
0.000144856
0.00129916
0.000121932
0.00128558
9.87622e-05
0.00127524
7.53542e-05
0.00126815
5.17165e-05
0.00126435
2.78589e-05
0.00126386
3.79161e-06
-2.04742e-05
0.00126673
0.00150182
0.000338397
0.00146417
0.000314506
0.00142942
0.000290291
0.00139761
0.000265757
0.00136878
0.000240908
0.00134296
0.00021575
0.0013202
0.000190289
0.00130052
0.000164532
0.00128397
0.000138486
0.00127057
0.000112161
0.00126036
8.55652e-05
0.00125337
5.87083e-05
0.00124962
3.16013e-05
0.00124916
4.25603e-06
-2.33149e-05
0.001252
0.00148413
0.000378422
0.00144694
0.0003517
0.00141261
0.000324617
0.00138119
0.000297176
0.00135272
0.000269384
0.00132722
0.000241246
0.00130474
0.000212769
0.00128531
0.000183962
0.00126896
0.000154831
0.00125574
0.000125388
0.00124566
9.56421e-05
0.00123877
6.5604e-05
0.00123508
3.52862e-05
0.00123463
4.70177e-06
-2.61351e-05
0.00123745
0.00146665
0.000417958
0.00142991
0.000388439
0.001396
0.000358521
0.00136497
0.000328209
0.00133685
0.000297508
0.00131167
0.000266426
0.00128947
0.00023497
0.00127028
0.000203148
0.00125414
0.000170969
0.00124109
0.000138445
0.00123114
0.000105586
0.00122434
7.24048e-05
0.00122071
3.89143e-05
0.00122028
5.12908e-06
-2.89353e-05
0.00122309
0.00144937
0.00045701
0.00141308
0.000424727
0.00137959
0.000392008
0.00134894
0.000358858
0.00132117
0.000325285
0.0012963
0.000291293
0.00127438
0.000256893
0.00125543
0.000222092
0.0012395
0.000186902
0.00122661
0.000151334
0.0012168
0.000115399
0.00121009
7.9112e-05
0.00120652
4.24863e-05
0.00120611
5.53803e-06
-3.17153e-05
0.00120889
0.0014323
0.000495584
0.00139645
0.000460569
0.00136338
0.000425083
0.00133311
0.00038913
0.00130568
0.000352717
0.00128112
0.000315851
0.00125947
0.000278542
0.00124076
0.000240799
0.00122503
0.000202633
0.00121231
0.000164057
0.00120263
0.000125083
0.00119601
8.57266e-05
0.00119249
4.60028e-05
0.0011921
5.92918e-06
-3.44758e-05
0.00119486
0.00141543
0.000533684
0.00138003
0.000495971
0.00134736
0.000457751
0.00131746
0.000419028
0.00129037
0.000379809
0.00126612
0.000340103
0.00124474
0.00029992
0.00122627
0.000259269
0.00121074
0.000218164
0.00119818
0.000176615
0.00118862
0.000134639
0.0011821
9.22497e-05
0.00117864
4.94648e-05
0.00117827
6.30275e-06
-3.72165e-05
0.00118101
0.00139876
0.000571317
0.0013638
0.000530938
0.00133153
0.000490015
0.001302
0.000448555
0.00127525
0.000406565
0.0012513
0.000364054
0.00123019
0.000321031
0.00121195
0.000277507
0.00119662
0.000233496
0.00118422
0.000189012
0.00117479
0.000144068
0.00116836
9.86826e-05
0.00116495
5.28729e-05
0.00116459
6.65889e-06
-3.99376e-05
0.00116731
0.00138229
0.000608487
0.00134776
0.000565473
0.00131589
0.000521881
0.00128673
0.000477717
0.00126031
0.000432989
0.00123665
0.000387705
0.00121581
0.000341876
0.0011978
0.000295515
0.00118266
0.000248634
0.00117043
0.000201248
0.00116112
0.000153373
0.00115478
0.000105026
0.00115142
5.62278e-05
0.00115108
6.99823e-06
-4.26392e-05
0.00115379
0.00136602
0.0006452
0.00133191
0.000599583
0.00130044
0.000553353
0.00127164
0.000506518
0.00124554
0.000459084
0.00122219
0.000411061
0.0012016
0.000362461
0.00118382
0.000313295
0.00116888
0.000263579
0.0011568
0.000213326
0.00114762
0.000162554
0.00114136
0.000111282
0.00113806
5.95304e-05
0.00113774
7.32097e-06
-4.53214e-05
0.00114042
0.00134994
0.000681461
0.00131625
0.000633272
0.00128517
0.000584436
0.00125673
0.000534961
0.00123096
0.000484854
0.00120789
0.000434126
0.00118757
0.000382787
0.00117001
0.000330851
0.00115526
0.000278333
0.00114334
0.000225248
0.00113428
0.000171614
0.00112811
0.000117451
0.00112486
6.27813e-05
0.00112455
7.62753e-06
-4.79843e-05
0.00112721
0.00133406
0.000717275
0.00130078
0.000666544
0.00127009
0.000615134
0.001242
0.000563051
0.00121655
0.000510304
0.00119377
0.000456902
0.0011737
0.000402858
0.00115636
0.000348185
0.0011418
0.000292898
0.00113003
0.000237015
0.00112109
0.000180554
0.00111501
0.000123535
0.00111181
6.59815e-05
0.00111152
7.91816e-06
-5.06277e-05
0.00111416
0.00131836
0.000752647
0.0012855
0.000699406
0.00125518
0.000645452
0.00122744
0.000590793
0.00120231
0.000535437
0.00117982
0.000479394
0.00116
0.000422677
0.00114288
0.0003653
0.0011285
0.000307279
0.00111689
0.00024863
0.00110806
0.000189375
0.00110207
0.000129534
0.00109892
6.91318e-05
0.00109864
8.19356e-06
-5.32518e-05
0.00110126
0.00130285
0.000787583
0.0012704
0.000731861
0.00124046
0.000675394
0.00121306
0.00061819
0.00118824
0.000560257
0.00116603
0.000501605
0.00114646
0.000442247
0.00112956
0.000382199
0.00111536
0.000321475
0.0011039
0.000260095
0.00109519
0.00019808
0.00108928
0.000135451
0.00108617
7.22329e-05
0.00108591
8.45388e-06
-5.58567e-05
0.00108852
0.00128753
0.000822087
0.00125548
0.000763915
0.00122591
0.000704966
0.00119885
0.000645247
0.00117434
0.000584767
0.0011524
0.000523538
0.00113308
0.000461572
0.00111639
0.000398884
0.00110238
0.000335491
0.00109106
0.000271412
0.00108247
0.000206669
0.00107664
0.000141285
0.00107359
7.52857e-05
0.00107334
8.69953e-06
-5.84422e-05
0.00107593
0.00127239
0.000856166
0.00124073
0.000795572
0.00121153
0.00073417
0.00118481
0.000671968
0.0011606
0.000608973
0.00113894
0.000545197
0.00111986
0.000480654
0.00110339
0.000415358
0.00108955
0.000349328
0.00107838
0.000282583
0.0010699
0.000215146
0.00106415
0.000147039
0.00106114
7.82911e-05
0.00106091
8.93101e-06
-6.10084e-05
0.00106348
0.00125743
0.000889823
0.00122617
0.000826838
0.00119733
0.000763013
0.00117094
0.000698356
0.00114703
0.000632877
0.00112564
0.000566585
0.0011068
0.000499496
0.00109054
0.000431625
0.00107687
0.000362989
0.00106585
0.00029361
0.00105748
0.00022351
0.00105181
0.000152714
0.00104885
8.12498e-05
0.00104863
9.14876e-06
-6.35553e-05
0.00105118
0.00124266
0.000923065
0.00121178
0.000857717
0.00118329
0.000791498
0.00115723
0.000724417
0.00113362
0.000656483
0.0011125
0.000587706
0.0010939
0.000518102
0.00107784
0.000447686
0.00106435
0.000376476
0.00105346
0.000304494
0.00104521
0.000231764
0.00103961
0.00015831
0.0010367
8.41625e-05
0.0010365
9.3532e-06
-6.60827e-05
0.00103902
0.00122805
0.000955896
0.00119756
0.000888213
0.00116943
0.000819631
0.00114369
0.000750155
0.00112038
0.000679795
0.00109952
0.000608564
0.00108115
0.000536475
0.00106529
0.000463545
0.00105197
0.000389792
0.00104123
0.000315238
0.00103308
0.000239909
0.00102756
0.000163829
0.00102469
8.70302e-05
0.0010245
9.54478e-06
-6.85906e-05
0.00102701
0.00121363
0.000988322
0.00118351
0.000918333
0.00115573
0.000847414
0.00113031
0.000775573
0.00110729
0.000702818
0.00108669
0.000629161
0.00106855
0.000554618
0.00105289
0.000479203
0.00103974
0.000402938
0.00102913
0.000325844
0.0010211
0.000247947
0.00101565
0.000169273
0.00101283
8.98538e-05
0.00101265
9.72383e-06
-7.10793e-05
0.00101514
0.00119938
0.00102035
0.00116963
0.00094808
0.00114219
0.000874854
0.00111709
0.000800675
0.00109435
0.000725554
0.00107401
0.000649502
0.0010561
0.000572533
0.00104063
0.000494665
0.00102765
0.000415918
0.00101718
0.000336314
0.00100925
0.000255879
0.00100388
0.000174642
0.0010011
9.2634e-05
0.00100094
9.8908e-06
-7.35483e-05
0.0010034
0.0011853
0.00105198
0.00115592
0.000977459
0.00112882
0.000901954
0.00110403
0.000825467
0.00108157
0.000748008
0.00106149
0.000669589
0.00104379
0.000590225
0.00102853
0.000509933
0.00101571
0.000428733
0.00100538
0.000346649
0.000997547
0.000263708
0.000992252
0.000179937
0.000989514
9.53715e-05
0.000989358
1.00464e-05
-7.59979e-05
0.000991808
0.00117138
0.00114237
0.00100648
0.0011156
0.000928718
0.00109112
0.000849951
0.00106894
0.000770183
0.00104911
0.000689426
0.00103164
0.000607695
0.00101656
0.000525008
0.00100391
0.000441386
0.000993706
0.000356852
0.00098598
0.000271434
0.000980756
0.000185161
0.00097806
9.80673e-05
0.000977916
1.01907e-05
-7.84278e-05
0.000980346
0.00112898
0.00103513
0.00110255
0.000955152
0.00107837
0.000874132
0.00105647
0.000792082
0.00103688
0.000709016
0.00101963
0.000624947
0.00100474
0.000539895
0.000992246
0.000453879
0.000982174
0.000366925
0.000974548
0.000279059
0.000969396
0.000190313
0.000966741
0.000100722
0.000966608
1.03241e-05
-8.0838e-05
0.000969018
0.00111576
0.00106344
0.00108965
0.000981259
0.00106577
0.000898013
0.00104414
0.000813711
0.00102479
0.000728363
0.00100776
0.000641985
0.000993056
0.000554595
0.000980721
0.000466215
0.000970777
0.000376869
0.000963251
0.000286585
0.000958168
0.000195396
0.000955554
0.000103337
0.00095543
1.04474e-05
-8.32287e-05
0.000957821
0.00110269
0.00109139
0.00107691
0.00100704
0.00105332
0.0009216
0.00103196
0.000835071
0.00101285
0.00074747
0.000996028
0.00065881
0.000981511
0.000569111
0.000969331
0.000478395
0.000959514
0.000386686
0.000952086
0.000294013
0.000947072
0.00020041
0.000944497
0.000105912
0.000944383
1.05608e-05
-8.55994e-05
0.000946754
0.00108978
0.001119
0.00106432
0.00103251
0.00104102
0.000944895
0.00101992
0.000856168
0.00100105
0.00076634
0.000984438
0.000675426
0.000970103
0.000583446
0.000958076
0.000490422
0.000948384
0.000396378
0.000941052
0.000301345
0.000936105
0.000205357
0.000933569
0.000108449
0.000933465
1.06645e-05
-8.79504e-05
0.000935816
0.00107703
0.00114627
0.00105188
0.00105766
0.00102887
0.000967903
0.00100803
0.000877004
0.000989395
0.000784976
0.000972985
0.000691836
0.000958829
0.000597602
0.000946953
0.000502297
0.000937384
0.000405947
0.000930147
0.000308583
0.000925267
0.000210237
0.000922768
0.000110948
0.000922673
1.07593e-05
-9.02816e-05
0.000925004
0.00106443
0.00117321
0.00103958
0.00108251
0.00101686
0.000990628
0.000996281
0.000897582
0.000977875
0.000803382
0.000961668
0.000708042
0.000947688
0.000611582
0.000935961
0.000514024
0.000926513
0.000415396
0.000919369
0.000315726
0.000914554
0.000215051
0.000912092
0.00011341
0.000912006
1.08454e-05
-9.25929e-05
0.000914318
0.00105198
0.00119981
0.00102744
0.00110704
0.00100499
0.00101307
0.00098467
0.000917907
0.000966491
0.000821561
0.000950485
0.000724048
0.000936679
0.000625389
0.000925098
0.000525605
0.000915769
0.000424725
0.000908717
0.000322778
0.000903967
0.000219802
0.000901541
0.000115835
0.000901463
1.09232e-05
-9.48844e-05
0.000903755
0.00103968
0.00122609
0.00101544
0.00113128
0.000993272
0.00103524
0.000973197
0.000937983
0.000955242
0.000839516
0.000939434
0.000739856
0.000925799
0.000639024
0.000914363
0.000537041
0.000905151
0.000433936
0.00089819
0.00032974
0.000893502
0.000224489
0.000891112
0.000118225
0.000891043
1.09931e-05
-9.71557e-05
0.000893314
0.00102752
0.00125205
0.00100359
0.00115522
0.000981689
0.00105714
0.00096186
0.000957811
0.000944126
0.00085725
0.000928513
0.00075547
0.000915047
0.00065249
0.000903753
0.000548335
0.000894658
0.000443031
0.000887785
0.000336612
0.00088316
0.000229115
0.000880805
0.00012058
0.000880742
1.10554e-05
-9.94072e-05
0.000882994
0.00101552
0.00127768
0.000991872
0.00117886
0.000970243
0.00107877
0.000950658
0.000977397
0.000933142
0.000874766
0.000917721
0.000770891
0.000904421
0.00066579
0.000893268
0.000559488
0.000884287
0.000452013
0.000877502
0.000343397
0.000872937
0.000233679
0.000870616
0.000122901
0.000870561
1.11107e-05
-0.000101639
0.000872793
0.00100366
0.00130301
0.000980299
0.00120222
0.000958935
0.00110013
0.000939589
0.000996742
0.000922288
0.000892067
0.000907056
0.000786122
0.000893921
0.000678926
0.000882906
0.000570503
0.000874037
0.000460882
0.000867338
0.000350096
0.000862833
0.000238184
0.000860546
0.000125188
0.000860498
1.11591e-05
-0.00010385
0.000862709
0.000991935
0.00132802
0.000968864
0.00122529
0.000947761
0.00112123
0.000928652
0.00101585
0.000911562
0.000909157
0.000896517
0.000801167
0.000883543
0.0006919
0.000872665
0.000581381
0.000863906
0.00046964
0.000857293
0.000356709
0.000852847
0.000242629
0.000850592
0.000127443
0.00085055
1.1201e-05
-0.000106041
0.000852742
0.000980356
0.00135273
0.000957565
0.00124808
0.00093672
0.00114208
0.000917844
0.00103473
0.000900963
0.000926038
0.000886103
0.000816027
0.000873288
0.000704715
0.000862543
0.000592126
0.000853894
0.000478289
0.000847364
0.00036324
0.000842976
0.000247017
0.000840754
0.000129666
0.000840718
1.1237e-05
-0.000108213
0.000842889
0.000968915
0.00137714
0.000946402
0.0012706
0.00092581
0.00116267
0.000907164
0.00105337
0.000890489
0.000942713
0.00087581
0.000830706
0.000863152
0.000717373
0.00085254
0.000602738
0.000843998
0.000486831
0.00083755
0.000369688
0.00083322
0.000251348
0.000831029
0.000131857
0.000830999
1.1267e-05
-0.000110364
0.00083315
0.000957611
0.00140125
0.000935372
0.00129283
0.00091503
0.00118301
0.000896611
0.00107179
0.000880139
0.000959185
0.000865639
0.000845206
0.000853136
0.000729876
0.000842654
0.00061322
0.000834218
0.000495267
0.000827851
0.000376055
0.000823576
0.000255622
0.000821416
0.000134017
0.000821391
1.12917e-05
-0.000112495
0.000823523
0.000946443
0.00142507
0.000924474
0.0013148
0.000904379
0.00120311
0.000886183
0.00108999
0.000869911
0.000975457
0.000855588
0.00085953
0.000843237
0.000742227
0.000832884
0.000623573
0.000824552
0.000503599
0.000818264
0.000382342
0.000814045
0.000259842
0.000811914
0.000136147
0.000811895
1.13111e-05
-0.000114606
0.000814006
0.000935408
0.0014486
0.000913705
0.00133651
0.000893854
0.00122296
0.000875878
0.00110796
0.000859804
0.000991532
0.000845654
0.000873679
0.000833454
0.000754427
0.000823227
0.0006338
0.000814998
0.000511829
0.000808789
0.000388551
0.000804623
0.000264008
0.000802523
0.000138248
0.000802508
1.13258e-05
-0.000116698
0.000804599
0.000924506
0.00147185
0.000903065
0.00135795
0.000883453
0.00124257
0.000865695
0.00112572
0.000849815
0.00100741
0.000835837
0.000887658
0.000823785
0.000766479
0.000813683
0.000643902
0.000805554
0.000519957
0.000799423
0.000394682
0.00079531
0.00026812
0.000793239
0.00014032
0.000793229
1.13359e-05
-0.000118769
0.0007953
0.000913734
0.00149481
0.000892552
0.00137913
0.000873177
0.00126195
0.000855633
0.00114327
0.000839944
0.0010231
0.000826135
0.000901467
0.000814229
0.000778385
0.00080425
0.000653881
0.000796221
0.000527986
0.000790165
0.000400738
0.000786105
0.00027218
0.000784062
0.000142363
0.000784056
1.13417e-05
-0.00012082
0.000786108
0.000903091
0.0015175
0.000882164
0.00140006
0.000863022
0.00128109
0.000845689
0.0011606
0.00083019
0.0010386
0.000816547
0.00091511
0.000804785
0.000790147
0.000794927
0.000663739
0.000786996
0.000535916
0.000781015
0.000406718
0.000777007
0.000276189
0.000774991
0.000144378
0.000774989
1.13435e-05
-0.000122851
0.000777021
0.000892575
0.00153992
0.000871899
0.00142073
0.000852987
0.0013
0.000835863
0.00117772
0.000820549
0.00105391
0.000807071
0.000928588
0.000795451
0.000801767
0.000785712
0.000673477
0.000777878
0.000543751
0.000771971
0.000412626
0.000768013
0.000280147
0.000766025
0.000146366
0.000766027
1.13415e-05
-0.000124862
0.000768038
0.000882184
0.00156207
0.000861756
0.00144116
0.000843071
0.00131868
0.000826152
0.00119464
0.000811023
0.00106904
0.000797706
0.000941905
0.000786226
0.000813248
0.000776605
0.000683098
0.000768866
0.000551489
0.000763031
0.00041846
0.000759123
0.000284056
0.000757161
0.000148328
0.000757167
1.1336e-05
-0.000126854
0.000759158
0.000871918
0.00158395
0.000851734
0.00146135
0.000833273
0.00133715
0.000816556
0.00121136
0.000801608
0.00108399
0.000788451
0.000955062
0.000777108
0.00082459
0.000767603
0.000692603
0.000759958
0.000559135
0.000754195
0.000424223
0.000750335
0.000287915
0.0007484
0.000150263
0.000748409
1.13274e-05
-0.000128825
0.00075038
0.000861774
0.00160557
0.000841831
0.00148129
0.00082359
0.00135539
0.000807073
0.00122787
0.000792303
0.00109876
0.000779303
0.000968062
0.000768097
0.000835797
0.000758706
0.000701994
0.000751153
0.000566687
0.000745461
0.000429916
0.000741649
0.000291727
0.000739739
0.000152173
0.000739751
1.13156e-05
-0.000130777
0.000741703
0.000851751
0.00162694
0.000832046
0.00150099
0.000814022
0.00137341
0.000797702
0.0012442
0.000783108
0.00111336
0.000770263
0.000980906
0.000759191
0.000846869
0.000749912
0.000711272
0.000742451
0.000574149
0.000736827
0.000435539
0.000733063
0.000295491
0.000731178
0.000154057
0.000731193
1.13009e-05
-0.00013271
0.000733125
0.000841847
0.00164804
0.000822376
0.00152046
0.000804567
0.00139122
0.00078844
0.00126032
0.00077402
0.00112778
0.000761328
0.000993598
0.000750388
0.00085781
0.000741221
0.00072044
0.000733849
0.000581521
0.000728293
0.000441094
0.000724576
0.000299208
0.000722716
0.000155917
0.000722733
1.12837e-05
-0.000134622
0.000724646
0.000832061
0.0016689
0.000812821
0.0015397
0.000795223
0.00140882
0.000779288
0.00127626
0.000765039
0.00114202
0.000752498
0.00100614
0.000741687
0.00086862
0.00073263
0.000729498
0.000725346
0.000588805
0.000719858
0.000446583
0.000716186
0.00030288
0.000714351
0.000157753
0.00071437
1.12641e-05
-0.000136515
0.000716263
0.000822391
0.00168951
0.000803379
0.00155871
0.000785989
0.00142621
0.000770243
0.001292
0.000756163
0.0011561
0.00074377
0.00101853
0.000733088
0.000879303
0.000724138
0.000738448
0.000716942
0.000596001
0.00071152
0.000452004
0.000707893
0.000306507
0.000706081
0.000159565
0.000706103
1.12422e-05
-0.000138389
0.000707977
0.000812837
0.00170988
0.000794049
0.0015775
0.000776865
0.00144339
0.000761304
0.00130756
0.00074739
0.00117002
0.000735145
0.00103078
0.000724589
0.000889858
0.000715745
0.000747291
0.000708635
0.000603112
0.000703278
0.000457361
0.000699696
0.000310089
0.000697907
0.000161354
0.000697931
1.12183e-05
-0.000140243
0.000699785
0.000803395
0.00173001
0.000784829
0.00159607
0.000767847
0.00146038
0.00075247
0.00132294
0.00073872
0.00118377
0.000726619
0.00104288
0.000716189
0.000900289
0.00070745
0.00075603
0.000700424
0.000610138
0.000695131
0.000462654
0.000691592
0.000313628
0.000689827
0.000163119
0.000689852
1.11926e-05
-0.000142078
0.000691687
0.000794063
0.000775716
0.000758934
0.000743738
0.000730151
0.000718192
0.000707885
0.000699249
0.000692307
0.000687078
0.000683582
0.000681839
0.000681866
0.000683682
0.00136559
-6.60145e-06
0.00137584
-1.02455e-05
0.00138975
-1.3913e-05
0.00140735
-1.76018e-05
0.00142866
-2.13094e-05
0.0014537
-2.50332e-05
0.00148247
-2.87704e-05
0.00151498
-3.25186e-05
0.00155126
-3.62744e-05
0.00159129
-4.00348e-05
0.00163509
-4.3797e-05
0.00168265
-4.75577e-05
0.00173396
-5.13138e-05
0.00178902
-5.50622e-05
0.00184782
-5.87998e-05
0.00191035
-6.25233e-05
0.00197658
-6.62299e-05
0.00204649
-6.99166e-05
0.00212007
-7.35804e-05
0.00219729
-7.72187e-05
0.00227812
-8.08283e-05
0.00236253
-8.44073e-05
0.00245048
-8.79525e-05
0.00254194
-9.14618e-05
0.00263688
-9.4933e-05
0.00273524
-9.83632e-05
0.00283699
-0.000101751
0.00294208
-0.000105094
0.00305047
-0.000108389
0.00316211
-0.000111636
0.00327694
-0.000114831
0.00339491
-0.000117974
0.00351598
-0.000121062
0.00364007
-0.000124093
-0.000127066
0.00134967
-1.31382e-05
0.00135981
-2.03833e-05
0.00137357
-2.76752e-05
0.00139098
-3.50094e-05
0.00141205
-4.23808e-05
0.0014368
-4.97845e-05
0.00146524
-5.72151e-05
0.00149739
-6.46668e-05
0.00153325
-7.2134e-05
0.00157283
-7.96104e-05
0.00161612
-8.70903e-05
0.00166313
-9.45671e-05
0.00171385
-0.000102035
0.00176828
-0.000109487
0.00182639
-0.000116918
0.00188819
-0.00012432
0.00195365
-0.000131689
0.00202275
-0.000139019
0.00209547
-0.000146303
0.00217179
-0.000153536
0.00225167
-0.000160712
0.00233509
-0.000167827
0.00242202
-0.000174875
0.00251241
-0.000181852
0.00260623
-0.000188753
0.00270344
-0.000195573
0.00280399
-0.000202308
0.00290785
-0.000208953
0.00301497
-0.000215506
0.00312529
-0.000221961
0.00323878
-0.000228314
0.00335537
-0.000234563
0.00347501
-0.000240703
0.00359764
-0.00024673
-0.000252642
0.00133394
-1.96108e-05
0.00134397
-3.04148e-05
0.00135759
-4.12884e-05
0.0013748
-5.22249e-05
0.00139564
-6.3217e-05
0.00142011
-7.42572e-05
0.00144823
-8.53375e-05
0.00148002
-9.64492e-05
0.00151547
-0.000107584
0.00155459
-0.000118733
0.00159738
-0.000129886
0.00164385
-0.000141035
0.00169399
-0.00015217
0.00174778
-0.000163282
0.00180523
-0.000174362
0.0018663
-0.0001854
0.001931
-0.000196388
0.0019993
-0.000207316
0.00207118
-0.000218177
0.0021466
-0.000228962
0.00222555
-0.000239663
0.002308
-0.000250272
0.0023939
-0.000260781
0.00248324
-0.000271185
0.00257596
-0.000281474
0.00267203
-0.000291643
0.00277141
-0.000301686
0.00287405
-0.000311596
0.00297991
-0.000321366
0.00308894
-0.000330992
0.00320109
-0.000340467
0.00331632
-0.000349785
0.00343456
-0.000358942
0.00355576
-0.000367931
-0.000376748
0.00131841
-2.60203e-05
0.00132834
-4.03411e-05
0.0013418
-5.47543e-05
0.00135883
-6.92508e-05
0.00137943
-8.38209e-05
0.00140363
-9.84547e-05
0.00143143
-0.000113142
0.00146285
-0.00012787
0.0014979
-0.000142629
0.00153657
-0.000157406
0.00157888
-0.00017219
0.00162481
-0.000186967
0.00167437
-0.000201726
0.00172754
-0.000216455
0.00178432
-0.00023114
0.00184469
-0.000245771
0.00190864
-0.000260335
0.00197614
-0.00027482
0.00204718
-0.000289215
0.00212172
-0.00030351
0.00219975
-0.000317693
0.00228124
-0.000331754
0.00236614
-0.000345684
0.00245443
-0.000359473
0.00254606
-0.000373111
0.00264101
-0.00038659
0.00273923
-0.000399901
0.00284067
-0.000413037
0.00294529
-0.000425988
0.00305304
-0.000438747
0.00316388
-0.000451307
0.00327776
-0.00046366
0.00339462
-0.000475799
0.0035144
-0.000487716
-0.000499405
0.00130307
-3.23675e-05
0.00131289
-5.01637e-05
0.00132621
-6.80747e-05
0.00134305
-8.60891e-05
0.00136343
-0.000104195
0.00138735
-0.00012238
0.00141484
-0.000140631
0.0014459
-0.000158934
0.00148055
-0.000177274
0.00151878
-0.000195637
0.0015606
-0.000214008
0.001606
-0.000232371
0.00165499
-0.000250711
0.00170755
-0.000269013
0.00176367
-0.000287262
0.00182334
-0.000305442
0.00188654
-0.000323539
0.00195326
-0.000341539
0.00202347
-0.000359427
0.00209715
-0.000377189
0.00217427
-0.000394813
0.00225481
-0.000412286
0.00233872
-0.000429596
0.00242598
-0.00044673
0.00251654
-0.000463677
0.00261038
-0.000480427
0.00270745
-0.000496969
0.0028077
-0.000513292
0.0029111
-0.000529387
0.0030176
-0.000545244
0.00312714
-0.000560853
0.00323969
-0.000576205
0.00335518
-0.000591291
0.00347357
-0.000606103
-0.000620632
0.00128792
-3.86529e-05
0.00129764
-5.98837e-05
0.00131081
-8.12512e-05
0.00132747
-0.000102742
0.00134761
-0.000124343
0.00137127
-0.000146037
0.00139845
-0.00016781
0.00142916
-0.000189645
0.00146341
-0.000211524
0.0015012
-0.000233431
0.00154254
-0.000255346
0.00158742
-0.000277253
0.00163584
-0.000299132
0.0016878
-0.000320965
0.00174327
-0.000342735
0.00180225
-0.000364423
0.00186472
-0.000386011
0.00193067
-0.000407484
0.00200006
-0.000428823
0.00207288
-0.000450012
0.00214911
-0.000471036
0.0022287
-0.00049188
0.00231164
-0.00051253
0.00239788
-0.00053297
0.00248739
-0.000553188
0.00258013
-0.00057317
0.00267606
-0.000592904
0.00277515
-0.000612378
0.00287734
-0.00063158
0.0029826
-0.000650498
0.00309086
-0.000669121
0.0032021
-0.000687438
0.00331624
-0.000705439
0.00343325
-0.000723113
-0.00074045
0.00127295
-4.48775e-05
0.00128257
-6.95023e-05
0.0012956
-9.42857e-05
0.00131207
-0.000119212
0.001332
-0.000144266
0.00135539
-0.000169428
0.00138226
-0.000194682
0.00141262
-0.000220007
0.00144648
-0.000245384
0.00148384
-0.000270792
0.00152471
-0.000296211
0.00156907
-0.000321619
0.00161694
-0.000346995
0.00166829
-0.000372318
0.00172312
-0.000397567
0.00178142
-0.000422721
0.00184317
-0.00044776
0.00190835
-0.000472664
0.00197694
-0.000497413
0.00204891
-0.000521989
0.00212425
-0.000546373
0.00220292
-0.000570549
0.00228489
-0.000594498
0.00237012
-0.000618205
0.00245859
-0.000641655
0.00255025
-0.000664832
0.00264507
-0.000687721
0.002743
-0.000710309
0.002844
-0.000732582
0.00294803
-0.000754526
0.00305504
-0.000776128
0.00316498
-0.000797377
0.0032778
-0.000818259
0.00339345
-0.000838763
-0.000858876
0.00125817
-5.10418e-05
0.00126768
-7.90206e-05
0.00128058
-0.00010718
0.00129687
-0.000135502
0.00131657
-0.000163967
0.0013397
-0.000192557
0.00136627
-0.00022125
0.00139628
-0.000250025
0.00142976
-0.000278858
0.00146669
-0.000307727
0.00150709
-0.000336607
0.00155094
-0.000365475
0.00159826
-0.000394307
0.00164902
-0.000423078
0.00170322
-0.000451766
0.00176084
-0.000480345
0.00182187
-0.000508793
0.0018863
-0.000537088
0.00195409
-0.000565208
0.00202524
-0.00059313
0.0020997
-0.000620835
0.00217745
-0.000648302
0.00225847
-0.000675514
0.00234271
-0.00070245
0.00243015
-0.000729093
0.00252075
-0.000755427
0.00261446
-0.000781435
0.00271125
-0.000807101
0.00281108
-0.000832409
0.0029139
-0.000857344
0.00301966
-0.000881892
0.00312832
-0.000906039
0.00323983
-0.000929769
0.00335414
-0.000953071
-0.00097593
0.00124356
-5.71466e-05
0.00125298
-8.84399e-05
0.00126573
-0.000119935
0.00128184
-0.000151612
0.00130133
-0.00018345
0.0013242
-0.000215427
0.00135047
-0.000247519
0.00138014
-0.000279702
0.00141324
-0.000311951
0.00144975
-0.000344239
0.00148968
-0.000376541
0.00153304
-0.000408828
0.0015798
-0.000441075
0.00162998
-0.000473254
0.00168355
-0.00050534
0.00174051
-0.000537304
0.00180084
-0.000569122
0.00186452
-0.000600768
0.00193153
-0.000632217
0.00200185
-0.000663447
0.00207544
-0.000694433
0.0021523
-0.000725154
0.00223237
-0.000755588
0.00231564
-0.000785716
0.00240206
-0.000815516
0.0024916
-0.00084497
0.00258423
-0.00087406
0.00267989
-0.000902768
0.00277856
-0.000931077
0.00288019
-0.000958969
0.00298472
-0.000986429
0.00309213
-0.00101344
0.00320234
-0.00103999
0.00331533
-0.00106606
-0.00109163
0.00122913
-6.31925e-05
0.00123845
-9.77613e-05
0.00125107
-0.000132553
0.001267
-0.000167545
0.00128627
-0.000202716
0.00130888
-0.00023804
0.00133486
-0.000273492
0.0013642
-0.000309043
0.00139691
-0.000344668
0.00143301
-0.000380335
0.00147249
-0.000416017
0.00151534
-0.000451685
0.00156157
-0.000487306
0.00161117
-0.000522853
0.00166413
-0.000558296
0.00172043
-0.000593605
0.00178006
-0.000628753
0.001843
-0.000663711
0.00190924
-0.000698452
0.00197874
-0.000732949
0.00205149
-0.000767179
0.00212745
-0.000801115
0.00220659
-0.000834735
0.00228889
-0.000868016
0.00237431
-0.000900936
0.00246282
-0.000933474
0.00255437
-0.000965611
0.00264893
-0.000997326
0.00274645
-0.0010286
0.0028469
-0.00105942
0.00295022
-0.00108975
0.00305638
-0.0011196
0.00316532
-0.00114893
0.003277
-0.00117773
-0.00120599
0.00121488
-6.91803e-05
0.0012241
-0.000106986
0.00123658
-0.000145035
0.00125234
-0.000183304
0.00127139
-0.000221768
0.00129375
-0.0002604
0.00131943
-0.000299171
0.00134844
-0.000338052
0.00138079
-0.000377012
0.00141647
-0.00041602
0.0014555
-0.000455043
0.00149786
-0.000494049
0.00154356
-0.000533006
0.00159259
-0.000571882
0.00164494
-0.000610643
0.00170059
-0.000649258
0.00175953
-0.000687696
0.00182175
-0.000725927
0.00188722
-0.00076392
0.00195592
-0.000801648
0.00202782
-0.000839082
0.0021029
-0.000876196
0.00218113
-0.000912964
0.00226248
-0.000949362
0.00234691
-0.000985366
0.00243439
-0.00102095
0.00252488
-0.0010561
0.00261834
-0.00109079
0.00271473
-0.00112499
0.00281402
-0.0011587
0.00291615
-0.00119189
0.00302108
-0.00122453
0.00312876