/*--------------------------------*- C++ -*----------------------------------*\
  =========                 |
  \\      /  F ield         | OpenFOAM: The Open Source CFD Toolbox
   \\    /   O peration     | Website:  https://openfoam.org
    \\  /    A nd           | Version:  7
     \\/     M anipulation  |
\*---------------------------------------------------------------------------*/
FoamFile
{
    version     2.0;
    format      ascii;
    class       volVectorField;
    location    "10";
    object      U;
}
// * * * * * * * * * * * * * * * * * * * * * * * * * * * * * * * * * * * * * //

dimensions      [0 1 -1 0 0 0 0];

internalField   nonuniform List<vector> 
2625
(
(1.14988 -0.0472758 8.21767e-21)
(1.15441 -0.0464367 1.51179e-21)
(1.15892 -0.0456105 -1.092e-21)
(1.16341 -0.0447997 -2.15625e-21)
(1.16787 -0.0440063 1.92784e-21)
(1.17229 -0.0432319 -2.51398e-21)
(1.17668 -0.0424774 1.64918e-21)
(1.18102 -0.0417433 7.92232e-22)
(1.18532 -0.0410293 -2.11118e-22)
(1.18956 -0.0403347 -3.3432e-23)
(1.19374 -0.0396584 -6.70562e-23)
(1.19786 -0.0389986 -6.94523e-22)
(1.20192 -0.038353 9.03505e-22)
(1.20591 -0.0377188 -7.37353e-22)
(1.20982 -0.037093 8.41439e-22)
(1.21366 -0.0364718 6.21226e-22)
(1.21742 -0.0358515 -2.144e-22)
(1.22109 -0.0352278 4.42299e-21)
(1.11742 -0.00044736 5.76744e-22)
(1.12129 -0.000441682 3.31191e-22)
(1.12521 -0.000436323 -1.19155e-22)
(1.12919 -0.000431272 -1.34276e-22)
(1.13323 -0.000426509 -1.79393e-22)
(1.13731 -0.000422011 -2.30268e-22)
(1.14143 -0.000417748 8.45726e-23)
(1.1456 -0.00041369 1.62645e-22)
(1.14979 -0.000409805 -5.90034e-23)
(1.154 -0.000406065 6.64764e-23)
(1.15823 -0.000402439 -7.2563e-23)
(1.16246 -0.000398904 3.86799e-23)
(1.16669 -0.000395438 9.66599e-24)
(1.1709 -0.000392023 -6.72365e-24)
(1.17508 -0.000388636 -4.75024e-24)
(1.11742 -0.00135772 -1.0242e-21)
(1.12129 -0.00133921 9.95258e-23)
(1.12521 -0.00132156 8.06622e-23)
(1.1292 -0.00130476 5.99284e-22)
(1.13323 -0.00128875 -1.29124e-22)
(1.13731 -0.0012735 -9.53858e-23)
(1.14144 -0.00125894 -3.36069e-22)
(1.1456 -0.001245 -2.75766e-22)
(1.1498 -0.00123161 -7.76506e-23)
(1.15401 -0.00121871 5.10407e-23)
(1.15824 -0.00120624 1.13034e-22)
(1.16247 -0.00119414 -8.04199e-23)
(1.1667 -0.00118237 -8.96528e-24)
(1.17091 -0.00117088 1.0076e-23)
(1.1751 -0.00115963 6.87164e-24)
(1.11741 -0.00225941 1.15684e-21)
(1.12128 -0.00222792 4.40082e-22)
(1.12521 -0.00219783 1.11938e-23)
(1.1292 -0.00216913 -4.62816e-22)
(1.13324 -0.00214176 -8.77045e-23)
(1.13732 -0.00211564 -2.15992e-24)
(1.14145 -0.00209067 4.35652e-22)
(1.14562 -0.00206673 2.74585e-22)
(1.14981 -0.00204373 3.66705e-22)
(1.15403 -0.00202156 -1.77239e-22)
(1.15826 -0.00200012 -5.37897e-23)
(1.16249 -0.00197931 1.61954e-22)
(1.16672 -0.00195907 3.86762e-23)
(1.17093 -0.00193931 -4.15661e-23)
(1.17512 -0.00191998 -9.21786e-24)
(1.11741 -0.00314895 -9.80787e-22)
(1.12128 -0.00310459 8.27672e-22)
(1.12522 -0.00306219 -1.14983e-21)
(1.12921 -0.00302171 -3.50042e-22)
(1.13325 -0.00298309 1.05356e-21)
(1.13733 -0.00294621 -6.10755e-22)
(1.14147 -0.00291093 -3.40222e-22)
(1.14563 -0.00287712 1.86339e-22)
(1.14983 -0.00284462 -1.19135e-22)
(1.15405 -0.00281328 2.17144e-22)
(1.15828 -0.00278297 -2.16412e-22)
(1.16252 -0.00275357 -1.35036e-22)
(1.16675 -0.00272496 -8.67316e-23)
(1.17096 -0.00269705 4.57373e-23)
(1.17515 -0.00266975 -9.11878e-24)
(1.1174 -0.00402762 -1.08218e-21)
(1.12128 -0.00397046 2.05641e-21)
(1.12522 -0.0039158 -7.50204e-23)
(1.12921 -0.0038636 3.96219e-22)
(1.13326 -0.00381377 -1.62324e-21)
(1.13735 -0.00376616 5.18807e-22)
(1.14149 -0.00372061 4.06976e-22)
(1.14566 -0.00367694 -1.00715e-21)
(1.14986 -0.00363496 -3.85499e-22)
(1.15408 -0.00359448 -6.51895e-23)
(1.15832 -0.00355534 2.38564e-22)
(1.16255 -0.00351737 -5.9623e-23)
(1.16679 -0.00348043 5.56649e-24)
(1.171 -0.00344441 -2.09135e-23)
(1.17519 -0.0034092 -1.1277e-24)
(1.1174 -0.00489632 2.36137e-21)
(1.12128 -0.0048264 -2.9355e-21)
(1.12522 -0.0047595 -3.00074e-22)
(1.12922 -0.00469559 -1.1668e-21)
(1.13327 -0.00463454 3.50691e-22)
(1.13737 -0.0045762 -4.75776e-22)
(1.14151 -0.00452036 6.02449e-22)
(1.14569 -0.00446682 1.37013e-21)
(1.14989 -0.00441533 -3.15468e-22)
(1.15412 -0.00436569 2.89203e-22)
(1.15835 -0.00431768 -5.42119e-23)
(1.1626 -0.00427112 -2.262e-23)
(1.16683 -0.00422584 8.46997e-23)
(1.17105 -0.00418171 -3.19692e-23)
(1.17524 -0.00413858 5.12406e-24)
(1.11739 -0.00575536 -3.44325e-21)
(1.12128 -0.00567273 2.11259e-21)
(1.12523 -0.00559362 6.08113e-22)
(1.12923 -0.005518 1.10054e-21)
(1.13329 -0.00544574 -2.03971e-22)
(1.13739 -0.00537666 -1.37824e-22)
(1.14154 -0.00531051 -6.34352e-22)
(1.14572 -0.00524706 -4.41606e-22)
(1.14993 -0.00518603 2.83264e-22)
(1.15416 -0.00512719 -1.73764e-22)
(1.1584 -0.00507028 -2.50175e-22)
(1.16265 -0.0050151 9.61743e-23)
(1.16688 -0.00496145 -3.37806e-23)
(1.1711 -0.00490917 1.5444e-23)
(1.1753 -0.00485811 1.2807e-23)
(1.11738 -0.00660499 2.38338e-21)
(1.12128 -0.00650969 -1.63614e-21)
(1.12524 -0.00641842 -2.83922e-21)
(1.12925 -0.00633112 1.63775e-21)
(1.13331 -0.00624764 -1.21236e-21)
(1.13742 -0.0061678 -6.37829e-22)
(1.14157 -0.00609132 1.74212e-21)
(1.14576 -0.00601792 7.6155e-22)
(1.14997 -0.00594732 -5.22112e-23)
(1.15421 -0.00587923 8.46093e-24)
(1.15845 -0.00581338 3.72223e-22)
(1.1627 -0.00574953 -7.50918e-23)
(1.16694 -0.00568748 3.33226e-24)
(1.17117 -0.00562702 7.63357e-24)
(1.17536 -0.005568 -7.38784e-24)
(1.11737 -0.00744548 1.73784e-21)
(1.12128 -0.00733758 -6.0218e-22)
(1.12524 -0.00723417 1.33738e-21)
(1.12926 -0.0071352 -2.09227e-21)
(1.13333 -0.00704052 3.37473e-21)
(1.13745 -0.0069499 5.05676e-22)
(1.14161 -0.00686306 -1.68589e-21)
(1.1458 -0.00677968 -7.62496e-23)
(1.15002 -0.00669945 4.80037e-22)
(1.15426 -0.00662206 -5.95301e-22)
(1.15851 -0.00654722 5.90628e-23)
(1.16276 -0.00647465 1.07578e-22)
(1.16701 -0.00640414 8.08298e-23)
(1.17123 -0.00633547 -2.67901e-23)
(1.17543 -0.00626844 3.72934e-24)
(1.11736 -0.00827709 2.64429e-21)
(1.12128 -0.00815666 -3.92061e-21)
(1.12525 -0.00804116 2.39942e-21)
(1.12928 -0.00793054 1.81918e-21)
(1.13336 -0.00782464 -1.97029e-21)
(1.13748 -0.00772322 -9.1759e-22)
(1.14165 -0.00762598 -9.17946e-22)
(1.14585 -0.00753258 -1.76516e-21)
(1.15007 -0.00744267 -4.42718e-22)
(1.15432 -0.00735592 4.85381e-22)
(1.15857 -0.00727202 1.20335e-22)
(1.16283 -0.00719068 -5.99105e-23)
(1.16708 -0.00711165 -4.09533e-23)
(1.17131 -0.00703471 -3.21192e-23)
(1.17551 -0.00695964 1.01814e-23)
(1.11735 -0.00910009 3.14183e-22)
(1.12128 -0.00896718 2.28432e-21)
(1.12526 -0.00883963 6.49457e-22)
(1.1293 -0.00871738 -2.06902e-22)
(1.13338 -0.00860026 -4.86616e-23)
(1.13752 -0.00848802 1.55394e-21)
(1.14169 -0.00838034 7.03158e-22)
(1.1459 -0.00827685 2.23821e-21)
(1.15013 -0.0081772 6.16242e-24)
(1.15438 -0.00808103 -1.30778e-24)
(1.15864 -0.007988 -3.71591e-22)
(1.1629 -0.00789782 -1.04455e-22)
(1.16716 -0.00781021 1.90237e-23)
(1.17139 -0.00772494 8.10517e-23)
(1.1756 -0.00764177 -4.8257e-23)
(1.11735 -0.0099147 -4.55838e-21)
(1.12128 -0.00976939 4.92766e-21)
(1.12527 -0.00962982 -4.89445e-22)
(1.12932 -0.00949595 -1.61891e-22)
(1.13341 -0.0093676 5.60596e-22)
(1.13755 -0.00924451 1.62332e-22)
(1.14173 -0.00912634 7.40212e-22)
(1.14595 -0.00901272 -1.40179e-21)
(1.15019 -0.00890326 9.03467e-22)
(1.15445 -0.00879759 -7.0522e-22)
(1.15872 -0.00869537 1.55939e-22)
(1.16298 -0.00859626 3.61419e-22)
(1.16724 -0.00850001 5.83826e-23)
(1.17148 -0.00840633 9.87584e-23)
(1.17569 -0.00831501 8.47847e-24)
(1.11734 -0.0107212 -3.19527e-22)
(1.12128 -0.0105635 -7.88697e-21)
(1.12528 -0.010412 -4.3428e-21)
(1.12934 -0.0102665 -5.37229e-21)
(1.13344 -0.0101269 -7.66355e-22)
(1.13759 -0.00999292 1.14963e-21)
(1.14178 -0.00986422 7.50214e-22)
(1.14601 -0.00974039 1.08204e-21)
(1.15025 -0.00962105 -1.56807e-21)
(1.15452 -0.00950581 1.10824e-21)
(1.15879 -0.0093943 2.16852e-22)
(1.16307 -0.00928619 -2.9422e-22)
(1.16733 -0.00918121 -9.18578e-23)
(1.17157 -0.00907906 -1.4033e-22)
(1.17578 -0.00897952 -1.16611e-23)
(1.11733 -0.0115197 2.66857e-21)
(1.12128 -0.0113497 8.4483e-21)
(1.1253 -0.0111863 4.1149e-21)
(1.12936 -0.0110292 7.31083e-23)
(1.13348 -0.0108783 4.53062e-21)
(1.13764 -0.0107334 -2.02213e-21)
(1.14184 -0.0105942 -2.23411e-21)
(1.14607 -0.0104601 3.72575e-22)
(1.15032 -0.0103308 7.31342e-22)
(1.1546 -0.0102059 -1.77336e-21)
(1.15888 -0.010085 -3.00415e-22)
(1.16315 -0.00996778 -1.59436e-22)
(1.16742 -0.00985398 -3.94442e-24)
(1.17167 -0.0097433 1.58704e-23)
(1.17588 -0.00963546 2.54636e-23)
(1.11732 -0.0123104 -3.49257e-21)
(1.12129 -0.0121283 -3.19534e-21)
(1.12531 -0.0119529 3.6753e-21)
(1.12939 -0.0117842 5.66615e-21)
(1.13351 -0.0116221 -2.48048e-21)
(1.13768 -0.0114663 -5.73819e-22)
(1.14189 -0.0113163 -5.65249e-22)
(1.14613 -0.0111719 3.13434e-22)
(1.1504 -0.0110325 -1.79586e-22)
(1.15468 -0.0108979 1.183e-21)
(1.15896 -0.0107676 -3.34708e-22)
(1.16325 -0.0106412 2.38142e-22)
(1.16752 -0.0105185 -1.20428e-22)
(1.17177 -0.0103992 5.56158e-23)
(1.17599 -0.010283 -1.59621e-23)
(1.11731 -0.0130936 -5.63086e-22)
(1.12129 -0.0128993 3.00132e-21)
(1.12533 -0.0127121 -8.46244e-21)
(1.12942 -0.0125318 1.05769e-21)
(1.13355 -0.0123584 2.84294e-22)
(1.13773 -0.0121916 5.11679e-22)
(1.14195 -0.0120309 -9.2651e-22)
(1.1462 -0.0118761 -2.89103e-21)
(1.15047 -0.0117266 1.40787e-21)
(1.15476 -0.0115821 -1.9918e-22)
(1.15905 -0.0114422 1.01284e-21)
(1.16334 -0.0113066 -1.46155e-22)
(1.16762 -0.0111749 6.45559e-23)
(1.17188 -0.0110469 -3.34989e-23)
(1.1761 -0.0109222 -4.60688e-24)
(1.11731 -0.0138695 4.8825e-21)
(1.1213 -0.0136631 -4.42233e-21)
(1.12535 -0.013464 5.14618e-21)
(1.12945 -0.0132722 -9.58442e-22)
(1.13359 -0.0130874 -4.48298e-21)
(1.13779 -0.0129095 3.15485e-21)
(1.14201 -0.0127381 1.90096e-21)
(1.14627 -0.0125727 6.91669e-22)
(1.15055 -0.012413 -1.93968e-21)
(1.15485 -0.0122586 1.10822e-21)
(1.15915 -0.0121091 -1.577e-21)
(1.16344 -0.0119641 1.16599e-22)
(1.16773 -0.0118233 6.31509e-23)
(1.17199 -0.0116865 1.35809e-22)
(1.17622 -0.0115534 -3.82119e-23)
(1.1173 -0.0146381 -3.85539e-21)
(1.12131 -0.0144197 1.42888e-21)
(1.12537 -0.0142088 -2.98531e-21)
(1.12948 -0.0140054 -4.24623e-21)
(1.13364 -0.0138093 2.58585e-21)
(1.13784 -0.0136203 -2.01484e-21)
(1.14208 -0.013438 1.18368e-21)
(1.14634 -0.013262 3.38194e-22)
(1.15063 -0.013092 5.70542e-24)
(1.15494 -0.0129276 -3.77456e-22)
(1.15924 -0.0127683 1.07355e-21)
(1.16355 -0.0126138 -1.97116e-22)
(1.16784 -0.0124639 -2.12461e-23)
(1.1721 -0.0123182 -2.69135e-22)
(1.17633 -0.0121765 1.82483e-23)
(1.1173 -0.0153998 1.28306e-21)
(1.12131 -0.0151694 3.81665e-22)
(1.12539 -0.0149467 -2.37467e-21)
(1.12951 -0.0147316 9.92073e-22)
(1.13368 -0.0145241 2.00653e-21)
(1.1379 -0.0143239 -2.35573e-21)
(1.14215 -0.0141307 -2.25401e-21)
(1.14642 -0.0139441 1.02403e-21)
(1.15072 -0.0137637 -1.3249e-22)
(1.15503 -0.0135891 5.05626e-22)
(1.15935 -0.0134199 -9.48321e-22)
(1.16366 -0.0132559 -8.1322e-23)
(1.16795 -0.0130968 7.49421e-23)
(1.17222 -0.0129421 2.36605e-22)
(1.17646 -0.0127917 7.79265e-24)
(1.1173 -0.0161545 2.80873e-21)
(1.12133 -0.0159122 3.04012e-21)
(1.12541 -0.0156777 8.40899e-21)
(1.12955 -0.015451 -1.38549e-21)
(1.13373 -0.0152321 -2.35326e-23)
(1.13796 -0.0150207 5.90993e-21)
(1.14222 -0.0148165 -8.18417e-22)
(1.1465 -0.0146191 6.70129e-22)
(1.15081 -0.0144282 1.59295e-21)
(1.15513 -0.0142433 -8.10567e-22)
(1.15945 -0.0140642 2.08616e-22)
(1.16377 -0.0138906 2.93423e-22)
(1.16807 -0.013722 -6.1898e-23)
(1.17234 -0.0135584 -5.85798e-23)
(1.17658 -0.0133992 8.25243e-23)
(1.1173 -0.0169026 -1.55396e-21)
(1.12134 -0.0166484 6.08517e-21)
(1.12544 -0.0164021 -3.11072e-21)
(1.12959 -0.0161638 2.01952e-21)
(1.13378 -0.0159333 1.4196e-21)
(1.13802 -0.0157106 -1.24951e-21)
(1.14229 -0.0154953 6.19774e-23)
(1.14658 -0.0152871 -1.75103e-21)
(1.1509 -0.0150855 -2.59608e-21)
(1.15523 -0.0148904 -2.54838e-22)
(1.15956 -0.0147012 1.30326e-21)
(1.16388 -0.0145178 1.26654e-22)
(1.16819 -0.0143398 -3.26479e-22)
(1.17247 -0.014167 -1.00203e-22)
(1.17671 -0.0139991 -1.84637e-23)
(1.1173 -0.0176441 -3.47679e-21)
(1.12136 -0.017378 -1.0031e-20)
(1.12547 -0.0171199 -3.18971e-21)
(1.12963 -0.0168699 1.22976e-21)
(1.13384 -0.016628 -6.9028e-21)
(1.13808 -0.0163939 -1.46327e-21)
(1.14236 -0.0161674 2.09841e-21)
(1.14667 -0.0159482 2.50603e-21)
(1.151 -0.0157359 1.36067e-21)
(1.15533 -0.0155303 3.98274e-22)
(1.15967 -0.015331 -8.44458e-22)
(1.164 -0.0151378 1.09752e-22)
(1.16831 -0.0149503 6.77717e-22)
(1.17259 -0.0147682 1.26906e-22)
(1.17684 -0.0145914 -2.89924e-23)
(1.1173 -0.0183792 4.42159e-21)
(1.12137 -0.0181012 -5.16375e-21)
(1.1255 -0.0178314 2.10945e-21)
(1.12967 -0.0175696 -2.46556e-21)
(1.13389 -0.0173161 6.27187e-21)
(1.13815 -0.0170706 -2.67706e-21)
(1.14244 -0.0168328 2.54929e-21)
(1.14676 -0.0166025 -3.59927e-21)
(1.15109 -0.0163795 1.83224e-21)
(1.15544 -0.0161633 2.20085e-22)
(1.15978 -0.0159538 7.10122e-22)
(1.16412 -0.0157505 -3.17649e-22)
(1.16843 -0.0155534 -4.29822e-22)
(1.17272 -0.0153621 -2.28124e-22)
(1.17698 -0.0151763 3.22773e-23)
(1.11731 -0.019108 -5.3341e-21)
(1.12139 -0.0188182 -2.87633e-21)
(1.12553 -0.0185365 4.86396e-21)
(1.12972 -0.018263 1.81181e-21)
(1.13395 -0.0179978 -3.67587e-21)
(1.13822 -0.0177408 5.81932e-22)
(1.14252 -0.0174916 -2.87725e-21)
(1.14685 -0.0172502 4.01291e-21)
(1.15119 -0.0170162 -1.7389e-21)
(1.15554 -0.0167894 -1.17525e-21)
(1.1599 -0.0165695 -7.77599e-22)
(1.16424 -0.0163562 -4.88783e-22)
(1.16856 -0.0161494 2.42608e-22)
(1.17286 -0.0159487 2.50424e-22)
(1.17711 -0.0157539 -5.57933e-23)
(1.11732 -0.0198306 2.44909e-21)
(1.12142 -0.019529 1.70311e-20)
(1.12557 -0.0192355 -1.18512e-20)
(1.12977 -0.0189502 -8.20384e-21)
(1.13401 -0.0186733 -2.08004e-21)
(1.1383 -0.0184046 -1.80964e-21)
(1.14261 -0.018144 2.41881e-21)
(1.14694 -0.0178913 -4.50556e-21)
(1.1513 -0.0176463 -1.20377e-21)
(1.15566 -0.0174087 8.40572e-22)
(1.16001 -0.0171783 4.03584e-22)
(1.16436 -0.0169549 5.19197e-23)
(1.16869 -0.0167383 -2.78913e-22)
(1.17299 -0.0165282 -3.54709e-22)
(1.17725 -0.0163242 -2.01838e-23)
(1.11733 -0.0205473 4.88076e-22)
(1.12144 -0.0202338 -9.86093e-21)
(1.12561 -0.0199284 -3.18178e-23)
(1.12982 -0.0196313 1.62652e-20)
(1.13408 -0.0193425 5.09064e-21)
(1.13837 -0.0190621 5.57357e-21)
(1.14269 -0.01879 -4.05821e-22)
(1.14704 -0.0185259 1.9172e-21)
(1.1514 -0.0182698 -6.28931e-22)
(1.15577 -0.0180213 -6.34844e-22)
(1.16013 -0.0177804 -5.92666e-22)
(1.16449 -0.0175467 1.11934e-21)
(1.16882 -0.0173202 1.27674e-22)
(1.17313 -0.0171005 2.18671e-22)
(1.17739 -0.0168875 4.60983e-23)
(1.11735 -0.021258 2.71089e-21)
(1.12147 -0.0209327 2.11453e-21)
(1.12565 -0.0206153 5.60646e-21)
(1.12988 -0.0203063 -7.87134e-21)
(1.13415 -0.0200056 -1.51264e-21)
(1.13845 -0.0197134 -1.51448e-21)
(1.14278 -0.0194296 -1.43121e-21)
(1.14714 -0.0191541 4.3974e-22)
(1.15151 -0.0188867 8.43421e-22)
(1.15588 -0.0186273 1.96197e-21)
(1.16026 -0.0183757 1.46341e-21)
(1.16462 -0.0181317 -2.98167e-22)
(1.16896 -0.0178952 1.91189e-22)
(1.17326 -0.017666 8.3208e-23)
(1.17753 -0.0174437 -1.89338e-23)
(1.11736 -0.0219629 1.58769e-21)
(1.1215 -0.0216257 3.29943e-22)
(1.1257 -0.0212964 4.55929e-21)
(1.12994 -0.0209753 -2.91559e-21)
(1.13422 -0.0206627 6.75333e-21)
(1.13853 -0.0203586 1.36e-21)
(1.14288 -0.0200631 2.76361e-21)
(1.14724 -0.019776 1.95336e-22)
(1.15162 -0.0194972 1.27268e-21)
(1.156 -0.0192267 -2.45641e-21)
(1.16038 -0.0189643 -1.25672e-21)
(1.16475 -0.0187099 -3.76688e-22)
(1.16909 -0.0184634 1.04155e-22)
(1.1734 -0.0182245 9.75675e-23)
(1.17768 -0.017993 2.74982e-25)
(1.11738 -0.0226621 1.29368e-21)
(1.12154 -0.022313 -7.60455e-21)
(1.12574 -0.0219717 2.38734e-21)
(1.13 -0.0216385 1.18869e-20)
(1.13429 -0.0213139 -1.44768e-20)
(1.13862 -0.0209978 -1.7306e-21)
(1.14297 -0.0206903 -1.65957e-21)
(1.14734 -0.0203915 -1.58987e-21)
(1.15173 -0.0201013 1.40105e-21)
(1.15612 -0.0198196 -3.6551e-22)
(1.16051 -0.0195464 3.41868e-22)
(1.16488 -0.0192815 8.70961e-22)
(1.16923 -0.0190249 -6.91152e-22)
(1.17355 -0.0187762 -7.40307e-23)
(1.17782 -0.0185354 -2.58102e-23)
(1.12158 -0.0229947 9.13456e-21)
(1.12579 -0.0226413 3.97708e-21)
(1.13006 -0.022296 -5.67221e-21)
(1.13436 -0.0219591 1.23193e-20)
(1.1387 -0.0216309 -1.46426e-21)
(1.14307 -0.0213115 -3.67764e-21)
(1.14745 -0.0210009 2.34303e-22)
(1.15184 -0.0206991 -1.67798e-21)
(1.15624 -0.0204061 1.83431e-22)
(1.16063 -0.020122 -3.19152e-22)
(1.16501 -0.0198465 -1.33371e-21)
(1.16937 -0.0195796 -1.13508e-22)
(1.17369 -0.0193212 -2.41661e-22)
(1.17797 -0.019071 7.07036e-23)
(1.12162 -0.0236709 -1.73528e-21)
(1.12585 -0.0233052 -8.10848e-21)
(1.13013 -0.0229477 -3.7585e-22)
(1.13444 -0.0225985 3.31669e-21)
(1.13879 -0.0222581 -6.22509e-21)
(1.14317 -0.0219266 2.50707e-21)
(1.14756 -0.021604 2.35462e-21)
(1.15196 -0.0212906 -5.38086e-22)
(1.15637 -0.0209863 2.30018e-21)
(1.16076 -0.0206911 -2.71266e-22)
(1.16515 -0.0204049 -2.73227e-22)
(1.16951 -0.0201278 8.0396e-22)
(1.17383 -0.0198596 2.78555e-22)
(1.17812 -0.0195999 -1.11205e-23)
(1.12166 -0.0243415 5.29605e-23)
(1.12591 -0.0239637 -8.56076e-21)
(1.1302 -0.0235937 -4.24635e-21)
(1.13452 -0.0232322 -4.00507e-21)
(1.13888 -0.0228794 8.25558e-22)
(1.14327 -0.0225357 3.37965e-21)
(1.14767 -0.0222011 -8.47311e-22)
(1.15208 -0.0218759 6.73144e-22)
(1.15649 -0.0215601 1.03251e-21)
(1.1609 -0.0212538 4.40331e-22)
(1.16528 -0.0209569 8.74042e-22)
(1.16965 -0.0206695 -5.44371e-22)
(1.17398 -0.0203913 -4.89619e-23)
(1.17827 -0.0201222 3.12414e-23)
(1.12171 -0.0250068 3.75702e-21)
(1.12597 -0.0246166 1.03882e-21)
(1.13027 -0.0242342 6.59335e-21)
(1.13461 -0.0238602 -4.94555e-21)
(1.13898 -0.0234949 2.44074e-21)
(1.14337 -0.0231389 -1.74178e-21)
(1.14778 -0.0227922 -1.70055e-21)
(1.1522 -0.0224551 1.19879e-21)
(1.15662 -0.0221277 -4.06212e-21)
(1.16103 -0.0218102 1.30552e-21)
(1.16542 -0.0215025 -4.43652e-22)
(1.16979 -0.0212047 5.66735e-22)
(1.17412 -0.0209166 -1.06364e-22)
(1.17842 -0.020638 -2.52524e-23)
(1.12176 -0.0256668 6.47199e-21)
(1.12603 -0.0252641 4.0636e-21)
(1.13035 -0.0248691 -8.13983e-21)
(1.1347 -0.0244825 5.35444e-21)
(1.13908 -0.0241047 4.33529e-21)
(1.14348 -0.0237362 -6.22765e-22)
(1.1479 -0.0233772 4.02141e-22)
(1.15232 -0.0230281 5.21174e-22)
(1.15675 -0.0226891 1.53764e-21)
(1.16116 -0.0223603 -1.79998e-21)
(1.16556 -0.0220417 7.25803e-22)
(1.16993 -0.0217335 -3.68786e-22)
(1.17427 -0.0214354 1.68895e-22)
(1.17856 -0.0211474 -3.59428e-23)
(1.12181 -0.0263216 -1.59718e-20)
(1.1261 -0.0259063 4.26731e-22)
(1.13042 -0.0254985 1.1489e-20)
(1.13479 -0.0250992 2.50854e-21)
(1.13918 -0.0247087 -2.81363e-22)
(1.14359 -0.0243276 -2.95206e-21)
(1.14801 -0.0239563 1.67063e-21)
(1.15244 -0.0235951 -2.48799e-21)
(1.15688 -0.0232444 -1.78206e-21)
(1.1613 -0.0229042 4.57637e-23)
(1.1657 -0.0225747 -6.77842e-22)
(1.17008 -0.022256 5.6176e-22)
(1.17442 -0.0219479 -5.98937e-23)
(1.17871 -0.0216503 -2.8059e-24)
(1.12187 -0.0269711 -4.27413e-21)
(1.12617 -0.0265431 2.59068e-21)
(1.13051 -0.0261226 -2.14558e-21)
(1.13488 -0.0257103 -1.50813e-20)
(1.13928 -0.025307 -1.78591e-21)
(1.1437 -0.0249133 -1.07577e-21)
(1.14813 -0.0245295 5.72297e-22)
(1.15257 -0.0241561 1.59252e-21)
(1.15701 -0.0237935 6.60746e-22)
(1.16143 -0.0234419 5.33858e-22)
(1.16584 -0.0231014 -9.36427e-23)
(1.17022 -0.0227722 -5.48192e-22)
(1.17456 -0.0224541 -5.90486e-23)
(1.17887 -0.0221469 5.37939e-23)
(1.12193 -0.0276156 1.5456e-20)
(1.12624 -0.0271747 -2.92233e-21)
(1.13059 -0.0267412 -4.81144e-21)
(1.13497 -0.0263159 1.42738e-20)
(1.13938 -0.0258997 9.9897e-22)
(1.14381 -0.0254931 8.66987e-21)
(1.14825 -0.0250968 -2.23298e-21)
(1.1527 -0.0247112 -1.58529e-21)
(1.15714 -0.0243367 4.80639e-22)
(1.16157 -0.0239735 1.00549e-21)
(1.16598 -0.023622 2.17586e-22)
(1.17037 -0.0232822 1.09819e-24)
(1.17471 -0.022954 1.82932e-22)
(1.17902 -0.0226373 -2.12759e-23)
(1.122 -0.028255 -4.06525e-21)
(1.12632 -0.0278011 -3.10289e-21)
(1.13068 -0.0273545 2.63715e-21)
(1.13507 -0.0269161 -8.93104e-21)
(1.13949 -0.0264868 1.90035e-21)
(1.14392 -0.0260673 -3.07411e-21)
(1.14837 -0.0256583 -8.79917e-22)
(1.15282 -0.0252603 3.20386e-22)
(1.15727 -0.0248738 -1.26432e-21)
(1.16171 -0.0244991 -7.07657e-22)
(1.16612 -0.0241365 6.21883e-23)
(1.17051 -0.0237861 1.71356e-22)
(1.17486 -0.0234478 -3.81259e-22)
(1.17917 -0.0231215 9.52223e-24)
(1.12207 -0.0288893 -4.27637e-21)
(1.1264 -0.0284223 1.07426e-20)
(1.13077 -0.0279624 -2.68558e-21)
(1.13517 -0.0275108 9.83347e-21)
(1.1396 -0.0270683 2.80838e-21)
(1.14404 -0.0266358 -7.76456e-21)
(1.1485 -0.026214 1.87617e-21)
(1.15295 -0.0258035 -1.84245e-21)
(1.15741 -0.025405 4.24574e-21)
(1.16185 -0.0250186 -1.42538e-21)
(1.16627 -0.0246449 6.26293e-22)
(1.17066 -0.0242839 2.75057e-22)
(1.17501 -0.0239355 3.55111e-22)
(1.17932 -0.0235996 -2.3091e-23)
(1.12214 -0.0295187 9.5986e-21)
(1.12649 -0.0290384 -7.37564e-21)
(1.13086 -0.0285651 -3.84153e-21)
(1.13527 -0.0281001 -2.4745e-21)
(1.13971 -0.0276442 -2.29567e-22)
(1.14416 -0.0271986 4.61734e-21)
(1.14862 -0.0267639 -2.90154e-22)
(1.15308 -0.0263409 2.18511e-21)
(1.15754 -0.0259302 -2.1612e-22)
(1.16199 -0.0255322 1.17439e-21)
(1.16641 -0.0251473 -9.91594e-22)
(1.1708 -0.0247756 -5.54185e-22)
(1.17516 -0.0244171 -8.969e-23)
(1.17947 -0.0240717 -2.23554e-23)
(1.12222 -0.0301432 -2.4091e-21)
(1.12657 -0.0296494 3.76076e-21)
(1.13096 -0.0291626 1.00286e-20)
(1.13538 -0.028684 -6.34312e-21)
(1.13982 -0.0282147 8.66261e-22)
(1.14428 -0.0277558 7.12871e-21)
(1.14875 -0.0273081 1.03651e-21)
(1.15322 -0.0268725 -4.6784e-22)
(1.15768 -0.0264496 -1.79251e-21)
(1.16213 -0.0260399 -1.86128e-22)
(1.16655 -0.0256437 -6.88979e-23)
(1.17095 -0.0252614 -2.51661e-24)
(1.1753 -0.0248928 -2.36495e-22)
(1.17962 -0.0245378 -3.78851e-23)
(1.1223 -0.0307627 -5.21351e-21)
(1.12666 -0.0302554 -1.82091e-21)
(1.13106 -0.0297548 -1.17323e-20)
(1.13549 -0.0292625 7.30387e-21)
(1.13994 -0.0287796 -9.54502e-21)
(1.1444 -0.0283074 -4.97383e-21)
(1.14888 -0.0278466 1.03032e-21)
(1.15335 -0.0273983 2.43791e-21)
(1.15781 -0.0269632 -4.74632e-22)
(1.16227 -0.0265417 4.38602e-22)
(1.16669 -0.0261343 5.23343e-22)
(1.17109 -0.0257412 -3.25881e-23)
(1.17545 -0.0253626 2.99536e-22)
(1.17977 -0.024998 1.11203e-22)
(1.12239 -0.0313774 5.36169e-21)
(1.12676 -0.0308563 -2.24984e-21)
(1.13117 -0.0303419 3.1966e-21)
(1.1356 -0.0298357 -4.23928e-21)
(1.14006 -0.0293391 6.3574e-21)
(1.14453 -0.0288534 -4.79292e-21)
(1.14901 -0.0283795 -5.24681e-21)
(1.15348 -0.0279184 5.09205e-23)
(1.15795 -0.0274709 -8.70677e-22)
(1.16241 -0.0270376 -3.61825e-22)
(1.16684 -0.026619 -3.57901e-22)
(1.17124 -0.0262152 -3.61994e-22)
(1.1756 -0.0258264 -6.48109e-23)
(1.17991 -0.0254524 -8.90358e-23)
(1.12247 -0.0319873 7.73711e-22)
(1.12686 -0.0314522 3.76744e-21)
(1.13127 -0.0309238 -3.52441e-22)
(1.13571 -0.0304036 3.11166e-21)
(1.14018 -0.0298932 -1.528e-21)
(1.14465 -0.0293938 5.7911e-21)
(1.14914 -0.0289067 4.54944e-21)
(1.15362 -0.0284328 -2.80546e-21)
(1.15809 -0.0279729 -3.92636e-22)
(1.16255 -0.0275278 -3.66691e-22)
(1.16698 -0.0270979 8.11637e-22)
(1.17138 -0.0266834 -6.9486e-23)
(1.17575 -0.0262845 -1.25741e-22)
(1.18006 -0.0259009 7.06668e-23)
(1.12257 -0.0325924 -9.21591e-21)
(1.12696 -0.0320432 -4.13058e-21)
(1.13138 -0.0315005 4.58282e-21)
(1.13583 -0.0309662 -6.0276e-21)
(1.1403 -0.0304418 -3.90584e-21)
(1.14478 -0.0299288 -5.96716e-21)
(1.14927 -0.0294283 -2.29243e-21)
(1.15375 -0.0289415 1.79723e-21)
(1.15823 -0.0284692 1.42352e-21)
(1.16269 -0.0280122 3.65681e-22)
(1.16712 -0.027571 2.20267e-22)
(1.17153 -0.0271459 9.57107e-22)
(1.17589 -0.0267369 8.91113e-23)
(1.18021 -0.0263438 -7.45423e-23)
(1.12266 -0.0331927 7.58038e-21)
(1.12706 -0.0326291 4.31051e-21)
(1.13149 -0.0320721 -9.37954e-21)
(1.13595 -0.0315235 1.09735e-22)
(1.14042 -0.0309851 6.87516e-22)
(1.14491 -0.0304582 9.69812e-21)
(1.1494 -0.0299443 -5.25416e-22)
(1.15389 -0.0294445 5.31737e-22)
(1.15837 -0.0289598 7.4356e-22)
(1.16283 -0.0284909 -1.0029e-21)
(1.16727 -0.0280384 -1.90491e-21)
(1.17167 -0.0276026 -6.85873e-22)
(1.17604 -0.0271836 8.82453e-23)
(1.18036 -0.026781 5.03111e-23)
(1.12276 -0.0337883 2.07894e-21)
(1.12717 -0.0332102 6.50494e-21)
(1.13161 -0.0326386 7.09403e-21)
(1.13607 -0.0320756 -4.33166e-22)
(1.14055 -0.0315229 -2.88389e-21)
(1.14504 -0.0309822 -9.76701e-22)
(1.14953 -0.0304548 2.67526e-21)
(1.15403 -0.0299419 1.13093e-21)
(1.15851 -0.0294447 -7.47058e-22)
(1.16297 -0.0289639 1.65443e-21)
(1.16741 -0.0285001 7.36238e-22)
(1.17182 -0.0280537 1.33237e-22)
(1.17618 -0.0276246 -1.58052e-22)
(1.1805 -0.0272127 -6.26854e-23)
(1.12287 -0.0343791 -1.74118e-21)
(1.12728 -0.0337863 -7.24772e-21)
(1.13172 -0.0332 1.91838e-21)
(1.13619 -0.0326224 9.91332e-22)
(1.14068 -0.0320554 7.17659e-21)
(1.14517 -0.0315007 -6.12818e-21)
(1.14967 -0.0309597 7.88738e-23)
(1.15416 -0.0304338 -1.20919e-21)
(1.15865 -0.0299241 2.79022e-22)
(1.16311 -0.0294313 9.87076e-22)
(1.16755 -0.0289563 9.03696e-23)
(1.17196 -0.0284992 7.12073e-22)
(1.17633 -0.0280601 1.24876e-22)
(1.18065 -0.0276388 1.33897e-22)
(1.12297 -0.0349652 -1.23035e-20)
(1.12739 -0.0343575 2.02674e-21)
(1.13184 -0.0337563 -6.32651e-21)
(1.13632 -0.033164 5.23402e-21)
(1.14081 -0.0325826 -1.09298e-22)
(1.1453 -0.0320138 8.46361e-22)
(1.1498 -0.0314591 2.27938e-21)
(1.1543 -0.0309201 -3.83848e-22)
(1.15879 -0.0303978 1.00692e-21)
(1.16325 -0.0298932 -1.88765e-21)
(1.16769 -0.0294068 7.62922e-22)
(1.1721 -0.0289391 -5.87813e-22)
(1.17647 -0.0284901 -6.1931e-23)
(1.18079 -0.0280595 -4.55251e-23)
(1.12308 -0.0355466 1.44646e-20)
(1.12751 -0.0349237 -6.00881e-21)
(1.13197 -0.0343076 8.00797e-21)
(1.13644 -0.0337004 -5.47777e-21)
(1.14094 -0.0331044 -1.44358e-21)
(1.14544 -0.0325214 2.94049e-21)
(1.14994 -0.0319531 -5.69913e-21)
(1.15444 -0.0314009 -2.08046e-21)
(1.15893 -0.0308661 -2.58642e-21)
(1.16339 -0.0303495 8.74261e-22)
(1.16784 -0.0298518 -5.84956e-22)
(1.17224 -0.0293735 -1.18734e-22)
(1.17661 -0.0289146 2.5274e-23)
(1.18093 -0.0284748 -5.21035e-23)
(1.1232 -0.0361233 -8.90991e-21)
(1.12763 -0.0354851 5.21162e-21)
(1.13209 -0.0348538 -9.11028e-21)
(1.13657 -0.0342316 1.60959e-21)
(1.14107 -0.0336209 1.4699e-21)
(1.14557 -0.0330237 -2.90854e-21)
(1.15008 -0.0324416 9.19036e-22)
(1.15458 -0.0318762 6.61278e-22)
(1.15907 -0.0313288 9.72604e-22)
(1.16353 -0.0308003 -1.64041e-21)
(1.16798 -0.0302914 3.6522e-23)
(1.17239 -0.0298025 3.21827e-22)
(1.17675 -0.0293337 1.94807e-22)
(1.18107 -0.0288847 4.19781e-23)
(1.12332 -0.0366954 -2.72024e-22)
(1.12775 -0.0360416 -1.76946e-20)
(1.13222 -0.0353949 7.80184e-21)
(1.1367 -0.0347576 -2.68172e-22)
(1.1412 -0.0341321 -4.74728e-21)
(1.14571 -0.0335205 4.9607e-21)
(1.15022 -0.0329246 -1.24039e-23)
(1.15472 -0.032346 -3.07951e-21)
(1.1592 -0.031786 4.25193e-22)
(1.16367 -0.0312456 2.78599e-21)
(1.16812 -0.0307255 -4.54703e-23)
(1.17253 -0.0302262 -5.6743e-22)
(1.17689 -0.0297475 -1.32255e-22)
(1.18121 -0.0292893 2.95384e-23)
(1.12344 -0.0372627 -7.54175e-21)
(1.12788 -0.0365932 1.68992e-20)
(1.13235 -0.0359309 -9.63694e-21)
(1.13684 -0.0352784 6.6879e-22)
(1.14134 -0.034638 2.6993e-21)
(1.14584 -0.034012 -3.31192e-21)
(1.15035 -0.0334023 -3.90481e-21)
(1.15486 -0.0328105 5.9129e-21)
(1.15934 -0.0322379 -1.9376e-21)
(1.16381 -0.0316856 -2.26828e-21)
(1.16826 -0.0311543 -6.79394e-22)
(1.17266 -0.0306444 2.42697e-22)
(1.17703 -0.0301561 2.76236e-23)
(1.18135 -0.0296888 -5.54336e-23)
(1.12356 -0.0378253 2.32152e-21)
(1.12801 -0.03714 -1.09512e-20)
(1.13248 -0.0364619 4.57201e-21)
(1.13697 -0.035794 -5.42683e-21)
(1.14147 -0.0351387 1.66997e-21)
(1.14598 -0.0344982 3.15881e-22)
(1.15049 -0.0338746 6.47066e-21)
(1.15499 -0.0332695 -3.0432e-21)
(1.15948 -0.0326843 1.26272e-21)
(1.16395 -0.0321201 1.9065e-23)
(1.16839 -0.0315777 1.10882e-21)
(1.1728 -0.0310574 5.51022e-22)
(1.17717 -0.0305594 -2.72969e-22)
(1.18149 -0.0300831 5.92871e-23)
(1.12369 -0.0383833 1.32618e-20)
(1.12814 -0.0376818 2.96068e-21)
(1.13262 -0.0369879 6.10194e-21)
(1.13711 -0.0363045 7.37249e-22)
(1.14161 -0.0356341 1.42025e-21)
(1.14612 -0.0349791 2.35453e-21)
(1.15063 -0.0343415 -2.37078e-21)
(1.15513 -0.0337231 2.90969e-21)
(1.15962 -0.0331253 8.85626e-23)
(1.16409 -0.0325493 -4.45631e-22)
(1.16853 -0.0319958 -1.57645e-22)
(1.17294 -0.0314652 -7.82762e-22)
(1.17731 -0.0309575 1.55599e-22)
(1.18162 -0.0304723 -5.74865e-23)
(1.12382 -0.0389367 -2.9817e-22)
(1.12828 -0.0382189 1.62078e-20)
(1.13275 -0.0375089 -1.05425e-20)
(1.13724 -0.0368098 8.8397e-22)
(1.14175 -0.0361243 -4.95325e-21)
(1.14626 -0.0354547 -6.07536e-21)
(1.15077 -0.0348031 2.92659e-21)
(1.15527 -0.0341714 -2.10506e-21)
(1.15976 -0.0335611 -6.22603e-23)
(1.16423 -0.0329733 1.75303e-21)
(1.16867 -0.0324087 -1.57922e-22)
(1.17307 -0.0318678 5.84609e-22)
(1.17744 -0.0313505 3.3274e-22)
(1.18176 -0.0308564 4.07693e-23)
(1.12396 -0.0394853 -3.52032e-21)
(1.12841 -0.038751 -1.70992e-20)
(1.13289 -0.0380249 1.13818e-20)
(1.13738 -0.0373101 2.42515e-22)
(1.14189 -0.0366092 5.63328e-21)
(1.1464 -0.035925 1.1778e-21)
(1.15091 -0.0352594 6.87131e-22)
(1.15541 -0.0346145 1.51757e-21)
(1.1599 -0.0339916 1.33297e-21)
(1.16436 -0.033392 7.64029e-22)
(1.1688 -0.0328164 1.15282e-21)
(1.17321 -0.0322652 -6.94236e-22)
(1.17757 -0.0317385 -1.37265e-22)
(1.18189 -0.0312356 -6.88833e-23)
(1.1241 -0.0400285 1.46368e-20)
(1.12855 -0.0392776 1.72415e-21)
(1.13303 -0.0385352 -8.86958e-21)
(1.13753 -0.0378046 6.4549e-21)
(1.14203 -0.0370885 -4.07823e-21)
(1.14654 -0.0363896 -8.36556e-22)
(1.15105 -0.0357102 -3.29774e-21)
(1.15555 -0.035052 -1.96279e-21)
(1.16003 -0.0344167 2.25571e-22)
(1.1645 -0.0338053 -2.14309e-21)
(1.16894 -0.0332188 -2.61329e-22)
(1.17334 -0.0326575 6.06195e-22)
(1.17771 -0.0321214 -4.75359e-22)
(1.18202 -0.0316099 -5.64452e-24)
(1.12424 -0.0405661 -7.80036e-21)
(1.1287 -0.0397984 -8.60564e-21)
(1.13317 -0.0390396 2.34914e-22)
(1.13767 -0.0382932 -3.26334e-21)
(1.14217 -0.0375618 4.77516e-22)
(1.14668 -0.0368483 1.39632e-21)
(1.15119 -0.0361549 6.38547e-22)
(1.15569 -0.0354836 -8.53984e-22)
(1.16017 -0.0348359 -2.44531e-21)
(1.16463 -0.034213 5.2061e-22)
(1.16907 -0.0336158 -1.38453e-21)
(1.17347 -0.0330445 -5.66221e-22)
(1.17784 -0.0324992 4.174e-22)
(1.18215 -0.0319792 8.2966e-23)
(1.12438 -0.0411047 -2.33279e-20)
(1.12884 -0.0403193 6.14675e-21)
(1.13332 -0.0395433 1.54319e-20)
(1.13781 -0.0387802 4.85767e-21)