/*--------------------------------*- C++ -*----------------------------------*\
  =========                 |
  \\      /  F ield         | OpenFOAM: The Open Source CFD Toolbox
   \\    /   O peration     | Website:  https://openfoam.org
    \\  /    A nd           | Version:  7
     \\/     M anipulation  |
\*---------------------------------------------------------------------------*/
FoamFile
{
    version     2.0;
    format      ascii;
    class       volScalarField;
    location    "30";
    object      p;
}
// * * * * * * * * * * * * * * * * * * * * * * * * * * * * * * * * * * * * * //

dimensions      [0 2 -2 0 0 0 0];

internalField   nonuniform List<scalar> 
2625
(
-0.0348509
-0.0402915
-0.0456484
-0.0509173
-0.0560949
-0.0611781
-0.0333842
-0.0387526
-0.0440403
-0.049243
-0.0543577
-0.0593814
-0.0643112
-0.0691442
-0.0738778
-0.0319219
-0.0372184
-0.0424369
-0.0475736
-0.0526254
-0.0575895
-0.0624631
-0.0672436
-0.0719283
-0.0765151
-0.0810017
-0.0304648
-0.0356895
-0.0408389
-0.0459096
-0.0508984
-0.0558028
-0.06062
-0.0653475
-0.0699829
-0.0745241
-0.078969
-0.083316
-0.0875636
-0.0917105
-0.0290135
-0.0341665
-0.039247
-0.0442516
-0.0491775
-0.0540219
-0.0587825
-0.0634567
-0.0680423
-0.0725373
-0.0769399
-0.0812484
-0.0854615
-0.0895782
-0.0935978
-0.0975202
-0.0275686
-0.0326502
-0.0376619
-0.0426006
-0.0474634
-0.0522478
-0.0569515
-0.0615721
-0.0661075
-0.0705558
-0.0749152
-0.0791844
-0.083362
-0.0874472
-0.0914395
-0.0953387
-0.0991452
-0.0261308
-0.0311412
-0.0360843
-0.0409571
-0.0457569
-0.0504813
-0.0551279
-0.0596946
-0.0641794
-0.0685804
-0.072896
-0.077125
-0.0812661
-0.0853187
-0.0892822
-0.0931566
-0.0969424
-0.10064
-0.104252
-0.0247008
-0.0296403
-0.034515
-0.0393221
-0.0440589
-0.0487231
-0.0533125
-0.057825
-0.0622587
-0.066612
-0.0708832
-0.0750711
-0.0791748
-0.0831935
-0.0871269
-0.0909749
-0.0947382
-0.0984175
-0.102014
-0.105531
-0.10897
-0.0232791
-0.0281481
-0.0329547
-0.0376962
-0.04237
-0.046974
-0.0515061
-0.0559642
-0.0603465
-0.0646514
-0.0688776
-0.0730237
-0.0770889
-0.0810726
-0.0849745
-0.0887946
-0.0925335
-0.0961921
-0.0997719
-0.103275
-0.106704
-0.110062
-0.0218665
-0.0266652
-0.0314039
-0.03608
-0.0406911
-0.0452349
-0.0497095
-0.0541129
-0.0584435
-0.0626997
-0.0668801
-0.0709836
-0.0750095
-0.078957
-0.0828261
-0.0866168
-0.0903296
-0.0939656
-0.097526
-0.101013
-0.104429
-0.107778
-0.111063
-0.11429
-0.0204634
-0.0251923
-0.0298635
-0.0344744
-0.0390228
-0.0435064
-0.0479235
-0.0522721
-0.0565506
-0.0607576
-0.0648917
-0.0689519
-0.0729374
-0.0768478
-0.0806828
-0.0844426
-0.0881277
-0.0917389
-0.0952778
-0.0987463
-0.102147
-0.105483
-0.108757
-0.111976
-0.115144
-0.0190706
-0.0237301
-0.028334
-0.03288
-0.0373658
-0.0417894
-0.0461489
-0.0504425
-0.0546687
-0.058826
-0.0629132
-0.0669294
-0.0708738
-0.074746
-0.0785457
-0.0822731
-0.0859288
-0.0895135
-0.0930288
-0.0964764
-0.0998587
-0.103179
-0.10644
-0.109647
-0.112805
-0.115919
-0.118998
-0.0176885
-0.022279
-0.0268161
-0.0312975
-0.035721
-0.0400846
-0.0443864
-0.0486249
-0.0527985
-0.0569058
-0.0609457
-0.0649172
-0.0688196
-0.0726525
-0.0764158
-0.0801095
-0.0837341
-0.0872907
-0.0907803
-0.0942048
-0.0975663
-0.100868
-0.104112
-0.107305
-0.110449
-0.113551
-0.116617
-0.119655
-0.0163177
-0.0208398
-0.0253105
-0.0297276
-0.0340889
-0.0383926
-0.0426369
-0.0468202
-0.050941
-0.0549979
-0.05899
-0.0629161
-0.0667758
-0.0705686
-0.0742942
-0.0779529
-0.0815451
-0.0850716
-0.0885337
-0.0919329
-0.0952713
-0.0985516
-0.101777
-0.104951
-0.108078
-0.111164
-0.114214
-0.117235
-0.120235
-0.123223
-0.0149589
-0.0194131
-0.0238177
-0.0281709
-0.0324704
-0.0367144
-0.0409012
-0.0450292
-0.049097
-0.0531033
-0.057047
-0.0609273
-0.0647435
-0.0684951
-0.0721821
-0.0758046
-0.0793629
-0.0828578
-0.0862904
-0.0896623
-0.0929754
-0.096232
-0.0994352
-0.102588
-0.105695
-0.108761
-0.111791
-0.114791
-0.117769
-0.120733
-0.12369
-0.0136125
-0.0179993
-0.0223385
-0.0266281
-0.030866
-0.0350505
-0.0391799
-0.0432526
-0.0472673
-0.0512227
-0.0551177
-0.0589516
-0.0627236
-0.0664334
-0.0700807
-0.0736657
-0.0771888
-0.0806506
-0.0840521
-0.0873947
-0.0906803
-0.093911
-0.0970895
-0.100219
-0.103303
-0.106346
-0.109353
-0.112329
-0.115281
-0.118216
-0.121142
-0.124068
-0.127004
-0.0122792
-0.0165992
-0.0208734
-0.0250998
-0.0292765
-0.0334018
-0.0374738
-0.0414913
-0.0454528
-0.049357
-0.0532031
-0.0569901
-0.0607173
-0.0643844
-0.0679912
-0.0715377
-0.0750242
-0.0784514
-0.0818202
-0.0851318
-0.0883879
-0.0915904
-0.0947419
-0.097845
-0.100903
-0.103921
-0.106901
-0.10985
-0.112773
-0.115677
-0.118568
-0.121455
-0.124346
-0.127251
-0.130178
-0.0109595
-0.0152133
-0.0194231
-0.0235868
-0.0277027
-0.0317689
-0.0357839
-0.0397461
-0.0436543
-0.0475073
-0.0513041
-0.0550437
-0.0587256
-0.0623494
-0.0659147
-0.0694217
-0.0728706
-0.0762619
-0.0795964
-0.0828753
-0.0861
-0.0892724
-0.0923946
-0.0954692
-0.0984993
-0.101488
-0.10444
-0.107359
-0.11025
-0.11312
-0.115974
-0.118819
-0.121662
-0.124513
-0.127379
-0.130279
-0.00965394
-0.0138423
-0.0179881
-0.0220897
-0.0261451
-0.0301526
-0.0341107
-0.0380179
-0.0418728
-0.0456744
-0.0494216
-0.0531136
-0.0567497
-0.0603294
-0.0638526
-0.0673191
-0.0707293
-0.0740834
-0.0773823
-0.0806269
-0.0838186
-0.086959
-0.09005
-0.0930939
-0.0960934
-0.0990516
-0.101972
-0.104859
-0.107716
-0.110549
-0.113363
-0.116163
-0.118958
-0.121753
-0.124557
-0.127385
-0.00836318
-0.0124867
-0.0165693
-0.0206092
-0.0246046
-0.0285538
-0.0324552
-0.0363074
-0.0401092
-0.0438593
-0.0475567
-0.0512007
-0.0547906
-0.0583258
-0.0618061
-0.0652313
-0.0686017
-0.0719176
-0.0751796
-0.0783886
-0.0815457
-0.0846523
-0.0877103
-0.0907215
-0.0936884
-0.0966138
-0.0995007
-0.102353
-0.105173
-0.107968
-0.11074
-0.113495
-0.116239
-0.118978
-0.121719
-0.124474
-0.00708777
-0.0111472
-0.0151672
-0.019146
-0.0230818
-0.026973
-0.0308181
-0.0346156
-0.0383642
-0.0420628
-0.0457105
-0.0493062
-0.0528494
-0.0563396
-0.0597764
-0.0631597
-0.0664895
-0.0697661
-0.0729901
-0.0761621
-0.0792832
-0.0823547
-0.0853779
-0.0883547
-0.0912873
-0.0941779
-0.0970293
-0.0998446
-0.102627
-0.105381
-0.108109
-0.110817
-0.11351
-0.116192
-0.118869
-0.121553
-0.00582832
-0.00982438
-0.0137824
-0.0177007
-0.0215775
-0.0254112
-0.0292002
-0.0329432
-0.0366389
-0.0402861
-0.0438838
-0.0474312
-0.0509275
-0.0543722
-0.057765
-0.0611056
-0.0643941
-0.0676306
-0.0708155
-0.0739495
-0.0770333
-0.0800682
-0.0830553
-0.0859962
-0.0888927
-0.0917469
-0.0945612
-0.0973382
-0.100081
-0.102792
-0.105476
-0.108136
-0.110776
-0.113401
-0.116015
-0.118628
-0.00458547
-0.00851895
-0.0124157
-0.0162742
-0.0200925
-0.0238691
-0.0276025
-0.0312912
-0.0349341
-0.03853
-0.0420778
-0.0455767
-0.0490259
-0.0524249
-0.0557732
-0.0590706
-0.062317
-0.0655126
-0.0686576
-0.0717526
-0.0747981
-0.0777952
-0.0807449
-0.0836485
-0.0865076
-0.089324
-0.0920998
-0.094837
-0.0975384
-0.100206
-0.102844
-0.105455
-0.108043
-0.11061
-0.113162
-0.115705
-0.00335985
-0.00723156
-0.0110678
-0.0148671
-0.0186275
-0.0223475
-0.0260257
-0.0296606
-0.0332509
-0.0367956
-0.0402936
-0.0437439
-0.0471459
-0.0504989
-0.0538024
-0.0570562
-0.0602601
-0.0634141
-0.0665184
-0.0695734
-0.0725797
-0.075538
-0.0784492
-0.0813144
-0.084135
-0.0869124
-0.0896484
-0.0923448
-0.0950038
-0.0976276
-0.100219
-0.10278
-0.105314
-0.107824
-0.110314
-0.112789
-0.00215214
-0.00596291
-0.00973946
-0.0134802
-0.0171833
-0.0208474
-0.0244708
-0.0280522
-0.0315903
-0.035084
-0.0385323
-0.0419341
-0.0452887
-0.0485956
-0.0518541
-0.0550639
-0.0582248
-0.0613367
-0.0643997
-0.0674142
-0.0703804
-0.073299
-0.0761708
-0.0789967
-0.0817777
-0.0845151
-0.0872104
-0.0898651
-0.092481
-0.0950599
-0.097604
-0.100116
-0.102597
-0.10505
-0.107479
-0.109887
-0.000963028
-0.00471374
-0.00843136
-0.0121143
-0.0157609
-0.0193695
-0.0229387
-0.026467
-0.0299533
-0.0333963
-0.036795
-0.0401484
-0.0434558
-0.0467164
-0.0499297
-0.0530953
-0.0562128
-0.0592823
-0.0623035
-0.0652768
-0.0682024
-0.0710807
-0.0739124
-0.0766981
-0.0794388
-0.0821355
-0.0847894
-0.0874016
-0.0899738
-0.0925075
-0.0950042
-0.0974659
-0.0998944
-0.102292
-0.10466
-0.107003
0.000206765
-0.00348479
-0.00714434
-0.0107703
-0.014361
-0.0179148
-0.0214303
-0.0249061
-0.0283409
-0.0317336
-0.035083
-0.0383882
-0.0416484
-0.0448628
-0.0480309
-0.0511521
-0.0542261
-0.0572527
-0.0602318
-0.0631635
-0.066048
-0.0688855
-0.0716765
-0.0744215
-0.0771214
-0.0797768
-0.0823887
-0.0849581
-0.0874863
-0.0899744
-0.0924238
-0.094836
-0.0972123
-0.0995544
-0.101864
-0.104144
0.00135648
-0.00227686
-0.00587921
-0.009449
-0.0129845
-0.0164843
-0.0199467
-0.0233705
-0.0267544
-0.0300971
-0.0333975
-0.0366548
-0.039868
-0.0430363
-0.0461591
-0.0492359
-0.0522663
-0.0552499
-0.0581867
-0.0610766
-0.0639195
-0.0667159
-0.0694658
-0.0721698
-0.0748284
-0.0774421
-0.0800118
-0.0825382
-0.0850222
-0.0874649
-0.0898672
-0.0922303
-0.0945553
-0.0968433
-0.099096
-0.101315
0.00248533
-0.00109078
-0.00463685
-0.00815132
-0.0116325
-0.0150789
-0.018489
-0.0218613
-0.0251947
-0.0284879
-0.0317399
-0.0349495
-0.0381159
-0.0412383
-0.0443161
-0.0473485
-0.0503353
-0.0532759
-0.0561703
-0.0590181
-0.0618195
-0.0645744
-0.0672831
-0.0699458
-0.0725629
-0.0751348
-0.0776622
-0.0801455
-0.0825856
-0.084983
-0.0873387
-0.0896534
-0.0919279
-0.0941632
-0.0963604
-0.0985201
0.00359248
7.25996e-05
-0.00341815
-0.0068782
-0.0103059
-0.0136997
-0.0170581
-0.0203797
-0.0236633
-0.0269075
-0.0301114
-0.0332737
-0.0363938
-0.0394706
-0.0425035
-0.0454918
-0.048435
-0.0513327
-0.0541846
-0.0569905
-0.0597501
-0.0624636
-0.065131
-0.0677524
-0.070328
-0.0728582
-0.0753433
-0.0777838
-0.0801801
-0.0825329
-0.0848425
-0.0871097
-0.0893349
-0.0915189
-0.0936624
-0.0957657
0.00467708
0.00121237
-0.00222405
-0.00563063
-0.0090057
-0.0123477
-0.0156552
-0.0189268
-0.0221612
-0.0253571
-0.0285134
-0.031629
-0.0347031
-0.0377347
-0.040723
-0.0436674
-0.0465674
-0.0494224
-0.052232
-0.054996
-0.0577141
-0.0603863
-0.0630124
-0.0655926
-0.0681269
-0.0706155
-0.0730587
-0.0754567
-0.0778098
-0.0801184
-0.0823828
-0.0846035
-0.0867808
-0.0889151
-0.0910068
-0.0930561
0.0057382
0.00232757
-0.00105556
-0.00440964
-0.00773304
-0.0110242
-0.0142816
-0.017504
-0.0206898
-0.0238381
-0.0269474
-0.0300169
-0.0330455
-0.0360323
-0.0389765
-0.0418775
-0.0447345
-0.047547
-0.0503147
-0.053037
-0.0557139
-0.0583449
-0.0609301
-0.0634694
-0.0659627
-0.0684101
-0.0708118
-0.0731678
-0.0754783
-0.0777436
-0.0799638
-0.0821392
-0.08427
-0.0863563
-0.0883984
-0.0903962
0.0067749
0.00341722
8.62964e-05
-0.00321633
-0.00648903
-0.00973024
-0.0129385
-0.0161124
-0.0192506
-0.0223519
-0.025415
-0.028439
-0.0314227
-0.0343653
-0.0372659
-0.0401238
-0.0429383
-0.0457089
-0.0484349
-0.0511161
-0.053752
-0.0563424
-0.058887
-0.0613858
-0.0638385
-0.0662453
-0.068606
-0.0709207
-0.0731895
-0.0754125
-0.0775896
-0.0797211
-0.0818069
-0.0838471
-0.0858417
-0.0877906
0.00778617
0.00448027
0.00120042
-0.00205184
-0.00527488
-0.00846714
-0.0116272
-0.0147535
-0.0178449
-0.0209
-0.0239177
-0.0268968
-0.0298364
-0.0327354
-0.0355931
-0.0384086
-0.0411811
-0.0439102
-0.0465952
-0.0492357
-0.0518311
-0.0543813
-0.056886
-0.0593448
-0.0617576
-0.0641244
-0.0664449
-0.0687192
-0.0709472
-0.0731289
-0.0752642
-0.0773532
-0.0793957
-0.0813917
-0.0833411
-0.0852437
0.00877095
0.00551561
0.00228565
-0.000917364
-0.00409183
-0.00723619
-0.010349
-0.0134288
-0.0164742
-0.0194841
-0.0224572
-0.0253923
-0.0282885
-0.0311447
-0.0339601
-0.0367338
-0.0394651
-0.0421533
-0.0447979
-0.0473983
-0.049954
-0.0524647
-0.0549299
-0.0573495
-0.0597232
-0.0620508
-0.064332
-0.0665669
-0.0687552
-0.0708968
-0.0729917
-0.0750397
-0.0770407
-0.0789945
-0.0809009
-0.0827598
0.00972813
0.00652208
0.0033408
0.000185832
-0.0029412
-0.00603877
-0.00910538
-0.0121396
-0.0151402
-0.0181057
-0.0210351
-0.0239271
-0.0267808
-0.029595
-0.0323689
-0.0351016
-0.0377925
-0.0404406
-0.0430455
-0.0456066
-0.0481233
-0.0505952
-0.053022
-0.0554032
-0.0577385
-0.0600278
-0.0622708
-0.0644673
-0.0666171
-0.0687201
-0.070776
-0.0727847
-0.074746
-0.0766597
-0.0785254
-0.0803432
0.0106565
0.00749846
0.00436457
0.00125642
-0.0018244
-0.00487633
-0.00789791
-0.0108877
-0.0138444
-0.0167667
-0.0196533
-0.0225032
-0.0253152
-0.0280884
-0.0308218
-0.0335144
-0.0361656
-0.0387746
-0.0413407
-0.0438633
-0.0463419
-0.0487759
-0.0511651
-0.0535088
-0.0558069
-0.058059
-0.0602649
-0.0624243
-0.0645369
-0.0666025
-0.068621
-0.0705921
-0.0725156
-0.0743913
-0.0762187
-0.0779979
0.0115549
0.00844347
0.00535563
0.00229298
-0.000742871
-0.0037504
-0.00672814
-0.00967466
-0.0125886
-0.0154687
-0.0183138
-0.0211226
-0.023894
-0.0266271
-0.0293209
-0.0319745
-0.034587
-0.0371578
-0.039686
-0.0421712
-0.0446126
-0.0470099
-0.0493624
-0.0516698
-0.0539317
-0.0561479
-0.0583178
-0.0604413
-0.0625182
-0.0645481
-0.0665308
-0.0684661
-0.0703537
-0.0721934
-0.0739848
-0.0757279
0.012422
0.00935572
0.00631254
0.00329405
0.000301826
-0.0026626
-0.00559775
-0.00850223
-0.0113747
-0.0142138
-0.0170184
-0.0197872
-0.0225192
-0.0252134
-0.0278687
-0.0304842
-0.0330592
-0.0355928
-0.0380843
-0.0405331
-0.0429385
-0.0453
-0.0476171
-0.0498894
-0.0521164
-0.0542978
-0.0564332
-0.0585223
-0.0605649
-0.0625606
-0.0645093
-0.0664106
-0.0682643
-0.0700701
-0.0718277
-0.0735373
0.0132563
0.0102337
0.00723378
0.00425802
0.00130805
-0.00161462
-0.00450853
-0.00737226
-0.0102045
-0.0130039
-0.0157692
-0.0184993
-0.0211931
-0.0238495
-0.0264675
-0.0290462
-0.0315848
-0.0340825
-0.0365384
-0.038952
-0.0413226
-0.0436496
-0.0459326
-0.048171
-0.0503644
-0.0525124
-0.0546147
-0.056671
-0.0586809
-0.0606441
-0.0625604
-0.0644296
-0.0662514
-0.0680255
-0.0697516
-0.07143
0.0140565
0.011076
0.00811775
0.00518325
0.00227407
-0.000608276
-0.00346234
-0.00628672
-0.00908005
-0.0118411
-0.0145685
-0.0172612
-0.019918
-0.022538
-0.02512
-0.0276632
-0.0301666
-0.0326296
-0.0350512
-0.0374309
-0.039768
-0.0420619
-0.0443121
-0.046518
-0.0486793
-0.0507955
-0.0528662
-0.0548912
-0.05687
-0.0588025
-0.0606883
-0.0625273
-0.0643192
-0.0660637
-0.0677605
-0.06941
0.0148208
0.0118809
0.00896274
0.00606795
0.00319804
0.000354513
-0.00246118
-0.00524766
-0.00800356
-0.0107276
-0.0134185
-0.0160752
-0.0186965
-0.0212813
-0.0238287
-0.0263377
-0.0288075
-0.0312371
-0.0336259
-0.0359731
-0.0382781
-0.0405403
-0.0427592
-0.0449341
-0.0470648
-0.0491507
-0.0511915
-0.0531868
-0.0551364
-0.0570399
-0.0588971
-0.0607078
-0.0624718
-0.0641888
-0.0658585
-0.0674814
0.0155476
0.0126465
0.00976691
0.00691021
0.00407798
0.00127171
-0.00150718
-0.00425728
-0.00697727
-0.00966585
-0.0123218
-0.0149439
-0.0175312
-0.0200824
-0.0225966
-0.0250729
-0.0275104
-0.0299082
-0.0322656
-0.0345819
-0.0368563
-0.0390884
-0.0412775
-0.0434231
-0.0455247
-0.047582
-0.0495946
-0.051562
-0.0534841
-0.0553605
-0.057191
-0.0589754
-0.0607135
-0.0624051
-0.06405
-0.0656485
0.016235
0.0133712
0.0105283
0.00770803
0.00491181
0.00214113
-0.000602573
-0.00331793
-0.00600361
-0.00865833
-0.0112809
-0.01387
-0.0164248
-0.0189439
-0.0214266
-0.0238718
-0.0262785
-0.0286461
-0.0309738
-0.0332607
-0.0355062
-0.0377097
-0.0398707
-0.0419887
-0.0440631
-0.0460935
-0.0480796
-0.050021
-0.0519175
-0.0537687
-0.0555745
-0.0573346
-0.0590489
-0.0607171
-0.0623392
-0.0639156
0.0168812
0.0140527
0.0112449
0.00845922
0.00569726
0.00296046
0.000250213
-0.0024321
-0.00508516
-0.0077077
-0.0102985
-0.0128564
-0.0153803
-0.0178691
-0.0203218
-0.0227375
-0.0251153
-0.0274544
-0.0297539
-0.0320132
-0.0342315
-0.0364083
-0.038543
-0.040635
-0.042684
-0.0446894
-0.0466509
-0.0485683
-0.050441
-0.052269
-0.0540521
-0.0557899
-0.0574824
-0.0591295
-0.060731
-0.0622873
0.0174841
0.014689
0.0119143
0.00916146
0.00643193
0.00372718
0.00104859
-0.00160247
-0.0042247
-0.00681684
-0.00937767
-0.0119061
-0.0144009
-0.0168611
-0.0192857
-0.0216737
-0.0240243
-0.0263366
-0.0286098
-0.0308432
-0.0330362
-0.0351881
-0.0372983
-0.0393664
-0.0413918
-0.0433742
-0.0453131
-0.0472083
-0.0490594
-0.0508662
-0.0526286
-0.0543462
-0.0560191
-0.0576471
-0.0592302
-0.0607686
0.0180414
0.0152778
0.0125342
0.00981224
0.00711322
0.00443861
0.00178978
-0.000831914
-0.00342519
-0.0059888
-0.00852155
-0.0110223
-0.0134899
-0.0159234
-0.0183217
-0.0206839
-0.0230092
-0.0252966
-0.0275455
-0.029755
-0.0319246
-0.0340535
-0.0361413
-0.0381874
-0.0401913
-0.0421526
-0.044071
-0.0459461
-0.0477776
-0.0495654
-0.0513092
-0.0530088
-0.0546642
-0.0562753
-0.057842
-0.0593647
0.0185506
0.0158164
0.013102
0.0104088
0.0077383
0.00509183
0.00247077
-0.000123547
-0.00268985
-0.00522692
-0.00773355
-0.0102086
-0.012651
-0.0150597
-0.0174338
-0.0197722
-0.0220741
-0.0243388
-0.0265653
-0.028753
-0.0309011
-0.0330092
-0.0350766
-0.0371028
-0.0390873
-0.0410297
-0.0429297
-0.0447869
-0.046601
-0.0483719
-0.0500993
-0.0517831
-0.0534232
-0.0550196
-0.0565722
-0.0580812
0.019009
0.0163022
0.0136148
0.0109483
0.00830413
0.00568369
0.0030883
0.000519262
-0.00202216
-0.00453476
-0.00701736
-0.00946885
-0.0118881
-0.0142742
-0.0166261
-0.0189428
-0.0212235
-0.0234674
-0.0256738
-0.0278417
-0.0299707
-0.0320601
-0.0341093
-0.0361178
-0.0380852
-0.0400109
-0.0418947
-0.0437363
-0.0455353
-0.0472915
-0.0490049
-0.0506751
-0.0523022
-0.0538861
-0.0554268
-0.0569244
0.0194139
0.016732
0.0140694
0.0114274
0.00880736
0.00621074
0.00363881
0.00109285
-0.00142589
-0.00391623
-0.00637701
-0.00880712
-0.0112055
-0.0135711
-0.015903
-0.0182003
-0.0204621
-0.0226876
-0.0248759
-0.0270265
-0.0291386
-0.0312116
-0.0332449
-0.0352381
-0.0371906
-0.0391021
-0.0409721
-0.0428004
-0.0445866
-0.0463306
-0.0480322
-0.0496913
-0.0513077
-0.0528814
-0.0544125
-0.055901
0.0197619
0.0171027
0.0144624
0.0118425
0.00924437
0.00666924
0.00411844
0.00159325
-0.000905138
-0.00337554
-0.00581681
-0.00822787
-0.0106077
-0.0129552
-0.0152695
-0.0175497
-0.0197949
-0.0220043
-0.0241772
-0.0263128
-0.0284104
-0.0304694
-0.0324894
-0.0344696
-0.0364098
-0.0383094
-0.0401682
-0.0419857
-0.0437617
-0.0454959
-0.0471883
-0.0488386
-0.0504468
-0.0520128
-0.0535366
-0.0550184
0.0200496
0.0174105
0.0147902
0.0121899
0.00961108
0.00705498
0.00452286
0.00201597
-0.000464516
-0.00291743
-0.00534167
-0.00773615
-0.0100998
-0.0124318
-0.014731
-0.0169966
-0.0192277
-0.0214236
-0.0235835
-0.0257066
-0.0277923
-0.02984
-0.0318491
-0.0338191
-0.0357495
-0.03764
-0.03949
-0.0412993
-0.0430677
-0.0447948
-0.0464806
-0.0481247
-0.0497273
-0.0512881
-0.0528072
-0.0542847
0.0202731
0.0176515
0.0150483
0.012465
0.00990286
0.00736312
0.00484702
0.00235576
-0.000109477
-0.00254757
-0.00495743
-0.00733801
-0.00968828
-0.0120073
-0.0142941
-0.0165478
-0.0187676
-0.0209526
-0.0231022
-0.0252156
-0.0272922
-0.0293312
-0.0313323
-0.0332948
-0.0352182
-0.0371022
-0.0389463
-0.0407502
-0.0425137
-0.0442364
-0.0459182
-0.0475589
-0.0491584
-0.0507167
-0.0522336
-0.0537093
0.0204285
0.0178218
0.0152335
0.0126648
0.010117
0.00759122
0.00508873
0.00261069
0.000158238
-0.00226753
-0.00466555
-0.00703479
-0.00937425
-0.011683
-0.0139601
-0.0162047
-0.018416
-0.0205931
-0.0227353
-0.024842
-0.0269124
-0.028946
-0.0309421
-0.0329002
-0.0348198
-0.0367006
-0.038542
-0.0403438
-0.0421055
-0.0438271
-0.0455082
-0.0471486
-0.0487483
-0.050307
-0.0518249
-0.0533017
0.0205093
0.0179151
0.015339
0.0127823
0.0102461
0.00773166
0.00524017
0.00277273
0.000330467
-0.00208556
-0.00447431
-0.00683477
-0.00916599
-0.011467
-0.013737
-0.015975
-0.0181802
-0.020352
-0.0224894
-0.0245919
-0.0266588
-0.0286894
-0.0306832
-0.0326397
-0.0345583
-0.0364386
-0.0382802
-0.0400828
-0.041846
-0.0435695
-0.0452531
-0.0468966
-0.0484998
-0.0500627
-0.051585
-0.0530668
-0.000610743
-0.00648801
-0.0123017
-0.0180481
-0.023724
-0.0293246
0.0180682
0.0121144
0.00621427
0.000366244
-0.00542326
-0.0111515
-0.0168149
-0.0224103
-0.0279331
0.0306193
0.0246724
0.0187678
0.012908
0.00709907
0.00134075
-0.00436142
-0.0100046
-0.0155854
-0.0211005
-0.0265458
0.0429334
0.0370128
0.0311258
0.0252757
0.0194662
0.0136997
0.00798151
0.00231231
-0.00330302
-0.00886158
-0.0143601
-0.0197954
-0.0251634
0.0549683
0.0490926
0.0432425
0.0374213
0.0316321
0.0258782
0.020163
0.0144891
0.00886113
0.00328042
-0.00224857
-0.00772299
-0.0131396
-0.0184955
-0.0237865
0.060873
0.0550775
0.0493031
0.0435531
0.0378304
0.0321382
0.0264796
0.0208579
0.0152758
0.00973754
0.00424469
-0.00119855
-0.00658935
-0.0119246
-0.0172014
-0.0224158
0.0608838
0.0551899
0.049516
0.043865
0.0382399
0.0326438
0.0270797
0.0215507
0.0160596
0.0106104
0.00520469
-0.000153402
-0.00546115
-0.0107156
-0.0159137
-0.0210519
0.0608988
0.0553056
0.0497311
0.0441782
0.0386498
0.0331488
0.0276782
0.0222411
0.0168403
0.0114794
0.00616005
0.000886438
-0.00433887
-0.00951297
-0.014633
-0.0196955
0.0609184
0.0554247
0.0499485
0.0444926
0.0390598
0.033653
0.0282751
0.022929
0.0176174
0.0123441
0.00711038
0.00192054
-0.00322299
-0.00831737
-0.0133598
-0.018347
0.0609425
0.0555473
0.0501683
0.0448083
0.0394701
0.0341564
0.0288701
0.023614
0.0183908
0.0132042
0.00805528
0.00294847
-0.00211395
-0.00712925
-0.0120947
-0.017007
0.0609714
0.0556733
0.0503903
0.0451251
0.0398803
0.0346587
0.029463
0.024296
0.0191602
0.0140595
0.00899439
0.00396983
-0.00101222
-0.00594911
-0.0108381
-0.0156762
0.0610049
0.0558028
0.0506147
0.045443
0.0402905
0.0351598
0.0300536
0.0249746
0.0199252
0.0149097
0.00992735
0.00498421
8.17718e-05
-0.00477742
-0.00959068
-0.0143551
0.0610433
0.0559358
0.0508412
0.0457619
0.0407005
0.0356595
0.0306417
0.0256496
0.0206856
0.0157544
0.0108537
0.0059912
0.00116758
-0.00361467
-0.00835285
-0.0130442
0.0610864
0.0560723
0.0510699
0.0460817
0.0411101
0.0361577
0.0312272
0.0263208
0.0214408
0.0165929
0.0117729
0.0069904
0.00224478
-0.00246131
-0.00712515
-0.011744
0.0611343
0.0562122
0.0513007
0.0464022
0.0415192
0.0366542
0.0318097
0.026988
0.0221908
0.0174256
0.0126843
0.00798132
0.00331298
-0.00131781
-0.00590806
-0.0104552
0.0611869
0.0563554
0.0515334
0.0467234
0.0419277
0.0371488
0.0323891
0.0276511
0.0229373
0.0182611
0.0135893
0.00896362
0.00437171
-0.000184619
-0.00470209
-0.00917819
0.0612442
0.0565018
0.051768
0.047045
0.0423352
0.0376411
0.032965
0.0283093
0.0236795
0.0191058
0.0144897
0.00993727
0.00542041
0.000937743
-0.00350773
-0.00791355
0.061306
0.0566513
0.0520042
0.0473669
0.0427416
0.0381308
0.0335368
0.0289621
0.0244054
0.0198424
0.0153735
0.0109022
0.00645864
0.00204875
-0.00232552
-0.00666181
0.0613722
0.0568038
0.0522419
0.0476888
0.0431467
0.038618
0.0341048
0.0296097
0.0251348
0.020673
0.0162572
0.0118571
0.00748626
0.00314808
-0.00115593
-0.00542352
0.0614427
0.0569589
0.0524808
0.0480105
0.0435502
0.0391022
0.0346686
0.0302521
0.0258553
0.0214779
0.0171285
0.0128011
0.0085026
0.00423517
4.87597e-07
-0.00419923
0.0615172
0.0571166
0.0527207
0.0483317
0.0439518
0.0395831
0.0352279
0.0308885
0.0265673
0.0222653
0.0179884
0.0137342
0.00950707
0.00530944
0.00114319
-0.0029895
0.0659163
0.0615956
0.0572766
0.0529615
0.0486523
0.0443512
0.0400604
0.0357821
0.0315185
0.0272719
0.0230437
0.0188388
0.0146562
0.0104992
0.0063704
0.00227163
-0.00179492
0.0659175
0.0616775
0.0574386
0.0532026
0.0489718
0.0447481
0.0405337
0.0363309
0.0321418
0.0279686
0.0238131
0.019679
0.0155665
0.0114786
0.00741752
0.00338526
-0.000616075
0.0659236
0.0617628
0.0576023
0.0534439
0.0492898
0.0451421
0.0410027
0.036874
0.032758
0.0286569
0.0245726
0.0205083
0.0164647
0.0124447
0.00845024
0.00448347
0.000546418
0.0659344
0.0618512
0.0577674
0.0536851
0.0496062
0.0455328
0.0414669
0.0374108
0.0333665
0.0293362
0.0253217
0.021326
0.0173502
0.0133968
0.00946798
0.00556567
0.00169192
0.0659496
0.0619423
0.0579336
0.0539257
0.0499204
0.0459198
0.041926
0.037941
0.0339669
0.030006
0.02606
0.0221317
0.0182224
0.0143345
0.0104701
0.00663121
0.00281977
0.0659689
0.0620357
0.0581005
0.0541653
0.050232
0.0463027
0.0423793
0.038464
0.0345588
0.0306658
0.026787
0.0229248
0.0190807
0.0152571
0.011456
0.00767944
0.00392927
0.065992
0.0621312
0.0582678
0.0544036
0.0505407
0.046681
0.0428266
0.0389794
0.0351416
0.0313151
0.027502
0.0237047
0.0199245
0.016164
0.0124251
0.00870966
0.0050197
0.0660185
0.0622283
0.0584349
0.0546401
0.0508459
0.0470543
0.0432672
0.0394867
0.0357147
0.0319533
0.0282046
0.0244707
0.0207532
0.0170545
0.0133765
0.00972114
0.00609031
0.0660481
0.0623267
0.0586015
0.0548744
0.0511473
0.047422
0.0437007
0.0399852
0.0362776
0.0325799
0.028894
0.0252223
0.0215661
0.0179279
0.0143096
0.0107131
0.00714029
0.0660802
0.0624259
0.0587672
0.055106
0.0514442
0.0477837
0.0441265
0.0404745
0.0368297
0.0331941
0.0295697
0.0259587
0.0223625
0.0187835
0.0152237
0.0116848
0.00816882
0.0661146
0.0625255
0.0589314
0.0553344
0.0517362
0.0481388
0.044544
0.0409539
0.0373704
0.0337954
0.0302309
0.0266793
0.0231416
0.0196205
0.0161178
0.0126354
0.00917502
0.0661508
0.0626249
0.0590937
0.055559
0.0520227
0.0484866
0.0449526
0.0414227
0.0378989
0.034383
0.030877
0.0273832
0.0239026
0.020438
0.0169912
0.0135639
0.010158
0.0661883
0.0627238
0.0592536
0.0557794
0.0523031
0.0488266
0.0453517
0.0418804
0.0384146
0.0349562
0.0315072
0.0280698
0.0246448
0.0212353
0.017843
0.0144695
0.0111167
0.0662266
0.0628216
0.0594104
0.0559949
0.0525769
0.0491582
0.0457407
0.0423263
0.0389169
0.0355143
0.0321207
0.0287383
0.0253673
0.0220114
0.0186722
0.0153512
0.0120503
0.0662652
0.0629176
0.0595636
0.0562049
0.0528433
0.0494806
0.0461187
0.0427594
0.0394048
0.0360564
0.0327166
0.0293877
0.0260691
0.0227654
0.0194778
0.0162079
0.0129575
0.0663035
0.0630115
0.0597127
0.0564088
0.0531017
0.0497932
0.0464851
0.0431792
0.0398775
0.0365816
0.0332935
0.0300166
0.0267485
0.0234959
0.0202588
0.0170387
0.0138373
0.0663411
0.0631025
0.0598569
0.0566059
0.0533514
0.0500952
0.0468391
0.0435849
0.0403345
0.0370895
0.0338525
0.0306286
0.0274057
0.0242019
0.0210142
0.0178423
0.0146886
0.0663772
0.06319
0.0599955
0.0567955
0.0535916
0.0503858
0.0471798
0.0439755
0.0407747
0.0375795
0.0343963
0.031242
0.0280458
0.0248845
0.0217432
0.0186177
0.0155101
0.0664113
0.0632733
0.0601279
0.0569767
0.0538215
0.050664
0.047506
0.0443493
0.0411956
0.0380466
0.0348993
0.0317412
0.0286451
0.0255399
0.0224433
0.0193629
0.0163001
0.0664426
0.0633518
0.0602533
0.0571489
0.0540403
0.0509293
0.0478175
0.0447067
0.0415989
0.038496
0.0353992
0.0323075
0.0292348
0.0261687
0.0231151
0.0200777
0.0170577
0.0664706
0.0634246
0.060371
0.0573112
0.0542471
0.0511804
0.0481129
0.0450462
0.0419822
0.0389228
0.0358698
0.032824
0.0297901
0.0267661
0.0237552
0.0207597
0.017781
0.0664944
0.063491
0.0604799
0.0574627
0.054441
0.0514166
0.0483911
0.0453665
0.0423443
0.0393264
0.0363144
0.0333098
0.0303162
0.0273332
0.0243629
0.0214075
0.0184685
0.0665132
0.0635502
0.0605793
0.0576024
0.0546209
0.0516366
0.0486512
0.0456664
0.0426839
0.0397056
0.0367331
0.033768
0.030813
0.0278686
0.0249368
0.0220196
0.0191184
0.0665262
0.0636011
0.0606682
0.0577292
0.0547856
0.0518392
0.0488917
0.0459446
0.0429999
0.0400591
0.037124
0.0341961
0.0312779
0.0283703
0.0254751
0.0225941
0.019729
0.0665325
0.0636429
0.0607456
0.0578421
0.0549342
0.0520234
0.0491114
0.0461999
0.0432906
0.0403852
0.0374854
0.0345927
0.0317093
0.0288364
0.0259758
0.0231291
0.020298
0.0665312
0.0636745
0.0608102
0.0579399
0.0550652
0.0521876
0.0493089
0.0464307
0.0435546
0.0406824
0.0378156
0.0349559
0.0321053
0.0292651
0.0264369
0.0236225
0.0208235
0.0665212
0.0636948
0.060861
0.0580213
0.0551773
0.0523305
0.0494827
0.0466353
0.0437902
0.0409488
0.0381128
0.0352839
0.0324639
0.0296542
0.0268563
0.0240721
0.021303
0.0665015
0.0637027
0.0608967
0.058085
0.0552691
0.0524506
0.0496311
0.0468122
0.0439955
0.0411826
0.0383751
0.0355746
0.0327829
0.0300013
0.0272316
0.0244753
0.0217339
0.0664709
0.0636969
0.0609159
0.0581294
0.055339
0.0525461
0.0497523
0.0469593
0.0441685
0.0413816
0.0386001
0.0358256
0.0330598
0.0303041
0.0275602
0.0248295
0.0221135
0.0664282
0.063676
0.0609171
0.058153
0.0553852
0.0526152
0.0498444
0.0470745
0.0443071
0.0415435
0.0387855
0.0360344
0.0332921
0.0305598
0.0278391
0.0251316
0.0224387
0.0663721
0.0636386
0.0608988
0.0581541
0.0554059
0.0526558
0.0499053
0.0471558
0.0444088
0.0416659
0.0389286
0.0361984
0.0334768
0.0307653
0.0280653
0.0253785
0.0227061
0.0663025
0.0635844
0.0608604
0.0581318
0.0554002
0.0526669
0.0499334
0.0472013
0.0444718
0.0417466
0.0390272
0.0363148
0.0336112
0.0309176
0.0282356
0.0255666
0.022912
0.0662122
0.0635061
0.0607945
0.0580789
0.0553607
0.0526412
0.0499219
0.0472042
0.0444895
0.0417794
0.0390752
0.0363783
0.0336899
0.0310116
0.028345
0.0256914
0.0230521
0.0687832
0.0660923
0.0633952
0.0606933
0.0579879
0.0552803
0.0525719
0.0498641
0.0471582
0.0444556
0.0417577
0.0390658
0.0363812
0.0337061
0.0310413
0.0283877
0.0257469
0.0231203
)
;

boundaryField
{
    inlet
    {
        type            zeroGradient;
    }
    outlet
    {
        type            fixedValue;
        value           nonuniform 0();
    }
    cylinder
    {
        type            zeroGradient;
    }
    top
    {
        type            symmetryPlane;
    }
    bottom
    {
        type            symmetryPlane;
    }
    defaultFaces
    {
        type            empty;
    }
    procBoundary13to9
    {
        type            processor;
        value           nonuniform List<scalar> 
74
(
-0.0363215
-0.0418345
-0.0472607
-0.0525958
-0.0578363
-0.062979
-0.0661639
-0.0661639
-0.0710493
-0.0758314
-0.0785095
-0.0785095
-0.083037
-0.0853862
-0.0853862
-0.0896672
-0.0938432
-0.0957562
-0.0957562
-0.0997001
-0.101346
-0.101346
-0.10286
-0.10286
-0.106484
-0.10778
-0.10778
-0.111226
-0.112335
-0.112335
-0.113355
-0.113355
-0.116586
-0.117464
-0.117464
-0.118267
-0.118267
-0.121355
-0.122049
-0.122049
-0.122673
-0.122673
-0.125682
-0.126209
-0.126209
-0.126653
-0.126653
-0.129632
-0.129961
-0.129961
-0.13295
-0.133151
-0.133151
-0.00159017
-0.00755555
-0.013455
-0.0192847
-0.0250413
-0.03072
0.0173677
0.0113193
0.00532759
0.00532759
0.0301129
0.0240683
0.0240683
0.0426256
0.0366048
0.0366048
0.0548623
0.0488843
0.0488843
0.0608665
0.0608665
)
;
    }
    procBoundary13to12
    {
        type            processor;
        value           nonuniform List<scalar> 
52
(
0.0666868
0.0665947
0.0665079
0.0664268