/*--------------------------------*- C++ -*----------------------------------*\
  =========                 |
  \\      /  F ield         | OpenFOAM: The Open Source CFD Toolbox
   \\    /   O peration     | Website:  https://openfoam.org
    \\  /    A nd           | Version:  7
     \\/     M anipulation  |
\*---------------------------------------------------------------------------*/
FoamFile
{
    version     2.0;
    format      ascii;
    class       volScalarField;
    location    "10";
    object      p;
}
// * * * * * * * * * * * * * * * * * * * * * * * * * * * * * * * * * * * * * //

dimensions      [0 2 -2 0 0 0 0];

internalField   nonuniform List<scalar> 
6050
(
-0.352072
-0.35874
-0.365984
-0.373599
-0.381234
-0.388353
-0.394223
-0.397885
-0.398226
-0.393915
-0.383723
-0.367011
-0.341585
-0.352337
-0.359037
-0.366342
-0.374055
-0.381838
-0.389165
-0.395319
-0.399335
-0.400135
-0.396409
-0.386604
-0.370876
-0.345174
-0.352812
-0.35956
-0.36696
-0.374834
-0.38286
-0.390528
-0.397151
-0.401745
-0.403254
-0.400573
-0.391135
-0.377333
-0.351167
-0.353399
-0.360181
-0.36767
-0.375706
-0.38399
-0.392016
-0.399143
-0.404353
-0.406496
-0.405171
-0.395779
-0.384773
-0.357361
-0.353972
-0.360742
-0.368268
-0.376407
-0.384881
-0.393171
-0.400693
-0.406402
-0.408858
-0.409088
-0.399155
-0.390046
-0.362933
-0.361085
-0.368562
-0.376698
-0.385236
-0.39362
-0.401337
-0.40733
-0.409968
-0.41065
-0.400866
-0.392343
-0.366062
-0.361083
-0.368405
-0.376408
-0.384862
-0.393156
-0.400822
-0.406771
-0.409275
-0.40995
-0.400176
-0.391182
-0.366045
-0.360651
-0.367716
-0.375469
-0.383676
-0.391692
-0.399074
-0.404688
-0.406772
-0.40679
-0.397022
-0.386524
-0.362407
-0.359763
-0.366485
-0.373883
-0.381713
-0.389286
-0.396155
-0.401135
-0.402507
-0.401198
-0.391257
-0.378673
-0.355045
-0.358443
-0.364761
-0.371724
-0.379065
-0.386059
-0.392136
-0.396178
-0.396436
-0.393333
-0.382733
-0.368041
-0.344387
-0.356756
-0.362629
-0.369106
-0.375826
-0.382077
-0.387032
-0.389795
-0.388463
-0.383335
-0.371564
-0.355177
-0.331436
-0.360187
-0.366097
-0.372031
-0.377297
-0.380778
-0.381873
-0.378573
-0.37141
-0.358297
-0.340885
-0.317443
-0.35749
-0.362703
-0.367632
-0.371577
-0.373272
-0.372357
-0.366973
-0.358007
-0.343808
-0.326124
-0.303484
-0.354535
-0.358846
-0.362502
-0.364764
-0.36447
-0.361402
-0.354131
-0.343807
-0.329012
-0.311712
-0.290214
-0.351253
-0.354396
-0.356499
-0.356815
-0.354496
-0.349401
-0.340669
-0.329497
-0.314592
-0.298137
-0.277902
-0.349228
-0.349557
-0.347849
-0.343654
-0.336862
-0.327168
-0.315555
-0.300915
-0.285556
-0.266561
-0.343281
-0.341739
-0.338125
-0.332332
-0.324256
-0.314025
-0.302211
-0.288102
-0.273882
-0.256056
-0.333226
-0.327958
-0.320887
-0.311924
-0.301435
-0.289544
-0.27613
-0.262827
-0.246158
-0.324252
-0.317628
-0.309585
-0.300057
-0.289462
-0.277595
-0.264901
-0.252005
-0.236651
-0.307345
-0.298587
-0.288724
-0.2781
-0.266397
-0.254311
-0.241317
-0.227475
-0.29724
-0.287968
-0.277916
-0.267319
-0.255903
-0.24429
-0.231447
-0.218651
-0.27774
-0.267588
-0.257075
-0.245979
-0.234718
-0.222635
-0.210844
-0.267879
-0.257688
-0.247299
-0.23651
-0.225712
-0.214306
-0.203317
-0.248159
-0.237914
-0.227457
-0.217086
-0.206312
-0.196182
-0.228858
-0.218722
-0.208783
-0.198629
-0.189163
-0.210249
-0.200717
-0.191108
-0.182272
-0.19282
-0.183729
-0.175432
-0.176421
-0.168617
-0.176421
-0.168617
-0.19282
-0.183729
-0.175432
-0.210249
-0.200717
-0.191108
-0.182272
-0.228858
-0.218722
-0.208783
-0.198629
-0.189163
-0.248159
-0.237914
-0.227457
-0.217086
-0.206312
-0.196182
-0.267879
-0.257688
-0.247299
-0.23651
-0.225712
-0.214306
-0.203317
-0.27774
-0.267588
-0.257075
-0.245979
-0.234718
-0.222635
-0.210844
-0.29724
-0.287968
-0.277916
-0.267319
-0.255903
-0.24429
-0.231447
-0.218651
-0.307345
-0.298587
-0.288725
-0.2781
-0.266397
-0.254311
-0.241317
-0.227475
-0.324252
-0.317628
-0.309585
-0.300057
-0.289462
-0.277595
-0.264901
-0.252005
-0.236651
-0.333226
-0.327958
-0.320887
-0.311924
-0.301435
-0.289544
-0.27613
-0.262827
-0.246158
-0.343281
-0.341739
-0.338126
-0.332332
-0.324256
-0.314025
-0.302211
-0.288102
-0.273882
-0.256056
-0.349228
-0.349557
-0.347849
-0.343654
-0.336862
-0.327168
-0.315555
-0.300915
-0.285556
-0.266561
-0.351253
-0.354396
-0.356499
-0.356815
-0.354496
-0.349401
-0.340669
-0.329497
-0.314592
-0.298137
-0.277902
-0.354535
-0.358846
-0.362503
-0.364764
-0.36447
-0.361403
-0.354131
-0.343807
-0.329012
-0.311712
-0.290214
-0.35749
-0.362703
-0.367633
-0.371577
-0.373272
-0.372357
-0.366973
-0.358007
-0.343808
-0.326124
-0.303484
-0.360187
-0.366097
-0.372031
-0.377297
-0.380779
-0.381873
-0.378573
-0.37141
-0.358297
-0.340885
-0.317444
-0.356756
-0.362629
-0.369106
-0.375826
-0.382077
-0.387032
-0.389795
-0.388463
-0.383335
-0.371564
-0.355177
-0.331436
-0.358443
-0.364761
-0.371724
-0.379065
-0.386059
-0.392136
-0.396179
-0.396436
-0.393333
-0.382733
-0.368041
-0.344387
-0.359763
-0.366485
-0.373883
-0.381713
-0.389286
-0.396155
-0.401135
-0.402507
-0.401198
-0.391258
-0.378673
-0.355045
-0.360651
-0.367716
-0.375469
-0.383676
-0.391692
-0.399074
-0.404688
-0.406772
-0.40679
-0.397022
-0.386524
-0.362407
-0.361083
-0.368405
-0.376408
-0.384862
-0.393156
-0.400822
-0.406771
-0.409275
-0.40995
-0.400176
-0.391182
-0.366045
-0.361085
-0.368562
-0.376698
-0.385236
-0.39362
-0.401337
-0.40733
-0.409968
-0.41065
-0.400866
-0.392343
-0.366062
-0.353972
-0.360742
-0.368268
-0.376407
-0.384881
-0.393171
-0.400693
-0.406402
-0.408858
-0.409088
-0.399155
-0.390046
-0.362933
-0.353399
-0.360181
-0.36767
-0.375706
-0.38399
-0.392016
-0.399143
-0.404353
-0.406496
-0.405171
-0.395779
-0.384773
-0.357361
-0.352812
-0.359561
-0.36696
-0.374834
-0.38286
-0.390528
-0.397151
-0.401745
-0.403254
-0.400573
-0.391135
-0.377333
-0.351167
-0.352337
-0.359037
-0.366342
-0.374055
-0.381838
-0.389165
-0.395319
-0.399335
-0.400136
-0.396409
-0.386604
-0.370876
-0.345174
-0.352072
-0.35874
-0.365984
-0.373599
-0.381234
-0.388353
-0.394223
-0.397885
-0.398226
-0.393915
-0.383723
-0.367011
-0.341585
-0.317917
-0.297058
-0.273846
-0.248454
-0.221339
-0.193025
-0.164135
-0.135392
-0.107483
-0.0810283
-0.0566714
-0.0348633
-0.0159111
1.0146e-05
0.0128848
0.0228369
0.0300999
0.0349834
0.0378388
0.0390278
0.038895
0.0377637
0.0359176
0.0335957
0.0309924
0.0282611
0.0255178
0.0228474
0.0203084
0.0179387
0.0157595
0.0137801
0.0120005
0.0104147
0.00901147
0.00777809
0.00669967
0.00576182
0.00494434
0.00422727
0.00358539
0.00300513
0.00247254
0.00199471
0.00156517
0.00119922
0.000871853
0.000605934
0.000347619
0.00014394
-0.322237
-0.301444
-0.278261
-0.25281
-0.225589
-0.197142
-0.168054
-0.139088
-0.110937
-0.0840962
-0.0595069
-0.0374404
-0.0182376
-0.00207802
0.01102
0.0211783
0.0286299
0.0336852
0.0366974
0.0380311
0.0380315
0.0370169
0.0352738
0.0330426
0.0305188
0.0278563
0.0251726
0.0225533
0.020058
0.0177256
0.0155781
0.0136256
0.0118688
0.0103023
0.00891531
0.00769552
0.00662848
0.00570047
0.00489195
0.00418338
0.00354963
0.00297693
0.00245104
0.00197878
0.00155367
0.0011911
0.000866428
0.000602259
0.000345599
0.000142749
-0.329533
-0.308804
-0.28573
-0.260285
-0.232981
-0.204377
-0.174825
-0.145577
-0.11705
-0.0899333
-0.064892
-0.0423901
-0.0227629
-0.00619121
0.00730273
0.0178381
0.0256463
0.0310363
0.0343609
0.0359844
0.0362578
0.0354868
0.0339582
0.031916
0.0295574
0.0270382
0.0244776
0.0219637
0.0195583
0.0173021
0.015219
0.0133209
0.01161
0.0100822
0.00872773
0.00753507
0.00649073
0.00558216
0.00479107
0.00409879
0.00348049
0.00292215
0.00240903
0.00194749
0.00153099
0.00117501
0.000855633
0.000594961
0.000341585
0.000140408
-0.338019
-0.317012
-0.294084
-0.268818
-0.241573
-0.212916
-0.183458
-0.153976
-0.125159
-0.0977068
-0.0722667
-0.049328
-0.0292369
-0.0121824
0.00180524
0.0128371
0.021137
0.0270063
0.0307904
0.0328498
0.033532
0.0331402
0.0319462
0.0301983
0.0280972
0.025801
0.0234318
0.021081
0.0188138
0.0166745
0.0146898
0.0128742
0.0112325
0.00976272
0.00845679
0.00730464
0.00629407
0.00541411
0.00464814
0.00397883
0.003382
0.00284358
0.00234831
0.00190193
0.0014977
0.0011512
0.000839567
0.000584136
0.00033563
0.000136993
-0.343776
-0.324269
-0.301626
-0.276787
-0.249967
-0.221614
-0.192381
-0.163011
-0.134201
-0.106651
-0.0809993
-0.0577549
-0.037277
-0.0197655
-0.00526361
0.00632473
0.0152072
0.021669
0.0260385
0.028663
0.0298795
0.0299938
0.0292537
0.0279043
0.0261519
0.024158
0.0220481
0.0199179
0.0178374
0.0158551
0.0140021
0.0122967
0.0107469
0.00935384
0.00811196
0.00701315
0.00604696
0.00520422
0.00447024
0.00382944
0.00325881
0.00274454
0.00227109
0.00184344
0.00145462
0.00111997
0.000818397
0.000569921
0.000327812
0.000132608
-0.346743
-0.328357
-0.306773
-0.282805
-0.25679
-0.229172
-0.200595
-0.171756
-0.143336
-0.116018
-0.0904366
-0.0671095
-0.0464045
-0.028534
-0.0135598
-0.00140874
0.00810082
0.0152275
0.0202742
0.0235633
0.0254176
0.0261336
0.0259522
0.0250938
0.0237701
0.0221487
0.0203589
0.0185013
0.0166512
0.0148628
0.0131722
0.0116023
0.0101654
0.00886632
0.00770272
0.00666909
0.00575707
0.00495945
0.00426361
0.00365598
0.00311523
0.00262829
0.00217964
0.00177354
0.00140266
0.00108169
0.000792381
0.000552498
0.000318222
0.000127372
-0.34605
-0.328451
-0.308436
-0.285905
-0.261145
-0.234714
-0.207272
-0.17945
-0.151862
-0.125159
-0.099975
-0.0768321
-0.0561047
-0.0380186
-0.0226591
-0.00998414
0.000152732
0.00797362
0.0137474
0.0177644
0.0203219
0.0217022
0.0221521
0.0218596
0.0210276
0.0198332
0.018412
0.0168691
0.0152856
0.0137216
0.0122193
0.0108068
0.00950084
0.00831078
0.00723793
0.00627988
0.00543072
0.00468527
0.00403304
0.00346265
0.00295482
0.00249767
0.00207606
0.00169369
0.00134279
0.00103663
0.000761842
0.000532083
0.000306969
0.00012141
-0.341512
-0.324567
-0.306531
-0.285866
-0.262624
-0.23767
-0.21181
-0.185533
-0.159264
-0.133581
-0.109123
-0.0864323
-0.0658971
-0.0477585
-0.0321287
-0.0190029
-0.00827729
0.000226095
0.00673484
0.011503
0.0147947
0.0168734
0.0179792
0.0183021
0.0180088
0.0172797
0.0162609
0.0150634
0.0137735
0.0124576
0.0111639
0.0099259
0.00876577
0.00769717
0.00672551
0.00585185
0.00507296
0.00438581
0.00378204
0.00325253
0.00278029
0.00235497
0.0019622
0.00160525
0.00127608
0.000985103
0.000727151
0.000508919
0.000294167
0.000114841
-0.333333
-0.317057
-0.301243
-0.282749
-0.261353
-0.238186
-0.214132
-0.189683
-0.165168
-0.140925
-0.11752
-0.0955322
-0.0753884
-0.0573592
-0.0415872
-0.0281072
-0.0168621
-0.00772285
-0.000507849
0.00499757
0.00902309
0.0118041
0.0135668
0.0145126
0.0147888
0.0145517
0.0139563
0.0131237
0.012146
0.011095
0.0100247
0.00897448
0.00797162
0.00703438
0.00617241
0.00539035
0.00468788
0.00406423
0.00351318
0.00302784
0.00259367
0.00220201
0.00183957
0.0015094
0.00120336
0.000929164
0.000689017
0.000483281
0.000279931
0.000107775
-0.322065
-0.306676
-0.293255
-0.277083
-0.257729
-0.236602
-0.21461
-0.192114
-0.169476
-0.146973
-0.124932
-0.10388
-0.0843031
-0.0665303
-0.0507442
-0.037019
-0.0253445
-0.0156416
-0.00777639
-0.00157586
0.00315557
0.00662267
0.00903225
0.0105768
0.0114241
0.0116977
0.0115402
0.0110838
0.0104294
0.00965426
0.00881783
0.00796502
0.0071281
0.00632997
0.00558443
0.00489984
0.00427887
0.00372309
0.00322846
0.0027903
0.00239649
0.00204019
0.00170941
0.00140713
0.00112525
0.000872806
0.000648196
0.000455427
0.00026437
0.000100302
-0.30883
-0.294571
-0.283549
-0.269683
-0.252455
-0.2335
-0.213689
-0.193234
-0.172445
-0.151729
-0.131249
-0.111336
-0.0924811
-0.075093
-0.0594119
-0.045553
-0.0335493
-0.0233698
-0.0149279
-0.00809201
-0.00270156
0.00141952
0.00445346
0.00658029
0.00796508
0.00874902
0.00904146
0.00896916
0.00864411
0.00815156
0.00755608
0.00690753
0.00624304
0.00559001
0.00496633
0.00438398
0.00384873
0.00336453
0.00292953
0.00254126
0.00218997
0.00187063
0.00157273
0.00129928
0.00104243
0.000811538
0.000604829
0.000425547
0.000247593
9.24983e-05
-0.29505
-0.282055
-0.273209
-0.261461
-0.246304
-0.229511
-0.211854
-0.193412
-0.174441
-0.155388
-0.136493
-0.117851
-0.0998533
-0.0829628
-0.0674928
-0.053606
-0.0413745
-0.030811
-0.0218736
-0.0144713
-0.00847825
-0.00374691
-0.000118648
0.00256864
0.00447151
0.00573324
0.00647531
0.00679586
0.00680537
0.00659918
0.00624903
0.00580961
0.00532249
0.00481929
0.00432185
0.00384573
0.00339976
0.00299031
0.00261779
0.00228184
0.00197507
0.00169421
0.00143033
0.00118657
0.00095566
0.000745578
0.000559014
0.000393804
0.0002297
8.44223e-05
-0.281866
-0.270151
-0.263099
-0.253163
-0.23991
-0.225151
-0.20951
-0.192963
-0.175721
-0.158218
-0.140789
-0.123449
-0.106411
-0.0901184
-0.0749534
-0.0611345
-0.0487715
-0.0379151
-0.0285646
-0.0206677
-0.0141321
-0.00883908
-0.00465306
-0.00143058
0.000972385
0.00269292
0.00385673
0.00457044
0.00492168
0.00500595
0.00490398
0.00467701
0.004371
0.00402145
0.0036539
0.00328741
0.00293379
0.0026019
0.00229438
0.002013
0.0017526
0.00151165
0.00128282
0.00106963
0.000865669
0.000675454
0.000511008
0.000360342
0.000210783
7.61187e-05
-0.269801
-0.259327
-0.253684
-0.24523
-0.233665
-0.220747
-0.206926
-0.192107
-0.176477
-0.160426
-0.144302
-0.128208
-0.112182
-0.0965729
-0.0817969
-0.0681314
-0.0557247
-0.0446614
-0.0349774
-0.0266564
-0.0196387
-0.0138337
-0.00912934
-0.00540055
-0.00251756
-0.000351886
0.00121742
0.00230145
0.00299503
0.00337612
0.00352614
0.00351416
0.00339204
0.00319922
0.00296472
0.00271083
0.00245232
0.0022005
0.00196028
0.00173549
0.0015232
0.0013235
0.00113072
0.000948896
0.000773345
0.000627593
0.000461182
0.000325282
0.000190929
6.76209e-05
-0.258932
-0.249654
-0.245098
-0.237831
-0.227746
-0.216464
-0.204255
-0.190986
-0.17684
-0.162138
-0.1472
-0.132234
-0.117218
-0.102356
-0.0880445
-0.0746085
-0.062237
-0.0510455
-0.0411026
-0.032425
-0.0249839
-0.0187163
-0.0135334
-0.00932932
-0.00598859
-0.00339336
-0.00142853
1.34865e-05
0.00103099
0.00170932
0.00211702
0.00232384
0.00238817
0.00235463
0.00225589
0.00211727
0.00195642
0.001787
0.00161622
0.00144995
0.00128738
0.00113021
0.00097441
0.0008246
0.000677381
0.000548601
0.000408438
0.000288678
0.000170226
5.89606e-05
-0.249194
-0.241066
-0.237312
-0.230987
-0.222211
-0.212375
-0.201576
-0.189692
-0.176895
-0.163445
-0.149611
-0.135642
-0.121587
-0.107505
-0.0937217
-0.0805846
-0.068319
-0.0570708
-0.0469383
-0.0379679
-0.0301597
-0.0234776
-0.0178561
-0.0132083
-0.00943396
-0.00642628
-0.00407777
-0.00228468
-0.000951067
1.02299e-05
0.00067559
0.00110622
0.0013609
0.00148937
0.00152879
0.00150785
0.00144697
0.00136214
0.00126284
0.00115687
0.00104558
0.000932153
0.000814228
0.000696992
0.000578238
0.000469418
0.000353733
0.000250433
0.000148716
5.01714e-05
-0.240516
-0.233487
-0.230229
-0.224637
-0.217044
-0.208491
-0.198932
-0.188293
-0.176729
-0.164437
-0.151633
-0.138562
-0.12538
-0.112073
-0.0988635
-0.0860862
-0.0739898
-0.0627498
-0.0524914
-0.0432878
-0.0351661
-0.0281157
-0.0220938
-0.0170332
-0.0128492
-0.00944674
-0.00672676
-0.00459085
-0.00294549
-0.00170477
-0.000791757
-0.000138095
0.000310786
0.000604987
0.0007854
0.000884421
0.000925573
0.000927251
0.000901192
0.000857131
0.000798492
0.000729915
0.000650697
0.000566552
0.000476499
0.000390164
0.000296929
0.0002107
0.000126388
4.12686e-05
-0.23289
-0.226932
-0.22382
-0.218763
-0.212222
-0.204773
-0.196286
-0.186762
-0.176325
-0.165113
-0.153293
-0.141082
-0.128676
-0.116107
-0.103497
-0.09113
-0.0792574
-0.0680813
-0.0577535
-0.048371
-0.0399858
-0.0326115
-0.0262275
-0.0207859
-0.016218
-0.0124411
-0.00936515
-0.00689767
-0.00494863
-0.00343334
-0.00227506
-0.00140518
-0.000763893
-0.000301386
2.35618e-05
0.000245687
0.000391487
0.000481882
0.000531007
0.000550536
0.000545976
0.000523382
0.00048375
0.00043333
0.000372447
0.000309883
0.000238928
0.00017274
0.000103448
3.22471e-05
-0.226218
-0.221246
-0.217948
-0.213358
-0.207837
-0.201394
-0.193873
-0.185342
-0.175895
-0.165628
-0.154685
-0.143254
-0.131538
-0.119635
-0.107625
-0.0957132
-0.0841211
-0.0730674
-0.0627291
-0.0532262
-0.044633
-0.0369851
-0.0302824
-0.0244955
-0.0195715
-0.0154407
-0.0120229
-0.00923277
-0.00698461
-0.00519619
-0.00379151
-0.00270216
-0.0018682
-0.00123767
-0.000766271
-0.000417512
-0.000163174
1.95872e-05
0.000147107
0.000232952
0.000284727
0.000309885
0.00031119
0.000295542
0.00026473
0.000226983
0.000179074
0.000130992
7.96662e-05
2.31036e-05
-0.221346
-0.216807
-0.212578
-0.208077
-0.2033
-0.197715
-0.191155
-0.183664
-0.175277
-0.166045
-0.156072
-0.145493
-0.134466
-0.123144
-0.111673
-0.100231
-0.0889674
-0.078083
-0.0677684
-0.058166
-0.0493754
-0.0414569
-0.0344334
-0.0282957
-0.023008
-0.0185142
-0.0147446
-0.0116215
-0.00906448
-0.00699429
-0.00533629
-0.00402183
-0.0029897
-0.00218625
-0.00156559
-0.00108879
-0.000724841
-0.000448663
-0.000241705
-8.85878e-05
2.03679e-05
9.3972e-05
0.000136718
0.00015613
0.000155555
0.000142913
0.000118041
8.84112e-05
5.52076e-05
1.38751e-05
-0.217079
-0.214414
-0.209286
-0.204837
-0.200258
-0.194883
-0.188611
-0.181464
-0.173458
-0.164634
-0.155081
-0.144921
-0.134307
-0.123381
-0.112275
-0.101148
-0.0901635
-0.0795142
-0.0693777
-0.0598942
-0.051166
-0.0432588
-0.0362032
-0.0299988
-0.0246189
-0.0200158
-0.0161268
-0.0128799
-0.0101987
-0.00800671
-0.0062314
-0.00480602
-0.00367072
-0.00277276
-0.00206678
-0.00151423
-0.00108371
-0.000749459
-0.000492035
-0.000295643
-0.000149555
-4.42616e-05
2.5914e-05
6.8364e-05
8.73574e-05
9.03537e-05
7.95713e-05
6.10805e-05
3.9369e-05
7.95618e-06
-0.212775
-0.210869
-0.205876
-0.201598
-0.197209
-0.19201
-0.18593
-0.179007
-0.171254
-0.162709
-0.153454
-0.143602
-0.133295
-0.122669
-0.111852
-0.100998
-0.0902701
-0.0798475
-0.0699005
-0.0605662
-0.0519468
-0.0441102
-0.0370908
-0.0308931
-0.0254956
-0.0208563
-0.0169175
-0.0136118
-0.0108666
-0.00860873
-0.00676786
-0.00527914
-0.00408397
-0.00313049
-0.00237386
-0.00177587
-0.00130506
-0.000935491
-0.000647336
-0.000424508
-0.000255684
-0.000130987
-4.40518e-05
1.25709e-05
4.38279e-05
5.68905e-05
5.52693e-05
4.40659e-05
2.97017e-05
4.28904e-06
-0.208139
-0.206924
-0.202162
-0.197996
-0.193781
-0.188768
-0.182887
-0.176192
-0.168702
-0.160449
-0.151507
-0.141979
-0.131997
-0.121691
-0.111186
-0.100633
-0.0901864
-0.0800164
-0.0702848
-0.0611254
-0.0526395
-0.0448966
-0.0379343
-0.0317615
-0.0263618
-0.0216983
-0.0177187
-0.0143604
-0.0115551
-0.00923317
-0.00732732
-0.00577482
-0.00451869
-0.00350817
-0.00269915
-0.00205383
-0.00154081
-0.00113411
-0.000813568
-0.000562791
-0.000369864
-0.000224569
-0.000119831
-4.80791e-05
-3.60992e-06
2.04405e-05
2.88357e-05
2.56691e-05
1.92802e-05
3.27452e-07
-0.203607
-0.202963
-0.198474
-0.194395
-0.190344
-0.185528
-0.179852
-0.17339
-0.166165
-0.158205
-0.149575
-0.140371
-0.130714
-0.120728
-0.110537
-0.100284
-0.090118
-0.0801999
-0.0706841
-0.0617003
-0.0533493
-0.0457015
-0.0387978
-0.0326511
-0.0272501
-0.0225631
-0.0185429
-0.0151317
-0.0122657
-0.00987874
-0.00790656
-0.00628872
-0.00496992
-0.00390063
-0.0030375
-0.00234318
-0.0017864
-0.00134115
-0.000986924
-0.00070704
-0.000488985
-0.000322201
-0.000198885
-0.000111344
-5.3093e-05
-1.7571e-05
1.24351e-06
6.47853e-06
8.38225e-06
-3.80355e-06
-0.199058
-0.198934
-0.194758
-0.19077
-0.186876
-0.182269
-0.176809
-0.170583
-0.163624
-0.155956
-0.147637
-0.138756
-0.129424
-0.11976
-0.109884
-0.0999315
-0.0900467
-0.0803816
-0.0710834
-0.0622778
-0.0540643
-0.0465146
-0.0396722
-0.0335542
-0.0281539
-0.0234448
-0.019385
-0.0159214
-0.0129944
-0.010542
-0.00850261
-0.00681833
-0.0054356
-0.00430617
-0.00338752
-0.00264284
-0.00204097
-0.00155592
-0.00116686
-0.000856825
-0.000612708
-0.000423616
-0.000281002
-0.000177063
-0.000104509
-5.70746e-05
-2.74698e-05
-1.34928e-05
-2.98704e-06
-8.10247e-06
-0.194488
-0.194824
-0.190982
-0.187097
-0.183354
-0.178961
-0.173726
-0.167739
-0.161047
-0.153672
-0.145665
-0.137107
-0.128102
-0.118762
-0.109202
-0.0995529
-0.0899517
-0.0805427
-0.0714657
-0.0628427
-0.0547715
-0.0473248
-0.0405483
-0.0344631
-0.0290671
-0.0243389
-0.0202415
-0.0167268
-0.0137397
-0.0112217
-0.00911482
-0.00736336
-0.00591568
-0.00472493
-0.00374949
-0.00295313
-0.00230489
-0.0017788
-0.00135375
-0.00101251
-0.000741373
-0.000529125
-0.00036647
-0.000245494
-0.000158078
-9.82428e-05
-5.74275e-05
-3.43229e-05
-1.48693e-05
-1.25818e-05
-0.189949
-0.19065
-0.187149
-0.183384
-0.179784
-0.175607
-0.170606
-0.164861
-0.158437
-0.151354
-0.143659
-0.135425
-0.126747
-0.117732
-0.108491
-0.0991465
-0.089831
-0.0806806
-0.0718284
-0.0633921
-0.0554681
-0.0481291
-0.0414234
-0.0353754
-0.0299876
-0.0252434
-0.0211108
-0.0175468
-0.0145004
-0.0119174
-0.0097428
-0.00792357
-0.00641006
-0.00515691
-0.00412347
-0.00327417
-0.0025783
-0.00200995
-0.00154774
-0.00117423
-0.000875111
-0.000638851
-0.000455399
-0.00031673
-0.000213875
-0.000141134
-8.86717e-05
-5.60372e-05
-2.72807e-05
-1.72409e-05
-0.185446
-0.186428
-0.183269
-0.179642
-0.17618
-0.172216
-0.167454
-0.161957
-0.1558
-0.14901
-0.141626
-0.133714
-0.125364
-0.116674
-0.107751
-0.0987136
-0.0896851
-0.0807954
-0.0721709
-0.063925
-0.0561523
-0.0489257
-0.0422954
-0.0362891
-0.0309133
-0.0261564
-0.0219914
-0.0183799
-0.0152756
-0.0126281
-0.0103857
-0.00849835
-0.00691829
-0.00560177
-0.00450923
-0.0036058
-0.00286107
-0.00224928
-0.0017488
-0.00134197
-0.00101391
-0.000752788
-0.000547788
-0.000390771
-0.000271904
-0.00018575
-0.000121206
-7.8637e-05
-4.02251e-05
-2.20742e-05
-0.180967
-0.182172
-0.17935
-0.175879
-0.172552
-0.168797
-0.164277
-0.159031
-0.153141
-0.146642
-0.139568
-0.131978
-0.123953
-0.115589
-0.106985
-0.0982542
-0.0895135
-0.0808858
-0.0724913
-0.0644392
-0.0568218
-0.0497121
-0.0431617
-0.0372014
-0.0318419
-0.0270758
-0.0228812
-0.0192243
-0.0160635
-0.0133523
-0.0110426
-0.00908686
-0.0074397
-0.006059
-0.00490637
-0.00394772
-0.003153
-0.00249664
-0.00195681
-0.00151566
-0.00115772
-0.000870899
-0.00064361
-0.000467599
-0.000332153
-0.000232083
-0.000155027
-0.00010212
-5.37043e-05
-2.70753e-05
-0.176516
-0.177897
-0.1754
-0.172101
-0.16891
-0.165357
-0.161081
-0.156088
-0.150466
-0.144256
-0.137489
-0.130219
-0.122519
-0.114478
-0.106193
-0.0977682
-0.0893154
-0.0809507
-0.0727881
-0.0649326
-0.0574742
-0.0504855
-0.0440195
-0.0381097
-0.0327705
-0.027999
-0.0237778
-0.020078
-0.0168625
-0.0140887
-0.0117121
-0.00968807
-0.00797346
-0.00652795
-0.00531438
-0.00429954
-0.00345381
-0.00275183
-0.00217162
-0.00169516
-0.00130646
-0.000993118
-0.00074282
-0.00054718
-0.000394597
-0.000280117
-0.000190126
-0.000126477
-6.77163e-05
-3.22365e-05
-0.172105
-0.173617
-0.17143
-0.168317
-0.165264
-0.161906
-0.157873
-0.153135
-0.14778
-0.141856
-0.135394
-0.12844
-0.121063
-0.113344
-0.105376
-0.0972558
-0.0890903
-0.0809889
-0.0730596
-0.0654031
-0.058107
-0.0512432
-0.044866
-0.0390111
-0.0336964
-0.0289232
-0.0246788
-0.0209388
-0.0176705
-0.0148356
-0.0123929
-0.0103008
-0.00851859
-0.00700782
-0.00573263
-0.00466076
-0.00376307
-0.00301452
-0.00239297
-0.00188029
-0.00145997
-0.00111934
-0.000845332
-0.000629449
-0.000459193
-0.000329818
-0.000226479
-0.000151692
-8.22542e-05
-3.75479e-05
-0.167739
-0.169344
-0.167451
-0.164535
-0.161624
-0.158455
-0.15466
-0.150178
-0.145089
-0.139448
-0.133287
-0.126647
-0.119588
-0.112189
-0.104534
-0.0967176
-0.0888383
-0.0809997
-0.0733045
-0.0658487
-0.0587178
-0.0519827
-0.0456983
-0.0399025
-0.0346165
-0.0298457
-0.0255815
-0.0218042
-0.0184854
-0.0155909
-0.0130831
-0.0109235
-0.00907387
-0.00749759
-0.00616028
-0.0050307
-0.00408027
-0.00328428
-0.00262053
-0.00207079
-0.00161805
-0.00124939
-0.00095102
-0.000714306
-0.000525863
-0.000381128
-0.000264047
-0.000177735
-9.7304e-05
-4.29977e-05
-0.163424
-0.165091
-0.163474
-0.160765
-0.158001
-0.155014
-0.151452
-0.147225
-0.1424
-0.137039
-0.131174
-0.124842
-0.118099
-0.111015
-0.103671
-0.0961548
-0.0885595
-0.0809827
-0.0735215
-0.0662679
-0.0593044
-0.0527011
-0.0465133
-0.0407809
-0.0355279
-0.0307633
-0.0264829
-0.0226714
-0.0193046
-0.0163524
-0.0137809
-0.0115547
-0.00963786
-0.00799607
-0.00659634
-0.00540854
-0.00440472
-0.00356057
-0.00285386
-0.0022663
-0.0017804
-0.00138304
-0.0010597
-0.000801609
-0.0005945
-0.000433964
-0.000302773
-0.000204565
-0.000112844
-4.8572e-05
-0.159172
-0.160873
-0.159514
-0.157017
-0.154406
-0.151595
-0.148258
-0.144283
-0.139721
-0.134635
-0.129061
-0.123032
-0.116599
-0.109826
-0.102789
-0.0955687
-0.0882545
-0.0809377
-0.0737099
-0.0666589
-0.0598647
-0.0533959
-0.0473083
-0.0416431
-0.0364271
-0.0316727
-0.0273799
-0.0235374
-0.0201254
-0.0171177
-0.0144841
-0.0121922
-0.0102089
-0.00850179
-0.00703957
-0.00579325
-0.00473557
-0.00384268
-0.00309238
-0.00246634
-0.00194666
-0.00151999
-0.00117114
-0.000891167
-0.000664957
-0.000488216
-0.000342576
-0.000232124
-0.000128843
-5.42544e-05
-0.154996
-0.156704
-0.155584
-0.153303
-0.15085
-0.148211
-0.145091
-0.141363
-0.137059
-0.132243
-0.126954
-0.121223
-0.115094
-0.108626
-0.101889
-0.0949614
-0.0879246
-0.0808648
-0.0738689
-0.0670205
-0.0603966
-0.0540645
-0.0480801
-0.0424858
-0.0373107
-0.0325706
-0.028269
-0.024399
-0.0209447
-0.0178839
-0.01519
-0.0128338
-0.0107849
-0.00901306
-0.00748852
-0.00618359
-0.00507178
-0.00412975
-0.00333536
-0.00267033
-0.00211634
-0.00165986
-0.00128502
-0.000982733
-0.000737043
-0.000543735
-0.00038335
-0.000260336
-0.00014526
-6.00262e-05
-0.15091
-0.152602
-0.151701
-0.149636
-0.147346
-0.144874
-0.141963
-0.138474
-0.134425
-0.129874
-0.124862
-0.119421
-0.113588
-0.107418
-0.100977
-0.0943353
-0.0875711
-0.0807648
-0.0739984
-0.0673515
-0.0608982
-0.0547045
-0.0488257
-0.0433056
-0.0381751
-0.0334531
-0.0291466
-0.0252525
-0.021759
-0.0186479
-0.0158959
-0.0134771
-0.0113638
-0.00952787
-0.00794146
-0.00657808
-0.00541209
-0.00442072
-0.00358195
-0.00287755
-0.00228885
-0.00180215
-0.00140095
-0.00107599
-0.000810515
-0.000600335
-0.00042496
-0.000289107
-0.00016204
-6.58654e-05
-0.146931
-0.148584
-0.14788
-0.146031
-0.143907
-0.141598
-0.138886
-0.13563
-0.131828
-0.127535
-0.122794
-0.117633
-0.112089
-0.10621
-0.100056
-0.0936938
-0.0871962
-0.0806387
-0.0740984
-0.0676511
-0.061368
-0.0553135
-0.0495423
-0.0440991
-0.0390167
-0.0343164
-0.0300087
-0.0260942
-0.0225648
-0.0194061
-0.0165984
-0.0141189
-0.0119427
-0.0100439
-0.00839635
-0.00697498
-0.00575502
-0.00471433
-0.00383107
-0.0030871
-0.00246346
-0.00194627
-0.00151845
-0.00117057
-0.000885071
-0.000657782
-0.000467235
-0.000318316
-0.000179113
-7.1747e-05
-0.143074
-0.144668
-0.144142
-0.142503
-0.140548
-0.138399
-0.135877
-0.132842
-0.129281
-0.125238
-0.120758
-0.115869
-0.110604
-0.105006
-0.099131
-0.0930406
-0.0868027
-0.0804881
-0.0741695
-0.0679189
-0.0618046
-0.0558892
-0.050227
-0.0448629
-0.0398314
-0.0351564
-0.0308511
-0.0269197
-0.0233578
-0.0201546
-0.0172939
-0.0147561
-0.0125187
-0.0105585
-0.00885085
-0.00737222
-0.0060988
-0.00500907
-0.00408145
-0.00329793
-0.00263928
-0.0020915
-0.00163693
-0.00126598
-0.00096034
-0.000715791
-0.000509967
-0.000347817
-0.000196395
-7.76417e-05
-0.139357
-0.140875
-0.140504
-0.13907
-0.137284
-0.135292
-0.13295
-0.130125
-0.126795
-0.122995
-0.118766
-0.114138
-0.109141
-0.103814
-0.0982082
-0.0923804
-0.0863939
-0.0803152
-0.0742128
-0.0681548
-0.0622069
-0.0564297
-0.0508768
-0.0455935
-0.0406154
-0.0359687
-0.0316693
-0.0277246
-0.0241337
-0.0208892
-0.0179784
-0.0153848
-0.0130885
-0.0110685
-0.00930221
-0.00776743
-0.00644135
-0.00530317
-0.0043316
-0.00350877
-0.00281527
-0.00223697
-0.00175569
-0.00136165
-0.00103587
-0.000774016
-0.000552899
-0.000377432
-0.00021378
-8.35153e-05
-0.1358
-0.137225
-0.136988
-0.13575
-0.134133
-0.132294
-0.130121
-0.127496
-0.124385
-0.120817
-0.116828
-0.11245
-0.10771
-0.102643
-0.0972944
-0.0917186
-0.085974
-0.080123
-0.0742298
-0.0683593
-0.0625741
-0.0569331
-0.0514891
-0.0462873
-0.0413646
-0.0367487
-0.0324584
-0.0285038
-0.0248874
-0.0216051
-0.0186474
-0.0160007
-0.013648
-0.0115705
-0.00974731
-0.00815784
-0.00678027
-0.00559455
-0.00457973
-0.00371813
-0.00299018
-0.00238164
-0.00187389
-0.00145692
-0.00111114
-0.000832042
-0.000595726
-0.00040695
-0.000231143
-8.9328e-05
-0.13242
-0.133743
-0.133618
-0.132564
-0.131114
-0.129423
-0.12741
-0.124971
-0.122067
-0.118719
-0.114959
-0.110818
-0.106321
-0.1015
-0.0963971
-0.0910615
-0.085548
-0.0799149
-0.0742228
-0.068533
-0.0629058
-0.0573979
-0.0520612
-0.0469409
-0.0420746
-0.0374918
-0.0332133
-0.029252
-0.0256136
-0.022297
-0.0192957
-0.0165992
-0.0141929
-0.0120604
-0.0101826
-0.00854026
-0.00711278
-0.00588081
-0.00482379
-0.00392426
-0.00316254
-0.00252431
-0.00199053
-0.00155098
-0.00118549
-0.000889378
-0.000638085
-0.000436118
-0.000248333
-9.50325e-05
-0.12924
-0.13045
-0.130418
-0.129536
-0.128246
-0.126698
-0.124836
-0.122569
-0.119859
-0.116717
-0.113173
-0.109254
-0.104985
-0.100397
-0.0955252
-0.0904165
-0.0851216
-0.0796952
-0.0741944
-0.0686774
-0.0632018
-0.0578226
-0.0525905
-0.0475507
-0.0427412
-0.0381928
-0.0339285
-0.0299636
-0.0263065
-0.0229591
-0.0199179
-0.0171749
-0.0147183
-0.0125337
-0.0106038
-0.00891105
-0.00743566
-0.00615915
-0.00506138
-0.00412512
-0.00333065
-0.00266355
-0.00210445
-0.00164289
-0.0012582
-0.000945446
-0.000679545
-0.000464641
-0.000265173
-0.000100573
-0.12628
-0.127373
-0.127414
-0.126689
-0.125553
-0.124142
-0.122419
-0.12031
-0.117779
-0.114829
-0.111486
-0.107774
-0.103718
-0.0993447
-0.0946889
-0.089792
-0.0847016
-0.079469
-0.0741481
-0.0687943
-0.0634626
-0.0582061
-0.0530747
-0.048113
-0.0433596
-0.0388464
-0.0345981
-0.0306322
-0.0269596
-0.023585
-0.0205076
-0.017722
-0.0152187
-0.0129853
-0.0110066
-0.00926607
-0.00774526
-0.00642639
-0.00528974
-0.00431837
-0.00349252
-0.00279772
-0.00221429
-0.00173154
-0.00132838
-0.000999574
-0.000719607
-0.000492174
-0.000281459
-0.000105886
-0.123565
-0.124539
-0.124636
-0.124052
-0.123061
-0.121779
-0.120184
-0.118219
-0.115848
-0.113074
-0.109915
-0.106394
-0.102533
-0.0983573
-0.0938995
-0.0891976
-0.0842957
-0.0792422
-0.0740881
-0.0688859
-0.0636885
-0.0585474
-0.0535111
-0.0486241
-0.043925
-0.0394469
-0.0352157
-0.0312511
-0.027566
-0.0241678
-0.021058
-0.0182337
-0.0156877
-0.0134095
-0.0113854
-0.0096006
-0.0080374
-0.00667887
-0.00550573
-0.00450131
-0.00364589
-0.00292492
-0.0023185
-0.00181568