/*--------------------------------*- C++ -*----------------------------------*\
  =========                 |
  \\      /  F ield         | OpenFOAM: The Open Source CFD Toolbox
   \\    /   O peration     | Website:  https://openfoam.org
    \\  /    A nd           | Version:  7
     \\/     M anipulation  |
\*---------------------------------------------------------------------------*/
FoamFile
{
    version     2.0;
    format      ascii;
    class       surfaceScalarField;
    location    "10";
    object      phi;
}
// * * * * * * * * * * * * * * * * * * * * * * * * * * * * * * * * * * * * * //

dimensions      [0 3 -1 0 0 0 0];

internalField   nonuniform List<scalar> 
11919
(
-0.00117874
0.00022405
4.49737e-10
-0.00142612
0.000247376
4.50354e-10
-0.00169667
0.000270552
4.28936e-10
-0.00198875
0.000292077
3.78227e-10
-0.00229869
0.000309935
2.92116e-10
-0.00262026
0.000321573
1.66564e-10
-0.00294426
0.000324004
-1.20903e-12
-0.00325748
0.000313221
-2.05495e-10
-0.00354373
0.00028625
-4.41575e-10
-0.00378148
0.000237747
-6.93769e-10
-0.0039402
0.000158719
-9.47339e-10
-0.00401661
7.64088e-05
-1.15618e-09
-7.85392e-05
-1.30895e-09
-0.00393806
-0.00112534
0.000432826
-0.00135281
0.000474842
-0.00159778
0.000515526
-0.00185747
0.000551762
-0.00212699
0.000579458
-0.0023989
0.000593481
-0.00266307
0.000588177
-0.00290538
0.000555529
-0.00310925
0.000490122
-0.00325677
0.000385264
-0.00330841
0.000210365
-0.0032763
4.42931e-05
-0.000282535
-0.0030723
-0.00102234
0.000612409
-0.00121202
0.000664524
-0.00140886
0.000712367
-0.00160819
0.00075109
-0.00180327
0.000774534
-0.00198478
0.000774997
-0.00214146
0.000744852
-0.00225823
0.000672298
-0.00231748
0.000549378
-0.00230901
0.000376791
-0.00218278
8.41388e-05
-0.00196658
-0.000171908
-0.000682165
-0.00156695
-0.000876705
0.000751312
-0.00101432
0.00080214
-0.00114569
0.000843734
-0.00126411
0.000869515
-0.00136106
0.000871477
-0.00142553
0.000839475
-0.00144557
0.000764891
-0.00140615
0.000632876
-0.00128898
0.00043221
-0.00108647
0.000174282
-0.000764108
-0.000238226
-0.000316038
-0.000619978
-0.00127864
0.00028044
-0.0006976
-0.000773277
0.000877817
-0.000827982
0.000898439
-0.000853344
0.000894876
-0.00083962
0.000857754
-0.000774846
0.000774701
-0.000647454
0.000637498
-0.000442355
0.000427777
-0.000149749
0.000139605
0.000263227
-0.000238694
0.0007779
-0.000752899
0.00142971
-0.00127179
-0.00209716
0.00224823
-0.000503514
0.000886135
-0.000476291
0.000871215
-0.000404054
0.000822639
-0.000276602
0.000730302
-8.20214e-05
0.00058012
0.000190496
0.000364981
0.000559107
5.91657e-05
0.00102364
-0.000324925
0.00161452
-0.000829572
0.00232719
-0.00146557
0.00315777
-0.00210238
-0.00310469
0.0041653
-0.000218805
0.00082549
-0.000109124
0.000761534
5.9534e-05
0.000653981
0.000297968
0.000491868
0.000618166
0.000259922
0.0010272
-4.40551e-05
0.0015476
-0.000461228
0.00216944
-0.000946765
0.00292916
-0.00158929
0.00380981
-0.00234622
0.00480597
-0.00309854
-0.00425001
0.00595129
6.97399e-05
0.000696841
0.000259773
0.000571501
0.00052157
0.000392185
0.000865509
0.000147929
0.00130447
-0.000179039
0.00184297
-0.000582553
0.00250566
-0.00112392
0.00327695
-0.00171806
0.00419061
-0.00250295
0.00520999
-0.0033656
0.00634703
-0.00423558
-0.00545878
0.0075558
0.000355399
0.000501914
0.000623396
0.000303504
0.000975392
4.01891e-05
0.00142228
-0.000298959
0.001977
-0.000733759
0.00264391
-0.00124946
0.00344138
-0.00192139
0.00435489
-0.00263156
0.00540097
-0.00354904
0.00651874
-0.00448336
0.0077396
-0.00545644
-0.00663782
0.00891864
0.000637194
0.00024112
0.000983389
-4.26908e-05
0.00142697
-0.000403397
0.00197932
-0.000851307
0.00265146
-0.0014059
0.0034482
-0.0020462
0.00437143
-0.00284463
0.0054072
-0.00366733
0.00654131
-0.00468314
0.00769685
-0.00563891
0.00890337
-0.00666296
-0.00769381
0.00995935
0.00092072
0.00135005
-0.000472021
0.00189158
-0.000944932
0.0025559
-0.00151562
0.00334766
-0.00219765
0.00426712
-0.00296567
0.00529263
-0.00387014
0.00640424
-0.00477895
0.00755233
-0.00583123
0.00866411
-0.00675068
0.00974674
-0.00774559
-0.00856684
0.0106198
0.00173901
-0.000993696
0.00238715
-0.00159308
0.00316685
-0.00229532
0.00407008
-0.00310089
0.00508409
-0.00397967
0.00616241
-0.00494846
0.00727524
-0.00589178
0.00834966
-0.00690566
0.00933659
-0.0077376
0.0102261
-0.00863512
-0.00925361
0.0109129
0.00216476
-0.00161755
0.00292287
-0.00235118
0.00380758
-0.00318003
0.00479253
-0.00408584
0.00584656
-0.0050337
0.0069061
-0.00600799
0.00793745
-0.00692313
0.0088683
-0.0078365
0.00968549
-0.00855479
0.0103809
-0.00933049
-0.00979769
0.0109249
0.00263166
-0.00234671
0.00348832
-0.00320785
0.00444582
-0.00413752
0.00545909
-0.00509912
0.00648243
-0.00605704
0.0074516
-0.00697716
0.00834233
-0.00781386
0.00910371
-0.00859788
0.00975963
-0.00921071
0.0103083
-0.00987916
-0.0102556
0.0107662
0.00312655
0.0040499
-0.0041312
0.00502773
-0.00511535
0.00600466
-0.00607606
0.00693342
-0.0069858
0.00776725
-0.00781098
0.0085014
-0.00854801
0.00911266
-0.00920914
0.0096499
-0.00974795
0.0101067
-0.0103359
-0.0106698
0.0105208
0.00455891
-0.00507218
0.0054978
-0.00605424
0.00638351
-0.00696177
0.00718201
-0.0077843
0.00787367
-0.00850265
0.00847207
-0.00914641
0.00897461
-0.00971167
0.00943737
-0.0102107
0.00984015
-0.0107387
-0.0110646
0.010235
0.00496888
0.00582106
-0.00690642
0.00658676
-0.00772748
0.00725274
-0.00845028
0.00782359
-0.0090735
0.00832145
-0.00964426
0.0087541
-0.0101443
0.00917173
-0.0106283
0.00954125
-0.0111083
-0.0114536
0.00993022
0.00599345
-0.00764766
0.00663816
-0.00837219
0.00719152
-0.00900364
0.00767214
-0.00955412
0.00810103
-0.0100732
0.00849046
-0.0105338
0.00887784
-0.0110157
0.00922569
-0.0114561
-0.0118443
0.00961643
0.00603569
0.00657598
-0.00891248
0.0070433
-0.00947096
0.00746045
-0.00997126
0.00784288
-0.0104556
0.00820487
-0.0108957
0.00856724
-0.0113781
0.00890046
-0.0117893
-0.0122371
0.00929324
0.00643678
-0.00937043
0.00684165
-0.00987583
0.00721436
-0.010344
0.00756495
-0.0108062
0.00790805
-0.0112388
0.00824587
-0.0117159
0.00856094
-0.0121044
-0.0126417
0.00896552
0.00624619
0.00660624
-0.0102359
0.00694681
-0.0106845
0.00727432
-0.0111337
0.00760161
-0.0115661
0.00792191
-0.0120362
0.0082427
-0.0124252
-0.0129555
0.00855654
0.00635434
-0.0105627
0.00667005
-0.0110003
0.00697897
-0.0114426
0.00728986
-0.011877
0.00759318
-0.0123396
0.00791613
-0.0127481
-0.0132705
0.00823106
0.00609127
0.00638632
-0.0112953
0.00667836
-0.0117346
0.00697256
-0.0121712
0.00726668
-0.0126337
0.00756998
-0.0130514
-0.0135679
0.00786745
0.0060976
0.00637306
-0.0120101
0.00665246
-0.0124506
0.00693047
-0.0129117
0.00722083
-0.0133418
-0.013862
0.00751493
0.00606403
0.00632675
-0.0127133
0.00659113
-0.0131761
0.00686729
-0.0136179
-0.0141354
0.00714066
0.00599732
0.00624561
-0.0134244
0.00650433
-0.0138767
-0.0143958
0.00676472
0.00589499
0.00613698
-0.0141186
-0.0146374
0.00637856
0.00576242
0.00598634
0.00576242
0.0141186
0.0146374
0.00598634
0.00589499
0.0134244
0.00613698
0.0138767
0.0143958
0.00637856
0.00599732
0.0127133
0.00624561
0.0131761
0.00650433
0.0136179
0.0141354
0.00676472
0.00606403
0.0120101
0.00632675
0.0124506
0.00659113
0.0129117
0.00686729
0.0133418
0.013862
0.00714066
0.0060976
0.0112953
0.00637306
0.0117346
0.00665246
0.0121712
0.00693047
0.0126337
0.00722083
0.0130514
0.0135679
0.00751493
0.00609127
0.0105627
0.00638632
0.0110003
0.00667836
0.0114426
0.00697256
0.011877
0.00726668
0.0123396
0.00756998
0.0127481
0.0132705
0.00786745
0.00635434
0.0102359
0.00667005
0.0106845
0.00697897
0.0111337
0.00728986
0.0115661
0.00759318
0.0120362
0.00791613
0.0124252
0.0129555
0.00823106
0.00624619
0.00937043
0.00660624
0.00987583
0.00694681
0.010344
0.00727432
0.0108062
0.00760161
0.0112388
0.00792191
0.0117159
0.0082427
0.0121044
0.0126417
0.00855654
0.00643678
0.00891248
0.00684165
0.00947096
0.00721436
0.00997126
0.00756495
0.0104556
0.00790805
0.0108957
0.00824587
0.0113781
0.00856094
0.0117893
0.0122371
0.00896552
0.00603569
0.00764766
0.00657598
0.00837219
0.0070433
0.00900364
0.00746045
0.00955412
0.00784288
0.0100732
0.00820487
0.0105338
0.00856724
0.0110157
0.00890046
0.0114561
0.0118443
0.00929324
0.00599345
0.00690642
0.00663816
0.00772748
0.00719152
0.00845028
0.00767214
0.0090735
0.00810103
0.00964426
0.00849046
0.0101443
0.00887784
0.0106283
0.00922569
0.0111083
0.0114536
0.00961643
0.00496888
0.00507218
0.00582106
0.00605424
0.00658676
0.00696177
0.00725274
0.0077843
0.00782359
0.00850265
0.00832145
0.00914641
0.0087541
0.00971167
0.00917173
0.0102107
0.00954125
0.0107387
0.0110646
0.00993022
0.00455891
0.0041312
0.0054978
0.00511535
0.00638352
0.00607606
0.00718201
0.0069858
0.00787367
0.00781099
0.00847207
0.00854801
0.00897461
0.00920914
0.00943737
0.00974795
0.00984015
0.0103359
0.0106698
0.010235
0.00312655
0.00234671
0.0040499
0.00320785
0.00502773
0.00413752
0.00600466
0.00509912
0.00693342
0.00605704
0.00776725
0.00697716
0.0085014
0.00781386
0.00911266
0.00859788
0.0096499
0.00921071
0.0101067
0.00987916
0.0102556
0.0105208
0.00263166
0.00161755
0.00348832
0.00235118
0.00444582
0.00318003
0.00545909
0.00408584
0.00648243
0.0050337
0.0074516
0.00600799
0.00834233
0.00692313
0.00910371
0.00783651
0.00975963
0.00855479
0.0103083
0.00933049
0.0097977
0.0107662
0.00216476
0.000993696
0.00292287
0.00159308
0.00380758
0.00229532
0.00479253
0.00310089
0.00584656
0.00397967
0.0069061
0.00494846
0.00793745
0.00589178
0.0088683
0.00690566
0.00968549
0.0077376
0.0103809
0.00863512
0.00925361
0.0109249
0.00173901
0.000472021
0.00238715
0.000944932
0.00316685
0.00151562
0.00407008
0.00219765
0.00508409
0.00296567
0.00616241
0.00387014
0.00727524
0.00477895
0.00834966
0.00583123
0.00933659
0.00675068
0.0102261
0.00774559
0.00856685
0.0109129
0.00092072
-0.00024112
0.00135005
4.26907e-05
0.00189159
0.000403397
0.0025559
0.000851307
0.00334766
0.0014059
0.00426712
0.0020462
0.00529263
0.00284463
0.00640424
0.00366734
0.00755234
0.00468314
0.00866411
0.00563891
0.00974674
0.00666296
0.00769381
0.0106198
0.000637194
-0.000501914
0.000983389
-0.000303504
0.00142698
-4.01892e-05
0.00197932
0.000298959
0.00265146
0.000733759
0.0034482
0.00124946
0.00437143
0.00192139
0.00540721
0.00263156
0.00654131
0.00354904
0.00769685
0.00448336
0.00890337
0.00545644
0.00663782
0.00995935
0.000355399
-0.000696841
0.000623396
-0.000571501
0.000975392
-0.000392185
0.00142228
-0.000147928
0.001977
0.000179039
0.00264391
0.000582553
0.00344138
0.00112392
0.00435489
0.00171806
0.00540097
0.00250296
0.00651874
0.0033656
0.0077396
0.00423558
0.00545878
0.00891864
6.97404e-05
-0.000825491
0.000259774
-0.000761535
0.00052157
-0.000653981
0.00086551
-0.000491868
0.00130447
-0.000259922
0.00184297
4.40557e-05
0.00250566
0.000461229
0.00327695
0.000946766
0.00419061
0.0015893
0.00520999
0.00234622
0.00634703
0.00309854
0.00425001
0.0075558
-0.000218804
-0.000886136
-0.000109124
-0.000871215
5.95347e-05
-0.00082264
0.000297969
-0.000730303
0.000618167
-0.00058012
0.0010272
-0.00036498
0.0015476
-5.91648e-05
0.00216944
0.000324926
0.00292916
0.000829574
0.00380981
0.00146557
0.00480597
0.00210238
0.0031047
0.00595129
-0.000503514
-0.000877817
-0.00047629
-0.000898439
-0.000404053
-0.000894877
-0.000276602
-0.000857754
-8.20206e-05
-0.000774701
0.000190497
-0.000637498
0.000559108
-0.000427776
0.00102364
-0.000139604
0.00161452
0.000238696
0.00232719
0.000752901
0.00315777
0.00127179
0.00209716
0.0041653
-0.0006976
-0.000751313
-0.000773277
-0.000802141
-0.000827982
-0.000843734
-0.000853343
-0.000869515
-0.000839619
-0.000871478
-0.000774846
-0.000839475
-0.000647453
-0.000764891
-0.000442354
-0.000632875
-0.000149748
-0.000432209
0.000263228
-0.000174281
0.000777901
0.000238228
0.00142971
0.00061998
0.00127864
0.00224823
-0.000876705
-0.000612409
-0.00101432
-0.000664525
-0.00114569
-0.000712368
-0.00126411
-0.000751091
-0.00136105
-0.000774534
-0.00142553
-0.000774997
-0.00144557
-0.000744852
-0.00140615
-0.000672298
-0.00128898
-0.000549377
-0.00108647
-0.00037679
-0.000764107
-8.41369e-05
-0.000316037
0.00017191
0.000682168
0.000280441
-0.00102234
-0.000432827
-0.00121202
-0.000474843
-0.00140886
-0.000515527
-0.00160819
-0.000551762
-0.00180327
-0.000579459
-0.00198478
-0.000593482
-0.00214146
-0.000588177
-0.00225823
-0.000555528
-0.00231748
-0.000490121
-0.00230901
-0.000385263
-0.00218278
-0.000210363
-0.00196658
-4.42908e-05
0.000282537
-0.00156695
-0.00112534
-0.000224051
-0.00135281
-0.000247377
-0.00159778
-0.000270553
-0.00185747
-0.000292078
-0.00212699
-0.000309936
-0.0023989
-0.000321573
-0.00266307
-0.000324004
-0.00290538
-0.000313221
-0.00310925
-0.000286249
-0.00325677
-0.000237746
-0.00330841
-0.000158717
-0.0032763
-7.64065e-05
7.85417e-05
-0.0030723
-0.00117874
-0.00142612
-0.00169667
-0.00198875
-0.00229869
-0.00262026
-0.00294426
-0.00325748
-0.00354373
-0.00378148
-0.0039402
-0.00401661
-0.00393806
-0.00373819
-0.000199878
-8.24274e-10
-0.00349273
-0.000245455
-8.35517e-10
-0.00320448
-0.00028825
-8.2298e-10
-0.00287275
-0.000331728
-7.84722e-10
-0.00249882
-0.000373931
-7.20568e-10
-0.0020848
-0.000414014
-6.30584e-10
-0.00163442
-0.000450381
-5.18067e-10
-0.00115245
-0.000481975
-3.86894e-10
-0.00064439
-0.000508057
-2.41235e-10
-0.000116181
-0.000528209
-8.8459e-11
0.000424189
-0.00054037
6.26086e-11
0.000970319
-0.000546131
2.03702e-10
0.00151518
-0.000544858
3.30884e-10
0.00205214
-0.00053696
4.37537e-10
0.00257526
-0.000523127
5.19249e-10
0.0030795
-0.000504236
5.73785e-10
0.00356081
-0.000481312
6.00878e-10
0.00401627
-0.000455461
6.02031e-10
0.00444409
-0.000427823
5.7997e-10
0.00484338
-0.000399286
5.38364e-10
0.00521389
-0.000370513
4.81767e-10
0.00555609
-0.000342197
4.14716e-10
0.00587095
-0.000314862
3.41647e-10
0.00615987
-0.000288916
2.66738e-10
0.0064245
-0.000264637
1.93729e-10
0.00666669
-0.000242184
1.25729e-10
0.00688831
-0.000221624
6.50731e-11
0.00709125
-0.000202946
1.32117e-11
0.00727734
-0.000186084
-2.90419e-11
0.00744827
-0.000170927
-6.19081e-11
0.00760562
-0.000157356
-8.5818e-11
0.00775086
-0.000145238
-1.01688e-10
0.0078853
-0.000134436
-1.1059e-10
0.00801007
-0.000124775
-1.13563e-10
0.00812623
-0.000116156
-1.11429e-10
0.0082348
-0.000108577
-1.04881e-10
0.00833695
-0.000102142
-9.43902e-11
0.00843361
-9.66614e-05
-8.06479e-11
0.00852514
-9.1533e-05
-6.46468e-11
0.00861067
-8.55307e-05
-4.79477e-11
0.0086882
-7.75315e-05
-3.22899e-11
0.00875482
-6.66226e-05
-1.91487e-11
0.008808
-5.31727e-05
-9.08915e-12
0.00884585
-3.7854e-05
-2.15123e-12
0.00886852
-2.26662e-05
2.52536e-12
0.0088768
-8.28123e-06
4.88049e-12
0.00887362
3.17537e-06
6.3839e-12
0.0088604
1.32253e-05
6.26457e-12
0.00884117
1.92275e-05
6.44677e-12
2.62481e-05
5.23999e-12
-0.00287388
-0.000398304
-0.00263597
-0.000483362
-0.00235662
-0.000567601
-0.00203662
-0.000651728
-0.00167718
-0.000733369
-0.00128085
-0.000810345
-0.000850458
-0.000880772
-0.00039125
-0.000941183
9.09917e-05
-0.000990299
0.000589144
-0.00102636
0.00109865
-0.00104987
0.00161231
-0.00105979
0.00212345
-0.001056
0.0026258
-0.00103931
0.00311379
-0.00101111
0.00358275
-0.000973199
0.00402907
-0.000927628
0.00445016
-0.000876558
0.00484451
-0.000822176
0.00521159
-0.000766363
0.00555137
-0.000710289
0.00586442
-0.000655247
0.0061518
-0.000602246
0.00641493
-0.000552049
0.00665548
-0.000505181
0.00687523
-0.000461935
0.00707603
-0.00042242
0.00725968
-0.0003866
0.00742793
-0.000354332
0.00758239
-0.000325388
0.00772456
-0.000299521
0.00785579
-0.000276469
0.00797731
-0.000255961
0.00809019
-0.000237651
0.00819536
-0.00022133
0.00829376
-0.000206974
0.0083864
-0.000194784
0.00847415
-0.000184412
0.00855736
-0.000174737
0.00863524
-0.000163413
0.00870598
-0.000148278
0.00876688
-0.000127522
0.00881553
-0.000101815
0.00885006
-7.23855e-05
0.0088705
-4.3106e-05
0.00887746
-1.52417e-05
0.00887364
6.99548e-06
0.00886025
2.66126e-05
0.00884115
3.83328e-05
5.21328e-05
-0.00137186
-0.000593393
-0.00114663
-0.000708599
-0.000885459
-0.000828769
-0.000588769
-0.000948418
-0.000257599
-0.00106454
0.000104832
-0.00117278
0.000493753
-0.00126969
0.000907383
-0.00135481
0.00134069
-0.00142361
0.00178844
-0.00147411
0.00224403
-0.00150546
0.00270114
-0.00151691
0.00315382
-0.00150868
0.00359655
-0.00148204
0.00402449
-0.00143905
0.00443369
-0.0013824
0.00482115
-0.00131509
0.00518482
-0.00124023
0.00552354
-0.0011609
0.0058371
-0.00107992
0.00612591
-0.000999107
0.00639065
-0.000919987
0.00663247
-0.000844058
0.00685278
-0.000772362
0.00705322
-0.000705623
0.00723552
-0.000644233
0.00740142
-0.000588321
0.00755262
-0.000537802
0.00769074
-0.000492449
0.00781725
-0.000451902
0.00793351
-0.00041578
0.00804073
-0.000383688
0.00814001
-0.000355238
0.00823227
-0.000329917
0.00831833
-0.000307386
0.00839892
-0.000287563
0.00847486
-0.000270725
0.00854687
-0.000256417
0.00861527
-0.000243141
0.00867948
-0.000227628
0.00873804
-0.000206832
0.0087886
-0.000178084
0.00882902
-0.00014224
0.00885751
-0.000100873
0.0088739
-5.94947e-05
0.00887847
-1.98129e-05
0.00887351
1.19577e-05
0.00885988
4.02435e-05
0.00884106
5.7151e-05
7.72747e-05
0.000463709
-0.000776662
0.000667673
-0.000912563
0.000899669
-0.00106077
0.00115992
-0.00120867
0.00144713
-0.00135175
0.00176003
-0.00148568
0.00209688
-0.00160654
0.00245301
-0.00171095
0.00282418
-0.00179478
0.00320551
-0.00185544
0.00359152
-0.00189147
0.00397687
-0.00190226
0.0043565
-0.00188831
0.00472581
-0.00185135
0.00508087
-0.00179411
0.00541851
-0.00172004
0.00573641
-0.00163299
0.00603305
-0.00153687
0.00630764
-0.00143548
0.00656005
-0.00133233
0.00679102
-0.00123008
0.00700129
-0.00113025
0.00719191
-0.00103468
0.00736424
-0.000944684
0.00751974
-0.000861128
0.00766001
-0.000784498
0.00778662
-0.000714935
0.00790113
-0.000652309
0.00800498
-0.000596306
0.00809952
-0.000546441
0.00818593
-0.000502191
0.00826528
-0.000463033
0.00833852
-0.000428477
0.00840646
-0.00039786
0.00846977
-0.000370698
0.00852901
-0.000346799
0.00858476
-0.000326479
0.00863758
-0.00030923
0.00868778
-0.000293342
0.00873502
-0.000274872
0.00877829
-0.000250102
0.00881578
-0.000215577
0.00884575
-0.000172203
0.00886651
-0.000121636
0.00887773
-7.07112e-05
0.00887928
-2.13683e-05
0.00887294
1.82967e-05
0.00885913
5.40556e-05
0.00884084
7.54389e-05
0.000101264
0.00239132
-0.000919754
0.00256489
-0.00108613
0.00276039
-0.00125626
0.00297667
-0.00142495
0.00321297
-0.00158804
0.00346867
-0.00174138
0.00374191
-0.00187978
0.00402916
-0.0019982
0.00432671
-0.00209233
0.00463058
-0.00215931
0.00493658
-0.00219748
0.00524059
-0.00220627
0.00553873
-0.00218645
0.00582754
-0.00214016
0.00610413
-0.00207069
0.00636619
-0.0019821
0.00661207
-0.00187886
0.00684069
-0.0017655
0.0070515
-0.00164629
0.00724437
-0.0015252
0.0074198
-0.0014055
0.00757862
-0.00128907
0.00772152
-0.00117759
0.00784956
-0.00107272
0.0079639
-0.000975473
0.00806583
-0.000886428
0.00815667
-0.000805772
0.00823772
-0.000733358
0.00831023
-0.000668819
0.00837536
-0.000611569
0.00843413
-0.000560959
0.00848744
-0.000516344
0.00853612
-0.000477161
0.00858089
-0.000442627
0.0086223
-0.000412108
0.00866076
-0.000385256
0.00869666
-0.000362383
0.00873039
-0.000342955
0.00876226
-0.000325213
0.00879219
-0.000304801
0.00881966
-0.000277578
0.00884349
-0.000239407
0.00886242
-0.000191132
0.008875
-0.000134215
0.00888076
-7.6469e-05
0.00887921
-1.98187e-05
0.00887158
2.59285e-05
0.00885783
6.78089e-05
0.00884041
9.28564e-05
0.000123654
0.00427599
-0.00103045
0.00441003
-0.00122017
0.00456111
-0.00140735
0.00472566
-0.0015895
0.00490334
-0.00176572
0.00509395
-0.00193199
0.00529593
-0.00208176
0.00550662
-0.00220889
0.00572318
-0.00230888
0.00594276
-0.00237889
0.00616259
-0.0024173
0.00638002
-0.00242369
0.00659262
-0.00239905
0.00679828
-0.00234582
0.00699524
-0.00226765
0.00718209
-0.00216895
0.0073578
-0.00205457
0.00752166
-0.00192936
0.0076732
-0.00179783
0.00781213
-0.00166414
0.00793847
-0.00153184
0.00805281
-0.00140341
0.00815543
-0.00128021
0.00824683
-0.00116411
0.0083277
-0.00105635
0.0083989
-0.000957621
0.00846133
-0.000868208
0.00851598
-0.00078801
0.00856383
-0.000716667
0.0086058
-0.000653539
0.00864272
-0.00059788
0.00867533
-0.00054895
0.00870431
-0.00050614
0.00873027
-0.000468593
0.0087537
-0.00043554
0.0087749
-0.000406453
0.00879411
-0.000381593
0.00881157
-0.000360415
0.00882758
-0.000341228
0.00884229
-0.000319505
0.00885565
-0.000290937
0.00886709
-0.000250852
0.00887592
-0.000199958
0.00888099
-0.000139283
0.00888179
-7.72749e-05
0.00887757
-1.55919e-05
0.00886904
3.44523e-05
0.00885577
8.10848e-05
0.00883966
0.000108964
0.000143959
0.00603148
-0.00111064
0.00612314
-0.00131182
0.00622229
-0.0015065
0.00632718
-0.00169438
0.00643884
-0.00187739
0.00655764
-0.00205079
0.00668242
-0.00220654
0.00681148
-0.00233796
0.00694304
-0.00244044
0.00707547
-0.00251132
0.00720744
-0.00254927
0.00733785
-0.00255411
0.00746582
-0.00252702
0.00759056
-0.00247056
0.00771137
-0.00238846
0.00782765
-0.00228523
0.00793883
-0.00216575
0.00804437
-0.0020349
0.00814375
-0.00189721
0.0082364
-0.00175678
0.00832179
-0.00161723
0.00839979
-0.00148141
0.00847047
-0.0013509
0.00853358
-0.00122723
0.00858927
-0.00111203
0.00863785
-0.00100621
0.00867981
-0.000910166
0.00871573
-0.00082393
0.00874628
-0.000747215
0.00877213
-0.000679389
0.0087939
-0.000619648
0.00881213
-0.000567181
0.00882736
-0.000521372
0.00884009
-0.000481326
0.00885073
-0.000446182
0.00885951
-0.000415225
0.00886655
-0.000388638
0.00887198
-0.000365848
0.00887607
-0.000345316
0.0088791
-0.000322535
0.00888143
-0.000293263
0.00888304
-0.000252462
0.00888377
-0.000200686
0.00888284
-0.000138357
0.00887981
-7.42502e-05
0.00887376
-9.53353e-06
0.008865
4.32061e-05
0.00885277
9.33129e-05
0.0088385
0.000123233
0.000161656
0.00759475
-0.00114959
0.00763768
-0.00135474
0.00768037
-0.00154919
0.00772214
-0.00173616
0.007764
-0.00191925
0.00780661
-0.00209339
0.00785053
-0.00225046
0.00789599
-0.00238342
0.0079426
-0.00248705
0.00798994
-0.00255866
0.00803788
-0.00259722
0.0080867
-0.00260293
0.00813679
-0.0025771
0.00818844
-0.00252221
0.00824176
-0.00244178
0.00829661
-0.00234008
0.00835264
-0.00222178
0.00840927
-0.00209153
0.00846575
-0.00195369
0.00852114
-0.00181218
0.0085744
-0.00167049
0.00862458
-0.00153159
0.00867129
-0.00139761
0.00871389
-0.00126983
0.00875183
-0.00114997
0.00878494
-0.00103932
0.00881328
-0.000938505
0.00883706
-0.000847716
0.00885666
-0.000766811
0.0088725
-0.000695228
0.008885
-0.000632147
0.00889452
-0.00057671
0.00890146
-0.000528311
0.0089062
-0.000486061
0.00890905
-0.000449038
0.0089102
-0.000416366
0.00890969
-0.00038813
0.00890756
-0.000363715
0.008904
-0.00034176
0.00889938
-0.000317911
0.0088943
-0.000288192
0.00888921
-0.00024737
0.00888441
-0.000195881
0.00887948
-0.000133432
0.00887412
-6.88911e-05
0.00886735
-2.76212e-06
0.00885921
5.13491e-05
0.00884871
0.000103814
0.00883687
0.000135072
0.000176198
0.00890693
-0.00113789
0.00889426
-0.00134207
0.00887604
-0.00153097
0.00885256
-0.00171268
0.00882549
-0.00189218
0.00879541
-0.00206331
0.00876264
-0.00221768
0.0087291
-0.00234988
0.00869733
-0.00245529
0.00866832
-0.00252964
0.00864277
-0.00257167
0.00862179
-0.00258194
0.00860658
-0.0025619
0.00859811
-0.00251374
0.00859686
-0.00244053
0.00860287
-0.00234609
0.00861572
-0.00223463
0.00863463
-0.00211044
0.00865852
-0.00197757
0.00868606
-0.00183972
0.00871578
-0.00170021
0.00874618
-0.00156198
0.00877604
-0.00142747
0.00880465
-0.00129844
0.00883095
-0.00117627
0.00885427
-0.00106264
0.00887433
-0.000958558
0.00889103
-0.000864417
0.00890449
-0.00078027
0.00891494
-0.000705678
0.00892264
-0.000639844
0.00892781
-0.000581881
0.0089307
-0.000531207
0.0089316
-0.000486954
0.00893074
-0.000448176
0.00892823
-0.000413865
0.00892411
-0.000384008
0.00891832
-0.000357924
0.00891099
-0.000334428
0.00890247
-0.000309391
0.00889352
-0.000279244
0.00888487
-0.000238721
0.00887719
-0.000188202
0.0088704
-0.000126643
0.00886435
-6.28331e-05
0.00885811
3.47731e-06
0.0088515
5.79506e-05
0.00884347
0.000111846
0.0088347
0.000143845
0.000187019
0.00989766
-0.0010762
0.00983127
-0.00127569
0.00975614
-0.00145583
0.00967341
-0.00162995
0.00958542
-0.0018042
0.00949311
-0.001971
0.00939747
-0.00212204
0.00930029
-0.0022527
0.0092053
-0.00236029
0.00911576
-0.00244011
0.00903335
-0.00248926
0.00895948
-0.00250807
0.00889565
-0.00249807
0.00884304
-0.00246113
0.00880223
-0.00239972
0.00877318
-0.00231703
0.00875531
-0.00221676
0.0087476
-0.00210273
0.00874867
-0.00197864
0.0087569
-0.00184795
0.00877051
-0.00171382
0.00878767
-0.00157914
0.00880668
-0.00144648
0.00882628
-0.00131804
0.00884551
-0.0011955
0.00886325
-0.00108038
0.00887887
-0.000974175
0.00889206
-0.000877613
0.00890276
-0.000790969
0.00891104
-0.00071396
0.00891704
-0.000645845
0.00892089
-0.000585728
0.00892274
-0.000533056
0.00892277
-0.000486986
0.00892116
-0.000446567
0.00891799
-0.000410691
0.00891325
-0.000379266
0.00890684
-0.000351522
0.00889884
-0.000326419
0.00888952
-0.000300079
0.00887971
-0.000269431
0.00887029
-0.000229303
0.00886218
-0.00018009
0.00885555
-0.000120014
0.00885041
-5.76887e-05
0.00884591
7.97446e-06
0.00884181
6.20468e-05
0.00883701
0.000116649
0.00883195
0.000148901
0.000193547
0.0105213
-0.000977734
0.0104148
-0.00116919
0.0102978
-0.00133878
0.0101723
-0.00150446
0.010041
-0.00167288
0.0099051
-0.00183514
0.00976634
-0.00198328
0.00962731
-0.00211367
0.00949078
-0.00222376
0.00936118
-0.00231051
0.00924143
-0.00236951
0.00913329
-0.00239993
0.00903819
-0.00240297
0.00895727
-0.00238021
0.00889108
-0.00233353
0.00883948
-0.00226544
0.00880179
-0.00217907
0.00877683
-0.00207777
0.00876308
-0.0019649
0.00875876
-0.00184364
0.00876197
-0.00171703
0.00877072
-0.00158789
0.00878312
-0.00145889
0.00879751
-0.00133243
0.00881269
-0.00121068
0.00882768
-0.00109537
0.00884148
-0.000987972
0.00885357
-0.000889707
0.00886376
-0.000801155
0.00887201
-0.00072221
0.00887837
-0.00065221
0.00888291
-0.000590268
0.00888572
-0.000535861
0.0088869
-0.00048817
0.00888658
-0.000446247
0.00888481
-0.000408917
0.00888157
-0.000376029
0.00887676
-0.000346709
0.00887036
-0.000320023
0.00886262
-0.000292339
0.00885431
-0.000261122
0.00884639
-0.000221385
0.00883991
-0.000173602
0.0088352
-0.00011531
0.00883242
-5.49035e-05
0.00883081
9.58059e-06
0.00883013
6.27226e-05
0.00882931
0.000117478
0.00882862
0.000149592
0.000195209
0.0107971
-0.000861965
0.0106707
-0.00104278
0.0105327
-0.00120077
0.0103859
-0.00135772
0.010233
-0.00151997
0.0100755
-0.0016776
0.00991535
-0.00182314
0.00975568
-0.00195401
0.00959935
-0.00206743
0.00944969
-0.00216084
0.00931063
-0.00223046
0.00918453
-0.00227382
0.0090728
-0.00229124
0.00897649
-0.00228391
0.00889616
-0.00225319
0.00883167
-0.00220096
0.00878235
-0.00212974
0.00874703
-0.00204245
0.00872421
-0.00194207
0.00871212
-0.00183155
0.00870886
-0.00171377
0.00871246
-0.00159149
0.00872098
-0.00146741
0.00873265
-0.0013441
0.00874597
-0.001224
0.00875991
-0.0011093
0.00877356
-0.00100163
0.00878614
-0.000902286
0.00879729
-0.000812312
0.00880692
-0.000731838
0.00881501
-0.0006603
0.00882158
-0.000596837
0.00882668
-0.000540957
0.00883036
-0.000491853
0.0088327
-0.000448589
0.00883374
-0.000409951
0.00883346
-0.00037575
0.00883175
-0.000345003
0.00882857
-0.000316846
0.0088241
-0.000287865
0.00881905
-0.00025607
0.00881437
-0.000216705
0.00881114
-0.000170373
0.00880981
-0.000113984
0.00881062
-5.57118e-05
0.00881293
7.2733e-06
0.00881652
5.91346e-05
0.00882037
0.000113622
0.00882468
0.000145287
0.000191444
0.0108081
-0.000745146
0.0106793
-0.000913985
0.0105386
-0.00106
0.010389
-0.00120811
0.0102328
-0.00136381
0.0100715
-0.00151633
0.00990752
-0.00165914
0.00974378
-0.00179027
0.00958342
-0.00190707
0.00942885
-0.00200626
0.00928393
-0.00208554
0.00915159
-0.00214148
0.0090335
-0.00217316
0.00893074
-0.00218114
0.00884391
-0.00216636
0.00877301
-0.00213006
0.00871749
-0.00207422
0.00867634
-0.0020013
0.00864819
-0.00191393
0.00863142
-0.00181478
0.00862424
-0.00170659
0.00862478
-0.00159202
0.00863116
-0.00147379
0.00864161
-0.00135455
0.00865455
-0.00123695
0.00866871
-0.00112346
0.00868321
-0.00101613
0.00869733
-0.000916401
0.00871048
-0.000825469
0.00872247
-0.000743827
0.00873324
-0.000671066
0.00874277
-0.000606365
0.00875107
-0.000549265
0.00875819
-0.000498964
0.00876413
-0.000454538
0.00876894
-0.000414758
0.00877262
-0.000379424
0.00877505
-0.000347441
0.00877619
-0.000317985
0.00877616
-0.000287834
0.00877561
-0.000255521
0.00877545
-0.00021654
0.00877672
-0.000171644
0.00877992
-0.000117186
0.00878534
-6.11301e-05
0.00879244
1.73231e-07
0.00880105
5.05255e-05
0.00881025
0.000104421
0.00882015
0.000135383
0.000181701
0.010657
-0.000635926
0.0105355
-0.000792518
0.0104024
-0.000926896
0.0102608
-0.00106648
0.0101123
-0.0012153
0.0099581
-0.00136213
0.00980068
-0.00150172
0.00964289
-0.00163248
0.00948761
-0.00175178
0.00933727
-0.00185592
0.00919471
-0.00194298
0.00906329
-0.00201006
0.00894503
-0.0020549
0.00884117
-0.00207729
0.00875246
-0.00207764
0.00867906
-0.00205666
0.00862064
-0.0020158
0.00857642
-0.00195708
0.00854526
-0.00188277
0.00852575
-0.00179528
0.00851629
-0.00169713
0.00851516
-0.00159089
0.0085206
-0.00147922
0.00853087
-0.00136482
0.00854438
-0.00125047
0.00855979
-0.00113886
0.00857601
-0.00103235
0.00859235
-0.000932741
0.00860827
-0.00084139
0.00862338
-0.000758936
0.00863755
-0.000685232
0.00865074
-0.000619552
0.00866294
-0.00056147
0.00867415
-0.000510179
0.00868439
-0.000464771
0.00869365
-0.000424024
0.00870197
-0.000387746
0.00870927
-0.000354733
0.00871547
-0.000324185
0.00872068
-0.000293047
0.0087255
-0.000260339
0.00873076
-0.000221799
0.00873744
-0.000178332
0.00874606
-0.000125796
0.00875689
-7.19682e-05
0.00876954
-1.24727e-05
0.00878383
3.62332e-05
0.00879898
8.92697e-05
0.00881506
0.000119309
0.000165449
0.0104221
-0.000537226
0.0103112
-0.000681554
0.0101895
-0.000805248
0.0100602
-0.000937169
0.00992392
-0.001079
0.0097815
-0.00121972
0.00963542
-0.00135564
0.00948829
-0.00148535
0.00934249
-0.00160598
0.0092006
-0.00171404
0.0090647
-0.00180707
0.008938
-0.00188336
0.00882285
-0.00193976
0.00872077
-0.00197521
0.0086327
-0.00198957
0.008559
-0.00198296
0.0084996
-0.00195641
0.00845401
-0.00191149