/*--------------------------------*- C++ -*----------------------------------*\
  =========                 |
  \\      /  F ield         | OpenFOAM: The Open Source CFD Toolbox
   \\    /   O peration     | Website:  https://openfoam.org
    \\  /    A nd           | Version:  7
     \\/     M anipulation  |
\*---------------------------------------------------------------------------*/
FoamFile
{
    version     2.0;
    format      ascii;
    class       volVectorField;
    location    "10";
    object      U;
}
// * * * * * * * * * * * * * * * * * * * * * * * * * * * * * * * * * * * * * //

dimensions      [0 1 -1 0 0 0 0];

internalField   nonuniform List<vector> 
6050
(
(-0.250317 0.00778946 1.98144e-20)
(-0.282057 0.00801381 -2.7521e-20)
(-0.313152 0.00817379 1.62783e-20)
(-0.343328 0.00820373 8.62157e-21)
(-0.372068 0.00802785 3.17172e-21)
(-0.398626 0.0075623 -1.05662e-20)
(-0.422034 0.00672272 -6.14108e-21)
(-0.441074 0.00540517 -4.06034e-21)
(-0.454405 0.00356521 1.69264e-20)
(-0.460337 0.00108427 -1.97319e-20)
(-0.457198 -0.00217913 -4.07243e-21)
(-0.444614 -0.00528923 4.55797e-21)
(-0.417146 -0.0102774 -1.25516e-20)
(-0.241302 0.0230706 -8.6431e-20)
(-0.270157 0.0236893 5.34172e-20)
(-0.297791 0.0241093 -4.23997e-20)
(-0.32386 0.0241361 5.0673e-21)
(-0.347785 0.0235476 -2.5617e-20)
(-0.368769 0.0220987 9.41068e-21)
(-0.385842 0.0195544 1.92691e-20)
(-0.397778 0.0156065 3.24951e-20)
(-0.403385 0.0101412 1.97371e-20)
(-0.401229 0.00291485 5.4486e-20)
(-0.388985 -0.00691951 4.90243e-21)
(-0.369316 -0.0156179 -4.24849e-20)
(-0.33016 -0.0308303 2.90651e-20)
(-0.223802 0.0374839 7.32112e-21)
(-0.247146 0.0383434 -2.04981e-20)
(-0.268231 0.0388565 4.20595e-20)
(-0.28661 0.0387082 -1.29264e-20)
(-0.301629 0.0375447 1.53822e-20)
(-0.312438 0.0349762 -1.58279e-20)
(-0.318126 0.0306663 -3.06595e-20)
(-0.317476 0.024117 -3.58158e-20)
(-0.309512 0.0151756 -4.4199e-20)
(-0.293825 0.00390231 -8.89165e-20)
(-0.265269 -0.0124595 3.22086e-20)
(-0.235619 -0.0256693 2.65292e-20)
(-0.176149 -0.0509364 7.89661e-20)
(-0.198795 0.0505126 -6.18728e-21)
(-0.214467 0.051384 -1.82307e-21)
(-0.22656 0.0517486 -1.2083e-19)
(-0.234546 0.0511853 -5.84163e-20)
(-0.23775 0.0492338 2.76776e-20)
(-0.235314 0.0453775 3.31392e-21)
(-0.226529 0.0392464 2.81496e-20)
(-0.210248 0.0301806 -8.61828e-20)
(-0.185394 0.017989 3.37209e-20)
(-0.154484 0.00348849 4.95263e-20)
(-0.105041 -0.018628 5.59598e-20)
(-0.0666638 -0.0370452 -2.94347e-20)
(0.0178733 -0.067839 -6.45755e-20)
(-0.167576 0.0617186 -4.83214e-21)
(-0.173987 0.0623274 -2.03536e-21)
(-0.175412 0.0622653 2.45811e-20)
(-0.171307 0.0610261 3.70793e-20)
(-0.161073 0.0580766 -1.01324e-19)
(-0.143896 0.0527916 1.24999e-19)
(-0.119436 0.0448351 6.50304e-20)
(-0.0867826 0.0334004 1.02078e-19)
(-0.043908 0.0185487 -2.42804e-21)
(0.00107226 -3.51325e-05 -2.4675e-20)
(0.0724844 -0.0243727 2.85368e-21)
(0.117671 -0.0497115 -3.56411e-20)
(0.228758 -0.0817842 -6.19465e-20)
(-0.127728 0.0708131 9.08804e-21)
(-0.117554 0.0700446 2.51763e-20)
(-0.100575 0.067886 2.04747e-19)
(-0.0763735 0.0637652 -9.60353e-22)
(-0.044194 0.0569808 7.54784e-20)
(-0.00416323 0.0472557 -1.86713e-19)
(0.0442404 0.0334525 2.4081e-20)
(0.104338 0.0169424 -3.89856e-20)
(0.161697 -0.0067183 -3.09537e-20)
(0.255188 -0.0305331 2.90114e-20)
(0.303206 -0.0615759 -6.26144e-20)
(0.441076 -0.0950253 6.06215e-20)
(-0.0775979 0.0766084 -1.29967e-19)
(-0.0554848 0.0748814 1.56554e-20)
(-0.0255086 0.0716078 -4.23181e-20)
(0.0124968 0.0661774 6.70906e-20)
(0.0592464 0.0578682 -2.66615e-21)
(0.114095 0.0465924 -6.50171e-20)
(0.177277 0.0302472 1.71436e-19)
(0.253613 0.0131038 -6.70216e-20)
(0.322315 -0.0149355 -5.64808e-20)
(0.435172 -0.0382545 8.75935e-20)
(0.486703 -0.0729601 3.23203e-20)
(0.64489 -0.106552 1.35751e-19)
(-0.0251044 0.0796131 3.95479e-19)
(0.00896541 0.0767278 5.53473e-21)
(0.0517665 0.0722061 -2.61465e-19)
(0.103224 0.0654139 -2.72044e-20)
(0.164126 0.055592 -2.64356e-19)
(0.23319 0.0431668 1.27346e-19)
(0.310921 0.0243599 -9.56731e-20)
(0.401697 0.00720199 1.00555e-19)
(0.483896 -0.0239809 1.40372e-19)
(0.609126 -0.0465505 5.32424e-20)
(0.668629 -0.0834532 -1.46947e-19)
(0.834526 -0.114623 -1.21674e-19)
(0.0289232 0.0798714 -3.23308e-19)
(0.0750054 0.0757186 -9.35885e-20)
(0.130658 0.0699219 6.08798e-20)
(0.195615 0.0618793 1.12795e-19)
(0.270805 0.0507082 -3.49797e-20)
(0.354149 0.0375282 1.35657e-19)
(0.447184 0.0170038 7.81088e-21)
(0.550192 -0.000178462 -1.50461e-19)
(0.648167 -0.0324487 9.63915e-21)
(0.776568 -0.0537208 -2.0911e-19)
(0.846827 -0.0912971 3.94617e-20)
(1.00273 -0.117264 -7.77623e-20)
(0.0846204 0.0776019 1.50281e-19)
(0.14323 0.0722269 -1.24698e-19)
(0.212405 0.0653227 1.9712e-19)
(0.291774 0.0563392 1.97202e-19)
(0.382111 0.0442689 2.5921e-19)
(0.48045 0.0307329 -2.51282e-19)
(0.588906 0.0098582 2.24747e-20)
(0.701911 -0.00725823 2.20315e-19)
(0.813027 -0.0384345 -7.83606e-20)
(0.935115 -0.0577292 4.17116e-22)
(1.01193 -0.0941853 -5.69491e-21)
(1.13933 -0.113522 9.71148e-20)
(0.143302 0.0732408 -1.63185e-19)
(0.215767 0.0669262 -2.65525e-20)
(0.300011 0.0593334 -8.58727e-20)
(0.395445 0.0499883 -5.83207e-20)
(0.501883 0.0378219 -1.40049e-19)
(0.615422 0.0245497 -6.9415e-20)
(0.736492 0.00476494 2.58072e-20)
(0.855544 -0.0116842 -1.37822e-19)
(0.970229 -0.0401927 1.51632e-20)
(1.07712 -0.057124 6.71927e-21)
(1.14891 -0.0909289 -9.64008e-20)
(1.23601 -0.104279 6.44787e-20)
(0.29598 0.0608167 -8.58063e-20)
(0.397369 0.0532662 2.72943e-19)
(0.51025 0.0444223 -3.13593e-19)
(0.632301 0.0332074 -2.86493e-19)
(0.758391 0.0209857 4.01419e-19)
(0.885164 0.00334975 -8.90119e-20)
(1.00235 -0.0118382 4.5567e-20)
(1.10719 -0.0371031 6.1269e-20)
(1.1913 -0.0518558 -5.29362e-20)
(1.24573 -0.0825476 1.42763e-19)
(1.29249 -0.0917973 1.69237e-19)
(0.387518 0.0552156 1.35612e-19)
(0.507496 0.0487364 -1.56221e-19)
(0.637092 0.0413575 -6.63405e-20)
(0.770971 0.032059 2.21764e-19)
(0.902372 0.0214017 -2.92679e-19)
(1.02451 0.00629235 -1.67876e-20)
(1.12895 -0.00772813 1.20607e-19)
(1.21243 -0.0300761 -4.82663e-20)
(1.26959 -0.0434091 -5.89471e-20)
(1.30143 -0.0714855 7.48927e-21)
(1.3175 -0.0783652 -7.7791e-20)
(0.492722 0.0516301 -2.82202e-19)
(0.630313 0.0472955 1.68169e-19)
(0.772059 0.0421026 9.87526e-20)
(0.909772 0.0351253 -1.29055e-19)
(1.03557 0.0258702 2.04648e-19)
(1.14203 0.0128345 1.56731e-19)
(1.22443 -0.000820166 -4.10046e-20)
(1.28142 -0.0209606 6.7847e-22)
(1.31327 -0.033865 -6.79806e-21)
(1.32579 -0.0598675 -1.86149e-19)
(1.32349 -0.0653445 -2.46004e-19)
(0.610868 0.0514245 1.14646e-19)
(0.761151 0.0499148 -9.75346e-20)
(0.906333 0.0470003 6.9889e-20)
(1.03701 0.0418543 6.01135e-20)
(1.1462 0.0331884 -4.71152e-20)
(1.2292 0.0212048 1.064e-19)
(1.28601 0.00701032 -1.18745e-19)
(1.3186 -0.0114489 1.41682e-19)
(1.33159 -0.0246914 2.70049e-19)
(1.33165 -0.0486387 1.31167e-19)
(1.32033 -0.0532506 2.00969e-19)
(0.891193 0.0565608 1.28146e-20)
(1.0288 0.0552042 3.83453e-20)
(1.14213 0.0506753 -6.53687e-20)
(1.22762 0.041592 -1.66364e-19)
(1.28525 0.0296657 -5.79705e-21)
(1.31915 0.0145139 1.98929e-19)
(1.33369 -0.00239565 -1.65563e-19)
(1.33514 -0.0164102 -3.6826e-19)
(1.32847 -0.0379294 -2.65129e-19)
(1.31353 -0.0422571 9.80792e-20)
(1.01012 0.0661603 -2.77441e-19)
(1.13022 0.0650692 2.11435e-19)
(1.21992 0.059836 2.82229e-20)
(1.28044 0.0496753 7.23237e-20)
(1.31597 0.0372663 -1.60822e-19)
(1.33286 0.021347 -4.62501e-20)
(1.33603 0.00601721 -4.18397e-20)
(1.33133 -0.00902773 4.62434e-20)
(1.32135 -0.027602 1.57698e-19)
(1.30564 -0.0324803 -3.14845e-19)
(1.20642 0.0749513 -9.91744e-20)
(1.27152 0.0681729 2.76389e-20)
(1.31036 0.0568244 -1.56092e-19)
(1.32938 0.0438423 -1.33126e-20)
(1.33517 0.0276844 3.08974e-20)
(1.33186 0.0137817 -2.18315e-20)
(1.32417 -0.00236014 3.02215e-19)
(1.3127 -0.0174267 5.82809e-21)
(1.29775 -0.0240638 2.97703e-19)
(1.25855 0.0838319 -3.72201e-20)
(1.30208 0.0753108 -1.29979e-19)
(1.3244 0.0630243 -2.348e-19)
(1.33231 0.0496161 -6.15021e-21)
(1.33143 0.0337605 -1.05624e-19)
(1.32468 0.0208438 9.08746e-20)
(1.31568 0.00397749 -4.7085e-20)
(1.30355 -0.00720747 -3.38085e-19)
(1.2902 -0.0173658 -1.26513e-19)
(1.31768 0.0813754 1.94423e-19)
(1.32848 0.0684896 2.95408e-19)
(1.32941 0.0548848 -4.87496e-20)
(1.32477 0.0396681 7.09629e-20)
(1.31635 0.027202 -2.48142e-20)
(1.30689 0.0105507 1.53714e-19)
(1.29435 0.00272846 7.50289e-20)
(1.28302 -0.0127627 8.42379e-20)
(1.32351 0.0866523 1.86883e-20)
(1.32673 0.0734613 8.01454e-20)
(1.32353 0.0598839 -1.48462e-20)
(1.31686 0.0453735 1.40728e-19)
(1.30778 0.0330727 1.5021e-20)
(1.29826 0.0176865 -3.56371e-19)
(1.28575 0.0111391 1.54451e-19)
(1.27536 -0.0116017 -1.4043e-19)
(1.3218 0.0781489 -3.11633e-20)
(1.31625 0.0647471 -3.29308e-20)
(1.30856 0.0508563 -2.41968e-20)
(1.29934 0.0388037 1.39412e-19)
(1.28987 0.0248873 1.04192e-19)
(1.27783 0.0163128 3.046e-20)
(1.26892 0.00176195 8.6269e-20)
(1.31525 0.0826806 -3.24059e-20)
(1.30841 0.0695105 -1.25118e-20)
(1.30027 0.0561703 1.14078e-19)
(1.29113 0.0445072 -5.9662e-20)
(1.28176 0.0309683 -6.77294e-20)
(1.27063 0.0240182 -1.52416e-19)
(1.26168 0.00790064 -9.87194e-20)
(1.30044 0.0742098 6.03251e-21)
(1.29214 0.0613872 -1.47483e-19)
(1.28314 0.0498174 3.59679e-20)
(1.27407 0.0374828 -6.83447e-20)
(1.26342 0.0294117 -2.56622e-19)
(1.25536 0.0154489 1.33586e-19)
(1.28418 0.066408 7.88197e-20)
(1.27542 0.0551509 -1.87936e-20)
(1.26654 0.0431052 2.30097e-19)
(1.25666 0.0354358 2.16996e-19)
(1.2488 0.0219952 8.72759e-20)
(1.26786 0.0601392 -4.77042e-21)
(1.25929 0.0487697 -1.5631e-19)
(1.24993 0.0406533 -5.87811e-20)
(1.24248 0.0279408 -8.37722e-20)
(1.25215 0.0539454 -1.08423e-20)
(1.24337 0.0457324 1.41258e-19)
(1.23613 0.0336508 1.50587e-19)
(1.23683 0.0504701 -8.3307e-20)
(1.22984 0.0388196 -3.13876e-20)
(1.23683 -0.0504701 -2.94088e-20)
(1.22984 -0.0388196 -2.10812e-19)
(1.25215 -0.0539454 7.06422e-20)
(1.24337 -0.0457324 1.52946e-19)
(1.23613 -0.0336507 8.08944e-20)
(1.26786 -0.0601392 9.2576e-20)
(1.25929 -0.0487697 -7.59964e-20)
(1.24993 -0.0406533 -1.24168e-19)
(1.24248 -0.0279408 1.94835e-20)
(1.28418 -0.066408 -2.02526e-19)
(1.27542 -0.0551509 -2.7748e-21)
(1.26654 -0.0431052 2.5825e-19)
(1.25666 -0.0354358 1.04385e-19)
(1.2488 -0.0219952 8.72224e-20)
(1.30044 -0.0742097 -5.04533e-20)
(1.29214 -0.0613872 3.07842e-20)
(1.28314 -0.0498174 -2.84084e-20)
(1.27407 -0.0374828 2.93391e-20)
(1.26342 -0.0294117 -1.60822e-19)
(1.25536 -0.0154489 8.7323e-20)
(1.31525 -0.0826806 3.8932e-21)
(1.30841 -0.0695105 9.40033e-20)
(1.30027 -0.0561703 4.3378e-20)
(1.29113 -0.0445072 -1.0763e-19)
(1.28176 -0.0309682 -2.04257e-20)
(1.27063 -0.0240182 -1.14224e-20)
(1.26168 -0.00790063 -1.58059e-19)
(1.3218 -0.0781489 -1.26098e-20)
(1.31625 -0.0647471 6.26721e-21)
(1.30856 -0.0508562 -6.12208e-20)
(1.29934 -0.0388037 5.52572e-20)
(1.28987 -0.0248873 4.28328e-20)
(1.27783 -0.0163128 -2.83671e-21)
(1.26892 -0.00176193 1.24424e-19)
(1.32351 -0.0866523 -1.14746e-19)
(1.32673 -0.0734613 -1.79342e-19)
(1.32353 -0.0598839 1.426e-19)
(1.31686 -0.0453735 9.19675e-20)
(1.30778 -0.0330727 -4.01789e-20)
(1.29826 -0.0176864 -3.31121e-19)
(1.28575 -0.0111391 3.30091e-20)
(1.27536 0.0116017 1.91381e-20)
(1.31768 -0.0813754 2.27298e-19)
(1.32848 -0.0684896 2.39588e-19)
(1.32941 -0.0548847 -7.81759e-20)
(1.32477 -0.0396681 2.02638e-20)
(1.31635 -0.027202 5.84602e-20)
(1.30689 -0.0105506 5.20509e-20)
(1.29435 -0.00272843 1.58202e-19)
(1.28302 0.0127627 5.8859e-20)
(1.25855 -0.0838319 -6.39783e-20)
(1.30208 -0.0753108 -1.03998e-19)
(1.3244 -0.0630243 -1.61654e-19)
(1.33231 -0.0496161 3.81052e-20)
(1.33143 -0.0337605 -1.47099e-19)
(1.32468 -0.0208438 -4.05269e-21)
(1.31568 -0.00397746 -1.16506e-19)
(1.30355 0.0072075 -1.56803e-19)
(1.2902 0.0173658 -9.5298e-20)
(1.20642 -0.0749513 4.34615e-20)
(1.27152 -0.0681729 -6.05119e-20)
(1.31036 -0.0568244 -1.352e-19)
(1.32938 -0.0438423 -8.57327e-20)
(1.33517 -0.0276844 1.2763e-19)
(1.33186 -0.0137817 -8.05326e-20)
(1.32417 0.00236018 3.60104e-19)
(1.3127 0.0174267 1.77668e-19)
(1.29775 0.0240639 3.03139e-20)
(1.01012 -0.0661603 4.0187e-20)
(1.13022 -0.0650692 -1.64039e-20)
(1.21992 -0.059836 -6.20846e-20)
(1.28044 -0.0496753 3.09403e-19)
(1.31597 -0.0372663 -2.01937e-19)
(1.33286 -0.021347 -1.8502e-19)
(1.33603 -0.00601717 3.94278e-20)
(1.33133 0.00902778 3.78269e-20)
(1.32135 0.0276021 4.08646e-19)
(1.30564 0.0324803 -3.79242e-19)
(0.891193 -0.0565608 1.43499e-19)
(1.0288 -0.0552042 1.40663e-20)
(1.14213 -0.0506753 -3.85933e-20)
(1.22762 -0.041592 -1.2092e-19)
(1.28525 -0.0296657 4.55664e-20)
(1.31915 -0.0145138 9.38907e-20)
(1.33369 0.00239569 -1.42556e-19)
(1.33514 0.0164103 -3.27743e-19)
(1.32847 0.0379294 -1.78964e-19)
(1.31353 0.0422571 8.4027e-20)
(0.610868 -0.0514245 5.24824e-19)
(0.761151 -0.0499148 -2.32513e-19)
(0.906333 -0.0470003 1.20128e-20)
(1.03701 -0.0418543 1.72345e-19)
(1.1462 -0.0331884 1.38178e-19)
(1.2292 -0.0212048 -8.84066e-20)
(1.28601 -0.00701027 4.18792e-20)
(1.3186 0.011449 1.20762e-19)
(1.33159 0.0246915 8.69647e-20)
(1.33165 0.0486387 1.66237e-19)
(1.32033 0.0532506 3.55634e-19)
(0.492722 -0.0516301 -3.23652e-19)
(0.630313 -0.0472955 2.05511e-19)
(0.772059 -0.0421026 1.4085e-19)
(0.909772 -0.0351253 -2.83978e-19)
(1.03557 -0.0258702 4.01214e-19)
(1.14203 -0.0128345 -2.83848e-20)
(1.22443 0.000820215 -7.49971e-20)
(1.28142 0.0209607 -4.88082e-20)
(1.31327 0.033865 -1.64461e-20)
(1.32579 0.0598675 -2.36481e-20)
(1.32349 0.0653445 -1.33665e-19)
(0.387518 -0.0552157 1.20364e-19)
(0.507496 -0.0487365 -1.48095e-19)
(0.637092 -0.0413576 -7.41985e-20)
(0.770971 -0.032059 2.32802e-19)
(0.902372 -0.0214017 -3.8458e-19)
(1.02451 -0.00629232 -2.71839e-21)
(1.12895 0.00772818 1.66765e-19)
(1.21243 0.0300761 -1.04433e-19)
(1.26959 0.0434092 8.50692e-20)
(1.30143 0.0714856 -1.68947e-19)
(1.3175 0.0783652 -1.32561e-19)
(0.29598 -0.0608168 5.91521e-20)
(0.397369 -0.0532662 1.61836e-19)
(0.51025 -0.0444223 -2.5361e-19)
(0.632301 -0.0332074 -2.7063e-19)
(0.758391 -0.0209857 3.61871e-19)
(0.885164 -0.00334971 -8.42697e-20)
(1.00235 0.0118383 1.36366e-19)
(1.10719 0.0371031 1.11608e-19)
(1.1913 0.0518559 -1.65692e-19)
(1.24573 0.0825477 1.65354e-19)
(1.29249 0.0917973 1.25398e-19)
(0.143302 -0.0732408 2.32067e-19)
(0.215767 -0.0669262 7.19215e-20)
(0.300011 -0.0593335 -3.23464e-19)
(0.395446 -0.0499883 6.17488e-20)
(0.501883 -0.0378219 -1.98839e-19)
(0.615422 -0.0245497 -1.61081e-20)
(0.736492 -0.0047649 8.71524e-20)
(0.855544 0.0116842 -1.62021e-19)
(0.970229 0.0401928 -4.29129e-20)
(1.07712 0.0571241 -4.28195e-20)
(1.14891 0.090929 2.41392e-20)
(1.23601 0.104279 -2.63929e-20)
(0.0846204 -0.077602 1.44494e-19)
(0.14323 -0.0722269 -7.69085e-20)
(0.212406 -0.0653228 2.88574e-19)
(0.291774 -0.0563392 -3.54579e-20)
(0.382111 -0.0442689 2.70168e-19)
(0.48045 -0.0307329 -6.89604e-20)
(0.588906 -0.00985816 5.20913e-20)
(0.701911 0.00725829 -6.8026e-20)
(0.813027 0.0384346 7.88407e-20)
(0.935115 0.0577293 4.96246e-20)
(1.01193 0.0941854 3.54839e-20)
(1.13933 0.113522 -4.55365e-20)
(0.0289233 -0.0798715 -4.02081e-19)
(0.0750055 -0.0757187 -4.92358e-20)
(0.130658 -0.0699219 7.03181e-20)
(0.195615 -0.0618793 1.0774e-19)
(0.270806 -0.0507083 1.21276e-19)
(0.354149 -0.0375282 1.97651e-20)
(0.447185 -0.0170038 -1.50649e-20)
(0.550192 0.000178525 -2.33926e-19)
(0.648167 0.0324488 -3.67527e-20)
(0.776568 0.0537209 4.99964e-20)
(0.846827 0.0912972 -9.79443e-20)
(1.00273 0.117264 -1.64774e-19)
(-0.0251043 -0.0796132 2.75521e-19)
(0.0089655 -0.0767278 -3.88229e-20)
(0.0517666 -0.0722061 -2.02699e-19)
(0.103224 -0.0654139 -1.59951e-19)
(0.164126 -0.055592 -5.51649e-20)
(0.23319 -0.0431667 -6.26551e-20)
(0.310921 -0.0243599 5.13157e-20)
(0.401697 -0.00720193 7.38752e-20)
(0.483896 0.023981 1.02549e-19)
(0.609126 0.0465506 -4.47756e-21)
(0.668629 0.0834533 1.97431e-20)
(0.834526 0.114623 -1.34254e-19)
(-0.0775978 -0.0766085 -1.6618e-19)
(-0.0554847 -0.0748815 1.09281e-19)
(-0.0255085 -0.0716078 -4.03332e-20)
(0.0124969 -0.0661774 8.27764e-20)
(0.0592465 -0.0578682 -1.74178e-20)
(0.114095 -0.0465924 -2.26885e-20)
(0.177277 -0.0302471 7.61421e-20)
(0.253613 -0.0131037 -7.05603e-20)
(0.322315 0.0149356 6.86957e-20)
(0.435173 0.0382546 7.11196e-21)
(0.486703 0.0729603 5.45362e-20)
(0.64489 0.106552 2.55895e-19)
(-0.127728 -0.0708132 3.40113e-20)
(-0.117554 -0.0700446 6.66811e-20)
(-0.100575 -0.067886 1.58907e-19)
(-0.0763734 -0.0637653 -4.9454e-20)
(-0.0441939 -0.0569808 5.60627e-20)
(-0.0041631 -0.0472557 -7.98926e-20)
(0.0442405 -0.0334524 -8.15612e-20)
(0.104339 -0.0169424 9.3254e-20)
(0.161697 0.00671839 -1.77985e-20)
(0.255188 0.0305332 -1.15453e-19)
(0.303206 0.0615761 8.05814e-20)
(0.441076 0.0950254 -5.97092e-20)
(-0.167576 -0.0617187 1.14004e-19)
(-0.173987 -0.0623275 -1.7344e-20)
(-0.175411 -0.0622654 6.48354e-21)
(-0.171307 -0.0610261 -2.22664e-20)
(-0.161073 -0.0580766 -2.57475e-21)
(-0.143896 -0.0527916 1.02044e-19)
(-0.119436 -0.0448351 1.16494e-19)
(-0.0867825 -0.0334004 1.94576e-20)
(-0.0439078 -0.0185486 5.44167e-20)
(0.00107241 3.52331e-05 -1.05174e-19)
(0.0724845 0.0243729 1.37888e-19)
(0.117671 0.0497116 -1.42461e-19)
(0.228758 0.0817843 -3.65797e-20)
(-0.198795 -0.0505127 1.61641e-20)
(-0.214467 -0.0513841 -3.19566e-20)
(-0.22656 -0.0517487 -5.63545e-20)
(-0.234546 -0.0511853 -9.08056e-20)
(-0.23775 -0.0492338 5.10439e-20)
(-0.235314 -0.0453775 -1.25774e-20)
(-0.226528 -0.0392464 6.87201e-20)
(-0.210248 -0.0301806 -1.17346e-19)
(-0.185394 -0.0179889 5.4498e-20)
(-0.154484 -0.00348839 6.13018e-20)
(-0.105041 0.0186282 -6.07732e-20)
(-0.0666637 0.0370454 5.34691e-20)
(0.0178735 0.0678392 -8.15276e-20)
(-0.223802 -0.037484 -6.43197e-21)
(-0.247146 -0.0383435 -3.74894e-20)
(-0.268231 -0.0388566 1.67134e-20)
(-0.28661 -0.0387083 1.90377e-20)
(-0.301629 -0.0375448 3.14468e-20)
(-0.312438 -0.0349762 -4.18161e-20)
(-0.318125 -0.0306663 -2.08868e-20)
(-0.317476 -0.024117 3.4937e-21)
(-0.309512 -0.0151756 -9.86752e-20)
(-0.293825 -0.0039022 -4.99661e-20)
(-0.265268 0.0124596 -2.73701e-20)
(-0.235618 0.0256695 8.84245e-20)
(-0.176149 0.0509366 2.93296e-20)
(-0.241302 -0.0230707 -7.45369e-20)
(-0.270157 -0.0236894 5.23241e-20)
(-0.297791 -0.0241094 -4.31946e-20)
(-0.32386 -0.0241362 2.50466e-20)
(-0.347785 -0.0235476 -3.49447e-20)
(-0.368769 -0.0220987 -5.61585e-21)
(-0.385842 -0.0195544 1.07848e-20)
(-0.397778 -0.0156065 4.04887e-20)
(-0.403385 -0.0101411 2.40782e-20)
(-0.401229 -0.00291475 6.6027e-20)
(-0.388985 0.00691965 -2.0399e-20)
(-0.369315 0.015618 -2.72116e-20)
(-0.33016 0.0308305 4.62599e-23)
(-0.250317 -0.00778956 2.11066e-20)
(-0.282057 -0.00801391 -2.33133e-20)
(-0.313152 -0.00817388 9.1704e-21)
(-0.343328 -0.0082038 1.91845e-20)
(-0.372068 -0.00802791 -8.96302e-21)
(-0.398626 -0.00756233 1.99769e-21)
(-0.422034 -0.00672272 -1.31871e-20)
(-0.441073 -0.00540514 -2.88324e-21)
(-0.454405 -0.00356514 1.38428e-20)
(-0.460337 -0.00108416 -8.07325e-21)
(-0.457198 0.00217928 -1.03443e-20)
(-0.444614 0.00528941 -4.53512e-21)
(-0.417146 0.0102776 -1.51787e-20)
(-0.391556 -0.0116066 -1.02674e-20)
(-0.369324 -0.013973 4.53118e-21)
(-0.342148 -0.0159491 -3.16742e-21)
(-0.310747 -0.0178764 5.7908e-21)
(-0.274829 -0.0196045 -9.17047e-22)
(-0.23464 -0.0211066 -3.35557e-21)
(-0.190459 -0.02233 9.79202e-22)
(-0.142723 -0.0232545 1.98859e-22)
(-0.0919102 -0.0238729 -4.1702e-22)
(-0.0386318 -0.0241509 1.49586e-21)
(0.0164624 -0.0240099 -1.25367e-21)
(0.0726441 -0.0235944 8.83015e-23)
(0.129148 -0.0228903 2.23444e-22)
(0.185326 -0.0219391 -5.3296e-23)
(0.240531 -0.0207902 9.03145e-24)
(0.294193 -0.0194951 -1.41863e-22)
(0.345838 -0.0181056 2.58865e-22)
(0.395098 -0.0166702 -2.30465e-22)
(0.441722 -0.0152327 2.02583e-22)
(0.485566 -0.0138401 -4.36949e-22)
(0.526568 -0.0125202 3.29485e-22)
(0.56473 -0.0112832 2.01481e-22)
(0.600119 -0.010139 1.10845e-22)
(0.632854 -0.00909385 -4.67642e-23)
(0.66309 -0.00814923 -4.59111e-22)
(0.691007 -0.007303 1.06066e-22)
(0.716794 -0.00655053 8.95037e-23)
(0.740648 -0.00588533 -1.00011e-22)
(0.762759 -0.00529991 4.15788e-23)
(0.783312 -0.00478619 5.60375e-23)
(0.802474 -0.00433649 -2.85613e-23)
(0.820408 -0.00394339 -9.52781e-23)
(0.837253 -0.00359991 1.61243e-23)
(0.853148 -0.00329883 6.23178e-24)
(0.868192 -0.00303523 9.15984e-24)
(0.882511 -0.00280677 -8.66828e-24)
(0.896198 -0.00261324 -2.53908e-23)
(0.909412 -0.0024482 7.42557e-24)
(0.922192 -0.00229752 6.88933e-24)
(0.934588 -0.00213661 -4.17399e-24)
(0.946345 -0.0019455 2.52087e-24)
(0.957302 -0.00171063 -1.63964e-24)
(0.966954 -0.00144258 1.79178e-24)
(0.975271 -0.00115647 5.58023e-24)
(0.98181 -0.000887573 8.73959e-26)
(0.987082 -0.000646405 7.40415e-26)
(0.990652 -0.0004636 -3.27189e-25)
(0.993699 -0.000312738 2.91229e-25)
(0.995186 -0.000229962 -2.28623e-25)
(0.997276 -0.000137985 6.65351e-25)
(-0.300893 -0.0347629 -2.70537e-20)
(-0.279384 -0.0414899 9.83271e-21)
(-0.252556 -0.0474231 -1.59997e-20)
(-0.221832 -0.0530491 7.32055e-21)
(-0.186945 -0.0581277 4.64397e-21)
(-0.148114 -0.0625701 3.59571e-21)
(-0.105605 -0.0661852 -7.95431e-21)
(-0.0599151 -0.0688028 4.89184e-21)
(-0.0115073 -0.0704289 -3.50061e-21)
(0.0391826 -0.0710445 6.87327e-22)
(0.0913897 -0.0706539 1.73217e-21)
(0.144348 -0.0693781 9.82701e-22)
(0.19744 -0.067252 -6.5411e-22)
(0.250035 -0.0643992 1.84307e-22)
(0.30154 -0.0609678 -2.75868e-22)
(0.35144 -0.0571145 3.20363e-22)
(0.399312 -0.0529949 3.4332e-22)
(0.444837 -0.0487537 -7.35659e-22)
(0.4878 -0.0445167 3.21292e-22)
(0.528091 -0.040406 8.5302e-23)
(0.565684 -0.0365181 6.19921e-22)
(0.600605 -0.0328859 -1.30166e-21)
(0.632929 -0.0295327 1.04249e-21)
(0.66278 -0.0264744 -8.93596e-22)
(0.690315 -0.0237144 1.54667e-22)
(0.715713 -0.0212455 5.84128e-22)
(0.739157 -0.0190529 -7.29315e-22)
(0.760838 -0.0171171 3.18733e-22)
(0.780936 -0.0154156 -6.19791e-23)
(0.799627 -0.0139241 3.46611e-22)
(0.817067 -0.0126197 -4.33408e-23)
(0.83341 -0.0114805 1.69889e-23)
(0.848784 -0.010486 -1.57685e-22)
(0.863318 -0.00961482 1.07235e-22)
(0.877102 -0.00885226 7.38221e-23)
(0.89025 -0.00819102 -1.19024e-22)
(0.902843 -0.00763065 5.70856e-23)
(0.915026 -0.00715291 -4.68983e-24)
(0.926829 -0.00671729 -4.48636e-23)
(0.938307 -0.00625222 1.01324e-23)
(0.949223 -0.00569927 -7.99372e-25)
(0.959435 -0.00501775 -1.10126e-23)
(0.968465 -0.00423791 8.44207e-24)
(0.976289 -0.00340295 7.83399e-24)
(0.982466 -0.00261649 -1.06598e-23)
(0.987485 -0.00190907 1.76784e-24)
(0.990893 -0.00137208 7.26176e-25)
(0.993836 -0.000927365 -1.7518e-25)
(0.995269 -0.000683434 5.34894e-25)
(0.997314 -0.000411026 4.58005e-25)
(-0.143246 -0.0579289 -3.48323e-20)
(-0.122352 -0.0680483 2.09635e-20)
(-0.0964621 -0.0776983 1.04638e-21)
(-0.0671794 -0.0866436 -1.05757e-20)
(-0.0344583 -0.094694 -3.96081e-21)
(0.00157822 -0.101567 1.04482e-20)
(0.0409592 -0.107086 -1.31355e-20)
(0.0830407 -0.111151 3.15181e-21)
(0.127164 -0.113585 -8.1303e-23)
(0.172966 -0.114363 -5.61981e-22)
(0.219838 -0.113623 1.05792e-21)
(0.267135 -0.111392 2.1596e-21)
(0.314256 -0.107802 -1.69542e-21)
(0.360638 -0.103058 3.70904e-22)
(0.405776 -0.0974024 1.39831e-22)
(0.449242 -0.0910933 -3.18225e-22)
(0.490698 -0.0843854 4.87942e-22)
(0.529902 -0.0775134 -6.33949e-22)
(0.5667 -0.0706788 2.88616e-22)
(0.601026 -0.0640486 -9.86307e-22)
(0.632898 -0.0577815 5.56713e-22)
(0.662387 -0.0519558 1.7331e-21)
(0.689578 -0.0465977 -1.21879e-21)
(0.714598 -0.0417248 2.32036e-23)
(0.737603 -0.0373393 -7.25502e-23)
(0.758766 -0.0334267 5.77871e-22)
(0.778261 -0.0299612 -3.71584e-22)
(0.796265 -0.0269092 3.87723e-22)
(0.812945 -0.024233 1.90236e-22)
(0.82846 -0.0218926 -3.47975e-22)
(0.842952 -0.01985 -4.54266e-22)
(0.856555 -0.0180694 5.37499e-22)
(0.869382 -0.0165181 -1.05542e-22)
(0.881548 -0.0151613 -1.92263e-22)
(0.893129 -0.0139743 1.81401e-22)
(0.90422 -0.0129443 6.91484e-23)
(0.91488 -0.0120709 -6.23923e-24)
(0.925232 -0.0113265 -4.25285e-23)
(0.935293 -0.0106495 -2.00128e-24)
(0.945124 -0.00992762 -3.29357e-23)
(0.954519 -0.00906809 5.25905e-23)
(0.963379 -0.00800339 -2.85134e-23)
(0.97127 -0.00677926 -9.75467e-24)
(0.97819 -0.00546077 -9.6143e-24)
(0.983696 -0.00421377 1.88671e-23)
(0.988245 -0.00308545 -3.04439e-25)
(0.99135 -0.00222681 -4.94189e-24)
(0.994097 -0.00151074 -1.91198e-24)
(0.995427 -0.00111824 -2.50225e-24)
(0.997388 -0.000675543 -3.39322e-25)
(0.0512395 -0.0812727 -1.87495e-20)
(0.0711504 -0.0932046 -1.44412e-20)
(0.0955327 -0.105595 2.7027e-20)
(0.122663 -0.11724 2.74058e-20)
(0.152446 -0.1277 -4.05873e-20)
(0.184735 -0.13654 -4.70977e-21)
(0.219446 -0.143547 2.71146e-20)
(0.256191 -0.148709 -2.19312e-20)
(0.294466 -0.151746 6.00613e-21)
(0.333834 -0.152597 5.73813e-22)
(0.373767 -0.151326 3.5806e-21)
(0.41373 -0.14806 2.60604e-21)
(0.453221 -0.143005 -2.13397e-21)
(0.491783 -0.136441 -2.66982e-22)
(0.529023 -0.128699 -7.77147e-23)
(0.56462 -0.120126 4.88942e-23)
(0.598331 -0.111065 1.59354e-21)
(0.629997 -0.101828 -3.50436e-21)
(0.659531 -0.0926833 1.55112e-21)
(0.686902 -0.0838389 -6.57424e-22)
(0.712153 -0.07547 9.32358e-22)
(0.735385 -0.0677195 -3.04712e-22)
(0.7567 -0.0606238 5.53041e-22)
(0.776208 -0.0541929 3.78371e-22)
(0.794052 -0.0484238 -1.0176e-21)
(0.810389 -0.0432938 1.80371e-22)
(0.825375 -0.0387653 -1.0364e-22)
(0.839169 -0.0347907 -2.53672e-22)
(0.851916 -0.0313175 1.78923e-22)
(0.863758 -0.02829 -4.75687e-22)
(0.874817 -0.0256559 9.29882e-22)
(0.885209 -0.0233664 -2.81244e-22)
(0.895028 -0.0213779 4.1894e-23)
(0.904375 -0.0196434 2.96959e-22)
(0.913309 -0.0181283 -5.99849e-23)
(0.92191 -0.0168127 5.02956e-23)
(0.93021 -0.015696 -2.69027e-22)
(0.938309 -0.0147446 1.05581e-22)
(0.946207 -0.0138829 -1.42342e-22)
(0.953974 -0.0129669 3.34642e-23)
(0.961443 -0.011876 -2.48664e-25)
(0.968574 -0.0105167 6.45083e-23)
(0.974994 -0.0089445 -4.54145e-23)
(0.980733 -0.0072371 2.42189e-23)
(0.985356 -0.00561319 -2.115e-23)
(0.989279 -0.00413148 -8.5248e-24)
(0.991978 -0.00299962 9.07768e-24)
(0.99446 -0.00204611 -1.66878e-24)
(0.995651 -0.00152408 4.93125e-24)
(0.997494 -0.000926687 -2.0554e-24)
(0.258897 -0.101303 2.27511e-21)
(0.278427 -0.11576 -3.47291e-21)
(0.299803 -0.130212 2.70387e-20)
(0.323757 -0.143738 1.30514e-20)
(0.349636 -0.155879 -2.42415e-20)
(0.377186 -0.166276 -3.27881e-20)
(0.406337 -0.174564 2.30377e-20)
(0.436772 -0.180467 -3.9431e-21)
(0.468054 -0.18378 -9.08504e-21)
(0.499793 -0.18446 1.4018e-20)
(0.531593 -0.182582 -4.65374e-21)
(0.563064 -0.178309 1.14418e-21)
(0.593844 -0.171904 4.73897e-21)
(0.623618 -0.163716 -2.20079e-21)
(0.652129 -0.15415 -8.84427e-23)
(0.67918 -0.14363 7.33024e-22)
(0.704637 -0.132569 -1.62929e-21)
(0.728417 -0.121338 4.66171e-22)
(0.75049 -0.110258 2.29441e-21)
(0.770858 -0.0995797 -1.87287e-21)
(0.789554 -0.0894742 2.3567e-21)
(0.806673 -0.0801135 -3.06314e-21)
(0.822321 -0.0715764 3.03874e-21)
(0.83658 -0.0638633 -1.11359e-21)
(0.849551 -0.0569615 -5.65117e-22)
(0.861357 -0.0508416 1.90519e-22)
(0.872124 -0.0454561 1.65675e-22)
(0.881979 -0.0407451 3.15299e-23)
(0.891042 -0.0366436 -9.3384e-22)
(0.89943 -0.0330819 6.29578e-23)
(0.907242 -0.029994 8.68235e-23)
(0.914575 -0.0273196 3.2415e-23)
(0.921503 -0.0250058 -6.7027e-23)
(0.928112 -0.0229955 -1.65741e-22)
(0.934449 -0.0212438 2.00126e-22)
(0.940579 -0.0197224 6.08813e-23)
(0.946515 -0.0184292 -2.8257e-23)
(0.95233 -0.0173276 -7.09871e-23)
(0.958012 -0.0163353 -1.03837e-22)
(0.963635 -0.0152866 9.84538e-23)
(0.969077 -0.0140415 -7.99308e-23)
(0.97436 -0.0124824 -5.88153e-24)
(0.979186 -0.0106684 -1.26665e-23)
(0.983628 -0.00867937 3.86097e-24)
(0.987268 -0.00677516 -8.84584e-24)
(0.990486 -0.00501934 2.62293e-23)
(0.992722 -0.00367191 4.77448e-24)
(0.994895 -0.00252188 4.74487e-25)
(0.995924 -0.00189345 -7.91696e-24)
(0.997626 -0.00116069 -5.00642e-25)
(0.465046 -0.116849 -1.82645e-20)
(0.482808 -0.134206 -7.12337e-20)
(0.501478 -0.150515 4.05648e-21)
(0.521604 -0.165389 1.86307e-20)
(0.542802 -0.17867 -9.62145e-22)
(0.564853 -0.190029 2.39893e-20)
(0.587661 -0.199027 2.27499e-20)
(0.610966 -0.205305 -2.76464e-20)
(0.63441 -0.208658 1.20715e-20)
(0.657689 -0.209046 -9.88434e-21)
(0.680557 -0.20656 1.43651e-20)
(0.702798 -0.201401 -4.54721e-21)
(0.724227 -0.193877 -8.75199e-22)
(0.7447 -0.18439 -2.16282e-22)
(0.764118 -0.173401 4.59859e-22)
(0.782424 -0.161385 -6.22719e-22)
(0.799589 -0.148803 -7.0375e-23)
(0.815608 -0.136068 -1.91016e-23)
(0.83049 -0.123526 1.25933e-21)
(0.844256 -0.111459 -7.24248e-23)
(0.856918 -0.100052 -2.0306e-22)
(0.868519 -0.0894488 -2.5778e-21)
(0.879144 -0.0797854 1.12841e-21)
(0.888842 -0.0710731 1.72648e-21)
(0.897654 -0.063287 -1.36087e-22)
(0.905647 -0.0563916 6.98113e-22)
(0.912902 -0.0503347 -4.39307e-23)
(0.919503 -0.0450492 -5.30458e-22)
(0.925534 -0.0404609 -7.12651e-22)
(0.931082 -0.0364895 7.49753e-22)
(0.936221 -0.0330578 2.70433e-22)
(0.941022 -0.0300954 -1.04392e-22)
(0.945539 -0.0275427 -1.37747e-22)
(0.949843 -0.0253344 -5.51766e-22)
(0.953969 -0.0234165 1.14806e-22)
(0.95797 -0.0217509 1.24183e-22)
(0.961844 -0.0203329 -1.99732e-22)
(0.965642 -0.019124 1.83164e-22)
(0.969339 -0.0180415 -7.82701e-23)
(0.973012 -0.0169084 4.31395e-23)
(0.976578 -0.0155738 1.10434e-22)
(0.98012 -0.0138995 -1.29419e-22)
(0.983417 -0.0119432 4.94966e-23)
(0.986592 -0.00977651 1.55783e-23)
(0.989258 -0.00768815 -6.93388e-24)
(0.991763 -0.00573881 -1.07627e-23)
(0.993525 -0.00423547 -2.26794e-23)
(0.995373 -0.00293221 1.24421e-23)
(0.996231 -0.00222195 4.03483e-24)
(0.997777 -0.00137505 -3.99669e-25)
(0.662042 -0.129587 8.87013e-20)
(0.676366 -0.14829 1.50125e-20)
(0.691766 -0.165532 5.61541e-20)
(0.707507 -0.181028 -6.27127e-20)
(0.723262 -0.194916 -3.22348e-21)
(0.739033 -0.206853 3.24969e-20)
(0.754808 -0.216227 -3.64159e-20)
(0.77036 -0.222602 1.61308e-21)
(0.785393 -0.225797 3.32697e-20)
(0.799719 -0.225823 -1.49058e-20)
(0.813267 -0.222807 8.46329e-21)
(0.826017 -0.216979 -1.60108e-20)
(0.837976 -0.208677 1.38327e-21)
(0.849178 -0.198333 -7.97784e-22)
(0.859682 -0.186433 3.76398e-21)
(0.869558 -0.17348 -8.94943e-22)
(0.878869 -0.159953 -1.97886e-22)
(0.887668 -0.14628 2.21545e-22)
(0.895985 -0.132819 4.5614e-22)
(0.903838 -0.119856 7.25637e-22)
(0.911215 -0.107603 -1.0639e-21)
(0.918089 -0.0961743 -5.66365e-22)
(0.924481 -0.0857071 -5.89765e-22)
(0.930414 -0.0762702 1.15614e-21)
(0.935868 -0.0678371 -1.02883e-22)