/*--------------------------------*- C++ -*----------------------------------*\
  =========                 |
  \\      /  F ield         | OpenFOAM: The Open Source CFD Toolbox
   \\    /   O peration     | Website:  https://openfoam.org
    \\  /    A nd           | Version:  7
     \\/     M anipulation  |
\*---------------------------------------------------------------------------*/
FoamFile
{
    version     2.0;
    format      ascii;
    class       volScalarField;
    location    "15";
    object      p;
}
// * * * * * * * * * * * * * * * * * * * * * * * * * * * * * * * * * * * * * //

dimensions      [0 2 -2 0 0 0 0];

internalField   nonuniform List<scalar> 
6050
(
-0.328629
-0.330241
-0.331807
-0.333341
-0.334847
-0.336314
-0.337705
-0.338931
-0.33986
-0.340337
-0.340011
-0.33872
-0.335756
-0.3288
-0.330407
-0.331972
-0.333508
-0.335023
-0.336508
-0.337931
-0.339207
-0.340195
-0.340788
-0.340495
-0.339409
-0.336148
-0.32912
-0.330716
-0.332273
-0.333807
-0.335331
-0.336838
-0.338307
-0.339665
-0.340724
-0.34155
-0.341208
-0.340645
-0.336706
-0.329552
-0.331122
-0.332657
-0.334175
-0.335694
-0.337209
-0.33871
-0.340156
-0.341214
-0.342429
-0.341721
-0.342167
-0.337071
-0.330046
-0.331569
-0.333058
-0.334536
-0.336022
-0.337515
-0.339
-0.340536
-0.341419
-0.34325
-0.341646
-0.343463
-0.337246
-0.331995
-0.333409
-0.334814
-0.336232
-0.337661
-0.339055
-0.340694
-0.341239
-0.343485
-0.341433
-0.343682
-0.337028
-0.33234
-0.333649
-0.334946
-0.336258
-0.337582
-0.338847
-0.340452
-0.340664
-0.343162
-0.340412
-0.342936
-0.336142
-0.332554
-0.333728
-0.334887
-0.336057
-0.337234
-0.338307
-0.339812
-0.339618
-0.342083
-0.338806
-0.340867
-0.334324
-0.332602
-0.333613
-0.334608
-0.335603
-0.336588
-0.337422
-0.338675
-0.338139
-0.339986
-0.336581
-0.337244
-0.330991
-0.332458
-0.333284
-0.334089
-0.334874
-0.335608
-0.336148
-0.336928
-0.336109
-0.33674
-0.333373
-0.332045
-0.325586
-0.332108
-0.332727
-0.333311
-0.333829
-0.334235
-0.334358
-0.334455
-0.333208
-0.332339
-0.32873
-0.325357
-0.318065
-0.331927
-0.33224
-0.332398
-0.332361
-0.331867
-0.331111
-0.329107
-0.326773
-0.322469
-0.317363
-0.308988
-0.330858
-0.330812
-0.33048
-0.329824
-0.328493
-0.326725
-0.32367
-0.320038
-0.314762
-0.308402
-0.299209
-0.329473
-0.328934
-0.327944
-0.326449
-0.32411
-0.321194
-0.316995
-0.312269
-0.306054
-0.29893
-0.289209
-0.327701
-0.326488
-0.324656
-0.32212
-0.318686
-0.314583
-0.309347
-0.30376
-0.296832
-0.289374
-0.279456
-0.323366
-0.320523
-0.316833
-0.312311
-0.30711
-0.301063
-0.294834
-0.287473
-0.280026
-0.270076
-0.319499
-0.315534
-0.310695
-0.30518
-0.29906
-0.292445
-0.285723
-0.278174
-0.270942
-0.261103
-0.309773
-0.303888
-0.297527
-0.290703
-0.283701
-0.276568
-0.269017
-0.261971
-0.25242
-0.303388
-0.296612
-0.289565
-0.282238
-0.274955
-0.267491
-0.260014
-0.252828
-0.243835
-0.289041
-0.28146
-0.273784
-0.266278
-0.258607
-0.251173
-0.243459
-0.235188
-0.281307
-0.273318
-0.265396
-0.257714
-0.249961
-0.242512
-0.234478
-0.226506
-0.265196
-0.257095
-0.249293
-0.241517
-0.233999
-0.22614
-0.218585
-0.257118
-0.248886
-0.241011
-0.233232
-0.225785
-0.218112
-0.210919
-0.240762
-0.232844
-0.225117
-0.217763
-0.210304
-0.203554
-0.224777
-0.217124
-0.209904
-0.20271
-0.196277
-0.209227
-0.202157
-0.195203
-0.189085
-0.194472
-0.18777
-0.181918
-0.180353
-0.174751
-0.180353
-0.174751
-0.194472
-0.18777
-0.181918
-0.209227
-0.202156
-0.195203
-0.189085
-0.224777
-0.217124
-0.209904
-0.20271
-0.196277
-0.240763
-0.232844
-0.225117
-0.217762
-0.210304
-0.203554
-0.257119
-0.248886
-0.241011
-0.233232
-0.225784
-0.218112
-0.210919
-0.265196
-0.257095
-0.249293
-0.241516
-0.233999
-0.22614
-0.218584
-0.281307
-0.273318
-0.265396
-0.257714
-0.249961
-0.242512
-0.234478
-0.226506
-0.289041
-0.28146
-0.273784
-0.266278
-0.258606
-0.251173
-0.243458
-0.235188
-0.303388
-0.296612
-0.289565
-0.282238
-0.274955
-0.267491
-0.260013
-0.252828
-0.243835
-0.309773
-0.303888
-0.297527
-0.290703
-0.283701
-0.276568
-0.269016
-0.26197
-0.25242
-0.3195
-0.315534
-0.310695
-0.30518
-0.29906
-0.292445
-0.285723
-0.278174
-0.270942
-0.261103
-0.323366
-0.320523
-0.316833
-0.312311
-0.30711
-0.301063
-0.294834
-0.287472
-0.280026
-0.270075
-0.327701
-0.326488
-0.324656
-0.32212
-0.318686
-0.314583
-0.309347
-0.30376
-0.296832
-0.289374
-0.279456
-0.329474
-0.328934
-0.327944
-0.326449
-0.324111
-0.321194
-0.316994
-0.312269
-0.306054
-0.298929
-0.289209
-0.330858
-0.330813
-0.33048
-0.329824
-0.328493
-0.326725
-0.32367
-0.320037
-0.314762
-0.308402
-0.299208
-0.331927
-0.33224
-0.332399
-0.332361
-0.331867
-0.331111
-0.329106
-0.326773
-0.322468
-0.317363
-0.308987
-0.332109
-0.332727
-0.333311
-0.333829
-0.334235
-0.334358
-0.334455
-0.333208
-0.332339
-0.32873
-0.325356
-0.318064
-0.332458
-0.333284
-0.33409
-0.334874
-0.335608
-0.336148
-0.336927
-0.336109
-0.33674
-0.333372
-0.332044
-0.325585
-0.332602
-0.333613
-0.334608
-0.335603
-0.336588
-0.337423
-0.338675
-0.338139
-0.339985
-0.33658
-0.337242
-0.33099
-0.332555
-0.333728
-0.334888
-0.336057
-0.337234
-0.338307
-0.339812
-0.339617
-0.342082
-0.338805
-0.340866
-0.334323
-0.33234
-0.333649
-0.334947
-0.336258
-0.337582
-0.338847
-0.340452
-0.340664
-0.343161
-0.340411
-0.342935
-0.336141
-0.331995
-0.33341
-0.334814
-0.336233
-0.337661
-0.339055
-0.340693
-0.341238
-0.343485
-0.341432
-0.343681
-0.337027
-0.330047
-0.33157
-0.333058
-0.334536
-0.336022
-0.337515
-0.339
-0.340536
-0.341419
-0.343249
-0.341645
-0.343462
-0.337245
-0.329553
-0.331123
-0.332657
-0.334175
-0.335694
-0.337209
-0.33871
-0.340156
-0.341214
-0.342429
-0.34172
-0.342166
-0.33707
-0.32912
-0.330716
-0.332273
-0.333807
-0.335331
-0.336838
-0.338307
-0.339665
-0.340724
-0.34155
-0.341207
-0.340644
-0.336705
-0.3288
-0.330408
-0.331972
-0.333509
-0.335023
-0.336508
-0.337931
-0.339207
-0.340194
-0.340788
-0.340494
-0.339408
-0.336148
-0.328629
-0.330241
-0.331808
-0.333341
-0.334848
-0.336314
-0.337705
-0.338931
-0.33986
-0.340337
-0.340011
-0.33872
-0.335756
-0.333417
-0.331313
-0.328628
-0.32524
-0.32108
-0.316027
-0.30997
-0.302803
-0.294427
-0.284766
-0.273757
-0.261365
-0.247588
-0.232468
-0.216094
-0.198608
-0.180201
-0.161116
-0.141657
-0.122152
-0.102945
-0.0843581
-0.0667153
-0.0503399
-0.0354625
-0.0222649
-0.0108565
-0.00127434
0.00651475
0.0126024
0.0171286
0.0202664
0.0222042
0.0231437
0.0232647
0.022764
0.0217744
0.0204711
0.0189188
0.0172735
0.0155262
0.0138286
0.0120921
0.0104965
0.00884217
0.00739668
0.00577841
0.00445611
0.00271269
0.00137423
-0.334396
-0.3324
-0.329821
-0.326557
-0.322503
-0.317551
-0.31159
-0.304512
-0.296215
-0.286629
-0.275684
-0.263343
-0.249603
-0.234501
-0.218127
-0.200625
-0.182192
-0.163051
-0.143524
-0.12394
-0.104607
-0.0859223
-0.0681851
-0.051702
-0.0367191
-0.0234188
-0.0119115
-0.00223517
0.0056431
0.0118145
0.0164195
0.0196309
0.0216378
0.0226421
0.0228232
0.0223767
0.0214366
0.0201775
0.0186656
0.0170553
0.0153402
0.0136692
0.0119587
0.0103826
0.00874991
0.00731771
0.00571872
0.00440354
0.00268182
0.00134446
-0.335955
-0.334134
-0.331717
-0.328653
-0.324787
-0.320017
-0.314235
-0.307336
-0.299199
-0.289765
-0.278954
-0.266726
-0.253074
-0.238036
-0.221695
-0.2042
-0.185727
-0.166457
-0.146855
-0.127152
-0.10771
-0.088871
-0.0709707
-0.0543171
-0.0391602
-0.0256856
-0.0140056
-0.00416011
0.00388299
0.0102136
0.0149718
0.0183294
0.0204753
0.021611
0.0219155
0.021582
0.0207443
0.0195773
0.0181488
0.016611
0.0149627
0.0133466
0.0116891
0.0101534
0.0085646
0.00716001
0.00559978
0.00429989
0.002621
0.00128755
-0.337807
-0.335987
-0.333688
-0.330816
-0.327174
-0.322637
-0.317097
-0.310471
-0.302414
-0.293235
-0.28263
-0.270586
-0.257094
-0.242186
-0.225943
-0.2085
-0.190055
-0.170844
-0.151189
-0.131407
-0.111848
-0.0928777
-0.0748281
-0.058005
-0.042662
-0.0289889
-0.0171004
-0.00703962
0.00122328
0.00777517
0.0127533
0.0163268
0.0186816
0.0200173
0.0205113
0.0203539
0.0196767
0.0186533
0.0173553
0.0159311
0.0143864
0.0128562
0.0112804
0.00980772
0.00828571
0.00692461
0.0054227
0.00414806
0.002532
0.00120838
-0.338671
-0.337353
-0.335054
-0.332294
-0.328869
-0.324573
-0.319272
-0.312858
-0.305207
-0.296259
-0.285915
-0.274127
-0.26088
-0.2462
-0.230164
-0.2129
-0.194596
-0.175502
-0.155923
-0.13618
-0.116623
-0.097613
-0.0794875
-0.0625526
-0.0470633
-0.0332118
-0.0211158
-0.0108226
-0.00230695
0.00451237
0.00976653
0.0136188
0.0162488
0.0178515
0.0186002
0.0186824
0.0182256
0.0173996
0.0162807
0.0150124
0.0136097
0.0121976
0.0107328
0.00934691
0.00791455
0.00661421
0.00518965
0.00395237
0.00241721
0.00111331
-0.338323
-0.337483
-0.335379
-0.332706
-0.32944
-0.325356
-0.320296
-0.314143
-0.306786
-0.298137
-0.288112
-0.276655
-0.263745
-0.249405
-0.233703
-0.216763
-0.198766
-0.179953
-0.160615
-0.141072
-0.121668
-0.102757
-0.0846755
-0.0677284
-0.0521695
-0.0381922
-0.0259177
-0.0153983
-0.00661662
0.000500109
0.006073
0.0102558
0.0132185
0.0151476
0.0162107
0.0165892
0.0164091
0.0158311
0.0149374
0.0138655
0.012641
0.0113786
0.0100527
0.00877703
0.00745577
0.00623396
0.00490431
0.00371827
0.00227965
0.00100912
-0.336545
-0.335944
-0.334198
-0.33171
-0.328559
-0.324619
-0.319761
-0.313866
-0.306812
-0.298492
-0.288824
-0.277755
-0.265265
-0.251371
-0.236138
-0.219678
-0.20216
-0.183811
-0.164903
-0.145746
-0.126673
-0.108025
-0.0901313
-0.0732932
-0.0577616
-0.0437302
-0.0313237
-0.0206014
-0.0115564
-0.00412791
0.0017914
0.00634204
0.00968122
0.0119835
0.0134085
0.0141297
0.014272
0.0139856
0.0133564
0.0125157
0.0115011
0.0104159
0.0092533
0.00810938
0.00691791
0.00579163
0.0045721
0.00345205
0.00212279
0.000901901
-0.333241
-0.33248
-0.331165
-0.329001
-0.325975
-0.32212
-0.317421
-0.311776
-0.305035
-0.297069
-0.2878
-0.277184
-0.2652
-0.251856
-0.237209
-0.221368
-0.204497
-0.186802
-0.168527
-0.149954
-0.131396
-0.113178
-0.0956202
-0.0790163
-0.0636144
-0.0496075
-0.0371245
-0.0262336
-0.0169409
-0.00920094
-0.00292318
0.00201625
0.00575925
0.00846574
0.0102855
0.0113817
0.0118781
0.0119159
0.0115819
0.0109993
0.0102189
0.00933333
0.00835356
0.00735936
0.00631268
0.00529705
0.00419989
0.00316031
0.00195043
0.000796232
-0.328214
-0.326958
-0.326079
-0.32435
-0.321477
-0.317672
-0.313115
-0.307738
-0.301341
-0.293769
-0.28495
-0.274857
-0.263468
-0.250784
-0.236851
-0.221766
-0.20568
-0.188791
-0.171327
-0.153527
-0.135663
-0.118034
-0.100948
-0.0846945
-0.0695182
-0.0556121
-0.0431106
-0.0320916
-0.022577
-0.0145387
-0.00790562
-0.00257288
0.00158443
0.00470955
0.00694147
0.00843041
0.00929925
0.0096798
0.0096619
0.00935665
0.00882728
0.00815744
0.00737469
0.00654421
0.00565339
0.00476094
0.00379537
0.00284938
0.00176636
0.000694908
-0.321035
-0.319215
-0.318881
-0.317692
-0.314999
-0.311251
-0.306867
-0.301807
-0.295804
-0.288678
-0.280377
-0.270888
-0.260187
-0.248265
-0.235158
-0.220952
-0.20578
-0.189819
-0.173281
-0.156394
-0.139373
-0.12247
-0.105974
-0.0901671
-0.0752978
-0.0615606
-0.0490957
-0.0379922
-0.0282885
-0.0199762
-0.0130042
-0.00728826
-0.00272137
0.000821759
0.00346887
0.00535585
0.00660337
0.00733337
0.00764148
0.0076255
0.00735782
0.00691407
0.00633744
0.00568072
0.00495326
0.00419376
0.00336618
0.0025249
0.00157405
0.000599099
-0.311638
-0.309359
-0.309756
-0.309207
-0.30674
-0.30311
-0.298981
-0.294307
-0.288754
-0.282131
-0.274416
-0.265606
-0.255672
-0.244594
-0.232399
-0.21916
-0.204991
-0.190043
-0.174508
-0.158597
-0.142508
-0.126429
-0.110609
-0.0953245
-0.0808257
-0.0673134
-0.0549346
-0.0437901
-0.0339349
-0.0253803
-0.0180959
-0.0120184
-0.00705863
-0.00310995
-5.6083e-05
0.00222403
0.00384752
0.0049261
0.00555962
0.00583734
0.00583704
0.00562551
0.00526004
0.00478363
0.0042241
0.00360471
0.00291927
0.00219151
0.00137641
0.000508806
-0.300661
-0.298032
-0.299224
-0.299338
-0.297166
-0.293776
-0.290016
-0.285799
-0.280738
-0.274665
-0.267588
-0.259509
-0.250386
-0.240193
-0.22895
-0.216716
-0.203585
-0.189685
-0.175179
-0.16026
-0.14512
-0.129909
-0.11482
-0.100107
-0.0860241
-0.0727799
-0.0605296
-0.0493852
-0.0394174
-0.0306568
-0.0230927
-0.0166825
-0.0113546
-0.00702082
-0.00357657
-0.000915585
0.00107484
0.00249557
0.00344956
0.00401762
0.00428528
0.00430909
0.00415714
0.00386489
0.0034757
0.00300132
0.0024605
0.00185281
0.00117569
0.000423337
-0.289654
-0.286463
-0.288203
-0.288863
-0.28701
-0.283963
-0.280655
-0.276927
-0.272373
-0.266868
-0.260449
-0.25311
-0.244797
-0.235485
-0.225185
-0.213945
-0.201836
-0.188965
-0.175471
-0.161524
-0.147302
-0.132951
-0.118609
-0.104495
-0.0908575
-0.0779132
-0.0658262
-0.0547189
-0.0446765
-0.0357472
-0.0279388
-0.0212283
-0.0155613
-0.0108674
-0.00705374
-0.00402868
-0.00168462
6.84288e-05
0.00133503
0.00218784
0.00271854
0.00297727
0.00303938
0.00293345
0.0027156
0.00238936
0.00199443
0.00151139
0.000973468
0.000341697
-0.278779
-0.27549
-0.277548
-0.278488
-0.276898
-0.274251
-0.271433
-0.268191
-0.264134
-0.259195
-0.253425
-0.246801
-0.239265
-0.230793
-0.221392
-0.211094
-0.199954
-0.188059
-0.175527
-0.162502
-0.149149
-0.135614
-0.122005
-0.108496
-0.095321
-0.0826991
-0.070803
-0.0597652
-0.0496831
-0.0406211
-0.0326034
-0.025626
-0.0196502
-0.0146228
-0.010463
-0.00709297
-0.00441102
-0.00233768
-0.000768183
0.000362436
0.00115045
0.00164
0.00191426
0.00199535
0.00194913
0.00177295
0.00152446
0.00116901
0.000770797
0.000262828
-0.268899
-0.265657
-0.267645
-0.268626
-0.267266
-0.265039
-0.262699
-0.259907
-0.256316
-0.25192
-0.246767
-0.240812
-0.234
-0.226309
-0.217741
-0.208315
-0.198073
-0.187083
-0.175444
-0.163281
-0.150738
-0.137961
-0.125049
-0.112136
-0.0994283
-0.0871438
-0.0754603
-0.0645192
-0.0544287
-0.045267
-0.0370735
-0.0298612
-0.0236065
-0.0182727
-0.0137903
-0.0100952
-0.0070921
-0.00471167
-0.00285003
-0.00144953
-0.00041056
0.000305672
0.000788237
0.00105493
0.00117985
0.00115474
0.00105286
0.000826789
0.000568296
0.000185738
-0.259658
-0.256685
-0.258895
-0.259679
-0.258356
-0.256494
-0.254594
-0.252193
-0.249027
-0.245141
-0.240557
-0.235218
-0.229072
-0.222101
-0.214298
-0.205671
-0.196253
-0.186096
-0.175281
-0.163915
-0.152124
-0.140045
-0.127786
-0.115447
-0.103204
-0.0912662
-0.0798119
-0.06899
-0.0589181
-0.0496863
-0.0413475
-0.03393
-0.0274248
-0.0218102
-0.0170283
-0.0130279
-0.00972051
-0.00704654
-0.00490399
-0.00324208
-0.00195903
-0.00102086
-0.000333594
0.00011643
0.000410747
0.000536637
0.0005811
0.000485327
0.000366283
0.000109584
-0.251328
-0.248751
-0.250911
-0.251511
-0.250181
-0.248682
-0.247167
-0.245102
-0.242332
-0.238922
-0.234859
-0.230079
-0.224541
-0.218224
-0.211115
-0.203215
-0.194544
-0.185146
-0.175085
-0.164451
-0.153353
-0.141917
-0.130259
-0.118462
-0.106673
-0.0950838
-0.0838698
-0.073185
-0.0631547
-0.053879
-0.0454226
-0.037828
-0.0310992
-0.0252289
-0.0201703
-0.0158845
-0.01229
-0.0093366
-0.00692493
-0.0050107
-0.00349094
-0.0023362
-0.00144837
-0.00081763
-0.00035563
-7.96324e-05
0.000110275
0.000144953
0.000164762
3.36571e-05
-0.243757
-0.24174
-0.243687
-0.243912
-0.24257
-0.241399
-0.240177
-0.238398
-0.236011
-0.233052
-0.229471
-0.225213
-0.220246
-0.214541
-0.208077
-0.200852
-0.192876
-0.184182
-0.17482
-0.164866
-0.154415
-0.143581
-0.13248
-0.121195
-0.109847
-0.0986079
-0.0876447
-0.077114
-0.0671472
-0.0578531
-0.0493064
-0.0415621
-0.0346363
-0.0285349
-0.0232219
-0.0186697
-0.0148047
-0.0115852
-0.00891555
-0.00675745
-0.00500776
-0.00364128
-0.00255663
-0.0017476
-0.00111959
-0.000694059
-0.000359577
-0.000194382
-3.67859e-05
-4.2903e-05
-0.237005
-0.235711
-0.23715
-0.237065
-0.236167
-0.235243
-0.234128
-0.232571
-0.230538
-0.227969
-0.224804
-0.221006
-0.216541
-0.211375
-0.205485
-0.198862
-0.191511
-0.183451
-0.174724
-0.165391
-0.155533
-0.145249
-0.13465
-0.123837
-0.112909
-0.102012
-0.0912989
-0.0809268
-0.0710311
-0.0617284
-0.0531026
-0.0452204
-0.0381093
-0.0317878
-0.0262305
-0.0214208
-0.0172931
-0.0138137
-0.0108914
-0.00849329
-0.00651721
-0.00494113
-0.00366164
-0.00267528
-0.00188238
-0.0013074
-0.000829165
-0.000532955
-0.000238767
-0.000121289
-0.231287
-0.230603
-0.230756
-0.230059
-0.229333
-0.228491
-0.227509
-0.22626
-0.224607
-0.222443
-0.219723
-0.216411
-0.212465
-0.207848
-0.202536
-0.196513
-0.189777
-0.18234
-0.174233
-0.165504
-0.156222
-0.146472
-0.136352
-0.125968
-0.115433
-0.104875
-0.0944293
-0.084244
-0.0744553
-0.0651845
-0.056523
-0.0485473
-0.0412946
-0.0347949
-0.0290324
-0.0240007
-0.0196418
-0.0159299
-0.0127783
-0.0101597
-0.00797298
-0.00620058
-0.0047361
-0.00358091
-0.00262841
-0.00190951
-0.00129065
-0.000867158
-0.000437848
-0.000201814
-0.227378
-0.228355
-0.227318
-0.226646
-0.226223
-0.225417
-0.224241
-0.222967
-0.221363
-0.219296
-0.216709
-0.213556
-0.209793
-0.205384
-0.200301
-0.194529
-0.188061
-0.18091
-0.173101
-0.164679
-0.155706
-0.146263
-0.136442
-0.126347
-0.116083
-0.105773
-0.0955482
-0.0855508
-0.0759108
-0.0667488
-0.0581546
-0.0502083
-0.0429485
-0.0364118
-0.030585
-0.0254701
-0.0210109
-0.0171907
-0.0139226
-0.0111885
-0.00888285
-0.00700003
-0.00542387
-0.00417011
-0.00311431
-0.00230717
-0.0015941
-0.00109147
-0.000569351
-0.000257904
-0.224073
-0.225543
-0.224407
-0.223726
-0.223289
-0.222554
-0.221536
-0.220312
-0.218749
-0.216733
-0.214209
-0.211133
-0.207463
-0.203162
-0.198204
-0.192573
-0.186265
-0.179288
-0.171668
-0.163447
-0.154684
-0.145456
-0.135851
-0.125968
-0.115911
-0.105799
-0.0957568
-0.0859236
-0.0764241
-0.0673766
-0.0588694
-0.0509835
-0.0437583
-0.0372333
-0.0313977
-0.0262575
-0.021759
-0.0178902
-0.0145659
-0.0117721
-0.00940369
-0.00745949
-0.00582126
-0.00450991
-0.00339577
-0.00253642
-0.0017694
-0.00121943
-0.000644552
-0.000288586
-0.220343
-0.222232
-0.221208
-0.220527
-0.220158
-0.219534
-0.218584
-0.217374
-0.215829
-0.213849
-0.211377
-0.208368
-0.204783
-0.200586
-0.195751
-0.190263
-0.184117
-0.177321
-0.1699
-0.161891
-0.153352
-0.144354
-0.134982
-0.125331
-0.115501
-0.105608
-0.0957723
-0.0861262
-0.0767899
-0.0678792
-0.0594806
-0.051675
-0.0445029
-0.0380059
-0.0321758
-0.0270223
-0.0224947
-0.0185849
-0.0152103
-0.0123608
-0.00993265
-0.00792794
-0.00622856
-0.00485849
-0.00368607
-0.00277255
-0.0019509
-0.00135095
-0.000722619
-0.000319187
-0.216667
-0.218846
-0.217989
-0.217313
-0.217004
-0.216473
-0.215575
-0.214384
-0.212863
-0.210924
-0.208507
-0.20557
-0.202074
-0.197985
-0.193278
-0.187937
-0.181957
-0.175346
-0.168125
-0.160331
-0.152018
-0.143252
-0.134115
-0.124698
-0.115098
-0.105425
-0.0957964
-0.0863385
-0.0771668
-0.0683942
-0.0601056
-0.0523817
-0.0452639
-0.0387959
-0.0329722
-0.0278057
-0.0232491
-0.0192978
-0.0158725
-0.0129662
-0.0104773
-0.00841062
-0.0066487
-0.00521821
-0.00398597
-0.00301643
-0.00213854
-0.0014867
-0.000803464
-0.000350171
-0.212921
-0.215376
-0.214723
-0.214061
-0.213787
-0.213335
-0.212501
-0.211345
-0.209859
-0.207968
-0.205614
-0.202754
-0.199351
-0.195374
-0.190797
-0.185606
-0.179794
-0.173368
-0.166349
-0.158771
-0.150684
-0.142152
-0.133251
-0.124069
-0.114699
-0.105248
-0.0958272
-0.0865586
-0.0775529
-0.0689199
-0.0607428
-0.0531023
-0.0460402
-0.0396025
-0.033786
-0.0286071
-0.0240216
-0.0200288
-0.0165522
-0.0135882
-0.0110375
-0.00890754
-0.00708165
-0.00558914
-0.00429546
-0.00326814
-0.00233236
-0.00162679
-0.000887083
-0.000381589
-0.209097
-0.211817
-0.211379
-0.210743
-0.210492
-0.210114
-0.209353
-0.208244
-0.206799
-0.204962
-0.202675
-0.199896
-0.19659
-0.192727
-0.188283
-0.183242
-0.1776
-0.171362
-0.164546
-0.157185
-0.149326
-0.141029
-0.132366
-0.123421
-0.114283
-0.105056
-0.0958461
-0.0867693
-0.0779325
-0.0694422
-0.06138
-0.0538258
-0.0468225
-0.0404177
-0.0346107
-0.0294211
-0.0248081
-0.0207744
-0.0172468
-0.014225
-0.0116119
-0.00941774
-0.00752682
-0.00597084
-0.00461433
-0.00352752
-0.00253231
-0.00177112
-0.000973472
-0.000413369
-0.205268
-0.208185
-0.207956
-0.207362
-0.20713
-0.206819
-0.206135
-0.205082
-0.203685
-0.201905
-0.199689
-0.196995
-0.193789
-0.190042
-0.185733
-0.180846
-0.175375
-0.169325
-0.162714
-0.155572
-0.147942
-0.139881
-0.131458
-0.122751
-0.113848
-0.104847
-0.0958501
-0.0869677
-0.0783025
-0.069958
-0.0620138
-0.0545493
-0.0476079
-0.0412388
-0.0354439
-0.0302456
-0.0256067
-0.0215331
-0.0179552
-0.0148754
-0.0121998
-0.00994057
-0.00798373
-0.00636291
-0.00494232
-0.00379433
-0.00273828
-0.00191955
-0.0010626
-0.000445459
-0.201442
-0.204489
-0.204462
-0.203925
-0.203711
-0.203461
-0.202855
-0.201864
-0.200522
-0.198805
-0.196663
-0.194057
-0.190954
-0.187327
-0.183155
-0.178422
-0.173123
-0.167264
-0.160858
-0.153936
-0.146536
-0.138712
-0.130529
-0.122063
-0.113396
-0.104623
-0.0958397
-0.0871536
-0.0786625
-0.0704665
-0.0626432
-0.0552714
-0.0483949
-0.0420643
-0.036284
-0.0310792
-0.026416
-0.0223036
-0.0186761
-0.0155387
-0.0128003
-0.0104754
-0.00845186
-0.00676494
-0.00527911
-0.00406832
-0.00295007
-0.00207191
-0.00115442
-0.000477824
-0.197598
-0.200738
-0.200905
-0.200438
-0.200244
-0.200049
-0.19952
-0.198598
-0.197316
-0.195665
-0.193603
-0.191089
-0.188091
-0.184586
-0.180552
-0.175976
-0.170851
-0.165182
-0.158983
-0.152279
-0.145109
-0.137523
-0.129582
-0.121357
-0.112927
-0.104382
-0.0958146
-0.0873264
-0.0790113
-0.0709661
-0.0632666
-0.0559902
-0.0491816
-0.0428923
-0.0371292
-0.0319199
-0.0272344
-0.0230846
-0.0194083
-0.0162135
-0.0134125
-0.0110213
-0.0089305
-0.00717637
-0.00562425
-0.00434913
-0.00316747
-0.00222801
-0.00124883
-0.000510428
-0.193739
-0.196945
-0.197294
-0.196908
-0.196737
-0.196591
-0.196138
-0.195289
-0.194074
-0.192494
-0.190514
-0.188095
-0.185206
-0.181825
-0.177931
-0.173512
-0.168562
-0.163084
-0.15709
-0.150606
-0.143666
-0.136318
-0.128617
-0.120633
-0.112441
-0.104125
-0.0957739
-0.0874848
-0.0793474
-0.0714551
-0.0638817
-0.0567036
-0.0499656
-0.0437204
-0.0379772
-0.0327658
-0.0280599
-0.023874
-0.0201502
-0.0168985
-0.0140351
-0.0115774
-0.00941883
-0.00759649
-0.00597722
-0.00463632
-0.00339014
-0.00238761
-0.00134571
-0.00054324
-0.189878
-0.193122
-0.193639
-0.193342
-0.193199
-0.193097
-0.192718
-0.191947
-0.190804
-0.189298
-0.187403
-0.185082
-0.182304
-0.179048
-0.175297
-0.171036
-0.16626
-0.160973
-0.155186
-0.14892
-0.142209
-0.135097
-0.127637
-0.119894
-0.111938
-0.103851
-0.0957173
-0.087628
-0.0796695
-0.0719318
-0.0644867
-0.0574093
-0.0507448
-0.0445463
-0.0388256
-0.0336145
-0.0288904
-0.0246701
-0.0209
-0.0175921
-0.0146667
-0.0121424
-0.00991583
-0.00802448
-0.00633732
-0.00492935
-0.00361771
-0.00255042
-0.00144489
-0.000576228
-0.186024
-0.189277
-0.189949
-0.189747
-0.189638
-0.189579
-0.18927
-0.188579
-0.187513
-0.186085
-0.184277
-0.182056
-0.179392
-0.176264
-0.172655
-0.168553
-0.163952
-0.158855
-0.153272
-0.147224
-0.140741
-0.133865
-0.126644
-0.11914
-0.111421
-0.103562
-0.0956443
-0.087755
-0.0799762
-0.0723944
-0.0650796
-0.0581051
-0.0515165
-0.0453674
-0.039672
-0.0344635
-0.0297234
-0.0254705
-0.0216556
-0.0182924
-0.0153058
-0.0127149
-0.0104203
-0.00845935
-0.00670376
-0.00522757
-0.00384967
-0.00271606
-0.00154616
-0.000609362
-0.182182
-0.185421
-0.186235
-0.186134
-0.186066
-0.186048
-0.185807
-0.185197
-0.18421
-0.182864
-0.181146
-0.179027
-0.176478
-0.173478
-0.170012
-0.166069
-0.161643
-0.156735
-0.151356
-0.145523
-0.139266
-0.132623
-0.12564
-0.118374
-0.110888
-0.103257
-0.0955549
-0.0878652
-0.0802663
-0.0728414
-0.0656582
-0.0587886
-0.0522783
-0.0461812
-0.0405135
-0.0353103
-0.0305564
-0.0262728
-0.0224148
-0.0189976
-0.0159505
-0.0132934
-0.0109309
-0.00889994
-0.00707557
-0.00553021
-0.00408545
-0.00288414
-0.00164924
-0.000642611
-0.178364
-0.181568
-0.182511
-0.182513
-0.182492
-0.182516
-0.18234
-0.18181
-0.180906
-0.179644
-0.178018
-0.176002
-0.17357
-0.1707
-0.167377
-0.163592
-0.159339
-0.154619
-0.149441
-0.143822
-0.137789
-0.131376
-0.124627
-0.117596
-0.110344
-0.102937
-0.0954492
-0.0879581
-0.0805388
-0.073271
-0.0662205
-0.0594574
-0.0530275
-0.0469847
-0.0413473
-0.0361517
-0.0313866
-0.0270744
-0.023175
-0.0197051
-0.0165987
-0.0138759
-0.0114461
-0.0093449
-0.00745164
-0.00583637
-0.00432433
-0.00305417
-0.00175381
-0.000675934
-0.174583
-0.177732
-0.178789
-0.178899
-0.178931
-0.178997
-0.178882
-0.178431
-0.177612
-0.176436
-0.174904
-0.172993
-0.170677
-0.167937
-0.164757
-0.161129
-0.157048
-0.152514
-0.147535
-0.142126
-0.136313
-0.130127
-0.12361
-0.116811
-0.109788
-0.102604
-0.0953273
-0.0880332
-0.0807926
-0.0736818
-0.0667645
-0.0601092
-0.0537614
-0.047775
-0.0421703
-0.0369849
-0.0322108
-0.0278722
-0.0239336
-0.0204126
-0.0172482
-0.0144606
-0.0119639
-0.00979268
-0.00783065
-0.006145
-0.00456551
-0.00322557
-0.00185948
-0.000709284
-0.170857
-0.173931
-0.175086
-0.175304
-0.175396
-0.175505
-0.175449
-0.175076
-0.174341
-0.173254
-0.171816
-0.170009
-0.16781
-0.165199
-0.162162
-0.15869
-0.154778
-0.150427
-0.145643
-0.140442
-0.134845
-0.128882
-0.122592
-0.116021
-0.109223
-0.102258
-0.09519
-0.0880905
-0.0810269
-0.0740722
-0.0672882
-0.0607413
-0.0544771
-0.048549
-0.0429793
-0.0378064
-0.0330258
-0.0286632
-0.0246874
-0.021117
-0.0178962
-0.0150449
-0.0124824
-0.0102415
-0.0082111
-0.0064549
-0.00480801
-0.00339772
-0.00196583
-0.000742592
-0.167202
-0.17018
-0.17142
-0.171744
-0.171901
-0.172055
-0.172057
-0.171758
-0.171108
-0.17011
-0.168766
-0.167064
-0.164981
-0.162499
-0.159602
-0.156284
-0.152539
-0.148367
-0.143775
-0.138776
-0.13339
-0.127645
-0.121577
-0.115229
-0.108651
-0.101901
-0.0950381
-0.08813
-0.081241
-0.0744411
-0.0677897
-0.0613514
-0.0551717
-0.0493034
-0.0437707
-0.0386126
-0.033828
-0.0294436
-0.025433
-0.0218153
-0.0185399
-0.0156263
-0.0129992
-0.0106893
-0.00859125
-0.00676467
-0.00505072
-0.00356986
-0.00207232
-0.00077577
-0.163634
-0.166502
-0.167809
-0.168238
-0.168465
-0.168666
-0.168722
-0.168495
-0.167928
-0.167019
-0.16577
-0.164172
-0.162203
-0.159847
-0.157089
-0.153922
-0.150339
-0.146343
-0.141938
-0.137135
-0.131955
-0.126422
-0.12057
-0.11444
-0.108077
-0.101536
-0.0948729
-0.0881522
-0.0814346
-0.074787
-0.068267
-0.061937
-0.0558421
-0.0500349
-0.0445409
-0.0393996
-0.0346134
-0.0302098
-0.0261667
-0.0225039
-0.019176
-0.0162017
-0.0135115
-0.0111339
-0.00896914
-0.00707275
-0.00529238
-0.00374113
-0.00217838
-0.000808698
-0.160173
-0.162916
-0.164276
-0.164806
-0.165106
-0.165356
-0.165465
-0.165306
-0.16482
-0.163998
-0.162843
-0.161347
-0.159491
-0.157258
-0.154636
-0.151615
-0.148191
-0.144365
-0.140141
-0.135529
-0.130548
-0.12522
-0.119577
-0.113657
-0.107502
-0.101164
-0.094696
-0.0881576
-0.0816075
-0.0751092
-0.0687183
-0.0624955
-0.0564854
-0.0507399
-0.045286
-0.0401635
-0.0353779
-0.0309575
-0.0268844
-0.023179
-0.0198008
-0.0167679
-0.0140165
-0.0115726
-0.00934253
-0.00737731
-0.00553153
-0.00391056
-0.00228335
-0.000841224
-0.15684
-0.159446
-0.160843
-0.161468
-0.161843
-0.162144
-0.162304
-0.16221
-0.161801
-0.161065
-0.160003
-0.158606
-0.15686
-0.154747
-0.152256
-0.149377
-0.146107
-0.142445
-0.138395
-0.133967
-0.129177
-0.124047
-0.118605
-0.112887
-0.106933
-0.10079
-0.0945095
-0.0881475
-0.0817596
-0.0754065
-0.0691419
-0.0630245
-0.0570984
-0.0514148
-0.0460019
-0.0408999
-0.0361169
-0.0316821
-0.0275816
-0.0238361
-0.0204102
-0.0173212
-0.0145107
-0.0120025
-0.00970887
-0.00767634
-0.00576652
-0.00407702
-0.00238649
-0.000873155
-0.153657
-0.156117
-0.157536
-0.158249
-0.1587
-0.159054
-0.159262
-0.159229
-0.158894
-0.158241
-0.157268
-0.155967
-0.154327
-0.15233
-0.149965
-0.147223
-0.1441
-0.140595
-0.136712
-0.13246
-0.127852
-0.122911
-0.11766
-0.112135
-0.106372
-0.100417
-0.0943159
-0.0881232
-0.0818914
-0.0756784
-0.0695362
-0.0635214
-0.0576778
-0.0520556
-0.0466842
-0.0416039
-0.0368256
-0.0323786
-0.0282534
-0.0244707
-0.0209998
-0.0178574
-0.0149904
-0.0124203
-0.0100653
-0.0079675
-0.00599549
-0.00423923
-0.00248697
-0.000904256
-0.150644
-0.152954
-0.154381
-0.155176
-0.155701
-0.156108
-0.156363
-0.156386
-0.156121
-0.155547
-0.154659
-0.153452
-0.151912
-0.150026
-0.147781
-0.145169
-0.142186
-0.13883
-0.135105
-0.131018
-0.126584
-0.12182
-0.116751
-0.111409
-0.105827
-0.100049
-0.0941184
-0.0880865
-0.0820034
-0.0759244
-0.0698996
-0.0639838
-0.0582203
-0.0526584
-0.0473284
-0.0422707
-0.0374986
-0.0330418
-0.0288945
-0.0250774
-0.0215646
-0.0183719
-0.0154514
-0.0128223
-0.0104087
-0.00824818
-0.00621636
-0.00439572
-0.00258388
-0.000934244
-0.147827
-0.149984
-0.151409
-0.152275
-0.152873
-0.153332
-0.153633
-0.153708
-0.153507
-0.153007
-0.1522
-0.151081
-0.149637
-0.147854
-0.145723
-0.143233
-0.140381
-0.137164
-0.133587
-0.129656
-0.125383
-0.120786
-0.115887
-0.110715
-0.105303
-0.099691
-0.0939205
-0.0880398
-0.0820967
-0.0761442
-0.0702307
-0.0644092
-0.0587224
-0.0532188
-0.0479296
-0.0428948
-0.0381302
-0.0336657
-0.0294989
-0.0256506
-0.0220992
-0.0188596
-0.015889
-0.0132044
-0.0107354
-0.00851545
-0.00642677
-0.00454483
-0.00267619
-0.00096279
-0.145231
-0.147237
-0.14865
-0.149579
-0.150245
-0.150755
-0.151098
-0.151223
-0.15108
-0.150648
-0.149917
-0.148879
-0.147524
-0.145838
-0.143811
-0.141435
-0.138704
-0.135617
-0.132176
-0.128388
-0.124264
-0.119821
-0.115078
-0.110063
-0.104808
-0.0993491
-0.0937264
-0.0879856
-0.0821725
-0.0763377
-0.070528
-0.064795
-0.0591805
-0.0537323
-0.0484823
-0.0434704
-0.0387141
-0.0342439
-0.0300601
-0.0261838
-0.0225973
-0.0193148
-0.0162981
-0.013562
-0.0110413
-0.00876598
-0.00662409
-0.0046847
-0.00276274
-0.00098951
-0.142883
-0.144746
-0.146138
-0.147121
-0.147852
-0.14841
-0.14879
-0.148961
-0.148871
-0.148501
-0.147838
-0.146875
-0.145601
-0.144003
-0.142071
-0.139797
-0.137176
-0.134206
-0.130889
-0.127231
-0.123242
-0.118937
-0.114336
-0.109464
-0.10435
-0.0990296
-0.0935409
-0.0879272
-0.0822322
-0.0765048
-0.0707902
-0.0651383
-0.0595906
-0.054194
-0.0489808
-0.043991
-0.0392436
-0.0347692
-0.030571
-0.0266702
-0.0230524
-0.0197312
-0.0166727
-0.0138898
-0.0113221
-0.00899607
-0.00680539
-0.00481321
-0.00284225
-0.00101397
-0.140815
-0.142544
-0.143912
-0.144941
-0.145731
-0.146339
-0.146766
-0.146964
-0.146916
-0.146598
-0.145996
-0.1451
-0.143897
-0.142376
-0.140529
-0.138346
-0.135822
-0.132955
-0.129747
-0.126203
-0.122333
-0.11815
-0.113673
-0.108927
-0.103938
-0.0987399
-0.0933695
-0.0878681
-0.0822778
-0.0766456
-0.0710155
-0.0654361
-0.0599483
-0.0545983