/*--------------------------------*- C++ -*----------------------------------*\
  =========                 |
  \\      /  F ield         | OpenFOAM: The Open Source CFD Toolbox
   \\    /   O peration     | Website:  https://openfoam.org
    \\  /    A nd           | Version:  7
     \\/     M anipulation  |
\*---------------------------------------------------------------------------*/
FoamFile
{
    version     2.0;
    format      ascii;
    class       surfaceScalarField;
    location    "15";
    object      phi;
}
// * * * * * * * * * * * * * * * * * * * * * * * * * * * * * * * * * * * * * //

dimensions      [0 3 -1 0 0 0 0];

internalField   nonuniform List<scalar> 
11919
(
-0.000846667
0.000146015
-1.77443e-09
-0.0010039
0.000157231
-2.68331e-09
-0.00117337
0.000169476
-3.75439e-09
-0.00135598
0.000182617
-4.97098e-09
-0.00155234
0.000196366
-6.29431e-09
-0.00176256
0.000210232
-7.65721e-09
-0.00198611
0.000223559
-8.9621e-09
-0.00222128
0.000235177
-1.00779e-08
-0.00246492
0.000243653
-1.08332e-08
-0.00271397
0.000249061
-1.10333e-08
-0.00295899
0.000245029
-1.052e-08
-0.00320366
0.000244683
-9.16095e-09
0.000220873
-6.74219e-09
-0.00342453
-0.000816743
0.000283651
-0.000963047
0.000303535
-0.00111841
0.000324843
-0.001283
0.000347205
-0.00145657
0.000369932
-0.00163827
0.000391934
-0.00182655
0.000411838
-0.00201869
0.000427319
-0.00220983
0.000434795
-0.00239749
0.000436717
-0.00256562
0.000413156
-0.00272677
0.000405836
0.000332221
-0.00283812
-0.000758367
0.000405048
-0.000883602
0.00042877
-0.00101193
0.000453167
-0.00114217
0.000477454
-0.00127262
0.000500378
-0.00140076
0.000520078
-0.00152332
0.000534391
-0.00163616
0.000540164
-0.00173097
0.000529606
-0.00180872
0.000514467
-0.00183914
0.000443571
-0.00185164
0.000418337
0.000257541
-0.00177696
-0.000674206
0.000503263
-0.000769605
0.000524169
-0.000859975
0.000543537
-0.000942505
0.000559983
-0.00101366
0.000571532
-0.00106899
0.000575412
-0.00110313
0.000568533
-0.00111107
0.000548098
-0.00107906
0.000497594
-0.00101561
0.000451022
-0.00087394
0.0003019
-0.000691082
0.000235478
-2.71127e-05
-0.000406428
-0.000567711
-0.000626169
0.000582627
-0.000670059
0.000587427
-0.000694844
0.000584769
-0.000695156
0.000571844
-0.000664677
0.000544932
-0.000595804
0.00049966
-0.000483276
0.00043557
-0.00031039
0.000324708
-7.74245e-05
0.000218056
0.000234399
-9.92314e-06
0.000633745
-0.000163868
-0.000540822
0.00114745
-0.000458538
0.000598606
-0.000449561
0.00057845
-0.000409451
0.000544659
-0.000331132
0.000493525
-0.000206655
0.000420455
-2.79227e-05
0.000320928
0.000216899
0.000190749
0.000536983
4.62393e-06
0.000935146
-0.000180107
0.0014469
-0.000521674
0.00203691
-0.000753881
-0.00129736
0.00279345
-0.000271108
0.000567659
-0.000204223
0.000511566
-9.36688e-05
0.000434104
6.91852e-05
0.000330671
0.000294161
0.000195479
0.000590286
2.48022e-05
0.000970163
-0.000189129
0.00144277
-0.000467984
0.00201543
-0.000752769
0.00271695
-0.00122319
0.00350257
-0.0015395
-0.00227774
0.00448294
-6.65307e-05
0.000485649
6.31556e-05
0.000381879
0.000249832
0.000247428
0.000503613
7.68906e-05
0.000836297
-0.000137205
0.00125543
-0.000394334
0.00178028
-0.000713978
0.00240735
-0.00109505
0.00315892
-0.00150435
0.00404117
-0.00210544
0.00501769
-0.00251602
-0.00343845
0.0061784
0.000155002
0.000347779
0.000353571
0.000183311
0.000623849
-2.28509e-05
0.000977314
-0.000276574
0.0014273
-0.000587195
0.00197944
-0.000946468
0.00265541
-0.00138995
0.00344115
-0.00188079
0.00436589
-0.00242909
0.0054013
-0.00314085
0.00654717
-0.00366189
-0.00470074
0.00780946
0.000396168
0.000147619
0.000671957
-9.2478e-05
0.00103597
-0.000386863
0.00150055
-0.00074115
0.00207801
-0.00116466
0.00277294
-0.0016414
0.00359807
-0.00221509
0.00453515
-0.00281786
0.00560554
-0.00349948
0.00674197
-0.00427727
0.00799384
-0.00491375
-0.0059558
0.00924889
0.000662415
0.00102625
-0.00045631
0.00149595
-0.000856566
0.00208295
-0.00132815
0.00279377
-0.00187548
0.00363064
-0.00247827
0.00458667
-0.00317111
0.00564204
-0.00387323
0.00679623
-0.00465368
0.00796086
-0.0054419
0.00920941
-0.0061623
-0.00709486
0.0103485
0.00142502
-0.000920226
0.00201092
-0.00144247
0.00272525
-0.00204247
0.00356349
-0.00271372
0.00451949
-0.00343426
0.00556405
-0.00421568
0.00667452
-0.0049837
0.00782288
-0.00580204
0.00893257
-0.00655159
0.010061
-0.0072907
-0.00804999
0.0110161
0.00187344
-0.00149414
0.00257888
-0.00214791
0.00341118
-0.00287478
0.0043509
-0.00365344
0.0053774
-0.00446076
0.00644486
-0.00528314
0.00752837
-0.00606721
0.00858263
-0.0068563
0.00956529
-0.00753425
0.0105051
-0.00823051
-0.00882356
0.0112787
0.00236815
-0.00218052
0.00318243
-0.00296219
0.00410348
-0.00379583
0.00509627
-0.00464623
0.00612628
-0.00549077
0.00714275
-0.00629961
0.00812487
-0.00704934
0.00902951
-0.00776093
0.00985282
-0.00835756
0.0106062
-0.00898393
-0.00945935
0.011242
0.00289265
0.00378661
-0.00385616
0.00474808
-0.0047573
0.00573167
-0.00562982
0.0066977
-0.00645681
0.00760496
-0.00720686
0.00844504
-0.00788942
0.00919116
-0.00850705
0.00987073
-0.00903713
0.010486
-0.00959923
-0.010011
0.0110377
0.00434419
-0.00478413
0.0052884
-0.00570151
0.00620407
-0.00654548
0.00705886
-0.00731159
0.00783194
-0.00797995
0.00853001
-0.00858748
0.00914523
-0.00912227
0.00972179
-0.0096137
0.0102489
-0.0101263
-0.0105141
0.010752
0.00480835
0.005684
-0.00657717
0.00649354
-0.00735502
0.00722109
-0.00803914
0.00786775
-0.00862661
0.00845007
-0.0091698
0.00897366
-0.00964585
0.00948367
-0.0101237
0.0099544
-0.010597
-0.0109907
0.010431
0.00592281
-0.00735258
0.00661509
-0.0080473
0.0072259
-0.00864995
0.00777141
-0.00917212
0.00826987
-0.00966826
0.00873388
-0.0101099
0.00919835
-0.0105882
0.00963027
-0.011029
-0.0114541
0.0100936
0.00601958
0.00660452
-0.00863224
0.00712164
-0.00916707
0.00759302
-0.0096435
0.00803336
-0.0101086
0.00845801
-0.0105345
0.00888547
-0.0110156
0.00928939
-0.0114329
-0.0119128
0.00974811
0.00650084
-0.00912936
0.00694794
-0.00961418
0.0073663
-0.0100619
0.00776605
-0.0105084
0.00816252
-0.010931
0.00855636
-0.0114095
0.00893271
-0.0118092
-0.0123756
0.00939554
0.00633378
0.00672978
-0.0100102
0.00710947
-0.0104415
0.00747949
-0.0108784
0.00785266
-0.0113041
0.00822105
-0.0117779
0.0085943
-0.0121825
-0.0127334
0.00895205
0.00648808
-0.0103681
0.00683792
-0.0107914
0.00718402
-0.0112245
0.00753476
-0.0116549
0.0078806
-0.0121237
0.00824304
-0.0125449
-0.0130851
0.0085948
0.00623063
0.00655585
-0.0111166
0.0068806
-0.0115492
0.00720994
-0.0119842
0.00753967
-0.0124534
0.00787736
-0.0128826
-0.0134199
0.00821209
0.00626635
0.0065708
-0.0118537
0.00688077
-0.0122942
0.0071898
-0.0127625
0.00751042
-0.0132032
-0.0137425
0.00783301
0.00625594
0.00654548
-0.0125837
0.00683647
-0.0130535
0.00713838
-0.0135051
-0.0140415
0.00743736
0.00620588
0.00647713
-0.0133247
0.00675825
-0.0137862
-0.0143225
0.00703925
0.00611291
0.00637377
-0.0140471
-0.0145814
0.0066327
0.00598301
0.00622089
0.00598301
0.0140471
0.0145814
0.00622089
0.00611291
0.0133247
0.00637377
0.0137862
0.0143225
0.0066327
0.00620588
0.0125837
0.00647713
0.0130535
0.00675825
0.0135051
0.0140414
0.00703925
0.00625593
0.0118537
0.00654548
0.0122942
0.00683647
0.0127625
0.00713837
0.0132032
0.0137425
0.00743736
0.00626634
0.0111166
0.00657079
0.0115492
0.00688077
0.0119842
0.0071898
0.0124534
0.00751042
0.0128826
0.0134199
0.00783301
0.00623063
0.0103681
0.00655584
0.0107914
0.0068806
0.0112245
0.00720994
0.0116549
0.00753966
0.0121237
0.00787736
0.0125449
0.0130851
0.00821209
0.00648808
0.0100102
0.00683791
0.0104415
0.00718401
0.0108784
0.00753476
0.0113041
0.0078806
0.0117779
0.00824304
0.0121825
0.0127334
0.0085948
0.00633378
0.00912936
0.00672978
0.00961418
0.00710947
0.0100619
0.00747949
0.0105084
0.00785266
0.010931
0.00822105
0.0114095
0.0085943
0.0118092
0.0123756
0.00895205
0.00650084
0.00863224
0.00694794
0.00916708
0.00736629
0.0096435
0.00776605
0.0101086
0.00816251
0.0105345
0.00855636
0.0110156
0.00893271
0.0114329
0.0119128
0.00939554
0.00601958
0.00735258
0.00660452
0.0080473
0.00712164
0.00864995
0.00759302
0.00917212
0.00803336
0.00966826
0.00845801
0.0101099
0.00888547
0.0105882
0.00928938
0.011029
0.0114541
0.00974811
0.00592281
0.00657717
0.00661509
0.00735502
0.0072259
0.00803915
0.00777141
0.00862661
0.00826987
0.0091698
0.00873388
0.00964585
0.00919834
0.0101237
0.00963027
0.010597
0.0109907
0.0100936
0.00480835
0.00478413
0.005684
0.00570151
0.00649354
0.00654549
0.00722109
0.0073116
0.00786775
0.00797996
0.00845007
0.00858749
0.00897365
0.00912227
0.00948367
0.0096137
0.0099544
0.0101263
0.0105141
0.010431
0.0043442
0.00385617
0.00528841
0.0047573
0.00620407
0.00562982
0.00705885
0.00645681
0.00783194
0.00720687
0.00853
0.00788942
0.00914522
0.00850705
0.00972179
0.00903713
0.0102489
0.00959923
0.010011
0.010752
0.00289265
0.00218052
0.00378662
0.0029622
0.00474808
0.00379584
0.00573167
0.00464624
0.0066977
0.00549078
0.00760495
0.00629961
0.00844504
0.00704934
0.00919115
0.00776093
0.00987073
0.00835756
0.010486
0.00898393
0.00945935
0.0110377
0.00236815
0.00149414
0.00318243
0.00214792
0.00410348
0.00287479
0.00509627
0.00365345
0.00612628
0.00446077
0.00714274
0.00528315
0.00812487
0.00606722
0.0090295
0.0068563
0.00985281
0.00753425
0.0106062
0.0082305
0.00882355
0.011242
0.00187344
0.000920231
0.00257888
0.00144248
0.00341119
0.00204248
0.0043509
0.00271373
0.0053774
0.00343427
0.00644486
0.00421569
0.00752837
0.00498371
0.00858263
0.00580204
0.00956528
0.0065516
0.0105051
0.0072907
0.00804999
0.0112786
0.00142502
0.000456315
0.00201093
0.000856572
0.00272525
0.00132816
0.00356349
0.00187549
0.00451949
0.00247828
0.00556405
0.00317112
0.00667452
0.00387324
0.00782288
0.00465369
0.00893257
0.0054419
0.010061
0.0061623
0.00709485
0.0110161
0.000662416
-0.000147616
0.00102625
9.24824e-05
0.00149595
0.000386869
0.00208295
0.000741158
0.00279377
0.00116467
0.00363064
0.00164141
0.00458666
0.0022151
0.00564204
0.00281787
0.00679623
0.00349949
0.00796086
0.00427728
0.0092094
0.00491376
0.00595579
0.0103485
0.000396168
-0.000347776
0.000671956
-0.000183306
0.00103597
2.2857e-05
0.00150054
0.000276582
0.00207801
0.000587204
0.00277294
0.000946479
0.00359807
0.00138996
0.00453514
0.0018808
0.00560554
0.0024291
0.00674196
0.00314085
0.00799383
0.00366189
0.00470074
0.00924888
0.000155002
-0.000485646
0.00035357
-0.000381875
0.000623848
-0.000247421
0.000977312
-7.68823e-05
0.0014273
0.000137215
0.00197943
0.000394346
0.00265541
0.000713991
0.00344114
0.00109506
0.00436589
0.00150436
0.00540129
0.00210545
0.00654716
0.00251602
0.00343845
0.00780945
-6.65315e-05
-0.000567656
6.31544e-05
-0.00051156
0.00024983
-0.000434097
0.00050361
-0.000330662
0.000836294
-0.000195469
0.00125543
-2.47899e-05
0.00178028
0.000189142
0.00240734
0.000467998
0.00315892
0.000752781
0.00404116
0.0012232
0.00501768
0.0015395
0.00227774
0.00617839
-0.000271109
-0.000598602
-0.000204225
-0.000578444
-9.36708e-05
-0.000544651
6.91824e-05
-0.000493516
0.000294157
-0.000420443
0.000590281
-0.000320914
0.000970157
-0.000190734
0.00144276
-4.60902e-06
0.00201542
0.000180121
0.00271694
0.000521685
0.00350256
0.000753889
0.00129737
0.00448293
-0.000458539
-0.000582623
-0.000449563
-0.00058742
-0.000409453
-0.000584761
-0.000331135
-0.000571834
-0.000206659
-0.000544919
-2.79275e-05
-0.000499645
0.000216892
-0.000435554
0.000536975
-0.000324692
0.000935137
-0.000218041
0.00144689
9.93626e-06
0.0020369
0.000163878
0.000540826
0.00279344
-0.000567711
-0.00050326
-0.00062617
-0.000524164
-0.00067006
-0.00054353
-0.000694846
-0.000559975
-0.000695159
-0.000571521
-0.00066468
-0.000575398
-0.000595808
-0.000568517
-0.000483282
-0.000548081
-0.000310398
-0.000497576
-7.74338e-05
-0.000451005
0.000234388
-0.000301885
0.000633732
-0.000235467
2.71191e-05
0.00114744
-0.000674207
-0.000405045
-0.000769606
-0.000428765
-0.000859976
-0.00045316
-0.000942506
-0.000477445
-0.00101366
-0.000500366
-0.00106899
-0.000520064
-0.00110314
-0.000534375
-0.00111107
-0.000540146
-0.00107906
-0.000529586
-0.00101562
-0.000514448
-0.000873951
-0.000443554
-0.000691094
-0.000418323
-0.000257533
-0.000406443
-0.000758367
-0.000283648
-0.000883602
-0.00030353
-0.00101193
-0.000324836
-0.00114218
-0.000347196
-0.00127262
-0.00036992
-0.00140077
-0.000391919
-0.00152332
-0.00041182
-0.00163617
-0.000427299
-0.00173098
-0.000434775
-0.00180873
-0.000436697
-0.00183915
-0.000413137
-0.00185165
-0.000405819
-0.00033221
-0.00177697
-0.000816743
-0.000146011
-0.000963047
-0.000157226
-0.00111842
-0.000169468
-0.001283
-0.000182607
-0.00145657
-0.000196353
-0.00163827
-0.000210217
-0.00182655
-0.000223541
-0.00201869
-0.000235157
-0.00220984
-0.000243631
-0.00239749
-0.00024904
-0.00256562
-0.000245008
-0.00272678
-0.000244665
-0.000220861
-0.00283813
-0.000846667
-0.0010039
-0.00117337
-0.00135598
-0.00155234
-0.00176256
-0.00198611
-0.00222128
-0.00246492
-0.00271397
-0.00295899
-0.00320367
-0.00342453
-0.00344956
2.50328e-05
-2.13603e-09
-0.00346656
1.69959e-05
-1.27532e-09
-0.00347389
7.3363e-06
-2.48259e-10
-0.00347018
-3.71388e-06
8.61979e-10
-0.00345441
-1.57674e-05
2.1219e-09
-0.0034247
-2.9717e-05
3.51139e-09
-0.00337923
-4.54773e-05
5.00272e-09
-0.00331618
-6.305e-05
6.5584e-09
-0.00323374
-8.24481e-05
8.13344e-09
-0.00313022
-0.000103532
9.71299e-09
-0.00300393
-0.000126308
1.12232e-08
-0.00285331
-0.00015063
1.2603e-08
-0.00267703
-0.000176294
1.37825e-08
-0.00247402
-0.000203019
1.46893e-08
-0.00224361
-0.000230428
1.52527e-08
-0.00198556
-0.000258068
1.54092e-08
-0.00170003
-0.000285543
1.51e-08
-0.00138814
-0.000311902
1.42851e-08
-0.00105139
-0.000336763
1.29616e-08
-0.00069191
-0.000359494
1.11352e-08
-0.00031162
-0.000380298
8.83087e-09
8.52386e-05
-0.000396865
6.15483e-09
0.000495311
-0.000410075
3.19452e-09
0.000914788
-0.000419478
6.18293e-11
0.00133947
-0.00042468
-3.02105e-09
0.00176511
-0.000425632
-6.01099e-09
0.0021876
-0.000422484
-8.71805e-09
0.00260305
-0.000415442
-1.10135e-08
0.00300804
-0.000404977
-1.27934e-08
0.00339949
-0.000391433
-1.39835e-08
0.00377508
-0.000375573
-1.45471e-08
0.00413273
-0.00035764
-1.44798e-08
0.00447143
-0.000338682
-1.38154e-08
0.00478996
-0.000318513
-1.2608e-08
0.00508844
-0.00029847
-1.09554e-08
0.00536624
-0.000277796
-8.94253e-09
0.0056245
-0.000258248
-6.71269e-09
0.00586287
-0.000238373
-4.33698e-09
0.00608325
-0.000220378
-2.0013e-09
0.00628529
-0.000202039
2.74974e-10
0.00647156
-0.000186268
2.27959e-09
0.0066412
-0.000169646
4.05787e-09
0.00679788
-0.000156688
5.43595e-09
0.00693932
-0.000141446
6.40894e-09
0.0070711
-0.000131786
7.06687e-09
0.00718832
-0.000117229
7.0344e-09
0.00729995
-0.000111631
7.12776e-09
0.0073973
-9.73551e-05
5.9738e-09
0.00749394
-9.66464e-05
5.87606e-09
-8.225e-05
3.53782e-09
-0.00285194
3.88558e-05
-0.00285952
2.45752e-05
-0.00285735
5.17119e-06
-0.00284537
-1.56995e-05
-0.00282156
-3.95732e-05
-0.00278438
-6.69041e-05
-0.00273216
-9.76951e-05
-0.00266322
-0.00013199
-0.00257577
-0.000169899
-0.0024684
-0.000210896
-0.0023395
-0.000255212
-0.00218761
-0.000302522
-0.0020115
-0.000352406
-0.00181021
-0.000404301
-0.00158314
-0.000457498
-0.00133009
-0.000511117
-0.00105142
-0.000564214
-0.000747895
-0.000615432
-0.000421321
-0.000663337
-7.34621e-05
-0.000707353
0.000291107
-0.000744867
0.000671297
-0.000777056
0.00106336
-0.000802136
0.00146326
-0.000819377
0.00186698
-0.000828402
0.00227047
-0.000829119
0.00266983
-0.000821851
0.00306142
-0.000807032
0.00344208
-0.000785627
0.00380896
-0.000758318
0.00416001
-0.000726626
0.00449339
-0.000691019
0.00480826
-0.000653545
0.00510362
-0.000613877
0.00537971
-0.000574558
0.00563607
-0.000534156
0.00587381
-0.000495993
0.00609279
-0.000457353
0.00629477
-0.000422359
0.0064796
-0.000386862
0.00664962
-0.000356286
0.00680422
-0.000324251
0.00694673
-0.000299193
0.00707523
-0.000269953
0.00719474
-0.00025129
0.00730096
-0.000223453
0.00740197
-0.000212642
0.0074901
-0.00018548
0.0075776
-0.000184151
-0.000156948
-0.00177116
3.30593e-05
-0.00176108
1.44958e-05
-0.00174396
-1.19481e-05
-0.00171767
-4.19895e-05
-0.00168063
-7.66136e-05
-0.00163154
-0.000116
-0.0015689
-0.000160329
-0.0014913
-0.000209595
-0.00139675
-0.000264452
-0.0012844
-0.000323246
-0.00115272
-0.000386892
-0.00100041
-0.000454829
-0.000826399
-0.000526417
-0.000629883
-0.000600817
-0.000410363
-0.000677018
-0.000167636
-0.000753843
9.68544e-05
-0.000828704
0.000381731
-0.000900308
0.000686643
-0.00096825
0.00100939
-0.0010301
0.00134799
-0.00108347
0.00169885
-0.00112792
0.00205859
-0.00116188
0.0024236
-0.00118439
0.0027902
-0.001195
0.0031547
-0.00119361
0.00351361
-0.00118076
0.00386369
-0.00115712
0.00420221
-0.00112415
0.00452676
-0.00108287
0.00483566
-0.00103552
0.00512742
-0.00098278
0.00540148
-0.000927609
0.00565719
-0.000869589
0.00589495
-0.000812315
0.00611457
-0.000753777
0.00631715
-0.000698569
0.0065028
-0.000643003
0.0066731
-0.000592666
0.00682821
-0.00054197
0.00697011
-0.000498178
0.0070986
-0.000452746
0.0072164
-0.000416993
0.0073223
-0.000375851
0.00742026
-0.000349255
0.00750711
-0.000310301
0.00758936
-0.000294891
0.00766109
-0.000257209
0.00773232
-0.000255385
-0.000218133
-0.000376651
3.28303e-06
-0.000345408
-1.67481e-05
-0.000309917
-4.74389e-05
-0.000266787
-8.51197e-05
-0.000214908
-0.000128492
-0.000152996
-0.000177912
-7.95727e-05
-0.000233753
6.8415e-06
-0.000296009
0.000105793
-0.000363403
0.000220188
-0.000437642
0.000351004
-0.000517707
0.000499273
-0.000603099
0.00066585
-0.000692994
0.000851317
-0.000786284
0.00105591
-0.000881611
0.00127947
-0.000977405
0.00152176
-0.00107099
0.00178208
-0.00116063
0.00205843
-0.00124459
0.00234877
-0.00132044
0.00265108
-0.00138578
0.00296231
-0.00143914
0.00327938
-0.00147895
0.00359907
-0.00150408
0.00391812
-0.00151405
0.0042333
-0.0015088
0.00454165
-0.00148911
0.00484043
-0.0014559
0.00512739
-0.00141111
0.0054006
-0.00135608
0.00565878
-0.0012937
0.00590084
-0.00122484
0.00612647
-0.00115324
0.00633531
-0.00107843
0.00652789
-0.0010049
0.0067043
-0.000930196
0.00686556
-0.000859821
0.00701204
-0.000789491
0.00714508
-0.000725706
0.00726516
-0.000662049
0.00737379
-0.000606807
0.00747129
-0.000550246
0.00755963
-0.000505328
0.00763844
-0.000454665
0.00771047
-0.000421285
0.00777384
-0.000373674
0.00783323
-0.000354282
0.00788481
-0.000308785
0.00793599
-0.000306566
-0.000262514
0.00118662
-3.58813e-05
0.0012329
-6.30264e-05
0.0012841
-9.86405e-05
0.00134071
-0.000141733
0.00140386
-0.000191641
0.00147467
-0.000248723
0.00155427
-0.000313354
0.00164369
-0.000385427
0.00174469
-0.000464401
0.00185771
-0.000550658
0.00198375
-0.000643746
0.00212365
-0.000743
0.00227808
-0.000847425
0.00244747
-0.000955672
0.00263192
-0.00106607
0.00283119
-0.00117667
0.00304504
-0.00128484
0.00327257
-0.00138816
0.00351217
-0.00148419
0.00376199
-0.00157027
0.00402004
-0.00164383
0.00428378
-0.00170289
0.0045506
-0.00174577
0.00481778
-0.00177125
0.0050826
-0.00177888
0.00534247
-0.00176866
0.00559499
-0.00174163
0.00583802
-0.00169892
0.00606983
-0.00164293
0.00628898
-0.00157522
0.00649453
-0.00149926
0.00668575
-0.00141606
0.00686248
-0.00132996
0.00702457
-0.00124052
0.00717252
-0.00115284
0.00730664
-0.00106431
0.0074277
-0.00098088
0.00753629
-0.000898086
0.00763338
-0.000822796
0.00771973
-0.0007484
0.00779631
-0.000683382
0.0078639
-0.000617835
0.00792368
-0.000565112
0.00797615
-0.000507136
0.00802283
-0.000467964
0.00806309
-0.00041393
0.00809983
-0.000391024
0.00813119
-0.000340144
0.00816219
-0.000337569
-0.000289773
0.00283451
-7.69395e-05
0.0028851
-0.000113622
0.0029421
-0.00015564
0.00300412
-0.000203752
0.00307149
-0.000259009
0.00314502
-0.000322252
0.00322543
-0.000393762
0.00331337
-0.000473369
0.00340976
-0.00056079
0.00351514
-0.000656035
0.00363016
-0.000758772
0.00375542
-0.000868259
0.00389134
-0.000983346
0.00403816
-0.0011025
0.0041959
-0.0012238
0.00436427
-0.00134504
0.00454287
-0.00146344
0.00473084
-0.00157613
0.00492686
-0.00168021
0.00512937
-0.00177277
0.00533664
-0.0018511
0.00554669
-0.00191294
0.00575749
-0.00195657
0.00596699
-0.00198075
0.00617319
-0.00198508
0.00637419
-0.00196967
0.00656832
-0.00193576
0.00675406
-0.00188467
0.00693025
-0.00181912
0.00709589
-0.00174086
0.00725038
-0.00165374
0.00739323
-0.00155891
0.00752434
-0.00146108
0.00764367
-0.00135984
0.00775151
-0.00126069
0.00784826
-0.00116106
0.00793436
-0.00106698
0.00801043
-0.000974164
0.00807702
-0.00088938
0.00813501
-0.000806394
0.0081848
-0.000733172
0.00822749
-0.000660526
0.00826352
-0.000601139
0.00829406
-0.000537672
0.00831959
-0.000493502
0.00834044
-0.000434774
0.00835808
-0.00040867
0.00837212
-0.000354181
0.0083858
-0.000351251
-0.000302091
0.004519
-0.000112994
0.00456375
-0.000158373
0.004615
-0.000206886
0.00467114
-0.000259896
0.0047321
-0.000319965
0.00479842
-0.00038858
0.00487048
-0.000465816
0.00494837
-0.000551258
0.00503229
-0.000644712
0.00512246
-0.000746208
0.00521915
-0.000855464
0.00532257
-0.000971673
0.00543281
-0.00109359
0.00554992
-0.00121961
0.00567387
-0.00134775
0.00580438
-0.00147555
0.00594099
-0.00160006
0.00608299
-0.00171813
0.00622935
-0.00182657
0.00637886
-0.00192228
0.0065302
-0.00200245
0.00668204
-0.00206477
0.00683303
-0.00210756
0.00698189
-0.00212961
0.00712743
-0.00213062
0.00726852
-0.00211076
0.00740421
-0.00207145
0.00753363
-0.00201409
0.00765612
-0.00194161
0.0077711
-0.00185584
0.00787821
-0.00176085
0.00797712
-0.00165781
0.00806769
-0.00155165
0.00814987
-0.00144203
0.0082237
-0.00133452
0.00828944
-0.0012268
0.00834721
-0.00112475
0.00839752
-0.00102447
0.00844043
-0.000932292
0.00847685
-0.000842809
0.00850659
-0.000762916
0.0085309
-0.000684836
0.00854956
-0.000619797
0.00856416
-0.000552275
0.00857445
-0.000503789
0.00858124
-0.00044156
0.00858509
-0.000412519
0.00858637
-0.000355461
0.00858731
-0.000352197
-0.000303213
0.00620017
-0.000134768
0.00622946
-0.000187661
0.00626443
-0.000241852
0.00630349
-0.000298959
0.00634675
-0.000363222
0.00639474
-0.000436571
0.00644751
-0.000518587
0.00650471
-0.00060846
0.00656607
-0.000706074
0.00663148
-0.000811619
0.00670086
-0.000924841
0.00677404
-0.00104485
0.00685079
-0.00117034
0.00693084
-0.00129966
0.00701389
-0.0014308
0.00709964
-0.00156131
0.00718788
-0.00168829
0.00727823
-0.00180848
0.00737006
-0.0019184
0.0074626
-0.00201482
0.00755508
-0.00209493
0.0076468
-0.00215648
0.00773714
-0.0021979
0.00782562
-0.00221809
0.0079118
-0.0022168
0.0079953
-0.00219426
0.00807578
-0.00215192
0.00815292
-0.00209123
0.00822646
-0.00201515
0.0082961
-0.00192549
0.00836159
-0.00182634
0.00842266
-0.00171889
0.00847906
-0.00160805
0.00853061
-0.00149357
0.00857704
-0.00138095
0.00861844
-0.0012682
0.00865456
-0.00116086
0.00868573
-0.00105565
0.00871159
-0.000958146
0.00873292
-0.000864137
0.00874908
-0.000779079
0.00876128
-0.00069704
0.0087688
-0.000627317
0.00877339
-0.000556858
0.00877433
-0.000504736
0.00877256
-0.000439781
0.00876816
-0.000408125
0.00876164
-0.000348939
0.00875488
-0.000345442
-0.00029742
0.00780804
-0.000133344
0.00781359
-0.000193216
0.00782373
-0.000251988
0.00783679
-0.000312019
0.0078533
-0.000379734
0.00787382
-0.000457088
0.00789804
-0.000542809
0.00792528
-0.000635694
0.00795501
-0.000735805
0.00798692
-0.000843535
0.00802069
-0.000958607
0.00805588
-0.00108004
0.00809204
-0.0012065
0.00812878
-0.00133639
0.00816572
-0.00146775
0.00820253
-0.00159811
0.00823895
-0.00172471
0.00827491
-0.00184444
0.00831054
-0.00195403
0.00834571
-0.00204999
0.00838024
-0.00212946
0.00841403
-0.00219027
0.00844714
-0.00223101
0.00847973
-0.00225068
0.00851201
-0.00224908
0.00854416
-0.00222641
0.00857631
-0.00218407
0.00860848
-0.00212341
0.00864063
-0.0020473
0.00867259
-0.00195745
0.00870409
-0.00185783
0.0087348
-0.0017496
0.00876428
-0.00163753
0.0087922
-0.00152149
0.00881799
-0.00140675
0.00884151
-0.00129172
0.00886215
-0.00118151
0.00888012
-0.00107361
0.00889466
-0.000972692
0.00890642
-0.000875892
0.00891441
-0.000787075
0.00891972
-0.000702345
0.00892129
-0.000628888
0.00892079
-0.000556362
0.00891738
-0.000501323
0.00891173
-0.000434132
0.00890391
-0.000400303
0.00889403
-0.000339063
0.00888412
-0.000335536
-0.000288738
0.00922221
-0.000106667
0.00920136
-0.000172357
0.00918368
-0.00023431
0.00916756
-0.000295903
0.00915398
-0.000366158
0.00914338
-0.000446483
0.00913509
-0.000534524
0.00912826
-0.000628856
0.00912232
-0.00072987
0.00911692
-0.000838138
0.0091116
-0.000953286
0.00910581
-0.00107425
0.00909907
-0.00119976
0.00909099
-0.00132831
0.00908128
-0.00145803
0.00906974
-0.00158657
0.00905631
-0.00171128
0.00904113
-0.00182926
0.0090246
-0.0019375
0.00900747
-0.00203286
0.00899024
-0.00211224
0.00897339
-0.00217342
0.00895747
-0.00221508
0.00894311
-0.00223632
0.00893095
-0.00223692
0.00892151
-0.00221697
0.00891517
-0.00217772
0.00891211
-0.00212035
0.00891233
-0.00204753
0.00891567
-0.00196079
0.00892174
-0.0018639
0.0089301
-0.00175797
0.00894012
-0.00164754
0.00895127
-0.00153264
0.00896276
-0.00141824
0.00897423
-0.00130319
0.00898483
-0.00119211
0.00899454
-0.00108332
0.00900246
-0.000980608
0.009009
-0.000882437
0.00901302
-0.000791098
0.0090154
-0.000704718
0.00901494
-0.000628427
0.00901308
-0.000554505
0.00900905
-0.00049729
0.0090031
-0.000428188
0.00899554
-0.000392734
0.00898583
-0.000329359
0.00897639
-0.000326097
-0.000280492
0.0103043
-6.25418e-05
0.0102627
-0.000130715
0.0102222
-0.00019381
0.0101817
-0.000255439
0.0101426
-0.000327022
0.010105
-0.000408828
0.0100679
-0.000497462
0.0100306
-0.000591556
0.00999264
-0.00069192
0.00995371
-0.000799209
0.00991333
-0.000912905
0.009871
-0.00103192
0.00982633
-0.0011551
0.0097791
-0.00128109
0.00972919
-0.00140812
0.00967662
-0.00153401
0.00962161
-0.00165628
0.00956463
-0.00177227
0.0095063
-0.00187917
0.00944767
-0.00197423
0.00938998
-0.00205455
0.0093342
-0.00211764
0.00928124
-0.00216213
0.00923201
-0.00218709
0.00918736
-0.00219227
0.00914796
-0.00217756
0.00911426
-0.00214403
0.0090865
-0.00209258
0.00906461
-0.00202565
0.00904838
-0.00194455
0.00903729
-0.00185281
0.0090308
-0.00175147
0.0090281
-0.00164484
0.00902853
-0.00153308
0.00903114
-0.00142085
0.00903543
-0.00130747
0.00904037
-0.00119705
0.00904579
-0.00108874
0.00905066
-0.000985487
0.00905528
-0.000887054
0.00905841
-0.000794229
0.00906071
-0.000707016
0.009061
-0.000628719
0.00906041
-0.000553915
0.00905836
-0.000495243
0.00905464
-0.000424464
0.00904989
-0.000387983
0.00904292
-0.000322389
0.00903657
-0.000319743
-0.000275186
0.0109685
-1.49055e-05
0.010918
-8.02697e-05
0.0108659
-0.000141639
0.0108121
-0.000201636
0.010758
-0.000272979
0.0107036
-0.000354395
0.0106478
-0.000441712
0.0105902
-0.000533896
0.0105304
-0.000632156
0.0104683
-0.000737093
0.0104034
-0.00084802
0.0103354
-0.000963904
0.0102641
-0.00108377
0.0101894
-0.0012064
0.0101114
-0.00133016
0.0100304
-0.00145304
0.00994695
-0.00157279
0.00986164
-0.00168696
0.00977546
-0.00179299
0.00968949
-0.00188826
0.00960527
-0.00197033
0.00952421
-0.00203658
0.00944748
-0.0020854
0.00937612
-0.00211574
0.00931107
-0.00212721
0.00925302
-0.00211952
0.00920246
-0.00209346
0.00915957
-0.00204969
0.00912426
-0.00199034
0.00909625
-0.00191654
0.00907496
-0.00183152
0.00905978
-0.00173629
0.00904981
-0.00163487
0.00904433
-0.0015276
0.0090423
-0.00141883
0.00904313
-0.00130829
0.00904575
-0.00119967
0.00904983
-0.00109282
0.00905432
-0.000989984
0.00905937
-0.000892099
0.00906379
-0.00079865
0.009068
-0.000711231
0.00907095
-0.000631667
0.00907342
-0.000556379
0.00907508
-0.000496908
0.00907527
-0.000424652
0.00907502
-0.000387731
0.00907253
-0.000319905
0.00907104
-0.000318252
-0.000274579
0.0112309
3.28802e-05
0.0111841
-3.35065e-05
0.0111317
-8.92422e-05
0.0110764
-0.000146307
0.0110193
-0.000215892
0.0109599
-0.000295006
0.0108974
-0.0003792
0.0108315
-0.000467998
0.0107622
-0.000562903
0.0106894
-0.000664304
0.0106128
-0.000771374
0.0105321
-0.000883218
0.0104474
-0.000999045
0.0103588
-0.00111776
0.0102665
-0.00123786
0.010171
-0.00135754
0.0100729
-0.00147476
0.00997322
-0.00158725
0.00987294
-0.00169271
0.0097733
-0.00178861
0.00967576
-0.00187279
0.00958196
-0.00194278
0.00949324
-0.00199668
0.00941076
-0.00203325
0.00933545
-0.0020519
0.00926803
-0.00205211
0.00920898
-0.00203441
0.00915849
-0.0019992
0.00911646
-0.00194831
0.00908259
-0.00188267
0.00905632
-0.00180525
0.00903702
-0.00171699
0.0090238
-0.00162166
0.00901593
-0.00151973
0.00901237
-0.00141527
0.00901247
-0.00130839
0.00901516
-0.00120236
0.00902003
-0.00109769
0.00902606
-0.000996017
0.00903323
-0.000899266
0.00904046
-0.00080588
0.00904797
-0.000718742
0.00905486
-0.000638559
0.00906159
-0.00056311
0.0090681
-0.00050341
0.00907331
-0.000429869
0.00907862
-0.000393036
0.00908178
-0.000323068
0.00908631
-0.000322778
-0.000279851
0.0112007
7.42658e-05
0.0111622
4.95315e-06
0.0111162
-4.32177e-05
0.0110666
-9.67839e-05
0.011014
-0.000163265
0.0109576
-0.000238624
0.0108969
-0.000318446
0.0108318
-0.000402918
0.0107626
-0.000493666
0.010689
-0.000590738
0.0106109
-0.000693238
0.0105281
-0.000800479
0.0104409
-0.000911822
0.0103494
-0.00102627
0.010254
-0.00114245
0.0101552
-0.00125876
0.0100538
-0.00137337
0.00995077
-0.00148419
0.00984714
-0.00158909
0.00974425
-0.00168573
0.00964342
-0.00177196
0.00954629
-0.00184564
0.00945429
-0.00190469
0.00936865
-0.00194761
0.00929034
-0.00197359
0.00922011
-0.00198188
0.00915844
-0.00197273
0.00910556
-0.00194632
0.00906143
-0.00190418
0.0090258
-0.00184704
0.00899817
-0.00177762
0.00897795
-0.00169677
0.00896433
-0.00160803
0.00895656
-0.00151197
0.00895368
-0.00141239
0.008955
-0.00130971
0.00895951
-0.00120686
0.00896671
-0.00110489
0.00897566
-0.00100496
0.00898618
-0.000909787
0.00899732
-0.000817019
0.0090091
-0.000730525
0.00902082
-0.000650282
0.00903265
-0.000574943
0.00904474
-0.000515493
0.00905574
-0.00044087
0.00906727
-0.000404571
0.00907685
-0.000332642
0.00908813
-0.000334066
-0.000291782
0.0110059
0.000106111
0.0109693
4.15406e-05
0.0109314
-5.34442e-06
0.0108894
-5.47728e-05
0.0108441
-0.000117939
0.0107943
-0.000188863
0.0107395
-0.000263638
0.01068
-0.00034339
0.0106159
-0.000429623
0.0105471
-0.000521963
0.0104735
-0.000619584
0.010395
-0.000722021
0.0103119
-0.000828725
0.0102244
-0.000938763