/*--------------------------------*- C++ -*----------------------------------*\
  =========                 |
  \\      /  F ield         | OpenFOAM: The Open Source CFD Toolbox
   \\    /   O peration     | Website:  https://openfoam.org
    \\  /    A nd           | Version:  7
     \\/     M anipulation  |
\*---------------------------------------------------------------------------*/
FoamFile
{
    version     2.0;
    format      ascii;
    class       volVectorField;
    location    "15";
    object      U;
}
// * * * * * * * * * * * * * * * * * * * * * * * * * * * * * * * * * * * * * //

dimensions      [0 1 -1 0 0 0 0];

internalField   nonuniform List<vector> 
6050
(
(-0.18172 0.00469597 3.58348e-20)
(-0.200447 0.00466279 -4.92171e-20)
(-0.218275 0.00467219 2.88226e-20)
(-0.235422 0.00470971 1.50969e-20)
(-0.252014 0.0047561 5.50115e-21)
(-0.268087 0.00478658 -1.79716e-20)
(-0.28359 0.00477313 -1.03072e-20)
(-0.298335 0.0046733 -6.81646e-21)
(-0.312021 0.0044427 2.85016e-20)
(-0.324382 0.00410174 -3.3776e-20)
(-0.334661 0.0034591 -7.27596e-21)
(-0.342822 0.00298868 8.45121e-21)
(-0.347099 0.00190002 -2.38212e-20)
(-0.176763 0.013931 -1.56221e-19)
(-0.193899 0.0138019 9.56547e-20)
(-0.209823 0.0137944 -7.4936e-20)
(-0.224706 0.0138653 8.96892e-21)
(-0.238622 0.0139577 -4.38487e-20)
(-0.251555 0.0139985 1.601e-20)
(-0.263411 0.0139067 3.23359e-20)
(-0.273967 0.0135605 5.43158e-20)
(-0.282838 0.0128068 3.29158e-20)
(-0.289918 0.0117868 9.22903e-20)
(-0.293925 0.0096924 8.83114e-21)
(-0.295874 0.00844195 -7.64762e-20)
(-0.291345 0.00473862 5.71286e-20)
(-0.167025 0.0227069 1.32087e-20)
(-0.18107 0.022398 -3.69343e-20)
(-0.193322 0.0222726 7.38194e-20)
(-0.203865 0.0222595 -2.30199e-20)
(-0.212693 0.0222667 2.64482e-20)
(-0.219704 0.0221765 -2.68329e-20)
(-0.224744 0.0218639 -5.15686e-20)
(-0.227565 0.0211525 -5.99753e-20)
(-0.227552 0.0196999 -7.36963e-20)
(-0.225268 0.0180722 -1.50188e-19)
(-0.217685 0.0140119 5.64211e-20)
(-0.209516 0.0124786 4.77566e-20)
(-0.188799 0.00527381 1.49762e-19)
(-0.152826 0.030746 -1.13344e-20)
(-0.162442 0.0301306 -3.52108e-21)
(-0.169483 0.0297362 -2.13308e-19)
(-0.173937 0.0294653 -1.01494e-19)
(-0.175712 0.0291946 4.75926e-20)
(-0.174615 0.028768 5.9139e-21)
(-0.170428 0.0280282 4.72037e-20)
(-0.163012 0.0268097 -1.42702e-19)
(-0.151091 0.0243952 5.60052e-20)
(-0.137294 0.0223337 8.23873e-20)
(-0.113912 0.0157558 9.66102e-20)
(-0.0948383 0.0140983 -5.16826e-20)
(-0.0524059 0.00366729 -1.21192e-19)
(-0.134566 0.0378086 -8.70988e-21)
(-0.138608 0.0367346 -3.2556e-21)
(-0.139167 0.035893 4.35482e-20)
(-0.136149 0.0351628 6.40954e-20)
(-0.129392 0.0343939 -1.73705e-19)
(-0.118639 0.0334013 2.11452e-19)
(-0.103583 0.0320057 1.08531e-19)
(-0.0845211 0.0301201 1.69296e-19)
(-0.0585536 0.0265509 -4.33042e-21)
(-0.0329055 0.0237822 -4.0771e-20)
(0.00936375 0.0156791 3.99042e-21)
(0.0379295 0.0119776 -6.28426e-20)
(0.105899 0.000709589 -1.12998e-19)
(-0.110142 0.0420129 1.61484e-20)
(-0.103178 0.0405458 4.47922e-20)
(-0.0916026 0.0391616 3.56649e-19)
(-0.075217 0.0376883 -2.08709e-21)
(-0.0537395 0.0359254 1.2662e-19)
(-0.0266991 0.0337177 -3.10791e-19)
(0.00468584 0.0308313 4.02345e-20)
(0.0461601 0.0263431 -6.43947e-20)
(0.0831171 0.0221095 -5.19026e-20)
(0.147409 0.0137683 4.89305e-20)
(0.181007 0.00664632 -1.09344e-19)
(0.279803 -0.00408039 1.11398e-19)
(-0.0774564 0.0458421 -2.3356e-19)
(-0.0620439 0.0436011 2.75417e-20)
(-0.0409602 0.0414122 -7.325e-20)
(-0.0139891 0.0390886 1.15313e-19)
(0.0191365 0.0364113 -3.61738e-21)
(0.0590843 0.0333612 -1.07875e-19)
(0.103272 0.0291238 2.83399e-19)
(0.16188 0.0243598 -1.10271e-19)
(0.208344 0.0177699 -9.42793e-20)
(0.298515 0.0101438 1.47065e-19)
(0.332873 2.52721e-05 5.55727e-20)
(0.464769 -0.0105101 2.43049e-19)
(-0.0406538 0.0481772 7.09798e-19)
(-0.0158131 0.0450746 9.22442e-21)
(0.015829 0.0420145 -4.57232e-19)
(0.0544927 0.0388059 -4.77895e-20)
(0.100395 0.0351702 -4.47712e-19)
(0.15444 0.0314811 2.12772e-19)
(0.212271 0.0256556 -1.58513e-19)
(0.289078 0.0215296 1.66214e-19)
(0.345358 0.011901 2.33858e-19)
(0.460585 0.0062332 9.19151e-20)
(0.496222 -0.00635209 -2.58139e-19)
(0.656381 -0.0164107 -2.26678e-19)
(0.000609909 0.0490583 -5.82167e-19)
(0.0361157 0.0451023 -1.67304e-19)
(0.0797024 0.0412311 1.05375e-19)
(0.13157 0.0372698 1.94286e-19)
(0.191839 0.0328137 -5.89264e-20)
(0.261288 0.028928 2.28914e-19)
(0.334664 0.0216572 1.32881e-20)
(0.428267 0.0187655 -2.50009e-19)
(0.498223 0.00689052 1.83065e-20)
(0.629896 0.00327445 -3.56601e-19)
(0.672111 -0.0107359 6.64747e-20)
(0.846101 -0.0191003 -1.42128e-19)
(0.0472337 0.0486261 2.70182e-19)
(0.0950794 0.0439627 -2.23036e-19)
(0.152482 0.0395126 3.48114e-19)
(0.219515 0.0351416 3.42696e-19)
(0.296068 0.0302998 4.43144e-19)
(0.381853 0.0266422 -4.24499e-19)
(0.472739 0.0190108 3.87811e-20)
(0.578864 0.0169866 3.68418e-19)
(0.666168 0.00505389 -1.30564e-19)
(0.799806 0.00288418 2.10246e-21)
(0.853745 -0.0114846 -1.43773e-20)
(1.01916 -0.0172079 1.80529e-19)
(0.100721 0.0471528 -2.9602e-19)
(0.163094 0.0421149 -4.73554e-20)
(0.236586 0.0375386 -1.51151e-19)
(0.320867 0.0333246 -1.00778e-19)
(0.415121 0.0288774 -2.38801e-19)
(0.51714 0.025789 -1.19523e-19)
(0.624613 0.0193391 4.53155e-20)
(0.73765 0.0176411 -2.3645e-19)
(0.839146 0.00748924 2.58816e-20)
(0.960583 0.00602705 1.47943e-20)
(1.02422 -0.00785903 -1.78071e-19)
(1.15867 -0.0114239 1.20524e-19)
(0.24256 0.0402409 -1.54964e-19)
(0.334354 0.0362374 4.85789e-19)
(0.43722 0.0329426 -5.49474e-19)
(0.548701 0.0298121 -4.9611e-19)
(0.66472 0.0277457 6.90652e-19)
(0.782749 0.0233754 -1.5076e-19)
(0.896302 0.021942 7.40638e-20)
(1.0002 0.0139154 1.05672e-19)
(1.10018 0.0123805 -9.57788e-20)
(1.16278 -0.000830937 2.6111e-19)
(1.25383 -0.00384841 3.27367e-19)
(0.335627 0.0392593 2.45159e-19)
(0.446943 0.0367248 -2.77172e-19)
(0.56764 0.0351794 -1.18202e-19)
(0.692728 0.034072 3.87186e-19)
(0.816892 0.0334106 -5.05794e-19)
(0.935381 0.0310064 -2.81383e-20)
(1.04118 0.0296979 2.09054e-19)
(1.13297 0.0228899 -8.4007e-20)
(1.20725 0.020496 -1.09413e-19)
(1.25649 0.00734028 1.37688e-20)
(1.30613 0.00363553 -1.47915e-19)
(0.44321 0.0402541 -5.12369e-19)
(0.572999 0.0400988 3.03042e-19)
(0.707368 0.0409029 1.74277e-19)
(0.838857 0.042 -2.2651e-19)
(0.961584 0.0425196 3.57753e-19)
(1.06945 0.041248 2.77573e-19)
(1.15846 0.039265 -7.15285e-20)
(1.22833 0.0324757 2.90248e-21)
(1.27674 0.028474 -1.05188e-20)
(1.30729 0.014722 -3.54835e-19)
(1.32702 0.00996618 -4.94674e-19)
(0.563842 0.0442637 2.07773e-19)
(0.707637 0.0470712 -1.74139e-19)
(0.847792 0.0502359 1.23629e-19)
(0.975754 0.0529689 1.06159e-19)
(1.08628 0.0537126 -8.17012e-20)
(1.17465 0.0523556 1.92925e-19)
(1.24106 0.0486048 -2.15061e-19)
(1.28668 0.0411094 2.56828e-19)
(1.31334 0.0349953 5.04635e-19)
(1.32794 0.0207314 2.51724e-19)
(1.33071 0.0152564 3.98936e-19)
(0.842579 0.0575787 2.31804e-20)
(0.978236 0.0623424 6.8429e-20)
(1.0925 0.0654439 -1.16878e-19)
(1.18258 0.0651667 -2.96862e-19)
(1.24737 0.0625625 -6.54318e-21)
(1.29098 0.0564196 3.61423e-19)
(1.31609 0.0481499 -3.04855e-19)
(1.32784 0.0398738 -6.97482e-19)
(1.33217 0.0257621 -5.19354e-19)
(1.32677 0.0198478 1.95747e-19)
(0.967973 0.0706495 -5.04256e-19)
(1.08916 0.0756459 3.83556e-19)
(1.18243 0.0776368 5.04305e-20)
(1.24884 0.0753962 1.31664e-19)
(1.29127 0.0709003 -2.90318e-19)
(1.31626 0.0624987 -8.38759e-20)
(1.32712 0.0538085 -7.83631e-20)
(1.33032 0.0435431 8.49731e-20)
(1.32874 0.0304468 3.04534e-19)
(1.32002 0.0239667 -6.45244e-19)
(1.17522 0.0884699 -1.80321e-19)
(1.24494 0.088274 4.98299e-20)
(1.28933 0.083762 -2.83246e-19)
(1.31398 0.0773364 -2.38159e-20)
(1.32594 0.0673315 5.80054e-20)
(1.32814 0.0585231 -4.19451e-20)
(1.32693 0.0465349 5.82835e-19)
(1.32183 0.0352743 1.05869e-20)
(1.31247 0.0274565 6.05609e-19)
(1.23627 0.0996884 -6.80999e-20)
(1.28419 0.0969274 -2.39916e-19)
(1.31097 0.0903737 -4.33607e-19)
(1.32311 0.0823504 -1.21306e-20)
(1.32683 0.0714971 -1.98888e-19)
(1.32421 0.062564 1.72197e-19)
(1.32073 0.049364 -8.81128e-20)
(1.31332 0.0404871 -6.71101e-19)
(1.30506 0.0300396 -2.62131e-19)
(1.30617 0.103804 3.58392e-19)
(1.32027 0.0956659 5.47049e-19)
(1.32432 0.0864918 -9.20619e-20)
(1.32313 0.075342 1.33238e-19)
(1.31802 0.0660878 -4.87802e-20)
(1.31323 0.0525792 3.01562e-19)
(1.30424 0.0458679 1.49269e-19)
(1.29808 0.0312498 1.71996e-19)
(1.31648 0.109353 3.5277e-20)
(1.32207 0.100088 1.50671e-19)
(1.32118 0.0901754 -2.82977e-20)
(1.3172 0.0789874 2.68038e-19)
(1.31088 0.0693428 2.90592e-20)
(1.30522 0.0564931 -6.99291e-19)
(1.29561 0.0503297 3.12361e-19)
(1.29103 0.0305253 -2.88943e-19)
(1.31958 0.104002 -5.84628e-20)
(1.3158 0.0936473 -6.29559e-20)
(1.31027 0.0824905 -4.61765e-20)
(1.30339 0.0726514 2.70791e-19)
(1.29709 0.0606551 2.05954e-19)
(1.28782 0.0526607 6.41769e-20)
(1.28299 0.0396488 1.80605e-19)
(1.31474 0.107638 -6.14182e-20)
(1.3093 0.0970144 -2.40517e-20)
(1.30294 0.0859374 2.19937e-19)
(1.29578 0.0760906 -1.1593e-19)
(1.28914 0.0641205 -1.34505e-19)
(1.28009 0.0574508 -3.08373e-19)
(1.275 0.0429093 -2.0638e-19)
(1.30229 0.100348 1.23288e-20)
(1.29546 0.0893965 -2.8415e-19)
(1.28819 0.0793381 6.99068e-20)
(1.28131 0.0681869 -1.3707e-19)
(1.27255 0.0604583 -5.20649e-19)
(1.26766 0.0475958 2.73258e-19)
(1.28797 0.0927781 1.53098e-19)
(1.28065 0.0827481 -3.70285e-20)
(1.27362 0.0716495 4.57522e-19)
(1.26526 0.0641737 4.39104e-19)
(1.26011 0.0515669 1.81898e-19)
(1.27315 0.0859728 -8.85747e-21)
(1.26606 0.0753025 -3.11755e-19)
(1.25802 0.067335 -1.19282e-19)
(1.25282 0.0552039 -1.73816e-19)
(1.25859 0.0786558 -2.16556e-20)
(1.25089 0.0704983 2.85775e-19)
(1.2455 0.0587692 3.11043e-19)
(1.24377 0.0734792 -1.68629e-19)
(1.23826 0.0620051 -6.45053e-20)
(1.24377 -0.0734791 -5.96848e-20)
(1.23826 -0.0620051 -4.35207e-19)
(1.25859 -0.0786557 1.40973e-19)
(1.25089 -0.0704982 3.09986e-19)
(1.2455 -0.0587692 1.66672e-19)
(1.27315 -0.0859726 1.81433e-19)
(1.26606 -0.0753024 -1.51203e-19)
(1.25802 -0.067335 -2.51118e-19)
(1.25282 -0.0552039 4.09919e-20)
(1.28797 -0.0927779 -3.92626e-19)
(1.28065 -0.0827479 -5.71773e-21)
(1.27362 -0.0716494 5.13999e-19)
(1.26526 -0.0641736 2.10432e-19)
(1.26011 -0.0515669 1.7872e-19)
(1.30229 -0.100348 -9.71262e-20)
(1.29546 -0.0893963 6.00027e-20)
(1.28819 -0.079338 -5.55698e-20)
(1.28131 -0.0681868 5.81433e-20)
(1.27255 -0.0604582 -3.22746e-19)
(1.26766 -0.0475957 1.8334e-19)
(1.31474 -0.107638 7.67904e-21)
(1.3093 -0.0970142 1.79267e-19)
(1.30294 -0.0859372 8.44762e-20)
(1.29578 -0.0760905 -2.10133e-19)
(1.28914 -0.0641204 -4.14528e-20)
(1.28009 -0.0574508 -2.13537e-20)
(1.275 -0.0429092 -3.24573e-19)
(1.31958 -0.104001 -2.32738e-20)
(1.3158 -0.093647 1.21944e-20)
(1.31027 -0.0824902 -1.16055e-19)
(1.30339 -0.0726512 1.0702e-19)
(1.29709 -0.0606549 8.21448e-20)
(1.28782 -0.0526606 -7.44429e-21)
(1.28299 -0.0396488 2.54534e-19)
(1.31648 -0.109353 -2.13348e-19)
(1.32207 -0.100088 -3.34517e-19)
(1.32118 -0.0901751 2.67887e-19)
(1.3172 -0.0789872 1.75473e-19)
(1.31088 -0.0693426 -7.8608e-20)
(1.30522 -0.056493 -6.51246e-19)
(1.29561 -0.0503296 6.47363e-20)
(1.29103 -0.0305253 3.78945e-20)
(1.30617 -0.103804 4.19358e-19)
(1.32027 -0.0956656 4.44208e-19)
(1.32432 -0.0864915 -1.46257e-19)
(1.32313 -0.0753418 3.76533e-20)
(1.31802 -0.0660876 1.12125e-19)
(1.31323 -0.052579 1.03337e-19)
(1.30424 -0.0458678 3.16075e-19)
(1.29808 -0.0312498 1.21293e-19)
(1.23627 -0.099688 -1.16958e-19)
(1.28419 -0.096927 -1.92179e-19)
(1.31097 -0.0903733 -2.98722e-19)
(1.32311 -0.0823501 7.09426e-20)
(1.32683 -0.0714968 -2.75452e-19)
(1.32421 -0.0625637 -9.20948e-21)
(1.32073 -0.0493639 -2.26571e-19)
(1.31332 -0.0404871 -3.11619e-19)
(1.30506 -0.0300395 -1.94475e-19)
(1.17522 -0.0884696 8.03355e-20)
(1.24495 -0.0882736 -1.10781e-19)
(1.28933 -0.0837616 -2.45325e-19)
(1.31398 -0.0773361 -1.58022e-19)
(1.32594 -0.0673311 2.36828e-19)
(1.32814 -0.0585229 -1.53902e-19)
(1.32693 -0.0465347 6.93446e-19)
(1.32183 -0.0352742 3.54676e-19)
(1.31246 -0.0274565 6.17123e-20)
(0.967973 -0.0706492 7.34173e-20)
(1.08916 -0.0756455 -2.97174e-20)
(1.18243 -0.0776364 -1.12214e-19)
(1.24884 -0.0753957 5.60699e-19)
(1.29127 -0.0708999 -3.64433e-19)
(1.31626 -0.0624983 -3.40117e-19)
(1.32712 -0.0538082 7.19387e-20)
(1.33032 -0.0435429 6.82125e-20)
(1.32874 -0.0304467 8.02537e-19)
(1.32002 -0.0239667 -7.65024e-19)
(0.84258 -0.0575784 2.61444e-19)
(0.978236 -0.062342 2.50204e-20)
(1.0925 -0.0654434 -6.87711e-20)
(1.18258 -0.0651662 -2.15429e-19)
(1.24737 -0.062562 8.66461e-20)
(1.29098 -0.0564192 1.70982e-19)
(1.31609 -0.0481496 -2.62601e-19)
(1.32784 -0.0398736 -6.19802e-19)
(1.33217 -0.025762 -3.47131e-19)
(1.32677 -0.0198478 1.74548e-19)
(0.563842 -0.0442634 9.53819e-19)
(0.707637 -0.0470709 -4.18501e-19)
(0.847793 -0.0502354 2.10755e-20)
(0.975755 -0.0529684 3.05705e-19)
(1.08628 -0.0537121 2.46412e-19)
(1.17465 -0.0523551 -1.52624e-19)
(1.24106 -0.0486043 7.51841e-20)
(1.28668 -0.041109 2.23504e-19)
(1.31334 -0.0349951 1.63746e-19)
(1.32794 -0.0207313 3.16724e-19)
(1.33071 -0.0152564 7.12927e-19)
(0.44321 -0.0402539 -5.88486e-19)
(0.573 -0.0400984 3.69169e-19)
(0.707369 -0.0409024 2.47535e-19)
(0.838858 -0.0419995 -4.99436e-19)
(0.961584 -0.042519 7.02251e-19)
(1.06945 -0.0412474 -4.73441e-20)
(1.15846 -0.0392645 -1.33183e-19)
(1.22833 -0.0324753 -8.99112e-20)
(1.27674 -0.0284737 -3.46476e-20)
(1.30729 -0.0147219 -4.82487e-20)
(1.32702 -0.00996622 -2.63831e-19)
(0.335627 -0.039259 2.15832e-19)
(0.446944 -0.0367244 -2.64249e-19)
(0.567641 -0.0351789 -1.33375e-19)
(0.692729 -0.0340714 4.05513e-19)
(0.816893 -0.0334099 -6.65347e-19)
(0.935381 -0.0310058 -3.79236e-21)
(1.04118 -0.0296973 2.89647e-19)
(1.13297 -0.0228894 -1.83672e-19)
(1.20725 -0.0204957 1.54113e-19)
(1.25648 -0.00734016 -3.16249e-19)
(1.30613 -0.00363559 -2.64121e-19)
(0.242561 -0.0402406 1.0489e-19)
(0.334354 -0.036237 2.87451e-19)
(0.437221 -0.032942 -4.44602e-19)
(0.548701 -0.0298115 -4.69606e-19)
(0.66472 -0.027745 6.22272e-19)
(0.78275 -0.0233747 -1.42659e-19)
(0.896302 -0.0219413 2.31018e-19)
(1.0002 -0.0139149 1.96986e-19)
(1.10018 -0.0123801 -2.93418e-19)
(1.16278 0.000831102 3.04825e-19)
(1.25383 0.00384836 2.43511e-19)
(0.100722 -0.0471526 4.2049e-19)
(0.163095 -0.0421145 1.26407e-19)
(0.236586 -0.0375381 -5.71329e-19)
(0.320867 -0.0333239 1.09648e-19)
(0.415121 -0.0288766 -3.3975e-19)
(0.517141 -0.0257882 -2.85274e-20)
(0.624614 -0.0193383 1.49031e-19)
(0.73765 -0.0176403 -2.7707e-19)
(0.839146 -0.00748855 -7.35798e-20)
(0.960583 -0.00602652 -7.41511e-20)
(1.02422 0.00785928 4.13067e-20)
(1.15867 0.0114238 -5.25085e-20)
(0.0472338 -0.0486258 2.60234e-19)
(0.0950795 -0.0439623 -1.37946e-19)
(0.152482 -0.039512 5.06897e-19)
(0.219516 -0.0351409 -6.04335e-20)
(0.296068 -0.030299 4.6472e-19)
(0.381854 -0.0266413 -1.16085e-19)
(0.472739 -0.0190098 8.76499e-20)
(0.578864 -0.0169856 -1.16268e-19)
(0.666168 -0.00505306 1.33951e-19)
(0.799805 -0.00288352 8.78118e-20)
(0.853745 0.011485 6.32708e-20)
(1.01916 0.0172079 -8.93296e-20)
(0.000609945 -0.049058 -7.22286e-19)
(0.0361157 -0.0451018 -8.66783e-20)
(0.0797024 -0.0412304 1.22909e-19)
(0.13157 -0.037269 1.86391e-19)
(0.191839 -0.0328128 2.05517e-19)
(0.261288 -0.0289269 3.29635e-20)
(0.334664 -0.0216561 -2.47294e-20)
(0.428266 -0.0187644 -3.89176e-19)
(0.498223 -0.00688953 -6.18693e-20)
(0.629896 -0.00327364 8.68231e-20)
(0.67211 0.0107364 -1.7299e-19)
(0.8461 0.0191005 -3.10584e-19)
(-0.0406538 -0.0481768 4.93869e-19)
(-0.0158131 -0.045074 -6.79587e-20)
(0.0158289 -0.0420138 -3.53632e-19)
(0.0544926 -0.038805 -2.73943e-19)
(0.100395 -0.0351692 -9.28507e-20)
(0.15444 -0.0314799 -1.04703e-19)
(0.212271 -0.0256544 8.5612e-20)
(0.289077 -0.0215283 1.22088e-19)
(0.345357 -0.0118999 1.70741e-19)
(0.460584 -0.00623224 -8.05373e-21)
(0.496221 0.00635278 3.46576e-20)
(0.65638 0.016411 -2.41381e-19)
(-0.0774565 -0.0458416 -2.97087e-19)
(-0.062044 -0.0436005 1.93356e-19)
(-0.0409603 -0.0414114 -7.08073e-20)
(-0.0139893 -0.0390876 1.41056e-19)
(0.0191362 -0.0364102 -2.94866e-20)
(0.059084 -0.0333599 -3.82388e-20)
(0.103272 -0.0291224 1.25675e-19)
(0.161879 -0.0243585 -1.16103e-19)
(0.208343 -0.0177686 1.14048e-19)
(0.298514 -0.0101427 1.27664e-20)
(0.332872 -2.44548e-05 9.5275e-20)
(0.464767 0.0105105 4.72517e-19)
(-0.110142 -0.0420124 6.08938e-20)
(-0.103178 -0.0405452 1.17293e-19)
(-0.0916028 -0.0391607 2.76304e-19)
(-0.0752172 -0.0376873 -8.43283e-20)
(-0.0537398 -0.0359242 9.54077e-20)
(-0.0266995 -0.0337163 -1.326e-19)
(0.00468536 -0.0308298 -1.34229e-19)
(0.0461595 -0.0263416 1.53627e-19)
(0.0831163 -0.0221082 -2.86742e-20)
(0.147408 -0.0137671 -1.95226e-19)
(0.181006 -0.00664538 1.40974e-19)
(0.279801 0.00408092 -1.08275e-19)
(-0.134567 -0.0378082 2.05886e-19)
(-0.138608 -0.0367341 -3.13976e-20)
(-0.139167 -0.0358923 1.13159e-20)
(-0.136149 -0.0351619 -3.82716e-20)
(-0.129393 -0.0343928 -4.34804e-21)
(-0.118639 -0.0334 1.71874e-19)
(-0.103583 -0.0320043 1.93568e-19)
(-0.0845215 -0.0301186 3.22404e-20)
(-0.0585542 -0.0265493 8.96685e-20)
(-0.0329062 -0.0237807 -1.74999e-19)
(0.00936278 -0.0156777 2.34353e-19)
(0.0379284 -0.0119766 -2.48157e-19)
(0.105897 -0.000708947 -6.69299e-20)
(-0.152826 -0.0307457 2.94046e-20)
(-0.162442 -0.03013 -5.68698e-20)
(-0.169483 -0.0297354 -9.95027e-20)
(-0.173938 -0.0294643 -1.58316e-19)
(-0.175712 -0.0291934 8.74164e-20)
(-0.174615 -0.0287667 -2.12783e-20)
(-0.170429 -0.0280267 1.14685e-19)
(-0.163012 -0.0268081 -1.94741e-19)
(-0.151091 -0.0243936 9.06102e-20)
(-0.137295 -0.0223321 1.02879e-19)
(-0.113913 -0.0157544 -1.04398e-19)
(-0.0948394 -0.0140972 9.28524e-20)
(-0.0524073 -0.00366655 -1.53151e-19)
(-0.167025 -0.0227065 -1.15242e-20)
(-0.18107 -0.0223974 -6.68251e-20)
(-0.193322 -0.0222718 3.00867e-20)
(-0.203865 -0.0222585 3.35449e-20)
(-0.212694 -0.0222655 5.41682e-20)
(-0.219705 -0.0221751 -7.07436e-20)
(-0.224744 -0.0218623 -3.48945e-20)
(-0.227566 -0.0211508 5.65079e-21)
(-0.227552 -0.0196982 -1.64868e-19)
(-0.225269 -0.0180705 -8.44026e-20)
(-0.217686 -0.0140104 -4.75907e-20)
(-0.209517 -0.0124773 1.58223e-19)
(-0.1888 -0.00527298 5.42478e-20)
(-0.176763 -0.0139306 -1.34704e-19)
(-0.193899 -0.0138013 9.35965e-20)
(-0.209823 -0.0137936 -7.64146e-20)
(-0.224706 -0.0138643 4.35099e-20)
(-0.238622 -0.0139565 -6.03167e-20)
(-0.251555 -0.0139971 -9.60824e-21)
(-0.263411 -0.0139052 1.81677e-20)
(-0.273967 -0.0135587 6.77785e-20)
(-0.282838 -0.0128051 4.02103e-20)
(-0.289919 -0.0117851 1.12164e-19)
(-0.293925 -0.00969082 -3.55386e-20)
(-0.295874 -0.00844064 -4.91178e-20)
(-0.291346 -0.00473771 -7.46452e-22)
(-0.18172 -0.00469557 3.81407e-20)
(-0.200447 -0.00466221 -4.17841e-20)
(-0.218275 -0.0046714 1.61966e-20)
(-0.235422 -0.00470871 3.34489e-20)
(-0.252014 -0.00475488 -1.54775e-20)
(-0.268087 -0.00478515 3.39042e-21)
(-0.28359 -0.00477152 -2.2279e-20)
(-0.298335 -0.00467155 -4.83892e-21)
(-0.312021 -0.0044409 2.32919e-20)
(-0.324382 -0.00409997 -1.36368e-20)
(-0.334661 -0.00345747 -1.79498e-20)
(-0.342823 -0.00298732 -8.40958e-21)
(-0.347099 -0.00189905 -2.99081e-20)
(-0.350475 0.00219174 -2.27673e-20)
(-0.353136 0.00153524 8.26096e-21)
(-0.354667 0.000856738 -1.23164e-20)
(-0.355224 0.000113659 2.14563e-20)
(-0.354601 -0.000713476 -1.02828e-20)
(-0.352654 -0.00161019 -5.73885e-21)
(-0.349184 -0.00257018 7.8916e-21)
(-0.344003 -0.00358703 -2.5772e-21)
(-0.336917 -0.00465371 5.85186e-21)
(-0.327738 -0.00575797 1.33901e-21)
(-0.316283 -0.00689279 -1.09377e-20)
(-0.302375 -0.00804554 3.52139e-22)
(-0.285853 -0.00920101 6.72546e-21)
(-0.266583 -0.0103411 4.35443e-21)
(-0.244463 -0.0114439 2.12193e-22)
(-0.219432 -0.0124857 -1.0628e-20)
(-0.191461 -0.0134508 9.22816e-22)
(-0.160618 -0.0143036 4.32145e-21)
(-0.127023 -0.0150335 -1.94759e-21)
(-0.090854 -0.0156204 2.73376e-21)
(-0.0522879 -0.0161077 -3.37086e-21)
(-0.0116294 -0.0163425 -1.0292e-21)
(0.0307373 -0.0164249 1.90283e-21)
(0.0744322 -0.0163459 -9.95716e-22)
(0.119048 -0.0161009 1.15889e-21)
(0.164161 -0.0157022 -1.21193e-22)
(0.20934 -0.0151686 -1.14004e-22)
(0.254167 -0.0145194 5.41074e-23)
(0.298256 -0.013781 3.00495e-24)
(0.341275 -0.0129737 5.06255e-24)
(0.382909 -0.0121287 1.10099e-22)
(0.422979 -0.0112581 -7.08703e-23)
(0.461204 -0.0103977 -4.4298e-22)
(0.497666 -0.00954667 1.58072e-22)
(0.53195 -0.00874382 4.37344e-23)
(0.564592 -0.00796389 7.80842e-23)
(0.594734 -0.00725234 -1.00966e-22)
(0.623709 -0.00656712 3.70061e-23)
(0.649755 -0.00596219 3.5107e-23)
(0.675482 -0.00537825 -9.43721e-23)
(0.697605 -0.0048828 -4.16999e-23)
(0.720687 -0.00439211 9.08911e-23)
(0.739063 -0.00400591 -5.16355e-23)
(0.760303 -0.00358973 -7.00866e-23)
(0.774942 -0.0033098 2.60147e-23)
(0.795402 -0.00294495 -2.71064e-23)
(0.805964 -0.00277325 -4.71987e-23)
(0.827175 -0.00244568 -2.7969e-23)
(0.832868 -0.00238343 -4.74689e-24)
(0.857119 -0.00208219 2.38897e-26)
(-0.29035 0.00560354 -6.93025e-20)
(-0.292174 0.00380966 -1.57629e-20)
(-0.292563 0.00178302 6.47863e-20)
(-0.292017 -0.000430015 -4.87016e-20)
(-0.290348 -0.00286333 1.59848e-21)
(-0.287382 -0.00549287 2.79836e-20)
(-0.282951 -0.00830271 -2.29939e-20)
(-0.276879 -0.0112761 1.25822e-20)
(-0.268982 -0.0143995 1.63414e-20)
(-0.259092 -0.0176288 -2.29442e-20)
(-0.247046 -0.020951 4.11519e-20)
(-0.232678 -0.0243246 -2.97006e-20)
(-0.215841 -0.0277039 -2.25666e-20)
(-0.196413 -0.031036 1.99411e-20)
(-0.174306 -0.0342605 3.791e-21)
(-0.149485 -0.0373156 -8.48881e-21)
(-0.121913 -0.0401631 -5.76496e-21)
(-0.0916527 -0.0426677 1.80719e-21)
(-0.0588613 -0.0447767 8.5775e-21)
(-0.023778 -0.046471 -7.8409e-21)
(0.0135352 -0.0476813 -1.02396e-21)
(0.0527834 -0.048392 6.32088e-21)
(0.0934571 -0.0486111 -4.26146e-21)
(0.135265 -0.0483304 3.31364e-21)
(0.177817 -0.047561 -1.33342e-21)
(0.2207 -0.04634 -6.60124e-22)
(0.26351 -0.0447237 8.57376e-22)
(0.305857 -0.0427704 -2.23412e-22)
(0.347387 -0.04056 -1.60168e-22)
(0.387793 -0.0381518 2.3673e-22)
(0.426797 -0.0356388 8.11077e-23)
(0.464238 -0.0330566 1.9236e-22)
(0.499873 -0.0305085 -3.91777e-22)
(0.533786 -0.0279899 7.41902e-22)
(0.565611 -0.0256177 4.21264e-22)
(0.595858 -0.0233191 -7.98567e-22)
(0.623738 -0.0212238 6.04481e-22)
(0.65051 -0.0192106 -2.70338e-22)
(0.674528 -0.0174336 1.43622e-24)
(0.698253 -0.0157225 -2.43537e-23)
(0.718606 -0.0142698 3.93064e-22)
(0.739873 -0.0128355 -2.46845e-22)
(0.756753 -0.0117051 2.82791e-22)
(0.776329 -0.0104916 -1.93382e-22)
(0.789767 -0.00967286 -9.57956e-23)
(0.808652 -0.00861109 4.92224e-23)
(0.818339 -0.00810936 2.91033e-23)
(0.837976 -0.00715871 7.46982e-24)
(0.843184 -0.00697811 3.18336e-23)
(0.865731 -0.00610711 5.21104e-24)
(-0.181284 0.00648833 -8.84031e-20)
(-0.181243 0.00390595 5.64922e-20)
(-0.179796 0.000622945 9.0877e-21)
(-0.177368 -0.00295798 -6.66862e-20)
(-0.173911 -0.00684025 2.589e-20)
(-0.16926 -0.0110275 -1.39473e-20)
(-0.163268 -0.0155037 -3.28086e-21)
(-0.155789 -0.0202466 1.80815e-20)
(-0.146629 -0.0252818 1.35721e-20)
(-0.135659 -0.0304115 1.19203e-20)
(-0.122756 -0.0357004 -5.92655e-20)
(-0.107765 -0.0410732 6.44728e-20)
(-0.0905644 -0.0464529 -6.38971e-20)
(-0.071058 -0.0517526 1.97584e-20)
(-0.0491841 -0.0568778 3.35274e-20)
(-0.024972 -0.0617249 -3.46643e-20)
(0.0016381 -0.0661364 8.68718e-21)
(0.030698 -0.0700183 -1.16703e-20)
(0.0619301 -0.0733179 2.85491e-20)
(0.0950853 -0.0759435 -3.82233e-21)
(0.130018 -0.0777051 -4.09026e-21)
(0.166477 -0.078748 1.25282e-21)
(0.204083 -0.0789698 -5.34102e-21)
(0.242495 -0.078369 6.06219e-22)
(0.281349 -0.0769845 6.33052e-22)
(0.320269 -0.0748777 -2.84483e-21)
(0.3589 -0.0721429 1.18765e-22)
(0.396894 -0.0688767 -4.12009e-22)
(0.433954 -0.0652113 -4.22652e-22)
(0.469814 -0.061243 8.48654e-22)
(0.504257 -0.0571235 9.0543e-22)
(0.537149 -0.0529091 -1.86346e-21)
(0.56831 -0.0487642 6.50691e-22)
(0.597826 -0.0446754 -6.85618e-22)
(0.625409 -0.0408312 7.81717e-22)
(0.651524 -0.037123 2.80747e-22)
(0.6755 -0.0337491 -1.23475e-21)
(0.698461 -0.0305209 8.4373e-22)
(0.718973 -0.0276724 -1.98773e-22)
(0.73922 -0.0249428 1.28657e-22)
(0.7565 -0.0226228 -8.88336e-23)
(0.774593 -0.0203461 -5.63494e-22)
(0.788863 -0.0185465 -3.4689e-22)
(0.805506 -0.0166305 2.1509e-22)
(0.816841 -0.0153289 4.24665e-23)
(0.832925 -0.0136586 4.37654e-23)
(0.841072 -0.0128624 3.07682e-23)
(0.857883 -0.0113754 3.42104e-23)
(0.862234 -0.0110929 5.76922e-23)
(0.881708 -0.00974136 1.28363e-24)
(-0.039378 0.00336686 -4.73704e-20)
(-0.0369381 0.000617054 -3.81809e-20)
(-0.0332575 -0.00346875 6.97029e-20)
(-0.028564 -0.00814215 8.94777e-20)
(-0.023017 -0.0132058 -1.3476e-19)
(-0.016482 -0.0186727 -1.0254e-20)
(-0.00881054 -0.0245398 9.14074e-20)
(5.30565e-05 -0.0307692 -6.75783e-20)
(0.0104628 -0.0372731 -3.93709e-20)
(0.0225312 -0.0440152 3.2302e-20)
(0.0361612 -0.0509644 2.27263e-20)
(0.0515724 -0.0580217 1.48035e-20)
(0.068858 -0.0650822 -9.46954e-21)
(0.0880859 -0.0720266 -3.49559e-20)
(0.109297 -0.0787275 6.13516e-20)
(0.132481 -0.0850534 -5.89244e-20)
(0.157586 -0.0907374 1.02803e-20)
(0.184612 -0.0957063 2.40459e-20)
(0.21339 -0.0999154 -1.66964e-20)
(0.243694 -0.103196 3.34632e-20)
(0.275321 -0.105418 -5.14692e-21)
(0.308026 -0.106564 -2.41218e-21)
(0.341488 -0.106602 -3.40231e-21)
(0.375387 -0.105545 -1.42003e-21)
(0.409405 -0.103446 3.29158e-21)
(0.443216 -0.100394 7.08554e-22)
(0.476522 -0.0965187 -1.72143e-22)
(0.509033 -0.0919531 1.13735e-22)
(0.54052 -0.0868789 -1.61992e-22)
(0.570765 -0.0814255 8.9563e-23)
(0.599622 -0.0757983 4.65056e-22)
(0.626986 -0.0700711 -1.0289e-21)
(0.652746 -0.0644622 -1.71401e-22)
(0.676981 -0.058949 2.08013e-21)
(0.699488 -0.053772 -5.14343e-22)
(0.720671 -0.0488026 -9.58062e-22)
(0.739999 -0.0442916 2.77672e-22)
(0.758421 -0.0399998 -8.16325e-22)
(0.774764 -0.036214 3.68881e-22)
(0.790854 -0.0326104 -3.04377e-22)
(0.804475 -0.0295416 -1.01616e-22)
(0.818744 -0.0265574 3.10494e-22)
(0.829891 -0.0241872 3.16817e-22)
(0.842959 -0.021696 -4.02683e-22)
(0.851764 -0.0199857 -1.98661e-22)
(0.864392 -0.0178262 1.61192e-22)
(0.870673 -0.016782 -1.23824e-22)
(0.883953 -0.0148764 3.30126e-23)
(0.887255 -0.0145142 -1.02496e-22)
(0.90285 -0.0128057 -4.26686e-24)
(0.122001 -0.00291184 -6.32183e-20)
(0.127117 -0.00622257 -2.72659e-20)
(0.132388 -0.0106962 1.54033e-19)
(0.138924 -0.015967 -7.53203e-20)
(0.146329 -0.0218156 1.04793e-19)
(0.154519 -0.0281999 -1.72994e-19)
(0.163631 -0.0351026 5.30606e-20)
(0.17378 -0.0424531 5.00849e-21)
(0.185105 -0.0500703 4.16471e-20)
(0.197725 -0.0580706 -8.72599e-21)
(0.211686 -0.0663073 -5.37457e-20)
(0.227078 -0.0746717 1.80305e-20)
(0.243964 -0.0830343 8.85874e-20)
(0.26238 -0.0912447 -7.87109e-20)
(0.282339 -0.0991396 4.28577e-20)
(0.303815 -0.106552 -1.81379e-20)
(0.326737 -0.11326 2.33172e-20)
(0.35106 -0.119097 1.65979e-20)
(0.376637 -0.123925 -6.56904e-20)
(0.403264 -0.127596 2.47453e-20)
(0.430736 -0.129989 -2.11105e-20)
(0.458824 -0.131054 2.82226e-20)
(0.487268 -0.130769 -2.46633e-20)
(0.515798 -0.129156 1.125e-20)
(0.544155 -0.126289 3.31985e-21)
(0.57208 -0.12228 -8.83823e-22)
(0.59935 -0.117295 -4.49236e-23)
(0.625743 -0.1115 6.8221e-22)
(0.651104 -0.105119 4.61906e-22)
(0.675275 -0.0983098 -1.8367e-22)
(0.698173 -0.0913244 7.78704e-22)
(0.719725 -0.0842501 -6.87618e-22)
(0.73988 -0.0773489 2.52767e-22)
(0.758702 -0.0705942 -8.11202e-22)
(0.776063 -0.0642596 6.32463e-22)
(0.792287 -0.0582019 5.17063e-22)
(0.806983 -0.0527122 7.01774e-22)
(0.820899 -0.0475223 -1.19135e-21)
(0.833137 -0.0429424 6.81901e-22)
(0.84512 -0.0386174 3.19884e-22)
(0.855158 -0.0349219 -7.06759e-22)
(0.865634 -0.0313692 2.26094e-22)
(0.873726 -0.0285278 -6.25506e-23)
(0.883208 -0.0255927 4.0756e-22)
(0.889533 -0.0235477 8.21018e-23)
(0.898644 -0.0210212 -1.95161e-22)
(0.903086 -0.0197747 1.46837e-23)
(0.912713 -0.0175709 -4.3546e-23)
(0.914969 -0.0171517 6.28512e-23)
(0.926505 -0.0152168 1.20986e-23)
(0.294997 -0.0101325 -4.32486e-20)
(0.30198 -0.014762 1.10138e-19)
(0.308425 -0.019888 -2.84973e-19)
(0.315843 -0.0255932 1.50166e-19)
(0.324184 -0.0319325 -1.27027e-19)
(0.333271 -0.0389136 8.39688e-20)
(0.343139 -0.0464947 2.97369e-20)
(0.353867 -0.0545929 -4.58586e-21)
(0.365525 -0.0631048 -8.66213e-21)
(0.378178 -0.0719795 -1.55396e-20)
(0.391862 -0.0811217 -1.53909e-20)
(0.406619 -0.0904094 4.57172e-20)
(0.422476 -0.0996912 4.43597e-23)
(0.439436 -0.108792 -2.95216e-20)
(0.457478 -0.117518 5.37594e-21)
(0.476556 -0.12567 3.99696e-20)
(0.496587 -0.13302 -4.08577e-20)
(0.517481 -0.139364 -8.0403e-21)
(0.539104 -0.144529 2.12849e-20)
(0.561277 -0.148354 -1.25209e-20)
(0.583815 -0.150715 4.1761e-21)
(0.606526 -0.151547 2.16955e-20)
(0.629211 -0.150839 -9.30075e-21)
(0.651672 -0.148623 -8.57829e-21)
(0.673732 -0.144996 -4.61842e-21)
(0.695211 -0.140089 -1.15888e-21)
(0.715978 -0.134101 2.94261e-21)
(0.73589 -0.127221 1.48062e-21)
(0.754875 -0.11971 5.51835e-22)
(0.772836 -0.111747 9.78597e-23)
(0.789749 -0.103617 -9.01428e-23)
(0.805574 -0.095419 -8.30777e-23)
(0.820302 -0.087445 1.34711e-21)
(0.833981 -0.0796686 -7.33491e-22)
(0.846539 -0.0723845 -6.78888e-22)
(0.8582 -0.0654372 8.78578e-22)
(0.868707 -0.0591403 -1.45531e-21)
(0.878587 -0.0532233 1.12911e-21)
(0.887211 -0.0479934 1.63918e-22)
(0.895581 -0.0430942 -3.17585e-23)
(0.902529 -0.0388865 6.49528e-22)
(0.90969 -0.0348919 -8.21801e-22)
(0.915178 -0.031667 9.54791e-22)
(0.92151 -0.0284041 -2.88057e-22)
(0.925735 -0.0260886 2.71259e-22)
(0.93172 -0.0233001 -1.80793e-22)
(0.934606 -0.021889 -2.35845e-23)
(0.940934 -0.0194876 -1.48941e-22)
(0.942293 -0.0190311 -6.64692e-25)
(0.950115 -0.0169835 2.80251e-24)
(0.476438 -0.0176855 3.20722e-19)
(0.483554 -0.0233718 -7.06837e-20)
(0.490391 -0.0292946 1.2406e-20)
(0.497765 -0.0355119 -3.40295e-20)
(0.505871 -0.0422883 -4.61201e-20)
(0.514687 -0.0497387 1.38483e-19)
(0.524243 -0.0578158 -2.28558e-19)
(0.534553 -0.0664175 1.07851e-21)
(0.545604 -0.0754547 2.66225e-19)
(0.557387 -0.0848648 8.1157e-20)
(0.569908 -0.0945566 -3.27841e-19)
(0.583169 -0.104396 1.73346e-19)
(0.597157 -0.114215 -6.11549e-20)
(0.611838 -0.123827 -8.94633e-20)
(0.627154 -0.133023 1.10484e-19)
(0.643029 -0.141582 -2.11758e-21)
(0.659368 -0.149257 -2.49172e-20)
(0.676061 -0.155817 4.84247e-20)
(0.692976 -0.161061 -2.97069e-20)
(0.709962 -0.164824 -1.50737e-20)
(0.72687 -0.166983 1.78046e-20)
(0.743557 -0.167475 8.91881e-21)