/*--------------------------------*- C++ -*----------------------------------*\
  =========                 |
  \\      /  F ield         | OpenFOAM: The Open Source CFD Toolbox
   \\    /   O peration     | Website:  https://openfoam.org
    \\  /    A nd           | Version:  7
     \\/     M anipulation  |
\*---------------------------------------------------------------------------*/
FoamFile
{
    version     2.0;
    format      ascii;
    class       volVectorField;
    location    "10";
    object      U;
}
// * * * * * * * * * * * * * * * * * * * * * * * * * * * * * * * * * * * * * //

dimensions      [0 1 -1 0 0 0 0];

internalField   nonuniform List<vector> 
2625
(
(0.302445 -0.00368683 -1.7895e-21)
(0.336014 -0.00383766 -3.83652e-21)
(0.366461 -0.00379035 -3.86338e-22)
(0.402145 -0.0043199 -1.71671e-21)
(0.242465 -0.0103969 7.28741e-21)
(0.274221 -0.0107711 -9.17517e-22)
(0.305268 -0.011032 3.4238e-21)
(0.339142 -0.0114789 1.09285e-20)
(0.369767 -0.0113397 -2.58202e-22)
(0.405957 -0.0129077 -8.23497e-22)
(0.247104 -0.0172632 6.03102e-21)
(0.279364 -0.017875 6.4021e-21)
(0.310894 -0.0183016 -7.32997e-21)
(0.345371 -0.0190257 -8.87854e-21)
(0.376349 -0.0187983 2.93999e-21)
(0.413537 -0.0213381 1.16362e-20)
(0.254031 -0.0240344 -7.44695e-21)
(0.287039 -0.0248663 -5.74093e-21)
(0.319281 -0.0254461 1.2132e-20)
(0.354647 -0.0264161 2.12512e-21)
(0.386144 -0.0261071 -7.43508e-21)
(0.424797 -0.0295095 -9.74395e-21)
(0.26321 -0.0306732 1.97334e-21)
(0.297196 -0.031701 -6.1129e-21)
(0.330369 -0.0324168 5.59566e-21)
(0.366891 -0.0335896 -1.50031e-20)
(0.399057 -0.0332088 -5.60964e-21)
(0.439607 -0.0373254 5.00063e-21)
(0.27459 -0.037143 -3.63857e-20)
(0.309771 -0.0383361 -5.41841e-21)
(0.344078 -0.0391662 8.18441e-21)
(0.381998 -0.0404884 9.84378e-21)
(0.414969 -0.0400487 1.83868e-20)
(0.457797 -0.044696 -4.38382e-21)
(0.288112 -0.0434079 4.70063e-20)
(0.324686 -0.0447299 4.07296e-20)
(0.360308 -0.0456489 -3.16555e-20)
(0.39984 -0.0470571 1.71158e-20)
(0.433729 -0.0465752 -1.13601e-20)
(0.479157 -0.0515401 -2.37684e-21)
(0.303703 -0.0494331 -2.11904e-20)
(0.341847 -0.0508425 -1.63989e-20)
(0.378945 -0.0518212 3.25852e-20)
(0.420265 -0.0532438 -7.03008e-21)
(0.455163 -0.0527402 -2.70873e-20)
(0.503444 -0.0577865 2.20027e-20)
(0.321279 -0.0551852 -2.50696e-20)
(0.361148 -0.0566359 -3.3475e-20)
(0.399855 -0.057642 -3.77533e-20)
(0.443103 -0.059001 4.32923e-21)
(0.479076 -0.0584993 1.28721e-20)
(0.530384 -0.0633753 -3.18264e-20)
(0.382468 -0.0620742 5.11066e-20)
(0.42289 -0.0630731 1.48915e-20)
(0.468163 -0.0642854 -3.26966e-21)
(0.50525 -0.0638123 4.30366e-20)
(0.559675 -0.0682589 8.55437e-21)
(0.405677 -0.067124 -8.00135e-20)
(0.447889 -0.0680792 -8.2329e-22)
(0.49524 -0.069059 -1.74458e-20)
(0.533452 -0.0686431 4.17455e-21)
(0.590995 -0.0724024 -4.86535e-21)
(0.430633 -0.0717548 7.21541e-20)
(0.474679 -0.0726285 1.21174e-20)
(0.524113 -0.0732893 2.01118e-20)
(0.563435 -0.0729602 -4.08859e-20)
(0.624004 -0.0757841 2.38855e-20)
(0.457184 -0.0759391 -9.20251e-21)
(0.503076 -0.076693 -9.28213e-21)
(0.554552 -0.07695 -1.97792e-20)
(0.594941 -0.0767366 3.21031e-20)
(0.658355 -0.0783955 -3.83218e-20)
(0.48517 -0.0796527 5.51117e-22)
(0.532887 -0.0802485 -4.59929e-21)
(0.586315 -0.080021 4.72398e-20)
(0.627703 -0.0799499 -8.80119e-21)
(0.693692 -0.0802407 3.92583e-20)
(0.514426 -0.0828749 2.66186e-22)
(0.563911 -0.0832751 3.02462e-20)
(0.619159 -0.0824891 -6.40961e-20)
(0.661452 -0.0825829 4.64103e-20)
(0.729664 -0.0813357 -3.26992e-20)
(0.54478 -0.0855887 -5.04878e-20)
(0.595945 -0.0857576 -2.65513e-20)
(0.652834 -0.0843478 8.4115e-20)
(0.695915 -0.0846236 -6.42801e-20)
(0.765925 -0.0817074 -3.52393e-21)
(0.576053 -0.087781 2.81507e-20)
(0.62878 -0.087685 1.03679e-20)
(0.687091 -0.0855974 -5.5532e-20)
(0.730823 -0.0860656 -4.45874e-21)
(0.802145 -0.0813925 3.81584e-20)
(0.608069 -0.089443 -2.87611e-21)
(0.662207 -0.0890515 -3.98158e-20)
(0.721685 -0.0862451 -1.62212e-20)
(0.765909 -0.0869084 -1.57419e-20)
(0.838011 -0.0804361 -5.87139e-21)
(0.640646 -0.0905698 2.9606e-20)
(0.696016 -0.089856 -1.40747e-20)
(0.756375 -0.0863047 6.27285e-20)
(0.800916 -0.0871576 3.28731e-20)
(0.87323 -0.0788901 -2.9424e-20)
(0.673604 -0.0911609 -6.21191e-20)
(0.730003 -0.0901025 3.77046e-20)
(0.790931 -0.0857959 -2.9208e-20)
(0.835597 -0.0868256 -6.70051e-20)
(0.90754 -0.0768115 4.77324e-20)
(0.706766 -0.0912201 3.89325e-20)
(0.763966 -0.0897997 2.35837e-20)
(0.825131 -0.0847443 -3.30376e-20)
(0.869718 -0.0859308 7.33584e-20)
(0.940706 -0.0742613 -4.41562e-20)
(0.739956 -0.0907553 2.801e-21)
(0.797711 -0.0889615 -2.76037e-20)
(0.858767 -0.0831803 8.60329e-21)
(0.903063 -0.0844983 2.98763e-20)
(0.972526 -0.0713024 -7.29248e-22)
(0.831052 -0.0876062 2.61807e-20)
(0.89165 -0.0811388 -4.20486e-20)
(0.935433 -0.0825592 -1.12943e-20)
(1.00283 -0.0679987 -1.20554e-20)
(0.863813 -0.0857568 -3.63269e-20)
(0.923603 -0.0786581 3.5452e-20)
(0.966652 -0.0801501 -3.10573e-20)
(1.03149 -0.0644132 3.32676e-20)
(0.895832 -0.0834402 -8.5896e-21)
(0.954472 -0.0757795 5.08476e-20)
(0.996564 -0.0773124 6.8274e-20)
(1.05839 -0.0606071 -2.10518e-21)
(0.926959 -0.0806873 8.24403e-20)
(0.98412 -0.0725461 -4.81357e-20)
(1.02504 -0.0740915 -5.48488e-21)
(1.08347 -0.0566385 -2.91576e-20)
(0.95706 -0.0775319 -9.28128e-21)
(1.01243 -0.0690021 4.47183e-22)
(1.05198 -0.0705356 -3.18776e-20)
(1.1067 -0.0525616 -2.06088e-21)
(0.986015 -0.0740106 -2.31721e-20)
(1.03932 -0.0651922 -2.42943e-21)
(1.0773 -0.0666944 -5.1357e-20)
(1.12805 -0.0484262 4.96789e-20)
(1.01372 -0.0701621 7.03988e-20)
(1.0647 -0.0611609 6.91063e-20)
(1.10094 -0.0626183 -2.89025e-20)
(1.14755 -0.0442769 -1.10293e-19)
(1.0401 -0.0660263 -1.71997e-19)
(1.08853 -0.0569516 -1.02546e-19)
(1.12288 -0.0583566 3.20322e-20)
(1.16523 -0.0401528 1.0939e-19)
(1.11078 -0.0526064 1.14319e-20)
(1.14311 -0.0539571 8.01577e-20)
(1.18114 -0.036088 -1.38595e-20)
(1.13142 -0.0481652 1.2076e-19)
(1.16164 -0.0494643 6.04173e-21)
(1.19535 -0.0321113 -4.44838e-20)
(1.15047 -0.0436656 -6.91909e-20)
(1.1785 -0.0449192 -9.74774e-20)
(1.20795 -0.028247 6.11033e-20)
(1.16794 -0.0391424 2.56652e-20)
(1.19375 -0.0403578 -1.40203e-20)
(1.21901 -0.0245161 -1.35499e-19)
(1.18387 -0.0346273 9.33228e-21)
(1.20745 -0.0358113 -6.0543e-20)
(1.22864 -0.0209381 1.24591e-19)
(1.19831 -0.0301486 -1.29438e-20)
(1.21966 -0.0313053 1.21648e-19)
(1.23692 -0.0175332 -5.72395e-20)
(1.23047 -0.0268594 6.68564e-20)
(1.24394 -0.0143201 9.49909e-20)
(1.23996 -0.0224844 -4.42402e-20)
(1.24979 -0.0113118 -7.47696e-20)
(1.24821 -0.0181803 1.42157e-20)
(1.25454 -0.00856173 -1.41571e-20)
(1.25529 -0.0139517 -1.17123e-20)
(1.25838 -0.0063224 1.33738e-20)
(1.26172 -0.00495655 -9.73451e-21)
(1.26521 -0.00346387 1.22861e-20)
(1.26816 -0.00168631 8.58959e-20)
(1.27047 0.00026616 1.15128e-20)
(0.422012 -0.00388789 6.59841e-22)
(0.427958 -0.00376351 -3.48282e-22)
(0.433749 -0.00365482 -4.46706e-24)
(0.439497 -0.00355671 5.26289e-23)
(0.445187 -0.00346718 -4.46077e-23)
(0.450818 -0.00338523 -1.89394e-22)
(0.4564 -0.00330987 1.37964e-22)
(0.461942 -0.00324019 3.24363e-22)
(0.46745 -0.00317544 -2.37632e-22)
(0.472931 -0.00311501 3.93113e-23)
(0.47839 -0.00305836 -6.21395e-23)
(0.483831 -0.00300507 1.73764e-22)
(0.489258 -0.00295478 -1.29232e-22)
(0.494676 -0.00290719 2.61299e-22)
(0.500086 -0.00286203 -3.18729e-22)
(0.505494 -0.00281911 7.3013e-23)
(0.5109 -0.00277825 1.74898e-22)
(0.516309 -0.00273931 -1.53013e-22)
(0.521723 -0.00270218 1.8989e-22)
(0.527144 -0.00266676 -2.57154e-22)
(0.532576 -0.00263298 1.37434e-23)
(0.538019 -0.00260077 1.95161e-22)
(0.543478 -0.00257011 -2.81319e-22)
(0.548954 -0.00254095 2.1546e-22)
(0.55445 -0.00251326 -1.91973e-22)
(0.559969 -0.00248704 1.22992e-22)
(0.565514 -0.00246227 8.46889e-23)
(0.571087 -0.00243895 -2.11719e-23)
(0.576692 -0.00241707 -1.96351e-22)
(0.582332 -0.00239663 1.69582e-22)
(0.588009 -0.00237764 1.91833e-23)
(0.593728 -0.00236009 -5.33698e-23)
(0.599491 -0.00234399 8.33154e-23)
(0.605303 -0.00232933 3.70067e-23)
(0.611167 -0.0023161 -1.65902e-22)
(0.617088 -0.0023043 8.02472e-24)
(0.623069 -0.0022939 7.99368e-23)
(0.629114 -0.00228489 4.04416e-23)
(0.635228 -0.00227723 -6.88554e-23)
(0.641416 -0.00227088 7.4232e-24)
(0.64768 -0.00226578 -7.37532e-23)
(0.654027 -0.00226189 1.51476e-22)
(0.660459 -0.00225912 -1.4221e-22)
(0.425691 -0.0116215 3.55697e-22)
(0.431561 -0.0112521 -1.42658e-22)
(0.437277 -0.0109292 -3.78154e-23)
(0.442958 -0.0106376 7.92655e-22)
(0.448585 -0.0103714 5.27946e-22)
(0.454154 -0.0101276 -1.59057e-21)
(0.459678 -0.00990345 1.6853e-22)
(0.465163 -0.00969618 2.27829e-21)
(0.470616 -0.00950358 -1.34997e-21)
(0.476044 -0.00932382 4.66634e-22)
(0.48145 -0.00915536 -4.42867e-22)
(0.48684 -0.00899692 1.26349e-22)
(0.492217 -0.00884742 3.11468e-22)
(0.497584 -0.00870596 -7.01747e-22)
(0.502946 -0.0085718 5.57817e-22)
(0.508306 -0.00844433 1.42622e-22)
(0.513665 -0.00832302 -1.75745e-22)
(0.519027 -0.00820746 -8.82749e-22)
(0.524395 -0.0080973 1.18191e-21)
(0.529771 -0.00799228 -7.21697e-22)
(0.535157 -0.00789216 5.90863e-22)
(0.540556 -0.00779677 -4.74733e-22)
(0.54597 -0.00770598 2.0578e-22)
(0.551403 -0.00761968 -2.63269e-22)
(0.556855 -0.00753781 1.56461e-22)
(0.562332 -0.00746032 -6.5524e-23)
(0.567834 -0.00738716 1.78325e-23)
(0.573365 -0.00731832 -1.14541e-22)
(0.578927 -0.00725379 2.39151e-22)
(0.584525 -0.00719356 5.83802e-23)
(0.590161 -0.00713765 -1.46341e-22)
(0.595838 -0.00708603 1.95712e-22)
(0.601561 -0.00703872 -9.33951e-23)
(0.607332 -0.00699569 -8.13599e-23)
(0.613155 -0.00695692 -1.86526e-23)
(0.619036 -0.00692237 4.79935e-23)
(0.624976 -0.006892 -9.96012e-23)
(0.630981 -0.00686571 -1.31111e-22)
(0.637055 -0.00684342 -6.26285e-23)
(0.643202 -0.00682499 -8.21967e-23)
(0.649427 -0.00681028 1.13103e-22)
(0.655733 -0.00679907 6.68807e-23)
(0.662125 -0.00679115 -1.90372e-22)
(0.433005 -0.0192238 5.66746e-22)
(0.438726 -0.0186191 1.6727e-21)
(0.444294 -0.0180904 -1.86503e-21)
(0.449841 -0.017612 1.22375e-21)
(0.455343 -0.0171746 -1.26791e-21)
(0.460792 -0.016774 -2.32728e-22)
(0.466198 -0.0164053 2.44026e-23)
(0.471571 -0.0160641 1.11744e-21)
(0.476915 -0.015747 -2.87149e-22)
(0.482235 -0.0154509 3.0259e-22)
(0.487537 -0.0151733 -5.68287e-22)
(0.492825 -0.0149121 3.21933e-22)
(0.498102 -0.0146656 -5.94343e-22)
(0.503372 -0.0144324 -4.56466e-22)
(0.508637 -0.0142112 1.16739e-21)
(0.513901 -0.014001 2.29124e-22)
(0.519166 -0.0138009 -1.15933e-21)
(0.524436 -0.0136104 1.4423e-21)
(0.529712 -0.0134288 -1.75334e-21)
(0.534997 -0.0132556 7.50957e-22)
(0.540293 -0.0130905 7.83678e-22)
(0.545603 -0.0129333 -7.52426e-22)
(0.55093 -0.0127837 2.1109e-22)
(0.556275 -0.0126415 2.08164e-22)
(0.561642 -0.0125066 -3.92744e-22)
(0.567033 -0.012379 1.92069e-22)
(0.57245 -0.0122585 3.97728e-23)
(0.577897 -0.0121452 -4.54109e-23)
(0.583376 -0.012039 4.72503e-23)
(0.588891 -0.0119399 3.90119e-22)
(0.594444 -0.011848 -3.37928e-22)
(0.600039 -0.0117632 -2.18241e-22)
(0.60568 -0.0116854 -2.74336e-22)
(0.61137 -0.0116148 7.44929e-22)
(0.617113 -0.0115512 -1.17747e-22)
(0.622912 -0.0114947 -5.82812e-23)
(0.628773 -0.011445 -1.45563e-22)
(0.634698 -0.011402 -8.73176e-23)
(0.640692 -0.0113657 4.29077e-22)
(0.646759 -0.0113358 -2.45348e-22)
(0.652903 -0.0113119 1.21774e-22)
(0.65913 -0.0112939 1.1988e-22)
(0.665442 -0.0112813 -8.97066e-23)
(0.443872 -0.0266096 -1.90685e-21)
(0.449372 -0.0257854 2.68964e-21)
(0.454721 -0.0250646 -7.12685e-22)
(0.460071 -0.0244103 1.41175e-21)
(0.465387 -0.0238113 -3.71587e-21)
(0.470656 -0.0232617 1.83481e-21)
(0.47589 -0.0227555 1.61258e-21)
(0.481095 -0.0222866 1.0914e-21)
(0.486277 -0.0218503 -2.23429e-21)
(0.491439 -0.0214427 -1.48798e-21)
(0.496587 -0.0210604 1.67906e-21)
(0.501723 -0.0207006 1.03502e-21)
(0.506851 -0.0203609 -2.1221e-21)
(0.511975 -0.0200393 9.87811e-22)
(0.517097 -0.0197342 -4.88503e-22)
(0.522219 -0.0194443 6.90612e-23)
(0.527345 -0.0191684 8.92138e-23)
(0.532477 -0.0189055 1.37255e-21)
(0.537617 -0.018655 -1.12539e-21)
(0.542767 -0.0184161 1.61594e-21)
(0.547931 -0.0181885 -1.40077e-21)
(0.553109 -0.0179716 2.63626e-22)
(0.558306 -0.0177653 -2.50467e-23)
(0.563522 -0.0175692 -3.19575e-23)
(0.56876 -0.0173833 -1.61077e-22)
(0.574024 -0.0172074 -1.78565e-22)
(0.579316 -0.0170414 4.34502e-22)
(0.584637 -0.0168853 -1.65164e-21)
(0.589993 -0.016739 9.30661e-22)
(0.595384 -0.0166027 -6.62904e-22)
(0.600815 -0.0164762 8.48053e-22)
(0.606289 -0.0163596 3.39068e-22)
(0.611808 -0.0162528 -1.14486e-21)
(0.617378 -0.0161559 5.39837e-22)
(0.623 -0.0160687 1.80555e-22)
(0.62868 -0.0159912 -2.33394e-22)
(0.634421 -0.0159233 7.43514e-22)
(0.640227 -0.0158647 -5.27502e-22)
(0.646102 -0.0158153 -1.83392e-22)
(0.652051 -0.0157748 2.79843e-22)
(0.658077 -0.0157427 -2.52548e-22)
(0.664185 -0.0157187 5.68469e-22)
(0.670378 -0.0157022 1.533e-23)
(0.458166 -0.0336971 4.02535e-22)
(0.463378 -0.0326751 9.63561e-22)
(0.468441 -0.0317806 2.82747e-21)
(0.473533 -0.0309656 -3.65183e-21)
(0.478605 -0.0302175 1.69533e-21)
(0.48364 -0.0295302 -3.98457e-22)
(0.488647 -0.028896 2.55685e-22)
(0.493632 -0.0283079 -8.90318e-22)
(0.498601 -0.02776 6.93395e-22)
(0.503555 -0.0272477 1.48188e-21)
(0.5085 -0.0267668 -6.55447e-22)
(0.513437 -0.0263138 -9.57975e-23)
(0.518371 -0.025886 -3.10225e-21)
(0.523302 -0.0254809 7.36462e-22)
(0.528236 -0.0250965 1.33992e-21)
(0.533172 -0.024731 4.08432e-22)
(0.538115 -0.0243832 -8.87343e-22)
(0.543066 -0.0240517 -1.12726e-21)
(0.548027 -0.0237358 1.35189e-21)
(0.553001 -0.0234346 9.05062e-22)
(0.55799 -0.0231476 -2.0465e-21)
(0.562995 -0.0228742 1.97499e-21)
(0.56802 -0.022614 6.99075e-22)
(0.573067 -0.0223669 -1.74099e-21)
(0.578138 -0.0221326 1.16404e-21)
(0.583235 -0.021911 4.23376e-22)
(0.588361 -0.0217019 -3.35361e-22)
(0.593518 -0.0215054 -1.92817e-21)
(0.59871 -0.0213214 1.54736e-22)
(0.60394 -0.0211499 9.28469e-22)
(0.60921 -0.0209909 1.36272e-24)
(0.614524 -0.0208444 1.05175e-21)
(0.619884 -0.0207105 -1.7268e-21)
(0.625295 -0.020589 5.06619e-22)
(0.63076 -0.0204799 7.63296e-22)
(0.636282 -0.0203831 2.26502e-22)
(0.641867 -0.0202984 -1.79129e-21)
(0.647516 -0.0202257 9.85795e-22)
(0.653235 -0.0201645 3.99273e-22)
(0.659027 -0.0201146 -1.30965e-21)
(0.664897 -0.0200755 5.58286e-22)
(0.670849 -0.0200467 -7.72727e-24)
(0.676886 -0.0200273 2.41317e-22)
(0.475724 -0.0404096 -2.06846e-22)
(0.480586 -0.0392165 1.87597e-21)
(0.485301 -0.0381712 -6.32445e-21)
(0.490079 -0.037214 3.42433e-22)
(0.494853 -0.0363328 -4.83726e-22)
(0.499601 -0.0355214 -1.64655e-21)
(0.50433 -0.0347714 3.58064e-21)
(0.509046 -0.0340747 -2.83209e-21)
(0.513754 -0.0334248 2.05537e-21)
(0.518454 -0.0328163 -1.80537e-21)
(0.523149 -0.0322445 1.72821e-21)
(0.527843 -0.0317056 4.70584e-22)
(0.532537 -0.0311962 9.2698e-22)
(0.537234 -0.0307136 -1.99009e-21)
(0.541936 -0.0302554 5.83001e-22)
(0.546645 -0.0298197 1.14124e-22)
(0.551363 -0.0294049 -7.94585e-23)
(0.556092 -0.0290096 1.0209e-21)
(0.560834 -0.0286328 -2.37223e-21)
(0.565592 -0.0282736 9.36765e-22)
(0.570366 -0.0279312 -3.39151e-23)
(0.57516 -0.0276051 1.06227e-21)
(0.579975 -0.0272949 6.93617e-22)
(0.584813 -0.0270003 -1.14392e-21)
(0.589678 -0.026721 2.8584e-22)
(0.59457 -0.0264569 -3.05097e-22)
(0.599494 -0.0262079 -3.58459e-22)
(0.60445 -0.0259739 5.19605e-22)
(0.609442 -0.0257549 -5.43532e-22)
(0.614473 -0.025551 1.67224e-21)
(0.619546 -0.0253621 -1.02037e-21)
(0.624663 -0.0251882 -7.34912e-22)
(0.629828 -0.0250294 -1.13288e-22)
(0.635044 -0.0248855 1.1163e-21)
(0.640316 -0.0247566 -3.51576e-22)
(0.645645 -0.0246425 -1.91669e-23)
(0.651037 -0.024543 5.82643e-22)
(0.656494 -0.0244578 -3.04951e-22)
(0.662021 -0.0243866 6.49052e-22)
(0.667622 -0.024329 -1.39049e-21)
(0.6733 -0.0242843 3.91285e-22)
(0.67906 -0.024252 -9.367e-23)
(0.684905 -0.0242311 2.67512e-22)
(0.496344 -0.0466768 1.55989e-21)
(0.500803 -0.0453429 -1.96004e-21)
(0.505114 -0.0441734 3.10792e-21)
(0.509526 -0.043096 6.73175e-21)
(0.513953 -0.0421002 -1.72821e-21)
(0.518365 -0.0411812 -3.49949e-21)
(0.52277 -0.0403297 -4.54773e-21)
(0.527172 -0.0395372 5.26822e-21)
(0.531573 -0.0387966 3.38364e-21)
(0.535975 -0.0381021 -7.03775e-21)
(0.54038 -0.0374488 -1.5136e-21)
(0.544788 -0.0368323 2.84073e-21)
(0.549202 -0.0362492 1.01954e-21)
(0.553624 -0.0356963 -7.49175e-22)
(0.558055 -0.0351712 -7.39976e-23)
(0.562497 -0.0346716 9.42018e-22)
(0.566951 -0.0341958 -3.07555e-21)
(0.571421 -0.0337424 3.98148e-21)
(0.575906 -0.03331 -1.49271e-21)
(0.58041 -0.0328978 1.44953e-22)
(0.584933 -0.0325049 1.85583e-21)
(0.589478 -0.0321308 -2.28013e-21)
(0.594047 -0.031775 -1.93542e-21)
(0.598642 -0.031437 1.65699e-21)
(0.603265 -0.0311168 2.44921e-21)
(0.607918 -0.0308141 5.18228e-22)
(0.612603 -0.0305288 -1.30616e-21)
(0.617323 -0.0302609 1.16091e-21)
(0.622081 -0.0300104 6.64262e-22)
(0.626879 -0.0297772 -2.13145e-21)
(0.63172 -0.0295615 1.06173e-21)
(0.636607 -0.0293631 -6.98317e-22)
(0.641543 -0.0291822 -2.21205e-22)
(0.646531 -0.0290187 -4.32373e-22)
(0.651575 -0.0288724 -5.20882e-22)
(0.656678 -0.0287433 8.60936e-22)
(0.661843 -0.0286312 3.76884e-22)
(0.667075 -0.0285357 -5.23772e-22)
(0.672377 -0.0284564 3.84534e-22)
(0.677753 -0.0283929 1.15386e-22)
(0.683206 -0.0283445 -8.86119e-23)
(0.688741 -0.0283104 -3.01885e-22)
(0.694361 -0.0282896 3.98853e-22)
(0.519794 -0.0524354 -2.61425e-21)
(0.523802 -0.0509946 2.87635e-21)
(0.527661 -0.0497303 -6.32484e-21)
(0.531661 -0.048557 8.43156e-21)
(0.535697 -0.0474678 -2.04889e-21)
(0.539731 -0.0464596 -4.54806e-21)
(0.543769 -0.0455231 6.61165e-21)
(0.547816 -0.0446492 2.03405e-22)
(0.551871 -0.0438309 -4.98546e-21)
(0.555935 -0.0430622 4.56469e-22)
(0.560009 -0.042338 -1.89947e-21)
(0.564094 -0.0416538 3.25322e-21)
(0.568191 -0.041006 -2.19542e-21)
(0.5723 -0.0403912 5.69007e-21)
(0.576424 -0.0398069 -8.603e-21)
(0.580563 -0.0392508 5.0795e-21)
(0.58472 -0.0387209 -3.38842e-21)
(0.588894 -0.0382158 1.32481e-23)
(0.593089 -0.0377341 3.36761e-21)
(0.597304 -0.0372747 2.30422e-22)
(0.601543 -0.036837 6.1801e-23)
(0.605806 -0.0364202 -9.48485e-22)
(0.610096 -0.0360238 -2.25655e-21)
(0.614415 -0.0356474 8.49194e-22)
(0.618763 -0.0352909 1.85143e-21)
(0.623144 -0.034954 -2.18639e-22)
(0.627559 -0.0346367 -1.00786e-21)
(0.632012 -0.0343389 1.51913e-21)
(0.636504 -0.0340607 5.81831e-22)
(0.641037 -0.033802 -1.49713e-21)
(0.645615 -0.0335629 -6.78603e-22)
(0.650241 -0.0333434 -1.63151e-22)
(0.654916 -0.0331436 -3.0466e-22)
(0.659645 -0.0329633 7.25816e-22)
(0.664431 -0.0328026 -1.11099e-21)
(0.669277 -0.0326612 1.66015e-21)
(0.674185 -0.032539 -1.1262e-21)
(0.679161 -0.0324356 1.61755e-22)
(0.684206 -0.0323506 -4.24437e-22)
(0.689326 -0.0322833 3.04307e-22)
(0.694523 -0.0322332 4.46678e-22)
(0.699802 -0.0321992 -1.05382e-21)
(0.705166 -0.0321803 1.11409e-21)
(0.545811 -0.0576311 -2.79702e-21)
(0.549328 -0.056119 1.01851e-21)
(0.552695 -0.0547915 1.55594e-21)
(0.556245 -0.0535486 -1.71925e-21)
(0.559852 -0.0523889 6.90394e-21)
(0.56347 -0.0513119 -2.93617e-21)
(0.567105 -0.0503083 -3.13996e-21)
(0.570759 -0.0493691 -9.25509e-22)
(0.574433 -0.0484876 3.91054e-21)
(0.578125 -0.0476578 -5.50706e-21)
(0.581834 -0.0468746 6.64361e-21)
(0.585562 -0.0461337 -1.79888e-21)
(0.589308 -0.0454312 2.30035e-21)
(0.593073 -0.044764 -5.17419e-21)
(0.596857 -0.0441293 3.07352e-21)
(0.600662 -0.0435248 6.64106e-23)
(0.604488 -0.0429486 1.41294e-22)
(0.608337 -0.0423991 -2.82992e-21)
(0.612209 -0.0418749 3.78539e-22)
(0.616107 -0.0413751 -1.56275e-21)
(0.620031 -0.0408987 1.61636e-21)
(0.623983 -0.0404451 -2.40605e-21)
(0.627964 -0.0400138 3.82269e-21)
(0.631976 -0.0396045 -2.01804e-23)
(0.636021 -0.0392168 -4.47015e-22)
(0.640101 -0.0388507 1.41118e-21)
(0.644218 -0.0385061 -1.73321e-21)
(0.648374 -0.038183 -1.60147e-21)
(0.652571 -0.0378813 2.27791e-21)
(0.656812 -0.0376012 4.33686e-22)
(0.661099 -0.0373426 -3.14397e-22)
(0.665435 -0.0371057 -1.22908e-21)
(0.669822 -0.0368905 -9.06354e-23)
(0.674264 -0.0366969 -2.0807e-21)
(0.678764 -0.0365248 2.93022e-21)
(0.683324 -0.0363742 -2.80394e-22)
(0.687948 -0.0362447 -2.5861e-22)
(0.692639 -0.0361361 -3.60529e-23)
(0.6974 -0.0360478 -9.51077e-23)
(0.702236 -0.0359792 -3.1849e-22)
(0.70715 -0.0359295 -1.29168e-21)
(0.712144 -0.0358977 1.67135e-21)
(0.717223 -0.0358828 1.10519e-21)
(0.574105 -0.0622188 -7.14223e-21)
(0.577103 -0.0606721 3.62958e-21)
(0.579945 -0.059314 -5.0054e-22)
(0.583014 -0.0580292 -2.28411e-22)
(0.586162 -0.0568233 -6.96435e-22)
(0.589332 -0.055699 1.46803e-22)
(0.592532 -0.0546477 1.64387e-22)
(0.595765 -0.0536606 -9.78852e-22)
(0.599027 -0.0527315 4.17115e-21)
(0.602316 -0.0518548 -5.79607e-21)
(0.605632 -0.0510257 5.39031e-21)
(0.608973 -0.0502399 -4.67366e-21)
(0.612339 -0.0494939 5.80328e-21)
(0.615731 -0.0487845 -2.09188e-21)
(0.619148 -0.048109 -1.94753e-22)
(0.622591 -0.0474651 -4.27102e-21)
(0.62606 -0.046851 2.56367e-21)
(0.629556 -0.0462651 -2.09116e-21)
(0.63308 -0.045706 5.05642e-21)
(0.636633 -0.0451728 -3.43694e-21)
(0.640215 -0.0446646 1.14851e-21)
(0.643829 -0.0441807 -1.44402e-21)
(0.647476 -0.0437208 -4.34287e-22)
(0.651157 -0.0432843 5.84464e-21)
(0.654873 -0.0428712 -5.09288e-21)
(0.658627 -0.0424813 4.96254e-21)
(0.66242 -0.0421145 -2.81921e-21)
(0.666254 -0.0417709 9.83525e-22)
(0.670132 -0.0414504 -2.56234e-21)
(0.674055 -0.0411533 1.16799e-21)
(0.678026 -0.0408795 1.28885e-21)
(0.682048 -0.0406292 -2.59052e-22)
(0.686122 -0.0404024 -8.7535e-22)
(0.690252 -0.040199 1.85378e-21)
(0.694441 -0.0400191 -3.18422e-21)
(0.698691 -0.0398624 9.47873e-22)
(0.703005 -0.0397287 8.98468e-22)
(0.707388 -0.0396177 6.93073e-23)
(0.711841 -0.0395289 3.77266e-22)
(0.716368 -0.0394615 9.38604e-22)
(0.720972 -0.0394147 3.90718e-22)
(0.725657 -0.0393874 -5.23659e-22)
(0.730426 -0.0393785 -1.10638e-21)
(0.604367 -0.0661639 -8.75929e-22)
(0.606826 -0.0646191 -4.44459e-21)
(0.609122 -0.0632633 4.74907e-22)
(0.611686 -0.0619647 -2.03367e-21)
(0.61435 -0.0607375 5.54832e-21)
(0.61705 -0.0595885 -6.62028e-21)
(0.619791 -0.0585096 3.33406e-21)
(0.622576 -0.0574929 -1.51696e-21)
(0.625402 -0.0565328 -1.46693e-21)
(0.628264 -0.0556243 5.30028e-21)
(0.631162 -0.0547632 8.66034e-22)
(0.634093 -0.0539454 -5.52701e-21)
(0.637056 -0.0531676 4.49844e-21)
(0.640051 -0.052427 -1.05903e-21)
(0.643077 -0.0517209 6.12843e-22)
(0.646135 -0.0510473 -2.42833e-21)
(0.649224 -0.0504043 -1.24547e-21)
(0.652345 -0.0497906 4.64206e-21)
(0.655498 -0.0492047 -4.17327e-21)
(0.658684 -0.0486458 1.00143e-21)
(0.661903 -0.0481131 -2.16587e-21)
(0.665158 -0.0476059 4.18356e-21)
(0.668448 -0.0471238 -2.23675e-21)
(0.671776 -0.0466665 -3.89665e-22)
(0.675142 -0.0462339 1.72654e-21)
(0.678548 -0.0458259 -4.19719e-21)
(0.681996 -0.0454424 3.41031e-21)
(0.685487 -0.0450835 -2.43126e-21)
(0.689024 -0.0447493 -7.52065e-22)
(0.692609 -0.0444398 4.61996e-21)
(0.696243 -0.0441553 -2.27277e-21)
(0.699929 -0.0438959 -2.29762e-22)
(0.703669 -0.0436615 -3.74002e-22)
(0.707466 -0.0434522 1.34067e-22)
(0.711323 -0.043268 2.0364e-21)
(0.715241 -0.0431087 -3.41768e-22)
(0.719225 -0.042974 -2.13056e-21)
(0.723277 -0.0428637 2.25105e-21)
(0.7274 -0.0427771 8.43054e-22)
(0.731596 -0.0427136 -2.74549e-21)
(0.73587 -0.0426723 1.02116e-21)
(0.740224 -0.0426519 7.14993e-22)
(0.744661 -0.0426513 6.93504e-22)
(0.636272 -0.0694423 1.94824e-21)
(0.638182 -0.0679347 3.05426e-21)
(0.639919 -0.0666133 -1.9511e-22)
(0.641963 -0.065329 1.00726e-20)
(0.644128 -0.0641057 -1.81856e-20)
(0.646339 -0.0629548 1.74739e-20)
(0.648603 -0.0618691 -8.47649e-21)
(0.650923 -0.0608416 -1.5749e-21)
(0.653294 -0.0598676 2.31852e-21)
(0.655712 -0.0589431 -1.63217e-23)
(0.658173 -0.0580643 -7.95874e-22)
(0.660675 -0.0572279 5.34954e-22)
(0.663217 -0.0564308 6.71707e-22)
(0.665797 -0.0556705 1.03343e-21)
(0.668414 -0.0549446 -1.47586e-21)
(0.671069 -0.0542514 -1.41428e-21)
(0.67376 -0.0535892 2.09143e-21)
(0.676487 -0.0529565 -1.56153e-21)
(0.679251 -0.0523524 -4.24476e-22)
(0.682053 -0.0517758 1.62782e-21)
(0.684892 -0.0512262 -9.70553e-23)
(0.687769 -0.0507029 -2.99724e-21)
(0.690686 -0.0502057 -4.88137e-23)
(0.693642 -0.0497342 3.41353e-21)
(0.696641 -0.0492884 -1.92315e-21)
(0.699682 -0.0488683 2.62098e-21)
(0.702768 -0.0484738 1.55463e-21)
(0.705899 -0.048105 -1.70916e-21)
(0.709078 -0.0477622 3.88594e-22)
(0.712306 -0.0474454 -9.90163e-22)
(0.715586 -0.0471548 -1.92583e-21)
(0.718919 -0.0468906 -5.77123e-22)
(0.722308 -0.0466529 2.46208e-21)
(0.725754 -0.0464416 5.82119e-22)
(0.729261 -0.0462569 -1.61963e-21)
(0.732831 -0.0460985 -1.18644e-21)
(0.736467 -0.0459663 1.80951e-21)
(0.74017 -0.0458598 -1.27086e-21)
(0.743945 -0.0457785 1.2563e-21)
(0.747793 -0.0457216 1.98483e-22)
(0.751718 -0.0456883 -1.58441e-22)
(0.755723 -0.0456773 2.77708e-22)
(0.75981 -0.0456873 -2.28465e-23)
(0.669485 -0.0720411 -5.98887e-21)
(0.670845 -0.0706039 1.56644e-20)
(0.67202 -0.0693476 -8.7167e-21)
(0.673539 -0.0681046 9.31656e-22)
(0.675195 -0.0669098 -2.13732e-21)
(0.676908 -0.0657796 2.76742e-21)
(0.678685 -0.0647078 -3.28784e-21)
(0.680529 -0.0636885 1.50658e-20)
(0.682433 -0.0627181 -1.83522e-20)
(0.684393 -0.0617936 1.04507e-20)
(0.686405 -0.0609121 -6.46687e-21)
(0.688465 -0.0600707 1.4587e-21)
(0.690573 -0.0592671 5.58836e-21)
(0.692725 -0.058499 -5.08514e-21)
(0.694921 -0.0577646 2.88031e-21)
(0.697159 -0.0570622 -2.00052e-21)
(0.699439 -0.0563905 1.20977e-21)
(0.70176 -0.0557483 -1.09127e-21)
(0.704122 -0.0551347 -6.43598e-21)
(0.706526 -0.0545488 6.70507e-22)
(0.708971 -0.0539902 5.57561e-21)
(0.711458 -0.0534584 1.28395e-22)
(0.713988 -0.0529531 -1.07129e-23)
(0.716561 -0.0524743 7.75502e-22)
(0.719179 -0.0520218 2.96251e-22)
(0.721842 -0.0515956 3.55523e-21)
(0.724552 -0.051196 -3.44418e-21)
(0.72731 -0.050823 -1.06999e-21)
(0.730118 -0.0504768 1.0646e-21)
(0.732977 -0.0501577 -4.04895e-22)
(0.735888 -0.0498658 1.66862e-21)
(0.738855 -0.0496014 -3.42726e-21)
(0.741879 -0.0493647 2.24844e-21)
(0.744961 -0.0491555 1.56768e-22)
(0.748105 -0.0489741 -3.63418e-22)
(0.751312 -0.0488203 8.37162e-22)
(0.754585 -0.0486938 -1.77476e-22)
(0.757926 -0.0485944 -6.20364e-22)
(0.761338 -0.0485213 1.52939e-21)
(0.764824 -0.048474 9.25292e-23)
(0.768386 -0.0484514 -1.25164e-21)
(0.772026 -0.0484523 -4.6256e-22)
(0.775747 -0.0484751 -1.39266e-22)
(0.703667 -0.0739583 -1.00623e-20)
(0.704484 -0.0726218 3.03207e-21)
(0.705104 -0.0714587 1.15401e-20)
(0.706099 -0.0702827 -7.73579e-21)
(0.707246 -0.06914 -1.32366e-21)
(0.708459 -0.0680525 9.15917e-21)
(0.709746 -0.0670149 -1.57042e-21)
(0.711109 -0.0660225 -3.11452e-21)
(0.712542 -0.065073 2.65722e-21)
(0.714038 -0.0641646 -1.6295e-21)
(0.715594 -0.0632953 -1.03001e-20)
(0.717206 -0.0624629 6.64362e-21)
(0.718872 -0.0616656 2.07142e-21)
(0.720588 -0.0609019 -5.01397e-21)
(0.722355 -0.0601702 4.71142e-21)
(0.724169 -0.0594693 -1.11244e-21)
(0.726029 -0.0587982 -2.67564e-21)
(0.727936 -0.0581559 6.42489e-21)
(0.729889 -0.0575417 2.97183e-22)
(0.731886 -0.056955 -2.73193e-21)
(0.733929 -0.0563954 -4.20537e-21)
(0.736018 -0.0558627 2.12359e-21)
(0.738152 -0.0553567 -5.00031e-21)
(0.740333 -0.0548773 4.1307e-21)
(0.742561 -0.0544246 -1.85289e-21)
(0.744838 -0.0539988 -2.47911e-21)
(0.747163 -0.0535999 5.98427e-21)
(0.749539 -0.0532283 -5.19897e-22)
(0.751966 -0.0528842 -9.93021e-23)
(0.754446 -0.0525678 -9.19396e-22)
(0.756981 -0.0522795 -3.07872e-21)
(0.759571 -0.0520195 2.29862e-21)
(0.76222 -0.051788 -1.84998e-21)
(0.764929 -0.0515851 2.99503e-21)
(0.767699 -0.0514109 -2.40165e-21)
(0.770533 -0.0512652 1.25916e-21)
(0.773434 -0.0511479 1.06921e-21)
(0.776402 -0.0510587 -1.13099e-21)
(0.779441 -0.0509969 7.11153e-22)
(0.782553 -0.0509619 -1.09844e-22)
(0.78574 -0.0509526 -1.5126e-21)
(0.789005 -0.0509679 1.81721e-21)
(0.79235 -0.051006 1.53547e-22)
(0.795777 -0.0510652 -3.54212e-22)
(0.738479 -0.0752027 -4.13008e-21)
(0.73877 -0.0739934 -1.34766e-21)
(0.73885 -0.0729488 7.98555e-22)
(0.739331 -0.0718631 -7.34683e-21)
(0.739978 -0.0707947 1.46641e-21)
(0.740696 -0.0697705 1.47644e-20)
(0.741496 -0.0687866 -8.66165e-21)
(0.74238 -0.0678392 9.92557e-22)
(0.743342 -0.0669276 3.46798e-21)
(0.744375 -0.066051 5.39132e-23)
(0.745475 -0.0652085 -9.92636e-21)
(0.746638 -0.0643988 8.68111e-21)
(0.74786 -0.0636208 -6.01425e-21)
(0.749139 -0.0628735 -3.34991e-21)
(0.750474 -0.0621559 -2.32745e-21)
(0.751861 -0.0614672 1.07701e-20)
(0.753299 -0.0608066 -1.01569e-20)
(0.754789 -0.0601737 9.28893e-21)
(0.756328 -0.0595679 -1.83725e-21)
(0.757916 -0.0589889 -4.13874e-21)
(0.759553 -0.0584364 7.37402e-21)
(0.761239 -0.0579104 -8.44071e-21)
(0.762974 -0.0574109 8.81496e-21)
(0.764759 -0.0569379 4.26143e-21)
(0.766593 -0.0564916 -6.64379e-21)
(0.768478 -0.0560722 3.63516e-21)
(0.770414 -0.0556801 -6.6197e-21)
(0.772402 -0.0553154 -2.07037e-21)
(0.774444 -0.0549787 8.66244e-21)
(0.77654 -0.0546702 -3.3655e-21)
(0.778692 -0.0543902 -1.93105e-21)
(0.780901 -0.0541391 5.75096e-21)
(0.783169 -0.0539171 -5.0268e-21)
(0.785498 -0.0537245 2.54638e-21)
(0.787889 -0.0535612 -3.47096e-21)
(0.790344 -0.0534273 1.17995e-21)
(0.792865 -0.0533225 1.02505e-21)
(0.795454 -0.0532467 1.0998e-21)
(0.798112 -0.0531992 -1.26263e-22)
(0.800843 -0.0531792 -1.17454e-21)
(0.803648 -0.0531859 1.04403e-21)
(0.80653 -0.0532178 1.83849e-22)
(0.80949 -0.0532735 -1.80349e-21)
(0.812531 -0.053351 2.21417e-21)
(0.77359 -0.0757928 1.04103e-20)
(0.77338 -0.0747335 -1.06817e-20)
(0.772943 -0.0738289 -5.29514e-21)
(0.772929 -0.0728544 -6.40214e-21)
(0.773088 -0.0718802 9.63786e-21)
(0.773324 -0.0709386 3.759e-21)
(0.773648 -0.0700264 -1.12703e-20)
(0.774063 -0.0691411 2.84494e-22)
(0.774562 -0.0682834 1.98846e-20)
(0.775138 -0.0674539 -1.73539e-21)
(0.775787 -0.0666524 -4.09049e-21)
(0.776505 -0.0658788 -1.04436e-20)
(0.777288 -0.0651326 1.2497e-21)
(0.778133 -0.0644135 1.13361e-20)
(0.779039 -0.0637211 -6.27475e-21)
(0.780001 -0.063055 2.01913e-21)
(0.78102 -0.062415 -1.37298e-21)
(0.782094 -0.0618008 3.9122e-21)
(0.783221 -0.0612122 -5.06602e-21)
(0.7844 -0.0606492 -5.33681e-21)
(0.785633 -0.0601118 1.06164e-20)
(0.786917 -0.0596 -6.16044e-21)
(0.788253 -0.0591141 6.50363e-21)
(0.789641 -0.0586543 -1.34237e-21)
(0.791081 -0.0582208 6.24328e-22)
(0.792574 -0.057814 -4.74887e-21)
(0.79412 -0.0574344 2.58341e-21)
(0.79572 -0.0570823 -1.79975e-21)
(0.797375 -0.0567581 6.21908e-22)
(0.799086 -0.0564623 2.34774e-21)