/*--------------------------------*- C++ -*----------------------------------*\
  =========                 |
  \\      /  F ield         | OpenFOAM: The Open Source CFD Toolbox
   \\    /   O peration     | Website:  https://openfoam.org
    \\  /    A nd           | Version:  7
     \\/     M anipulation  |
\*---------------------------------------------------------------------------*/
FoamFile
{
    version     2.0;
    format      ascii;
    class       volVectorField;
    location    "20";
    object      U;
}
// * * * * * * * * * * * * * * * * * * * * * * * * * * * * * * * * * * * * * //

dimensions      [0 1 -1 0 0 0 0];

internalField   nonuniform List<vector> 
2625
(
(-0.00177292 0.000225323 -6.212e-21)
(0.0131555 0.00356119 -1.54165e-20)
(0.0832388 0.00725436 4.20331e-21)
(0.0131555 -0.00356134 1.54165e-20)
(0.0832388 -0.0072547 -4.20331e-21)
(0.191398 -0.00888514 1.66725e-21)
(0.296733 -0.00928026 7.93254e-21)
(0.402144 -0.00889853 1.85652e-21)
(0.0134243 -0.0106763 -1.58886e-20)
(0.0837579 -0.0217502 2.39253e-20)
(0.192001 -0.0266403 8.36912e-21)
(0.297341 -0.0278266 -5.64352e-21)
(0.402709 -0.0266835 1.49065e-20)
(0.0139613 -0.0177688 -5.65743e-21)
(0.084795 -0.0362049 -1.3366e-20)
(0.193206 -0.0443512 1.5387e-20)
(0.298557 -0.0463319 -2.05395e-20)
(0.403838 -0.0444334 -3.89263e-20)
(0.0147648 -0.0248236 6.14779e-20)
(0.0863473 -0.0505917 1.59697e-20)
(0.19501 -0.0619887 -8.07393e-20)
(0.300378 -0.0647689 2.51036e-20)
(0.40553 -0.0621251 6.37717e-20)
(0.0158326 -0.0318261 -8.49041e-20)
(0.0884111 -0.0648837 4.211e-20)
(0.19741 -0.0795234 1.05662e-19)
(0.3028 -0.0831103 -7.59721e-20)
(0.407781 -0.0797354 -4.76911e-20)
(0.0171618 -0.0387613 -4.75459e-20)
(0.0909813 -0.0790543 -5.43987e-20)
(0.200399 -0.0969264 -1.19442e-19)
(0.305819 -0.101329 1.40402e-19)
(0.410588 -0.0972412 1.33942e-19)
(0.0187486 -0.0456147 1.39074e-19)
(0.0940513 -0.0930769 2.99124e-20)
(0.203972 -0.114169 9.55746e-21)
(0.309428 -0.119399 -8.4301e-20)
(0.413945 -0.11462 -1.64688e-19)
(0.50413 -0.105112 -1.44291e-19)
(0.0205885 -0.052372 -2.55321e-20)
(0.0976136 -0.106926 -6.10683e-20)
(0.20812 -0.131223 1.32241e-19)
(0.313622 -0.137292 5.73458e-21)
(0.417848 -0.131848 4.22162e-20)
(0.507638 -0.120948 1.31396e-19)
(0.0226765 -0.0590191 -7.8808e-20)
(0.101659 -0.120574 5.56359e-20)
(0.212834 -0.148059 6.45338e-20)
(0.318391 -0.154984 4.54376e-20)
(0.422289 -0.148904 2.71044e-21)
(0.511631 -0.136642 -5.62644e-20)
(0.0250066 -0.0655422 -4.60114e-20)
(0.106179 -0.133998 -1.58412e-19)
(0.218105 -0.164652 -2.39931e-19)
(0.323727 -0.172447 -1.44329e-19)
(0.427261 -0.165764 -5.9832e-21)
(0.516105 -0.152175 -4.20446e-20)
(0.0275724 -0.0719279 8.20314e-20)
(0.11116 -0.147173 1.75559e-19)
(0.223919 -0.180972 4.85614e-20)
(0.329618 -0.189657 1.92648e-19)
(0.432755 -0.182408 -4.79855e-20)
(0.521052 -0.167528 1.04298e-19)
(0.0303666 -0.0781629 1.97902e-19)
(0.116591 -0.160073 6.21036e-20)
(0.230265 -0.196994 -6.87184e-20)
(0.336054 -0.206588 -1.38627e-19)
(0.438763 -0.198814 1.24836e-19)
(0.526465 -0.182685 -1.63393e-19)
(0.0333814 -0.0842347 -1.81877e-19)
(0.122458 -0.172677 -1.02114e-19)
(0.237128 -0.212692 1.68442e-19)
(0.343022 -0.223216 7.65613e-20)
(0.445273 -0.214959 -9.50071e-20)
(0.532336 -0.197626 9.53686e-20)
(0.0366084 -0.090131 1.59208e-19)
(0.128747 -0.18496 -1.67973e-19)
(0.244493 -0.22804 -4.90972e-20)
(0.350508 -0.239516 -5.97601e-20)
(0.452275 -0.230824 -2.1113e-19)
(0.538656 -0.212335 9.77256e-20)
(0.0400386 -0.0958399 -9.67966e-20)
(0.135442 -0.1969 1.24503e-19)
(0.252343 -0.243014 -1.63286e-20)
(0.358498 -0.255465 2.57079e-19)
(0.459757 -0.246388 1.98047e-19)
(0.545416 -0.226794 -2.16858e-19)
(0.0436623 -0.10135 -1.09203e-19)
(0.142526 -0.208478 -4.63108e-20)
(0.260662 -0.257589 4.61812e-20)
(0.366976 -0.27104 -3.06781e-19)
(0.467705 -0.261631 1.68737e-19)
(0.552605 -0.240988 1.60229e-19)
(0.0474695 -0.106651 1.83049e-19)
(0.149981 -0.219671 7.58602e-20)
(0.26943 -0.271743 -1.672e-19)
(0.375925 -0.286219 4.10579e-20)
(0.476106 -0.276532 -1.6309e-19)
(0.560212 -0.254898 -2.24122e-19)
(0.0514495 -0.111733 7.62074e-20)
(0.15779 -0.230461 5.27405e-20)
(0.278629 -0.285452 2.07279e-19)
(0.385327 -0.300979 2.76752e-20)
(0.484946 -0.291074 -1.18936e-19)
(0.568226 -0.268509 1.8186e-19)
(0.0555912 -0.116585 -3.88686e-19)
(0.165932 -0.240829 1.03223e-19)
(0.288237 -0.298697 -2.60418e-19)
(0.395165 -0.315301 1.22617e-20)
(0.494209 -0.305236 1.37041e-19)
(0.576634 -0.281806 -3.95701e-21)
(0.059883 -0.121199 2.37321e-19)
(0.174387 -0.250756 -3.13048e-19)
(0.298233 -0.311456 3.11273e-19)
(0.405418 -0.329163 -2.54354e-22)
(0.503879 -0.319003 2.90788e-20)
(0.585425 -0.294772 1.20559e-19)
(0.064313 -0.125567 8.99994e-20)
(0.183135 -0.260228 3.59542e-19)
(0.308594 -0.323709 -2.7293e-19)
(0.416066 -0.342547 -2.02851e-19)
(0.513939 -0.332355 -1.72126e-19)
(0.594584 -0.307394 -1.6522e-19)
(0.0688688 -0.12968 -2.35152e-19)
(0.192152 -0.269227 -2.63999e-19)
(0.319298 -0.335438 1.11877e-19)
(0.427088 -0.355434 2.41231e-19)
(0.524372 -0.345276 1.79162e-19)
(0.604097 -0.319656 1.00638e-19)
(0.0735378 -0.133532 2.60675e-19)
(0.201417 -0.277739 1.99633e-19)
(0.330321 -0.346626 2.70602e-19)
(0.438462 -0.367806 -3.28739e-20)
(0.535159 -0.35775 -9.41516e-20)
(0.61395 -0.331545 -5.48278e-20)
(0.078307 -0.137116 -1.16967e-19)
(0.210907 -0.285751 1.11553e-20)
(0.341636 -0.357256 -8.89125e-20)
(0.450165 -0.379646 6.49013e-20)
(0.546282 -0.369762 -4.16897e-20)
(0.624127 -0.343047 -2.13971e-19)
(0.69028 -0.30819 4.19903e-19)
(0.0831631 -0.140427 -1.66492e-19)
(0.220597 -0.293251 -3.53613e-19)
(0.35322 -0.367312 -2.08231e-19)
(0.462174 -0.390938 8.50672e-22)
(0.55772 -0.381296 1.57638e-19)
(0.634613 -0.35415 9.30144e-20)
(0.699611 -0.318459 -2.4571e-19)
(0.0880926 -0.14346 -1.3711e-19)
(0.230463 -0.300228 1.4017e-19)
(0.365045 -0.376781 1.22165e-19)
(0.474465 -0.401667 -1.1328e-19)
(0.569453 -0.392338 -2.02427e-19)
(0.645392 -0.36484 -5.40271e-20)
(0.709219 -0.328391 -9.20428e-20)
(0.093082 -0.14621 1.5627e-19)
(0.240481 -0.306671 1.64951e-19)
(0.377085 -0.38565 -9.26921e-20)
(0.487011 -0.411819 -1.05384e-19)
(0.581461 -0.402876 7.03941e-20)
(0.656445 -0.375106 1.96179e-19)
(0.719089 -0.337976 2.13059e-20)
(0.0981173 -0.148675 3.70937e-19)
(0.250626 -0.312572 -2.01794e-19)
(0.389313 -0.393906 1.49603e-19)
(0.499789 -0.421382 3.05818e-19)
(0.593722 -0.412895 1.07958e-19)
(0.667757 -0.384937 -4.72649e-20)
(0.729209 -0.347204 1.08988e-20)
(0.103185 -0.15085 -1.39488e-19)
(0.260871 -0.317924 4.43947e-20)
(0.4017 -0.40154 -2.98805e-20)
(0.512772 -0.430343 -2.52314e-19)
(0.606213 -0.422385 -7.95943e-20)
(0.679309 -0.394321 3.19841e-19)
(0.739564 -0.356066 -1.80472e-19)
(0.10827 -0.152736 -4.31992e-21)
(0.271192 -0.322721 -7.98172e-20)
(0.414218 -0.408542 -1.68367e-19)
(0.525934 -0.438691 8.98727e-20)
(0.618913 -0.431334 3.05718e-19)
(0.691083 -0.403249 -1.66726e-19)
(0.750141 -0.364553 3.73058e-19)
(0.11336 -0.154329 -2.22182e-19)
(0.281562 -0.326958 2.79816e-20)
(0.426839 -0.414903 1.16704e-19)
(0.539246 -0.446416 1.55696e-19)
(0.631797 -0.439732 -1.52961e-19)
(0.70306 -0.41171 1.54015e-19)
(0.760923 -0.372657 -1.58979e-19)
(0.11844 -0.15563 1.75725e-19)
(0.291956 -0.33063 8.73202e-20)
(0.439534 -0.420618 8.04087e-20)
(0.552683 -0.45351 -2.99321e-19)
(0.644843 -0.44757 -1.71184e-19)
(0.71522 -0.419696 -2.11352e-19)
(0.771897 -0.38037 -9.78396e-20)
(0.123496 -0.156639 1.42289e-19)
(0.302346 -0.333737 -3.68219e-20)
(0.452273 -0.42568 -2.33763e-20)
(0.566215 -0.459964 1.03524e-19)
(0.658027 -0.454838 1.08422e-19)
(0.727545 -0.427199 5.28541e-20)
(0.783045 -0.387684 -1.263e-19)
(0.826321 -0.344825 -1.28417e-19)
(0.128514 -0.157358 -1.01617e-20)
(0.312708 -0.336277 8.69426e-22)
(0.465026 -0.430086 -1.30997e-19)
(0.579816 -0.465773 1.71831e-19)
(0.671323 -0.461529 -1.09976e-19)
(0.740014 -0.43421 -1.42818e-19)
(0.794354 -0.394592 8.82846e-20)
(0.836416 -0.35133 -3.73648e-20)
(0.133481 -0.157787 -3.63524e-19)
(0.323014 -0.33825 8.87322e-20)
(0.477765 -0.433832 1.96989e-19)
(0.593455 -0.47093 -1.72988e-19)
(0.684708 -0.467637 8.63587e-20)
(0.752606 -0.440723 3.06399e-20)
(0.805806 -0.401088 -2.23058e-20)
(0.84666 -0.357497 -1.71025e-20)
(0.138383 -0.15793 2.74587e-19)
(0.33324 -0.339657 -2.71467e-20)
(0.49046 -0.436918 -1.17307e-19)
(0.607106 -0.475432 1.08299e-19)
(0.698155 -0.473154 9.92182e-20)
(0.7653 -0.44673 1.59038e-19)
(0.817384 -0.407166 7.86145e-20)
(0.857042 -0.36332 1.9537e-19)
(0.143207 -0.157789 -2.18362e-19)
(0.343359 -0.340503 -4.95344e-20)
(0.503081 -0.439343 -9.29293e-20)
(0.620737 -0.479276 -8.43825e-20)
(0.711641 -0.478077 -2.65508e-19)
(0.778076 -0.452227 -1.31095e-19)
(0.829073 -0.412819 2.68554e-20)
(0.867547 -0.368795 -7.56489e-20)
(0.14794 -0.157369 2.47188e-19)
(0.353346 -0.340791 -5.2548e-21)
(0.515599 -0.441108 1.10508e-19)
(0.634321 -0.482458 -8.53626e-21)
(0.725138 -0.4824 3.08229e-19)
(0.790912 -0.457207 -1.54755e-20)
(0.840854 -0.418044 -2.23168e-20)
(0.878163 -0.373917 1.84396e-20)
(0.152569 -0.156674 -1.86143e-19)
(0.363175 -0.340526 9.44688e-20)
(0.527983 -0.442217 -1.07296e-20)
(0.647829 -0.48498 1.13524e-19)
(0.73862 -0.486121 -3.29726e-19)
(0.803787 -0.461667 -1.20738e-19)
(0.85271 -0.422834 2.11923e-19)
(0.888875 -0.378682 5.28276e-20)
(0.917218 -0.334297 9.55708e-21)
(0.157082 -0.15571 -3.85843e-20)
(0.372822 -0.339716 -1.37878e-19)
(0.540206 -0.442672 4.51494e-20)
(0.661231 -0.48684 -5.34516e-20)
(0.752063 -0.489236 1.22465e-19)
(0.816677 -0.465603 5.27078e-20)
(0.864624 -0.427187 -1.4948e-19)
(0.89967 -0.383086 -1.4898e-20)
(0.92685 -0.338517 -7.48509e-20)
(0.161467 -0.154483 1.68049e-19)
(0.382264 -0.338369 2.89587e-20)
(0.552238 -0.442479 -4.52271e-20)
(0.674498 -0.488042 4.08241e-20)
(0.765439 -0.491746 6.3317e-20)
(0.829561 -0.469011 1.41148e-19)
(0.876578 -0.431098 1.38143e-19)
(0.910534 -0.387125 -1.38781e-19)
(0.936565 -0.342437 -5.05169e-20)
(0.165714 -0.153001 -1.09376e-19)
(0.391476 -0.336493 2.02193e-20)
(0.564051 -0.441646 -7.79622e-20)
(0.687601 -0.488587 -9.26069e-20)
(0.778721 -0.493649 -9.00841e-20)
(0.842416 -0.471889 -6.15581e-20)
(0.888553 -0.434564 -1.85365e-19)
(0.921451 -0.390797 9.31083e-20)
(0.946353 -0.346056 1.25589e-20)
(0.169811 -0.151269 6.16972e-20)
(0.400436 -0.334099 4.05224e-21)
(0.575616 -0.440179 9.80553e-20)
(0.700511 -0.48848 1.04686e-20)
(0.791884 -0.494946 -4.75725e-20)
(0.85522 -0.474235 6.16439e-21)
(0.90053 -0.437582 2.67409e-20)
(0.932408 -0.394099 1.11261e-19)
(0.956202 -0.34937 3.34862e-20)
(0.173745 -0.149295 -7.90305e-20)
(0.409119 -0.331197 2.18809e-20)
(0.586906 -0.438087 -2.72067e-20)
(0.7132 -0.487725 -1.62248e-20)
(0.804901 -0.495637 1.43017e-19)
(0.867949 -0.476049 8.22531e-20)
(0.912492 -0.440151 -1.53742e-20)
(0.94339 -0.397028 -7.48067e-20)
(0.966101 -0.352378 4.06405e-20)
(0.98315 -0.309827 -3.14897e-20)
(0.177508 -0.147088 5.03808e-20)
(0.417506 -0.327802 -4.26201e-20)
(0.597893 -0.435381 3.6152e-20)
(0.725639 -0.48633 6.53538e-20)
(0.817745 -0.495726 -5.76284e-20)
(0.880581 -0.47733 -8.52493e-20)
(0.924418 -0.442268 -4.82606e-20)
(0.954381 -0.399583 -6.52983e-21)
(0.976038 -0.355077 -7.15747e-21)
(0.992048 -0.31246 2.34832e-19)
(0.181089 -0.144656 2.62369e-20)
(0.425574 -0.323925 6.08264e-20)
(0.608551 -0.432073 -1.47991e-20)
(0.737799 -0.484301 -4.37877e-20)
(0.83039 -0.495216 -3.65259e-20)
(0.893091 -0.478079 -1.22502e-20)
(0.936291 -0.443933 1.28776e-19)
(0.965367 -0.401762 1.52881e-20)
(0.986001 -0.357467 2.01567e-20)
(1.00099 -0.314836 -6.00637e-20)
(0.18448 -0.142009 -1.48293e-20)
(0.433303 -0.319582 -9.40023e-21)
(0.618855 -0.428175 -1.34023e-20)
(0.749654 -0.481647 -4.41536e-21)
(0.842809 -0.494111 3.63665e-20)
(0.905458 -0.478296 6.00925e-20)
(0.948089 -0.445145 -1.50427e-19)
(0.976331 -0.403563 1.63622e-20)
(0.995978 -0.359545 5.32944e-20)
(1.00997 -0.316956 -3.00081e-21)
(0.187671 -0.139156 -2.65528e-20)
(0.440675 -0.314789 -3.41172e-20)
(0.628778 -0.423702 -2.209e-20)
(0.761175 -0.478379 -1.39886e-20)
(0.854976 -0.492417 -3.49694e-20)
(0.917656 -0.477984 -1.51368e-20)
(0.959795 -0.445903 5.48302e-20)
(0.987259 -0.404986 -6.91388e-20)
(1.00596 -0.361312 -2.56284e-20)
(1.01897 -0.318817 -5.09978e-20)
(1.02873 -0.279383 2.2901e-20)
(0.190656 -0.136108 -1.07592e-20)
(0.447671 -0.309562 1.26454e-20)
(0.638297 -0.418668 1.26135e-20)
(0.772337 -0.474507 4.1906e-20)
(0.866864 -0.490139 3.16286e-20)
(0.929663 -0.477145 -1.55003e-20)
(0.971387 -0.446208 3.5616e-20)
(0.998133 -0.40603 6.1475e-21)
(1.01593 -0.362766 -1.0032e-20)
(1.02799 -0.32042 9.63124e-20)
(1.03682 -0.280975 1.27853e-19)
(0.193426 -0.132876 -9.50689e-23)
(0.454272 -0.303919 -3.68994e-21)
(0.647387 -0.41309 8.15073e-22)
(0.783112 -0.470042 -1.69948e-20)
(0.878448 -0.487285 1.32105e-20)
(0.941455 -0.475783 3.33081e-20)
(0.982847 -0.446062 -3.53776e-20)
(1.00894 -0.406695 -1.92705e-20)
(1.02587 -0.363906 -7.89225e-20)
(1.03701 -0.321763 -1.48785e-19)
(1.04494 -0.282352 -8.11922e-20)
(0.195976 -0.129471 1.3342e-20)
(0.460464 -0.297878 8.14864e-21)
(0.656028 -0.406986 -2.44211e-21)
(0.793474 -0.465 -7.70423e-22)
(0.889703 -0.483863 -2.57743e-20)
(0.953009 -0.473901 -3.0447e-20)
(0.994153 -0.445464 4.39066e-20)
(1.01966 -0.40698 -2.7951e-21)
(1.03578 -0.364733 4.6206e-20)
(1.04604 -0.322848 -9.42196e-21)
(1.05307 -0.283514 7.13631e-20)
(1.05808 -0.247673 7.48509e-20)
(0.198299 -0.125904 -6.8883e-21)
(0.466231 -0.291458 7.24193e-21)
(0.664196 -0.400374 1.51188e-20)
(0.8034 -0.459393 -3.20384e-21)
(0.900602 -0.479882 -1.20323e-20)
(0.964301 -0.471505 3.98693e-20)
(1.00529 -0.444418 -1.99688e-20)
(1.03028 -0.406887 1.89614e-20)
(1.04564 -0.365246 -2.30912e-20)
(1.05504 -0.323674 -3.67349e-20)
(1.06121 -0.28446 -8.41918e-20)
(1.06541 -0.248616 -1.64699e-19)
(0.200389 -0.122187 -3.80697e-20)
(0.471559 -0.28468 1.30416e-20)
(0.671872 -0.393273 -5.08132e-21)
(0.812865 -0.453238 1.46291e-20)
(0.91112 -0.475352 -3.79343e-21)
(0.975307 -0.4686 -3.16498e-20)
(1.01623 -0.442926 4.0361e-20)
(1.04078 -0.406416 -9.62349e-21)
(1.05544 -0.365445 2.11429e-20)
(1.06403 -0.32424 9.17734e-20)
(1.06935 -0.285191 -4.06664e-20)
(1.07275 -0.249379 1.24689e-19)
(0.202242 -0.118331 1.62269e-20)
(0.476434 -0.277563 -6.51801e-20)
(0.679035 -0.385704 -1.32411e-20)
(0.821845 -0.44655 -5.6163e-21)
(0.921234 -0.470284 -1.92684e-21)
(0.986005 -0.465192 5.93396e-21)
(1.02695 -0.44099 -4.64715e-20)
(1.05114 -0.405569 -6.97758e-21)
(1.06516 -0.365332 8.98968e-22)
(1.07298 -0.324548 -1.25893e-21)
(1.07749 -0.285707 1.24839e-19)
(1.0801 -0.249961 -6.85771e-20)
(1.08166 -0.217568 -9.55619e-20)
(0.203855 -0.114349 4.07102e-20)
(0.480846 -0.27013 2.37168e-20)
(0.685668 -0.377688 -2.92782e-20)
(0.830317 -0.439347 -1.22547e-20)
(0.930918 -0.46469 -3.06612e-21)
(0.996371 -0.461289 -4.45981e-21)
(1.03744 -0.438615 -1.47887e-20)
(1.06136 -0.404347 1.33257e-20)
(1.0748 -0.364906 -1.76332e-20)
(1.08188 -0.324597 -8.4882e-21)
(1.0856 -0.286009 -2.49115e-21)
(1.08746 -0.250364 -2.23366e-22)
(1.08831 -0.217984 5.58857e-20)
(0.205224 -0.110253 -3.6412e-20)
(0.484783 -0.262402 -1.99035e-20)
(0.691754 -0.369248 4.86581e-21)
(0.83826 -0.431647 -2.71614e-21)
(0.94015 -0.458583 1.279e-20)
(1.00638 -0.456898 -5.24545e-21)
(1.04768 -0.435804 3.40347e-20)
(1.0714 -0.402751 1.68978e-22)
(1.08433 -0.364169 4.17817e-20)
(1.09073 -0.32439 1.22449e-20)
(1.0937 -0.286098 -4.77274e-20)
(1.09481 -0.250589 4.22202e-20)
(1.09498 -0.218249 8.88026e-21)
(1.09449 -0.188987 -8.22814e-20)
(0.206346 -0.106056 1.81332e-20)
(0.488236 -0.254401 -2.80981e-21)
(0.697276 -0.360406 4.36022e-20)
(0.845654 -0.423471 5.62975e-20)
(0.948906 -0.451977 -2.73613e-20)
(1.01601 -0.452028 2.05233e-21)
(1.05764 -0.432561 -1.11487e-20)
(1.08126 -0.400784 -2.71364e-21)
(1.09374 -0.363121 -3.12817e-20)
(1.09951 -0.323925 1.74833e-20)
(1.10176 -0.285974 -7.03841e-20)
(1.10216 -0.250636 1.34965e-20)
(1.10164 -0.218365 -9.64248e-20)
(1.10055 -0.189108 3.87248e-20)
(0.20722 -0.101769 -3.38526e-20)
(0.491197 -0.24615 5.76477e-20)
(0.702221 -0.351186 6.08854e-22)
(0.852477 -0.414837 2.78634e-22)
(0.957163 -0.444885 4.50751e-20)
(1.02524 -0.446688 9.99085e-21)
(1.0673 -0.428893 -2.42958e-21)
(1.09091 -0.398449 1.13736e-20)
(1.10303 -0.361764 3.15132e-20)
(1.10822 -0.323204 -1.5888e-20)
(1.10978 -0.285639 5.08764e-20)
(1.10948 -0.250507 -7.52584e-20)
(1.10831 -0.218332 1.18071e-20)
(1.10663 -0.189102 -2.43852e-20)
(0.207845 -0.0974067 -1.46178e-20)
(0.493659 -0.237673 -8.41861e-20)
(0.706574 -0.341613 -5.34747e-20)
(0.858713 -0.405767 3.16414e-21)
(0.964901 -0.437324 6.56038e-22)
(1.03405 -0.440887 -6.46624e-21)
(1.07664 -0.424804 -2.59298e-21)
(1.10033 -0.395748 -8.22643e-21)
(1.11216 -0.360099 -1.54995e-20)
(1.11684 -0.322229 2.0893e-20)
(1.11776 -0.285092 -2.35766e-20)
(1.11679 -0.250202 6.54522e-20)
(1.11497 -0.218152 7.24314e-21)
(1.11271 -0.188972 -3.51526e-20)
(1.11016 -0.162374 7.41465e-20)
(0.20822 -0.0929803 9.13485e-20)
(0.495618 -0.228992 6.83349e-20)
(0.710325 -0.331712 6.46802e-21)
(0.864342 -0.396284 -5.20887e-20)
(0.972097 -0.42931 -3.28543e-20)
(1.04242 -0.434638 3.07787e-21)
(1.08565 -0.420301 2.2679e-21)
(1.10952 -0.392685 2.67477e-21)
(1.12114 -0.358128 -1.69853e-20)
(1.12536 -0.320999 8.1912e-21)
(1.12567 -0.284337 -6.48789e-21)
(1.12406 -0.249723 -3.55596e-20)
(1.12162 -0.217825 2.88084e-20)
(1.11879 -0.188719 8.04213e-21)
(1.11574 -0.162142 -1.72949e-20)
(1.11243 -0.137831 1.44807e-20)
(0.208346 -0.0885027 1.62168e-20)
(0.497068 -0.220131 -5.67579e-20)
(0.713463 -0.321508 -4.76181e-21)
(0.86935 -0.386409 -8.20755e-22)
(0.978732 -0.42086 1.05295e-20)
(1.05031 -0.42795 2.02136e-20)
(1.09429 -0.415391 -2.86979e-21)
(1.11845 -0.389263 -4.4616e-21)
(1.12995 -0.355854 6.3851e-21)
(1.13376 -0.319518 -1.75132e-20)
(1.13352 -0.283372 1.6148e-20)
(1.13129 -0.249071 -8.16308e-21)
(1.12825 -0.217354 2.27424e-21)
(1.12487 -0.188343 -8.89563e-21)
(1.12133 -0.161807 -1.23976e-20)
(1.11761 -0.1375 1.1285e-21)
(0.208224 -0.0839863 -6.16919e-20)
(0.498008 -0.211115 3.64294e-20)
(0.715978 -0.311028 1.49157e-20)
(0.87372 -0.376166 5.64872e-21)
(0.984785 -0.411992 3.53487e-20)
(1.05772 -0.420838 -3.54205e-20)
(1.10256 -0.41008 9.38515e-21)
(1.1271 -0.385487 1.12055e-20)
(1.13856 -0.353277 3.45033e-21)
(1.14205 -0.317785 1.66764e-21)
(1.1413 -0.2822 -1.933e-20)
(1.13849 -0.248248 -9.10099e-22)
(1.13486 -0.21674 2.49365e-20)
(1.13094 -0.187847 7.34206e-20)
(1.12693 -0.161371 2.03201e-20)
(1.1228 -0.137085 -2.42305e-20)
(1.11865 -0.114417 -1.68508e-20)
(0.207856 -0.0794435 -5.50143e-20)
(0.498436 -0.201967 2.05414e-20)
(0.717863 -0.300297 -4.6195e-20)
(0.877439 -0.36558 1.16868e-20)
(0.990239 -0.402725 -2.83383e-20)
(1.06462 -0.413312 3.49225e-20)
(1.11042 -0.404377 -2.74029e-20)
(1.13545 -0.38136 -4.76202e-21)
(1.14697 -0.3504 -2.92365e-21)
(1.15019 -0.315802 -8.91611e-21)
(1.14899 -0.280823 2.25648e-20)
(1.14563 -0.247254 1.95709e-20)
(1.14144 -0.215983 -3.69372e-20)
(1.13699 -0.187233 3.86997e-21)
(1.13252 -0.160836 -2.16338e-20)
(1.12801 -0.136587 -3.27722e-21)
(1.12353 -0.11392 -2.43771e-20)
(0.207244 -0.0748864 -1.80016e-20)
(0.498351 -0.19271 2.81756e-20)
(0.719113 -0.289344 5.70317e-20)
(0.880494 -0.354674 1.198e-20)
(0.995075 -0.393078 -4.00617e-20)
(1.07099 -0.405388 -3.44797e-21)
(1.11787 -0.39829 9.87434e-21)
(1.14349 -0.376888 1.2293e-20)
(1.15515 -0.347227 -1.67758e-21)
(1.15819 -0.313571 4.47548e-21)
(1.15658 -0.27924 -1.4791e-20)
(1.15271 -0.246091 -4.11758e-21)
(1.14799 -0.215087 -1.7257e-20)
(1.14304 -0.1865 -2.58912e-20)
(1.13811 -0.160203 2.17315e-20)
(1.13321 -0.136008 1.6659e-20)
(1.12843 -0.113359 7.89829e-21)
(1.12355 -0.0924966 -4.4554e-20)
(0.206391 -0.0703272 4.75927e-20)
(0.497755 -0.183369 -2.00649e-20)
(0.719722 -0.278195 1.64534e-20)
(0.882874 -0.343475 -7.74929e-21)
(0.999278 -0.383071 4.78613e-20)
(1.0768 -0.397078 -5.81863e-20)
(1.12487 -0.391828 1.16657e-20)
(1.15119 -0.372075 1.92812e-21)
(1.1631 -0.343759 -8.14025e-21)
(1.16603 -0.311093 2.82341e-21)
(1.16407 -0.277454 1.20746e-20)
(1.15973 -0.24476 -8.34331e-21)
(1.1545 -0.214051 3.22554e-20)
(1.14905 -0.185652 2.17201e-21)
(1.14369 -0.159474 1.26339e-20)
(1.13842 -0.13535 7.57178e-21)
(1.13333 -0.112735 1.49424e-20)
(1.12824 -0.0918671 -1.74155e-21)
(1.12345 -0.0710301 2.59627e-20)
(0.205301 -0.0657775 -4.01113e-20)
(0.496651 -0.173968 -2.76873e-20)
(0.719688 -0.266877 -5.22408e-21)
(0.88457 -0.332008 -7.71647e-21)
(1.00283 -0.372726 6.26266e-20)
(1.08205 -0.3884 5.24994e-20)
(1.13141 -0.385001 6.46626e-21)
(1.15855 -0.366927 -1.45577e-20)
(1.17079 -0.339999 1.26818e-20)
(1.17369 -0.308371 -3.40288e-21)
(1.17145 -0.275466 -3.65488e-21)
(1.16668 -0.243263 -5.1545e-22)
(1.16096 -0.212877 -6.68507e-21)
(1.15505 -0.18469 -1.03344e-21)
(1.14925 -0.15865 -5.34482e-20)
(1.14363 -0.134614 -1.71587e-22)
(1.13824 -0.11205 -1.39333e-20)
(1.13295 -0.0911909 -1.76015e-20)
(1.12797 -0.0703605 -1.69538e-20)
(1.12284 -0.0525586 -8.86301e-21)
(0.203978 -0.061249 6.6412e-20)
(0.495043 -0.16453 9.39652e-21)
(0.71901 -0.255419 -1.98394e-20)
(0.885573 -0.3203 -2.54081e-20)
(1.00572 -0.362064 -7.09011e-20)
(1.08672 -0.379367 3.1829e-20)
(1.13746 -0.377818 1.79631e-20)
(1.16552 -0.361449 -3.6736e-22)
(1.17822 -0.335952 3.6792e-22)
(1.18117 -0.305405 6.98403e-21)
(1.1787 -0.273276 -1.45292e-21)
(1.17354 -0.241601 1.21309e-20)
(1.16738 -0.211568 8.57489e-21)
(1.16101 -0.183615 -1.31742e-20)
(1.1548 -0.157732 7.05163e-21)
(1.14883 -0.133802 -1.20431e-22)
(1.14315 -0.111306 -2.72536e-20)
(1.13766 -0.0904701 3.6306e-21)
(1.1325 -0.0696666 3.28419e-20)
(1.12738 -0.0517227 -3.86032e-20)
(0.202427 -0.0567528 -8.32448e-20)
(0.492935 -0.155079 -5.29739e-20)
(0.717688 -0.243847 -1.08497e-21)
(0.885877 -0.308377 3.07327e-20)
(1.00793 -0.351107 -3.33568e-20)
(1.09077 -0.369997 -3.22384e-20)
(1.14301 -0.370291 1.25288e-20)
(1.17211 -0.355649 -8.50703e-21)
(1.18535 -0.331619 1.04191e-20)
(1.18844 -0.302199 5.52875e-21)
(1.18581 -0.270887 -9.49261e-22)
(1.18032 -0.239775 -5.41657e-21)
(1.17373 -0.210124 -5.90507e-21)
(1.16694 -0.182429 8.46591e-21)
(1.16033 -0.156724 1.13153e-20)
(1.15402 -0.132915 -2.64875e-20)
(1.14806 -0.110505 1.94002e-20)
(1.14238 -0.0897071 -1.21927e-20)
(1.13705 -0.0689506 -4.19482e-20)
(1.13194 -0.0508772 3.96984e-20)
(0.200655 -0.0522998 9.17745e-20)
(0.490335 -0.145636 1.24161e-19)
(0.715723 -0.232189 4.68513e-20)
(0.885476 -0.296266 -5.91765e-20)
(1.00945 -0.339878 -2.73116e-21)
(1.09421 -0.360306 1.87239e-20)
(1.14804 -0.362431 -5.23898e-20)
(1.17828 -0.349533 1.85269e-20)
(1.19218 -0.327004 -1.06324e-20)
(1.1955 -0.298753 -7.43851e-21)
(1.19278 -0.2683 1.90912e-21)
(1.187 -0.237787 2.04489e-22)
(1.18003 -0.208547 2.85301e-21)
(1.17282 -0.181133 -5.91807e-22)
(1.16583 -0.155626 3.38401e-21)
(1.15919 -0.131957 2.08428e-21)
(1.15297 -0.109649 7.70517e-21)
(1.1471 -0.0889038 9.06047e-21)
(1.14162 -0.0682147 -2.52056e-21)
(1.1365 -0.0500268 -1.50245e-20)
(0.198666 -0.0479007 -2.09172e-20)
(0.487249 -0.136226 -7.01008e-21)
(0.713119 -0.220473 2.17426e-20)
(0.884366 -0.283995 1.74382e-20)
(1.01027 -0.328401 2.87562e-20)
(1.097 -0.350313 -3.44528e-20)
(1.15253 -0.354249 3.17522e-20)
(1.18403 -0.343107 -9.67889e-21)
(1.19869 -0.322113 1.22759e-20)
(1.20233 -0.295069 3.42272e-21)
(1.19959 -0.265516 -8.97517e-22)
(1.19357 -0.235637 6.33533e-22)
(1.18625 -0.206837 2.65073e-21)
(1.17866 -0.179729 -1.58079e-21)
(1.17131 -0.154439 -1.91558e-21)
(1.16435 -0.130927 1.54484e-20)
(1.15786 -0.108738 -5.6923e-22)
(1.15182 -0.0880625 -8.44982e-21)
(1.14619 -0.0674609 3.21905e-21)
(1.14107 -0.0491756 -2.13219e-20)
(0.196468 -0.0435656 -2.75761e-20)
(0.483688 -0.126869 -2.53983e-20)
(0.709881 -0.208726 -1.14673e-19)
(0.882546 -0.271592 7.10386e-20)
(1.01038 -0.316699 -1.61312e-21)
(1.09914 -0.340035 2.77097e-20)
(1.15646 -0.345759 -1.97277e-20)
(1.18932 -0.336379 6.93947e-21)
(1.20485 -0.316947 8.46654e-21)
(1.20891 -0.291151 -6.58188e-21)
(1.20623 -0.262537 -6.87797e-21)
(1.20003 -0.233327 -2.37133e-21)
(1.19239 -0.204997 -1.65966e-21)
(1.18445 -0.178218 9.58467e-22)
(1.17674 -0.153166 7.86011e-21)
(1.16948 -0.129828 -4.244e-21)
(1.16274 -0.107776 4.60939e-21)
(1.15653 -0.087185 -1.80708e-21)
(1.15076 -0.066691 6.69026e-21)
(1.14563 -0.0483278 2.23529e-20)
(0.194068 -0.0393042 2.3051e-20)
(0.479661 -0.117588 -2.34376e-20)
(0.706015 -0.196975 1.21935e-19)
(0.880015 -0.259083 -1.18327e-19)
(1.00977 -0.304796 5.60428e-20)
(1.10061 -0.329492 -1.93412e-20)
(1.15981 -0.336973 -2.21616e-20)
(1.19414 -0.329359 4.57488e-21)
(1.21065 -0.311513 2.74204e-21)
(1.21523 -0.287 -2.19151e-21)
(1.21268 -0.259363 1.37523e-20)
(1.20636 -0.230858 -1.43568e-21)
(1.19846 -0.203028 -8.27098e-22)
(1.19018 -0.176602 -7.73413e-22)
(1.18214 -0.151807 -9.92983e-21)
(1.17459 -0.128661 -8.53962e-21)
(1.1676 -0.106763 -1.12562e-20)
(1.16123 -0.0862733 3.05259e-21)
(1.15533 -0.0659067 5.61227e-21)
(0.191474 -0.0351259 5.2419e-20)
(0.475179 -0.108403 -3.09401e-20)
(0.701529 -0.185246 -2.61961e-20)
(0.876774 -0.246497 7.1929e-20)
(1.00843 -0.292718 -3.74826e-20)
(1.10139 -0.318704 -3.55079e-20)
(1.16256 -0.327904 -9.81492e-22)
(1.19847 -0.322053 -1.99668e-20)
(1.21608 -0.305813 -2.93447e-20)
(1.22127 -0.282618 1.6026e-21)
(1.21894 -0.255996 -1.28801e-20)
(1.21256 -0.228231 3.44989e-21)
(1.20443 -0.200931 -9.4793e-22)
(1.19585 -0.174882 8.55585e-22)
(1.1875 -0.150365 3.14818e-21)
(1.17966 -0.127428 -2.97866e-21)
(1.17245 -0.105701 2.8547e-21)
(1.16591 -0.0853292 -1.29186e-21)
(1.15989 -0.0651095 5.67608e-22)
(0.188692 -0.0310395 -5.92699e-20)
(0.470255 -0.0993352 1.46079e-20)
(0.696432 -0.173567 6.8938e-21)
(0.872826 -0.233861 -1.74827e-21)
(1.00637 -0.28049 -1.36004e-20)
(1.10148 -0.30769 7.68576e-20)
(1.16469 -0.318568 1.94835e-20)
(1.20229 -0.31447 1.73546e-20)
(1.2211 -0.299855 1.99285e-20)
(1.22702 -0.278008 1.59543e-20)
(1.225 -0.252437 8.76281e-21)
(1.21862 -0.225447 -2.52962e-21)
(1.2103 -0.198706 1.70185e-21)
(1.20145 -0.173059 -7.28054e-22)
(1.1928 -0.14884 3.93691e-21)
(1.1847 -0.12613 6.01672e-21)
(1.17726 -0.104591 1.05792e-22)
(1.17057 -0.0843541 5.22704e-21)
(1.16444 -0.0643006 2.25537e-21)
(0.185733 -0.0270533 4.17808e-20)
(0.464902 -0.0904036 2.66658e-20)
(0.690737 -0.161962 -6.45209e-20)
(0.868175 -0.221203 3.37281e-20)
(1.00357 -0.268136 -2.43491e-21)
(1.10086 -0.296471 -4.79674e-20)
(1.16619 -0.308979 -3.03647e-20)
(1.20559 -0.306621 -2.05277e-21)
(1.22571 -0.293641 -4.21565e-21)
(1.23245 -0.273172 -1.3682e-20)
(1.23082 -0.248687 -4.54898e-21)
(1.22452 -0.222507 1.57603e-21)
(1.21607 -0.196354 -5.26605e-22)
(1.20697 -0.171135 -1.59385e-22)
(1.19806 -0.147235 -2.0129e-21)
(1.18971 -0.124769 -1.16444e-21)
(1.18205 -0.103435 1.63437e-21)
(1.17521 -0.0833497 -2.0149e-21)
(1.16897 -0.0634812 -4.75488e-21)
(0.182605 -0.0231753 -1.25655e-20)
(0.459135 -0.0816271 -3.18779e-20)
(0.684454 -0.150458 5.99859e-21)
(0.862828 -0.208551 -3.7234e-20)
(1.00003 -0.255683 8.47624e-21)
(1.09952 -0.285068 2.25498e-20)
(1.16704 -0.299152 1.62335e-20)
(1.20833 -0.298515 9.00923e-21)
(1.22989 -0.287179 -2.63217e-20)
(1.23756 -0.268113 -3.24243e-22)
(1.23641 -0.244749 1.45296e-22)
(1.23025 -0.219411 8.3838e-22)
(1.22172 -0.193878 -1.75122e-21)
(1.21242 -0.169109 -1.34119e-21)
(1.20326 -0.145549 2.44377e-22)
(1.19466 -0.123345 -7.32984e-22)
(1.1868 -0.102233 9.45331e-22)
(1.17982 -0.0823172 1.16794e-21)
(1.17348 -0.0626521 -9.01192e-22)
(0.179317 -0.0194127 -9.23703e-22)
(0.452968 -0.0730238 3.69168e-20)
(0.677598 -0.139078 7.81021e-21)
(0.856792 -0.195931 -9.27292e-21)
(0.995756 -0.243157 -3.44617e-20)
(1.09746 -0.273503 -3.60093e-21)
(1.16723 -0.289104 1.54299e-20)
(1.2105 -0.290163 -1.95959e-20)
(1.2336 -0.280474 2.466e-20)
(1.24231 -0.262835 6.35897e-21)
(1.24175 -0.240622 2.92748e-21)
(1.23581 -0.216161 -2.21179e-21)
(1.22724 -0.191276 4.5097e-22)
(1.21778 -0.166984 6.8674e-22)
(1.20839 -0.143784 -3.66161e-22)
(1.19957 -0.12186 -3.12627e-22)
(1.19151 -0.100987 2.00366e-22)
(1.18439 -0.0812577 2.78066e-22)
(1.17796 -0.0618138 2.72265e-21)
(0.175878 -0.0157724 -3.21597e-21)
(0.446419 -0.0646108 -2.12069e-20)
(0.670184 -0.127847 3.39152e-20)
(0.850077 -0.183371 9.7999e-21)
(0.990744 -0.230583 1.41969e-20)
(1.09466 -0.261799 -1.14217e-20)
(1.16674 -0.278851 -8.22017e-21)
(1.21209 -0.281576 -2.01315e-21)
(1.23684 -0.273532 -6.42647e-21)
(1.2467 -0.257339 -1.15599e-20)
(1.24682 -0.236308 -4.71648e-21)
(1.24117 -0.212755 3.48861e-21)
(1.23264 -0.18855 1.07877e-21)
(1.22305 -0.16476 1.76004e-21)
(1.21346 -0.14194 3.51764e-23)
(1.20443 -0.120314 1.06108e-22)
(1.19618 -0.0996977 1.07731e-21)
(1.18893 -0.0801721 -1.40931e-21)
(1.1824 -0.0609669 7.30619e-22)
(0.172298 -0.0122606 -9.31914e-21)
(0.439504 -0.0564045 -8.06298e-21)
(0.662229 -0.116787 -2.21441e-20)
(0.842693 -0.170897 7.83335e-21)
(0.984998 -0.217987 6.99881e-21)
(1.09112 -0.249977 1.39574e-21)
(1.16556 -0.268411 3.53308e-21)
(1.21307 -0.272765 5.67715e-21)
(1.23958 -0.266361 1.89677e-21)
(1.2507 -0.25163 9.05757e-21)
(1.2516 -0.231808 2.82709e-21)
(1.24633 -0.209196 -1.51898e-21)
(1.23789 -0.185699 9.12266e-22)
(1.22821 -0.162437 -1.78423e-21)
(1.21845 -0.14002 4.0956e-22)
(1.20923 -0.11871 -4.84842e-23)
(1.20081 -0.0983656 -2.50746e-22)
(1.19342 -0.0790611 1.39674e-21)
(1.18682 -0.0601115 -8.97778e-23)
(0.168587 -0.00888296 8.8531e-21)
(0.432241 -0.0484201 4.80472e-21)
(0.65375 -0.105922 1.12652e-21)
(0.834654 -0.158536 -6.64473e-21)
(0.978522 -0.205397 1.07777e-21)
(1.08684 -0.238061 -3.5298e-21)
(1.16367 -0.257801 7.08449e-22)
(1.21343 -0.263743 2.96043e-21)
(1.2418 -0.258967 -3.56777e-21)
(1.2543 -0.24571 -2.92514e-21)
(1.25608 -0.227124 6.50676e-22)
(1.25128 -0.205484 -2.52764e-23)
(1.24299 -0.182725 -9.57208e-22)
(1.23327 -0.160016 6.90637e-22)
(1.22337 -0.138022 -1.12532e-22)
(1.21397 -0.117046 2.68186e-23)
(1.20538 -0.0969914 -4.47559e-23)
(1.19787 -0.0779253 -3.44531e-22)
(1.19119 -0.0592477 -9.33369e-23)
(0.164756 -0.00564469 9.1086e-21)
(0.424649 -0.040672 5.18585e-21)
(0.644767 -0.0952724 1.16829e-21)
(0.825973 -0.146312 -6.84824e-21)
(0.971322 -0.192836 1.10785e-21)
(1.0818 -0.226074 -3.99422e-21)
(1.16106 -0.24704 1.02609e-21)
(1.21314 -0.254522 3.26526e-21)
(1.24348 -0.251357 -3.98805e-21)
(1.25747 -0.239583 -3.16922e-21)
(1.26024 -0.222256 4.92993e-22)
(1.25598 -0.201618 7.87779e-23)
(1.24792 -0.179627 -1.21524e-21)