/*--------------------------------*- C++ -*----------------------------------*\
  =========                 |
  \\      /  F ield         | OpenFOAM: The Open Source CFD Toolbox
   \\    /   O peration     | Website:  https://openfoam.org
    \\  /    A nd           | Version:  7
     \\/     M anipulation  |
\*---------------------------------------------------------------------------*/
FoamFile
{
    version     2.0;
    format      ascii;
    class       volScalarField;
    location    "5";
    object      p;
}
// * * * * * * * * * * * * * * * * * * * * * * * * * * * * * * * * * * * * * //

dimensions      [0 2 -2 0 0 0 0];

internalField   nonuniform List<scalar> 
42000
(
-0.411092
-0.413792
-0.407866
-0.400473
-0.390236
-0.378622
-0.365815
-0.352232
-0.338121
-0.323681
-0.309082
-0.294454
-0.279921
-0.265577
-0.251554
-0.237876
-0.224844
-0.21205
-0.200846
-0.188496
-0.411386
-0.413994
-0.408049
-0.400619
-0.390365
-0.378733
-0.365916
-0.352325
-0.338207
-0.323763
-0.30916
-0.29453
-0.279995
-0.265648
-0.251622
-0.237938
-0.224903
-0.212087
-0.200922
-0.188404
-0.411971
-0.414396
-0.408416
-0.40091
-0.390623
-0.378956
-0.366118
-0.352509
-0.33838
-0.323927
-0.309318
-0.294682
-0.280142
-0.26579
-0.251758
-0.238062
-0.225023
-0.212162
-0.201074
-0.18822
-0.412848
-0.414999
-0.408965
-0.401346
-0.39101
-0.37929
-0.36642
-0.352785
-0.338637
-0.324171
-0.309552
-0.294909
-0.280362
-0.266002
-0.251961
-0.238247
-0.225201
-0.212273
-0.201301
-0.187947
-0.414012
-0.415801
-0.409695
-0.401925
-0.391523
-0.379733
-0.366821
-0.353151
-0.338979
-0.324495
-0.309864
-0.29521
-0.280654
-0.266283
-0.25223
-0.238492
-0.225437
-0.212421
-0.201602
-0.187587
-0.415462
-0.416798
-0.410603
-0.402645
-0.392162
-0.380285
-0.367319
-0.353605
-0.339404
-0.324898
-0.31025
-0.295584
-0.281017
-0.266632
-0.252564
-0.238796
-0.22573
-0.212605
-0.201975
-0.187144
-0.417194
-0.41799
-0.411688
-0.403505
-0.392925
-0.380942
-0.367914
-0.354147
-0.33991
-0.325377
-0.31071
-0.296028
-0.281447
-0.267046
-0.25296
-0.239157
-0.226079
-0.212823
-0.20242
-0.186621
-0.419202
-0.419374
-0.412947
-0.404503
-0.39381
-0.381704
-0.368602
-0.354774
-0.340496
-0.325931
-0.311241
-0.296541
-0.281944
-0.267524
-0.253418
-0.239573
-0.226481
-0.213074
-0.202934
-0.186024
-0.421483
-0.420945
-0.414376
-0.405636
-0.394813
-0.382569
-0.369383
-0.355484
-0.341159
-0.326557
-0.311842
-0.297121
-0.282506
-0.268063
-0.253934
-0.240043
-0.226935
-0.213358
-0.203513
-0.185357
-0.42403
-0.4227
-0.415972
-0.4069
-0.395933
-0.383533
-0.370253
-0.356275
-0.341896
-0.327254
-0.312509
-0.297764
-0.283128
-0.268661
-0.254506
-0.240563
-0.227439
-0.213672
-0.204156
-0.184627
-0.426837
-0.424634
-0.417732
-0.408294
-0.397166
-0.384593
-0.371209
-0.357144
-0.342705
-0.328018
-0.31324
-0.298468
-0.283809
-0.269314
-0.255131
-0.241131
-0.227989
-0.214015
-0.204857
-0.183841
-0.429896
-0.426745
-0.41965
-0.409813
-0.398509
-0.385748
-0.372249
-0.358089
-0.343584
-0.328846
-0.314031
-0.29923
-0.284544
-0.27002
-0.255805
-0.241744
-0.228583
-0.214386
-0.205613
-0.183004
-0.433201
-0.429025
-0.421723
-0.411453
-0.399959
-0.386993
-0.37337
-0.359105
-0.344529
-0.329736
-0.314881
-0.300046
-0.285332
-0.270774
-0.256525
-0.242398
-0.229218
-0.214781
-0.206419
-0.182124
-0.436745
-0.431468
-0.423945
-0.41321
-0.401512
-0.388326
-0.374568
-0.360191
-0.345536
-0.330684
-0.315784
-0.300914
-0.286167
-0.271574
-0.257289
-0.243091
-0.22989
-0.215198
-0.207269
-0.181209
-0.440521
-0.434069
-0.42631
-0.415081
-0.403164
-0.389742
-0.375841
-0.361342
-0.346603
-0.331686
-0.316738
-0.301829
-0.287047
-0.272415
-0.25809
-0.243817
-0.230596
-0.215636
-0.208157
-0.180265
-0.44451
-0.436829
-0.428814
-0.41706
-0.40491
-0.391238
-0.377183
-0.362555
-0.347727
-0.33274
-0.31774
-0.302787
-0.287968
-0.273293
-0.258927
-0.244574
-0.23133
-0.216091
-0.209077
-0.179299
-0.448711
-0.439734
-0.431451
-0.419144
-0.406747
-0.39281
-0.378593
-0.363827
-0.348903
-0.333841
-0.318784
-0.303785
-0.288925
-0.274205
-0.259793
-0.245358
-0.23209
-0.216561
-0.210021
-0.178319
-0.453115
-0.442779
-0.434215
-0.421326
-0.40867
-0.394455
-0.380065
-0.365154
-0.350128
-0.334986
-0.319869
-0.304819
-0.289914
-0.275146
-0.260686
-0.246164
-0.232869
-0.217043
-0.210983
-0.17733
-0.457709
-0.445957
-0.437099
-0.423603
-0.410675
-0.396168
-0.381597
-0.366533
-0.351398
-0.336171
-0.320989
-0.305885
-0.290932
-0.276111
-0.2616
-0.246987
-0.233665
-0.217533
-0.211953
-0.176339
-0.462485
-0.449262
-0.440097
-0.425969
-0.412758
-0.397944
-0.383184
-0.367959
-0.35271
-0.337393
-0.322141
-0.306978
-0.291973
-0.277097
-0.262531
-0.247824
-0.23447
-0.218029
-0.212924
-0.175352
-0.46743
-0.452687
-0.443203
-0.428419
-0.414912
-0.399781
-0.384823
-0.36943
-0.35406
-0.338647
-0.323321
-0.308096
-0.293034
-0.278098
-0.263473
-0.248669
-0.23528
-0.218527
-0.213886
-0.174373
-0.472536
-0.456223
-0.446409
-0.430948
-0.417134
-0.401674
-0.386509
-0.37094
-0.355445
-0.339931
-0.324525
-0.309232
-0.29411
-0.27911
-0.264423
-0.249518
-0.23609
-0.219023
-0.21483
-0.173408
-0.477789
-0.459864
-0.44971
-0.43355
-0.41942
-0.403618
-0.38824
-0.372487
-0.35686
-0.341239
-0.325749
-0.310384
-0.295197
-0.280129
-0.265375
-0.250367
-0.236894
-0.219514
-0.215747
-0.172461
-0.48318
-0.463602
-0.453098
-0.436221
-0.421763
-0.40561
-0.39001
-0.374067
-0.358301
-0.342568
-0.326989
-0.311547
-0.29629
-0.28115
-0.266325
-0.25121
-0.237685
-0.219997
-0.216627
-0.171534
-0.488697
-0.467429
-0.456567
-0.438953
-0.42416
-0.407645
-0.391816
-0.375676
-0.359766
-0.343915
-0.328241
-0.312716
-0.297384
-0.282168
-0.267266
-0.252043
-0.238459
-0.220469
-0.217458
-0.170631
-0.494328
-0.471337
-0.460108
-0.441742
-0.426605
-0.409719
-0.393654
-0.37731
-0.36125
-0.345275
-0.3295
-0.313888
-0.298475
-0.283178
-0.268195
-0.252862
-0.239209
-0.220926
-0.218231
-0.169755
-0.500063
-0.475318
-0.463716
-0.444583
-0.429094
-0.411828
-0.39552
-0.378966
-0.362749
-0.346645
-0.330763
-0.315057
-0.299558
-0.284175
-0.269105
-0.253661
-0.239929
-0.221367
-0.218936
-0.168909
-0.505888
-0.479364
-0.467382
-0.447469
-0.431621
-0.413967
-0.39741
-0.38064
-0.36426
-0.34802
-0.332026
-0.31622
-0.300629
-0.285154
-0.269993
-0.254436
-0.240614
-0.221789
-0.219559
-0.168095
-0.511793
-0.483467
-0.4711
-0.450395
-0.434182
-0.416133
-0.399321
-0.382327
-0.365779
-0.349397
-0.333283
-0.317371
-0.301682
-0.286112
-0.270852
-0.255183
-0.241258
-0.222193
-0.220091
-0.167318
-0.517765
-0.487618
-0.474861
-0.453355
-0.436771
-0.41832
-0.401247
-0.384024
-0.367301
-0.35077
-0.334531
-0.318507
-0.302713
-0.287041
-0.271677
-0.255897
-0.241856
-0.222578
-0.220518
-0.166583
-0.523793
-0.491809
-0.478659
-0.456343
-0.439384
-0.420524
-0.403185
-0.385727
-0.368823
-0.352137
-0.335765
-0.319621
-0.303715
-0.287937
-0.272464
-0.256576
-0.242402
-0.222947
-0.220828
-0.1659
-0.529864
-0.496032
-0.482486
-0.459354
-0.442015
-0.422742
-0.405131
-0.387432
-0.37034
-0.353492
-0.336979
-0.320709
-0.304685
-0.288795
-0.273207
-0.257214
-0.242892
-0.223304
-0.221007
-0.165283
-0.535966
-0.500277
-0.486333
-0.462381
-0.44466
-0.424968
-0.407081
-0.389134
-0.371848
-0.35483
-0.33817
-0.321765
-0.305616
-0.289609
-0.2739
-0.257809
-0.243323
-0.223658
-0.221039
-0.164753
-0.542087
-0.504536
-0.490195
-0.465419
-0.447312
-0.427198
-0.409029
-0.390829
-0.373343
-0.356147
-0.339332
-0.322784
-0.306501
-0.290374
-0.274539
-0.258357
-0.243691
-0.224019
-0.220906
-0.164347
-0.548214
-0.5088
-0.494062
-0.46846
-0.449966
-0.429426
-0.410972
-0.392513
-0.374819
-0.357438
-0.340458
-0.32376
-0.307336
-0.291081
-0.275118
-0.258854
-0.243994
-0.224403
-0.220595
-0.164141
-0.554334
-0.513059
-0.497926
-0.471499
-0.452617
-0.431649
-0.412904
-0.39418
-0.376271
-0.358697
-0.341544
-0.324687
-0.308114
-0.291727
-0.27563
-0.259295
-0.244232
-0.224829
-0.220095
-0.164265
-0.560435
-0.517306
-0.50178
-0.47453
-0.455258
-0.43386
-0.414821
-0.395826
-0.377694
-0.359918
-0.342583
-0.325557
-0.308827
-0.292302
-0.27607
-0.259675
-0.244404
-0.225321
-0.219368
-0.164758
-0.566508
-0.521535
-0.505619
-0.477549
-0.457888
-0.436056
-0.416718
-0.397447
-0.379084
-0.361097
-0.34357
-0.326366
-0.309469
-0.2928
-0.27643
-0.259988
-0.244516
-0.225914
-0.218304
-0.165443
-0.57254
-0.525738
-0.509437
-0.48055
-0.4605
-0.438233
-0.418591
-0.399036
-0.380434
-0.362227
-0.344497
-0.327104
-0.310032
-0.293212
-0.276701
-0.260225
-0.244576
-0.226657
-0.21693
-0.167158
-0.578484
-0.529873
-0.513194
-0.483501
-0.463067
-0.440368
-0.420422
-0.400579
-0.381732
-0.363295
-0.345354
-0.327763
-0.310507
-0.293529
-0.276875
-0.260372
-0.244584
-0.227552
-0.215929
-0.175757
-0.584249
-0.533853
-0.516814
-0.486336
-0.465534
-0.442415
-0.422171
-0.402045
-0.382952
-0.364283
-0.346125
-0.328329
-0.310882
-0.293741
-0.27694
-0.260411
-0.244504
-0.228419
-0.215891
-0.200306
-0.590035
-0.537876
-0.520473
-0.489208
-0.468025
-0.444475
-0.423919
-0.403492
-0.384136
-0.365218
-0.346826
-0.32881
-0.311157
-0.293839
-0.276882
-0.260315
-0.24428
-0.229031
-0.214938
-0.210416
-0.595762
-0.54186
-0.524096
-0.492051
-0.470488
-0.446502
-0.425626
-0.40489
-0.385259
-0.366079
-0.34744
-0.32919
-0.31132
-0.293814
-0.276689
-0.260064
-0.243878
-0.229256
-0.213378
-0.213978
-0.60138
-0.545759
-0.527644
-0.49483
-0.472891
-0.448471
-0.427272
-0.40622
-0.386306
-0.366853
-0.347954
-0.329459
-0.31136
-0.293656
-0.276353
-0.259646
-0.243288
-0.229096
-0.211788
-0.215483
-0.606876
-0.549564
-0.531108
-0.49754
-0.475228
-0.450376
-0.42885
-0.407474
-0.387267
-0.367531
-0.348361
-0.329609
-0.31127
-0.293354
-0.275862
-0.259049
-0.242508
-0.228575
-0.210184
-0.215712
-0.61224
-0.553268
-0.534481
-0.500173
-0.477493
-0.45221
-0.430353
-0.408647
-0.388137
-0.368104
-0.348652
-0.329631
-0.31104
-0.292901
-0.275209
-0.258266
-0.241534
-0.227718
-0.208504
-0.214863
-0.617457
-0.556861
-0.537753
-0.502721
-0.479677
-0.453966
-0.431774
-0.40973
-0.388906
-0.368566
-0.348819
-0.329515
-0.310661
-0.292288
-0.274386
-0.257291
-0.240364
-0.226549
-0.206725
-0.213194
-0.622513
-0.560331
-0.540914
-0.505176
-0.481773
-0.455634
-0.433102
-0.410712
-0.389564
-0.368905
-0.348851
-0.329254
-0.310126
-0.291508
-0.273386
-0.25612
-0.238997
-0.225093
-0.204842
-0.210927
-0.627393
-0.563667
-0.543954
-0.507527
-0.48377
-0.457206
-0.434328
-0.411586
-0.390103
-0.369113
-0.348739
-0.328838
-0.309427
-0.290553
-0.272203
-0.25475
-0.237433
-0.223375
-0.202846
-0.208217
-0.632083
-0.566857
-0.546861
-0.509765
-0.485659
-0.458671
-0.435444
-0.412341
-0.390513
-0.369181
-0.348476
-0.32826
-0.308555
-0.289418
-0.270833
-0.253181
-0.235674
-0.221415
-0.20073
-0.205173
-0.636567
-0.56989
-0.549624
-0.511879
-0.487429
-0.46002
-0.436439
-0.412967
-0.390783
-0.369097
-0.348051
-0.327509
-0.307504
-0.288095
-0.269271
-0.251411
-0.233719
-0.21923
-0.198488
-0.201874
-0.64083
-0.572753
-0.55223
-0.513859
-0.489071
-0.461243
-0.437303
-0.413454
-0.390904
-0.368853
-0.347455
-0.326579
-0.306265
-0.28658
-0.267514
-0.24944
-0.231572
-0.216835
-0.196113
-0.198377
-0.644857
-0.575434
-0.55467
-0.515694
-0.490572
-0.462328
-0.438025
-0.413791
-0.390864
-0.368439
-0.346679
-0.325461
-0.304833
-0.284868
-0.265559
-0.247269
-0.229233
-0.214244
-0.193602
-0.194724
-0.648631
-0.57792
-0.556929
-0.517372
-0.491923
-0.463266
-0.438593
-0.413967
-0.390654
-0.367844
-0.345714
-0.324147
-0.303201
-0.282953
-0.263402
-0.244898
-0.226705
-0.211466
-0.190951
-0.190943
-0.652136
-0.580198
-0.558995
-0.518882
-0.493112
-0.464043
-0.438996
-0.413971
-0.390263
-0.36706
-0.344551
-0.322631
-0.301364
-0.280833
-0.261042
-0.242328
-0.22399
-0.208509
-0.188159
-0.187054
-0.655357
-0.582255
-0.560857
-0.520212
-0.494126
-0.46465
-0.439224
-0.413791
-0.389679
-0.366075
-0.343181
-0.320903
-0.299315
-0.278503
-0.258478
-0.239559
-0.221089
-0.205381
-0.185222
-0.18307
-0.658276
-0.584077
-0.562499
-0.521349
-0.494953
-0.465072
-0.439263
-0.413417
-0.388893
-0.36488
-0.341597
-0.318959
-0.297049
-0.27596
-0.255707
-0.236594
-0.218004
-0.202086
-0.18214
-0.179
-0.660878
-0.585651
-0.563909
-0.522281
-0.495581
-0.465299
-0.439102
-0.412837
-0.387893
-0.363465
-0.33979
-0.316791
-0.294563
-0.273201
-0.25273
-0.233432
-0.214738
-0.19863
-0.17891
-0.174847
-0.663145
-0.586964
-0.565074
-0.522996
-0.495997
-0.465317
-0.438728
-0.412038
-0.386669
-0.361822
-0.337752
-0.314393
-0.291851
-0.270225
-0.249544
-0.230074
-0.211291
-0.195014
-0.175533
-0.170613
-0.66506
-0.588
-0.565979
-0.523479
-0.496187
-0.465114
-0.438129
-0.41101
-0.385211
-0.359941
-0.335475
-0.31176
-0.28891
-0.267028
-0.24615
-0.226523
-0.207666
-0.191242
-0.172008
-0.166298
-0.666606
-0.588746
-0.56661
-0.523718
-0.496139
-0.464676
-0.437293
-0.409741
-0.383507
-0.357814
-0.332953
-0.308886
-0.285736
-0.26361
-0.242548
-0.222779
-0.203863
-0.187316
-0.168335
-0.161901
-0.667766
-0.589187
-0.566954
-0.523698
-0.495839
-0.463992
-0.436207
-0.408219
-0.381548
-0.355431
-0.330179
-0.305766
-0.282327
-0.259968
-0.238737
-0.218843
-0.199885
-0.183237
-0.164514
-0.15742
-0.668524
-0.589309
-0.566994
-0.523407
-0.495273
-0.463047
-0.434859
-0.406433
-0.379324
-0.352785
-0.327147
-0.302397
-0.278679
-0.256103
-0.234718
-0.214717
-0.195734
-0.179008
-0.160546
-0.152853
-0.66886
-0.589098
-0.566718
-0.52283
-0.494428
-0.461828
-0.433236
-0.404373
-0.376826
-0.349868
-0.323851
-0.298774
-0.274792
-0.252013
-0.230492
-0.210402
-0.19141
-0.174629
-0.156431
-0.148196
-0.668759
-0.588538
-0.566109
-0.521954
-0.493289
-0.460323
-0.431327
-0.402026
-0.374044
-0.346672
-0.320285
-0.294894
-0.270662
-0.247699
-0.226059
-0.205899
-0.186916
-0.170102
-0.15217
-0.143447
-0.668203
-0.587616
-0.565155
-0.520764
-0.491844
-0.458518
-0.429119
-0.399383
-0.370969
-0.343192
-0.316445
-0.290755
-0.266289
-0.24316
-0.221421
-0.201211
-0.182254
-0.165428
-0.147766
-0.138605
-0.667176
-0.586316
-0.563839
-0.519246
-0.490078
-0.456401
-0.4266
-0.396434
-0.367594
-0.33942
-0.312327
-0.286352
-0.261673
-0.238396
-0.216579
-0.196338
-0.177425
-0.160608
-0.143218
-0.133665
-0.665659
-0.584624
-0.562147
-0.517386
-0.487977
-0.453959
-0.42376
-0.393169
-0.36391
-0.335351
-0.307926
-0.281686
-0.256811
-0.23341
-0.211533
-0.191283
-0.17243
-0.155644
-0.138529
-0.128628
-0.663636
-0.582525
-0.560065
-0.515171
-0.485529
-0.451179
-0.420587
-0.389578
-0.35991
-0.330979
-0.30324
-0.276753
-0.251706
-0.228201
-0.206287
-0.186049
-0.167274
-0.150537
-0.133701
-0.123491
-0.661091
-0.580006
-0.557578
-0.512587
-0.48272
-0.448049
-0.41707
-0.385653
-0.355587
-0.326301
-0.298266
-0.271554
-0.246356
-0.22277
-0.200842
-0.180636
-0.161956
-0.145289
-0.128736
-0.118252
-0.658007
-0.577052
-0.554673
-0.50962
-0.479538
-0.444558
-0.4132
-0.381385
-0.350936
-0.321311
-0.293001
-0.266088
-0.240763
-0.21712
-0.1952
-0.175047
-0.156481
-0.139902
-0.123635
-0.112913
-0.654368
-0.57365
-0.551334
-0.506257
-0.475969
-0.440695
-0.408966
-0.376768
-0.345951
-0.316007
-0.287444
-0.260354
-0.234927
-0.211253
-0.189363
-0.169286
-0.150849
-0.134377
-0.118402
-0.107471
-0.650158
-0.569785
-0.547549
-0.502486
-0.472001
-0.436448
-0.40436
-0.371793
-0.340626
-0.310386
-0.281595
-0.254353
-0.228851
-0.20517
-0.183335
-0.163353
-0.145065
-0.128717
-0.113038
-0.101927
-0.645361
-0.565446
-0.543304
-0.498293
-0.467623
-0.431807
-0.399373
-0.366454
-0.334959
-0.304445
-0.275452
-0.248087
-0.222537
-0.198875
-0.177117
-0.157253
-0.13913
-0.122923
-0.107547
-0.0962826
-0.639962
-0.560618
-0.538586
-0.493666
-0.462824
-0.426763
-0.393997
-0.360747
-0.328944
-0.298184
-0.269016
-0.241555
-0.215985
-0.192369
-0.170713
-0.150988
-0.133047
-0.116999
-0.101931
-0.0905373
-0.633945
-0.555289
-0.533382
-0.488594
-0.457592
-0.421306
-0.388225
-0.354665
-0.322579
-0.2916
-0.262288
-0.234761
-0.2092
-0.185656
-0.164125
-0.144561
-0.126819
-0.110947
-0.0961925
-0.0846926
-0.627298
-0.549448
-0.527681
-0.483065
-0.451919
-0.415428
-0.382051
-0.348204
-0.315862
-0.284693
-0.255268
-0.227707
-0.202184
-0.17874
-0.157358
-0.137975
-0.120449
-0.104769
-0.0903356
-0.0787503
-0.620021
-0.543097
-0.521481
-0.477076
-0.445797
-0.409124
-0.375471
-0.341362
-0.308793
-0.277465
-0.247958
-0.220394
-0.194939
-0.171623
-0.150415
-0.131235
-0.113941
-0.0984685
-0.084363
-0.0727121
-0.612105
-0.536228
-0.514774
-0.470619
-0.439221
-0.402388
-0.36848
-0.334137
-0.30137
-0.269916
-0.240361
-0.212827
-0.187471
-0.164309
-0.143299
-0.124342
-0.107298
-0.0920485
-0.078278
-0.0665803
-0.603396
-0.528734
-0.50748
-0.463634
-0.432149
-0.395191
-0.361061
-0.326519
-0.293589
-0.262046
-0.232478
-0.205008
-0.179782
-0.156803
-0.136014
-0.117301
-0.100523
-0.0855116
-0.0720832
-0.0603566
-0.593584
-0.520392
-0.499441
-0.456012
-0.424503
-0.387483
-0.353179
-0.318487
-0.28544
-0.253851
-0.22431
-0.19694
-0.171876
-0.149108
-0.128565
-0.110116
-0.0936196
-0.0788606
-0.0657815
-0.0540426
-0.583529
-0.511788
-0.491068
-0.448038
-0.41648
-0.379394
-0.344922
-0.310096
-0.276957
-0.245351
-0.215869
-0.188631
-0.16376
-0.141229
-0.120955
-0.10279
-0.0865919
-0.0721006
-0.0593786
-0.047644
-0.572931
-0.502702
-0.482203
-0.439596
-0.407998
-0.370868
-0.336253
-0.301325
-0.268128
-0.236542
-0.207157
-0.180085
-0.155436
-0.13317
-0.113189
-0.0953282
-0.079444
-0.0652348
-0.0528778
-0.0411629
-0.561643
-0.493028
-0.472769
-0.430633
-0.39902
-0.361882
-0.327158
-0.292167
-0.258951
-0.227426
-0.198175
-0.171305
-0.146911
-0.124938
-0.105273
-0.0877348
-0.07218
-0.0582668
-0.0462826
-0.0346025
-0.549661
-0.482766
-0.462765
-0.421147
-0.389544
-0.352435
-0.317637
-0.282624
-0.249431
-0.218008
-0.188929
-0.162297
-0.13819
-0.116536
-0.0972091
-0.0800141
-0.064804
-0.0512005
-0.0395968
-0.0279664
-0.536994
-0.471921
-0.452194
-0.411139
-0.379573
-0.342529
-0.307694
-0.2727
-0.239573
-0.208292
-0.179426
-0.153066
-0.129277
-0.10797
-0.0890043
-0.0721708
-0.0573204
-0.04404
-0.0328248
-0.0212578
-0.523642
-0.460493
-0.441054
-0.400606
-0.369104
-0.332164
-0.297331
-0.262399
-0.22938
-0.198286
-0.169671
-0.14362
-0.12018
-0.0992454
-0.080663
-0.0642095
-0.0497336
-0.0367897
-0.0259726
-0.0144785
-0.5096
-0.448477
-0.429343
-0.389548
-0.358138
-0.321343
-0.286552
-0.251725
-0.218859
-0.187993
-0.15967
-0.133964
-0.110903
-0.090368
-0.0721905
-0.0561351
-0.0420478
-0.0294522
-0.0190477
-0.00763116
-0.494868
-0.435873
-0.417058
-0.377963
-0.346675
-0.310066
-0.275359
-0.240685
-0.208017
-0.177423
-0.149431
-0.124104
-0.101454
-0.0813436
-0.0635923
-0.0479527
-0.0342676
-0.02203
-0.012044
-0.00073315
-0.479446
-0.42268
-0.4042
-0.365852
-0.334717
-0.298338
-0.263758
-0.229283
-0.196859
-0.166581
-0.13896
-0.114048
-0.0918381
-0.0721782
-0.054874
-0.0396673
-0.0263982
-0.0145402
-0.00495834
0.00621693
-0.463337
-0.4089
-0.39077
-0.353216
-0.322268
-0.286163
-0.251755
-0.217527
-0.185393
-0.155476
-0.128266
-0.103804
-0.0820632
-0.0628782
-0.0460411
-0.0312841
-0.0184439
-0.0069763
0.00218977
0.0132195
-0.446545
-0.394534
-0.37677
-0.340058
-0.30933
-0.273546
-0.239357
-0.205425
-0.173629
-0.144116
-0.117356
-0.0933779
-0.072136
-0.0534499
-0.0370998
-0.0228088
-0.0104102
0.000656404
0.00939736
0.0202694
-0.429075
-0.379586
-0.362203
-0.326382
-0.29591
-0.260494
-0.22657
-0.192985
-0.161573
-0.132509
-0.106239
-0.0827784
-0.0620636
-0.0438999
-0.0280559
-0.0142466
-0.00230229
0.00835217
0.0166614
0.0273616
-0.410933
-0.36406
-0.347075
-0.312194
-0.282014
-0.247015
-0.213405
-0.180215
-0.149237
-0.120665
-0.0949232
-0.0720134
-0.0518535
-0.034235
-0.0189158
-0.00560337
0.00587466
0.016106
0.0239774
0.0344915
-0.392129
-0.347962
-0.331392
-0.297499
-0.267648
-0.233116
-0.199869
-0.167126
-0.136628
-0.108593
-0.0834179
-0.0610915
-0.0415134
-0.0244622
-0.00968558
0.00311522
0.0141153
0.0239128
0.0313409
0.0416542
-0.372672
-0.331299
-0.315161
-0.282304
-0.252823
-0.218808
-0.185974
-0.153729
-0.123759
-0.0963034
-0.0717323
-0.050021
-0.0310511
-0.0145886
-0.000371888
0.0119032
0.0224143
0.0317677
0.0387471
0.0488448
-0.352573
-0.31408
-0.29839
-0.26662
-0.237546
-0.2041
-0.171729
-0.140034
-0.11064
-0.0838063
-0.0598761
-0.0388109
-0.0204746
-0.00462154
0.00901869
0.0207546
0.0307659
0.0396653
0.0461916
0.0560585
-0.331845
-0.296314
-0.281089
-0.250454
-0.22183
-0.189004
-0.157148
-0.126053
-0.0972816
-0.0711125
-0.0478593
-0.0274703
-0.00979215
0.00543163
0.0184794
0.0296632
0.0391647
0.0476005
0.0536694
0.0632903
-0.310503
-0.278012
-0.263269
-0.233819
-0.205686
-0.173533
-0.142242
-0.111799
-0.0836965
-0.0582331
-0.035692
-0.0160084
0.000987848
0.0155633
0.0280034
0.0386227
0.0476047
0.0555678
0.0611758
0.070535
-0.288562
-0.259186
-0.244944
-0.216727
-0.189126
-0.157699
-0.127025
-0.0972837
-0.0698968
-0.0451796
-0.0233847
-0.00443479
0.0118568
0.0257656
0.0375836
0.0476268
0.0560802
0.0635618
0.068706
0.0777876
-0.266039
-0.23985
-0.226125
-0.19919
-0.172165
-0.141516
-0.111511
-0.0825217
-0.0558953
-0.0319637
-0.0109483
0.00724093
0.022806
0.0360308
0.0472128
0.0566688
0.0645853
0.0715771
0.076255
0.0850428
-0.242953
-0.220019
-0.206829
-0.181224
-0.154817
-0.124999
-0.0957137
-0.0675268
-0.0417051
-0.0185976
0.0016065
0.0190088
0.0338265
0.0463508
0.0568838
0.0657423
0.0731137
0.0796078
0.083818
0.0922952
-0.219324
-0.199709
-0.187072
-0.162844
-0.137099
-0.108165
-0.0796495
-0.0523135
-0.0273397
-0.00509354
0.0142684
0.0308589
0.0449094
0.0567175
0.0665893
0.0748404
0.0816595
0.0876484
0.0913898
0.0995394
-0.195173
-0.178936
-0.166871
-0.144067
-0.119027
-0.091029
-0.063334
-0.0368968
-0.0128131
0.0085358
0.0270259
0.0427809
0.0560453
0.0671225
0.0763216
0.0839563
0.0902164
0.095693
0.0989656
0.10677
-0.170523
-0.157721
-0.146244
-0.12491
-0.100619
-0.0736093
-0.0467838
-0.0212921
0.00186058
0.0222775
0.0398676
0.0547644
0.067225
0.0775575
0.0860733
0.093083
0.098778
0.103735
0.10654
0.11398
-0.145397
-0.136082
-0.125212
-0.105393
-0.0818943
-0.0559234
-0.0300162
-0.00551551
0.0166668
0.0361186
0.0527817
0.066799
0.0784392
0.088014
0.0958365
0.102214
0.107338
0.11177
0.114109
0.121164
-0.11982
-0.11404
-0.103794
-0.0855359
-0.062872
-0.0379902
-0.0130486
0.0104168
0.0315907
0.0500456
0.0657563
0.0788739
0.0896781
0.0984834
0.105603
0.111341
0.11589
0.11979
0.121666
0.128316
-0.0938185
-0.0916179
-0.0820135
-0.0653589
-0.0435726
-0.0198289
0.00410065
0.0264881
0.0466171
0.0640451
0.0787794
0.0909786
0.100932
0.108957
0.115366
0.120458
0.124427
0.12779
0.129208
0.135427
-0.0674171
-0.0688413
-0.0598936
-0.0448839
-0.0240174
-0.00145977
0.0214129
0.0426814
0.0617308
0.0781033
0.0918387
0.103102
0.112192
0.119426
0.125117
0.129557
0.132942
0.135762
0.136729
0.14249
-0.0406479
-0.0457311
-0.0374581
-0.0241337
-0.00422827
0.0170968
0.0388691
0.0589794
0.0769162
0.0922064
0.104922
0.115233
0.123448
0.129882
0.134848
0.138631
0.141429
0.143701
0.144224
0.149495
-0.0135424
-0.0223107
-0.0147322
-0.00313206
0.015772
0.0358196
0.0564498
0.0753644
0.0921576
0.10634
0.118017
0.127362
0.134689
0.140316
0.144551
0.147672
0.149882
0.151599
0.15169
0.156433
0.0138735
0.00139003
0.00825815
0.0180967
0.0359601
0.054687
0.0741351
0.0918186
0.107439
0.120491
0.131111
0.139476
0.145907
0.150719
0.154218
0.156674
0.158292
0.159451
0.159122
0.16329
0.0415691
0.0253435
0.0314858
0.0395273
0.0563121
0.0736768
0.0919048
0.108324
0.122744
0.134645
0.144191
0.151565
0.157091
0.161082
0.16384
0.165629
0.166654
0.167248
0.166517
0.170051
0.0695125
0.0495217
0.0549231
0.0611338
0.0768032
0.0927666
0.109738
0.124862
0.138057
0.148787
0.157246
0.163618
0.168231
0.171396
0.173411
0.174529
0.17496
0.174984
0.173874
0.176696
0.0976725
0.0738959
0.0785415
0.0828896
0.0974087
0.111933
0.127615
0.141414
0.153361
0.162903
0.170262
0.175623
0.179318
0.181653
0.182921
0.183367
0.183204
0.182652
0.181188
0.1832
0.126019
0.0984372
0.102313
0.104768
0.118103
0.131154
0.145514
0.157962
0.168641
0.176978
0.183227
0.18757
0.190342
0.191844
0.192363
0.192137
0.191378
0.190245
0.18846
0.189527
0.154515
0.123112
0.126204
0.12674
0.13886
0.150405
0.163415
0.174488
0.183879
0.190999
0.196128
0.199447
0.201292
0.201959
0.201729
0.200831
0.199475
0.197758
0.195696
0.195647
0.183101
0.14787
0.150175
0.148772
0.159649
0.16966
0.181294
0.190971
0.199059
0.204951
0.208952
0.211243
0.21216
0.211991
0.211011
0.209442
0.207488
0.20519
0.202928
0.201536
0.211738
0.172673
0.174189
0.170832
0.180442
0.188895
0.19913
0.207392
0.214164
0.218819
0.221688
0.222948
0.222935
0.221931
0.220202
0.217962
0.215409
0.21254
0.210151
0.20705
0.24065
0.197648
0.198311
0.192946
0.201245
0.208102
0.216909
0.223737
0.229179
0.232589
0.234321
0.234549
0.233607
0.23177
0.229295
0.226387
0.223231
0.2198
0.217165
0.211569
0.270331
0.223089
0.222701
0.215199
0.22209
0.227288
0.234624
0.239992
0.244088
0.246245
0.246839
0.246036
0.244167
0.241499
0.238281
0.234709
0.230956
0.226969
0.223794
0.214187
0.299166
0.248025
0.246763
0.23723
0.242767
0.246333
0.252209
0.256119
0.258872
0.259776
0.259232
0.257399
0.254606
0.251111
0.247154
0.242922
0.238579
0.234059
0.230625
0.219877
0.327659
0.272767
0.270673
0.259134
0.263318
0.26525
0.269659
0.272108
0.273514
0.273166
0.271487
0.268627
0.264914
0.260596
0.255906
0.251021
0.246097
0.241057
0.237363
0.226453
0.356028
0.297429
0.294487
0.280932
0.283746
0.284029
0.286961
0.287943
0.288
0.286402
0.28359
0.279709
0.275082
0.269948
0.264529
0.258996
0.2535
0.247951
0.243885
0.232906
0.38423
0.321969
0.318165
0.302592
0.30402
0.302644
0.304093
0.303604
0.302314
0.299469
0.29553
0.290634
0.2851
0.279156
0.273016
0.266843
0.260779
0.254731
0.250234
0.239139
0.412201
0.346334
0.341665
0.324076
0.32411
0.321071
0.321032
0.319074
0.316439
0.312353
0.307295
0.301392
0.294958
0.288213
0.28136
0.274553
0.267927
0.261388
0.256434
0.245229
0.439902
0.370486
0.36495
0.345353
0.343987
0.339285
0.337758
0.334334
0.33036
0.325041
0.318872
0.311972
0.304649
0.297111
0.289553
0.282119
0.274938
0.267913
0.262487
0.251188
0.467299
0.394391
0.387988
0.366395
0.363626
0.357262
0.354249
0.349366
0.344062
0.33752
0.330251
0.322364
0.314162
0.305842
0.297588
0.289536
0.281804
0.2743
0.268391
0.257003
0.494354
0.418015
0.410746
0.387169
0.382998
0.374978
0.370485
0.364152
0.357529
0.349775
0.34142
0.332559
0.32349
0.314398
0.305458
0.296796
0.288521
0.280542
0.274145
0.262668
0.521029
0.441322
0.43319
0.407648
0.402077
0.392411
0.386446
0.378674
0.370745
0.361795
0.352366
0.342546
0.332622
0.322771
0.313156
0.303893
0.295083
0.286635
0.279749
0.26818
0.547288
0.464278
0.455287
0.427801
0.420836
0.409536
0.402111
0.392916
0.383696
0.373566
0.36308
0.352315
0.341551
0.330953
0.320675
0.310822
0.301484
0.292575
0.285202
0.273538
0.573092
0.486849
0.477005
0.447598
0.439249
0.426331
0.417462
0.406861
0.396368
0.385075
0.37355
0.361856
0.350269
0.338938
0.328009
0.317577
0.307721
0.298356
0.290503
0.27874
0.598405
0.509
0.498311
0.467011
0.457291
0.442773
0.432478
0.420491
0.408746
0.396311
0.383766
0.371162
0.358766
0.346718
0.335152
0.324152
0.313787
0.303976
0.295651
0.283785
0.623189
0.530697
0.519174
0.486012
0.474936
0.458841
0.44714
0.43379
0.420815
0.40726
0.393716
0.380222
0.367036
0.354286
0.342097
0.330541
0.319679
0.30943
0.300643
0.288671
0.647408
0.551909
0.539562
0.504572
0.492159
0.474514
0.46143
0.446744
0.432563
0.417912
0.403391
0.389027
0.37507
0.361636
0.348838
0.336741
0.325393
0.314714
0.305476
0.293396
0.671026
0.572601
0.559445
0.522664
0.508936
0.489769
0.47533
0.459335
0.443976
0.428255
0.412781
0.397569
0.38286
0.36876
0.35537
0.342745
0.330923
0.319827
0.31015
0.297959
0.694008
0.592743
0.578792
0.540261
0.525244
0.504587
0.488822
0.471548
0.455041
0.438277
0.421876
0.405839
0.3904
0.375652
0.361687
0.348549
0.336267
0.324764
0.314661
0.302358
0.716319
0.612303
0.597574
0.557338
0.541058
0.518948
0.50189
0.48337
0.465745
0.447968
0.430667
0.41383
0.397683
0.382307
0.367784
0.354149
0.34142
0.329522
0.319008
0.306591
0.737924
0.63125
0.615763
0.573869
0.556357
0.532832
0.514515
0.494786
0.476076
0.457317
0.439144
0.421533
0.404701
0.388717
0.373655
0.359539
0.346379
0.334098
0.323187
0.310657
0.758792
0.649556
0.63333
0.589828
0.571119
0.54622
0.526683
0.505782
0.486022
0.466314
0.447299
0.428941
0.411447
0.394878
0.379295
0.364716
0.351139
0.338488
0.327196
0.314553
0.778891
0.667191
0.650249
0.605193
0.585323
0.559095
0.538377
0.516345
0.495572
0.474949
0.455123
0.436045
0.417916
0.400783
0.3847
0.369675
0.355698
0.342691
0.331033
0.318278
0.798188
0.684127
0.666493
0.61994
0.598948
0.571439
0.549583
0.526462
0.504715
0.483213
0.462609
0.442841
0.424101
0.406428
0.389865
0.374412
0.360051
0.346704
0.334696
0.32183
0.816656
0.700338
0.682037
0.634047
0.611976
0.583235
0.560286
0.53612
0.51344
0.491097
0.469747
0.449319
0.429996
0.411807
0.394786
0.378923
0.364195
0.350522
0.338182
0.325207
0.834264
0.715799
0.696858
0.647493
0.624386
0.594467
0.570473
0.545309
0.521738
0.498592
0.476532
0.455475
0.435596
0.416915
0.399457
0.383205
0.368128
0.354144
0.341488
0.328408
0.850987
0.730483
0.710932
0.660258
0.636163
0.605121
0.58013
0.554017
0.529598
0.505689
0.482955
0.461301
0.440895
0.421748
0.403876
0.387255
0.371847
0.357568
0.344613
0.33143
0.866797
0.744368
0.724236
0.672321
0.647287
0.61518
0.589246
0.562233
0.537012
0.512382
0.489011
0.466792
0.445889
0.4263
0.408037
0.391068
0.375347
0.36079
0.347554
0.334273
0.88167
0.757433
0.736751
0.683665
0.657745
0.624633
0.597807
0.569947
0.543971
0.518663
0.494692
0.471943
0.450571
0.430569
0.411939
0.394642
0.378627
0.363809
0.35031
0.336934
0.895582
0.769654
0.748457
0.694273
0.66752
0.633465
0.605805
0.57715
0.550468
0.524524
0.499992
0.476748
0.454939
0.434549
0.415576
0.397973
0.381685
0.366622
0.352877
0.339412
0.908512
0.781014
0.759335
0.704129
0.676598
0.641665
0.613227
0.583834
0.556494
0.52996
0.504907
0.481202
0.458987
0.438238
0.418946
0.401059
0.384516
0.369227
0.355255
0.341706
0.92044
0.791493
0.769369
0.713216
0.684967
0.649221
0.620065
0.589989
0.562043
0.534964
0.509431
0.485301
0.462712
0.441632
0.422046
0.403898
0.38712
0.371621
0.357441
0.343813
0.931346
0.801075
0.778541
0.721523
0.692614
0.656124
0.626309
0.595609
0.567108
0.539531
0.513559
0.489041
0.46611
0.444728
0.424874
0.406486
0.389495
0.373805
0.359434
0.345734
0.941214
0.809743
0.786839
0.729035
0.699528
0.662364
0.631952
0.600686
0.571683
0.543656
0.517286
0.492418