/*--------------------------------*- C++ -*----------------------------------*\
  =========                 |
  \\      /  F ield         | OpenFOAM: The Open Source CFD Toolbox
   \\    /   O peration     | Website:  https://openfoam.org
    \\  /    A nd           | Version:  7
     \\/     M anipulation  |
\*---------------------------------------------------------------------------*/
FoamFile
{
    version     2.0;
    format      ascii;
    class       surfaceScalarField;
    location    "5";
    object      phi;
}
// * * * * * * * * * * * * * * * * * * * * * * * * * * * * * * * * * * * * * //

dimensions      [0 3 -1 0 0 0 0];

internalField   nonuniform List<scalar> 
83430
(
-1.99572e-06
1.99573e-06
-9.32599e-13
-4.33638e-06
2.34066e-06
-2.02775e-12
-5.22254e-06
8.86161e-07
-3.81781e-13
-3.21836e-06
-2.00418e-06
5.68416e-12
2.59023e-06
-5.80861e-06
1.63003e-11
1.29564e-05
-1.03662e-05
3.08208e-11
2.84695e-05
-1.55132e-05
4.84708e-11
4.96628e-05
-2.11934e-05
6.84168e-11
7.70331e-05
-2.73703e-05
8.98999e-11
0.000111077
-3.40444e-05
1.12493e-10
0.000152307
-4.12301e-05
1.37424e-10
0.000201261
-4.89541e-05
1.68855e-10
0.000258504
-5.72429e-05
2.37323e-10
0.000324617
-6.61132e-05
3.12921e-10
0.000400163
-7.55469e-05
3.70139e-10
0.000485641
-8.54784e-05
4.19701e-10
0.000581341
-9.57004e-05
4.60659e-10
0.000687325
-0.000105985
4.9155e-10
0.000802721
-0.000115396
5.0886e-10
-0.000124474
5.09554e-10
0.000927194
-1.97565e-06
3.97137e-06
-4.26686e-06
4.63187e-06
-5.07693e-06
1.69623e-06
-2.97149e-06
-4.10963e-06
2.96369e-06
-1.17438e-05
1.34825e-05
-2.08849e-05
2.91756e-05
-3.12063e-05
5.05778e-05
-4.25956e-05
7.81878e-05
-5.49803e-05
0.000112505
-6.83611e-05
0.000154042
-8.27671e-05
0.000203339
-9.82515e-05
0.000260964
-0.000114868
0.000327499
-0.000132648
0.000403511
-0.000151559
0.0004895
-0.000171468
0.000585761
-0.000191961
0.000692361
-0.000212585
0.000808431
-0.000231467
-0.000249677
0.000933634
-1.93581e-06
5.90718e-06
-4.12822e-06
6.82429e-06
-4.78613e-06
2.35414e-06
-2.47818e-06
-6.41757e-06
3.71e-06
-1.7932e-05
1.45337e-05
-3.17086e-05
3.05863e-05
-4.72589e-05
5.24057e-05
-6.4415e-05
8.04941e-05
-8.30688e-05
0.000115354
-0.000103221
0.000157504
-0.000124916
0.000207486
-0.000148234
0.000265872
-0.000173253
0.000333249
-0.000200025
0.000410187
-0.000228497
0.000497193
-0.000258474
0.000594571
-0.000289339
0.000702395
-0.000320409
0.000819809
-0.00034888
-0.000376331
0.000946463
-1.87635e-06
7.78353e-06
-3.92092e-06
8.86886e-06
-4.35106e-06
2.78428e-06
-1.74001e-06
-9.02862e-06
4.82679e-06
-2.44988e-05
1.61067e-05
-4.29886e-05
3.26969e-05
-6.38492e-05
5.51401e-05
-8.68582e-05
8.39438e-05
-0.000111872
0.000119616
-0.000138894
0.00016268
-0.00016798
0.000213685
-0.000199239
0.000273207
-0.000232775
0.000341839
-0.000268657
0.000420158
-0.000306816
0.000508681
-0.000346997
0.000607721
-0.000388379
0.000717368
-0.000430057
0.000836778
-0.00046829
-0.000505142
0.000965589
-1.79748e-06
9.58101e-06
-3.64562e-06
1.0717e-05
-3.77307e-06
2.91173e-06
-7.59249e-07
-1.20424e-05
6.31055e-06
-3.15686e-05
1.81964e-05
-5.48744e-05
3.55006e-05
-8.11533e-05
5.87717e-05
-0.000110129
8.85243e-05
-0.000141625
0.000125274
-0.000175643
0.00016955
-0.000212257
0.00022191
-0.000251599
0.000282937
-0.000293802
0.00035323
-0.00033895
0.000433376
-0.000386962
0.000523901
-0.000437522
0.000625136
-0.000489613
0.000737187
-0.000542108
0.000859229
-0.000590332
-0.000636792
0.000990879
-1.69944e-06
1.12805e-05
-3.30318e-06
1.23207e-05
-3.05398e-06
2.66254e-06
4.61015e-07
-1.55574e-05
8.15659e-06
-3.92641e-05
2.07961e-05
-6.7514e-05
3.89878e-05
-9.9345e-05
6.32879e-05
-0.000134429
9.42193e-05
-0.000172556
0.000132306
-0.00021373
0.000178087
-0.000258038
0.000232128
-0.000305639
0.000295018
-0.000356692
0.000367368
-0.0004113
0.000449772
-0.000469367
0.000542773
-0.000530523
0.000646715
-0.000593555
0.00076173
-0.000657123
0.000887013
-0.000715615
-0.000771934
0.00102216
-1.58258e-06
1.2863e-05
-2.89469e-06
1.36329e-05
-2.19601e-06
1.96385e-06
1.91694e-06
-1.96704e-05
1.03592e-05
-4.77064e-05
2.38975e-05
-8.10523e-05
4.31473e-05
-0.000118595
6.86734e-05
-0.000159956
0.000101009
-0.000204892
0.000140687
-0.000253408
0.000188257
-0.000305609
0.000244294
-0.000361676
0.000309398
-0.000421795
0.000384186
-0.000486089
0.000469267
-0.000554448
0.000565195
-0.000626451
0.000672337
-0.000700697
0.000790847
-0.000775633
0.000919949
-0.000844718
-0.000911183
0.0010592
-1.44727e-06
1.43103e-05
-2.42142e-06
1.4607e-05
-1.20178e-06
7.44211e-07
3.6042e-06
-2.44764e-05
1.29114e-05
-5.70136e-05
2.74907e-05
-9.56316e-05
4.79653e-05
-0.000139069
7.49099e-05
-0.0001869
0.000108868
-0.00023885
0.000150385
-0.000294926
0.000200021
-0.000355245
0.00025836
-0.000420015
0.000326013
-0.000489448
0.000403607
-0.000563683
0.000491763
-0.000642603
0.000591049
-0.000725737
0.000701855
-0.000811504
0.000824361
-0.000898139
0.000957823
-0.00097818
-0.00105511
0.00110175
-1.29395e-06
1.56043e-05
-1.88483e-06
1.51979e-05
-7.43094e-08
-1.06631e-06
5.51761e-06
-3.00683e-05
1.58055e-05
-6.73014e-05
3.15644e-05
-0.00011139
5.34262e-05
-0.000160931
8.19762e-05
-0.00021545
0.00011777
-0.000274643
0.000161365
-0.00033852
0.000213332
-0.000407212
0.000274267
-0.00048095
0.000344791
-0.000559972
0.000425541
-0.000644434
0.000517149
-0.00073421
0.000620199
-0.000828787
0.000735103
-0.000926408
0.000862069
-0.00102511
0.00100039
-0.0011165
-0.00120424
0.00114952
-1.12313e-06
1.67274e-05
-1.28655e-06
1.53613e-05
1.18301e-06
-3.53587e-06
7.65141e-06
-3.65367e-05
1.90325e-05
-7.86825e-05
3.61058e-05
-0.000128464
5.95123e-05
-0.000184338
8.98487e-05
-0.000245787
0.000127683
-0.000312478
0.000173585
-0.000384423
0.000228139
-0.000461766
0.000291951
-0.000544762
0.000365651
-0.000633672
0.000449887
-0.00072867
0.0005453
-0.000829623
0.00065249
-0.000935978
0.000771893
-0.00104581
0.000903744
-0.00115696
0.00104737
-0.00126013
-0.00135905
0.00120218
-9.35336e-07
1.76627e-05
-6.28371e-07
1.50543e-05
2.56645e-06
-6.73069e-06
9.99925e-06
-4.39695e-05
2.25827e-05
-9.12659e-05
4.11008e-05
-0.000146982
6.62042e-05
-0.000209441
9.8501e-05
-0.000278083
0.000138573
-0.000352549
0.000187002
-0.000432852
0.000244385
-0.000519149
0.000311339
-0.000611716
0.000388502
-0.000710835
0.000476532
-0.000816699
0.000576079
-0.00092917
0.000687756
-0.00104765
0.000812021
-0.00117008
0.000949136
-0.00129407
0.00109848
-0.00140947
-0.00151993
0.00125936
-7.31165e-07
1.83939e-05
8.78051e-08
1.42354e-05
4.07195e-06
-1.07148e-05
1.25542e-05
-5.24517e-05
2.64455e-05
-0.000105157
4.65342e-05
-0.000167071
7.34805e-05
-0.000236387
0.000107905
-0.000312508
0.000150401
-0.000395046
0.000201566
-0.000484017
0.000262008
-0.00057959
0.000332353
-0.000682061
0.000413248
-0.000791731
0.000505357
-0.000908808
0.000609337
-0.00103315
0.000725813
-0.00116413
0.000855263
-0.00129953
0.000997975
-0.00143678
0.00115337
-0.00156487
-0.00168725
0.00132069
-5.11254e-07
1.89051e-05
8.59649e-07
1.28645e-05
5.69517e-06
-1.55504e-05
1.53088e-05
-6.20654e-05
3.06095e-05
-0.000120458
5.23893e-05
-0.00018885
8.13184e-05
-0.000265316
0.000118029
-0.000349218
0.000163129
-0.000440145
0.000217226
-0.000538115
0.000280941
-0.000643305
0.000354908
-0.000756028
0.000439782
-0.000876605
0.00053623
-0.00100526
0.000644913
-0.00114183
0.000766465
-0.00128568
0.000901381
-0.00143444
0.00104997
-0.00158537
0.00121171
-0.0017266
-0.00186128
0.00138574
-2.76154e-07
1.91813e-05
1.68526e-06
1.0903e-05
7.43148e-06
-2.12966e-05
1.82552e-05
-7.28892e-05
3.50624e-05
-0.000137265
5.86486e-05
-0.000212437
8.96934e-05
-0.000296361
0.000128841
-0.000388366
0.000176711
-0.000488016
0.000233925
-0.000595329
0.000301112
-0.000710492
0.000378916
-0.000833832
0.000467993
-0.000965682
0.000569013
-0.00110628
0.000682638
-0.00125546
0.000809505
-0.00141255
0.000950123
-0.00157506
0.00110482
-0.00174007
0.00127313
-0.00189491
-0.00204223
0.00145408
-2.39837e-08
1.92053e-05
2.56223e-06
8.31684e-06
9.27601e-06
-2.80104e-05
2.13851e-05
-8.49983e-05
3.97914e-05
-0.000155671
6.52935e-05
-0.000237939
9.85798e-05
-0.000329648
0.000140306
-0.000430092
0.000191103
-0.000538813
0.000251605
-0.00065583
0.000322448
-0.000781335
0.000404281
-0.000915665
0.000497763
-0.00105916
0.00060356
-0.00121207
0.000722333
-0.00137423
0.000854715
-0.00154493
0.00100123
-0.00172157
0.00116221
-0.00190106
0.00133725
-0.00206994
-0.00223026
0.00152527
2.37222e-07
1.89681e-05
3.48801e-06
5.06605e-06
1.12237e-05
-3.57461e-05
2.46897e-05
-9.84643e-05
4.47831e-05
-0.000175765
7.23044e-05
-0.00026546
0.000107951
-0.000365294
0.000152387
-0.000474528
0.000206257
-0.000592683
0.000270202
-0.000719776
0.000344867
-0.000855999
0.000430903
-0.0010017
0.000528967
-0.00115723
0.000639719
-0.00132282
0.00076381
-0.00149832
0.000901867
-0.00168299
0.00105441
-0.00187412
0.0012218
-0.00206845
0.00140367
-0.00225181
-0.00242543
0.00159883
5.13302e-07
1.84548e-05
4.46022e-06
1.11914e-06
1.32693e-05
-4.45552e-05
2.81601e-05
-0.000113355
5.00235e-05
-0.000197628
7.96612e-05
-0.000295098
0.000117777
-0.00040341
0.000165047
-0.000521798
0.000222123
-0.000649759
0.000289654
-0.000787307
0.000368289
-0.000934635
0.00045868
-0.00109209
0.000561477
-0.00126003
0.00067733
-0.00143868
0.000806876
-0.00162787
0.000950727
-0.00182684
0.0011094
-0.00203279
0.00128326
-0.0022423
0.00147199
-0.00244054
-0.00262773
0.0016743
8.01768e-07
1.7653e-05
5.47628e-06
-3.55538e-06
1.54074e-05
-5.44863e-05
3.17868e-05
-0.000129734
5.5498e-05
-0.000221339
8.73428e-05
-0.000326942
0.000128031
-0.000444098
0.000178246
-0.000572012
0.000238648
-0.000710161
0.000309891
-0.00085855
0.000392627
-0.00101737
0.000487503
-0.00118697
0.00059516
-0.00136768
0.000716231
-0.00155975
0.000851333
-0.00176297
0.00100105
-0.00197656
0.00116591
-0.00219765
0.00134624
-0.00242264
0.00154181
-0.0026361
-0.00283712
0.00175119
1.10176e-06
1.65512e-05
6.53359e-06
-8.98721e-06
1.76325e-05
-6.55851e-05
3.55603e-05
-0.000147662
6.1192e-05
-0.000246971
9.53276e-05
-0.000361078
0.000138682
-0.000487453
0.000191944
-0.000625274
0.00025578
-0.000773996
0.000330847
-0.000933618
0.000417795
-0.00110432
0.000517264
-0.00128644
0.00062988
-0.0014803
0.000756254
-0.00168612
0.000896976
-0.00190369
0.0010526
-0.00213219
0.00122363
-0.00236868
0.00141039
-0.0026094
0.0016127
-0.00283841
-0.00305343
0.00182901
1.41249e-06
1.51387e-05
7.62948e-06
-1.52042e-05
1.99389e-05
-7.78945e-05
3.94709e-05
-0.000167194
6.70901e-05
-0.00027459
0.000103593
-0.000397581
0.000149699
-0.000533558
0.000206099
-0.000681674
0.000273463
-0.000841361
0.000352449
-0.0010126
0.000443702
-0.00119557
0.000547849
-0.00139058
0.000665497
-0.00159795
0.000797228
-0.00181785
0.000943597
-0.00205006
0.00110512
-0.00229372
0.00128228
-0.00254583
0.00147536
-0.00280248
0.00168425
-0.0030473
-0.00327648
0.00190729
1.7332e-06
1.34055e-05
8.76128e-06
-2.22323e-05
2.23209e-05
-9.14541e-05
4.35086e-05
-0.000188382
7.31769e-05
-0.000304258
0.000112118
-0.000436522
0.00016105
-0.00058249
0.000220668
-0.000741292
0.000291642
-0.000912335
0.000374626
-0.00109559
0.000470256
-0.0012912
0.000579143
-0.00149947
0.000701868
-0.00172067
0.000838979
-0.00195497
0.000990988
-0.00220207
0.00115836
-0.00246109
0.00134154
-0.00272901
0.00154079
-0.00300172
0.00175604
-0.00326255
-0.00350597
0.00198554
2.06313e-06
1.13424e-05
9.92633e-06
-3.00955e-05
2.47728e-05
-0.000106301
4.76634e-05
-0.000211273
7.94368e-05
-0.000336032
0.000120878
-0.000477963
0.000172704
-0.000634316
0.000235609
-0.000804197
0.00031026
-0.000986986
0.000397304
-0.00118263
0.000497364
-0.00139126
0.000611029
-0.00161313
0.00073885
-0.00184849
0.000881332
-0.00209745
0.00103894
-0.00235967
0.00121207
-0.00263423
0.00140113
-0.00291807
0.00160633
-0.00320692
0.00182768
-0.0034839
-0.00374159
0.00206329
2.40153e-06
8.94087e-06
1.11219e-05
-3.88159e-05
2.72888e-05
-0.000122467
5.19252e-05
-0.000235909
8.58538e-05
-0.00036996
0.00012985
-0.00052196
0.000184628
-0.000689094
0.000250877
-0.000870446
0.000329259
-0.00106537
0.000420409
-0.00127378
0.000524932
-0.00149578
0.00064339
-0.00173159
0.000776297
-0.0019814
0.000924109
-0.00224526
0.00108723
-0.00252279
0.001266
-0.002813
0.00146075
-0.00311282
0.00167164
-0.00341781
0.00189875
-0.00371101
-0.00398293
0.00214009
2.74767e-06
6.1932e-06
1.23454e-05
-4.84136e-05
2.98631e-05
-0.000139985
5.62838e-05
-0.00026233
9.2412e-05
-0.000406089
0.000139012
-0.00056856
0.00019679
-0.000746873
0.000266429
-0.000940085
0.000348581
-0.00114752
0.000443865
-0.00136907
0.000552863
-0.00160478
0.000676106
-0.00185483
0.000814063
-0.00211936
0.000967134
-0.00239833
0.00113566
-0.00269131
0.00131989
-0.00299724
0.00152011
-0.00331304
0.00173638
-0.00363409
0.00196888
-0.0039435
-0.00422954
0.00221549
3.10081e-06
3.09239e-06
1.35942e-05
-5.8907e-05
3.24899e-05
-0.000158881
6.0729e-05
-0.000290569
9.90953e-05
-0.000444455
0.000148339
-0.000617804
0.000209157
-0.000807691
0.00028222
-0.00101315
0.000368167
-0.00123346
0.000467597
-0.0014685
0.000581063
-0.00171825
0.000709058
-0.00198283
0.000852001
-0.0022623
0.00101023
-0.00255656
0.001184
-0.00286509
0.0013735
-0.00318673
0.00157891
-0.00351844
0.00180022
-0.0038554
0.00203767
-0.00418095
-0.00448093
0.00228906
3.46027e-06
-3.6788e-07
1.48656e-05
-7.03123e-05
3.51635e-05
-0.000179179
6.52506e-05
-0.000320656
0.000105888
-0.000485092
0.000157808
-0.000669724
0.000221695
-0.000871577
0.000298205
-0.00108966
0.000387957
-0.00132322
0.000491528
-0.00157207
0.000609434
-0.00183615
0.000742125
-0.00211552
0.000889964
-0.00241014
0.00105322
-0.00271981
0.00123207
-0.00304394
0.00142659
-0.00338125
0.00163688
-0.00372874
0.00186284
-0.00408136
0.00210477
-0.00442289
-0.00473654
0.00236039
3.82535e-06
-4.19323e-06
1.6157e-05
-8.26439e-05
3.78781e-05
-0.0002009
6.98385e-05
-0.000352616
0.000112773
-0.000528027
0.000167395
-0.000724345
0.000234371
-0.000938553
0.000314339
-0.00116963
0.000407894
-0.00141677
0.000515581
-0.00167976
0.000637881
-0.00195845
0.000775189
-0.00225283
0.000927808
-0.00256276
0.00109593
-0.00288793
0.00127964
-0.00322765
0.00147891
-0.00358052
0.00169374
-0.00394358
0.00192392
-0.00431153
0.00216984
-0.00466881
-0.0049958
0.0024291
4.19539e-06
-8.38862e-06
1.74659e-05
-9.59144e-05
4.06282e-05
-0.000224062
7.44827e-05
-0.000386471
0.000119736
-0.000573281
0.000177077
-0.000781686
0.000247152
-0.00100863
0.000330577
-0.00125305
0.000427917
-0.00151411
0.000539682
-0.00179152
0.000666306
-0.00208508
0.00080813
-0.00239465
0.000965386
-0.00272002
0.00113818
-0.00306073
0.00132651
-0.00341598
0.00153023
-0.00378424
0.00174924
-0.00416259
0.00198318
-0.00454547
0.00223256
-0.00491819
-0.00525807
0.00249483
4.56976e-06
-1.29584e-05
1.87898e-05
-0.000110135
4.34081e-05
-0.00024868
7.9173e-05
-0.000422236
0.00012676
-0.000620867
0.00018683
-0.000841757
0.000260006
-0.0010818
0.000346874
-0.00133992
0.000447967
-0.00161521
0.000563753
-0.00190731
0.000694614
-0.00221594
0.000840829
-0.00254087
0.00100255
-0.00288174
0.00117981
-0.00323799
0.00137249
-0.00360866
0.00158033
-0.00399208
0.00180311
-0.00438537
0.00204033
-0.00478269
0.00229261
-0.00517047
-0.00552271
0.00255725
4.94783e-06
-1.79062e-05
2.01263e-05
-0.000125313
4.62123e-05
-0.000274766
8.38997e-05
-0.000459923
0.000133829
-0.000670797
0.000196631
-0.000904559
0.000272898
-0.00115807
0.000363185
-0.00143021
0.000467985
-0.00172001
0.000587719
-0.00202704
0.000722711
-0.00235093
0.00087317
-0.00269133
0.00103917
-0.00304775
0.00122065
-0.00341946
0.00141738
-0.00380539
0.00162899
-0.00420368
0.00185513
-0.00461151
0.00209513
-0.00502269
0.00234974
-0.00542508
-0.00578902
0.00261605
5.329e-06
-2.32352e-05
2.1473e-05
-0.000141457
4.90354e-05
-0.000302329
8.86527e-05
-0.00049954
0.000140928
-0.000723072
0.000206456
-0.000970087
0.000285797
-0.00123741
0.000379466
-0.00152387
0.000487914
-0.00182845
0.000611505
-0.00215063
0.0007505
-0.00248993
0.000905036
-0.00284586
0.0010751
-0.00321781
0.00126053
-0.00360489
0.001461
-0.00400586
0.00167599
-0.00441867
0.00190505
-0.00484058
0.00214732
-0.00526496
0.00240369
-0.00568145
-0.00605628
0.00267096
5.71271e-06
-2.89479e-05
2.28275e-05
-0.000158572
5.18719e-05
-0.000331373
9.34224e-05
-0.000541091
0.00014804
-0.000777689
0.000216282
-0.00103833
0.000298669
-0.0013198
0.000395673
-0.00162088
0.000507693
-0.00194047
0.000635035
-0.00227797
0.00077789
-0.00263278
0.000936312
-0.00300428
0.0011102
-0.0033917
0.00129929
-0.00379398
0.00150315
-0.00420971
0.00172114
-0.00463666
0.00195267
-0.00507211
0.0021967
-0.00550898
0.00245425
-0.005939
-0.00632377
0.00272173
6.09841e-06
-3.50463e-05
2.41875e-05
-0.000176661
5.47166e-05
-0.000361902
9.81991e-05
-0.000584573
0.000155151
-0.000834641
0.000226086
-0.00110926
0.000311482
-0.0014052
0.000411761
-0.00172116
0.000527266
-0.00205598
0.000658237
-0.00240894
0.000804788
-0.00277933
0.000966888
-0.00316638
0.00114434
-0.00356916
0.00133679
-0.00398642
0.00154367
-0.0044166
0.00176424
-0.00485724
0.00199779
-0.00530565
0.00224306
-0.00575425
0.00250122
-0.00619717
-0.0065907
0.00276816
6.48555e-06
-4.15319e-05
2.55507e-05
-0.000195726
5.75642e-05
-0.000393916
0.000102973
-0.000629983
0.000162245
-0.000893913
0.000235845
-0.00118286
0.000324203
-0.00149355
0.000427686
-0.00182464
0.000546575
-0.00217487
0.000681037
-0.00254341
0.000831103
-0.0029294
0.000996652
-0.00333193
0.00117739
-0.0037499
0.00137285
-0.00418188
0.00158238
-0.00462613
0.00180512
-0.00507997
0.00204021
-0.00554075
0.00228624
-0.00600028
0.00254447
-0.00645541
-0.0068563
0.00281007
6.87361e-06
-4.84055e-05
2.69149e-05
-0.000215767
6.04095e-05
-0.00042741
0.000107735
-0.000677308
0.000169306
-0.000955484
0.000245536
-0.00125909
0.000336801
-0.00158482
0.000443407
-0.00193125
0.000565565
-0.00229703
0.000703363
-0.0026812
0.000856747
-0.00308278
0.0010255
-0.00350068
0.00120922
-0.00393363
0.00140735
-0.00438001
0.00161912
-0.0048379
0.00184358
-0.00530443
0.00207977
-0.00577693
0.0023261
-0.00624661
0.00258389
-0.0067132
-0.00711975
0.00284733
7.26209e-06
-5.56676e-05
2.82779e-05
-0.000236783
6.32474e-05
-0.00046238
0.000112476
-0.000726537
0.000176321
-0.00101933
0.000255138
-0.00133791
0.000349243
-0.00167892
0.000458878
-0.00204088
0.000584178
-0.00242233
0.000725146
-0.00282217
0.000881633
-0.00323927
0.00105332
-0.00367237
0.00123971
-0.00412002
0.00144013
-0.00458043
0.00165373
-0.0050515
0.00187947
-0.00553017
0.0021163
-0.00601376
0.00236252
-0.00649282
0.0026194
-0.00697008
-0.00738024
0.00287989
7.65046e-06
-6.3318e-05
2.96375e-05
-0.00025877
6.60728e-05
-0.000498815
0.000117186
-0.00077765
0.000183272
-0.00108542
0.000264626
-0.00141926
0.000361499
-0.0017758
0.000474059
-0.00215344
0.00060236
-0.00255063
0.000746315
-0.00296613
0.000905675
-0.00339863
0.00108002
-0.00384671
0.00126874
-0.00430874
0.00147107
-0.00478275
0.00168606
-0.0052665
0.00191263
-0.00575674
0.00214965
-0.00625078
0.00239541
-0.00673859
0.00265098
-0.00722565
-0.00763704
0.00290779
8.03823e-06
-7.13563e-05
3.09915e-05
-0.000281723
6.88806e-05
-0.000536704
0.000121856
-0.000830625
0.000190147
-0.00115371
0.00027398
-0.0015031
0.000373538
-0.00187535
0.000488908
-0.00226881
0.000620058
-0.00268178
0.000766804
-0.00311287
0.000928793
-0.00356062
0.00110549
-0.00402341
0.0012962
-0.00449945
0.00150003
-0.00498658
0.00171598
-0.00548244
0.0019429
-0.00598367
0.00217966
-0.00648754
0.00242472
-0.00698364
0.00267861
-0.00747954
-0.00788959
0.00293116
8.42483e-06
-7.97811e-05
3.23378e-05
-0.000305636
7.16659e-05
-0.000576032
0.000126476
-0.000885435
0.000196929
-0.00122416
0.000283177
-0.00158935
0.000385327
-0.0019775
0.000503383
-0.00238687
0.000637218
-0.00281561
0.000786546
-0.0032622
0.000950906
-0.00372498
0.00112965
-0.00420216
0.00132198
-0.00469177
0.0015269
-0.00519151
0.00174333
-0.00569888
0.00197014
-0.00621048
0.00220621
-0.00672361
0.00245043
-0.00722786
0.00270238
-0.00773148
-0.00813825
0.00295104
8.80967e-06
-8.85908e-05
3.36741e-05
-0.000330501
7.44235e-05
-0.000616782
0.000131038
-0.00094205
0.000203604
-0.00129672
0.000292196
-0.00167794
0.000396838
-0.00208215
0.000517445
-0.00250748
0.00065379
-0.00295196
0.000805479
-0.00341389
0.000971939
-0.00389144
0.00115241
-0.00438264
0.00134597
-0.00488533
0.00155155
-0.00539709
0.001768
-0.00591533
0.00199418
-0.00643666
0.0022291
-0.00695853
0.00247242
-0.00747118
0.00272349
-0.00798256
-0.00838398
0.00296922
9.11611e-06
-9.77069e-05
3.48417e-05
-0.000356226
7.69173e-05
-0.000658857
0.000135237
-0.00100037
0.000209811
-0.0013713
0.000300634
-0.00176876
0.000407643
-0.00218915
0.000530657
-0.00263049
0.000669346
-0.00309065
0.000823205
-0.00356775
0.000991543
-0.00405977
0.00117349
-0.00456458
0.001368
-0.00507984
0.00157392
-0.00560301
0.00179003
-0.00613144
0.0020152
-0.00666182
0.00224854
-0.00719187
0.00249046
-0.00771311
0.00274383
-0.00823593
-0.00868539
0.00304525
9.48981e-06
-0.000107197
3.61406e-05
-0.000382877
7.95899e-05
-0.000702307
0.000139638
-0.00106042
0.000216208
-0.00144787
0.00030921
-0.00186176
0.000418485
-0.00229843
0.000543752
-0.00275576
0.00068457
-0.00323146
0.000840318
-0.0037235
0.00101018
-0.00422964
0.00119318
-0.00474758
0.00138816
-0.00527482
0.00159386
-0.00580871
0.001809
-0.00634658
0.00203244
-0.00688526
0.00226331
-0.00742274
0.00250239
-0.00795218
0.0027516
-0.00848514
-0.00896877
0.00303498
9.86008e-06
-0.000117057
3.74227e-05
-0.00041044
8.22194e-05
-0.000747103
0.000143951
-0.00112215
0.000222454
-0.00152637
0.000317541
-0.00195685
0.000428958
-0.00240985
0.000556315
-0.00288311
0.000699056
-0.00337421
0.000856441
-0.00388088
0.00102754
-0.00440074
0.00121123
-0.00493127
0.00140628
-0.00546986
0.00161132
-0.00601375
0.001825
-0.00656026
0.00204612
-0.00710638
0.00227378
-0.0076504
0.0025086
-0.008187
0.00275044
-0.00872698
-0.00923432
0.00301598
1.02263e-05
-0.000127283
3.86858e-05
-0.000438899
8.48008e-05
-0.000793219
0.000148169
-0.00118552
0.000228533
-0.00160673
0.000325607
-0.00205393
0.000439033
-0.00252327
0.000568308
-0.00301239
0.000712759
-0.00351866
0.00087152
-0.00403964
0.00104354
-0.00457275
0.00122758
-0.00511532
0.00142229
-0.00566457
0.00162622
-0.00621769
0.00183795
-0.00677198
0.00205621
-0.00732465
0.00227997
-0.00787415
0.00250951
-0.00841654
0.00274335
-0.00896083
-0.00948359
0.00299262
1.05878e-05
-0.000137871
3.99277e-05
-0.000468239
8.73292e-05
-0.00084062
0.000152283
-0.00125047
0.000234432
-0.00168888
0.000333388
-0.00215288
0.000448683
-0.00263857
0.000579697
-0.0031434
0.000725634
-0.00366459
0.000885504
-0.00419951
0.00105813
-0.00474538
0.00124216
-0.00529935
0.00143614
-0.00585855
0.00163853
-0.00642008
0.00184783
-0.00698128
0.00206271
-0.00753952
0.00228198
-0.00809342
0.00250555
-0.00864012
0.00273118
-0.00918645
-0.00971842
0.00296601
1.09442e-05
-0.000148815
4.11464e-05
-0.000498441
8.97996e-05
-0.000889273
0.000156283
-0.00131696
0.000240137
-0.00177274
0.000340863
-0.00225361
0.00045788
-0.00275558
0.000590446
-0.00327597
0.000737641
-0.00381179
0.000898346
-0.00436022
0.00107126
-0.00491829
0.00125493
-0.00548302
0.00144777
-0.00605139
0.0016482
-0.00662051
0.00185462
-0.0071877
0.00206563
-0.00775053
0.00227992
-0.00830771
0.00249706
-0.00885725
0.00271442
-0.00940382
-0.00994043
0.00293643
1.12947e-05
-0.00016011
4.23395e-05
-0.000529486
9.22071e-05
-0.000939141
0.000160161
-0.00138491
0.000245633
-0.00185821
0.000348012
-0.00235599
0.000466597
-0.00287417
0.000600523
-0.00340989
0.000748739
-0.00396
0.000910001
-0.00452148
0.00108289
-0.00509118
0.00126582
-0.00566596
0.00145716
-0.00624273
0.0016552
-0.00681855
0.00185831
-0.00739081
0.00206502
-0.00795724
0.00227392
-0.00851662
0.0024843
-0.00906763
0.00269345
-0.00961297
-0.0101509
0.00290393
1.1639e-05
-0.000171749
4.3505e-05
-0.000561352
9.45468e-05
-0.000990183
0.000163908
-0.00145427
0.000250908
-0.00194521
0.000354816
-0.0024599
0.00047481
-0.00299416
0.000609895
-0.00354498
0.000758892
-0.004109
0.000920429
-0.00468302
0.00109296
-0.00526371
0.00127482
-0.00584781
0.00146426
-0.00643216
0.00165952
-0.00701381
0.00185892
-0.00759021
0.00206094
-0.00815926
0.00226411
-0.00871979
0.0024675
-0.00927102
0.00266854
-0.009814
-0.0103509
0.0028685
1.19764e-05
-0.000183725
4.46406e-05
-0.000594016
9.68138e-05
-0.00104236
0.000167515
-0.00152497
0.000255947
-0.00203364
0.000361256
-0.0025652
0.000482493
-0.0031154
0.000618532
-0.00368102
0.000768064
-0.00425853
0.000929591
-0.00484454
0.00110145
-0.00543557
0.00128188
-0.00602824
0.00146905
-0.00661933
0.00166116
-0.00720592
0.00185647
-0.00778552
0.00205345
-0.00835624
0.0022506
-0.00891694
0.00244686
-0.00946729
0.00263988
-0.010007
-0.0105411
0.0028301
1.23064e-05
-0.000196032
4.57441e-05
-0.000627454
9.9003e-05
-0.00109561
0.000170973
-0.00159694
0.000260737
-0.0021234
0.000367313
-0.00267178
0.000489621
-0.00323771
0.000626405
-0.0038178
0.000776223
-0.00440835
0.000937453
-0.00500577
0.00110833
-0.00560645
0.00128699
-0.0062069
0.00147153
-0.00680388
0.00166012
-0.0073945
0.00185101
-0.00797641
0.00204263
-0.00854786
0.00223351
-0.00910782
0.00242254
-0.00965632
0.00260764
-0.0101921
-0.0107222
0.00278872
1.26285e-05
-0.00020866
4.68133e-05
-0.000661639
0.000101109
-0.00114991
0.000174275
-0.00167011
0.000265265
-0.00221439
0.000372969
-0.00277948
0.000496173
-0.00336091
0.000633487
-0.00395512
0.000783339
-0.0045582
0.000943986
-0.00516642
0.00111356
-0.00577602
0.00129011
-0.00638345
0.00147169
-0.00698546
0.00165642
-0.00757924
0.00184256
-0.00816255
0.00202855
-0.00873385
0.00221297
-0.00929224
0.0023947
-0.00983805
0.00257197
-0.0103694
-0.0108946
0.00274437
1.2942e-05
-0.000221602
4.78459e-05
-0.000696543
0.000103128
-0.00120519
0.00017741
-0.00174439
0.000269518
-0.0023065
0.000378206
-0.00288817
0.000502126
-0.00348483
0.000639752
-0.00409274
0.000789384
-0.00470783
0.000949164
-0.0053262
0.00111712
-0.00594398
0.00129124
-0.00655757
0.00146953
-0.00716375
0.00165009
-0.0077598
0.00183119
-0.00834365
0.00201132
-0.00891398
0.00218911
-0.00947003
0.00236349
-0.0100124
0.00253301
-0.0105389
-0.0110587
0.0026971
1.32463e-05
-0.000234848
4.88397e-05
-0.000732136
0.000105054
-0.00126141
0.000180371
-0.00181971
0.000273483
-0.00239961
0.000383007
-0.0029977
0.000507459
-0.00360928
0.000645177
-0.00423046
0.000794335
-0.00485699
0.000952964
-0.00548483
0.00111901
-0.00611002
0.00129038
-0.00672895
0.00146506
-0.00733843
0.00164116
-0.0079359
0.00181696
-0.00851945
0.00199101
-0.00908803
0.00216204
-0.00964105
0.00232906
-0.0101794
0.00249091
-0.0107008
-0.0112147
0.00264698
1.35409e-05
-0.000248389
4.97923e-05
-0.000768388
0.000106883
-0.0013185
0.00018315
-0.00189597
0.000277149
-0.00249361
0.000387357
-0.00310791
0.000512152
-0.00373408
0.000649739
-0.00436805
0.000798168
-0.00500542
0.000955367
-0.00564203
0.0011192
-0.00627385
0.00128753
-0.00689728
0.00145831
-0.00750922
0.00162967
-0.00810725
0.00179994
-0.00868972
0.00196774
-0.00925582
0.00213189
-0.00980521
0.00229154
-0.0103391
0.0024458
-0.010855
-0.011363
0.00259408
1.38251e-05
-0.000262214
5.07015e-05
-0.000805264
0.000108609
-0.00137641
0.000185737
-0.0019731
0.000280502
-0.00258838
0.000391239
-0.00321864
0.000516187
-0.00385903
0.000653418
-0.00450528
0.000800867
-0.00515287
0.00095636
-0.00579752
0.00111769
-0.00643518
0.00128268
-0.00706227
0.00144929
-0.00767583
0.00161566
-0.00827363
0.0017802
-0.00885426
0.00194159
-0.00941721
0.0020988
-0.00996242
0.00225107
-0.0104914
0.00239782
-0.0110018
-0.0115037
0.00253852
1.40983e-05
-0.000276313
5.1565e-05
-0.000842731
0.000110228
-0.00143507
0.000188126
-0.002051
0.000283532
-0.00268378
0.000394639
-0.00332975
0.000519547
-0.00398393
0.000656198
-0.00464193
0.000802414
-0.00529909
0.000955933
-0.00595104
0.00111448
-0.00659373
0.00127587
-0.00722365
0.00143804
-0.007838
0.0015992
-0.00843479
0.00175782
-0.00901287
0.00191268
-0.00957207
0.00206288
-0.0101126
0.00220781
-0.0106363
0.00234712
-0.0111411
-0.011637
0.0024804
1.43598e-05
-0.000290672
5.23804e-05
-0.000880751
0.000111735
-0.00149442
0.000190307
-0.00212957
0.000286227
-0.0027797
0.000397542
-0.00344107
0.000522215
-0.00410861
0.000658063
-0.00477778
0.000802798
-0.00544382
0.000954078
-0.00610232
0.00110958
-0.00674923
0.0012671
-0.00738117
0.0014246
-0.00799551
0.00158034
-0.00859053
0.00173288
-0.00916541
0.00188111
-0.0097203
0.00202427
-0.0102558
0.00216189
-0.0107739
0.00229384
-0.011273
-0.011763
0.00241985
1.46091e-05
-0.000305282
5.31454e-05
-0.000919288
0.000113124
-0.0015544
0.000192274
-0.00220872
0.000288577
-0.00287601
0.000399936
-0.00355243
0.000524179
-0.00423285
0.000658999
-0.0049126
0.000802009
-0.00558683
0.000950794
-0.0062511
0.00110299
-0.00690143
0.0012564
-0.00753457
0.00140901
-0.00814812
0.00155915
-0.00874067
0.00170548
-0.00931173
0.001847
-0.00986183
0.0019831
-0.0103919
0.00211345
-0.0109043
0.00223813
-0.0113977
-0.0118819
0.00235699
1.48455e-05
-0.000320127
5.38578e-05
-0.0009583
0.000114392
-0.00161494
0.000194018
-0.00228835
0.000290571
-0.00297256
0.000401809
-0.00366366
0.000525424
-0.00435647
0.000658995
-0.00504617
0.000800041
-0.00572788
0.000946084
-0.00639715
0.00109474
-0.00705009
0.0012438
-0.00768363
0.00139132
-0.00829565
0.0015357
-0.00888505
0.0016757
-0.00945173
0.00181046
-0.00999659
0.0019395
-0.0105209
0.00206263
-0.0110274
0.00218012
-0.0115152
-0.0119937
0.00229198
1.50682e-05
-0.000335195
5.45152e-05
-0.000997747
0.000115534
-0.00167595
0.000195533
-0.00236834
0.0002922
-0.00306923
0.000403148
-0.00377461
0.000525941
-0.00447926
0.000658043
-0.00517827
0.00079689
-0.00586673
0.000939951
-0.00654021
0.00108483
-0.00719496
0.00122933
-0.00782813
0.00137158
-0.0084379
0.00151006
-0.00902353
0.00164365
-0.00958531
0.0017716
-0.0101245
0.00189359
-0.0106429
0.00200958
-0.0111434
0.00211997
-0.0116256
-0.0120987
0.00222492
1.52767e-05
-0.000350472
5.51153e-05
-0.00103759
0.000116544
-0.00173738
0.000196812
-0.00244861
0.000293455
-0.00316587
0.000403945
-0.0038851
0.000525719
-0.00460103
0.000656136
-0.00530869
0.000792556
-0.00600315
0.000932407
-0.00668006
0.00107328
-0.00733584
0.00121304
-0.00796789
0.00134986
-0.00857472
0.00148232
-0.00915599
0.00160941
-0.00971241
0.00173055
-0.0102457
0.00184552
-0.0107579
0.00195443
-0.0112523
0.00205782
-0.011729
-0.0121968
0.00215598
1.54703e-05
-0.000365942
5.56561e-05