/*--------------------------------*- C++ -*----------------------------------*\
  =========                 |
  \\      /  F ield         | OpenFOAM: The Open Source CFD Toolbox
   \\    /   O peration     | Website:  https://openfoam.org
    \\  /    A nd           | Version:  7
     \\/     M anipulation  |
\*---------------------------------------------------------------------------*/
FoamFile
{
    version     2.0;
    format      ascii;
    class       volVectorField;
    location    "5";
    object      U;
}
// * * * * * * * * * * * * * * * * * * * * * * * * * * * * * * * * * * * * * //

dimensions      [0 1 -1 0 0 0 0];

internalField   nonuniform List<vector> 
42000
(
(-0.000886189 0.000184142 1.09852e-21)
(-0.00293166 0.000189808 -3.5989e-21)
(-0.00436892 3.7977e-05 1.87291e-21)
(-0.00365875 -0.000207283 -1.06883e-22)
(-0.000788291 -0.00048954 -3.4499e-21)
(0.00434946 -0.000787569 4.11282e-21)
(0.011578 -0.00108513 3.60182e-21)
(0.0207295 -0.00137614 2.41662e-21)
(0.0316125 -0.00165708 -1.88156e-21)
(0.0440538 -0.00192739 2.41259e-21)
(0.0579013 -0.00218749 1.01917e-21)
(0.0730255 -0.00243838 8.59976e-23)
(0.0893171 -0.00268079 -1.49436e-21)
(0.106683 -0.00291464 1.62603e-21)
(0.125028 -0.00313792 3.53991e-21)
(0.144268 -0.00334617 1.32016e-21)
(0.164227 -0.00352888 -2.65347e-21)
(0.184835 -0.00367518 -8.53191e-22)
(0.205513 -0.00374553 2.40456e-21)
(0.226486 -0.00377041 7.47073e-22)
(-0.000896117 0.000550396 3.11317e-21)
(-0.00291389 0.000565587 -1.54544e-21)
(-0.00428933 0.000109571 3.8063e-21)
(-0.00350129 -0.000626109 -1.76588e-21)
(-0.000540374 -0.00147232 1.29731e-20)
(0.00469476 -0.00236561 -1.58305e-22)
(0.0120262 -0.0032573 6.53235e-21)
(0.0212845 -0.00412921 -4.9148e-21)
(0.0322776 -0.0049708 6.38817e-21)
(0.0448316 -0.00578045 6.08831e-21)
(0.058794 -0.00655936 -2.12878e-21)
(0.0740354 -0.00731054 4.94201e-21)
(0.0904458 -0.00803621 -1.00273e-20)
(0.107932 -0.00873613 -1.09129e-20)
(0.126399 -0.00940429 2.16963e-21)
(0.14576 -0.0100274 -4.42025e-21)
(0.165841 -0.0105739 3.48944e-21)
(0.186574 -0.0110111 -5.09636e-21)
(0.207356 -0.0112211 2.12947e-21)
(0.228492 -0.0112925 3.46798e-21)
(-0.000915688 0.000910635 -2.07561e-20)
(-0.00287781 0.000929845 -7.49961e-21)
(-0.00412954 0.000167934 -1.35445e-20)
(-0.00318579 -0.00105793 2.70615e-21)
(-4.40626e-05 -0.0024665 -1.71305e-20)
(0.00538568 -0.00395265 -9.8484e-21)
(0.0129229 -0.00543552 -1.7229e-20)
(0.0223944 -0.006885 -8.74187e-21)
(0.0336072 -0.0082836 1.974e-21)
(0.0463862 -0.00962864 -1.01456e-20)
(0.0605783 -0.0109222 -1.12573e-20)
(0.0760534 -0.0121692 2.36762e-21)
(0.092701 -0.0133734 1.10209e-20)
(0.110428 -0.0145345 1.24235e-20)
(0.129136 -0.0156426 3.56557e-21)
(0.148741 -0.0166754 9.3307e-21)
(0.169063 -0.017581 -1.30313e-20)
(0.190045 -0.0183041 -8.90988e-21)
(0.211035 -0.0186505 1.13814e-20)
(0.232495 -0.0187587 2.2565e-21)
(-0.000944335 0.00126094 1.34867e-20)
(-0.00282232 0.00127498 1.1599e-20)
(-0.00388832 0.000204292 1.48865e-20)
(-0.00271107 -0.00151138 2.32558e-20)
(0.000701611 -0.00347963 2.14881e-20)
(0.00642287 -0.00555469 1.30175e-21)
(0.0142681 -0.00762382 3.14399e-22)
(0.0240589 -0.00964531 2.04236e-20)
(0.0356005 -0.0115948 -8.67592e-21)
(0.0487161 -0.0134687 1.15207e-20)
(0.0632516 -0.0152699 7.0889e-21)
(0.079076 -0.0170054 -2.15341e-20)
(0.0960779 -0.0186804 -4.99337e-21)
(0.114163 -0.0202945 -2.34814e-20)
(0.133232 -0.0218341 -1.70264e-20)
(0.153201 -0.0232683 8.37027e-21)
(0.173881 -0.0245248 5.61908e-21)
(0.195235 -0.0255255 5.94745e-21)
(0.216534 -0.026003 -1.68752e-20)
(0.238476 -0.026132 -8.93836e-21)
(-0.000981218 0.00159744 -4.15566e-21)
(-0.00274581 0.00159351 1.18749e-20)
(-0.00356384 0.000210043 2.25665e-20)
(-0.00207538 -0.0019949 -2.34497e-20)
(0.00169809 -0.00451907 -4.11182e-20)
(0.00780731 -0.0071775 -7.61989e-21)
(0.0160622 -0.00982603 -3.04542e-21)
(0.0262775 -0.0124118 1.63426e-20)
(0.0382561 -0.0149037 -5.36601e-21)
(0.0518188 -0.0172973 -3.21475e-20)
(0.0668102 -0.0195964 -2.95592e-20)
(0.0830981 -0.02181 1.79415e-20)
(0.10057 -0.0239449 1.12899e-20)
(0.119129 -0.0260007 3.3405e-20)
(0.138676 -0.0279602 2.32106e-20)
(0.159126 -0.029784 -1.62527e-20)
(0.18028 -0.0313805 -8.592e-21)
(0.202124 -0.0326471 2.25527e-20)
(0.223829 -0.0332483 7.02784e-21)
(0.246405 -0.0333758 -2.63249e-21)
(-0.00102523 0.00191638 -3.21396e-21)
(-0.00264612 0.00187815 -3.94665e-20)
(-0.00315366 0.000176809 -5.10455e-20)
(-0.00127638 -0.00251668 -6.70343e-21)
(0.0029473 -0.00559197 2.60577e-20)
(0.00954028 -0.00882665 9.18127e-21)
(0.0183058 -0.0120457 1.04963e-20)
(0.0290498 -0.0151858 -1.54468e-20)
(0.0415722 -0.0182092 2.71646e-20)
(0.055691 -0.0211109 -1.0389e-20)
(0.0712492 -0.0238954 4.36828e-20)
(0.0881127 -0.0265739 -5.46315e-21)
(0.106167 -0.0291548 -1.12983e-20)
(0.125315 -0.0316378 -2.15012e-21)
(0.145453 -0.0340024 -1.2882e-20)
(0.166498 -0.0362009 -5.27361e-21)
(0.188237 -0.0381231 1.49525e-20)
(0.210686 -0.0396409 -1.45125e-20)
(0.23289 -0.0403566 1.61028e-20)
(0.256245 -0.0404545 1.50987e-20)
(-0.00107499 0.00221409 2.04932e-20)
(-0.00252058 0.00212182 1.77061e-20)
(-0.00265478 9.64835e-05 2.57613e-20)
(-0.000311178 -0.00308462 3.25311e-20)
(0.00445161 -0.00670514 4.32046e-20)
(0.0116234 -0.0105074 1.36883e-20)
(0.0209993 -0.0142863 -9.63137e-21)
(0.0323749 -0.0179685 5.89997e-21)
(0.0455467 -0.0215101 -1.41644e-20)
(0.0603289 -0.0249056 1.98751e-20)
(0.0765624 -0.0281604 -2.47465e-20)
(0.0941113 -0.0312878 9.83624e-21)
(0.112859 -0.0342979 1.12136e-20)
(0.132706 -0.0371905 7.16967e-21)
(0.153546 -0.0399421 -1.70166e-20)
(0.175294 -0.0424972 1.73686e-20)
(0.197726 -0.044728 -1.52063e-20)
(0.220888 -0.0464793 1.06838e-20)
(0.243678 -0.0472985 -7.39992e-21)
(0.267949 -0.047333 -1.88492e-20)
(-0.00112888 0.00248705 -2.84497e-20)
(-0.00236603 0.00231772 1.39419e-20)
(-0.0020636 -3.87036e-05 -1.89198e-21)
(0.000823661 -0.00370625 -1.99842e-20)
(0.00621385 -0.00786504 -5.41839e-20)
(0.0140585 -0.0122246 4.04931e-20)
(0.0241434 -0.0165506 1.37271e-20)
(0.0362521 -0.0207607 -2.3354e-21)
(0.0501768 -0.024805 -3.7915e-21)
(0.0657274 -0.0286775 -1.77443e-20)
(0.0827425 -0.0323849 3.97725e-20)
(0.101084 -0.0359423 5.76583e-21)
(0.120631 -0.0393617 2.24518e-21)
(0.141285 -0.0426434 -5.04766e-21)
(0.162931 -0.0457611 2.23463e-20)
(0.185488 -0.0486515 -7.45727e-24)
(0.208713 -0.0511711 2.83111e-21)
(0.23269 -0.0531351 -4.0499e-21)
(0.25615 -0.0540454 -2.31561e-20)
(0.281463 -0.0539775 1.37148e-20)
(-0.00118501 0.00273189 2.77521e-20)
(-0.00217883 0.00245938 5.57551e-20)
(-0.00137599 -0.000236133 -6.59071e-20)
(0.0021321 -0.00438869 -5.21675e-20)
(0.00823728 -0.00907768 6.41404e-20)
(0.0168478 -0.0139827 -4.77389e-20)
(0.0277389 -0.0188413 9.88276e-21)
(0.0406803 -0.0235628 -8.41049e-21)
(0.0554593 -0.0280919 -4.49185e-20)
(0.0718811 -0.0324223 4.56859e-20)
(0.0897811 -0.0365618 -5.66053e-20)
(0.109018 -0.0405278 2.9489e-20)
(0.129469 -0.044334 -2.17027e-21)
(0.15103 -0.0479812 4.02964e-20)
(0.173584 -0.051441 -4.10094e-21)
(0.197049 -0.0546427 -2.27916e-20)
(0.221161 -0.0574284 -4.52296e-21)
(0.24605 -0.0595818 -9.9824e-21)
(0.270252 -0.0605693 -2.07113e-21)
(0.296721 -0.0603553 -1.00027e-20)
(-0.0012413 0.00294544 2.8403e-20)
(-0.00195487 0.00254066 -8.57087e-20)
(-0.000587291 -0.00050274 9.67808e-21)
(0.00361862 -0.00513857 9.91764e-20)
(0.0105256 -0.0103486 -2.3876e-20)
(0.0199938 -0.0157857 -5.02143e-21)
(0.0317866 -0.0211605 1.15075e-20)
(0.0456583 -0.026375 -8.96611e-21)
(0.0613909 -0.0313686 4.22831e-20)
(0.0787836 -0.0361354 5.19276e-20)
(0.0976684 -0.0406841 9.38469e-20)
(0.1179 -0.0450346 6.39173e-21)
(0.139353 -0.0492023 -5.63791e-20)
(0.16192 -0.0531886 -1.67787e-20)
(0.185477 -0.0569638 -1.90018e-21)
(0.209942 -0.0604499 6.52614e-21)
(0.235029 -0.0634765 2.45448e-20)
(0.260916 -0.0657934 -1.52595e-20)
(0.285927 -0.0668432 3.57374e-20)
(0.313654 -0.0664352 2.5687e-20)
(-0.00129542 0.0031247 -7.94442e-20)
(-0.00168961 0.00255584 4.7433e-20)
(0.000307656 -0.000844961 2.22544e-20)
(0.00528816 -0.00596197 -4.31828e-20)
(0.0130828 -0.0116828 -7.23281e-22)
(0.0234992 -0.0176371 -3.98402e-21)
(0.0362875 -0.0235096 -5.85635e-20)
(0.051185 -0.0291966 -7.55647e-21)
(0.0679675 -0.0346324 -7.18966e-20)
(0.0864277 -0.0398116 -2.99692e-20)
(0.106394 -0.0447444 -2.55458e-20)
(0.127716 -0.0494526 -4.77267e-20)
(0.150265 -0.0539539 -1.6803e-20)
(0.173929 -0.0582505 -2.16783e-20)
(0.198577 -0.0623115 -3.72098e-21)
(0.224127 -0.0660524 2.93426e-20)
(0.250269 -0.0692925 9.20688e-21)
(0.277232 -0.0717446 1.99104e-20)
(0.30311 -0.0728408 -2.96222e-20)
(0.332181 -0.0721877 -1.53546e-20)
(-0.00134483 0.00326692 6.48259e-20)
(-0.0013781 0.00249963 -5.07182e-20)
(0.00131448 -0.00126869 -2.75395e-20)
(0.00714614 -0.00686438 -1.45448e-21)
(0.0159134 -0.0130845 -8.28389e-20)
(0.0273669 -0.0195396 -4.64791e-20)
(0.0412424 -0.0258898 4.91681e-20)
(0.0572587 -0.0320266 -1.72124e-20)
(0.0751846 -0.0378802 7.72137e-20)
(0.0948057 -0.0434457 -4.22671e-20)
(0.115945 -0.0487348 -7.85489e-20)
(0.138449 -0.0537717 2.40987e-20)
(0.162183 -0.0585761 1.63192e-20)
(0.187029 -0.0631515 -3.23892e-20)
(0.21285 -0.0674664 -2.36485e-20)
(0.239563 -0.0714301 -2.85063e-20)
(0.26683 -0.074854 -5.6232e-20)
(0.294939 -0.0774109 1.41424e-20)
(0.321731 -0.078537 -4.71063e-20)
(0.352218 -0.0775848 3.7218e-20)
(-0.00138683 0.00336958 4.13254e-20)
(-0.00101501 0.0023672 9.13477e-20)
(0.00243927 -0.00177923 9.39266e-21)
(0.00919837 -0.00785064 -1.6509e-21)
(0.0190221 -0.0145576 1.0678e-19)
(0.0316001 -0.0214954 7.44769e-20)
(0.0466524 -0.0283014 4.71211e-20)
(0.0638779 -0.0348635 9.83071e-20)
(0.0830376 -0.0411081 -1.90013e-20)
(0.103909 -0.0470316 6.83617e-20)
(0.12631 -0.0526471 9.58832e-20)
(0.150082 -0.0579814 -7.01221e-20)
(0.175082 -0.0630563 -1.66123e-20)
(0.20119 -0.0678766 -2.08818e-21)
(0.228259 -0.0724109 5.19387e-20)
(0.256204 -0.0765632 2.96121e-20)
(0.284659 -0.0801391 1.03171e-19)
(0.313969 -0.0827689 -5.39458e-20)
(0.341714 -0.0839078 3.53928e-20)
(0.373672 -0.0826008 -5.9568e-20)
(-0.00141851 0.00343032 -8.74697e-20)
(-0.000594655 0.00215432 -7.62938e-20)
(0.00368851 -0.00238126 -6.41933e-22)
(0.0114511 -0.00892489 3.38938e-20)
(0.0224141 -0.0161049 -1.102e-19)
(0.0362021 -0.023506 -3.87609e-20)
(0.0525185 -0.0307441 2.17986e-21)
(0.0710406 -0.037705 -4.57541e-20)
(0.091521 -0.044312 7.21722e-20)
(0.113728 -0.050563 -5.13832e-20)
(0.137474 -0.0564729 -8.33099e-20)
(0.162593 -0.0620709 4.62715e-20)
(0.188938 -0.0673813 -5.39745e-21)
(0.21638 -0.0724105 4.97961e-20)
(0.244763 -0.0771279 -6.73023e-20)
(0.274001 -0.0814323 3.38224e-20)
(0.303694 -0.0851269 -6.30302e-20)
(0.334254 -0.0877957 1.67498e-20)
(0.362979 -0.0889303 -2.76127e-20)
(0.396446 -0.0872117 1.89566e-20)
(-0.00143674 0.00344693 4.57091e-21)
(-0.000111079 0.0018574 -2.79707e-20)
(0.00506902 -0.00307875 6.58982e-20)
(0.0139108 -0.0100905 -3.22386e-20)
(0.0260946 -0.0177288 8.96767e-20)
(0.0411763 -0.0255721 2.93331e-20)
(0.0588417 -0.0332167 -7.70231e-20)
(0.0787449 -0.0405482 1.23874e-21)
(0.100629 -0.0474869 -1.77856e-20)
(0.124254 -0.054033 -9.41071e-20)
(0.149423 -0.0602031 7.9149e-20)
(0.175964 -0.0660293 -9.10194e-21)
(0.203723 -0.0715383 -4.10393e-21)
(0.232563 -0.0767383 -3.79666e-20)
(0.262318 -0.0816002 7.57479e-20)
(0.2929 -0.0860185 -6.06862e-20)
(0.323875 -0.0897968 -3.95735e-20)
(0.355719 -0.0924697 1.13606e-20)
(0.385442 -0.093583 3.50366e-20)
(0.420438 -0.091396 5.18278e-20)
(-0.00143831 0.00341784 1.83582e-20)
(0.000442113 0.00147309 -1.86182e-20)
(0.00658796 -0.00387502 2.63105e-20)
(0.0165845 -0.0113502 -1.03493e-19)
(0.0300694 -0.0194305 7.34394e-20)
(0.0465265 -0.0276935 -2.69554e-20)
(0.065623 -0.0357176 3.617e-20)
(0.0869885 -0.0433893 3.44844e-20)
(0.110356 -0.0506273 -3.54654e-20)
(0.135474 -0.0574341 8.15833e-20)
(0.16214 -0.0638285 -5.48851e-20)
(0.190172 -0.0698453 -2.43886e-20)
(0.219408 -0.0755141 -3.57804e-20)
(0.249704 -0.0808449 2.73547e-20)
(0.280881 -0.0858113 -5.81389e-21)
(0.312848 -0.0903036 6.02635e-20)
(0.345136 -0.0941293 3.24527e-20)
(0.378286 -0.0967704 6.24163e-21)
(0.409014 -0.0978456 -1.97235e-20)
(0.445541 -0.0951343 -7.88285e-21)
(-0.00142002 0.00334183 2.72583e-20)
(0.00107151 0.000998527 1.13736e-19)
(0.00825284 -0.0047726 -8.52259e-20)
(0.0194793 -0.0127056 1.0845e-19)
(0.034344 -0.0212107 -1.75758e-19)
(0.0522563 -0.0298694 -3.05192e-20)
(0.0728632 -0.038244 -3.7535e-22)
(0.0957687 -0.0462241 -7.86013e-20)
(0.120695 -0.053727 9.95461e-21)
(0.147378 -0.0607583 1.62131e-20)
(0.175608 -0.0673392 1.08467e-20)
(0.205193 -0.0735074 -4.46806e-20)
(0.235962 -0.0792954 3.01287e-20)
(0.267762 -0.0847156 -2.85603e-20)
(0.300401 -0.0897447 -1.37818e-19)
(0.333785 -0.0942698 7.79349e-21)
(0.367406 -0.0981058 -4.95519e-21)
(0.401875 -0.100679 -4.10024e-20)
(0.433603 -0.101699 2.57032e-20)
(0.471644 -0.0984097 -2.51204e-20)
(-0.00137843 0.00321756 -1.95269e-20)
(0.00178383 0.00043183 -7.98668e-21)
(0.0100714 -0.00577326 8.43063e-21)
(0.0226025 -0.0141578 4.84153e-20)
(0.0389246 -0.0230691 8.78e-20)
(0.0583694 -0.0320979 1.00145e-19)
(0.0805632 -0.0407926 -8.02653e-20)
(0.105083 -0.0490474 3.94163e-20)
(0.131638 -0.056779 -4.94982e-20)
(0.159954 -0.063997 -5.12233e-20)
(0.189809 -0.0707249 -1.09414e-20)
(0.221003 -0.0770036 6.61149e-20)
(0.253354 -0.0828689 -4.84337e-21)
(0.286698 -0.0883357 -2.11674e-20)
(0.320831 -0.0933847 3.80347e-20)
(0.355652 -0.0979003 -8.05238e-20)
(0.390616 -0.101708 7.447e-21)
(0.426401 -0.104176 3.52183e-20)
(0.459113 -0.105126 -9.73898e-22)
(0.498635 -0.101208 -2.67447e-20)
(-0.00131002 0.0030441 -4.07065e-20)
(0.00258601 -0.000228334 -5.45666e-20)
(0.0120515 -0.00687797 -9.05303e-21)
(0.0259618 -0.0157068 -3.73421e-20)
(0.0438172 -0.0250044 -5.54322e-20)
(0.0648696 -0.0343763 -1.06062e-19)
(0.0887235 -0.0433589 9.33088e-20)
(0.114928 -0.0518531 -6.86456e-20)
(0.143179 -0.0597759 7.88135e-20)
(0.173188 -0.067141 6.29593e-20)
(0.204724 -0.0739749 3.0382e-21)
(0.237576 -0.080322 1.05718e-19)
(0.271549 -0.0862213 1.45603e-20)
(0.30647 -0.0916908 1.22991e-19)
(0.342117 -0.0967158 9.06008e-20)
(0.378385 -0.101179 9.72415e-20)
(0.414691 -0.10492 -8.465e-21)
(0.451777 -0.107246 5.1364e-21)
(0.485448 -0.108112 -2.88963e-20)
(0.526397 -0.103516 2.60249e-20)
(-0.00121121 0.00282086 2.7355e-20)
(0.00348514 -0.000982714 -3.46148e-21)
(0.0142014 -0.00808691 -2.70384e-20)
(0.0295648 -0.0173517 -6.63473e-20)
(0.0490278 -0.0270144 7.89977e-20)
(0.0717605 -0.036701 4.07707e-20)
(0.0973447 -0.0459378 -1.25456e-19)
(0.1253 -0.0546344 4.0757e-20)
(0.155309 -0.0627091 -2.71597e-20)
(0.187067 -0.0701804 3.86643e-20)
(0.220334 -0.077078 1.03645e-19)
(0.254884 -0.0834501 -1.07892e-19)
(0.290513 -0.0893393 5.26617e-20)
(0.327032 -0.0947665 -1.08421e-19)
(0.364205 -0.099723 -3.73144e-20)
(0.40192 -0.10409 -1.48423e-19)
(0.439554 -0.107726 -1.27098e-20)
(0.477915 -0.109873 4.72352e-20)
(0.512508 -0.110641 7.20462e-21)
(0.554814 -0.105327 -7.95833e-21)
(-0.00107837 0.00254756 2.71029e-20)
(0.00448843 -0.00183142 1.26393e-19)
(0.0165291 -0.00939941 1.27276e-19)
(0.0334192 -0.0190908 6.34565e-21)
(0.0545626 -0.029096 4.01668e-20)
(0.0790457 -0.0390672 -8.12536e-20)
(0.106427 -0.0485231 1.44472e-19)
(0.136195 -0.0573838 9.585e-21)
(0.168018 -0.0655696 -8.9614e-20)
(0.201577 -0.0731048 -5.0661e-20)
(0.236616 -0.0800227 -2.02161e-19)
(0.272899 -0.0863754 1.48744e-20)
(0.310207 -0.0922093 -1.62434e-20)
(0.348338 -0.0975491 -7.28081e-20)
(0.38704 -0.102392 -3.22287e-20)
(0.426191 -0.106619 1.94487e-20)
(0.465129 -0.110112 4.71775e-20)
(0.504723 -0.112044 -4.17121e-20)
(0.540192 -0.112701 -3.16381e-20)
(0.583769 -0.106631 -6.02986e-20)
(-0.000907857 0.00222423 -6.2604e-20)
(0.00560315 -0.0027739 7.77214e-21)
(0.0190431 -0.010814 -6.61757e-20)
(0.0375329 -0.0209214 -4.42462e-20)
(0.0604276 -0.031245 -1.82034e-19)
(0.0867286 -0.0414695 5.30998e-21)
(0.11597 -0.0511077 -3.3126e-20)
(0.147609 -0.0600927 9.19739e-21)
(0.181298 -0.0683475 6.37294e-20)
(0.216701 -0.0759032 -5.0201e-21)
(0.253549 -0.0827969 2.82934e-20)
(0.291592 -0.0890851 3.65035e-20)
(0.330595 -0.0948183 -4.2044e-21)
(0.370342 -0.100025 1.2748e-20)
(0.410564 -0.10471 -5.78671e-20)
(0.451128 -0.108753 1.63376e-20)
(0.491335 -0.112063 -2.63867e-20)
(0.53211 -0.113747 -5.08646e-20)
(0.568398 -0.114282 1.64784e-20)
(0.613142 -0.107426 5.76201e-20)
(-0.000695989 0.00185118 -4.44882e-20)
(0.00683659 -0.00380896 -1.92862e-19)
(0.0217514 -0.0123282 -1.11055e-19)
(0.0419136 -0.0228397 1.43963e-19)
(0.0666288 -0.0334565 6.00513e-20)
(0.0948124 -0.0439013 2.92537e-20)
(0.125974 -0.0536837 -5.45691e-20)
(0.159537 -0.0627517 -7.32198e-20)
(0.195138 -0.0710324 -9.27396e-20)
(0.232424 -0.078564 1.22287e-19)
(0.27111 -0.0853883 5.60771e-20)
(0.310931 -0.0915662 4.0762e-20)
(0.351636 -0.0971529 -1.20876e-19)
(0.392995 -0.102181 -4.20821e-20)
(0.434717 -0.106663 1.12379e-19)
(0.476662 -0.11048 2.35036e-20)
(0.518091 -0.11357 3.94427e-22)
(0.559984 -0.114971 5.97903e-20)
(0.597024 -0.115376 5.61138e-20)
(0.642818 -0.10771 1.13153e-21)
(-0.000439103 0.00142906 1.10775e-20)
(0.00819605 -0.00493473 9.76115e-20)
(0.0246624 -0.013939 2.62192e-19)
(0.046569 -0.0248412 -5.31091e-20)
(0.0731719 -0.0357243 1.66945e-19)
(0.1033 -0.046355 -2.07454e-20)
(0.136437 -0.0562421 -7.23294e-21)
(0.171973 -0.0653507 1.45291e-19)
(0.209528 -0.0736129 1.09119e-19)
(0.248728 -0.0810751 -8.68129e-20)
(0.289273 -0.0877841 -1.08312e-19)
(0.330883 -0.0938058 -2.8148e-20)
(0.37329 -0.0992002 2.44274e-20)
(0.416245 -0.104004 -2.43378e-20)
(0.459441 -0.108239 -9.43375e-20)
(0.502722 -0.111788 7.74638e-21)
(0.545317 -0.114622 4.12969e-20)
(0.588249 -0.115708 -1.69602e-20)
(0.625968 -0.115974 1.58155e-20)
(0.672681 -0.107482 5.37139e-20)
(-0.000133551 0.000958776 -1.48344e-20)
(0.00968876 -0.00614871 -1.67409e-19)
(0.0277843 -0.0156422 -2.59731e-20)
(0.0515065 -0.0269202 -5.63253e-20)
(0.0800624 -0.0380412 -2.33907e-19)
(0.112194 -0.0488221 -5.00266e-20)
(0.147358 -0.0587732 1.77854e-20)
(0.184912 -0.0678786 -9.87323e-20)
(0.224455 -0.0760771 1.36763e-19)
(0.265595 -0.0834238 5.34882e-20)
(0.308015 -0.0899712 1.11092e-19)
(0.351416 -0.0957908 -2.80166e-20)
(0.395514 -0.100948 1.62122e-19)
(0.440042 -0.105483 7.83688e-21)
(0.484672 -0.109428 1.08271e-19)
(0.529236 -0.112668 3.59411e-20)
(0.572929 -0.11521 -2.5458e-20)
(0.616814 -0.115953 5.69989e-21)
(0.65513 -0.116074 -4.05599e-20)
(0.702617 -0.106748 -5.55166e-20)
(0.000224274 0.000441549 7.20538e-20)
(0.0113219 -0.00744772 1.94882e-19)
(0.031125 -0.017433 -2.2805e-19)
(0.0567335 -0.0290702 4.01317e-20)
(0.0873056 -0.0403994 1.95514e-19)
(0.121496 -0.0512932 1.96911e-19)
(0.158736 -0.0612661 1.01624e-19)
(0.198346 -0.0703238 -1.93024e-20)
(0.239907 -0.0784123 -1.72604e-19)
(0.283006 -0.085597 -6.67283e-20)
(0.327307 -0.0919364 6.86158e-20)
(0.372495 -0.0975081 -9.57457e-20)
(0.418264 -0.102382 -1.64156e-19)
(0.464331 -0.106607 -1.35337e-20)
(0.510348 -0.11022 -4.42794e-20)
(0.556131 -0.113111 7.67157e-21)
(0.600845 -0.115328 5.00111e-20)
(0.645584 -0.115699 -8.08592e-20)
(0.684409 -0.115671 -7.30296e-20)
(0.732515 -0.105511 -2.63593e-20)
(0.000637929 -0.000121119 1.68128e-19)
(0.0131024 -0.00882797 -5.30266e-20)
(0.0346923 -0.0193056 4.20058e-21)
(0.062257 -0.0312838 7.69321e-20)
(0.0949063 -0.0427896 4.80312e-20)
(0.131209 -0.0537578 -2.86765e-20)
(0.170567 -0.0637092 -5.92525e-20)
(0.212268 -0.0726736 1.87618e-19)
(0.255871 -0.0806054 5.01495e-21)
(0.30094 -0.0875812 -1.04842e-19)
(0.347123 -0.0936663 -9.73833e-20)
(0.394083 -0.0989448 7.1389e-20)
(0.441497 -0.103493 -1.82003e-20)
(0.48906 -0.107364 1.41393e-19)
(0.536406 -0.110607 -1.67162e-20)
(0.583333 -0.113112 -8.7515e-20)
(0.628984 -0.114971 -4.89102e-20)
(0.674468 -0.114946 2.0391e-20)
(0.713708 -0.114767 1.46435e-20)
(0.762266 -0.103779 -1.38636e-20)
(0.0011109 -0.000727447 -1.49884e-19)
(0.0150371 -0.010285 2.67549e-20)
(0.0384938 -0.0212534 5.17168e-20)
(0.0680835 -0.0335525 -9.26621e-20)
(0.102869 -0.0452019 -1.00695e-19)
(0.141332 -0.0562046 -1.06726e-19)
(0.182849 -0.0660901 -1.46972e-21)
(0.226669 -0.0749146 -4.42237e-20)
(0.272331 -0.0826425 -4.96056e-20)
(0.319377 -0.0893624 9.71482e-20)
(0.367433 -0.0951472 1.25905e-19)
(0.416143 -0.100088 1.2301e-19)
(0.465165 -0.104268 1.94417e-19)
(0.514173 -0.107745 -1.47588e-19)
(0.562781 -0.11058 7.56477e-20)
(0.61077 -0.112666 6.14793e-20)
(0.657263 -0.114137 2.71866e-20)
(0.703375 -0.113694 1.7043e-19)
(0.742932 -0.113361 -2.42336e-20)
(0.791768 -0.101562 8.36066e-20)
(0.00164658 -0.00137539 5.95934e-20)
(0.0171328 -0.0118139 8.059e-21)
(0.0425367 -0.0232691 4.23275e-20)
(0.0742194 -0.035867 4.74004e-20)
(0.111197 -0.0476255 1.67271e-20)
(0.151867 -0.0586213 4.43602e-20)
(0.195578 -0.0683956 -1.28972e-19)
(0.241541 -0.0770331 6.5149e-20)
(0.289273 -0.0845094 2.92586e-20)
(0.338293 -0.0909265 -1.03114e-19)
(0.388208 -0.0963656 -6.76242e-21)
(0.438638 -0.100926 -6.48623e-20)
(0.489221 -0.104697 -1.00965e-19)
(0.539613 -0.107743 6.20028e-20)
(0.589408 -0.110134 4.09693e-20)
(0.638368 -0.111769 3.25344e-20)
(0.685602 -0.112825 1.03705e-20)
(0.732215 -0.111945 -1.20206e-19)
(0.771991 -0.111457 1.11267e-19)
(0.82092 -0.0988696 -5.26382e-20)
(0.00224829 -0.00206262 1.3288e-20)
(0.0193957 -0.0134088 -1.30937e-19)
(0.046828 -0.0253446 -2.86822e-20)
(0.0806704 -0.0382172 -2.64203e-20)
(0.119894 -0.0500485 -1.23376e-19)
(0.162814 -0.0609949 -6.77337e-21)
(0.208748 -0.0706116 1.75414e-19)
(0.256872 -0.0790144 2.14548e-20)
(0.30668 -0.0861914 -1.45937e-20)
(0.357666 -0.0922591 1.29797e-19)
(0.409414 -0.0973079 -8.19116e-20)
(0.461526 -0.101446 -1.08845e-19)
(0.513617 -0.104769 9.46163e-21)
(0.565323 -0.107348 -2.4821e-20)
(0.616222 -0.109265 -1.76022e-19)
(0.666053 -0.110422 -4.99405e-20)
(0.713921 -0.111037 2.64651e-20)
(0.760903 -0.109704 9.37084e-21)
(0.800797 -0.109062 -7.42857e-20)
(0.849627 -0.095715 4.22202e-20)
(0.00291921 -0.00278659 6.12065e-20)
(0.0218321 -0.0150637 2.23125e-19)
(0.051374 -0.027471 8.62483e-20)
(0.0874418 -0.0405921 2.50459e-20)
(0.128963 -0.0524582 -3.47071e-20)
(0.17417 -0.0633115 1.11378e-19)
(0.222353 -0.0727234 -1.29205e-19)
(0.272651 -0.0808433 -7.40906e-20)
(0.324534 -0.0876733 8.96756e-21)
(0.377469 -0.0933456 -4.46201e-21)
(0.431021 -0.0979609 1.67625e-20)
(0.484767 -0.101636 -2.02299e-20)
(0.538304 -0.104475 -5.12471e-20)
(0.591247 -0.106557 9.61617e-20)
(0.643157 -0.10797 1.8127e-19)
(0.693753 -0.108625 6.87352e-20)
(0.742142 -0.108778 -1.34427e-19)
(0.789354 -0.10698 2.23221e-21)
(0.829269 -0.10618 1.39127e-19)
(0.877797 -0.0921112 2.75875e-20)
(0.00366242 -0.00354448 -2.15605e-19)
(0.0244477 -0.0167717 -1.40154e-19)
(0.0561808 -0.0296386 -8.67664e-21)
(0.0945382 -0.0429798 -3.3385e-20)
(0.138406 -0.0548413 1.14502e-20)
(0.185935 -0.0655564 -1.50574e-19)
(0.236388 -0.0747156 -1.99041e-19)
(0.288866 -0.0825043 -1.404e-19)
(0.342815 -0.0889399 1.51271e-19)
(0.397677 -0.0941717 -1.45543e-19)
(0.452993 -0.0983114 5.24189e-20)
(0.508318 -0.101486 1.25869e-19)
(0.563231 -0.103808 5.00557e-20)
(0.617325 -0.105363 -2.87738e-20)
(0.670148 -0.106249 -1.41716e-19)
(0.721395 -0.106382 1.04211e-19)
(0.77019 -0.106053 2.38073e-19)
(0.817488 -0.103783 -8.87022e-20)
(0.857333 -0.102821 -1.47395e-19)
(0.905344 -0.088072 -4.0146e-20)
(0.00448082 -0.00433327 2.35407e-19)
(0.027248 -0.0185256 3.95194e-20)
(0.061254 -0.0318371 -4.56659e-20)
(0.101964 -0.0453677 5.88441e-20)
(0.148223 -0.0571835 1.24372e-19)
(0.198105 -0.0677143 -6.73672e-21)
(0.250844 -0.0765725 4.276e-19)
(0.305503 -0.0839814 1.1181e-19)
(0.361504 -0.0899757 -1.87379e-19)
(0.418261 -0.0947229 1.02176e-19)
(0.475295 -0.0983468 -1.7752e-20)
(0.532137 -0.100985 -4.07264e-20)
(0.588346 -0.10276 7.36844e-20)
(0.643498 -0.103763 -4.2645e-20)
(0.697128 -0.104102 1.95442e-20)
(0.74891 -0.1037 2.16788e-20)
(0.797991 -0.102874 -1.52435e-19)
(0.84523 -0.100127 1.18866e-19)
(0.884921 -0.0989924 5.3504e-20)
(0.932186 -0.0836116 7.14408e-21)
(0.00537722 -0.00514969 -1.61651e-19)
(0.030238 -0.0203175 -6.88793e-22)
(0.0665983 -0.0340556 4.00947e-21)
(0.109721 -0.0477426 -4.87586e-20)
(0.158414 -0.05947 -8.31885e-20)
(0.210676 -0.0697694 1.20842e-19)
(0.265711 -0.0782775 -3.07697e-19)
(0.322547 -0.0852584 -6.51339e-20)
(0.380578 -0.0907652 2.07922e-19)
(0.439194 -0.094985 1.92073e-19)
(0.49789 -0.0980549 -2.11215e-19)
(0.556179 -0.100125 5.14955e-20)
(0.613598 -0.101325 -5.65078e-20)
(0.669707 -0.101757 6.52944e-20)
(0.724033 -0.101534 1.07109e-21)
(0.776228 -0.100587 6.07419e-21)
(0.825475 -0.099252 -5.12237e-20)
(0.872509 -0.0960313 -2.37835e-20)
(0.911975 -0.0947014 4.84262e-21)
(0.958241 -0.0787444 -3.45534e-20)
(0.0063542 -0.00599028 1.51806e-19)
(0.0334223 -0.0221391 -5.08222e-21)
(0.0722182 -0.0362824 7.37394e-20)
(0.117814 -0.0500905 2.35219e-20)
(0.16898 -0.0616851 -8.36892e-20)
(0.223643 -0.0717051 3.44598e-20)
(0.280981 -0.0798139 -7.97562e-20)
(0.339981 -0.0863187 2.46819e-20)
(0.400015 -0.0912926 -1.85233e-19)
(0.460445 -0.094944 -2.46225e-19)
(0.520742 -0.0974239 8.58193e-20)
(0.580398 -0.0988952 -7.89042e-21)
(0.638934 -0.0994982 1.6627e-20)
(0.695893 -0.0993429 -3.55728e-20)
(0.750798 -0.0985484 8.16592e-20)
(0.803281 -0.0970556 -2.08016e-19)
(0.852574 -0.0952037 1.48947e-19)
(0.899259 -0.0915173 -1.26187e-20)
(0.938447 -0.0899551 8.76516e-20)
(0.983434 -0.0734882 2.94771e-20)
(0.00741419 -0.00685137 -2.27186e-19)
(0.0368052 -0.0239817 -1.03094e-19)
(0.0781172 -0.0385055 -1.5275e-19)
(0.126242 -0.0523968 9.64135e-20)
(0.179918 -0.0638128 -2.39584e-20)
(0.237001 -0.0735045 2.18375e-20)
(0.296641 -0.0811646 1.66527e-19)
(0.357789 -0.0871458 3.70054e-20)
(0.419791 -0.0915428 1.26831e-20)
(0.481981 -0.0945864 3.61332e-20)
(0.54381 -0.0964431 1.05549e-19)
(0.604748 -0.0972894 3.10626e-20)
(0.6643 -0.0972763 2.72223e-20)
(0.721996 -0.0965232 -2.62698e-20)
(0.777358 -0.0951538 -1.08608e-19)
(0.830003 -0.0931191 1.41674e-19)
(0.879222 -0.0907488 7.93919e-20)
(0.925422 -0.0866136 6.2535e-20)
(0.964305 -0.0847598 -1.05358e-19)
(1.0077 -0.0678684 -3.82845e-20)
(0.00855943 -0.00772911 1.48762e-19)
(0.0403903 -0.0258362 1.80374e-19)
(0.0842982 -0.0407122 5.69398e-21)
(0.135008 -0.0546463 1.38435e-20)
(0.191225 -0.0658365 2.31623e-19)
(0.250741 -0.0751503 -1.71591e-19)
(0.312678 -0.0823124 1.90431e-19)
(0.375951 -0.0877232 1.21273e-19)
(0.439879 -0.0915006 1.97892e-19)
(0.503771 -0.0938993 -5.10625e-20)
(0.567055 -0.0951024 -4.11385e-20)
(0.629182 -0.0953009 -3.67692e-21)
(0.689643 -0.0946573 3.31069e-20)
(0.747957 -0.0933006 -9.85641e-20)
(0.803651 -0.091359 1.16495e-19)
(0.856329 -0.0887944 -7.6924e-20)
(0.905357 -0.0859109 2.71113e-20)
(0.950944 -0.0813553 -4.94234e-20)
(0.989523 -0.0791186 -1.03456e-19)
(1.03095 -0.0618994 3.78541e-20)
(0.00979206 -0.00861965 -7.48424e-20)
(0.0441808 -0.0276932 -1.0288e-19)
(0.0907637 -0.0428893 2.04673e-19)
(0.14411 -0.0568238 -1.08002e-19)
(0.202898 -0.0677393 -1.07354e-19)
(0.264856 -0.076625 3.30549e-20)
(0.329078 -0.0832399 -1.07225e-19)
(0.394446 -0.0880344 -2.38277e-19)
(0.460252 -0.0911512 -1.54185e-19)
(0.52578 -0.0928704 1.46176e-21)
(0.590436 -0.0933925 -3.46637e-20)
(0.653652 -0.0929244 -1.41281e-19)
(0.714908 -0.0916403 -1.47413e-19)
(0.773718 -0.08968 1.7737e-19)
(0.829614 -0.0871752 -1.23681e-19)
(0.882196 -0.0841007 3.62604e-20)
(0.930918 -0.0807189 2.87314e-20)
(0.975783 -0.0757865 -1.0835e-19)
(1.01408 -0.0730159 4.79204e-20)
(1.05308 -0.0555289 4.24783e-20)
(0.0111142 -0.0095192 -8.81416e-20)
(0.0481798 -0.0295431 -7.57791e-20)
(0.0975152 -0.0450239 -1.45358e-19)
(0.153549 -0.0589134 3.45632e-20)
(0.214932 -0.0695042 2.4006e-20)
(0.279335 -0.0779111 3.19468e-21)
(0.345827 -0.08393 1.60346e-19)
(0.413253 -0.0880634 4.33494e-20)
(0.480883 -0.0904806 -6.88036e-20)
(0.547973 -0.0914882 8.68148e-20)
(0.61391 -0.0913056 -4.15169e-20)
(0.67811 -0.0901559 1.04442e-20)
(0.740043 -0.0882261 3.91216e-20)
(0.79922 -0.0856676 -9.1875e-20)
(0.855185 -0.0826154 7.47187e-20)
(0.907544 -0.0790594 -1.61523e-20)
(0.955847 -0.0752076 1.16862e-19)
(0.999909 -0.0699622 -2.37454e-20)
(1.038 -0.0664167 1.58308e-19)
(1.07393 -0.0487442 -2.96159e-20)
(0.0125267 -0.0104227 1.95263e-19)
(0.0523885 -0.0313751 -5.17842e-20)
(0.104552 -0.0471011 1.6557e-19)
(0.16332 -0.0608981 1.38253e-19)
(0.227319 -0.0711129 3.30838e-20)
(0.294167 -0.0789901 1.31091e-20)
(0.362906 -0.0843648 -3.61947e-19)
(0.432349 -0.087794 -8.52938e-20)
(0.50174 -0.0894749 -1.29639e-21)
(0.570313 -0.089742 -1.74888e-19)
(0.637434 -0.0888343 1.08488e-19)
(0.702506 -0.0869925 5.72644e-20)
(0.764994 -0.0844168 9.02163e-20)
(0.824406 -0.0812708 2.92597e-21)
(0.880306 -0.0776935 -5.21384e-20)
(0.932311 -0.0736932 1.26773e-19)
(0.980084 -0.0694188 -2.87975e-19)
(1.02331 -0.0639499 -7.2556e-20)
(1.06138 -0.0593787 -1.53499e-19)
(1.09387 -0.0422596 5.45909e-22)
(0.0140259 -0.0113208 -1.8936e-19)
(0.0568029 -0.0331734 3.91562e-20)
(0.11187 -0.0491015 -1.601e-19)
(0.173416 -0.0627565 -1.34527e-19)
(0.240049 -0.0725434 -2.28819e-20)
(0.309336 -0.0798404 -2.16978e-20)
(0.380294 -0.0845242 3.63587e-19)
(0.451706 -0.0872082 7.62267e-20)
(0.522791 -0.088119 1.95043e-19)
(0.592761 -0.0876203 1.85813e-19)
(0.660965 -0.0859718 -1.26617e-19)
(0.726793 -0.0834322 -4.38538e-20)
(0.789706 -0.0802156 -1.10662e-19)
(0.849219 -0.0764985 1.80534e-20)
(0.904918 -0.0724248 4.76294e-20)
(0.956438 -0.0680253 -9.37133e-20)
(1.00356 -0.0633956 1.17708e-19)
(1.04591 -0.0578307 5.55537e-20)
(1.08424 -0.0522769 1.43336e-19)
(1.11515 -0.0378873 2.62133e-21)
(0.0156118 -0.0122082 8.54101e-20)
(0.0614224 -0.0349266 -1.06044e-19)
(0.119465 -0.0510101 1.5362e-19)
(0.183831 -0.0644714 -5.61909e-20)
(0.25311 -0.0737777 -5.6163e-21)
(0.324825 -0.0804443 6.93725e-21)
(0.397969 -0.0843917 -1.81785e-19)
(0.471297 -0.0862916 1.82591e-19)
(0.544003 -0.0864014 -1.31297e-19)
(0.615277 -0.0851152 8.08928e-20)
(0.684456 -0.082714 3.88844e-20)
(0.750919 -0.0794754 -6.82271e-21)
(0.814128 -0.0756277 -3.79161e-20)
(0.873606 -0.0713608 -1.45532e-20)
(0.928964 -0.0668246 -8.27053e-20)
(0.979866 -0.0620767 3.31842e-20)
(1.0262 -0.0571709 -1.15718e-19)
(1.06757 -0.0516796 -1.24643e-19)
(1.10574 -0.0457619 1.48203e-19)
(1.13524 -0.0363532 3.34189e-20)
(0.0172899 -0.0130852 -1.08829e-19)
(0.0662525 -0.0366293 9.38087e-20)
(0.127341 -0.0528177 -3.29347e-20)
(0.194564 -0.0660309 -5.79992e-20)