/*--------------------------------*- C++ -*----------------------------------*\
  =========                 |
  \\      /  F ield         | OpenFOAM: The Open Source CFD Toolbox
   \\    /   O peration     | Website:  https://openfoam.org
    \\  /    A nd           | Version:  7
     \\/     M anipulation  |
\*---------------------------------------------------------------------------*/
FoamFile
{
    version     2.0;
    format      ascii;
    class       volScalarField;
    location    "10";
    object      p;
}
// * * * * * * * * * * * * * * * * * * * * * * * * * * * * * * * * * * * * * //

dimensions      [0 2 -2 0 0 0 0];

internalField   nonuniform List<scalar> 
6050
(
-0.321559
-0.327132
-0.328938
-0.332372
-0.336187
-0.34079
-0.346077
-0.321964
-0.32743
-0.329222
-0.332637
-0.336442
-0.34104
-0.346328
-0.322757
-0.328011
-0.329775
-0.333146
-0.336925
-0.341505
-0.346787
-0.323905
-0.328851
-0.330563
-0.333859
-0.337588
-0.342124
-0.347378
-0.325363
-0.329912
-0.331543
-0.334722
-0.338363
-0.342815
-0.348
-0.32708
-0.331154
-0.332662
-0.335672
-0.339173
-0.343488
-0.348545
-0.354403
-0.328997
-0.332531
-0.333868
-0.336644
-0.339942
-0.344053
-0.34891
-0.354577
-0.331058
-0.334001
-0.335108
-0.337578
-0.340601
-0.344434
-0.349017
-0.354412
-0.333212
-0.335525
-0.336338
-0.338424
-0.341096
-0.344578
-0.348815
-0.353865
-0.335416
-0.337073
-0.337524
-0.339148
-0.341393
-0.344457
-0.348288
-0.35294
-0.337638
-0.338625
-0.338645
-0.339731
-0.341483
-0.344073
-0.347456
-0.351678
-0.339863
-0.34017
-0.339694
-0.340174
-0.341377
-0.343453
-0.346367
-0.350147
-0.354788
-0.342087
-0.341704
-0.340684
-0.340496
-0.341109
-0.342651
-0.34509
-0.348428
-0.35262
-0.344326
-0.343239
-0.341635
-0.340733
-0.34073
-0.341731
-0.3437
-0.346595
-0.3503
-0.346607
-0.344804
-0.342575
-0.340932
-0.340304
-0.340767
-0.342268
-0.344695
-0.347823
-0.348971
-0.346429
-0.343549
-0.34115
-0.339899
-0.339827
-0.340842
-0.342732
-0.345135
-0.347527
-0.351473
-0.348155
-0.344608
-0.34145
-0.339578
-0.338963
-0.339441
-0.34067
-0.342142
-0.343239
-0.354174
-0.350027
-0.345809
-0.341892
-0.339397
-0.338204
-0.33805
-0.338441
-0.338743
-0.338318
-0.336589
-0.357138
-0.352097
-0.347208
-0.34253
-0.339393
-0.337554
-0.336624
-0.33596
-0.334861
-0.332762
-0.32927
-0.360439
-0.354417
-0.348857
-0.343401
-0.339574
-0.336985
-0.335098
-0.333146
-0.330461
-0.326633
-0.321484
-0.31504
-0.364152
-0.357034
-0.350792
-0.344516
-0.339924
-0.336455
-0.333394
-0.329937
-0.325551
-0.320033
-0.313395
-0.305765
-0.36832
-0.36
-0.353069
-0.345898
-0.340454
-0.335934
-0.331459
-0.326314
-0.320186
-0.313081
-0.305145
-0.296545
-0.287379
-0.37301
-0.36336
-0.355696
-0.347531
-0.341134
-0.335344
-0.329214
-0.322261
-0.314426
-0.305879
-0.296832
-0.287444
-0.277781
-0.378277
-0.367154
-0.35867
-0.34941
-0.341926
-0.3346
-0.326607
-0.317797
-0.308342
-0.29851
-0.288522
-0.27849
-0.268436
-0.258346
-0.384165
-0.371411
-0.361974
-0.351549
-0.342763
-0.333611
-0.323606
-0.312953
-0.301996
-0.291034
-0.280244
-0.269681
-0.259315
-0.249091
-0.238938
-0.390712
-0.376141
-0.365604
-0.353954
-0.343544
-0.332297
-0.320197
-0.307765
-0.295436
-0.283482
-0.272008
-0.261001
-0.250383
-0.240066
-0.229968
-0.220061
-0.39795
-0.381327
-0.369582
-0.356586
-0.344153
-0.330593
-0.316379
-0.302261
-0.288692
-0.275866
-0.263803
-0.25242
-0.241598
-0.231221
-0.221196
-0.211471
-0.201969
-0.405898
-0.386923
-0.373965
-0.359335
-0.344475
-0.328452
-0.312155
-0.296464
-0.281778
-0.268185
-0.255609
-0.243907
-0.23292
-0.22251
-0.212571
-0.203034
-0.193832
-0.185044
-0.414549
-0.392866
-0.378801
-0.362045
-0.344403
-0.325838
-0.30753
-0.290384
-0.274694
-0.260421
-0.247399
-0.235425
-0.224308
-0.21389
-0.204049
-0.194703
-0.185789
-0.177339
-0.169157
-0.161793
-0.423851
-0.399103
-0.384068
-0.364548
-0.343846
-0.322723
-0.302501
-0.284021
-0.267428
-0.252554
-0.239143
-0.226941
-0.215727
-0.205321
-0.195592
-0.18644
-0.177802
-0.169672
-0.161897
-0.154935
-0.433692
-0.405602
-0.389623
-0.366693
-0.342721
-0.319079
-0.29706
-0.277363
-0.259962
-0.244556
-0.23081
-0.218421
-0.20714
-0.19677
-0.187162
-0.178208
-0.169837
-0.16201
-0.154619
-0.14802
-0.443888
-0.412353
-0.395202
-0.368337
-0.340959
-0.314876
-0.291193
-0.270393
-0.25227
-0.236399
-0.222368
-0.209832
-0.198515
-0.188202
-0.178729
-0.169977
-0.161865
-0.15433
-0.147298
-0.141031
-0.454199
-0.419349
-0.400462
-0.369342
-0.338499
-0.310086
-0.284876
-0.263086
-0.244326
-0.228053
-0.213788
-0.201146
-0.189825
-0.179592
-0.170267
-0.161721
-0.153862
-0.146609
-0.139917
-0.133953
-0.464352
-0.426549
-0.405056
-0.369564
-0.335285
-0.304675
-0.278082
-0.255414
-0.236098
-0.219488
-0.205042
-0.192336
-0.181043
-0.170912
-0.161751
-0.153419
-0.145809
-0.138832
-0.132462
-0.126776
-0.474071
-0.433844
-0.408685
-0.36886
-0.331265
-0.298611
-0.27078
-0.247346
-0.227559
-0.210678
-0.196103
-0.183377
-0.172147
-0.162144
-0.153163
-0.145051
-0.137691
-0.130986
-0.124921
-0.119491
-0.4831
-0.44103
-0.411121
-0.367093
-0.326383
-0.291861
-0.262939
-0.238852
-0.218679
-0.201595
-0.186949
-0.174247
-0.163115
-0.153267
-0.144485
-0.136604
-0.129495
-0.123062
-0.117289
-0.112095
-0.491211
-0.447808
-0.412209
-0.36415
-0.320584
-0.28439
-0.254525
-0.229899
-0.209431
-0.192216
-0.177557
-0.164928
-0.153933
-0.144268
-0.135704
-0.128065
-0.121213
-0.115052
-0.109558
-0.104586
-0.49821
-0.453804
-0.411843
-0.359938
-0.313816
-0.276164
-0.245508
-0.220462
-0.199791
-0.182522
-0.167911
-0.155405
-0.144586
-0.135135
-0.12681
-0.119428
-0.11284
-0.106953
-0.101729
-0.0969684
-0.503928
-0.458611
-0.409942
-0.354396
-0.306036
-0.267152
-0.235862
-0.210517
-0.18974
-0.172495
-0.157998
-0.145667
-0.135064
-0.125858
-0.117797
-0.110687
-0.104372
-0.0987622
-0.0938001
-0.0892484
-0.508179
-0.46182
-0.406421
-0.347482
-0.297209
-0.257327
-0.225566
-0.200045
-0.179263
-0.162124
-0.147806
-0.135704
-0.125361
-0.116434
-0.10866
-0.101839
-0.0958101
-0.0904819
-0.0857772
-0.0814349
-0.510764
-0.463077
-0.401174
-0.339154
-0.287295
-0.246658
-0.214593
-0.189027
-0.168344
-0.151395
-0.137326
-0.125507
-0.115469
-0.106856
-0.0993962
-0.0928828
-0.0871533
-0.0821179
-0.0776728
-0.0735309
-0.511701
-0.462205
-0.394136
-0.329379
-0.276258
-0.235112
-0.202919
-0.177444
-0.156969
-0.140298
-0.126549
-0.115071
-0.105384
-0.0971228
-0.0900061
-0.0838198
-0.078404
-0.0736807
-0.0695057
-0.0655352
-0.510776
-0.458956
-0.385213
-0.318125
-0.264079
-0.222673
-0.190533
-0.165287
-0.145131
-0.128828
-0.115472
-0.104397
-0.0951083
-0.087236
-0.0804974
-0.0746581
-0.0695715
-0.0651809
-0.0612733
-0.057472
-0.507804
-0.453186
-0.374355
-0.305379
-0.250746
-0.209329
-0.177423
-0.152548
-0.132826
-0.116985
-0.104097
-0.0934921
-0.084649
-0.0772015
-0.0708778
-0.0654087
-0.0606801
-0.0566208
-0.0529572
-0.0493746
-0.502611
-0.444797
-0.361524
-0.29113
-0.236254
-0.195072
-0.163581
-0.139226
-0.120054
-0.104783
-0.0924351
-0.0823671
-0.0740195
-0.0670383
-0.0611396
-0.0560755
-0.0517295
-0.0480069
-0.0445895
-0.0412501
-0.495014
-0.433727
-0.3467
-0.275377
-0.220597
-0.179893
-0.149009
-0.125335
-0.106832
-0.0922422
-0.0805122
-0.0710173
-0.0632171
-0.0567424
-0.0513022
-0.0466694
-0.0427263
-0.039351
-0.0361922
-0.0331112
-0.48483
-0.419943
-0.329882
-0.258118
-0.203764
-0.1638
-0.133739
-0.110907
-0.0932075
-0.0793456
-0.068316
-0.0594586
-0.0522539
-0.0463249
-0.0413786
-0.0372029
-0.0336822
-0.0306675
-0.027782
-0.0249751
-0.471891
-0.403435
-0.311078
-0.239358
-0.185746
-0.146847
-0.117832
-0.0959528
-0.0791533
-0.0661183
-0.0558619
-0.0477067
-0.041145
-0.0358004
-0.0313822
-0.0276897
-0.0246111
-0.0219713
-0.0193736
-0.0168597
-0.456046
-0.384209
-0.290313
-0.219118
-0.166597
-0.129128
-0.101253
-0.0804745
-0.0646935
-0.0525829
-0.0431708
-0.035779
-0.0299077
-0.0251856
-0.0213279
-0.018145
-0.0155282
-0.0132778
-0.0109829
-0.00878317
-0.437181
-0.362289
-0.267603
-0.197477
-0.1465
-0.110531
-0.0840353
-0.064505
-0.0498569
-0.0387641
-0.0302667
-0.023696
-0.0185609
-0.0144986
-0.0112327
-0.00858505
-0.00644973
-0.0046035
-0.00262689
-0.000763678
-0.415222
-0.337736
-0.242943
-0.174583
-0.125406
-0.0911334
-0.066217
-0.048082
-0.0346769
-0.0246897
-0.0171755
-0.0114806
-0.00712596
-0.00375921
-0.00111507
0.000972507
0.00260736
0.00403406
0.00567504
0.00718
-0.390142
-0.310708
-0.216351
-0.150465
-0.103351
-0.0710041
-0.0478462
-0.0312469
-0.0191904
-0.0103918
-0.00392589
0.000841336
0.00437413
0.0070114
0.00900534
0.0105092
0.0116252
0.0126159
0.0139015
0.0150278
-0.361969
-0.28144
-0.188013
-0.124989
-0.080398
-0.0502126
-0.0289779
-0.0140463
-0.00343844
0.00409393
0.00945052
0.0132419
0.0159143
0.0177905
0.0191077
0.020006
0.0205859
0.0211234
0.0220309
0.0227587
-0.330779
-0.249955
-0.158046
-0.0983211
-0.0566249
-0.028831
-0.00967352
0.00346821
0.0125343
0.0187284
0.0229195
0.0256908
0.0274676
0.0285539
0.0291697
0.029443
0.029473
0.0295418
0.030047
0.0303543
-0.296725
-0.215703
-0.127082
-0.070644
-0.0321192
-0.00693549
0.00999969
0.0212401
0.0286789
0.0334695
0.0364442
0.0381559
0.0390056
0.0392757
0.0391676
0.0387995
0.0382709
0.0378612
0.0379403
0.037802
-0.260028
-0.179092
-0.0949265
-0.0421185
-0.00698439
0.0153913
0.0299696
0.0392081
0.0449432
0.0482717
0.0499854
0.0506027
0.0504978
0.0499282
0.0490762
0.048054
0.0469646
0.0460702
0.0456953
0.045084
-0.220753
-0.140614
-0.0616069
-0.012884
0.0186637
0.0380595
0.0501593
0.0573067
0.0612712
0.0630872
0.0635016
0.0629955
0.0619127
0.0604832
0.0588709
0.0571877
0.0555387
0.0541429
0.0532531
0.0521249
-0.178657
-0.10118
-0.0272976
0.0169277
0.044703
0.0609718
0.070487
0.0754666
0.077604
0.0778656
0.0769497
0.0752968
0.0732176
0.0709125
0.0685302
0.0661872
0.0639797
0.0620338
0.0604878
0.0587155
-0.134442
-0.0607719
0.00778168
0.0471729
0.0710053
0.0840239
0.0908664
0.0936155
0.0938805
0.092555
0.0902852
0.0874681
0.0843788
0.0811886
0.0780352
0.0750423
0.0722728
0.0696903
0.0672691
0.0646448
-0.0883631
-0.0195053
0.0433988
0.0776911
0.0974367
0.107107
0.111208
0.111679
0.110038
0.107102
0.103462
0.0994699
0.0953624
0.091284
0.0873662
0.0837339
0.0803857
0.0770696
0.0736238
0.0703371
-0.0406313
0.0224197
0.0793315
0.108321
0.123865
0.130113
0.131421
0.12958
0.126011
0.121451
0.116434
0.111261
0.106134
0.101171
0.0964982
0.0922251
0.0882605
0.0841631
0.0797966
0.0771764
0.00796331
0.0647063
0.115367
0.138908
0.150161
0.152931
0.151415
0.147242
0.141735
0.135547
0.129151
0.1228
0.116657
0.11082
0.105402
0.100474
0.0958521
0.0910441
0.0862024
0.0839719
0.0570905
0.107094
0.15127
0.169267
0.176176
0.175444
0.171089
0.164582
0.15714
0.14933
0.141564
0.134044
0.126898
0.1202
0.114044
0.108455
0.103179
0.0977773
0.0926581
0.0904293
0.106356
0.149278
0.186808
0.199217
0.201766
0.197531
0.190348
0.18152
0.172159
0.162743
0.153624
0.144952
0.13682
0.129278
0.122393
0.116142
0.110245
0.104348
0.0989917
0.0965125
0.155347
0.190953
0.221745
0.228574
0.226784
0.219074
0.209093
0.197975
0.186723
0.175729
0.165281
0.155481
0.146387
0.138021
0.13042
0.123522
0.117045
0.11071
0.105095
0.102247
0.20365
0.231813
0.25585
0.257159
0.251085
0.239956
0.227227
0.213865
0.200765
0.188231
0.176489
0.165592
0.155562
0.146397
0.138098
0.130576
0.123558
0.116819
0.11092
0.107649
0.250855
0.271558
0.288893
0.28479
0.274525
0.26006
0.244655
0.229112
0.214218
0.200192
0.187198
0.175241
0.164311
0.154373
0.145401
0.137283
0.129759
0.122638
0.116441
0.112725
0.296564
0.309892
0.32065
0.311292
0.296964
0.279272
0.261283
0.243638
0.227018
0.211558
0.197363
0.184391
0.172598
0.16192
0.152305
0.143622
0.135623
0.12814
0.121642
0.117474
0.340388
0.346532
0.350905
0.336494
0.318266
0.297482
0.277022
0.257369
0.239102
0.222277
0.206938
0.193001
0.180389
0.16901
0.158785
0.14957
0.141127
0.133302
0.126508
0.12189
0.381963
0.381202
0.37945
0.360232
0.3383
0.314584
0.291783
0.270232
0.250411
0.232296
0.21588
0.201036
0.187654
0.175615
0.164818
0.155106
0.14625
0.138105
0.131026
0.125968
0.420951
0.413628
0.406086
0.38235
0.356941
0.330477
0.305486
0.28216
0.260887
0.24157
0.22415
0.208461
0.194362
0.18171
0.17038
0.160208
0.150971
0.142533
0.135182
0.1297
0.457038
0.443554
0.430626
0.402701
0.374072
0.345067
0.318053
0.293088
0.270477
0.250052
0.231709
0.215242
0.200484
0.187269
0.175451
0.164857
0.155274
0.146569
0.138965
0.133079
0.489925
0.470749
0.452897
0.421149
0.389587
0.358268
0.329413
0.302959
0.279131
0.257702
0.238521
0.221349
0.205996
0.19227
0.18001
0.169036
0.159142
0.150197
0.14236
0.136099
0.519337
0.495008
0.472741
0.437572
0.403385
0.369999
0.339501
0.311718
0.286806
0.264481
0.244554
0.226756
0.210872
0.196692
0.18404
0.172728
0.16256
0.153404
0.145359
0.138753
0.545026
0.516147
0.490019
0.451859
0.415381
0.38019
0.348258
0.319317
0.293461
0.270357
0.24978
0.231437
0.215092
0.200519
0.187525
0.17592
0.165515
0.156178
0.147949
0.141037
0.566775
0.53401
0.504607
0.463914
0.425496
0.388778
0.355635
0.325715
0.299061
0.275298
0.254174
0.235371
0.218638
0.203732
0.190451
0.178599
0.167996
0.158507
0.150122
0.142946
0.584401
0.548462
0.516403
0.473656
0.433666
0.395712
0.361587
0.330876
0.303577
0.279282
0.257715
0.238541
0.221493
0.206319
0.192806
0.180755
0.169992
0.160383
0.151871
0.144477
0.597755
0.559395
0.525321
0.481018
0.439838
0.400948
0.366081
0.334771
0.306984
0.282286
0.260385
0.24093
0.223645
0.208269
0.19458
0.182379
0.171497
0.161796
0.153188
0.145627
0.606723
0.566728
0.5313
0.485952
0.443973
0.404455
0.36909
0.337378
0.309264
0.284297
0.262172
0.242529
0.225085
0.209573
0.195767
0.183465
0.172503
0.162741
0.154069
0.146395
0.611229
0.570408
0.5343
0.488426
0.446047
0.406214
0.370599
0.338686
0.310408
0.285305
0.263067
0.24333
0.225807
0.210226
0.196361
0.18401
0.173007
0.163215
0.15451
0.146779
0.611229
0.570408
0.5343
0.488426
0.446047
0.406214
0.370599
0.338686
0.310408
0.285305
0.263067
0.24333
0.225807
0.210226
0.196361
0.18401
0.173007
0.163215
0.15451
0.146779
0.606723
0.566728
0.5313
0.485952
0.443973
0.404455
0.36909
0.337378
0.309264
0.284297
0.262172
0.242529
0.225085
0.209573
0.195767
0.183465
0.172503
0.162741
0.154069
0.146395
0.597755
0.559395
0.525321
0.481018
0.439838
0.400948
0.366081
0.334771
0.306984
0.282286
0.260385
0.24093
0.223645
0.208269
0.19458
0.182379
0.171497
0.161796
0.153188
0.145627
0.584401
0.548462
0.516403
0.473656
0.433666
0.395712
0.361587
0.330876
0.303577
0.279282
0.257715
0.238541
0.221493
0.206319
0.192806
0.180755
0.169992
0.160383
0.151871
0.144477
0.566775
0.53401
0.504607
0.463914
0.425496
0.388778
0.355635
0.325715
0.299061
0.275298
0.254174
0.235371
0.218638
0.203732
0.190451
0.178599
0.167996
0.158507
0.150122
0.142946
0.545026
0.516147
0.490019
0.451859
0.415381
0.38019
0.348258
0.319317
0.293461
0.270357
0.24978
0.231437
0.215092
0.200519
0.187525
0.17592
0.165515
0.156178
0.147949
0.141037
0.519337
0.495008
0.472741
0.437572
0.403385
0.369999
0.339501
0.311718
0.286806
0.264481
0.244554
0.226756
0.210872
0.196692
0.18404
0.172728
0.16256
0.153404
0.145359
0.138753
0.489925
0.470749
0.452897
0.421149
0.389587
0.358268
0.329413
0.302959
0.279131
0.257702
0.238521
0.221349
0.205996
0.19227
0.18001
0.169036
0.159142
0.150197
0.14236
0.136099
0.457038
0.443554
0.430626
0.402701
0.374072
0.345067
0.318053
0.293088
0.270477
0.250052
0.231709
0.215242
0.200484
0.187269
0.175451
0.164857
0.155274
0.146569
0.138965
0.133079
0.420951
0.413628
0.406086
0.38235
0.356941
0.330477
0.305486
0.28216
0.260887
0.24157
0.22415
0.208461
0.194362
0.18171
0.17038
0.160208
0.150971
0.142533
0.135182
0.1297
0.381963
0.381202
0.37945
0.360232
0.3383
0.314584
0.291783
0.270232
0.250411
0.232296
0.21588
0.201036
0.187654
0.175615
0.164818
0.155106
0.14625
0.138105
0.131026
0.125968
0.340388
0.346532
0.350905
0.336494
0.318266
0.297482
0.277022
0.257369
0.239102
0.222277
0.206938
0.193001
0.180389
0.16901
0.158785
0.14957
0.141127
0.133302
0.126508
0.12189
0.296564
0.309892
0.32065
0.311292
0.296964
0.279272
0.261283
0.243638
0.227018
0.211558
0.197363
0.184391
0.172598
0.16192
0.152305
0.143622
0.135623
0.12814
0.121642
0.117474
0.250855
0.271558
0.288893
0.28479
0.274525
0.26006
0.244655
0.229112
0.214218
0.200192
0.187198
0.175241
0.164311
0.154373
0.145401
0.137283
0.129759
0.122638
0.116441
0.112725
0.20365
0.231813
0.25585
0.257159
0.251085
0.239956
0.227227
0.213865
0.200765
0.188231
0.176489
0.165592
0.155562
0.146397
0.138098
0.130576
0.123558
0.116819
0.11092
0.107649
0.155347
0.190953
0.221745
0.228574
0.226784
0.219074
0.209093
0.197975
0.186723
0.175729
0.165281
0.155481
0.146387
0.138021
0.13042
0.123522
0.117045
0.11071
0.105095
0.102247
0.106356
0.149278
0.186808
0.199217
0.201766
0.197531
0.190348
0.18152
0.172159
0.162743
0.153624
0.144952
0.13682
0.129278
0.122393
0.116142
0.110245
0.104348
0.0989916
0.0965125
0.0570905
0.107094
0.15127
0.169267
0.176176
0.175443
0.171089
0.164582
0.15714
0.14933
0.141564
0.134044
0.126898
0.1202
0.114044
0.108455
0.103179
0.0977773
0.0926581
0.0904293
0.0079633
0.0647063
0.115367
0.138908
0.150161
0.152931
0.151415
0.147242
0.141735
0.135547
0.129151
0.1228
0.116657
0.11082
0.105402
0.100474
0.0958521
0.0910441
0.0862024
0.0839719
-0.0406313
0.0224197
0.0793314
0.108321
0.123865
0.130113
0.131421
0.12958
0.126011
0.121451
0.116434
0.111261
0.106134
0.101171
0.0964982
0.0922251
0.0882605
0.0841631
0.0797966
0.0771764
-0.0883631
-0.0195053
0.0433988
0.0776911
0.0974367
0.107107
0.111208
0.111679
0.110038
0.107102
0.103462
0.0994699
0.0953624
0.091284
0.0873662
0.0837339
0.0803857
0.0770696
0.0736238
0.0703371
-0.134442
-0.0607719
0.00778167
0.0471729
0.0710053
0.0840239
0.0908664
0.0936155
0.0938805
0.0925549
0.0902851
0.0874681
0.0843787
0.0811886
0.0780352
0.0750423
0.0722728
0.0696903
0.0672691
0.0646447
-0.178657
-0.10118
-0.0272976
0.0169277
0.044703
0.0609718
0.070487
0.0754666
0.077604
0.0778656
0.0769497
0.0752968
0.0732176
0.0709125
0.0685302
0.0661872
0.0639797
0.0620338
0.0604878
0.0587155
-0.220753
-0.140614
-0.061607
-0.012884
0.0186637
0.0380595
0.0501593
0.0573067
0.0612712
0.0630872
0.0635016
0.0629955
0.0619127
0.0604832
0.0588709
0.0571877
0.0555386
0.0541429
0.0532531
0.0521249
-0.260028
-0.179092
-0.0949265
-0.0421185
-0.0069844
0.0153913
0.0299696
0.0392081
0.0449432
0.0482717
0.0499854
0.0506027
0.0504978
0.0499282
0.0490762
0.048054
0.0469646
0.0460702
0.0456953
0.045084
-0.296725
-0.215703
-0.127082
-0.070644
-0.0321192
-0.00693549
0.00999969
0.0212401
0.0286789
0.0334695
0.0364442
0.0381558
0.0390055
0.0392756
0.0391676
0.0387994
0.0382709
0.0378612
0.0379403
0.037802
-0.330779
-0.249955
-0.158046
-0.0983211
-0.0566249
-0.028831
-0.00967353
0.00346821
0.0125342
0.0187284
0.0229195
0.0256908
0.0274676
0.0285539
0.0291697
0.029443
0.029473
0.0295418
0.030047
0.0303543
-0.361969
-0.28144
-0.188013
-0.124989
-0.080398
-0.0502126
-0.0289779
-0.0140463
-0.00343845
0.00409392
0.00945052
0.0132419
0.0159143
0.0177905
0.0191077
0.020006
0.0205859
0.0211234
0.0220309
0.0227587
-0.390142
-0.310708
-0.216351
-0.150465
-0.103351
-0.0710041
-0.0478463
-0.031247
-0.0191904
-0.0103918
-0.00392589
0.000841331
0.00437413
0.0070114
0.00900533
0.0105092
0.0116252
0.0126159
0.0139015
0.0150278
-0.415222
-0.337736
-0.242943
-0.174583
-0.125406
-0.0911334
-0.0662171
-0.048082
-0.0346769
-0.0246897
-0.0171755
-0.0114806
-0.00712597
-0.00375922
-0.00111508
0.000972502
0.00260736
0.00403405
0.00567503
0.00718
-0.437181
-0.362289
-0.267603
-0.197477
-0.1465
-0.110531
-0.0840353
-0.0645051
-0.0498569
-0.0387641
-0.0302667
-0.023696
-0.018561
-0.0144986
-0.0112327
-0.00858506
-0.00644973
-0.00460351
-0.0026269
-0.000763683
-0.456046
-0.384209
-0.290313
-0.219118
-0.166597
-0.129128
-0.101253
-0.0804745
-0.0646935
-0.0525829
-0.0431708
-0.035779
-0.0299077
-0.0251856
-0.0213279
-0.018145
-0.0155282
-0.0132778
-0.0109829
-0.00878317
-0.471891
-0.403435
-0.311078
-0.239358
-0.185746
-0.146847
-0.117832
-0.0959528
-0.0791533
-0.0661183
-0.0558619
-0.0477067
-0.041145
-0.0358004
-0.0313822
-0.0276897
-0.0246111
-0.0219713
-0.0193736
-0.0168597
-0.48483
-0.419943
-0.329882
-0.258118
-0.203764
-0.1638
-0.133739
-0.110907
-0.0932075
-0.0793456
-0.068316
-0.0594586
-0.0522539
-0.0463249
-0.0413786
-0.0372029
-0.0336822
-0.0306675
-0.027782
-0.0249751
-0.495014
-0.433727
-0.3467
-0.275377
-0.220597
-0.179893
-0.149009
-0.125335
-0.106832
-0.0922422
-0.0805122
-0.0710173
-0.0632171
-0.0567424
-0.0513022
-0.0466694
-0.0427263
-0.039351
-0.0361923
-0.0331113
-0.502611
-0.444797
-0.361524
-0.29113
-0.236254
-0.195072
-0.163581
-0.139226
-0.120054
-0.104783
-0.0924351
-0.0823671
-0.0740196
-0.0670383
-0.0611396
-0.0560755
-0.0517295
-0.0480069
-0.0445895
-0.0412501
-0.507804
-0.453186
-0.374355
-0.305379
-0.250746
-0.209329
-0.177423
-0.152548
-0.132826
-0.116985
-0.104097
-0.0934921
-0.084649
-0.0772015
-0.0708778
-0.0654087
-0.0606802
-0.0566208
-0.0529572
-0.0493746
-0.510776
-0.458956
-0.385213
-0.318125
-0.264079
-0.222673
-0.190533
-0.165287
-0.145131
-0.128828
-0.115472
-0.104397
-0.0951083
-0.087236
-0.0804974
-0.0746581
-0.0695715
-0.0651809
-0.0612733
-0.057472
-0.511701
-0.462205
-0.394136
-0.329379
-0.276258
-0.235112
-0.202919
-0.177444
-0.156969
-0.140298
-0.126549
-0.115071
-0.105384
-0.0971228
-0.0900061
-0.0838198
-0.078404
-0.0736807
-0.0695057
-0.0655352
-0.510764
-0.463077
-0.401174
-0.339154
-0.287295
-0.246658
-0.214593
-0.189027
-0.168344
-0.151395
-0.137326
-0.125507
-0.115469
-0.106856
-0.0993962
-0.0928828
-0.0871533
-0.082118
-0.0776728
-0.0735309
-0.508179
-0.46182
-0.406421
-0.347482
-0.297209
-0.257327
-0.225566
-0.200045
-0.179263
-0.162124
-0.147806
-0.135704
-0.125361
-0.116434
-0.10866
-0.101839
-0.0958101
-0.0904819
-0.0857773
-0.0814349
-0.503928
-0.458611
-0.409942
-0.354396
-0.306036
-0.267152
-0.235862
-0.210517
-0.18974
-0.172495
-0.157998
-0.145667
-0.135064
-0.125858
-0.117797
-0.110687
-0.104372
-0.0987622
-0.0938001
-0.0892484
-0.49821
-0.453804
-0.411843
-0.359938
-0.313816
-0.276164
-0.245508
-0.220462
-0.199791
-0.182522
-0.167911
-0.155405
-0.144586
-0.135135
-0.12681
-0.119428
-0.11284
-0.106953
-0.101729
-0.0969684
-0.491211
-0.447808
-0.412209
-0.36415
-0.320584
-0.28439
-0.254525
-0.229899
-0.209431
-0.192216
-0.177557
-0.164928
-0.153933
-0.144268
-0.135704
-0.128065
-0.121213
-0.115052
-0.109558
-0.104586
-0.4831
-0.44103
-0.411121
-0.367093
-0.326383
-0.291861
-0.262939
-0.238852
-0.218679
-0.201595
-0.186949
-0.174247
-0.163115
-0.153267
-0.144485
-0.136604
-0.129495
-0.123062
-0.117289
-0.112095
-0.474071
-0.433844
-0.408685
-0.36886
-0.331265
-0.298611
-0.27078
-0.247346
-0.227559
-0.210678
-0.196103
-0.183377
-0.172147
-0.162144
-0.153163
-0.145051
-0.137691
-0.130986
-0.124921
-0.119491
-0.464352
-0.426549
-0.405056
-0.369564
-0.335285
-0.304675
-0.278082
-0.255414
-0.236098
-0.219488
-0.205042
-0.192336
-0.181043
-0.170913
-0.161751
-0.153419
-0.145809
-0.138832
-0.132462
-0.126776
-0.454199
-0.419349
-0.400462
-0.369342
-0.338499
-0.310086
-0.284876
-0.263086
-0.244326
-0.228053
-0.213788
-0.201146
-0.189825
-0.179592
-0.170267
-0.161721
-0.153862
-0.146609
-0.139917
-0.133953
-0.443888
-0.412353
-0.395202
-0.368337
-0.340959
-0.314876
-0.291193
-0.270393
-0.25227
-0.236399
-0.222368
-0.209832
-0.198515
-0.188202
-0.178729
-0.169977
-0.161865
-0.15433
-0.147298
-0.141031
-0.433692
-0.405602
-0.389623
-0.366693
-0.342721
-0.319079
-0.29706
-0.277363
-0.259962
-0.244556
-0.23081
-0.218421
-0.20714
-0.19677
-0.187162
-0.178208
-0.169837
-0.16201
-0.154619
-0.14802
-0.423851
-0.399103
-0.384068
-0.364548
-0.343846
-0.322723
-0.302501
-0.284021
-0.267428
-0.252554
-0.239143
-0.226941
-0.215727
-0.205321
-0.195592
-0.18644
-0.177802
-0.169672
-0.161897
-0.154935
-0.414549
-0.392866
-0.378801
-0.362045
-0.344403
-0.325838
-0.30753
-0.290384
-0.274694
-0.260421
-0.247399
-0.235425
-0.224308
-0.21389
-0.204049
-0.194703
-0.185789
-0.177339
-0.169157
-0.161793
-0.405898
-0.386923
-0.373965
-0.359335
-0.344475
-0.328452
-0.312155
-0.296464
-0.281778
-0.268185
-0.255609
-0.243907
-0.23292
-0.22251
-0.212571
-0.203034
-0.193832
-0.185044
-0.39795
-0.381327
-0.369582
-0.356586
-0.344153
-0.330593
-0.316379
-0.302261
-0.288692
-0.275866
-0.263803
-0.25242
-0.241598
-0.231221
-0.221196
-0.211471
-0.201969
-0.390712
-0.376141
-0.365604
-0.353954
-0.343544
-0.332297
-0.320197
-0.307765
-0.295436
-0.283482
-0.272008
-0.261001
-0.250383
-0.240066
-0.229968
-0.220061
-0.384165
-0.371411
-0.361974
-0.351549
-0.342763
-0.333611
-0.323606
-0.312953
-0.301996
-0.291034
-0.280244
-0.269681
-0.259315
-0.249091
-0.238938
-0.378277
-0.367154
-0.35867
-0.34941
-0.341926
-0.3346
-0.326607
-0.317797
-0.308342
-0.29851
-0.288522
-0.27849
-0.268436
-0.258346
-0.37301
-0.36336
-0.355696
-0.347531
-0.341134
-0.335344
-0.329214
-0.322261
-0.314426
-0.305879
-0.296832
-0.287444
-0.277781
-0.36832
-0.36
-0.353069
-0.345898
-0.340454
-0.335934
-0.331459
-0.326314
-0.320186
-0.313081
-0.305145
-0.296545
-0.287379
-0.364152
-0.357034
-0.350792
-0.344516
-0.339924
-0.336455
-0.333394
-0.329937
-0.325551
-0.320033
-0.313395
-0.305765
-0.360439
-0.354417
-0.348857
-0.343401
-0.339574
-0.336985
-0.335098
-0.333146
-0.330461
-0.326633
-0.321484
-0.31504
-0.357138
-0.352097
-0.347208
-0.34253
-0.339393
-0.337554
-0.336624
-0.33596
-0.334861
-0.332762
-0.32927
-0.354174
-0.350027
-0.345809
-0.341892
-0.339397
-0.338204
-0.33805
-0.338441
-0.338743
-0.338318
-0.336589
-0.351474
-0.348155
-0.344608
-0.34145
-0.339578
-0.338963
-0.339441
-0.34067
-0.342142
-0.343239
-0.348971
-0.346429
-0.343549
-0.34115
-0.339899
-0.339827
-0.340842
-0.342732
-0.345135
-0.347527
-0.346607
-0.344804
-0.342575
-0.340932
-0.340304
-0.340767
-0.342268
-0.344695
-0.347823
-0.344326
-0.343239
-0.341635
-0.340733
-0.34073
-0.341731
-0.3437
-0.346595
-0.3503
-0.342087
-0.341704
-0.340684
-0.340496
-0.341109
-0.342651
-0.34509
-0.348428
-0.35262
-0.339863
-0.34017
-0.339694
-0.340174
-0.341377
-0.343453
-0.346367
-0.350147
-0.354788
-0.337638
-0.338625
-0.338645
-0.339731
-0.341483
-0.344073
-0.347456
-0.351678
-0.335416
-0.337073
-0.337524
-0.339148
-0.341393
-0.344457
-0.348288
-0.35294
-0.333212
-0.335525
-0.336338
-0.338424
-0.341096
-0.344578
-0.348815
-0.353865
-0.331058
-0.334001
-0.335108
-0.337578
-0.340601
-0.344434
-0.349017
-0.354412
-0.328997
-0.332531
-0.333868
-0.336644
-0.339942
-0.344053
-0.34891
-0.354577
-0.32708
-0.331154
-0.332662
-0.335672
-0.339173
-0.343488
-0.348545
-0.354403
-0.325363
-0.329912
-0.331543
-0.334722
-0.338363
-0.342815
-0.348
-0.323905
-0.328851
-0.330563
-0.333859
-0.337588
-0.342124
-0.347378
-0.322757
-0.328011
-0.329775
-0.333146
-0.336925
-0.341505
-0.346787
-0.321964
-0.32743
-0.329222
-0.332637
-0.336442
-0.34104
-0.346328
-0.321559
-0.327132
-0.328938
-0.332372
-0.336187
-0.34079
-0.346077
-0.0791851
-0.0868114
-0.094358
-0.101811
-0.109161
-0.116401
-0.12353
-0.130546
-0.137457
-0.144263
-0.150984
-0.0785545
-0.0860721
-0.0935085
-0.100848
-0.108083
-0.115203
-0.122207
-0.12909
-0.135858
-0.142507
-0.14906
-0.0779151
-0.0852949
-0.0925899
-0.099784
-0.106868
-0.113831
-0.120671
-0.12738
-0.133964
-0.140415
-0.146754
-0.0772649
-0.0845169
-0.0916827
-0.0987456
-0.105696
-0.112521
-0.11922
-0.125782
-0.132214
-0.138502
-0.144673
-0.0766042
-0.0837322
-0.090774
-0.0977119
-0.104536
-0.111234
-0.117803
-0.124232
-0.130528
-0.136675
-0.1427
-0.0759346
-0.0829362
-0.0898516
-0.0966623
-0.103358
-0.109925
-0.116362
-0.122654
-0.128811
-0.134812
-0.140688
-0.0752566
-0.0821292
-0.0889153
-0.0955954
-0.102159
-0.108591
-0.11489
-0.12104
-0.12705
-0.132898
-0.138613
-0.0745709
-0.0813127
-0.0879677
-0.0945151
-0.100944
-0.107239
-0.113397
-0.119402
-0.125261
-0.130952
-0.136501
-0.0738786
-0.0804884
-0.0870108
-0.0934241
-0.0997165
-0.105872
-0.111888
-0.117746
-0.123454
-0.128986
-0.134368
-0.0731812
-0.0796579
-0.0860464
-0.0923243
-0.0984792
-0.104495
-0.110367
-0.116076
-0.121631
-0.127004
-0.132219
-0.0724798
-0.0788227
-0.0850763
-0.0912179
-0.0972342
-0.103108
-0.108835
-0.114396
-0.119795
-0.125009
-0.130056
-0.0717761
-0.0779847
-0.0841028
-0.0901074
-0.0959841
-0.101716
-0.107296
-0.112708
-0.117952
-0.123007
-0.127885
-0.0710717
-0.077146
-0.0831283
-0.0889955
-0.0947322
-0.100321
-0.105755
-0.111017
-0.116105
-0.121001
-0.125711
-0.0703684
-0.0763088
-0.0821554
-0.0878852
-0.0934819
-0.0989281
-0.104216
-0.109328
-0.114261
-0.118998
-0.123542
-0.0696682
-0.0754755
-0.0811871
-0.0867799
-0.092237
-0.0975412
-0.102683
-0.107646
-0.112425
-0.117005
-0.121385
-0.0689734
-0.0746489
-0.0802265
-0.0856834
-0.0910018
-0.0961649
-0.101162
-0.105978
-0.110605
-0.11503
-0.119249
-0.123252
-0.0682864
-0.0738322
-0.0792774
-0.0845997
-0.0897809
-0.0948047
-0.099659
-0.104329
-0.108807
-0.113079
-0.117142
-0.120984
-0.0676091
-0.0730285
-0.0783437
-0.0835333
-0.0885795
-0.0934662
-0.0981805
-0.102708
-0.10704
-0.111163
-0.115074
-0.11876
-0.0669442
-0.0722413
-0.0774298
-0.0824894
-0.0874034
-0.0921559
-0.0967335
-0.101122
-0.105312
-0.109291
-0.113055
-0.116592
-0.0662989
-0.0714762
-0.0765408
-0.0814736
-0.0862589
-0.090881
-0.095326
-0.0995803
-0.103633
-0.107474
-0.111096
-0.114491
-0.0656788
-0.070738
-0.075682
-0.0804922
-0.0851531
-0.0896493
-0.0939667
-0.0980918
-0.102014
-0.105722
-0.109211
-0.112471
-0.0650873
-0.0700316
-0.0748596
-0.0795522
-0.0840939
-0.0884696
-0.0926651
-0.0966673
-0.100465
-0.104049
-0.107412
-0.110546
-0.0645291
-0.0693636
-0.0740808
-0.0786615
-0.0830899
-0.0873513
-0.0914319
-0.0953185
-0.0990005
-0.102468
-0.105714
-0.108732
-0.0640101
-0.0687409
-0.0733535
-0.0778287
-0.0821508
-0.0863054
-0.0902787
-0.094058
-0.0976327
-0.100993
-0.104132
-0.107044
-0.0635373
-0.0681715
-0.0726866
-0.0770637
-0.0812875
-0.0853436
-0.0892186
-0.0929
-0.0963773
-0.0996411
-0.102685
-0.105503
-0.0631183
-0.067664
-0.0720899
-0.0763777
-0.0805121
-0.0844792
-0.0882659
-0.09186
-0.0952511
-0.0984302
-0.101391
-0.104127
-0.0627622
-0.0672287
-0.071575
-0.0757832
-0.0798385
-0.0837273
-0.087437
-0.0909555
-0.0942728
-0.0973801
-0.100271
-0.102939
-0.0624803
-0.0668777
-0.0711551
-0.075295
-0.0792829
-0.0831059
-0.0867513
-0.0902078
-0.0934652
-0.096515
-0.0993505
-0.101967
-0.0622782
-0.0666178
-0.0708378
-0.0749218
-0.0788559
-0.0826273
-0.0862238