/*--------------------------------*- C++ -*----------------------------------*\
  =========                 |
  \\      /  F ield         | OpenFOAM: The Open Source CFD Toolbox
   \\    /   O peration     | Website:  https://openfoam.org
    \\  /    A nd           | Version:  7
     \\/     M anipulation  |
\*---------------------------------------------------------------------------*/
FoamFile
{
    version     2.0;
    format      ascii;
    class       surfaceScalarField;
    location    "10";
    object      phi;
}
// * * * * * * * * * * * * * * * * * * * * * * * * * * * * * * * * * * * * * //

dimensions      [0 3 -1 0 0 0 0];

internalField   nonuniform List<scalar> 
11850
(
-4.97519e-05
4.97517e-05
1.27499e-10
-0.000144732
9.49803e-05
2.48e-10
-0.000267746
0.000123013
3.11152e-10
-0.000410809
0.000143062
3.47477e-10
-0.000572315
0.000161506
3.77599e-10
-0.00075306
0.000180745
4.06922e-10
0.000201633
4.33179e-10
-4.83995e-05
9.81513e-05
-0.000141
0.000187581
-0.000260655
0.000242668
-0.000399117
0.000281524
-0.000554315
0.000316704
-0.000726472
0.000352901
0.000391726
-4.57889e-05
0.00014394
-0.000133754
0.000275546
-0.000246855
0.000355769
-0.000376354
0.000411023
-0.000519304
0.000459655
-0.000674859
0.000508456
0.000559624
-4.20755e-05
0.000186016
-0.000123379
0.00035685
-0.00022704
0.00045943
-0.000343663
0.000527646
-0.000469118
0.000585109
-0.000601125
0.000640463
0.000696301
-3.74783e-05
0.000223494
-0.000110418
0.00042979
-0.000202184
0.000551196
-0.000302643
0.000628105
-0.000406293
0.000688759
-0.000509227
0.000743397
0.000794846
-3.22639e-05
0.000255758
-9.55336e-05
0.000493059
-0.000173481
0.000629144
-0.000255224
0.000709848
-0.000333844
0.000767378
-0.000403776
0.00081333
-0.000459587
0.000850656
0.00087675
-2.67277e-05
0.000282486
-7.94658e-05
0.000545798
-0.000142252
0.00069193
-0.000203519
0.000771115
-0.000255003
0.000818862
-0.000289589
0.000847916
-0.000300257
0.000861325
0.000855943
-2.11722e-05
0.000303658
-6.29764e-05
0.000587602
-0.000109852
0.000738805
-0.000149658
0.000810921
-0.000172937
0.000842141
-0.000171214
0.000846192
-0.000136121
0.000826232
0.000778731
-1.58855e-05
0.000319543
-4.67959e-05
0.000618512
-7.75735e-05
0.000769583
-9.56183e-05
0.000828966
-9.04605e-05
0.000836983
-5.24551e-05
0.000808187
2.79238e-05
0.000745853
0.000646183
-1.11205e-05
0.000330664
-3.15666e-05
0.000638958
-4.65344e-05
0.000784551
-4.30365e-05
0.000825468
-9.73242e-06
0.000803679
6.41109e-05
0.000734344
0.000189166
0.000620799
0.000458948
-7.07533e-06
0.000337739
-1.7788e-05
0.000649671
-1.75798e-05
0.000784342
6.96988e-06
0.000800919
6.80531e-05
0.000742596
0.000177604
0.000624793
0.000347747
0.000450655
0.000215606
-3.87893e-06
0.000341618
-5.74963e-06
0.000651542
8.83037e-06
0.000769762
5.39605e-05
0.000755788
0.000142913
0.000653644
0.000289225
0.000478481
0.000507091
0.000232788
0.000811417
-8.872e-05
-0.000494423
-1.58423e-06
0.000343202
4.36103e-06
0.000645596
3.26755e-05
0.000741448
9.83547e-05
0.000690109
0.000216318
0.00053568
0.00040246
0.000292339
0.000673818
-3.85694e-05
0.00104791
-0.000462813
-0.000987426
-1.13535e-07
0.000343316
1.27106e-05
0.000632772
5.44447e-05
0.000699714
0.000141483
0.000603071
0.000291252
0.000385912
0.00052293
6.06614e-05
0.000856848
-0.000372488
0.0013121
-0.000918065
-0.00157782
6.08848e-07
0.000342707
1.98054e-05
0.000613576
7.51804e-05
0.000644339
0.00018561
0.000492641
0.000372065
0.000199457
0.000657724
-0.000224998
0.00106543
-0.000780193
0.00161239
-0.00146502
-0.002269
8.24e-07
0.000341883
2.6256e-05
0.000588144
9.63993e-05
0.000574196
0.000233805
0.000355235
0.000464042
-3.07802e-05
0.000814094
-0.00057505
0.00130627
-0.00127237
0.00194933
-0.00210808
0.00273125
-0.00305092
-0.00405637
8.02694e-07
0.00034108
3.29025e-05
0.000556044
0.000120014
0.000487084
0.000289671
0.000185578
0.000572624
-0.000313733
0.000997599
-0.00100003
0.00158024
-0.00185501
0.0023122
-0.00284004
0.00315829
-0.00389701
-0.00496193
8.4342e-07
0.000340237
4.07223e-05
0.000516165
0.000148179
0.000379627
0.000356946
-2.31888e-05
0.000702337
-0.000659123
0.00120994
-0.00150763
0.00187986
-0.00252493
0.00267912
-0.0036393
0.00354964
-0.00476753
0.00442578
-0.00583807
-0.00680364
1.2476e-06
0.000338989
5.07469e-05
0.000466666
0.000183093
0.000247281
0.000438967
-0.000279063
0.000855525
-0.00107568
0.00144709
-0.00209919
0.00218898
-0.00326683
0.00302177
-0.00447209
0.00387318
-0.00561894
0.00468093
-0.00664582
-0.0075291
2.3199e-06
0.000336669
6.39746e-05
0.000405011
0.000226782
8.44734e-05
0.00053806
-0.000590341
0.00103108
-0.0015687
0.00169857
-0.00276668
0.00248572
-0.00405398
0.00331327
-0.00529964
0.00410897
-0.00641464
0.0048263
-0.00736315
0.00544801
-0.0081508
-0.00880777
4.5335e-06
0.000332136
8.13953e-05
0.000328149
0.000280711
-0.000114842
0.000654299
-0.000963929
0.00122255
-0.00213695
0.00194725
-0.00349138
0.00274599
-0.00485272
0.00353323
-0.00608688
0.0042501
-0.00713151
0.00487152
-0.00798457
0.00539931
-0.00867859
-0.00925866
7.75431e-06
0.000324381
0.00010351
0.000232393
0.000346137
-0.000357469
0.00078694
-0.00140473
0.00142207
-0.00277208
0.00217821
-0.00424752
0.00295618
-0.0056307
0.00367889
-0.00680959
0.0043084
-0.00776102
0.00484005
-0.00851622
0.00528906
-0.0091276
0.00567771
-0.00964732
-0.0101162
1.23536e-05
0.000312028
0.000131043
0.000113704
0.000423195
-0.000649621
0.000931296
-0.00191283
0.00161663
-0.00345741
0.00237515
-0.00500604
0.00310631
-0.00636186
0.00375188
-0.00745515
0.00429585
-0.008305
0.00474931
-0.00896968
0.00513485
-0.00951314
0.00547569
-0.00998816
-0.010431
1.84435e-05
0.000293584
0.000164369
-3.22209e-05
0.000510948
-0.000996201
0.00108058
-0.00248247
0.00179377
-0.00417059
0.0025281
-0.00574037
0.00319572
-0.00702948
0.00376134
-0.00802077
0.00422764
-0.0087713
0.00461585
-0.00935788
0.0049512
-0.00984849
0.00525497
-0.0102919
0.00554201
-0.010718
-0.0111426
2.61015e-05
0.000267483
0.000203647
-0.000209767
0.000607119
-0.00139967
0.00122645
-0.0031018
0.00194327
-0.00488742
0.00263303
-0.00643013
0.00322927
-0.00762573
0.00371868
-0.00851017
0.00411766
-0.00917029
0.00445266
-0.00969288
0.00474826
-0.0101441
0.00502241
-0.0105661
0.00528626
-0.0109819
0.00554587
-0.0114022
-0.0118307
3.54015e-05
0.000232081
0.000248736
-0.000423101
0.000708079
-0.00185902
0.00136041
-0.00375414
0.00205871
-0.00558571
0.00269086
-0.00706228
0.0032147
-0.00814957
0.00363512
-0.00893059
0.00397734
-0.00951251
0.00426922
-0.00998476
0.00453275
-0.0104076
0.00478217
-0.0108155
0.00502548
-0.0112252
0.00526672
-0.0116434
0.00550823
-0.0120722
-0.012512
4.64453e-05
0.000185636
0.000299053
-0.000675709
0.000809172
-0.00236913
0.00147536
-0.00442032
0.0021376
-0.00624795
0.00270572
-0.00763039
0.00316053
-0.00860438
0.00352053
-0.00929059
0.00381552
-0.0098075
0.00407217
-0.0102414
0.00430898
-0.0106444
0.00453671
-0.0110432
0.00476091
-0.0114494
0.00498427
-0.0118668
0.00520832
-0.0122962
0.00543397
-0.0127377
-0.0131891
5.93784e-05
0.000126258
0.000353463
-0.000969794
0.000905292
-0.00292096
0.00156646
-0.00508149
0.00218064
-0.00686213
0.00268333
-0.00813309
0.0030749
-0.00899596
0.003383
-0.00959869
0.00363873
-0.0100632
0.00386602
-0.0104687
0.00407967
-0.0108581
0.00428751
-0.0112511
0.00449331
-0.0116552
0.00469885
-0.0120723
0.0049053
-0.0125027
0.00511342
-0.0129458
0.00532498
-0.0134006
-0.0138706
7.43638e-05
5.18939e-05
0.000410283
-0.00130571
0.000991593
-0.00350227
0.00163142
-0.00572131
0.00219056
-0.00742127
0.00262982
-0.00857235
0.00296495
-0.00933109
0.00322888
-0.00986262
0.00345168
-0.010286
0.00365375
-0.0106708
0.0038465
-0.0110508
0.00403546
-0.01144
0.00422314
-0.0118428
0.00441079
-0.01226
0.00459931
-0.0126912
0.00478953
-0.013136
0.00498279
-0.0135939
0.00517896
-0.0140668
0.00538292
-0.0145456
-0.0150658
9.14976e-05
-3.96037e-05
0.000467434
-0.00168165
0.00106415
-0.00409899
0.00167008
-0.00632724
0.00217121
-0.0079224
0.00255107
-0.00895221
0.00283662
-0.00961664
0.00306297
-0.010089
0.00325764
-0.0104807
0.00343734
-0.0108505
0.00361057
-0.0112241
0.00378115
-0.0116106
0.00395076
-0.0120125
0.00412034
-0.0124296
0.00429066
-0.0128615
0.00446249
-0.0133078
0.00463697
-0.0137684
0.00481426
-0.0142441
0.00499804
-0.0147294
-0.0152504
0.00518263
0.000110689
-0.000150293
0.000522642
-0.0020936
0.00112038
-0.00469672
0.00168376
-0.00689063
0.00212685
-0.00836549
0.00245234
-0.0092777
0.00269469
-0.00985899
0.00288883
-0.0102831
0.00305888
-0.0106507
0.00321808
-0.0110097
0.00337258
-0.0113786
0.00352499
-0.011763
0.00367648
-0.0121639
0.00382779
-0.0125809
0.0039796
-0.0130133
0.00413265
-0.0134609
0.00428787
-0.0139236
0.0044456
-0.0144018
0.00460877
-0.0148926
-0.0154142
0.00477264
0.000131573
-0.000281865
0.000573627
-0.00253566
0.0011591
-0.00528219
0.00167469
-0.00740622
0.00206165
-0.00875245
0.00233812
-0.00955417
0.00254291
-0.0100638
0.00270905
-0.0104492
0.00285697
-0.0107987
0.00299684
-0.0111495
0.00313304
-0.0115148
0.00326734
-0.0118973
0.00340059
-0.0122972
0.00353343
-0.0127137
0.00366645
-0.0131463
0.00380035
-0.0135948
0.0039359
-0.0140591
0.00407355
-0.0145394
0.00421549
-0.0150345
-0.0155568
0.00435809
0.000153512
-0.000435378
0.000618276
-0.00300042
0.00118034
-0.00584426
0.00164551
-0.00787139
0.00197949
-0.00908644
0.00221217
-0.00978684
0.00238414
-0.0102357
0.00252548
-0.0105906
0.00265297
-0.0109262
0.00277424
-0.0112708
0.00289234
-0.0116329
0.00300851
-0.0120135
0.00312341
-0.0124121
0.00323757
-0.0128279
0.00335156
-0.0132603
0.00346599
-0.0137092
0.0035815
-0.0141746
0.00369858
-0.0146565
0.0038189
-0.0151548
-0.0156775
0.00393961
0.000175701
-0.000611078
0.000654818
-0.00347954
0.00118493
-0.00637437
0.00159903
-0.00828549
0.0018838
-0.00937121
0.0020775
-0.00998054
0.00222054
-0.0103788
0.00233946
-0.0107095
0.00244766
-0.0110344
0.00255074
-0.0113739
0.00265083
-0.011733
0.00274882
-0.0121115
0.00284524
-0.0125085
0.00294056
-0.0129232
0.00303529
-0.0133551
0.00312998
-0.0138039
0.00322514
-0.0142698
0.00332129
-0.0147527
0.00341959
-0.0152532
-0.0157759
0.00351797
0.000197292
-0.000808371
0.000681985
-0.00396423
0.0011742
-0.00686658
0.00153796
-0.00864925
0.00177752
-0.00961077
0.00193654
-0.0101396
0.00205376
-0.010496
0.00215195
-0.0108077
0.00224159
-0.011124
0.00232672
-0.011459
0.00240883
-0.0118151
0.00248858
-0.0121912
0.00256641
-0.0125864
0.00264275
-0.0129996
0.00271805
-0.0134303
0.00279277
-0.0138786
0.00286734
-0.0143444
0.00294223
-0.0148276
0.00301824
-0.0153292
-0.0158515
0.00309384
0.000217495
-0.00102587
0.000699095
-0.00444583
0.00114974
-0.00731723
0.00146484
-0.00896434
0.00166313
-0.00980906
0.00179117
-0.0102676
0.00188499
-0.0105898
0.00196366
-0.0108864
0.00203521
-0.0111955
0.00210252
-0.0115263
0.00216664
-0.0118792
0.00222809
-0.0122527
0.00228725
-0.0126455
0.00234451
-0.0130568
0.00240023
-0.0134861
0.00245482
-0.0139332
0.00250861
-0.0143982
0.00256201
-0.014881
0.00261552
-0.0153827
-0.015904
0.00266804
0.000235604
-0.00126147
0.000706027
-0.00491625
0.00111323
-0.00772444
0.00138198
-0.00923309
0.00154272
-0.0099698
0.00164289
-0.0103678
0.00171514
-0.0106621
0.00177513
-0.0109464
0.00182888
-0.0112493
0.00187844
-0.0115759
0.00192457
-0.0119253
0.00196768
-0.0122958
0.00200812
-0.012686
0.00204621
-0.0130949
0.00208226
-0.0135221
0.0021166
-0.0139675
0.00214947
-0.014431
0.00218122
-0.0149127
0.00221211
-0.0154136
-0.0159332
0.00224129
0.000250994
-0.00151246
0.00070312
-0.00536838
0.00106634
-0.00808766
0.00129139
-0.00945814
0.00141797
-0.0100964
0.00149284
-0.0104426
0.0015449
-0.0107141
0.00158678
-0.0109882
0.00162292
-0.0112854
0.00165477
-0.0116077
0.00168291
-0.0119535
0.00170767
-0.0123205
0.00172936
-0.0127076
0.00174825
-0.0131138
0.00176458
-0.0135385
0.00177859
-0.0139816
0.00179048
-0.0144429
0.0018005
-0.0149227
0.0018087
-0.0154218
-0.015939
0.00181444
0.000263123
-0.00177559
0.000691032
-0.00579629
0.00101064
-0.00840726
0.00119484
-0.00964234
0.00129029
-0.0101918
0.00134191
-0.0104943
0.00137481
-0.010747
0.00139896
-0.0110124
0.00141762
-0.0113041
0.0014318
-0.0116219
0.00144197
-0.0119636
0.0014484
-0.012327
0.00145134
-0.0127106
0.00145101
-0.0131135
0.00144761
-0.0135351
0.00144129
-0.0139752
0.00143217
-0.0144338
0.00142044
-0.014911
0.001406
-0.0154073
-0.0159212
0.00138824
0.00027156
-0.00204715
0.000670679
-0.00619541
0.000947631
-0.00868421
0.00109381
-0.00978852
0.00116077
-0.0102588
0.00119079
-0.0105243
0.00120529
-0.0107615
0.00121198
-0.0110191
0.00121325
-0.0113054
0.00120982
-0.0116185
0.00120205
-0.0119559
0.00119018
-0.0123151
0.00117441
-0.0126948
0.0011549
-0.0130939
0.00113179
-0.013512
0.00110517
-0.0139486
0.0010751
-0.0144037
0.00104164
-0.0148775
0.00100461
-0.0153703
-0.0158801
0.000963518
0.000274442
-0.00232159
0.000640514
-0.00656148
0.000875605
-0.00891931
0.00098648
-0.0098994
0.00102736
-0.0102997
0.00103724
-0.0105342
0.00103403
-0.0107583
0.00102362
-0.0110087
0.00100774
-0.0112895
0.000986898
-0.0115977
0.000961403
-0.0119304
0.000931445
-0.0122851
0.000897172
-0.0126605
0.000858697
-0.0130555
0.000816109
-0.0134694
0.000769425
-0.0139019
0.000718661
-0.014353
0.000663772
-0.0148226
0.000604321
-0.0153108
-0.0158162
0.000540385
0.000274616
-0.00259621
0.000606651
-0.00689351
0.000801881
-0.00911454
0.000880087
-0.0099776
0.00089675
-0.0103163
0.000887347
-0.0105248
0.000866679
-0.0107377
0.000839176
-0.0109812
0.00080607
-0.0112564
0.000767761
-0.0115593
0.000724473
-0.0118871
0.000676364
-0.012237
0.000623536
-0.0126077
0.000566049
-0.012998
0.000503915
-0.0134072
0.000437105
-0.0138351
0.000365677
-0.0142815
0.000289345
-0.0147463
0.00020792
-0.0152294
-0.0157289
0.000120687
0.000270759
-0.00286696
0.000567563
-0.00719032
0.00072462
-0.00927159
0.000772461
-0.0100254
0.000766524
-0.0103104
0.000738617
-0.0104969
0.000700791
-0.0106998
0.00065633
-0.0109367
0.000606106
-0.0112062
0.000550429
-0.0115037
0.00048946
-0.0118261
0.000423301
-0.0121709
0.000352029
-0.0125364
0.000275693
-0.0129217
0.000194115
-0.0133257
0.000107322
-0.0137483
1.50169e-05
-0.0141892
-8.22823e-05
-0.014649
-0.000185043
-0.0151267
-0.0156187
-0.000295232
0.000263102
-0.00313007
0.000524119
-0.00745134
0.000644773
-0.00939225
0.00066434
-0.010045
0.000637159
-0.0102832
0.000591364
-0.0104511
0.000536626
-0.0106451
0.000475339
-0.0108754
0.00040812
-0.0111389
0.00033517
-0.0114307
0.000256667
-0.0117476
0.00017255
-0.0120868
8.29098e-05
-0.0124468
-1.23242e-05
-0.0128264
-0.000112804
-0.0132252
-0.000219192
-0.0136419
-0.000331386
-0.014077
-0.000449666
-0.0145307
-0.000574808
-0.0150015
-0.0154867
-0.000706864
0.000251978
-0.00338204
0.000477139
-0.0076765
0.000563188
-0.0094783
0.000556342
-0.0100382
0.000509031
-0.0102359
0.000445839
-0.0103879
0.000374397
-0.0105737
0.000296394
-0.0107974
0.00021233
-0.0110549
0.000122149
-0.0113405
2.6044e-05
-0.0116515
-7.55439e-05
-0.0119852
-0.000183052
-0.0123393
-0.000296528
-0.0127129
-0.000416271
-0.0131054
-0.000542185
-0.013516
-0.000674421
-0.0139448
-0.000813381
-0.0143918
-0.000959779
-0.0148551
-0.0153328
-0.00111364
0.000237794
-0.00361984
0.000427383
-0.00786609
0.000480599
-0.00953151
0.00044898
-0.0100065
0.000382455
-0.0101694
0.000302272
-0.0103077
0.000214284
-0.0104857
0.000119631
-0.0107028
1.85174e-05
-0.0109538
-8.81488e-05
-0.0112339
-0.000201042
-0.0115386
-0.00032032
-0.0118659
-0.000445815
-0.0122138
-0.000577667
-0.0125811
-0.000716123
-0.012967
-0.000861266
-0.0133709
-0.00101328
-0.0137928
-0.00117257
-0.0142325
-0.00133974
-0.014688
-0.0151576
-0.00151501
0.000220997
-0.00384083
0.000375545
-0.00802063
0.000397623
-0.00955359
0.000342669
-0.00995159
0.000257698
-0.0100844
0.000160821
-0.0102108
5.62191e-05
-0.0103811
-5.46105e-05
-0.0105919
-0.000171587
-0.0108368
-0.000295275
-0.0111102
-0.000425315
-0.0114086
-0.000561917
-0.0117293
-0.000705104
-0.0120706
-0.000855039
-0.0124312
-0.00101195
-0.0128101
-0.00117601
-0.0132068
-0.00134747
-0.0136213
-0.00152671
-0.0140532
-0.00171425
-0.0145004
-0.0149614
-0.00191041
0.000202036
-0.00404287
0.000322256
-0.00814086
0.000314776
-0.00954611
0.000237748
-0.00987457
0.000134937
-0.0099816
2.11762e-05
-0.010097
-9.87842e-05
-0.0102611
-0.000225617
-0.0104651
-0.000359142
-0.0107033
-0.00049938
-0.0109699
-0.000646265
-0.0112617
-0.000799943
-0.0115756
-0.000960548
-0.01191
-0.00112827
-0.0122634
-0.00130335
-0.012635
-0.00148603
-0.0130241
-0.00167657
-0.0134308
-0.00187537
-0.0138544
-0.00208286
-0.0142929
-0.0147448
-0.00229941
0.000181343
-0.00422421
0.000268083
-0.00822759
0.00023251
-0.00951054
0.000134498
-0.00977655
1.35331e-05
-0.00986063
-0.000114817
-0.00996869
-0.000250932
-0.010125
-0.000393892
-0.0103221
-0.000543594
-0.0105536
-0.000700135
-0.0108134
-0.000863581
-0.0110982
-0.00103409
-0.0114051
-0.00121183
-0.0117323
-0.00139705
-0.0120782
-0.00158999
-0.0124421
-0.00179093
-0.0128232
-0.00200018
-0.0132215
-0.00221813
-0.0136365
-0.00244513
-0.0140659
-0.0145084
-0.00268154
0.000159326
-0.00438354
0.000213528
-0.0082818
0.000151198
-0.00944821
3.29952e-05
-0.00965835
-0.000103392
-0.00972424
-0.000248411
-0.00982367
-0.00040031
-0.00997309
-0.000559071
-0.0101634
-0.000724675
-0.010388
-0.000897273
-0.0106408
-0.00107701
-0.0109185
-0.00126406
-0.0112181
-0.00145865
-0.0115377
-0.00166104
-0.0118758
-0.0018715
-0.0122316
-0.00209035
-0.0126044
-0.00231792
-0.012994
-0.0025546
-0.0133998
-0.00280066
-0.0138199
-0.0142527
-0.0030564
0.000136371
-0.00451991
0.000159019
-0.00830444
7.1107e-05
-0.00936029
-6.5753e-05
-0.00952149
-0.000218438
-0.00957156
-0.000379221
-0.00966289
-0.000546647
-0.00980566
-0.000720931
-0.00998909
-0.000902167
-0.0102067
-0.00109055
-0.0104524
-0.00128628
-0.0107228
-0.00148959
-0.0110148
-0.00170071
-0.0113265
-0.00191994
-0.0116566
-0.00214757
-0.012004
-0.00238394
-0.012368
-0.00262942
-0.0127485
-0.00288442
-0.0131448
-0.00314907
-0.0135552
-0.0139781
-0.00342362
0.000112853
-0.00463276
0.000104986
-0.00829658
-8.3128e-06
-0.009247
-0.000162217
-0.00936759
-0.000330889
-0.00940289
-0.000507052
-0.00948673
-0.000689742
-0.00962297
-0.000879279
-0.00979955
-0.00107586
-0.0100101
-0.00127974
-0.0102485
-0.00149116
-0.0105113
-0.0017104
-0.0107955
-0.00193772
-0.0110992
-0.00217345
-0.0114209
-0.00241788
-0.0117595
-0.00267137
-0.0121145
-0.00293435
-0.0124855
-0.00320723
-0.0128719
-0.00349003
-0.0132724
-0.0136853
-0.00378283
8.90993e-05
-0.00472186
5.208e-05
-0.00825956
-8.3526e-05
-0.00911139
-0.000256257
-0.00919486
-0.000440535
-0.00921861
-0.000631763
-0.0092955
-0.000829428
-0.00942531
-0.00103393
-0.00959505
-0.00124555
-0.00979851
-0.00146462
-0.0100295
-0.00169141
-0.0102846
-0.00192624
-0.0105607
-0.00216942
-0.010856
-0.00242128
-0.011169
-0.00268213
-0.0114987
-0.00295234
-0.0118443
-0.00323239
-0.0122054
-0.00352271
-0.0125816
-0.00382319
-0.012972
-0.0133748
-0.0041337
6.53194e-05
-0.00478718
2.5322e-06
-0.00819677
-0.000157509
-0.00895135
-0.000347753
-0.00900461
-0.000547252
-0.00901911
-0.000753219
-0.00908953
-0.000965547
-0.00921298
-0.0011847
-0.0093759
-0.00141105
-0.00957217
-0.00164496
-0.00979555
-0.00188678
-0.0100427
-0.00213686
-0.0103106
-0.00239553
-0.0105974
-0.00266314
-0.0109014
-0.00294003
-0.0112218
-0.00322656
-0.0115578
-0.00352326
-0.0119087
-0.00383058
-0.0122743
-0.00414825
-0.0126543
-0.0130472
-0.00447587
4.16628e-05
-0.00482885
-5.26673e-05
-0.00810244
-0.000229862
-0.00877415
-0.000436501
-0.00879797
-0.000650893
-0.00880472
-0.000871286
-0.00886914
-0.00109795
-0.00898632
-0.00133142
-0.00914242
-0.00157215
-0.00933144
-0.00182057
-0.00954713
-0.00207706
-0.00978624
-0.00234202
-0.0100457
-0.0026158
-0.0103236
-0.00289878
-0.0106184
-0.00319129
-0.0109293
-0.00349373
-0.0112553
-0.00380666
-0.0115958
-0.00413057
-0.0119504
-0.00446493
-0.0123199
-0.0127031
-0.00480903
1.883e-05
-0.00484768
-0.000103683
-0.00797993
-0.000300151
-0.00857769
-0.000522423
-0.0085757
-0.000751341
-0.0085758
-0.000985837
-0.00863464
-0.00122649
-0.00874567
-0.00147393
-0.00889498
-0.00172868
-0.0090767
-0.00199123
-0.00928458
-0.00226202
-0.00951545
-0.00254147
-0.0097662
-0.00282997
-0.0100351
-0.00312791
-0.0103205
-0.00343564
-0.0106216
-0.00375356
-0.0109374
-0.00408229
-0.0112671
-0.00442237
-0.0116103
-0.00477305
-0.0119692
-0.0123433
-0.00513287
-2.20108e-06
-0.00484547
-0.000152496
-0.00782963
-0.000368188
-0.00836199
-0.000605479
-0.00833841
-0.0008485
-0.00833278
-0.00109675
-0.00838639
-0.00135102
-0.00849139
-0.00161206
-0.00863395
-0.00188045
-0.00880831
-0.00215675
-0.00900828
-0.00244144
-0.00923076
-0.00273499
-0.00947266
-0.00303781
-0.00973226
-0.0033503
-0.010008
-0.00367282
-0.010299
-0.00400579
-0.0106044
-0.00434983
-0.010923
-0.00470555
-0.0112546
-0.00507219
-0.0116026
-0.0119682
-0.00544729
-2.89358e-05
-0.00481654
-0.000199753
-0.00765882
-0.000433745
-0.008128
-0.000685576
-0.00808658
-0.000942281
-0.00807607
-0.00120391
-0.00812477
-0.00147142
-0.00822388
-0.00174566
-0.00835971
-0.0020273
-0.00852667
-0.00231694
-0.00871864
-0.00261512
-0.00893258
-0.00292235
-0.00916543
-0.00323907
-0.00941554
-0.00356568
-0.00968138
-0.00390259
-0.00996213
-0.00425023
-0.0102568
-0.00460914
-0.0105641
-0.00497986
-0.0108838
-0.00536201
-0.0112205
-0.0115776
-0.0057526
-5.26096e-05
-0.00476393
-0.000245335
-0.00746609
-0.000496712
-0.00787662
-0.000762629
-0.00782066
-0.0010326
-0.0078061
-0.0013072
-0.00785016
-0.00158755
-0.00794353
-0.00187459
-0.00807267
-0.00216905
-0.00823221
-0.00247161
-0.00841607
-0.00278286
-0.00862133
-0.00310333
-0.00884496
-0.0034335
-0.00908537
-0.00377382
-0.00934107
-0.00412472
-0.00961123
-0.00448671
-0.0098948
-0.00486023
-0.0101906
-0.0052457
-0.0104984
-0.00564264
-0.0108235
-0.0111735
-0.00604674
-7.50367e-05
-0.00468889
-0.000289149
-0.00725198
-0.00055706
-0.00760871
-0.000836569
-0.00754115
-0.00111938
-0.00752329
-0.00140653
-0.00756301
-0.00169929
-0.00765077
-0.00199869
-0.00777328
-0.00230554
-0.00792536
-0.00262059
-0.00810103
-0.00294445
-0.00829746
-0.00327772
-0.0085117
-0.00362088
-0.0087422
-0.00397444
-0.00898751
-0.00433891
-0.00924676
-0.00471491
-0.0095188
-0.0051028
-0.00980272
-0.00550279
-0.0100984
-0.00591597
-0.0104103
-0.0107657
-0.00632376
-9.96582e-05
-0.00458923
-0.000334863
-0.00701677
-0.00061829
-0.00732529
-0.000910622
-0.00724882
-0.00120562
-0.0072283
-0.0015047
-0.00726392
-0.00180927
-0.0073462
-0.00212044
-0.00746212
-0.0024391
-0.00760669
-0.00276604
-0.00777409
-0.00310194
-0.00796156
-0.0034474
-0.00816624
-0.00380296
-0.00838664
-0.00416917
-0.00862131
-0.0045466
-0.00886932
-0.0049359
-0.0091295
-0.00533733
-0.0094013
-0.00574943
-0.00968628
-0.00616992
-0.00998984
-0.0103075
-0.00662814
-0.000119972
-0.00446926
-0.000374752
-0.00676199
-0.000673017
-0.00702702
-0.000977902
-0.00694394
-0.00128484
-0.00692136
-0.00159559
-0.00695317
-0.00191168
-0.00703011
-0.00223431
-0.00713949
-0.00256445
-0.00727655
-0.00290295
-0.00743559
-0.00325053
-0.00761398
-0.00360784
-0.00780893
-0.00397546
-0.00801902
-0.00435397
-0.0082428
-0.00474398
-0.00847931
-0.00514594
-0.00872754
-0.00555966
-0.00898759
-0.00598475
-0.00926119
-0.00642565
-0.00954893
-0.00984096
-0.00689218
-0.000139366
-0.0043299
-0.000412699
-0.00648866
-0.000725024
-0.00671469
-0.00104192
-0.00662704
-0.00136032
-0.00660296
-0.00168225
-0.00663124
-0.00200937
-0.00670299
-0.00234297
-0.00680589
-0.0026841
-0.00693541
-0.00303367
-0.00708602
-0.00339244
-0.00725521
-0.00376109
-0.00744028
-0.00414025
-0.00763986
-0.00453055
-0.0078525
-0.0049326
-0.00807726
-0.0053468
-0.00831335
-0.00577318
-0.0085612
-0.00621267
-0.0088217
-0.00666895
-0.00909266
-0.00936715
-0.00714276
-0.0001578
-0.0041721
-0.000448653
-0.00619781
-0.000774262
-0.00638909
-0.00110261
-0.00629869
-0.00143195
-0.00627362
-0.00176455
-0.00629864
-0.00210221
-0.00636534
-0.00244628
-0.00646182
-0.0027979
-0.00658379
-0.00315803
-0.0067259
-0.00352746
-0.00688578
-0.00390694
-0.00706081
-0.00429711
-0.00724968
-0.00469864
-0.00745097
-0.00511208
-0.00766382
-0.0055378
-0.00788763
-0.0059762
-0.00812279
-0.00642874
-0.00836916
-0.00689764
-0.00862376
-0.00888312
-0.00738167
-0.000175242
-0.00399685
-0.000482584
-0.00589047
-0.000820709
-0.00605096
-0.00115993
-0.00595947
-0.00149969
-0.00593386
-0.00184244
-0.00595588
-0.00219011
-0.00601767
-0.00254413
-0.00610779
-0.00290573
-0.0062222
-0.00327588
-0.00635574
-0.00365545
-0.0065062
-0.00404521
-0.00667105
-0.00444586
-0.00684904
-0.00485807
-0.00703877
-0.00528238
-0.0072395
-0.00571927
-0.00745075
-0.00616935
-0.00767271
-0.00663392
-0.00790459
-0.00711405
-0.00814363
-0.00838836
-0.00760881
-0.00019166
-0.00380519
-0.000514466
-0.00556766
-0.000864341
-0.00570109
-0.00121385
-0.00560996
-0.00156348
-0.00558424
-0.00191584
-0.00560352
-0.00227298
-0.00566054
-0.00263642
-0.00574435
-0.00300744
-0.00585118
-0.00338708
-0.0059761
-0.00377625
-0.00611703
-0.00417574
-0.00627155
-0.00458629
-0.00643849
-0.00500856
-0.0066165
-0.00544314
-0.00680492
-0.00589057
-0.00700332
-0.00635159
-0.00721168
-0.00682726
-0.00742892
-0.00731816
-0.00765273
-0.00788274
-0.00782378
-0.000207025
-0.00359817
-0.000544276
-0.00523041
-0.00090514
-0.00534022
-0.00126434
-0.00525077
-0.00162326
-0.00522532
-0.00198467
-0.0052421
-0.00235073
-0.00529448
-0.00272303
-0.00537205
-0.00310293
-0.00547128
-0.0034915
-0.00558753
-0.0038897
-0.00571883
-0.00429835
-0.0058629
-0.00471823
-0.00601862
-0.00515
-0.00618472
-0.00559428
-0.00636063
-0.00605168
-0.00654593
-0.00652294
-0.00674042
-0.00700892
-0.00694295
-0.00751006
-0.00715159
-0.00736662
-0.00802618
-0.000221308
-0.00337686
-0.000571997
-0.00487972
-0.000943089
-0.00496913
-0.00131135
-0.0048825
-0.00167898
-0.00485769
-0.00204887
-0.00487221
-0.00242328
-0.00492007
-0.00280388
-0.00499144
-0.00319208
-0.00508308
-0.00358901
-0.0051906
-0.00399566
-0.00531218
-0.00441289
-0.00544567
-0.00484149
-0.00559002
-0.00528215
-0.00574406
-0.00573552
-0.00590726
-0.00620225
-0.0060792
-0.00668306
-0.0062596
-0.00717869
-0.00644732
-0.00768956
-0.00664072
-0.00684048
-0.00821569
-0.000234486
-0.00314237
-0.000597614
-0.00451659
-0.000978175
-0.00458857
-0.00135487
-0.00450581
-0.0017306
-0.00448195
-0.00210838
-0.00449444
-0.00249055
-0.00453789
-0.00287887
-0.00460312
-0.0032748
-0.00468716
-0.0036795
-0.0047859
-0.00409401
-0.00489767
-0.00451922
-0.00502046
-0.00495593
-0.00515331
-0.00540487
-0.00529512
-0.00586671
-0.00544542
-0.00634211
-0.0056038
-0.00683178
-0.00576993
-0.0073364
-0.0059427
-0.0078564
-0.00612073
-0.00630494
-0.00839194
-0.00024653
-0.00289584
-0.000621117
-0.00414201
-0.00101039
-0.0041993
-0.00139486
-0.00412133
-0.00177809
-0.00409873
-0.00216313
-0.00410939
-0.00255248
-0.00414854
-0.00294792
-0.00420768
-0.00335097
-0.00428411
-0.00376285
-0.00437402
-0.00418462
-0.0044759
-0.00461719
-0.00458789
-0.00506139
-0.00470911
-0.00551797
-0.00483854
-0.00598763
-0.00497577
-0.00647104
-0.00512039
-0.00696891
-0.00527207
-0.00748186
-0.00542974
-0.00801037
-0.00559222
-0.00576061
-0.00855469
-0.00025753
-0.00263831
-0.000642507
-0.00375703
-0.00103972
-0.00380208
-0.00143131
-0.00372974
-0.00182138
-0.00370866
-0.00221309
-0.00371768
-0.002609
-0.00375264
-0.00301095
-0.00380573
-0.00342052
-0.00387453
-0.00383896
-0.00395558
-0.00426737
-0.0040475
-0.00470668
-0.00414859
-0.00515774
-0.00425804
-0.00562132
-0.00437496
-0.00609814
-0.00449895
-0.00658888
-0.00462964
-0.00709425
-0.00476671
-0.00761485
-0.00490914
-0.00815117
-0.0050559
-0.00520822
-0.00870357
-0.000267535
-0.00237078
-0.000661788
-0.00336278
-0.00106616
-0.00339772
-0.00146419
-0.00333171
-0.00186046
-0.00331238
-0.0022582
-0.00331995
-0.00266004
-0.0033508
-0.00306789
-0.00339788
-0.00348336
-0.00345906
-0.00390774
-0.0035312
-0.00434216
-0.00361309
-0.00478757
-0.00370318
-0.00524484
-0.00380077
-0.00571476
-0.00390504
-0.00619807
-0.00401564
-0.00669546
-0.00413225
-0.00720763
-0.00425454
-0.0077352
-0.00438157
-0.00827863
-0.00451246
-0.00464848
-0.00883837
-0.000276495
-0.00209428
-0.000678955
-0.00296032
-0.00108969
-0.00298698
-0.00149348
-0.00292792
-0.0018953
-0.00291057
-0.00229841
-0.00291684
-0.00270556
-0.00294365
-0.00311867
-0.00298477
-0.00353942
-0.00303831
-0.00396911
-0.00310151
-0.00440889
-0.0031733
-0.00485975
-0.00325232
-0.00532257
-0.00333794
-0.00579817
-0.00342944
-0.00628728
-0.00352653
-0.00679062
-0.00362891
-0.00730889
-0.00373627
-0.00784269
-0.00384777
-0.00839252
-0.00396264
-0.00408214
-0.00895886
-0.000284381
-0.0018099
-0.000694001
-0.0025507
-0.00111032
-0.00257065
-0.00151916
-0.00251909
-0.00192585
-0.00250388
-0.00233369
-0.00250899
-0.0027455
-0.00253184
-0.00316325
-0.00256702
-0.00358863
-0.00261293
-0.00402298
-0.00266716
-0.00446748
-0.0027288
-0.00492313
-0.00279667
-0.00539084
-0.00287023
-0.00587142
-0.00294886
-0.00636564
-0.00303231
-0.00687422
-0.00312033
-0.00739786
-0.00321263
-0.00793717
-0.00330846
-0.00849263
-0.00340718
-0.00350998
-0.00906479
-0.000291172
-0.00151873
-0.000706922
-0.00213494
-0.00112803
-0.00214954
-0.00154121
-0.00210591
-0.00195209
-0.002093
-0.00236401
-0.00209707
-0.00277983
-0.00211602
-0.00320155
-0.0021453
-0.00363092
-0.00218356
-0.00406929
-0.00222879
-0.00451785
-0.00228024
-0.00497763
-0.00233689
-0.00544954
-0.00239832
-0.00593441
-0.00246399
-0.00643303
-0.0025337
-0.00694613
-0.00260723
-0.00747441
-0.00268435
-0.00801848
-0.00276439
-0.00857881
-0.00284684
-0.00293277
-0.00915602
-0.000296857
-0.00122188
-0.000717712
-0.00171409
-0.00114282
-0.00172444
-0.00155963
-0.0016891
-0.00197401
-0.00167862
-0.00238933
-0.00168175
-0.0028085
-0.00169685
-0.00323356
-0.00172024
-0.00366626
-0.00175086
-0.00410798
-0.00178708
-0.00455994
-0.00182828
-0.00502316
-0.00187367
-0.00549859
-0.00192289
-0.00598706
-0.00197552
-0.00648936
-0.0020314
-0.00700624
-0.00209035
-0.00753841
-0.00215217
-0.00808646
-0.00221634
-0.00865088
-0.00228242
-0.00235133
-0.00923232
-0.000301425
-0.00092045
-0.000726365
-0.00128915
-0.00115467
-0.00129613
-0.00157439
-0.00126937
-0.00199159
-0.00126142
-0.00240963
-0.0012637
-0.00283149
-0.001275
-0.00325921
-0.00129252
-0.00369459
-0.00131549
-0.004139
-0.00134266
-0.00459368
-0.0013736
-0.00505967
-0.00140768
-0.00553792
-0.00144464
-0.00602927
-0.00148417
-0.00653453