/*--------------------------------*- C++ -*----------------------------------*\
  =========                 |
  \\      /  F ield         | OpenFOAM: The Open Source CFD Toolbox
   \\    /   O peration     | Website:  https://openfoam.org
    \\  /    A nd           | Version:  7
     \\/     M anipulation  |
\*---------------------------------------------------------------------------*/
FoamFile
{
    version     2.0;
    format      ascii;
    class       volVectorField;
    location    "10";
    object      U;
}
// * * * * * * * * * * * * * * * * * * * * * * * * * * * * * * * * * * * * * //

dimensions      [0 1 -1 0 0 0 0];

internalField   nonuniform List<vector> 
6050
(
(-0.0090262 0.00344232 -2.23138e-20)
(-0.0380121 0.00591155 -2.65554e-20)
(-0.0778202 0.00678649 3.28676e-21)
(-0.114773 0.00707616 -8.44159e-21)
(-0.15076 0.00720652 4.11452e-20)
(-0.184901 0.00735548 1.30556e-20)
(-0.217998 0.00755589 -1.83452e-20)
(-0.0093081 0.0102267 1.13172e-21)
(-0.038001 0.0175949 -1.6762e-20)
(-0.0770114 0.020212 -3.48658e-20)
(-0.11295 0.0210697 2.81234e-20)
(-0.147657 0.0214401 1.79949e-20)
(-0.180217 0.021856 2.7915e-21)
(-0.211365 0.0224174 5.30878e-20)
(-0.0098606 0.0167185 -6.35582e-21)
(-0.0379895 0.0288675 -2.40196e-20)
(-0.07544 0.0332014 3.41632e-20)
(-0.109392 0.0345938 2.63597e-20)
(-0.141592 0.0351448 -8.91132e-20)
(-0.171074 0.0357385 1.16796e-20)
(-0.198448 0.0365466 -8.91824e-20)
(-0.0106624 0.0227426 3.1983e-20)
(-0.037998 0.0394735 1.27166e-19)
(-0.0731941 0.0454773 -4.12535e-20)
(-0.104263 0.0473499 -8.41735e-20)
(-0.13284 0.0479876 -4.87739e-20)
(-0.157899 0.0486198 6.80961e-20)
(-0.1799 0.049498 8.57428e-20)
(-0.0116843 0.0281496 -8.71244e-20)
(-0.0380546 0.0491813 -2.4829e-20)
(-0.0703969 0.0567807 7.39587e-20)
(-0.0977942 0.0590579 3.85097e-20)
(-0.121774 0.0596606 1.89296e-19)
(-0.141274 0.0601545 -1.76346e-19)
(-0.156598 0.0608812 -9.98229e-20)
(-0.012892 0.0328233 5.66986e-20)
(-0.0381925 0.0577918 4.59284e-21)
(-0.0671957 0.066878 -1.37864e-19)
(-0.0902623 0.0694629 -6.80885e-20)
(-0.108842 0.0698892 -2.23433e-19)
(-0.121878 0.0700449 -7.92498e-21)
(-0.129544 0.0703733 -1.1531e-20)
(-0.131587 0.0707563 -1.98253e-20)
(-0.0142494 0.036686 -1.45245e-19)
(-0.038446 0.0651452 -2.55402e-19)
(-0.0637494 0.0755672 9.16546e-20)
(-0.0819639 0.0783413 -2.54738e-20)
(-0.0945149 0.0784374 2.01155e-19)
(-0.100415 0.0780468 1.94391e-19)
(-0.099751 0.0777262 -6.71653e-20)
(-0.092237 0.0773799 9.38787e-20)
(-0.015722 0.0397014 1.07597e-19)
(-0.0388468 0.0711261 1.17595e-19)
(-0.0602128 0.0826834 8.10992e-20)
(-0.0731883 0.0855051 2.88257e-19)
(-0.0792443 0.0851126 -6.39557e-20)
(-0.0775343 0.0839742 9.73059e-20)
(-0.0681146 0.0827706 1.27458e-19)
(-0.0507144 0.081448 -1.61285e-19)
(-0.0172799 0.0418735 -5.29206e-20)
(-0.0394188 0.0756662 3.08775e-20)
(-0.0567198 0.0881039 -2.46456e-19)
(-0.0641849 0.0908077 -1.40932e-19)
(-0.0634073 0.0897695 -1.12631e-19)
(-0.0537497 0.0877034 -6.30014e-20)
(-0.0352839 0.085421 -3.10911e-19)
(-0.00778404 0.0829309 5.65429e-20)
(-0.0189005 0.0432438 2.01981e-19)
(-0.0401731 0.0787448 2.29293e-19)
(-0.0533649 0.0917526 5.9898e-20)
(-0.0551281 0.0941488 2.44946e-19)
(-0.0472465 0.0923168 6.83173e-20)
(-0.0293394 0.0891791 1.52823e-19)
(-0.00151425 0.0856854 1.72843e-19)
(0.0364213 0.0819272 1.60647e-19)
(-0.0205695 0.0438847 -1.26573e-19)
(-0.0411014 0.0803862 -2.0824e-19)
(-0.0501838 0.093604 3.60105e-19)
(-0.0460781 0.095481 -3.67936e-19)
(-0.0308041 0.0927243 -2.62602e-19)
(-0.00424436 0.0884261 -1.13324e-19)
(0.0334845 0.0836821 -4.961e-20)
(0.0825998 0.0786906 -2.74339e-19)
(-0.0222812 0.0438921 1.18505e-19)
(-0.0421688 0.0806541 9.22588e-20)
(-0.0471328 0.0936851 -4.18138e-19)
(-0.0369413 0.094817 -1.39958e-19)
(-0.0138516 0.0910349 1.48532e-19)
(0.0220378 0.0855663 -7.87679e-20)
(0.0706827 0.0796658 2.13566e-19)
(0.132408 0.0736699 2.05291e-19)
(0.207481 0.0674913 -2.70808e-19)
(-0.0240365 0.0433748 -3.79662e-19)
(-0.0433092 0.079652 -3.62958e-19)
(-0.0440656 0.0920713 2.67568e-19)
(-0.0274291 0.0922356 1.68984e-19)
(0.00417532 0.0873782 8.98793e-20)
(0.05054 0.0808421 -7.35166e-20)
(0.111802 0.0740635 -1.32616e-19)
(0.188411 0.0675519 6.7493e-20)
(0.280501 0.0613528 9.35371e-21)
(-0.0258368 0.0424446 5.87989e-20)
(-0.0444199 0.0775142 3.81064e-19)
(-0.0407163 0.0888831 -1.18368e-19)
(-0.0170201 0.0878869 -1.51304e-20)
(0.0242288 0.0819872 -1.16964e-19)
(0.0828625 0.0746449 -4.40922e-20)
(0.159248 0.0675138 3.97398e-20)
(0.253731 0.0612871 1.3023e-19)
(0.365657 0.0561004 3.7137e-20)
(-0.0276795 0.0412081 3.3137e-19)
(-0.0453472 0.0743844 -9.44518e-20)
(-0.0366909 0.0842906 -2.39573e-19)
(-0.00493809 0.0819986 3.16948e-19)
(0.0476648 0.0752134 2.79427e-19)
(0.121117 0.0675436 2.0147e-19)
(0.21583 0.0608868 1.85776e-19)
(0.331321 0.0560661 -6.47965e-20)
(0.464851 0.0531388 1.19638e-19)
(-0.0295541 0.0397569 -1.04495e-19)
(-0.0458788 0.0704069 5.67492e-20)
(-0.0314552 0.0785064 1.38942e-19)
(0.00984914 0.0748764 -3.84539e-19)
(0.0762033 0.0675402 -6.5173e-20)
(0.167731 0.0602996 -3.25232e-19)
(0.284215 0.0552672 1.32808e-19)
(0.422898 0.0531951 -3.19437e-19)
(0.577192 0.0536953 1.24982e-19)
(0.737142 0.0553678 -3.00537e-19)
(-0.0314334 0.0381588 3.29307e-21)
(-0.045744 0.0657252 2.51899e-19)
(-0.024335 0.0717714 -6.57454e-20)
(0.0286064 0.0669027 -2.23103e-20)
(0.111813 0.0595915 7.35216e-20)
(0.225085 0.053862 2.53324e-19)
(0.366131 0.0518643 -1.24654e-19)
(0.527828 0.0538322 -1.12448e-19)
(0.698228 0.058421 7.47517e-20)
(0.863244 0.0632703 1.68901e-19)
(-0.0332688 0.0364569 -2.78735e-20)
(-0.0446115 0.060471 -2.46144e-20)
(-0.0145297 0.0643464 2.80213e-19)
(0.0527749 0.058534 1.43844e-19)
(0.156508 0.0521307 -1.30013e-19)
(0.29498 0.0493137 3.72799e-20)
(0.461495 0.0518027 4.14255e-20)
(0.642455 0.0586316 3.68087e-19)
(0.8205 0.0670894 -3.12189e-19)
(0.979766 0.0740008 -4.45119e-19)
(1.10971 0.0770712 -4.41963e-19)
(-0.0349881 0.0346694 2.37951e-20)
(-0.0420896 0.0547546 -3.18233e-19)
(-0.00113602 0.0565055 8.27804e-20)
(0.0838807 0.0503017 -2.77301e-19)
(0.212049 0.0460461 3.51349e-19)
(0.377997 0.0477402 -2.37181e-19)
(0.567765 0.0558236 9.75574e-21)
(0.760426 0.0674608 -1.97296e-20)
(0.935509 0.0786292 -2.4587e-19)
(1.07922 0.0859631 6.08986e-19)
(1.18628 0.0877903 2.58983e-19)
(-0.0364916 0.0327885 -1.71427e-19)
(-0.037733 0.0486629 2.19568e-19)
(0.0168181 0.048537 -1.90877e-19)
(0.123404 0.0428224 -2.08115e-19)
(0.279545 0.0423086 -3.84753e-19)
(0.472896 0.0500089 1.51555e-19)
(0.679969 0.0640075 -1.05127e-19)
(0.874189 0.0794016 -3.061e-19)
(1.03624 0.0915452 2.6697e-19)
(1.15798 0.0977346 -2.17209e-19)
(1.24067 0.0974235 3.11957e-19)
(1.29106 0.0914074 3.59386e-19)
(-0.0376445 0.0307775 8.92268e-19)
(-0.0310548 0.0422683 -2.23183e-19)
(0.0403287 0.0407601 1.94782e-19)
(0.172598 0.0368204 2.36629e-19)
(0.358991 0.041859 3.62878e-19)
(0.57636 0.0565024 -1.91998e-19)
(0.791664 0.0756974 1.13317e-19)
(0.977062 0.0930907 -1.53161e-19)
(1.11884 0.104474 -2.83383e-19)
(1.2163 0.108453 1.46484e-19)
(1.27647 0.105704 -2.64949e-19)
(1.30913 0.0978131 -1.68185e-19)
(-0.0382932 0.0286002 -6.26628e-19)
(-0.0215308 0.035644 2.67092e-19)
(0.0703887 0.0335367 -2.78458e-20)
(0.232265 0.0330954 -1.35421e-19)
(0.448872 0.045367 -4.03979e-19)
(0.683359 0.0669178 2.8695e-19)
(0.896496 0.0897046 -2.60902e-19)
(1.06472 0.107191 1.15769e-19)
(1.18271 0.116523 1.4343e-19)
(1.25682 0.11782 -6.10481e-19)
(1.29805 0.112751 1.17562e-19)
(1.31734 0.103342 2.09612e-20)
(1.32331 0.0914239 2.57251e-19)
(-0.0382702 0.0262178 -4.56828e-20)
(-0.00860517 0.0288529 -4.01825e-19)
(0.107939 0.0272913 2.19618e-19)
(0.302497 0.0324418 1.44603e-19)
(0.546158 0.0530132 -1.17267e-19)
(0.788362 0.0803815 -3.63411e-19)
(0.989836 0.104767 2.45258e-19)
(1.13576 0.120767 -6.34559e-20)
(1.22963 0.127323 4.64898e-20)
(1.28322 0.125903 3.81739e-19)
(1.30951 0.118832 -2.04561e-19)
(1.31918 0.10828 -1.88894e-19)
(1.31962 0.0958981 -1.73683e-19)
(-0.0373817 0.0235864 -1.93454e-20)
(0.0083036 0.0219832 2.35211e-19)
(0.153749 0.0225841 -4.11189e-19)
(0.382344 0.0355193 8.14072e-20)
(0.646625 0.064429 2.80659e-19)
(0.886446 0.0957814 5.30546e-20)
(1.06919 0.119884 8.42858e-20)
(1.19081 0.13333 1.53176e-19)
(1.26237 0.136848 -1.72849e-19)
(1.29899 0.132928 -1.29023e-19)
(1.31403 0.124232 2.40163e-19)
(1.31706 0.11286 4.45383e-19)
(1.31398 0.100226 4.93136e-20)
(1.30794 0.0871366 -1.74408e-19)
(-0.0354157 0.0206722 4.69558e-20)
(0.0298018 0.0151824 4.41474e-19)
(0.208273 0.0201165 -1.33792e-19)
(0.469689 0.0426273 3.65248e-19)
(0.745721 0.0788103 -2.98231e-19)
(0.974186 0.112076 3.52388e-19)
(1.13404 0.134417 -2.87355e-19)
(1.23175 0.14472 1.86679e-19)
(1.2839 0.145247 -1.21623e-19)
(1.30711 0.139158 1.30269e-20)
(1.314 0.129193 -1.44249e-19)
(1.3126 0.117255 -2.51543e-19)
(1.30734 0.1045 -1.23534e-19)
(1.30034 0.0915568 8.5777e-20)
(1.29251 0.0788687 2.88068e-20)
(-0.0321451 0.0174588 -4.24991e-19)
(0.0565083 0.00870341 -3.98217e-19)
(0.271436 0.0206493 3.0721e-19)
(0.561453 0.0535818 -1.83798e-20)
(0.839473 0.0951978 4.25175e-19)
(1.04985 0.128488 -2.56393e-19)
(1.18522 0.148051 1.11655e-19)
(1.26092 0.154985 -1.44888e-19)
(1.29694 0.152744 2.72833e-19)
(1.30993 0.144842 -1.08408e-19)
(1.31109 0.133907 1.06577e-19)
(1.30679 0.121578 -7.12766e-21)
(1.30019 0.10877 8.40851e-20)
(1.29266 0.095964 -1.12145e-20)
(1.28467 0.0834629 1.26966e-19)
(1.27641 0.0713451 2.64178e-20)
(-0.0273235 0.0139527 6.10364e-19)
(0.0890116 0.00295897 -3.8588e-19)
(0.342448 0.024821 9.7689e-20)
(0.65411 0.0677983 -3.82377e-19)
(0.925041 0.11273 -2.67712e-19)
(1.11309 0.144525 2.91154e-20)
(1.2243 0.16069 5.23574e-20)
(1.28065 0.164274 -1.4663e-19)
(1.30372 0.159569 2.67683e-20)
(1.30916 0.150183 2.08788e-19)
(1.30638 0.138507 -1.53939e-19)
(1.30022 0.125898 -9.18864e-20)
(1.29282 0.113061 -5.0392e-20)
(1.28498 0.100356 -4.54152e-20)
(1.27695 0.0880134 -5.78419e-20)
(1.26878 0.0761008 1.08536e-19)
(1.26047 0.0650542 -5.25766e-20)
(-0.0206779 0.0101892 -1.4511e-19)
(0.127784 -0.00144157 3.58287e-19)
(0.419742 0.0329434 2.12217e-19)
(0.744318 0.084516 -2.39171e-19)
(1.00081 0.130756 2.94551e-19)
(1.16449 0.159925 -1.75867e-21)
(1.25311 0.172375 2.63963e-19)
(1.29306 0.172775 1.7235e-19)
(1.30603 0.165931 1.52875e-19)
(1.306 0.155339 -1.47215e-19)
(1.30057 0.143083 1.02895e-19)
(1.29322 0.130253 1.08863e-19)
(1.28534 0.117379 1.81776e-19)
(1.27734 0.104737 -9.58136e-20)
(1.26931 0.09249 -1.99131e-22)
(1.26127 0.0807487 -9.09075e-20)
(1.25318 0.0697236 3.74306e-21)
(1.24516 0.058951 -3.92353e-20)
(-0.0119014 0.00624427 -1.32221e-19)
(0.173057 -0.00371512 -1.44735e-19)
(0.501121 0.0449111 -7.39679e-21)
(0.829397 0.10301 2.26732e-19)
(1.0662 0.14884 -2.2028e-19)
(1.20517 0.174583 -2.39606e-19)
(1.27345 0.183216 9.13592e-20)
(1.29989 0.18068 -1.07763e-19)
(1.30517 0.172002 -6.86247e-20)
(1.30128 0.160421 2.69492e-20)
(1.29409 0.147688 -2.32877e-19)
(1.28599 0.134656 2.14373e-19)
(1.27781 0.121722 -2.07841e-20)
(1.26973 0.109093 -4.736e-20)
(1.26175 0.0969028 4.24944e-20)
(1.25384 0.0852385 -6.4175e-20)
(1.24598 0.0742603 -5.67177e-20)
(1.23823 0.0636515 -3.08906e-21)
(1.23034 0.0549428 -4.12311e-20)
(1.22353 0.04373 7.69815e-20)
(-0.000655458 0.00225226 1.52179e-19)
(0.224686 -0.00301782 2.62744e-19)
(0.584075 0.0602884 -3.51803e-19)
(0.907511 0.122696 -1.29876e-19)
(1.12134 0.166709 -5.86251e-20)
(1.23646 0.188492 3.35564e-19)
(1.28699 0.193357 -8.94081e-20)
(1.30257 0.188164 -5.56066e-20)
(1.30212 0.177917 -7.73065e-20)
(1.29553 0.165502 9.2893e-20)
(1.28717 0.152349 3.44623e-20)
(1.2786 0.139109 -4.02625e-20)
(1.27024 0.12608 -1.07671e-19)
(1.26213 0.113419 1.10302e-20)
(1.25422 0.101231 -4.61604e-20)
(1.24646 0.0896038 8.24927e-20)
(1.23883 0.0786066 2.01351e-20)
(1.23134 0.0681312 2.08673e-20)
(1.22384 0.0591753 2.79843e-20)
(1.21722 0.0482665 -8.12826e-20)
(0.0134108 -0.00157391 -2.86197e-19)
(0.282076 0.00137364 -1.65108e-20)
(0.666136 0.0784949 -5.37222e-20)
(0.977616 0.143148 1.53491e-19)
(1.16683 0.18421 -5.28784e-20)
(1.25974 0.201705 -1.4746e-19)
(1.29515 0.202947 -2.06895e-19)
(1.30217 0.195375 1.45147e-19)
(1.29752 0.183771 -1.7034e-19)
(1.28909 0.170625 8.46068e-20)
(1.27996 0.157073 4.98241e-20)
(1.27109 0.143605 -2.61042e-20)
(1.26263 0.130441 6.15734e-20)
(1.25453 0.117702 6.89606e-20)
(1.24671 0.105476 -1.46425e-19)
(1.23911 0.093825 1.09255e-19)
(1.23169 0.0827999 9.31438e-21)
(1.22447 0.0723717 1.85462e-20)
(1.21733 0.0631624 8.91524e-20)
(1.2109 0.0525339 2.19993e-20)
(0.0306164 -0.00492477 8.5142e-20)
(0.34419 0.00989276 -3.40864e-19)
(0.745161 0.0989613 3.18351e-19)
(1.03928 0.164067 1.4416e-19)
(1.20351 0.201268 -1.07085e-19)
(1.27628 0.214304 -1.76201e-19)
(1.29909 0.212124 6.05361e-21)
(1.2995 0.202426 -3.46117e-20)
(1.29183 0.189627 2.93027e-19)
(1.28214 0.175812 -1.33671e-19)
(1.27252 0.161858 -1.53962e-20)
(1.26345 0.14813 3.52735e-20)
(1.25495 0.134791 -2.19123e-20)
(1.24689 0.121934 -4.48796e-20)
(1.23918 0.109626 1.25952e-19)
(1.23175 0.097914 -1.03293e-19)
(1.22456 0.0868244 1.23717e-20)
(1.21759 0.0763945 -5.78194e-20)
(1.21077 0.0669389 -6.05362e-20)
(1.20454 0.0565171 -1.93435e-20)
(0.051193 -0.00739469 -6.11138e-20)
(0.409661 0.022612 1.4255e-19)
(0.819475 0.121198 -1.28774e-19)
(1.09253 0.185237 -1.32707e-19)
(1.23233 0.217857 2.19402e-19)
(1.28726 0.226384 2.32364e-19)
(1.29976 0.22101 1.12256e-19)
(1.29514 0.209404 -1.8822e-21)
(1.28533 0.195522 -2.87931e-19)
(1.2748 0.181064 2.43168e-20)
(1.26487 0.166691 9.19335e-21)
(1.2557 0.152669 6.20145e-20)
(1.24719 0.139115 1.01487e-19)
(1.2392 0.1261 -5.43455e-21)
(1.23161 0.113674 -2.31127e-20)
(1.22436 0.101863 9.26054e-20)
(1.2174 0.0906903 -6.04106e-20)
(1.21068 0.0802053 7.36491e-20)
(1.20416 0.0705032 -6.5546e-21)
(1.19815 0.0602539 7.44796e-20)
(0.0752357 -0.00850859 1.06706e-19)
(0.476945 0.0392966 5.57485e-20)
(0.88791 0.144804 -1.26302e-19)
(1.13763 0.206498 -1.55584e-19)
(1.25424 0.233986 -1.09891e-20)
(1.29366 0.238042 -2.54863e-20)
(1.29787 0.229702 1.25501e-19)
(1.28952 0.216363 8.74489e-20)
(1.27821 0.201471 9.40958e-20)
(1.26714 0.186374 -3.41831e-20)
(1.25701 0.171554 4.50866e-20)
(1.2478 0.157202 -4.14522e-20)
(1.23933 0.143397 -8.41878e-20)
(1.23143 0.130191 1.02521e-20)
(1.22399 0.117612 2.1801e-20)
(1.21693 0.105674 2.58282e-20)
(1.21019 0.0943928 3.42952e-20)
(1.20373 0.0838122 -2.05407e-20)
(1.1975 0.0738766 3.94971e-20)
(1.1917 0.063755 -8.98405e-20)
(0.102669 -0.00777507 1.40657e-19)
(0.544481 0.0595304 -1.26733e-20)
(0.949756 0.169451 1.77346e-19)
(1.17504 0.227716 1.0769e-19)
(1.27014 0.249677 4.81104e-20)
(1.29631 0.249361 -1.17755e-19)
(1.29398 0.238271 -1.11698e-19)
(1.28289 0.223336 -3.10599e-20)
(1.27058 0.207473 -8.38276e-21)
(1.25916 0.191724 -8.16841e-21)
(1.24894 0.176426 -1.08733e-19)
(1.23974 0.16171 2.38198e-20)
(1.23134 0.147621 4.29934e-20)
(1.22357 0.134192 1.32745e-21)
(1.2163 0.121434 5.14987e-21)
(1.20944 0.109342 -1.32748e-20)
(1.20294 0.097933 -3.19102e-20)
(1.19672 0.0872226 -2.63132e-20)
(1.19077 0.0770634 -5.45571e-20)
(1.18519 0.0670378 8.22646e-21)
(0.13324 -0.00475449 -8.63987e-20)
(0.610801 0.0828364 5.33736e-20)
(1.00467 0.194873 -2.19907e-20)
(1.20532 0.248777 5.11908e-21)
(1.28086 0.264959 -1.97807e-19)
(1.29589 0.260415 4.89267e-20)
(1.28849 0.246765 3.14993e-20)
(1.27545 0.230332 -2.177e-20)
(1.26249 0.213515 7.78405e-20)
(1.25088 0.197092 -1.26505e-21)
(1.24064 0.181285 3.40935e-20)
(1.2315 0.166171 3.98499e-20)
(1.22322 0.151769 -2.72589e-20)
(1.21561 0.138091 -3.21076e-20)
(1.20852 0.125128 -1.73967e-20)
(1.20188 0.112864 -1.85522e-20)
(1.19561 0.101308 1.63049e-20)
(1.18964 0.0904417 1.86727e-20)
(1.18396 0.0800757 2.9814e-20)
(1.1786 0.0701152 3.41616e-20)
(0.166536 0.00087973 -4.02223e-20)
(0.674606 0.108746 -7.92513e-21)
(1.0526 0.220852 -7.14291e-20)
(1.22905 0.269587 6.59757e-20)
(1.28712 0.27986 1.41998e-19)
(1.29294 0.271258 7.74859e-20)
(1.28169 0.25521 -3.48696e-20)
(1.26732 0.237346 -2.0368e-20)
(1.25396 0.219574 -4.61228e-20)
(1.24229 0.20245 4.43623e-20)
(1.2321 0.186102 -1.71746e-21)
(1.22308 0.170564 -2.19712e-20)
(1.21495 0.155824 -2.58353e-20)
(1.20752 0.141874 -2.47033e-20)
(1.20064 0.128686 5.11903e-20)
(1.19423 0.116234 -1.73297e-20)
(1.1882 0.104515 -1.86754e-20)
(1.18249 0.0934749 -3.19913e-21)
(1.17708 0.0829183 -3.24258e-21)
(1.17193 0.072997 -1.90294e-20)
(0.20202 0.00930647 -3.98284e-21)
(0.734806 0.136819 -5.29693e-20)
(1.09365 0.247198 2.43879e-20)
(1.24684 0.290065 -8.66416e-20)
(1.28954 0.294402 -6.04189e-20)
(1.28789 0.281924 9.00174e-21)
(1.2738 0.263611 -8.84406e-22)
(1.25855 0.244357 3.96426e-21)
(1.24501 0.225619 1.25384e-20)
(1.23338 0.207769 2.21805e-20)
(1.22331 0.190852 -3.01452e-20)
(1.21445 0.174864 1.28013e-20)
(1.20651 0.159765 2.23455e-20)
(1.1993 0.145525 -4.88398e-21)
(1.19266 0.132098 -2.16088e-20)
(1.18649 0.119444 1.20921e-20)
(1.18071 0.107551 1.37869e-20)
(1.17526 0.0963259 1.39301e-20)
(1.17011 0.0855977 -7.03137e-21)
(1.16517 0.0756929 2.51142e-21)
(0.239067 0.0205578 4.45851e-20)
(0.790533 0.166644 -6.16337e-20)
(1.12807 0.273741 -8.37092e-21)
(1.25925 0.310145 3.54301e-20)
(1.28865 0.308595 5.70578e-20)
(1.28106 0.29243 -1.74661e-20)
(1.26494 0.271958 -4.9847e-20)
(1.24919 0.251337 4.94085e-20)
(1.23564 0.231616 -1.33352e-20)
(1.22414 0.213013 -1.53607e-20)
(1.21426 0.195505 1.39781e-20)
(1.20561 0.179048 -6.93438e-21)
(1.19791 0.163573 -2.02771e-21)
(1.19094 0.14903 5.39968e-21)
(1.18455 0.135352 7.74926e-21)
(1.17865 0.122489 9.92554e-21)
(1.17314 0.110413 -1.76445e-20)
(1.16794 0.0989976 -4.35072e-21)
(1.16305 0.0881155 -1.07218e-21)
(1.15833 0.0782076 5.22359e-21)
(0.27697 0.0345489 -2.44641e-20)
(0.841135 0.197829 4.28216e-20)
(1.15615 0.300317 -5.2949e-21)
(1.26683 0.329772 -1.139e-20)
(1.2849 0.322441 -3.71329e-20)
(1.27269 0.302773 1.7389e-20)
(1.25523 0.280224 1.14177e-20)
(1.23927 0.258247 -1.26235e-20)
(1.22585 0.237526 -2.06453e-21)
(1.21456 0.21815 6.00767e-21)
(1.20493 0.200032 -6.50534e-21)
(1.19655 0.183091 3.27438e-21)
(1.18912 0.167228 -7.10276e-21)
(1.18243 0.152372 4.0662e-21)
(1.17633 0.138436 8.38881e-22)
(1.17071 0.12536 -3.69517e-21)
(1.16547 0.113096 2.11807e-21)
(1.16055 0.101491 -3.28052e-21)
(1.15592 0.0904718 1.06783e-21)
(1.1514 0.0805459 3.78742e-21)
(0.314938 0.0511099 -1.75465e-20)
(0.886167 0.229996 3.74596e-20)
(1.17822 0.326758 -3.90951e-21)
(1.27009 0.348895 -1.46404e-20)
(1.27865 0.335932 -3.41837e-20)
(1.26298 0.312935 1.71363e-20)
(1.24471 0.288376 1.11294e-20)
(1.22879 0.265045 -9.97584e-21)
(1.21562 0.243308 -1.15924e-22)
(1.20463 0.223142 4.70212e-21)
(1.19532 0.204401 -4.14752e-21)
(1.18725 0.186967 -1.13096e-21)
(1.18015 0.170708 -2.48869e-21)
(1.17377 0.155535 1.48235e-21)
(1.16798 0.141338 9.58414e-22)
(1.16267 0.128047 -3.76791e-21)
(1.15772 0.115595 4.18583e-21)
(1.15308 0.103807 -4.01687e-21)
(1.14871 0.092664 -9.71268e-22)
(1.14439 0.0827072 2.50362e-21)
(0.352199 0.0699862 5.07976e-20)
(0.925292 0.262751 -5.05044e-20)
(1.19452 0.352876 -3.61082e-20)
(1.26941 0.36746 4.67655e-20)
(1.27018 0.349054 5.30947e-20)
(1.25204 0.322892 -2.1583e-20)
(1.23342 0.296375 -3.57227e-20)
(1.21774 0.27169 3.90799e-20)
(1.20494 0.248924 -1.09032e-20)
(1.19435 0.227957 -1.27076e-20)
(1.18542 0.208585 9.93818e-21)
(1.17773 0.190653 -1.91597e-21)
(1.17098 0.173996 -4.65989e-21)
(1.16497 0.158504 1.4943e-21)
(1.15951 0.144048 7.13165e-21)
(1.15452 0.130543 8.31467e-21)
(1.14987 0.117904 -1.03968e-20)
(1.14554 0.10594 -2.75122e-21)
(1.14143 0.0946947 -1.77706e-21)
(1.13729 0.084697 3.78315e-21)
(0.388221 0.0909532 2.26164e-20)
(0.9586 0.295834 -8.01829e-20)
(1.20552 0.378554 2.22911e-20)
(1.26524 0.385423 -5.79881e-20)
(1.25975 0.361766 -6.73855e-20)
(1.23997 0.332588 1.09024e-20)
(1.22139 0.304154 4.28267e-21)
(1.20613 0.278119 -4.30379e-21)
(1.19382 0.25432 1.45025e-20)
(1.1837 0.232549 -5.8501e-22)
(1.17523 0.212545 -9.45888e-21)
(1.16797 0.194116 1.9186e-21)
(1.16163 0.177062 1.84365e-20)
(1.15601 0.161256 -1.54682e-21)
(1.15092 0.146547 -6.27076e-21)
(1.14627 0.132834 -3.61029e-21)
(1.14195 0.12001 1.57666e-20)
(1.13794 0.107878 6.74321e-21)
(1.13411 0.096568 -3.95255e-21)
(1.13013 0.0865304 -4.60062e-21)
(0.422385 0.113769 -5.01974e-20)
(0.986068 0.32896 -9.55331e-21)
(1.21152 0.403628 -6.95756e-20)
(1.2579 0.40272 7.76314e-20)
(1.24754 0.374026 9.62759e-20)
(1.22686 0.341969 3.73286e-20)
(1.20863 0.31166 -6.87389e-21)
(1.19396 0.284281 7.79957e-21)
(1.18225 0.259453 -3.94601e-20)
(1.17269 0.236882 2.83574e-20)
(1.16474 0.21625 -8.61463e-21)
(1.15798 0.197331 -6.57187e-21)
(1.1521 0.179887 -1.78694e-20)
(1.1469 0.163773 -5.43948e-21)
(1.14222 0.148822 8.44314e-21)
(1.13793 0.134915 -5.4431e-21)
(1.13396 0.121907 -7.14942e-21)
(1.13028 0.109619 2.06525e-21)
(1.1267 0.0982796 -1.28673e-21)
(1.12292 0.0881917 -1.07051e-20)
(0.454122 0.138171 -7.41325e-20)
(1.00778 0.361858 1.407e-20)
(1.21287 0.427945 3.3666e-20)
(1.2477 0.419285 -3.66567e-20)
(1.23373 0.385777 -1.32046e-19)
(1.21275 0.350971 1.10995e-20)
(1.19516 0.318826 4.75095e-20)
(1.18123 0.290119 -1.75232e-20)
(1.17023 0.264271 3.79103e-20)
(1.16132 0.240912 -9.99661e-21)
(1.15398 0.219663 2.52686e-20)
(1.14777 0.200267 3.44561e-21)
(1.1424 0.182449 3.49428e-22)
(1.13766 0.166034 -1.50518e-20)
(1.13341 0.150855 -6.91013e-21)
(1.12951 0.136767 -3.2505e-21)
(1.12591 0.123588 3.10317e-21)
(1.12257 0.111171 5.07266e-21)
(1.11924 0.0998161 8.92645e-21)
(1.11568 0.089679 1.52411e-20)
(0.482942 0.163875 9.45506e-20)
(1.02386 0.394267 3.46531e-20)
(1.20988 0.451354 1.14217e-19)
(1.23488 0.435042 5.53577e-20)
(1.21844 0.396954 4.32983e-20)
(1.19768 0.359524 -5.6265e-20)
(1.18097 0.325586 -5.0317e-20)
(1.16795 0.295574 -1.69097e-20)
(1.15778 0.268724 -9.41455e-21)
(1.14963 0.244602 -2.04498e-20)
(1.14295 0.222753 -3.16035e-20)
(1.13734 0.202894 -5.32126e-22)
(1.13252 0.184723 1.45952e-20)
(1.12829 0.168029 2.81794e-20)
(1.12449 0.152633 -2.80909e-20)
(1.12101 0.138375 6.03323e-21)
(1.1178 0.125043 -7.88147e-21)
(1.11482 0.112524 -3.15634e-21)
(1.11175 0.101172 -1.76426e-20)
(1.10842 0.0909825 -3.52653e-21)
(0.50844 0.19058 2.07873e-19)
(1.03449 0.425936 -1.92909e-20)
(1.20286 0.473706 -8.96289e-20)
(1.21969 0.449911 -1.22213e-19)
(1.20176 0.407482 -2.64654e-20)
(1.18169 0.367552 -1.39599e-22)
(1.16612 0.33187 6.77918e-20)
(1.15416 0.300589 5.45147e-20)
(1.14492 0.272764 3.64799e-20)
(1.1376 0.247902 -1.48119e-20)
(1.13166 0.225491 1.11999e-20)
(1.12671 0.205191 -1.05027e-20)
(1.12249 0.186684 -1.94765e-20)
(1.11879 0.169731 7.30591e-21)
(1.11548 0.15414 -2.52016e-21)
(1.11244 0.139728 6.56878e-21)
(1.10965 0.126265 9.38987e-21)
(1.10703 0.11367 -2.12112e-21)
(1.10423 0.102337 1.14797e-20)
(1.10115 0.0921002 -8.52174e-21)
(0.530291 0.217958 -1.30975e-19)
(1.03985 0.456615 1.53998e-19)
(1.1921 0.494855 -6.769e-20)
(1.2023 0.463807 -3.20007e-20)
(1.18377 0.417274 9.99258e-20)
(1.16484 0.374972 9.64352e-20)
(1.15064 0.337609 3.24997e-20)
(1.13986 0.3051 -2.50057e-20)
(1.13167 0.276351 -5.31803e-20)
(1.12525 0.250783 -8.92673e-22)
(1.12011 0.227836 6.17153e-21)
(1.11588 0.207127 1.40058e-20)
(1.11231 0.18831 1.27123e-20)
(1.10919 0.171124 -4.43322e-21)
(1.10639 0.15536 8.68204e-21)
(1.10382 0.140814 3.28907e-21)
(1.10147 0.127242 -4.74184e-21)
(1.09922 0.114599 7.36923e-21)
(1.09672 0.103304 6.68077e-21)
(1.0939 0.0930248 3.6195e-21)
(0.548258 0.245668 2.10949e-20)
(1.04017 0.486058 -2.74754e-19)
(1.17787 0.514657 1.69137e-19)
(1.18289 0.476641 1.0298e-19)
(1.16456 0.426232 -1.0257e-20)
(1.14722 0.381698 -8.29555e-20)
(1.13454 0.342733 -6.87514e-21)
(1.12507 0.309062 -1.7548e-20)
(1.11802 0.279432 5.5547e-20)
(1.11259 0.253202 -4.70607e-21)
(1.10834 0.229758 -1.01682e-20)
(1.10488 0.208674 3.26549e-21)
(1.102 0.189577 -3.43336e-21)
(1.09949 0.172187 -2.58344e-21)
(1.09724 0.156275 1.10751e-20)
(1.09517 0.14162 -1.53175e-20)
(1.09327 0.127965 1.34754e-21)
(1.09141 0.115301 -3.59083e-21)
(1.08921 0.10406 -3.32708e-21)
(1.08669 0.0937521 4.15016e-22)
(0.562181 0.273352 -2.6329e-19)
(1.03567 0.514017 2.63388e-20)
(1.16043 0.532965 -5.72963e-20)
(1.16165 0.488322 7.40134e-20)
(1.1443 0.434274 -1.4126e-20)
(1.12883 0.387636 -5.82928e-20)
(1.11782 0.347187 -5.81622e-20)
(1.1098 0.312409 1.18973e-20)
(1.104 0.28196 -1.19727e-20)
(1.09965 0.25512 1.088e-20)
(1.09635 0.231223 1.44735e-20)
(1.09372 0.209805 -9.7255e-21)
(1.09157 0.190464 -1.47672e-21)
(1.08972 0.172902 7.36252e-21)
(1.08804 0.156872 -1.00073e-20)
(1.08649 0.142133 2.65493e-21)
(1.08506 0.128424 3.8433e-21)
(1.08361 0.115765 -2.29951e-22)
(1.08173 0.104595 6.11549e-22)
(1.07953 0.0942751 -2.99325e-22)
(0.571982 0.300654 1.19465e-19)
(1.02659 0.540251 2.48947e-19)
(1.13999 0.549612 -2.43791e-19)
(1.13878 0.498746 1.39654e-20)
(1.12306 0.441325 -5.71758e-20)
(1.10966 0.392708 1.15006e-19)
(1.10054 0.350887 -3.38988e-20)
(1.0941 0.315089 -2.44514e-21)
(1.08966 0.283889 -1.01413e-20)
(1.08647 0.2565 1.26996e-20)
(1.08417 0.232201 -2.51212e-21)
(1.08243 0.210494 -6.25048e-21)
(1.08105 0.190949 -9.55657e-23)
(1.07988 0.17325 -1.73263e-21)
(1.07882 0.157133 2.25072e-21)
(1.07781 0.142343 -3.58785e-21)
(1.07687 0.12861 2.12332e-23)
(1.07584 0.115981 -2.46176e-21)
(1.0743 0.1049 -2.46331e-21)
(1.07244 0.0945892 2.39975e-21)
(0.577658 0.327219 -9.31363e-20)
(1.01325 0.564553 -8.82803e-20)
(1.11677 0.564408 3.93491e-20)
(1.11448 0.507806 8.66336e-21)
(1.10086 0.447292 -7.8174e-21)
(1.0898 0.396846 -7.67618e-20)
(1.08274 0.353767 2.64364e-20)
(1.078 0.317048 -2.18755e-20)
(1.07502 0.285175 1.40914e-21)
(1.07306 0.257306 -4.93791e-21)
(1.07184 0.232662 1.19773e-21)
(1.07103 0.210717 -9.47964e-22)
(1.07047 0.191012 3.61927e-21)
(1.07001 0.173214 6.67988e-22)
(1.06958 0.157045 3.2266e-24)
(1.06914 0.142235 -2.82331e-21)
(1.0687 0.128511 2.5833e-21)
(1.0681 0.115939 2.15321e-21)
(1.06693 0.104964 4.77167e-21)
(1.06544 0.0946898 3.37178e-21)
(0.57928 0.35269 -2.17175e-19)
(0.995984 0.586763 3.12847e-19)
(1.09102 0.577217 1.01736e-19)
(1.08878 0.515325 -7.1499e-20)
(1.07779 0.452095 5.43442e-20)
(1.06931 0.399975 1.62555e-20)
(1.06447 0.355764 1.78012e-20)
(1.06156 0.318233 1.30819e-22)
(1.06012 0.285779 5.50264e-21)
(1.05947 0.257504 -2.42255e-21)
(1.05938 0.23258 -9.33602e-22)
(1.05954 0.21045 -5.2591e-21)
(1.05983 0.190633 -1.70564e-20)
(1.06013 0.172778 7.39009e-21)
(1.06036 0.156594 3.60045e-21)
(1.0605 0.141799 5.59314e-21)
(1.06059 0.128118 -7.35165e-21)
(1.06044 0.115627 1.72019e-22)
(1.05964 0.104777 7.02262e-21)
(1.05856 0.0945755 2.09028e-20)
(0.576994 0.376705 4.8796e-19)
(0.975103 0.606681 -2.47547e-19)
(1.06299 0.587951 3.03556e-20)
(1.06181 0.52116 -9.06172e-20)
(1.05394 0.455613 -2.96141e-20)
(1.04827 0.402022 -4.07286e-22)
(1.04579 0.356819 -4.95996e-21)
(1.04481 0.318598 -4.0726e-21)
(1.045 0.285661 -6.54745e-22)
(1.04573 0.257061 -2.5028e-20)
(1.04682 0.231927 1.49424e-20)
(1.048 0.209673 1.65182e-21)
(1.04918 0.189794 7.85032e-21)
(1.05025 0.171927 -1.22367e-20)
(1.05117 0.155766 1.6185e-20)
(1.05192 0.141024 5.57316e-21)
(1.05254 0.127419 -8.05723e-21)
(1.05285 0.115033 -1.61322e-21)
(1.05246 0.104323 -2.56716e-20)
(1.0518 0.0942441 -1.17345e-20)
(0.571006 0.398939 -2.35633e-19)
(0.950577 0.623907 -2.50645e-19)
(1.03312 0.596619 7.906e-20)
(1.0338 0.525236 4.39034e-20)
(1.02942 0.457756 4.27452e-20)
(1.02676 0.402918 -2.24362e-21)
(1.02677 0.356879 -1.30111e-20)
(1.02782 0.318098 2.17259e-20)
(1.02972 0.284785 -3.96299e-20)
(1.03188 0.255951 9.1918e-21)
(1.0342 0.230681 -1.40318e-20)
(1.03643 0.208365 5.13326e-21)
(1.03854 0.18848 -2.99852e-20)
(1.04041 0.170647 1.20265e-20)
(1.04204 0.154551 -2.4007e-20)
(1.04341 0.1399 1.08818e-20)
(1.04457 0.126408 4.87618e-21)
(1.04535 0.114141 1.515e-20)
(1.04538 0.103579 2.30227e-20)
(1.04519 0.0936855 -3.07195e-21)
(0.561535 0.419243 7.97457e-20)
(0.922533 0.638071 2.49854e-19)
(1.00171 0.603058 -6.18661e-20)
(1.00489 0.52755 5.83877e-20)
(1.00433 0.458443 -1.40022e-20)
(1.00484 0.402599 -1.63135e-20)
(1.00747 0.355894 3.26641e-20)
(1.01064 0.316694 -2.63035e-20)
(1.01431 0.283121 1.12999e-21)
(1.01797 0.254147 7.14061e-21)
(1.02155 0.22882 2.55801e-22)
(1.02488 0.206511 5.48914e-20)
(1.02793 0.186677 2.70253e-20)
(1.03063 0.168927 -1.35855e-20)
(1.03298 0.152937 1.55409e-20)
(1.035 0.13842 -1.06722e-20)
(1.03671 0.125079 -5.90108e-22)
(1.03795 0.112944 -5.80539e-20)
(1.03844 0.102521 -2.62064e-20)
(1.03874 0.0928755 -2.07799e-20)
(0.548778 0.437464 1.73721e-20)
(0.891518 0.649103 7.53927e-20)
(0.9689 0.606999 -5.70726e-20)
(0.975244 0.528025 -6.95509e-21)
(0.978786 0.457607 -2.19664e-20)
(0.982619 0.401006 -1.3888e-20)
(0.987969 0.353823 -2.29265e-20)
(0.99334 0.314352 -1.45977e-20)
(0.998846 0.28064 -1.48819e-20)
(1.00403 0.251627 2.95973e-20)
(1.00892 0.226327 -2.77154e-20)
(1.01337 0.204095 -8.61076e-20)
(1.01738 0.184371 -2.03201e-20)
(1.02093 0.166754 -9.76689e-21)
(1.02404 0.150918 2.96753e-20)
(1.02671 0.136578 -4.76867e-21)
(1.02896 0.123432 5.92417e-21)
(1.03068 0.111446 -1.15174e-20)
(1.03166 0.101147 3.94323e-20)
(1.0325 0.0918107 -2.55799e-20)
(0.532745 0.45322 3.92962e-20)
(0.858233 0.657109 -1.47041e-19)
(0.934949 0.608309 2.30937e-20)
(0.945019 0.526584 -1.82918e-20)
(0.952901 0.455191 8.97407e-21)
(0.960182 0.398088 7.59177e-20)
(0.968343 0.350625 -6.57346e-20)
(0.975978 0.311041 -1.70362e-20)
(0.98337 0.27732 3.88515e-21)
(0.99013 0.248372 -1.09168e-19)
(0.996355 0.223188 1.90451e-20)
(1.00194 0.201105 6.90748e-20)
(1.00694 0.181553 6.79366e-20)
(1.01135 0.164122 1.66855e-20)
(1.01522 0.148482 -2.49722e-20)
(1.01854 0.134364 -9.52751e-21)
(1.02134 0.121456 2.9269e-20)
(1.02358 0.109647 2.87498e-21)
(1.02517 0.0994841 4.90351e-21)
(1.02664 0.0905976 4.30849e-20)
(0.513573 0.465984 -1.86633e-19)
(0.823046 0.661913 6.16713e-20)
(0.900069 0.606973 8.03584e-21)
(0.914381 0.523154 -1.77785e-22)
(0.926799 0.451146 5.88327e-20)
(0.93763 0.393805 -3.5493e-20)
(0.948674 0.34627 4.69844e-20)
(0.958627 0.306737 -3.266e-20)
(0.967944 0.27314 -5.31911e-20)
(0.976303 0.244369 1.68959e-19)
(0.983885 0.21939 4.25458e-21)
(0.990625 0.197533 -9.78651e-21)
(0.99663 0.178215 -3.03129e-20)
(1.00192 0.161023 -2.548e-21)
(1.00655 0.145626 -2.12172e-21)
(1.01052 0.131765 1.92762e-20)
(1.01387 0.119127 -1.62142e-20)
(1.01672 0.107507 -1.51633e-20)
(1.01913 0.0974808 3.3653e-21)