/*--------------------------------*- C++ -*----------------------------------*\
  =========                 |
  \\      /  F ield         | OpenFOAM: The Open Source CFD Toolbox
   \\    /   O peration     | Website:  https://openfoam.org
    \\  /    A nd           | Version:  7
     \\/     M anipulation  |
\*---------------------------------------------------------------------------*/
FoamFile
{
    version     2.0;
    format      ascii;
    class       volVectorField;
    location    "5";
    object      U;
}
// * * * * * * * * * * * * * * * * * * * * * * * * * * * * * * * * * * * * * //

dimensions      [0 1 -1 0 0 0 0];

internalField   nonuniform List<vector> 
2625
(
(1.22399 0.000239524 -4.28532e-23)
(1.22296 0.000276234 8.10016e-22)
(1.22182 0.000313258 1.263e-22)
(1.22058 0.000349688 5.22336e-22)
(1.21924 0.00038385 2.83298e-22)
(1.22402 0.000719106 -1.01185e-21)
(1.22299 0.000828697 2.87702e-22)
(1.22185 0.000939405 -1.11061e-21)
(1.22061 0.0010485 -7.47114e-22)
(1.21928 0.0011507 1.39263e-22)
(1.22408 0.00119601 -9.52345e-22)
(1.22306 0.0013777 -5.02178e-22)
(1.22192 0.00156132 1.40933e-21)
(1.22069 0.00174229 1.48463e-21)
(1.21936 0.00191144 -1.05426e-21)
(1.22417 0.00167009 -4.08014e-22)
(1.22315 0.00192319 1.19401e-21)
(1.22202 0.00217901 1.36771e-22)
(1.22079 0.00243111 -4.07555e-21)
(1.21948 0.00266624 -9.89025e-22)
(1.22428 0.00214134 3.5696e-21)
(1.22327 0.00246514 -1.71265e-22)
(1.22215 0.00279247 2.21805e-21)
(1.22093 0.00311497 5.26387e-21)
(1.21963 0.00341528 8.15146e-22)
(1.22442 0.0026098 1.15807e-21)
(1.22341 0.00300362 2.06538e-22)
(1.22231 0.00340175 -1.06039e-21)
(1.2211 0.003794 -2.24743e-21)
(1.21981 0.00415876 -1.10926e-21)
(1.22458 0.00307558 -3.57564e-21)
(1.22359 0.00353873 -1.38277e-21)
(1.22249 0.004007 1.37526e-21)
(1.22129 0.00446835 -1.31551e-21)
(1.22002 0.00489692 4.52671e-21)
(1.22476 0.00353877 -1.7747e-21)
(1.22378 0.00407059 5.82185e-22)
(1.2227 0.00460835 -8.16161e-21)
(1.22151 0.00513823 9.61266e-22)
(1.22025 0.00563004 -3.39169e-21)
(1.22497 0.00399952 -3.37336e-21)
(1.224 0.00459935 6.3952e-22)
(1.22293 0.00520599 1.02166e-20)
(1.22176 0.00580386 -1.59599e-21)
(1.22052 0.00635842 -1.9619e-21)
(1.2252 0.00445795 1.47777e-21)
(1.22424 0.00512518 -1.21373e-21)
(1.22319 0.00580011 1.39494e-21)
(1.22203 0.00646548 2.67698e-21)
(1.22081 0.00708236 6.90663e-22)
(1.22544 0.00491422 9.15577e-22)
(1.22451 0.00564824 2.25801e-21)
(1.22347 0.00639091 -8.6434e-21)
(1.22232 0.00712332 -3.80483e-21)
(1.22112 0.00780215 4.67853e-22)
(1.22571 0.00536848 3.75144e-21)
(1.22479 0.00616871 4.96016e-21)
(1.22376 0.00697859 1.9917e-21)
(1.22264 0.00777764 -3.05672e-21)
(1.22145 0.0085181 8.05032e-21)
(1.22599 0.00582089 3.79522e-21)
(1.22509 0.00668676 -2.34261e-21)
(1.22408 0.00756335 5.00293e-21)
(1.22297 0.00842867 3.92984e-21)
(1.22181 0.00923051 -4.70564e-21)
(1.22629 0.00627158 -7.17737e-21)
(1.2254 0.00720255 -8.94446e-21)
(1.22441 0.0081454 -2.91843e-21)
(1.22332 0.00907664 6.92639e-21)
(1.22218 0.00993967 -7.55671e-21)
(1.2266 0.00672071 1.87588e-21)
(1.22573 0.00771627 -3.40957e-21)
(1.22476 0.00872491 -1.00026e-22)
(1.22369 0.00972179 2.29197e-21)
(1.22257 0.0106459 5.54487e-21)
(1.22693 0.00716842 -6.09935e-21)
(1.22608 0.00822806 1.06854e-20)
(1.22513 0.00930208 6.81223e-21)
(1.22407 0.0103643 -5.34264e-21)
(1.22297 0.0113493 3.62645e-21)
(1.22728 0.00761485 8.80788e-21)
(1.22644 0.00873808 -2.0334e-21)
(1.2255 0.00987709 -1.32868e-20)
(1.22446 0.0110045 -1.31891e-21)
(1.22339 0.0120503 -1.32165e-21)
(1.22763 0.00806013 1.91108e-22)
(1.22681 0.00924648 1.64349e-23)
(1.22589 0.0104501 -4.89923e-22)
(1.22487 0.0116424 -6.41224e-21)
(1.22382 0.0127491 -9.75566e-21)
(1.22799 0.00850437 -7.27896e-22)
(1.22719 0.00975338 3.65993e-21)
(1.22629 0.0110212 -9.46071e-22)
(1.22529 0.0122782 3.69144e-22)
(1.22426 0.0134458 2.18242e-20)
(1.22837 0.0089477 -1.11506e-21)
(1.22758 0.0102589 3.04642e-21)
(1.22671 0.0115907 1.09711e-20)
(1.22571 0.0129122 -8.60049e-21)
(1.2247 0.0141408 -2.75249e-20)
(1.22875 0.00939023 -1.13066e-20)
(1.22799 0.0107632 -8.31802e-21)
(1.22712 0.0121585 8.68402e-21)
(1.22615 0.0135444 1.0026e-20)
(1.22516 0.0148341 5.20806e-21)
(1.22914 0.00983206 9.50219e-21)
(1.22839 0.0112663 -1.61141e-20)
(1.22755 0.012725 -3.81425e-21)
(1.22659 0.014175 -1.27625e-21)
(1.22562 0.0155259 1.17865e-20)
(1.22954 0.0102733 -6.02428e-21)
(1.22881 0.0117685 2.39903e-20)
(1.22798 0.01329 -2.21374e-20)
(1.22704 0.0148041 1.08321e-20)
(1.22609 0.0162165 3.75098e-21)
(1.22995 0.010714 1.2152e-20)
(1.22923 0.0122696 -9.28996e-21)
(1.22842 0.0138539 1.32955e-22)
(1.22749 0.0154318 -1.29668e-20)
(1.22656 0.0169058 -1.55227e-20)
(1.23036 0.0111543 -1.3153e-20)
(1.22965 0.0127699 1.27085e-20)
(1.22886 0.0144165 1.62863e-20)
(1.22794 0.0160582 8.37412e-21)
(1.22703 0.0175941 2.82217e-21)
(1.23077 0.0115943 -5.96998e-21)
(1.23008 0.0132695 2.41729e-21)
(1.2293 0.0149782 5.51076e-21)
(1.2284 0.0166833 1.42354e-20)
(1.2275 0.0182815 4.09449e-21)
(1.23119 0.012034 1.48298e-20)
(1.23051 0.0137684 1.18338e-21)
(1.22975 0.0155388 7.21847e-21)
(1.22886 0.0173072 -1.66972e-20)
(1.22797 0.018968 1.35109e-21)
(1.23161 0.0124736 1.00015e-20)
(1.23095 0.0142666 -2.37167e-20)
(1.2302 0.0160984 -2.50652e-20)
(1.22931 0.01793 9.84125e-21)
(1.22844 0.0196537 1.65884e-21)
(1.23203 0.0129132 -2.13246e-20)
(1.23138 0.0147643 6.09657e-22)
(1.23064 0.0166572 -1.93597e-21)
(1.22977 0.0185517 -1.1053e-20)
(1.22891 0.0203387 6.37036e-21)
(1.23245 0.0133528 2.2968e-21)
(1.23181 0.0152616 1.70438e-20)
(1.23109 0.0172152 -1.21359e-21)
(1.23022 0.0191723 -2.18926e-21)
(1.22937 0.0210231 -2.33789e-23)
(1.23287 0.0137924 -4.22608e-21)
(1.23224 0.0157584 -6.2504e-21)
(1.23153 0.0177722 1.26758e-20)
(1.23067 0.0197917 8.67806e-21)
(1.22982 0.0217068 -7.10793e-21)
(1.23329 0.0142322 1.97994e-20)
(1.23267 0.0162548 -2.31529e-20)
(1.23196 0.0183284 -4.36981e-21)
(1.23111 0.02041 -9.27323e-21)
(1.23027 0.0223899 6.74036e-21)
(1.23371 0.0146721 -2.17662e-20)
(1.2331 0.0167508 2.01956e-20)
(1.2324 0.0188838 9.48814e-21)
(1.23155 0.0210273 9.93869e-22)
(1.23071 0.0230724 -1.80893e-20)
(1.23412 0.0151123 2.41736e-20)
(1.23352 0.0172465 6.32156e-21)
(1.23282 0.0194382 2.25944e-21)
(1.23198 0.0216433 1.0274e-20)
(1.23114 0.0237544 1.16167e-20)
(1.23454 0.0155528 -5.43704e-21)
(1.23394 0.0177419 -2.62933e-20)
(1.23325 0.0199917 2.93315e-21)
(1.23241 0.0222582 1.35415e-20)
(1.23156 0.0244357 -2.43766e-23)
(1.23495 0.0159935 8.73361e-21)
(1.23435 0.0182371 1.01693e-20)
(1.23366 0.0205443 -2.27273e-20)
(1.23282 0.0228718 -1.86915e-20)
(1.23197 0.0251163 -2.1031e-20)
(1.23535 0.0164347 -2.99556e-20)
(1.23476 0.018732 -2.23641e-21)
(1.23407 0.0210957 2.064e-20)
(1.23323 0.0234841 4.78333e-21)
(1.23237 0.0257961 7.08397e-21)
(1.23622 0.0146145 3.53075e-20)
(1.23575 0.0168763 3.03171e-20)
(1.23516 0.0192267 2.76855e-21)
(1.23446 0.021646 -1.19653e-20)
(1.23362 0.0240951 -1.1896e-20)
(1.23275 0.0264752 2.48341e-20)
(1.23662 0.0150071 -1.70737e-20)
(1.23614 0.0173185 -7.96368e-21)
(1.23555 0.0197212 2.13127e-20)
(1.23485 0.0221951 -2.02737e-21)
(1.23401 0.0247048 -3.35395e-21)
(1.23312 0.0271532 -2.4573e-21)
(1.237 0.0154008 1.28947e-20)
(1.23653 0.0177612 -6.37057e-21)
(1.23593 0.0202155 -1.31115e-20)
(1.23522 0.0227428 -2.52209e-21)
(1.23438 0.0253129 1.1848e-20)
(1.23347 0.0278299 1.17326e-20)
(1.23739 0.0157959 -1.77398e-20)
(1.23691 0.0182047 -6.91466e-21)
(1.2363 0.0207097 2.73269e-21)
(1.23559 0.0232891 -1.20823e-20)
(1.23473 0.0259195 9.39182e-21)
(1.2338 0.0285053 -2.21349e-20)
(1.23776 0.0161922 1.85477e-21)
(1.23728 0.0186488 5.07965e-21)
(1.23666 0.0212036 -1.48602e-20)
(1.23594 0.0238338 -1.50073e-21)
(1.23508 0.0265243 5.34791e-22)
(1.23412 0.0291788 7.64061e-21)
(1.23813 0.0165901 1.06575e-20)
(1.23764 0.0190938 -1.36219e-20)
(1.23701 0.0216973 2.09496e-20)
(1.23628 0.0243768 2.59273e-20)
(1.2354 0.0271273 9.582e-21)
(1.23441 0.0298502 2.35325e-20)
(1.23849 0.0169894 -2.49305e-20)
(1.23799 0.0195397 2.39047e-20)
(1.23735 0.0221908 -1.80287e-20)
(1.23661 0.0249181 -4.17927e-20)
(1.23571 0.0277281 -4.14183e-20)
(1.23469 0.0305189 7.59032e-21)
(1.23885 0.0173904 2.91898e-20)
(1.23834 0.0199866 -1.35586e-20)
(1.23768 0.0226841 4.87457e-20)
(1.23692 0.0254575 1.0851e-20)
(1.236 0.0283265 2.78548e-20)
(1.23495 0.0311844 -1.15414e-20)
(1.2392 0.017793 -3.60954e-20)
(1.23867 0.0204346 -9.53938e-21)
(1.23799 0.0231772 -4.13184e-20)
(1.23721 0.0259951 4.05828e-20)
(1.23627 0.028922 1.86319e-20)
(1.23518 0.031846 1.25458e-20)
(1.23953 0.0181975 6.22755e-20)
(1.23899 0.0208839 4.3952e-20)
(1.23829 0.02367 -9.48525e-21)
(1.23749 0.0265308 -1.72351e-20)
(1.23652 0.029514 8.74033e-21)
(1.2354 0.032503 -1.99392e-20)
(1.23986 0.018604 -1.64107e-20)
(1.23931 0.0213345 -3.76562e-20)
(1.23858 0.0241627 -1.6085e-20)
(1.23775 0.0270645 9.49504e-21)
(1.23675 0.0301018 -8.75815e-21)
(1.23559 0.0331545 -6.59546e-21)
(1.24019 0.0190125 -2.67523e-20)
(1.23961 0.0217867 4.43996e-20)
(1.23885 0.0246552 5.79821e-20)
(1.238 0.0275964 2.18337e-20)
(1.23695 0.0306847 -3.87455e-20)
(1.23576 0.0337997 -7.11434e-21)
(1.2405 0.0194231 -2.15746e-20)
(1.23989 0.0222404 -1.32001e-20)
(1.23911 0.0251477 -3.94189e-20)
(1.23822 0.0281266 -5.96452e-21)
(1.23713 0.0312614 3.01841e-20)
(1.2408 0.0198361 4.82079e-20)
(1.24017 0.0226959 -5.43548e-21)
(1.23935 0.0256404 3.31049e-20)
(1.23843 0.0286551 -5.18233e-20)
(1.23728 0.0318309 -5.43813e-20)
(1.24109 0.0202516 -2.87918e-20)
(1.24043 0.0231533 -8.62508e-21)
(1.23957 0.0261334 -6.39788e-20)
(1.23861 0.029182 5.92827e-20)
(1.24137 0.0206696 1.51263e-22)
(1.24068 0.0236128 -2.01553e-20)
(1.23978 0.0266271 2.70747e-20)
(1.23877 0.0297076 -7.29346e-20)
(1.24164 0.0210905 -2.68878e-20)
(1.24091 0.0240745 4.14447e-21)
(1.23996 0.0271218 2.58217e-20)
(1.2419 0.0215144 -1.60145e-21)
(1.24113 0.0245388 2.60579e-20)
(1.24013 0.0276181 -1.29944e-20)
(1.24215 0.021941 5.06967e-20)
(1.24133 0.0250055 1.21723e-20)
(1.24029 0.0281163 -2.00633e-20)
(1.24239 0.0223701 1.1663e-20)
(1.24152 0.0254741 -2.15405e-20)
(1.24261 0.0228043 6.30691e-21)
(1.2417 0.0259471 -1.83292e-20)
(1.24282 0.023249 -1.51547e-20)
(1.24302 0.023691 -1.63178e-20)
(1.21789 0.000413696 0)
(1.21647 0.000441054 0)
(1.21495 0.000467757 0)
(1.21331 0.00049409 0)
(1.21157 0.000520045 0)
(1.2097 0.000545602 0)
(1.20772 0.000570732 0)
(1.20563 0.000595392 0)
(1.20341 0.000619536 0)
(1.20108 0.000643108 0)
(1.19862 0.000666052 0)
(1.19604 0.000688309 0)
(1.19335 0.000709817 0)
(1.19053 0.000730511 0)
(1.18759 0.000750326 0)
(1.18454 0.000769196 0)
(1.18136 0.000787052 0)
(1.17807 0.000803826 0)
(1.17467 0.000819449 0)
(1.17115 0.000833851 0)
(1.16752 0.000846962 0)
(1.16379 0.000858712 0)
(1.15996 0.000869033 0)
(1.15603 0.000877856 0)
(1.152 0.000885115 0)
(1.14789 0.000890746 0)
(1.1437 0.000894687 0)
(1.13944 0.000896882 0)
(1.13511 0.00089728 0)
(1.13072 0.000895835 0)
(1.12628 0.00089251 0)
(1.1218 0.000887275 0)
(1.11729 0.000880113 0)
(1.11276 0.000871017 0)
(1.10821 0.000859993 0)
(1.10367 0.000847061 0)
(1.09914 0.000832257 0)
(1.09463 0.000815634 0)
(1.09015 0.000797259 0)
(1.08572 0.000777218 0)
(1.08134 0.000755614 0)
(1.07703 0.000732566 0)
(1.0728 0.000708208 0)
(1.06866 0.000682689 0)
(1.06462 0.000656168 0)
(1.06069 0.000628818 0)
(1.05687 0.000600814 0)
(1.05318 0.00057234 0)
(1.04961 0.000543579 0)
(1.21793 0.00123737 0)
(1.21651 0.00131862 0)
(1.21499 0.00139827 0)
(1.21335 0.00147691 0)
(1.2116 0.00155445 0)
(1.20974 0.00163082 0)
(1.20776 0.00170591 0)
(1.20566 0.00177961 0)
(1.20344 0.00185176 0)
(1.2011 0.0019222 0)
(1.19865 0.00199078 0)
(1.19607 0.00205729 0)
(1.19337 0.00212157 0)
(1.19055 0.00218342 0)
(1.18761 0.00224264 0)
(1.18456 0.00229903 0)
(1.18138 0.00235239 0)
(1.17809 0.00240252 0)
(1.17468 0.00244921 0)
(1.17116 0.00249225 0)
(1.16753 0.00253142 0)
(1.1638 0.00256654 0)
(1.15996 0.00259737 0)
(1.15603 0.00262373 0)
(1.15201 0.00264542 0)
(1.14789 0.00266223 0)
(1.1437 0.002674 0)
(1.13944 0.00268055 0)
(1.13511 0.00268172 0)
(1.13072 0.00267739 0)
(1.12627 0.00266743 0)
(1.12179 0.00265177 0)
(1.11728 0.00263035 0)
(1.11275 0.00260314 0)
(1.1082 0.00257018 0)
(1.10366 0.00253151 0)
(1.09912 0.00248725 0)
(1.09461 0.00243755 0)
(1.09013 0.00238261 0)
(1.0857 0.0023227 0)
(1.08132 0.00225812 0)
(1.07701 0.00218922 0)
(1.07278 0.00211641 0)
(1.06864 0.00204012 0)
(1.0646 0.00196085 0)
(1.06067 0.0018791 0)
(1.05685 0.0017954 0)
(1.05316 0.00171029 0)
(1.04959 0.00162433 0)
(1.21801 0.00205339 0)
(1.21659 0.00218741 0)
(1.21506 0.00231916 0)
(1.21342 0.0024494 0)
(1.21167 0.00257787 0)
(1.2098 0.00270443 0)
(1.20782 0.0028289 0)
(1.20572 0.00295107 0)
(1.2035 0.00307068 0)
(1.20116 0.00318747 0)
(1.1987 0.00330116 0)
(1.19612 0.00341144 0)
(1.19342 0.003518 0)
(1.1906 0.00362054 0)
(1.18766 0.00371872 0)
(1.18459 0.00381221 0)
(1.18141 0.00390068 0)
(1.17812 0.00398378 0)
(1.17471 0.00406118 0)
(1.17119 0.00413252 0)
(1.16755 0.00419746 0)
(1.16382 0.00425565 0)
(1.15998 0.00430675 0)
(1.15604 0.00435043 0)
(1.15201 0.00438634 0)
(1.1479 0.00441419 0)
(1.1437 0.00443366 0)
(1.13943 0.00444447 0)
(1.1351 0.00444637 0)
(1.1307 0.00443913 0)
(1.12626 0.00442258 0)
(1.12178 0.00439655 0)
(1.11726 0.00436098 0)
(1.11272 0.00431582 0)
(1.10817 0.0042611 0)
(1.10363 0.00419693 0)
(1.09909 0.00412348 0)
(1.09458 0.00404102 0)
(1.0901 0.00394988 0)
(1.08566 0.00385049 0)
(1.08128 0.00374336 0)
(1.07697 0.00362908 0)
(1.07274 0.00350831 0)
(1.0686 0.0033818 0)
(1.06456 0.00325033 0)
(1.06063 0.00311475 0)
(1.05681 0.00297594 0)
(1.05312 0.00283482 0)
(1.04956 0.00269228 0)
(1.21813 0.00286225 0)
(1.2167 0.0030481 0)
(1.21517 0.00323116 0)
(1.21353 0.00341229 0)
(1.21177 0.00359105 0)
(1.2099 0.0037672 0)
(1.20791 0.00394048 0)
(1.20581 0.00411057 0)
(1.20358 0.00427711 0)
(1.20124 0.00443973 0)
(1.19878 0.00459804 0)
(1.19619 0.0047516 0)
(1.19349 0.0049 0)
(1.19066 0.00504278 0)
(1.18772 0.0051795 0)
(1.18465 0.00530968 0)
(1.18147 0.00543287 0)
(1.17816 0.00554857 0)
(1.17475 0.00565633 0)
(1.17122 0.00575564 0)
(1.16758 0.00584604 0)
(1.16384 0.00592703 0)
(1.16 0.00599814 0)
(1.15605 0.0060589 0)
(1.15202 0.00610885 0)
(1.1479 0.00614755 0)
(1.1437 0.00617458 0)
(1.13942 0.00618955 0)
(1.13508 0.0061921 0)
(1.13069 0.00618192 0)
(1.12624 0.00615875 0)
(1.12175 0.0061224 0)
(1.11723 0.00607275 0)
(1.11269 0.00600974 0)
(1.10814 0.00593342 0)
(1.10358 0.00584393 0)
(1.09904 0.00574154 0)
(1.09453 0.00562658 0)
(1.09004 0.00549955 0)
(1.08561 0.00536103 0)
(1.08123 0.00521173 0)
(1.07692 0.00505249 0)
(1.07268 0.00488421 0)
(1.06854 0.00470795 0)
(1.0645 0.00452479 0)
(1.06057 0.00433592 0)
(1.05675 0.00414258 0)
(1.05306 0.00394601 0)
(1.0495 0.00374749 0)
(1.21828 0.00366436 0)
(1.21685 0.00390125 0)
(1.21531 0.0041349 0)
(1.21366 0.00436626 0)
(1.2119 0.0045947 0)
(1.21003 0.00481986 0)
(1.20803 0.00504139 0)
(1.20593 0.00525886 0)
(1.2037 0.00547182 0)
(1.20135 0.00567978 0)
(1.19888 0.00588223 0)
(1.19629 0.00607862 0)
(1.19358 0.0062684 0)
(1.19075 0.00645101 0)
(1.18779 0.00662585 0)
(1.18472 0.00679233 0)
(1.18153 0.00694985 0)
(1.17822 0.0070978 0)
(1.1748 0.00723557 0)
(1.17127 0.00736254 0)
(1.16762 0.00747808 0)
(1.16387 0.00758159 0)
(1.16002 0.00767245 0)
(1.15607 0.00775006 0)
(1.15203 0.00781383 0)
(1.1479 0.0078632 0)
(1.1437 0.00789763 0)
(1.13941 0.00791662 0)
(1.13507 0.00791972 0)
(1.13066 0.00790653 0)
(1.12621 0.00787673 0)
(1.12171 0.00783005 0)
(1.11719 0.00776635 0)
(1.11264 0.00768556 0)
(1.10808 0.00758775 0)
(1.10353 0.00747311 0)
(1.09898 0.00734194 0)
(1.09446 0.00719472 0)
(1.08998 0.00703205 0)
(1.08554 0.00685471 0)
(1.08115 0.00666359 0)
(1.07684 0.00645975 0)
(1.07261 0.00624438 0)
(1.06846 0.0060188 0)
(1.06442 0.00578443 0)
(1.06049 0.00554277 0)
(1.05667 0.0052954 0)
(1.05298 0.00504393 0)
(1.04942 0.00478998 0)
(1.21846 0.00446009 0)
(1.21702 0.00474734 0)
(1.21548 0.00503094 0)
(1.21383 0.00531192 0)
(1.21206 0.00558943 0)
(1.21018 0.00586304 0)
(1.20818 0.00613229 0)
(1.20607 0.00639664 0)
(1.20383 0.00665553 0)
(1.20148 0.00690836 0)
(1.199 0.0071545 0)
(1.19641 0.00739328 0)
(1.19369 0.00762402 0)
(1.19085 0.00784604 0)
(1.18789 0.0080586 0)
(1.18481 0.008261 0)
(1.18161 0.0084525 0)
(1.17829 0.00863234 0)
(1.17486 0.00879979 0)
(1.17132 0.00895409 0)
(1.16767 0.00909448 0)
(1.16391 0.00922022 0)
(1.16005 0.00933056 0)
(1.15609 0.00942477 0)
(1.15204 0.00950214 0)
(1.14791 0.00956197 0)
(1.14369 0.00960363 0)
(1.1394 0.0096265 0)
(1.13504 0.00963002 0)
(1.13063 0.00961373 0)
(1.12617 0.00957722 0)
(1.12167 0.00952019 0)
(1.11713 0.00944244 0)
(1.11258 0.00934391 0)
(1.10802 0.00922469 0)
(1.10346 0.00908498 0)
(1.09891 0.0089252 0)
(1.09438 0.00874589 0)
(1.08989 0.00854782 0)
(1.08545 0.0083319 0)
(1.08106 0.00809926 0)
(1.07675 0.00785116 0)
(1.07251 0.00758907 0)
(1.06837 0.00731458 0)
(1.06433 0.00702942 0)
(1.06039 0.00673543 0)
(1.05658 0.00643453 0)
(1.05289 0.00612866 0)
(1.04933 0.00581981 0)
(1.21867 0.00524978 0)
(1.21723 0.00558679 0)
(1.21568 0.00591977 0)
(1.21402 0.00624979 0)
(1.21225 0.00657583 0)
(1.21036 0.00689736 0)
(1.20836 0.00721382 0)
(1.20624 0.00752456 0)
(1.20399 0.00782892 0)
(1.20163 0.00812617 0)
(1.19915 0.00841555 0)
(1.19654 0.0086963 0)
(1.19382 0.0089676 0)
(1.19097 0.00922864 0)
(1.188 0.00947855 0)
(1.18491 0.0097165 0)
(1.1817 0.00994161 0)
(1.17838 0.010153 0)
(1.17494 0.0103498 0)
(1.17138 0.0105311 0)
(1.16772 0.010696 0)
(1.16395 0.0108437 0)
(1.16008 0.0109733 0)
(1.15611 0.0110838 0)
(1.15205 0.0111746 0)
(1.14791 0.0112447 0)
(1.14368 0.0112933 0)
(1.13938 0.0113199 0)
(1.13502 0.0113237 0)
(1.13059 0.0113042 0)
(1.12612 0.0112609 0)
(1.12161 0.0111934 0)
(1.11707 0.0111016 0)
(1.11251 0.0109854 0)
(1.10794 0.0108448 0)
(1.10337 0.0106801 0)
(1.09882 0.0104918 0)
(1.09429 0.0102805 0)
(1.08979 0.0100472 0)
(1.08534 0.00979297 0)
(1.08096 0.00951906 0)
(1.07664 0.009227 0)
(1.0724 0.00891851 0)
(1.06826 0.00859547 0)
(1.06421 0.00825993 0)
(1.06028 0.00791404 0)
(1.05647 0.00756005 0)
(1.05278 0.00720028 0)
(1.04922 0.00683703 0)
(1.21892 0.00603378 0)
(1.21746 0.00641999 0)
(1.21591 0.00680181 0)
(1.21424 0.00718035 0)
(1.21246 0.00755441 0)
(1.21057 0.00792336 0)
(1.20856 0.00828655 0)
(1.20643 0.00864323 0)
(1.20418 0.00899261 0)
(1.2018 0.00933385 0)
(1.19931 0.00966608 0)
(1.1967 0.0099884 0)
(1.19396 0.0102999 0)
(1.1911 0.0105995 0)
(1.18812 0.0108864 0)
(1.18502 0.0111596 0)
(1.1818 0.011418 0)
(1.17847 0.0116606 0)
(1.17502 0.0118864 0)
(1.17145 0.0120944 0)
(1.16778 0.0122836 0)
(1.164 0.0124529 0)
(1.16011 0.0126014 0)
(1.15614 0.012728 0)
(1.15206 0.0128319 0)
(1.14791 0.012912 0)
(1.14367 0.0129675 0)
(1.13936 0.0129976 0)
(1.13498 0.0130015 0)
(1.13055 0.0129786 0)
(1.12607 0.0129284 0)
(1.12155 0.0128504 0)
(1.117 0.0127445 0)
(1.11243 0.0126105 0)
(1.10785 0.0124485 0)
(1.10327 0.0122588 0)
(1.09871 0.0120421 0)
(1.09418 0.011799 0)
(1.08968 0.0115307 0)
(1.08522 0.0112382 0)
(1.08083 0.0109233 0)
(1.07651 0.0105875 0)
(1.07227 0.0102329 0)
(1.06813 0.00986168 0)
(1.06408 0.00947611 0)
(1.06015 0.00907871 0)
(1.05634 0.00867207 0)
(1.05265 0.00825884 0)
(1.0491 0.00784167 0)
(1.21919 0.00681242 0)
(1.21772 0.00724731 0)
(1.21616 0.00767749 0)
(1.21449 0.00810406 0)
(1.2127 0.00852565 0)
(1.2108 0.00894156 0)
(1.20878 0.00935104 0)
(1.20664 0.00975322 0)
(1.20438 0.0101472 0)
(1.202 0.010532 0)
(1.19949 0.0109067 0)
(1.19687 0.0112702 0)
(1.19412 0.0116215 0)
(1.19125 0.0119594 0)
(1.18826 0.012283 0)
(1.18515 0.0125909 0)
(1.18192 0.0128823 0)
(1.17857 0.0131557 0)
(1.1751 0.0134103 0)
(1.17153 0.0136446 0)
(1.16784 0.0138578 0)
(1.16405 0.0140484 0)
(1.16015 0.0142156 0)
(1.15616 0.014358 0)
(1.15207 0.0144747 0)
(1.1479 0.0145646 0)
(1.14365 0.0146267 0)
(1.13933 0.0146601 0)
(1.13494 0.0146639 0)
(1.1305 0.0146375 0)
(1.126 0.0145803 0)
(1.12147 0.0144917 0)
(1.11691 0.0143715 0)
(1.11233 0.0142197 0)
(1.10775 0.0140363 0)
(1.10316 0.0138217 0)
(1.09859 0.0135766 0)
(1.09405 0.0133018 0)
(1.08954 0.0129984 0)
(1.08509 0.012668 0)
(1.08069 0.0123122 0)
(1.07637 0.011933 0)
(1.07213 0.0115325 0)
(1.06798 0.0111134 0)
(1.06393 0.0106781 0)
(1.06 0.0102296 0)
(1.05619 0.00977068 0)
(1.05251 0.00930441 0)
(1.04896 0.00883378 0)
(1.21948 0.00758603 0)
(1.21801 0.0080691 0)
(1.21644 0.00854719 0)
(1.21475 0.00902133 0)
(1.21296 0.00949 0)
(1.21105 0.00995243 0)
(1.20902 0.0104078 0)
(1.20687 0.0108551 0)
(1.2046 0.0112932 0)
(1.20221 0.0117213 0)
(1.19969 0.012138 0)
(1.19706 0.0125424 0)
(1.1943 0.0129331 0)
(1.19141 0.013309 0)
(1.18841 0.0136688 0)
(1.18529 0.0140113 0)
(1.18204 0.0143352 0)
(1.17868 0.0146392 0)
(1.1752 0.0149221 0)
(1.17161 0.0151826 0)
(1.1679 0.0154193 0)
(1.1641 0.0156311 0)
(1.16019 0.0158165 0)
(1.15618 0.0159745 0)
(1.15208 0.0161038 0)
(1.1479 0.0162032 0)
(1.14363 0.0162716 0)
(1.13929 0.0163081 0)
(1.13489 0.0163117 0)
(1.13044 0.0162816 0)
(1.12593 0.0162171 0)
(1.12139 0.0161177 0)
(1.11682 0.0159832 0)
(1.11223 0.0158135 0)
(1.10763 0.0156086 0)
(1.10304 0.0153691 0)
(1.09846 0.0150956 0)
(1.09391 0.0147891 0)
(1.0894 0.0144509 0)
(1.08494 0.0140826 0)
(1.08053 0.013686 0)
(1.07621 0.0132635 0)
(1.07196 0.0128175 0)
(1.06782 0.0123507 0)
(1.06377 0.0118661 0)
(1.05984 0.0113667 0)
(1.05603 0.010856 0)
(1.05235 0.0103371 0)
(1.0488 0.0098134 0)
(1.2198 0.00835493 0)
(1.21831 0.0088857 0)
(1.21673 0.00941127 0)
(1.21504 0.00993255 0)
(1.21324 0.0104479 0)
(1.21131 0.0109564 0)
(1.20927 0.0114572 0)
(1.20711 0.0119492 0)
(1.20483 0.0124313 0)
(1.20243 0.0129022 0)
(1.1999 0.0133607 0)
(1.19726 0.0138055 0)
(1.19448 0.0142353 0)
(1.19159 0.0146488 0)
(1.18857 0.0150446 0)
(1.18543 0.0154213 0)
(1.18217 0.0157775 0)
(1.17879 0.0161117 0)
(1.1753 0.0164227 0)
(1.17169 0.0167089 0)
(1.16797 0.0169689 0)
(1.16415 0.0172014 0)
(1.16022 0.0174049 0)
(1.1562 0.0175781 0)
(1.15208 0.0177197 0)
(1.14788 0.0178283 0)
(1.1436 0.0179029 0)
(1.13925 0.0179422 0)
(1.13484 0.0179452 0)
(1.13037 0.0179112 0)
(1.12585 0.0178393 0)
(1.12129 0.017729 0)
(1.11671 0.01758 0)
(1.11211 0.0173923 0)
(1.1075 0.0171659 0)
(1.1029 0.0169014 0)
(1.09831 0.0165995 0)
(1.09375 0.0162613 0)
(1.08923 0.0158883 0)
(1.08477 0.0154821 0)
(1.08036 0.015045 0)
(1.07603 0.0145794 0)
(1.07179 0.014088 0)
(1.06764 0.0135738 0)
(1.06359 0.0130401 0)
(1.05966 0.0124903 0)
(1.05585 0.011928 0)
(1.05217 0.0113568 0)
(1.04863 0.0107806 0)
(1.22014 0.00911943 0)
(1.21864 0.00969745 0)
(1.21705 0.0102701 0)
(1.21535 0.0108381 0)
(1.21353 0.0113997 0)
(1.2116 0.011954 0)
(1.20955 0.0124999 0)
(1.20738 0.0130363 0)
(1.20508 0.0135618 0)
(1.20267 0.0140752 0)
(1.20013 0.0145751 0)
(1.19747 0.0150601 0)
(1.19468 0.0155288 0)
(1.19177 0.0159795 0)
(1.18874 0.016411 0)
(1.18558 0.0168215 0)
(1.1823 0.0172096 0)
(1.17891 0.0175738 0)
(1.1754 0.0179125 0)
(1.17177 0.0182241 0)
(1.16804 0.0185071 0)
(1.1642 0.01876 0)
(1.16026 0.0189813 0)
(1.15622 0.0191694 0)
(1.15208 0.019323 0)
(1.14787 0.0194406 0)
(1.14357 0.0195209 0)
(1.1392 0.0195628 0)
(1.13477 0.0195651 0)
(1.13028 0.0195269 0)
(1.12575 0.0194474 0)
(1.12118 0.019326 0)
(1.11659 0.0191624 0)
(1.11197 0.0189565 0)
(1.10735 0.0187085 0)
(1.10274 0.0184189 0)
(1.09815 0.0180885 0)
(1.09358 0.0177186 0)
(1.08905 0.0173108 0)
(1.08458 0.016867 0)
(1.08017 0.0163894 0)
(1.07584 0.0158808 0)
(1.07159 0.0153442 0)
(1.06744 0.0147828 0)
(1.06339 0.0142003 0)
(1.05946 0.0136003 0)
(1.05566 0.0129868 0)
(1.05198 0.0123638 0)
(1.04844 0.0117353 0)
(1.22049 0.00987984 0)
(1.21899 0.0105046 0)
(1.21739 0.0111239 0)
(1.21568 0.0117383 0)
(1.21385 0.0123458 0)
(1.2119 0.0129455 0)
(1.20984 0.0135361 0)
(1.20766 0.0141166 0)
(1.20535 0.0146853 0)
(1.20292 0.0152409 0)
(1.20037 0.015782 0)
(1.19769 0.0163068 0)
(1.19489 0.016814 0)
(1.19196 0.0173017 0)
(1.18891 0.0177685 0)
(1.18574 0.0182125 0)
(1.18244 0.0186323 0)
(1.17903 0.0190261 0)
(1.1755 0.0193922 0)
(1.17186 0.0197289 0)
(1.16811 0.0200346 0)
(1.16425 0.0203075 0)
(1.16029 0.0205462 0)
(1.15623 0.0207489 0)
(1.15208 0.0209142 0)
(1.14784 0.0210404 0)
(1.14353 0.0211263 0)
(1.13914 0.0211704 0)
(1.1347 0.0211717 0)
(1.13019 0.0211291 0)
(1.12565 0.0210417 0)
(1.12106 0.020909 0)
(1.11645 0.0207306 0)
(1.11183 0.0205064 0)
(1.1072 0.0202366 0)
(1.10257 0.0199218 0)
(1.09797 0.019563 0)
(1.09339 0.0191614 0)
(1.08886 0.0187188 0)
(1.08438 0.0182372 0)
(1.07997 0.0177193 0)
(1.07563 0.0171679 0)
(1.07138 0.0165862 0)
(1.06723 0.0159779 0)
(1.06318 0.0153468 0)
(1.05925 0.0146969 0)
(1.05545 0.0140325 0)
(1.05178 0.013358 0)
(1.04824 0.0126777 0)
(1.22087 0.0106365 0)
(1.21935 0.0113076 0)
(1.21774 0.0119732 0)
(1.21602 0.0126335 0)
(1.21418 0.0132865 0)
(1.21222 0.0139313 0)
(1.21015 0.0145664 0)
(1.20795 0.0151906 0)
(1.20563 0.0158022 0)
(1.20318 0.0163998 0)
(1.20061 0.0169817 0)
(1.19792 0.0175461 0)
(1.1951 0.0180914 0)
(1.19216 0.0186159 0)
(1.18909 0.0191177 0)
(1.1859 0.019595 0)
(1.18259 0.0200461 0)
(1.17915 0.0204691 0)
(1.17561 0.0208622 0)
(1.17194 0.0212237 0)
(1.16817 0.0215517 0)
(1.16429 0.0218445 0)
(1.16031 0.0221002 0)
(1.15623 0.0223172 0)
(1.15206 0.0224938 0)
(1.14781 0.0226283 0)
(1.14348 0.0227194 0)
(1.13907 0.0227655 0)
(1.13461 0.0227655 0)
(1.13009 0.0227182 0)
(1.12553 0.0226227 0)
(1.12093 0.0224785 0)
(1.1163 0.022285 0)
(1.11166 0.0220423 0)
(1.10702 0.0217506 0)
(1.10239 0.0214105 0)
(1.09777 0.0210231 0)
(1.09319 0.0205898 0)
(1.08865 0.0201123 0)
(1.08416 0.0195932 0)
(1.07975 0.0190349 0)
(1.0754 0.0184408 0)
(1.07115 0.0178142 0)
(1.067 0.0171591 0)
(1.06295 0.0164796 0)
(1.05903 0.0157801 0)
(1.05523 0.0150652 0)
(1.05156 0.0143395 0)
(1.04803 0.0136077 0)
(1.22126 0.0113896 0)
(1.21973 0.0121066 0)
(1.21811 0.0128181 0)
(1.21637 0.0135241 0)
(1.21452 0.0142223 0)
(1.21255 0.0149118 0)
(1.21046 0.0155911 0)
(1.20825 0.0162588 0)
(1.20592 0.016913 0)
(1.20346 0.0175523 0)
(1.20087 0.0181747 0)
(1.19816 0.0187785 0)
(1.19532 0.0193617 0)
(1.19236 0.0199226 0)
(1.18927 0.0204591 0)
(1.18606 0.0209694 0)
(1.18273 0.0214514 0)
(1.17928 0.0219034 0)
(1.17571 0.0223233 0)
(1.17203 0.0227092 0)
(1.16823 0.0230591 0)
(1.16433 0.0233713 0)
(1.16033 0.0236437 0)
(1.15623 0.0238746 0)
(1.15204 0.0240622 0)
(1.14777 0.0242048 0)
(1.14342 0.0243007 0)
(1.139 0.0243485 0)
(1.13451 0.0243468 0)
(1.12997 0.0242945 0)
(1.12539 0.0241907 0)
(1.12078 0.0240347 0)
(1.11614 0.023826 0)
(1.11149 0.0235646 0)
(1.10683 0.0232508 0)
(1.10219 0.0228853 0)
(1.09756 0.0224691 0)
(1.09297 0.022004 0)
(1.08842 0.0214917 0)
(1.08393 0.0209349 0)
(1.07951 0.0203364 0)
(1.07516 0.0196996 0)
(1.07091 0.0190282 0)
(1.06676 0.0183265 0)
(1.06271 0.0175989 0)
(1.05879 0.01685 0)
(1.05499 0.0160848 0)
(1.05132 0.0153083 0)
(1.0478 0.0145254 0)
(1.22167 0.0121394 0)
(1.22012 0.0129019 0)
(1.21849 0.013659 0)
(1.21674 0.0144102 0)
(1.21488 0.0151534 0)
(1.2129 0.0158874 0)
(1.21079 0.0166106 0)
(1.20856 0.0173215 0)
(1.20621 0.0180182 0)
(1.20374 0.0186989 0)
(1.20113 0.0193616 0)
(1.1984 0.0200045 0)
(1.19555 0.0206254 0)
(1.19257 0.0212223 0)
(1.18946 0.0217933 0)
(1.18623 0.0223362 0)
(1.18287 0.0228489 0)
(1.1794 0.0233295 0)
(1.17581 0.0237757 0)
(1.1721 0.0241857 0)
(1.16829 0.0245572 0)
(1.16437 0.0248884 0)
(1.16034 0.0251772 0)
(1.15622 0.0254217 0)
(1.15201 0.0256199 0)
(1.14772 0.0257701 0)
(1.14335 0.0258705 0)
(1.1389 0.0259196 0)
(1.1344 0.025916 0)
(1.12985 0.0258584 0)
(1.12525 0.025746 0)
(1.12062 0.0255778 0)
(1.11596 0.0253537 0)
(1.1113 0.0250734 0)
(1.10663 0.0247373 0)
(1.10197 0.0243462 0)
(1.09734 0.0239013 0)
(1.09273 0.0234041 0)
(1.08818 0.022857 0)
(1.08368 0.0222625 0)
(1.07925 0.0216238 0)
(1.07491 0.0209444 0)
(1.07065 0.0202284 0)
(1.0665 0.0194803 0)
(1.06245 0.0187047 0)
(1.05853 0.0179067 0)
(1.05474 0.0170915 0)
(1.05108 0.0162645 0)
(1.04756 0.0154308 0)
(1.22209 0.0128863 0)
(1.22052 0.0136938 0)
(1.21888 0.0144961 0)
(1.21712 0.0152924 0)
(1.21525 0.0160802 0)
(1.21325 0.0168584 0)
(1.21113 0.0176253 0)
(1.20889 0.0183792 0)
(1.20652 0.0191181 0)
(1.20402 0.01984 0)
(1.2014 0.0205428 0)
(1.19865 0.0212245 0)
(1.19578 0.0218828 0)
(1.19277 0.0225156 0)
(1.18964 0.0231207 0)
(1.18639 0.0236959 0)
(1.18301 0.024239 0)
(1.17952 0.0247478 0)
(1.1759 0.0252201 0)
(1.17218 0.0256537 0)
(1.16834 0.0260465 0)
(1.16439 0.0263963 0)
(1.16035 0.0267011 0)
(1.1562 0.0269587 0)
(1.15197 0.0271671 0)
(1.14765 0.0273246 0)
(1.14326 0.0274292 0)
(1.1388 0.0274793 0)
(1.13428 0.0274734 0)
(1.1297 0.0274102 0)
(1.12509 0.0272888 0)
(1.12044 0.0271083 0)
(1.11577 0.0268683 0)
(1.11109 0.0265689 0)
(1.10641 0.0262104 0)
(1.10174 0.0257935 0)
(1.09709 0.0253196 0)
(1.09248 0.0247905 0)
(1.08792 0.0242084 0)
(1.08342 0.0235762 0)
(1.07899 0.0228973 0)
(1.07463 0.0221754 0)
(1.07038 0.0214149 0)
(1.06622 0.0206204 0)
(1.06218 0.0197971 0)
(1.05826 0.0189502 0)
(1.05447 0.0180853 0)
(1.05082 0.017208 0)
(1.0473 0.016324 0)
(1.22252 0.0136304 0)
(1.22094 0.0144826 0)
(1.21928 0.0153298 0)
(1.21751 0.0161707 0)
(1.21562 0.0170029 0)
(1.21361 0.0178251 0)
(1.21147 0.0186356 0)
(1.20921 0.0194323 0)
(1.20683 0.0202131 0)
(1.20431 0.0209761 0)
(1.20167 0.0217188 0)
(1.1989 0.022439 0)
(1.196 0.0231345 0)
(1.19298 0.0238029 0)
(1.18983 0.0244418 0)
(1.18655 0.025049 0)
(1.18315 0.0256221 0)
(1.17963 0.0261588 0)
(1.17599 0.0266567 0)
(1.17224 0.0271137 0)
(1.16838 0.0275273 0)
(1.16441 0.0278954 0)
(1.16034 0.0282157 0)
(1.15617 0.028486 0)
(1.15192 0.0287044 0)
(1.14758 0.0288686 0)
(1.14316 0.028977 0)
(1.13868 0.0290277 0)
(1.13414 0.0290191 0)
(1.12955 0.02895 0)
(1.12491 0.0288193 0)
(1.12025 0.0286262 0)
(1.11556 0.0283702 0)
(1.11087 0.0280514 0)
(1.10617 0.0276701 0)
(1.10149 0.0272273 0)
(1.09683 0.0267243 0)
(1.09222 0.026163 0)
(1.08765 0.025546 0)
(1.08314 0.0248761 0)
(1.0787 0.0241569 0)
(1.07435 0.0233926 0)
(1.07009 0.0225876 0)
(1.06593 0.021747 0)
(1.06189 0.0208761 0)
(1.05798 0.0199805 0)
(1.05419 0.0190661 0)
(1.05054 0.018139 0)
(1.04704 0.0172049 0)
(1.22297 0.014372 0)
(1.22137 0.0152684 0)
(1.2197 0.0161602 0)
(1.21791 0.0170456 0)
(1.216 0.0179219 0)
(1.21398 0.018788 0)
(1.21182 0.0196417 0)
(1.20955 0.0204811 0)
(1.20714 0.0213038 0)
(1.20461 0.0221076 0)
(1.20194 0.02289 0)
(1.19915 0.0236486 0)
(1.19623 0.024381 0)
(1.19318 0.0250846 0)