/*--------------------------------*- C++ -*----------------------------------*\
  =========                 |
  \\      /  F ield         | OpenFOAM: The Open Source CFD Toolbox
   \\    /   O peration     | Website:  https://openfoam.org
    \\  /    A nd           | Version:  7
     \\/     M anipulation  |
\*---------------------------------------------------------------------------*/
FoamFile
{
    version     2.0;
    format      ascii;
    class       volScalarField;
    location    "20";
    object      p;
}
// * * * * * * * * * * * * * * * * * * * * * * * * * * * * * * * * * * * * * //

dimensions      [0 2 -2 0 0 0 0];

internalField   nonuniform List<scalar> 
2625
(
0.0634365
0.0580022
0.052573
0.0471568
0.0417618
0.036396
0.0310673
0.0257824
0.0205505
0.0153786
0.0102737
0.00524239
0.00029107
-0.00457424
-0.00934793
-0.0140248
-0.0186002
-0.0230698
0.0885313
0.0840644
0.0795536
0.0750052
0.0704254
0.0658208
0.0611983
0.0565647
0.0519272
0.0472929
0.042669
0.0380628
0.0334815
0.0289323
0.0244227
0.0886239
0.084153
0.0796376
0.0750838
0.070498
0.0658867
0.061257
0.0566159
0.0519706
0.0473284
0.0426967
0.0380829
0.0334945
0.0289386
0.0244228
0.088774
0.0842967
0.0797738
0.0752117
0.0706166
0.0659954
0.0613551
0.0567027
0.0520456
0.0473912
0.0427471
0.0381208
0.0335198
0.0289514
0.0244233
0.0889174
0.0844335
0.0799033
0.075333
0.070729
0.0660983
0.0614477
0.0567846
0.0521163
0.0474503
0.0427942
0.0381557
0.0335423
0.0289616
0.0244212
0.0890527
0.0845623
0.0800248
0.0754465
0.0708339
0.0661939
0.0615335
0.05686
0.0521809
0.0475037
0.0428362
0.038186
0.0335609
0.0289684
0.0244162
0.0891863
0.0846892
0.0801442
0.0755578
0.0709364
0.066287
0.0616167
0.0569328
0.0522428
0.0475545
0.0428755
0.0382137
0.0335768
0.0289726
0.0244087
0.0893194
0.0848153
0.0802627
0.075668
0.0710377
0.0663787
0.0616983
0.0570039
0.052303
0.0476033
0.0429129
0.0382393
0.0335906
0.0289745
0.0243989
0.0894516
0.0849403
0.0803799
0.0757767
0.0711373
0.0664687
0.0617781
0.0570731
0.0523612
0.0476502
0.0429482
0.0382628
0.0336023
0.0289743
0.0243868
0.0895828
0.0850641
0.0804957
0.0758838
0.0712352
0.0665569
0.0618561
0.0571404
0.0524175
0.0476951
0.0429814
0.0382843
0.0336118
0.0289719
0.0243725
0.089713
0.0851867
0.08061
0.0759894
0.0713315
0.0666434
0.0619323
0.0572059
0.0524718
0.0477381
0.0430127
0.0383038
0.0336194
0.0289674
0.0243561
0.0898421
0.0853081
0.0807231
0.0760936
0.0714263
0.0667282
0.0620068
0.0572696
0.0525244
0.0477792
0.0430422
0.0383213
0.033625
0.028961
0.0243377
0.0899703
0.0854283
0.0808349
0.0761963
0.0715195
0.0668115
0.0620796
0.0573315
0.0525752
0.0478185
0.0430698
0.038337
0.0336287
0.0289527
0.0243174
0.0900976
0.0855475
0.0809454
0.0762977
0.0716113
0.0668932
0.0621508
0.0573918
0.0526243
0.0478561
0.0430956
0.038351
0.0336306
0.0289425
0.0242952
0.090224
0.0856655
0.0810547
0.0763978
0.0717016
0.0669733
0.0622204
0.0574506
0.0526717
0.047892
0.0431198
0.0383632
0.0336308
0.0289306
0.0242712
0.0903495
0.0857825
0.0811628
0.0764965
0.0717905
0.0670521
0.0622885
0.0575077
0.0527176
0.0479263
0.0431423
0.0383738
0.0336293
0.028917
0.0242455
0.090474
0.0858985
0.0812697
0.076594
0.0718781
0.0671294
0.0623552
0.0575634
0.0527619
0.0479591
0.0431632
0.0383827
0.0336262
0.0289018
0.0242181
0.0905978
0.0860135
0.0813755
0.0766902
0.0719644
0.0672053
0.0624204
0.0576175
0.0528048
0.0479903
0.0431827
0.0383902
0.0336215
0.028885
0.0241892
0.0907206
0.0861274
0.0814802
0.0767852
0.0720494
0.0672799
0.0624843
0.0576703
0.0528462
0.0480201
0.0432007
0.0383962
0.0336154
0.0288667
0.0241587
0.0908426
0.0862404
0.0815838
0.0768791
0.0721332
0.0673532
0.0625468
0.0577217
0.0528862
0.0480485
0.0432172
0.0384007
0.0336079
0.0288469
0.0241268
0.0909638
0.0863525
0.0816863
0.0769718
0.0722157
0.0674252
0.062608
0.0577718
0.0529249
0.0480756
0.0432324
0.0384039
0.0335989
0.0288258
0.0240935
0.0910842
0.0864635
0.0817878
0.0770634
0.0722971
0.0674961
0.062668
0.0578206
0.0529623
0.0481013
0.0432463
0.0384058
0.0335887
0.0288034
0.0240589
0.0912038
0.0865737
0.0818883
0.0771539
0.0723773
0.0675657
0.0627267
0.0578682
0.0529984
0.0481258
0.0432589
0.0384064
0.0335772
0.0287796
0.0240229
0.0913225
0.086683
0.0819878
0.0772433
0.0724563
0.0676341
0.0627842
0.0579145
0.0530334
0.0481491
0.0432703
0.0384058
0.0335644
0.0287547
0.0239858
0.0914405
0.0867913
0.0820863
0.0773317
0.0725343
0.0677014
0.0628406
0.0579597
0.0530671
0.0481711
0.0432805
0.038404
0.0335505
0.0287286
0.0239474
0.0915577
0.0868988
0.0821838
0.077419
0.0726112
0.0677676
0.0628958
0.0580037
0.0530997
0.0481921
0.0432896
0.0384011
0.0335355
0.0287013
0.023908
0.0916741
0.0870054
0.0822803
0.0775053
0.0726871
0.0678327
0.06295
0.0580467
0.0531312
0.0482119
0.0432976
0.0383971
0.0335193
0.028673
0.0238674
0.0917897
0.0871111
0.082376
0.0775907
0.0727619
0.0678968
0.063003
0.0580885
0.0531616
0.0482306
0.0433045
0.038392
0.0335022
0.0286437
0.0238258
0.0919046
0.087216
0.0824707
0.077675
0.0728357
0.0679598
0.063055
0.0581293
0.0531909
0.0482483
0.0433104
0.0383859
0.033484
0.0286133
0.0237833
0.0920187
0.08732
0.0825645
0.0777584
0.0729085
0.0680218
0.0631061
0.0581691
0.0532193
0.048265
0.0433153
0.0383788
0.0334649
0.028582
0.0237398
0.0874232
0.0826574
0.0778409
0.0729803
0.0680828
0.0631561
0.0582079
0.0532466
0.0482808
0.0433193
0.0383709
0.0334448
0.0285498
0.0236954
0.0875255
0.0827494
0.0779224
0.0730512
0.0681429
0.0632051
0.0582457
0.053273
0.0482956
0.0433223
0.038362
0.0334239
0.0285167
0.0236501
0.087627
0.0828405
0.078003
0.0731211
0.068202
0.0632532
0.0582826
0.0532985
0.0483095
0.0433244
0.0383522
0.0334021
0.0284828
0.0236041
0.0877277
0.0829308
0.0780827
0.0731902
0.0682602
0.0633004
0.0583185
0.0533231
0.0483225
0.0433257
0.0383416
0.0333795
0.0284481
0.0235572
0.0878276
0.0830202
0.0781615
0.0732583
0.0683175
0.0633466
0.0583536
0.0533468
0.0483347
0.0433262
0.0383302
0.0333561
0.0284127
0.0235096
0.0879266
0.0831087
0.0782395
0.0733255
0.0683739
0.063392
0.0583878
0.0533697
0.048346
0.0433258
0.038318
0.033332
0.0283765
0.0234613
0.0880249
0.0831964
0.0783166
0.0733919
0.0684294
0.0634365
0.0584212
0.0533917
0.0483566
0.0433247
0.0383051
0.0333071
0.0283396
0.0234124
0.0881223
0.0832833
0.0783928
0.0734574
0.068484
0.0634802
0.0584537
0.0534129
0.0483663
0.0433229
0.0382915
0.0332816
0.0283021
0.0233628
0.088219
0.0833693
0.0784682
0.073522
0.0685379
0.0635231
0.0584855
0.0534334
0.0483753
0.0433203
0.0382772
0.0332554
0.028264
0.0233126
0.0883148
0.0834545
0.0785427
0.0735859
0.0685909
0.0635651
0.0585164
0.0534531
0.0483836
0.043317
0.0382622
0.0332286
0.0282252
0.0232619
0.0884099
0.0835389
0.0786164
0.0736488
0.068643
0.0636064
0.0585466
0.0534721
0.0483912
0.0433131
0.0382466
0.0332012
0.0281859
0.0232106
0.0885041
0.0836225
0.0786893
0.073711
0.0686944
0.0636468
0.058576
0.0534903
0.0483981
0.0433085
0.0382304
0.0331732
0.0281461
0.0231588
0.0885976
0.0837052
0.0787614
0.0737724
0.068745
0.0636865
0.0586047
0.0535079
0.0484044
0.0433033
0.0382136
0.0331447
0.0281057
0.0231065
0.0886902
0.0837872
0.0788327
0.073833
0.0687948
0.0637255
0.0586327
0.0535247
0.04841
0.0432975
0.0381962
0.0331157
0.0280649
0.0230538
0.0887821
0.0838683
0.0789032
0.0738928
0.0688439
0.0637637
0.05866
0.053541
0.048415
0.0432911
0.0381783
0.0330861
0.0280236
0.0230007
0.0888731
0.0839487
0.0789729
0.0739518
0.0688922
0.0638013
0.0586867
0.0535565
0.0484194
0.0432842
0.0381599
0.0330561
0.0279818
0.0229471
0.0889634
0.0840282
0.0790418
0.0740101
0.0689398
0.0638381
0.0587126
0.0535715
0.0484232
0.0432768
0.038141
0.0330257
0.0279397
0.0228932
0.0890529
0.084107
0.0791099
0.0740676
0.0689867
0.0638742
0.0587379
0.0535859
0.0484265
0.0432688
0.0381217
0.0329948
0.0278972
0.022839
0.0891416
0.084185
0.0791773
0.0741244
0.0690328
0.0639097
0.0587626
0.0535996
0.0484292
0.0432603
0.0381018
0.0329635
0.0278543
0.0227845
0.0892294
0.0842622
0.0792439
0.0741804
0.0690783
0.0639445
0.0587866
0.0536128
0.0484314
0.0432513
0.0380816
0.0329318
0.0278111
0.0227296
0.0893165
0.0843386
0.0793097
0.0742357
0.069123
0.0639786
0.0588101
0.0536254
0.0484331
0.0432419
0.038061
0.0328998
0.0277676
0.0226745
0.0894028
0.0844143
0.0793748
0.0742903
0.0691671
0.0640121
0.0588329
0.0536375
0.0484343
0.0432321
0.0380399
0.0328675
0.0277238
0.0226192
0.0894883
0.0844891
0.0794392
0.0743442
0.0692105
0.064045
0.0588552
0.0536491
0.048435
0.0432218
0.0380185
0.0328348
0.0276797
0.0225636
0.0895731
0.0845633
0.0795028
0.0743974
0.0692533
0.0640773
0.058877
0.0536602
0.0484353
0.0432111
0.0379967
0.0328018
0.0276354
0.0225078
0.0896571
0.0846367
0.0795658
0.07445
0.0692954
0.0641091
0.0588982
0.0536708
0.0484351
0.0432001
0.0379747
0.0327686
0.0275909
0.0224518
0.0897397
0.0847088
0.0796275
0.0745014
0.0693366
0.0641399
0.0589186
0.0536807
0.0484344
0.0431886
0.0379522
0.032735
0.0275461
0.0223957
0.0898203
0.084779
0.0796875
0.0745512
0.0693762
0.0641693
0.0589377
0.0536894
0.0484326
0.0431762
0.037929
0.0327008
0.0275009
0.0223394
0.0899044
0.0848523
0.07975
0.0746031
0.0694175
0.0642
0.0589578
0.0536988
0.0484312
0.0431638
0.0379057
0.0326665
0.0274555
0.0222829
0.0900046
0.0849404
0.0798262
0.0746674
0.06947
0.0642407
0.0589867
0.0537158
0.0484363
0.0431569
0.0378866
0.0326353
0.027412
0.022227
0.0900903
0.0850171
0.0798941
0.0747264
0.06952
0.0642813
0.0590176
0.0537365
0.0484462
0.0431554
0.037873
0.0326088
0.0273719
0.0221727
0.0900013
0.0849342
0.0798175
0.0746562
0.0694559
0.0642229
0.0589641
0.0536869
0.0483992
0.0431096
0.0378267
0.0325602
0.0273192
0.0221139
0.0199592
0.0155492
0.0111991
0.00691579
0.00270541
-0.0014259
-0.00547241
-0.00942866
-0.0132896
-0.0170505
-0.0207072
-0.0242557
-0.0276926
-0.0310151
-0.0342205
-0.0373069
-0.0402727
-0.0431168
-0.0458385
-0.0484376
-0.0509144
-0.0532694
-0.0555036
-0.0576184
-0.0596154
-0.0614966
-0.0632641
-0.0649203
-0.0664678
-0.0679092
-0.0692473
-0.0704849
-0.0716248
-0.07267
-0.0736233
0.0199539
0.0155391
0.011185
0.00689825
0.00268499
-0.00144872
-0.00549725
-0.00945524
-0.0133177
-0.01708
-0.020738
-0.0242878
-0.0277259
-0.0310496
-0.0342562
-0.0373437
-0.0403105
-0.0431555
-0.045878
-0.0484778
-0.050955
-0.0533102
-0.0555445
-0.0576591
-0.0596557
-0.0615362
-0.0633029
-0.0649581
-0.0665045
-0.0679446
-0.0692813
-0.0705174
-0.0716559
-0.0726996
-0.0736514
0.0199424
0.0155161
0.0111508
0.00685351
0.00263027
-0.00151275
-0.00556991
-0.00953579
-0.0134054
-0.0171741
-0.0208376
-0.0243921
-0.0278342
-0.0311609
-0.0343698
-0.0374588
-0.0404264
-0.0432714
-0.0459932
-0.0485916
-0.0510669
-0.0534197
-0.055651
-0.0577622
-0.0597551
-0.0616316
-0.0633941
-0.0650449
-0.0665868
-0.0680224
-0.0693547
-0.0705865
-0.0717208
-0.0727606
-0.0737088
0.0199281
0.0154898
0.011113
0.00680448
0.00257057
-0.00158255
-0.00564913
-0.0096237
-0.0135012
-0.0172769
-0.0209467
-0.0245065
-0.027953
-0.0312833
-0.0344949
-0.0375857
-0.0405542
-0.0433995
-0.0461207
-0.048718
-0.0511915
-0.0535419
-0.0557704
-0.0578784
-0.0598678
-0.0617406
-0.0634991
-0.0651459
-0.0666836
-0.0681152
-0.0694434
-0.0706714
-0.0718021
-0.0728385
-0.0737837
0.0199115
0.0154619
0.011074
0.00675478
0.00251066
-0.00165211
-0.00572775
-0.00971071
-0.0135959
-0.0173786
-0.0210544
-0.0246196
-0.0280707
-0.0314048
-0.0346193
-0.0377123
-0.0406823
-0.0435283
-0.0462498
-0.0488465
-0.051319
-0.0536679
-0.0558945
-0.0580002
-0.059987
-0.061857
-0.0636125
-0.0652561
-0.0667907
-0.0682192
-0.0695444
-0.0707695
-0.0718975
-0.0729315
-0.0738745
0.0198925
0.0154315
0.0110326
0.00670281
0.00244853
-0.00172389
-0.00580859
-0.00979998
-0.0136929
-0.0174827
-0.0211649
-0.0247356
-0.0281915
-0.0315297
-0.0347475
-0.0378432
-0.0408151
-0.0436624
-0.0463845
-0.0489814
-0.0514534
-0.0538015
-0.0560267
-0.0581309
-0.0601157
-0.0619835
-0.0637367
-0.065378
-0.0669101
-0.0683361
-0.069659
-0.0708818
-0.0720078
-0.07304
-0.0739815
0.019871
0.0153986
0.0109886
0.00664802
0.00238343
-0.0017988
-0.00589275
-0.00989278
-0.0137937
-0.0175908
-0.0212796
-0.0248562
-0.0283173
-0.0316598
-0.0348814
-0.0379801
-0.0409544
-0.0438033
-0.0465265
-0.049124
-0.0515961
-0.0539437
-0.0561682
-0.0582712
-0.0602547
-0.0621209
-0.0638723
-0.0655117
-0.0670419
-0.068466
-0.069787
-0.0710082
-0.0721327
-0.0731637
-0.0741042
0.0198472
0.0153633
0.010942
0.00659059
0.00231554
-0.00187665
-0.00598002
-0.0099889
-0.013898
-0.0177026
-0.0213983
-0.0249811
-0.0284476
-0.0317949
-0.0350205
-0.0381226
-0.0410996
-0.0439507
-0.0466754
-0.0492739
-0.0517465
-0.0540942
-0.0563185
-0.0584208
-0.0604034
-0.0622684
-0.0640186
-0.0656566
-0.0671854
-0.0686082
-0.069928
-0.071148
-0.0722716
-0.0733018
-0.0742419
0.0198211
0.0153256
0.0108931
0.00653068
0.00224508
-0.00195721
-0.00607016
-0.010088
-0.0140056
-0.0178179
-0.0215207
-0.0251099
-0.0285821
-0.0319345
-0.0351645
-0.0382703
-0.0412504
-0.044104
-0.0468307
-0.0494306
-0.0519042
-0.0542525
-0.0564769
-0.0585791
-0.0605612
-0.0624257
-0.0641751
-0.0658123
-0.0673402
-0.0687621
-0.0700812
-0.0713006
-0.0724238
-0.0734539
-0.0743941
0.0197929
0.0152858
0.0108419
0.00646841
0.00217214
-0.00204035
-0.00616301
-0.0101901
-0.0141162
-0.0179365
-0.0216465
-0.0252424
-0.0287207
-0.0320784
-0.0353131
-0.0384229
-0.0414065
-0.044263
-0.0469921
-0.0495938
-0.0520688
-0.0544181
-0.0566431
-0.0587457
-0.0607279
-0.0625922
-0.0643413
-0.0659782
-0.0675058
-0.0689273
-0.0702461
-0.0714655
-0.0725887
-0.0736192
-0.0745601
0.0197626
0.0152438
0.0107884
0.00640387
0.00209684
-0.00212598
-0.00625849
-0.0102948
-0.0142297
-0.0180582
-0.0217758
-0.0253785
-0.0288631
-0.0322264
-0.0354661
-0.0385803
-0.0415677
-0.0444275
-0.0471593
-0.0497633
-0.0522401
-0.0545908
-0.0568169
-0.0589202
-0.060903
-0.0627676
-0.064517
-0.0661539
-0.0676816
-0.0691033
-0.0704223
-0.0716421
-0.0727659
-0.0737972
-0.0747392
0.0197304
0.0151998
0.0107329
0.00633714
0.00201926
-0.002214
-0.00635648
-0.0104023
-0.0143461
-0.0181829
-0.0219082
-0.0255181
-0.0290091
-0.0323784
-0.0356234
-0.0387423
-0.0417339
-0.0445972
-0.0473321
-0.0499388
-0.0524178
-0.0547703
-0.0569979
-0.0591024
-0.0610861
-0.0629516
-0.0647015
-0.0663391
-0.0678673
-0.0692896
-0.0706093
-0.0718299
-0.0729548
-0.0739874
-0.0749311
0.0196962
0.0151539
0.0106754
0.00626833
0.0019395
-0.0023043
-0.00645688
-0.0105123
-0.0144652
-0.0183105
-0.0220437
-0.025661
-0.0291588
-0.0325341
-0.0357847
-0.0389087
-0.0419047
-0.044772
-0.0475103
-0.05012
-0.0526016
-0.0549563
-0.0571858
-0.059292
-0.061277
-0.0631437
-0.0648947
-0.0665332
-0.0680624
-0.0694857
-0.0708065
-0.0720284
-0.0731548
-0.0741892
-0.075135
0.0196602
0.0151061
0.0106159
0.00619751
0.00185765
-0.00239679
-0.00655957
-0.0106247
-0.0145868
-0.0184408
-0.0221822
-0.025807
-0.0293118
-0.0326936
-0.03595
-0.0390792
-0.04208
-0.0449516
-0.0476937
-0.0503067
-0.0527913
-0.0551486
-0.0573803
-0.0594885
-0.0614753
-0.0633436
-0.065096
-0.0667359
-0.0682665
-0.0696912
-0.0710136
-0.0722372
-0.0733655
-0.0744021
-0.0753505
0.0196225
0.0150564
0.0105546
0.00612478
0.00177381
-0.00249137
-0.00666448
-0.0107395
-0.0147109
-0.0185738
-0.0223235
-0.0259561
-0.029468
-0.0328564
-0.036119
-0.0392538
-0.0422596
-0.0451357
-0.047882
-0.0504987
-0.0529865
-0.0553468
-0.0575812
-0.0596917
-0.0616807
-0.0635509
-0.0653052
-0.0669469
-0.0684792
-0.0699058
-0.07123
-0.0724557
-0.0735864
-0.0746256
-0.075577
0.0195831
0.0150051
0.0104916
0.00605021
0.00168806
-0.00258795
-0.00677148
-0.0108565
-0.0148374
-0.0187093
-0.0224675
-0.026108
-0.0296274
-0.0330226
-0.0362915
-0.0394321
-0.0424433
-0.0453243
-0.048075
-0.0506957
-0.0531872
-0.0555507
-0.0577881
-0.0599013
-0.0618928
-0.0637654
-0.0655219
-0.0671657
-0.0687001
-0.0701289
-0.0714554
-0.0726836
-0.073817
-0.0748593
-0.075814
0.0195421
0.0149521
0.0104268
0.00597389
0.00160048
-0.00268644
-0.00688049
-0.0109756
-0.0149662
-0.0188472
-0.022614
-0.0262627
-0.0297896
-0.033192
-0.0364675
-0.0396142
-0.042631
-0.0455171
-0.0482725
-0.0508975
-0.0533929
-0.0557601
-0.0580008
-0.0601171
-0.0621114
-0.0639866
-0.0657457
-0.067392
-0.0689289
-0.0703601
-0.0716893
-0.0729203
-0.0740567
-0.0751025
-0.0760609
0.0194995
0.0148975
0.0103604
0.00589589
0.00151116
-0.00278675
-0.00699142
-0.0110967
-0.0150971
-0.0189874
-0.022763
-0.02642
-0.0299547
-0.0333644
-0.0366467
-0.0397997
-0.0428223
-0.0457139
-0.0484743
-0.0511039
-0.0536036
-0.0559747
-0.058219
-0.0603386
-0.0623361
-0.0642143
-0.0659763
-0.0676254
-0.069165
-0.0705992
-0.0719313
-0.0731655
-0.0743053
-0.0753548
-0.0763174
0.0194554
0.0148415
0.0102924
0.00581629
0.00142018
-0.0028888
-0.00710418
-0.0112198
-0.01523
-0.0191298
-0.0229144
-0.0265798
-0.0301225
-0.0335397
-0.036829
-0.0399886
-0.0430173
-0.0459145
-0.0486802
-0.0513146
-0.0538189
-0.0561942
-0.0584424
-0.0605658
-0.0625667
-0.0644482
-0.0662133
-0.0678655
-0.0694083
-0.0708456
-0.0721809
-0.0734186
-0.0745621
-0.0756158
-0.0765828
0.0194099
0.0147839
0.010223
0.00573516
0.00132761
-0.00299251
-0.00721868
-0.0113447
-0.0153649
-0.0192742
-0.0230679
-0.026742
-0.0302929
-0.0337177
-0.0370142
-0.0401806
-0.0432156
-0.0461188
-0.04889
-0.0515296
-0.0540386
-0.0564184
-0.0586709
-0.0607982
-0.0628029
-0.064688
-0.0664566
-0.0681122
-0.0696583
-0.071099
-0.0724378
-0.0736794
-0.0748268
-0.075885
-0.0768568
0.0193631
0.014725
0.0101521
0.00565257
0.00123352
-0.00309779
-0.00733484
-0.0114714
-0.0155017
-0.0194207
-0.0232236
-0.0269064
-0.0304657
-0.0338984
-0.0372023
-0.0403756
-0.0434172
-0.0463265
-0.0491035
-0.0517485
-0.0542626
-0.0566472
-0.0589041
-0.0610357
-0.0630444
-0.0649334
-0.0667056
-0.0683649
-0.0699147
-0.0713591
-0.0727017
-0.0739473
-0.0750989
-0.0761619
-0.0771388
0.019315
0.0146648
0.0100799
0.0055686
0.001138
-0.00320458
-0.00745257
-0.0115997
-0.0156402
-0.019569
-0.0233813
-0.027073
-0.0306408
-0.0340815
-0.037393
-0.0405735
-0.0436219
-0.0465376
-0.0493205
-0.0519712
-0.0544906
-0.0568802
-0.0591419
-0.0612779
-0.063291
-0.065184
-0.0669603
-0.0686235
-0.0701771
-0.0716254
-0.072972
-0.0742219
-0.075378
-0.0764461
-0.0774283
0.0192656
0.0146033
0.0100065
0.0054833
0.00104111
-0.0033128
-0.0075718
-0.0117296
-0.0157804
-0.0197191
-0.0235409
-0.0272417
-0.030818
-0.034267
-0.0375863
-0.0407742
-0.0438295
-0.0467518
-0.0495409
-0.0521975
-0.0547225
-0.0571173
-0.059384
-0.0615248
-0.0635423
-0.0654397
-0.0672202
-0.0688875
-0.0704452
-0.0718977
-0.0732485
-0.074503
-0.0756638
-0.0767372
-0.0777249
0.0192151
0.0145406
0.00993175
0.00539674
0.000942916
-0.00342237
-0.00769245
-0.011861
-0.0159222
-0.0198709
-0.0237023
-0.0274123
-0.0309974
-0.0344548
-0.037782
-0.0409774
-0.0440399
-0.046969
-0.0497646
-0.0524272
-0.054958
-0.0573583
-0.0596302
-0.0617759
-0.0637982
-0.0657002
-0.0674851
-0.0691567
-0.0707187
-0.0721756
-0.0735308
-0.0747901
-0.0759556
-0.0770348
-0.0780282
0.0191634
0.0144768
0.00985588
0.00530899
0.000843488
-0.00353322
-0.00781445
-0.0119938
-0.0160655
-0.0200243
-0.0238654
-0.0275847
-0.0311788
-0.0346446
-0.03798
-0.0411831
-0.044253
-0.047189
-0.0499912
-0.0526602
-0.0551969
-0.057603
-0.0598803
-0.0620312
-0.0640584
-0.0659652
-0.0677547
-0.0694309
-0.0709973
-0.0724588
-0.0738186
-0.0750827
-0.0762533
-0.0773384
-0.0783376
0.0191106
0.0144119
0.00977889
0.0052201
0.000742888
-0.00364529
-0.00793772
-0.012128
-0.0162102
-0.0201792
-0.0240301
-0.0277589
-0.031362
-0.0348365
-0.0381801
-0.0413912
-0.0444685
-0.0474117
-0.0502208
-0.0528962
-0.0554391
-0.0578511
-0.060134
-0.0622903
-0.0643227
-0.0662344
-0.0680288
-0.0697097
-0.0712808
-0.0727469
-0.0741114
-0.0753807
-0.0765564
-0.0776477
-0.0786528
0.0190568
0.0143459
0.00970085
0.00513014
0.000641178
-0.00375852
-0.0080622
-0.0122634
-0.0163563
-0.0203355
-0.0241964
-0.0279347
-0.031547
-0.0350303
-0.0383823
-0.0416014
-0.0446864
-0.047637
-0.050453
-0.0531352
-0.0556845
-0.0581025
-0.0603912
-0.0625531
-0.0645909
-0.0665077
-0.068307
-0.0699928
-0.0715687
-0.0730396
-0.074409
-0.0756835
-0.0768644
-0.0779621
-0.0789732
0.019002
0.014279
0.00962181
0.00503915
0.00053842
-0.00387283
-0.00818781
-0.0124
-0.0165036
-0.0204932
-0.0243641
-0.0281121
-0.0317336
-0.0352258
-0.0385864
-0.0418137
-0.0449066
-0.0478646
-0.0506878
-0.0533768
-0.0559327
-0.058357
-0.0606518
-0.0628194
-0.0648627
-0.0667848
-0.0685892
-0.07028
-0.0718608
-0.0733367
-0.074711
-0.0759909
-0.0771771
-0.0782814
0.0189463
0.0142111
0.00954183
0.0049472
0.00043467
-0.00398817
-0.00831449
-0.0125378
-0.0166521
-0.0206522
-0.0245331
-0.0282909
-0.0319218
-0.0354231
-0.0387923
-0.042028
-0.0451289
-0.0480946
-0.0509251
-0.0536211
-0.0561837
-0.0586145
-0.0609154
-0.0630889
-0.0651379
-0.0670655
-0.0688751
-0.070571
-0.0721568
-0.0736378
-0.0750171
-0.0763025
-0.077494
0.0188897
0.0141423
0.00946094
0.00485433
0.000329986
-0.00410447
-0.00844218
-0.0126766
-0.0168018
-0.0208123
-0.0247035
-0.0284711
-0.0321115
-0.0356219
-0.039
-0.0422441
-0.0453531
-0.0483266
-0.0511647
-0.0538679
-0.0564374
-0.0588747
-0.0611819
-0.0633615
-0.0654163
-0.0673495
-0.0691645
-0.0708656
-0.0724565
-0.0739426
-0.075327
-0.0766179
0.0188322
0.0140726
0.0093792
0.00476061
0.000224422
-0.00422168
-0.00857082
-0.0128164
-0.0169525
-0.0209736
-0.024875
-0.0286525
-0.0323026
-0.0358223
-0.0392093
-0.0424619
-0.0455792
-0.0485607
-0.0514064
-0.0541169
-0.0566934
-0.0591375
-0.0614512
-0.063637
-0.0656977
-0.0676366
-0.0694571
-0.0711636
-0.0727596
-0.0742509
-0.0756404
0.0187739
0.0140022
0.00929667
0.00466608
0.000118032
-0.00433975
-0.00870034
-0.0129571
-0.0171041
-0.0211359
-0.0250477
-0.0288352
-0.032495
-0.036024
-0.03942
-0.0426814
-0.0458071
-0.0487966
-0.0516501
-0.0543681
-0.0569518
-0.0594028
-0.0617231
-0.0639152
-0.0659819
-0.0679266
-0.0697527
-0.0714646
-0.0730658
-0.0745623
-0.0759569
0.0187149
0.013931
0.00921338
0.00457078
1.08668e-05
-0.0044586
-0.00883069
-0.0130987
-0.0172567
-0.0212992
-0.0252214
-0.029019
-0.0326885
-0.036227
-0.0396322
-0.0429024
-0.0460366
-0.0490344
-0.0518957
-0.0546213
-0.0572123
-0.0596703
-0.0619974
-0.0641959
-0.0662688
-0.0682194
-0.0700511
-0.0717684
-0.0733749
-0.0748767
0.0186552
0.0138591
0.00912937
0.00447477
-9.7023e-05
-0.00457821
-0.0089618
-0.0132411
-0.0174102
-0.0214634
-0.0253961
-0.0292038
-0.0328832
-0.0364313
-0.0398457
-0.0431249
-0.0462677
-0.0492737
-0.0521431
-0.0548765
-0.0574749
-0.05994
-0.0622739
-0.064479
-0.0665581
-0.0685147
-0.0703521
-0.0720749
-0.0736867
0.0185947
0.0137866
0.0090447
0.00437809
-0.000205589
-0.0046985
-0.00909364
-0.0133843
-0.0175644
-0.0216284
-0.0255716
-0.0293897
-0.033079
-0.0366367
-0.0400604
-0.0433486
-0.0465002
-0.0495147
-0.0523922
-0.0551333
-0.0577393
-0.0602117
-0.0625525
-0.0647642
-0.0668497
-0.0688123
-0.0706555
-0.0723837
-0.0740008
0.0185336
0.0137133
0.00895941
0.00428079
-0.000314784
-0.00481944
-0.00922613
-0.0135281
-0.0177193
-0.0217943
-0.025748
-0.0295764
-0.0332757
-0.0368431
-0.0402763
-0.0435736
-0.046734
-0.049757
-0.0526427
-0.0553919
-0.0580055
-0.0604852
-0.062833
-0.0650515
-0.0671434
-0.0691121
-0.070961
-0.0726948
0.0184719
0.0136395
0.00887353
0.00418291
-0.000424562
-0.00494097
-0.00935924
-0.0136726
-0.017875
-0.0219608
-0.0259252
-0.0297639
-0.0334733
-0.0370505
-0.0404932
-0.0437997
-0.046969
-0.0500007
-0.0528947
-0.0556519
-0.0582733
-0.0607604
-0.0631154
-0.0653406
-0.067439
-0.0694138
-0.0712686
0.0184097
0.0135652
0.0087871
0.00408449
-0.00053488
-0.00506305
-0.00949291
-0.0138177
-0.0180312
-0.022128
-0.0261031
-0.0299522
-0.0336717
-0.0372588
-0.040711
-0.0440268
-0.0472052
-0.0502455
-0.0531481
-0.0559134
-0.0585426
-0.0610372
-0.0633994
-0.0656315
-0.0677363
-0.0697173
-0.0715779
0.0183468
0.0134903
0.00870016
0.00398557
-0.000645693
-0.00518562
-0.00962709
-0.0139633
-0.018188
-0.0222958
-0.0262816
-0.0301411
-0.0338709
-0.0374679
-0.0409298
-0.044255
-0.0474424
-0.0504915
-0.0534026
-0.0561761
-0.0588132
-0.0613155
-0.0636849
-0.0659239
-0.0680353
-0.0700224
0.0182835
0.0134149
0.00861276
0.00388619
-0.000756961
-0.00530866
-0.00976174
-0.0141093
-0.0183453
-0.0224641
-0.0264606
-0.0303307
-0.0340707
-0.0376777
-0.0411493
-0.0444839
-0.0476805
-0.0507386
-0.0536582
-0.05644
-0.0590851
-0.0615951
-0.0639718
-0.0662178
-0.0683357
0.0182197
0.0133391
0.00852492
0.00378639
-0.000868643
-0.0054321
-0.00989681
-0.0142559
-0.0185031
-0.0226329
-0.0266402
-0.0305209
-0.0342712
-0.0378882
-0.0413696
-0.0447137
-0.0479195
-0.0509865
-0.0539148
-0.056705
-0.0593582
-0.0618758
-0.0642599
-0.0665129
-0.0686375
0.0181555
0.0132629
0.00843669
0.0036862
-0.0009807
-0.00555592
-0.0100322
-0.0144028
-0.0186613
-0.0228021
-0.0268203
-0.0307115
-0.0344722
-0.0380993
-0.0415905
-0.0449442
-0.0481593
-0.0512353
-0.0541724
-0.056971
-0.0596323
-0.0621577
-0.0645492
-0.0668092
0.0180908
0.0131862
0.00834808
0.00358567
-0.00109309
-0.00568007
-0.010168
-0.01455
-0.0188198
-0.0229717
-0.0270007
-0.0309026
-0.0346737
-0.0383109
-0.041812
-0.0451753
-0.0483998
-0.0514849
-0.0544307
-0.0572378
-0.0599073
-0.0624405
-0.0648395
-0.0671065
0.0180257
0.0131092
0.00825915
0.00348482
-0.00120579
-0.00580451
-0.0103041
-0.0146975
-0.0189786
-0.0231416
-0.0271816
-0.0310941
-0.0348756
-0.038523
-0.042034
-0.045407
-0.0486409
-0.0517351
-0.0546898
-0.0575054
-0.0601831
-0.0627242
-0.0651306
0.0179603
0.0130319
0.00816991
0.0033837
-0.00131874
-0.00592921
-0.0104404
-0.0148453
-0.0191377
-0.0233118
-0.0273627
-0.0312859
-0.0350778
-0.0387355
-0.0422565
-0.0456392
-0.0488825
-0.0519859
-0.0549495
-0.0577737
-0.0604596
-0.0630086
-0.0654226
0.0178946
0.0129543
0.00808041
0.00328232
-0.00143193
-0.00605412
-0.0105769
-0.0149933
-0.019297
-0.0234823
-0.027544
-0.031478
-0.0352804
-0.0389483
-0.0424793
-0.0458718
-0.0491246
-0.0522372
-0.0552097
-0.0580426
-0.0607368
-0.0632937
0.0178286
0.0128764
0.00799066
0.00318074
-0.00154531
-0.00617922
-0.0107136
-0.0151415
-0.0194565
-0.0236529
-0.0277256
-0.0316703
-0.0354832
-0.0391613
-0.0427024
-0.0461047
-0.049367
-0.052489
-0.0554705
-0.058312
-0.0610145
-0.0635794
0.0177623
0.0127983
0.00790071
0.00307897
-0.00165885
-0.00630446
-0.0108505
-0.0152898
-0.0196161
-0.0238236
-0.0279073
-0.0318627
-0.0356862
-0.0393747
-0.0429258
-0.0463379
-0.0496098
-0.0527411
-0.0557316
-0.0585818
-0.0612926
-0.0638654
0.0176957
0.01272
0.00781057
0.00297704
-0.00177253
-0.00642982
-0.0109874
-0.0154382
-0.0197758
-0.0239945
-0.0280891
-0.0320553
-0.0358893
-0.0395881
-0.0431494
-0.0465713
-0.0498529
-0.0529934
-0.055993
-0.0588519
-0.0615711
0.0176289
0.0126414
0.00772028
0.00287499
-0.0018863
-0.00655525
-0.0111244
-0.0155866
-0.0199356
-0.0241654
-0.028271
-0.032248
-0.0360925
-0.0398017
-0.0433731
-0.0468049
-0.0500961
-0.053246
-0.0562546
-0.0591223
-0.0618499
0.0175619
0.0125627
0.00762987
0.00277285
-0.00200014
-0.00668073
-0.0112614
-0.0157351
-0.0200954
-0.0243363
-0.0284529
-0.0324406
-0.0362958
-0.0400153
-0.0435968
-0.0470386
-0.0503394
-0.0534987
-0.0565164
-0.0593928
0.0174947
0.0124839
0.00753935
0.00267063
-0.00211402
-0.00680623
-0.0113985
-0.0158836
-0.0202551
-0.0245072
-0.0286347
-0.0326333
-0.036499
-0.0402289
-0.0438206
-0.0472723
-0.0505828
-0.0537515
-0.0567782
-0.0596634
0.0174274
0.012405
0.00744874
0.00256836
-0.00222793
-0.00693173
-0.0115355
-0.016032
-0.0204148
-0.024678
-0.0288166
-0.0328259
-0.0367022
-0.0404425
-0.0440443
-0.0475059
-0.0508261
-0.0540042
-0.0570401
0.0173599
0.0123259
0.00735806
0.00246603
-0.0023419
-0.00705728
-0.0116726
-0.0161805
-0.0205746
-0.024849
-0.0289985
-0.0330186
-0.0369056
-0.0406563
-0.0442683
-0.0477399
-0.0510697
-0.0542573
-0.0573023
0.0172924
0.0122468
0.00726737
0.00236374
-0.00245579
-0.00718273
-0.0118095
-0.0163288
-0.0207343
-0.0250198
-0.0291803
-0.0332113
-0.037109
-0.0408701
-0.0444924
-0.047974
-0.0513137
-0.0545107
-0.0575649
0.0172247
0.0121678
0.00717704
0.00226202
-0.00256889
-0.00730719
-0.0119453
-0.0164758
-0.0208923
-0.0251889
-0.0293603
-0.033402
-0.0373101
-0.0410817
-0.0447142
-0.0482057
-0.0515551
-0.0547617
0.0171571
0.012089
0.00708706
0.00216093
-0.00268102
-0.00743027
-0.0120792
-0.0166205
-0.0210476
-0.0253545
-0.0295362
-0.033588
-0.0375061
-0.0412874
-0.0449295
-0.0484304
-0.051789
-0.0550044
0.0170889
0.0120085
0.00699425
0.0020559
-0.00279816
-0.00755938
-0.0122201
-0.0167729
-0.0212114
-0.0255294
-0.0297219
-0.0337842
-0.0377124
-0.0415036
-0.0451551
-0.0486652
-0.0520325
0.0170196
0.0119236
0.00689328
0.00193836
-0.0029326
-0.00771091
-0.0123888
-0.0169588
-0.0214142
-0.025749
-0.0299578
-0.0340359
-0.0379795
-0.0417854
-0.0454509
-0.0489743
-0.0523541
0.0169528
0.0118469
0.00680485
0.0018366
-0.00304917
-0.0078436
-0.0125387
-0.0171268
-0.021601
-0.0259551
-0.0301835
-0.0342815
-0.0382451
-0.0420709
-0.0457562
-0.0492992
-0.0526984
)
;

boundaryField
{
    inlet
    {
        type            zeroGradient;
    }
    outlet
    {
        type            fixedValue;
        value           nonuniform 0();
    }
    cylinder
    {
        type            zeroGradient;
    }
    top
    {
        type            symmetryPlane;
    }
    bottom
    {
        type            symmetryPlane;
    }
    defaultFaces
    {
        type            empty;
    }
    procBoundary1to0
    {
        type            processor;
        value           nonuniform List<scalar> 
61
(
0.0929487
0.0930443
0.0932
0.093349
0.0934901
0.0936297
0.0937691
0.0939079
0.0940458
0.0941829
0.0943193
0.094455
0.0945899
0.0947241
0.0948575
0.0949903
0.0951224
0.0952538
0.0953845
0.0955145
0.0956439
0.0957726
0.0959006
0.0960279
0.0961547
0.0962807
0.0964061
0.0965308
0.0966549
0.092132
0.092132
0.0922446
0.0923564
0.0924675
0.0925778
0.0926873
0.0927961
0.0929041
0.0930114
0.0931179
0.0932236
0.0933286
0.0934328
0.0935362
0.0936388
0.0937407
0.0938418
0.0939421
0.0940416
0.0941403
0.0942382
0.0943353
0.0944316
0.0945272
0.094622
0.0947152
0.0948064
0.0949016
0.0950141
0.0951089
0.0950145
)
;
    }
    procBoundary1to2
    {
        type            processor;
        value           nonuniform List<scalar> 
27
(
-0.0744875
-0.0745142
-0.0745684
-0.0746405
-0.0747295
-0.0748352
-0.0749573
-0.0750949
-0.0752474
-0.0754143
-0.0755949
-0.0757887
-0.075995
-0.0762133
-0.0764431
-0.0766838
-0.0769349
-0.0771959
-0.0774664
-0.0777457
-0.0780335
-0.0783293
-0.0786327
-0.0789431
-0.0792602
-0.0795835
-0.0799126
)
;
    }
    procBoundary1to5
    {