/*--------------------------------*- C++ -*----------------------------------*\
  =========                 |
  \\      /  F ield         | OpenFOAM: The Open Source CFD Toolbox
   \\    /   O peration     | Website:  https://openfoam.org
    \\  /    A nd           | Version:  7
     \\/     M anipulation  |
\*---------------------------------------------------------------------------*/
FoamFile
{
    version     2.0;
    format      ascii;
    class       surfaceScalarField;
    location    "20";
    object      phi;
}
// * * * * * * * * * * * * * * * * * * * * * * * * * * * * * * * * * * * * * //

dimensions      [0 3 -1 0 0 0 0];

internalField   nonuniform List<scalar> 
5139
(
0.0315063
-0.00105404
0.031693
-0.000909727
0.0318686
-0.000763716
0.0320327
-0.00061604
0.032185
-0.000466741
0.0323251
-0.00031587
0.0324529
-0.000163483
0.0325678
-9.64736e-06
0.0326697
0.000145565
0.0327583
0.000301758
0.0328333
0.00045947
0.0328944
0.000618291
0.0329414
0.000778117
0.032974
0.000938838
0.0329922
0.00110034
0.0329956
0.00126249
0.0329842
0.00142518
0.00158827
0.00163211
4.41049e-05
0.00159112
4.09937e-05
0.00155328
3.78398e-05
0.00151864
3.46442e-05
0.00148723
3.14072e-05
0.0014591
2.81296e-05
0.00143429
2.48124e-05
0.00141283
2.14563e-05
0.00139477
1.80622e-05
0.00138014
1.46317e-05
0.00136897
1.11657e-05
0.0013613
7.66524e-06
0.00135717
4.13194e-06
0.00135661
5.67409e-07
-3.02698e-06
0.00135963
0.00161288
8.76819e-05
0.00157237
8.14953e-05
0.00153499
7.52245e-05
0.00150076
6.88702e-05
0.00146974
6.24339e-05
0.00144195
5.59169e-05
0.00141744
4.93212e-05
0.00139625
4.26482e-05
0.00137841
3.59001e-05
0.00136396
2.90791e-05
0.00135294
2.21874e-05
0.00134538
1.52277e-05
0.00134131
8.20267e-06
0.00134076
1.11524e-06
-6.03118e-06
0.00134377
0.00159387
0.000130735
0.00155385
0.000121509
0.00151692
0.000112158
0.00148311
0.000102682
0.00145246
9.30835e-05
0.00142501
8.33653e-05
0.0014008
7.35293e-05
0.00137987
6.35782e-05
0.00136226
5.35154e-05
0.00134799
4.33436e-05
0.00133711
3.30666e-05
0.00132965
2.26883e-05
0.00132564
1.22125e-05
0.00132511
1.64376e-06
-9.01311e-06
0.0013281
0.00157508
0.00017327
0.00153555
0.00016104
0.00149906
0.000148643
0.00146566
0.000136083
0.00143539
0.00012336
0.00140828
0.000110477
0.00138437
9.74393e-05
0.00136369
8.42491e-05
0.0013463
7.09102e-05
0.00133222
5.74272e-05
0.00132148
4.38048e-05
0.00131412
3.0048e-05
0.00131017
1.6162e-05
0.00130966
2.15279e-06
-1.1973e-05
0.00131262
0.00155652
0.000215291
0.00151747
0.000200092
0.00148142
0.000184686
0.00144843
0.000169077
0.00141852
0.000153266
0.00139174
0.000137257
0.00136813
0.000121054
0.00134771
0.000104663
0.00133054
8.80869e-05
0.00131663
7.13317e-05
0.00130604
5.44032e-05
0.00129878
3.73077e-05
0.00129489
2.00518e-05
0.0012944
2.64268e-06
-1.49113e-05
0.00129733
0.00153817
0.000256802
0.0014996
0.00023867
0.00146399
0.00022029
0.0014314
0.000201668
0.00140186
0.000182805
0.00137541
0.000163707
0.00135209
0.000144377
0.00133193
0.000124822
0.00131497
0.000105047
0.00130124
8.50588e-05
0.00129078
6.48634e-05
0.00128362
4.44685e-05
0.00127979
2.38824e-05
0.00127932
3.11355e-06
-1.78282e-05
0.00128224
0.00152005
0.00029781
0.00148194
0.000276778
0.00144677
0.00025546
0.00141458
0.00023386
0.0013854
0.000211982
0.00135928
0.000189831
0.00133624
0.000167411
0.00131634
0.00014473
0.00129959
0.000121794
0.00128604
9.86103e-05
0.00127571
7.51866e-05
0.00126865
5.15314e-05
0.00126488
2.76544e-05
0.00126443
3.56558e-06
-2.0724e-05
0.00126732
0.00150214
0.000338319
0.00146449
0.000314421
0.00142975
0.0002902
0.00139796
0.000265658
0.00136914
0.0002408
0.00134334
0.000215632
0.00132059
0.000190159
0.00130093
0.000164389
0.0012844
0.00013833
0.00127102
0.000111988
0.00126083
8.53744e-05
0.00125386
5.84977e-05
0.00125015
3.13686e-05
0.00124972
3.99885e-06
-2.35991e-05
0.00125259
0.00148444
0.000378334
0.00144726
0.000351605
0.00141294
0.000324514
0.00138153
0.000297065
0.00135307
0.000269263
0.00132759
0.000241113
0.00130513
0.000212624
0.00128571
0.000183802
0.00126939
0.000154656
0.00125618
0.000125194
0.00124613
9.54283e-05
0.00123926
6.5368e-05
0.0012356
3.50255e-05
0.00123518
4.41371e-06
-2.64535e-05
0.00123804
0.00146695
0.00041786
0.00143022
0.000388333
0.00139633
0.000358407
0.00136531
0.000328085
0.0013372
0.000297374
0.00131203
0.000266279
0.00128985
0.000234809
0.00127068
0.000202971
0.00125456
0.000170775
0.00124152
0.000138231
0.0012316
0.00010535
0.00122483
7.21438e-05
0.00122123
3.86259e-05
0.00122083
4.81041e-06
-2.92875e-05
0.00122366
0.00144967
0.000456903
0.00141339
0.000424612
0.00137991
0.000391883
0.00134928
0.000358723
0.00132151
0.000325137
0.00129666
0.000291132
0.00127475
0.000256716
0.00125582
0.000221899
0.00123991
0.000186689
0.00122704
0.000151099
0.00121725
0.00011514
0.00121057
7.88261e-05
0.00120702
4.21704e-05
0.00120665
5.18903e-06
-3.2101e-05
0.00120946
0.00143259
0.000495467
0.00139676
0.000460444
0.0013637
0.000424948
0.00133344
0.000388983
0.00130602
0.000352557
0.00128147
0.000315676
0.00125984
0.00027835
0.00124115
0.000240588
0.00122544
0.000202401
0.00121274
0.000163802
0.00120307
0.000124802
0.00119648
8.5416e-05
0.00119299
4.56598e-05
0.00119263
5.5501e-06
-3.48947e-05
0.00119543
0.00141572
0.000533559
0.00138033
0.000495836
0.00134767
0.000457604
0.00131779
0.000418869
0.00129071
0.000379636
0.00126647
0.000339915
0.00124511
0.000299713
0.00122665
0.000259042
0.00121114
0.000217914
0.0011986
0.00017634
0.00118907
0.000134335
0.00118257
9.19146e-05
0.00117913
4.90948e-05
0.00117879
5.89387e-06
-3.76683e-05
0.00118156
0.00139905
0.000571182
0.00136409
0.000530793
0.00133184
0.000489858
0.00130232
0.000448385
0.00127558
0.00040638
0.00125164
0.000363851
0.00123055
0.000320809
0.00121233
0.000277264
0.00119701
0.000233228
0.00118464
0.000188716
0.00117523
0.000143742
0.00116882
9.83233e-05
0.00116544
5.2476e-05
0.00116511
6.22046e-06
-4.04221e-05
0.00116787
0.00138258
0.000608343
0.00134805
0.000565318
0.0013162
0.000521714
0.00128705
0.000477535
0.00126063
0.000432791
0.001237
0.000387489
0.00121617
0.000341639
0.00119817
0.000295255
0.00118305
0.000248348
0.00117084
0.000200933
0.00116156
0.000153025
0.00115524
0.000104643
0.00115191
5.58044e-05
0.0011516
6.53053e-06
-4.31559e-05
0.00115433
0.0013663
0.000645047
0.0013322
0.000599418
0.00130074
0.000553175
0.00127195
0.000506324
0.00124587
0.000458873
0.00122252
0.000410831
0.00120196
0.000362209
0.00118419
0.000313019
0.00116926
0.000263275
0.00115721
0.000212991
0.00114805
0.000162185
0.00114181
0.000110875
0.00113854
5.90807e-05
0.00113824
6.82424e-06
-4.58702e-05
0.00114096
0.00135022
0.000681299
0.00131654
0.000633097
0.00128547
0.000584247
0.00125704
0.000534756
0.00123128
0.000484631
0.00120823
0.000433882
0.00118791
0.00038252
0.00117038
0.000330559
0.00115564
0.000278011
0.00114374
0.000224893
0.0011347
0.000171223
0.00112855
0.00011702
0.00112533
6.23056e-05
0.00112505
7.10205e-06
-4.85649e-05
0.00112774
0.00133433
0.000717103
0.00130107
0.00066636
0.00127038
0.000614935
0.0012423
0.000562835
0.00121686
0.000510069
0.0011941
0.000456645
0.00117404
0.000402577
0.00115672
0.000347876
0.00114218
0.000292559
0.00113043
0.000236641
0.00112151
0.000180142
0.00111545
0.000123081
0.00111227
6.54799e-05
0.00111201
7.36418e-06
-5.12396e-05
0.00111469
0.00131863
0.000752467
0.00128578
0.000699212
0.00125547
0.000645242
0.00122774
0.000590566
0.00120262
0.000535189
0.00118014
0.000479124
0.00116033
0.000422381
0.00114324
0.000364975
0.00112887
0.000306922
0.00111728
0.000248238
0.00110848
0.000188942
0.0011025
0.000129057
0.00109938
6.86046e-05
0.00109913
7.61134e-06
-5.38949e-05
0.00110178
0.00130312
0.000787393
0.00127067
0.000731657
0.00124074
0.000675174
0.00121335
0.000617952
0.00118854
0.000559997
0.00116635
0.000501321
0.00114679
0.000441937
0.00112991
0.000381858
0.00111573
0.000321101
0.00110428
0.000259684
0.0010956
0.000197626
0.00108971
0.00013495
0.00108663
7.16804e-05
0.0010864
7.84369e-06
-5.65307e-05
0.00108903
0.00128779
0.000821889
0.00125575
0.000763702
0.00122618
0.000704735
0.00119914
0.000644997
0.00117464
0.000584496
0.00115272
0.000523241
0.00113341
0.000461247
0.00111674
0.000398528
0.00110274
0.0003351
0.00109144
0.000270982
0.00108287
0.000206195
0.00107706
0.000140762
0.00107404
7.4708e-05
0.00107382
8.06162e-06
-5.91467e-05
0.00107643
0.00127265
0.000855959
0.001241
0.000795349
0.0012118
0.00073393
0.00118509
0.000671707
0.0011609
0.000608689
0.00113926
0.000544887
0.00112019
0.000480315
0.00110373
0.000414986
0.00108991
0.00034892
0.00107876
0.000282134
0.0010703
0.00021465
0.00106457
0.000146493
0.00106159
7.76885e-05
0.00106139
8.26564e-06
-6.17432e-05
0.00106398
0.00125768
0.000889607
0.00122643
0.000826606
0.0011976
0.000762762
0.00117122
0.000698085
0.00114733
0.000632581
0.00112595
0.000566263
0.00110712
0.000499143
0.00109087
0.000431238
0.00107723
0.000362564
0.00106622
0.000293142
0.00105788
0.000222994
0.00105222
0.000152145
0.00104929
8.06224e-05
0.0010491
8.45619e-06
-6.432e-05
0.00105168
0.0012429
0.00092284
0.00121203
0.000857475
0.00118356
0.000791237
0.00115751
0.000724135
0.00113391
0.000656175
0.00111281
0.000587371
0.00109421
0.000517735
0.00107817
0.000447283
0.0010647
0.000376034
0.00105383
0.000304008
0.0010456
0.000231228
0.00104002
0.000157719
0.00103714
8.35107e-05
0.00103696
8.6337e-06
-6.68772e-05
0.00103952
0.0012283
0.000955663
0.00119781
0.000887962
0.00116969
0.00081936
0.00114396
0.000749861
0.00112066
0.000679476
0.00109982
0.000608216
0.00108146
0.000536094
0.00106561
0.000463127
0.00105232
0.000389333
0.00104159
0.000314734
0.00103346
0.000239353
0.00102797
0.000163216
0.00102512
8.63542e-05
0.00102496
8.79859e-06
-6.94145e-05
0.0010275
0.00121387
0.00098808
0.00118376
0.000918073
0.00115599
0.000847133
0.00113058
0.000775268
0.00110757
0.000702487
0.00108698
0.0006288
0.00106885
0.000554223
0.00105321
0.000478771
0.00104008
0.000402463
0.00102949
0.000325322
0.00102147
0.000247371
0.00101605
0.000168638
0.00101325
8.91538e-05
0.0010131
8.95122e-06
-7.19322e-05
0.00101562
0.00119961
0.0010201
0.00116988
0.00094781
0.00114245
0.000874563
0.00111735
0.00080036
0.00109463
0.000725212
0.0010743
0.000649128
0.0010564
0.000572125
0.00104095
0.000494217
0.00102799
0.000415426
0.00101754
0.000335773
0.00100963
0.000255284
0.00100428
0.000173986
0.00100152
9.19102e-05
0.00100138
9.09202e-06
-7.44301e-05
0.00100388
0.00118553
0.00105172
0.00115616
0.000977181
0.00112907
0.000901653
0.00110429
0.000825141
0.00108185
0.000747654
0.00106177
0.000669203
0.00104409
0.000589802
0.00102884
0.00050947
0.00101604
0.000428225
0.00100573
0.000346091
0.000997916
0.000263093
0.000992642
0.00017926
0.000989928
9.46242e-05
0.000989798
9.22171e-06
-7.69081e-05
0.000992276
0.00117161
0.00114261
0.00100619
0.00111585
0.000928407
0.00109138
0.000849614
0.00106922
0.000769817
0.00104939
0.000689027
0.00103193
0.000607259
0.00101687
0.000524531
0.00100424
0.000440862
0.000994051
0.000356276
0.000986344
0.0002708
0.000981142
0.000184462
0.000978469
9.72967e-05
0.000978351
9.34038e-06
-7.93663e-05
0.000980809
0.00112922
0.00103484
0.00110279
0.000954831
0.00107862
0.000873785
0.00105674
0.000791705
0.00103716
0.000708605
0.00101992
0.000624498
0.00100505
0.000539403
0.000992569
0.000453339
0.000982514
0.000366331
0.000974908
0.000278406
0.000969777
0.000189594
0.000967145
9.99285e-05
0.000967037
9.4484e-06
-8.18044e-05
0.000969475
0.00111599
0.00106313
0.00108989
0.000980929
0.00106602
0.000897656
0.0010444
0.000813322
0.00102507
0.00072794
0.00100805
0.000641522
0.00099336
0.000554089
0.00098104
0.000465659
0.000971114
0.000376258
0.000963607
0.000285913
0.000958545
0.000194656
0.000955953
0.00010252
0.000955855
9.54659e-06
-8.42228e-05
0.000958273
0.00110292
0.00109108
0.00107715
0.0010067
0.00105357
0.000921232
0.00103222
0.000834672
0.00101312
0.000747034
0.000996313
0.000658334
0.000981811
0.00056859
0.000969647
0.000477823
0.000959847
0.000386058
0.000952437
0.000293322
0.000947444
0.000199649
0.000944891
0.000105073
0.000944803
9.63506e-06
-8.66209e-05
0.000947201
0.00109001
0.00111868
0.00106455
0.00103216
0.00104127
0.000944517
0.00102018
0.000855757
0.00100132
0.000765892
0.000984719
0.000674937
0.000970399
0.000582911
0.000958387
0.000489835
0.000948712
0.000395733
0.000941399
0.000300636
0.000936472
0.000204575
0.000933958
0.000107587
0.000933879
9.71419e-06
-8.89989e-05
0.000936257
0.00107725
0.00114594
0.00105211
0.0010573
0.00102911
0.000967515
0.00100828
0.000876582
0.00098966
0.000784517
0.000973263
0.000691334
0.000959121
0.000597053
0.00094726
0.000501695
0.000937708
0.000405286
0.000930489
0.000307855
0.000925629
0.000209435
0.000923153
0.000110064
0.000923082
9.78466e-06
-9.13569e-05
0.00092544
0.00106465
0.00117287
0.00103981
0.00108214
0.0010171
0.000990229
0.00099653
0.00089715
0.000978136
0.000802911
0.000961942
0.000707528
0.000947976
0.000611019
0.000936264
0.000513407
0.000926833
0.000414717
0.000919707
0.00031498
0.000914912
0.00021423
0.000912473
0.000112504
0.000912411
9.84662e-06
-9.36947e-05
0.000914748
0.00105219
0.00119946
0.00102766
0.00110667
0.00100523
0.00101266
0.000984916
0.000917464
0.000966748
0.000821078
0.000950755
0.000723521
0.000936963
0.000624812
0.000925398
0.000524972
0.000916085
0.00042403
0.000909051
0.000322014
0.000904321
0.00021896
0.000901917
0.000114908
0.000901863
9.90064e-06
-9.60123e-05
0.00090418
0.00103989
0.00122573
0.00101566
0.00113089
0.000993504
0.00103482
0.000973439
0.000937528
0.000955496
0.000839021
0.000939701
0.000739317
0.000926079
0.000638433
0.000914658
0.000536393
0.000905463
0.000433225
0.00089852
0.000328958
0.000893852
0.000223628
0.000891483
0.000117276
0.000891437
9.94697e-06
-9.83096e-05
0.000893734
0.00102773
0.00125168
0.0010038
0.00115482
0.000981917
0.00105671
0.000962099
0.000957346
0.000944377
0.000856744
0.000928776
0.000754917
0.000915324
0.000651886
0.000904045
0.000547672
0.000894966
0.000442304
0.000888111
0.000335813
0.000883505
0.000228234
0.000881171
0.00011961
0.000881132
9.98595e-06
-0.000100587
0.000883409
0.00101572
0.00127731
0.000992088
0.00117846
0.000970469
0.00107833
0.000950894
0.000976921
0.00093339
0.000874248
0.000917981
0.000770326
0.000904695
0.000665172
0.000893556
0.000558811
0.000884591
0.000451269
0.000877823
0.00034258
0.000873278
0.00023278
0.000870978
0.00012191
0.000870946
1.00182e-05
-0.000102843
0.000873203
0.00100386
0.00130262
0.000980511
0.00120181
0.000959157
0.00109968
0.000939822
0.000996256
0.000922532
0.000891538
0.000907313
0.000785545
0.000894191
0.000678295
0.00088319
0.000569811
0.000874337
0.000460122
0.000867656
0.000349261
0.00086317
0.000237265
0.000860903
0.000124177
0.000860878
1.00438e-05
-0.00010508
0.000863114
0.000992136
0.00132763
0.000969073
0.00122487
0.00094798
0.00112078
0.000928882
0.00101535
0.000911803
0.000908617
0.000896771
0.000800577
0.00088381
0.000691256
0.000872945
0.000580675
0.000864203
0.000468865
0.000857606
0.000355858
0.000853179
0.000241692
0.000850945
0.000126411
0.000850926
1.00632e-05
-0.000107296
0.000853142
0.000980553
0.00135233
0.000957772
0.00124765
0.000936936
0.00114161
0.000918071
0.00103422
0.000901201
0.000925487
0.000886353
0.000815426
0.000873551
0.000704058
0.000862821
0.000591406
0.000854187
0.000477499
0.000847673
0.000362371
0.000843304
0.000246061
0.000841102
0.000128613
0.000841088
1.00769e-05
-0.000109492
0.000843284
0.00096911
0.00137673
0.000946606
0.00127015
0.000926024
0.00116219
0.000907388
0.00105286
0.000890724
0.00094215
0.000876057
0.000830093
0.000863412
0.000716703
0.000852814
0.000602004
0.000844287
0.000486026
0.000837856
0.000368802
0.000833544
0.000250373
0.000831373
0.000130784
0.000831365
1.00849e-05
-0.000111667
0.00083354
0.000957803
0.00140083
0.000935573
0.00129238
0.000915241
0.00118253
0.000896832
0.00107126
0.000880371
0.000958612
0.000865883
0.000844581
0.000853392
0.000729193
0.000842924
0.000612472
0.000834503
0.000494447
0.000828153
0.000375153
0.000823896
0.00025463
0.000821756
0.000132925
0.000821753
1.00878e-05
-0.000113822
0.000823908
0.000946632
0.00142464
0.000924672
0.00131434
0.000904586
0.00120261
0.000886401
0.00108945
0.00087014
0.000974873
0.000855828
0.000858893
0.00084349
0.000741531
0.00083315
0.000622811
0.000824833
0.000502764
0.000818562
0.000381423
0.000814361
0.000258832
0.00081225
0.000135035
0.000812252
1.00857e-05
-0.000115957
0.000814387
0.000935595
0.00144817
0.000913901
0.00133604
0.000894058
0.00122245
0.000876093
0.00110742
0.000860029
0.000990937
0.000845891
0.000873031
0.000833703
0.000753719
0.00082349
0.000633024
0.000815276
0.000510978
0.000809083
0.000387616
0.000804935
0.00026298
0.000802854
0.000137116
0.00080286
1.00792e-05
-0.000118071
0.000804975
0.00092469
0.00147141
0.000903258
0.00135747
0.000883655
0.00124206
0.000865907
0.00112516
0.000850037
0.00100681
0.000836071
0.000886998
0.000824031
0.000765758
0.000813943
0.000643113
0.000805829
0.000519092
0.000799713
0.000393732
0.000795618
0.000267075
0.000793566
0.000139169
0.000793577
1.00682e-05
-0.000120166
0.000795671
0.000913916
0.00149436
0.000892742
0.00137865
0.000873376
0.00126142
0.000855842
0.0011427
0.000840164
0.00102248
0.000826366
0.000900796
0.000814472
0.000777652
0.000804506
0.000653078
0.000796492
0.000527106
0.000790452
0.000399771
0.000786409
0.000271117
0.000784385
0.000141193
0.0007844
1.00534e-05
-0.00012224
0.000786474
0.00090327
0.00151705
0.000882351
0.00139956
0.000863218
0.00128055
0.000845895
0.00116002
0.000830406
0.00103797
0.000816775
0.000914427
0.000805025
0.000789402
0.00079518
0.000662923
0.000787263
0.000535022
0.000781298
0.000405737
0.000777307
0.000275109
0.00077531
0.00014319
0.000775329
1.00347e-05
-0.000124293
0.000777382
0.000892751
0.00153945
0.000872084
0.00142023
0.000853181
0.00129946
0.000836066
0.00117714
0.000820763
0.00105328
0.000807296
0.000927895
0.000795688
0.00080101
0.000785962
0.000672649
0.000778142
0.000542842
0.00077225
0.000411628
0.000768309
0.000279051
0.000766339
0.000145159
0.000766362
1.00125e-05
-0.000126327
0.000768395
0.000882358
0.00156159
0.000861939
0.00144065
0.000843262
0.00131813
0.000826353
0.00119405
0.000811233
0.0010684
0.000797928
0.0009412
0.000786459
0.000812479
0.000776851
0.000682257
0.000769126
0.000550567
0.000763307
0.000417447
0.000759415
0.000282942
0.000757472
0.000147103
0.000757497
9.98698e-06
-0.00012834
0.000759511
0.000872089
0.00158347
0.000851914
0.00146083
0.000833461
0.00133659
0.000816754
0.00121075
0.000801816
0.00108333
0.000788669
0.000954347
0.000777339
0.000823809
0.000767846
0.000691749
0.000760215
0.000558198
0.000754467
0.000423195
0.000750624
0.000286785
0.000748707
0.00014902
0.000748735
9.95861e-06
-0.000130333
0.000750728
0.000861943
0.00160508
0.000842009
0.00148076
0.000823776
0.00135482
0.000807268
0.00122726
0.000792508
0.00109809
0.000779519
0.000967336
0.000768324
0.000835005
0.000758946
0.000701128
0.000751407
0.000565738
0.000745729
0.000428873
0.000741934
0.000290581
0.000740042
0.000150912
0.000740073
9.9274e-06
-0.000132307
0.000742047
0.000851918
0.00162644
0.000832221
0.00150046
0.000814205
0.00137283
0.000797894
0.00124357
0.00078331
0.00111268
0.000770476
0.00098017
0.000759415
0.000846066
0.000750149
0.000710393
0.000742701
0.000573186
0.000737092
0.000434482
0.000733344
0.000294329
0.000731477
0.000152779
0.000731511
9.8935e-06
-0.00013426
0.000733464
0.000842011
0.00164754
0.000822549
0.00151992
0.000804748
0.00139064
0.00078863
0.00125969
0.00077422
0.00112709
0.000761539
0.000992851
0.000750609
0.000856995
0.000741454
0.000719548
0.000734096
0.000580544
0.000728555
0.000440023
0.000724853
0.000298031
0.000723011
0.000154621
0.000723047
9.85731e-06
-0.000136193
0.00072498
0.000832223
0.00166839
0.000812992
0.00153915
0.000795402
0.00140823
0.000779475
0.00127561
0.000765236
0.00114133
0.000752705
0.00100538
0.000741906
0.000867794
0.00073286
0.000728594
0.00072559
0.000587815
0.000720116
0.000445496
0.00071646
0.000301687
0.000714641
0.00015644
0.00071468
9.81897e-06
-0.000138107
0.000716593
0.000822551
0.001689
0.000803547
0.00155816
0.000786166
0.00142561
0.000770428
0.00129135
0.000756357
0.0011554
0.000743975
0.00101776
0.000733304
0.000878465
0.000724366
0.000737532
0.000717182
0.000594998
0.000711775
0.000450904
0.000708163
0.000305298
0.000706368
0.000158235
0.000706409
9.77863e-06
-0.000140001
0.000708303
0.000812995
0.00170936
0.000794215
0.00157694
0.000777039
0.00144278
0.000761487
0.0013069
0.000747582
0.0011693
0.000735347
0.00103
0.000724802
0.00088901
0.00071597
0.000746364
0.000708872
0.000602096
0.000703529
0.000456247
0.000699962
0.000308865
0.00069819
0.000160007
0.000698232
9.73642e-06
-0.000141875
0.000700106
0.000803551
0.00172948
0.000784993
0.00159549
0.000768019
0.00145976
0.00075265
0.00132227
0.00073891
0.00118304
0.000726818
0.00104209
0.000716398
0.00089943
0.000707671
0.000755092
0.000700658
0.000609109
0.000695379
0.000461526
0.000691855
0.000312389
0.000690106
0.000161756
0.00069015
9.69272e-06
-0.00014373
0.000692004
0.000794217
0.000775877
0.000759103
0.000743916
0.000730337
0.000718389
0.000708092
0.000699468
0.000692538
0.000687322
0.000683841
0.000682114
0.00068216
0.000683995
0.00136627
-6.64198e-06
0.00137656
-1.02903e-05
0.00139053
-1.39625e-05
0.00140818
-1.76564e-05
0.00142955
-2.13697e-05
0.00145465
-2.50997e-05
0.0014835
-2.88437e-05
0.0015161
-3.25993e-05
0.00155246
-3.63632e-05
0.00159259
-4.01325e-05
0.0016365
-4.39042e-05
0.00168417
-4.76753e-05
0.00173561
-5.14426e-05
0.00179082
-5.52033e-05
0.00184977
-5.89539e-05
0.00191246
-6.26917e-05
0.00197888
-6.64136e-05
0.00204899
-7.01167e-05
0.00212279
-7.37983e-05
0.00220025
-7.74555e-05
0.00228133
-8.10856e-05
0.00236602
-8.46865e-05
0.00245427
-8.82551e-05
0.00254606
-9.17894e-05
0.00264135
-9.52873e-05
0.0027401
-9.87461e-05
0.00284226
-0.000102164
0.0029478
-0.000105539
0.00305667
-0.000108869
0.00316882
-0.000112152
0.00328421
-0.000115387
0.00340278
-0.000118571
0.00352448
-0.000121702
0.00364926
-0.00012478
-0.000127802
0.00135034
-1.32188e-05
0.00136052
-2.04725e-05
0.00137434
-2.77738e-05
0.0013918
-3.51181e-05
0.00141293
-4.25009e-05
0.00143775
-4.99169e-05
0.00146626
-5.7361e-05
0.00149849
-6.48275e-05
0.00153444
-7.23108e-05
0.00157411
-7.98048e-05
0.00161751
-8.73037e-05
0.00166464
-9.48012e-05
0.00171549
-0.000102291
0.00177005
-0.000109768
0.00182832
-0.000117224
0.00189028
-0.000124655
0.00195593
-0.000132055
0.00202523
-0.000139417
0.00209816
-0.000146736
0.00217471
-0.000154007
0.00225485
-0.000161224
0.00233855
-0.000168382
0.00242577
-0.000175477
0.00251649
-0.000182504
0.00261066
-0.000189458
0.00270824
-0.000196334
0.00280921
-0.00020313
0.00291351
-0.00020984
0.0030211
-0.00021646
0.00313194
-0.000222988
0.00324597
-0.000229419
0.00336315
-0.000235749
0.00348342
-0.000241976
0.00360673
-0.000248094
-0.000254103
0.00133461
-1.97313e-05
0.00134468
-3.0548e-05
0.00135835
-4.14355e-05
0.00137561
-5.23873e-05
0.00139651
-6.33962e-05
0.00142105
-7.4455e-05
0.00144924
-8.55555e-05
0.0014811
-9.66891e-05
0.00151664
-0.000107848
0.00155586
-0.000119023
0.00159876
-0.000130204
0.00164534
-0.000141384
0.0016956
-0.000152553
0.00174954
-0.000163701
0.00180713
-0.00017482
0.00186838
-0.0001859
0.00193326
-0.000196934
0.00200175
-0.000207911
0.00207384
-0.000218825
0.0021495
-0.000229666
0.0022287
-0.000240427
0.00231142
-0.000251101
0.00239762
-0.000261679
0.00248727
-0.000272157
0.00258034
-0.000282525
0.00267679
-0.000292779
0.00277657
-0.000302912
0.00287965
-0.000312917
0.00298597
-0.00032279
0.00309551
-0.000332523
0.0032082
-0.000342113
0.00332401
-0.000351553
0.00344287
-0.000360838
0.00356474
-0.000369963
-0.000378924
0.00131907
-2.61802e-05
0.00132904
-4.05178e-05
0.00134255
-5.49495e-05
0.00135963
-6.94664e-05
0.00138029
-8.40588e-05
0.00140456
-9.87171e-05
0.00143243
-0.000113431
0.00146393
-0.000128189
0.00149906
-0.000142979
0.00153783
-0.000157791
0.00158024
-0.000172613
0.00162629
-0.000187431
0.00167597
-0.000202234
0.00172928
-0.000217011
0.00178621
-0.000231748
0.00184674
-0.000246435
0.00191087
-0.000261059
0.00197856
-0.000275609
0.00204981
-0.000290074
0.00212459
-0.000304443
0.00220287
-0.000318706
0.00228462
-0.000332853
0.00236982
-0.000346875
0.00245842
-0.000360762
0.0025504
-0.000374505
0.00264572
-0.000388095
0.00274433
-0.000401526
0.0028462
-0.000414788
0.00295129
-0.000427874
0.00305954
-0.000440776
0.00317091
-0.000453487
0.00328536
-0.000466001
0.00340283
-0.000478309
0.00352327
-0.000490405
-0.000502284
0.00130372
-3.25665e-05
0.00131359
-5.03836e-05
0.00132695
-6.83176e-05
0.00134385
-8.63574e-05
0.00136428
-0.000104491
0.00138827
-0.000122707
0.00141583
-0.000140991
0.00144697
-0.00015933
0.0014817
-0.00017771
0.00152002
-0.000196116
0.00156195
-0.000214534
0.00160746
-0.000232948
0.00165657
-0.000251343
0.00170927
-0.000269705
0.00176554
-0.000288018
0.00182537
-0.000306268
0.00188875
-0.00032444
0.00195566
-0.00034252
0.00202608
-0.000360494
0.00209999
-0.00037835
0.00217736
-0.000396073
0.00225816
-0.000413653
0.00234236
-0.000431076
0.00242993
-0.000448332
0.00252083
-0.000465409
0.00261503
-0.000482298
0.0027125
-0.000498987
0.00281318
-0.000515467
0.00291703
-0.000531729
0.00302402
-0.000547762
0.00313409
-0.000563559
0.0032472
-0.00057911
0.00336329
-0.000594406
0.00348233
-0.00060944
-0.000624202
0.00128856
-3.88907e-05
0.00129832
-6.01464e-05
0.00131155
-8.15415e-05
0.00132825
-0.000103063
0.00134846
-0.000124696
0.00137218
-0.000146427
0.00139943
-0.00016824
0.00143021
-0.000190118
0.00146455
-0.000212045
0.00150244
-0.000234003
0.00154388
-0.000255974
0.00158887
-0.000277942
0.00163741
-0.000299887
0.0016895
-0.000321791
0.00174512
-0.000343638
0.00180426
-0.000365409
0.00186691
-0.000387086
0.00193304
-0.000408655
0.00200264
-0.000430097
0.00207569
-0.000451397
0.00215216
-0.00047254
0.00223202
-0.000493511
0.00231524
-0.000514296
0.00240179
-0.000534881
0.00249163
-0.000555254
0.00258473
-0.000575401
0.00268106
-0.00059531
0.00278056
-0.000614971
0.0028832
-0.000634371
0.00298894
-0.000653499
0.00309772
-0.000672345
0.00320951
-0.000690898
0.00332425
-0.000709148
0.0034419
-0.000727085
-0.000744698
0.00127359
-4.51536e-05
0.00128325
-6.98074e-05
0.00129633
-9.46228e-05
0.00131285
-0.000119585
0.00133283
-0.000144676
0.00135628
-0.000169881
0.00138323
-0.000195181
0.00141366
-0.000220557
0.00144761
-0.000245988
0.00148506
-0.000271457
0.00152603
-0.00029694
0.0015705
-0.000322419
0.00161849
-0.000347871
0.00166997
-0.000373277
0.00172495
-0.000398615
0.00178341
-0.000423865
0.00184533
-0.000449008
0.0019107
-0.000474023
0.00197949
-0.000498891
0.00205169
-0.000523596
0.00212727
-0.000548118
0.0022062
-0.00057244
0.00228845
-0.000596547
0.00237399
-0.000620422
0.00246279
-0.000644051
0.0025548
-0.000667418
0.00265
-0.00069051
0.00274835
-0.000713314
0.00284979
-0.000735815
0.0029543
-0.000758002
0.00306181
-0.000779862
0.0031723
-0.000801383
0.0032857
-0.000822552
0.00340197
-0.000843358
-0.00086379
0.00125879
-5.13559e-05
0.00126835
-7.93678e-05
0.00128129
-0.000107563
0.00129764
-0.000135925
0.00131739
-0.000164435
0.00134058
-0.000193073
0.00136722
-0.000221818
0.00139732
-0.00025065
0.00143087
-0.000279546
0.0014679
-0.000308482
0.00150839
-0.000337437
0.00155236
-0.000366385
0.00159979
-0.000395304
0.00165069
-0.000424169
0.00170503
-0.000452958
0.00176281
-0.000481646
0.00182401
-0.000510212
0.00188863
-0.000538634
0.00195662
-0.000566889
0.00202798
-0.000594957
0.00210268
-0.000622817
0.00218069
-0.000650452
0.00226199
-0.000677841
0.00234653
-0.000704968
0.0024343
-0.000731814
0.00252524
-0.000758364
0.00261934
-0.000784602
0.00271653
-0.000810511
0.0028168
-0.000836079
0.00292008
-0.000861289
0.00302635
-0.000886127
0.00313555
-0.000910581
0.00324763
-0.000934636
0.00336255
-0.000958279
-0.000981497
0.00124418
-5.74985e-05
0.00125364
-8.88287e-05
0.00126644
-0.000120364
0.0012826
-0.000152086
0.00130214
-0.000183973
0.00132507
-0.000216004
0.00135141
-0.000248155
0.00138116
-0.000280402
0.00141434
-0.000312721
0.00145094
-0.000345086
0.00149098
-0.00037747
0.00153444
-0.000409847
0.00158132
-0.000442191
0.00163163
-0.000474475
0.00168535
-0.000506674
0.00174246
-0.00053876
0.00180296
-0.000570709
0.00186682
-0.000602497
0.00193403
-0.000634098
0.00200456
-0.00066549
0.0020784
-0.000696651
0.0021555
-0.000727558
0.00223585
-0.000758192
0.00231942
-0.000788531
0.00240616
-0.000818558
0.00249605
-0.000848253
0.00258905
-0.000877599
0.00268511
-0.000906579
0.00278421
-0.000935175
0.00288629
-0.000963374
0.00299132
-0.000991157
0.00309925
-0.00101851
0.00321003
-0.00104542
0.00332362
-0.00107186
-0.00109784
0.00122975
-6.35817e-05
0.00123911
-9.81914e-05
0.00125177
-0.000133028
0.00126776
-0.00016807
0.00128708
-0.000203295
0.00130975
-0.000238678
0.00133579
-0.000274195
0.00136521
-0.000309818
0.001398
-0.000345519
0.00143419
-0.000381271
0.00147377
-0.000417045
0.00151673
-0.000452811
0.00156308
-0.00048854
0.00161281
-0.000524203
0.0016659
-0.000559771
0.00172236
-0.000595215
0.00178216
-0.000630508
0.00184528
-0.000665622
0.00191171
-0.00070053
0.00198143
-0.000735207
0.00205441
-0.000769628
0.00213062
-0.00080377
0.00221004
-0.000837609
0.00229263
-0.000871124
0.00237837
-0.000904294
0.00246721
-0.000937097
0.00255913
-0.000969516
0.00265408
-0.00100153
0.00275202
-0.00103312
0.00285292
-0.00106427
0.00295673
-0.00109497
0.00306341
-0.00112519
0.0031729
-0.00115491
0.00328517
-0.00118413
-0.00121283
0.00121548
-6.96065e-05
0.00122475
-0.000107457
0.00123728
-0.000145555
0.00125309
-0.000183879
0.00127219
-0.000222402
0.00129461
-0.000261099
0.00132036
-0.000299941
0.00134944
-0.0003389
0.00138187
-0.000377944
0.00141764
-0.000417044
0.00145676
-0.000456167
0.00149923
-0.000495282
0.00154505
-0.000534357
0.00159421
-0.000573359
0.00164669
-0.000612257
0.0017025
-0.000651019
0.00176161
-0.000689616
0.001824
-0.000728017
0.00188966
-0.000766193
0.00195857
-0.000804117
0.00203071
-0.000841761
0.00210604
-0.000879099
0.00218453
-0.000916107
0.00226617
-0.00095276
0.00235091
-0.000989036
0.00243873
-0.00102491
0.00252958
-0.00106037
0.00262343
-0.00109538
0.00272024
-0.00112993
0.00281996
-0.001164
0.00292257
-0.00119757
0.00302801
-0.00123062