/*--------------------------------*- C++ -*----------------------------------*\
  =========                 |
  \\      /  F ield         | OpenFOAM: The Open Source CFD Toolbox
   \\    /   O peration     | Website:  https://openfoam.org
    \\  /    A nd           | Version:  7
     \\/     M anipulation  |
\*---------------------------------------------------------------------------*/
FoamFile
{
    version     2.0;
    format      ascii;
    class       volScalarField;
    location    "35";
    object      p;
}
// * * * * * * * * * * * * * * * * * * * * * * * * * * * * * * * * * * * * * //

dimensions      [0 2 -2 0 0 0 0];

internalField   nonuniform List<scalar> 
10500
(
-0.39831
-0.386417
-0.367715
-0.341722
-0.315569
-0.287493
-0.261157
-0.234109
-0.213164
-0.187275
-0.399324
-0.386937
-0.36818
-0.342048
-0.315855
-0.287725
-0.261372
-0.234216
-0.213392
-0.186825
-0.401343
-0.387972
-0.369104
-0.342698
-0.316423
-0.288185
-0.261798
-0.234428
-0.213845
-0.185939
-0.404345
-0.389511
-0.370477
-0.34366
-0.317264
-0.288866
-0.262427
-0.234741
-0.214513
-0.184645
-0.408303
-0.391538
-0.372283
-0.344922
-0.318364
-0.289755
-0.263244
-0.23515
-0.215381
-0.182985
-0.413184
-0.39403
-0.374503
-0.346468
-0.319707
-0.290837
-0.264235
-0.235647
-0.216429
-0.181012
-0.418946
-0.396959
-0.377111
-0.348279
-0.321273
-0.292094
-0.26538
-0.236226
-0.217627
-0.17879
-0.42551
-0.400314
-0.380081
-0.350331
-0.323041
-0.293508
-0.266654
-0.236879
-0.21894
-0.176391
-0.432829
-0.404057
-0.383384
-0.352603
-0.324987
-0.295056
-0.268033
-0.237596
-0.220323
-0.173894
-0.440847
-0.408145
-0.386985
-0.355067
-0.327086
-0.296716
-0.269488
-0.238371
-0.221725
-0.171378
-0.449491
-0.412544
-0.390853
-0.357699
-0.32931
-0.298465
-0.270988
-0.239194
-0.223085
-0.168924
-0.458684
-0.417215
-0.394952
-0.360471
-0.331635
-0.300278
-0.272502
-0.240055
-0.224336
-0.166606
-0.468347
-0.422119
-0.399245
-0.363357
-0.334031
-0.30213
-0.273996
-0.240946
-0.225405
-0.164493
-0.4784
-0.427215
-0.403695
-0.366328
-0.336472
-0.303995
-0.275434
-0.241855
-0.226213
-0.162648
-0.488758
-0.43246
-0.408265
-0.369358
-0.33893
-0.305845
-0.276782
-0.242769
-0.226681
-0.161149
-0.499332
-0.43781
-0.412917
-0.372417
-0.341373
-0.307649
-0.278003
-0.243673
-0.226731
-0.160088
-0.510035
-0.44322
-0.417609
-0.375473
-0.34377
-0.309373
-0.27906
-0.244551
-0.226256
-0.159406
-0.520779
-0.448647
-0.422303
-0.378498
-0.346088
-0.310979
-0.279922
-0.245395
-0.22508
-0.158787
-0.531472
-0.454045
-0.426957
-0.381454
-0.348288
-0.312425
-0.280562
-0.246202
-0.22315
-0.159066
-0.541984
-0.459338
-0.431505
-0.384292
-0.350322
-0.313655
-0.280944
-0.246904
-0.220991
-0.165957
-0.552134
-0.464406
-0.435853
-0.386941
-0.352125
-0.314603
-0.281004
-0.247271
-0.219188
-0.186814
-0.562035
-0.469363
-0.440062
-0.389423
-0.353684
-0.315224
-0.280677
-0.247079
-0.216655
-0.193562
-0.571518
-0.474092
-0.444031
-0.391657
-0.354923
-0.315443
-0.279894
-0.246176
-0.213599
-0.194448
-0.580441
-0.478496
-0.447676
-0.39357
-0.355771
-0.315187
-0.278591
-0.244518
-0.210294
-0.193157
-0.588694
-0.482508
-0.450926
-0.395096
-0.356156
-0.314389
-0.27671
-0.242089
-0.206642
-0.190216
-0.596167
-0.486056
-0.453708
-0.396162
-0.356006
-0.31298
-0.27419
-0.238875
-0.202529
-0.185878
-0.602744
-0.489062
-0.455938
-0.396691
-0.355241
-0.310891
-0.270972
-0.234866
-0.197881
-0.180437
-0.608304
-0.491443
-0.457528
-0.396598
-0.353783
-0.308056
-0.267004
-0.230053
-0.192648
-0.174116
-0.612726
-0.493108
-0.458386
-0.395798
-0.351549
-0.304412
-0.26224
-0.224435
-0.186787
-0.167059
-0.615883
-0.493966
-0.458413
-0.394199
-0.348458
-0.299898
-0.256637
-0.218009
-0.18027
-0.159359
-0.617651
-0.493918
-0.457508
-0.391711
-0.344434
-0.294461
-0.250164
-0.210778
-0.173081
-0.151078
-0.617903
-0.492865
-0.455567
-0.388241
-0.339401
-0.288052
-0.242794
-0.202745
-0.165211
-0.142254
-0.616512
-0.490703
-0.452485
-0.3837
-0.33329
-0.280632
-0.234511
-0.193918
-0.156663
-0.13291
-0.613356
-0.487331
-0.44816
-0.378001
-0.326037
-0.272166
-0.225303
-0.184307
-0.147445
-0.123065
-0.608311
-0.482644
-0.442489
-0.371062
-0.317589
-0.262628
-0.215167
-0.173925
-0.137571
-0.112733
-0.601262
-0.47654
-0.435374
-0.362809
-0.307899
-0.252004
-0.204108
-0.162791
-0.127058
-0.101926
-0.592099
-0.468921
-0.426724
-0.353174
-0.29693
-0.240284
-0.192136
-0.150924
-0.11593
-0.0906584
-0.580732
-0.459702
-0.416458
-0.342101
-0.284657
-0.22747
-0.179267
-0.138349
-0.104211
-0.0789479
-0.567072
-0.448795
-0.404501
-0.329543
-0.271064
-0.213569
-0.165523
-0.125092
-0.0919297
-0.0668132
-0.550916
-0.436064
-0.390762
-0.315454
-0.256143
-0.198599
-0.150932
-0.111183
-0.0791137
-0.0542756
-0.53194
-0.421311
-0.375131
-0.299786
-0.239893
-0.182582
-0.135526
-0.0966538
-0.0657941
-0.0413598
-0.510821
-0.404833
-0.357741
-0.282605
-0.222358
-0.165558
-0.119344
-0.0815401
-0.0520045
-0.0280963
-0.487283
-0.386451
-0.338504
-0.263884
-0.203555
-0.147563
-0.102425
-0.0658801
-0.03778
-0.0145132
-0.46119
-0.366077
-0.317383
-0.243627
-0.183518
-0.128642
-0.0848156
-0.0497145
-0.0231655
-0.000635126
-0.432544
-0.343696
-0.294391
-0.221867
-0.162296
-0.108846
-0.0665631
-0.0330849
-0.00820747
0.0135069
-0.401373
-0.319316
-0.269556
-0.198649
-0.139946
-0.0882336
-0.0477192
-0.0160335
0.00711356
0.027827
-0.367716
-0.292953
-0.242918
-0.17403
-0.116534
-0.0668663
-0.0283395
0.00138429
0.0227179
0.0423294
-0.331628
-0.26464
-0.214537
-0.14808
-0.0921361
-0.044812
-0.00848174
0.0191282
0.0385631
0.0569711
-0.293188
-0.234431
-0.184487
-0.120878
-0.0668326
-0.022143
0.0117942
0.0371478
0.0546116
0.0717079
-0.252494
-0.202395
-0.15286
-0.0925186
-0.0407126
0.00106551
0.0324245
0.055391
0.0708223
0.086496
-0.209665
-0.16862
-0.119762
-0.0631029
-0.0138711
0.0247342
0.053344
0.0738042
0.087153
0.10129
-0.164842
-0.133218
-0.0853093
-0.0327453
0.0135914
0.0487805
0.0744851
0.0923326
0.103561
0.116042
-0.118183
-0.0963169
-0.0496337
-0.00156516
0.0415695
0.0731189
0.0957784
0.11092
0.120003
0.130701
-0.0698609
-0.058035
-0.0129058
0.0303096
0.0699538
0.097662
0.117153
0.12951
0.136435
0.145212
-0.0200736
-0.0185519
0.0247338
0.0627438
0.0986311
0.12232
0.138536
0.148042
0.152812
0.15951
0.0309551
0.0219727
0.0631157
0.0955962
0.127486
0.147002
0.159853
0.16646
0.16909
0.173527
0.0830053
0.0633456
0.10206
0.128721
0.1564
0.171616
0.181031
0.184704
0.185236
0.187194
0.135814
0.105359
0.141376
0.161969
0.185254
0.196068
0.201993
0.202721
0.201237
0.200418
0.189124
0.147801
0.180875
0.195187
0.213928
0.220267
0.222663
0.22046
0.217029
0.212966
0.242876
0.190536
0.220385
0.22823
0.242302
0.244119
0.242969
0.237856
0.23233
0.224334
0.297206
0.233489
0.259752
0.260953
0.270258
0.267532
0.262843
0.25484
0.246857
0.234105
0.350589
0.275976
0.298623
0.293164
0.297673
0.290418
0.282218
0.271359
0.261197
0.246076
0.40316
0.317934
0.336855
0.324725
0.324431
0.31269
0.301027
0.287348
0.275022
0.258401
0.454823
0.359195
0.374272
0.355492
0.350419
0.334259
0.319202
0.302757
0.288224
0.270282
0.505286
0.399516
0.410673
0.385317
0.375526
0.355043
0.336675
0.317537
0.300817
0.281584
0.554244
0.438654
0.445863
0.414056
0.399643
0.374959
0.353386
0.331642
0.312795
0.292321
0.601415
0.47638
0.479654
0.441569
0.422665
0.393931
0.369275
0.345026
0.324131
0.302473
0.646526
0.512469
0.511865
0.467724
0.444494
0.411883
0.384284
0.357646
0.334797
0.312008
0.689314
0.546705
0.542323
0.492393
0.465035
0.428746
0.398361
0.369461
0.344766
0.320899
0.729522
0.578881
0.570863
0.515455
0.484197
0.444452
0.411453
0.380435
0.354013
0.329123
0.766912
0.608803
0.59733
0.536799
0.501897
0.458938
0.423515
0.390531
0.362512
0.336664
0.801255
0.636286
0.621581
0.55632
0.518057
0.472148
0.434501
0.399717
0.370238
0.343502
0.832343
0.661163
0.643483
0.573922
0.532607
0.484028
0.444373
0.407961
0.377169
0.349623
0.859985
0.68328
0.662918
0.589518
0.545482
0.494531
0.453092
0.415238
0.383284
0.355013
0.88401
0.702499
0.679778
0.603031
0.556625
0.503614
0.460628
0.421522
0.388562
0.359658
0.904268
0.718701
0.693972
0.614395
0.565988
0.51124
0.466951
0.426792
0.392988
0.363546
0.920632
0.731785
0.705421
0.623554
0.573528
0.517378
0.472039
0.431031
0.396547
0.36667
0.933
0.741669
0.714063
0.630463
0.579212
0.522004
0.475871
0.434223
0.399226
0.36902
0.941294
0.748292
0.71985
0.635086
0.583015
0.525098
0.478435
0.436357
0.401018
0.37059
0.945463
0.751616
0.722752
0.637403
0.584921
0.526648
0.479719
0.437426
0.401916
0.371377
0.945463
0.751616
0.722752
0.637403
0.584921
0.526648
0.479719
0.437426
0.401916
0.371377
0.941294
0.748292
0.71985
0.635086
0.583015
0.525098
0.478435
0.436357
0.401018
0.37059
0.933
0.741669
0.714063
0.630463
0.579212
0.522004
0.475871
0.434223
0.399226
0.36902
0.920632
0.731785
0.705421
0.623554
0.573528
0.517378
0.472039
0.431031
0.396547
0.36667
0.904268
0.718701
0.693972
0.614395
0.565988
0.51124
0.466951
0.426792
0.392988
0.363546
0.88401
0.702499
0.679778
0.603031
0.556625
0.503614
0.460628
0.421522
0.388562
0.359658
0.859985
0.68328
0.662918
0.589518
0.545482
0.494531
0.453092
0.415238
0.383284
0.355013
0.832343
0.661163
0.643483
0.573922
0.532607
0.484028
0.444373
0.407961
0.377169
0.349623
0.801255
0.636286
0.621581
0.55632
0.518057
0.472148
0.434501
0.399717
0.370238
0.343502
0.766912
0.608803
0.59733
0.536799
0.501897
0.458938
0.423515
0.390531
0.362512
0.336664
0.729522
0.578881
0.570863
0.515455
0.484197
0.444452
0.411453
0.380435
0.354013
0.329123
0.689314
0.546705
0.542323
0.492393
0.465035
0.428746
0.398361
0.369461
0.344766
0.320899
0.646526
0.512469
0.511865
0.467724
0.444494
0.411883
0.384284
0.357646
0.334797
0.312008
0.601415
0.47638
0.479654
0.441569
0.422665
0.393931
0.369275
0.345026
0.324131
0.302473
0.554244
0.438654
0.445863
0.414056
0.399643
0.374959
0.353386
0.331642
0.312795
0.292321
0.505286
0.399516
0.410673
0.385317
0.375526
0.355043
0.336675
0.317537
0.300817
0.281584
0.454823
0.359195
0.374272
0.355492
0.350419
0.334259
0.319202
0.302757
0.288224
0.270282
0.40316
0.317934
0.336855
0.324725
0.324431
0.31269
0.301027
0.287348
0.275022
0.258401
0.350589
0.275976
0.298623
0.293164
0.297673
0.290418
0.282218
0.271359
0.261197
0.246076
0.297206
0.233489
0.259752
0.260953
0.270258
0.267532
0.262843
0.25484
0.246857
0.234105
0.242876
0.190536
0.220385
0.22823
0.242302
0.244119
0.242969
0.237856
0.23233
0.224334
0.189124
0.147801
0.180875
0.195187
0.213928
0.220267
0.222663
0.22046
0.217029
0.212966
0.135814
0.105359
0.141376
0.161969
0.185254
0.196068
0.201993
0.202721
0.201237
0.200418
0.0830053
0.0633456
0.10206
0.128721
0.1564
0.171616
0.181031
0.184704
0.185236
0.187194
0.0309551
0.0219727
0.0631157
0.0955962
0.127486
0.147002
0.159853
0.16646
0.16909
0.173527
-0.0200736
-0.0185519
0.0247338
0.0627438
0.0986311
0.12232
0.138536
0.148042
0.152812
0.15951
-0.0698609
-0.058035
-0.0129058
0.0303096
0.0699538
0.097662
0.117153
0.12951
0.136435
0.145212
-0.118183
-0.0963169
-0.0496337
-0.00156516
0.0415695
0.0731189
0.0957784
0.11092
0.120003
0.130701
-0.164842
-0.133218
-0.0853093
-0.0327453
0.0135914
0.0487805
0.0744851
0.0923326
0.103561
0.116042
-0.209665
-0.16862
-0.119762
-0.0631029
-0.0138711
0.0247342
0.053344
0.0738042
0.087153
0.10129
-0.252494
-0.202395
-0.15286
-0.0925186
-0.0407126
0.00106551
0.0324245
0.055391
0.0708223
0.086496
-0.293188
-0.234431
-0.184487
-0.120878
-0.0668326
-0.022143
0.0117942
0.0371478
0.0546116
0.0717079
-0.331628
-0.26464
-0.214537
-0.14808
-0.0921361
-0.044812
-0.00848174
0.0191282
0.0385631
0.0569711
-0.367716
-0.292953
-0.242918
-0.17403
-0.116534
-0.0668663
-0.0283395
0.00138429
0.0227179
0.0423294
-0.401373
-0.319316
-0.269556
-0.198649
-0.139946
-0.0882336
-0.0477192
-0.0160335
0.00711356
0.027827
-0.432544
-0.343696
-0.294391
-0.221867
-0.162296
-0.108846
-0.0665631
-0.0330849
-0.00820747
0.0135069
-0.46119
-0.366077
-0.317383
-0.243627
-0.183518
-0.128642
-0.0848156
-0.0497145
-0.0231655
-0.000635126
-0.487283
-0.386451
-0.338504
-0.263884
-0.203555
-0.147563
-0.102425
-0.0658801
-0.03778
-0.0145132
-0.510821
-0.404833
-0.357741
-0.282605
-0.222358
-0.165558
-0.119344
-0.0815401
-0.0520045
-0.0280963
-0.53194
-0.421311
-0.375131
-0.299786
-0.239893
-0.182582
-0.135526
-0.0966538
-0.0657941
-0.0413598
-0.550916
-0.436064
-0.390762
-0.315454
-0.256143
-0.198599
-0.150932
-0.111183
-0.0791137
-0.0542756
-0.567072
-0.448795
-0.404501
-0.329543
-0.271064
-0.213569
-0.165523
-0.125092
-0.0919297
-0.0668132
-0.580732
-0.459702
-0.416458
-0.342101
-0.284657
-0.22747
-0.179267
-0.138349
-0.104211
-0.0789479
-0.592099
-0.468921
-0.426724
-0.353174
-0.29693
-0.240284
-0.192136
-0.150924
-0.11593
-0.0906584
-0.601262
-0.47654
-0.435374
-0.362809
-0.307899
-0.252004
-0.204108
-0.162791
-0.127058
-0.101926
-0.608311
-0.482644
-0.442489
-0.371062
-0.317589
-0.262628
-0.215167
-0.173925
-0.137571
-0.112733
-0.613356
-0.487331
-0.44816
-0.378001
-0.326037
-0.272166
-0.225303
-0.184307
-0.147445
-0.123065
-0.616512
-0.490703
-0.452485
-0.3837
-0.33329
-0.280632
-0.234511
-0.193918
-0.156663
-0.13291
-0.617903
-0.492865
-0.455567
-0.388241
-0.339401
-0.288052
-0.242794
-0.202745
-0.165211
-0.142254
-0.617651
-0.493918
-0.457508
-0.391711
-0.344434
-0.294461
-0.250164
-0.210778
-0.173081
-0.151078
-0.615883
-0.493966
-0.458413
-0.394199
-0.348458
-0.299898
-0.256637
-0.218009
-0.18027
-0.159359
-0.612726
-0.493108
-0.458386
-0.395798
-0.351549
-0.304412
-0.26224
-0.224435
-0.186787
-0.167059
-0.608304
-0.491443
-0.457528
-0.396598
-0.353783
-0.308056
-0.267004
-0.230053
-0.192648
-0.174116
-0.602744
-0.489062
-0.455938
-0.396691
-0.355241
-0.310891
-0.270972
-0.234866
-0.197881
-0.180437
-0.596167
-0.486056
-0.453708
-0.396162
-0.356006
-0.31298
-0.27419
-0.238875
-0.202529
-0.185878
-0.588694
-0.482508
-0.450926
-0.395096
-0.356156
-0.314389
-0.27671
-0.242089
-0.206642
-0.190216
-0.580441
-0.478496
-0.447676
-0.39357
-0.355771
-0.315187
-0.278591
-0.244518
-0.210294
-0.193157
-0.571518
-0.474092
-0.444031
-0.391657
-0.354923
-0.315443
-0.279894
-0.246176
-0.213599
-0.194448
-0.562035
-0.469363
-0.440062
-0.389423
-0.353684
-0.315224
-0.280677
-0.247079
-0.216655
-0.193562
-0.552134
-0.464406
-0.435853
-0.386941
-0.352125
-0.314603
-0.281004
-0.247271
-0.219188
-0.186814
-0.541984
-0.459338
-0.431505
-0.384292
-0.350322
-0.313655
-0.280944
-0.246904
-0.220991
-0.165957
-0.531472
-0.454045
-0.426957
-0.381454
-0.348288
-0.312425
-0.280562
-0.246202
-0.22315
-0.159066
-0.520779
-0.448647
-0.422303
-0.378498
-0.346088
-0.310979
-0.279922
-0.245395
-0.22508
-0.158787
-0.510035
-0.44322
-0.417609
-0.375473
-0.34377
-0.309373
-0.27906
-0.244551
-0.226256
-0.159406
-0.499332
-0.43781
-0.412917
-0.372417
-0.341373
-0.307649
-0.278003
-0.243673
-0.226731
-0.160088
-0.488758
-0.43246
-0.408265
-0.369358
-0.33893
-0.305845
-0.276782
-0.242769
-0.226681
-0.161149
-0.4784
-0.427215
-0.403695
-0.366328
-0.336472
-0.303995
-0.275434
-0.241855
-0.226213
-0.162648
-0.468347
-0.422119
-0.399245
-0.363357
-0.334031
-0.30213
-0.273996
-0.240946
-0.225405
-0.164493
-0.458684
-0.417215
-0.394952
-0.360471
-0.331635
-0.300278
-0.272502
-0.240055
-0.224336
-0.166606
-0.449491
-0.412544
-0.390853
-0.357699
-0.32931
-0.298465
-0.270988
-0.239194
-0.223085
-0.168924
-0.440847
-0.408145
-0.386985
-0.355067
-0.327086
-0.296716
-0.269488
-0.238371
-0.221725
-0.171378
-0.432829
-0.404057
-0.383384
-0.352603
-0.324987
-0.295056
-0.268033
-0.237596
-0.220323
-0.173894
-0.42551
-0.400314
-0.380081
-0.350331
-0.323041
-0.293508
-0.266654
-0.236879
-0.21894
-0.176391
-0.418946
-0.396959
-0.377111
-0.348279
-0.321273
-0.292094
-0.26538
-0.236226
-0.217627
-0.17879
-0.413184
-0.39403
-0.374503
-0.346468
-0.319707
-0.290837
-0.264235
-0.235647
-0.216429
-0.181012
-0.408303
-0.391538
-0.372283
-0.344922
-0.318364
-0.289755
-0.263244
-0.23515
-0.215381
-0.182985
-0.404345
-0.389511
-0.370477
-0.34366
-0.317264
-0.288866
-0.262427
-0.234741
-0.214513
-0.184645
-0.401343
-0.387972
-0.369104
-0.342698
-0.316423
-0.288185
-0.261798
-0.234428
-0.213845
-0.185939
-0.399324
-0.386937
-0.36818
-0.342048
-0.315855
-0.287725
-0.261372
-0.234216
-0.213392
-0.186825
-0.39831
-0.386417
-0.367715
-0.341722
-0.315569
-0.287493
-0.261157
-0.234109
-0.213164
-0.187275
-0.179075
-0.171232
-0.163063
-0.155224
-0.147506
-0.139932
-0.132555
-0.125393
-0.118463
-0.111777
-0.105347
-0.0991802
-0.0932818
-0.0876542
-0.082297
-0.0772081
-0.0723829
-0.0678152
-0.0634972
-0.0594198
-0.0555728
-0.0519453
-0.0485258
-0.0453025
-0.0422634
-0.0393967
-0.0366905
-0.0341336
-0.0317149
-0.029424
-0.0272511
-0.0251869
-0.0232231
-0.021351
-0.0195654
-0.0178559
-0.0162237
-0.01465
-0.0131556
-0.0116885
-0.0103316
-0.00892444
-0.00774282
-0.00628996
-0.00542368
-0.00364338
-0.00351847
-0.000622417
-0.00247141
0.00379449
-0.179661
-0.171649
-0.163337
-0.155457
-0.147705
-0.140103
-0.132706
-0.125529
-0.118586
-0.11189
-0.105451
-0.0992768
-0.0933718
-0.0877381
-0.0823755
-0.0772815
-0.0724515
-0.0678793
-0.063557
-0.0594755
-0.0556246
-0.0519934
-0.0485704
-0.0453437
-0.0423015
-0.0394317
-0.0367228
-0.0341631
-0.0317419
-0.0294486
-0.0272735
-0.0252072
-0.0232415
-0.0213676
-0.0195803
-0.0178692
-0.0162357
-0.0146606
-0.0131649
-0.0116967
-0.0103388
-0.00893082
-0.00774815
-0.00629503
-0.00542719
-0.00364817
-0.00351955
-0.000629703
-0.00246747
0.00377552
-0.180818
-0.172478
-0.163882
-0.155921
-0.148103
-0.140445
-0.133008
-0.1258
-0.118831
-0.112115
-0.105659
-0.0994697
-0.0935515
-0.0879058
-0.0825323
-0.0774281
-0.0725886
-0.0680074
-0.0636766
-0.0595869
-0.0557283
-0.0520897
-0.0486596
-0.0454263
-0.0423777
-0.0395019
-0.0367872
-0.0342222
-0.0317959
-0.0294979
-0.0273183
-0.0252478
-0.0232782
-0.0214008
-0.0196101
-0.0178959
-0.0162595
-0.0146818
-0.0131837
-0.0117133
-0.0103532
-0.00894358
-0.00775881
-0.00630515
-0.00543422
-0.00365774
-0.00352173
-0.000644231
-0.00245965
0.00373776
-0.182519
-0.173707
-0.164695
-0.156612
-0.148697
-0.140955
-0.133458
-0.126203
-0.119198
-0.112451
-0.105969
-0.0997579
-0.09382
-0.0881567
-0.0827669
-0.0776476
-0.072794
-0.0681994
-0.0638558
-0.059754
-0.0558838
-0.0522341
-0.0487935
-0.0455501
-0.042492
-0.0396072
-0.0368839
-0.0343108
-0.031877
-0.0295718
-0.0273856
-0.0253088
-0.0233334
-0.0214505
-0.0196547
-0.0179359
-0.0162952
-0.0147135
-0.0132117
-0.011738
-0.0103747
-0.0089627
-0.00777477
-0.00632031
-0.00544475
-0.00367207
-0.00352503
-0.000665914
-0.00244805
0.00368159
-0.184719
-0.175315
-0.165767
-0.157526
-0.149481
-0.141629
-0.134052
-0.126737
-0.119683
-0.112896
-0.10638
-0.10014
-0.0941761
-0.0884896
-0.0830786
-0.0779395
-0.0730673
-0.068455
-0.0640946
-0.0599767
-0.0560911
-0.0524268
-0.0489721
-0.0457154
-0.0426445
-0.0397476
-0.037013
-0.0344291
-0.0319851
-0.0296704
-0.0274752
-0.0253901
-0.0234069
-0.0215167
-0.0197143
-0.0179892
-0.0163427
-0.0147557
-0.013249
-0.011771
-0.0104034
-0.00898814
-0.00779602
-0.00634047
-0.00545878
-0.0036911
-0.00352948
-0.000694619
-0.0024328
0.00360758
-0.187354
-0.177274
-0.167085
-0.158651
-0.150448
-0.142462
-0.134787
-0.127397
-0.120282
-0.113446
-0.106889
-0.100613
-0.0946179
-0.0889032
-0.0834662
-0.0783029
-0.0734078
-0.0687738
-0.0643926
-0.0602548
-0.0563501
-0.0526675
-0.0491954
-0.045922
-0.0428352
-0.0399232
-0.0371743
-0.034577
-0.0321202
-0.0297936
-0.0275872
-0.0254916
-0.0234987
-0.0215994
-0.0197886
-0.0180557
-0.016402
-0.0148084
-0.0132956
-0.011812
-0.0104392
-0.00901986
-0.0078225
-0.0063656
-0.00547629
-0.00371478
-0.00353511
-0.000730176
-0.00241412
0.00351646
-0.190344
-0.179542
-0.16863
-0.159974
-0.151588
-0.143444
-0.135654
-0.128176
-0.12099
-0.114097
-0.107492
-0.101175
-0.0951432
-0.0893956
-0.0839283
-0.0787367
-0.0738147
-0.0691551
-0.0647494
-0.060588
-0.0566606
-0.0529562
-0.0494632
-0.0461699
-0.0430641
-0.040134
-0.037368
-0.0347544
-0.0322824
-0.0299414
-0.0277216
-0.0256134
-0.0236087
-0.0216986
-0.0198776
-0.0181353
-0.016473
-0.0148715
-0.0133514
-0.0118612
-0.010482
-0.00905778
-0.00785418
-0.00639565
-0.00549725
-0.00374305
-0.00354197
-0.000772372
-0.00239222
0.00340912
-0.193592
-0.182063
-0.170375
-0.161475
-0.152886
-0.144564
-0.136645
-0.129067
-0.121802
-0.114843
-0.108185
-0.101821
-0.0957491
-0.0899647
-0.0844633
-0.0792396
-0.0742871
-0.0695983
-0.0651644
-0.0609759
-0.0570223
-0.0532927
-0.0497756
-0.046459
-0.0433311
-0.04038
-0.0375939
-0.0349614
-0.0324716
-0.0301138
-0.0278782
-0.0257554
-0.023737
-0.0218141
-0.0199813
-0.0182281
-0.0165557
-0.0149448
-0.0134161
-0.0119183
-0.0105318
-0.00910185
-0.00789099
-0.00643054
-0.00552166
-0.0037758
-0.00355013
-0.000820962
-0.00236739
0.0032866
-0.196982
-0.184765
-0.172283
-0.163128
-0.15432
-0.145807
-0.137747
-0.13006
-0.122708
-0.115679
-0.108962
-0.102549
-0.0964324
-0.0906077
-0.085069
-0.07981
-0.0748237
-0.0701023
-0.065637
-0.061418
-0.0574349
-0.0536768
-0.0501322
-0.0467892
-0.0436361
-0.040661
-0.037852
-0.0351979
-0.0326877
-0.0303107
-0.0280571
-0.0259174
-0.0238833
-0.0219458
-0.0200994
-0.0183337
-0.0166498
-0.0150283
-0.0134899
-0.0119833
-0.0105884
-0.00915198
-0.00793286
-0.00647021
-0.00554947
-0.00381295
-0.00355962
-0.000875668
-0.00233992
0.00315007
-0.200383
-0.187563
-0.174309
-0.164899
-0.155866
-0.147153
-0.138944
-0.131143
-0.1237
-0.116597
-0.109819
-0.103352
-0.0971891
-0.0913216
-0.085743
-0.0804459
-0.0754231
-0.0706662
-0.0661662
-0.0619136
-0.0578979
-0.0541081
-0.0505328
-0.0471604
-0.043979
-0.0409768
-0.0381422
-0.0354638
-0.0329305
-0.0305319
-0.028258
-0.0260993
-0.0240475
-0.0220936
-0.020232
-0.0184521
-0.0167552
-0.0151219
-0.0135725
-0.0120561
-0.0106517
-0.00920805
-0.00797972
-0.00651456
-0.00558065
-0.00385439
-0.00357053
-0.000936183
-0.00231015
0.00300079
-0.203653
-0.190352
-0.176395
-0.166745
-0.157489
-0.148578
-0.14022
-0.132302
-0.124765
-0.117588
-0.110747
-0.104226
-0.0980148
-0.092103
-0.0864825
-0.0811453
-0.0760834
-0.0712884
-0.0667511
-0.0624619
-0.0584105
-0.054586
-0.050977
-0.0475721
-0.0443595
-0.0413274
-0.0384643
-0.0357588
-0.0332
-0.0307773
-0.0284808
-0.026301
-0.0242295
-0.0222572
-0.0203787
-0.0185832
-0.0168719
-0.0152253
-0.0136637
-0.0121365
-0.0107217
-0.00926997
-0.00803146
-0.00656352
-0.00561516
-0.00389998
-0.00358292
-0.00100218
-0.00227844
0.00284013
-0.206647
-0.193017
-0.178469
-0.168614
-0.159151
-0.150052
-0.141551
-0.133519
-0.125893
-0.118641
-0.111739
-0.105164
-0.0989047
-0.0929479
-0.0872844
-0.0819055
-0.0768028
-0.0719674
-0.0673903
-0.063062
-0.0589721
-0.0551099
-0.0514643
-0.048024
-0.0447772
-0.0417124
-0.038818
-0.0360828
-0.0334959
-0.0310467
-0.0287254
-0.0265223
-0.0244291
-0.0224367
-0.0205395
-0.0187267
-0.0169996
-0.0153384
-0.0137635
-0.0122244
-0.0107981
-0.00933761
-0.008088
-0.00661696
-0.00565296
-0.00394959
-0.00359685
-0.00107329
-0.00224515
0.00266952
-0.209217
-0.19543
-0.180453
-0.170443
-0.160803
-0.151542
-0.142913
-0.134778
-0.127068
-0.119747
-0.112786
-0.106161
-0.0998536
-0.0938522
-0.0881455
-0.0827241
-0.077579
-0.0727016
-0.0680826
-0.0637127
-0.0595817
-0.0556792
-0.0519943
-0.0485156
-0.0452318
-0.0421314
-0.0392031
-0.0364355
-0.033818
-0.0313399
-0.0289914
-0.0267629
-0.024646
-0.0226316
-0.0207141
-0.0188825
-0.0171381
-0.0154611
-0.0138717
-0.0123196
-0.0108808
-0.00941084
-0.00814922
-0.00667478
-0.00569399
-0.00400309
-0.0036124
-0.00114917
-0.00221067
0.0024904
-0.211227
-0.197464
-0.182257
-0.172164
-0.162395
-0.153009
-0.144277
-0.136057
-0.128275
-0.120894
-0.113881
-0.107208
-0.100856
-0.0948116
-0.0890622
-0.083598
-0.07841
-0.0734891
-0.0688265
-0.064413
-0.0602386
-0.0562932
-0.0525662
-0.0490465
-0.045723
-0.0425843
-0.0396192
-0.0368167
-0.034166
-0.0316566
-0.0292787
-0.0270226
-0.0248801
-0.0228418
-0.0209022
-0.0190503
-0.0172872
-0.0155931
-0.013988
-0.0124219
-0.0109698
-0.00948951
-0.008215
-0.00673684
-0.0057382
-0.00406032
-0.00362963
-0.00122943
-0.00217539
0.00230428
-0.212564
-0.198994
-0.183783
-0.173691
-0.163859
-0.154405
-0.145608
-0.137327
-0.129492
-0.122065
-0.115008
-0.108294
-0.101903
-0.0958182
-0.090028
-0.084522
-0.0792908
-0.0743259
-0.0696186
-0.0651598
-0.0609401
-0.0569497
-0.0531782
-0.049615
-0.0462491
-0.0430695
-0.0400652
-0.0372252
-0.0345389
-0.0319959
-0.0295864
-0.0273007
-0.0251306
-0.0230667
-0.0211034
-0.0192296
-0.0174464
-0.015734
-0.014112
-0.012531
-0.0110646
-0.00957337
-0.00828514
-0.00680296
-0.00578547
-0.00412106
-0.0036486
-0.00131366
-0.00213973
0.00211264
-0.213088
-0.199855
-0.184899
-0.174918
-0.165116
-0.155671
-0.146861
-0.138556
-0.130694
-0.123238
-0.116151
-0.109406
-0.102981
-0.096861
-0.0910331
-0.0854871
-0.0802139
-0.0752052
-0.0704526
-0.0659476
-0.0616812
-0.0576441
-0.0538263
-0.0502175
-0.0468071
-0.0435844
-0.0405386
-0.0376589
-0.0349349
-0.0323562
-0.0299131
-0.0275959
-0.0253965
-0.0233052
-0.0213167
-0.0194196
-0.0176152
-0.0158832
-0.0142434
-0.0126465
-0.0111649
-0.00966211
-0.00835939
-0.0068729
-0.00583569
-0.00418509
-0.00366933
-0.00140141
-0.00210409
0.00191695
-0.212545
-0.199882
-0.185526
-0.175807
-0.166157
-0.156812
-0.148047
-0.139758
-0.131897
-0.12443
-0.117325
-0.110556
-0.104104
-0.0979519
-0.0920883
-0.0865033
-0.0811881
-0.0761349
-0.0713359
-0.0667831
-0.0624681
-0.058382
-0.0545155
-0.0508586
-0.0474011
-0.0441327
-0.0410429
-0.0381209
-0.0353567
-0.0327399
-0.0302609
-0.0279101
-0.0256793
-0.023559
-0.0215436
-0.0196216
-0.0177944
-0.0160416
-0.0143828
-0.0127691
-0.0112713
-0.00975617
-0.00843813
-0.00694695
-0.00588909
-0.00425254
-0.00369204
-0.00149253
-0.00206878
0.00171844
-0.211209
-0.199328
-0.185814
-0.176444
-0.167055
-0.157901
-0.149242
-0.141009
-0.133173
-0.125711
-0.118598
-0.111811
-0.105333
-0.0991499
-0.0932496
-0.0876233
-0.0822631
-0.0771618
-0.0723122
-0.067707
-0.0633385
-0.0591985
-0.0552779
-0.0515677
-0.0480579
-0.0447387
-0.0415997
-0.0386307
-0.0358216
-0.0331624
-0.0306434
-0.0282552
-0.0259895
-0.0238367
-0.0217914
-0.0198419
-0.0179895
-0.0162138
-0.014534
-0.0129017
-0.0113863
-0.00985762
-0.00852295
-0.00702642
-0.00594664
-0.00432418
-0.00371718
-0.00158747
-0.00203373
0.00151796
-0.210588
-0.198102
-0.185185
-0.176158
-0.167191
-0.158405
-0.149999
-0.141937
-0.134216
-0.126828
-0.119759
-0.112995
-0.106524
-0.100334
-0.0944159
-0.0887635
-0.0833699
-0.078229
-0.0733348
-0.0686812
-0.0642613
-0.0600678
-0.0560928
-0.0523276
-0.0487633
-0.0453903
-0.0421991
-0.0391796
-0.0363221
-0.0336169
-0.0310545
-0.0286255
-0.0263218
-0.0241337
-0.0220559
-0.0200765
-0.0181967
-0.0163962
-0.0146937
-0.0130416
-0.0115072
-0.00996405
-0.00861181
-0.00710944
-0.00600693
-0.00439859
-0.00374414
-0.00168498
-0.00199949
0.00131766
-0.204994
-0.192853
-0.181579
-0.173298
-0.165121
-0.157012
-0.149117
-0.141442
-0.134015
-0.126851
-0.119953
-0.113318
-0.106945
-0.100828
-0.0949636
-0.0893473
-0.0839756
-0.0788449
-0.073951
-0.0692894
-0.0648549
-0.0606413
-0.0566421
-0.0528495
-0.0492556
-0.0458517
-0.0426288
-0.0395776
-0.0366888
-0.033953
-0.0313611
-0.0289039
-0.0265735
-0.0243603
-0.0222591
-0.0202579
-0.0183582
-0.0165393
-0.0148201
-0.013153
-0.0116044
-0.0100507
-0.00868481
-0.00717916
-0.00605787
-0.00446417
-0.00376819
-0.00177506
-0.00197131
0.00112525
-0.177486
-0.189494
-0.181207
-0.173222
-0.165193
-0.157109
-0.1492
-0.141501
-0.13405
-0.126862
-0.119943
-0.113291
-0.106904
-0.100775
-0.0949021
-0.0892799
-0.0839048
-0.0787728
-0.0738796
-0.0692203
-0.0647895
-0.0605808
-0.0565872
-0.0528011
-0.049214
-0.045817
-0.0426011
-0.0395567
-0.0366745
-0.0339448
-0.0313586
-0.0289065
-0.0265806
-0.0243712
-0.0222733
-0.0202748
-0.0183773
-0.0165599
-0.0148419
-0.0131756
-0.0116272
-0.0100744
-0.00870684
-0.00720495
-0.00607675
-0.00449693
-0.00377882
-0.00182967
-0.00195923
0.000986245
-0.166881
-0.184559
-0.177747
-0.170608
-0.163203
-0.15554
-0.147952
-0.140508
-0.133261
-0.126242
-0.119461
-0.112925
-0.106634
-0.100586
-0.0947801
-0.089214
-0.0838853
-0.0787912
-0.0739286
-0.0692936
-0.0648814
-0.0606866
-0.0567028
-0.0529229
-0.0493391
-0.0459431
-0.042726
-0.0396789
-0.0367926
-0.0340579
-0.031466
-0.0290078
-0.0266754
-0.0244595
-0.0223549
-0.0203499
-0.018446
-0.0166226
-0.0148986
-0.0132272
-0.011673
-0.0101168
-0.00874267
-0.00724137
-0.00610232
-0.0045338
-0.00379031
-0.00188244
-0.00194194
0.000872016
-0.162809
-0.179269
-0.173362
-0.167082
-0.160393
-0.153268
-0.146107
-0.139012
-0.132052
-0.12527
-0.118689
-0.11232
-0.10617
-0.100242
-0.0945373
-0.0890564
-0.0837989
-0.0787638
-0.0739494
-0.0693531
-0.0649712
-0.0607995
-0.0568324
-0.0530639
-0.0494868
-0.0460936
-0.0428763
-0.0398264
-0.0369353
-0.0341943
-0.0315951
-0.0291287
-0.0267879
-0.0245632
-0.02245
-0.0204365
-0.0185244
-0.0166934
-0.0149619
-0.0132844
-0.0117231
-0.0101632
-0.00878096
-0.00728127
-0.00612875
-0.00457486
-0.00380024
-0.00194268
-0.00191722
0.000746709
-0.159918
-0.174228
-0.169197
-0.163593
-0.15754
-0.150929
-0.14419
-0.137442
-0.130772
-0.124233
-0.117856
-0.11166
-0.105657
-0.099854
-0.0942554
-0.0888642
-0.0836821
-0.0787098
-0.073947
-0.0693925
-0.0650439
-0.0608977
-0.0569496
-0.0531943
-0.0496257
-0.046237
-0.0430207
-0.039969
-0.0370741
-0.0343276
-0.0317217
-0.0292477
-0.0268988
-0.0246658
-0.0225442
-0.0205226
-0.0186024
-0.0167641
-0.0150251
-0.0133417
-0.0117732
-0.0102101
-0.00881944
-0.00732193
-0.00615537
-0.00461738
-0.00381
-0.00200573
-0.00189092
0.000615293
-0.15732
-0.169304
-0.165149
-0.160105
-0.154625
-0.148516
-0.142194
-0.135799
-0.129427
-0.123138
-0.116974
-0.110959
-0.10511
-0.0994377
-0.0939504
-0.0886535
-0.0835507
-0.0786446
-0.0739364
-0.0694262
-0.0651127
-0.0609939
-0.0570662
-0.0533254
-0.0497662
-0.0463826
-0.0431679
-0.040115
-0.0372165
-0.0344647
-0.0318521
-0.0293706
-0.0270135
-0.0247721
-0.0226419
-0.020612
-0.0186835
-0.0168377
-0.0150911
-0.0134016
-0.0118257
-0.0102592
-0.00885988
-0.00736468
-0.00618348
-0.00466204
-0.00382061
-0.00207158
-0.00186404
0.000478126
-0.154851
-0.16443
-0.161061
-0.156519
-0.151574
-0.145961
-0.140065
-0.134037
-0.127976
-0.121955
-0.116017
-0.110196
-0.104512
-0.0989812
-0.093614
-0.088419
-0.083402
-0.0785675
-0.0739184
-0.0694563
-0.0651812
-0.0610922
-0.0571869
-0.0534621
-0.0499134
-0.0465356
-0.043323
-0.0402691
-0.0373671
-0.0346098
-0.0319903
-0.0295009
-0.0271352
-0.024885
-0.0227458
-0.0207071