/*--------------------------------*- C++ -*----------------------------------*\
  =========                 |
  \\      /  F ield         | OpenFOAM: The Open Source CFD Toolbox
   \\    /   O peration     | Website:  https://openfoam.org
    \\  /    A nd           | Version:  7
     \\/     M anipulation  |
\*---------------------------------------------------------------------------*/
FoamFile
{
    version     2.0;
    format      ascii;
    class       surfaceScalarField;
    location    "35";
    object      phi;
}
// * * * * * * * * * * * * * * * * * * * * * * * * * * * * * * * * * * * * * //

dimensions      [0 3 -1 0 0 0 0];

internalField   nonuniform List<scalar> 
20715
(
-1.28639e-05
1.28639e-05
-4.82085e-13
-9.14176e-06
-3.72215e-06
-8.29462e-13
2.2919e-05
-3.20607e-05
-1.39337e-12
9.46537e-05
-7.17347e-05
-2.08777e-12
0.000212587
-0.000117934
-2.8989e-12
0.000384045
-0.000171457
-3.80106e-12
0.000615714
-0.000231669
-5.06968e-12
0.000915784
-0.00030007
-6.09246e-12
0.00128442
-0.000368639
-6.7987e-12
-0.000449752
-7.68782e-12
0.00173418
-1.22865e-05
2.51504e-05
-7.24216e-06
-8.76649e-06
2.68966e-05
-6.61995e-05
0.000101513
-0.000146351
0.000223242
-0.000239662
0.000399521
-0.000347736
0.00063718
-0.000469328
0.000944523
-0.000607414
0.001322
-0.000746114
-0.000909657
0.0017819
-1.11387e-05
3.62891e-05
-3.46278e-06
-1.64424e-05
3.48102e-05
-0.000104472
0.000115154
-0.000226695
0.000244416
-0.000368925
0.000430254
-0.000533574
0.000679771
-0.000718845
0.00100148
-0.000929126
0.0013964
-0.00114103
-0.00138953
0.00187628
-9.43308e-06
4.57222e-05
2.15396e-06
-2.80294e-05
4.65702e-05
-0.000148889
0.000135412
-0.000315537
0.000275837
-0.000509349
0.000475809
-0.000733546
0.000742818
-0.000985854
0.00108566
-0.00127197
0.00150619
-0.00156156
-0.00189855
0.0020152
-7.18796e-06
5.29101e-05
9.55037e-06
-4.47677e-05
6.20452e-05
-0.000201384
0.000162048
-0.00041554
0.000317098
-0.000664399
0.000535539
-0.000951987
0.000825328
-0.00127564
0.00119555
-0.00164219
0.00164919
-0.00201521
-0.00244492
0.00219556
-4.42553e-06
5.73357e-05
1.86446e-05
-6.78379e-05
8.10637e-05
-0.000263803
0.000194746
-0.000529223
0.000367673
-0.000837326
0.0006086
-0.00119291
0.000926001
-0.00159304
0.00132921
-0.0020454
0.00182258
-0.00250858
-0.00303562
0.00241328
-1.1494e-06
5.84851e-05
2.93424e-05
-9.83298e-05
0.000103418
-0.000337878
0.000233125
-0.000658931
0.000426915
-0.00103112
0.000693963
-0.00145996
0.00104325
-0.00194233
0.00148424
-0.00248638
0.00202288
-0.00304722
-0.00367612
0.00266338
2.53836e-06
5.59467e-05
4.15325e-05
-0.000137324
0.000128867
-0.000425212
0.000276741
-0.000806805
0.000494076
-0.00124845
0.000790428
-0.00175632
0.00117523
-0.00232713
0.00165786
-0.00296901
0.00224602
-0.00363539
-0.00437017
0.00294008
6.63946e-06
4.93072e-05
5.50936e-05
-0.000185778
0.000157142
-0.000527261
0.000325097
-0.00097476
0.000568311
-0.00149166
0.000896642
-0.00208465
0.00131985
-0.00275033
0.00184695
-0.00349611
0.00248745
-0.00427589
-0.00511962
0.00323689
1.11275e-05
3.81797e-05
6.98943e-05
-0.000244545
0.000187952
-0.000645318
0.000377647
-0.00116445
0.000648694
-0.00176271
0.00101112
-0.00244707
0.00147482
-0.00321404
0.0020481
-0.00406939
0.00274218
-0.00496997
-0.00592426
0.00354682
1.5954e-05
2.22258e-05
8.57947e-05
-0.000314386
0.000220983
-0.000780507
0.000433806
-0.00137728
0.000734227
-0.00206313
0.00113227
-0.00284511
0.0016377
-0.00371947
0.00225768
-0.00468937
0.00300493
-0.00571723
-0.0067818
0.00386247
2.10762e-05
1.14959e-06
0.000102649
-0.000395959
0.000255908
-0.000933766
0.000492958
-0.00161433
0.000823856
-0.00239403
0.00125839
-0.00327965
0.00180589
-0.00426696
0.00247191
-0.00535539
0.00327024
-0.00651556
-0.00768789
0.00417633
2.6452e-05
-2.53024e-05
0.000120309
-0.000489815
0.000292386
-0.00110584
0.000554457
-0.0018764
0.000916477
-0.00275605
0.00138773
-0.00375089
0.0019767
-0.00485594
0.00268694
-0.00606562
0.00353261
-0.00736123
-0.00863622
0.00448094
3.20395e-05
-5.73419e-05
0.000138621
-0.000596397
0.000330069
-0.00129729
0.000617641
-0.00216397
0.00101095
-0.00314936
0.00151846
-0.00425841
0.00214742
-0.0054849
0.00289891
-0.00681711
0.00378665
-0.00824898
-0.00961875
0.00476919
3.77979e-05
-9.51398e-05
0.000157434
-0.000716033
0.0003686
-0.00150846
0.00068183
-0.0024772
0.00110611
-0.00357364
0.00164876
-0.00480106
0.00231529
-0.00615143
0.00310406
-0.00760588
0.00402722
-0.00917214
-0.0106261
0.00503453
4.36869e-05
-0.000138827
0.000176594
-0.000848941
0.000407621
-0.00173948
0.000746334
-0.00281591
0.00120079
-0.00402809
0.00177676
-0.00537703
0.00247759
-0.00685226
0.00329878
-0.00842707
0.00424955
-0.0101229
-0.0116479
0.00527137
4.96673e-05
-0.000188494
0.000195949
-0.000995223
0.00044677
-0.0019903
0.000810457
-0.0031796
0.00129378
-0.00451142
0.00190063
-0.00598388
0.00263169
-0.00758331
0.0034797
-0.00927508
0.00444933
-0.0110925
-0.012674
0.00547542
5.57004e-05
-0.000244194
0.000215346
-0.00115487
0.000485682
-0.00226064
0.000873502
-0.00356742
0.00138392
-0.00502184
0.00201855
-0.00661851
0.00277506
-0.00833982
0.0036438
-0.0101438
0.00462267
-0.0120714
-0.0136951
0.00564382
6.17485e-05
-0.000305943
0.000234633
-0.00132775
0.000523995
-0.00255
0.000934771
-0.0039782
0.00147004
-0.00555711
0.00212877
-0.00727724
0.00290537
-0.00911642
0.00378852
-0.011027
0.00476666
-0.0130495
-0.0147065
0.00577804
6.77737e-05
-0.000373717
0.000253657
-0.00151364
0.000561344
-0.00285769
0.000993576
-0.00441043
0.00155101
-0.00611454
0.0022296
-0.00795584
0.00302038
-0.0099072
0.00391129
-0.0119179
0.00488225
-0.0140205
-0.0157102
0.0058859
7.34232e-05
-0.00044714
0.000271672
-0.00171188
0.000596609
-0.00318263
0.00104845
-0.00486227
0.00162505
-0.00669114
0.00231906
-0.00864985
0.00311798
-0.0107061
0.00400869
-0.0128086
0.00497258
-0.0149844
-0.0169013
0.00616378
7.92457e-05
-0.000526386
0.00028964
-0.00192228
0.000630861
-0.00352385
0.00110022
-0.00533163
0.00169241
-0.00728333
0.00239648
-0.00935392
0.00319627
-0.0115059
0.00407684
-0.0136892
0.00501335
-0.0159209
-0.0179941
0.00610613
8.49288e-05
-0.000611314
0.000306879
-0.00214423
0.000663062
-0.00388003
0.00114754
-0.00581611
0.00175153
-0.00788732
0.00246027
-0.0100627
0.00325401
-0.0122996
0.00411506
-0.0145502
0.00501309
-0.0168189
-0.0189917
0.00601065
9.04333e-05
-0.000701748
0.000323238
-0.00237703
0.000692869
-0.00424966
0.00118982
-0.00631306
0.00180157
-0.00849907
0.00250948
-0.0107706
0.00329042
-0.0130806
0.004124
-0.0153838
0.0049786
-0.0176735
-0.019902
0.0058889
9.57192e-05
-0.000797467
0.000338564
-0.00261988
0.000719946
-0.00463104
0.00122649
-0.00681961
0.00184179
-0.00911437
0.00254336
-0.0114721
0.00330517
-0.0138424
0.00410461
-0.0161832
0.00491132
-0.0184802
-0.0207321
0.00574143
0.000100745
-0.000898212
0.000352707
-0.00287184
0.00074397
-0.00502231
0.00125706
-0.0073327
0.00187158
-0.00972888
0.00256141
-0.012162
0.00329821
-0.0145792
0.00405795
-0.016943
0.0048131
-0.0192354
-0.0214874
0.00556845
0.00010547
-0.00100368
0.000365515
-0.00313189
0.000764637
-0.00542143
0.00128107
-0.00784913
0.00189044
-0.0103383
0.00256337
-0.0128349
0.00326984
-0.0152857
0.00398532
-0.0176585
0.00468606
-0.0199361
-0.0221721
0.00537076
0.000109851
-0.00111353
0.000376843
-0.00339888
0.000781661
-0.00582625
0.00129813
-0.0083656
0.00189805
-0.0109382
0.00254919
-0.013486
0.00322062
-0.0159571
0.00388823
-0.0183261
0.00453253
-0.0205804
-0.0227894
0.0051498
0.000113843
-0.00122738
0.000386549
-0.00367158
0.000794783
-0.00623448
0.00130792
-0.00887874
0.00189417
-0.0115244
0.00251901
-0.0141109
0.00315135
-0.0165894
0.00376837
-0.0189431
0.00435498
-0.021167
-0.0233419
0.00490748
0.000117403
-0.00134478
0.000394497
-0.00394868
0.000803771
-0.00664375
0.00131021
-0.00938518
0.00187874
-0.012093
0.0024732
-0.0147053
0.00306307
-0.0171793
0.00362754
-0.0195076
0.00415592
-0.0216954
-0.023832
0.004646
0.000120487
-0.00146527
0.00040056
-0.00422875
0.000808429
-0.00705162
0.00130482
-0.00988157
0.00185182
-0.0126399
0.00241228
-0.0152658
0.00295695
-0.017724
0.00346763
-0.0200182
0.00393786
-0.0221656
-0.0242618
0.00436764
0.000123052
-0.00158832
0.000404621
-0.00451032
0.000808594
-0.0074556
0.00129167
-0.0103647
0.0018136
-0.0131619
0.00233693
-0.0157891
0.00283432
-0.0182214
0.00329058
-0.0204745
0.00370321
-0.0225783
-0.0246333
0.00407473
0.000125057
-0.00171338
0.000406575
-0.00479184
0.000804146
-0.00785317
0.00127076
-0.0108313
0.00176438
-0.0136555
0.00224795
-0.0162727
0.00269656
-0.01867
0.00309831
-0.0208763
0.0034543
-0.0229343
-0.0249485
0.00376948
0.000126461
-0.00183984
0.000406333
-0.00507171
0.000795005
-0.00824184
0.00124216
-0.0112784
0.00170457
-0.0141179
0.00214626
-0.0167144
0.00254511
-0.0190688
0.0028927
-0.0212238
0.00319328
-0.0232348
-0.0252092
0.00345398
0.000127227
-0.00196706
0.000403821
-0.00534831
0.000781136
-0.00861915
0.00120602
-0.0117033
0.00163469
-0.0145466
0.00203281
-0.0171125
0.00238145
-0.0194175
0.00267556
-0.021518
0.00292218
-0.0234815
-0.0254172
0.00313016
0.000127321
-0.00209438
0.000398983
-0.00561997
0.000762545
-0.00898271
0.00116255
-0.0121033
0.00155532
-0.0149393
0.00190866
-0.0174659
0.00220702
-0.0197158
0.00244863
-0.0217596
0.00264285
-0.0236757
-0.0255741
0.0027998
0.000126715
-0.0022211
0.000391783
-0.00588504
0.000739284
-0.00933022
0.00111206
-0.0124761
0.0014671
-0.0152944
0.00177485
-0.0177736
0.00202322
-0.0199642
0.00221351
-0.0219499
0.00235695
-0.0238191
-0.0256816
0.00246448
0.000125383
-0.00234648
0.000382202
-0.00614185
0.000711447
-0.00965946
0.00105487
-0.0128195
0.00137073
-0.0156103
0.00163246
-0.0180353
0.00183141
-0.0201631
0.00197172
-0.0220902
0.00206602
-0.0239134
-0.0257413
0.00212565
0.000123305
-0.00246979
0.000370245
-0.00638879
0.000679165
-0.00996838
0.000991372
-0.0131317
0.00126695
-0.0158858
0.00148254
-0.0182509
0.00163291
-0.0203135
0.00172464
-0.0221819
0.00177143
-0.0239602
-0.0257545
0.00178461
0.000120467
-0.00259026
0.000355934
-0.00662426
0.000642611
-0.0102551
0.000922007
-0.0134111
0.00115649
-0.0161203
0.00132614
-0.0184206
0.00142892
-0.0204163
0.00147357
-0.0222266
0.00147441
-0.0239611
-0.0257225
0.00144251
0.000115862
-0.00270612
0.000337838
-0.00684624
0.000600434
-0.0105177
0.000845909
-0.0136566
0.00103924
-0.0163136
0.00116394
-0.0185453
0.00122095
-0.0204733
0.00122074
-0.0222263
0.00117795
-0.0239183
-0.0256477
0.00110309
0.000111437
-0.00281756
0.000318908
-0.00705371
0.000555922
-0.0107547
0.000766187
-0.0138668
0.000917717
-0.0164652
0.000997544
-0.0186251
0.00100936
-0.0204851
0.000965047
-0.022182
0.000879283
-0.0238325
-0.0255303
0.000761863
0.000106236
-0.00292379
0.000297798
-0.00724527
0.000507823
-0.0109647
0.000682048
-0.0140411
0.000791793
-0.0165749
0.000827555
-0.0186609
0.000795485
-0.020453
0.000708538
-0.0220951
0.000581178
-0.0237051
-0.0253715
0.000422379
0.000100273
-0.00302406
0.000274612
-0.00741961
0.000456424
-0.0111465
0.000594014
-0.0141787
0.000662206
-0.0166431
0.000654851
-0.0186535
0.000580248
-0.0203784
0.0004521
-0.0219669
0.000284445
-0.0235375
-0.0251724
8.5385e-05
9.35686e-05
-0.00311763
0.000249469
-0.00757551
0.000402027
-0.0112991
0.000502606
-0.0142792
0.000529668
-0.0166702
0.000480253
-0.0186041
0.000364488
-0.0202627
0.000196531
-0.021799
-9.85813e-06
-0.0233311
-0.0249339
-0.000248375
8.61481e-05
-0.00320378
0.0002225
-0.00771186
0.000344947
-0.0114215
0.000408346
-0.0143426
0.000394865
-0.0166567
0.000304532
-0.0185138
0.000148981
-0.0201071
-5.75001e-05
-0.0215925
-0.00030201
-0.0230866
-0.0246575
-0.000578353
7.80443e-05
-0.00328183
0.000193851
-0.00782766
0.000285508
-0.0115132
0.000311747
-0.0143689
0.00025845
-0.0166034
0.000128404
-0.0183837
-6.556e-05
-0.0199132
-0.000309191
-0.0213489
-0.000590478
-0.0228053
-0.0243441
-0.000903961
6.92958e-05
-0.00335112
0.000163675
-0.00792204
0.000224039
-0.0115735
0.000213309
-0.0143581
0.000121043
-0.0165111
-4.74636e-05
-0.0182152
-0.00027848
-0.0196821
-0.00055805
-0.0210693
-0.000875017
-0.0224883
-0.0239944
-0.00122469
5.9946e-05
-0.00341107
0.000132136
-0.00799423
0.00016087
-0.0116023
0.000113519
-0.0143108
-1.6767e-05
-0.0163808
-0.000222446
-0.0180095
-0.000489178
-0.0194154
-0.000803483
-0.020755
-0.00115512
-0.0221367
-0.0236094
-0.00154006
5.00433e-05
-0.00346111
9.9404e-05
-0.00804359
9.63313e-05
-0.0115992
1.28483e-05
-0.0142273
-0.00015443
-0.0162136
-0.000395977
-0.017768
-0.000697102
-0.0191143
-0.00104497
-0.0204071
-0.00143029
-0.0217514
-0.0231901
-0.00184965
3.96403e-05
-0.00350075
6.56533e-05
-0.00806961
3.07528e-05
-0.0115643
-8.82539e-05
-0.0141083
-0.000291428
-0.0160104
-0.000567526
-0.0174919
-0.000901739
-0.0187801
-0.00128202
-0.0200269
-0.0017001
-0.0213333
-0.0227371
-0.00215306
2.87937e-05
-0.00352954
3.10634e-05
-0.00807188
-3.55568e-05
-0.0114977
-0.000189358
-0.0139545
-0.000427278
-0.0157725
-0.000736605
-0.0171826
-0.00110262
-0.0184141
-0.00151417
-0.0196153
-0.00196409
-0.0208834
-0.0222513
-0.00244991
1.75636e-05
-0.00354711
-4.14717e-06
-0.00805017
-0.000102275
-0.0113995
-0.000290056
-0.0137667
-0.000561532
-0.015501
-0.000902767
-0.0168413
-0.00129931
-0.0180175
-0.001741
-0.0191736
-0.00222186
-0.0204025
-0.0217333
-0.00273985
6.00178e-06
-0.00355311
-3.99101e-05
-0.00800425
-0.000169101
-0.0112704
-0.000389962
-0.0135459
-0.000693773
-0.0151972
-0.0010656
-0.0164695
-0.0014914
-0.0175917
-0.00196208
-0.0187029
-0.00247298
-0.0198916
-0.0211838
-0.00302253
-5.83172e-06
-0.00354728
-7.59435e-05
-0.00793414
-0.000235743
-0.0111106
-0.000488715
-0.0132929
-0.000823618
-0.0148623
-0.00122473
-0.0160684
-0.00167853
-0.0171379
-0.00217703
-0.0182044
-0.00271702
-0.0193516
-0.0206032
-0.00329762
-1.7834e-05
-0.00352944
-0.000112101
-0.00783988
-0.000301922
-0.0109207
-0.000585975
-0.0130088
-0.000950712
-0.0144975
-0.00137981
-0.0156393
-0.00186036
-0.0166574
-0.00238547
-0.0176793
-0.00295356
-0.0187836
-0.019992
-0.00356475
-2.99754e-05
-0.00349947
-0.000148211
-0.00772164
-0.000367371
-0.0107016
-0.000681425
-0.0126948
-0.00107473
-0.0141042
-0.00153053
-0.0151835
-0.00203658
-0.0161513
-0.00258705
-0.0171288
-0.00318214
-0.0181885
-0.0193506
-0.00382354
-4.2184e-05
-0.00345729
-0.000184106
-0.00757972
-0.000431837
-0.0104538
-0.000774768
-0.0123519
-0.00119538
-0.0136836
-0.00167663
-0.0147022
-0.00220693
-0.015621
-0.00278145
-0.0165543
-0.00340233
-0.0175676
-0.0186793
-0.00407362
-5.43947e-05
-0.00340289
-0.000219623
-0.00741449
-0.00049508
-0.0101784
-0.000865733
-0.0119812
-0.00131238
-0.013237
-0.00181783
-0.0141968
-0.00237116
-0.0150677
-0.00296838
-0.0159571
-0.00361358
-0.0169224
-0.0179787
-0.00431411
-6.65405e-05
-0.00333635
-0.000254603
-0.00722643
-0.000556873
-0.00987611
-0.000954063
-0.011584
-0.0014255
-0.0127655
-0.00195394
-0.0136683
-0.0025291
-0.0144925
-0.00314759
-0.0153386
-0.00381421
-0.0162558
-0.0172489
-0.00454409
-8.01939e-05
-0.00325616
-0.000291079
-0.00701554
-0.000619116
-0.00954808
-0.00104125
-0.0111619
-0.00153569
-0.0122711
-0.00208534
-0.0131187
-0.00268061
-0.0138973
-0.00331845
-0.0147008
-0.00399891
-0.0155753
-0.0165288
-0.00471898
-9.20019e-05
-0.00316415
-0.000324497
-0.00678305
-0.000677318
-0.00919525
-0.00112356
-0.0107156
-0.00164031
-0.0117544
-0.00221064
-0.0125484
-0.00282565
-0.0132822
-0.0034828
-0.0140436
-0.00418287
-0.0148752
-0.0157877
-0.00492394
-0.000103581
-0.00306057
-0.000356965
-0.00652966
-0.000733476
-0.00881874
-0.00120258
-0.0102465
-0.00174042
-0.0112165
-0.0023303
-0.0119585
-0.00296404
-0.0126485
-0.00363969
-0.013368
-0.00435872
-0.0141562
-0.0150254
-0.0051211
-0.000114868
-0.00294571
-0.000388349
-0.00625618
-0.000787412
-0.00841968
-0.00127813
-0.00975581
-0.00183583
-0.0106588
-0.00244414
-0.0113502
-0.0030956
-0.011997
-0.00378882
-0.0126748
-0.00452567
-0.0134193
-0.0142432
-0.00530778
-0.000125806
-0.0028199
-0.000418523
-0.00596347
-0.000838964
-0.00799924
-0.00135004
-0.00924473
-0.0019264
-0.0100825
-0.00255202
-0.0107246
-0.00322017
-0.0113289
-0.00393
-0.011965
-0.00468371
-0.0126656
-0.013443
-0.0054839
-0.00013634
-0.00268356
-0.00044737
-0.00565244
-0.000887983
-0.00755863
-0.00141815
-0.00871457
-0.00201196
-0.00948864
-0.0026538
-0.0100827
-0.00333762
-0.0106451
-0.00406308
-0.0112395
-0.00483272
-0.011896
-0.0126259
-0.00564983
-0.000146417
-0.00253714
-0.000474781
-0.00532407
-0.000934328
-0.00709908
-0.00148232
-0.00816658
-0.0020924
-0.00887856
-0.00274935
-0.00942577
-0.00344783
-0.00994658
-0.00418795
-0.0104994
-0.00497258
-0.0111114
-0.011793
-0.00580556
-0.000155989
-0.00238115
-0.000500654
-0.00497941
-0.000977873
-0.00662186
-0.00154241
-0.00760204
-0.00216757
-0.0082534
-0.00283857
-0.00875478
-0.00355068
-0.00923447
-0.00430449
-0.00974555
-0.00510318
-0.0103127
-0.0109451
-0.005951
-0.000165008
-0.00221615
-0.000524896
-0.00461952
-0.0010185
-0.00612826
-0.00159832
-0.00702222
-0.00223739
-0.00761433
-0.00292133
-0.00807083
-0.00364607
-0.00850974
-0.0044126
-0.00897901
-0.0052244
-0.00950086
-0.0100835
-0.00608605
-0.000173432
-0.00204271
-0.000547419
-0.00424553
-0.00105611
-0.00561957
-0.00164993
-0.00642839
-0.00230173
-0.00696254
-0.00299756
-0.007375
-0.00373389
-0.00777341
-0.00451215
-0.00820075
-0.0053361
-0.00867691
-0.00920902
-0.00621058
-0.00018122
-0.00186149
-0.000568145
-0.00385861
-0.00109059
-0.00509712
-0.00169715
-0.00582183
-0.00236051
-0.00629918
-0.00306715
-0.00666836
-0.00381407
-0.00702649
-0.00460306
-0.00741176
-0.00543817
-0.00784181
-0.00832274
-0.00632445
-0.000188336
-0.00167316
-0.000587003
-0.00345994
-0.00112188
-0.00456225
-0.0017399
-0.00520381
-0.00241365
-0.00562542
-0.00313002
-0.00595199
-0.0038865
-0.00627002
-0.00468521
-0.00661305
-0.00553046
-0.00699656
-0.00742571
-0.00642748
-0.000194748
-0.00147841
-0.00060393
-0.00305076
-0.00114988
-0.0040163
-0.00177808
-0.00457561
-0.00246108
-0.00494243
-0.0031861
-0.00522696
-0.0039511
-0.00550502
-0.00475851
-0.00580564
-0.00561285
-0.00614222
-0.00651903
-0.00651953
-0.000200427
-0.00127798
-0.000618868
-0.00263232
-0.00117453
-0.00346064
-0.00181164
-0.00393849
-0.00250272
-0.00425136
-0.00323533
-0.00449435
-0.00400781
-0.00473254
-0.00482286
-0.00499059
-0.00568523
-0.00527985
-0.00560382
-0.00660044
-0.000205346
-0.00107264
-0.000631769
-0.00220589
-0.00119577
-0.00289665
-0.00184052
-0.00329373
-0.00253852
-0.00355336
-0.00327764
-0.00375524
-0.00405654
-0.00395364
-0.00487818
-0.00416895
-0.00574748
-0.00441055
-0.00468124
-0.00667006
-0.000209485
-0.000863151
-0.000642592
-0.00177279
-0.00121355
-0.00232568
-0.00186467
-0.00264262
-0.00256843
-0.0028496
-0.00331297
-0.00301069
-0.00409725
-0.00316936
-0.0049244
-0.0033418
-0.0057995
-0.00353545
-0.00375247
-0.00672827
-0.000212825
-0.000650326
-0.0006513
-0.00133431
-0.00122784
-0.00174915
-0.00188404
-0.00198641
-0.00259242
-0.00214122
-0.0033413
-0.00226181
-0.00412987
-0.00238079
-0.00496145
-0.00251023
-0.00584122
-0.00265568
-0.00281872
-0.00677496
-0.000215351
-0.000434976
-0.000657867
-0.000891796
-0.00123859
-0.00116842
-0.00189861
-0.00132639
-0.00261044
-0.0014294
-0.00336257
-0.00150968
-0.00415438
-0.00158898
-0.00498928
-0.00167533
-0.00587255
-0.00177241
-0.00188123
-0.00681005
-0.000217053
-0.000217923
-0.000662272
-0.000446577
-0.00124579
-0.000584909
-0.00190835
-0.000663826
-0.00262247
-0.00071527
-0.00337678
-0.000755378
-0.00417073
-0.000795026
-0.00500784
-0.000838216
-0.00589347
-0.000886786
-0.000941238
-0.00683346
-0.000217923
-9.6041e-13
-0.0006645
-1.97864e-12
-0.00124941
-2.41019e-12
-0.00191324
-2.35252e-12
-0.00262851
-2.31069e-12
-0.00338388
-2.17651e-12
-0.00417891
-2.01483e-12
-0.00501713
-1.84119e-12
-0.00590391
-1.66723e-12
-1.50083e-12
-0.00684515
-0.000217923
0.000217923
-0.0006645
0.000446577
-0.00124941
0.000584909
-0.00191324
0.000663826
-0.00262851
0.00071527
-0.00338388
0.000755378
-0.00417891
0.000795026
-0.00501713
0.000838216
-0.00590391
0.000886786
0.000941238
-0.00684515
-0.000217053
0.000434976
-0.000662272
0.000891796
-0.00124579
0.00116842
-0.00190835
0.00132639
-0.00262247
0.0014294
-0.00337678
0.00150968
-0.00417073
0.00158898
-0.00500784
0.00167533
-0.00589347
0.00177241
0.00188123
-0.00683346
-0.000215351
0.000650326
-0.000657867
0.00133431
-0.00123859
0.00174915
-0.00189861
0.00198641
-0.00261044
0.00214122
-0.00336257
0.00226181
-0.00415438
0.00238079
-0.00498928
0.00251023
-0.00587255
0.00265568
0.00281872
-0.00681005
-0.000212825
0.000863151
-0.0006513
0.00177279
-0.00122784
0.00232568
-0.00188404
0.00264262
-0.00259242
0.0028496
-0.0033413
0.00301069
-0.00412987
0.00316936
-0.00496145
0.0033418
-0.00584122
0.00353545
0.00375247
-0.00677496
-0.000209485
0.00107264
-0.000642592
0.00220589
-0.00121355
0.00289665
-0.00186467
0.00329373
-0.00256843
0.00355336
-0.00331297
0.00375524
-0.00409725
0.00395364
-0.0049244
0.00416895
-0.0057995
0.00441055
0.00468124
-0.00672827
-0.000205346
0.00127798
-0.000631769
0.00263232
-0.00119577
0.00346064
-0.00184052
0.00393849
-0.00253852
0.00425136
-0.00327764
0.00449435
-0.00405654
0.00473254
-0.00487818
0.00499059
-0.00574748
0.00527985
0.00560382
-0.00667006
-0.000200427
0.00147841
-0.000618868
0.00305076
-0.00117453
0.0040163
-0.00181164
0.00457561
-0.00250272
0.00494243
-0.00323533
0.00522696
-0.00400781
0.00550502
-0.00482286
0.00580564
-0.00568523
0.00614222
0.00651903
-0.00660044
-0.000194748
0.00167316
-0.00060393
0.00345994
-0.00114988
0.00456225
-0.00177808
0.00520381
-0.00246108
0.00562542
-0.0031861
0.00595199
-0.0039511
0.00627002
-0.00475851
0.00661305
-0.00561285
0.00699656
0.00742571
-0.00651953
-0.000188336
0.00186149
-0.000587003
0.00385861
-0.00112188
0.00509712
-0.0017399
0.00582183
-0.00241365
0.00629918
-0.00313002
0.00666836
-0.0038865
0.00702649
-0.00468521
0.00741176
-0.00553046
0.00784181
0.00832274
-0.00642748
-0.00018122
0.00204271
-0.000568145
0.00424553
-0.00109059
0.00561957
-0.00169715
0.00642839
-0.00236051
0.00696254
-0.00306715
0.007375
-0.00381407
0.00777341
-0.00460306
0.00820075
-0.00543817
0.00867691
0.00920902
-0.00632445
-0.000173432
0.00221615
-0.000547419
0.00461952
-0.00105611
0.00612826
-0.00164993
0.00702222
-0.00230173
0.00761433
-0.00299756
0.00807083
-0.00373389
0.00850974
-0.00451215
0.00897901
-0.0053361
0.00950086
0.0100835
-0.00621058
-0.000165008
0.00238115
-0.000524896
0.00497941
-0.0010185
0.00662186
-0.00159832
0.00760204
-0.00223739
0.0082534
-0.00292133
0.00875478
-0.00364607
0.00923447
-0.0044126
0.00974555
-0.0052244
0.0103127
0.0109451
-0.00608605
-0.000155989
0.00253714
-0.000500654
0.00532407
-0.000977873
0.00709908
-0.00154241
0.00816658
-0.00216757
0.00887856
-0.00283857
0.00942577
-0.00355068
0.00994658
-0.00430449
0.0104994
-0.00510318
0.0111114
0.011793
-0.005951
-0.000146417
0.00268356
-0.000474781
0.00565244
-0.000934328
0.00755863
-0.00148232
0.00871457
-0.0020924
0.00948864
-0.00274935
0.0100827
-0.00344783
0.0106451
-0.00418795
0.0112395
-0.00497258
0.011896
0.0126259
-0.00580556
-0.00013634
0.0028199
-0.00044737
0.00596347
-0.000887983
0.00799924
-0.00141815
0.00924473
-0.00201196
0.0100825
-0.0026538
0.0107246
-0.00333762
0.0113289
-0.00406308
0.011965
-0.00483272
0.0126656
0.013443
-0.00564983
-0.000125806
0.00294571
-0.000418523
0.00625618
-0.000838964
0.00841968
-0.00135004
0.00975581
-0.0019264
0.0106588
-0.00255202
0.0113502
-0.00322017
0.011997
-0.00393
0.0126748
-0.00468371
0.0134193
0.0142432
-0.0054839
-0.000114868
0.00306057
-0.000388349
0.00652966
-0.000787412
0.00881874
-0.00127813
0.0102465
-0.00183583
0.0112165
-0.00244414
0.0119585
-0.0030956
0.0126485
-0.00378882
0.013368
-0.00452567
0.0141562
0.0150254
-0.00530778
-0.000103581
0.00316415
-0.000356965
0.00678305
-0.000733476
0.00919525
-0.00120258
0.0107156
-0.00174042
0.0117544
-0.0023303
0.0125484
-0.00296404
0.0132822
-0.00363969
0.0140436
-0.00435872
0.0148752
0.0157877
-0.0051211
-9.20019e-05
0.00325616
-0.000324497
0.00701554
-0.000677318
0.00954808
-0.00112356
0.0111619
-0.00164031
0.0122711
-0.00221064
0.0131187
-0.00282565
0.0138973
-0.0034828
0.0147008
-0.00418287
0.0155753
0.0165288
-0.00492394
-8.01939e-05
0.00333635
-0.000291079
0.00722643
-0.000619116
0.00987611
-0.00104125
0.011584
-0.00153569
0.0127655
-0.00208534
0.0136683
-0.00268061
0.0144925
-0.00331845
0.0153386
-0.00399891
0.0162558
0.0172489
-0.00471898
-6.65405e-05
0.00340289
-0.000254603
0.00741449
-0.000556873
0.0101784
-0.000954063
0.0119812
-0.0014255
0.013237
-0.00195394
0.0141968
-0.0025291
0.0150677
-0.00314759
0.0159571
-0.00381421
0.0169224
0.0179787
-0.00454409
-5.43947e-05
0.00345729
-0.000219623
0.00757972
-0.00049508
0.0104538
-0.000865733
0.0123519
-0.00131238
0.0136836
-0.00181783
0.0147022
-0.00237116
0.015621
-0.00296838
0.0165543
-0.00361358
0.0175676
0.0186793
-0.00431411
-4.2184e-05
0.00349947
-0.000184106
0.00772164
-0.000431837
0.0107016
-0.000774768
0.0126948
-0.00119538
0.0141042
-0.00167663
0.0151835
-0.00220693
0.0161513
-0.00278145
0.0171288
-0.00340233
0.0181885
0.0193506
-0.00407362
-2.99754e-05
0.00352944
-0.000148211
0.00783988
-0.000367371
0.0109207
-0.000681425
0.0130088
-0.00107473
0.0144975
-0.00153053
0.0156393
-0.00203658
0.0166574
-0.00258705
0.0176793
-0.00318214
0.0187836
0.019992
-0.00382354
-1.7834e-05
0.00354728
-0.000112101
0.00793414
-0.000301922
0.0111106
-0.000585975
0.0132929
-0.000950712
0.0148623
-0.00137981
0.0160684
-0.00186036
0.0171379
-0.00238547
0.0182044
-0.00295356
0.0193516
0.0206032
-0.00356475
-5.83172e-06
0.00355311
-7.59435e-05
0.00800425
-0.000235743
0.0112704
-0.000488715
0.0135459
-0.000823618
0.0151972
-0.00122473
0.0164695
-0.00167853
0.0175917
-0.00217703
0.0187029
-0.00271702
0.0198916
0.0211838
-0.00329762
6.00178e-06
0.00354711
-3.99101e-05
0.00805017
-0.000169101
0.0113995
-0.000389962
0.0137667
-0.000693773
0.015501
-0.0010656
0.0168413
-0.0014914
0.0180175
-0.00196208
0.0191736
-0.00247298
0.0204025
0.0217333
-0.00302253
1.75636e-05
0.00352954
-4.14717e-06
0.00807188
-0.000102275
0.0114977
-0.000290056
0.0139545
-0.000561532
0.0157725
-0.000902767
0.0171826
-0.00129931
0.0184141
-0.001741
0.0196153
-0.00222186
0.0208834
0.0222513
-0.00273985
2.87937e-05
0.00350075
3.10634e-05
0.00806961
-3.55568e-05
0.0115643
-0.000189358
0.0141083
-0.000427278
0.0160104
-0.000736605
0.0174919
-0.00110262
0.0187801
-0.00151417
0.0200269
-0.00196409
0.0213333
0.0227371
-0.00244991
3.96403e-05
0.00346111
6.56533e-05
0.00804359
3.07528e-05
0.0115992
-8.82539e-05
0.0142273
-0.000291428
0.0162136
-0.000567526
0.017768
-0.000901739
0.0191143
-0.00128202
0.0204071
-0.0017001
0.0217514
0.0231901
-0.00215306
5.00433e-05
0.00341107
9.9404e-05
0.00799423
9.63313e-05
0.0116023
1.28483e-05
0.0143108
-0.00015443
0.0163808
-0.000395977
0.0180095
-0.000697102
0.0194154
-0.00104497
0.020755
-0.00143029
0.0221367
0.0236094
-0.00184965
5.9946e-05
0.00335112
0.000132136
0.00792204
0.00016087
0.0115735
0.000113519
0.0143581
-1.6767e-05
0.0165111
-0.000222446
0.0182152
-0.000489178
0.0196821
-0.000803483
0.0210693
-0.00115512
0.0224883
0.0239944
-0.00154006
6.92958e-05
0.00328183
0.000163675
0.00782766
0.000224039
0.0115132
0.000213309
0.0143689
0.000121043
0.0166034
-4.74636e-05
0.0183837
-0.00027848
0.0199132
-0.00055805
0.0213489
-0.000875017
0.0228053
0.0243441
-0.00122469
7.80443e-05
0.00320378
0.000193851
0.00771186
0.000285508
0.0114215
0.000311747
0.0143426
0.00025845
0.0166567
0.000128404
0.0185138
-6.556e-05
0.0201071
-0.000309191
0.0215925
-0.000590478
0.0230866
0.0246575
-0.000903961
8.61481e-05
0.00311763
0.0002225
0.00757551
0.000344947
0.0112991
0.000408346
0.0142792
0.000394865
0.0166702
0.000304532
0.0186041
0.000148981
0.0202627
-5.75001e-05
0.021799
-0.00030201
0.0233311
0.0249339
-0.000578353
9.35686e-05
0.00302406
0.000249469
0.00741961
0.000402027
0.0111465
0.000502606
0.0141787
0.000529668
0.0166431
0.000480253
0.0186535
0.000364488
0.0203784
0.000196531
0.0219669
-9.85813e-06
0.0235375
0.0251724
-0.000248375
0.000100273
0.00292379
0.000274612
0.00724527
0.000456424
0.0109647
0.000594014
0.0140411
0.000662206
0.0165749
0.000654851
0.0186609
0.000580248
0.020453
0.0004521
0.0220951
0.000284445
0.0237051
0.0253715
8.5385e-05
0.000106236
0.00281756
0.000297798
0.00705371
0.000507823
0.0107547
0.000682048
0.0138668
0.000791793
0.0164652
0.000827555
0.0186251
0.000795485
0.0204851
0.000708538
0.022182
0.000581178
0.0238325
0.0255303
0.000422379
0.000111437
0.00270612
0.000318908
0.00684624
0.000555922
0.0105177
0.000766187
0.0136566
0.000917717
0.0163136
0.000997544
0.0185453
0.00100936
0.0204733
0.000965047
0.0222263
0.000879283
0.0239183
0.0256477
0.000761863
0.000115862
0.00259026
0.000337838
0.00662426
0.000600434
0.0102551
0.000845909
0.0134111
0.00103924
0.0161203
0.00116394
0.0184206
0.00122095
0.0204163
0.00122074
0.0222266
0.00117795
0.0239611
0.0257225
0.00110309
0.000120467
0.00246979
0.000355934
0.00638879
0.000642611
0.00996838
0.000922007
0.0131317
0.00115649
0.0158858
0.00132614
0.0182509
0.00142892
0.0203135
0.00147357
0.0221819
0.00147441
0.0239602
0.0257545
0.00144251
0.000123305
0.00234648
0.000370245
0.00614185
0.000679165
0.00965946
0.000991372
0.0128195
0.00126695
0.0156103
0.00148254
0.0180353
0.00163291
0.0201631
0.00172464
0.0220902
0.00177143
0.0239134
0.0257413
0.00178461
0.000125383
0.0022211
0.000382202
0.00588504
0.000711447
0.00933022
0.00105487
0.0124761
0.00137073
0.0152944
0.00163246
0.0177736
0.00183141
0.0199642
0.00197172
0.0219499
0.00206602
0.0238191
0.0256816
0.00212565
0.000126715
0.00209438
0.000391783
0.00561997
0.000739284
0.00898271
0.00111206
0.0121033
0.0014671
0.0149393
0.00177485
0.0174659
0.00202322
0.0197158
0.00221351
0.0217596
0.00235695
0.0236757
0.0255741
0.00246448
0.000127321
0.00196706
0.000398983
0.00534831
0.000762545
0.00861915
0.00116255
0.0117033
0.00155532
0.0145466
0.00190866
0.0171125
0.00220702
0.0194175
0.00244863
0.021518
0.00264285
0.0234815
0.0254172
0.0027998
0.000127227
0.00183984
0.000403821
0.00507171
0.000781136
0.00824184
0.00120602
0.0112784
0.00163469
0.0141179
0.00203281
0.0167144
0.00238145
0.0190688
0.00267556
0.0212238
0.00292218
0.0232348
0.0252092
0.00313016
0.000126461
0.00171338
0.000406333
0.00479184
0.000795005
0.00785317
0.00124216
0.0108313
0.00170457
0.0136555
0.00214626
0.0162727
0.00254511
0.01867
0.0028927
0.0208763