/*--------------------------------*- C++ -*----------------------------------*\
  =========                 |
  \\      /  F ield         | OpenFOAM: The Open Source CFD Toolbox
   \\    /   O peration     | Website:  https://openfoam.org
    \\  /    A nd           | Version:  7
     \\/     M anipulation  |
\*---------------------------------------------------------------------------*/
FoamFile
{
    version     2.0;
    format      ascii;
    class       volVectorField;
    location    "35";
    object      U;
}
// * * * * * * * * * * * * * * * * * * * * * * * * * * * * * * * * * * * * * //

dimensions      [0 1 -1 0 0 0 0];

internalField   nonuniform List<vector> 
10500
(
(-0.00460882 0.000537537 -5.69305e-21)
(-0.00631733 -0.000278065 7.99261e-21)
(0.000263465 -0.00130621 -4.40007e-20)
(0.0148474 -0.0024396 -3.75849e-20)
(0.036458 -0.00344874 -1.03101e-20)
(0.0632234 -0.00436963 6.00345e-21)
(0.0940411 -0.00517678 -3.26283e-20)
(0.128763 -0.0058978 -4.6289e-21)
(0.164341 -0.00635834 -9.6306e-21)
(0.204121 -0.00682442 7.1979e-21)
(-0.00460562 0.00158749 -9.51589e-21)
(-0.00585264 -0.000866983 -1.99159e-20)
(0.00142385 -0.00394225 -3.68203e-20)
(0.0167697 -0.00732767 5.7167e-20)
(0.0391998 -0.0103365 2.60368e-20)
(0.0668145 -0.0130781 -9.9419e-21)
(0.0984954 -0.0154775 3.5451e-20)
(0.134135 -0.0176138 -4.16122e-20)
(0.170484 -0.0189791 -8.09271e-22)
(0.211506 -0.0203226 -1.33768e-20)
(-0.00459217 0.00256249 -6.30548e-20)
(-0.00491349 -0.00155412 6.31017e-20)
(0.00375167 -0.0066493 7.06836e-20)
(0.0206161 -0.0122427 -1.71675e-19)
(0.0446774 -0.0171953 -5.51414e-20)
(0.0739803 -0.0216946 1.27301e-19)
(0.107374 -0.0256198 1.66792e-20)
(0.144829 -0.0290914 1.04051e-19)
(0.182703 -0.0313128 4.52396e-20)
(0.226171 -0.0333706 1.10361e-20)
(-0.00455451 0.00341465 6.09835e-20)
(-0.00348058 -0.00240203 -1.09748e-19)
(0.00726091 -0.00947183 -1.25282e-19)
(0.0263904 -0.0171998 1.98027e-19)
(0.0528791 -0.0240037 1.41237e-20)
(0.0846874 -0.0301563 -7.28417e-21)
(0.120616 -0.0354977 1.44777e-19)
(0.160747 -0.0401728 1.1868e-20)
(0.20086 -0.0431722 -2.01081e-20)
(0.247904 -0.0456757 1.00412e-19)
(-0.00447211 0.0040991 -2.75119e-19)
(-0.00152543 -0.0034685 5.40424e-22)
(0.0119721 -0.0124492 -6.86407e-20)
(0.0340978 -0.0222095 -1.57238e-20)
(0.0637867 -0.0307362 2.1541e-19)
(0.0988863 -0.0383977 -3.3078e-19)
(0.138131 -0.0450043 -2.41034e-19)
(0.181744 -0.0507018 9.8223e-20)
(0.224752 -0.0543757 7.16453e-20)
(0.276388 -0.0569574 -6.78064e-20)
(-0.00431817 0.00457459 4.79494e-19)
(0.000988956 -0.00480441 1.2518e-19)
(0.0179119 -0.0156138 4.68419e-19)
(0.0437445 -0.0272759 1.07529e-19)
(0.0773758 -0.0373622 1.70675e-19)
(0.11651 -0.0463499 3.15715e-19)
(0.1598 -0.0540318 -1.22174e-19)
(0.207624 -0.0605248 -2.56866e-19)
(0.254112 -0.0647489 3.00613e-20)
(0.311201 -0.0669529 1.38955e-19)
(-0.00405985 0.00480414 -1.50318e-19)
(0.00410726 -0.00645161 3.35006e-20)
(0.0251121 -0.0189899 -4.23944e-19)
(0.0553373 -0.0323953 1.36677e-19)
(0.093615 -0.0438446 -1.46814e-19)
(0.137475 -0.0539398 2.64207e-20)
(0.185473 -0.0624708 1.11332e-19)
(0.238141 -0.0694917 9.03483e-21)
(0.288605 -0.0741262 -3.48529e-19)
(0.351812 -0.0754239 -2.20745e-19)
(-0.00365955 0.00475883 -1.82998e-19)
(0.00788168 -0.00844398 -3.64859e-19)
(0.0336088 -0.0225914 4.5502e-19)
(0.0688827 -0.0375545 -1.50412e-21)
(0.112465 -0.0501383 -2.00912e-19)
(0.161681 -0.0610894 -4.25682e-19)
(0.214969 -0.0702108 4.94978e-19)
(0.273006 -0.0774571 -2.40378e-19)
(0.32784 -0.0823517 1.706e-19)
(0.397594 -0.0821632 1.83041e-20)
(-0.00307642 0.0044176 1.18719e-19)
(0.01237 -0.0108057 4.96403e-19)
(0.0434418 -0.0264207 -3.69612e-19)
(0.0843858 -0.0427292 -4.20617e-19)
(0.133879 -0.0561896 1.07208e-19)
(0.189007 -0.0677152 9.94227e-20)
(0.24808 -0.07714 4.02782e-19)
(0.311879 -0.0842821 2.98535e-19)
(0.371364 -0.0892796 -1.15339e-19)
(0.447823 -0.0870015 1.836e-19)
(-0.00226595 0.00376464 -1.91772e-19)
(0.0176339 -0.013547 -5.04247e-20)
(0.0546529 -0.0304674 -2.52198e-19)
(0.101849 -0.0478836 4.34038e-21)
(0.1578 -0.0619351 -1.37879e-20)
(0.219315 -0.0737284 1.85844e-19)
(0.284565 -0.083146 4.27083e-20)
(0.354376 -0.0898368 3.88258e-19)
(0.418673 -0.0947749 1.1243e-19)
(0.501691 -0.0898137 -1.93922e-19)
(-0.00118075 0.00279133 1.99285e-20)
(0.0237379 -0.0166648 -4.83994e-19)
(0.0672843 -0.034707 3.98834e-19)
(0.121271 -0.0529686 -2.17321e-19)
(0.184159 -0.0673014 -6.45736e-20)
(0.252448 -0.0790346 -2.4316e-20)
(0.324154 -0.088117 1.38176e-20)
(0.400072 -0.0940025 -5.8619e-19)
(0.469216 -0.0987145 3.05928e-20)
(0.558321 -0.0905239 4.36218e-20)
(0.000227997 0.00149762 -4.72603e-19)
(0.030748 -0.0201426 7.60479e-19)
(0.0813766 -0.039101 -2.66163e-19)
(0.142643 -0.0579224 6.53569e-19)
(0.212876 -0.0722052 -6.00415e-19)
(0.288226 -0.0835352 -2.48189e-19)
(0.366549 -0.0919428 3.06648e-19)
(0.448499 -0.0966755 3.14513e-19)
(0.5224 -0.100988 -1.80005e-19)
(0.616785 -0.0891086 -1.67609e-19)
(0.00200965 -0.000108177 3.92681e-19)
(0.0387301 -0.0239501 -1.05754e-19)
(0.0969672 -0.0435959 5.02644e-19)
(0.165949 -0.0626693 -8.39092e-20)
(0.243854 -0.0765534 4.47655e-19)
(0.326447 -0.0871284 7.91257e-19)
(0.411419 -0.0945177 -3.83537e-19)
(0.499159 -0.0977711 3.33906e-20)
(0.577597 -0.101499 3.47847e-19)
(0.676126 -0.0855991 2.03737e-19)
(0.00421315 -0.00200952 -1.90632e-19)
(0.0477477 -0.0280431 -5.79414e-19)
(0.114088 -0.0481232 -3.57501e-19)
(0.191164 -0.0671209 -3.98868e-19)
(0.276982 -0.0802443 -4.77146e-20)
(0.366887 -0.0897104 -6.89661e-19)
(0.458405 -0.0957427 2.09179e-19)
(0.551522 -0.0972274 -2.98376e-19)
(0.634158 -0.100169 -2.5481e-19)
(0.735381 -0.0800817 -3.8176e-20)
(0.00688604 -0.00418185 3.25469e-19)
(0.0578604 -0.0323632 -5.01132e-20)
(0.132763 -0.0526002 -3.11515e-19)
(0.218248 -0.0711766 3.57094e-19)
(0.312128 -0.0831693 6.68022e-19)
(0.409297 -0.0911789 -6.09634e-20)
(0.507121 -0.0955297 -5.78255e-19)
(0.605041 -0.0950099 2.76372e-19)
(0.691421 -0.0969377 4.82568e-19)
(0.793612 -0.0727057 7.73692e-20)
(0.0100735 -0.0065928 2.07209e-19)
(0.0691217 -0.0368388 7.86681e-20)
(0.153006 -0.0569307 1.10424e-19)
(0.247146 -0.074725 -2.91314e-19)
(0.34914 -0.0852148 -4.94353e-19)
(0.453405 -0.0914349 7.99896e-19)
(0.557152 -0.0938047 4.17998e-19)
(0.659156 -0.0911148 -3.383e-20)
(0.748724 -0.0917712 -3.02648e-19)
(0.849933 -0.06369 -1.37597e-19)
(0.0138175 -0.00920266 5.39829e-19)
(0.081577 -0.0413857 -1.34368e-19)
(0.174819 -0.061006 1.71066e-19)
(0.277786 -0.0776456 1.39663e-19)
(0.387843 -0.0862651 -8.94816e-20)
(0.498912 -0.0903863 1.11144e-19)
(0.608065 -0.0905127 2.00547e-19)
(0.71331 -0.0855722 3.4194e-19)
(0.805413 -0.0846547 -2.50693e-19)
(0.903513 -0.0532813 -8.62952e-20)
(0.0181561 -0.0119653 -8.79378e-19)
(0.0952625 -0.0459083 6.40912e-19)
(0.198188 -0.0647069 -3.38034e-19)
(0.310076 -0.0798119 -5.56312e-19)
(0.428037 -0.0862055 -1.01557e-19)
(0.5455 -0.0879517 -6.62281e-19)
(0.659404 -0.0856232 -7.13693e-20)
(0.766962 -0.0784487 -1.93372e-19)
(0.86085 -0.0755669 5.14118e-19)
(0.953527 -0.0416526 -1.18482e-19)
(0.0231226 -0.0148286 -1.31821e-19)
(0.110203 -0.0503014 -2.93196e-19)
(0.223083 -0.0679062 8.7293e-19)
(0.343902 -0.0810935 8.05039e-19)
(0.469501 -0.084926 -9.68625e-20)
(0.592825 -0.0840634 6.44439e-19)
(0.710707 -0.0791357 -1.58795e-19)
(0.819614 -0.0698464 5.83703e-20)
(0.914469 -0.064475 3.07668e-19)
(0.999268 -0.0291888 5.721e-19)
(0.0287425 -0.017733 1.77917e-19)
(0.126407 -0.0544489 1.65459e-19)
(0.249454 -0.0704683 5.86976e-21)
(0.379126 -0.0813585 -2.80224e-19)
(0.511986 -0.0823238 2.73092e-19)
(0.640526 -0.0786708 -2.1679e-19)
(0.761502 -0.0710838 1.55075e-19)
(0.870812 -0.0598927 1.9119e-19)
(0.965849 -0.0515123 2.6385e-19)
(1.04115 -0.0178479 -1.83712e-19)
(0.0350253 -0.0206049 -2.31873e-19)
(0.143861 -0.0582202 -8.24916e-20)
(0.277223 -0.0722481 -6.65449e-19)
(0.415581 -0.0804737 3.38566e-19)
(0.555219 -0.0783053 -2.72403e-19)
(0.688226 -0.0717413 -4.10335e-19)
(0.811315 -0.06153 -7.1311e-19)
(0.920079 -0.0487283 -2.16965e-19)
(1.01443 -0.0373512 7.97863e-19)
(1.08271 -0.0111313 -4.38312e-20)
(0.0419797 -0.0233752 9.39876e-19)
(0.162538 -0.0614871 -3.8935e-19)
(0.306291 -0.0731075 3.50815e-19)
(0.453075 -0.0783181 1.23396e-19)
(0.598905 -0.0727965 9.33011e-19)
(0.735535 -0.0632662 3.5468e-20)
(0.859684 -0.0505567 7.2815e-19)
(0.966888 -0.0365027 -1.16187e-19)
(1.05873 -0.0231941 -2.73068e-19)
(1.12212 -0.00720529 -3.14615e-19)
(0.0496196 -0.0259836 -7.94816e-19)
(0.182409 -0.0641319 7.47807e-19)
(0.336553 -0.0729198 -2.39583e-19)
(0.491406 -0.0747875 5.58285e-19)
(0.64274 -0.0657448 -6.83459e-19)
(0.782072 -0.0532602 -4.38249e-20)
(0.906183 -0.038258 1.45099e-19)
(1.01081 -0.0232948 1.79845e-19)
(1.09841 -0.0089005 -4.64232e-19)
(1.15715 0.000171042 8.79439e-20)
(0.0579427 -0.02836 -6.19064e-19)
(0.20342 -0.0660276 -5.45332e-19)
(0.367872 -0.0715568 -2.46858e-19)
(0.530345 -0.0697857 -1.03609e-18)
(0.686411 -0.0571151 4.20974e-20)
(0.827464 -0.0417596 -8.34473e-20)
(0.950438 -0.0247418 -1.77965e-19)
(1.05151 -0.00919437 -4.05373e-19)
(1.13358 0.00558898 7.66334e-19)
(1.1871 0.0101551 1.79552e-19)
(0.0669355 -0.0304306 6.18036e-19)
(0.225494 -0.0670472 -1.46103e-19)
(0.40009 -0.0688976 -2.24043e-20)
(0.569643 -0.0632325 1.82701e-19)
(0.729592 -0.0468948 -2.83514e-19)
(0.871352 -0.0288256 6.21293e-19)
(0.992125 -0.0101335 -4.59137e-20)
(1.08876 0.00565864 -1.41763e-19)
(1.16445 0.0201733 -2.59606e-19)
(1.21241 0.0216747 -3.28603e-19)
(0.0765749 -0.0321218 4.2264e-19)
(0.248537 -0.0670685 2.03663e-20)
(0.433025 -0.0648341 3.7504e-19)
(0.609035 -0.0550683 1.15681e-19)
(0.771962 -0.0350966 9.74307e-19)
(0.913403 -0.0145438 -6.46076e-19)
(1.03098 0.00542514 1.62383e-19)
(1.12241 0.0210963 1.12747e-19)
(1.1912 0.0347413 -4.6983e-19)
(1.23341 0.0340019 4.01443e-19)
(0.0868289 -0.0333613 -5.64809e-19)
(0.272437 -0.0659767 -1.6351e-19)
(0.466479 -0.0592736 4.25128e-19)
(0.648245 -0.0452559 -1.01119e-19)
(0.813202 -0.0217585 -7.16546e-19)
(0.953316 0.000977616 6.91533e-19)
(1.06678 0.0217811 2.05806e-19)
(1.15238 0.0369425 2.5793e-19)
(1.21399 0.0491915 2.99536e-19)
(1.25039 0.0466403 -3.88545e-19)
(0.0976559 -0.0340789 -4.68381e-19)
(0.297061 -0.0636669 1.0432e-19)
(0.500235 -0.0521412 -5.70116e-19)
(0.68699 -0.0337827 1.38978e-19)
(0.853006 -0.00694372 -5.91641e-19)
(0.990823 0.0176112 -7.62084e-19)
(1.09939 0.0387744 -5.61578e-19)
(1.17866 0.0530244 -7.61337e-20)
(1.23304 0.0634278 -3.3327e-19)
(1.26368 0.0592354 2.41483e-19)
(0.109004 -0.0342076 1.55323e-18)
(0.322263 -0.0600456 5.25816e-19)
(0.534062 -0.0433824 3.09403e-19)
(0.724983 -0.0206608 -6.52737e-19)
(0.891087 0.00926109 5.1708e-19)
(1.0257 0.0352141 3.36433e-19)
(1.12868 0.0562421 1.87458e-19)
(1.2013 0.0691789 -2.85203e-19)
(1.24856 0.0773623 -6.20323e-20)
(1.27365 0.0715452 -2.46278e-19)
(0.120812 -0.0336846 -9.72906e-19)
(0.347879 -0.0550335 -8.98301e-19)
(0.567719 -0.0329643 -4.69293e-19)
(0.761942 -0.00592796 2.97637e-19)
(0.927178 0.0267477 2.72919e-20)
(1.05775 0.0536319 -5.85766e-19)
(1.15463 0.0740234 2.19797e-20)
(1.2204 0.0852577 5.94489e-19)
(1.26079 0.0909184 4.32066e-19)
(1.28063 0.0834152 3.34328e-19)
(0.13301 -0.032453 -2.18473e-19)
(0.373731 -0.0485672 3.88529e-20)
(0.600954 -0.0208774 9.50344e-19)
(0.797589 0.0103533 -1.32333e-20)
(0.96104 0.0453889 1.08337e-19)
(1.08685 0.0727031 6.49827e-19)
(1.17721 0.0919626 -4.65231e-20)
(1.23611 0.10113 -2.73269e-19)
(1.26997 0.104032 -3.56231e-19)
(1.28496 0.0947549 -1.82486e-20)
(0.145518 -0.0304622 3.09112e-19)
(0.39963 -0.0406011 5.10818e-19)
(0.633516 -0.00713616 -8.90925e-19)
(0.831661 0.0280968 4.56236e-19)
(0.992463 0.0650417 -4.54653e-20)
(1.11289 0.0922626 -1.32862e-19)
(1.19648 0.109912 3.82432e-19)
(1.24859 0.116682 -2.48579e-19)
(1.27636 0.116653 1.11636e-19)
(1.28695 0.105518 1.69281e-19)
(0.158248 -0.0276695 2.43606e-19)
(0.425378 -0.0311085 1.01426e-19)
(0.665151 0.00822052 3.29937e-19)
(0.863909 0.0471942 -4.24501e-19)
(1.02127 0.0855506 -1.79613e-19)
(1.13581 0.112146 -1.85698e-19)
(1.2125 0.127735 -2.19093e-19)
(1.25803 0.13182 4.76084e-19)
(1.28021 0.128742 -8.55057e-20)
(1.28689 0.115687 -1.96512e-19)
(0.171105 -0.0240408 -3.02556e-19)
(0.450769 -0.020083 1.64967e-20)
(0.695609 0.0251299 -1.38294e-19)
(0.894104 0.0675172 1.08527e-19)
(1.04732 0.106751 5.10973e-19)
(1.15559 0.13219 2.98385e-19)
(1.22539 0.145306 -1.23081e-19)
(1.26464 0.146465 -1.07961e-19)
(1.28176 0.140272 2.16067e-19)
(1.28504 0.125266 4.06906e-20)
(0.183987 -0.0195518 -2.51096e-19)
(0.475592 -0.00753939 2.04372e-19)
(0.72465 0.0435057 -2.23043e-19)
(0.922041 0.0889202 6.80714e-20)
(1.07049 0.128472 -1.59893e-19)
(1.17224 0.15224 -2.13059e-20)
(1.23526 0.162511 1.06248e-19)
(1.26863 0.160552 -1.11718e-19)
(1.28124 0.151223 -2.91256e-21)
(1.28162 0.134265 2.72917e-20)
(0.196787 -0.0141885 3.89798e-19)
(0.499637 0.00648633 -3.17863e-19)
(0.752042 0.0632398 6.57018e-20)
(0.947539 0.111243 1.50006e-20)
(1.09072 0.150539 -3.63736e-20)
(1.18581 0.172146 1.98645e-20)
(1.24226 0.179249 -1.30824e-21)
(1.27019 0.17403 4.64584e-20)
(1.27886 0.161584 -4.37232e-20)
(1.27684 0.142704 -1.65192e-20)
(0.209392 -0.00794852 1.44562e-19)
(0.522694 0.0219365 1.27286e-19)
(0.777572 0.0842032 1.43543e-19)
(0.970446 0.134312 -2.13051e-19)
(1.10796 0.172778 -1.90375e-19)
(1.19637 0.191768 2.012e-20)
(1.24656 0.195432 -1.20771e-19)
(1.26954 0.186858 -5.47326e-20)
(1.27483 0.171349 1.12017e-20)
(1.27086 0.150601 -1.23648e-21)
(0.221691 -0.000841289 -1.32994e-19)
(0.544558 0.0387319 7.89354e-20)
(0.801041 0.106248 7.21152e-20)
(0.990637 0.157946 1.68616e-19)
(1.12219 0.195018 5.55194e-20)
(1.20401 0.210974 -9.89327e-20)
(1.24832 0.210981 -7.03321e-21)
(1.26687 0.199005 -6.90268e-22)
(1.26932 0.180513 -2.72247e-20)
(1.26384 0.157974 1.72082e-22)
(0.233569 0.00711133 8.01983e-21)
(0.565035 0.056773 -1.35922e-19)
(0.822273 0.129211 -1.06512e-19)
(1.00802 0.181957 -4.80767e-20)
(1.13343 0.217089 -2.15813e-20)
(1.20883 0.229645 8.55094e-21)
(1.24771 0.225828 1.39369e-20)
(1.26237 0.210443 2.46467e-20)
(1.2625 0.189075 4.78656e-21)
(1.25591 0.164838 1.30496e-21)
(0.244903 0.0158756 6.41445e-21)
(0.583933 0.0759413 -1.08304e-20)
(0.841109 0.152914 4.79596e-20)
(1.02251 0.206154 3.43247e-20)
(1.14171 0.238829 1.36385e-20)
(1.21098 0.247667 -6.30385e-21)
(1.2449 0.239914 -1.50786e-20)
(1.2562 0.221153 3.14375e-22)
(1.25453 0.197036 5.35601e-21)
(1.24717 0.171204 -3.32935e-21)
(0.255531 0.0254036 7.44441e-21)
(0.601051 0.0960974 -8.5649e-21)
(0.857405 0.177166 4.18713e-20)
(1.03408 0.230341 3.34996e-20)
(1.1471 0.260081 7.49948e-21)
(1.21057 0.264939 -4.74706e-21)
(1.24005 0.253187 -1.37219e-20)
(1.24855 0.231117 3.18656e-21)
(1.24553 0.204394 2.63465e-21)
(1.23774 0.177078 -1.51318e-21)
(0.265337 0.0356288 1.13505e-20)
(0.616224 0.117074 -1.23872e-19)
(0.871049 0.201758 -8.01445e-20)
(1.04271 0.25432 -4.8891e-20)
(1.14967 0.280694 -2.61648e-20)
(1.20775 0.281368 8.82759e-21)
(1.23334 0.265602 1.24691e-20)
(1.23955 0.240322 1.28377e-20)
(1.23563 0.211146 -4.70332e-22)
(1.22769 0.182463 2.60758e-21)
(0.274264 0.0464786 -9.74481e-20)
(0.629344 0.138703 7.75396e-20)
(0.881981 0.226487 5.18516e-20)
(1.04841 0.277903 1.27591e-19)
(1.14953 0.30053 3.43892e-20)
(1.20267 0.296871 -6.12891e-20)
(1.22491 0.277121 -4.46304e-21)
(1.22935 0.248753 -5.82804e-21)
(1.22492 0.217291 -8.16374e-21)
(1.2171 0.187358 3.70677e-22)
(0.282221 0.0578709 9.34157e-20)
(0.640297 0.160801 1.12552e-19)
(0.89015 0.251143 1.02594e-19)
(1.05123 0.300906 -1.52112e-19)
(1.14678 0.319457 -9.11418e-20)
(1.19549 0.311372 -5.41775e-21)
(1.21493 0.287709 -3.6785e-20)
(1.21807 0.256402 -2.07841e-20)
(1.21351 0.222825 4.98261e-21)
(1.20603 0.191758 3.30063e-22)
(0.289114 0.0697122 2.67916e-19)
(0.648981 0.183178 -2.61205e-19)
(0.895527 0.275516 5.60231e-20)
(1.05122 0.323149 1.33882e-20)
(1.14156 0.337356 4.06298e-21)
(1.18635 0.324806 6.79885e-21)
(1.20354 0.297337 1.12733e-20)
(1.20585 0.263255 1.15309e-20)
(1.20149 0.227743 1.85821e-21)
(1.19455 0.195656 2.9665e-21)
(0.294861 0.0818997 -2.00916e-19)
(0.655319 0.205634 1.4811e-19)
(0.898109 0.299396 -1.58028e-19)
(1.04847 0.344461 6.41839e-20)
(1.13401 0.354114 -5.76377e-20)
(1.17542 0.337111 1.97179e-21)
(1.19087 0.305979 2.37543e-20)
(1.19277 0.269301 -1.80007e-21)
(1.18893 0.232039 7.18185e-21)
(1.18271 0.199044 -6.60621e-21)
(0.299392 0.0943221 -1.40875e-19)
(0.659256 0.227961 -2.11458e-20)
(0.897918 0.322574 -5.74817e-20)
(1.04308 0.364679 3.53286e-20)
(1.12425 0.369628 1.91935e-19)
(1.16283 0.348234 6.13599e-20)
(1.17707 0.313611 -1.68958e-21)
(1.17895 0.274531 1.54433e-20)
(1.17589 0.235702 -4.01777e-20)
(1.17058 0.201911 -5.96292e-21)
(0.30265 0.106861 1.62873e-19)
(0.660762 0.249949 2.51788e-20)
(0.895002 0.344847 1.88985e-19)
(1.03514 0.383648 -1.82794e-19)
(1.11245 0.383804 -4.53347e-20)
(1.14875 0.358128 -4.02231e-20)
(1.16225 0.320214 1.26353e-20)
(1.16448 0.278936 -5.0894e-20)
(1.16244 0.238724 1.90945e-20)
(1.15819 0.204241 8.68256e-20)
(0.304589 0.119392 1.17141e-19)
(0.659831 0.271388 2.10486e-19)
(0.889428 0.366019 -3.16473e-19)
(1.02481 0.401224 1.47235e-19)
(1.09876 0.396559 -2.17996e-20)
(1.13332 0.366751 7.68158e-22)
(1.14655 0.325768 -4.36398e-21)
(1.14945 0.282506 2.62213e-20)
(1.14864 0.241096 -2.91331e-20)
(1.14559 0.206021 -8.27491e-20)
(0.305179 0.131786 -1.02123e-19)
(0.656481 0.292066 -2.48633e-20)
(0.881287 0.385899 3.19554e-19)
(1.01221 0.417274 -4.7084e-21)
(1.08334 0.407815 7.89998e-21)
(1.11668 0.374068 -1.95655e-20)
(1.13006 0.330259 6.97331e-23)
(1.13393 0.285233 9.99427e-20)
(1.13454 0.242809 1.3422e-19)
(1.13281 0.207235 4.66622e-22)
(0.304403 0.143911 -3.04663e-19)
(0.650751 0.311777 -3.12308e-19)
(0.87069 0.40431 -1.20819e-19)
(0.997502 0.431674 2.20385e-20)
(1.06635 0.417507 -2.79167e-21)
(1.09898 0.380048 2.67599e-20)
(1.11291 0.333673 4.22802e-21)
(1.11802 0.287108 -1.85788e-19)
(1.1202 0.243854 -1.79989e-20)
(1.11992 0.207867 -2.23896e-19)
(0.302261 0.155635 4.13132e-19)
(0.642705 0.33032 1.54827e-19)
(0.857764 0.421082 5.31145e-20)
(0.980851 0.444315 -6.48511e-20)
(1.04795 0.425577 -4.91937e-20)
(1.08036 0.384665 -5.07418e-20)
(1.0952 0.336 -5.45937e-20)
(1.10177 0.288125 -1.19357e-19)
(1.10566 0.244222 4.17076e-20)
(1.10693 0.2079 1.35217e-19)
(0.298766 0.166825 -1.47415e-19)
(0.632431 0.347501 1.68565e-20)
(0.842654 0.436058 -5.99855e-20)
(0.962427 0.455096 1.24447e-20)
(1.02831 0.431976 2.99767e-20)
(1.06095 0.3879 1.99134e-19)
(1.07703 0.337232 1.28327e-19)
(1.08527 0.288278 1.52321e-20)
(1.09096 0.243906 1.42836e-19)
(1.09388 0.207318 -1.62857e-19)
(0.293947 0.17735 -7.95883e-20)
(0.620034 0.363136 -2.08341e-20)
(0.825522 0.449096 2.36774e-20)
(0.942409 0.463931 2.12086e-20)
(1.0076 0.436664 1.64865e-19)
(1.04089 0.389736 -2.08119e-19)
(1.0585 0.337362 -1.0018e-19)
(1.06858 0.287566 -1.07921e-19)
(1.07614 0.242903 -1.75826e-19)
(1.08081 0.206105 2.46531e-19)
(0.287847 0.187083 1.98007e-20)
(0.605639 0.377053 -1.69126e-20)
(0.806542 0.46007 -3.67081e-20)
(0.920982 0.470746 -2.12806e-20)
(0.98597 0.439607 -2.13339e-19)
(1.02031 0.390164 1.47561e-19)
(1.03972 0.336389 -6.30002e-20)
(1.05177 0.285987 -7.25529e-20)
(1.06124 0.24121 2.52489e-19)
(1.06774 0.204244 -2.585e-19)
(0.280524 0.195902 -7.79006e-20)
(0.589392 0.389092 -1.10238e-20)
(0.785901 0.468863 -9.29099e-21)
(0.898334 0.475479 -8.00847e-20)
(0.963593 0.440784 1.15778e-19)
(0.999337 0.389177 -2.14049e-19)
(1.02077 0.334312 -7.66307e-20)
(1.03491 0.283544 1.47641e-19)
(1.0463 0.238828 1.87176e-19)
(1.05469 0.20172 3.0225e-19)
(0.272053 0.203693 4.12351e-20)
(0.571452 0.399108 8.08891e-20)
(0.763793 0.475379 5.50371e-20)
(0.874657 0.478081 3.83395e-19)
(0.940629 0.440177 7.06781e-20)
(0.9781 0.386775 3.36281e-20)
(1.00175 0.331136 1.82568e-19)
(1.01806 0.280242 2.63376e-19)
(1.03135 0.23576 -6.91458e-19)
(1.04169 0.198516 -1.13733e-19)
(0.262519 0.210351 2.01957e-19)
(0.551999 0.406975 -1.6372e-19)
(0.740424 0.479537 8.91657e-20)
(0.850145 0.478515 -1.61273e-19)
(0.917238 0.43778 3.8958e-19)
(0.956721 0.382961 -2.56608e-20)
(0.982756 0.326865 -3.59151e-20)
(1.00131 0.276091 -1.47772e-19)
(1.01642 0.232009 4.57988e-19)
(1.02872 0.194613 -2.16831e-19)
(0.252025 0.215781 -3.10147e-19)
(0.531221 0.412582 1.08664e-19)
(0.716004 0.481271 -1.72664e-19)
(0.824992 0.476758 -2.79701e-20)
(0.893577 0.433595 -5.47621e-19)
(0.935319 0.377744 -5.89827e-20)
(0.963879 0.32151 -4.82945e-19)
(0.984715 0.271103 6.34097e-20)
(1.00155 0.227581 3.02956e-19)
(1.01582 0.18998 2.47939e-19)
(0.240667 0.219886 5.57118e-20)
(0.509315 0.415834 8.28826e-20)
(0.690746 0.480532 3.15578e-19)
(0.79939 0.472798 3.44568e-20)
(0.8698 0.427629 1.82386e-19)
(0.914013 0.371137 3.31564e-19)
(0.94521 0.315084 5.58679e-19)
(0.968355 0.265297 1.99878e-19)
(0.98686 0.222531 -6.74644e-19)
(1.00305 0.184702 1.47021e-19)
(0.228509 0.222535 -1.48312e-19)
(0.486467 0.416629 -2.73336e-20)
(0.664862 0.47728 -1.6541e-21)
(0.773532 0.466634 1.93695e-19)
(0.846059 0.419899 -2.15666e-19)
(0.892915 0.363159 2.233e-19)
(0.926836 0.307599 -1.89801e-19)
(0.95232 0.258683 -2.08545e-19)
(0.972565 0.216953 9.08672e-19)
(0.990316 0.179479 3.96031e-19)
(0.21569 0.223658 2.03179e-20)
(0.462907 0.414904 1.98552e-19)
(0.638576 0.471497 -5.0676e-19)
(0.747607 0.45828 -6.67117e-19)
(0.8225 0.410431 9.01881e-20)
(0.872136 0.353834 -4.73032e-19)
(0.908839 0.299072 1.69758e-19)
(0.936701 0.251239 -1.16769e-19)
(0.958893 0.210711 -3.03471e-19)
(0.978699 0.174525 -8.88665e-19)
(0.202403 0.223265 6.51314e-19)
(0.438887 0.410654 -4.49392e-19)
(0.612122 0.463201 2.91513e-19)
(0.721807 0.447766 3.76697e-19)
(0.799267 0.399259 1.60392e-19)
(0.851781 0.343189 6.07126e-19)
(0.891295 0.28952 1.68194e-19)
(0.92154 0.242973 2.22342e-19)
(0.945699 0.203731 -6.03944e-19)
(0.967204 0.169113 9.4996e-20)
(0.188795 0.221333 -4.4785e-19)
(0.414636 0.403875 1.29461e-19)
(0.585718 0.452417 -3.121e-19)
(0.696315 0.435132 -7.80599e-20)
(0.776497 0.386423 -1.447e-21)
(0.831951 0.331259 7.57345e-20)
(0.874278 0.278971 -3.37412e-19)
(0.906879 0.233911 -4.90803e-19)
(0.932983 0.196066 3.11171e-19)
(0.955999 0.163058 2.54296e-19)
(0.175007 0.217839 -2.19923e-19)
(0.390377 0.394576 -1.34678e-19)
(0.559581 0.439182 -5.66332e-19)
(0.671307 0.420428 1.73462e-19)
(0.754325 0.371971 5.29221e-19)
(0.812745 0.318082 -6.83021e-19)
(0.857857 0.267452 -5.99012e-19)
(0.892771 0.224077 2.41932e-19)
(0.920784 0.187765 5.51871e-19)
(0.945204 0.156407 8.16428e-20)
(0.161182 0.212779 -4.62655e-19)
(0.366335 0.382785 1.889e-21)
(0.53392 0.423554 2.92891e-19)
(0.646956 0.403717 -3.50042e-19)
(0.732877 0.35596 -8.34094e-19)
(0.794254 0.303703 -6.31363e-20)
(0.842102 0.254998 9.20603e-19)
(0.879269 0.213495 -4.31309e-19)
(0.909138 0.178855 -5.64099e-19)
(0.934879 0.149209 -1.35807e-19)
(0.147465 0.206164 2.91862e-19)
(0.34273 0.368556 5.86946e-19)
(0.50894 0.405603 4.24316e-19)
(0.623426 0.385072 3.6989e-19)
(0.712275 0.338452 1.7044e-19)
(0.77657 0.288171 8.89579e-19)
(0.82708 0.241647 -3.73454e-19)
(0.866423 0.202194 3.05476e-19)
(0.898083 0.169356 5.47762e-19)
(0.925076 0.141481 1.31776e-19)
(0.134001 0.198022 -5.35417e-19)
(0.31978 0.351958 1.91666e-19)
(0.48484 0.385417 -6.36573e-19)
(0.600874 0.364576 1.73738e-19)
(0.692636 0.319516 -7.65891e-19)
(0.759776 0.271541 -1.0132e-18)
(0.812854 0.22744 4.96841e-19)
(0.854283 0.190205 -4.40159e-20)
(0.887656 0.159291 -4.73681e-19)
(0.915835 0.133241 -3.19492e-19)
(0.120934 0.188397 7.21163e-19)
(0.297693 0.333082 -1.00266e-18)
(0.461807 0.363096 3.51329e-19)
(0.579449 0.342323 -7.45324e-19)
(0.674067 0.299229 5.93961e-19)
(0.743953 0.253873 4.65334e-19)
(0.799482 0.212421 -4.21684e-19)
(0.842893 0.177564 -4.84979e-19)
(0.877893 0.148688 3.37253e-19)
(0.907193 0.12451 2.53372e-19)
(0.108401 0.177344 -8.49727e-20)
(0.276671 0.312035 5.78802e-19)
(0.44002 0.338757 -6.30051e-19)
(0.559292 0.318415 4.47987e-19)
(0.656672 0.277674 -3.64172e-20)
(0.729175 0.235229 3.10361e-20)
(0.787022 0.196641 3.69593e-20)
(0.832299 0.164307 1.04185e-18)
(0.868826 0.137576 -1.66622e-19)
(0.89918 0.115318 -3.77802e-20)
(0.0965354 0.164935 2.91395e-19)
(0.256904 0.288943 5.54649e-21)
(0.419649 0.312529 3.25631e-19)
(0.540533 0.292966 1.73239e-20)
(0.640546 0.25494 1.60694e-19)
(0.715512 0.215679 -3.38936e-19)
(0.775524 0.180152 -3.94836e-20)
(0.822538 0.150476 -5.75029e-19)
(0.860486 0.125988 -2.57542e-19)
(0.891821 0.105695 2.61424e-19)
(0.0854633 0.151253 -1.9784e-19)
(0.23857 0.263947 -7.34483e-19)
(0.400847 0.284552 5.5987e-19)
(0.523294 0.266096 6.57548e-19)
(0.625775 0.231121 -6.91703e-20)
(0.703027 0.195295 -2.22445e-19)
(0.765036 0.163009 7.03653e-19)
(0.813648 0.136116 -5.13632e-19)
(0.852899 0.11396 2.32573e-19)
(0.88514 0.0956749 -3.74254e-19)
(0.0753022 0.136397 3.82215e-19)
(0.221834 0.237205 -3.60737e-19)
(0.38376 0.254978 -7.73894e-19)
(0.507684 0.237932 5.6205e-20)
(0.612441 0.206317 3.92824e-19)
(0.69178 0.174153 5.91619e-19)
(0.755603 0.145272 -7.44001e-19)
(0.805661 0.121274 3.88621e-19)
(0.846092 0.101531 -2.93458e-19)
(0.879155 0.0852933 -1.4878e-19)
(0.0661603 0.120475 2.22591e-19)
(0.206847 0.208888 -3.9252e-20)
(0.368516 0.22397 7.63198e-19)
(0.493803 0.20861 -2.46227e-19)
(0.600613 0.180631 2.44547e-19)
(0.681822 0.152334 4.36501e-20)
(0.747261 0.127004 -2.90904e-19)
(0.798607 0.106 1.40576e-19)
(0.840087 0.088742 5.56316e-19)
(0.873883 0.0745885 5.3084e-19)
(0.0581349 0.103606 -1.06561e-18)
(0.193742 0.179178 -2.1925e-19)
(0.355231 0.1917 -8.38859e-19)
(0.481739 0.178271 -2.4168e-19)
(0.590356 0.154173 -2.61686e-19)
(0.6732 0.129921 -5.47793e-19)
(0.740047 0.108269 1.85192e-19)
(0.792512 0.0903469 4.392e-19)
(0.834902 0.0756364 4.74855e-21)
(0.869337 0.0636005 -3.78251e-19)
(0.0513114 0.0859183 5.54199e-19)
(0.182638 0.14827 -1.07866e-20)
(0.344004 0.158347 1.24224e-19)
(0.471567 0.147062 2.90178e-20)
(0.581725 0.127054 -3.42052e-19)
(0.665953 0.107001 5.02927e-19)
(0.73399 0.0891356 4.61643e-19)
(0.787398 0.0743694 -2.44529e-19)
(0.830556 0.0622597 -1.21421e-19)
(0.865531 0.0523706 1.85098e-19)
(0.0457627 0.0675489 -1.36375e-19)
(0.173633 0.116369 2.1659e-19)
(0.33492 0.124099 2.32446e-19)
(0.463353 0.115135 -4.03631e-19)
(0.574764 0.0993903 2.19665e-20)
(0.660115 0.0836616 -1.02895e-20)
(0.729113 0.0696727 -2.5599e-19)
(0.783285 0.0581238 1.56746e-20)
(0.827061 0.0486591 4.68028e-20)
(0.862474 0.0409413 -1.90918e-19)
(0.0415481 0.0486411 1.42529e-19)
(0.166808 0.0836863 -1.43569e-19)
(0.328047 0.089149 -1.22093e-19)
(0.457146 0.0826447 3.29161e-19)
(0.569511 0.0713 8.98687e-20)
(0.655713 0.0599942 -2.20449e-19)
(0.725439 0.0499519 -1.68297e-20)
(0.780186 0.0416682 -1.77756e-19)
(0.82443 0.0348829 -1.16208e-19)
(0.860174 0.0293558 1.8423e-20)
(0.0387128 0.0293435 1.26204e-20)
(0.162223 0.05044 3.85962e-20)
(0.323437 0.0536932 7.11096e-20)
(0.452987 0.0497498 -1.08044e-19)
(0.565993 0.0429034 -5.62839e-20)
(0.652767 0.0360914 3.06599e-20)
(0.72298 0.0300457 -6.45771e-20)
(0.778114 0.0250616 7.07447e-20)
(0.822671 0.0209803 2.73183e-20)
(0.858637 0.0176583 1.05503e-20)
(0.0372874 0.00980839 1.08037e-20)
(0.159921 0.0168522 1.49889e-20)
(0.321123 0.0179322 -8.62315e-20)
(0.450901 0.0166109 6.53828e-20)
(0.56423 0.014322 3.04932e-20)
(0.651291 0.0120465 -1.96454e-20)
(0.721749 0.0100277 5.98546e-20)
(0.777077 0.00836398 7.01643e-21)
(0.821791 0.00700184 2.56876e-20)
(0.857868 0.00589346 -2.31423e-20)
(0.0372874 -0.00980839 1.34475e-20)
(0.159921 -0.0168522 -1.49889e-20)
(0.321123 -0.0179322 8.62315e-20)
(0.450901 -0.0166109 6.98989e-20)
(0.56423 -0.014322 1.90856e-20)
(0.651291 -0.0120465 -1.09565e-20)
(0.721749 -0.0100277 5.79869e-20)
(0.777077 -0.00836398 8.65084e-21)
(0.821791 -0.00700184 1.80785e-20)
(0.857868 -0.00589346 -1.43322e-20)
(0.0387128 -0.0293435 2.16956e-20)
(0.162223 -0.05044 4.85946e-20)
(0.323437 -0.0536932 7.09761e-20)
(0.452987 -0.0497498 -1.06202e-19)
(0.565993 -0.0429034 -4.80191e-20)
(0.652767 -0.0360914 1.81267e-20)
(0.72298 -0.0300457 -6.12508e-20)
(0.778114 -0.0250616 7.7339e-20)
(0.822671 -0.0209803 1.12575e-21)
(0.858637 -0.0176583 2.62165e-20)
(0.0415481 -0.0486411 1.44803e-19)
(0.166808 -0.0836863 -1.24443e-19)
(0.328047 -0.089149 -1.37831e-19)
(0.457146 -0.0826447 3.14125e-19)
(0.569511 -0.0713 1.00667e-19)
(0.655713 -0.0599942 -2.29632e-19)
(0.725439 -0.0499519 -2.44919e-20)
(0.780186 -0.0416682 -1.92882e-19)
(0.82443 -0.0348829 -8.42579e-20)
(0.860174 -0.0293558 -2.14863e-20)
(0.0457627 -0.0675489 -1.41178e-19)
(0.173633 -0.116369 2.0708e-19)
(0.33492 -0.124099 2.35708e-19)
(0.463353 -0.115135 -3.60446e-19)
(0.574764 -0.0993903 -2.6606e-20)
(0.660115 -0.0836616 1.59215e-20)
(0.729113 -0.0696727 -2.69692e-19)
(0.783285 -0.0581238 -2.08737e-20)
(0.827061 -0.0486591 3.69872e-20)
(0.862474 -0.0409413 -1.99225e-19)
(0.0513114 -0.0859183 5.97253e-19)
(0.182638 -0.14827 1.86e-20)
(0.344004 -0.158347 1.2016e-19)
(0.471567 -0.147062 2.98107e-20)
(0.581725 -0.127054 -3.8075e-19)
(0.665953 -0.107001 5.828e-19)
(0.73399 -0.0891356 3.87118e-19)
(0.787398 -0.0743694 -1.75767e-19)
(0.830556 -0.0622597 -1.28929e-19)
(0.865531 -0.0523706 1.35444e-19)
(0.0581349 -0.103606 -1.02837e-18)
(0.193742 -0.179178 -1.98375e-19)
(0.355231 -0.1917 -8.48088e-19)
(0.481739 -0.178271 -1.81807e-19)
(0.590356 -0.154173 -2.8727e-19)
(0.6732 -0.129921 -5.47842e-19)
(0.740047 -0.108269 1.95534e-19)
(0.792512 -0.0903469 4.61242e-19)
(0.834902 -0.0756364 -5.151e-20)
(0.869337 -0.0636005 -2.7809e-19)
(0.0661603 -0.120475 3.18926e-19)
(0.206847 -0.208888 9.97114e-21)
(0.368516 -0.22397 7.47111e-19)
(0.493803 -0.20861 -2.19257e-19)
(0.600613 -0.180631 2.61132e-19)
(0.681822 -0.152334 -3.96206e-20)
(0.747261 -0.127004 -1.31842e-19)
(0.798607 -0.106 -1.85099e-20)
(0.840087 -0.088742 6.11466e-19)
(0.873883 -0.0745885 4.40564e-19)
(0.0753022 -0.136397 3.56457e-19)
(0.221834 -0.237205 5.90941e-19)
(0.38376 -0.254978 -7.6519e-19)
(0.507684 -0.237932 1.82629e-20)
(0.612441 -0.206317 3.35216e-19)
(0.69178 -0.174153 6.99178e-19)
(0.755603 -0.145272 -8.72626e-19)
(0.805661 -0.121274 4.05293e-19)
(0.846092 -0.101531 -3.02058e-19)
(0.879155 -0.0852933 -4.10806e-20)
(0.0854633 -0.151253 -2.24664e-19)
(0.23857 -0.263947 1.28669e-19)
(0.400847 -0.284552 5.51302e-19)
(0.523294 -0.266096 6.67488e-19)
(0.625775 -0.231121 -1.70515e-19)
(0.703027 -0.195295 -1.69703e-19)