# Force coefficients
# liftDir     : (0.000000e+00 1.000000e+00 0.000000e+00)
# dragDir     : (1.000000e+00 0.000000e+00 0.000000e+00)
# pitchAxis   : (0.000000e+00 0.000000e+00 1.000000e+00)
# magUInf     : 1.000000e+00
# lRef        : 1.000000e+00
# Aref        : 1.000000e-01
# CofR        : (0.000000e+00 0.000000e+00 0.000000e+00)
# Time        	Cm            	Cd            	Cl            	Cl(f)         	Cl(r)         
0.0025        	-2.508432e-11	6.100129e+02	2.401410e-06	1.200680e-06	1.200730e-06
0.005         	-9.810170e-11	1.951058e+01	-4.236207e-06	-2.118202e-06	-2.118005e-06
0.0075        	-2.555497e-10	7.111626e+00	1.835057e-06	9.172728e-07	9.177839e-07
0.01          	-2.764590e-10	5.212503e+00	-4.673308e-07	-2.339418e-07	-2.333889e-07
0.0125        	-2.692266e-10	4.471793e+00	4.102375e-07	2.048495e-07	2.053880e-07
0.015         	-2.522146e-10	4.119956e+00	-1.891977e-07	-9.485106e-08	-9.434663e-08
0.0175        	-2.327132e-10	3.930743e+00	9.930634e-08	4.942046e-08	4.988588e-08
0.02          	-2.087239e-10	3.817197e+00	-1.356077e-08	-6.989107e-09	-6.571660e-09
0.0225        	-1.851094e-10	3.741061e+00	2.838393e-07	1.417345e-07	1.421047e-07
0.025         	-1.544891e-10	3.684231e+00	-1.514547e-07	-7.588184e-08	-7.557286e-08
0.0275        	-1.235885e-10	3.637605e+00	-2.069277e-09	-1.158227e-09	-9.110499e-10
0.03          	-9.271395e-11	3.596432e+00	-2.415907e-08	-1.217225e-08	-1.198682e-08
0.0325        	-6.235769e-11	3.558199e+00	-1.575626e-07	-7.884367e-08	-7.871895e-08
0.035         	-2.984754e-11	3.521605e+00	-8.461374e-08	-4.233672e-08	-4.227702e-08
0.0375        	-1.606925e-13	3.485936e+00	2.625434e-08	1.312701e-08	1.312733e-08
0.04          	2.972322e-11	3.450952e+00	-4.642535e-08	-2.318295e-08	-2.324240e-08
0.0425        	5.876845e-11	3.416424e+00	-4.409035e-08	-2.198641e-08	-2.210394e-08
0.045         	8.739567e-11	3.382276e+00	-3.587387e-08	-1.784954e-08	-1.802433e-08
0.0475        	1.148602e-10	3.348522e+00	-2.952397e-08	-1.464713e-08	-1.487685e-08
0.05          	1.415578e-10	3.315229e+00	-2.398151e-08	-1.184920e-08	-1.213231e-08
0.0525        	1.666585e-10	3.282400e+00	-2.582237e-08	-1.274453e-08	-1.307784e-08
0.055         	1.912411e-10	3.250105e+00	-2.344422e-08	-1.153087e-08	-1.191335e-08
0.0575        	2.146964e-10	3.218360e+00	-2.281683e-08	-1.119372e-08	-1.162311e-08
0.06          	2.369214e-10	3.187228e+00	-2.114809e-08	-1.033713e-08	-1.081097e-08
0.0625        	2.593167e-10	3.156686e+00	-1.345443e-08	-6.467898e-09	-6.986531e-09
0.065         	2.786335e-10	3.126759e+00	-1.753408e-08	-8.488407e-09	-9.045674e-09
0.0675        	2.985288e-10	3.097450e+00	-2.211961e-08	-1.076128e-08	-1.135833e-08
0.07          	3.172213e-10	3.068763e+00	-2.023523e-08	-9.800392e-09	-1.043483e-08
0.0725        	3.355674e-10	3.040686e+00	-2.358122e-08	-1.145504e-08	-1.212618e-08
0.075         	3.530905e-10	3.013335e+00	-2.326682e-08	-1.128032e-08	-1.198650e-08
0.0775        	3.695559e-10	2.986579e+00	-1.699093e-08	-8.125911e-09	-8.865023e-09
0.08          	3.839384e-10	2.960385e+00	-1.556122e-08	-7.396673e-09	-8.164550e-09
0.0825        	3.995717e-10	2.934735e+00	-1.505398e-08	-7.127421e-09	-7.926564e-09
0.085         	4.122379e-10	2.909680e+00	-1.785719e-08	-8.516357e-09	-9.340833e-09
0.0875        	4.259000e-10	2.885179e+00	-1.625603e-08	-7.702117e-09	-8.553917e-09
0.09          	4.382278e-10	2.861282e+00	-1.714079e-08	-8.132167e-09	-9.008623e-09
0.0925        	4.502753e-10	2.837859e+00	-1.416962e-08	-6.634533e-09	-7.535084e-09
0.095         	4.612392e-10	2.814966e+00	-1.555391e-08	-7.315718e-09	-8.238196e-09
0.0975        	4.717604e-10	2.792547e+00	-1.438430e-08	-6.720389e-09	-7.663910e-09
0.1           	4.815704e-10	2.770636e+00	-1.534313e-08	-7.189994e-09	-8.153135e-09
0.1025        	4.909638e-10	2.749172e+00	-1.419174e-08	-6.604907e-09	-7.586834e-09
0.105         	4.996633e-10	2.728183e+00	-1.491729e-08	-6.958980e-09	-7.958307e-09
0.1075        	5.080604e-10	2.707623e+00	-1.398115e-08	-6.482513e-09	-7.498634e-09
0.11          	5.156003e-10	2.687669e+00	-1.651469e-08	-7.741747e-09	-8.772947e-09
0.1125        	5.232565e-10	2.668026e+00	-1.231874e-08	-5.636115e-09	-6.682628e-09
0.115         	5.301374e-10	2.648774e+00	-1.302196e-08	-5.980840e-09	-7.041115e-09
0.1175        	5.365430e-10	2.629977e+00	-1.409343e-08	-6.510170e-09	-7.583257e-09
0.12          	5.427853e-10	2.611471e+00	-1.321738e-08	-6.065905e-09	-7.151475e-09
0.1225        	5.482980e-10	2.593387e+00	-1.506386e-08	-6.983634e-09	-8.080230e-09
0.125         	5.543485e-10	2.575611e+00	-1.608820e-08	-7.489752e-09	-8.598449e-09
0.1275        	5.589220e-10	2.558205e+00	-1.132697e-08	-5.104565e-09	-6.222409e-09
0.13          	5.635585e-10	2.541124e+00	-1.534968e-08	-7.111280e-09	-8.238397e-09
0.1325        	5.680145e-10	2.524420e+00	-1.530523e-08	-7.084600e-09	-8.220629e-09
0.135         	5.721302e-10	2.508013e+00	-1.346538e-08	-6.160561e-09	-7.304822e-09
0.1375        	5.760797e-10	2.491930e+00	-1.395863e-08	-6.403236e-09	-7.555396e-09
0.14          	5.797254e-10	2.476139e+00	-1.331515e-08	-6.077847e-09	-7.237298e-09
0.1425        	5.832799e-10	2.460839e+00	-1.456523e-08	-6.699337e-09	-7.865897e-09
0.145         	5.864250e-10	2.445890e+00	-1.425353e-08	-6.540341e-09	-7.713191e-09
0.1475        	5.890937e-10	2.430969e+00	-1.208318e-08	-5.452497e-09	-6.630685e-09
0.15          	5.921060e-10	2.416473e+00	-1.293401e-08	-5.874900e-09	-7.059112e-09
0.1525        	5.944845e-10	2.402116e+00	-1.480331e-08	-6.807170e-09	-7.996138e-09
0.155         	5.970588e-10	2.388163e+00	-1.488750e-08	-6.846690e-09	-8.040808e-09
0.1575        	5.990650e-10	2.374340e+00	-1.304870e-08	-5.925284e-09	-7.123414e-09
0.16          	6.010820e-10	2.360854e+00	-1.565477e-08	-7.226302e-09	-8.428466e-09
0.1625        	6.030758e-10	2.347556e+00	-1.216110e-08	-5.477476e-09	-6.683628e-09
0.165         	6.047121e-10	2.334496e+00	-1.423379e-08	-6.512183e-09	-7.721607e-09
0.1675        	6.063525e-10	2.321660e+00	-1.322392e-08	-6.005610e-09	-7.218315e-09
0.17          	6.078009e-10	2.309083e+00	-1.413653e-08	-6.460467e-09	-7.676068e-09
0.1725        	6.091901e-10	2.296837e+00	-1.449846e-08	-6.640038e-09	-7.858419e-09
0.175         	6.104072e-10	2.284804e+00	-1.348996e-08	-6.134575e-09	-7.355389e-09
0.1775        	6.116544e-10	2.273090e+00	-1.361536e-08	-6.196024e-09	-7.419333e-09
0.18          	6.126131e-10	2.261459e+00	-1.309255e-08	-5.933659e-09	-7.158886e-09
0.1825        	6.136755e-10	2.250031e+00	-1.338582e-08	-6.079236e-09	-7.306587e-09
0.185         	6.145599e-10	2.238792e+00	-1.334711e-08	-6.058995e-09	-7.288114e-09
0.1875        	6.153137e-10	2.227761e+00	-1.353552e-08	-6.152446e-09	-7.383073e-09
0.19          	6.160243e-10	2.216915e+00	-1.357349e-08	-6.170721e-09	-7.402770e-09
0.1925        	6.166531e-10	2.206263e+00	-1.365016e-08	-6.208427e-09	-7.441733e-09
0.195         	6.172130e-10	2.195797e+00	-1.365596e-08	-6.210768e-09	-7.445194e-09
0.1975        	6.177380e-10	2.185517e+00	-1.365243e-08	-6.208476e-09	-7.443952e-09
0.2           	6.181989e-10	2.175417e+00	-1.368775e-08	-6.225679e-09	-7.462076e-09
0.2025        	6.186139e-10	2.165527e+00	-1.368266e-08	-6.222717e-09	-7.459945e-09
0.205         	6.189175e-10	2.155946e+00	-1.615941e-08	-7.460786e-09	-8.698621e-09
0.2075        	6.193054e-10	2.146167e+00	-7.191071e-09	-2.976230e-09	-4.214841e-09
0.21          	6.198021e-10	2.136836e+00	-1.824164e-08	-8.501018e-09	-9.740623e-09
0.2125        	6.199403e-10	2.127661e+00	-1.350403e-08	-6.132074e-09	-7.371955e-09
0.215         	6.204004e-10	2.118778e+00	-1.506781e-08	-6.913502e-09	-8.154303e-09
0.2175        	6.203859e-10	2.109867e+00	-1.203721e-08	-5.398217e-09	-6.638989e-09
0.22          	6.208259e-10	2.101180e+00	-1.435963e-08	-6.558990e-09	-7.800642e-09
0.2225        	6.207576e-10	2.092602e+00	-1.247953e-08	-5.619006e-09	-6.860521e-09
0.225         	6.210661e-10	2.084198e+00	-1.539378e-08	-7.075823e-09	-8.317955e-09
0.2275        	6.211467e-10	2.075943e+00	-1.527480e-08	-7.016251e-09	-8.258545e-09
0.23          	6.212210e-10	2.067813e+00	-1.148679e-08	-5.122173e-09	-6.364615e-09
0.2325        	6.213489e-10	2.059831e+00	-1.489331e-08	-6.825307e-09	-8.068005e-09
0.235         	6.213273e-10	2.051996e+00	-1.628702e-08	-7.522182e-09	-8.764837e-09
0.2375        	6.214159e-10	2.044301e+00	-1.474867e-08	-6.752921e-09	-7.995753e-09
0.24          	6.215844e-10	2.036947e+00	-1.708409e-08	-7.920462e-09	-9.163631e-09
0.2425        	6.214122e-10	2.029342e+00	-9.978643e-09	-4.367909e-09	-5.610734e-09
0.245         	6.214760e-10	2.022209e+00	-1.962969e-08	-9.193368e-09	-1.043632e-08
0.2475        	6.214729e-10	2.014873e+00	-9.811022e-09	-4.284038e-09	-5.526984e-09
0.25          	6.211244e-10	2.007881e+00	-1.817086e-08	-8.464308e-09	-9.706557e-09
0.2525        	6.210744e-10	2.000805e+00	-1.190050e-08	-5.329175e-09	-6.571324e-09
0.255         	6.211875e-10	1.994309e+00	-2.438362e-08	-1.157062e-08	-1.281300e-08
0.2575        	6.209086e-10	1.987676e+00	-8.323302e-09	-3.540743e-09	-4.782560e-09
0.26          	6.208930e-10	1.981132e+00	-1.481123e-08	-6.784724e-09	-8.026510e-09
0.2625        	6.208252e-10	1.974683e+00	-1.525859e-08	-7.008471e-09	-8.250121e-09
0.265         	6.207207e-10	1.968348e+00	-1.553058e-08	-7.144569e-09	-8.386010e-09
0.2675        	6.206622e-10	1.962118e+00	-1.574832e-08	-7.253496e-09	-8.494820e-09
0.27          	6.205772e-10	1.955986e+00	-1.383569e-08	-6.297267e-09	-7.538421e-09
0.2725        	6.205687e-10	1.949952e+00	-1.493119e-08	-6.845025e-09	-8.086163e-09
0.275         	6.204513e-10	1.944018e+00	-1.499079e-08	-6.874945e-09	-8.115847e-09
0.2775        	6.203764e-10	1.938182e+00	-1.468149e-08	-6.720371e-09	-7.961124e-09
0.28          	6.203646e-10	1.932444e+00	-1.457138e-08	-6.665325e-09	-7.906054e-09
0.2825        	6.202529e-10	1.926972e+00	-1.636169e-08	-7.560591e-09	-8.801096e-09
0.285         	6.201903e-10	1.921295e+00	-1.128945e-08	-5.024535e-09	-6.264916e-09
0.2875        	6.201176e-10	1.915972e+00	-1.692889e-08	-7.844327e-09	-9.084562e-09
0.29          	6.199505e-10	1.910487e+00	-1.137679e-08	-5.068447e-09	-6.308348e-09
0.2925        	6.199470e-10	1.905290e+00	-1.615429e-08	-7.457197e-09	-8.697091e-09
0.295         	6.195176e-10	1.900029e+00	-1.309220e-08	-5.926583e-09	-7.165618e-09
0.2975        	6.196852e-10	1.894941e+00	-1.455716e-08	-6.658892e-09	-7.898263e-09
0.3           	6.194215e-10	1.889869e+00	-1.347214e-08	-6.116651e-09	-7.355494e-09
0.3025        	6.193644e-10	1.884857e+00	-1.776919e-08	-8.265232e-09	-9.503961e-09
0.305         	6.191317e-10	1.880076e+00	-1.057924e-08	-4.670486e-09	-5.908750e-09
0.3075        	6.188804e-10	1.875553e+00	-1.534820e-08	-7.055219e-09	-8.292980e-09
0.31          	6.187026e-10	1.870921e+00	-1.302180e-08	-5.892198e-09	-7.129603e-09
0.3125        	6.186109e-10	1.866314e+00	-4.548970e-08	-2.212624e-08	-2.336346e-08
0.315         	6.182524e-10	1.861752e+00	1.584585e-08	8.541176e-09	7.304671e-09
0.3175        	6.178002e-10	1.857302e+00	-4.711227e-08	-2.293833e-08	-2.417393e-08
0.32          	6.177662e-10	1.852925e+00	-1.839362e-08	-8.579043e-09	-9.814576e-09
0.3225        	6.172811e-10	1.848625e+00	-1.336952e-08	-6.067481e-09	-7.302044e-09
0.325         	6.167218e-10	1.844397e+00	9.481737e-09	5.357590e-09	4.124147e-09
0.3275        	6.167226e-10	1.840236e+00	1.662135e-09	1.447790e-09	2.143447e-10
0.33          	6.162848e-10	1.836147e+00	-1.429513e-08	-6.531281e-09	-7.763850e-09
0.3325        	6.160643e-10	1.832129e+00	-1.211687e-08	-5.442373e-09	-6.674502e-09
0.335         	6.158288e-10	1.828186e+00	-1.277603e-08	-5.772187e-09	-7.003845e-09
0.3375        	6.155186e-10	1.824490e+00	-1.825933e-08	-8.514146e-09	-9.745183e-09
0.34          	6.149399e-10	1.820505e+00	-4.575120e-09	-1.672620e-09	-2.902500e-09
0.3425        	6.150285e-10	1.816904e+00	-1.344025e-08	-6.105097e-09	-7.335153e-09
0.345         	6.143232e-10	1.813084e+00	-1.156414e-08	-5.167747e-09	-6.396393e-09
0.3475        	6.143959e-10	1.809590e+00	-1.371281e-08	-6.242011e-09	-7.470803e-09
0.35          	6.137566e-10	1.805976e+00	-1.096507e-08	-4.868780e-09	-6.096293e-09
0.3525        	6.137332e-10	1.802564e+00	-1.279740e-08	-5.784966e-09	-7.012432e-09
0.355         	6.132196e-10	1.799158e+00	-1.145080e-08	-5.112179e-09	-6.338618e-09
0.3575        	6.129926e-10	1.795885e+00	-1.205415e-08	-5.414080e-09	-6.640065e-09
0.36          	6.126616e-10	1.792712e+00	-1.235818e-08	-5.566428e-09	-6.791752e-09
0.3625        	6.123283e-10	1.789729e+00	-1.198029e-08	-5.377816e-09	-6.602472e-09
0.365         	6.119266e-10	1.786719e+00	-1.102599e-08	-4.901066e-09	-6.124920e-09
0.3675        	6.116121e-10	1.783014e+00	-8.752021e-09	-3.764398e-09	-4.987623e-09
0.37          	6.113740e-10	1.779293e+00	-1.298164e-08	-5.879448e-09	-7.102196e-09
0.3725        	6.105031e-10	1.775080e+00	-2.515130e-09	-6.470621e-10	-1.868068e-09
0.375         	6.105597e-10	1.771956e+00	-2.122014e-08	-9.999513e-09	-1.122063e-08
0.3775        	6.099968e-10	1.768737e+00	-8.699844e-09	-3.739925e-09	-4.959919e-09
0.38          	6.092951e-10	1.765615e+00	-1.246520e-08	-5.623304e-09	-6.841895e-09
0.3825        	6.087024e-10	1.762563e+00	-1.127526e-08	-5.028928e-09	-6.246332e-09
0.385         	6.080807e-10	1.759789e+00	-1.262098e-08	-5.702410e-09	-6.918571e-09
0.3875        	6.076068e-10	1.757170e+00	-1.251983e-08	-5.652306e-09	-6.867519e-09
0.39          	6.070687e-10	1.754285e+00	-7.731408e-09	-3.258635e-09	-4.472773e-09
0.3925        	6.064557e-10	1.751351e+00	-1.342288e-08	-6.104985e-09	-7.317896e-09
0.395         	6.059088e-10	1.748803e+00	-1.109812e-08	-4.943150e-09	-6.154968e-09
0.3975        	6.055046e-10	1.746419e+00	-1.376648e-08	-6.277735e-09	-7.488744e-09
0.4           	6.049889e-10	1.744028e+00	-1.184285e-08	-5.316436e-09	-6.526414e-09
0.4025        	6.044388e-10	1.741364e+00	-1.060073e-08	-4.695924e-09	-5.904802e-09
0.405         	6.039387e-10	1.738658e+00	-1.044210e-08	-4.617111e-09	-5.824989e-09
0.4075        	6.035716e-10	1.736300e+00	-1.199339e-08	-5.393123e-09	-6.600266e-09
0.41          	6.030066e-10	1.734093e+00	-1.292754e-08	-5.860761e-09	-7.066774e-09
0.4125        	6.022385e-10	1.731938e+00	-1.282317e-08	-5.809348e-09	-7.013825e-09
0.415         	6.019823e-10	1.729897e+00	-1.219339e-08	-5.494713e-09	-6.698677e-09
0.4175        	6.013365e-10	1.727506e+00	-9.796548e-09	-4.296937e-09	-5.499610e-09
0.42          	6.009897e-10	1.725093e+00	-1.105895e-08	-4.928484e-09	-6.130463e-09
0.4225        	6.001441e-10	1.722937e+00	-1.239984e-08	-5.599776e-09	-6.800064e-09
0.425         	5.994886e-10	1.720903e+00	-1.224388e-08	-5.522452e-09	-6.721429e-09
0.4275        	5.989982e-10	1.718908e+00	-1.134841e-08	-5.075205e-09	-6.273201e-09
0.43          	5.982460e-10	1.716958e+00	-1.201011e-08	-5.406808e-09	-6.603300e-09
0.4325        	5.975728e-10	1.715055e+00	-1.195533e-08	-5.380091e-09	-6.575236e-09
0.435         	5.966910e-10	1.713234e+00	-1.187516e-08	-5.340891e-09	-6.534273e-09
0.4375        	5.963518e-10	1.711304e+00	-1.027292e-08	-4.540108e-09	-5.732811e-09
0.44          	5.954770e-10	1.709154e+00	-1.115235e-08	-4.980696e-09	-6.171650e-09
0.4425        	5.947370e-10	1.707257e+00	-1.292489e-08	-5.867710e-09	-7.057184e-09
0.445         	5.941149e-10	1.705462e+00	-1.313037e-08	-5.971068e-09	-7.159298e-09
0.4475        	5.932852e-10	1.703735e+00	-1.218123e-08	-5.497331e-09	-6.683901e-09
0.45          	5.926319e-10	1.702016e+00	-1.243611e-08	-5.625421e-09	-6.810685e-09
0.4525        	5.918031e-10	1.700315e+00	-1.532535e-08	-7.070871e-09	-8.254477e-09
0.455         	5.909319e-10	1.698676e+00	-1.793698e-08	-8.377556e-09	-9.559420e-09
0.4575        	5.906173e-10	1.697174e+00	-6.213148e-09	-2.515957e-09	-3.697191e-09
0.46          	5.894225e-10	1.695623e+00	-7.824266e-08	-3.853191e-08	-3.971075e-08
0.4625        	5.887838e-10	1.694186e+00	2.284671e-08	1.201214e-08	1.083457e-08
0.465         	5.876599e-10	1.692593e+00	1.349852e-08	7.336919e-09	6.161599e-09
0.4675        	5.870745e-10	1.690741e+00	-7.702394e-10	2.019547e-10	-9.721942e-10
0.47          	5.863609e-10	1.689273e+00	-1.959590e-08	-9.211587e-09	-1.038431e-08
0.4725        	5.854028e-10	1.687810e+00	-1.253999e-08	-5.684590e-09	-6.855396e-09
0.475         	5.844829e-10	1.686377e+00	-1.324037e-08	-6.035704e-09	-7.204669e-09
0.4775        	5.837345e-10	1.685031e+00	-1.330879e-08	-6.070658e-09	-7.238127e-09
0.48          	5.828663e-10	1.683740e+00	-1.297324e-08	-5.903752e-09	-7.069484e-09
0.4825        	5.821818e-10	1.682423e+00	-1.110573e-08	-4.970682e-09	-6.135045e-09
0.485         	5.812429e-10	1.681121e+00	-9.736536e-09	-4.287025e-09	-5.449511e-09
0.4875        	5.802955e-10	1.679841e+00	-1.042998e-08	-4.634697e-09	-5.795288e-09
0.49          	5.794558e-10	1.678586e+00	-1.030953e-08	-4.575311e-09	-5.734223e-09
0.4925        	5.785390e-10	1.677358e+00	-1.174240e-08	-5.292663e-09	-6.449741e-09
0.495         	5.774598e-10	1.676159e+00	-2.922844e-08	-1.403676e-08	-1.519168e-08
0.4975        	5.769132e-10	1.675013e+00	-1.371241e-08	-6.279289e-09	-7.433116e-09
0.5           	5.757457e-10	1.673870e+00	-1.363000e-08	-6.239253e-09	-7.390744e-09
0.5025        	5.746481e-10	1.672571e+00	-1.375721e-08	-6.303957e-09	-7.453253e-09
0.505         	5.737553e-10	1.671459e+00	-1.374146e-08	-6.296972e-09	-7.444483e-09
0.5075        	5.730991e-10	1.670374e+00	-1.477293e-08	-6.813366e-09	-7.959564e-09
0.51          	5.719286e-10	1.669313e+00	-1.389775e-08	-6.376945e-09	-7.520802e-09
0.5125        	5.708433e-10	1.668276e+00	-1.483950e-08	-6.848907e-09	-7.990594e-09
0.515         	5.700319e-10	1.667264e+00	-1.320263e-08	-6.031282e-09	-7.171346e-09
0.5175        	5.688794e-10	1.666277e+00	-1.490354e-08	-6.882890e-09	-8.020649e-09
0.52          	5.679924e-10	1.665334e+00	-1.441826e-08	-6.641139e-09	-7.777124e-09
0.5225        	5.669109e-10	1.664483e+00	-1.370253e-08	-6.284355e-09	-7.418177e-09
0.525         	5.659273e-10	1.663436e+00	-1.383693e-08	-6.352537e-09	-7.484392e-09
0.5275        	5.650771e-10	1.662590e+00	-1.338376e-08	-6.126804e-09	-7.256958e-09
0.53          	5.638303e-10	1.661627e+00	-1.543582e-08	-7.154082e-09	-8.281742e-09
0.5325        	5.628917e-10	1.660868e+00	-1.398557e-08	-6.429893e-09	-7.555676e-09
0.535         	5.619398e-10	1.659988e+00	-1.407264e-08	-6.474382e-09	-7.598262e-09
0.5375        	5.608776e-10	1.659279e+00	-1.431373e-08	-6.595987e-09	-7.717743e-09
0.54          	5.599211e-10	1.658533e+00	-1.466243e-08	-6.771296e-09	-7.891138e-09
0.5425        	5.588737e-10	1.657980e+00	-1.319371e-08	-6.037980e-09	-7.155728e-09
0.545         	5.575956e-10	1.657720e+00	-1.282305e-08	-5.853929e-09	-6.969120e-09
0.5475        	5.566723e-10	1.656652e+00	-1.571497e-08	-7.300813e-09	-8.414158e-09
0.55          	5.559688e-10	1.654986e+00	-1.185632e-08	-5.372190e-09	-6.484128e-09
0.5525        	5.544275e-10	1.653610e+00	-1.360433e-08	-6.247739e-09	-7.356594e-09
0.555         	5.538978e-10	1.652897e+00	-1.295233e-08	-5.922269e-09	-7.030065e-09
0.5575        	5.524032e-10	1.652079e+00	-1.410174e-08	-6.498468e-09	-7.603274e-09
0.56          	5.518071e-10	1.650767e+00	-8.060869e-09	-3.478627e-09	-4.582241e-09
0.5625        	5.504975e-10	1.650078e+00	-1.655597e-08	-7.727487e-09	-8.828482e-09
0.565         	5.494143e-10	1.649536e+00	-1.423326e-08	-6.567218e-09	-7.666047e-09
0.5675        	5.485156e-10	1.649243e+00	-1.359550e-08	-6.249237e-09	-7.346268e-09
0.57          	5.473341e-10	1.648117e+00	-8.426245e-09	-3.665788e-09	-4.760456e-09
0.5725        	5.464843e-10	1.647067e+00	-1.429780e-08	-6.602418e-09	-7.695387e-09
0.575         	5.452585e-10	1.646517e+00	-1.493444e-08	-6.921959e-09	-8.012476e-09
0.5775        	5.442459e-10	1.646001e+00	-1.357201e-08	-6.241760e-09	-7.330252e-09
0.58          	5.431870e-10	1.645499e+00	-1.357415e-08	-6.243890e-09	-7.330264e-09
0.5825        	5.420275e-10	1.645185e+00	-1.476895e-08	-6.842447e-09	-7.926502e-09
0.585         	5.409472e-10	1.644832e+00	-1.389276e-08	-6.405435e-09	-7.487329e-09
0.5875        	5.396265e-10	1.643722e+00	-6.613987e-09	-2.767367e-09	-3.846620e-09
0.59          	5.390065e-10	1.643067e+00	-1.695821e-08	-7.940096e-09	-9.018109e-09
0.5925        	5.375587e-10	1.642633e+00	-1.496609e-08	-6.945487e-09	-8.020605e-09
0.595         	5.364618e-10	1.642251e+00	-1.322116e-08	-6.074117e-09	-7.147040e-09
0.5975        	5.354392e-10	1.641776e+00	-1.335725e-08	-6.143188e-09	-7.214066e-09
0.6           	5.342071e-10	1.641398e+00	-1.351307e-08	-6.222325e-09	-7.290740e-09
0.6025        	5.331795e-10	1.641013e+00	-1.342864e-08	-6.181140e-09	-7.247499e-09
0.605         	5.320082e-10	1.640713e+00	-1.360415e-08	-6.270064e-09	-7.334081e-09
0.6075        	5.308809e-10	1.640445e+00	-1.353870e-08	-6.238468e-09	-7.300230e-09
0.61          	5.296928e-10	1.639478e+00	3.261768e-09	2.160577e-09	1.101191e-09
0.6125        	5.287740e-10	1.638930e+00	-2.529789e-08	-1.212017e-08	-1.317772e-08
0.615         	5.275897e-10	1.638571e+00	-1.369331e-08	-6.319066e-09	-7.374246e-09
0.6175        	5.264762e-10	1.638228e+00	-1.298399e-08	-5.965520e-09	-7.018473e-09
0.62          	5.253969e-10	1.637891e+00	-1.344878e-08	-6.198994e-09	-7.249788e-09
0.6225        	5.242766e-10	1.637553e+00	-1.293475e-08	-5.943098e-09	-6.991651e-09
0.625         	5.232245e-10	1.637178e+00	-1.229815e-08	-5.625853e-09	-6.672302e-09
0.6275        	5.221109e-10	1.636938e+00	-1.276110e-08	-5.858440e-09	-6.902662e-09
0.63          	5.210435e-10	1.636754e+00	-1.176009e-08	-5.359000e-09	-6.401087e-09
0.6325        	5.199464e-10	1.636486e+00	-1.312350e-08	-6.041804e-09	-7.081696e-09
0.635         	5.188130e-10	1.636268e+00	-1.337426e-08	-6.168316e-09	-7.205942e-09
0.6375        	5.177681e-10	1.636228e+00	-1.273028e-08	-5.847374e-09	-6.882910e-09
0.64          	5.164698e-10	1.635509e+00	-8.012740e-10	1.158328e-10	-9.171068e-10
0.6425        	5.156645e-10	1.634952e+00	-8.354562e-09	-3.661616e-09	-4.692945e-09
0.645         	5.145499e-10	1.634796e+00	-2.479823e-08	-1.188456e-08	-1.291366e-08
0.6475        	5.134939e-10	1.634611e+00	-1.212024e-08	-5.546625e-09	-6.573613e-09
0.65          	5.123505e-10	1.634412e+00	-1.240662e-08	-5.690958e-09	-6.715659e-09
0.6525        	5.111505e-10	1.634213e+00	-1.203967e-08	-5.508686e-09	-6.530987e-09
0.655         	5.100403e-10	1.634019e+00	-1.293775e-08	-5.958833e-09	-6.978914e-09
0.6575        	5.087365e-10	1.633833e+00	-1.197667e-08	-5.479600e-09	-6.497073e-09
0.66          	5.076466e-10	1.633647e+00	-1.304811e-08	-6.016408e-09	-7.031702e-09
0.6625        	5.066186e-10	1.633490e+00	1.229573e-09	1.121405e-09	1.081678e-10
0.665         	5.054097e-10	1.633322e+00	-1.053679e-08	-4.762986e-09	-5.773806e-09
0.6675        	5.044663e-10	1.633153e+00	-1.317303e-08	-6.082047e-09	-7.090980e-09
0.67          	5.033262e-10	1.633006e+00	-1.078175e-08	-4.887547e-09	-5.894199e-09
0.6725        	5.022325e-10	1.632875e+00	-1.181783e-08	-5.406680e-09	-6.411145e-09
0.675         	5.012326e-10	1.632775e+00	-1.199797e-08	-5.497753e-09	-6.500218e-09
0.6775        	5.000942e-10	1.632719e+00	-1.155084e-08	-5.275328e-09	-6.275517e-09
0.68          	4.986766e-10	1.632734e+00	-2.600795e-08	-1.250530e-08	-1.350265e-08
0.6825        	4.980419e-10	1.632186e+00	-2.462366e-09	-7.331412e-10	-1.729225e-09
0.685         	4.966332e-10	1.632068e+00	-7.490816e-09	-3.248775e-09	-4.242041e-09
0.6875        	4.955054e-10	1.632007e+00	-1.140213e-08	-5.205562e-09	-6.196572e-09
0.69          	4.943936e-10	1.631902e+00	-1.207370e-08	-5.542455e-09	-6.531243e-09
0.6925        	4.933191e-10	1.631830e+00	-1.149268e-08	-5.253021e-09	-6.239659e-09
0.695         	4.923347e-10	1.631772e+00	-1.114220e-08	-5.078763e-09	-6.063433e-09
0.6975        	4.911454e-10	1.631754e+00	-1.125614e-08	-5.136923e-09	-6.119214e-09
0.7           	4.900344e-10	1.631758e+00	-1.184943e-08	-5.434679e-09	-6.414748e-09
0.7025        	4.889923e-10	1.631797e+00	-1.155094e-08	-5.286475e-09	-6.264460e-09
0.705         	4.878274e-10	1.631908e+00	-1.008699e-08	-4.555666e-09	-5.531320e-09
0.7075        	4.863855e-10	1.632296e+00	-3.124074e-08	-1.513398e-08	-1.610675e-08
0.71          	4.855154e-10	1.632310e+00	2.038782e-09	1.504907e-09	5.338757e-10
0.7125        	4.841316e-10	1.631830e+00	-1.605043e-08	-7.541083e-09	-8.509346e-09
0.715         	4.834466e-10	1.631636e+00	-7.218986e-09	-3.126046e-09	-4.092939e-09
0.7175        	4.820268e-10	1.630919e+00	-1.118164e-08	-5.108795e-09	-6.072848e-09
0.72          	4.807510e-10	1.630923e+00	-6.691894e-09	-2.865196e-09	-3.826698e-09
0.7225        	4.797362e-10	1.631055e+00	-9.451267e-09	-4.245898e-09	-5.205370e-09
0.725         	4.779999e-10	1.631494e+00	-2.864139e-08	-1.384270e-08	-1.479869e-08
0.7275        	4.775468e-10	1.630738e+00	4.413660e-09	2.684377e-09	1.729283e-09
0.73          	4.759103e-10	1.630555e+00	-1.483189e-08	-6.940036e-09	-7.891857e-09
0.7325        	4.749401e-10	1.630625e+00	-8.434948e-09	-3.742534e-09	-4.692414e-09
0.735         	4.736768e-10	1.630696e+00	-1.074972e-08	-4.901181e-09	-5.848534e-09
0.7375        	4.726791e-10	1.630839e+00	-1.168626e-08	-5.370450e-09	-6.315808e-09
0.74          	4.715481e-10	1.631108e+00	-9.413818e-09	-4.235361e-09	-5.178457e-09
0.7425        	4.702331e-10	1.631219e+00	-1.215262e-08	-5.606076e-09	-6.546542e-09
0.745         	4.691363e-10	1.630961e+00	-1.972739e-08	-9.394561e-09	-1.033283e-08
0.7475        	4.680324e-10	1.630510e+00	-8.763031e-09	-3.913483e-09	-4.849548e-09
0.75          	4.669028e-10	1.630608e+00	-6.259407e-09	-2.662801e-09	-3.596606e-09
0.7525        	4.657252e-10	1.630709e+00	-1.114037e-08	-5.104461e-09	-6.035911e-09
0.755         	4.646167e-10	1.630808e+00	-1.145611e-08	-5.263439e-09	-6.192672e-09
0.7575        	4.634510e-10	1.630926e+00	-1.210096e-08	-5.587031e-09	-6.513933e-09
0.76          	4.623154e-10	1.631044e+00	-1.078817e-08	-4.931769e-09	-5.856400e-09
0.7625        	4.611467e-10	1.631176e+00	-1.143184e-08	-5.254774e-09	-6.177067e-09
0.765         	4.601155e-10	1.631339e+00	-1.109141e-08	-5.085592e-09	-6.005823e-09
0.7675        	4.588628e-10	1.631597e+00	-1.036006e-08	-4.721169e-09	-5.638895e-09
0.77          	4.577880e-10	1.631807e+00	-1.259496e-08	-5.839693e-09	-6.755269e-09
0.7725        	4.564354e-10	1.631214e+00	-1.234745e-08	-5.717289e-09	-6.630160e-09
0.775         	4.554756e-10	1.631307e+00	-1.072455e-08	-4.906801e-09	-5.817752e-09
0.7775        	4.542293e-10	1.631417e+00	-1.312126e-08	-6.106403e-09	-7.014861e-09
0.78          	4.531145e-10	1.631532e+00	-9.462521e-09	-4.278146e-09	-5.184375e-09
0.7825        	4.519451e-10	1.631669e+00	-1.157138e-08	-5.333744e-09	-6.237634e-09
0.785         	4.507800e-10	1.631874e+00	-1.087526e-08	-4.986851e-09	-5.888411e-09
0.7875        	4.494976e-10	1.632021e+00	-1.233953e-08	-5.720268e-09	-6.619263e-09
0.79          	4.484118e-10	1.632167e+00	-1.152557e-08	-5.314374e-09	-6.211198e-09
0.7925        	4.473077e-10	1.632313e+00	-1.145989e-08	-5.282637e-09	-6.177252e-09
0.795         	4.461236e-10	1.632469e+00	-1.109971e-08	-5.103731e-09	-5.995978e-09
0.7975        	4.450448e-10	1.632634e+00	-1.100075e-08	-5.055330e-09	-5.945420e-09
0.8           	4.437292e-10	1.632877e+00	-1.121927e-08	-5.165905e-09	-6.053363e-09
0.8025        	4.427334e-10	1.633057e+00	-1.194897e-08	-5.531753e-09	-6.417220e-09
0.805         	4.415454e-10	1.633484e+00	-7.368024e-09	-3.242466e-09	-4.125557e-09
0.8075        	4.402347e-10	1.633327e+00	-1.960317e-08	-9.361350e-09	-1.024182e-08
0.81          	4.390549e-10	1.633060e+00	-9.479911e-09	-4.300901e-09	-5.179011e-09
0.8125        	4.379583e-10	1.633231e+00	-8.036638e-09	-3.580361e-09	-4.456277e-09
0.815         	4.367358e-10	1.633413e+00	-1.083256e-08	-4.979545e-09	-5.853017e-09
0.8175        	4.356025e-10	1.633579e+00	-1.293969e-08	-6.034245e-09	-6.905450e-09
0.82          	4.343420e-10	1.633753e+00	-1.058745e-08	-4.859385e-09	-5.728069e-09
0.8225        	4.332381e-10	1.633930e+00	-1.071249e-08	-4.923007e-09	-5.789483e-09
0.825         	4.321331e-10	1.634107e+00	-1.182136e-08	-5.478546e-09	-6.342812e-09
0.8275        	4.308514e-10	1.634283e+00	-1.116425e-08	-5.151273e-09	-6.012976e-09
0.83          	4.297790e-10	1.634455e+00	-1.169781e-08	-5.419128e-09	-6.278686e-09
0.8325        	4.285470e-10	1.634610e+00	-1.131291e-08	-5.227906e-09	-6.085000e-09
0.835         	4.274637e-10	1.634663e+00	-1.206592e-08	-5.605497e-09	-6.460425e-09
0.8375        	4.263477e-10	1.635171e+00	-7.225310e-09	-3.186307e-09	-4.039002e-09
0.84          	4.250371e-10	1.635369e+00	-1.516207e-08	-7.155997e-09	-8.006071e-09
0.8425        	4.239125e-10	1.635568e+00	-1.155411e-08	-5.353144e-09	-6.200969e-09
0.845         	4.228159e-10	1.635774e+00	-1.133267e-08	-5.243521e-09	-6.089153e-09
0.8475        	4.215276e-10	1.635991e+00	-1.145007e-08	-5.303507e-09	-6.146562e-09
0.85          	4.204515e-10	1.636222e+00	-1.152773e-08	-5.343414e-09	-6.184317e-09
0.8525        	4.192637e-10	1.636478e+00	-1.132914e-08	-5.245308e-09	-6.083836e-09
0.855         	4.181046e-10	1.636800e+00	-1.092684e-08	-5.045314e-09	-5.881523e-09
0.8575        	4.169080e-10	1.637179e+00	-1.063761e-08	-4.901899e-09	-5.735715e-09
0.86          	4.155587e-10	1.636848e+00	-1.387432e-08	-6.521602e-09	-7.352719e-09
0.8625        	4.146306e-10	1.637063e+00	-1.232019e-08	-5.745466e-09	-6.574728e-09
0.865         	4.133235e-10	1.637349e+00	-8.458741e-09	-3.816047e-09	-4.642694e-09
0.8675        	4.121049e-10	1.637677e+00	-1.120234e-08	-5.189063e-09	-6.013273e-09
0.87          	4.109279e-10	1.638113e+00	-8.896295e-09	-4.037219e-09	-4.859075e-09
0.8725        	4.095950e-10	1.638818e+00	-5.963154e-09	-2.571982e-09	-3.391172e-09
0.875         	4.081269e-10	1.638230e+00	-1.105218e-08	-5.117964e-09	-5.934218e-09
0.8775        	4.072430e-10	1.638468e+00	-2.750222e-08	-1.334387e-08	-1.415835e-08
0.88          	4.059584e-10	1.639058e+00	-2.763355e-09	-9.757189e-10	-1.787636e-09
0.8825        	4.043778e-10	1.638401e+00	-8.046406e-09	-3.618825e-09	-4.427581e-09
0.885         	4.037305e-10	1.638544e+00	-2.835868e-08	-1.377561e-08	-1.458307e-08
0.8875        	4.021698e-10	1.638797e+00	-9.776982e-09	-4.486321e-09	-5.290661e-09
0.89          	4.011004e-10	1.639076e+00	-1.076298e-08	-4.980388e-09	-5.782589e-09