/*--------------------------------*- C++ -*----------------------------------*\
  =========                 |
  \\      /  F ield         | OpenFOAM: The Open Source CFD Toolbox
   \\    /   O peration     | Website:  https://openfoam.org
    \\  /    A nd           | Version:  7
     \\/     M anipulation  |
\*---------------------------------------------------------------------------*/
FoamFile
{
    version     2.0;
    format      ascii;
    class       volScalarField;
    location    "25";
    object      p;
}
// * * * * * * * * * * * * * * * * * * * * * * * * * * * * * * * * * * * * * //

dimensions      [0 2 -2 0 0 0 0];

internalField   nonuniform List<scalar> 
2625
(
-0.0157732
-0.0149072
-0.0140614
-0.0132343
-0.0124267
-0.0116358
-0.0108646
-0.0101069
-0.00937134
-0.00864299
-0.007944
-0.00723863
-0.00658132
-0.00588724
-0.0052852
-0.00457932
-0.0040635
-0.00329993
-0.00293518
-0.00202508
-0.00193921
-0.00071762
-0.0011489
0.00067229
-0.049645
-0.0479279
-0.0462544
-0.0446236
-0.0430345
-0.0414863
-0.039978
-0.0385085
-0.0370769
-0.0356823
-0.0343236
-0.0329998
-0.03171
-0.0304531
-0.0292282
-0.0280344
-0.0268707
-0.0257361
-0.0246299
-0.0235511
-0.0224988
-0.0214722
-0.0204706
-0.0194931
-0.018539
-0.0176075
-0.0166978
-0.0158096
-0.0149417
-0.014094
-0.0132652
-0.0124559
-0.0116635
-0.0108908
-0.0101318
-0.00939487
-0.00866545
-0.00796515
-0.00725915
-0.00660036
-0.00590653
-0.00530218
-0.0045986
-0.00407789
-0.00332171
-0.00294476
-0.00205507
-0.00193725
-0.000769352
-0.00111716
0.000567569
-0.0497242
-0.0480084
-0.0463357
-0.0447053
-0.0431162
-0.0415675
-0.0400584
-0.0385879
-0.0371551
-0.0357589
-0.0343985
-0.0330728
-0.0317809
-0.0305219
-0.0292949
-0.0280988
-0.0269327
-0.0257958
-0.0246872
-0.023606
-0.0225514
-0.0215226
-0.0205186
-0.0195389
-0.0185825
-0.0176489
-0.0167372
-0.015847
-0.0149771
-0.0141276
-0.0132971
-0.0124861
-0.0116921
-0.0109178
-0.0101575
-0.00941909
-0.00868859
-0.00798692
-0.00728029
-0.00661994
-0.0059264
-0.00531964
-0.00461844
-0.00409267
-0.00334409
-0.0029546
-0.0020858
-0.00193529
-0.000822178
-0.00108483
0.000460873
-0.049805
-0.0480906
-0.0464189
-0.0447889
-0.0431998
-0.0416507
-0.0401409
-0.0386694
-0.0372352
-0.0358375
-0.0344753
-0.0331478
-0.0318539
-0.0305927
-0.0293634
-0.0281649
-0.0269965
-0.0258572
-0.0247462
-0.0236626
-0.0226056
-0.0215743
-0.0205681
-0.019586
-0.0186274
-0.0176916
-0.0167778
-0.0158854
-0.0150136
-0.0141622
-0.0133298
-0.0125171
-0.0117215
-0.0109456
-0.0101839
-0.00944402
-0.0087124
-0.00800931
-0.00730204
-0.00664008
-0.00594684
-0.0053376
-0.00463885
-0.00410787
-0.00336708
-0.00296473
-0.00211725
-0.00193337
-0.000876033
-0.001052
0.000352334
-0.0498873
-0.0481746
-0.0465038
-0.0448743
-0.0432853
-0.0417359
-0.0402254
-0.0387528
-0.0373174
-0.0359181
-0.0345542
-0.0332247
-0.0319287
-0.0306654
-0.0294337
-0.0282329
-0.0270621
-0.0259203
-0.0248068
-0.0237208
-0.0226613
-0.0216276
-0.0206189
-0.0196345
-0.0186736
-0.0177355
-0.0168195
-0.015925
-0.0150512
-0.0141978
-0.0133635
-0.012549
-0.0117517
-0.0109742
-0.010211
-0.00946967
-0.0087369
-0.00803236
-0.00732443
-0.0066608
-0.00596787
-0.00535605
-0.00465984
-0.0041235
-0.00339066
-0.00297518
-0.00214939
-0.00193156
-0.000930846
-0.00101877
0.000242097
-0.0499713
-0.0482602
-0.0465906
-0.0449617
-0.0433728
-0.0418231
-0.0403119
-0.0388383
-0.0374016
-0.0360008
-0.0346351
-0.0333036
-0.0320056
-0.03074
-0.029506
-0.0283028
-0.0271294
-0.0259852
-0.0248691
-0.0237805
-0.0227185
-0.0216823
-0.0206711
-0.0196843
-0.018721
-0.0177806
-0.0168624
-0.0159657
-0.0150898
-0.0142344
-0.0133982
-0.0125819
-0.0117828
-0.0110037
-0.010239
-0.00949605
-0.0087621
-0.00805605
-0.00734746
-0.0066821
-0.0059895
-0.00537503
-0.0046814
-0.00413957
-0.00341482
-0.00298598
-0.0021822
-0.00192991
-0.000986538
-0.000985257
0.000130323
-0.0500568
-0.0483475
-0.0466791
-0.0450509
-0.0434622
-0.0419123
-0.0404004
-0.0389259
-0.0374879
-0.0360855
-0.034718
-0.0333846
-0.0320844
-0.0308165
-0.0295801
-0.0283745
-0.0271986
-0.0260518
-0.0249331
-0.0238419
-0.0227773
-0.0217385
-0.0207248
-0.0197355
-0.0187698
-0.017827
-0.0169065
-0.0160076
-0.0151295
-0.0142721
-0.0134339
-0.0126156
-0.0118148
-0.0110339
-0.0102677
-0.00952318
-0.00878802
-0.00808042
-0.00737113
-0.006704
-0.00601173
-0.00539454
-0.00470353
-0.0041561
-0.00343957
-0.00299715
-0.00221563
-0.00192847
-0.00104302
-0.00095158
1.71914e-05
-0.0501437
-0.0484365
-0.0467694
-0.045142
-0.0435535
-0.0420034
-0.040491
-0.0390155
-0.0375762
-0.0361723
-0.034803
-0.0334676
-0.0321652
-0.030895
-0.0296562
-0.028448
-0.0272696
-0.0261201
-0.0249989
-0.023905
-0.0228377
-0.0217963
-0.02078
-0.0197881
-0.0188199
-0.0178747
-0.0169518
-0.0160506
-0.0151703
-0.0143107
-0.0134706
-0.0126503
-0.0118477
-0.011065
-0.0102972
-0.00955107
-0.00881467
-0.00810546
-0.00739547
-0.00672651
-0.00603457
-0.00541459
-0.00472624
-0.00417312
-0.00346487
-0.00300872
-0.00224966
-0.00192731
-0.0011002
-0.000917867
-9.71021e-05
-0.0502322
-0.048527
-0.0468614
-0.0452349
-0.0436468
-0.0420966
-0.0405836
-0.0391072
-0.0376666
-0.0362612
-0.0348901
-0.0335527
-0.0322481
-0.0309755
-0.0297343
-0.0285235
-0.0273424
-0.0261903
-0.0250663
-0.0239697
-0.0228997
-0.0218556
-0.0208367
-0.0198422
-0.0188714
-0.0179237
-0.0169983
-0.0160948
-0.0152123
-0.0143505
-0.0135082
-0.012686
-0.0118815
-0.011097
-0.0103276
-0.00957972
-0.00884204
-0.00813119
-0.00742047
-0.00674963
-0.00605801
-0.00543519
-0.00474952
-0.00419063
-0.00349073
-0.00302073
-0.00228422
-0.00192649
-0.00115796
-0.000884256
-0.000212346
-0.0503221
-0.0486192
-0.0469551
-0.0453296
-0.0437419
-0.0421917
-0.0406782
-0.0392009
-0.0377591
-0.0363521
-0.0349792
-0.0336397
-0.0323329
-0.031058
-0.0298142
-0.0286009
-0.0274171
-0.0262623
-0.0251355
-0.0240361
-0.0229634
-0.0219165
-0.0208948
-0.0198977
-0.0189242
-0.017974
-0.0170461
-0.0161402
-0.0152553
-0.0143913
-0.0135469
-0.0127226
-0.0119162
-0.0111298
-0.0103587
-0.00960914
-0.00887016
-0.00815761
-0.00744614
-0.00677337
-0.00608208
-0.00545635
-0.00477337
-0.00420865
-0.00351712
-0.00303321
-0.00231929
-0.00192609
-0.0012162
-0.000850892
-0.000328311
-0.0504133
-0.0487128
-0.0470505
-0.045426
-0.0438389
-0.0422887
-0.0407747
-0.0392966
-0.0378536
-0.036445
-0.0350704
-0.0337289
-0.0324198
-0.0311425
-0.0298962
-0.0286802
-0.0274937
-0.026336
-0.0252064
-0.0241042
-0.0230286
-0.021979
-0.0209545
-0.0199546
-0.0189785
-0.0180256
-0.0170952
-0.0161868
-0.0152996
-0.0144332
-0.0135866
-0.0127602
-0.0119518
-0.0111635
-0.0103907
-0.00963935
-0.00889902
-0.00818474
-0.00747248
-0.00679775
-0.00610675
-0.00547809
-0.00479778
-0.0042272
-0.00354403
-0.00304619
-0.00235479
-0.00192617
-0.0012748
-0.000817925
-0.000444751
-0.0505058
-0.0488079
-0.0471475
-0.0455242
-0.0439377
-0.0423876
-0.0408733
-0.0393943
-0.0379501
-0.0365401
-0.0351636
-0.03382
-0.0325087
-0.0312289
-0.0299801
-0.0287613
-0.0275721
-0.0264116
-0.0252791
-0.024174
-0.0230955
-0.022043
-0.0210157
-0.020013
-0.0190341
-0.0180785
-0.0171455
-0.0162346
-0.0153449
-0.0144762
-0.0136274
-0.0127988
-0.0119884
-0.0111981
-0.0104235
-0.00967035
-0.00892863
-0.00821257
-0.0074995
-0.00682277
-0.00613205
-0.00550041
-0.00482276
-0.00424629
-0.00357143
-0.00305969
-0.00239069
-0.0019268
-0.00133363
-0.000785516
-0.000561406
-0.0505995
-0.0489044
-0.047246
-0.0456241
-0.0440383
-0.0424883
-0.0409737
-0.039494
-0.0380486
-0.0366371
-0.0352588
-0.0339132
-0.0325996
-0.0313174
-0.0300659
-0.0288444
-0.0276524
-0.026489
-0.0253536
-0.0242455
-0.0231641
-0.0221086
-0.0210784
-0.0200728
-0.0190911
-0.0181328
-0.0171971
-0.0162836
-0.0153914
-0.0145203
-0.0136692
-0.0128383
-0.0120259
-0.0112335
-0.0104572
-0.00970214
-0.00895899
-0.00824111
-0.0075272
-0.00684842
-0.00615795
-0.00552331
-0.00484828
-0.00426593
-0.00359929
-0.00307376
-0.00242692
-0.00192807
-0.00139256
-0.000753828
-0.000677998
-0.0506943
-0.0490022
-0.047346
-0.0457255
-0.0441406
-0.0425909
-0.041076
-0.0395956
-0.0381491
-0.0367361
-0.035356
-0.0340083
-0.0326924
-0.0314077
-0.0301536
-0.0289294
-0.0277345
-0.0265681
-0.0254298
-0.0243187
-0.0232343
-0.0221758
-0.0211426
-0.0201341
-0.0191495
-0.0181884
-0.01725
-0.0163338
-0.0154391
-0.0145655
-0.013712
-0.0128789
-0.0120643
-0.0112699
-0.0104917
-0.00973472
-0.00899011
-0.00827037
-0.00755558
-0.00687473
-0.00618447
-0.00554681
-0.00487434
-0.00428615
-0.0036276
-0.00308843
-0.00246341
-0.00193004
-0.00145143
-0.00072303
-0.000794233
-0.0507902
-0.0491012
-0.0474473
-0.0458285
-0.0442446
-0.0426952
-0.0411802
-0.0396991
-0.0382515
-0.036837
-0.0354552
-0.0341054
-0.0327872
-0.0315
-0.0302432
-0.0290162
-0.0278184
-0.0266491
-0.0255077
-0.0243936
-0.0233061
-0.0222445
-0.0212083
-0.0201968
-0.0192093
-0.0182453
-0.0173041
-0.0163852
-0.0154879
-0.0146117
-0.0137558
-0.0129204
-0.0121037
-0.0113071
-0.010527
-0.00976809
-0.00902198
-0.00830034
-0.00758463
-0.00690167
-0.00621159
-0.00557091
-0.00490093
-0.00430694
-0.00365633
-0.00310372
-0.00250011
-0.0019328
-0.00151012
-0.000693295
-0.000909806
-0.050887
-0.0492013
-0.04755
-0.0459329
-0.0443501
-0.0428012
-0.041286
-0.0398043
-0.0383557
-0.0369399
-0.0355562
-0.0342044
-0.032884
-0.0315942
-0.0303347
-0.0291049
-0.0279041
-0.0267318
-0.0255873
-0.0244701
-0.0233795
-0.0223148
-0.0212755
-0.0202609
-0.0192705
-0.0183036
-0.0173595
-0.0164378
-0.0155378
-0.0146591
-0.0138007
-0.0129629
-0.0121439
-0.0113452
-0.0105632
-0.00980225
-0.00905459
-0.00833102
-0.00761435
-0.00692926
-0.0062393
-0.00559561
-0.00492803
-0.00432832
-0.00368543
-0.00311966
-0.00253694
-0.00193641
-0.00156846
-0.000664797
-0.0010244
-0.0509846
-0.0493025
-0.0476539
-0.0460387
-0.0444571
-0.0429087
-0.0413936
-0.0399114
-0.0384618
-0.0370445
-0.0356592
-0.0343053
-0.0329825
-0.0316903
-0.0304281
-0.0291954
-0.0279916
-0.0268162
-0.0256686
-0.0245482
-0.0234544
-0.0223866
-0.0213442
-0.0203265
-0.019333
-0.0183631
-0.0174161
-0.0164916
-0.0155888
-0.0147075
-0.0138466
-0.0130064
-0.0121851
-0.0113842
-0.0106002
-0.00983719
-0.00908794
-0.0083624
-0.00764473
-0.0069575
-0.0062676
-0.0056209
-0.00495562
-0.0043503
-0.00371489
-0.00313628
-0.00257384
-0.00194095
-0.00162629
-0.000637713
-0.00113767
-0.0510829
-0.0494045
-0.0477588
-0.0461458
-0.0445654
-0.0430178
-0.0415027
-0.04002
-0.0385695
-0.0371509
-0.0357639
-0.034408
-0.0330829
-0.0317881
-0.0305232
-0.0292876
-0.0280808
-0.0269023
-0.0257516
-0.024628
-0.0235309
-0.0224599
-0.0214143
-0.0203934
-0.0193968
-0.0184239
-0.0174739
-0.0165466
-0.015641
-0.014757
-0.0138935
-0.0130508
-0.0122272
-0.011424
-0.010638
-0.00987289
-0.00912202
-0.00839447
-0.00767576
-0.00698636
-0.00629646
-0.00564678
-0.00498369
-0.00437288
-0.00374465
-0.0031536
-0.00261072
-0.00194649
-0.00168347
-0.000612216
-0.0012493
-0.0511817
-0.0495074
-0.0478647
-0.0462539
-0.0446751
-0.0431282
-0.0416133
-0.0401303
-0.0386789
-0.037259
-0.0358703
-0.0345124
-0.033185
-0.0318876
-0.03062
-0.0293815
-0.0281717
-0.0269901
-0.0258361
-0.0247092
-0.023609
-0.0225346
-0.0214858
-0.0204617
-0.019462
-0.0184859
-0.017533
-0.0166026
-0.0156942
-0.0148075
-0.0139414
-0.0130961
-0.0122702
-0.0114646
-0.0106766
-0.00990936
-0.0091568
-0.00842723
-0.00770742
-0.00701584
-0.00632589
-0.00567326
-0.00501221
-0.00439605
-0.0037747
-0.00317164
-0.00264752
-0.0019531
-0.00173982
-0.000588481
-0.00135892
-0.051281
-0.0496109
-0.0479715
-0.0463631
-0.0447858
-0.0432399
-0.0417253
-0.040242
-0.0387898
-0.0373687
-0.0359783
-0.0346184
-0.0332887
-0.0319888
-0.0307184
-0.029477
-0.0282641
-0.0270794
-0.0259222
-0.024792
-0.0236884
-0.0226108
-0.0215586
-0.0205313
-0.0195283
-0.0185491
-0.0175931
-0.0166598
-0.0157485
-0.014859
-0.0139902
-0.0131424
-0.012314
-0.0115061
-0.010716
-0.00994655
-0.00919228
-0.00846065
-0.0077397
-0.00704594
-0.00635585
-0.00570031
-0.00504116
-0.00441983
-0.00380499
-0.00319042
-0.00268416
-0.00196084
-0.00179519
-0.000566674
-0.00146618
-0.0513805
-0.0497148
-0.0480789
-0.0464731
-0.0448976
-0.0433528
-0.0418386
-0.040355
-0.0389021
-0.0374798
-0.0360878
-0.0347259
-0.033394
-0.0320916
-0.0308184
-0.0295741
-0.0283581
-0.0271702
-0.0260097
-0.0248762
-0.0237693
-0.0226883
-0.0216328
-0.0206022
-0.019596
-0.0186136
-0.0176544
-0.0167181
-0.0158039
-0.0149114
-0.01404
-0.0131895
-0.0123587
-0.0115484
-0.0107561
-0.00998447
-0.00922843
-0.00849471
-0.00777257
-0.00707662
-0.00638632
-0.00572792
-0.00507051
-0.0044442
-0.00383547
-0.00320994
-0.00272056
-0.00196975
-0.00184941
-0.000546957
-0.00157074
-0.0514802
-0.0498191
-0.0481868
-0.0465838
-0.0450103
-0.0434666
-0.0419529
-0.0404693
-0.0390157
-0.0375922
-0.0361987
-0.0348349
-0.0335007
-0.0321958
-0.0309199
-0.0296726
-0.0284535
-0.0272624
-0.0260986
-0.0249618
-0.0238515
-0.0227671
-0.0217082
-0.0206743
-0.0196647
-0.0186791
-0.0177168
-0.0167773
-0.0158601
-0.0149648
-0.0140906
-0.0132375
-0.0124042
-0.0115914
-0.0107969
-0.0100231
-0.00926522
-0.00852939
-0.00780601
-0.00710788
-0.00641727
-0.00575609
-0.00510024
-0.00446915
-0.0038661
-0.00323023
-0.00275665
-0.0019799
-0.00190233
-0.000529485
-0.00167222
-0.0515797
-0.0499235
-0.0482951
-0.046695
-0.0451236
-0.0435813
-0.0420682
-0.0405846
-0.0391305
-0.0377059
-0.0363108
-0.0349452
-0.0336087
-0.0323013
-0.0310227
-0.0297724
-0.0285503
-0.0273559
-0.0261888
-0.0250486
-0.0239349
-0.0228471
-0.0217848
-0.0207474
-0.0197346
-0.0187456
-0.0177801
-0.0168376
-0.0159174
-0.0150191
-0.0141421
-0.0132863
-0.0124504
-0.0116352
-0.0108384
-0.0100623
-0.00930262
-0.00856467
-0.00783999
-0.00713968
-0.00644869
-0.00578477
-0.00513029
-0.00449467
-0.00389684
-0.00325126
-0.00279235
-0.00199133
-0.00195378
-0.000514399
-0.00177029
-0.051679
-0.0500279
-0.0484036
-0.0468066
-0.0452375
-0.0436966
-0.0421843
-0.0407007
-0.0392462
-0.0378206
-0.0364241
-0.0350566
-0.033718
-0.0324081
-0.0311267
-0.0298735
-0.0286483
-0.0274506
-0.0262802
-0.0251367
-0.0240195
-0.0229282
-0.0218625
-0.0208217
-0.0198054
-0.0188132
-0.0178444
-0.0168987
-0.0159754
-0.0150742
-0.0141944
-0.0133358
-0.0124974
-0.0116796
-0.0108806
-0.0101022
-0.00934059
-0.0086005
-0.00787447
-0.00717199
-0.00648052
-0.00581395
-0.00516065
-0.00452073
-0.00392765
-0.00327305
-0.00282758
-0.00200405
-0.00200361
-0.000501829
-0.00186458
-0.0517778
-0.0501321
-0.0485121
-0.0469184
-0.0453517
-0.0438124
-0.0423009
-0.0408176
-0.0393627
-0.0379362
-0.0365383
-0.035169
-0.0338282
-0.0325159
-0.0312318
-0.0299757
-0.0287473
-0.0275465
-0.0263727
-0.0252257
-0.0241051
-0.0230104
-0.0219411
-0.0208969
-0.0198772
-0.0188816
-0.0179096
-0.0169607
-0.0160343
-0.0151301
-0.0142474
-0.013386
-0.0125449
-0.0117246
-0.0109233
-0.0101426
-0.00937909
-0.00863684
-0.00790941
-0.00720477
-0.00651275
-0.0058436
-0.00519127
-0.00454731
-0.00395847
-0.00329557
-0.00286227
-0.0020181
-0.00205168
-0.000491891
-0.00195477
-0.051876
-0.0502359
-0.0486203
-0.0470302
-0.045466
-0.0439285
-0.042418
-0.040935
-0.0394798
-0.0380525
-0.0366533
-0.0352822
-0.0339394
-0.0326246
-0.0313378
-0.0300788
-0.0288474
-0.0276433
-0.0264662
-0.0253157
-0.0241916
-0.0230934
-0.0220207
-0.020973
-0.0199499
-0.0189509
-0.0179755
-0.0170234
-0.0160939
-0.0151866
-0.014301
-0.0134368
-0.0125931
-0.0117702
-0.0109666
-0.0101835
-0.00941807
-0.00867365
-0.00794477
-0.00723799
-0.00654531
-0.00587367
-0.00522211
-0.00457438
-0.00398925
-0.0033188
-0.00289634
-0.00203348
-0.00209785
-0.000484681
-0.00204054
-0.0519733
-0.050339
-0.0487281
-0.0471417
-0.0455803
-0.0440446
-0.0425353
-0.0410527
-0.0395973
-0.0381693
-0.0367688
-0.0353961
-0.0340512
-0.032734
-0.0314445
-0.0301827
-0.0289482
-0.0277408
-0.0265604
-0.0254065
-0.0242789
-0.0231772
-0.022101
-0.0210498
-0.0200232
-0.0190208
-0.0180422
-0.0170868
-0.0161541
-0.0152438
-0.0143552
-0.0134882
-0.0126419
-0.0118164
-0.0110104
-0.0102249
-0.00945747
-0.00871088
-0.0079805
-0.0072716
-0.00657816
-0.00590413
-0.00525312
-0.0046019
-0.00401994
-0.00334272
-0.00292974
-0.00205019
-0.00214199
-0.000480278
-0.00212158
-0.0520695
-0.0504412
-0.0488353
-0.0472527
-0.0456942
-0.0441606
-0.0426526
-0.0411706
-0.039715
-0.0382863
-0.0368847
-0.0355104
-0.0341634
-0.032844
-0.0315519
-0.0302871
-0.0290496
-0.027839
-0.0266553
-0.025498
-0.0243669
-0.0232617
-0.0221819
-0.0211272
-0.0200972
-0.0190914
-0.0181093
-0.0171507
-0.0162148
-0.0153015
-0.0144099
-0.0135401
-0.012691
-0.0118629
-0.0110545
-0.0102667
-0.00949722
-0.00874846
-0.00801653
-0.00730554
-0.00661126
-0.00593493
-0.00528424
-0.00462982
-0.0040505
-0.00336728
-0.00296238
-0.00206821
-0.00218398
-0.000478738
-0.00219761
-0.0521645
-0.0505424
-0.0489416
-0.047363
-0.0458076
-0.0442762
-0.0427696
-0.0412882
-0.0398327
-0.0384034
-0.0370007
-0.0356249
-0.034276
-0.0329542
-0.0316596
-0.030392
-0.0291514
-0.0279377
-0.0267506
-0.0255899
-0.0244553
-0.0233466
-0.0222633
-0.0212051
-0.0201716
-0.0191624
-0.018177
-0.017215
-0.016276
-0.0153595
-0.014465
-0.0135923
-0.0127405
-0.0119098
-0.011099
-0.0103088
-0.00953727
-0.00878633
-0.00805281
-0.00733975
-0.00664453
-0.005966
-0.00531543
-0.00465809
-0.00408085
-0.00339243
-0.00299421
-0.00208751
-0.00222373
-0.000480096
-0.00226836
-0.052258
-0.0506423
-0.0490467
-0.0474724
-0.0459202
-0.0443912
-0.042886
-0.0414054
-0.0399501
-0.0385203
-0.0371166
-0.0357393
-0.0343886
-0.0330646
-0.0317674
-0.030497
-0.0292534
-0.0280365
-0.0268462
-0.0256821
-0.0245441
-0.0234318
-0.022345
-0.0212833
-0.0202463
-0.0192337
-0.0182449
-0.0172797
-0.0163375
-0.0154179
-0.0145204
-0.0136448
-0.0127903
-0.011957
-0.0111437
-0.0103511
-0.00957752
-0.00882441
-0.00808926
-0.00737416
-0.00667792
-0.00599729
-0.00534663
-0.00468665
-0.00411096
-0.00341813
-0.00302517
-0.00210803
-0.00226112
-0.000484361
-0.00233362
-0.0523497
-0.0507407
-0.0491505
-0.0475805
-0.0460317
-0.0445052
-0.0430017
-0.041522
-0.0400668
-0.0386367
-0.0372321
-0.0358534
-0.0345009
-0.0331747
-0.0318751
-0.030602
-0.0293555
-0.0281354
-0.0269418
-0.0257743
-0.0246329
-0.0235172
-0.0224269
-0.0213617
-0.0203212
-0.0193051
-0.018313
-0.0173445
-0.0163991
-0.0154764
-0.014576
-0.0136974
-0.0128402
-0.0120042
-0.0111886
-0.0103936
-0.00961789
-0.00886262
-0.0081258
-0.0074087
-0.00671136
-0.00602872
-0.00537776
-0.00471544
-0.00414075
-0.00344429
-0.00305519
-0.00212973
-0.0022961
-0.000491515
-0.0023932
-0.0524395
-0.0508372
-0.0492527
-0.0476872
-0.0461419
-0.044618
-0.0431162
-0.0416376
-0.0401828
-0.0387524
-0.037347
-0.035967
-0.0346127
-0.0332844
-0.0319824
-0.0307066
-0.0294572
-0.0282341
-0.0270372
-0.0258665
-0.0247216
-0.0236024
-0.0225086
-0.02144
-0.0203961
-0.0193766
-0.0183811
-0.0174093
-0.0164607
-0.0155349
-0.0146315
-0.0137501
-0.0128902
-0.0120516
-0.0112334
-0.0104361
-0.00965829
-0.00890087
-0.00816235
-0.00744329
-0.00674476
-0.00606022
-0.00540876
-0.00474436
-0.00417016
-0.00347085
-0.00308423
-0.00215252
-0.0023286
-0.000501515
-0.00244692
-0.0525271
-0.0509317
-0.049353
-0.0477921
-0.0462505
-0.0447293
-0.0432294
-0.0417519
-0.0402975
-0.038867
-0.0374608
-0.0360796
-0.0347237
-0.0333934
-0.032089
-0.0308107
-0.0295584
-0.0283323
-0.0271322
-0.0259582
-0.02481
-0.0236874
-0.0225901
-0.021518
-0.0204707
-0.0194478
-0.018449
-0.017474
-0.0165222
-0.0155934
-0.014687
-0.0138027
-0.0129401
-0.0120988
-0.0112782
-0.0104785
-0.00969861
-0.00893906
-0.00819882
-0.00747782
-0.00677805
-0.0060917
-0.00543956
-0.00477336
-0.00419915
-0.00349771
-0.00311224
-0.0021763
-0.00235856
-0.000514288
-0.00249469
-0.0526123
-0.051024
-0.0494511
-0.047895
-0.0463572
-0.0448388
-0.0433409
-0.0418647
-0.0404108
-0.0389802
-0.0375734
-0.0361911
-0.0348336
-0.0335014
-0.0321947
-0.0309138
-0.0296588
-0.0284297
-0.0272265
-0.0260493
-0.0248977
-0.0237717
-0.0226711
-0.0215956
-0.0205449
-0.0195187
-0.0185166
-0.0175383
-0.0165834
-0.0156515
-0.0147421
-0.013855
-0.0129897
-0.0121458
-0.0113228
-0.0105208
-0.00973873
-0.00897708
-0.0082351
-0.00751221
-0.00681112
-0.00612306
-0.00547007
-0.00480232
-0.00422762
-0.00352478
-0.00313916
-0.00220097
-0.00238597
-0.000529735
-0.00253643
-0.0526949
-0.0511138
-0.0495468
-0.0479956
-0.0464616
-0.0449461
-0.0434504
-0.0419755
-0.0405223
-0.0390917
-0.0376844
-0.036301
-0.034942
-0.033608
-0.0322991
-0.0310158
-0.029758
-0.028526
-0.0273198
-0.0261394
-0.0249846
-0.0238553
-0.0227513
-0.0216725
-0.0206184
-0.0195889
-0.0185835
-0.0176021
-0.016644
-0.0157091
-0.0147969
-0.0139069
-0.0130389
-0.0121925
-0.0113671
-0.0105627
-0.00977854
-0.0090148
-0.00827107
-0.00754634
-0.00684389
-0.00615422
-0.0055002
-0.00483115
-0.00425553
-0.00355194
-0.00316496
-0.0022264
-0.00241081
-0.00054773
-0.00257212
-0.0527747
-0.0512007
-0.0496398
-0.0480935
-0.0465635
-0.0450511
-0.0435575
-0.042084
-0.0406316
-0.0392011
-0.0377933
-0.036409
-0.0350487
-0.0337128
-0.0324019
-0.0311162
-0.0298558
-0.028621
-0.0274118
-0.0262283
-0.0250703
-0.0239377
-0.0228305
-0.0217483
-0.020691
-0.0196582
-0.0186497
-0.0176651
-0.016704
-0.0157661
-0.0148509
-0.0139583
-0.0130876
-0.0122386
-0.0114108
-0.0106041
-0.00981789
-0.00905211
-0.00830663
-0.0075801
-0.00687624
-0.00618505
-0.00552987
-0.00485974
-0.00428278
-0.00357909
-0.0031896
-0.00225245
-0.00243309
-0.000568116
-0.00260178
-0.0528515
-0.0512847
-0.0497298
-0.0481886
-0.0466625
-0.0451532
-0.043662
-0.04219
-0.0407383
-0.039308
-0.0378999
-0.0365147
-0.0351531
-0.0338156
-0.0325027
-0.0312146
-0.0299518
-0.0287142
-0.0275022
-0.0263156
-0.0251545
-0.0240188
-0.0229083
-0.021823
-0.0207624
-0.0197265
-0.0187148
-0.0177271
-0.016763
-0.0158221
-0.0149042
-0.0140088
-0.0131355
-0.012284
-0.0114539
-0.0106449
-0.00985664
-0.00908886
-0.00834163
-0.00761336
-0.00690806
-0.00621543
-0.00555897
-0.00488797
-0.00430932
-0.00360609
-0.00321303
-0.00227898
-0.00245283
-0.000590714
-0.00262548
-0.052925
-0.0513654
-0.0498166
-0.0482804
-0.0467584
-0.0452522
-0.0437633
-0.0422929
-0.0408421
-0.0394121
-0.0380037
-0.0366178
-0.035255
-0.0339159
-0.0326011
-0.0313108
-0.0300455
-0.0288054
-0.0275905
-0.026401
-0.0252369
-0.0240981
-0.0229846
-0.021896
-0.0208324
-0.0197933
-0.0187785
-0.0177878
-0.0168208
-0.0158771
-0.0149564
-0.0140583
-0.0131825
-0.0123285
-0.0114961
-0.010685
-0.00989464
-0.0091249
-0.00837594
-0.00764598
-0.00693922
-0.00624525
-0.0055874
-0.00491573
-0.00433504
-0.00363281
-0.00323523
-0.0023058
-0.00247008
-0.000615317
-0.00264335
-0.0529951
-0.0514426
-0.0498999
-0.0483686
-0.0468507
-0.0453477
-0.0438612
-0.0423924
-0.0409426
-0.039513
-0.0381044
-0.0367178
-0.0353539
-0.0340133
-0.0326967
-0.0314043
-0.0301367
-0.028894
-0.0276765
-0.0264842
-0.0253172
-0.0241754
-0.0230588
-0.0219672
-0.0209005
-0.0198584
-0.0188407
-0.0178471
-0.0168772
-0.0159307
-0.0150073
-0.0141066
-0.0132283
-0.012372
-0.0115373
-0.010724
-0.00993172
-0.00916008
-0.00840941
-0.00767782
-0.00696959
-0.00627436
-0.00561505
-0.00494287
-0.00435988
-0.0036591
-0.00325614
-0.00233276
-0.00248488
-0.000641696
-0.00265558
-0.0530615
-0.0515161
-0.0499793
-0.0484531
-0.0469392
-0.0454394
-0.0439552
-0.0424881
-0.0410393
-0.0396101
-0.0382014
-0.0368142
-0.0354493
-0.0341074
-0.032789
-0.0314947
-0.0302249
-0.0289798
-0.0277597
-0.0265647
-0.0253949
-0.0242502
-0.0231307
-0.0220362
-0.0209666
-0.0199216
-0.018901
-0.0179045
-0.0169319
-0.0159827
-0.0150567
-0.0141535
-0.0132728
-0.0124142
-0.0115773
-0.0107619
-0.0099677
-0.00919422
-0.00844188
-0.00770872
-0.00699902
-0.00630262
-0.00564178
-0.00496925
-0.00438373
-0.00368481
-0.00327575
-0.00235965
-0.0024973
-0.000669599
-0.00266238
-0.0531241
-0.0515856
-0.0500547
-0.0485333
-0.0470234
-0.0455267
-0.044045
-0.0425796
-0.0411319
-0.0397031
-0.0382944
-0.0369067
-0.0355409
-0.0341977
-0.0328777
-0.0315816
-0.0303096
-0.0290622
-0.0278397
-0.0266421
-0.0254696
-0.0243222
-0.0232
-0.0221027
-0.0210302
-0.0199824
-0.0189591
-0.0179599
-0.0169846
-0.0160328
-0.0151043
-0.0141987
-0.0133156
-0.0124548
-0.0116159
-0.0107985
-0.0100024
-0.00922713
-0.00847317
-0.00773852
-0.00702737
-0.00632988
-0.00566747
-0.00499473
-0.0044065
-0.00370979
-0.00329401
-0.00238628
-0.00250744
-0.000698755
-0.00266405
-0.0531826
-0.0516509
-0.0501256
-0.048609
-0.047103
-0.0456095
-0.0441301
-0.0426663
-0.0412197
-0.0397915
-0.0383828
-0.0369947
-0.035628
-0.0342837
-0.0329622
-0.0316643
-0.0303904
-0.0291409
-0.027916
-0.026716
-0.025541
-0.024391
-0.0232661
-0.0221661
-0.021091
-0.0200406
-0.0190146
-0.0180128
-0.017035
-0.0160807
-0.0151498
-0.0142419
-0.0133567
-0.0124937
-0.0116527
-0.0108334
-0.0100356
-0.00925864
-0.00850311
-0.00776704
-0.00705448
-0.00635597
-0.00569198
-0.00501915
-0.00442809
-0.00373386
-0.00331088
-0.00241243
-0.00251538
-0.000728875
-0.00266092
-0.053237
-0.0517117
-0.0501919
-0.0486799
-0.0471777
-0.0456872
-0.0442101
-0.042748
-0.0413025
-0.0398748
-0.0384662
-0.0370777
-0.0357103
-0.0343649
-0.0330421
-0.0317426
-0.0304669
-0.0292153
-0.0279883
-0.026786
-0.0256086
-0.0244562
-0.0233288
-0.0222263
-0.0211486
-0.0200957
-0.0190672
-0.018063
-0.0170827
-0.0161262
-0.015193
-0.0142829
-0.0133956
-0.0125306
-0.0116877
-0.0108666
-0.0100671
-0.00928852
-0.0085315
-0.00779409
-0.00708017
-0.00638072
-0.00571517
-0.00504235
-0.00444837
-0.00375686
-0.00332632
-0.00243791
-0.00252124
-0.00075965
-0.00265337
-0.0532869
-0.0517677
-0.0502532
-0.0487456
-0.047247
-0.0457593
-0.0442845
-0.0428241
-0.0413796
-0.0399525
-0.038544
-0.0371553
-0.0357872
-0.0344408
-0.0331168
-0.0318158
-0.0305384
-0.029285
-0.0280559
-0.0268515
-0.0256719
-0.0245172
-0.0233875
-0.0222827
-0.0212027
-0.0201474
-0.0191166
-0.0181101
-0.0171276
-0.0161688
-0.0152336
-0.0143214
-0.0134321
-0.0125652
-0.0117206
-0.0108978
-0.0100966
-0.00931658
-0.00855815
-0.00781949
-0.00710426
-0.00640396
-0.00573687
-0.00506415
-0.00446724
-0.00377859
-0.0033403
-0.00246246
-0.00252514
-0.000790755
-0.00264183
-0.0533323
-0.0518188
-0.0503092
-0.0488057
-0.0473105
-0.0458256
-0.0443529
-0.042894
-0.0414506
-0.0400241
-0.0386157
-0.0372268
-0.0358582
-0.0345109
-0.0331858
-0.0318834
-0.0306045
-0.0293494
-0.0281185
-0.0269121
-0.0257305
-0.0245737
-0.0234418
-0.0223348
-0.0212527
-0.0201952
-0.0191623
-0.0181536
-0.0171691
-0.0162083
-0.0152711
-0.0143571
-0.0134659
-0.0125973
-0.011751
-0.0109266
-0.010124
-0.00934257
-0.00858283
-0.00784301
-0.00712657
-0.00642549
-0.00575693
-0.00508437
-0.00448458
-0.00379888
-0.00335276
-0.00248587
-0.00252721
-0.000821844
-0.0026268
-0.0533729
-0.0518647
-0.0503596
-0.0488599
-0.0473679
-0.0458855
-0.0444147
-0.0429573
-0.0415149
-0.040089
-0.0386808
-0.0372916
-0.0359226
-0.0345746
-0.0332484
-0.0319449
-0.0306645
-0.0294079
-0.0281754
-0.0269673
-0.0257838
-0.0246251
-0.0234913
-0.0223823
-0.0212982
-0.0202388
-0.0192039
-0.0181933
-0.0172069
-0.0162443
-0.0153053
-0.0143895
-0.0134967
-0.0126266
-0.0117787
-0.0109529
-0.0101489
-0.00936626
-0.00860532
-0.00786446
-0.00714688
-0.00644512
-0.00577517
-0.00510283
-0.00450023
-0.00381753
-0.00336365
-0.00250789
-0.00252759
-0.000852566
-0.0026088
-0.0534086
-0.0519051
-0.050404
-0.0489078
-0.0474186
-0.0459385
-0.0444696
-0.0430135
-0.041572
-0.0401466
-0.0387386
-0.0373493
-0.0359799
-0.0346312
-0.0333042
-0.0319996
-0.030718
-0.02946
-0.028226
-0.0270164
-0.0258313
-0.0246709
-0.0235354
-0.0224247
-0.0213388
-0.0202776
-0.019241
-0.0182288
-0.0172406
-0.0162764
-0.0153358
-0.0144185
-0.0135242
-0.0126526
-0.0118035
-0.0109764
-0.0101712
-0.0093874
-0.00862538
-0.0078836
-0.007165
-0.00646264
-0.0057914
-0.00511934
-0.00451408
-0.00383433
-0.00337293
-0.00252827
-0.00252642
-0.000882564
-0.00258842
-0.053439
-0.0519397
-0.0504422
-0.0489489
-0.0474622
-0.0459842
-0.0445168
-0.0430619
-0.0416213
-0.0401963
-0.0387885
-0.0373992
-0.0360294
-0.0346801
-0.0333524
-0.0320469
-0.0307643
-0.0295052
-0.0282699
-0.0270589
-0.0258724
-0.0247106
-0.0235736
-0.0224614
-0.021374
-0.0203113
-0.0192732
-0.0182594
-0.0172699
-0.0163042
-0.0153623
-0.0144436
-0.0135481
-0.0126753
-0.0118249
-0.0109967
-0.0101905
-0.00940573
-0.00864278
-0.00790019
-0.0071807
-0.00647783
-0.00580545
-0.00513368
-0.00452596
-0.00384908
-0.00338053
-0.0025467
-0.00252389
-0.000911337
-0.00256641
-0.053464
-0.0519681
-0.0504736
-0.0489829
-0.0474983
-0.046022
-0.0445559
-0.0431021
-0.0416621
-0.0402375
-0.0388299
-0.0374405
-0.0360704
-0.0347208
-0.0333924
-0.0320862
-0.0308027
-0.0295426
-0.0283063
-0.0270942
-0.0259066
-0.0247436
-0.0236053
-0.0224919
-0.0214032
-0.0203393
-0.0192999
-0.018285
-0.0172942
-0.0163274
-0.0153843
-0.0144645
-0.0135679
-0.0126941
-0.0118428
-0.0110137
-0.0102065
-0.00942098
-0.00865725
-0.007914
-0.00719375
-0.00649048
-0.0058171
-0.00514565
-0.00453573
-0.00386152
-0.00338645
-0.00256279
-0.00252043
-0.000937831
-0.00254386
-0.0534833
-0.0519901
-0.050498
-0.0490092
-0.0475263
-0.0460513
-0.0445863
-0.0431332
-0.0416938
-0.0402696
-0.0388621
-0.0374726
-0.0361024
-0.0347524
-0.0334236
-0.0321168
-0.0308327
-0.0295718
-0.0283347
-0.0271217
-0.0259332
-0.0247692
-0.02363
-0.0225156
-0.021426
-0.0203611
-0.0193208
-0.0183049
-0.0173132
-0.0163454
-0.0154014
-0.0144808
-0.0135834
-0.0127088
-0.0118567
-0.0110269
-0.0102191
-0.00943287
-0.00866853
-0.00792476
-0.00720392
-0.00650035
-0.00582615
-0.00515502
-0.00454324
-0.00387141
-0.00339063
-0.0025762
-0.00251636
-0.000961247
-0.00252143
-0.0534966
-0.0520053
-0.0505148
-0.0490274
-0.0475456
-0.0460715
-0.0446073
-0.0431548
-0.0417157
-0.0402917
-0.0388844
-0.0374949
-0.0361245
-0.0347743
-0.0334451
-0.0321379
-0.0308534
-0.029592
-0.0283544
-0.0271408
-0.0259516
-0.024787
-0.0236472
-0.0225321
-0.0214418
-0.0203762
-0.0193352
-0.0183186
-0.0173263
-0.0163579
-0.0154133
-0.0144921
-0.0135941
-0.0127189
-0.0118663
-0.011036
-0.0102277
-0.00944111
-0.00867634
-0.00793223
-0.00721095
-0.00650721
-0.00583236
-0.00516163
-0.00454816
-0.00387882
-0.00339239
-0.00258785
-0.00250921
-0.000987339
-0.00249559
-0.0535035
-0.0520132
-0.0505235
-0.0490368
-0.0475556
-0.046082
-0.0446182
-0.0431659
-0.0417271
-0.0403033
-0.0388959
-0.0375064
-0.036136
-0.0347856
-0.0334563
-0.0321489
-0.0308641
-0.0296025
-0.0283646
-0.0271507
-0.0259612
-0.0247963
-0.0236561
-0.0225407
-0.02145
-0.0203841
-0.0193427
-0.0183258
-0.0173331
-0.0163644
-0.0154195
-0.014498
-0.0135997
-0.0127242
-0.0118713
-0.0110408
-0.0102322
-0.0094454
-0.00868039
-0.00793612
-0.00721456
-0.00651085
-0.00583543