/*--------------------------------*- C++ -*----------------------------------*\
  =========                 |
  \\      /  F ield         | OpenFOAM: The Open Source CFD Toolbox
   \\    /   O peration     | Website:  https://openfoam.org
    \\  /    A nd           | Version:  7
     \\/     M anipulation  |
\*---------------------------------------------------------------------------*/
FoamFile
{
    version     2.0;
    format      ascii;
    class       surfaceScalarField;
    location    "65";
    object      phi;
}
// * * * * * * * * * * * * * * * * * * * * * * * * * * * * * * * * * * * * * //

dimensions      [0 3 -1 0 0 0 0];

internalField   nonuniform List<scalar> 
83430
(
-1.86879e-06
1.86879e-06
-2.14472e-15
-4.02438e-06
2.15559e-06
-7.81833e-15
-4.7564e-06
7.32024e-07
-1.12947e-14
-2.70526e-06
-2.05114e-06
-1.29951e-14
2.98663e-06
-5.69189e-06
-1.42714e-14
1.30154e-05
-1.00288e-05
-1.60314e-14
2.79121e-05
-1.48967e-05
-1.86704e-14
4.81436e-05
-2.02315e-05
-2.19923e-14
7.41296e-05
-2.59861e-05
-2.53018e-14
0.000106276
-3.21459e-05
-2.7501e-14
0.000144983
-3.8707e-05
-2.75007e-14
0.000190655
-4.56726e-05
-2.43612e-14
0.000243696
-5.30411e-05
-1.94083e-14
0.000304492
-6.07956e-05
-1.10981e-15
0.000373372
-6.88804e-05
1.88451e-14
0.000450563
-7.71911e-05
3.83786e-14
0.000536053
-8.54896e-05
5.48508e-14
0.000629581
-9.35283e-05
6.62384e-14
0.000730008
-0.000100427
7.77995e-14
-0.000106719
8.90888e-14
0.000836727
-1.85013e-06
3.71892e-06
-3.95944e-06
4.2649e-06
-4.62012e-06
1.3927e-06
-2.47399e-06
-4.19727e-06
3.33647e-06
-1.15023e-05
1.35079e-05
-2.02002e-05
2.85724e-05
-2.99612e-05
4.89981e-05
-4.06571e-05
7.52061e-05
-5.21941e-05
0.000107603
-6.45432e-05
0.000146593
-7.76965e-05
0.000192581
-9.16604e-05
0.000245971
-0.000106432
0.000307153
-0.000121977
0.000376459
-0.000138186
0.000454119
-0.000154851
0.000540124
-0.000171495
0.000634221
-0.000187625
0.000735273
-0.000201478
-0.000214118
0.000842672
-1.81311e-06
5.53203e-06
-3.82991e-06
6.28171e-06
-4.34787e-06
1.91065e-06
-2.01176e-06
-6.53337e-06
4.03577e-06
-1.75499e-05
1.44923e-05
-3.06568e-05
2.9892e-05
-4.53609e-05
5.07055e-05
-6.14706e-05
7.73569e-05
-7.88455e-05
0.000110256
-9.74424e-05
0.000149809
-0.000117249
0.000196425
-0.000138277
0.000250513
-0.00016052
0.000312465
-0.000183929
0.00038262
-0.000208341
0.000461213
-0.000233444
0.000548246
-0.000258528
0.000643475
-0.000282854
0.000745771
-0.000303775
-0.000322872
0.000854525
-1.75783e-06
7.28986e-06
-3.63616e-06
8.16004e-06
-3.94041e-06
2.2149e-06
-1.31987e-06
-9.15392e-06
5.08256e-06
-2.39523e-05
1.59659e-05
-4.15401e-05
3.18672e-05
-6.12622e-05
5.32608e-05
-8.28642e-05
8.05752e-05
-0.00010616
0.000114225
-0.000131092
0.00015462
-0.000157645
0.000202176
-0.000185833
0.000257306
-0.00021565
0.000320408
-0.000247031
0.000391829
-0.000279761
0.000471815
-0.00031343
0.000560381
-0.000347094
0.000657298
-0.000379771
0.000761451
-0.000407927
-0.000433644
0.000872223
-1.68446e-06
8.97431e-06
-3.37874e-06
9.85433e-06
-3.39889e-06
2.23505e-06
-4.00163e-07
-1.21526e-05
6.47395e-06
-3.08264e-05
1.79245e-05
-5.29906e-05
3.44922e-05
-7.783e-05
5.66565e-05
-0.000105028
8.48514e-05
-0.000134355
0.000119497
-0.000165738
0.000161011
-0.000199159
0.000209813
-0.000234635
0.000266325
-0.000272161
0.000330951
-0.000311658
0.00040405
-0.00035286
0.000485881
-0.000395261
0.000576476
-0.000437689
0.000675627
-0.000478922
0.000782233
-0.000514534
-0.000547082
0.000895671
-1.59321e-06
1.05675e-05
-3.05838e-06
1.13195e-05
-2.72481e-06
1.90147e-06
7.44646e-07
-1.56221e-05
8.20606e-06
-3.82878e-05
2.03625e-05
-6.5147e-05
3.77596e-05
-9.52271e-05
6.08825e-05
-0.000128151
9.01724e-05
-0.000163645
0.000126057
-0.000201622
0.00016896
-0.000242062
0.00021931
-0.000284985
0.000277537
-0.000330387
0.000344056
-0.000378177
0.000419235
-0.00042804
0.000503352
-0.000479378
0.000596459
-0.000530796
0.000698372
-0.000580836
0.000808014
-0.000624176
-0.000663814
0.000924747
-1.48437e-06
1.20519e-05
-2.67598e-06
1.25111e-05
-1.92001e-06
1.1455e-06
2.11157e-06
-1.96537e-05
1.02741e-05
-4.64504e-05
2.32732e-05
-7.81461e-05
4.16599e-05
-0.000113614
6.59265e-05
-0.000152418
9.6522e-05
-0.00019424
0.000133883
-0.000238983
0.000178441
-0.000286621
0.000230635
-0.00033718
0.000290903
-0.000390655
0.000359671
-0.000446945
0.000437323
-0.000505691
0.000524153
-0.000566208
0.00062024
-0.000626882
0.000725427
-0.000686023
0.000838664
-0.000737413
-0.000784443
0.000959293
-1.35824e-06
1.34101e-05
-2.23259e-06
1.33855e-05
-9.86686e-07
-1.00398e-07
3.69689e-06
-2.43373e-05
1.26725e-05
-5.54261e-05
2.66484e-05
-9.2122e-05
4.6182e-05
-0.000133147
7.17735e-05
-0.00017801
0.000103881
-0.000226348
0.00014295
-0.000278052
0.000189424
-0.000333094
0.000243749
-0.000391505
0.000306375
-0.000453281
0.00037774
-0.00051831
0.000458242
-0.000586193
0.000548198
-0.000656164
0.000647712
-0.000726396
0.000756662
-0.000794974
0.000874027
-0.000854777
-0.000909541
0.000999125
-1.21519e-06
1.46253e-05
-1.72944e-06
1.38997e-05
7.26324e-08
-1.90247e-06
5.4963e-06
-2.97609e-05
1.53947e-05
-6.53244e-05
3.04789e-05
-0.000107206
5.13132e-05
-0.000153982
7.84066e-05
-0.000205103
0.000112227
-0.000260168
0.000153231
-0.000319056
0.000201872
-0.000381735
0.000258607
-0.00044824
0.000323896
-0.00051857
0.000398192
-0.000592606
0.000481908
-0.000669909
0.000575383
-0.000749639
0.000678751
-0.000829765
0.000791927
-0.00090815
0.000913924
-0.000976774
-0.00103965
0.00104403
-1.05564e-06
1.5681e-05
-1.16789e-06
1.40119e-05
1.2551e-06
-4.32545e-06
7.50499e-06
-3.60108e-05
1.84332e-05
-7.62526e-05
3.47539e-05
-0.000123527
5.70389e-05
-0.000176267
8.58064e-05
-0.000233871
0.000121535
-0.000295897
0.000164693
-0.000362214
0.000215744
-0.000432786
0.000275158
-0.000507654
0.000343405
-0.000586817
0.000420951
-0.000670152
0.000508226
-0.000757185
0.000605593
-0.000847006
0.000713218
-0.00093739
0.000831053
-0.00102598
0.000958151
-0.00110387
-0.00117526
0.00109376
-8.80044e-07
1.6561e-05
-5.49454e-07
1.36814e-05
2.55758e-06
-7.43249e-06
9.7176e-06
-4.31708e-05
2.178e-05
-8.8315e-05
3.9462e-05
-0.000141209
6.33431e-05
-0.000200148
9.39515e-05
-0.000264479
0.000131778
-0.000333723
0.0001773
-0.000407736
0.000230996
-0.000486482
0.000293345
-0.000570003
0.000364831
-0.000658303
0.00044593
-0.000751251
0.000537091
-0.000848346
0.0006387
-0.000948614
0.000750955
-0.00104965
0.000873849
-0.00114888
0.00100648
-0.0012365
-0.00131683
0.00114805
-6.88887e-07
1.72499e-05
1.24228e-07
1.28682e-05
3.97665e-06
-1.12849e-05
1.21283e-05
-5.13225e-05
2.54261e-05
-0.000101613
4.45901e-05
-0.000160373
7.0208e-05
-0.000225766
0.000102818
-0.000297089
0.000142923
-0.000373828
0.000191013
-0.000455827
0.000247577
-0.000543046
0.000313107
-0.000635532
0.000388096
-0.000733291
0.000473034
-0.00083619
0.000568387
-0.000943698
0.000674561
-0.00105479
0.000791791
-0.00116688
0.00092011
-0.0012772
0.00105867
-0.00137506
-0.00146476
0.0012066
-4.82708e-07
1.77326e-05
8.51295e-07
1.15342e-05
5.50864e-06
-1.59423e-05
1.47309e-05
-6.05447e-05
2.93618e-05
-0.000116244
5.01245e-05
-0.000181136
7.76146e-05
-0.000253256
0.000112381
-0.000331856
0.000154938
-0.000416385
0.000205789
-0.000506678
0.000265434
-0.000602691
0.000334375
-0.000704473
0.000413117
-0.000812033
0.000502161
-0.000925234
0.000601987
-0.00104352
0.000713023
-0.00116582
0.000835539
-0.00128939
0.000969607
-0.00141127
0.00111443
-0.00151988
-0.00161943
0.0012691
-2.61955e-07
1.79946e-05
1.63004e-06
9.64224e-06
7.14961e-06
-2.14618e-05
1.75185e-05
-7.09137e-05
3.3577e-05
-0.000132302
5.60504e-05
-0.000203609
8.55426e-05
-0.000282748
0.000122613
-0.000368927
0.000167788
-0.00046156
0.000221583
-0.000560472
0.000284508
-0.000665616
0.000357077
-0.000777042
0.000439803
-0.00089476
0.000533199
-0.00101863
0.000637755
-0.00114808
0.000753921
-0.00128199
0.000881999
-0.00141747
0.0010221
-0.00155137
0.00117349
-0.00167128
-0.00178112
0.00133518
-2.48686e-08
1.80194e-05
2.45843e-06
7.15894e-06
8.89542e-06
-2.78988e-05
2.04842e-05
-8.25025e-05
3.80606e-05
-0.000149878
6.23519e-05
-0.0002279
9.397e-05
-0.000314366
0.000133485
-0.000408441
0.000181434
-0.000509509
0.000238344
-0.000617382
0.000304737
-0.000732009
0.000381135
-0.000853439
0.000468059
-0.000981684
0.000566029
-0.0011166
0.000675546
-0.0012576
0.000797078
-0.00140352
0.000930955
-0.00155135
0.00107733
-0.00169774
0.00123553
-0.00182948
-0.00195008
0.00140449
2.21277e-07
1.77982e-05
3.3343e-06
4.04592e-06
1.07417e-05
-3.53062e-05
2.36205e-05
-9.53813e-05
4.28011e-05
-0.000169059
6.90125e-05
-0.000254112
0.000102874
-0.000348228
0.000144965
-0.000450533
0.000195835
-0.000560379
0.000256022
-0.000677569
0.000326055
-0.000802043
0.000406466
-0.00093385
0.000497782
-0.001073
0.000600526
-0.00121934
0.000715208
-0.00137228
0.000842307
-0.00153062
0.000982183
-0.00169122
0.00113502
-0.00185058
0.00130023
-0.00199469
-0.00212649
0.00147665
4.81782e-07
1.73164e-05
4.2556e-06
2.72099e-07
1.2684e-05
-4.37346e-05
2.69195e-05
-0.000109617
4.77865e-05
-0.000189926
7.60147e-05
-0.00028234
0.00011223
-0.000384443
0.000157022
-0.000495325
0.00021095
-0.000614307
0.000274561
-0.000741179
0.000348394
-0.000875876
0.000432984
-0.00101844
0.000528863
-0.00116888
0.000636557
-0.00132704
0.000756577
-0.0014923
0.000889411
-0.00166346
0.00103544
-0.00183726
0.00119489
-0.00201003
0.00136724
-0.00216704
-0.00231047
0.00155123
7.54487e-07
1.65619e-05
5.22011e-06
-4.19353e-06
1.47175e-05
-5.32321e-05
3.03733e-05
-0.000125273
5.30044e-05
-0.000212557
8.33405e-05
-0.000312676
0.000122014
-0.000423117
0.000169622
-0.000542933
0.000226734
-0.000671419
0.000293904
-0.00080835
0.00037168
-0.000953651
0.000460598
-0.00110736
0.000561192
-0.00126947
0.000673983
-0.00143983
0.000799485
-0.0016178
0.000938185
-0.00180216
0.00109049
-0.00198956
0.00125664
-0.00217619
0.00143621
-0.00234661
-0.00250209
0.00162783
1.03863e-06
1.55233e-05
6.22556e-06
-9.38046e-06
1.68376e-05
-6.38441e-05
3.39734e-05
-0.000142408
5.84417e-05
-0.000237026
9.09711e-05
-0.000345205
0.000132199
-0.000464344
0.00018273
-0.000593464
0.00024314
-0.000731829
0.000313993
-0.000879202
0.000395837
-0.0010355
0.000489213
-0.00120074
0.000594649
-0.00137491
0.000712661
-0.00155784
0.000843755
-0.0017489
0.000988417
-0.00194682
0.00114707
-0.00214821
0.00131996
-0.00234909
0.00150677
-0.00253341
-0.00270133
0.00170601
1.33354e-06
1.41897e-05
7.26964e-06
-1.53166e-05
1.90392e-05
-7.56136e-05
3.77114e-05
-0.000161081
6.40853e-05
-0.000263399
9.8887e-05
-0.000380007
0.000142758
-0.000508215
0.000196309
-0.000647015
0.000260122
-0.000795642
0.000334765
-0.000953845
0.000420788
-0.00112152
0.00051873
-0.00129868
0.000629112
-0.00148529
0.00075244
-0.00168117
0.000889206
-0.00188566
0.00103989
-0.0020975
0.0012049
-0.00231323
0.00138454
-0.00252872
0.00157853
-0.00272741
-0.00290811
0.00178532
1.63855e-06
1.25512e-05
8.35e-06
-2.2028e-05
2.13173e-05
-8.85809e-05
4.15784e-05
-0.000181342
6.99213e-05
-0.000291742
0.000107068
-0.000417154
0.000153664
-0.00055481
0.000210322
-0.000703673
0.000277629
-0.00086295
0.000356156
-0.00103237
0.000446452
-0.00121182
0.000549049
-0.00140127
0.000664457
-0.0016007
0.000793166
-0.00180988
0.00093565
-0.00202815
0.00109236
-0.00225421
0.00126373
-0.0024846
0.00145004
-0.00271503
0.00165113
-0.0029285
-0.00312229
0.00186531
1.95298e-06
1.05982e-05
9.46428e-06
-2.95393e-05
2.36668e-05
-0.000102783
4.55655e-05
-0.00020324
7.59359e-05
-0.000322113
0.000115495
-0.000456713
0.000164887
-0.000604203
0.00022473
-0.000763515
0.000295611
-0.000933831
0.0003781
-0.00111486
0.000472744
-0.00130646
0.000580063
-0.00150859
0.000700553
-0.00172119
0.000834681
-0.00194401
0.000982895
-0.00217636
0.00114562
-0.00241694
0.00132328
-0.00266226
0.00151614
-0.00290789
0.00172416
-0.00313651
-0.00334367
0.00194553
2.27618e-06
8.32201e-06
1.06101e-05
-3.78732e-05
2.60827e-05
-0.000118256
4.96638e-05
-0.000226821
8.21149e-05
-0.000354564
0.000124146
-0.000498744
0.0001764
-0.000656457
0.000239494
-0.000826609
0.000314016
-0.00100835
0.000400532
-0.00120138
0.000499579
-0.00140551
0.000611666
-0.00162068
0.000737267
-0.00184679
0.000876821
-0.00208356
0.00103074
-0.00233028
0.00119942
-0.00258561
0.00138326
-0.0028461
0.00158251
-0.00310713
0.00179723
-0.00335124
-0.00357196
0.00202553
2.6075e-06
5.7145e-06
1.17851e-05
-4.70508e-05
2.85596e-05
-0.000135031
5.3864e-05
-0.000252126
8.84438e-05
-0.000389144
0.000133
-0.0005433
0.000188172
-0.000711629
0.000254574
-0.000893012
0.000332791
-0.00108657
0.000423381
-0.00129197
0.00052687
-0.001509
0.000643748
-0.00173756
0.000774464
-0.0019775
0.000919422
-0.00222852
0.001079
-0.00248986
0.00125353
-0.00276015
0.00144339
-0.00303596
0.00164881
-0.00331255
0.00186996
-0.0035724
-0.00380683
0.00210484
2.9463e-06
2.76821e-06
1.29868e-05
-5.70913e-05
3.10923e-05
-0.000153136
5.81569e-05
-0.000279191
9.49081e-05
-0.000425895
0.000142035
-0.000590427
0.000200173
-0.000769766
0.000269929
-0.000962768
0.000351881
-0.00116852
0.000446577
-0.00138666
0.000554528
-0.00161695
0.000676198
-0.00185923
0.000812006
-0.00211331
0.000962315
-0.00237883
0.00112745
-0.00265499
0.0013077
-0.00294039
0.00150339
-0.00323166
0.00171471
-0.00352387
0.00194196
-0.00379965
-0.00404789
0.00218302
3.29193e-06
-5.23719e-07
1.4213e-05
-6.80124e-05
3.36756e-05
-0.000172599
6.25332e-05
-0.000308048
0.000101493
-0.000464855
0.000151231
-0.000640165
0.000212372
-0.000830907
0.000285517
-0.00103591
0.000371232
-0.00125424
0.000470051
-0.00148548
0.000582461
-0.00172936
0.000708902
-0.00198567
0.000849753
-0.00225416
0.00100533
-0.0025344
0.00117591
-0.00282557
0.00136169
-0.00312618
0.00156298
-0.00343295
0.00177988
-0.00374077
0.00201285
-0.00403262
-0.00429466
0.00225963
3.64377e-06
-4.16749e-06
1.54611e-05
-7.98297e-05
3.63043e-05
-0.000193442
6.69836e-05
-0.000338727
0.000108184
-0.000506055
0.000160565
-0.000692546
0.00022474
-0.000895082
0.000301297
-0.00111247
0.000390789
-0.00134373
0.000493728
-0.00158842
0.000610579
-0.00184621
0.000741745
-0.00211684
0.000887564
-0.00239998
0.0010483
-0.00269514
0.00122416
-0.00300142
0.00141527
-0.0033173
0.00162188
-0.00363955
0.00184401
-0.0039629
0.00208226
-0.00427087
-0.00454665
0.00233425
4.00122e-06
-8.16871e-06
1.6729e-05
-9.25575e-05
3.89732e-05
-0.000215686
7.14986e-05
-0.000371253
0.000114965
-0.000549521
0.000170014
-0.000747595
0.000237243
-0.000962312
0.000317225
-0.00119245
0.000410493
-0.001437
0.000517537
-0.00169546
0.000638788
-0.00196746
0.000774612
-0.00225266
0.000925297
-0.00255067
0.00109105
-0.00286089
0.001272
-0.00318237
0.0014682
-0.0035135
0.00167981
-0.00385117
0.00190677
-0.00418985
0.00214983
-0.00451394
-0.00480328
0.00240647
4.36369e-06
-1.25324e-05
1.80142e-05
-0.000106208
4.16769e-05
-0.000239349
7.60689e-05
-0.000405645
0.000121823
-0.000595275
0.000179557
-0.000805329
0.000249852
-0.00103261
0.00033326
-0.00127586
0.00043029
-0.00153403
0.000541403
-0.00180658
0.000666994
-0.00209305
0.000807385
-0.00239305
0.000962808
-0.00270609
0.0011334
-0.00303148
0.00131922
-0.00336819
0.00152023
-0.00371451
0.00173651
-0.00406744
0.00196786
-0.0044212
0.00221523
-0.00476131
-0.00506395
0.00247589
4.7306e-06
-1.7263e-05
1.93145e-05
-0.000120792
4.44103e-05
-0.000264445
8.06851e-05
-0.00044192
0.000128741
-0.000643332
0.000189172
-0.000865759
0.000262534
-0.00110597
0.000349357
-0.00136268
0.000450122
-0.00163479
0.000565253
-0.00192171
0.000695105
-0.0022229
0.000839947
-0.00253789
0.000999954
-0.0028661
0.00117519
-0.00320672
0.00136564
-0.00355864
0.00157115
-0.00392002
0.00179171
-0.004288
0.00202699
-0.00465648
0.00227812
-0.00501244
-0.00532798
0.00254215
5.10138e-06
-2.23644e-05
2.06275e-05
-0.000136318
4.71682e-05
-0.000290985
8.53377e-05
-0.000480089
0.000135705
-0.000693699
0.000198835
-0.000928889
0.000275258
-0.00118239
0.000365474
-0.0014529
0.00046993
-0.00173925
0.000589011
-0.00204079
0.000723025
-0.00235691
0.000872182
-0.00268705
0.00103659
-0.00303051
0.00121625
-0.00338637
0.00141103
-0.00375343
0.00162071
-0.0041297
0.00184515
-0.00451244
0.00208388
-0.00489521
0.00233822
-0.00526678
-0.00559467
0.00260491
5.47548e-06
-2.78399e-05
2.19511e-05
-0.000152794
4.99454e-05
-0.00031898
9.00175e-05
-0.000520161
0.0001427
-0.000746382
0.000208524
-0.000994713
0.000287991
-0.00126186
0.000381566
-0.00154647
0.000489658
-0.00184734
0.000612605
-0.00216374
0.00075066
-0.00249497
0.000903973
-0.00284036
0.00107258
-0.00319912
0.0012564
-0.00357019
0.00145522
-0.00395225
0.0016687
-0.00434318
0.00189661
-0.00474035
0.00213828
-0.00513688
0.00239526
-0.00552375
-0.00586326
0.00266385
5.85238e-06
-3.36922e-05
2.3283e-05
-0.000170224
5.27369e-05
-0.000348434
9.4715e-05
-0.000562139
0.00014971
-0.000801377
0.000218217
-0.00106322
0.000300702
-0.00134434
0.000397591
-0.00164336
0.000509247
-0.001959
0.000635958
-0.00229045
0.000777916
-0.00263693
0.000935203
-0.00299765
0.00110778
-0.0033717
0.00129548
-0.00375789
0.00149801
-0.00415478
0.00171491
-0.00456008
0.00194584
-0.00497128
0.00218996
-0.005381
0.00244898
-0.00578277
-0.00613298
0.0027187
6.23155e-06
-3.99238e-05
2.4621e-05
-0.000188614
5.55375e-05
-0.00037935
9.94209e-05
-0.000606023
0.000156721
-0.000858677
0.000227891
-0.00113439
0.000313359
-0.00142981
0.000413504
-0.00174351
0.000528641
-0.00207413
0.000658997
-0.0024208
0.0008047
-0.00278263
0.000965758
-0.00315871
0.00114205
-0.00354799
0.00133333
-0.00394917
0.0015392
-0.00436065
0.00175912
-0.00478001
0.00199263
-0.00520479
0.0022387
-0.00562706
0.0024992
-0.00604328
-0.00640298
0.0027692
6.61247e-06
-4.65363e-05
2.59629e-05
-0.000207964
5.83421e-05
-0.000411729
0.000104126
-0.000651807
0.000163717
-0.000918268
0.000237524
-0.0012082
0.000325929
-0.00151822
0.000429262
-0.00184684
0.000547781
-0.00219265
0.000681649
-0.00255467
0.00083092
-0.0029319
0.000995523
-0.00332331
0.00117526
-0.00372772
0.00136978
-0.00414369
0.00157862
-0.00456949
0.00180114
-0.00500253
0.00203677
-0.00544042
0.00228431
-0.0058746
0.00254574
-0.00630471
-0.00667238
0.00281515
6.99464e-06
-5.35309e-05
2.73066e-05
-0.000228276
6.11455e-05
-0.000445568
0.00010882
-0.000699481
0.000170683
-0.000980131
0.000247093
-0.00128461
0.000338381
-0.0016095
0.000444822
-0.00195328
0.00056661
-0.00231444
0.000703839
-0.0026919
0.000856483
-0.00308454
0.00102439
-0.00349122
0.00120726
-0.0039106
0.00140468
-0.0043411
0.00161608
-0.0047809
0.00184076
-0.00522721
0.00207805
-0.00567771
0.00232664
-0.00612319
0.00258849
-0.00656656
-0.00694031
0.00285643
7.37754e-06
-6.09084e-05
2.86497e-05
-0.000249548
6.39429e-05
-0.000480861
0.000113495
-0.000749034
0.000177605
-0.00104424
0.000256575
-0.00136358
0.000350682
-0.00170361
0.000460139
-0.00206274
0.000585072
-0.00243937
0.000725496
-0.00283232
0.000881301
-0.00324035
0.00105224
-0.00366216
0.00123794
-0.0040963
0.00143788
-0.00454104
0.00165142
-0.00499444
0.0018778
-0.0054536
0.00211629
-0.0059162
0.00236556
-0.00637246
0.00262738
-0.00682838
-0.00720595
0.00289302
7.76065e-06
-6.86691e-05
2.99903e-05
-0.000271778
6.6729e-05
-0.0005176
0.000118142
-0.000800447
0.000184466
-0.00111056
0.000265948
-0.00144506
0.000362801
-0.00180047
0.000475172
-0.00217511
0.00060311
-0.00256731
0.000746548
-0.00297576
0.000905286
-0.00339909
0.00107898
-0.00383586
0.00126716
-0.00428448
0.00146922
-0.0047431
0.00168446
-0.00520967
0.00191208
-0.00568121
0.00215131
-0.00615543
0.00240098
-0.00662213
0.00266233
-0.00708973
-0.00746863
0.002925
8.14341e-06
-7.68125e-05
3.13259e-05
-0.00029496
6.94988e-05
-0.000555773
0.00012275
-0.000853697
0.000191253
-0.00117907
0.000275189
-0.001529
0.000374707
-0.00189998
0.000489878
-0.00229028
0.00062067
-0.0026981
0.000766927
-0.00312202
0.000928351
-0.00356051
0.0011045
-0.00401201
0.00129481
-0.00447479
0.00149858
-0.00494687
0.00171504
-0.00542613
0.00194339
-0.00590957
0.00218291
-0.00639494
0.00243285
-0.00687207
0.0026934
-0.00735028
-0.00772866
0.00295343
8.5252e-06
-8.53377e-05
3.26545e-05
-0.00031909
7.22473e-05
-0.000595366
0.00012731
-0.00090876
0.000197949
-0.00124971
0.000284277
-0.00161532
0.000386368
-0.00200207
0.000504214
-0.00240813
0.000637697
-0.00283159
0.000786563
-0.00327088
0.000950414
-0.00372436
0.00112871
-0.00419031
0.00132077
-0.00466685
0.00152582
-0.00515192
0.00174302
-0.00564333
0.00197157
-0.00613812
0.00221087
-0.00663424
0.00246098
-0.00712218
0.00272185
-0.00761115
-0.00798729
0.00298048
8.83203e-06
-9.41697e-05
3.38226e-05
-0.00034408
7.47459e-05
-0.000636289
0.000131528
-0.000965542
0.000204207
-0.00132239
0.000292822
-0.00170394
0.00039737
-0.00210662
0.000517759
-0.00252852
0.000653777
-0.0029676
0.000805069
-0.00342218
0.000971132
-0.00389043
0.00115132
-0.00437049
0.00134484
-0.00486037
0.00155083
-0.00535791
0.00176839
-0.00586089
0.00199672
-0.00636645
0.00223532
-0.00687284
0.00248505
-0.00737191
0.00274959
-0.00787568
-0.00830702
0.00306932
9.20441e-06
-0.000103374
3.51196e-05
-0.000369996
7.74217e-05
-0.000678591
0.000135948
-0.00102407
0.000210659
-0.0013971
0.000301514
-0.00179479
0.000408426
-0.00221353
0.000531212
-0.0026513
0.000669559
-0.00310595
0.000823006
-0.00357562
0.00099094
-0.00405836
0.0011726
-0.00455215
0.0013671
-0.00505487
0.00157347
-0.00556428
0.00179074
-0.00607816
0.0020181
-0.00659381
0.00225505
-0.00710979
0.00250282
-0.00761969
0.00276405
-0.00813691
-0.00860825
0.00306529
9.5741e-06
-0.000112948
3.64025e-05
-0.000396824
8.00602e-05
-0.000722249
0.000140292
-0.0010843
0.000216975
-0.00147378
0.000309984
-0.0018878
0.000419143
-0.00232269
0.00054417
-0.00277633
0.000684648
-0.00324643
0.000840006
-0.00373098
0.00100951
-0.00422787
0.0011923
-0.00473493
0.00138737
-0.00524994
0.00159366
-0.00577057
0.00181011
-0.00629461
0.00203586
-0.00681955
0.00227033
-0.00734426
0.00251459
-0.00786395
0.00276898
-0.0083913
-0.00889119
0.00305192
9.94044e-06
-0.000122889
3.76691e-05
-0.000424553
8.26563e-05
-0.000767236
0.000144549
-0.00114619
0.00022314
-0.00155237
0.00031821
-0.00198287
0.00042949
-0.00243397
0.000556595
-0.00290343
0.000698996
-0.00338883
0.000856008
-0.00388799
0.00102679
-0.00439865
0.00121034
-0.00491849
0.00140556
-0.00544516
0.0016113
-0.00597631
0.00182641
-0.00650972
0.00204994
-0.00704308
0.00228116
-0.00757548
0.00252076
-0.00810354
0.00276755
-0.0086381
-0.00915741
0.00303377
1.03028e-05
-0.000133192
3.8917e-05
-0.000453167
8.52048e-05
-0.000813524
0.000148712
-0.0012097
0.000229138
-0.0016328
0.000326171
-0.0020799
0.000439439
-0.00254724
0.000568447
-0.00303244
0.000712556
-0.00353294
0.000870958
-0.0040464
0.00104269
-0.00457038
0.00122664
-0.00510244
0.00142161
-0.00564013
0.00162634
-0.00618104
0.00183959
-0.00672297
0.00206032
-0.00726381
0.00228762
-0.00780278
0.00252174
-0.00833766
0.00276058
-0.00887694
-0.00940877
0.00301194
1.06607e-05
-0.000143852
4.01441e-05
-0.00048265
8.77006e-05
-0.00086108
0.00015277
-0.00127477
0.000234956
-0.00171498
0.000333845
-0.00217879
0.000448959
-0.00266236
0.000579691
-0.00316317
0.000725281
-0.00367853
0.000884802
-0.00420592
0.00105717
-0.00474274
0.00124116
-0.00528643
0.00143546
-0.00583443
0.00163871
-0.0063843
0.00184961
-0.00693387
0.002067
-0.0074812
0.00228981
-0.0080256
0.00251786
-0.0085657
0.0027486
-0.00910767
-0.00964691
0.00298674
1.10134e-05
-0.000154866
4.1348e-05
-0.000512985
9.01385e-05
-0.000909871
0.000156715
-0.00134135
0.00024058
-0.00179885
0.000341212
-0.00227943
0.000458023
-0.00277917
0.00059029
-0.00329544
0.000737128
-0.00382537
0.000897488
-0.00436628
0.00107016
-0.00491542
0.00125382
-0.00547009
0.00144704
-0.00602765
0.00164839
-0.00658564
0.00185646
-0.00714194
0.00207
-0.00769475
0.00228783
-0.00824342
0.0025094
-0.00878727
0.00273199
-0.00933027
-0.00987315
0.00295823
1.13604e-05
-0.000166226
4.25264e-05
-0.000544151
9.25134e-05
-0.000959858
0.000160537
-0.00140937
0.000245993
-0.0018843
0.00034825
-0.00238168
0.000466604
-0.00289752
0.000600208
-0.00342904
0.000748056
-0.00397322
0.000908972
-0.00452719
0.00108163
-0.00508808
0.00126459
-0.00565304
0.00145632
-0.00621939
0.00165533
-0.00678465
0.00186012
-0.00734673
0.00206937
-0.00790401
0.00228179
-0.00845584
0.00249657
-0.00900204
0.00271104
-0.00954475
-0.0100885
0.00292638
1.17012e-05
-0.000177927
4.36772e-05
-0.000576127
9.48202e-05
-0.001011
0.000164227
-0.00147878
0.000251183
-0.00197126
0.00035494
-0.00248544
0.000474674
-0.00301726
0.000609414
-0.00356378
0.000758025
-0.00412183
0.000919209
-0.00468838
0.00109152
-0.00526039
0.00127341
-0.00583493
0.00146327
-0.00640926
0.00165952
-0.00698089
0.00186061
-0.00754782
0.00206516
-0.00810856
0.00227181
-0.00866248
0.00247957
-0.0092098
0.00268595
-0.00975113
-0.0102937
0.00289116
1.20351e-05
-0.000189962
4.47979e-05
-0.00060889
9.70536e-05
-0.00106326
0.000167775
-0.0015495
0.000256134
-0.00205962
0.000361261
-0.00259057
0.000482207
-0.0031382
0.000617874
-0.00369945
0.000767
-0.00427095
0.00092816
-0.00484954
0.0010998
-0.00543203
0.00128026
-0.0060154
0.00146787
-0.00659686
0.00166096
-0.00717398
0.00185796
-0.00774482
0.00205744
-0.00830804
0.00225801
-0.00886305
0.00245857
-0.00941036
0.0026569
-0.00994946
-0.0104894
0.00285257
1.23616e-05
-0.000202324
4.58862e-05
-0.000642414
9.92084e-05
-0.00111658
0.000171174
-0.00162146
0.000260834
-0.00214928
0.000367194
-0.00269693
0.000489179
-0.00326019
0.00062556
-0.00383583
0.000774945
-0.00442034
0.00093579
-0.00501038
0.00110643
-0.00560266
0.00128511
-0.00619408
0.00147009
-0.00678184
0.00165965
-0.00736355
0.0018522
-0.00793736
0.00204627
-0.00850212
0.0022405
-0.00905727
0.00243374
-0.00960361
0.00262405
-0.0101398
-0.0106759
0.00281063
1.268e-05
-0.000215004
4.69398e-05
-0.000676674
0.00010128
-0.00117092
0.000174413
-0.0016946
0.000265268
-0.00224013
0.00037272
-0.00280438
0.000495566
-0.00338303
0.000632442
-0.00397271
0.000781831
-0.00456973
0.000942068
-0.00517062
0.00111138
-0.00577198
0.00128794
-0.00637065
0.00146994
-0.00696383
0.00165562
-0.00754923
0.00184337
-0.00812511
0.00203175
-0.0086905
0.00221941
-0.00924493
0.00240523
-0.00978942
0.00258755
-0.0103221
-0.0108538
0.0027654
1.29897e-05
-0.000227993
4.79563e-05
-0.000711641
0.000103262
-0.00122622
0.000177484
-0.00176882
0.000269422
-0.00233207
0.000377822
-0.00291278
0.000501344
-0.00350656
0.000638494
-0.00410986
0.000787628
-0.00471886
0.000946966
-0.00532996
0.00111464
-0.00593965
0.00128874
-0.00654475
0.00146741
-0.0071425
0.00164888
-0.0077307
0.00183154
-0.00830777
0.00201396
-0.00887292
0.00219487
-0.00942584
0.00237319
-0.00996774
0.00254757
-0.0104965
-0.0110232
0.00271694
1.32902e-05
-0.000241284
4.89333e-05
-0.000747284
0.00010515
-0.00128244
0.000180377
-0.00184405
0.000273285
-0.00242498
0.000382481
-0.00302197
0.000506492
-0.00363057
0.000643692
-0.00424706
0.000792312
-0.00486748
0.000950461
-0.0054881
0.00111618
-0.00610537
0.0012875
-0.00671607
0.00146252
-0.00731753
0.00163947
-0.00790765
0.00181675
-0.00848505
0.00199299
-0.00904916
0.00216699
-0.00959984
0.00233777
-0.0101385
0.00250424
-0.0106629
-0.0111843
0.00266537
1.35807e-05
-0.000254864
4.98684e-05
-0.000783572
0.000106938
-0.00133951
0.000183085
-0.00192019
0.000276842
-0.00251874
0.00038668
-0.00313181
0.00051099
-0.00375488
0.000648013
-0.00438408
0.00079586
-0.00501533
0.000952535
-0.00564478
0.001116
-0.00626883
0.00128423
-0.0068843
0.0014553
-0.0074886
0.00162744
-0.00807979
0.0017991
-0.00865671
0.00196896
-0.00921902
0.00213593
-0.00976681
0.00229912
-0.0103017
0.00245773
-0.0108216
-0.0113374
0.0026108
1.38606e-05
-0.000268725
5.07592e-05
-0.00082047
0.000108622
-0.00139737
0.000185598
-0.00199717
0.000280082
-0.00261322
0.000390404
-0.00324213
0.000514819
-0.00387929
0.000651437
-0.0045207
0.000798253
-0.00516214
0.000953172
-0.0057997
0.00111408
-0.00642974
0.00127892
-0.00704914
0.00144575
-0.00765543
0.00161283
-0.00824687
0.00177865
-0.00882252
0.00194197
-0.00938234
0.0021018
-0.00992665
0.0022574
-0.0104573
0.0024082
-0.0109724
-0.0114825
0.00255337
1.41292e-05
-0.000282854
5.16032e-05
-0.000857944
0.000110197
-0.00145597
0.000187909
-0.00207488
0.000282992
-0.0027083
0.000393637
-0.00335278
0.000517961
-0.00400362
0.000653946
-0.00465668
0.000799475
-0.00530767
0.000952364
-0.00595259
0.00111044
-0.00658781
0.00127161
-0.00721031
0.00143393
-0.00781775
0.0015957
-0.00840864
0.00175548
-0.0089823
0.00191212
-0.00953898
0.00206476
-0.0100793
0.00221277
-0.0106053
0.00235581
-0.0111154
-0.0116199
0.00249321
1.43859e-05
-0.00029724
5.23981e-05
-0.000895956
0.000111657
-0.00151523
0.000190008
-0.00215323
0.000285562
-0.00280386
0.000396365
-0.00346358
0.000520399
-0.00412765
0.000655524
-0.00479181
0.000799513
-0.00545166
0.000950104
-0.00610318
0.00110507
-0.00674278
0.0012623
-0.00736754
0.00141987
-0.00797532
0.00157612
-0.00856489
0.00172969
-0.00913587
0.00187954
-0.00968883
0.00202492
-0.0102247
0.00216536
-0.0107458
0.00230072
-0.0112508
-0.0117497
0.00243048
1.463e-05
-0.00031187
5.31415e-05
-0.000934468
0.000112998
-0.00157508
0.000191889
-0.00223212
0.00028778
-0.00289975
0.000398574
-0.00357438
0.000522121
-0.0042512
0.000656158
-0.00492585
0.000798359
-0.00559386
0.00094639
-0.00625121
0.00109798
-0.00689437
0.00125102
-0.00752058
0.00140361
-0.00812792
0.00155416
-0.00871544
0.00170138
-0.00928309
0.00184434
-0.00983179
0.00198245
-0.0103628
0.00211535
-0.0108787
0.00224309
-0.0113785
-0.0118719
0.00236534
1.48608e-05
-0.000326731
5.3831e-05
-0.000973438
0.000114214
-0.00163546
0.000193542
-0.00231145
0.000289635
-0.00299584
0.000400253
-0.003685
0.000523113
-0.00437406
0.000655836
-0.00505857
0.000796007
-0.00573403
0.000941226
-0.00639643
0.0010892
-0.00704234
0.00123781
-0.00766919
0.00138522
-0.00827532
0.00152988
-0.0088601
0.00167063
-0.00942384
0.00180665
-0.0099678
0.00193746
-0.0104936
0.00206287
-0.0110041
0.00218309
-0.0114987
-0.0119868
0.00229793
1.50776e-05
-0.000341809
5.44642e-05
-0.00101282
0.000115301
-0.0016963
0.000194962
-0.00239111
0.000291119
-0.003092
0.00040139
-0.00379527
0.000523363
-0.00449603
0.000654551
-0.00518976
0.000792453
-0.00587193
0.000934617
-0.00653859
0.00107873
-0.00718646
0.0012227
-0.00781316
0.00136473
-0.00841735
0.00150338
-0.00899875
0.00163756
-0.00955803
0.00176659
-0.0100968
0.00189012
-0.0106171
0.00200809
-0.011122
0.00212086
-0.0116115
-0.0120943
0.00222841
1.52798e-05
-0.000357088
5.50388e-05