/*--------------------------------*- C++ -*----------------------------------*\
  =========                 |
  \\      /  F ield         | OpenFOAM: The Open Source CFD Toolbox
   \\    /   O peration     | Website:  https://openfoam.org
    \\  /    A nd           | Version:  7
     \\/     M anipulation  |
\*---------------------------------------------------------------------------*/
FoamFile
{
    version     2.0;
    format      ascii;
    class       volScalarField;
    location    "20";
    object      p;
}
// * * * * * * * * * * * * * * * * * * * * * * * * * * * * * * * * * * * * * //

dimensions      [0 2 -2 0 0 0 0];

internalField   nonuniform List<scalar> 
10500
(
-0.400203
-0.388309
-0.369608
-0.343614
-0.31746
-0.289383
-0.263047
-0.235998
-0.215051
-0.189161
-0.401217
-0.388829
-0.370072
-0.34394
-0.317746
-0.289615
-0.263262
-0.236105
-0.21528
-0.188711
-0.403236
-0.389865
-0.370997
-0.34459
-0.318314
-0.290076
-0.263688
-0.236316
-0.215732
-0.187825
-0.406238
-0.391404
-0.37237
-0.345552
-0.319155
-0.290756
-0.264316
-0.23663
-0.216401
-0.186531
-0.410196
-0.393431
-0.374176
-0.346814
-0.320255
-0.291645
-0.265134
-0.237038
-0.217269
-0.184871
-0.415077
-0.395923
-0.376395
-0.34836
-0.321598
-0.292727
-0.266125
-0.237536
-0.218317
-0.182898
-0.420839
-0.398852
-0.379004
-0.350171
-0.323165
-0.293985
-0.26727
-0.238115
-0.219515
-0.180677
-0.427404
-0.402208
-0.381974
-0.352224
-0.324933
-0.295399
-0.268544
-0.238768
-0.220828
-0.178278
-0.434723
-0.40595
-0.385276
-0.354495
-0.326879
-0.296947
-0.269923
-0.239486
-0.222212
-0.175781
-0.442741
-0.410038
-0.388878
-0.35696
-0.328978
-0.298608
-0.271379
-0.240261
-0.223614
-0.173266
-0.451384
-0.414437
-0.392746
-0.359591
-0.331202
-0.300356
-0.272879
-0.241084
-0.224974
-0.170812
-0.460578
-0.419108
-0.396845
-0.362364
-0.333527
-0.30217
-0.274393
-0.241946
-0.226226
-0.168495
-0.470241
-0.424013
-0.401138
-0.36525
-0.335924
-0.304022
-0.275887
-0.242837
-0.227295
-0.166382
-0.480294
-0.429109
-0.405588
-0.368221
-0.338365
-0.305887
-0.277326
-0.243746
-0.228103
-0.164537
-0.490652
-0.434354
-0.410159
-0.371251
-0.340822
-0.307737
-0.278674
-0.24466
-0.228571
-0.163039
-0.501227
-0.439704
-0.41481
-0.37431
-0.343265
-0.309541
-0.279894
-0.245565
-0.228622
-0.161979
-0.51193
-0.445114
-0.419503
-0.377367
-0.345663
-0.311265
-0.280952
-0.246443
-0.228146
-0.161297
-0.522674
-0.450541
-0.424197
-0.380391
-0.347981
-0.312872
-0.281814
-0.247286
-0.226971
-0.160678
-0.533367
-0.45594
-0.428851
-0.383348
-0.350182
-0.314317
-0.282454
-0.248094
-0.225041
-0.160957
-0.543879
-0.461232
-0.433399
-0.386186
-0.352215
-0.315547
-0.282836
-0.248796
-0.222882
-0.167848
-0.55403
-0.4663
-0.437747
-0.388834
-0.354018
-0.316496
-0.282896
-0.249162
-0.221079
-0.188704
-0.563931
-0.471258
-0.441956
-0.391317
-0.355578
-0.317117
-0.28257
-0.248971
-0.218546
-0.195452
-0.573414
-0.475986
-0.445926
-0.393551
-0.356817
-0.317336
-0.281786
-0.248067
-0.215489
-0.196338
-0.582337
-0.48039
-0.44957
-0.395464
-0.357664
-0.31708
-0.280483
-0.246409
-0.212185
-0.195047
-0.59059
-0.484402
-0.452821
-0.39699
-0.35805
-0.316282
-0.278602
-0.243981
-0.208533
-0.192106
-0.598063
-0.487951
-0.455602
-0.398056
-0.357899
-0.314873
-0.276082
-0.240767
-0.204419
-0.187767
-0.60464
-0.490957
-0.457832
-0.398585
-0.357135
-0.312784
-0.272864
-0.236757
-0.199772
-0.182327
-0.6102
-0.493338
-0.459423
-0.398493
-0.355676
-0.309949
-0.268897
-0.231944
-0.194538
-0.176005
-0.614621
-0.495003
-0.460281
-0.397692
-0.353442
-0.306304
-0.264132
-0.226326
-0.188677
-0.168948
-0.617779
-0.495861
-0.460308
-0.396093
-0.350352
-0.301791
-0.258529
-0.2199
-0.18216
-0.161248
-0.619547
-0.495813
-0.459402
-0.393605
-0.346328
-0.296353
-0.252055
-0.212669
-0.174971
-0.152967
-0.619798
-0.494759
-0.457461
-0.390135
-0.341294
-0.289945
-0.244686
-0.204636
-0.167101
-0.144143
-0.618408
-0.492598
-0.45438
-0.385594
-0.335183
-0.282524
-0.236402
-0.195808
-0.158553
-0.1348
-0.615251
-0.489226
-0.450055
-0.379895
-0.327931
-0.274058
-0.227194
-0.186197
-0.149335
-0.124955
-0.610206
-0.484539
-0.444383
-0.372956
-0.319482
-0.264521
-0.217059
-0.175816
-0.13946
-0.114622
-0.603157
-0.478435
-0.437268
-0.364703
-0.309792
-0.253896
-0.205999
-0.164681
-0.128948
-0.103815
-0.593994
-0.470816
-0.428618
-0.355068
-0.298823
-0.242176
-0.194027
-0.152815
-0.11782
-0.0925475
-0.582627
-0.461596
-0.418352
-0.343995
-0.28655
-0.229361
-0.181158
-0.14024
-0.106101
-0.080837
-0.568966
-0.45069
-0.406395
-0.331437
-0.272957
-0.215461
-0.167414
-0.126983
-0.0938193
-0.0687023
-0.552811
-0.437959
-0.392656
-0.317347
-0.258035
-0.20049
-0.152823
-0.113073
-0.0810033
-0.0561647
-0.533834
-0.423205
-0.377025
-0.301679
-0.241785
-0.184473
-0.137417
-0.098544
-0.0676838
-0.0432489
-0.512715
-0.406727
-0.359635
-0.284498
-0.22425
-0.167449
-0.121234
-0.0834303
-0.0538942
-0.0299855
-0.489177
-0.388345
-0.340397
-0.265776
-0.205447
-0.149454
-0.104316
-0.0677702
-0.0396697
-0.0164024
-0.463084
-0.36797
-0.319277
-0.24552
-0.18541
-0.130533
-0.0867062
-0.0516046
-0.0250551
-0.00252436
-0.434438
-0.34559
-0.296285
-0.22376
-0.164187
-0.110737
-0.0684536
-0.034975
-0.0100971
0.0116176
-0.403267
-0.321209
-0.271449
-0.200542
-0.141837
-0.0901246
-0.0496097
-0.0179235
0.0052239
0.0259377
-0.369609
-0.294846
-0.244811
-0.175923
-0.118426
-0.0687572
-0.0302299
-0.000505714
0.0208283
0.0404401
-0.333521
-0.266534
-0.216429
-0.149972
-0.0940274
-0.0467028
-0.0103721
0.0172382
0.0366734
0.0550818
-0.295081
-0.236324
-0.186379
-0.12277
-0.0687238
-0.0240337
0.00990386
0.0352579
0.0527219
0.0698185
-0.254387
-0.204287
-0.154752
-0.0944102
-0.0426037
-0.000825114
0.0305343
0.053501
0.0689326
0.0846066
-0.211558
-0.170512
-0.121654
-0.0649943
-0.015762
0.0228437
0.0514538
0.0719142
0.0852633
0.0994007
-0.166734
-0.13511
-0.0872011
-0.0346367
0.0117006
0.04689
0.0725949
0.0904427
0.101671
0.114153
-0.120075
-0.098209
-0.0515253
-0.00345634
0.0396788
0.0712285
0.0938882
0.10903
0.118113
0.128812
-0.0717526
-0.0599269
-0.0147973
0.0284186
0.0680631
0.0957716
0.115263
0.12762
0.134545
0.143322
-0.0219651
-0.0204436
0.0228425
0.0608529
0.0967406
0.12043
0.136646
0.146153
0.150922
0.15762
0.0290639
0.0200812
0.0612246
0.0937055
0.125595
0.145112
0.157963
0.16457
0.1672
0.171637
0.0811143
0.0614543
0.100169
0.126831
0.154509
0.169725
0.179141
0.182814
0.183346
0.185304
0.133924
0.103467
0.139486
0.160078
0.183364
0.194178
0.200103
0.200831
0.199347
0.198529
0.187233
0.14591
0.178984
0.193297
0.212038
0.218377
0.220774
0.21857
0.215139
0.211076
0.240986
0.188645
0.218494
0.22634
0.240412
0.242229
0.241079
0.235966
0.23044
0.222444
0.295316
0.231599
0.257862
0.259063
0.268368
0.265642
0.260953
0.25295
0.244967
0.232216
0.348699
0.274086
0.296733
0.291274
0.295783
0.288529
0.280329
0.269469
0.259307
0.244186
0.40127
0.316044
0.334966
0.322835
0.322541
0.3108
0.299138
0.285459
0.273132
0.256512
0.452934
0.357305
0.372382
0.353602
0.348529
0.33237
0.317312
0.300867
0.286334
0.268393
0.503397
0.397626
0.408783
0.383427
0.373636
0.353153
0.334786
0.315647
0.298927
0.279694
0.552355
0.436765
0.443974
0.412166
0.397753
0.37307
0.351497
0.329752
0.310905
0.290431
0.599526
0.47449
0.477765
0.439679
0.420776
0.392041
0.367385
0.343136
0.322241
0.300584
0.644637
0.510579
0.509976
0.465834
0.442605
0.409994
0.382395
0.355756
0.332907
0.310119
0.687425
0.544815
0.540434
0.490503
0.463145
0.426856
0.396471
0.367572
0.342877
0.319009
0.727634
0.576992
0.568973
0.513566
0.482307
0.442562
0.409564
0.378545
0.352123
0.327234
0.765023
0.606914
0.595441
0.53491
0.500007
0.457049
0.421625
0.388641
0.360622
0.334774
0.799367
0.634397
0.619691
0.554431
0.516168
0.470259
0.432612
0.397827
0.368349
0.341613
0.830455
0.659274
0.641594
0.572032
0.530717
0.482139
0.442483
0.406072
0.37528
0.347734
0.858097
0.681391
0.661029
0.587628
0.543593
0.492641
0.451203
0.413349
0.381394
0.353123
0.882121
0.70061
0.677889
0.601142
0.554736
0.501724
0.458738
0.419633
0.386673
0.357768
0.902379
0.716812
0.692083
0.612506
0.564099
0.50935
0.465062
0.424903
0.391098
0.361657
0.918744
0.729896
0.703532
0.621665
0.571639
0.515489
0.470149
0.429141
0.394657
0.36478
0.931112
0.73978
0.712174
0.628573
0.577323
0.520114
0.473982
0.432333
0.397337
0.36713
0.939406
0.746403
0.717961
0.633197
0.581126
0.523208
0.476545
0.434467
0.399129
0.368701
0.943575
0.749727
0.720863
0.635514
0.583032
0.524758
0.477829
0.435537
0.400026
0.369487
0.943575
0.749727
0.720863
0.635514
0.583032
0.524758
0.477829
0.435537
0.400026
0.369487
0.939406
0.746403
0.717961
0.633197
0.581126
0.523208
0.476545
0.434467
0.399129
0.368701
0.931112
0.73978
0.712174
0.628573
0.577323
0.520114
0.473982
0.432333
0.397337
0.36713
0.918744
0.729896
0.703532
0.621665
0.571639
0.515489
0.470149
0.429141
0.394657
0.36478
0.902379
0.716812
0.692083
0.612506
0.564099
0.50935
0.465062
0.424903
0.391098
0.361657
0.882121
0.70061
0.677889
0.601142
0.554736
0.501724
0.458738
0.419633
0.386673
0.357768
0.858097
0.681391
0.661029
0.587628
0.543593
0.492641
0.451203
0.413349
0.381394
0.353123
0.830455
0.659274
0.641594
0.572032
0.530717
0.482139
0.442483
0.406072
0.37528
0.347734
0.799367
0.634397
0.619691
0.554431
0.516168
0.470259
0.432612
0.397827
0.368349
0.341613
0.765023
0.606914
0.595441
0.53491
0.500007
0.457049
0.421625
0.388641
0.360622
0.334774
0.727634
0.576992
0.568973
0.513566
0.482307
0.442562
0.409564
0.378545
0.352123
0.327234
0.687425
0.544815
0.540434
0.490503
0.463145
0.426856
0.396471
0.367572
0.342877
0.319009
0.644637
0.510579
0.509976
0.465834
0.442605
0.409994
0.382395
0.355756
0.332907
0.310119
0.599526
0.47449
0.477765
0.439679
0.420776
0.392041
0.367385
0.343136
0.322241
0.300584
0.552355
0.436765
0.443974
0.412166
0.397753
0.37307
0.351497
0.329752
0.310905
0.290431
0.503397
0.397626
0.408783
0.383427
0.373636
0.353153
0.334786
0.315647
0.298927
0.279694
0.452934
0.357305
0.372382
0.353602
0.348529
0.33237
0.317312
0.300867
0.286334
0.268393
0.40127
0.316044
0.334966
0.322835
0.322541
0.3108
0.299138
0.285459
0.273132
0.256512
0.348699
0.274086
0.296733
0.291274
0.295783
0.288529
0.280329
0.269469
0.259307
0.244186
0.295316
0.231599
0.257862
0.259063
0.268368
0.265642
0.260953
0.25295
0.244967
0.232216
0.240986
0.188645
0.218494
0.22634
0.240412
0.242229
0.241079
0.235966
0.23044
0.222444
0.187233
0.14591
0.178984
0.193297
0.212038
0.218377
0.220774
0.21857
0.215139
0.211076
0.133924
0.103467
0.139486
0.160078
0.183364
0.194178
0.200103
0.200831
0.199347
0.198529
0.0811143
0.0614543
0.100169
0.126831
0.154509
0.169725
0.179141
0.182814
0.183346
0.185304
0.0290639
0.0200812
0.0612246
0.0937055
0.125595
0.145112
0.157963
0.16457
0.1672
0.171637
-0.0219651
-0.0204436
0.0228425
0.0608529
0.0967406
0.12043
0.136646
0.146153
0.150922
0.15762
-0.0717526
-0.0599269
-0.0147973
0.0284186
0.0680631
0.0957717
0.115263
0.12762
0.134545
0.143322
-0.120075
-0.098209
-0.0515253
-0.00345633
0.0396788
0.0712286
0.0938883
0.10903
0.118113
0.128812
-0.166734
-0.13511
-0.0872011
-0.0346366
0.0117006
0.04689
0.0725949
0.0904427
0.101671
0.114153
-0.211558
-0.170512
-0.121654
-0.0649943
-0.015762
0.0228437
0.0514538
0.0719143
0.0852633
0.0994007
-0.254387
-0.204287
-0.154752
-0.0944102
-0.0426036
-0.000825105
0.0305343
0.053501
0.0689326
0.0846066
-0.295081
-0.236324
-0.186379
-0.12277
-0.0687238
-0.0240337
0.00990387
0.0352579
0.0527219
0.0698185
-0.333521
-0.266534
-0.216429
-0.149972
-0.0940274
-0.0467028
-0.0103721
0.0172382
0.0366734
0.0550818
-0.369609
-0.294846
-0.244811
-0.175923
-0.118426
-0.0687572
-0.0302299
-0.000505705
0.0208283
0.0404401
-0.403267
-0.321209
-0.271449
-0.200542
-0.141837
-0.0901246
-0.0496097
-0.0179235
0.0052239
0.0259377
-0.434438
-0.34559
-0.296285
-0.22376
-0.164187
-0.110737
-0.0684536
-0.034975
-0.0100971
0.0116176
-0.463084
-0.36797
-0.319277
-0.24552
-0.18541
-0.130533
-0.0867062
-0.0516046
-0.0250551
-0.00252435
-0.489177
-0.388345
-0.340397
-0.265776
-0.205447
-0.149454
-0.104316
-0.0677702
-0.0396697
-0.0164024
-0.512715
-0.406727
-0.359635
-0.284498
-0.22425
-0.167449
-0.121234
-0.0834303
-0.0538942
-0.0299854
-0.533834
-0.423205
-0.377025
-0.301679
-0.241785
-0.184473
-0.137417
-0.0985439
-0.0676837
-0.0432489
-0.552811
-0.437959
-0.392656
-0.317347
-0.258035
-0.20049
-0.152823
-0.113073
-0.0810033
-0.0561647
-0.568966
-0.45069
-0.406395
-0.331437
-0.272957
-0.215461
-0.167414
-0.126983
-0.0938193
-0.0687023
-0.582627
-0.461596
-0.418352
-0.343995
-0.286549
-0.229361
-0.181158
-0.14024
-0.106101
-0.080837
-0.593994
-0.470816
-0.428618
-0.355068
-0.298823
-0.242176
-0.194027
-0.152815
-0.11782
-0.0925475
-0.603157
-0.478435
-0.437268
-0.364703
-0.309792
-0.253896
-0.205999
-0.164681
-0.128948
-0.103815
-0.610206
-0.484539
-0.444383
-0.372956
-0.319482
-0.264521
-0.217059
-0.175816
-0.13946
-0.114622
-0.615251
-0.489226
-0.450055
-0.379895
-0.327931
-0.274058
-0.227194
-0.186197
-0.149335
-0.124955
-0.618408
-0.492598
-0.45438
-0.385594
-0.335183
-0.282524
-0.236402
-0.195808
-0.158553
-0.1348
-0.619798
-0.494759
-0.457461
-0.390135
-0.341294
-0.289945
-0.244686
-0.204636
-0.167101
-0.144143
-0.619547
-0.495813
-0.459402
-0.393605
-0.346328
-0.296353
-0.252055
-0.212669
-0.174971
-0.152967
-0.617779
-0.495861
-0.460308
-0.396093
-0.350352
-0.301791
-0.258529
-0.2199
-0.18216
-0.161248
-0.614621
-0.495003
-0.460281
-0.397692
-0.353442
-0.306304
-0.264132
-0.226326
-0.188677
-0.168948
-0.6102
-0.493338
-0.459423
-0.398493
-0.355676
-0.309949
-0.268897
-0.231944
-0.194538
-0.176005
-0.60464
-0.490957
-0.457832
-0.398585
-0.357135
-0.312784
-0.272864
-0.236757
-0.199772
-0.182327
-0.598063
-0.487951
-0.455602
-0.398056
-0.357899
-0.314873
-0.276082
-0.240767
-0.204419
-0.187767
-0.59059
-0.484402
-0.452821
-0.39699
-0.35805
-0.316282
-0.278602
-0.243981
-0.208533
-0.192106
-0.582337
-0.48039
-0.44957
-0.395464
-0.357664
-0.31708
-0.280483
-0.246409
-0.212185
-0.195047
-0.573414
-0.475986
-0.445926
-0.393551
-0.356817
-0.317336
-0.281786
-0.248067
-0.215489
-0.196338
-0.563931
-0.471258
-0.441956
-0.391317
-0.355578
-0.317117
-0.28257
-0.248971
-0.218546
-0.195452
-0.55403
-0.4663
-0.437747
-0.388834
-0.354018
-0.316496
-0.282896
-0.249162
-0.221079
-0.188704
-0.543879
-0.461232
-0.433399
-0.386186
-0.352215
-0.315547
-0.282836
-0.248796
-0.222882
-0.167848
-0.533367
-0.45594
-0.428851
-0.383348
-0.350182
-0.314317
-0.282454
-0.248094
-0.225041
-0.160957
-0.522674
-0.450541
-0.424197
-0.380391
-0.347981
-0.312872
-0.281814
-0.247286
-0.226971
-0.160678
-0.51193
-0.445114
-0.419503
-0.377367
-0.345663
-0.311265
-0.280952
-0.246443
-0.228146
-0.161297
-0.501227
-0.439704
-0.41481
-0.37431
-0.343265
-0.309541
-0.279894
-0.245565
-0.228622
-0.161979
-0.490652
-0.434354
-0.410159
-0.371251
-0.340822
-0.307737
-0.278674
-0.24466
-0.228571
-0.163039
-0.480294
-0.429109
-0.405588
-0.368221
-0.338365
-0.305887
-0.277326
-0.243746
-0.228103
-0.164537
-0.470241
-0.424013
-0.401138
-0.36525
-0.335924
-0.304022
-0.275887
-0.242837
-0.227295
-0.166382
-0.460578
-0.419108
-0.396845
-0.362364
-0.333527
-0.30217
-0.274393
-0.241946
-0.226226
-0.168495
-0.451384
-0.414437
-0.392746
-0.359591
-0.331202
-0.300356
-0.272879
-0.241084
-0.224974
-0.170812
-0.442741
-0.410038
-0.388878
-0.35696
-0.328978
-0.298608
-0.271379
-0.240261
-0.223614
-0.173266
-0.434723
-0.40595
-0.385276
-0.354495
-0.326879
-0.296947
-0.269923
-0.239486
-0.222212
-0.175781
-0.427404
-0.402208
-0.381974
-0.352224
-0.324933
-0.295399
-0.268544
-0.238768
-0.220828
-0.178278
-0.420839
-0.398852
-0.379004
-0.350171
-0.323165
-0.293985
-0.26727
-0.238115
-0.219515
-0.180677
-0.415077
-0.395923
-0.376395
-0.34836
-0.321598
-0.292727
-0.266125
-0.237536
-0.218317
-0.182898
-0.410196
-0.393431
-0.374176
-0.346814
-0.320255
-0.291645
-0.265134
-0.237038
-0.217269
-0.184871
-0.406238
-0.391404
-0.37237
-0.345552
-0.319155
-0.290756
-0.264316
-0.23663
-0.216401
-0.186531
-0.403236
-0.389865
-0.370997
-0.344589
-0.318314
-0.290076
-0.263688
-0.236316
-0.215732
-0.187825
-0.401217
-0.388829
-0.370072
-0.34394
-0.317746
-0.289615
-0.263262
-0.236105
-0.21528
-0.188711
-0.400203
-0.388309
-0.369608
-0.343614
-0.31746
-0.289383
-0.263047
-0.235998
-0.215051
-0.189161
-0.180961
-0.173117
-0.164946
-0.157107
-0.149388
-0.141813
-0.134435
-0.127272
-0.12034
-0.113653
-0.107221
-0.101053
-0.0951527
-0.0895229
-0.0841636
-0.0790722
-0.0742443
-0.0696735
-0.0653522
-0.061271
-0.0574199
-0.0537878
-0.0503632
-0.0471341
-0.0440885
-0.0412144
-0.0384999
-0.0359336
-0.0335041
-0.0312009
-0.029014
-0.0269335
-0.0249512
-0.0230572
-0.0212471
-0.0195069
-0.0178429
-0.0162243
-0.0146902
-0.0131523
-0.011753
-0.0102229
-0.00901738
-0.00732819
-0.00652313
-0.00424924
-0.00445356
-0.000472854
-0.00338435
0.00531306
-0.181546
-0.173534
-0.16522
-0.15734
-0.149587
-0.141984
-0.134586
-0.127408
-0.120463
-0.113766
-0.107326
-0.10115
-0.0952428
-0.089607
-0.0842422
-0.0791457
-0.074313
-0.0697378
-0.0654121
-0.0613269
-0.0574719
-0.0538361
-0.050408
-0.0471755
-0.0441268
-0.0412497
-0.0385324
-0.0359634
-0.0335315
-0.0312259
-0.0290368
-0.0269542
-0.02497
-0.0230743
-0.0212625
-0.0195209
-0.0178555
-0.0162357
-0.0147004
-0.0131616
-0.0117612
-0.0102306
-0.00902401
-0.00733497
-0.00652812
-0.00425648
-0.00445595
-0.000483869
-0.0033804
0.0052881
-0.182703
-0.174363
-0.165766
-0.157804
-0.149985
-0.142326
-0.134888
-0.127679
-0.120709
-0.113991
-0.107534
-0.101343
-0.0954226
-0.089775
-0.0843992
-0.0792925
-0.0744504
-0.0698662
-0.065532
-0.0614387
-0.0575759
-0.0539328
-0.0504976
-0.0472585
-0.0442034
-0.0413204
-0.0385974
-0.036023
-0.0335861
-0.0312759
-0.0290824
-0.0269957
-0.0250077
-0.0231084
-0.0212934
-0.0195488
-0.0178807
-0.0162584
-0.0147208
-0.01318
-0.0117778
-0.0102458
-0.00903724
-0.00734848
-0.00653806
-0.00427092
-0.0044607
-0.00050581
-0.00337253
0.00523841
-0.184405
-0.175591
-0.166579
-0.158496
-0.150579
-0.142836
-0.135338
-0.128083
-0.121076
-0.114327
-0.107844
-0.101631
-0.0956915
-0.0900261
-0.0846342
-0.0795125
-0.0746561
-0.0700586
-0.0657117
-0.0616063
-0.057732
-0.0540778
-0.0506321
-0.047383
-0.0443184
-0.0414264
-0.0386949
-0.0361126
-0.0336681
-0.0313508
-0.0291507
-0.0270579
-0.0250642
-0.0231596
-0.0213397
-0.0195906
-0.0179184
-0.0162923
-0.0147514
-0.0132076
-0.0118024
-0.0102686
-0.009057
-0.00736865
-0.00655288
-0.00429245
-0.00446779
-0.000538511
-0.0033608
0.00516445
-0.186604
-0.1772
-0.167652
-0.159409
-0.151363
-0.143511
-0.135933
-0.128617
-0.121561
-0.114772
-0.108256
-0.102013
-0.096048
-0.0903595
-0.0849463
-0.0798048
-0.0749299
-0.0703147
-0.0659511
-0.0618296
-0.05794
-0.0542711
-0.0508115
-0.0475491
-0.0444718
-0.0415678
-0.038825
-0.0362319
-0.0337774
-0.0314507
-0.0292418
-0.0271407
-0.0251394
-0.0232277
-0.0214013
-0.0196462
-0.0179685
-0.0163374
-0.014792
-0.0132442
-0.0118352
-0.0102989
-0.0090832
-0.00739538
-0.00657251
-0.00432093
-0.00447717
-0.00058172
-0.0033453
0.0050669
-0.18924
-0.17916
-0.16897
-0.160535
-0.152331
-0.144344
-0.136668
-0.129277
-0.122161
-0.115323
-0.108765
-0.102487
-0.0964903
-0.0907736
-0.0853344
-0.0801688
-0.0752711
-0.0706342
-0.0662498
-0.0621085
-0.0581998
-0.0545127
-0.0510357
-0.0477566
-0.0446636
-0.0417446
-0.0389876
-0.0363811
-0.033914
-0.0315755
-0.0293555
-0.0272442
-0.0252333
-0.0233128
-0.0214782
-0.0197155
-0.018031
-0.0163937
-0.0148425
-0.0132898
-0.0118759
-0.0103365
-0.0091157
-0.00742851
-0.00659682
-0.00435618
-0.00448875
-0.000635112
-0.00332614
0.00494665
-0.192231
-0.181428
-0.170515
-0.161858
-0.153472
-0.145326
-0.137536
-0.130056
-0.122869
-0.115974
-0.109368
-0.103049
-0.0970161
-0.0912666
-0.0857972
-0.0806033
-0.0756787
-0.0710162
-0.0666074
-0.0624425
-0.0585112
-0.0548024
-0.0513046
-0.0480057
-0.0448937
-0.0419567
-0.0391827
-0.0365601
-0.0340779
-0.0317251
-0.0294919
-0.0273682
-0.0253458
-0.0234146
-0.0215702
-0.0197985
-0.0181056
-0.0164608
-0.0149028
-0.0133441
-0.0119244
-0.0103812
-0.00915435
-0.00746787
-0.00662565
-0.00439798
-0.00450245
-0.000698287
-0.00330348
0.00480478
-0.195479
-0.183949
-0.17226
-0.163359
-0.154769
-0.146447
-0.138527
-0.130947
-0.123681
-0.116721
-0.110061
-0.103696
-0.0976226
-0.0918363
-0.0863328
-0.0811069
-0.0761519
-0.0714602
-0.0670232
-0.0628313
-0.0588739
-0.05514
-0.051618
-0.0482961
-0.0451621
-0.0422041
-0.0394102
-0.0367688
-0.0342689
-0.0318995
-0.0296508
-0.0275125
-0.0254767
-0.023533
-0.0216771
-0.0198948
-0.0181923
-0.0165387
-0.0149727
-0.0134071
-0.0119805
-0.0104329
-0.00919896
-0.00751325
-0.00665885
-0.00444604
-0.00451818
-0.000770784
-0.00327746
0.00464256
-0.198869
-0.186652
-0.174169
-0.165013
-0.156204
-0.14769
-0.139629
-0.131941
-0.124588
-0.117558
-0.11084
-0.104425
-0.0983065
-0.09248
-0.0869392
-0.081678
-0.0766893
-0.0719652
-0.0674968
-0.0632744
-0.0592876
-0.0555253
-0.0519759
-0.0486277
-0.0454686
-0.0424866
-0.03967
-0.0370072
-0.034487
-0.0320986
-0.029832
-0.0276772
-0.0256259
-0.0236679
-0.0217988
-0.0200044
-0.0182908
-0.0166271
-0.0150519
-0.0134784
-0.0120441
-0.0104914
-0.00924931
-0.00756443
-0.00669621
-0.0045001
-0.00453584
-0.000852083
-0.00324831
0.00446142
-0.20227
-0.18945
-0.176195
-0.166784
-0.15775
-0.149036
-0.140827
-0.133024
-0.12558
-0.118476
-0.111696
-0.105229
-0.0990638
-0.0931946
-0.087614
-0.0823148
-0.0772895
-0.0725299
-0.068027
-0.0637711
-0.0597516
-0.0559577
-0.0523778
-0.0490002
-0.0458129
-0.0428041
-0.039962
-0.037275
-0.034732
-0.0323221
-0.0300355
-0.0278619
-0.0257932
-0.023819
-0.0219351
-0.020127
-0.018401
-0.0167259
-0.0151404
-0.0135579
-0.0121148
-0.0105564
-0.0093052
-0.00762115
-0.00673755
-0.00455981
-0.00455531
-0.000941616
-0.00321622
0.00426289
-0.205541
-0.192239
-0.178281
-0.168631
-0.159374
-0.150462
-0.142103
-0.134184
-0.126646
-0.119467
-0.112625
-0.106103
-0.0998902
-0.0939767
-0.0883542
-0.0830149
-0.0779507
-0.073153
-0.0686129
-0.0643205
-0.0602654
-0.0564368
-0.0528234
-0.0494133
-0.046195
-0.0431564
-0.0402859
-0.037572
-0.0350036
-0.0325699
-0.0302609
-0.0280664
-0.0259784
-0.0239862
-0.0220858
-0.0202624
-0.0185225
-0.0168348
-0.0152378
-0.0136453
-0.0121924
-0.0106276
-0.00936637
-0.00768313
-0.00678264
-0.00462483
-0.00457648
-0.00103878
-0.00318146
0.00404866
-0.208535
-0.194904
-0.180356
-0.1705
-0.161036
-0.151936
-0.143434
-0.135402
-0.127774
-0.120522
-0.113618
-0.107042
-0.100781
-0.0948223
-0.0891569
-0.083776
-0.0786709
-0.073833
-0.0692531
-0.0649215
-0.0608281
-0.056962
-0.053312
-0.0498666
-0.0466142
-0.043543
-0.0406414
-0.037898
-0.0353017
-0.0328417
-0.0305081
-0.0282906
-0.0261812
-0.0241692
-0.0222505
-0.0204103
-0.0186551
-0.0169535
-0.0153438
-0.0137404
-0.0122767
-0.0107049
-0.00943258
-0.00775011
-0.00683126
-0.00469481
-0.00459925
-0.00114292
-0.00314428
0.00382046
-0.211105
-0.197318
-0.18234
-0.17233
-0.162689
-0.153427
-0.144797
-0.136661
-0.128949
-0.121628
-0.114666
-0.108039
-0.10173
-0.0957272
-0.0900187
-0.0845953
-0.079448
-0.074568
-0.0699463
-0.0655733
-0.0614389
-0.0575325
-0.0538432
-0.0503597
-0.0470704
-0.0439637
-0.0410283
-0.0382527
-0.0356259
-0.0331372
-0.0307767
-0.0285341
-0.0264013
-0.0243677
-0.0224291
-0.0205705
-0.0187986
-0.0170817
-0.0154582
-0.0138429
-0.0123674
-0.0107879
-0.00950358
-0.00782179
-0.0068832
-0.00476937
-0.0046235
-0.0012534
-0.00310497
0.00358012
-0.213115
-0.199352
-0.184144
-0.17405
-0.164281
-0.154894
-0.146162
-0.13794
-0.130157
-0.122775
-0.115761
-0.109086
-0.102733
-0.0966872
-0.0909361
-0.0854699
-0.0802797
-0.0753564
-0.0706911
-0.0662745
-0.0620968
-0.0581477
-0.0544164
-0.0508919
-0.047563
-0.0444182
-0.0414462
-0.0386358
-0.035976
-0.0334563
-0.0310665
-0.0287967
-0.0266385
-0.0245814
-0.0226211
-0.0207427
-0.0189526
-0.0172193
-0.0155808
-0.0139524
-0.0124643
-0.0108764
-0.00957908
-0.00789787
-0.00693821
-0.00484812
-0.00464913
-0.00136953
-0.00306383
0.00332946
-0.214452
-0.200882
-0.18567
-0.175578
-0.165745
-0.15629
-0.147493
-0.139211
-0.131375
-0.123947
-0.116889
-0.110173
-0.103781
-0.0976944
-0.0919025
-0.0863945
-0.0811613
-0.076194
-0.071484
-0.0670223
-0.0627993
-0.0588052
-0.0550296
-0.0514617
-0.0480906
-0.044905
-0.0418939
-0.0390462
-0.036351
-0.0337978
-0.0313768
-0.0290775
-0.0268921
-0.0248096
-0.0228261
-0.0209262
-0.0191167
-0.0173656
-0.015711
-0.0140687
-0.0125669
-0.01097
-0.00965877
-0.00797801
-0.00699604
-0.00493066
-0.00467604
-0.0014906
-0.00302121
0.00307037
-0.214976
-0.201743
-0.186786
-0.176805
-0.167003
-0.157556
-0.148745
-0.14044
-0.132577
-0.12512
-0.118032
-0.111285
-0.104859
-0.0987377
-0.0929081
-0.0873602
-0.082085
-0.077074
-0.0723188
-0.067811
-0.0635414
-0.0595007
-0.0556788
-0.0520654
-0.0486499
-0.0454214
-0.0423689
-0.0394817
-0.036749
-0.0341603
-0.0317058
-0.0293753
-0.0271609
-0.0250515
-0.0230431
-0.0211204
-0.0192901
-0.0175201
-0.0158483
-0.0141912
-0.0126748
-0.0110683
-0.00974234
-0.00806187
-0.00705648
-0.00501659
-0.00470418
-0.00161591
-0.00297755
0.00280468
-0.214433
-0.20177
-0.187414
-0.177694
-0.168043
-0.158697
-0.149932
-0.141643
-0.13378
-0.126312
-0.119206
-0.112436
-0.105982
-0.0998291
-0.0939639
-0.088377
-0.0830598
-0.0780044
-0.0732029
-0.0686473
-0.0643292
-0.0602396
-0.0563691
-0.0527077
-0.0492452
-0.0459711
-0.0428747
-0.0399453
-0.0371726
-0.034546
-0.0320559
-0.0296921
-0.0274466
-0.0253083
-0.0232735
-0.0213264
-0.0194738
-0.0176837
-0.0159935
-0.0143205
-0.0127885
-0.0111717
-0.00983004
-0.00814963
-0.00711964
-0.00510588
-0.00473361
-0.00174511
-0.00293301
0.00253392
-0.213097
-0.201217
-0.187702
-0.178331
-0.168942
-0.159787
-0.151127
-0.142893
-0.135056
-0.127594
-0.12048
-0.113692
-0.107212
-0.101027
-0.0951256
-0.0894975
-0.0841353
-0.0790318
-0.0741798
-0.0695719
-0.0652003
-0.0610568
-0.0571324
-0.0534178
-0.0499031
-0.0465782
-0.0434328
-0.0404565
-0.0376391
-0.0349703
-0.0324404
-0.0300393
-0.0277592
-0.0255888
-0.0235244
-0.0215501
-0.0196729
-0.0178604
-0.0161497
-0.0144592
-0.01291
-0.0112817
-0.00992286
-0.00824197
-0.00718578
-0.0051987
-0.00476403
-0.00187827
-0.00288685
0.00225921
-0.212477
-0.19999
-0.187073
-0.178045
-0.169078
-0.160291
-0.151884
-0.143821
-0.136099
-0.128711
-0.121641
-0.114876
-0.108403
-0.102211
-0.0962921
-0.0906379
-0.0852424
-0.0800993
-0.0752027
-0.0705464
-0.0661235
-0.0619266
-0.0579478
-0.0541783
-0.0506091
-0.0472306
-0.044033
-0.0410063
-0.0381407
-0.0354259
-0.0328528
-0.0304111
-0.0280932
-0.0258877
-0.0237911
-0.0217871
-0.0198829
-0.0180461
-0.0163132
-0.0146037
-0.0130358
-0.011395
-0.0100178
-0.00833603
-0.00725256
-0.00529251
-0.00479403
-0.00201302
-0.00283936
0.00198363
-0.206882
-0.194741
-0.183467
-0.175185
-0.167007
-0.158898
-0.151002
-0.143327
-0.135899
-0.128734
-0.121834
-0.115199
-0.108824
-0.102706
-0.0968401
-0.0912221
-0.0858486
-0.0807157
-0.0758195
-0.0711553
-0.0667178
-0.0625009
-0.0584979
-0.0547011
-0.0511024
-0.0476931
-0.044464
-0.0414058
-0.0385089
-0.0357638
-0.0331614
-0.0306917
-0.0283474
-0.0261171
-0.0239974
-0.0219721
-0.0200484
-0.0181937
-0.0164446
-0.0147211
-0.0131394
-0.0114898
-0.0100986
-0.00841793
-0.00731179
-0.00537783
-0.00482343
-0.00213859
-0.0028019
0.00171755
-0.179376
-0.191383
-0.183095
-0.17511
-0.16708
-0.158996
-0.151086
-0.143387
-0.135934
-0.128746
-0.121826
-0.115173
-0.108784
-0.102655
-0.0967802
-0.0911565
-0.0857796
-0.0806456
-0.0757502
-0.0710885
-0.0666549
-0.0624431
-0.058446
-0.0546559
-0.0510643
-0.0476623
-0.0444406
-0.0413895
-0.0384997
-0.0357611
-0.0331649
-0.0307009
-0.0283618
-0.0261361
-0.0240206
-0.0219988
-0.0200784
-0.0182262
-0.0164798
-0.0147583
-0.0131782
-0.0115315
-0.0101392
-0.00846551
-0.0073507
-0.0054368
-0.00485234
-0.00222486
-0.00279684
0.00152253
-0.168771
-0.186447
-0.179636
-0.172496
-0.16509
-0.157426
-0.149838
-0.142393
-0.135146
-0.128126
-0.121344
-0.114807
-0.108515
-0.102466
-0.0966585
-0.0910908
-0.0857604
-0.0806644
-0.0757997
-0.0711622
-0.0667474
-0.0625496
-0.0585623
-0.0547786
-0.0511904
-0.0477893
-0.0445665
-0.0415129
-0.0386191
-0.0358758
-0.033274
-0.0308041
-0.0284587
-0.0262266
-0.0241048
-0.0220768
-0.0201504
-0.0182926
-0.0165406
-0.0148147
-0.013229
-0.0115802
-0.0101808
-0.0085108
-0.00738213
-0.0054869
-0.00486744
-0.00229939
-0.00277392
0.0013652
-0.164699
-0.181158
-0.17525
-0.16897
-0.16228
-0.155154
-0.147993
-0.140897
-0.133937
-0.127154
-0.120572
-0.114202
-0.108051
-0.102121
-0.0964154
-0.090933
-0.0856738
-0.0806369
-0.0758203
-0.0712216
-0.0668371
-0.0626623
-0.0586918
-0.0549194
-0.0513379
-0.0479397
-0.0447167
-0.0416603
-0.0387618
-0.0360122
-0.0334031
-0.0309251
-0.0285712
-0.0263306
-0.0242001
-0.0221639
-0.0202293
-0.0183643
-0.0166046
-0.0148733
-0.0132801
-0.0116293
-0.0102203
-0.00855583
-0.00740918
-0.00553837
-0.00487503
-0.00238161
-0.00273664
0.00119334
-0.161808
-0.176116
-0.171084
-0.165481
-0.159427
-0.152816
-0.146075
-0.139327
-0.132656
-0.126116
-0.119739
-0.113542
-0.107538
-0.101733
-0.0961334
-0.0907406
-0.0855568
-0.0805827
-0.0758178
-0.0712608
-0.0669095
-0.0627603
-0.0588088
-0.0550497
-0.0514767
-0.0480829
-0.044861
-0.0418028
-0.0389005
-0.0361454
-0.0335297
-0.0310441
-0.0286822
-0.0264333
-0.0242945
-0.0222502
-0.0203076
-0.0184356
-0.0166684
-0.014932
-0.0133312
-0.0116788
-0.0102598
-0.0086017
-0.00743608
-0.00559163
-0.00488181
-0.00246759
-0.00269644
0.00101262
-0.159209
-0.171192
-0.167037
-0.161992
-0.156512
-0.150402
-0.144079
-0.137684
-0.131311
-0.125022
-0.118857
-0.11284
-0.10699
-0.101317
-0.0958282
-0.0905298
-0.0854253
-0.0805173
-0.075807
-0.0712943
-0.0669782
-0.0628564
-0.0589253
-0.0551807
-0.0516171
-0.0482285
-0.0450082
-0.0419488
-0.0390429
-0.0362825
-0.0336601
-0.0311671
-0.0287971
-0.0265399
-0.0243926
-0.0223401
-0.0203893
-0.0185101
-0.0167352
-0.0149935
-0.0133848
-0.0117307
-0.0103014
-0.00864999
-0.00746453
-0.00564753
-0.00488924
-0.00255728
-0.00265482
0.000823487
-0.15674
-0.166317
-0.162948
-0.158406
-0.15346
-0.147847
-0.14195
-0.135922
-0.12986
-0.123838
-0.117899
-0.112077
-0.106392
-0.10086
-0.0954916
-0.090295
-0.0852764
-0.08044
-0.0757888
-0.0713242
-0.0670465
-0.0629545
-0.0590458
-0.0553172
-0.0517641
-0.0483814
-0.0451631
-0.0421027
-0.0391934
-0.0364275
-0.0337983
-0.0312975
-0.0289189
-0.0266529
-0.0244967
-0.0224356
-0.0204761
-0.0185893
-0.0168061
-0.0150587