/*--------------------------------*- C++ -*----------------------------------*\
  =========                 |
  \\      /  F ield         | OpenFOAM: The Open Source CFD Toolbox
   \\    /   O peration     | Website:  https://openfoam.org
    \\  /    A nd           | Version:  7
     \\/     M anipulation  |
\*---------------------------------------------------------------------------*/
FoamFile
{
    version     2.0;
    format      ascii;
    class       surfaceScalarField;
    location    "20";
    object      phi;
}
// * * * * * * * * * * * * * * * * * * * * * * * * * * * * * * * * * * * * * //

dimensions      [0 3 -1 0 0 0 0];

internalField   nonuniform List<scalar> 
20715
(
-1.28642e-05
1.28642e-05
1.86772e-12
-9.14215e-06
-3.72206e-06
2.55199e-12
2.2919e-05
-3.20611e-05
4.74036e-12
9.46548e-05
-7.17359e-05
7.64979e-12
0.000212591
-0.000117936
1.06497e-11
0.000384052
-0.000171461
1.48575e-11
0.000615727
-0.000231675
2.17207e-11
0.000915807
-0.00030008
2.99165e-11
0.00128446
-0.000368652
4.23975e-11
-0.000449771
6.22174e-11
0.00173423
-1.22868e-05
2.5151e-05
-7.2425e-06
-8.76635e-06
2.68967e-05
-6.62003e-05
0.000101515
-0.000146354
0.000223246
-0.000239667
0.000399529
-0.000347744
0.000637194
-0.000469341
0.000944547
-0.000607432
0.00132204
-0.000746141
-0.000909696
0.00178196
-1.11389e-05
3.62899e-05
-3.46303e-06
-1.64422e-05
3.48104e-05
-0.000104474
0.000115156
-0.000226699
0.000244421
-0.000368932
0.000430263
-0.000533586
0.000679787
-0.000718864
0.00100151
-0.000929155
0.00139644
-0.00114108
-0.00138959
0.00187634
-9.43328e-06
4.57232e-05
2.15384e-06
-2.80294e-05
4.65708e-05
-0.000148891
0.000135415
-0.000315543
0.000275842
-0.000509359
0.000475819
-0.000733563
0.000742835
-0.000985881
0.00108569
-0.00127201
0.00150623
-0.00156162
-0.00189863
0.00201527
-7.18811e-06
5.29113e-05
9.55042e-06
-4.47679e-05
6.20462e-05
-0.000201386
0.000162051
-0.000415547
0.000317105
-0.000664413
0.00053555
-0.000952009
0.000825347
-0.00127568
0.00119558
-0.00164224
0.00164924
-0.00201528
-0.00244502
0.00219563
-4.42562e-06
5.73369e-05
1.86449e-05
-6.78384e-05
8.1065e-05
-0.000263807
0.00019475
-0.000529232
0.00036768
-0.000837343
0.000608614
-0.00119294
0.000926023
-0.00159309
0.00132924
-0.00204546
0.00182264
-0.00250867
-0.00303574
0.00241336
-1.14941e-06
5.84863e-05
2.93429e-05
-9.83307e-05
0.000103419
-0.000337883
0.00023313
-0.000658943
0.000426924
-0.00103114
0.000693979
-0.00146
0.00104328
-0.00194238
0.00148427
-0.00248646
0.00202294
-0.00304734
-0.00367627
0.00266346
2.53843e-06
5.59479e-05
4.15332e-05
-0.000137326
0.000128869
-0.000425219
0.000276747
-0.00080682
0.000494086
-0.00124848
0.000790445
-0.00175636
0.00117525
-0.00232719
0.0016579
-0.00296911
0.00224608
-0.00363552
-0.00437035
0.00294016
6.63961e-06
4.93083e-05
5.50946e-05
-0.000185781
0.000157145
-0.000527269
0.000325103
-0.000974778
0.000568322
-0.00149169
0.000896661
-0.0020847
0.00131988
-0.00275041
0.00184699
-0.00349622
0.00248751
-0.00427604
-0.00511982
0.00323698
1.11277e-05
3.81806e-05
6.98956e-05
-0.000244548
0.000187955
-0.000645329
0.000377654
-0.00116448
0.000648707
-0.00176275
0.00101114
-0.00244713
0.00147485
-0.00321412
0.00204814
-0.00406951
0.00274225
-0.00497015
-0.00592449
0.00354691
1.59543e-05
2.22263e-05
8.57962e-05
-0.00031439
0.000220987
-0.00078052
0.000433814
-0.0013773
0.000734241
-0.00206318
0.00113229
-0.00284518
0.00163773
-0.00371956
0.00225773
-0.0046895
0.003005
-0.00571742
-0.00678205
0.00386256
2.10766e-05
1.14969e-06
0.000102651
-0.000395965
0.000255912
-0.000933781
0.000492966
-0.00161436
0.000823871
-0.00239408
0.00125841
-0.00327972
0.00180592
-0.00426707
0.00247196
-0.00535554
0.00327031
-0.00651577
-0.00768816
0.00417642
2.64524e-05
-2.53028e-05
0.000120311
-0.000489823
0.000292391
-0.00110586
0.000554467
-0.00187643
0.000916493
-0.00275611
0.00138775
-0.00375098
0.00197674
-0.00485606
0.00268699
-0.00606579
0.00353268
-0.00736146
-0.00863651
0.00448103
3.20401e-05
-5.73429e-05
0.000138623
-0.000596406
0.000330074
-0.00129731
0.000617651
-0.00216401
0.00101097
-0.00314942
0.00151849
-0.0042585
0.00214746
-0.00548503
0.00289896
-0.00681729
0.00378672
-0.00824922
-0.00961906
0.00476927
3.77986e-05
-9.51414e-05
0.000157437
-0.000716044
0.000368606
-0.00150848
0.000681841
-0.00247724
0.00110613
-0.00357371
0.00164879
-0.00480116
0.00231533
-0.00615157
0.00310411
-0.00760607
0.00402728
-0.00917239
-0.0106264
0.0050346
4.36876e-05
-0.000138829
0.000176597
-0.000848953
0.000407627
-0.00173951
0.000746345
-0.00281596
0.0012008
-0.00402817
0.00177679
-0.00537714
0.00247763
-0.00685241
0.00329883
-0.00842727
0.00424961
-0.0101232
-0.0116482
0.00527143
4.9668e-05
-0.000188497
0.000195952
-0.000995238
0.000446776
-0.00199034
0.000810468
-0.00317965
0.0012938
-0.0045115
0.00190065
-0.005984
0.00263172
-0.00758347
0.00347974
-0.00927529
0.00444937
-0.0110928
-0.0126743
0.00547546
5.57012e-05
-0.000244198
0.000215349
-0.00115489
0.000485689
-0.00226068
0.000873513
-0.00356748
0.00138394
-0.00502192
0.00201857
-0.00661864
0.00277509
-0.00833999
0.00364383
-0.010144
0.00462271
-0.0120717
-0.0136954
0.00564385
6.17493e-05
-0.000305948
0.000234636
-0.00132777
0.000524001
-0.00255004
0.000934782
-0.00397826
0.00147006
-0.0055572
0.00212879
-0.00727737
0.00290539
-0.00911659
0.00378855
-0.0110272
0.00476669
-0.0130498
-0.0147068
0.00577807
6.77745e-05
-0.000373722
0.00025366
-0.00151366
0.00056135
-0.00285773
0.000993587
-0.0044105
0.00155102
-0.00611463
0.00222962
-0.00795598
0.00302041
-0.00990737
0.00391132
-0.0119181
0.00488227
-0.0140208
-0.0157105
0.00588591
7.34241e-05
-0.000447146
0.000271675
-0.00171191
0.000596615
-0.00318267
0.00104846
-0.00486234
0.00162506
-0.00669124
0.00231908
-0.00864999
0.003118
-0.0107063
0.00400871
-0.0128088
0.00497259
-0.0149846
-0.0169016
0.00616377
7.92466e-05
-0.000526393
0.000289643
-0.0019223
0.000630867
-0.0035239
0.00110023
-0.0053317
0.00169243
-0.00728344
0.00239649
-0.00935406
0.00319629
-0.0115061
0.00407686
-0.0136894
0.00501335
-0.0159211
-0.0179944
0.00610611
8.49297e-05
-0.000611323
0.000306882
-0.00214426
0.000663068
-0.00388008
0.00114755
-0.00581619
0.00175155
-0.00788743
0.00246029
-0.0100628
0.00325402
-0.0122998
0.00411507
-0.0145504
0.00501308
-0.0168192
-0.0189919
0.00601062
9.04342e-05
-0.000701757
0.000323241
-0.00237706
0.000692874
-0.00424972
0.00118983
-0.00631314
0.00180158
-0.00849919
0.00250949
-0.0107707
0.00329043
-0.0130808
0.004124
-0.015384
0.00497858
-0.0176737
-0.0199022
0.00588886
9.572e-05
-0.000797477
0.000338567
-0.00261991
0.000719951
-0.0046311
0.0012265
-0.00681969
0.0018418
-0.00911448
0.00254337
-0.0114723
0.00330517
-0.0138426
0.0041046
-0.0161834
0.00491131
-0.0184804
-0.0207323
0.00574138
0.000100746
-0.000898223
0.000352709
-0.00287187
0.000743975
-0.00502236
0.00125707
-0.00733278
0.00187158
-0.009729
0.00256142
-0.0121621
0.00329822
-0.0145794
0.00405794
-0.0169432
0.00481308
-0.0192356
-0.0214876
0.0055684
0.000105471
-0.00100369
0.000365518
-0.00313192
0.000764641
-0.00542149
0.00128107
-0.00784922
0.00189045
-0.0103384
0.00256338
-0.012835
0.00326984
-0.0152858
0.0039853
-0.0176586
0.00468603
-0.0199363
-0.0221723
0.00537071
0.000109851
-0.00111355
0.000376846
-0.00339891
0.000781665
-0.00582631
0.00129813
-0.00836569
0.00189805
-0.0109383
0.00254919
-0.0134862
0.00322061
-0.0159572
0.00388822
-0.0183262
0.0045325
-0.0205806
-0.0227896
0.00514975
0.000113844
-0.00122739
0.000386551
-0.00367162
0.000794786
-0.00623454
0.00130793
-0.00887883
0.00189417
-0.0115245
0.00251901
-0.014111
0.00315134
-0.0165896
0.00376835
-0.0189432
0.00435494
-0.0211672
-0.023342
0.00490743
0.000117404
-0.00134479
0.000394499
-0.00394872
0.000803774
-0.00664382
0.00131021
-0.00938527
0.00187874
-0.0120931
0.0024732
-0.0147055
0.00306306
-0.0171794
0.00362752
-0.0195077
0.00415589
-0.0216955
-0.0238321
0.00464594
0.000120488
-0.00146528
0.000400562
-0.00422879
0.000808431
-0.00705169
0.00130482
-0.00988166
0.00185182
-0.0126401
0.00241227
-0.0152659
0.00295694
-0.0177241
0.00346761
-0.0200184
0.00393782
-0.0221658
-0.0242619
0.00436759
0.000123053
-0.00158833
0.000404622
-0.00451036
0.000808596
-0.00745566
0.00129167
-0.0103647
0.0018136
-0.013162
0.00233692
-0.0157892
0.0028343
-0.0182215
0.00329056
-0.0204746
0.00370317
-0.0225784
-0.0246334
0.00407468
0.000125057
-0.00171339
0.000406576
-0.00479188
0.000804148
-0.00785323
0.00127076
-0.0108314
0.00176437
-0.0136556
0.00224794
-0.0162728
0.00269654
-0.0186701
0.00309828
-0.0208764
0.00345426
-0.0229343
-0.0249485
0.00376943
0.000126461
-0.00183985
0.000406334
-0.00507175
0.000795006
-0.0082419
0.00124216
-0.0112785
0.00170457
-0.014118
0.00214625
-0.0167145
0.0025451
-0.0190689
0.00289267
-0.0212239
0.00319324
-0.0232349
-0.0252092
0.00345393
0.000127227
-0.00196708
0.000403822
-0.00534835
0.000781136
-0.00861922
0.00120601
-0.0117034
0.00163469
-0.0145467
0.0020328
-0.0171126
0.00238143
-0.0194176
0.00267553
-0.021518
0.00292215
-0.0234815
-0.0254172
0.00313012
0.000127322
-0.0020944
0.000398984
-0.00562001
0.000762545
-0.00898278
0.00116255
-0.0121034
0.00155531
-0.0149394
0.00190865
-0.0174659
0.002207
-0.0197159
0.0024486
-0.0217596
0.00264281
-0.0236757
-0.0255741
0.00279975
0.000126716
-0.00222112
0.000391783
-0.00588508
0.000739284
-0.00933028
0.00111205
-0.0124762
0.00146709
-0.0152945
0.00177484
-0.0177737
0.0020232
-0.0199643
0.00221348
-0.0219499
0.00235692
-0.0238192
-0.0256817
0.00246444
0.000125384
-0.0023465
0.000382202
-0.0061419
0.000711446
-0.00965952
0.00105486
-0.0128196
0.00137072
-0.0156103
0.00163245
-0.0180354
0.00183139
-0.0201632
0.00197169
-0.0220902
0.00206599
-0.0239135
-0.0257413
0.00212561
0.000123305
-0.00246981
0.000370245
-0.00638884
0.000679164
-0.00996844
0.000991368
-0.0131318
0.00126694
-0.0158859
0.00148253
-0.018251
0.00163289
-0.0203136
0.00172462
-0.022182
0.0017714
-0.0239603
-0.0257545
0.00178457
0.000120467
-0.00259027
0.000355934
-0.0066243
0.000642609
-0.0102551
0.000922003
-0.0134112
0.00115648
-0.0161204
0.00132612
-0.0184206
0.0014289
-0.0204163
0.00147354
-0.0222266
0.00147438
-0.0239611
-0.0257226
0.00144247
0.000115862
-0.00270614
0.000337837
-0.00684628
0.000600432
-0.0105177
0.000845904
-0.0136566
0.00103923
-0.0163137
0.00116393
-0.0185453
0.00122093
-0.0204733
0.00122072
-0.0222264
0.00117792
-0.0239183
-0.0256477
0.00110306
0.000111437
-0.00281757
0.000318907
-0.00705375
0.000555919
-0.0107547
0.000766182
-0.0138669
0.000917708
-0.0164652
0.00099753
-0.0186252
0.00100934
-0.0204852
0.000965023
-0.0221821
0.000879254
-0.0238325
-0.0255303
0.000761832
0.000106236
-0.00292381
0.000297797
-0.00724531
0.00050782
-0.0109647
0.000682043
-0.0140411
0.000791783
-0.016575
0.000827541
-0.0186609
0.000795466
-0.0204531
0.000708515
-0.0220951
0.000581152
-0.0237052
-0.0253715
0.00042235
0.000100273
-0.00302408
0.000274611
-0.00741965
0.000456421
-0.0111466
0.000594008
-0.0141787
0.000662196
-0.0166432
0.000654837
-0.0186536
0.00058023
-0.0203785
0.000452078
-0.021967
0.00028442
-0.0235375
-0.0251724
8.53574e-05
9.35684e-05
-0.00311765
0.000249468
-0.00757554
0.000402024
-0.0112991
0.0005026
-0.0142793
0.000529659
-0.0166702
0.000480239
-0.0186041
0.000364471
-0.0202627
0.00019651
-0.021799
-9.88219e-06
-0.0233311
-0.0249339
-0.0002484
8.61478e-05
-0.0032038
0.000222499
-0.0077119
0.000344944
-0.0114216
0.00040834
-0.0143427
0.000394855
-0.0166567
0.000304518
-0.0185138
0.000148964
-0.0201072
-5.752e-05
-0.0215925
-0.000302032
-0.0230866
-0.0246575
-0.000578376
7.80441e-05
-0.00328184
0.000193849
-0.0078277
0.000285505
-0.0115132
0.00031174
-0.0143689
0.00025844
-0.0166034
0.000128391
-0.0183838
-6.55762e-05
-0.0199132
-0.00030921
-0.0213489
-0.000590499
-0.0228053
-0.0243441
-0.000903983
6.92955e-05
-0.00335114
0.000163674
-0.00792208
0.000224035
-0.0115736
0.000213302
-0.0143582
0.000121034
-0.0165112
-4.74762e-05
-0.0182152
-0.000278495
-0.0196822
-0.000558068
-0.0210693
-0.000875037
-0.0224883
-0.0239944
-0.00122471
5.99456e-05
-0.00341108
0.000132135
-0.00799427
0.000160866
-0.0116023
0.000113513
-0.0143108
-1.67763e-05
-0.0163809
-0.000222458
-0.0180096
-0.000489193
-0.0194154
-0.0008035
-0.020755
-0.00115513
-0.0221367
-0.0236094
-0.00154008
5.00429e-05
-0.00346113
9.94024e-05
-0.00804363
9.63277e-05
-0.0115992
1.28421e-05
-0.0142274
-0.000154439
-0.0162136
-0.000395989
-0.017768
-0.000697116
-0.0191143
-0.00104498
-0.0204071
-0.00143031
-0.0217514
-0.0231901
-0.00184967
3.96399e-05
-0.00350077
6.56517e-05
-0.00806964
3.07491e-05
-0.0115643
-8.82601e-05
-0.0141083
-0.000291437
-0.0160104
-0.000567538
-0.0174919
-0.000901753
-0.0187801
-0.00128203
-0.0200269
-0.00170011
-0.0213333
-0.0227371
-0.00215308
2.87932e-05
-0.00352956
3.10617e-05
-0.00807191
-3.55605e-05
-0.0114977
-0.000189364
-0.0139545
-0.000427287
-0.0157725
-0.000736616
-0.0171826
-0.00110263
-0.0184141
-0.00151419
-0.0196153
-0.00196411
-0.0208834
-0.0222513
-0.00244993
1.75632e-05
-0.00354712
-4.14894e-06
-0.0080502
-0.000102279
-0.0113996
-0.000290062
-0.0137668
-0.00056154
-0.015501
-0.000902777
-0.0168413
-0.00129932
-0.0180175
-0.00174101
-0.0191736
-0.00222187
-0.0204025
-0.0217333
-0.00273987
6.00128e-06
-0.00355312
-3.99119e-05
-0.00800428
-0.000169105
-0.0112704
-0.000389968
-0.0135459
-0.000693781
-0.0151972
-0.00106561
-0.0164695
-0.00149141
-0.0175917
-0.0019621
-0.0187029
-0.00247299
-0.0198916
-0.0211838
-0.00302255
-5.83223e-06
-0.00354729
-7.59453e-05
-0.00793417
-0.000235746
-0.0111106
-0.000488721
-0.0132929
-0.000823625
-0.0148623
-0.00122474
-0.0160684
-0.00167854
-0.0171379
-0.00217704
-0.0182044
-0.00271703
-0.0193516
-0.0206032
-0.00329763
-1.78345e-05
-0.00352946
-0.000112103
-0.0078399
-0.000301925
-0.0109208
-0.000585981
-0.0130089
-0.000950719
-0.0144976
-0.00137982
-0.0156393
-0.00186037
-0.0166574
-0.00238548
-0.0176793
-0.00295357
-0.0187836
-0.019992
-0.00356476
-2.9976e-05
-0.00349948
-0.000148213
-0.00772167
-0.000367375
-0.0107016
-0.00068143
-0.0126948
-0.00107474
-0.0141043
-0.00153054
-0.0151835
-0.00203659
-0.0161513
-0.00258706
-0.0171288
-0.00318215
-0.0181885
-0.0193506
-0.00382355
-4.21846e-05
-0.0034573
-0.000184108
-0.00757974
-0.000431841
-0.0104539
-0.000774774
-0.0123519
-0.00119539
-0.0136837
-0.00167663
-0.0147023
-0.00220694
-0.015621
-0.00278146
-0.0165543
-0.00340234
-0.0175676
-0.0186793
-0.00407363
-5.43953e-05
-0.0034029
-0.000219624
-0.00741451
-0.000495084
-0.0101784
-0.000865738
-0.0119812
-0.00131239
-0.013237
-0.00181784
-0.0141968
-0.00237117
-0.0150677
-0.00296839
-0.0159571
-0.00361359
-0.0169224
-0.0179787
-0.00431412
-6.65411e-05
-0.00333636
-0.000254605
-0.00722645
-0.000556877
-0.00987614
-0.000954069
-0.011584
-0.0014255
-0.0127656
-0.00195395
-0.0136684
-0.00252911
-0.0144925
-0.0031476
-0.0153386
-0.00381422
-0.0162558
-0.0172489
-0.0045441
-8.01945e-05
-0.00325617
-0.000291081
-0.00701556
-0.000619119
-0.0095481
-0.00104125
-0.0111619
-0.00153569
-0.0122711
-0.00208535
-0.0131187
-0.00268062
-0.0138973
-0.00331846
-0.0147008
-0.00399892
-0.0155753
-0.0165288
-0.00471899
-9.20025e-05
-0.00316416
-0.000324499
-0.00678307
-0.000677322
-0.00919528
-0.00112356
-0.0107157
-0.00164032
-0.0117544
-0.00221065
-0.0125484
-0.00282566
-0.0132823
-0.00348281
-0.0140436
-0.00418288
-0.0148752
-0.0157877
-0.00492394
-0.000103582
-0.00306058
-0.000356967
-0.00652968
-0.000733479
-0.00881876
-0.00120259
-0.0102465
-0.00174042
-0.0112165
-0.0023303
-0.0119585
-0.00296405
-0.0126485
-0.0036397
-0.013368
-0.00435873
-0.0141562
-0.0150253
-0.00512111
-0.000114869
-0.00294571
-0.000388351
-0.0062562
-0.000787415
-0.0084197
-0.00127814
-0.00975582
-0.00183584
-0.0106588
-0.00244415
-0.0113502
-0.00309561
-0.011997
-0.00378883
-0.0126748
-0.00452568
-0.0134193
-0.0142432
-0.00530779
-0.000125806
-0.00281991
-0.000418524
-0.00596348
-0.000838967
-0.00799926
-0.00135004
-0.00924475
-0.0019264
-0.0100825
-0.00255203
-0.0107246
-0.00322018
-0.0113289
-0.00393001
-0.011965
-0.00468371
-0.0126656
-0.013443
-0.00548391
-0.00013634
-0.00268357
-0.000447372
-0.00565245
-0.000887985
-0.00755864
-0.00141815
-0.00871458
-0.00201197
-0.00948865
-0.0026538
-0.0100827
-0.00333763
-0.0106451
-0.00406309
-0.0112395
-0.00483273
-0.011896
-0.0126259
-0.00564984
-0.000146418
-0.00253715
-0.000474783
-0.00532409
-0.000934331
-0.00709909
-0.00148232
-0.00816659
-0.0020924
-0.00887857
-0.00274936
-0.00942578
-0.00344783
-0.00994659
-0.00418796
-0.0104994
-0.00497259
-0.0111114
-0.011793
-0.00580557
-0.000155989
-0.00238116
-0.000500656
-0.00497942
-0.000977876
-0.00662187
-0.00154242
-0.00760205
-0.00216758
-0.00825341
-0.00283857
-0.00875478
-0.00355068
-0.00923448
-0.0043045
-0.00974555
-0.00510319
-0.0103127
-0.0109451
-0.005951
-0.000165009
-0.00221615
-0.000524897
-0.00461953
-0.0010185
-0.00612827
-0.00159833
-0.00702223
-0.00223739
-0.00761434
-0.00292134
-0.00807084
-0.00364607
-0.00850975
-0.0044126
-0.00897902
-0.0052244
-0.00950086
-0.0100835
-0.00608605
-0.000173432
-0.00204272
-0.00054742
-0.00424554
-0.00105611
-0.00561958
-0.00164994
-0.0064284
-0.00230173
-0.00696255
-0.00299756
-0.007375
-0.0037339
-0.00777341
-0.00451216
-0.00820075
-0.00533611
-0.00867691
-0.00920902
-0.00621059
-0.00018122
-0.0018615
-0.000568147
-0.00385862
-0.0010906
-0.00509713
-0.00169716
-0.00582184
-0.00236052
-0.00629919
-0.00306715
-0.00666837
-0.00381407
-0.00702649
-0.00460306
-0.00741176
-0.00543817
-0.00784181
-0.00832274
-0.00632445
-0.000188337
-0.00167316
-0.000587005
-0.00345995
-0.00112188
-0.00456225
-0.0017399
-0.00520382
-0.00241366
-0.00562543
-0.00313003
-0.005952
-0.0038865
-0.00627002
-0.00468521
-0.00661305
-0.00553046
-0.00699656
-0.00742571
-0.00642749
-0.000194749
-0.00147841
-0.000603931
-0.00305077
-0.00114988
-0.00401631
-0.00177808
-0.00457561
-0.00246108
-0.00494243
-0.00318611
-0.00522697
-0.00395111
-0.00550502
-0.00475851
-0.00580564
-0.00561286
-0.00614222
-0.00651903
-0.00651954
-0.000200427
-0.00127799
-0.00061887
-0.00263232
-0.00117453
-0.00346065
-0.00181165
-0.0039385
-0.00250272
-0.00425136
-0.00323533
-0.00449435
-0.00400781
-0.00473254
-0.00482286
-0.00499059
-0.00568523
-0.00527985
-0.00560382
-0.00660044
-0.000205347
-0.00107264
-0.000631771
-0.0022059
-0.00119577
-0.00289665
-0.00184053
-0.00329374
-0.00253852
-0.00355336
-0.00327764
-0.00375524
-0.00405655
-0.00395364
-0.00487819
-0.00416895
-0.00574748
-0.00441055
-0.00468124
-0.00667006
-0.000209486
-0.000863153
-0.000642593
-0.00177279
-0.00121355
-0.00232569
-0.00186467
-0.00264262
-0.00256844
-0.0028496
-0.00331298
-0.0030107
-0.00409725
-0.00316936
-0.0049244
-0.0033418
-0.0057995
-0.00353545
-0.00375247
-0.00672827
-0.000212825
-0.000650328
-0.000651302
-0.00133432
-0.00122784
-0.00174915
-0.00188405
-0.00198641
-0.00259242
-0.00214123
-0.0033413
-0.00226182
-0.00412988
-0.00238079
-0.00496145
-0.00251023
-0.00584122
-0.00265568
-0.00281872
-0.00677497
-0.000215351
-0.000434976
-0.000657868
-0.000891798
-0.00123859
-0.00116843
-0.00189862
-0.00132639
-0.00261044
-0.0014294
-0.00336258
-0.00150968
-0.00415438
-0.00158898
-0.00498928
-0.00167533
-0.00587256
-0.00177241
-0.00188123
-0.00681005
-0.000217053
-0.000217923
-0.000662273
-0.000446578
-0.00124579
-0.00058491
-0.00190835
-0.000663827
-0.00262248
-0.00071527
-0.00337678
-0.000755379
-0.00417074
-0.000795026
-0.00500785
-0.000838216
-0.00589347
-0.000886786
-0.000941238
-0.00683346
-0.000217923
6.03401e-12
-0.000664501
1.14795e-11
-0.00124941
1.34784e-11
-0.00191324
1.3021e-11
-0.00262851
1.0713e-11
-0.00338389
6.88321e-12
-0.00417891
2.70283e-12
-0.00501713
-1.04285e-12
-0.00590392
-3.79237e-12
-5.17195e-12
-0.00684515
-0.000217923
0.000217923
-0.000664501
0.000446578
-0.00124941
0.00058491
-0.00191324
0.000663827
-0.00262851
0.00071527
-0.00338389
0.000755379
-0.00417891
0.000795026
-0.00501713
0.000838216
-0.00590392
0.000886786
0.000941238
-0.00684515
-0.000217053
0.000434977
-0.000662273
0.000891798
-0.00124579
0.00116843
-0.00190835
0.00132639
-0.00262248
0.0014294
-0.00337678
0.00150968
-0.00417074
0.00158898
-0.00500785
0.00167533
-0.00589347
0.00177241
0.00188123
-0.00683346
-0.000215351
0.000650328
-0.000657868
0.00133432
-0.00123859
0.00174915
-0.00189862
0.00198641
-0.00261044
0.00214123
-0.00336258
0.00226182
-0.00415438
0.00238079
-0.00498928
0.00251023
-0.00587256
0.00265568
0.00281872
-0.00681005
-0.000212825
0.000863153
-0.000651302
0.00177279
-0.00122784
0.00232569
-0.00188405
0.00264262
-0.00259242
0.0028496
-0.0033413
0.0030107
-0.00412988
0.00316936
-0.00496145
0.0033418
-0.00584122
0.00353545
0.00375247
-0.00677497
-0.000209486
0.00107264
-0.000642593
0.0022059
-0.00121355
0.00289665
-0.00186467
0.00329374
-0.00256844
0.00355336
-0.00331298
0.00375524
-0.00409725
0.00395364
-0.0049244
0.00416895
-0.0057995
0.00441055
0.00468124
-0.00672827
-0.000205347
0.00127799
-0.000631771
0.00263232
-0.00119577
0.00346065
-0.00184053
0.0039385
-0.00253852
0.00425136
-0.00327764
0.00449435
-0.00405655
0.00473254
-0.00487819
0.00499059
-0.00574748
0.00527985
0.00560382
-0.00667006
-0.000200427
0.00147841
-0.00061887
0.00305077
-0.00117453
0.00401631
-0.00181165
0.00457561
-0.00250272
0.00494243
-0.00323533
0.00522697
-0.00400781
0.00550502
-0.00482286
0.00580564
-0.00568523
0.00614222
0.00651903
-0.00660044
-0.000194749
0.00167316
-0.000603931
0.00345995
-0.00114988
0.00456225
-0.00177808
0.00520382
-0.00246108
0.00562543
-0.00318611
0.005952
-0.00395111
0.00627002
-0.00475851
0.00661305
-0.00561286
0.00699656
0.00742571
-0.00651954
-0.000188337
0.0018615
-0.000587005
0.00385862
-0.00112188
0.00509713
-0.0017399
0.00582184
-0.00241366
0.00629919
-0.00313003
0.00666837
-0.0038865
0.00702649
-0.00468521
0.00741176
-0.00553046
0.00784181
0.00832274
-0.00642749
-0.00018122
0.00204272
-0.000568147
0.00424554
-0.0010906
0.00561958
-0.00169716
0.0064284
-0.00236052
0.00696255
-0.00306715
0.007375
-0.00381407
0.00777341
-0.00460306
0.00820075
-0.00543817
0.00867691
0.00920902
-0.00632445
-0.000173432
0.00221615
-0.00054742
0.00461953
-0.00105611
0.00612827
-0.00164994
0.00702223
-0.00230173
0.00761434
-0.00299756
0.00807084
-0.0037339
0.00850975
-0.00451216
0.00897902
-0.00533611
0.00950086
0.0100835
-0.00621059
-0.000165009
0.00238116
-0.000524897
0.00497942
-0.0010185
0.00662187
-0.00159833
0.00760205
-0.00223739
0.00825341
-0.00292134
0.00875478
-0.00364607
0.00923448
-0.0044126
0.00974555
-0.0052244
0.0103127
0.0109451
-0.00608605
-0.000155989
0.00253715
-0.000500656
0.00532409
-0.000977876
0.00709909
-0.00154242
0.00816659
-0.00216758
0.00887857
-0.00283857
0.00942578
-0.00355068
0.00994659
-0.0043045
0.0104994
-0.00510319
0.0111114
0.011793
-0.005951
-0.000146418
0.00268357
-0.000474783
0.00565245
-0.000934331
0.00755864
-0.00148232
0.00871458
-0.0020924
0.00948865
-0.00274936
0.0100827
-0.00344783
0.0106451
-0.00418796
0.0112395
-0.00497259
0.011896
0.0126259
-0.00580557
-0.00013634
0.00281991
-0.000447372
0.00596348
-0.000887985
0.00799926
-0.00141815
0.00924475
-0.00201197
0.0100825
-0.0026538
0.0107246
-0.00333763
0.0113289
-0.00406309
0.011965
-0.00483273
0.0126656
0.013443
-0.00564984
-0.000125806
0.00294571
-0.000418524
0.0062562
-0.000838967
0.0084197
-0.00135004
0.00975582
-0.0019264
0.0106588
-0.00255203
0.0113502
-0.00322018
0.011997
-0.00393001
0.0126748
-0.00468371
0.0134193
0.0142432
-0.00548391
-0.000114869
0.00306058
-0.000388351
0.00652968
-0.000787415
0.00881876
-0.00127814
0.0102465
-0.00183584
0.0112165
-0.00244415
0.0119585
-0.00309561
0.0126485
-0.00378883
0.013368
-0.00452568
0.0141562
0.0150253
-0.00530779
-0.000103582
0.00316416
-0.000356967
0.00678307
-0.000733479
0.00919528
-0.00120259
0.0107157
-0.00174042
0.0117544
-0.0023303
0.0125484
-0.00296405
0.0132823
-0.0036397
0.0140436
-0.00435873
0.0148752
0.0157877
-0.00512111
-9.20025e-05
0.00325617
-0.000324499
0.00701556
-0.000677322
0.0095481
-0.00112356
0.0111619
-0.00164032
0.0122711
-0.00221065
0.0131187
-0.00282566
0.0138973
-0.00348281
0.0147008
-0.00418288
0.0155753
0.0165288
-0.00492394
-8.01945e-05
0.00333636
-0.000291081
0.00722645
-0.000619119
0.00987614
-0.00104125
0.011584
-0.00153569
0.0127656
-0.00208535
0.0136684
-0.00268062
0.0144925
-0.00331846
0.0153386
-0.00399892
0.0162558
0.0172489
-0.00471899
-6.65411e-05
0.0034029
-0.000254605
0.00741451
-0.000556877
0.0101784
-0.000954068
0.0119812
-0.0014255
0.013237
-0.00195395
0.0141968
-0.00252911
0.0150677
-0.0031476
0.0159571
-0.00381422
0.0169224
0.0179787
-0.0045441
-5.43953e-05
0.0034573
-0.000219624
0.00757974
-0.000495084
0.0104539
-0.000865738
0.0123519
-0.00131239
0.0136837
-0.00181784
0.0147023
-0.00237117
0.015621
-0.00296839
0.0165543
-0.00361359
0.0175676
0.0186793
-0.00431412
-4.21846e-05
0.00349948
-0.000184108
0.00772167
-0.000431841
0.0107016
-0.000774774
0.0126948
-0.00119539
0.0141043
-0.00167663
0.0151835
-0.00220694
0.0161513
-0.00278146
0.0171288
-0.00340234
0.0181885
0.0193506
-0.00407363
-2.9976e-05
0.00352946
-0.000148213
0.0078399
-0.000367375
0.0109208
-0.00068143
0.0130089
-0.00107474
0.0144976
-0.00153054
0.0156393
-0.00203659
0.0166574
-0.00258706
0.0176793
-0.00318215
0.0187836
0.019992
-0.00382355
-1.78345e-05
0.00354729
-0.000112103
0.00793417
-0.000301925
0.0111106
-0.000585981
0.0132929
-0.000950719
0.0148623
-0.00137982
0.0160684
-0.00186037
0.0171379
-0.00238548
0.0182044
-0.00295357
0.0193516
0.0206032
-0.00356476
-5.83223e-06
0.00355312
-7.59453e-05
0.00800428
-0.000235746
0.0112704
-0.000488721
0.0135459
-0.000823625
0.0151972
-0.00122474
0.0164695
-0.00167854
0.0175917
-0.00217704
0.0187029
-0.00271703
0.0198916
0.0211838
-0.00329763
6.00128e-06
0.00354712
-3.99119e-05
0.0080502
-0.000169105
0.0113996
-0.000389968
0.0137668
-0.000693781
0.015501
-0.00106561
0.0168413
-0.00149141
0.0180175
-0.0019621
0.0191736
-0.00247299
0.0204025
0.0217333
-0.00302255
1.75632e-05
0.00352956
-4.14894e-06
0.00807191
-0.000102279
0.0114977
-0.000290062
0.0139545
-0.00056154
0.0157725
-0.000902777
0.0171826
-0.00129932
0.0184141
-0.00174101
0.0196153
-0.00222187
0.0208834
0.0222513
-0.00273987
2.87932e-05
0.00350077
3.10617e-05
0.00806964
-3.55605e-05
0.0115643
-0.000189364
0.0141083
-0.000427287
0.0160104
-0.000736616
0.0174919
-0.00110263
0.0187801
-0.00151419
0.0200269
-0.00196411
0.0213333
0.0227371
-0.00244993
3.96399e-05
0.00346113
6.56517e-05
0.00804363
3.07492e-05
0.0115992
-8.82601e-05
0.0142274
-0.000291437
0.0162136
-0.000567538
0.017768
-0.000901753
0.0191143
-0.00128203
0.0204071
-0.00170011
0.0217514
0.0231901
-0.00215308
5.00429e-05
0.00341108
9.94024e-05
0.00799427
9.63277e-05
0.0116023
1.28421e-05
0.0143108
-0.000154439
0.0163809
-0.000395989
0.0180096
-0.000697116
0.0194154
-0.00104498
0.020755
-0.00143031
0.0221367
0.0236094
-0.00184967
5.99456e-05
0.00335114
0.000132135
0.00792208
0.000160866
0.0115736
0.000113513
0.0143582
-1.67763e-05
0.0165112
-0.000222458
0.0182152
-0.000489193
0.0196822
-0.0008035
0.0210693
-0.00115513
0.0224883
0.0239944
-0.00154008
6.92955e-05
0.00328184
0.000163674
0.0078277
0.000224035
0.0115132
0.000213302
0.0143689
0.000121034
0.0166034
-4.74762e-05
0.0183838
-0.000278495
0.0199132
-0.000558068
0.0213489
-0.000875037
0.0228053
0.0243441
-0.00122471
7.80441e-05
0.0032038
0.000193849
0.0077119
0.000285505
0.0114216
0.00031174
0.0143427
0.00025844
0.0166567
0.000128391
0.0185138
-6.55762e-05
0.0201072
-0.00030921
0.0215925
-0.000590499
0.0230866
0.0246575
-0.000903983
8.61478e-05
0.00311765
0.000222499
0.00757554
0.000344944
0.0112991
0.00040834
0.0142793
0.000394855
0.0166702
0.000304518
0.0186041
0.000148964
0.0202627
-5.752e-05
0.021799
-0.000302032
0.0233311
0.0249339
-0.000578376
9.35684e-05
0.00302408
0.000249468
0.00741965
0.000402024
0.0111466
0.0005026
0.0141787
0.000529659
0.0166432
0.00048024
0.0186536
0.000364471
0.0203785
0.00019651
0.021967
-9.88218e-06
0.0235375
0.0251724
-0.0002484
0.000100273
0.00292381
0.000274611
0.00724531
0.000456421
0.0109647
0.000594008
0.0140411
0.000662196
0.016575
0.000654837
0.0186609
0.00058023
0.0204531
0.000452078
0.0220951
0.00028442
0.0237052
0.0253715
8.53575e-05
0.000106236
0.00281757
0.000297797
0.00705375
0.00050782
0.0107547
0.000682043
0.0138669
0.000791783
0.0164652
0.000827541
0.0186252
0.000795466
0.0204852
0.000708515
0.0221821
0.000581152
0.0238325
0.0255303
0.00042235
0.000111437
0.00270614
0.000318907
0.00684628
0.000555919
0.0105177
0.000766182
0.0136566
0.000917708
0.0163137
0.00099753
0.0185453
0.00100934
0.0204733
0.000965023
0.0222264
0.000879254
0.0239183
0.0256477
0.000761832
0.000115862
0.00259027
0.000337837
0.0066243
0.000600432
0.0102551
0.000845904
0.0134112
0.00103923
0.0161204
0.00116393
0.0184206
0.00122093
0.0204163
0.00122072
0.0222266
0.00117792
0.0239611
0.0257226
0.00110306
0.000120467
0.00246981
0.000355934
0.00638884
0.000642609
0.00996844
0.000922003
0.0131318
0.00115648
0.0158859
0.00132612
0.018251
0.0014289
0.0203136
0.00147354
0.022182
0.00147438
0.0239603
0.0257545
0.00144247
0.000123305
0.0023465
0.000370245
0.0061419
0.000679164
0.00965952
0.000991368
0.0128196
0.00126694
0.0156103
0.00148253
0.0180354
0.00163289
0.0201632
0.00172462
0.0220902
0.0017714
0.0239135
0.0257413
0.00178457
0.000125384
0.00222112
0.000382202
0.00588508
0.000711446
0.00933028
0.00105486
0.0124762
0.00137072
0.0152945
0.00163245
0.0177737
0.00183139
0.0199643
0.00197169
0.0219499
0.00206599
0.0238192
0.0256817
0.00212561
0.000126716
0.0020944
0.000391783
0.00562001
0.000739284
0.00898278
0.00111205
0.0121034
0.00146709
0.0149394
0.00177484
0.0174659
0.0020232
0.0197159
0.00221348
0.0217596
0.00235692
0.0236757
0.0255741
0.00246444
0.000127322
0.00196708
0.000398984
0.00534835
0.000762545
0.00861922
0.00116255
0.0117034
0.00155531
0.0145467
0.00190865
0.0171126
0.002207
0.0194176
0.0024486
0.021518
0.00264281
0.0234815
0.0254172
0.00279975
0.000127227
0.00183985
0.000403822
0.00507175
0.000781136
0.0082419
0.00120601
0.0112785
0.00163469
0.014118
0.0020328
0.0167145
0.00238143
0.0190689
0.00267553
0.0212239
0.00292215
0.0232349
0.0252092
0.00313012
0.000126461
0.00171339
0.000406334
0.00479188
0.000795006
0.00785323
0.00124216
0.0108314
0.00170457
0.0136556
0.00214625
0.0162728
0.0025451
0.0186701
0.00289267
0.0208764
0.00319324
0.0229343
0.0249485
0.00345393