/*--------------------------------*- C++ -*----------------------------------*\
  =========                 |
  \\      /  F ield         | OpenFOAM: The Open Source CFD Toolbox
   \\    /   O peration     | Website:  https://openfoam.org
    \\  /    A nd           | Version:  7
     \\/     M anipulation  |
\*---------------------------------------------------------------------------*/
FoamFile
{
    version     2.0;
    format      ascii;
    class       volVectorField;
    location    "20";
    object      U;
}
// * * * * * * * * * * * * * * * * * * * * * * * * * * * * * * * * * * * * * //

dimensions      [0 1 -1 0 0 0 0];

internalField   nonuniform List<vector> 
10500
(
(-0.00460891 0.00053755 -5.72008e-21)
(-0.00631749 -0.000278064 8.03162e-21)
(0.00026336 -0.00130623 -4.42274e-20)
(0.0148475 -0.00243964 -3.77935e-20)
(0.0364585 -0.00344881 -1.03716e-20)
(0.0632245 -0.00436974 6.0433e-21)
(0.094043 -0.00517693 -3.28641e-20)
(0.128766 -0.005898 -4.66639e-21)
(0.164345 -0.00635861 -9.71513e-21)
(0.204127 -0.00682477 7.27117e-21)
(-0.00460571 0.00158753 -9.561e-21)
(-0.00585279 -0.000866981 -2.00135e-20)
(0.00142377 -0.0039423 -3.70089e-20)
(0.0167698 -0.0073278 5.74839e-20)
(0.0392003 -0.0103367 2.61927e-20)
(0.0668157 -0.0130785 -1.00076e-20)
(0.0984974 -0.0154779 3.5707e-20)
(0.134138 -0.0176144 -4.19471e-20)
(0.170489 -0.0189799 -8.12848e-22)
(0.211513 -0.0203237 -1.35083e-20)
(-0.00459226 0.00256255 -6.33506e-20)
(-0.00491363 -0.00155412 6.34085e-20)
(0.00375165 -0.0066494 7.10455e-20)
(0.0206164 -0.0122429 -1.72623e-19)
(0.0446781 -0.0171957 -5.5472e-20)
(0.0739817 -0.0216952 1.28136e-19)
(0.107376 -0.0256205 1.68002e-20)
(0.144832 -0.0290924 1.04893e-19)
(0.182707 -0.0313142 4.56399e-20)
(0.226178 -0.0333723 1.11482e-20)
(-0.0045546 0.00341473 6.12707e-20)
(-0.00348068 -0.00240203 -1.10281e-19)
(0.00726095 -0.00947196 -1.2592e-19)
(0.0263908 -0.0172001 1.99116e-19)
(0.05288 -0.0240042 1.42074e-20)
(0.0846891 -0.030157 -7.33375e-21)
(0.120618 -0.0354987 1.45819e-19)
(0.160751 -0.0401742 1.19667e-20)
(0.200865 -0.0431741 -2.0275e-20)
(0.247912 -0.0456781 1.01451e-19)
(-0.0044722 0.00409919 -2.76387e-19)
(-0.00152549 -0.00346851 5.43853e-22)
(0.0119722 -0.0124493 -6.89851e-20)
(0.0340983 -0.0222098 -1.58113e-20)
(0.0637878 -0.0307369 2.16691e-19)
(0.0988883 -0.0383986 -3.32938e-19)
(0.138134 -0.0450057 -2.42758e-19)
(0.181749 -0.0507036 9.90103e-20)
(0.224759 -0.054378 7.22627e-20)
(0.276397 -0.0569603 -6.85055e-20)
(-0.00431824 0.00457469 4.81691e-19)
(0.000988945 -0.00480444 1.25781e-19)
(0.0179121 -0.0156141 4.70788e-19)
(0.0437452 -0.0272764 1.08113e-19)
(0.0773772 -0.037363 1.71673e-19)
(0.116513 -0.046351 3.17765e-19)
(0.159804 -0.0540334 -1.23045e-19)
(0.207629 -0.060527 -2.58933e-19)
(0.254119 -0.0647517 3.03192e-20)
(0.31121 -0.0669564 1.40426e-19)
(-0.00405992 0.00480425 -1.51009e-19)
(0.00410731 -0.00645166 3.36561e-20)
(0.0251125 -0.0189902 -4.26073e-19)
(0.0553383 -0.0323959 1.37411e-19)
(0.0936168 -0.0438455 -1.47687e-19)
(0.137478 -0.0539412 2.65929e-20)
(0.185477 -0.0624727 1.12112e-19)
(0.238148 -0.0694942 9.10366e-21)
(0.288614 -0.0741296 -3.5154e-19)
(0.351823 -0.075428 -2.23076e-19)
(-0.00365961 0.00475894 -1.83811e-19)
(0.0078818 -0.00844406 -3.66581e-19)
(0.0336093 -0.0225917 4.57275e-19)
(0.0688839 -0.0375552 -1.52871e-21)
(0.112468 -0.0501394 -2.02087e-19)
(0.161684 -0.061091 -4.28423e-19)
(0.214974 -0.070213 4.98494e-19)
(0.273013 -0.0774599 -2.42283e-19)
(0.327849 -0.0823555 1.72089e-19)
(0.397606 -0.0821679 1.85202e-20)
(-0.00307646 0.0044177 1.19243e-19)
(0.0123702 -0.0108058 4.98733e-19)
(0.0434425 -0.0264211 -3.71443e-19)
(0.0843873 -0.04273 -4.22884e-19)
(0.133882 -0.0561908 1.07832e-19)
(0.189011 -0.067717 1.00071e-19)
(0.248085 -0.0771424 4.05627e-19)
(0.311887 -0.0842854 3.00923e-19)
(0.371374 -0.0892839 -1.16302e-19)
(0.447836 -0.0870068 1.85613e-19)
(-0.00226597 0.00376473 -1.92589e-19)
(0.0176342 -0.0135472 -5.06715e-20)
(0.0546539 -0.0304678 -2.53431e-19)
(0.101851 -0.0478845 4.36437e-21)
(0.157803 -0.0619365 -1.38583e-20)
(0.21932 -0.0737304 1.87048e-19)
(0.284571 -0.0831488 4.3025e-20)
(0.354385 -0.0898404 3.91326e-19)
(0.418684 -0.0947796 1.13393e-19)
(0.501705 -0.0898195 -1.96009e-19)
(-0.00118076 0.0027914 2.00262e-20)
(0.0237383 -0.016665 -4.86216e-19)
(0.0672854 -0.0347076 4.00763e-19)
(0.121273 -0.0529697 -2.18454e-19)
(0.184163 -0.067303 -6.49362e-20)
(0.252453 -0.0790368 -2.44763e-20)
(0.324161 -0.08812 1.39149e-20)
(0.400081 -0.0940064 -5.90818e-19)
(0.469228 -0.0987196 3.08551e-20)
(0.558336 -0.0905301 4.40951e-20)
(0.000228018 0.00149767 -4.7452e-19)
(0.0307485 -0.0201429 7.63925e-19)
(0.081378 -0.0391017 -2.67438e-19)
(0.142645 -0.0579235 6.57015e-19)
(0.21288 -0.0722069 -6.03826e-19)
(0.288231 -0.0835376 -2.49754e-19)
(0.366557 -0.091946 3.0878e-19)
(0.448509 -0.0966797 3.16988e-19)
(0.522412 -0.100993 -1.81491e-19)
(0.6168 -0.0891154 -1.6948e-19)
(0.00200971 -0.000108162 3.9431e-19)
(0.0387307 -0.0239505 -1.06247e-19)
(0.0969688 -0.0435966 5.05026e-19)
(0.165952 -0.0626706 -8.43471e-20)
(0.243859 -0.0765552 4.50198e-19)
(0.326453 -0.0871309 7.96193e-19)
(0.411427 -0.0945211 -3.86204e-19)
(0.49917 -0.0977756 3.36654e-20)
(0.57761 -0.101505 3.50785e-19)
(0.676141 -0.0856063 2.06041e-19)
(0.00421324 -0.00200954 -1.91347e-19)
(0.0477485 -0.0280435 -5.81979e-19)
(0.11409 -0.048124 -3.59187e-19)
(0.191167 -0.0671223 -4.00936e-19)
(0.276987 -0.0802463 -4.79889e-20)
(0.366894 -0.0897132 -6.9396e-19)
(0.458414 -0.0957464 2.10596e-19)
(0.551534 -0.0972322 -3.00698e-19)
(0.634172 -0.100175 -2.56915e-19)
(0.735397 -0.0800894 -3.8647e-20)
(0.00688618 -0.00418191 3.26754e-19)
(0.0578613 -0.0323637 -5.03307e-20)
(0.132765 -0.0526012 -3.12959e-19)
(0.218252 -0.0711781 3.58928e-19)
(0.312134 -0.0831715 6.71743e-19)
(0.409304 -0.0911819 -6.13565e-20)
(0.50713 -0.0955336 -5.82215e-19)
(0.605053 -0.0950149 2.78513e-19)
(0.691435 -0.0969441 4.86613e-19)
(0.793628 -0.0727138 7.82803e-20)
(0.0100737 -0.0065929 2.08004e-19)
(0.0691227 -0.0368394 7.90201e-20)
(0.153009 -0.0569318 1.10953e-19)
(0.24715 -0.0747266 -2.92787e-19)
(0.349146 -0.0852171 -4.97121e-19)
(0.453413 -0.091438 8.04818e-19)
(0.557162 -0.0938087 4.2088e-19)
(0.659168 -0.09112 -3.40742e-20)
(0.748738 -0.0917778 -3.05108e-19)
(0.849948 -0.0636986 -1.3911e-19)
(0.0138178 -0.0092028 5.41812e-19)
(0.0815783 -0.0413863 -1.34927e-19)
(0.174822 -0.0610071 1.71842e-19)
(0.27779 -0.0776474 1.40368e-19)
(0.387849 -0.0862675 -8.99725e-20)
(0.498921 -0.0903895 1.11818e-19)
(0.608075 -0.0905169 2.01922e-19)
(0.713322 -0.0855777 3.44573e-19)
(0.805427 -0.0846615 -2.52786e-19)
(0.903527 -0.0532902 -8.74017e-20)
(0.0181564 -0.0119654 -8.82598e-19)
(0.0952639 -0.045909 6.43601e-19)
(0.198191 -0.0647081 -3.39544e-19)
(0.310081 -0.0798137 -5.59088e-19)
(0.428044 -0.086208 -1.02119e-19)
(0.545508 -0.087955 -6.66316e-19)
(0.659415 -0.0856276 -7.18515e-20)
(0.766974 -0.0784543 -1.94864e-19)
(0.860864 -0.075574 5.18451e-19)
(0.95354 -0.0416618 -1.19889e-19)
(0.023123 -0.0148289 -1.32278e-19)
(0.110204 -0.0503022 -2.94447e-19)
(0.223086 -0.0679075 8.76805e-19)
(0.343907 -0.0810954 8.0905e-19)
(0.469508 -0.0849286 -9.73884e-20)
(0.592833 -0.0840669 6.48355e-19)
(0.710717 -0.0791402 -1.59827e-19)
(0.819626 -0.0698521 5.8844e-20)
(0.914481 -0.0644822 3.10316e-19)
(0.999281 -0.0291984 5.78829e-19)
(0.0287429 -0.0177332 1.78546e-19)
(0.126409 -0.0544498 1.6612e-19)
(0.249458 -0.0704696 5.86828e-21)
(0.379131 -0.0813605 -2.81616e-19)
(0.511993 -0.0823265 2.7457e-19)
(0.640535 -0.0786744 -2.18104e-19)
(0.761512 -0.0710884 1.56112e-19)
(0.870823 -0.0598986 1.92627e-19)
(0.965861 -0.0515197 2.66119e-19)
(1.04116 -0.0178577 -1.86082e-19)
(0.0350258 -0.0206052 -2.32663e-19)
(0.143863 -0.0582211 -8.28497e-20)
(0.277227 -0.0722495 -6.68355e-19)
(0.415587 -0.0804757 3.40212e-19)
(0.555227 -0.078308 -2.73866e-19)
(0.688235 -0.0717449 -4.12804e-19)
(0.811326 -0.0615347 -7.17922e-19)
(0.92009 -0.0487343 -2.1865e-19)
(1.01444 -0.0373587 8.04775e-19)
(1.08272 -0.011141 -4.43704e-20)
(0.0419803 -0.0233755 9.43044e-19)
(0.16254 -0.0614881 -3.90914e-19)
(0.306295 -0.073109 3.52316e-19)
(0.453081 -0.0783202 1.23975e-19)
(0.598912 -0.0727992 9.37997e-19)
(0.735544 -0.0632699 3.5675e-20)
(0.859694 -0.0505614 7.33072e-19)
(0.966898 -0.0365088 -1.17046e-19)
(1.05874 -0.0232018 -2.75402e-19)
(1.12213 -0.00721483 -3.17671e-19)
(0.0496202 -0.0259839 -7.97471e-19)
(0.182412 -0.0641329 7.50783e-19)
(0.336557 -0.0729213 -2.40608e-19)
(0.491412 -0.0747896 5.60975e-19)
(0.642748 -0.0657476 -6.87105e-19)
(0.782081 -0.0532639 -4.4111e-20)
(0.906193 -0.0382628 1.46061e-19)
(1.01082 -0.0233009 1.81237e-19)
(1.09842 -0.00890813 -4.68347e-19)
(1.15716 0.000161642 8.87484e-20)
(0.0579435 -0.0283604 -6.21059e-19)
(0.203423 -0.0660286 -5.47494e-19)
(0.367876 -0.0715583 -2.47894e-19)
(0.530351 -0.0697878 -1.04108e-18)
(0.686419 -0.0571179 4.23398e-20)
(0.827473 -0.0417634 -8.39452e-20)
(0.950447 -0.0247466 -1.79154e-19)
(1.05152 -0.00920053 -4.08471e-19)
(1.13359 0.00558135 7.7325e-19)
(1.18711 0.0101458 1.81355e-19)
(0.0669363 -0.030431 6.20054e-19)
(0.225497 -0.0670482 -1.46666e-19)
(0.400094 -0.0688991 -2.24802e-20)
(0.569649 -0.0632346 1.83585e-19)
(0.7296 -0.0468977 -2.85025e-19)
(0.871361 -0.0288293 6.25066e-19)
(0.992134 -0.0101384 -4.6215e-20)
(1.08877 0.0056525 -1.42898e-19)
(1.16446 0.0201657 -2.61915e-19)
(1.21242 0.0216656 -3.31917e-19)
(0.0765758 -0.0321223 4.23977e-19)
(0.24854 -0.0670695 2.04391e-20)
(0.43303 -0.0648356 3.76602e-19)
(0.609041 -0.0550703 1.16218e-19)
(0.77197 -0.0350994 9.79491e-19)
(0.913412 -0.0145475 -6.49965e-19)
(1.03099 0.00542033 1.63526e-19)
(1.12242 0.0210902 1.13636e-19)
(1.19121 0.0347339 -4.74209e-19)
(1.23341 0.033993 4.05497e-19)
(0.0868299 -0.0333618 -5.66573e-19)
(0.272439 -0.0659778 -1.64127e-19)
(0.466484 -0.059275 4.26884e-19)
(0.648251 -0.045258 -1.01603e-19)
(0.81321 -0.0217613 -7.20359e-19)
(0.953324 0.00097394 6.95755e-19)
(1.06679 0.0217764 2.07254e-19)
(1.15238 0.0369365 2.59979e-19)
(1.214 0.0491842 3.02411e-19)
(1.25039 0.0466316 -3.92682e-19)
(0.097657 -0.0340793 -4.69823e-19)
(0.297064 -0.0636679 1.04727e-19)
(0.50024 -0.0521426 -5.72482e-19)
(0.686996 -0.0337846 1.39649e-19)
(0.853014 -0.00694644 -5.94825e-19)
(0.990831 0.0176076 -7.6678e-19)
(1.09939 0.0387696 -5.65536e-19)
(1.17866 0.0530184 -7.67418e-20)
(1.23305 0.0634206 -3.36569e-19)
(1.26369 0.0592269 2.43958e-19)
(0.109005 -0.034208 1.55804e-18)
(0.322266 -0.0600465 5.27836e-19)
(0.534068 -0.0433837 3.1068e-19)
(0.72499 -0.0206627 -6.55866e-19)
(0.891095 0.00925843 5.19841e-19)
(1.02571 0.0352105 3.38507e-19)
(1.12869 0.0562374 1.88815e-19)
(1.2013 0.069173 -2.87635e-19)
(1.24856 0.0773553 -6.27165e-20)
(1.27365 0.0715369 -2.49167e-19)
(0.120814 -0.033685 -9.75904e-19)
(0.347882 -0.0550344 -9.01747e-19)
(0.567724 -0.0329656 -4.71237e-19)
(0.761949 -0.00592982 2.99051e-19)
(0.927186 0.0267451 2.74313e-20)
(1.05776 0.0536284 -5.89501e-19)
(1.15463 0.0740188 2.21459e-20)
(1.22041 0.085252 5.99676e-19)
(1.26079 0.0909115 4.36632e-19)
(1.28063 0.0834073 3.38226e-19)
(0.133012 -0.0324534 -2.19143e-19)
(0.373734 -0.0485681 3.89993e-20)
(0.60096 -0.0208786 9.5429e-19)
(0.797596 0.0103515 -1.32982e-20)
(0.961047 0.0453863 1.08949e-19)
(1.08686 0.0726996 6.53995e-19)
(1.17722 0.0919581 -4.68994e-20)
(1.23611 0.101124 -2.75694e-19)
(1.26998 0.104026 -3.60106e-19)
(1.28496 0.0947473 -1.84597e-20)
(0.14552 -0.0304626 3.10061e-19)
(0.399634 -0.0406019 5.12785e-19)
(0.633522 -0.00713732 -8.94631e-19)
(0.831668 0.0280951 4.58455e-19)
(0.99247 0.0650393 -4.57185e-20)
(1.1129 0.0922593 -1.33714e-19)
(1.19649 0.109908 3.85456e-19)
(1.24859 0.116677 -2.50983e-19)
(1.27637 0.116647 1.12842e-19)
(1.28695 0.105511 1.71606e-19)
(0.15825 -0.0276698 2.44347e-19)
(0.425382 -0.0311092 1.01808e-19)
(0.665156 0.00821946 3.31307e-19)
(0.863915 0.0471926 -4.26607e-19)
(1.02128 0.0855483 -1.8066e-19)
(1.13582 0.112142 -1.86989e-19)
(1.21251 0.127731 -2.20799e-19)
(1.25804 0.131815 4.80706e-19)
(1.28022 0.128736 -8.66149e-20)
(1.28689 0.11568 -1.99233e-19)
(0.171107 -0.0240411 -3.035e-19)
(0.450773 -0.0200837 1.65529e-20)
(0.695615 0.0251289 -1.38877e-19)
(0.89411 0.0675157 1.0906e-19)
(1.04732 0.106749 5.13952e-19)
(1.15559 0.132187 3.00466e-19)
(1.22539 0.145302 -1.24068e-19)
(1.26465 0.14646 -1.08975e-19)
(1.28176 0.140266 2.18823e-19)
(1.28504 0.125259 4.1319e-20)
(0.183989 -0.019552 -2.51886e-19)
(0.475596 -0.00753993 2.05185e-19)
(0.724655 0.0435048 -2.24002e-19)
(0.922047 0.0889188 6.84196e-20)
(1.0705 0.128469 -1.60814e-19)
(1.17225 0.152237 -2.14357e-20)
(1.23526 0.162507 1.07231e-19)
(1.26863 0.160547 -1.12902e-19)
(1.28124 0.151218 -2.90163e-21)
(1.28162 0.134259 2.77579e-20)
(0.196789 -0.0141887 3.91016e-19)
(0.499641 0.00648589 -3.19123e-19)
(0.752048 0.063239 6.59757e-20)
(0.947545 0.111241 1.50852e-20)
(1.09073 0.150537 -3.65732e-20)
(1.18582 0.172143 2.00417e-20)
(1.24227 0.179245 -1.24583e-21)
(1.27019 0.174025 4.70286e-20)
(1.27886 0.161579 -4.43169e-20)
(1.27684 0.142698 -1.67986e-20)
(0.209394 -0.00794868 1.45032e-19)
(0.522697 0.0219361 1.27807e-19)
(0.777577 0.0842026 1.44174e-19)
(0.970452 0.134311 -2.142e-19)
(1.10797 0.172776 -1.91586e-19)
(1.19637 0.191765 2.03154e-20)
(1.24657 0.195429 -1.21908e-19)
(1.26954 0.186854 -5.54033e-20)
(1.27483 0.171343 1.14301e-20)
(1.27086 0.150595 -1.25554e-21)
(0.221692 -0.000841392 -1.33426e-19)
(0.544562 0.0387316 7.92672e-20)
(0.801046 0.106248 7.24434e-20)
(0.990643 0.157945 1.69534e-19)
(1.1222 0.195016 5.58832e-20)
(1.20401 0.210972 -9.97339e-20)
(1.24833 0.210978 -7.09874e-21)
(1.26687 0.199 -7.21035e-22)
(1.26932 0.180508 -2.76931e-20)
(1.26384 0.157969 1.9964e-22)
(0.233571 0.00711128 8.04439e-21)
(0.565039 0.0567728 -1.36489e-19)
(0.822278 0.129211 -1.07014e-19)
(1.00802 0.181956 -4.83617e-20)
(1.13343 0.217087 -2.17318e-20)
(1.20884 0.229642 8.63069e-21)
(1.24771 0.225825 1.41064e-20)
(1.26237 0.210439 2.49986e-20)
(1.26251 0.189071 4.87587e-21)
(1.25591 0.164833 1.36063e-21)
(0.244905 0.0158757 6.43609e-21)
(0.583937 0.0759413 -1.08771e-20)
(0.841115 0.152914 4.81881e-20)
(1.02252 0.206153 3.45256e-20)
(1.14172 0.238827 1.37375e-20)
(1.21098 0.247664 -6.35889e-21)
(1.2449 0.239911 -1.52534e-20)
(1.25621 0.221149 3.21448e-22)
(1.25453 0.197031 5.47713e-21)
(1.24717 0.171199 -3.42957e-21)
(0.255533 0.0254037 7.47147e-21)
(0.601055 0.0960975 -8.60394e-21)
(0.85741 0.177166 4.20879e-20)
(1.03409 0.23034 3.37176e-20)
(1.1471 0.260079 7.56101e-21)
(1.21057 0.264937 -4.80197e-21)
(1.24005 0.253184 -1.39301e-20)
(1.24855 0.231114 3.24718e-21)
(1.24553 0.20439 2.71928e-21)
(1.23774 0.177074 -1.6034e-21)
(0.265339 0.035629 1.13957e-20)
(0.616227 0.117075 -1.24465e-19)
(0.871054 0.201758 -8.05659e-20)
(1.04271 0.25432 -4.9208e-20)
(1.14967 0.280693 -2.63883e-20)
(1.20775 0.281366 8.9234e-21)
(1.23334 0.265599 1.26509e-20)
(1.23955 0.240318 1.31729e-20)
(1.23563 0.211143 -4.66767e-22)
(1.22769 0.182459 2.73871e-21)
(0.274266 0.0464788 -9.78333e-20)
(0.629348 0.138703 7.79016e-20)
(0.881986 0.226487 5.21402e-20)
(1.04841 0.277903 1.28539e-19)
(1.14953 0.300528 3.47198e-20)
(1.20267 0.296869 -6.21238e-20)
(1.22491 0.277118 -4.56237e-21)
(1.22935 0.24875 -5.93164e-21)
(1.22492 0.217288 -8.6446e-21)
(1.2171 0.187354 3.27441e-22)
(0.282223 0.0578711 9.37875e-20)
(0.640301 0.160802 1.13129e-19)
(0.890155 0.251143 1.03232e-19)
(1.05123 0.300905 -1.53276e-19)
(1.14679 0.319456 -9.21046e-20)
(1.19549 0.31137 -5.60884e-21)
(1.21493 0.287706 -3.77638e-20)
(1.21808 0.256398 -2.16221e-20)
(1.21351 0.222821 5.1497e-21)
(1.20603 0.191755 5.26641e-22)
(0.289116 0.0697125 2.69141e-19)
(0.648985 0.183179 -2.62676e-19)
(0.895531 0.275516 5.64488e-20)
(1.05123 0.323148 1.34757e-20)
(1.14157 0.337355 3.99928e-21)
(1.18636 0.324804 6.7907e-21)
(1.20354 0.297335 1.12487e-20)
(1.20585 0.263252 1.20367e-20)
(1.20149 0.22774 1.24018e-21)
(1.19455 0.195653 2.70499e-21)
(0.294863 0.0819 -2.01796e-19)
(0.655322 0.205634 1.48933e-19)
(0.898113 0.299396 -1.59095e-19)
(1.04848 0.344461 6.47975e-20)
(1.13401 0.354113 -5.86363e-20)
(1.17542 0.337109 1.84716e-21)
(1.19088 0.305977 2.43624e-20)
(1.19277 0.269298 -2.50441e-21)
(1.18893 0.232036 6.92369e-21)
(1.18271 0.199041 -6.155e-21)
(0.299394 0.0943225 -1.4159e-19)
(0.659259 0.227961 -2.13013e-20)
(0.897923 0.322574 -5.79542e-20)
(1.04308 0.364679 3.57919e-20)
(1.12425 0.369627 1.94971e-19)
(1.16283 0.348232 6.31137e-20)
(1.17707 0.313609 -2.43284e-21)
(1.17895 0.274528 1.40805e-20)
(1.17589 0.235699 -3.71629e-20)
(1.17058 0.201908 -5.83181e-21)
(0.302651 0.106861 1.63817e-19)
(0.660766 0.24995 2.53477e-20)
(0.895006 0.344848 1.90714e-19)
(1.03515 0.383648 -1.85164e-19)
(1.11246 0.383803 -4.60525e-20)
(1.14875 0.358126 -4.15746e-20)
(1.16226 0.320212 1.08038e-20)
(1.16448 0.278934 -4.62151e-20)
(1.16244 0.238722 1.76036e-20)
(1.15819 0.204239 8.41496e-20)
(0.30459 0.119392 1.18023e-19)
(0.659835 0.271389 2.12297e-19)
(0.889432 0.366019 -3.19844e-19)
(1.02481 0.401224 1.49501e-19)
(1.09876 0.396558 -2.24236e-20)
(1.13332 0.366749 1.19735e-22)
(1.14655 0.325766 -1.25731e-21)
(1.14945 0.282504 2.41073e-20)
(1.14864 0.241094 -2.84889e-20)
(1.14559 0.206019 -8.03764e-20)
(0.30518 0.131786 -1.02712e-19)
(0.656484 0.292067 -2.47892e-20)
(0.881291 0.3859 3.23388e-19)
(1.01221 0.417274 -4.58282e-21)
(1.08334 0.407814 8.24074e-21)
(1.11668 0.374066 -1.49919e-20)
(1.13006 0.330257 -3.51832e-23)
(1.13393 0.285231 9.68492e-20)
(1.13454 0.242807 1.30693e-19)
(1.13282 0.207233 4.96676e-22)
(0.304404 0.143912 -3.0757e-19)
(0.650753 0.311778 -3.15779e-19)
(0.870693 0.40431 -1.22585e-19)
(0.997506 0.431674 2.34703e-20)
(1.06635 0.417507 -2.69964e-21)
(1.09898 0.380046 2.30682e-20)
(1.11291 0.333672 4.13075e-21)
(1.11802 0.287106 -1.81019e-19)
(1.1202 0.243851 -1.80367e-20)
(1.11992 0.207865 -2.19998e-19)
(0.302262 0.155636 4.17945e-19)
(0.642708 0.330321 1.56903e-19)
(0.857767 0.421082 5.43886e-20)
(0.980854 0.444315 -6.79965e-20)
(1.04795 0.425577 -4.60554e-20)
(1.08036 0.384664 -4.91767e-20)
(1.0952 0.335999 -5.33356e-20)
(1.10177 0.288123 -1.16687e-19)
(1.10566 0.24422 4.06318e-20)
(1.10693 0.207898 1.32703e-19)
(0.298767 0.166826 -1.49041e-19)
(0.632434 0.347502 1.75219e-20)
(0.842657 0.436058 -6.25275e-20)
(0.96243 0.455096 1.28823e-20)
(1.02832 0.431976 2.74341e-20)
(1.06095 0.387899 1.94199e-19)
(1.07703 0.33723 1.26292e-19)
(1.08527 0.288277 1.49862e-20)
(1.09096 0.243904 1.40536e-19)
(1.09388 0.207317 -1.60773e-19)
(0.293948 0.177351 -8.1683e-20)
(0.620036 0.363137 -2.08587e-20)
(0.825525 0.449097 2.52e-20)
(0.942412 0.463931 2.0582e-20)
(1.0076 0.436663 1.61084e-19)
(1.04089 0.389735 -2.03822e-19)
(1.0585 0.337361 -9.81741e-20)
(1.06858 0.287564 -1.06454e-19)
(1.07614 0.242901 -1.734e-19)
(1.08081 0.206104 2.43176e-19)
(0.287848 0.187084 2.14136e-20)
(0.605642 0.377054 -1.66955e-20)
(0.806545 0.46007 -3.52663e-20)
(0.920985 0.470746 -2.04203e-20)
(0.985972 0.439607 -2.08947e-19)
(1.02031 0.390163 1.45651e-19)
(1.03972 0.336388 -6.20068e-20)
(1.05177 0.285985 -7.18623e-20)
(1.06124 0.241208 2.49401e-19)
(1.06774 0.204243 -2.55581e-19)
(0.280525 0.195903 -7.58856e-20)
(0.589394 0.389093 -1.13755e-20)
(0.785904 0.468864 -9.81958e-21)
(0.898337 0.475479 -7.86131e-20)
(0.963596 0.440783 1.13948e-19)
(0.999339 0.389176 -2.11109e-19)
(1.02077 0.334311 -7.56979e-20)
(1.03491 0.283542 1.45785e-19)
(1.0463 0.238826 1.85397e-19)
(1.0547 0.201719 2.98836e-19)
(0.272054 0.203694 3.9256e-20)
(0.571454 0.399109 7.88609e-20)
(0.763796 0.47538 5.3775e-20)
(0.87466 0.478081 3.78203e-19)
(0.940632 0.440177 6.9795e-20)
(0.978102 0.386774 3.31952e-20)
(1.00175 0.331135 1.80769e-19)
(1.01807 0.280241 2.60742e-19)
(1.03135 0.235758 -6.84334e-19)
(1.04169 0.198514 -1.12639e-19)
(0.26252 0.210351 1.99378e-19)
(0.552001 0.406976 -1.60717e-19)
(0.740426 0.479537 8.80742e-20)
(0.850147 0.478515 -1.58799e-19)
(0.91724 0.43778 3.859e-19)
(0.956723 0.38296 -2.54792e-20)
(0.982758 0.326864 -3.54328e-20)
(1.00131 0.27609 -1.4628e-19)
(1.01642 0.232007 4.53638e-19)
(1.02872 0.194612 -2.14895e-19)
(0.252026 0.215781 -3.06971e-19)
(0.531223 0.412583 1.07155e-19)
(0.716006 0.481271 -1.70847e-19)
(0.824994 0.476758 -2.74889e-20)
(0.893579 0.433594 -5.42608e-19)
(0.935321 0.377743 -5.85632e-20)
(0.963881 0.321509 -4.78945e-19)
(0.984717 0.271102 6.29358e-20)
(1.00156 0.22758 3.00509e-19)
(1.01582 0.189979 2.4565e-19)
(0.240668 0.219887 5.50837e-20)
(0.509316 0.415835 8.22226e-20)
(0.690748 0.480533 3.12981e-19)
(0.799392 0.472798 3.40641e-20)
(0.869802 0.427628 1.80909e-19)
(0.914014 0.371137 3.29026e-19)
(0.945211 0.315083 5.5425e-19)
(0.968357 0.265296 1.9844e-19)
(0.986861 0.22253 -6.69106e-19)
(1.00305 0.184701 1.45783e-19)
(0.22851 0.222536 -1.47524e-19)
(0.486469 0.41663 -2.69761e-20)
(0.664864 0.477281 -1.35225e-21)
(0.773534 0.466634 1.92325e-19)
(0.846061 0.419898 -2.14204e-19)
(0.892917 0.363159 2.21915e-19)
(0.926837 0.307598 -1.88381e-19)
(0.952321 0.258682 -2.06858e-19)
(0.972566 0.216952 9.01754e-19)
(0.990317 0.179478 3.92962e-19)
(0.215691 0.223659 2.0053e-20)
(0.462908 0.414905 1.97355e-19)
(0.638578 0.471498 -5.03548e-19)
(0.747609 0.45828 -6.62932e-19)
(0.822502 0.410431 8.95331e-20)
(0.872138 0.353834 -4.69867e-19)
(0.90884 0.299071 1.68651e-19)
(0.936703 0.251238 -1.15909e-19)
(0.958893 0.21071 -3.01135e-19)
(0.9787 0.174524 -8.81811e-19)
(0.202403 0.223266 6.48349e-19)
(0.438888 0.410655 -4.46675e-19)
(0.612123 0.463202 2.89774e-19)
(0.721809 0.447766 3.74317e-19)
(0.799268 0.399259 1.59439e-19)
(0.851783 0.343189 6.0356e-19)
(0.891297 0.28952 1.67232e-19)
(0.921541 0.242972 2.20949e-19)
(0.9457 0.20373 -5.99825e-19)
(0.967204 0.169112 9.41939e-20)
(0.188796 0.221333 -4.4586e-19)
(0.414637 0.403876 1.2869e-19)
(0.58572 0.452417 -3.10578e-19)
(0.696316 0.435132 -7.77202e-20)
(0.776499 0.386423 -1.41874e-21)
(0.831953 0.331259 7.55099e-20)
(0.874279 0.27897 -3.35375e-19)
(0.90688 0.23391 -4.87703e-19)
(0.932984 0.196065 3.09055e-19)
(0.956 0.163057 2.52497e-19)
(0.175008 0.21784 -2.19128e-19)
(0.390378 0.394576 -1.34117e-19)
(0.559582 0.439183 -5.63742e-19)
(0.671309 0.420429 1.72579e-19)
(0.754326 0.371971 5.26676e-19)
(0.812746 0.318082 -6.79328e-19)
(0.857858 0.267452 -5.95743e-19)
(0.892772 0.224076 2.40477e-19)
(0.920784 0.187765 5.48413e-19)
(0.945204 0.156406 8.11044e-20)
(0.161182 0.212779 -4.61182e-19)
(0.366336 0.382786 1.81634e-21)
(0.533921 0.423555 2.91592e-19)
(0.646957 0.403718 -3.48484e-19)
(0.732878 0.35596 -8.30081e-19)
(0.794256 0.303703 -6.28611e-20)
(0.842103 0.254998 9.15645e-19)
(0.87927 0.213494 -4.2887e-19)
(0.909139 0.178854 -5.60676e-19)
(0.93488 0.149208 -1.34909e-19)
(0.147465 0.206164 2.90815e-19)
(0.342731 0.368557 5.84633e-19)
(0.508942 0.405604 4.22699e-19)
(0.623427 0.385072 3.68279e-19)
(0.712277 0.338452 1.69653e-19)
(0.776571 0.288171 8.85359e-19)
(0.827081 0.241647 -3.71511e-19)
(0.866424 0.202194 3.03795e-19)
(0.898084 0.169355 5.44563e-19)
(0.925076 0.14148 1.30961e-19)
(0.134001 0.198023 -5.3398e-19)
(0.31978 0.351959 1.91088e-19)
(0.484841 0.385417 -6.34197e-19)
(0.600875 0.364576 1.73068e-19)
(0.692637 0.319516 -7.62711e-19)
(0.759777 0.271541 -1.00851e-18)
(0.812855 0.227439 4.9444e-19)
(0.854283 0.190205 -4.37772e-20)
(0.887657 0.159291 -4.71018e-19)
(0.915836 0.13324 -3.17568e-19)
(0.120934 0.188397 7.19087e-19)
(0.297694 0.333083 -9.99165e-19)
(0.461808 0.363097 3.50094e-19)
(0.57945 0.342323 -7.42499e-19)
(0.674069 0.299229 5.91473e-19)
(0.743954 0.253872 4.63261e-19)
(0.799483 0.212421 -4.1965e-19)
(0.842894 0.177563 -4.82545e-19)
(0.877894 0.148688 3.35374e-19)
(0.907193 0.12451 2.51862e-19)
(0.108401 0.177344 -8.47895e-20)
(0.276672 0.312036 5.76899e-19)
(0.440021 0.338758 -6.27986e-19)
(0.559293 0.318416 4.46277e-19)
(0.656674 0.277675 -3.62861e-20)
(0.729176 0.235229 3.09172e-20)
(0.787023 0.196641 3.6793e-20)
(0.8323 0.164306 1.03666e-18)
(0.868827 0.137576 -1.65746e-19)
(0.89918 0.115318 -3.75545e-20)
(0.0965356 0.164935 2.9066e-19)
(0.256904 0.288943 5.57275e-21)
(0.419649 0.312529 3.2457e-19)
(0.540534 0.292967 1.7239e-20)
(0.640547 0.25494 1.60082e-19)
(0.715513 0.215679 -3.37565e-19)
(0.775525 0.180151 -3.93191e-20)
(0.822539 0.150476 -5.72232e-19)
(0.860486 0.125988 -2.56226e-19)
(0.891822 0.105695 2.59987e-19)
(0.0854635 0.151254 -1.97384e-19)
(0.23857 0.263948 -7.32312e-19)
(0.400848 0.284552 5.58198e-19)
(0.523295 0.266096 6.55333e-19)
(0.625776 0.231121 -6.89174e-20)
(0.703028 0.195295 -2.21593e-19)
(0.765037 0.163009 7.00628e-19)
(0.813649 0.136116 -5.11226e-19)
(0.8529 0.11396 2.31365e-19)
(0.885141 0.0956746 -3.72183e-19)
(0.0753024 0.136398 3.81345e-19)
(0.221834 0.237206 -3.59674e-19)
(0.383761 0.254978 -7.71608e-19)
(0.507685 0.237932 5.60652e-20)
(0.612442 0.206317 3.91437e-19)
(0.691781 0.174153 5.89298e-19)
(0.755604 0.145272 -7.4081e-19)
(0.805662 0.121274 3.86769e-19)
(0.846093 0.101531 -2.92026e-19)
(0.879155 0.085293 -1.47982e-19)
(0.0661605 0.120476 2.22129e-19)
(0.206847 0.208888 -3.9146e-20)
(0.368517 0.22397 7.6102e-19)
(0.493804 0.20861 -2.45413e-19)
(0.600614 0.180631 2.43734e-19)
(0.681823 0.152334 4.34954e-20)
(0.747262 0.127004 -2.89705e-19)
(0.798608 0.106 1.39926e-19)
(0.840087 0.0887418 5.53555e-19)
(0.873883 0.0745883 5.28014e-19)
(0.058135 0.103606 -1.06333e-18)
(0.193743 0.179178 -2.18665e-19)
(0.355231 0.1917 -8.36523e-19)
(0.481739 0.178271 -2.40906e-19)
(0.590357 0.154173 -2.60766e-19)
(0.673201 0.129921 -5.45737e-19)
(0.740048 0.108269 1.84421e-19)
(0.792513 0.0903468 4.37241e-19)
(0.834903 0.0756362 4.73761e-21)
(0.869338 0.0636003 -3.76245e-19)
(0.0513115 0.0859185 5.53029e-19)
(0.182638 0.148271 -1.07676e-20)
(0.344005 0.158347 1.23869e-19)
(0.471568 0.147062 2.89333e-20)
(0.581725 0.127054 -3.40906e-19)
(0.665954 0.107001 5.01064e-19)
(0.73399 0.0891355 4.59778e-19)
(0.787399 0.0743693 -2.43435e-19)
(0.830556 0.0622596 -1.20826e-19)
(0.865532 0.0523705 1.84142e-19)
(0.0457628 0.067549 -1.36098e-19)
(0.173633 0.116369 2.1603e-19)
(0.334921 0.1241 2.31817e-19)
(0.463354 0.115135 -4.02409e-19)
(0.574765 0.0993903 2.18926e-20)
(0.660116 0.0836615 -1.02441e-20)
(0.729114 0.0696727 -2.54958e-19)
(0.783286 0.0581237 1.5606e-20)
(0.827062 0.048659 4.65741e-20)
(0.862474 0.0409412 -1.89937e-19)
(0.0415482 0.0486412 1.42237e-19)
(0.166808 0.0836864 -1.43201e-19)
(0.328048 0.0891492 -1.21771e-19)
(0.457147 0.0826447 3.28169e-19)
(0.569512 0.0713 8.95728e-20)
(0.655714 0.0599942 -2.19648e-19)
(0.725439 0.0499518 -1.67641e-20)
(0.780187 0.0416681 -1.76985e-19)
(0.824431 0.0348828 -1.15659e-19)
(0.860175 0.0293558 1.83267e-20)
(0.0387129 0.0293436 1.25959e-20)
(0.162224 0.0504401 3.84969e-20)
(0.323437 0.0536933 7.09208e-20)
(0.452988 0.0497499 -1.07722e-19)
(0.565994 0.0429034 -5.60997e-20)
(0.652768 0.0360914 3.05501e-20)
(0.722981 0.0300456 -6.43227e-20)
(0.778115 0.0250615 7.04387e-20)
(0.822672 0.0209803 2.71888e-20)
(0.858638 0.0176583 1.04945e-20)
(0.0372875 0.00980842 1.07821e-20)
(0.159921 0.0168523 1.49512e-20)
(0.321123 0.0179322 -8.60051e-20)
(0.450902 0.0166109 6.51883e-20)
(0.564231 0.014322 3.03943e-20)
(0.651292 0.0120465 -1.95753e-20)
(0.72175 0.0100277 5.96187e-20)
(0.777077 0.00836397 6.98622e-21)
(0.821791 0.00700182 2.55664e-20)
(0.857868 0.00589345 -2.30247e-20)
(0.0372875 -0.00980842 1.34205e-20)
(0.159921 -0.0168523 -1.49512e-20)
(0.321123 -0.0179322 8.60051e-20)
(0.450902 -0.0166109 6.96906e-20)
(0.564231 -0.014322 1.90241e-20)
(0.651292 -0.0120465 -1.09166e-20)
(0.72175 -0.0100277 5.7758e-20)
(0.777077 -0.00836397 8.61329e-21)
(0.821791 -0.00700182 1.79938e-20)
(0.857868 -0.00589344 -1.42589e-20)
(0.0387129 -0.0293436 2.16506e-20)
(0.162224 -0.0504401 4.84734e-20)
(0.323437 -0.0536933 7.07878e-20)
(0.452988 -0.0497499 -1.05885e-19)
(0.565994 -0.0429034 -4.78633e-20)
(0.652768 -0.0360914 1.8061e-20)
(0.722981 -0.0300456 -6.10087e-20)
(0.778115 -0.0250615 7.70035e-20)
(0.822672 -0.0209803 1.12219e-21)
(0.858638 -0.0176583 2.60851e-20)
(0.0415482 -0.0486412 1.44507e-19)
(0.166808 -0.0836864 -1.24126e-19)
(0.328048 -0.0891492 -1.37469e-19)
(0.457147 -0.0826447 3.13178e-19)
(0.569512 -0.0713 1.00337e-19)
(0.655714 -0.0599942 -2.28797e-19)
(0.725439 -0.0499518 -2.43925e-20)
(0.780187 -0.0416681 -1.92038e-19)
(0.824431 -0.0348828 -8.38567e-20)
(0.860175 -0.0293558 -2.13742e-20)
(0.0457628 -0.067549 -1.40892e-19)
(0.173633 -0.116369 2.06546e-19)
(0.334921 -0.1241 2.35072e-19)
(0.463354 -0.115135 -3.59358e-19)
(0.574765 -0.0993903 -2.65223e-20)
(0.660116 -0.0836615 1.58718e-20)
(0.729114 -0.0696727 -2.68607e-19)
(0.783286 -0.0581237 -2.07748e-20)
(0.827062 -0.048659 3.682e-20)
(0.862474 -0.0409412 -1.98186e-19)
(0.0513115 -0.0859185 5.95988e-19)
(0.182638 -0.148271 1.85491e-20)
(0.344005 -0.158347 1.19816e-19)
(0.471568 -0.147062 2.97232e-20)
(0.581725 -0.127054 -3.7947e-19)
(0.665954 -0.107001 5.80641e-19)
(0.73399 -0.0891355 3.85553e-19)
(0.787399 -0.0743693 -1.74978e-19)
(0.830556 -0.0622596 -1.2831e-19)
(0.865532 -0.0523705 1.34745e-19)
(0.058135 -0.103606 -1.02618e-18)
(0.193743 -0.179178 -1.97837e-19)
(0.355231 -0.1917 -8.45723e-19)
(0.481739 -0.178271 -1.81223e-19)
(0.590357 -0.154173 -2.86271e-19)
(0.673201 -0.129921 -5.45791e-19)
(0.740048 -0.108269 1.94714e-19)
(0.792513 -0.0903468 4.59172e-19)
(0.834903 -0.0756362 -5.12516e-20)
(0.869338 -0.0636003 -2.7662e-19)
(0.0661605 -0.120476 3.18237e-19)
(0.206847 -0.208888 9.96422e-21)
(0.368517 -0.22397 7.44985e-19)
(0.493804 -0.20861 -2.18524e-19)
(0.600614 -0.180631 2.60259e-19)
(0.681823 -0.152334 -3.94484e-20)
(0.747262 -0.127004 -1.3131e-19)
(0.798608 -0.106 -1.84409e-20)
(0.840087 -0.0887418 6.08448e-19)
(0.873883 -0.0745883 4.38235e-19)
(0.0753024 -0.136398 3.55646e-19)
(0.221834 -0.237206 5.89232e-19)
(0.383761 -0.254978 -7.62939e-19)
(0.507685 -0.237932 1.82382e-20)
(0.612442 -0.206317 3.34042e-19)
(0.691781 -0.174153 6.96436e-19)
(0.755604 -0.145272 -8.68886e-19)
(0.805662 -0.121274 4.03386e-19)
(0.846093 -0.101531 -3.00565e-19)
(0.879155 -0.085293 -4.08647e-20)
(0.0854635 -0.151254 -2.24141e-19)
(0.23857 -0.263948 1.28336e-19)
(0.400848 -0.284552 5.49646e-19)
(0.523295 -0.266096 6.65224e-19)
(0.625776 -0.231121 -1.69891e-19)
(0.703028 -0.195295 -1.69055e-19)