/*--------------------------------*- C++ -*----------------------------------*\
  =========                 |
  \\      /  F ield         | OpenFOAM: The Open Source CFD Toolbox
   \\    /   O peration     | Website:  https://openfoam.org
    \\  /    A nd           | Version:  7
     \\/     M anipulation  |
\*---------------------------------------------------------------------------*/
FoamFile
{
    version     2.0;
    format      ascii;
    class       volScalarField;
    location    "10";
    object      p;
}
// * * * * * * * * * * * * * * * * * * * * * * * * * * * * * * * * * * * * * //

dimensions      [0 2 -2 0 0 0 0];

internalField   nonuniform List<scalar> 
48400
(
-0.31324
-0.316844
-0.317762
-0.319167
-0.320241
-0.321422
-0.322666
-0.324027
-0.325507
-0.327113
-0.328848
-0.330714
-0.332714
-0.334852
-0.33713
-0.339549
-0.342109
-0.344806
-0.34763
-0.350567
-0.353597
-0.356691
-0.359812
-0.362911
-0.36593
-0.368798
-0.371433
-0.373739
-0.375608
-0.376923
-0.377553
-0.377365
-0.376218
-0.373976
-0.37051
-0.365712
-0.359505
-0.351826
-0.342666
-0.33226
-0.313337
-0.31692
-0.317834
-0.319232
-0.320303
-0.321482
-0.322724
-0.324083
-0.325561
-0.327166
-0.328899
-0.330764
-0.332764
-0.334902
-0.33718
-0.339601
-0.342163
-0.344863
-0.347692
-0.350637
-0.353676
-0.356781
-0.359916
-0.363033
-0.366073
-0.368967
-0.371631
-0.373972
-0.375881
-0.377239
-0.37792
-0.377785
-0.376697
-0.374515
-0.371109
-0.366368
-0.360211
-0.352574
-0.343413
-0.332994
-0.31353
-0.317069
-0.317976
-0.319363
-0.320427
-0.3216
-0.322838
-0.324193
-0.325668
-0.32727
-0.329001
-0.330864
-0.332863
-0.335
-0.337279
-0.339702
-0.342269
-0.344975
-0.347813
-0.350771
-0.353827
-0.356954
-0.360116
-0.363267
-0.366348
-0.36929
-0.372011
-0.374417
-0.376401
-0.377845
-0.37862
-0.378588
-0.37761
-0.375544
-0.372254
-0.36762
-0.361558
-0.354001
-0.344854
-0.334387
-0.313816
-0.317292
-0.318187
-0.319556
-0.32061
-0.321775
-0.323006
-0.324355
-0.325826
-0.327423
-0.32915
-0.33101
-0.333006
-0.335142
-0.337422
-0.339847
-0.342419
-0.345134
-0.347985
-0.35096
-0.354039
-0.357197
-0.360397
-0.363594
-0.366732
-0.369741
-0.372541
-0.375038
-0.377126
-0.378687
-0.379591
-0.379702
-0.378876
-0.376969
-0.373839
-0.369357
-0.363426
-0.355984
-0.346896
-0.336289
-0.314193
-0.317586
-0.318465
-0.31981
-0.320852
-0.322005
-0.323226
-0.324567
-0.32603
-0.327621
-0.329342
-0.331196
-0.333188
-0.335322
-0.337601
-0.340028
-0.342605
-0.345329
-0.348195
-0.35119
-0.354297
-0.35749
-0.360736
-0.363989
-0.367194
-0.370283
-0.373177
-0.375783
-0.377994
-0.379693
-0.380751
-0.38103
-0.380383
-0.378664
-0.375726
-0.371427
-0.365654
-0.358354
-0.349413
-0.338507
-0.314656
-0.317948
-0.318807
-0.320123
-0.321147
-0.322285
-0.323494
-0.324824
-0.326276
-0.327858
-0.32957
-0.331417
-0.333402
-0.335531
-0.337807
-0.340235
-0.342816
-0.345549
-0.348428
-0.351445
-0.35458
-0.357812
-0.361106
-0.364419
-0.367696
-0.370872
-0.373868
-0.37659
-0.378933
-0.380781
-0.382002
-0.382459
-0.382004
-0.380485
-0.377753
-0.373654
-0.368062
-0.360928
-0.352231
-0.340791
-0.315202
-0.318376
-0.31921
-0.320491
-0.321494
-0.322613
-0.323806
-0.325121
-0.32656
-0.328128
-0.329829
-0.331665
-0.33364
-0.335761
-0.338032
-0.340457
-0.343039
-0.345777
-0.348669
-0.351704
-0.354867
-0.358135
-0.361477
-0.364849
-0.368198
-0.37146
-0.374556
-0.377393
-0.379868
-0.381861
-0.383243
-0.383874
-0.383605
-0.382283
-0.379754
-0.375856
-0.370483
-0.363448
-0.355178
-0.34296
-0.315824
-0.318864
-0.31967
-0.320909
-0.321887
-0.322982
-0.324155
-0.325452
-0.326873
-0.328425
-0.33011
-0.331931
-0.333893
-0.336001
-0.338262
-0.34068
-0.343259
-0.345999
-0.348898
-0.351948
-0.355134
-0.358434
-0.361817
-0.365243
-0.368658
-0.371998
-0.375186
-0.378129
-0.380723
-0.382849
-0.384376
-0.385165
-0.385065
-0.383918
-0.381579
-0.377887
-0.372702
-0.365719
-0.357873
-0.345322
-0.316518
-0.319409
-0.320183
-0.321374
-0.322322
-0.323389
-0.324537
-0.325811
-0.327211
-0.328741
-0.330405
-0.332207
-0.33415
-0.336241
-0.338486
-0.340892
-0.343462
-0.346198
-0.349098
-0.352156
-0.355357
-0.358681
-0.362097
-0.365566
-0.369036
-0.372441
-0.375706
-0.378737
-0.381431
-0.383667
-0.385317
-0.386236
-0.386275
-0.38527
-0.383109
-0.379545
-0.374548
-0.367698
-0.360023
-0.347492
-0.317276
-0.320006
-0.320743
-0.321881
-0.322794
-0.323828
-0.324946
-0.326191
-0.327564
-0.329068
-0.330706
-0.332482
-0.334401
-0.336469
-0.338693
-0.341079
-0.343634
-0.346358
-0.349252
-0.352308
-0.355515
-0.358852
-0.362289
-0.365788
-0.369296
-0.372749
-0.376071
-0.379168
-0.381936
-0.384255
-0.385993
-0.38701
-0.387153
-0.386262
-0.384201
-0.380748
-0.375916
-0.369116
-0.361689
-0.3491
-0.318092
-0.320652
-0.321348
-0.322426
-0.323298
-0.324292
-0.325375
-0.326587
-0.327926
-0.329398
-0.331004
-0.332749
-0.334636
-0.336674
-0.33887
-0.34123
-0.34376
-0.346465
-0.349342
-0.352387
-0.355588
-0.358925
-0.362369
-0.365881
-0.36941
-0.37289
-0.376244
-0.379381
-0.382194
-0.384563
-0.386356
-0.38743
-0.387635
-0.386806
-0.384817
-0.381415
-0.376717
-0.369884
-0.362738
-0.350035
-0.318958
-0.32134
-0.32199
-0.323003
-0.323828
-0.324778
-0.325819
-0.32699
-0.32829
-0.329723
-0.33129
-0.332996
-0.334846
-0.336847
-0.339006
-0.341332
-0.34383
-0.346505
-0.349356
-0.352378
-0.355561
-0.358884
-0.362319
-0.365827
-0.369355
-0.37284
-0.376202
-0.37935
-0.382176
-0.384559
-0.386369
-0.387459
-0.387683
-0.386866
-0.384907
-0.381496
-0.376892
-0.369957
-0.363061
-0.350232
-0.31987
-0.322066
-0.322667
-0.323608
-0.324381
-0.325278
-0.32627
-0.327394
-0.328647
-0.330035
-0.331557
-0.333217
-0.335021
-0.336977
-0.339093
-0.341375
-0.343832
-0.346467
-0.349282
-0.35227
-0.355421
-0.358716
-0.362126
-0.365611
-0.369118
-0.372584
-0.375928
-0.379058
-0.381865
-0.384228
-0.386015
-0.387078
-0.387276
-0.386422
-0.384445
-0.380965
-0.376405
-0.369314
-0.362595
-0.349654
-0.320818
-0.322826
-0.323373
-0.324236
-0.324949
-0.325787
-0.326724
-0.327793
-0.328993
-0.330326
-0.331795
-0.333403
-0.335154
-0.337058
-0.339121
-0.341352
-0.343759
-0.346345
-0.349112
-0.352054
-0.355162
-0.358414
-0.361782
-0.365226
-0.368693
-0.372117
-0.375418
-0.3785
-0.381257
-0.383564
-0.385289
-0.386283
-0.386409
-0.385466
-0.383419
-0.379813
-0.375234
-0.36795
-0.361306
-0.348287
-0.321798
-0.323614
-0.324103
-0.324882
-0.32553
-0.326301
-0.327175
-0.328181
-0.329319
-0.330592
-0.332
-0.333547
-0.335238
-0.337081
-0.339084
-0.341256
-0.343604
-0.346132
-0.348842
-0.351728
-0.354779
-0.357975
-0.361287
-0.364674
-0.36808
-0.371441
-0.374673
-0.377681
-0.380355
-0.382571
-0.384195
-0.385076
-0.385081
-0.383996
-0.381823
-0.378037
-0.373364
-0.365865
-0.359177
-0.346126
-0.322802
-0.324427
-0.324853
-0.325543
-0.326118
-0.326815
-0.327617
-0.328552
-0.329621
-0.330825
-0.332165
-0.333644
-0.335268
-0.337043
-0.338979
-0.341084
-0.343365
-0.345826
-0.34847
-0.35129
-0.354274
-0.357403
-0.360644
-0.363957
-0.367286
-0.370562
-0.373701
-0.376607
-0.379168
-0.381257
-0.382739
-0.383461
-0.383294
-0.382015
-0.379651
-0.375637
-0.370785
-0.363064
-0.356209
-0.343179
-0.323824
-0.325261
-0.32562
-0.326215
-0.326709
-0.327324
-0.328046
-0.328903
-0.329895
-0.331022
-0.332287
-0.33369
-0.335239
-0.33694
-0.338802
-0.340833
-0.343041
-0.345429
-0.347998
-0.350744
-0.353652
-0.356702
-0.359861
-0.363086
-0.366319
-0.369491
-0.372515
-0.375291
-0.377705
-0.379629
-0.380927
-0.381441
-0.381048
-0.379518
-0.376897
-0.372609
-0.367494
-0.359554
-0.352421
-0.339472
-0.324861
-0.326113
-0.3264
-0.326895
-0.327301
-0.327826
-0.32846
-0.32923
-0.330136
-0.33118
-0.332361
-0.333683
-0.335151
-0.336771
-0.338554
-0.340505
-0.342634
-0.344943
-0.347432
-0.350096
-0.35292
-0.355881
-0.358947
-0.36207
-0.365192
-0.368239
-0.371123
-0.37374
-0.375974
-0.377692
-0.378759
-0.379014
-0.378336
-0.3765
-0.373555
-0.368953
-0.363499
-0.355351
-0.347861
-0.335053
-0.325907
-0.326979
-0.327191
-0.327579
-0.32789
-0.328317
-0.328855
-0.32953
-0.330343
-0.331295
-0.332386
-0.33362
-0.335002
-0.336537
-0.338235
-0.340103
-0.342148
-0.344373
-0.346778
-0.349354
-0.352087
-0.354952
-0.357913
-0.360921
-0.363915
-0.366816
-0.369533
-0.37196
-0.373974
-0.375443
-0.376227
-0.376169
-0.375147
-0.372949
-0.369621
-0.364671
-0.358827
-0.350487
-0.342603
-0.329996
-0.326959
-0.327857
-0.32799
-0.328266
-0.328475
-0.328796
-0.329229
-0.3298
-0.330513
-0.331367
-0.332363
-0.333504
-0.334794
-0.33624
-0.33785
-0.339632
-0.34159
-0.343728
-0.346044
-0.348528
-0.351164
-0.353924
-0.356769
-0.359648
-0.362494
-0.365226
-0.367747
-0.369947
-0.3717
-0.372871
-0.373319
-0.372891
-0.371469
-0.36886
-0.365102
-0.359782
-0.353527
-0.345019
-0.336752
-0.324402
-0.328014
-0.328745
-0.328795
-0.328955
-0.329054
-0.32926
-0.329581
-0.330042
-0.330646
-0.331396
-0.332292
-0.333335
-0.33453
-0.335885
-0.337404
-0.339097
-0.340966
-0.343015
-0.345239
-0.347627
-0.350159
-0.352806
-0.355524
-0.358257
-0.360934
-0.363468
-0.36576
-0.367691
-0.369136
-0.369957
-0.370016
-0.369165
-0.367295
-0.364235
-0.360023
-0.354327
-0.347674
-0.339031
-0.330437
-0.318392
-0.32907
-0.329643
-0.329605
-0.329644
-0.329626
-0.329711
-0.329911
-0.330254
-0.330744
-0.331384
-0.332175
-0.333117
-0.334215
-0.335475
-0.336903
-0.338506
-0.340286
-0.342243
-0.344372
-0.346659
-0.349081
-0.351604
-0.354179
-0.356747
-0.359229
-0.361535
-0.363557
-0.365176
-0.366264
-0.366684
-0.366303
-0.364983
-0.362629
-0.359098
-0.35443
-0.348373
-0.341368
-0.332636
-0.323799
-0.312098
-0.330126
-0.33055
-0.330421
-0.330334
-0.330191
-0.330147
-0.330219
-0.330438
-0.330809
-0.331334
-0.332016
-0.332854
-0.333854
-0.335019
-0.336355
-0.337867
-0.339556
-0.341421
-0.343452
-0.345633
-0.347936
-0.350321
-0.352736
-0.355113
-0.357371
-0.35941
-0.36112
-0.36238
-0.363062
-0.363032
-0.362169
-0.360349
-0.357496
-0.353494
-0.348394
-0.342015
-0.334726
-0.325956
-0.316979
-0.30565
-0.331183
-0.331466
-0.331242
-0.331024
-0.330751
-0.33057
-0.330508
-0.330596
-0.330842
-0.33125
-0.331819
-0.332553
-0.333452
-0.334522
-0.335767
-0.337188
-0.338786
-0.340556
-0.342485
-0.344551
-0.346723
-0.348954
-0.351187
-0.353345
-0.355342
-0.357074
-0.358427
-0.359281
-0.359511
-0.358994
-0.357621
-0.355287
-0.351939
-0.347492
-0.342007
-0.335361
-0.32787
-0.319121
-0.310106
-0.299162
-0.332241
-0.332392
-0.332069
-0.331715
-0.331305
-0.330982
-0.33078
-0.330732
-0.33085
-0.331136
-0.331592
-0.332219
-0.333018
-0.333994
-0.335146
-0.336477
-0.337983
-0.339654
-0.341474
-0.343416
-0.345441
-0.347497
-0.349519
-0.351425
-0.353122
-0.354504
-0.355456
-0.355861
-0.355604
-0.354573
-0.352681
-0.349841
-0.346027
-0.341178
-0.335374
-0.328528
-0.320922
-0.312249
-0.303287
-0.29273
-0.333303
-0.333331
-0.332903
-0.332411
-0.331858
-0.331386
-0.331038
-0.33085
-0.330835
-0.330997
-0.331339
-0.331859
-0.332559
-0.33344
-0.334502
-0.335741
-0.337151
-0.338718
-0.34042
-0.342223
-0.344082
-0.345937
-0.347716
-0.349333
-0.350689
-0.351678
-0.352189
-0.352112
-0.351345
-0.349793
-0.34739
-0.344073
-0.33984
-0.334652
-0.328601
-0.321627
-0.313987
-0.305436
-0.296604
-0.286425
-0.334372
-0.334281
-0.333749
-0.333112
-0.33241
-0.331784
-0.331286
-0.330954
-0.330804
-0.330841
-0.331067
-0.331482
-0.332083
-0.33287
-0.33384
-0.334985
-0.336295
-0.33775
-0.33932
-0.340965
-0.342634
-0.344258
-0.345759
-0.347047
-0.348022
-0.34858
-0.348618
-0.348038
-0.346754
-0.344692
-0.341807
-0.33806
-0.333468
-0.32801
-0.321789
-0.314755
-0.307148
-0.298759
-0.290111
-0.280298
-0.335451
-0.335249
-0.334607
-0.333821
-0.332966
-0.332181
-0.331529
-0.33105
-0.330763
-0.330674
-0.330785
-0.331094
-0.331597
-0.33229
-0.333166
-0.334214
-0.335416
-0.336746
-0.338167
-0.339633
-0.341081
-0.34244
-0.343626
-0.344546
-0.345104
-0.345201
-0.344747
-0.343658
-0.341868
-0.339324
-0.336003
-0.331884
-0.327
-0.321343
-0.315022
-0.307987
-0.30047
-0.292268
-0.283844
-0.274378
-0.336547
-0.336237
-0.335482
-0.334543
-0.333529
-0.332582
-0.331771
-0.331143
-0.330718
-0.330503
-0.3305
-0.330703
-0.331108
-0.331705
-0.332485
-0.333428
-0.334511
-0.335701
-0.336953
-0.338211
-0.339407
-0.340465
-0.341298
-0.341816
-0.341927
-0.341545
-0.340592
-0.339005
-0.336736
-0.333753
-0.33005
-0.325624
-0.320517
-0.314728
-0.308366
-0.301379
-0.293991
-0.285994
-0.277818
-0.268682
-0.337664
-0.337249
-0.336377
-0.335281
-0.334104
-0.33299
-0.332019
-0.33124
-0.330677
-0.330336
-0.330218
-0.330316
-0.330622
-0.331121
-0.331798
-0.332627
-0.333578
-0.334607
-0.335663
-0.336683
-0.337593
-0.338314
-0.33876
-0.338846
-0.338492
-0.337624
-0.336183
-0.334123
-0.331415
-0.328045
-0.324023
-0.319354
-0.314087
-0.308222
-0.301868
-0.294965
-0.287735
-0.279952
-0.272039
-0.263215
-0.338809
-0.338291
-0.337296
-0.336039
-0.334696
-0.333413
-0.332279
-0.331349
-0.330646
-0.33018
-0.329947
-0.32994
-0.330144
-0.330541
-0.331106
-0.331809
-0.332608
-0.333452
-0.334283
-0.335032
-0.335621
-0.335971
-0.336002
-0.335639
-0.334812
-0.333466
-0.331559
-0.329062
-0.325965
-0.322266
-0.317984
-0.313132
-0.307759
-0.301867
-0.295558
-0.288764
-0.281709
-0.274143
-0.266501
-0.257974
-0.33999
-0.339366
-0.338245
-0.336823
-0.335309
-0.333854
-0.332557
-0.331474
-0.330633
-0.330042
-0.329695
-0.32958
-0.329679
-0.329966
-0.330408
-0.330967
-0.331591
-0.332224
-0.332798
-0.333241
-0.333476
-0.333428
-0.333024
-0.332202
-0.330908
-0.329104
-0.326765
-0.323877
-0.320443
-0.316473
-0.311986
-0.307005
-0.30157
-0.295687
-0.289448
-0.282783
-0.275912
-0.268562
-0.261197
-0.252951
-0.341214
-0.340481
-0.339229
-0.337637
-0.33595
-0.334321
-0.332859
-0.331624
-0.330645
-0.329928
-0.329466
-0.329241
-0.329228
-0.329395
-0.329699
-0.330093
-0.330517
-0.330907
-0.331192
-0.331297
-0.331149
-0.330681
-0.329832
-0.328554
-0.326811
-0.324579
-0.321848
-0.31862
-0.314902
-0.310712
-0.306072
-0.301003
-0.295542
-0.289696
-0.283543
-0.277018
-0.270334
-0.263198
-0.256112
-0.248135
-0.34249
-0.341641
-0.340254
-0.338487
-0.336624
-0.334819
-0.333192
-0.331805
-0.330688
-0.329845
-0.329265
-0.328926
-0.328793
-0.328825
-0.328973
-0.329178
-0.329373
-0.329488
-0.32945
-0.329188
-0.328635
-0.327735
-0.326442
-0.324721
-0.322555
-0.319932
-0.316856
-0.313335
-0.309384
-0.305021
-0.300268
-0.295147
-0.289685
-0.283895
-0.277838
-0.271461
-0.264961
-0.258037
-0.251232
-0.24351
-0.343825
-0.342852
-0.341325
-0.339379
-0.337337
-0.335355
-0.333563
-0.332024
-0.330769
-0.329799
-0.329098
-0.328636
-0.328372
-0.328254
-0.328222
-0.32821
-0.328144
-0.327952
-0.327562
-0.326909
-0.325936
-0.324601
-0.322873
-0.320733
-0.318176
-0.315205
-0.311829
-0.308062
-0.303922
-0.299427
-0.294594
-0.289446
-0.284002
-0.27828
-0.272324
-0.266099
-0.259777
-0.253066
-0.246541
-0.239063
-0.345228
-0.344121
-0.342448
-0.340318
-0.338095
-0.335935
-0.333978
-0.332287
-0.330893
-0.329794
-0.328966
-0.328373
-0.327962
-0.327673
-0.327436
-0.327177
-0.326819
-0.326289
-0.325521
-0.324459
-0.323061
-0.321297
-0.319152
-0.316622
-0.313712
-0.310434
-0.306801
-0.302831
-0.29854
-0.293944
-0.289059
-0.283904
-0.278491
-0.272844
-0.266987
-0.260916
-0.254759
-0.248271
-0.242025
-0.234784
-0.34671
-0.345455
-0.34363
-0.341311
-0.338903
-0.336565
-0.334442
-0.3326
-0.331066
-0.329833
-0.328871
-0.328134
-0.327559
-0.327075
-0.326604
-0.326066
-0.325385
-0.32449
-0.323324
-0.321844
-0.320021
-0.317843
-0.315306
-0.31242
-0.309196
-0.305652
-0.301802
-0.297665
-0.293254
-0.288584
-0.283666
-0.278517
-0.273145
-0.267574
-0.261815
-0.255892
-0.249881
-0.243628
-0.237653
-0.230666
-0.348277
-0.346858
-0.344877
-0.342363
-0.339769
-0.337251
-0.334963
-0.332969
-0.331292
-0.32992
-0.328815
-0.327917
-0.327156
-0.326451
-0.325715
-0.324868
-0.323833
-0.32255
-0.320972
-0.319072
-0.316835
-0.314263
-0.311365
-0.308157
-0.304657
-0.300883
-0.296852
-0.292579
-0.288074
-0.28335
-0.278414
-0.273281
-0.267955
-0.26246
-0.256796
-0.251009
-0.245117
-0.239095
-0.23334
-0.226683
-0.34994
-0.348339
-0.346195
-0.34348
-0.340699
-0.338
-0.335546
-0.333398
-0.331575
-0.330057
-0.328794
-0.327719
-0.326747
-0.32579
-0.324758
-0.32357
-0.322156
-0.320468
-0.318472
-0.316157
-0.313523
-0.310582
-0.307354
-0.30386
-0.300119
-0.296149
-0.291966
-0.287581
-0.283003
-0.27824
-0.273298
-0.268188
-0.262911
-0.257492
-0.251921
-0.246255
-0.240458
-0.234625
-0.22893
-0.22273
-0.351711
-0.349904
-0.34759
-0.344667
-0.341695
-0.338814
-0.336193
-0.333888
-0.331913
-0.330238
-0.328803
-0.327527
-0.326318
-0.325078
-0.323719
-0.322162
-0.320349
-0.318245
-0.315832
-0.313114
-0.310104
-0.306824
-0.303298
-0.29955
-0.2956
-0.291464
-0.287153
-0.282677
-0.278042
-0.273252
-0.268312
-0.26323
-0.258006
-0.25266
-0.247181
-0.241624
-0.235921
-0.230225
-0.224377
-0.21852
-0.353609
-0.351563
-0.349067
-0.345925
-0.342756
-0.339689
-0.336898
-0.334432
-0.332298
-0.330454
-0.328828
-0.327327
-0.325851
-0.324299
-0.322583
-0.320634
-0.318408
-0.315885
-0.313064
-0.309961
-0.3066
-0.30301
-0.299218
-0.295247
-0.291115
-0.286836
-0.282419
-0.277868
-0.273188
-0.268381
-0.263449
-0.258398
-0.253228
-0.247955
-0.242567
-0.237112
-0.231516
-0.225943
-0.220022
-0.214092
-0.355611
-0.353313
-0.350633
-0.34727
-0.343904
-0.340652
-0.337689
-0.335058
-0.332755
-0.330727
-0.328887
-0.327134
-0.325359
-0.323461
-0.321359
-0.318997
-0.316348
-0.313406
-0.310188
-0.30672
-0.303034
-0.299162
-0.295131
-0.290963
-0.286673
-0.282272
-0.277763
-0.273151
-0.268436
-0.263619
-0.2587
-0.253683
-0.248568
-0.243368
-0.238069
-0.232715
-0.227232
-0.221758
-0.215965
-0.21032
-0.357736
-0.355163
-0.352296
-0.348704
-0.345139
-0.341699
-0.338561
-0.335758
-0.333274
-0.331042
-0.328964
-0.326927
-0.324819
-0.322545
-0.320033
-0.317243
-0.314166
-0.310814
-0.307214
-0.303404
-0.299419
-0.295292
-0.291049
-0.286707
-0.28228
-0.277772
-0.273186
-0.268522
-0.26378
-0.258959
-0.254057
-0.249077
-0.244017
-0.238889
-0.233681
-0.228427
-0.22306
-0.21771
-0.212083
-0.206649
-0.359996
-0.35712
-0.354058
-0.35023
-0.346463
-0.342831
-0.339513
-0.336529
-0.333849
-0.331392
-0.329047
-0.326694
-0.324221
-0.321541
-0.318599
-0.315373
-0.311871
-0.308119
-0.304159
-0.30003
-0.295772
-0.291415
-0.286981
-0.282486
-0.277937
-0.273336
-0.268684
-0.263977
-0.259214
-0.254393
-0.249511
-0.244569
-0.239567
-0.234511
-0.229392
-0.22424
-0.218994
-0.213774
-0.208321
-0.203112
-0.362396
-0.35919
-0.355926
-0.351854
-0.34788
-0.344052
-0.340548
-0.337371
-0.334477
-0.33177
-0.329127
-0.326424
-0.323555
-0.320445
-0.317058
-0.313391
-0.30947
-0.305335
-0.301035
-0.296612
-0.292104
-0.287539
-0.282935
-0.278302
-0.273645
-0.268963
-0.264252
-0.25951
-0.254731
-0.249914
-0.245054
-0.240153
-0.235208
-0.230225
-0.225195
-0.220146
-0.215021
-0.209938
-0.204658
-0.199644
-0.364942
-0.361378
-0.357905
-0.35358
-0.349395
-0.345366
-0.341667
-0.338284
-0.335155
-0.332169
-0.329195
-0.326108
-0.322813
-0.319251
-0.315408
-0.311302
-0.306973
-0.302474
-0.297854
-0.29316
-0.288424
-0.28367
-0.278913
-0.274157
-0.269403
-0.264649
-0.259887
-0.255115
-0.250325
-0.245514
-0.240679
-0.235819
-0.230932
-0.226023
-0.221082
-0.216135
-0.211132
-0.206184
-0.201071
-0.196236
-0.36764
-0.363688
-0.359999
-0.355412
-0.351013
-0.346776
-0.342872
-0.339265
-0.335877
-0.332581
-0.32924
-0.325736
-0.321986
-0.317956
-0.313652
-0.309112
-0.304391
-0.299545
-0.294628
-0.289683
-0.284739
-0.279814
-0.274917
-0.27005
-0.265209
-0.260389
-0.255583
-0.250785
-0.245988
-0.241187
-0.236378
-0.231561
-0.226732
-0.221895
-0.217043
-0.212197
-0.207315
-0.202499
-0.197545
-0.192876
-0.370495
-0.366125
-0.362214
-0.357357
-0.352737
-0.348284
-0.344163
-0.340312
-0.336637
-0.332996
-0.329252
-0.325297
-0.32107
-0.316559
-0.311794
-0.30683
-0.301731
-0.296559
-0.291366
-0.286189
-0.281054
-0.275972
-0.270948
-0.265979
-0.261059
-0.25618
-0.251335
-0.246515
-0.241713
-0.236924
-0.232144
-0.227369
-0.222599
-0.217834
-0.21307
-0.208324
-0.20356
-0.198871
-0.194069
-0.189556
-0.37351
-0.368694
-0.364553
-0.359417
-0.354571
-0.349893
-0.345538
-0.341421
-0.337425
-0.333402
-0.329219
-0.324783
-0.320059
-0.31506
-0.309838
-0.304462
-0.299003
-0.293524
-0.288074
-0.282683
-0.277371
-0.272144
-0.267003
-0.26194
-0.256948
-0.252017
-0.247136
-0.242298
-0.237495
-0.23272
-0.227969
-0.223238
-0.218526
-0.213833
-0.209155
-0.204507
-0.199857
-0.195292
-0.190635
-0.186267
-0.376691
-0.371398
-0.367022
-0.361598
-0.356518
-0.351604
-0.346997
-0.342584
-0.338233
-0.33379
-0.329131
-0.324187
-0.318949
-0.313459
-0.307787
-0.302014
-0.296214
-0.290447
-0.284756
-0.279167
-0.273691
-0.268331
-0.263081
-0.257932
-0.252873
-0.247893
-0.242982
-0.238129
-0.233326
-0.228567
-0.223846
-0.21916
-0.214506
-0.209884
-0.20529
-0.200739
-0.1962
-0.191753
-0.187234
-0.183004
-0.380039
-0.374241
-0.369624
-0.363903
-0.358581
-0.353417
-0.348535
-0.343796
-0.339051
-0.334147
-0.328978
-0.323501
-0.31774
-0.31176
-0.305649
-0.299494
-0.29337
-0.287333
-0.281417
-0.275643
-0.270015
-0.264529
-0.259178
-0.253949
-0.248829
-0.243805
-0.238866
-0.234001
-0.229201
-0.22446
-0.21977
-0.215129
-0.210532
-0.205981
-0.20147
-0.197011
-0.192579
-0.188247
-0.183859
-0.17976
-0.383557
-0.377226
-0.372364
-0.366336
-0.360764
-0.355332
-0.350149
-0.345047
-0.339867
-0.334462
-0.328749
-0.32272
-0.316429
-0.309964
-0.303426
-0.296906
-0.290476
-0.284184
-0.278059
-0.272111
-0.26634
-0.260738
-0.255292
-0.249988
-0.244811
-0.239747
-0.234783
-0.229909
-0.225114
-0.220392
-0.215734
-0.211138
-0.206599
-0.202116
-0.197686
-0.193318
-0.18899
-0.184767
-0.180505
-0.176531
-0.387247
-0.380356
-0.375244
-0.3689
-0.363066
-0.357347
-0.351833
-0.346329
-0.340669
-0.334722
-0.328437
-0.32184
-0.315016
-0.308074
-0.301124
-0.294256
-0.287536
-0.281004
-0.274681
-0.26857
-0.262664
-0.256952
-0.251418
-0.246044
-0.240814
-0.235714
-0.230729
-0.225848
-0.22106
-0.216358
-0.211733
-0.207182
-0.202699
-0.198284
-0.193933
-0.189653
-0.185425
-0.181307
-0.177166
-0.17331
-0.39111
-0.383633
-0.378267
-0.371598
-0.365488
-0.359459
-0.353579
-0.347629
-0.341443
-0.334916
-0.328032
-0.320856
-0.313502
-0.306094
-0.298747
-0.291546
-0.284552
-0.277793
-0.271283
-0.265018
-0.258986
-0.25317
-0.247552
-0.242112
-0.236834
-0.231701
-0.226697
-0.221812
-0.217033
-0.212352
-0.207761
-0.203254
-0.198828
-0.194479
-0.190205
-0.186011
-0.181879
-0.177862
-0.173837
-0.170094
-0.395145
-0.38706
-0.381436
-0.374431
-0.36803
-0.361663
-0.355378
-0.348934
-0.342178
-0.335034
-0.327529
-0.319767
-0.311887
-0.304025
-0.296296
-0.288779
-0.281524
-0.274552
-0.267865
-0.261454
-0.255301
-0.249387
-0.24369
-0.23819
-0.232867
-0.227703
-0.222684
-0.217796
-0.213028
-0.208369
-0.203812
-0.199351
-0.19498
-0.190696
-0.186497
-0.182386
-0.178348
-0.174428
-0.170513
-0.166879
-0.399354
-0.390637
-0.384752
-0.3774
-0.37069
-0.363953
-0.357219
-0.350232
-0.342858
-0.335063
-0.32692
-0.31857
-0.310172
-0.30187
-0.293775
-0.285957
-0.278454
-0.271278
-0.264423
-0.257873
-0.251607
-0.2456
-0.239829
-0.234271
-0.228907
-0.223717
-0.218684
-0.213796
-0.20904
-0.204405
-0.199882
-0.195466
-0.19115
-0.18693
-0.182804
-0.178773
-0.174825
-0.170999
-0.167191
-0.16366
-0.403733
-0.394364
-0.388217
-0.380504
-0.373464
-0.36632
-0.359088
-0.351506
-0.34347
-0.334994
-0.326201
-0.317263
-0.308358
-0.29963
-0.291184
-0.283078
-0.27534
-0.26797
-0.260955
-0.254274
-0.247899
-0.241804
-0.235963
-0.230353
-0.22495
-0.219736
-0.214694
-0.209807
-0.205064
-0.200454
-0.195967
-0.191595
-0.187333
-0.183177
-0.179122
-0.175169
-0.171308
-0.167572
-0.163866
-0.160434
-0.408279
-0.398242
-0.391828
-0.383743
-0.376346
-0.368755
-0.360973
-0.352742
-0.344
-0.334818
-0.325365
-0.315845
-0.306444
-0.297306
-0.288523
-0.280143
-0.27218
-0.264626
-0.257459
-0.250651
-0.244174
-0.237996
-0.23209
-0.22643
-0.220993
-0.215758
-0.210707
-0.205825
-0.201097
-0.196512
-0.192061
-0.187734
-0.183526
-0.179431
-0.175446
-0.171569
-0.167792
-0.164143
-0.160536
-0.157198
-0.41299
-0.402267
-0.395586
-0.387111
-0.379329
-0.371244
-0.362855
-0.353923
-0.344436
-0.334527
-0.32441
-0.314314
-0.304432
-0.294898
-0.285793
-0.277151
-0.268973
-0.261242
-0.25393
-0.247003
-0.240428
-0.234171
-0.228204
-0.222499
-0.217031
-0.211778
-0.206722
-0.201845
-0.197134
-0.192576
-0.18816
-0.183879
-0.179723
-0.175689
-0.171772
-0.16797
-0.164274
-0.160709
-0.157196
-0.153948
-0.417858
-0.406437
-0.399487
-0.390604
-0.382403
-0.373773
-0.364719
-0.355031
-0.344764
-0.334111
-0.323331
-0.312669
-0.302319
-0.292405
-0.282992
-0.274098
-0.265716
-0.257816
-0.250365
-0.243324
-0.236656
-0.230327
-0.224302
-0.218555
-0.213059
-0.207792
-0.202733
-0.197864
-0.193171
-0.188641
-0.184262
-0.180025
-0.175923
-0.171948
-0.168097
-0.164367
-0.16075
-0.157265
-0.153844
-0.150683
-0.422877
-0.410748
-0.403525
-0.394215
-0.385555
-0.376325
-0.366545
-0.356051
-0.344972
-0.333564
-0.322123
-0.310909
-0.300106
-0.289826
-0.280117
-0.270984
-0.262405
-0.254344
-0.246761
-0.239612
-0.232856
-0.226457
-0.220381
-0.214596
-0.209075
-0.203796
-0.198736
-0.193878
-0.189205
-0.184703
-0.180362
-0.17617
-0.172119
-0.168204
-0.164418
-0.160758
-0.157217
-0.153811
-0.150477
-0.1474
-0.428039
-0.415194
-0.407694
-0.397934
-0.388772
-0.378881
-0.368313
-0.356966
-0.345048
-0.332879
-0.320785
-0.30903
-0.29779
-0.287159
-0.277167
-0.267804
-0.259037
-0.250823
-0.243113
-0.235861
-0.229024
-0.22256
-0.216435
-0.210616
-0.205075
-0.199787
-0.194729
-0.189883
-0.185231
-0.18076
-0.176456
-0.172309
-0.168311
-0.164453
-0.160731
-0.157139
-0.153673
-0.150342
-0.147094
-0.144095
-0.433332
-0.419767
-0.411986
-0.401748
-0.392036
-0.38142
-0.370003
-0.357759
-0.344981
-0.332048
-0.319311
-0.307031
-0.29537
-0.284401
-0.274137
-0.264554
-0.255608
-0.247247
-0.239418
-0.232069
-0.225154
-0.218631
-0.212462
-0.206613
-0.201055
-0.195761
-0.190708
-0.185876
-0.181248
-0.176807
-0.172542
-0.168441
-0.164494
-0.160694
-0.157034
-0.153509
-0.150114
-0.146857
-0.143691
-0.140768
-0.438745
-0.424458
-0.41639
-0.405644
-0.395328
-0.383921
-0.371594
-0.358414
-0.344761
-0.331066
-0.317697
-0.304909
-0.292842
-0.281549
-0.271025
-0.261232
-0.252115
-0.243614
-0.235671
-0.228231
-0.221245
-0.214667
-0.208458
-0.202583
-0.197011
-0.191715
-0.186669
-0.181854
-0.17725
-0.172843
-0.168617
-0.164561
-0.160666
-0.156923
-0.153324
-0.149865
-0.14654
-0.143354
-0.140266
-0.137417
-0.444263
-0.429256
-0.420891
-0.409604
-0.398625
-0.386359
-0.373065
-0.358915
-0.344376
-0.329926
-0.315941
-0.30266
-0.290202
-0.278599
-0.267827
-0.257833
-0.248553
-0.239919
-0.231869
-0.224344
-0.217291
-0.210664
-0.20442
-0.198523
-0.192941
-0.187645
-0.18261
-0.177813
-0.173237
-0.168863
-0.164678
-0.160668
-0.156824
-0.153137
-0.149599
-0.146204
-0.142947
-0.13983
-0.136819
-0.13404
-0.449869
-0.434147
-0.425476
-0.41361
-0.401905
-0.38871
-0.374396
-0.359247
-0.343818
-0.328623
-0.314036
-0.30028
-0.287448
-0.275549
-0.264539
-0.254353
-0.244917
-0.236158
-0.228008
-0.220404
-0.21329
-0.206618
-0.200344
-0.19443
-0.188842
-0.18355
-0.178527
-0.173752
-0.169204
-0.164866
-0.160722
-0.156759
-0.152967
-0.149335
-0.145857
-0.142525
-0.139335
-0.136285
-0.133348
-0.130636
-0.455546
-0.439115
-0.430126
-0.417638
-0.40514
-0.390949
-0.375564
-0.359395
-0.343077
-0.327149
-0.31198
-0.297766
-0.284576
-0.272392
-0.261155
-0.250787
-0.241205
-0.232328
-0.224084
-0.216406
-0.209238
-0.202527
-0.196228
-0.1903
-0.18471
-0.179425
-0.174419
-0.169667
-0.16515
-0.160848
-0.156747
-0.152832
-0.149091
-0.145516
-0.142096
-0.138826
-0.135701
-0.132716
-0.129852
-0.127204
-0.461272
-0.444144
-0.434819
-0.421664
-0.408304
-0.393048
-0.37655
-0.359346
-0.342143
-0.325499
-0.309766
-0.295113
-0.281579
-0.269125
-0.257672
-0.247132
-0.23741
-0.228423
-0.220093
-0.212349
-0.205132
-0.198387
-0.192068
-0.186132
-0.180543
-0.175269
-0.170282
-0.165557
-0.161072
-0.156809
-0.152751
-0.148884
-0.145196
-0.141676
-0.138315
-0.135106
-0.132044
-0.129124
-0.126328
-0.123743
-0.467023
-0.449212
-0.439534
-0.425661
-0.411365
-0.394982
-0.377334
-0.359086
-0.341008
-0.323666
-0.30739
-0.292316
-0.278455
-0.265742
-0.254086
-0.243382
-0.233531
-0.224442
-0.216032
-0.208229
-0.200969
-0.194196
-0.187861
-0.181921
-0.176338
-0.171079
-0.166114
-0.161418
-0.156968
-0.152746
-0.148733
-0.144915
-0.141279
-0.137814
-0.134512
-0.131363
-0.128363
-0.125506
-0.122778
-0.120252
-0.472776
-0.454297
-0.444244
-0.4296
-0.414295
-0.396724
-0.377897
-0.358602
-0.339663
-0.321644
-0.304846
-0.28937
-0.275197
-0.26224
-0.25039
-0.239533
-0.229562
-0.220378
-0.211897
-0.204041
-0.196745
-0.18995
-0.183605
-0.177666
-0.172093
-0.166852
-0.161913
-0.157249
-0.152836
-0.148656
-0.144689
-0.140921
-0.137339
-0.13393
-0.130685
-0.127597
-0.124658
-0.121862
-0.1192
-0.116731
-0.478502
-0.459375
-0.448921
-0.433448
-0.417061
-0.398249
-0.378219
-0.357881
-0.3381
-0.319427
-0.302128
-0.28627
-0.2718
-0.258613
-0.246581
-0.235582
-0.225499
-0.21623
-0.207684
-0.199783
-0.192458
-0.185647
-0.179298
-0.173364
-0.167806
-0.162587
-0.157677
-0.153047
-0.148675
-0.144539
-0.14062
-0.136903
-0.133374
-0.130022
-0.126835
-0.123806
-0.120927
-0.118192
-0.115594
-0.11318
-0.484171
-0.464418
-0.453534
-0.437173
-0.419632
-0.399531
-0.378283
-0.356912
-0.336309
-0.317007
-0.299231
-0.283009
-0.26826
-0.254856
-0.242655
-0.231523
-0.221338
-0.211993
-0.203392
-0.195453
-0.188104
-0.181284
-0.174936
-0.169013
-0.163474
-0.158282
-0.153404
-0.148812
-0.144482
-0.140392
-0.136523
-0.132859
-0.129385
-0.126089
-0.12296
-0.11999
-0.117171
-0.114495
-0.111959
-0.109599
-0.489752
-0.469398
-0.458052
-0.440739
-0.421975
-0.400545
-0.378072
-0.355682
-0.334284
-0.314378
-0.296149
-0.279583
-0.264571
-0.250963
-0.238605
-0.227353
-0.217077
-0.207664
-0.199016
-0.191047
-0.183683
-0.176859
-0.170518
-0.164612
-0.159096
-0.153934
-0.149092
-0.144542
-0.140257
-0.136215
-0.132398
-0.128787
-0.125369
-0.12213
-0.119059
-0.116148
-0.113388
-0.110771
-0.108296
-0.105987
-0.495211
-0.474282
-0.462438
-0.44411
-0.424059
-0.401267
-0.377568
-0.35418
-0.332015
-0.311534
-0.292874
-0.275986
-0.260728
-0.246932
-0.234429
-0.223068
-0.21271
-0.20324
-0.194553
-0.186562
-0.17919
-0.172369
-0.166042
-0.160157
-0.15467
-0.149543
-0.144741
-0.140235
-0.135998
-0.132007
-0.128243
-0.124687
-0.121326
-0.118144
-0.115132
-0.11228
-0.109579
-0.10702
-0.104605
-0.102346
-0.500512
-0.479038
-0.466655
-0.44725
-0.425851