/*--------------------------------*- C++ -*----------------------------------*\
  =========                 |
  \\      /  F ield         | OpenFOAM: The Open Source CFD Toolbox
   \\    /   O peration     | Website:  https://openfoam.org
    \\  /    A nd           | Version:  7
     \\/     M anipulation  |
\*---------------------------------------------------------------------------*/
FoamFile
{
    version     2.0;
    format      ascii;
    class       surfaceScalarField;
    location    "10";
    object      phi;
}
// * * * * * * * * * * * * * * * * * * * * * * * * * * * * * * * * * * * * * //

dimensions      [0 3 -1 0 0 0 0];

internalField   nonuniform List<scalar> 
96230
(
-5.7819e-06
5.78223e-06
-3.30807e-10
-1.91828e-05
1.34016e-05
-7.38277e-10
-3.81373e-05
1.89555e-05
-9.82853e-10
-6.11867e-05
2.30506e-05
-1.11234e-09
-8.74141e-05
2.62285e-05
-1.16758e-09
-0.000116237
2.88236e-05
-1.17724e-09
-0.000147319
3.10837e-05
-1.16035e-09
-0.000180496
3.31779e-05
-1.1277e-09
-0.000215717
3.52226e-05
-1.0839e-09
-0.00025301
3.7294e-05
-1.02962e-09
-0.000292449
3.94399e-05
-9.63372e-10
-0.000334136
4.16877e-05
-8.82774e-10
-0.000378186
4.40506e-05
-7.84678e-10
-0.000424717
4.65317e-05
-6.66573e-10
-0.000473843
4.91261e-05
-5.25903e-10
-0.000525665
5.18224e-05
-3.60149e-10
-0.000580268
5.46032e-05
-1.67057e-10
-0.000637713
5.74448e-05
5.5263e-11
-0.00069803
6.03169e-05
3.08288e-10
-0.000761213
6.31825e-05
5.93104e-10
-0.00082721
6.59966e-05
9.10053e-10
-0.000895918
6.87062e-05
1.25885e-09
-0.000967169
7.12497e-05
1.63841e-09
-0.00104073
7.35563e-05
2.04665e-09
-0.00111628
7.55462e-05
2.48046e-09
-0.00119341
7.71303e-05
2.93553e-09
-0.00127162
7.82104e-05
3.40633e-09
-0.00135031
7.868e-05
3.88598e-09
-0.00142874
7.84252e-05
4.36622e-09
-0.00150607
7.73269e-05
4.83739e-09
-0.00158134
7.52643e-05
5.28823e-09
-0.00165346
7.21204e-05
5.70614e-09
-0.00172126
6.77918e-05
6.07722e-09
-0.00178347
6.22036e-05
6.38659e-09
-0.00183881
5.5329e-05
6.61908e-09
-0.00188604
4.72257e-05
6.76001e-09
-0.00192414
3.809e-05
6.79701e-09
-0.00195233
2.8183e-05
6.72123e-09
-0.00197007
1.77414e-05
6.52447e-09
7.89311e-06
6.20398e-09
-0.00197797
-5.73988e-06
1.15221e-05
-1.90545e-05
2.67163e-05
-3.78908e-05
3.77917e-05
-6.07954e-05
4.59551e-05
-8.68509e-05
5.22841e-05
-0.000115472
5.74444e-05
-0.000146318
6.19299e-05
-0.000179218
6.60776e-05
-0.000214114
7.01191e-05
-0.000251026
7.42063e-05
-0.00029002
7.84338e-05
-0.000331188
8.28558e-05
-0.000374636
8.74981e-05
-0.00042047
9.23655e-05
-0.000468791
9.74476e-05
-0.000519689
0.000102721
-0.000573234
0.000108148
-0.000629471
0.000113682
-0.000688415
0.00011926
-0.00075004
0.000124808
-0.000814277
0.000130233
-0.000881
0.00013543
-0.000950023
0.000140273
-0.00102109
0.00014462
-0.00109385
0.000148313
-0.00116789
0.000151171
-0.00124268
0.000153
-0.00131759
0.000153587
-0.00139187
0.000152706
-0.00146467
0.000150121
-0.00153499
0.000145592
-0.00160176
0.000138885
-0.00166376
0.000129791
-0.0017197
0.000118151
-0.00176827
0.000103895
-0.00180815
8.71074e-05
-0.00183821
6.81484e-05
-0.00185762
4.75887e-05
-0.0018658
2.5925e-05
4.99221e-06
-0.0018629
-5.65829e-06
1.71804e-05
-1.88029e-05
3.98609e-05
-3.74051e-05
5.63939e-05
-6.00221e-05
6.85721e-05
-8.57363e-05
7.79983e-05
-0.000113956
8.56643e-05
-0.000144332
9.23062e-05
-0.000176681
9.84264e-05
-0.000210932
0.00010437
-0.000247088
0.000110362
-0.000285199
0.000116544
-0.000325338
0.000122995
-0.00036759
0.000129751
-0.000412042
0.000136817
-0.000458771
0.000144176
-0.00050784
0.00015179
-0.000559292
0.0001596
-0.000613142
0.000167532
-0.000669373
0.000175491
-0.000727925
0.00018336
-0.000788691
0.000191
-0.000851509
0.000198248
-0.000916152
0.000204915
-0.000982319
0.000210788
-0.00104963
0.000215624
-0.00111762
0.000219158
-0.00118571
0.000221096
-0.00125325
0.000221125
-0.00131946
0.00021891
-0.00138344
0.000214101
-0.00144419
0.000206344
-0.00150059
0.000195291
-0.00155143
0.000180625
-0.00159537
0.000162094
-0.00163104
0.000139559
-0.00165701
0.000113079
-0.00167196
8.30992e-05
-0.00167491
5.05398e-05
-0.00166523
1.62455e-05
-1.79699e-05
-0.00164227
-5.53837e-06
2.27188e-05
-1.84315e-05
5.2754e-05
-3.66866e-05
7.4649e-05
-5.88767e-05
9.07622e-05
-8.40838e-05
0.000103205
-0.000111708
0.000113289
-0.000141386
0.000121984
-0.000172917
0.000129957
-0.00020621
0.000137662
-0.000241244
0.000145397
-0.000278046
0.000153346
-0.000316661
0.00016161
-0.000357146
0.000170236
-0.000399556
0.000179227
-0.000443933
0.000188554
-0.000490305
0.000198161
-0.000538674
0.000207969
-0.000589014
0.000217872
-0.00064126
0.000227737
-0.000695306
0.000237405
-0.000750993
0.000246687
-0.000808105
0.00025536
-0.00086636
0.000263171
-0.000925404
0.000269831
-0.000984799
0.000275019
-0.00104402
0.000278381
-0.00110246
0.000279532
-0.00115939
0.000278059
-0.00121401
0.000273524
-0.00126538
0.000265474
-0.00131249
0.000253451
-0.00135419
0.000237
-0.00138927
0.000215703
-0.00141639
0.000189208
-0.00143412
0.000157289
-0.00144096
0.000119924
-0.00143539
7.75294e-05
-0.00141611
3.12554e-05
-0.00138266
-1.71993e-05
-6.79186e-05
-0.00133271
-5.38199e-06
2.81008e-05
-1.79457e-05
6.53177e-05
-3.57451e-05
9.24484e-05
-5.73738e-05
0.000112391
-8.19137e-05
0.000127745
-0.000108754
0.000140129
-0.000137514
0.000150745
-0.00016797
0.000160412
-0.000200003
0.000169696
-0.000233566
0.00017896
-0.000268652
0.000188431
-0.000305272
0.000198231
-0.000343446
0.00020841
-0.000383188
0.000218969
-0.000424499
0.000229865
-0.00046736
0.000241021
-0.000511722
0.000252332
-0.000557507
0.000263657
-0.000604595
0.000274825
-0.000652819
0.000285629
-0.000701959
0.000295827
-0.000751737
0.000305138
-0.000801805
0.000313239
-0.000851744
0.00031977
-0.000901054
0.00032433
-0.000949153
0.000326481
-0.00099537
0.000325749
-0.00103894
0.00032163
-0.00107901
0.000313596
-0.00111464
0.000301101
-0.00114478
0.000283594
-0.00116832
0.000260534
-0.00118403
0.000231412
-0.00119061
0.000195788
-0.00118666
0.000153348
-0.00117069
0.00010395
-0.00114102
4.78646e-05
-0.00109596
-1.38088e-05
-0.00103535
-7.78098e-05
-0.000148524
-0.000954745
-5.19161e-06
3.32924e-05
-1.73525e-05
7.74786e-05
-3.45932e-05
0.000109689
-5.55326e-05
0.00013333
-7.92525e-05
0.000151465
-0.00010513
0.000166006
-0.000132761
0.000178376
-0.000161897
0.000189548
-0.000192386
0.000200185
-0.000224147
0.000210721
-0.000257133
0.000221417
-0.000291317
0.000232414
-0.000326673
0.000243767
-0.000363169
0.000255465
-0.000400754
0.00026745
-0.000439356
0.000279624
-0.000478871
0.000291847
-0.000519159
0.000303944
-0.000560035
0.000315701
-0.000601269
0.000326863
-0.000642573
0.000337131
-0.000683598
0.000346163
-0.000723931
0.000353572
-0.000763085
0.000358923
-0.000800497
0.000361742
-0.000835526
0.00036151
-0.000867451
0.000357674
-0.000895469
0.000349648
-0.000918698
0.000336825
-0.000936179
0.000318582
-0.00094688
0.000294295
-0.000949702
0.000263356
-0.000943479
0.000225189
-0.000926975
0.000179284
-0.00089889
0.000125263
-0.000857783
6.28425e-05
-0.000802081
-7.83709e-06
-0.000729636
-8.62537e-05
-0.000640577
-0.000166869
-0.000260041
-0.000529061
-4.97019e-06
3.82626e-05
-1.66604e-05
8.91688e-05
-3.32464e-05
0.000126275
-5.33764e-05
0.00015346
-7.61324e-05
0.000174221
-0.000100877
0.000190751
-0.000127183
0.000204682
-0.000154768
0.000217133
-0.000183448
0.000228865
-0.000213099
0.000240372
-0.000243632
0.00025195
-0.000274973
0.000263756
-0.000307048
0.000275842
-0.000339772
0.000288189
-0.000373039
0.000300717
-0.000406717
0.000313301
-0.00044064
0.00032577
-0.000474603
0.000337908
-0.000508357
0.000349455
-0.000541602
0.000360107
-0.00057398
0.000369509
-0.000605075
0.000377259
-0.000634407
0.000382904
-0.000661426
0.000385942
-0.000685513
0.000385829
-0.000705978
0.000381975
-0.000722059
0.000373755
-0.000732927
0.000360516
-0.000737688
0.000341586
-0.000735388
0.000316282
-0.00072502
0.000283927
-0.000705531
0.000243867
-0.000675827
0.000195485
-0.000634767
0.000138224
-0.000581193
7.16884e-05
-0.000513739
-4.61101e-06
-0.000431426
-9.01503e-05
-0.000331232
-0.000186447
-0.000212507
-0.000285594
-0.000396486
-7.60622e-05
-4.72117e-06
4.29837e-05
-1.58792e-05
0.000100327
-3.17225e-05
0.000142118
-5.09322e-05
0.00017267
-7.2591e-05
0.00019588
-9.60459e-05
0.000214206
-0.000120843
0.00022948
-0.000146666
0.000242956
-0.000173291
0.00025549
-0.000200551
0.000267632
-0.000228309
0.000279709
-0.000256443
0.000291889
-0.000284824
0.000304223
-0.000313311
0.000316675
-0.000341739
0.000329146
-0.000369916
0.000341478
-0.000397611
0.000353465
-0.000424553
0.00036485
-0.000450427
0.000375329
-0.000474864
0.000384545
-0.000497443
0.000392088
-0.000517683
0.000397499
-0.000535044
0.000400265
-0.000548923
0.000399821
-0.000558655
0.000395561
-0.000563513
0.000386833
-0.000562714
0.000372955
-0.000555417
0.00035322
-0.000540735
0.000326904
-0.000517737
0.000293284
-0.000485459
0.000251649
-0.000442911
0.000201319
-0.000389082
0.000141655
-0.000322926
7.20682e-05
-0.000243433
-7.80467e-06
-0.000149486
-9.85572e-05
-4.00416e-05
-0.000199595
8.60764e-05
-0.000312565
0.000232864
-0.000432382
-0.000563003
0.000399382
-4.44838e-06
4.74321e-05
-1.502e-05
0.000110899
-3.00416e-05
0.00015714
-4.82303e-05
0.000190859
-6.86702e-05
0.00021632
-9.0692e-05
0.000236228
-0.000113814
0.000252601
-0.000137682
0.000266824
-0.000162031
0.000279839
-0.000186648
0.000292248
-0.000211347
0.000304408
-0.000235951
0.000316493
-0.000260278
0.00032855
-0.000284128
0.000340525
-0.000307277
0.000352295
-0.00032947
0.00036367
-0.000350413
0.000374408
-0.000369772
0.000384209
-0.000387167
0.000392724
-0.000402167
0.000399545
-0.000414292
0.000404213
-0.000423005
0.000406212
-0.000427717
0.000404977
-0.000427785
0.000399889
-0.000422511
0.000390287
-0.000411149
0.000375472
-0.000392909
0.000354715
-0.000366959
0.000327269
-0.000332435
0.00029238
-0.000288445
0.000249294
-0.000234082
0.000197287
-0.000168429
0.000135665
-9.05688e-05
6.37951e-05
4.12387e-07
-1.89131e-05
0.000105458
-0.000112851
0.000225564
-0.000218663
0.000361182
-0.000335213
0.000514678
-0.000466061
0.000685101
-0.000602806
-0.00075784
0.000879938
-4.15599e-06
5.15881e-05
-1.40947e-05
0.000120837
-2.82254e-05
0.000171271
-4.5304e-05
0.000207937
-6.44162e-05
0.000235432
-8.48761e-05
0.000256688
-0.000106172
0.000273897
-0.000127914
0.000288566
-0.000149792
0.000301717
-0.000171545
0.000314001
-0.000192937
0.0003258
-0.000213737
0.000337293
-0.000233706
0.000348519
-0.000252588
0.000359407
-0.000270098
0.000369805
-0.000285921
0.000379494
-0.000299704
0.000388191
-0.000311052
0.000395557
-0.000319527
0.000401198
-0.000324644
0.000404662
-0.00032587
0.000405439
-0.000322627
0.000402969
-0.000314287
0.000396638
-0.00030018
0.000385781
-0.000279592
0.000369699
-0.000251774
0.000347654
-0.000215943
0.000318884
-0.000171292
0.000282618
-0.000116993
0.000238081
-5.22083e-05
0.000184509
2.39088e-05
0.00012117
0.000112214
4.73602e-05
0.000213525
-3.75162e-05
0.000328702
-0.00013409
0.000458415
-0.000242564
0.000603749
-0.000363997
0.000764816
-0.00049628
0.000943728
-0.000644973
0.00113855
-0.000797627
-0.000977412
0.00135812
-3.84839e-06
5.54365e-05
-1.3116e-05
0.000130105
-2.62974e-05
0.000184452
-4.21886e-05
0.000223829
-5.98778e-05
0.000253121
-7.86629e-05
0.000275473
-9.80025e-05
0.000293237
-0.000117468
0.000308031
-0.000136706
0.000320954
-0.000155407
0.000332702
-0.000173283
0.000343676
-0.00019005
0.000354061
-0.000205415
0.000363883
-0.000219063
0.000373055
-0.000230655
0.000381397
-0.000239818
0.000388657
-0.000246144
0.000394516
-0.000249183
0.000398597
-0.000248447
0.000400462
-0.000243405
0.00039962
-0.000233484
0.000395519
-0.000218072
0.000387557
-0.000196519
0.000375085
-0.000168139
0.000357401
-0.000132217
0.000333776
-8.80114e-05
0.000303448
-3.47624e-05
0.000265635
2.83066e-05
0.000219549
0.000101981
0.000164407
0.000187044
9.94469e-05
0.000284277
2.39366e-05
0.000394453
-6.28163e-05
0.000518323
-0.000161386
0.000656666
-0.000272432
0.000810054
-0.000395953
0.000979456
-0.000533399
0.00116481
-0.000681628
0.00136796
-0.000848126
0.00158619
-0.00101586
-0.00121977
0.00182855
-3.53015e-06
5.89666e-05
-1.20972e-05
0.000138672
-2.42818e-05
0.000196637
-3.8921e-05
0.000238468
-5.51065e-05
0.000269307
-7.21201e-05
0.000292486
-8.93911e-05
0.000310508
-0.000106453
0.000325093
-0.000122909
0.00033741
-0.000138401
0.000348194
-0.000152591
0.000357867
-0.000165144
0.000366613
-0.000175712
0.000374451
-0.000183928
0.000381272
-0.0001894
0.000386869
-0.000191702
0.000390959
-0.000190376
0.00039319
-0.000184927
0.000393148
-0.000174824
0.000390359
-0.000159499
0.000384294
-0.000138349
0.000374369
-0.00011074
0.000359948
-7.60094e-05
0.000340354
-3.34676e-05
0.000314859
1.75932e-05
0.000282715
7.78992e-05
0.000243142
0.000148182
0.000195352
0.00022918
0.00013855
0.000321633
7.19539e-05
0.000426277
-5.19697e-06
0.000543835
-9.36219e-05
0.000675024
-0.000194005
0.000820519
-0.000306882
0.000981017
-0.00043293
0.00115701
-0.000571944
0.00134928
-0.000725668
0.00155768
-0.000890027
0.00178371
-0.00107416
0.00202403
-0.00125618
-0.00148299
0.00228725
-3.20588e-06
6.21725e-05
-1.10518e-05
0.000146518
-2.22033e-05
0.000207788
-3.55392e-05
0.000251804
-5.01547e-05
0.000283922
-6.53168e-05
0.000307648
-8.04264e-05
0.000325618
-9.498e-05
0.000339647
-0.000108538
0.000350968
-0.000120696
0.000360353
-0.000131069
0.000368239
-0.000139269
0.000374814
-0.000144901
0.000380083
-0.000147547
0.000383918
-0.000146765
0.000386088
-0.000142086
0.000386279
-0.000133006
0.00038411
-0.000118992
0.000379134
-9.9478e-05
0.000370845
-7.3868e-05
0.000358684
-4.15389e-05
0.00034204
-1.84434e-06
0.000320253
4.58904e-05
0.000292619
0.000102344
0.000258406
0.000168215
0.000216844
0.000244207
0.00016715
0.000331028
0.000108532
0.000429384
4.01944e-05
0.000539977
-3.8639e-05
0.0006635
-0.00012872
0.000800632
-0.000230754
0.00095203
-0.000345403
0.00111831
-0.000473162
0.00130005
-0.00061467
0.00149769
-0.00076958
0.00171167
-0.000939657
0.00194185
-0.0011202
0.00218915
-0.00132146
0.00244985
-0.00151688
-0.00176455
0.00273142
-2.88021e-06
6.50527e-05
-9.99323e-06
0.000153631
-2.0087e-05
0.000217882
-3.20811e-05
0.000263798
-4.50754e-05
0.000296917
-5.83227e-05
0.000320896
-7.11969e-05
0.000338492
-8.31592e-05
0.000351609
-9.37288e-05
0.000361537
-0.000102458
0.000369082
-0.000108915
0.000374696
-0.000112666
0.000378565
-0.000113267
0.000380684
-0.000110258
0.000380908
-0.000103151
0.000378981
-9.14364e-05
0.000374565
-7.45742e-05
0.000367248
-5.19977e-05
0.000356557
-2.31138e-05
0.000341961
1.2695e-05
0.000322876
5.6067e-05
0.000298668
0.000107659
0.000268662
0.000168139
0.000232139
0.000238188
0.000188356
0.000318492
0.00013654
0.000409738
7.59041e-05
0.000512614
5.65624e-06
0.000627801
-7.49933e-05
0.000755975
-0.000166812
0.000897793
-0.000270538
0.00105389
-0.000386853
0.00122486
-0.000516373
0.00141125
-0.000659553
0.00161346
-0.000816873
0.00183185
-0.000987969
0.00206638
-0.00117419
0.00231687
-0.00137069
0.00258335
-0.00158794
0.00286214
-0.00179568
-0.00206093
0.00315852
-2.55762e-06
6.76103e-05
-8.93475e-06
0.000160008
-1.79574e-05
0.000226905
-2.85844e-05
0.000274425
-3.99206e-05
0.000308253
-5.1206e-05
0.000332181
-6.17891e-05
0.000349075
-7.1098e-05
0.000360918
-7.86131e-05
0.000369052
-8.38456e-05
0.000374315
-8.63193e-05
0.00037717
-8.55579e-05
0.000377803
-8.10749e-05
0.000376201
-7.23671e-05
0.0003722
-5.89103e-05
0.000365524
-4.0157e-05
0.000355811
-1.55358e-05
0.000342627
1.5548e-05
0.000325474
5.37102e-05
0.000303799
9.9586e-05
0.000277
0.000153826
0.000244428
0.000217094
0.000205394
0.000290062
0.000159171
0.000373408
0.000105011
0.000467812
4.2136e-05
0.000573955
-3.02384e-05
0.000692512
-0.000112901
0.000824149
-0.000206631
0.000969518
-0.000312181
0.00112924
-0.000430261
0.0013039
-0.000561513
0.00149398
-0.000706455
0.00169993
-0.000865502
0.00192185
-0.00103879
0.00215998
-0.0012261
0.00241361
-0.00142781
0.00268245
-0.00163953
0.00296525
-0.00187074
0.00325885
-0.00208928
-0.00236729
0.00356522
-2.24244e-06
6.98528e-05
-7.88912e-06
0.000165655
-1.58381e-05
0.000234854
-2.50853e-05
0.000283672
-3.47405e-05
0.000317908
-4.40323e-05
0.000341473
-5.22858e-05
0.000357328
-5.88979e-05
0.00036753
-6.3313e-05
0.000373467
-6.50034e-05
0.000376005
-6.34527e-05
0.000375619
-5.81442e-05
0.000372495
-4.8552e-05
0.000366609
-3.4135e-05
0.000357783
-1.43337e-05
0.000345723
1.14318e-05
0.000330046
4.3762e-05
0.000310297
8.32767e-05
0.000285959
0.000130613
0.000256462
0.000186425
0.000221189
0.000251375
0.000179477
0.000326139
0.000130629
0.000411397
7.39136e-05
0.000507832
8.57532e-06
0.000616129
-6.61609e-05
0.000736967
-0.000151076
0.000871016
-0.00024695
0.00101893
-0.000354542
0.00118132
-0.000474574
0.00135875
-0.000607694
0.00155172
-0.000754477
0.00176052
-0.000915261
0.00198542
-0.0010904
0.0022261
-0.00127948
0.00248252
-0.00148251
0.00275315
-0.00169844
0.00303749
-0.00192387
0.00333265
-0.00216591
0.00363649
-0.00239312
-0.0026775
0.0039467
-1.93869e-06
7.17915e-05
-6.86833e-06
0.000170584
-1.37516e-05
0.000241737
-2.16182e-05
0.000291539
-2.95827e-05
0.000325872
-3.68634e-05
0.000348754
-4.27639e-05
0.000363229
-4.66524e-05
0.000371419
-4.79396e-05
0.000374755
-4.60615e-05
0.000374127
-4.0464e-05
0.000370022
-3.05927e-05
0.000362624
-1.58846e-05
0.000351901
4.23664e-06
0.000337662
3.03642e-05
0.000319595
6.31089e-05
0.000297301
0.0001031
0.000270306
0.000150983
0.000238076
0.000207419
0.000200026
0.000273082
0.000155526
0.000348656
0.000103903
0.000434834
4.4452e-05
0.000532311
-2.35631e-05
0.000641784
-0.000100899
0.000763948
-0.000188324
0.000899483
-0.000286611
0.00104905
-0.000396514
0.00121326
-0.000518752
0.00139267
-0.000653983
0.00158772
-0.000802744
0.00179872
-0.000965484
0.00202571
-0.00114225
0.0022686
-0.00133329
0.00252655
-0.00153742
0.00279899
-0.00175496
0.00308352
-0.00198297
0.00337928
-0.00221963
0.00368163
-0.00246826
0.00398975
-0.00270124
-0.00298444
0.00429669
-1.65005e-06
7.34415e-05
-5.88338e-06
0.000174818
-1.17184e-05
0.000247572
-1.82144e-05
0.000298035
-2.44903e-05
0.000332148
-2.97551e-05
0.000354018
-3.32926e-05
0.000366766
-3.4444e-05
0.00037257
-3.25887e-05
0.000372899
-2.71284e-05
0.000368667
-1.74732e-05
0.000360366
-3.03234e-06
0.000348183
1.67928e-05
0.000332076
4.26138e-05
0.000311841
7.50576e-05
0.000287152
0.000114767
0.000257591
0.000162404
0.000222669
0.000218642
0.000181837
0.000284173
0.000134495
0.000359698
8.00006e-05
0.000445929
1.76721e-05
0.000543583
-5.32022e-05
0.000653379
-0.00013336
0.000776032
-0.000223551
0.000912241
-0.000324533
0.00106267
-0.000437045
0.00122795
-0.000561791
0.00140861
-0.000699409
0.00160506
-0.000850436
0.00181754
-0.00101522
0.00204606
-0.001194
0.00229023
-0.00138642
0.00254945
-0.00159251
0.00282223
-0.00181021
0.00310731
-0.00204004
0.00340141
-0.00227707
0.00370316
-0.00252137
0.00400643
-0.00277153
0.00431178
-0.00300659
-0.00328072
0.00460806
-1.37981e-06
7.48213e-05
-4.94407e-06
0.000178382
-9.7568e-06
0.000252385
-1.4902e-05
0.00030318
-1.95019e-05
0.000336748
-2.27564e-05
0.000357273
-2.3931e-05
0.000367941
-2.23416e-05
0.000370981
-1.73377e-05
0.000367896
-8.28756e-06
0.000359617
5.43371e-06
0.000346645
2.4453e-05
0.000329164
4.94059e-05
0.000307123
8.09405e-05
0.000280306
0.000119721
0.000248372
0.000166427
0.000210885
0.000221755
0.000167341
0.00028642
0.000117173
0.000361147
5.97681e-05
0.000446676
-5.52765e-06
0.000543751
-7.94033e-05
0.000653121
-0.000162572
0.000775527
-0.000255765
0.00091169
-0.000359714
0.00106229
-0.000475137
0.00122796
-0.000602709
0.0014092
-0.000743037
0.0016064
-0.00089661
0.00181973
-0.00106376
0.00204907
-0.00124456
0.00229398
-0.00143892
0.00255352
-0.00164596
0.0028264
-0.00186539
0.00311042
-0.00209422
0.00340347
-0.00233309
0.00370158
-0.00257518
0.0040028
-0.00282259
0.00430009
-0.00306882
0.00459524
-0.00330174
-0.00355955
0.00487407
-1.13074e-06
7.59521e-05
-4.05875e-06
0.00018131
-7.88249e-06
0.000256208
-1.17048e-05
0.000307002
-1.46495e-05
0.000339693
-1.59077e-05
0.000358531
-1.47267e-05
0.00036676
-1.03982e-05
0.000366652
-2.24199e-06
0.000359739
1.0407e-05
0.000346968
2.82096e-05
0.000328842
5.18311e-05
0.000305542
8.19467e-05
0.000277007
0.000119246
0.000243007
0.000164435
0.000203182
0.000218238
0.000157082
0.000281398
0.000104181
0.000354672
4.38986e-05
0.000438833
-2.43925e-05
0.000534661
-0.000101356
0.000642938
-0.000187681
0.000764439
-0.000284073
0.000899909
-0.000391236
0.00105005
-0.000509855
0.00121548
-0.000640567
0.0013967
-0.00078393
0.00159404
-0.000940378
0.0018076
-0.00111016
0.00203715
-0.00129332
0.0022821
-0.00148951
0.00254139
-0.00169822
0.00281341
-0.00191798
0.00309608
-0.00214806
0.00338649
-0.00238464
0.00368174
-0.00262834
0.00397742
-0.00287086
0.0042711
-0.00311628
0.00455563
-0.00335335
0.0048337
-0.00357981
-0.0038157
0.00508984
-9.0508e-07
7.68571e-05
-3.23417e-06
0.000183639
-6.10807e-06
0.000259082
-8.64184e-06
0.000309536
-9.95846e-06
0.00034101
-9.23923e-06
0.000357812
-5.71354e-06
0.000363234
1.35195e-06
0.000359587
1.26678e-05
0.000348423
2.89343e-05
0.000330701
5.08512e-05
0.000306925
7.91262e-05
0.000277267
0.00011448
0.000241654
0.00015765
0.000199837
0.000209393
0.000151439
0.000270488
9.59876e-05
0.000341728
3.29402e-05
0.000423928
-3.83005e-05
0.000517907
-0.000118372
0.000624488
-0.000207937
0.000744481
-0.000307674
0.000878663
-0.000418255
0.00102775
-0.000540323
0.00119236
-0.000674468
0.00137298
-0.000821184
0.00156988
-0.000980828
0.00178307
-0.00115357
0.00201222
-0.00133931
0.00225659
-0.00153769
0.00251494
-0.00174786
0.00278552
-0.00196879
0.00306594
-0.0021984
0.00335339
-0.0024355
0.00364437
-0.00267562
0.00393537
-0.00291933
0.00422193
-0.00315743
0.00450142
-0.00339576
0.00476736
-0.00361929
0.00502303
-0.00383548
-0.00404615
0.00525347
-7.04505e-07
7.75616e-05
-2.47533e-06
0.00018541
-4.44279e-06
0.00026105
-5.72663e-06
0.00031082
-5.44592e-06
0.000340729
-2.77035e-06
0.000355136
3.09005e-06
0.000357374
1.28952e-05
0.000349781
2.73888e-05
0.00033393
4.73098e-05
0.00031078
7.34021e-05
0.000280833
0.000106422
0.000244247
0.000147144
0.000200932
0.000196363
0.000150618
0.000254897
9.29053e-05
0.000323584
2.73005e-05
0.000403282
-4.67577e-05
0.000494859
-0.000129877
0.000599182
-0.000222695
0.000717104
-0.000325858
0.000849432
-0.000440002
0.000996902
-0.000565725
0.00116014
-0.000703557
0.00133959
-0.000853918
0.00153548
-0.00101707
0.00174773
-0.00119308
0.0019759
-0.00138174
0.00221908
-0.0015825
0.00247588
-0.00179449
0.00274435
-0.00201632
0.00302198
-0.00224641
0.00330572
-0.00248215
0.00359212
-0.00272191
0.00387739
-0.00296088
0.00415772
-0.00319966
0.00442906
-0.00342877
0.0046889
-0.0036556
0.00493215
-0.00386254
0.00516232
-0.00406564
-0.00425031
0.00536648
-5.30052e-07
7.80917e-05
-1.78527e-06
0.000186665
-2.89217e-06
0.000262157
-2.96681e-06
0.000310894
-1.12037e-06
0.000338882
3.492e-06
0.000350524
1.16824e-05
0.000349184
2.42407e-05
0.000337223
4.19478e-05
0.000316223
6.55876e-05
0.000287141
9.59554e-05
0.000250465
0.000133865
0.000206337
0.000180154
0.000154643
0.000235686
9.50867e-05
0.000301346
2.72448e-05
0.000378044
-4.93972e-05
0.000466699
-0.000135413
0.00056823
-0.000231409
0.000683534
-0.000337999
0.000813458
-0.000455782
0.000958759
-0.000585304
0.00112006
-0.000727027
0.00129779
-0.000881287
0.00149212
-0.00104824
0.00170288
-0.00122783
0.0019295
-0.0014197
0.00217093
-0.00162317
0.00242562
-0.00183718
0.00269142
-0.0020603
0.00296568
-0.00229058
0.00324524
-0.00252597
0.00352657
-0.00276347
0.00380586
-0.0030012
0.00407935
-0.00323438
0.00434342
-0.00346372
0.00459478
-0.00368014
0.00483142
-0.00389224
0.00504998
-0.0040811
0.00525403
-0.00426969
-0.00442976
0.00543349
-3.82112e-07
7.84738e-05
-1.16501e-06
0.000187448
-1.45787e-06
0.000262449
-3.62849e-07
0.000309799
3.01907e-06
0.0003355
9.55409e-06
0.000343989
2.00798e-05
0.000338658
3.54212e-05
0.000321882
5.64032e-05
0.000295241
8.3862e-05
0.000259682
0.000118654
0.000215673
0.000161661
0.00016333
0.000213795
0.000102509
0.000275995
3.2887e-05
0.000349224
-4.59844e-05
0.00043446
-0.000134634
0.00053268
-0.000233632
0.000644831
-0.000343559
0.000771803
-0.000464971
0.000914381
-0.000598361
0.0010732
-0.000744118
0.00124865
-0.000902484
0.00144087
-0.0010735
0.00164959
-0.00125697
0.00187413
-0.00145237
0.00211329
-0.00165886
0.00236534
-0.00187523
0.002628
-0.00209984
0.00289846
-0.00233075
0.00317344
-0.00256557
0.00344935
-0.00280189
0.00372246
-0.00303658
0.00398902
-0.00326776
0.00424566
-0.00349102
0.00448934
-0.0037074
0.00471783
-0.00390863
0.00492989
-0.0041043
0.00512393
-0.00427514
0.00530341
-0.00444917
-0.00458764
0.00546129
-2.60401e-07
7.87342e-05
-6.13356e-07
0.000187801
-1.37573e-07
0.000261974
2.0878e-06
0.000307574
6.983e-06
0.000330605
1.5436e-05
0.000335536
2.83176e-05
0.000325776
4.64947e-05
0.000303705
7.0845e-05
0.000270891
0.000102267
0.000228259
0.000141689
0.000176251
0.000190073
0.000114946
0.000248412
4.41694e-05
0.000317731
-3.64318e-05
0.000399069
-0.000127323
0.000493465
-0.000229029
0.000601927
-0.000342094
0.000725393
-0.000467026
0.000864687
-0.000604265
0.00102045
-0.000754123
0.00119307
-0.000916742
0.00138263
-0.00109204
0.00158878
-0.00127966
0.00181073
-0.00147891
0.00204713
-0.00168878
0.00229611
-0.00190784
0.00255523
-0.00213434
0.00282153
-0.00236614
0.00309165
-0.00260088
0.00336198
-0.00283589
0.00362878
-0.00306868
0.00388848
-0.00329628
0.00413775
-0.00351703
0.00437399
-0.00372725
0.00459502
-0.00392843
0.0047998
-0.00411341
0.00498796
-0.00429246
0.00515942
-0.0044466
0.00531743
-0.00460718
-0.00472785
0.00545763
-1.63992e-07
7.88982e-05
-1.24928e-07
0.000187762
1.07558e-06
0.000260773
4.39987e-06
0.00030425
1.07923e-05
0.000324213
2.11721e-05
0.000325156
3.64499e-05
0.000310498
5.75441e-05
0.00028261
8.53951e-05
0.00024304
0.000120976
0.000192679
0.000165297
0.000131929
0.000219411
6.08327e-05
0.000284402
-2.08214e-05
0.000361377
-0.000113407
0.000451443
-0.000217389
0.000555676
-0.000333262
0.000675074
-0.000461491
0.000810504
-0.000602456
0.000962633
-0.000756394
0.00113185
-0.000923342
0.00131819
-0.00110308
0.00152125
-0.0012951
0.00174012
-0.00149852
0.00197333
-0.00171213
0.00221886
-0.0019343
0.0024741
-0.00216309
0.002736
-0.00239624
0.00300111
-0.00263125
0.00326577
-0.00286554
0.00352631
-0.00309643
0.00377923
-0.0033216
0.00402147
-0.00353853
0.00425047
-0.00374603
0.00446457
-0.00394135
0.00466262
-0.00412648
0.00484468
-0.00429548
0.00501118
-0.00445895
0.00516317
-0.00459859
0.00530356
-0.00474758
-0.0048544
0.00543011
-9.14252e-08
7.89896e-05
2.96818e-07
0.000187374
2.19172e-06
0.000258878
6.59145e-06
0.00029985
1.4478e-05
0.000316326
2.68107e-05
0.000312824
4.45501e-05
0.000292759
6.86765e-05
0.000258484
0.000100205
0.000211511
0.000140195
0.000152689
0.000189752
8.23722e-05
0.000250025
5.60593e-07
0.000322188
-9.29853e-05
0.000407425
-0.000198644
0.000506886
-0.000316849
0.000621639
-0.000448015
0.000752611
-0.000592463
0.000900507
-0.000750353
0.00106573
-0.000921618
0.00124829
-0.00110591
0.00144774
-0.00130253
0.00166306
-0.00151042
0.00189267
-0.00172814
0.00213441
-0.00195386
0.00238555
-0.00218544
0.0026429
-0.00242044
0.00290293
-0.00265627
0.00316197
-0.00289029
0.00341638
-0.00311994
0.00366278
-0.00334284
0.00389824
-0.00355706
0.0041205
-0.00376079
0.00432793
-0.00395347
0.00451992
-0.00413334
0.00469628
-0.00430283
0.00485799
-0.00445719
0.00500602
-0.00460698
0.00514216
-0.00473473
0.00526888
-0.00487429
-0.0049709
0.00538538
-4.03571e-08
7.903e-05
6.66679e-07
0.000186667
3.22596e-06
0.000256319
8.68801e-06
0.000294388
1.80808e-05
0.000306933
3.24141e-05
0.00029849
5.27095e-05
0.000272464
8.00218e-05
0.000231172
0.000115454
0.000176079
0.000160163
0.00010798
0.000215357
2.71781e-05
0.000282283
-6.63662e-05
0.000362203
-0.000172905
0.000456348
-0.000292789
0.000565871
-0.000426372
0.000691771
-0.000573915
0.000834811
-0.000735504
0.000995428
-0.000910969
0.00117363
-0.00109982
0.00136893
-0.0013012
0.00158024
-0.00151384
0.00180588
-0.00173606
0.00204355
-0.00196581
0.0022904
-0.00220071
0.00254312
-0.00243816
0.00279811
-0.00267543
0.00305166
-0.00290983
0.00330018
-0.0031388
0.00354037
-0.00336013
0.00376947
-0.00357194
0.00398536
-0.00377295
0.00418672
-0.00396215
0.00437292
-0.00413967
0.00454427
-0.00430469
0.00470136
-0.00445991
0.00484583
-0.00460166
0.00497891
-0.00474007
0.00510277
-0.00485859
0.00521935
-0.00499087
-0.00508032
0.00532877
-8.09652e-09
7.90381e-05
9.93096e-07
0.000185665
4.19692e-06
0.000253115
1.07215e-05
0.000287863
2.1651e-05
0.000296004
3.80573e-05
0.000282084
6.10361e-05
0.000249485
9.17298e-05
0.000200478
0.000131341
0.000136467
0.000181136
5.81856e-05
0.000242429
-3.41149e-05
0.000316561
-0.000140498
0.000404855
-0.000261198
0.000508555
-0.00039649
0.000628754
-0.00054657
0.000766292
-0.000711453
0.000921663
-0.000890874
0.0010949
-0.00108421
0.0012855
-0.00129042
0.00149234
-0.00150804
0.00171364
-0.00173513
0.00194699
-0.00196941
0.00218941
-0.00220823
0.00243749
-0.0024488
0.00268755
-0.00268822
0.00293584
-0.00292372
0.00317878
-0.00315276
0.00341316
-0.00337318
0.00363632
-0.0035833
0.00384635
-0.00378196
0.00404205
-0.00396864
0.00422305
-0.00414315
0.00438959
-0.00430621
0.00454273
-0.00445783
0.00468356
-0.00460075
0.00481411
-0.00473221
0.00493562
-0.00486157
0.00505035
-0.00497332
0.00515968
-0.0051002
-0.0051849
0.00526425
1.06937e-08
7.90274e-05
1.28621e-06
0.00018439
5.12667e-06
0.000249275
1.27295e-05
0.00028026
2.52472e-05
0.000283486
4.38271e-05
0.000263504
6.96523e-05
0.00022366
0.000103967
0.000166164
0.000148085
9.23489e-05
0.000203386
2.88452e-06
0.000271289
-0.000102018
0.000353211
-0.00022242
0.000450501
-0.000358488
0.000564357
-0.000510346
0.000695725
-0.000677938
0.000845179
-0.000860908
0.00101282
-0.00105851
0.00119815
-0.00126954
0.00140002
-0.0014923
0.00161661
-0.00172462
0.00184539
-0.00196392
0.00208329
-0.0022073
0.00232677
-0.00245171
0.00257206
-0.00269409
0.00281537
-0.00293152
0.00305309
-0.00316145
0.0032821
-0.00338176
0.00349983
-0.00359091
0.00370448
-0.00378795
0.00389503
-0.00397251
0.00407121
-0.00414483
0.00423348
-0.00430542
0.00438277
-0.0044555
0.00452058
-0.00459564
0.00464829
-0.00472846
0.00476804