/*--------------------------------*- C++ -*----------------------------------*\
  =========                 |
  \\      /  F ield         | OpenFOAM: The Open Source CFD Toolbox
   \\    /   O peration     | Website:  https://openfoam.org
    \\  /    A nd           | Version:  7
     \\/     M anipulation  |
\*---------------------------------------------------------------------------*/
FoamFile
{
    version     2.0;
    format      ascii;
    class       volVectorField;
    location    "10";
    object      U;
}
// * * * * * * * * * * * * * * * * * * * * * * * * * * * * * * * * * * * * * //

dimensions      [0 1 -1 0 0 0 0];

internalField   nonuniform List<vector> 
48400
(
(-0.00158408 0.000821164 2.8682e-21)
(-0.0100077 0.00180637 6.00471e-21)
(-0.0243602 0.00240688 1.26687e-22)
(-0.0402011 0.00276619 5.00326e-21)
(-0.0571788 0.00297194 -1.40354e-22)
(-0.0742608 0.00308562 -4.47594e-22)
(-0.0911809 0.0031465 -4.10621e-21)
(-0.107737 0.00318078 -3.95986e-22)
(-0.123888 0.00320482 1.01847e-21)
(-0.139645 0.00322844 -2.65628e-21)
(-0.155055 0.00325702 1.05614e-21)
(-0.170176 0.00329299 -1.51497e-21)
(-0.185066 0.00333689 -2.50443e-21)
(-0.199779 0.00338809 -4.72701e-21)
(-0.214357 0.00344511 3.87846e-21)
(-0.228832 0.00350597 3.78931e-21)
(-0.243226 0.00356819 1.82019e-21)
(-0.257547 0.00362896 1.4769e-21)
(-0.271792 0.00368505 -2.92402e-21)
(-0.285942 0.00373288 7.96886e-22)
(-0.299968 0.00376849 -2.9176e-21)
(-0.313825 0.00378755 2.35872e-21)
(-0.327455 0.00378538 2.60194e-21)
(-0.340785 0.00375697 -6.82157e-23)
(-0.353728 0.00369701 1.76204e-22)
(-0.36618 0.00359996 9.83309e-22)
(-0.378026 0.00346013 1.02663e-21)
(-0.389133 0.00327174 -2.30448e-21)
(-0.399357 0.00302909 -1.35701e-22)
(-0.408541 0.00272678 -3.31375e-21)
(-0.416516 0.00235994 -5.48354e-21)
(-0.423106 0.00192481 3.65463e-21)
(-0.42813 0.00141937 1.68794e-21)
(-0.43141 0.000844452 1.26787e-21)
(-0.432779 0.000205056 1.61721e-21)
(-0.432101 -0.000487432 1.90692e-21)
(-0.429292 -0.00121254 1.18969e-21)
(-0.424298 -0.00194736 -1.15213e-21)
(-0.417124 -0.00267111 1.23042e-21)
(-0.408202 -0.00330388 -6.72909e-22)
(-0.0016364 0.00245638 -1.15489e-20)
(-0.0100851 0.00540593 -1.18718e-20)
(-0.0244013 0.00720506 3.62504e-21)
(-0.040179 0.00828187 -6.52142e-21)
(-0.0570715 0.00889866 -3.85805e-21)
(-0.074053 0.00923929 -1.43909e-21)
(-0.0908584 0.00942141 9.56993e-21)
(-0.107286 0.00952346 -5.69023e-21)
(-0.123293 0.00959449 -4.8609e-21)
(-0.138891 0.00966399 3.09671e-21)
(-0.154124 0.00974807 7.08173e-21)
(-0.169048 0.00985406 1.33241e-20)
(-0.18372 0.00998362 1.09903e-21)
(-0.19819 0.0101348 1.34023e-20)
(-0.2125 0.0103032 6.29411e-21)
(-0.22668 0.0104829 1.03589e-21)
(-0.240748 0.0106665 7.33453e-21)
(-0.254711 0.0108455 -4.70206e-21)
(-0.268563 0.0110103 8.87123e-21)
(-0.282282 0.0111501 5.99694e-21)
(-0.295838 0.0112531 4.34502e-21)
(-0.309183 0.0113064 1.64088e-21)
(-0.322255 0.0112959 -3.2459e-21)
(-0.334981 0.0112066 7.30615e-21)
(-0.34727 0.0110229 3.97338e-21)
(-0.359017 0.0107282 -5.37428e-21)
(-0.370106 0.0103055 -2.08256e-21)
(-0.380404 0.00973774 9.91271e-21)
(-0.389765 0.00900803 -9.29355e-22)
(-0.398033 0.00810027 8.80125e-21)
(-0.405041 0.00700008 6.51862e-21)
(-0.410613 0.00569602 -7.3645e-21)
(-0.414571 0.00418172 -1.9166e-21)
(-0.416737 0.00245892 7.3445e-22)
(-0.416942 0.000541296 -2.12754e-21)
(-0.41504 -0.00153908 -4.45101e-21)
(-0.410942 -0.00372213 2.51707e-21)
(-0.404583 -0.00593365 2.66516e-21)
(-0.39591 -0.00810742 -7.8829e-22)
(-0.385344 -0.0100274 6.43946e-21)
(-0.00174027 0.00407182 2.34284e-20)
(-0.0102391 0.0089684 2.10183e-20)
(-0.0244835 0.0119588 -1.03683e-20)
(-0.0401355 0.01375 2.13079e-20)
(-0.0568585 0.0147764 1.43266e-21)
(-0.0736398 0.0153428 -3.96662e-21)
(-0.0902168 0.0156445 -1.33443e-20)
(-0.106388 0.015812 -9.23235e-22)
(-0.12211 0.0159268 8.95832e-21)
(-0.137391 0.016038 -1.32524e-21)
(-0.152271 0.0161726 -1.4192e-20)
(-0.166804 0.0163429 -4.69691e-21)
(-0.181042 0.0165515 -4.4224e-21)
(-0.195032 0.0167954 -1.92788e-20)
(-0.208811 0.0170673 -2.13901e-20)
(-0.222405 0.0173572 -1.47701e-20)
(-0.235828 0.0176528 -7.22922e-21)
(-0.249082 0.0179401 -2.35911e-20)
(-0.262156 0.0182029 -7.72347e-21)
(-0.275026 0.0184236 -1.86434e-20)
(-0.287654 0.0185823 -7.1848e-21)
(-0.299988 0.0186577 2.55353e-21)
(-0.311964 0.0186266 -1.2365e-20)
(-0.323503 0.0184645 4.03867e-21)
(-0.33451 0.0181452 -7.65453e-21)
(-0.344879 0.0176418 3.69787e-21)
(-0.354489 0.0169266 3.80777e-21)
(-0.363208 0.0159715 -6.64042e-21)
(-0.37089 0.0147492 1.12132e-20)
(-0.37738 0.0132335 -1.69858e-20)
(-0.382515 0.0114009 1.28547e-21)
(-0.386123 0.0092323 -4.44842e-22)
(-0.388031 0.0067163 3.99963e-21)
(-0.388064 0.00385351 -5.20723e-21)
(-0.386053 0.000662773 -4.16738e-22)
(-0.381843 -0.00280917 -3.81311e-21)
(-0.375328 -0.00646829 -4.82322e-21)
(-0.366435 -0.0101784 -1.02033e-22)
(-0.355006 -0.0138178 6.95629e-22)
(-0.341332 -0.0171164 -1.1372e-20)
(-0.00189425 0.00565515 -2.45506e-20)
(-0.0104679 0.01247 -7.56703e-22)
(-0.0246064 0.0166394 2.14137e-20)
(-0.0400718 0.0191395 -8.88808e-21)
(-0.0565429 0.020573 -1.41938e-21)
(-0.0730263 0.0213631 1.58753e-20)
(-0.0892633 0.0217817 1.66142e-20)
(-0.105054 0.0220107 -3.03254e-21)
(-0.120351 0.0221639 -1.00553e-20)
(-0.13516 0.0223102 -8.51996e-21)
(-0.149516 0.0224872 1.7866e-21)
(-0.163468 0.0227122 -1.82586e-20)
(-0.177063 0.0229892 3.30731e-20)
(-0.190341 0.0233139 2.17979e-20)
(-0.203334 0.0236762 -5.329e-21)
(-0.216062 0.0240621 -7.97599e-21)
(-0.228533 0.0244545 -1.63329e-20)
(-0.240743 0.0248338 2.97452e-20)
(-0.252674 0.0251775 5.81712e-22)
(-0.264295 0.0254608 2.54011e-20)
(-0.275564 0.0256565 1.83111e-20)
(-0.286421 0.0257348 -1.03795e-20)
(-0.296797 0.0256638 1.97704e-20)
(-0.306607 0.0254094 -5.6953e-21)
(-0.315753 0.0249361 1.01348e-20)
(-0.324126 0.0242069 1.58245e-21)
(-0.331602 0.0231841 4.88563e-21)
(-0.338049 0.0218298 -1.2828e-20)
(-0.343323 0.0201071 -8.61817e-21)
(-0.347274 0.0179808 9.53754e-21)
(-0.349744 0.0154191 8.90224e-21)
(-0.350572 0.0123961 -1.56528e-20)
(-0.349592 0.0088945 1.22709e-20)
(-0.346643 0.00491171 3.47584e-21)
(-0.341561 0.000467117 5.25093e-21)
(-0.334189 -0.00438674 1.93887e-20)
(-0.324404 -0.00953454 -4.90338e-21)
(-0.312133 -0.0147777 -4.07108e-21)
(-0.297135 -0.0199094 -9.54405e-21)
(-0.279185 -0.0247528 8.01128e-22)
(-0.00209626 0.00719449 1.08909e-20)
(-0.0107694 0.0158878 -3.15264e-20)
(-0.0247696 0.0212186 -1.66424e-20)
(-0.03999 0.02442 -1.16145e-20)
(-0.0561293 0.0262569 5.09064e-21)
(-0.0722198 0.0272677 2.2875e-20)
(-0.0880081 0.0277995 -2.39216e-20)
(-0.103296 0.0280845 5.71446e-21)
(-0.118034 0.0282688 1.04679e-20)
(-0.132221 0.0284408 -7.69668e-21)
(-0.145888 0.028649 9.56294e-21)
(-0.159077 0.0289157 8.76824e-21)
(-0.171827 0.0292465 -2.26902e-20)
(-0.184172 0.0296357 -1.74692e-20)
(-0.196137 0.0300706 -7.29485e-22)
(-0.207735 0.0305332 1.86669e-20)
(-0.218965 0.0310018 1.26045e-20)
(-0.229816 0.031451 -5.55984e-21)
(-0.240263 0.0318524 -1.42648e-20)
(-0.250269 0.0321742 9.34422e-21)
(-0.259782 0.0323818 -4.90906e-21)
(-0.268738 0.0324374 -3.87479e-21)
(-0.27706 0.0323009 1.03302e-20)
(-0.284659 0.0319294 9.40976e-22)
(-0.291433 0.0312783 4.24604e-21)
(-0.297271 0.0303016 -7.40789e-21)
(-0.302048 0.0289526 -1.99668e-20)
(-0.305635 0.0271849 -8.92139e-21)
(-0.307892 0.0249534 -8.75496e-22)
(-0.308677 0.0222154 4.85536e-21)
(-0.307841 0.0189325 -1.9643e-20)
(-0.305239 0.0150726 1.2323e-20)
(-0.300722 0.0106135 -3.8204e-21)
(-0.294146 0.00554799 1.28096e-20)
(-0.285369 -0.000107702 -2.0706e-20)
(-0.274245 -0.00630434 8.88257e-21)
(-0.260642 -0.012923 -1.70885e-20)
(-0.244493 -0.0197329 1.13726e-21)
(-0.225641 -0.0263797 1.01162e-20)
(-0.202608 -0.0329806 3.80748e-21)
(-0.00234361 0.00867862 -1.07966e-22)
(-0.0111404 0.0191998 1.27599e-20)
(-0.0249724 0.0256696 1.36043e-20)
(-0.0398925 0.0295619 -8.43133e-21)
(-0.0556235 0.0317972 -1.64024e-20)
(-0.0712297 0.0330248 -5.07678e-20)
(-0.0864647 0.0336648 -7.96708e-21)
(-0.101132 0.033999 -1.06153e-21)
(-0.11518 0.0342052 -5.14018e-21)
(-0.128602 0.0343912 3.74594e-20)
(-0.141423 0.0346165 8.05306e-21)
(-0.153675 0.0349088 -4.93756e-21)
(-0.16539 0.035275 -2.39805e-20)
(-0.176596 0.0357084 4.70682e-21)
(-0.187307 0.0361938 -1.539e-20)
(-0.197528 0.0367093 5.68056e-22)
(-0.207251 0.0372285 -1.75254e-20)
(-0.216457 0.0377207 -5.72853e-21)
(-0.225113 0.0381514 1.77412e-21)
(-0.233173 0.0384823 -4.27136e-20)
(-0.240579 0.0386716 -2.2881e-20)
(-0.247262 0.0386743 1.96047e-20)
(-0.253138 0.0384421 -2.79791e-20)
(-0.258114 0.0379242 -5.53599e-21)
(-0.262088 0.037068 -3.65778e-20)
(-0.264946 0.0358194 -1.05504e-20)
(-0.266568 0.0341242 3.65873e-20)
(-0.266828 0.0319287 3.66781e-20)
(-0.265596 0.0291812 1.13769e-21)
(-0.26274 0.0258334 1.94119e-21)
(-0.258128 0.021842 -9.93537e-21)
(-0.251632 0.017171 -2.5323e-20)
(-0.243128 0.0117945 6.55702e-21)
(-0.232497 0.00570131 -3.92526e-20)
(-0.219629 -0.00109614 2.06046e-20)
(-0.204403 -0.00855781 2.80752e-21)
(-0.186701 -0.0165755 -9.58296e-21)
(-0.16643 -0.0249797 -2.67044e-20)
(-0.143915 -0.0331153 1.59528e-20)
(-0.115366 -0.0415694 2.08157e-20)
(-0.00263307 0.0100972 2.10313e-20)
(-0.0115773 0.0223853 8.16856e-21)
(-0.0252143 0.0299665 -1.19942e-20)
(-0.0397823 0.0345369 2.37886e-20)
(-0.0550328 0.0371642 1.25033e-20)
(-0.0700677 0.0386034 -1.03192e-20)
(-0.0846494 0.0393455 4.99954e-20)
(-0.0985852 0.0397206 2.68122e-20)
(-0.11182 0.0399377 1.07279e-21)
(-0.124341 0.0401239 -2.21644e-20)
(-0.136165 0.0403499 -1.44473e-20)
(-0.147318 0.0406486 1.34721e-20)
(-0.157822 0.0410287 -2.23577e-20)
(-0.167696 0.0414826 3.18526e-20)
(-0.176945 0.0419925 -1.51191e-20)
(-0.185567 0.0425331 2.1993e-20)
(-0.193545 0.0430733 2.52562e-20)
(-0.200851 0.0435773 3.34193e-20)
(-0.207445 0.0440048 2.79885e-20)
(-0.213274 0.0443113 3.86391e-20)
(-0.218273 0.0444485 3.3221e-20)
(-0.222369 0.0443641 8.83131e-21)
(-0.225475 0.0440031 7.96473e-21)
(-0.227497 0.0433073 -2.06027e-20)
(-0.228331 0.0422171 1.18542e-20)
(-0.227867 0.0406716 1.87659e-20)
(-0.225992 0.0386103 -3.24773e-21)
(-0.222588 0.035974 -3.22637e-20)
(-0.217537 0.032706 -3.83319e-21)
(-0.210723 0.0287542 1.49004e-20)
(-0.202033 0.0240726 3.90115e-21)
(-0.191363 0.0186232 5.03689e-21)
(-0.178616 0.0123786 1.76516e-20)
(-0.163701 0.00532563 1.29156e-20)
(-0.146546 -0.00252242 -1.40133e-20)
(-0.127063 -0.011139 1.11023e-20)
(-0.105208 -0.0204439 1.5582e-20)
(-0.080685 -0.0303822 8.96072e-21)
(-0.0548673 -0.0400506 -5.12446e-20)
(-0.0208449 -0.0499576 -2.07162e-20)
(-0.00296097 0.011441 1.77547e-20)
(-0.0120758 0.0254256 -4.82057e-21)
(-0.0254944 0.0340853 4.06723e-20)
(-0.0396628 0.0393181 -4.65053e-20)
(-0.0543653 0.0423291 1.94087e-20)
(-0.068747 0.0439736 1.99316e-20)
(-0.082581 0.0448105 8.12883e-21)
(-0.0956792 0.0452169 -4.9853e-20)
(-0.107984 0.0454324 1.75117e-20)
(-0.119476 0.0456032 -2.13351e-20)
(-0.130166 0.045811 1.76791e-20)
(-0.140069 0.0460946 1.23289e-20)
(-0.1492 0.0464642 2.88415e-20)
(-0.157568 0.0469119 -5.2529e-20)
(-0.165171 0.0474174 2.51265e-20)
(-0.171996 0.047952 -3.93337e-20)
(-0.178019 0.0484803 -2.90376e-20)
(-0.183205 0.0489617 -4.51531e-20)
(-0.187506 0.0493504 -2.61997e-20)
(-0.190865 0.0495962 -1.46465e-20)
(-0.193213 0.0496446 1.22285e-20)
(-0.194472 0.0494374 -1.31056e-20)
(-0.194556 0.0489128 -4.04307e-21)
(-0.193371 0.0480069 -1.80868e-20)
(-0.190818 0.0466539 6.17229e-21)
(-0.186794 0.0447875 -4.46324e-21)
(-0.181194 0.0423423 -1.54122e-20)
(-0.173913 0.039255 2.10569e-20)
(-0.164849 0.0354659 6.45482e-20)
(-0.153906 0.0309206 -1.21612e-20)
(-0.140995 0.0255721 3.3776e-20)
(-0.126034 0.0193824 -2.80358e-21)
(-0.108957 0.0123246 -2.0468e-21)
(-0.0896995 0.00438562 1.80487e-20)
(-0.0682297 -0.00441392 -1.95124e-20)
(-0.0444908 -0.0140864 -2.40975e-20)
(-0.0185781 -0.0245148 -2.9731e-20)
(0.0101869 -0.0357341 3.28091e-20)
(0.0391819 -0.0470785 6.86937e-21)
(0.0779206 -0.0580471 4.6983e-20)
(-0.00332327 0.0127018 -7.5714e-20)
(-0.0126313 0.0283034 1.76085e-20)
(-0.0258116 0.0380038 -2.53487e-20)
(-0.0395377 0.0438802 5.00431e-20)
(-0.0536301 0.0472647 -3.20226e-20)
(-0.0672823 0.0491068 3.97551e-21)
(-0.0802802 0.0500301 -2.81055e-20)
(-0.092442 0.050457 7.57724e-21)
(-0.103708 0.0506568 3.26689e-21)
(-0.114053 0.0507948 7.38241e-20)
(-0.123481 0.050964 1.59075e-20)
(-0.131998 0.0512087 -7.3721e-22)
(-0.13961 0.0515413 1.24725e-20)
(-0.146318 0.0519536 -3.23847e-20)
(-0.15211 0.0524232 -2.32234e-20)
(-0.156967 0.0529183 -2.90765e-20)
(-0.160857 0.0533995 3.14913e-20)
(-0.163739 0.0538216 5.72324e-20)
(-0.165561 0.0541339 4.3036e-20)
(-0.16626 0.054281 6.03221e-21)
(-0.165767 0.0542031 -1.11385e-20)
(-0.164003 0.0538362 2.53157e-20)
(-0.160883 0.0531137 2.80137e-20)
(-0.15632 0.0519661 4.97368e-20)
(-0.15022 0.0503231 -5.81042e-20)
(-0.142492 0.0481143 -3.97009e-20)
(-0.133042 0.0452707 4.24499e-20)
(-0.121784 0.0417265 -5.06311e-20)
(-0.108634 0.0374202 -5.61944e-20)
(-0.0935175 0.0322966 -1.86053e-20)
(-0.0763688 0.0263094 -6.59652e-20)
(-0.0571344 0.0194217 -1.13324e-20)
(-0.0357745 0.0116091 -5.7529e-21)
(-0.0122457 0.0028607 -2.7208e-20)
(0.0134272 -0.00681029 3.87312e-20)
(0.0413261 -0.017421 -6.14684e-20)
(0.0711584 -0.028793 5.38603e-20)
(0.104024 -0.0410732 -4.02708e-20)
(0.135931 -0.0538559 -1.00711e-20)
(0.179534 -0.0660757 7.49567e-21)
(-0.00371565 0.0138728 4.33835e-20)
(-0.0132386 0.0310039 -4.45255e-20)
(-0.026165 0.0417018 6.84837e-21)
(-0.0394111 0.0481997 -5.03387e-20)
(-0.0528369 0.0519455 1.34096e-22)
(-0.0656895 0.0539758 1.55701e-20)
(-0.0777696 0.0549757 -9.46131e-21)
(-0.0889035 0.055411 -1.78619e-20)
(-0.09903 0.05558 -9.23734e-21)
(-0.108121 0.0556667 4.65703e-21)
(-0.116171 0.0557752 -5.08993e-21)
(-0.123179 0.0559557 -7.39598e-20)
(-0.129143 0.0562232 4.76385e-20)
(-0.134055 0.0565693 -2.98223e-21)
(-0.137897 0.0569699 -7.47485e-21)
(-0.140642 0.0573902 2.55017e-20)
(-0.142253 0.0577875 2.94502e-21)
(-0.142684 0.0581124 -1.23603e-20)
(-0.14188 0.0583098 -4.5795e-20)
(-0.139777 0.0583198 -1.73045e-20)
(-0.136306 0.0580778 -3.4525e-20)
(-0.131392 0.0575155 -1.58138e-20)
(-0.124954 0.0565618 1.42459e-20)
(-0.116912 0.0551431 -2.945e-21)
(-0.107185 0.0531859 5.16151e-20)
(-0.0956926 0.0506168 8.67922e-20)
(-0.0823596 0.0473645 -5.56936e-20)
(-0.0671163 0.0433619 -1.18058e-20)
(-0.0499013 0.0385473 -1.44837e-20)
(-0.0306617 0.0328657 4.5259e-20)
(-0.00935599 0.0262721 4.53662e-22)
(0.0140452 0.0187311 3.5984e-20)
(0.0395535 0.0102227 5.81765e-20)
(0.0671921 0.000735017 7.9489e-21)
(0.096886 -0.00971465 7.77215e-21)
(0.1288 -0.0211377 6.89505e-20)
(0.162275 -0.0333246 -1.77423e-20)
(0.199249 -0.0465258 1.32097e-20)
(0.233551 -0.0602992 5.32146e-20)
(0.282247 -0.0738962 -4.20762e-20)
(-0.00413365 0.0149484 -2.68888e-20)
(-0.0138925 0.0335142 -4.30281e-20)
(-0.0265532 0.0451615 -3.57584e-20)
(-0.039287 0.0522552 3.556e-20)
(-0.0519959 0.0563476 -3.31344e-20)
(-0.063985 0.0585551 6.86482e-21)
(-0.0750725 0.0596206 -3.69237e-23)
(-0.0850948 0.0600511 2.49072e-20)
(-0.093991 0.0601731 2.45019e-20)
(-0.101729 0.0601888 -2.45569e-20)
(-0.108297 0.0602135 -3.10998e-20)
(-0.113688 0.0603037 2.30984e-20)
(-0.117892 0.0604768 -2.07289e-20)
(-0.120893 0.0607248 2.38497e-22)
(-0.122668 0.0610222 7.20132e-20)
(-0.123183 0.0613319 4.40925e-20)
(-0.1224 0.061608 1.79106e-20)
(-0.120268 0.0617975 -4.71119e-20)
(-0.116732 0.0618417 7.25614e-21)
(-0.111729 0.0616768 5.1877e-20)
(-0.105193 0.0612343 -2.60173e-21)
(-0.0970535 0.0604424 -5.41877e-20)
(-0.0872402 0.0592269 -5.99123e-20)
(-0.0756821 0.057511 -6.81138e-20)
(-0.0623107 0.055219 -6.58028e-20)
(-0.0470624 0.052276 -4.07322e-20)
(-0.0298791 0.0486096 1.50463e-20)
(-0.0107106 0.0441525 -1.5912e-20)
(0.0104834 0.0388431 5.02451e-20)
(0.0337339 0.0326282 -7.59039e-20)
(0.0590601 0.0254644 3.29549e-20)
(0.0864714 0.0173177 -2.96904e-20)
(0.115951 0.00817293 -3.86812e-20)
(0.147521 -0.00198297 4.12466e-21)
(0.181018 -0.0131107 2.31238e-20)
(0.216789 -0.0252471 -4.67949e-20)
(0.253588 -0.0381511 1.69996e-20)
(0.294676 -0.0520679 -2.65983e-20)
(0.330884 -0.0666152 -1.76111e-20)
(0.38474 -0.0813184 -4.41332e-20)
(-0.00457269 0.0159247 3.3049e-20)
(-0.0145875 0.0358238 3.71322e-20)
(-0.0269748 0.0483674 7.09161e-22)
(-0.0391692 0.0560275 -4.8575e-20)
(-0.0511172 0.060449 6.20958e-20)
(-0.0621856 0.0628208 3.09875e-20)
(-0.072213 0.0639394 7.98936e-20)
(-0.0810477 0.0643511 7.11005e-20)
(-0.088631 0.0644091 -6.01179e-20)
(-0.0949287 0.0643336 6.12835e-22)
(-0.0999239 0.0642509 -1.3639e-20)
(-0.103603 0.0642238 4.19358e-20)
(-0.10595 0.0642729 5.31781e-21)
(-0.106944 0.0643906 -8.39434e-21)
(-0.106556 0.0645506 1.33037e-20)
(-0.10475 0.0647139 -3.65141e-20)
(-0.101485 0.0648319 -6.67898e-20)
(-0.0967091 0.0648488 4.35961e-20)
(-0.0903691 0.0647027 -3.05458e-20)
(-0.0824059 0.0643268 -1.28871e-20)
(-0.0727587 0.0636499 -2.09695e-20)
(-0.0613651 0.0625973 1.1237e-19)
(-0.048165 0.0610928 1.14064e-20)
(-0.0330998 0.0590577 4.59552e-20)
(-0.0161155 0.0564153 1.6259e-20)
(0.00283498 0.0530897 -2.50987e-21)
(0.0237917 0.049009 2.57687e-20)
(0.0467865 0.0441061 6.23437e-20)
(0.0718403 0.0383207 -9.53509e-21)
(0.0989648 0.0316016 5.28398e-20)
(0.128159 0.0239074 3.0906e-20)
(0.159418 0.015207 -1.50771e-20)
(0.192694 0.00548863 2.11496e-20)
(0.228029 -0.00525701 -1.57715e-21)
(0.265124 -0.0169848 -2.70698e-20)
(0.304618 -0.0297171 5.0082e-21)
(0.344432 -0.0432606 -7.61687e-22)
(0.38959 -0.0576788 7.40352e-20)
(0.427278 -0.0728614 -6.09731e-20)
(0.486172 -0.0883095 9.85016e-20)
(-0.00502829 0.016799 -2.73769e-21)
(-0.015318 0.0379246 4.39626e-20)
(-0.0274284 0.0513064 5.38146e-20)
(-0.0390618 0.0594998 4.7214e-20)
(-0.0502108 0.0642302 -7.94583e-20)
(-0.0603081 0.0667512 -7.84504e-20)
(-0.0692147 0.0679092 -1.04951e-20)
(-0.0767937 0.0682869 -7.87928e-20)
(-0.0829903 0.0682633 1.04874e-20)
(-0.0877696 0.0680759 -8.80163e-20)
(-0.0911113 0.067862 6.95529e-20)
(-0.092997 0.067691 2.39952e-22)
(-0.0934063 0.0675866 1.98606e-20)
(-0.0923137 0.0675423 -2.41236e-20)
(-0.0896877 0.0675314 -5.28952e-20)
(-0.0854907 0.0675135 8.82799e-20)
(-0.0796794 0.067438 7.16738e-21)
(-0.0722061 0.0672468 3.07869e-21)
(-0.0630195 0.0668759 -2.75783e-20)
(-0.0520665 0.0662561 1.34003e-20)
(-0.0392936 0.0653142 -3.97825e-20)
(-0.0246481 0.0639742 -6.87916e-20)
(-0.00808121 0.062158 -6.8428e-21)
(0.0104519 0.0597869 3.78319e-21)
(0.0309911 0.0567837 -1.21375e-20)
(0.0535675 0.0530728 1.90325e-20)
(0.0782048 0.0485833 -6.05416e-20)
(0.104918 0.0432493 -4.9598e-20)
(0.133712 0.0370124 4.14939e-21)
(0.164583 0.0298235 -1.99781e-20)
(0.197512 0.0216434 1.89346e-20)
(0.232484 0.0124455 -2.98042e-20)
(0.269416 0.00221875 -2.01092e-20)
(0.308387 -0.00903271 -3.38775e-20)
(0.348907 -0.0212835 3.05395e-20)
(0.392013 -0.0344735 5.08148e-20)
(0.434571 -0.0485813 9.19484e-20)
(0.483652 -0.0632862 -2.36823e-20)
(0.522456 -0.0789722 3.42801e-20)
(0.585994 -0.0947958 -7.46285e-20)
(-0.00549608 0.01757 2.95044e-20)
(-0.0160783 0.0398112 -7.88344e-20)
(-0.0279121 0.0539682 -1.84893e-20)
(-0.0389679 0.0626578 4.41182e-20)
(-0.0492862 0.0676736 8.06746e-20)
(-0.0583681 0.0703266 1.71465e-20)
(-0.0661003 0.0715087 -9.24177e-20)
(-0.0723629 0.0718365 6.49273e-21)
(-0.0771071 0.0717134 2.10375e-21)
(-0.0802994 0.0713934 7.57573e-20)
(-0.0819175 0.0710249 -8.06541e-20)
(-0.0819401 0.0706837 -3.35295e-20)
(-0.0803437 0.0703974 -2.06798e-20)
(-0.0771002 0.0701607 3.28288e-20)
(-0.0721766 0.069947 3.24887e-20)
(-0.0655351 0.0697151 -9.50773e-20)
(-0.057134 0.0694132 -4.35659e-20)
(-0.0469287 0.0689817 7.44101e-20)
(-0.0348731 0.0683549 4.92937e-20)
(-0.0209208 0.0674624 5.59295e-20)
(-0.00502695 0.0662299 3.66016e-20)
(0.0128508 0.0645808 6.65795e-20)
(0.0327498 0.0624363 2.14437e-20)
(0.0547021 0.0597189 -2.03165e-20)
(0.0787338 0.0563514 1.77278e-20)
(0.104863 0.0522595 7.3825e-20)
(0.133098 0.0473736 2.12157e-20)
(0.163442 0.0416302 9.24883e-20)
(0.195885 0.034973 -6.55197e-20)
(0.230412 0.0273552 -3.87572e-20)
(0.266987 0.0187404 -3.22351e-20)
(0.305586 0.00910812 2.75919e-21)
(0.34608 -0.00155642 1.06065e-19)
(0.388597 -0.0132173 -9.94299e-21)
(0.432403 -0.0259078 -9.35157e-22)
(0.478981 -0.0393975 -8.5911e-20)
(0.524037 -0.053976 -8.16488e-20)
(0.576708 -0.0687426 -6.72847e-20)
(0.616292 -0.0847937 4.21462e-22)
(0.683704 -0.100599 3.39277e-20)
(-0.00597193 0.0182381 -6.64294e-20)
(-0.0168631 0.0414801 -5.49871e-21)
(-0.028424 0.0563453 4.44008e-20)
(-0.0388905 0.0654896 1.36411e-20)
(-0.0483519 0.0707643 8.12183e-21)
(-0.0563804 0.0735298 -2.75997e-20)
(-0.0628909 0.0747191 7.95524e-20)
(-0.0677831 0.0749803 -6.84472e-21)
(-0.0710167 0.0747394 -7.71206e-22)
(-0.0725613 0.0742666 -5.61179e-20)
(-0.0723945 0.0737208 7.46399e-20)
(-0.0704939 0.0731847 7.72943e-20)
(-0.0668343 0.0726894 -3.59037e-20)
(-0.0613865 0.072232 -9.77708e-20)
(-0.0541175 0.0717863 -3.28847e-20)
(-0.0449908 0.0713109 5.41961e-20)
(-0.0339676 0.0707534 1.32941e-19)
(-0.0210076 0.0700534 -1.4627e-19)
(-0.00607057 0.0691447 -6.34325e-20)
(0.0108825 0.0679562 -6.89527e-20)
(0.0298876 0.0664137 -5.08425e-20)
(0.0509772 0.0644408 -1.52192e-20)
(0.0741784 0.0619594 3.664e-20)
(0.099512 0.058893 -4.23862e-20)
(0.126993 0.0551659 8.96763e-21)
(0.156627 0.0507057 -7.92593e-21)
(0.188414 0.0454451 1.81036e-20)
(0.222344 0.0393227 -5.34743e-20)
(0.258397 0.0322849 4.57568e-20)
(0.296543 0.0242886 3.93395e-20)
(0.336728 0.0152994 -3.33299e-20)
(0.378914 0.0053075 2.38524e-20)
(0.422912 -0.00571355 -6.98753e-20)
(0.468887 -0.0176711 2.89286e-20)
(0.515835 -0.0307018 -2.7223e-20)
(0.565643 -0.0443178 -7.07231e-21)
(0.612923 -0.0592384 8.53345e-20)
(0.668556 -0.0738282 -5.87596e-20)
(0.708554 -0.090093 9.58078e-22)
(0.778577 -0.105459 5.23594e-20)
(-0.00645205 0.0188046 -3.22321e-20)
(-0.0176672 0.0429307 4.77624e-20)
(-0.0289618 0.0584324 -4.13014e-20)
(-0.0388316 0.0679863 -2.78955e-20)
(-0.047415 0.0734898 2.91344e-21)
(-0.0543575 0.0763458 1.02318e-19)
(-0.0596048 0.0775241 -2.14874e-20)
(-0.0630787 0.0777012 2.37571e-20)
(-0.0647496 0.0773245 -4.95982e-21)
(-0.0645922 0.0766793 6.62319e-20)
(-0.0625862 0.0759348 5.23702e-20)
(-0.0587091 0.0751806 -1.01654e-19)
(-0.0529357 0.074452 1.07212e-19)
(-0.045237 0.0737484 3.89539e-20)
(-0.0355812 0.0730449 1.1267e-19)
(-0.0239341 0.0723007 3.09942e-20)
(-0.0102602 0.0714633 -6.1761e-20)
(0.00547579 0.0704725 6.82321e-20)
(0.0233083 0.0692623 1.08753e-19)
(0.043269 0.0677621 3.53455e-20)
(0.0653865 0.0658982 7.15987e-20)
(0.0896846 0.0635955 2.25188e-20)
(0.116182 0.0607776 1.91701e-20)
(0.14489 0.0573696 9.63143e-20)
(0.175816 0.0532982 3.07118e-20)
(0.208956 0.0484934 -6.08717e-20)
(0.244301 0.0428906 4.17419e-20)
(0.28183 0.0364311 -3.56243e-20)
(0.321509 0.0290648 -4.12998e-20)
(0.36329 0.020753 -8.21398e-21)
(0.407089 0.0114629 8.3743e-20)
(0.452841 0.00120137 -6.28843e-22)
(0.500275 -0.0100784 -1.88067e-20)
(0.54956 -0.0222028 -1.29768e-20)
(0.599431 -0.0354469 1.10188e-19)
(0.652025 -0.0490078 -3.64974e-20)
(0.701134 -0.0640987 -6.66265e-20)
(0.758723 -0.0782696 -6.76497e-20)
(0.798672 -0.0945768 8.98047e-20)
(0.869498 -0.109083 5.06295e-20)
(-0.00693305 0.0192724 -1.08453e-20)
(-0.0184854 0.0441644 7.36893e-20)
(-0.0295231 0.0602274 2.81288e-20)
(-0.0387922 0.0701415 -7.66997e-20)
(-0.046481 0.0758404 -6.77003e-20)
(-0.0523096 0.0787624 -1.05846e-19)
(-0.0562569 0.0799098 -5.77608e-20)
(-0.0582694 0.0799849 7.61851e-20)
(-0.0583302 0.0794547 7.15455e-21)
(-0.0564213 0.0786185 -5.18834e-20)
(-0.0525255 0.0776558 -1.09117e-19)
(-0.0466224 0.0766628 -1.44084e-20)
(-0.0386873 0.0756797 -5.43527e-20)
(-0.0286928 0.0747084 5.65289e-20)
(-0.0166086 0.0737262 -9.76879e-20)
(-0.00240305 0.0726931 6.96681e-20)
(0.0139556 0.0715579 -1.16224e-19)
(0.0324985 0.0702613 -8.87864e-21)
(0.0532547 0.0687382 -7.14589e-20)
(0.0762504 0.0669193 6.5241e-20)
(0.101508 0.0647328 -4.0464e-20)
(0.129045 0.0621053 -4.2429e-20)
(0.158873 0.058963 -1.03665e-19)
(0.190998 0.0552333 -8.97518e-20)
(0.225418 0.0508458 -8.75034e-21)
(0.262124 0.0457336 -1.6688e-20)
(0.301092 0.039835 -5.50127e-21)
(0.342288 0.0330952 2.68279e-20)
(0.385654 0.0254672 7.98302e-21)
(0.431111 0.0169189 -8.11773e-20)
(0.478526 0.00741844 -9.58914e-20)
(0.527781 -0.00300534 3.15817e-20)
(0.578503 -0.0144251 3.79828e-20)
(0.6308 -0.0265723 -1.4863e-20)
(0.683205 -0.0398713 -3.08131e-20)
(0.737859 -0.0531969 1.04572e-19)
(0.788179 -0.0682464 4.53403e-20)
(0.846316 -0.0817744 2.89276e-20)
(0.885589 -0.0979328 2.19561e-21)
(0.954946 -0.111207 -6.74577e-20)
(-0.00741199 0.0196454 6.25671e-20)
(-0.0193131 0.0451849 -2.70702e-20)
(-0.0301047 0.0617305 -1.11769e-19)
(-0.0387721 0.0719515 -1.06783e-21)
(-0.0455532 0.0778089 6.09113e-20)
(-0.0502436 0.0807702 4.15716e-20)
(-0.0528578 0.0818655 2.46561e-20)
(-0.053369 0.0818203 -4.40141e-20)
(-0.051775 0.0811192 4.76672e-20)
(-0.0480668 0.080075 -9.23901e-20)
(-0.0422321 0.0788767 -1.21905e-20)
(-0.0342529 0.0776277 9.32803e-20)
(-0.0241064 0.0763726 1.93894e-20)
(-0.0117664 0.0751172 2.30822e-20)
(0.00279545 0.073841 2.84268e-20)
(0.0196086 0.0725061 -9.20489e-20)
(0.0387021 0.0710632 4.03455e-20)
(0.0601039 0.0694546 7.49597e-20)
(0.0838396 0.0676172 -4.93103e-20)
(0.109931 0.0654841 -1.11922e-20)
(0.138398 0.0629858 -3.84103e-20)
(0.169251 0.0600517 -4.17937e-20)
(0.202499 0.0566112 5.753e-20)
(0.238141 0.0525947 7.61301e-20)
(0.276166 0.047935 1.51155e-20)
(0.316552 0.0425688 3.55947e-20)
(0.359257 0.0364377 -3.00354e-20)
(0.404218 0.0294911 -4.63069e-20)
(0.451338 0.0216859 1.88701e-20)
(0.500483 0.0129976 1.7445e-19)
(0.551447 0.0033953 4.17925e-20)
(0.604017 -0.00706679 2.52083e-20)
(0.657706 -0.0184872 -9.53533e-20)
(0.71248 -0.0305052 7.73949e-20)
(0.76676 -0.0436753 -1.90105e-20)
(0.822424 -0.0565984 -9.7471e-20)
(0.873035 -0.0713727 -1.2989e-20)
(0.929989 -0.084078 -3.77524e-20)
(0.967769 -0.0998876 -7.74475e-20)
(1.03314 -0.111663 -1.9005e-20)
(-0.00788647 0.0199285 -1.17831e-21)
(-0.020146 0.0459977 1.18266e-20)
(-0.0307034 0.0629442 1.25042e-19)
(-0.0387697 0.0734153 6.32619e-20)
(-0.0446323 0.0793913 -2.32027e-20)
(-0.0481626 0.0823625 -2.73879e-20)
(-0.0494125 0.0833833 -8.39542e-20)
(-0.0483839 0.0831992 -2.86676e-21)
(-0.045091 0.0823108 -3.23665e-20)
(-0.0395351 0.0810435 1.29552e-19)
(-0.0317095 0.0795953 4.02581e-20)
(-0.0215993 0.0780767 -1.18503e-19)
(-0.00918356 0.0765375 -2.72084e-20)
(0.00556268 0.0749873 -2.26103e-20)
(0.0226669 0.0734091 -1.7569e-20)
(0.0421574 0.0717678 -2.16389e-20)
(0.0640621 0.0700166 3.16443e-20)
(0.0884076 0.0681008 -2.64541e-22)
(0.115218 0.06596 8.50673e-21)
(0.144513 0.0635303 -2.86478e-20)
(0.176308 0.0607458 3.11594e-20)
(0.210613 0.0575392 4.08482e-20)
(0.247429 0.0538432 -2.71221e-20)
(0.286744 0.049592 -7.17201e-20)
(0.328533 0.0447218 2.27115e-20)
(0.37275 0.0391729 -5.86744e-20)
(0.419319 0.0328906 1.43137e-20)
(0.468127 0.0258287 -6.5866e-20)
(0.519013 0.017948 5.27001e-20)
(0.571755 0.00923249 -1.20759e-19)
(0.626041 -0.000347618 4.42365e-20)
(0.681525 -0.010713 -2.30182e-20)
(0.737594 -0.0219821 4.9361e-20)
(0.794008 -0.0337205 -2.67234e-20)
(0.849172 -0.0465715 -5.31241e-20)
(0.904497 -0.05895 5.41382e-20)
(0.954166 -0.0732234 1.06043e-19)
(1.00806 -0.0849924 6.44129e-20)
(1.04337 -0.100266 1.34214e-20)
(1.10232 -0.110422 1.03781e-20)
(-0.0083546 0.0201275 -8.27518e-20)
(-0.0209798 0.0466101 -1.19583e-20)
(-0.0313151 0.0638737 -2.08895e-20)
(-0.0387815 0.0745347 -1.54534e-20)
(-0.0437158 0.0805861 -5.70742e-20)
(-0.0460649 0.0835358 1.59566e-19)
(-0.0459198 0.0844586 1.74967e-19)
(-0.0433121 0.084117 -4.61969e-20)
(-0.038274 0.0830263 -1.24582e-19)
(-0.0308176 0.081523 -4.57746e-20)
(-0.0209423 0.0798142 2.39107e-20)
(-0.00863624 0.0780171 -7.6587e-20)
(0.00612026 0.0761874 -7.32615e-21)
(0.0233521 0.0743392 -9.06218e-20)
(0.0430872 0.0724595 9.35818e-20)
(0.0653546 0.0705171 1.16316e-20)
(0.090183 0.0684686 -4.13019e-20)
(0.117599 0.0662631 -4.44024e-20)
(0.147627 0.063844 4.70931e-20)
(0.180286 0.0611513 6.86953e-20)
(0.215588 0.0581228 8.46752e-20)
(0.253534 0.0546951 -7.43625e-23)
(0.294116 0.0508049 -6.21173e-20)
(0.337301 0.0463898 6.00103e-20)
(0.383035 0.0413895 1.47256e-21)
(0.431229 0.0357476 -8.19467e-21)
(0.481749 0.0294127 6.25206e-20)
(0.534403 0.0223424 6.36407e-20)
(0.588929 0.0145015 -4.60749e-20)
(0.644985 0.00588211 -1.63709e-20)
(0.702123 -0.00354411 1.73543e-20)
(0.759832 -0.0136767 -9.57993e-21)
(0.817371 -0.0246448 4.77299e-20)
(0.874267 -0.035968 8.20428e-20)
(0.929003 -0.0483294 7.75135e-20)
(0.982433 -0.0600587 -7.71103e-20)
(1.0297 -0.0736476 -1.0283e-19)
(1.07875 -0.0844439 -2.76435e-20)
(1.11055 -0.099033 -1.94049e-21)
(1.16114 -0.107603 -2.42441e-21)
(-0.00881507 0.0202489 1.47544e-19)
(-0.021811 0.0470312 5.9456e-20)
(-0.0319348 0.0645259 -3.86619e-20)
(-0.0388021 0.0753138 -1.28184e-20)
(-0.0427977 0.0813948 1.35963e-19)
(-0.0439437 0.0842896 -4.85343e-20)
(-0.0423708 0.08509 -8.31956e-21)
(-0.0381416 0.084573 8.46996e-20)
(-0.0313065 0.0832666 1.11608e-19)
(-0.0218889 0.0815174 -2.3826e-20)
(-0.0098938 0.0795414 -5.62133e-20)
(0.00468843 0.0774627 9.26816e-20)
(0.0218776 0.0753431 3.87481e-20)
(0.0417002 0.0732021 1.69157e-19)
(0.0641865 0.0710316 -7.06159e-21)
(0.0893682 0.0688049 4.42479e-20)
(0.117277 0.0664834 1.239e-19)
(0.14794 0.0640206 5.85436e-20)
(0.181383 0.0613644 4.26382e-20)
(0.21762 0.0584594 -1.35269e-20)
(0.256656 0.0552475 -3.8883e-20)
(0.298479 0.0516694 -1.10065e-20)
(0.343052 0.0476653 2.68059e-20)
(0.390311 0.0431757 5.16131e-20)
(0.440147 0.0381432 -8.13965e-20)
(0.4924 0.0325134 1.66004e-20)
(0.546845 0.0262374 -6.56e-21)
(0.603176 0.0192757 -6.39173e-20)
(0.660998 0.0115955 4.19786e-23)
(0.719818 0.00319575 8.268e-20)
(0.779028 -0.00595021 -1.04604e-19)
(0.837948 -0.0157273 -2.34134e-20)
(0.895724 -0.0262659 -4.65761e-20)
(0.951683 -0.0370684 -4.77812e-20)
(1.00445 -0.0488147 -3.74098e-20)
(1.05438 -0.0598374 1.5154e-19)
(1.09775 -0.0726279 1.14029e-20)
(1.1405 -0.0824883 -1.47059e-20)
(1.16785 -0.0963051 1.06094e-20)
(1.2089 -0.103456 -4.54813e-20)
(-0.00926709 0.0202997 3.86674e-20)
(-0.0226359 0.047271 -7.46091e-20)
(-0.0325571 0.0649101 1.54549e-19)
(-0.0388236 0.0757593 8.02498e-20)
(-0.0418682 0.0818217 -1.68825e-20)
(-0.041786 0.0846269 -5.76799e-20)