/*--------------------------------*- C++ -*----------------------------------*\
  =========                 |
  \\      /  F ield         | OpenFOAM: The Open Source CFD Toolbox
   \\    /   O peration     | Website:  https://openfoam.org
    \\  /    A nd           | Version:  7
     \\/     M anipulation  |
\*---------------------------------------------------------------------------*/
FoamFile
{
    version     2.0;
    format      ascii;
    class       volScalarField;
    location    "55";
    object      p;
}
// * * * * * * * * * * * * * * * * * * * * * * * * * * * * * * * * * * * * * //

dimensions      [0 2 -2 0 0 0 0];

internalField   nonuniform List<scalar> 
2625
(
-0.322035
-0.312414
-0.302752
-0.293143
-0.283669
-0.274431
-0.265403
-0.257013
-0.248107
-0.322156
-0.312516
-0.302834
-0.293205
-0.283712
-0.274455
-0.2654
-0.257038
-0.247911
-0.322336
-0.312668
-0.302957
-0.293299
-0.283775
-0.27449
-0.265396
-0.257075
-0.247618
-0.322575
-0.312869
-0.303121
-0.293423
-0.28386
-0.274537
-0.265389
-0.257125
-0.247227
-0.322872
-0.313119
-0.303324
-0.293578
-0.283964
-0.274595
-0.26538
-0.257186
-0.246738
-0.323227
-0.313419
-0.303567
-0.293763
-0.28409
-0.274664
-0.265368
-0.25726
-0.246152
-0.323639
-0.313766
-0.303848
-0.293977
-0.284235
-0.274745
-0.265354
-0.257346
-0.24547
-0.31416
-0.304168
-0.294221
-0.2844
-0.274836
-0.265337
-0.257444
-0.244692
-0.314601
-0.304526
-0.294494
-0.284584
-0.274937
-0.265316
-0.257553
-0.243819
-0.315087
-0.30492
-0.294794
-0.284787
-0.275049
-0.265291
-0.257673
-0.242851
-0.315617
-0.305351
-0.295123
-0.285009
-0.275172
-0.265263
-0.257804
-0.24179
-0.316191
-0.305817
-0.295479
-0.285249
-0.275304
-0.26523
-0.257945
-0.240637
-0.316806
-0.306318
-0.295861
-0.285508
-0.275447
-0.265193
-0.258096
-0.239392
-0.317463
-0.306853
-0.29627
-0.285784
-0.275599
-0.26515
-0.258256
-0.238058
-0.31816
-0.307421
-0.296705
-0.286078
-0.275761
-0.265103
-0.258424
-0.236634
-0.318896
-0.308021
-0.297166
-0.28639
-0.275933
-0.26505
-0.258598
-0.235123
-0.319669
-0.308654
-0.297652
-0.286719
-0.276115
-0.264991
-0.258779
-0.233525
-0.309317
-0.298162
-0.287066
-0.276307
-0.264928
-0.258964
-0.231842
-0.31001
-0.298698
-0.287431
-0.27651
-0.264859
-0.259153
-0.230075
-0.310733
-0.299258
-0.287815
-0.276724
-0.264785
-0.259343
-0.228225
-0.311485
-0.299844
-0.288217
-0.27695
-0.264707
-0.259533
-0.226293
-0.312266
-0.300453
-0.288639
-0.277189
-0.264626
-0.259721
-0.22428
-0.313075
-0.301088
-0.289081
-0.277441
-0.264543
-0.259904
-0.222186
-0.301749
-0.289544
-0.277708
-0.264459
-0.260082
-0.220012
-0.302435
-0.290031
-0.277992
-0.264378
-0.26025
-0.21776
-0.303148
-0.290543
-0.278296
-0.264303
-0.260407
-0.215431
-0.303888
-0.291082
-0.278621
-0.26424
-0.260549
-0.213027
-0.304655
-0.29165
-0.278972
-0.264195
-0.260673
-0.210552
-0.292251
-0.279353
-0.264178
-0.260776
-0.208014
-0.29289
-0.27977
-0.264202
-0.260853
-0.205427
-0.293569
-0.28023
-0.264285
-0.260901
-0.202812
-0.280741
-0.264451
-0.260913
-0.200207
-0.281315
-0.264733
-0.260884
-0.197679
-0.281965
-0.265173
-0.260817
-0.195369
-0.265828
-0.260729
-0.193524
-0.266765
-0.260595
-0.192325
-0.268073
-0.260247
-0.191659
-0.259825
-0.193168
-0.261
-0.207923
-0.265109
-0.254587
-0.273629
-0.280808
-0.183408
-0.178752
-0.17412
-0.169518
-0.164952
-0.160427
-0.155949
-0.151522
-0.14715
-0.142838
-0.138589
-0.134407
-0.130294
-0.126254
-0.122289
-0.1184
-0.11459
-0.110859
-0.10721
-0.103642
-0.100157
-0.0967552
-0.0934363
-0.0902005
-0.0870476
-0.0839772
-0.0809887
-0.0780815
-0.0752547
-0.0725074
-0.0698384
-0.0672466
-0.242995
-0.238717
-0.234296
-0.229852
-0.225344
-0.220782
-0.216178
-0.211541
-0.206878
-0.202198
-0.197508
-0.192816
-0.188128
-0.183452
-0.178794
-0.17416
-0.169556
-0.164989
-0.160463
-0.155983
-0.151555
-0.147182
-0.142868
-0.138619
-0.134436
-0.130322
-0.126281
-0.122315
-0.118425
-0.114614
-0.110883
-0.107233
-0.103665
-0.100179
-0.0967763
-0.0934567
-0.0902203
-0.0870668
-0.0839958
-0.0810067
-0.0780989
-0.0752715
-0.0725236
-0.069854
-0.0672616
-0.24329
-0.238968
-0.234499
-0.230037
-0.225514
-0.220937
-0.21632
-0.211672
-0.206999
-0.202311
-0.197614
-0.192915
-0.188222
-0.183541
-0.178878
-0.17424
-0.169633
-0.165062
-0.160533
-0.156051
-0.15162
-0.147245
-0.142929
-0.138677
-0.134492
-0.130377
-0.126335
-0.122367
-0.118476
-0.114663
-0.110931
-0.107279
-0.103709
-0.100222
-0.0968185
-0.0934976
-0.0902599
-0.0871051
-0.0840329
-0.0810426
-0.0781336
-0.075305
-0.0725559
-0.0698852
-0.0672918
-0.24373
-0.239344
-0.234801
-0.230314
-0.225767
-0.221167
-0.216531
-0.211867
-0.20718
-0.20248
-0.197772
-0.193063
-0.188361
-0.183673
-0.179003
-0.174359
-0.169747
-0.165171
-0.160638
-0.156151
-0.151717
-0.147338
-0.14302
-0.138765
-0.134578
-0.13046
-0.126415
-0.122445
-0.118551
-0.114736
-0.111002
-0.107348
-0.103777
-0.100288
-0.0968815
-0.0935588
-0.0903192
-0.0871625
-0.0840884
-0.0810963
-0.0781855
-0.0753552
-0.0726044
-0.069932
-0.0673369
-0.244314
-0.239844
-0.235202
-0.230682
-0.226103
-0.221473
-0.216812
-0.212126
-0.207421
-0.202703
-0.197981
-0.19326
-0.188547
-0.183848
-0.17917
-0.174518
-0.169898
-0.165316
-0.160777
-0.156285
-0.151846
-0.147463
-0.143141
-0.138882
-0.134691
-0.13057
-0.126521
-0.122548
-0.118652
-0.114834
-0.111096
-0.10744
-0.103866
-0.100374
-0.0969655
-0.0936401
-0.090398
-0.0872389
-0.0841623
-0.0811678
-0.0782547
-0.0754221
-0.072669
-0.0699943
-0.067397
-0.245041
-0.240465
-0.235702
-0.23114
-0.226522
-0.221854
-0.217162
-0.212449
-0.20772
-0.202982
-0.198241
-0.193504
-0.188777
-0.184066
-0.179377
-0.174715
-0.170087
-0.165497
-0.16095
-0.156452
-0.152007
-0.147618
-0.143291
-0.139027
-0.134832
-0.130706
-0.126654
-0.122677
-0.118777
-0.114955
-0.111214
-0.107555
-0.103977
-0.100482
-0.0970702
-0.0937417
-0.0904964
-0.0873342
-0.0842546
-0.0812571
-0.078341
-0.0755055
-0.0727495
-0.0700721
-0.067472
-0.245906
-0.241205
-0.236297
-0.231686
-0.227021
-0.222309
-0.217579
-0.212833
-0.208076
-0.203313
-0.198551
-0.193795
-0.189052
-0.184326
-0.179623
-0.17495
-0.170311
-0.165711
-0.161157
-0.156651
-0.152198
-0.147803
-0.14347
-0.139201
-0.135
-0.13087
-0.126812
-0.122831
-0.118926
-0.115101
-0.111356
-0.107692
-0.10411
-0.100611
-0.0971955
-0.0938632
-0.0906142
-0.0874483
-0.0843651
-0.081364
-0.0784444
-0.0756054
-0.0728461
-0.0701653
-0.0675619
-0.246907
-0.242062
-0.236987
-0.232319
-0.227599
-0.222836
-0.218062
-0.213279
-0.208489
-0.203697
-0.19891
-0.194132
-0.189369
-0.184626
-0.179909
-0.175222
-0.170571
-0.16596
-0.161396
-0.156881
-0.15242
-0.148018
-0.143678
-0.139402
-0.135195
-0.131059
-0.126997
-0.12301
-0.1191
-0.11527
-0.11152
-0.107851
-0.104265
-0.100761
-0.0973413
-0.0940047
-0.0907513
-0.0875812
-0.0844938
-0.0814886
-0.0785649
-0.0757218
-0.0729585
-0.0702738
-0.0676666
-0.24804
-0.243033
-0.237769
-0.233036
-0.228255
-0.223433
-0.21861
-0.213784
-0.208956
-0.204133
-0.199317
-0.194514
-0.189729
-0.184967
-0.180232
-0.17553
-0.170865
-0.166242
-0.161667
-0.157142
-0.152672
-0.148262
-0.143913
-0.139631
-0.135417
-0.131275
-0.127206
-0.123213
-0.119298
-0.115462
-0.111706
-0.108032
-0.104441
-0.100933
-0.0975075
-0.0941659
-0.0909076
-0.0877326
-0.0846405
-0.0816305
-0.0787022
-0.0758546
-0.0730868
-0.0703977
-0.0677861
-0.249299
-0.244115
-0.23864
-0.233836
-0.228987
-0.224099
-0.21922
-0.214346
-0.209477
-0.204617
-0.19977
-0.194939
-0.19013
-0.185346
-0.180592
-0.175873
-0.171193
-0.166557
-0.161969
-0.157433
-0.152953
-0.148533
-0.144177
-0.139886
-0.135665
-0.131515
-0.12744
-0.12344
-0.119519
-0.115677
-0.111915
-0.108236
-0.104639
-0.101124
-0.0976938
-0.0943466
-0.091083
-0.0879026
-0.0848051
-0.0817899
-0.0788564
-0.0760037
-0.0732308
-0.0705367
-0.0679203
-0.250679
-0.245302
-0.239597
-0.234715
-0.229791
-0.224831
-0.219891
-0.214965
-0.21005
-0.20515
-0.200268
-0.195406
-0.19057
-0.185762
-0.180987
-0.176249
-0.171553
-0.166902
-0.162301
-0.157753
-0.153263
-0.148833
-0.144467
-0.140168
-0.135938
-0.131781
-0.127698
-0.123692
-0.119763
-0.115915
-0.112147
-0.108461
-0.104857
-0.101337
-0.0979
-0.0945468
-0.0912771
-0.0880908
-0.0849874
-0.0819665
-0.0790272
-0.0761689
-0.0733905
-0.0706909
-0.0680691
-0.252175
-0.246591
-0.240635
-0.235671
-0.230664
-0.225626
-0.22062
-0.215637
-0.210672
-0.205728
-0.200808
-0.195913
-0.191047
-0.186214
-0.181416
-0.176659
-0.171944
-0.167278
-0.162662
-0.158102
-0.153599
-0.149159
-0.144783
-0.140474
-0.136236
-0.132071
-0.12798
-0.123966
-0.12003
-0.116174
-0.1124
-0.108707
-0.105096
-0.101569
-0.0981259
-0.0947661
-0.0914899
-0.0882972
-0.0851874
-0.0821602
-0.0792147
-0.0763502
-0.0735657
-0.0708602
-0.0682325
-0.253778
-0.247976
-0.241752
-0.236699
-0.231605
-0.226482
-0.221405
-0.21636
-0.211341
-0.20635
-0.201389
-0.196458
-0.191561
-0.1867
-0.181878
-0.177099
-0.172366
-0.167682
-0.163052
-0.158477
-0.153963
-0.149511
-0.145124
-0.140806
-0.136559
-0.132385
-0.128285
-0.124263
-0.12032
-0.116456
-0.112674
-0.108974
-0.105356
-0.101822
-0.0983712
-0.0950043
-0.0917212
-0.0885215
-0.0854048
-0.0823708
-0.0794185
-0.0765474
-0.0737563
-0.0710443
-0.0684103
-0.255482
-0.249451
-0.242943
-0.237795
-0.232608
-0.227396
-0.222242
-0.217131
-0.212055
-0.207014
-0.202008
-0.19704
-0.192109
-0.187218
-0.182371
-0.177569
-0.172815
-0.168114
-0.163468
-0.158879
-0.154351
-0.149887
-0.14549
-0.141162
-0.136905
-0.132721
-0.128613
-0.124583
-0.120631
-0.116759
-0.112969
-0.109261
-0.105636
-0.102094
-0.0986357
-0.0952613
-0.0919706
-0.0887635
-0.0856395
-0.0825981
-0.0796387
-0.0767604
-0.0739623
-0.0712433
-0.0686024
-0.257278
-0.25101
-0.244201
-0.238956
-0.23367
-0.228363
-0.223129
-0.217947
-0.21281
-0.207716
-0.202664
-0.197655
-0.192688
-0.187767
-0.182892
-0.178066
-0.173292
-0.168572
-0.163909
-0.159306
-0.154764
-0.150288
-0.145879
-0.14154
-0.137273
-0.13308
-0.128963
-0.124924
-0.120964
-0.117084
-0.113285
-0.109569
-0.105935
-0.102385
-0.098919
-0.0955367
-0.0922381
-0.0890231
-0.0858912
-0.0828421
-0.0798749
-0.076989
-0.0741833
-0.0714569
-0.0688087
-0.259156
-0.252644
-0.245521
-0.240175
-0.234787
-0.229379
-0.22406
-0.218806
-0.213604
-0.208454
-0.203353
-0.198301
-0.193298
-0.188344
-0.183441
-0.17859
-0.173794
-0.169055
-0.164375
-0.159756
-0.155201
-0.150712
-0.146291
-0.141941
-0.137664
-0.133461
-0.129335
-0.125286
-0.121317
-0.117428
-0.113621
-0.109896
-0.106254
-0.102696
-0.099221
-0.0958302
-0.0925232
-0.0892999
-0.0861598
-0.0831024
-0.0801271
-0.0772331
-0.0744194
-0.0716851
-0.0690291
-0.261107
-0.254346
-0.246897
-0.241446
-0.235952
-0.230441
-0.225033
-0.219702
-0.214433
-0.209224
-0.204072
-0.198976
-0.193934
-0.188947
-0.184015
-0.179139
-0.17432
-0.169561
-0.164863
-0.160229
-0.155659
-0.151157
-0.146725
-0.142364
-0.138076
-0.133863
-0.129727
-0.125669
-0.121691
-0.117793
-0.113977
-0.110243
-0.106592
-0.103025
-0.0995411
-0.0961416
-0.0928258
-0.0895938
-0.086445
-0.083379
-0.080395
-0.0774925
-0.0746704
-0.0719277
-0.0692634
-0.263119
-0.256107
-0.248321
-0.242765
-0.23716
-0.231541
-0.226043
-0.220631
-0.215293
-0.210023
-0.204819
-0.199677
-0.194595
-0.189574
-0.184611
-0.179709
-0.174868
-0.170089
-0.165373
-0.160723
-0.156139
-0.151624
-0.147179
-0.142807
-0.138508
-0.134285
-0.130139
-0.126072
-0.122084
-0.118177
-0.114351
-0.110608
-0.106948
-0.103372
-0.0998792
-0.0964705
-0.0931456
-0.0899044
-0.0867465
-0.0836714
-0.0806785
-0.077767
-0.074936
-0.0721846
-0.0695116
-0.265181
-0.257916
-0.249785
-0.244123
-0.238405
-0.232676
-0.227083
-0.22159
-0.21618
-0.210848
-0.20559
-0.200401
-0.195279
-0.190222
-0.185229
-0.1803
-0.175436
-0.170636
-0.165903
-0.161236
-0.156638
-0.15211
-0.147653
-0.14327
-0.13896
-0.134727
-0.130571
-0.126494
-0.122496
-0.11858
-0.114745
-0.110992
-0.107323
-0.103737
-0.100235
-0.0968166
-0.0934823
-0.0902316
-0.0870642
-0.0839796
-0.0809773
-0.0780564
-0.0752161
-0.0724555
-0.0697734
-0.267279
-0.259763
-0.25128
-0.245512
-0.23968
-0.233838
-0.22815
-0.222573
-0.217089
-0.211694
-0.206381
-0.201144
-0.195981
-0.190888
-0.185865
-0.18091
-0.176022
-0.171202
-0.166451
-0.161768
-0.157156
-0.152615
-0.148146
-0.143751
-0.139431
-0.135187
-0.131021
-0.126934
-0.122927
-0.119001
-0.115156
-0.111394
-0.107715
-0.104119
-0.100608
-0.0971797
-0.0938355
-0.090575
-0.0873977
-0.0843033
-0.0812912
-0.0783606
-0.0755106
-0.0727403
-0.0700486
-0.0674344
-0.269401
-0.261635
-0.252797
-0.246924
-0.240977
-0.235021
-0.229236
-0.223574
-0.218017
-0.212557
-0.207188
-0.201903
-0.196699
-0.191571
-0.186517
-0.181535
-0.176624
-0.171785
-0.167016
-0.162318
-0.157691
-0.153137
-0.148656
-0.14425
-0.139919
-0.135666
-0.13149
-0.127393
-0.123376
-0.11944
-0.115585
-0.111813
-0.108125
-0.104519
-0.100997
-0.0975592
-0.0942049
-0.0909343
-0.0877468
-0.0846423
-0.08162
-0.0786792
-0.0758191
-0.0730388
-0.0703372
-0.0677132
-0.271531
-0.263521
-0.254324
-0.248349
-0.242287
-0.236217
-0.230334
-0.224588
-0.218956
-0.213432
-0.208008
-0.202676
-0.19743
-0.192267
-0.187182
-0.182174
-0.177241
-0.172382
-0.167596
-0.162882
-0.158242
-0.153675
-0.149183
-0.144766
-0.140425
-0.136161
-0.131975
-0.127868
-0.123842
-0.119896
-0.116032
-0.11225
-0.108551
-0.104935
-0.101403
-0.0979549
-0.0945903
-0.0913092
-0.0881113
-0.0849962
-0.0819634
-0.0790121
-0.0761416
-0.0733509
-0.070639
-0.0680047
-0.273655
-0.265405
-0.255851
-0.249777
-0.243601
-0.237417
-0.231438
-0.225608
-0.219903
-0.214315
-0.208836
-0.203456
-0.19817
-0.192972
-0.187859
-0.182825
-0.177871
-0.172992
-0.168189
-0.163461
-0.158808
-0.154229
-0.149725
-0.145297
-0.140946
-0.136672
-0.132477
-0.12836
-0.124324
-0.120368
-0.116494
-0.112703
-0.108994
-0.105368
-0.101825
-0.0983665
-0.0949912
-0.0916993
-0.0884907
-0.0853648
-0.0823211
-0.079359
-0.0764777
-0.0736762
-0.0709537
-0.0683089
-0.275755
-0.267273
-0.257364
-0.251197
-0.244909
-0.238613
-0.23254
-0.226627
-0.220849
-0.215199
-0.209667
-0.204241
-0.198916
-0.193685
-0.188543
-0.183486
-0.17851
-0.173614
-0.168795
-0.164053
-0.159386
-0.154796
-0.150282
-0.145844
-0.141483
-0.137199
-0.132994
-0.128868
-0.124822
-0.120857
-0.116973
-0.113171
-0.109452
-0.105816
-0.102263
-0.0987934
-0.0954073
-0.0921045
-0.0888848
-0.0857478
-0.082693
-0.0797197
-0.0768273
-0.0740147
-0.0712811
-0.0686253
-0.277815
-0.269108
-0.258849
-0.252594
-0.246198
-0.239794
-0.233629
-0.227636
-0.221789
-0.21608
-0.210496
-0.205027
-0.199665
-0.194402
-0.189233
-0.184153
-0.179158
-0.174244
-0.169411
-0.164655
-0.159977
-0.155376
-0.150851
-0.146404
-0.142033
-0.137741
-0.133526
-0.129391
-0.125336
-0.121361
-0.117467
-0.113655
-0.109926
-0.106279
-0.102716
-0.0992353
-0.0958382
-0.0925242
-0.0892933
-0.0861449
-0.0830787
-0.080094
-0.0771901
-0.0743661
-0.0716211
-0.068954
-0.279815
-0.270892
-0.26029
-0.253956
-0.247456
-0.240948
-0.234697
-0.228629
-0.222716
-0.21695
-0.211318
-0.205808
-0.200412
-0.19512
-0.189926
-0.184825
-0.179811
-0.174882
-0.170035
-0.165267
-0.160579
-0.155967
-0.151433
-0.146976
-0.142597
-0.138296
-0.134072
-0.129928
-0.125864
-0.121879
-0.117976
-0.114154
-0.110415
-0.106757
-0.103183
-0.0996918
-0.0962835
-0.0929583
-0.0897158
-0.0865559
-0.0834779
-0.0804815
-0.0775658
-0.0747301
-0.0719734
-0.0692947
-0.281736
-0.272604
-0.261671
-0.255267
-0.24867
-0.242064
-0.235733
-0.229595
-0.223621
-0.217804
-0.212128
-0.206581
-0.201153
-0.195835
-0.190618
-0.185498
-0.180468
-0.175525
-0.170666
-0.165888
-0.161189
-0.156569
-0.152026
-0.147561
-0.143173
-0.138863
-0.134632
-0.130479
-0.126405
-0.122412
-0.118499
-0.114667
-0.110918
-0.10725
-0.103665
-0.100163
-0.0967429
-0.0934062
-0.0901521
-0.0869803
-0.0838905
-0.080882
-0.0779543
-0.0751066
-0.0723379
-0.0696472
-0.283557
-0.274224
-0.262972
-0.256508
-0.249823
-0.243129
-0.236725
-0.230524
-0.224497
-0.218634
-0.212919
-0.20734
-0.201884
-0.196543
-0.191307
-0.186171
-0.181127
-0.176172
-0.171302
-0.166515
-0.161807
-0.157179
-0.152629
-0.148156
-0.143761
-0.139443
-0.135203
-0.131042
-0.12696
-0.122958
-0.119036
-0.115194
-0.111434
-0.107756
-0.10416
-0.100647
-0.097216
-0.0938676
-0.0906017
-0.0874179
-0.0843159
-0.0812953
-0.0783553
-0.0754952
-0.0727142
-0.0700113
-0.0673855
-0.285255
-0.275726
-0.264173
-0.257661
-0.250897
-0.244126
-0.23766
-0.231406
-0.225334
-0.219433
-0.213686
-0.20808
-0.202602
-0.197242
-0.19199
-0.18684
-0.181785
-0.176821
-0.171942
-0.167147
-0.162432
-0.157797
-0.15324
-0.14876
-0.144358
-0.140034
-0.135787
-0.131618
-0.127527
-0.123516
-0.119585
-0.115734
-0.111964
-0.108276
-0.104669
-0.101145
-0.0977024
-0.0943422
-0.0910643
-0.0878684
-0.0847541
-0.081721
-0.0787685
-0.0758958
-0.0731023
-0.0703868
-0.0677484
-0.286802
-0.277084
-0.265249
-0.258704
-0.251875
-0.24504
-0.238525
-0.23223
-0.226123
-0.220192
-0.214422
-0.208795
-0.203301
-0.197927
-0.192664
-0.187504
-0.182441
-0.177469
-0.172584
-0.167782
-0.163062
-0.158421
-0.153859
-0.149374
-0.144965
-0.140634
-0.136381
-0.132204
-0.128106
-0.124087
-0.120147
-0.116287
-0.112507
-0.108809
-0.105191
-0.101655
-0.0982015
-0.0948296
-0.0915396
-0.0883314
-0.0852046
-0.0821588
-0.0791936
-0.0763081
-0.0735017
-0.0707734
-0.0681223
-0.28817
-0.278265
-0.266175
-0.25961
-0.252733
-0.245852
-0.239305
-0.232983
-0.226854
-0.220905
-0.21512
-0.209481
-0.203976
-0.198594
-0.193324
-0.188158
-0.18309
-0.178114
-0.173225
-0.168419
-0.163695
-0.159051
-0.154484
-0.149994
-0.145581
-0.141244
-0.136984
-0.132802
-0.128696
-0.124669
-0.120721
-0.116851
-0.113062
-0.109353
-0.105725
-0.102178
-0.0987131
-0.0953293
-0.0920272
-0.0888065
-0.0856671
-0.0826085
-0.0796303
-0.0767318
-0.0739123
-0.0711709
-0.0685068
-0.289321
-0.279233
-0.266918
-0.260352
-0.253446
-0.246543
-0.239982
-0.233651
-0.227515
-0.221562
-0.215773
-0.210131
-0.204624
-0.19924
-0.193969
-0.188802
-0.183732
-0.178754
-0.173864
-0.169057
-0.164331
-0.159684
-0.155114
-0.150621
-0.146204
-0.141862
-0.137597
-0.133408
-0.129296
-0.125262
-0.121305
-0.117427
-0.113629
-0.10991
-0.106271
-0.102713
-0.0992366
-0.095841
-0.0925266
-0.0892934
-0.0861412
-0.0830697
-0.0800783
-0.0771666
-0.0743338
-0.0715791
-0.0689016
-0.290206
-0.279942
-0.267445
-0.260894
-0.253988
-0.24709
-0.240541
-0.234221
-0.228097
-0.222154
-0.216374
-0.21074
-0.20524
-0.199861
-0.194594
-0.189431
-0.184364
-0.179388
-0.174499
-0.169693
-0.164967
-0.160319
-0.155748
-0.151253
-0.146833
-0.142488
-0.138218
-0.134024
-0.129906
-0.125864
-0.1219
-0.118014
-0.114206
-0.110478
-0.106829
-0.10326
-0.0997718
-0.0963644
-0.0930377
-0.0897919
-0.0866268
-0.0835422
-0.0805375
-0.0776124
-0.0747661
-0.0719978
-0.0693068
-0.290762
-0.280339
-0.267718
-0.261201
-0.254327
-0.24747
-0.240961
-0.234679
-0.228587
-0.222673
-0.216917
-0.211303
-0.205819
-0.200453
-0.195197
-0.190043
-0.184984
-0.180014
-0.175129
-0.170327
-0.165603
-0.160957
-0.156386
-0.15189
-0.147468
-0.14312
-0.138847
-0.134648
-0.130525
-0.126477
-0.122506
-0.118611
-0.114795
-0.111057
-0.107398
-0.103818
-0.100319
-0.0968993
-0.0935605
-0.090302
-0.087124
-0.084026
-0.081008
-0.0780692
-0.0752092
-0.0724272
-0.0697223
-0.290909
-0.280351
-0.267681
-0.261215
-0.254416
-0.247645
-0.241213
-0.234999
-0.228967
-0.223102
-0.217386
-0.211806
-0.20635
-0.201007
-0.19577
-0.190631
-0.185585
-0.180625
-0.175749
-0.170953
-0.166235
-0.161592
-0.157023
-0.152528
-0.148106
-0.143757
-0.139481
-0.135279
-0.131151
-0.127097
-0.123119
-0.119217
-0.115392
-0.111645
-0.107976
-0.104386
-0.100876
-0.0974446
-0.0940935
-0.0908224
-0.0876313
-0.0845201
-0.0814885
-0.078536
-0.0756621
-0.0728662
-0.0701473
-0.0675047
-0.290438
-0.2798
-0.267232
-0.260852
-0.254195
-0.247574
-0.241265
-0.235156
-0.229213
-0.223422
-0.217767
-0.212237
-0.206821
-0.201512
-0.196303
-0.191187
-0.186159
-0.181215
-0.176351
-0.171565
-0.166854
-0.162218
-0.157653
-0.153161
-0.14874
-0.144391
-0.140114
-0.135909
-0.131777
-0.127719
-0.123735
-0.119826
-0.115994
-0.112238
-0.10856
-0.104959
-0.101438
-0.0979951
-0.094632
-0.0913484
-0.0881445
-0.08502
-0.0819748
-0.0790086
-0.0761208
-0.0733109
-0.070578
-0.0679213
-0.288932
-0.278535
-0.266379
-0.260139
-0.253707
-0.247305
-0.241167
-0.235199
-0.229373
-0.223677
-0.218099
-0.212632
-0.207268
-0.202001
-0.196825
-0.191737
-0.186731
-0.181806
-0.176957
-0.172183
-0.167482
-0.162852
-0.158293
-0.153804
-0.149385
-0.145037
-0.140758
-0.136551
-0.132415
-0.128352
-0.124362
-0.120446
-0.116606
-0.112841
-0.109153
-0.105542
-0.10201
-0.0985555
-0.0951801
-0.0918838
-0.0886667
-0.0855287
-0.0824698
-0.0794896
-0.0765877
-0.0737634
-0.0710163
-0.0683453
-0.286597
-0.276896
-0.265329
-0.259167
-0.253014
-0.246902
-0.240986
-0.2352
-0.229522
-0.223945
-0.218462
-0.213071
-0.207767
-0.202548
-0.197411
-0.192354
-0.187373
-0.182467
-0.177634
-0.172872
-0.16818
-0.163557
-0.159003
-0.154516
-0.150098
-0.145749
-0.141469
-0.137258
-0.133117
-0.129048
-0.125051
-0.121128
-0.117278
-0.113503
-0.109805
-0.106182
-0.102637
-0.0991701
-0.0957811
-0.0924708
-0.0892393
-0.0860865
-0.0830125
-0.0800169
-0.0770995
-0.0742596
-0.0714967
-0.06881
-0.283997
-0.273833
-0.262928
-0.25684
-0.251155
-0.245534
-0.240001
-0.234527
-0.229103
-0.223729
-0.218412
-0.213155
-0.207961
-0.202832
-0.19777
-0.192774
-0.187846
-0.182984
-0.178187
-0.173457
-0.168791
-0.164191
-0.159655
-0.155185
-0.15078
-0.14644
-0.142168
-0.137963
-0.133826
-0.129759
-0.125762
-0.121836
-0.117983
-0.114203
-0.110498
-0.106868
-0.103314
-0.0998362
-0.0964361
-0.0931136
-0.0898691
-0.0867026
-0.0836142
-0.0806038
-0.077671
-0.0748154
-0.0720364
-0.0693334
-0.270058
-0.264105
-0.257031
-0.251675
-0.246941
-0.242102
-0.23715
-0.232145
-0.227104
-0.222047
-0.216995
-0.211962
-0.206958
-0.201994
-0.197073
-0.192201
-0.18738
-0.182613
-0.177901
-0.173245
-0.168646
-0.164105
-0.159623
-0.1552
-0.150838
-0.146537
-0.142299
-0.138124
-0.134015
-0.129971
-0.125995
-0.122088
-0.118251
-0.114484
-0.11079
-0.107169
-0.103623
-0.100151
-0.0967548
-0.0934349
-0.0901915
-0.087025
-0.0839354
-0.0809227
-0.0779867
-0.0751271
-0.0723434
-0.069635
-0.220956
-0.255924
-0.257456
-0.252591
-0.248179
-0.243357
-0.238304
-0.233175
-0.228005
-0.222827
-0.217662
-0.212527
-0.20743
-0.202381
-0.197382
-0.192438
-0.187551
-0.182722
-0.177952
-0.173242
-0.168593
-0.164004
-0.159478
-0.155013
-0.150613
-0.146276
-0.142005
-0.1378
-0.133663
-0.129595
-0.125597
-0.12167
-0.117816
-0.114035
-0.110329
-0.106698
-0.103144
-0.0996671
-0.0962676
-0.0929462
-0.0897031
-0.0865384
-0.0834523
-0.0804444
-0.0775145
-0.0746622
-0.0718869
-0.0691878
-0.0665642
-0.206113
-0.246333
-0.251045
-0.247478
-0.244172
-0.240059
-0.235492
-0.23073
-0.225852
-0.220911
-0.215947
-0.210982
-0.206034
-0.201114
-0.196231
-0.191389
-0.186594
-0.181848
-0.177154
-0.172513
-0.167927
-0.163396
-0.158923
-0.154509
-0.150154
-0.145861
-0.141629
-0.137462
-0.133359
-0.129323
-0.125355
-0.121456
-0.117628
-0.113872
-0.110188
-0.106578
-0.103043
-0.0995837
-0.0962005
-0.0928941
-0.0896648
-0.0865128
-0.0834382
-0.0804408
-0.0775204
-0.0746767
-0.071909
-0.0692169
-0.0665994
-0.203369
-0.239367
-0.244367
-0.241668
-0.239276
-0.235869
-0.231836
-0.227502
-0.222974
-0.218326
-0.213612
-0.208863
-0.204104
-0.199352
-0.194618
-0.189912
-0.18524
-0.180606
-0.176014
-0.171468
-0.16697
-0.162521
-0.158124
-0.153781
-0.149493
-0.145262
-0.141089
-0.136977
-0.132926
-0.128938
-0.125015
-0.121159
-0.11737
-0.113651
-0.110002
-0.106424
-0.102918
-0.0994865
-0.0961287
-0.0928456
-0.0896376
-0.0865051
-0.0834481
-0.0804668
-0.0775609
-0.0747302
-0.0719741
-0.0692922
-0.0666838
-0.202504
-0.234039
-0.238993
-0.236747
-0.234901
-0.232013
-0.228413
-0.224441
-0.220219
-0.215833
-0.211343
-0.206792
-0.202208
-0.197611
-0.193017
-0.188437
-0.183879
-0.179351
-0.174856
-0.1704
-0.165985
-0.161614
-0.15729
-0.153014
-0.14879
-0.144619
-0.140503
-0.136443
-0.132442
-0.128502
-0.124623
-0.120808
-0.117059
-0.113376
-0.109761
-0.106215
-0.10274
-0.0993358
-0.0960038
-0.0927447
-0.0895589
-0.0864468
-0.0834087
-0.0804445
-0.0775544
-0.0747379
-0.0719948
-0.0693246
-0.0667266
-0.202178
-0.229506
-0.23435
-0.232339
-0.230809
-0.22831
-0.22507
-0.221416
-0.217474
-0.213333
-0.20906
-0.204701
-0.200287
-0.195844
-0.191389
-0.186935
-0.182492
-0.17807
-0.173673
-0.169306
-0.164975
-0.160683
-0.156432
-0.152225
-0.148065
-0.143954
-0.139894
-0.135888
-0.131938
-0.128044
-0.12421
-0.120437
-0.116727
-0.113081
-0.109501
-0.105987
-0.102542
-0.0991664
-0.0958608
-0.092626
-0.0894628
-0.0863716
-0.0833527
-0.0804063
-0.0775323
-0.0747306
-0.0720009
-0.0693429
-0.0667559
-0.202054
-0.225508
-0.230102
-0.228196
-0.226839
-0.224637
-0.221701
-0.218333
-0.214654
-0.21075
-0.206691
-0.202523
-0.198283
-0.193996
-0.189684
-0.18536
-0.181037
-0.176725
-0.17243
-0.168158
-0.163915
-0.159704
-0.15553
-0.151395
-0.147302
-0.143255
-0.139255
-0.135305
-0.131407
-0.127563
-0.123776
-0.120047
-0.116378
-0.112771
-0.109227
-0.105747
-0.102334
-0.0989875
-0.0957093
-0.0925001
-0.0893606
-0.0862913
-0.0832926
-0.0803647
-0.0775077
-0.0747215
-0.0720059
-0.0693607
-0.0667852
-0.201869
-0.221874
-0.226137
-0.22426
-0.222981
-0.220998
-0.218316
-0.215202
-0.211765
-0.208088
-0.204236
-0.200259
-0.196193
-0.192065
-0.187898
-0.183709
-0.179509
-0.175311
-0.171122
-0.166949
-0.162797
-0.158672
-0.154578
-0.150519
-0.146497
-0.142516
-0.138579
-0.134687
-0.130845
-0.127054
-0.123316
-0.119633
-0.116007
-0.112441
-0.108935
-0.105491
-0.102111
-0.0987961
-0.095547
-0.0923647
-0.0892502
-0.086204
-0.0832265
-0.0803182
-0.0774792
-0.0747094
-0.0720088
-0.069377
-0.0668137
-0.201462
-0.218456
-0.222368
-0.22049
-0.219226
-0.217402
-0.214929
-0.212037
-0.208822
-0.205359
-0.201707
-0.197917
-0.194023
-0.190056
-0.186037
-0.181984
-0.177911
-0.17383
-0.16975
-0.165679
-0.161623
-0.157587
-0.153577
-0.149596
-0.145648
-0.141737
-0.137865
-0.134035
-0.130251
-0.126515
-0.122828
-0.119193
-0.115613
-0.11209
-0.108624
-0.105218
-0.101873
-0.0985903
-0.0953716
-0.0922177
-0.0891295
-0.0861076
-0.0831526
-0.0802649
-0.0774448
-0.0746924
-0.0720075
-0.0693901
-0.0668397
-0.200763
-0.215149
-0.218717
-0.216832
-0.21555
-0.213839
-0.211538
-0.208841
-0.205829
-0.202566
-0.199107
-0.195499
-0.191777
-0.187969
-0.184099
-0.180185
-0.176242
-0.172282
-0.168315
-0.164349
-0.160392
-0.156449
-0.152525
-0.148626
-0.144755
-0.140916
-0.137113
-0.133347
-0.129624
-0.125944
-0.122311
-0.118728
-0.115195
-0.111716
-0.108292
-0.104925
-0.101617
-0.0983692
-0.0951825
-0.0920584
-0.0889978
-0.0860015
-0.0830701
-0.0802042
-0.0774041
-0.0746699
-0.0720018
-0.0693995
-0.0668628
-0.199747
-0.211884
-0.215122
-0.213239
-0.211922
-0.210295
-0.208139
-0.205612
-0.202785
-0.19971
-0.196437
-0.193006
-0.189453
-0.185806
-0.182086
-0.178313
-0.174501
-0.170665
-0.166814
-0.162957
-0.159101
-0.155254
-0.151421
-0.147607
-0.143816
-0.140053
-0.13632
-0.132622
-0.128962
-0.125342
-0.121765
-0.118235
-0.114752
-0.111319
-0.10794
-0.104614
-0.101344
-0.0981322
-0.0949791
-0.0918863
-0.0888547
-0.0858852
-0.0829787
-0.0801357
-0.0773567
-0.0746418
-0.0719912
-0.0694049
-0.0668828
-0.198413
-0.208609
-0.211538
-0.20967
-0.208319
-0.206754
-0.204722
-0.202348
-0.199691
-0.196793
-0.193697
-0.19044
-0.240624
-0.243081
-0.24916
-0.271133
-0.248798
-0.254373
-0.264827
-0.293087
-0.250548
-0.256178
-0.266766
-0.294079
-0.247918
-0.253345
-0.263845
-0.289413
-0.245311
-0.25077
-0.261232
-0.284519
-0.242541
-0.247975
-0.258216
-0.279126
-0.239229
-0.24459
-0.254549
-0.273332
-0.23551
-0.240798
-0.250467
-0.267377
-0.236706
-0.246071
-0.261326
-0.241398
-0.255194
)
;

boundaryField
{
    inlet
    {
        type            zeroGradient;
    }
    outlet
    {
        type            fixedValue;
        value           nonuniform 0();
    }
    cylinder
    {
        type            zeroGradient;
    }
    top
    {
        type            symmetryPlane;
    }
    bottom
    {
        type            symmetryPlane;
    }
    defaultFaces
    {
        type            empty;
    }
    procBoundary10to6
    {
        type            processor;
        value           nonuniform List<scalar> 
55
(
-0.321975
-0.312364
-0.302711
-0.293111
-0.283647
-0.274419
-0.265405
-0.257
-0.248205
-0.242847
-0.238591
-0.234195
-0.229759
-0.22526
-0.220705
-0.216107
-0.211476
-0.206818
-0.202142
-0.197455
-0.192766
-0.188081
-0.188081
-0.183408
-0.178752
-0.17412
-0.169518
-0.164952
-0.160427
-0.155949
-0.151522
-0.14715
-0.142838
-0.138589
-0.134407
-0.130294
-0.126254
-0.122289
-0.1184
-0.11459
-0.110859
-0.10721
-0.103642
-0.100157
-0.0967552
-0.0934363
-0.0902005
-0.0870476
-0.0839772
-0.0809887
-0.0780815
-0.0752547
-0.0725074
-0.0698384
-0.0672466
)
;
    }
    procBoundary10to9
    {
        type            processor;
        value           nonuniform List<scalar> 
60
(
-0.331515
-0.331654
-0.331863
-0.33214
-0.332485
-0.332897
-0.333375
-0.324107
-0.324107
-0.32463
-0.325206
-0.325835
-0.326515
-0.327244
-0.328022
-0.328846
-0.329715
-0.330628
-0.320479
-0.320479
-0.321324
-0.322203
-0.323116
-0.32406
-0.325035
-0.313912
-0.313912
-0.314776
-0.315666
-0.316584
-0.317527
-0.305452
-0.305452
-0.306279
-0.307136
-0.294294
-0.294294
-0.295071
-0.295904
-0.282708
-0.282708
-0.28356
-0.284549
-0.269891
-0.269891
-0.272307
-0.275004
-0.266901
-0.266901
-0.267055
-0.284387
-0.284387
-0.237806
-0.243242
-0.244638
-0.242073
-0.239408
-0.236651
-0.233431
-0.229828
)
;
    }
    procBoundary10to11
    {
        type            processor;
        value           nonuniform List<scalar> 
53
(
-0.0647306
-0.0647452
-0.0647742
-0.0648177
-0.0648756
-0.0649479
-0.0650346
-0.0651356
-0.0652508
-0.0653803
-0.0655238
-0.0656814
-0.0658529
-0.0660382
-0.0662373
-0.06645
-0.0666762
-0.0669158
-0.0671686
-0.0671686
-0.0648965
-0.0651655
-0.065447
-0.0657406
-0.0660463
-0.0663638
-0.0666929
-0.0670336
-0.0670336
-0.0648354
-0.065186
-0.0655472
-0.0659187
-0.0663003
-0.066692
-0.0670937
-0.0670937
-0.0649373
-0.0653399
-0.0657496
-0.0661986
-0.0667056
-0.0670013
-0.0670013
-0.0640151
-0.0640558
-0.064148
-0.0642001
-0.0642392
-0.0642788
-0.0643183
-0.064356
-0.0643914
)
;
    }
    procBoundary10to14
    {
        type            processor;
        value           nonuniform List<scalar> 
57
(
-0.187054
-0.183565
-0.179996
-0.176365
-0.172688
-0.168978
-0.165246
-0.1615
-0.157751
-0.154003
-0.150263
-0.146537
-0.142829