/*--------------------------------*- C++ -*----------------------------------*\
  =========                 |
  \\      /  F ield         | OpenFOAM: The Open Source CFD Toolbox
   \\    /   O peration     | Website:  https://openfoam.org
    \\  /    A nd           | Version:  7
     \\/     M anipulation  |
\*---------------------------------------------------------------------------*/
FoamFile
{
    version     2.0;
    format      ascii;
    class       volScalarField;
    location    "45";
    object      p;
}
// * * * * * * * * * * * * * * * * * * * * * * * * * * * * * * * * * * * * * //

dimensions      [0 2 -2 0 0 0 0];

internalField   nonuniform List<scalar> 
2625
(
-0.0186507
-0.0175576
-0.0164947
-0.0154607
-0.0144549
-0.0134753
-0.0125225
-0.0115929
-0.0106903
-0.00980532
-0.0089522
-0.00810428
-0.00730549
-0.00647941
-0.00575382
-0.00491406
-0.00431564
-0.00337487
-0.00304269
-0.00178805
-0.00206086
1.32297e-05
-0.00165954
0.00241007
-0.0644244
-0.0620295
-0.0596974
-0.0574276
-0.0552192
-0.0530714
-0.0509833
-0.0489539
-0.046982
-0.0450666
-0.0432064
-0.0414001
-0.0396466
-0.0379444
-0.0362922
-0.0346886
-0.0331323
-0.0316218
-0.0301558
-0.0287329
-0.0273516
-0.0260106
-0.0247085
-0.023444
-0.0222158
-0.0210225
-0.019863
-0.0187359
-0.0176401
-0.0165744
-0.0155376
-0.0145289
-0.0135466
-0.012591
-0.0116587
-0.0107534
-0.0098661
-0.00901013
-0.00816054
-0.0073584
-0.00653221
-0.00580153
-0.00496555
-0.00435672
-0.00342986
-0.0030722
-0.00185814
-0.00206389
-0.000100844
-0.0015947
0.00218157
-0.0644548
-0.0620723
-0.0597514
-0.0574914
-0.0552917
-0.0531515
-0.0510699
-0.0490461
-0.0470789
-0.0451674
-0.0433103
-0.0415065
-0.0397547
-0.0380537
-0.0364021
-0.0347987
-0.0332421
-0.031731
-0.0302639
-0.0288396
-0.0274566
-0.0261137
-0.0248095
-0.0235427
-0.0223121
-0.0211162
-0.019954
-0.0188241
-0.0177255
-0.0166569
-0.0156172
-0.0146056
-0.0136205
-0.012662
-0.011727
-0.0108188
-0.00992912
-0.00907021
-0.00821887
-0.0074133
-0.00658691
-0.00585105
-0.00501878
-0.00439946
-0.00348644
-0.00310318
-0.0019297
-0.00206812
-0.000216457
-0.00153029
0.00195007
-0.0644823
-0.062113
-0.0598038
-0.0575543
-0.0553638
-0.0532317
-0.0511572
-0.0491394
-0.0471773
-0.04527
-0.0434163
-0.0416152
-0.0398654
-0.0381658
-0.036515
-0.0349119
-0.0333551
-0.0318433
-0.0303752
-0.0289496
-0.027565
-0.0262202
-0.0249139
-0.0236447
-0.0224116
-0.0212131
-0.0200481
-0.0189154
-0.0178138
-0.0167424
-0.0156997
-0.0146851
-0.013697
-0.0127356
-0.0117978
-0.0108866
-0.00999445
-0.00913252
-0.00827933
-0.00747025
-0.00664356
-0.00590244
-0.00507378
-0.00444392
-0.0035446
-0.00313575
-0.00200261
-0.00207378
-0.000333288
-0.00146677
0.00171619
-0.0645066
-0.0621512
-0.0598545
-0.0576161
-0.0554355
-0.053312
-0.051245
-0.0492337
-0.0472771
-0.0453743
-0.0435244
-0.0417262
-0.0399786
-0.0382805
-0.0366308
-0.0350281
-0.0334712
-0.0319589
-0.0304899
-0.0290629
-0.0276767
-0.02633
-0.0250216
-0.0237501
-0.0225144
-0.0213132
-0.0201454
-0.0190099
-0.0179053
-0.0168308
-0.0157851
-0.0147675
-0.0137763
-0.0128119
-0.0118712
-0.010957
-0.0100622
-0.00919711
-0.00834197
-0.0075293
-0.00670221
-0.00595578
-0.00513058
-0.00449017
-0.00360431
-0.00317003
-0.00207675
-0.00208112
-0.000451004
-0.0014046
0.00148058
-0.0645272
-0.0621866
-0.0599032
-0.0576766
-0.0555065
-0.0533922
-0.0513332
-0.0493288
-0.0473781
-0.0454803
-0.0436344
-0.0418394
-0.0400943
-0.0383981
-0.0367494
-0.0351473
-0.0335904
-0.0320777
-0.0306078
-0.0291796
-0.0277919
-0.0264433
-0.0251327
-0.0238589
-0.0226206
-0.0214167
-0.020246
-0.0191075
-0.0179999
-0.0169223
-0.0158735
-0.0148527
-0.0138584
-0.0128908
-0.0119471
-0.0110298
-0.0101323
-0.00926405
-0.00840686
-0.00759051
-0.00676289
-0.00601111
-0.00518918
-0.00453829
-0.00366555
-0.00320612
-0.00215199
-0.00209036
-0.000569266
-0.00134424
0.00124391
-0.064544
-0.062219
-0.0599496
-0.0577355
-0.0555765
-0.053472
-0.0514216
-0.0494246
-0.0474803
-0.0455878
-0.0437463
-0.0419549
-0.0402125
-0.0385182
-0.0368709
-0.0352695
-0.0337129
-0.0321998
-0.0307292
-0.0292998
-0.0279105
-0.02656
-0.0252473
-0.0239711
-0.0227302
-0.0215236
-0.02035
-0.0192084
-0.0180978
-0.017017
-0.0159649
-0.0149409
-0.0139434
-0.0129726
-0.0120258
-0.0111052
-0.0102049
-0.00933339
-0.00847403
-0.00765394
-0.00682565
-0.00606849
-0.00524961
-0.00458835
-0.00372828
-0.00324414
-0.00222819
-0.00210172
-0.000687729
-0.00128618
0.00100689
-0.0645564
-0.0622479
-0.0599933
-0.0577926
-0.0556453
-0.0535513
-0.0515101
-0.049521
-0.0475834
-0.0456967
-0.0438599
-0.0420724
-0.0403331
-0.0386411
-0.0369953
-0.0353948
-0.0338385
-0.0323252
-0.0308539
-0.0294234
-0.0280326
-0.0266803
-0.0253654
-0.0240868
-0.0228433
-0.0216339
-0.0204574
-0.0193127
-0.0181989
-0.0171148
-0.0160595
-0.0150321
-0.0140314
-0.0130572
-0.0121072
-0.0111833
-0.0102801
-0.00940519
-0.00854353
-0.00771964
-0.00689051
-0.00612797
-0.00531188
-0.0046404
-0.00379247
-0.00328419
-0.00230524
-0.00211541
-0.000806046
-0.00123085
0.000770267
-0.0645642
-0.062273
-0.0600341
-0.0578474
-0.0557128
-0.0536298
-0.0515983
-0.0496177
-0.0476874
-0.0458068
-0.0439753
-0.0421919
-0.040456
-0.0387665
-0.0371225
-0.0355231
-0.0339673
-0.0324539
-0.030982
-0.0295505
-0.0281582
-0.0268041
-0.0254871
-0.0242061
-0.02296
-0.0217477
-0.0205682
-0.0194204
-0.0183033
-0.0172159
-0.0161572
-0.0151265
-0.0141223
-0.0131447
-0.0121914
-0.0112641
-0.0103579
-0.0094795
-0.00861542
-0.00778765
-0.00695752
-0.00618961
-0.005376
-0.0046945
-0.0038581
-0.00332636
-0.002383
-0.00213162
-0.000923873
-0.00117871
0.000534804
-0.0645668
-0.062294
-0.0600717
-0.0578998
-0.0557784
-0.0537073
-0.0516861
-0.0497145
-0.0477921
-0.0459181
-0.0440922
-0.0423134
-0.0405811
-0.0388944
-0.0372524
-0.0356543
-0.0340991
-0.0325858
-0.0311135
-0.029681
-0.0282873
-0.0269315
-0.0256124
-0.024329
-0.0230802
-0.0218651
-0.0206825
-0.0195315
-0.0184111
-0.0173203
-0.0162582
-0.0152239
-0.0142163
-0.0132351
-0.0122785
-0.0113477
-0.0104383
-0.00955636
-0.00868972
-0.00785803
-0.0070267
-0.00625343
-0.00544199
-0.0047507
-0.00392513
-0.00337072
-0.00246135
-0.00215055
-0.00104087
-0.00113019
0.000301282
-0.0645638
-0.0623104
-0.0601056
-0.0579494
-0.0558421
-0.0537834
-0.0517733
-0.0498113
-0.0478972
-0.0460304
-0.0442104
-0.0424366
-0.0407083
-0.0390247
-0.037385
-0.0357884
-0.0342341
-0.032721
-0.0312483
-0.0298149
-0.02842
-0.0270624
-0.0257412
-0.0244554
-0.023204
-0.021986
-0.0208003
-0.0196461
-0.0185223
-0.0174281
-0.0163624
-0.0153246
-0.0143134
-0.0133286
-0.0123685
-0.011434
-0.0105214
-0.00963581
-0.00876649
-0.0079308
-0.00709808
-0.00631949
-0.00550986
-0.00480905
-0.00399354
-0.00341735
-0.00254016
-0.00217234
-0.00115669
-0.00108569
7.04955e-05
-0.0645549
-0.0623218
-0.0601354
-0.0579959
-0.0559034
-0.053858
-0.0518595
-0.0499078
-0.0480025
-0.0461434
-0.0443299
-0.0425614
-0.0408374
-0.0391573
-0.0375202
-0.0359254
-0.034372
-0.0328594
-0.0313864
-0.0299523
-0.0285561
-0.0271969
-0.0258737
-0.0245855
-0.0233314
-0.0221105
-0.0209217
-0.0197642
-0.018637
-0.0175392
-0.0164699
-0.0154284
-0.0144136
-0.0134251
-0.0124613
-0.0115232
-0.0106072
-0.0097179
-0.00884574
-0.008006
-0.00717168
-0.0063878
-0.0055796
-0.00486956
-0.00406328
-0.0034663
-0.00261932
-0.00219714
-0.00127102
-0.00104559
-0.00015675
-0.0645395
-0.0623278
-0.0601608
-0.0580387
-0.055962
-0.0539305
-0.0519445
-0.0500037
-0.0481079
-0.0462569
-0.0444503
-0.0426877
-0.0409684
-0.039292
-0.0376578
-0.036065
-0.0345129
-0.0330008
-0.0315278
-0.0300931
-0.0286957
-0.0273349
-0.0260097
-0.0247192
-0.0234624
-0.0222386
-0.0210466
-0.0198858
-0.0187551
-0.0176538
-0.0165808
-0.0155355
-0.0145169
-0.0135246
-0.0125572
-0.0116153
-0.0106958
-0.00980265
-0.0089275
-0.00808366
-0.00724752
-0.00645839
-0.00565122
-0.00493226
-0.00413434
-0.0035176
-0.00269872
-0.00222505
-0.00138355
-0.00101022
-0.000379649
-0.0645171
-0.0623279
-0.0601813
-0.0580777
-0.0560175
-0.0540008
-0.0520279
-0.0500987
-0.048213
-0.0463708
-0.0445716
-0.0428152
-0.0411011
-0.0394288
-0.0377977
-0.0362072
-0.0346566
-0.0331452
-0.0316723
-0.0302371
-0.0288387
-0.0274764
-0.0261492
-0.0248564
-0.023597
-0.0223702
-0.0211751
-0.0200109
-0.0188767
-0.0177717
-0.016695
-0.0156459
-0.0146234
-0.0136273
-0.012656
-0.0117102
-0.0107871
-0.00989007
-0.00901178
-0.00816379
-0.00732561
-0.00653127
-0.00572471
-0.00499717
-0.00420667
-0.00357128
-0.00277825
-0.00225615
-0.00149398
-0.000979898
-0.000597398
-0.0644873
-0.0623217
-0.0601965
-0.0581123
-0.0560695
-0.0540685
-0.0521095
-0.0501925
-0.0483176
-0.0464846
-0.0446934
-0.0429437
-0.0412352
-0.0395673
-0.0379397
-0.0363518
-0.034803
-0.0332926
-0.03182
-0.0303844
-0.0289851
-0.0276213
-0.0262923
-0.0249971
-0.0237351
-0.0225054
-0.0213072
-0.0201395
-0.0190018
-0.017893
-0.0168125
-0.0157595
-0.0147331
-0.013733
-0.0127578
-0.0118081
-0.0108812
-0.00998017
-0.0090986
-0.00824639
-0.00740594
-0.00660645
-0.00580007
-0.00506427
-0.00428023
-0.00362734
-0.00285781
-0.00229051
-0.00160202
-0.000954868
-0.000809207
-0.0644496
-0.0623087
-0.060206
-0.0581422
-0.0561178
-0.0541332
-0.0521888
-0.0502848
-0.0484213
-0.0465982
-0.0448156
-0.0430731
-0.0413705
-0.0397076
-0.0380838
-0.0364987
-0.0349519
-0.0334427
-0.0319705
-0.0305348
-0.0291347
-0.0277696
-0.0264387
-0.0251414
-0.0238768
-0.0226441
-0.0214427
-0.0202716
-0.0191302
-0.0180177
-0.0169333
-0.0158764
-0.014846
-0.0138418
-0.0128626
-0.0119088
-0.0109781
-0.010073
-0.00918795
-0.00833146
-0.00748851
-0.0066839
-0.00587728
-0.00513356
-0.004355
-0.00368575
-0.00293731
-0.00232812
-0.00170744
-0.000935341
-0.0010143
-0.0644036
-0.0622885
-0.0602093
-0.0581669
-0.0561617
-0.0541945
-0.0522656
-0.0503753
-0.0485239
-0.0467113
-0.0449377
-0.043203
-0.0415068
-0.0398492
-0.0382296
-0.0366477
-0.0351032
-0.0335954
-0.0321239
-0.0306881
-0.0292874
-0.0279211
-0.0265885
-0.025289
-0.0240218
-0.0227863
-0.0215816
-0.0204072
-0.0192621
-0.0181458
-0.0170575
-0.0159965
-0.014962
-0.0139537
-0.0129704
-0.0120124
-0.0110777
-0.0101684
-0.00927982
-0.008419
-0.00757331
-0.00676362
-0.0059563
-0.00520501
-0.00443092
-0.00374649
-0.00301667
-0.00236898
-0.00180997
-0.000921474
-0.00121193
-0.0643487
-0.0622606
-0.060206
-0.0581859
-0.0562011
-0.054252
-0.0523394
-0.0504636
-0.0486249
-0.0468236
-0.0450596
-0.0433331
-0.0416439
-0.0399919
-0.0383769
-0.0367986
-0.0352567
-0.0337506
-0.03228
-0.0308443
-0.0294431
-0.0280757
-0.0267415
-0.0254399
-0.0241702
-0.0229318
-0.0217239
-0.020546
-0.0193973
-0.0182772
-0.0171848
-0.0161197
-0.0150811
-0.0140685
-0.0130811
-0.0121188
-0.0111801
-0.0102665
-0.00937418
-0.00850896
-0.00766031
-0.00684557
-0.00603712
-0.00527856
-0.00450796
-0.00380949
-0.00309579
-0.00241304
-0.00190943
-0.000913367
-0.00140138
-0.0642845
-0.0622246
-0.0601957
-0.058199
-0.0562353
-0.0543054
-0.0524099
-0.0505494
-0.0487242
-0.0469346
-0.0451809
-0.0434632
-0.0417814
-0.0401356
-0.0385256
-0.0369512
-0.0354121
-0.033908
-0.0324385
-0.0310032
-0.0296016
-0.0282333
-0.0268975
-0.0255939
-0.0243218
-0.0230805
-0.0218695
-0.0206882
-0.0195358
-0.0184117
-0.0173154
-0.0162461
-0.0152033
-0.0141864
-0.0131947
-0.0122281
-0.0112852
-0.0103672
-0.00947099
-0.00860131
-0.00774947
-0.00692971
-0.00611969
-0.00535416
-0.00458606
-0.00387467
-0.00317462
-0.00246019
-0.00200561
-0.000911061
-0.00158196
-0.0642107
-0.06218
-0.0601779
-0.0582057
-0.0562641
-0.0543542
-0.0524767
-0.0506322
-0.0488212
-0.0470441
-0.0453013
-0.0435929
-0.0419191
-0.0402799
-0.0386752
-0.0371051
-0.0355692
-0.0340674
-0.0325993
-0.0311645
-0.0297628
-0.0283936
-0.0270565
-0.025751
-0.0244764
-0.0232324
-0.0220183
-0.0208335
-0.0196774
-0.0185494
-0.017449
-0.0163755
-0.0153284
-0.0143072
-0.0133111
-0.01234
-0.0113928
-0.0104705
-0.00957021
-0.008696
-0.00784074
-0.00701597
-0.00620395
-0.00543174
-0.00466518
-0.00394193
-0.00325308
-0.00251032
-0.00209837
-0.000914537
-0.00175303
-0.0641267
-0.0621265
-0.0601523
-0.0582055
-0.0562871
-0.0543981
-0.0525394
-0.0507117
-0.0489156
-0.0471517
-0.0454203
-0.0437219
-0.0420565
-0.0404244
-0.0388256
-0.0372601
-0.0357278
-0.0342285
-0.032762
-0.0313281
-0.0299264
-0.0285566
-0.0272182
-0.0259108
-0.024634
-0.0233873
-0.02217
-0.0209818
-0.019822
-0.0186901
-0.0175856
-0.0165079
-0.0154564
-0.0144308
-0.0134302
-0.0124547
-0.0115031
-0.0105762
-0.00967176
-0.00879295
-0.00793405
-0.00710427
-0.00628985
-0.00551121
-0.00474524
-0.00401114
-0.0033311
-0.00256326
-0.00218755
-0.000923715
-0.00191402
-0.0640324
-0.0620637
-0.0601184
-0.0581981
-0.0563037
-0.0544366
-0.0525975
-0.0507874
-0.049007
-0.047257
-0.0455378
-0.0438498
-0.0421935
-0.0405689
-0.0389764
-0.0374159
-0.0358875
-0.0343911
-0.0329265
-0.0314937
-0.0300922
-0.0287219
-0.0273824
-0.0260733
-0.0247943
-0.0235449
-0.0223246
-0.021133
-0.0199695
-0.0188337
-0.0177251
-0.0166431
-0.0155872
-0.0145571
-0.013552
-0.0125719
-0.0116158
-0.0106843
-0.00977556
-0.00889208
-0.00802933
-0.00719454
-0.00637731
-0.00559245
-0.00482617
-0.00408217
-0.00340861
-0.00261882
-0.00227305
-0.000938452
-0.00206439
-0.0639274
-0.0619913
-0.060076
-0.0581831
-0.0563138
-0.0544693
-0.0526508
-0.0508591
-0.0490951
-0.0473596
-0.0456532
-0.0439763
-0.0423295
-0.0407131
-0.0391272
-0.0375722
-0.0360481
-0.0345548
-0.0330925
-0.0316609
-0.0302599
-0.0288893
-0.0275489
-0.0262382
-0.0249571
-0.0237051
-0.0224818
-0.0212868
-0.0201197
-0.01898
-0.0178672
-0.0167809
-0.0157206
-0.0146859
-0.0136763
-0.0126915
-0.0117309
-0.0107947
-0.0098815
-0.00899328
-0.00812647
-0.00728665
-0.00646623
-0.00567534
-0.0049079
-0.00415485
-0.00348556
-0.00267677
-0.00235478
-0.000958548
-0.00220368
-0.0638114
-0.061909
-0.0600248
-0.0581603
-0.0563169
-0.054496
-0.0526988
-0.0509263
-0.0491795
-0.0474592
-0.0457662
-0.044101
-0.0424643
-0.0408564
-0.0392778
-0.0377286
-0.0362091
-0.0347194
-0.0332596
-0.0318295
-0.0304293
-0.0290586
-0.0277173
-0.0264053
-0.0251222
-0.0238677
-0.0226414
-0.0214432
-0.0202724
-0.0191288
-0.0180119
-0.0169213
-0.0158565
-0.0148172
-0.013803
-0.0128135
-0.0118481
-0.0109072
-0.00998946
-0.00909642
-0.00822536
-0.00738048
-0.00655652
-0.00575974
-0.00499033
-0.00422898
-0.00356187
-0.00273686
-0.00243267
-0.000983742
-0.00233149
-0.0636844
-0.0618167
-0.0599644
-0.0581293
-0.0563128
-0.0545163
-0.0527413
-0.0509887
-0.0492598
-0.0475554
-0.0458764
-0.0442235
-0.0425974
-0.0409986
-0.0394276
-0.0378847
-0.0363703
-0.0348845
-0.0334274
-0.0319992
-0.0305999
-0.0292293
-0.0278875
-0.0265742
-0.0252892
-0.0240323
-0.0228032
-0.0216017
-0.0204274
-0.0192798
-0.0181588
-0.0170639
-0.0159946
-0.0149508
-0.0139318
-0.0129376
-0.0119675
-0.0110217
-0.0100993
-0.00920136
-0.00832587
-0.0074759
-0.00664804
-0.0058455
-0.00507335
-0.00430439
-0.00363747
-0.00279879
-0.00250669
-0.00101372
-0.00244751
-0.0635462
-0.0617141
-0.0598948
-0.0580899
-0.0563011
-0.05453
-0.0527778
-0.051046
-0.0493356
-0.0476478
-0.0459835
-0.0443435
-0.0427285
-0.0411393
-0.0395764
-0.0380402
-0.0365312
-0.0350496
-0.0335957
-0.0321696
-0.0307715
-0.0294013
-0.028059
-0.0267446
-0.0254579
-0.0241987
-0.0229669
-0.0217622
-0.0205843
-0.019433
-0.0183078
-0.0172086
-0.0161348
-0.0150863
-0.0140626
-0.0130636
-0.0120887
-0.011138
-0.0102108
-0.00930794
-0.00842785
-0.00757272
-0.00674065
-0.00593243
-0.00515686
-0.00438084
-0.00371228
-0.00286228
-0.00257681
-0.00104812
-0.00255149
-0.0633969
-0.0616014
-0.0598158
-0.058042
-0.0562817
-0.0545366
-0.0528082
-0.0510978
-0.0494067
-0.0477361
-0.046087
-0.0444605
-0.0428572
-0.0412781
-0.0397237
-0.0381947
-0.0366915
-0.0352145
-0.033764
-0.0323403
-0.0309436
-0.029574
-0.0282315
-0.0269161
-0.0256279
-0.0243666
-0.0231321
-0.0219243
-0.020743
-0.0195878
-0.0184586
-0.017355
-0.0162768
-0.0152237
-0.0141952
-0.0131914
-0.0122116
-0.011256
-0.0103239
-0.00941597
-0.00853111
-0.00767078
-0.0068342
-0.00602034
-0.0052407
-0.00445811
-0.00378623
-0.00292698
-0.00264303
-0.00108652
-0.00264327
-0.0632366
-0.0614784
-0.0597274
-0.0579855
-0.0562545
-0.0545362
-0.0528321
-0.0511438
-0.0494726
-0.0478199
-0.0461867
-0.0445741
-0.0429831
-0.0414145
-0.0398692
-0.0383477
-0.0368507
-0.0353786
-0.0339319
-0.0325109
-0.0311159
-0.0297471
-0.0284046
-0.0270885
-0.0257988
-0.0245355
-0.0232986
-0.0220878
-0.020903
-0.0197441
-0.0186109
-0.017503
-0.0164203
-0.0153625
-0.0143294
-0.0133206
-0.0123359
-0.0113753
-0.0104383
-0.00952523
-0.00863546
-0.00776987
-0.00692851
-0.00610904
-0.00532474
-0.00453595
-0.00385923
-0.00299255
-0.00270536
-0.00112848
-0.00272279
-0.0630656
-0.0613455
-0.0596297
-0.0579203
-0.0562193
-0.0545285
-0.0528494
-0.0511839
-0.0495332
-0.0478989
-0.0462821
-0.044684
-0.0431058
-0.0415482
-0.0400123
-0.0384988
-0.0370084
-0.0355416
-0.034099
-0.032681
-0.031288
-0.0299202
-0.0285779
-0.0272613
-0.0259704
-0.0247052
-0.0234658
-0.0222522
-0.0210641
-0.0199016
-0.0187643
-0.0176522
-0.0165651
-0.0155026
-0.0144647
-0.013451
-0.0124614
-0.0114957
-0.0105537
-0.00963549
-0.00874068
-0.00786976
-0.00702338
-0.00619828
-0.0054088
-0.0046141
-0.00393117
-0.00305865
-0.00276384
-0.00117352
-0.00279006
-0.0628842
-0.0612027
-0.0595228
-0.0578466
-0.0561762
-0.0545134
-0.05286
-0.0512177
-0.0495882
-0.0479728
-0.0463729
-0.0447899
-0.0432248
-0.0416788
-0.0401528
-0.0386476
-0.0371641
-0.035703
-0.0342648
-0.0328501
-0.0314593
-0.0300929
-0.028751
-0.027434
-0.026142
-0.0248752
-0.0236335
-0.0224171
-0.0212259
-0.0200597
-0.0189186
-0.0178023
-0.0167107
-0.0156437
-0.0146009
-0.0135824
-0.0125878
-0.0116171
-0.0106699
-0.00974649
-0.00884654
-0.00797021
-0.0071186
-0.00628784
-0.00549271
-0.00469229
-0.00400196
-0.00312492
-0.0028185
-0.00122112
-0.00284519
-0.0626929
-0.0610505
-0.059407
-0.0577645
-0.0561252
-0.054491
-0.0528637
-0.0512453
-0.0496373
-0.0480414
-0.046459
-0.0448914
-0.04334
-0.0418058
-0.0402901
-0.0387937
-0.0373175
-0.0358623
-0.0344289
-0.0330177
-0.0316295
-0.0302646
-0.0289234
-0.0276062
-0.0263134
-0.025045
-0.0238012
-0.0225821
-0.0213878
-0.0202182
-0.0190732
-0.0179528
-0.0168568
-0.0157852
-0.0147378
-0.0137143
-0.0127147
-0.0117389
-0.0107866
-0.00985796
-0.00895275
-0.00807097
-0.00721392
-0.00637745
-0.00557628
-0.00477026
-0.00407147
-0.00319099
-0.0028694
-0.00127076
-0.00288837
-0.0624923
-0.0608894
-0.0592827
-0.0576743
-0.0560665
-0.0544613
-0.0528606
-0.0512665
-0.0496805
-0.0481045
-0.0465399
-0.0449882
-0.0434508
-0.041929
-0.0404239
-0.0389366
-0.037468
-0.0360191
-0.0345907
-0.0331834
-0.031798
-0.0304348
-0.0290945
-0.0277774
-0.0264839
-0.0252141
-0.0239684
-0.0227468
-0.0215495
-0.0203765
-0.0192278
-0.0181033
-0.0170031
-0.0159269
-0.0148748
-0.0138465
-0.0128419
-0.011861
-0.0109035
-0.00996958
-0.00905904
-0.00817173
-0.00730909
-0.00646684
-0.00565927
-0.00484771
-0.00413957
-0.0032565
-0.0029166
-0.0013219
-0.00291991
-0.0622832
-0.0607201
-0.0591503
-0.0575764
-0.0560004
-0.0544245
-0.0528508
-0.0512812
-0.0497177
-0.0481619
-0.0466155
-0.0450801
-0.0435571
-0.0420479
-0.0405537
-0.0390759
-0.0376153
-0.036173
-0.0347498
-0.0333467
-0.0319643
-0.0306032
-0.029264
-0.0279471
-0.0266531
-0.0253822
-0.0241346
-0.0229107
-0.0217105
-0.0205343
-0.0193819
-0.0182535
-0.017149
-0.0160684
-0.0150116
-0.0139785
-0.0129689
-0.0119829
-0.0110203
-0.010081
-0.00916508
-0.0082722
-0.00740382
-0.00655573
-0.00574148
-0.00492437
-0.00420614
-0.00332111
-0.00296018
-0.001374
-0.0029402
-0.0620665
-0.0605432
-0.0590106
-0.0574711
-0.0559272
-0.0543809
-0.0528343
-0.0512897
-0.0497488
-0.0482135
-0.0466856
-0.0451667
-0.0436584
-0.0421622
-0.0406793
-0.0392111
-0.0377588
-0.0363233
-0.0349058
-0.033507
-0.0321279
-0.030769
-0.0294311
-0.0281148
-0.0268204
-0.0255485
-0.0242993
-0.0230732
-0.0218703
-0.0206909
-0.019535
-0.0184028
-0.0172942
-0.0162092
-0.0151477
-0.0141099
-0.0130954
-0.0121043
-0.0111365
-0.0101919
-0.00927054
-0.00837206
-0.00749782
-0.00664382
-0.00582264
-0.00499994
-0.00427102
-0.00338446
-0.00300023
-0.00142653
-0.0029497
-0.0618432
-0.0603596
-0.0588641
-0.0573593
-0.0558474
-0.0543307
-0.0528115
-0.0512919
-0.0497738
-0.0482593
-0.0467501
-0.045248
-0.0437546
-0.0422715
-0.0408002
-0.039342
-0.0378981
-0.0364698
-0.035058
-0.0336639
-0.0322882
-0.0309318
-0.0295955
-0.0282798
-0.0269853
-0.0257126
-0.0244619
-0.0232338
-0.0220284
-0.0208459
-0.0196867
-0.0185507
-0.017438
-0.0163487
-0.0152828
-0.0142402
-0.0132209
-0.0122248
-0.0112518
-0.0103019
-0.00937506
-0.00847094
-0.00759078
-0.00673079
-0.00590251
-0.00507413
-0.00433407
-0.00344624
-0.00303683
-0.00147899
-0.002949
-0.0616146
-0.0601705
-0.0587119
-0.0572415
-0.0557616
-0.0542746
-0.0527827
-0.0512881
-0.049793
-0.0482993
-0.0468089
-0.0453237
-0.0438454
-0.0423757
-0.0409161
-0.039468
-0.0380328
-0.0366118
-0.0352061
-0.0338167
-0.0324448
-0.0310911
-0.0297565
-0.0284416
-0.0271472
-0.0258738
-0.0246219
-0.0233918
-0.022184
-0.0209988
-0.0198362
-0.0186966
-0.01758
-0.0164866
-0.0154162
-0.014369
-0.0133449
-0.0123438
-0.0113657
-0.0104105
-0.00947825
-0.00856849
-0.00768234
-0.00681633
-0.0059808
-0.00514665
-0.00439512
-0.00350614
-0.00307008
-0.00153088
-0.00293875
-0.061382
-0.0599769
-0.0585549
-0.0571186
-0.0556705
-0.0542129
-0.0527482
-0.0512787
-0.0498064
-0.0483335
-0.046862
-0.0453938
-0.0439307
-0.0424745
-0.0410267
-0.0395889
-0.0381625
-0.036749
-0.0353494
-0.0339651
-0.032597
-0.0312462
-0.0299135
-0.0285997
-0.0273055
-0.0260316
-0.0247786
-0.0235468
-0.0223368
-0.0211488
-0.0199831
-0.0188401
-0.0177197
-0.0166221
-0.0155475
-0.0144958
-0.0134669
-0.012461
-0.0114778
-0.0105174
-0.00957971
-0.00866431
-0.00777217
-0.00690009
-0.00605724
-0.00521721
-0.00445401
-0.00356387
-0.0031001
-0.00158174
-0.00291968
-0.061147
-0.0597803
-0.0583943
-0.0569917
-0.0555749
-0.0541465
-0.0527087
-0.0512639
-0.0498144
-0.0483622
-0.0469095
-0.0454582
-0.0440103
-0.0425676
-0.0411316
-0.0397042
-0.0382868
-0.0368808
-0.0354876
-0.0341084
-0.0327443
-0.0313965
-0.0300659
-0.0287533
-0.0274595
-0.0261853
-0.0249313
-0.023698
-0.0224859
-0.0212954
-0.0201268
-0.0189804
-0.0178564
-0.0167549
-0.0156761
-0.0146199
-0.0135865
-0.0125758
-0.0115877
-0.0106221
-0.00967899
-0.00875801
-0.00785988
-0.00698172
-0.00613153
-0.00528553
-0.00451056
-0.00361918
-0.00312699
-0.00163116
-0.00289263
-0.0609112
-0.059582
-0.0582313
-0.0568617
-0.0554758
-0.0540759
-0.0526647
-0.0512443
-0.0498172
-0.0483855
-0.0469514
-0.045517
-0.0440841
-0.0426548
-0.0412308
-0.0398137
-0.0384053
-0.0370069
-0.0356201
-0.0342461
-0.0328862
-0.0315415
-0.0302131
-0.0289018
-0.0276087
-0.0263343
-0.0250795
-0.0238448
-0.0226308
-0.0214379
-0.0202665
-0.0191169
-0.0179894
-0.0168842
-0.0158013
-0.0147409
-0.013703
-0.0126876
-0.0116947
-0.010724
-0.00977565
-0.00884915
-0.00794509
-0.00706086
-0.00620336
-0.00535131
-0.00456462
-0.00367181
-0.00315089
-0.00167877
-0.00285848
-0.0606764
-0.0593838
-0.0580674
-0.05673
-0.0553741
-0.0540023
-0.0526169
-0.0512205
-0.0498154
-0.0484038
-0.046988
-0.0455701
-0.0441521
-0.0427361
-0.0413238
-0.039917
-0.0385175
-0.0371268
-0.0357464
-0.0343777
-0.033022
-0.0316806
-0.0303545
-0.0290447
-0.0277522
-0.0264779
-0.0252224
-0.0239865
-0.0227708
-0.0215757
-0.0204017
-0.0192491
-0.0181183
-0.0170094
-0.0159227
-0.0148582
-0.013816
-0.012796
-0.0117983
-0.0108228
-0.00986922
-0.00893729
-0.00802739
-0.00713716
-0.00627243
-0.00541428
-0.004616
-0.00372157
-0.00317192
-0.00172425
-0.00281818
-0.0604446
-0.0591873
-0.0579042
-0.0565979
-0.0552711
-0.0539264
-0.0525662
-0.051193
-0.0498093
-0.0484173
-0.0470194
-0.0456177
-0.0442143
-0.0428113
-0.0414106
-0.040014
-0.0386233
-0.0372401
-0.0358661
-0.0345027
-0.0331513
-0.0318131
-0.0304894
-0.0291812
-0.0278896
-0.0266153
-0.0253594
-0.0241224
-0.0229051
-0.021708
-0.0205315
-0.0193761
-0.0182421
-0.0171299
-0.0160394
-0.014971
-0.0139247
-0.0129004
-0.0118981
-0.0109178
-0.00995919
-0.00902197
-0.00810636
-0.00721023
-0.0063384
-0.00547416
-0.00466454
-0.00376828
-0.00319022
-0.00176734
-0.00277276
-0.060218
-0.0589945
-0.0577432
-0.0564668
-0.055168
-0.0538494
-0.0525134
-0.0511627
-0.0497996
-0.0484266
-0.047046
-0.0456599
-0.0442707
-0.0428803
-0.0414909
-0.0401042
-0.0387221
-0.0373464
-0.0359787
-0.0346205
-0.0332733
-0.0319385
-0.0306172
-0.0293107
-0.0280199
-0.026746
-0.0254897
-0.0242518
-0.023033
-0.021834
-0.0206553
-0.0194973
-0.0183604
-0.0172449
-0.0161509
-0.0150788
-0.0140285
-0.0130001
-0.0119934
-0.0110085
-0.010045
-0.00910272
-0.00818157
-0.00727967
-0.00640096
-0.00553069
-0.00471006
-0.00381178
-0.00320593
-0.00180785
-0.00272328
-0.0599988
-0.0588074
-0.0575863
-0.0563384
-0.0550662
-0.0537724
-0.0524596
-0.0511303
-0.049787
-0.0484321
-0.047068
-0.045697
-0.0443214
-0.0429432
-0.0415646
-0.0401875
-0.0388138
-0.0374453
-0.0360837
-0.0347306
-0.0333876
-0.032056
-0.0307372
-0.0294324
-0.0281426
-0.026869
-0.0256125
-0.0243738
-0.0231538
-0.0219531
-0.0207723
-0.0196119
-0.0184722
-0.0173537
-0.0162565
-0.0151808
-0.0141268
-0.0130944
-0.0120836
-0.0110943
-0.0101263
-0.00917902
-0.00825257
-0.0073451
-0.00645976
-0.00558358
-0.0047524
-0.00385195
-0.00321922
-0.00184562
-0.00267082
-0.0597894
-0.0586281
-0.0574354
-0.0562143
-0.0549672
-0.0536968
-0.0524058
-0.0510967
-0.0497721
-0.0484343
-0.0470859
-0.0457292
-0.0443665
-0.0429999
-0.0416316
-0.0402636
-0.0388979
-0.0375363
-0.0361807
-0.0348325
-0.0334935
-0.0321652
-0.0308488
-0.0295456
-0.0282569
-0.0269837
-0.0257271
-0.0244878
-0.0232667
-0.0220645
-0.0208818
-0.0197191
-0.0185769
-0.0174556
-0.0163553
-0.0152764
-0.0142189
-0.0131828
-0.0121681
-0.0111747
-0.0102023
-0.00925038
-0.00831888
-0.00740611
-0.00651446
-0.00563258
-0.00479139
-0.00388869
-0.00323023
-0.00188061
-0.00261652
-0.0595923
-0.0584589
-0.0572926
-0.0560962
-0.0548724
-0.0536238
-0.0523531
-0.0510629
-0.0497556
-0.0484339
-0.0471001
-0.0457568
-0.0444061
-0.0430504
-0.0416918
-0.0403324
-0.0389742
-0.0376192
-0.0362691
-0.0349257
-0.0335905
-0.0322652
-0.0309512
-0.0296497
-0.0283621
-0.0270893
-0.0258326
-0.0245928
-0.0233708
-0.0221672
-0.0209828
-0.0198181
-0.0186737
-0.0175497
-0.0164467
-0.0153648
-0.014304
-0.0132646
-0.0122463
-0.011249
-0.0102725
-0.00931625
-0.00838003
-0.00746227
-0.00656471
-0.0056774
-0.00482686
-0.00392191
-0.00323912
-0.00191278
-0.0025615
-0.0594101
-0.0583021
-0.0571599
-0.0559861
-0.0547836
-0.0535549
-0.0523028
-0.0510297
-0.0497384
-0.0484314
-0.0471111
-0.04578
-0.0444405
-0.0430947
-0.0417451
-0.0403936
-0.0390424
-0.0376934
-0.0363485
-0.0350095
-0.0336779
-0.0323555
-0.0310437
-0.0297438
-0.0284572
-0.027185
-0.0259283
-0.0246881
-0.0234652
-0.0222605
-0.0210746
-0.0199081
-0.0187616
-0.0176354
-0.0165298
-0.0154451
-0.0143815
-0.0133389
-0.0123173
-0.0113165
-0.0103363
-0.00937608
-0.00843552
-0.00751315
-0.00661016
-0.00571779
-0.00485863
-0.00395155
-0.00324605
-0.0019422
-0.00250687
-0.0592456
-0.0581602
-0.0570394
-0.0558859
-0.0547024
-0.0534915
-0.052256
-0.0509984
-0.0497214
-0.0484275
-0.0471193
-0.0457992
-0.0444697
-0.043133
-0.0417914
-0.0404471
-0.0391022
-0.0377587
-0.0364185
-0.0350834
-0.0337551
-0.0324354
-0.0311256
-0.0298272
-0.0285416
-0.0272699
-0.0260133
-0.0247727
-0.0235492
-0.0223435
-0.0211563
-0.0199882
-0.0188399
-0.0177116
-0.0166038
-0.0155167
-0.0144505
-0.0134051
-0.0123806
-0.0113767
-0.0103931
-0.0094293
-0.00848484
-0.00755831
-0.00665042
-0.00575345
-0.00488652
-0.00397756
-0.00325117
-0.001969
-0.00245371
-0.0591014
-0.0580357
-0.0569335
-0.0557976
-0.0546305
-0.0534351
-0.052214
-0.0509699
-0.0497053
-0.0484229
-0.0471252
-0.0458147
-0.0444939
-0.0431651
-0.0418306
-0.0404925
-0.0391531
-0.0378144
-0.0364784
-0.0351468
-0.0338215
-0.0325041
-0.0311961
-0.0298991
-0.0286143
-0.0273431
-0.0260866
-0.0248458
-0.0236217
-0.0224152
-0.0212269
-0.0200575
-0.0189076
-0.0177776
-0.0166679
-0.0155787
-0.0145102
-0.0134625
-0.0124354
-0.0114287
-0.0104422
-0.00947531
-0.00852744
-0.00759727
-0.0066851
-0.0057841
-0.00491036
-0.00399989
-0.00325461
-0.00199333
-0.00240316
-0.0589805
-0.0579311
-0.0568444
-0.055723
-0.0545697
-0.0533872
-0.0521782
-0.0509452
-0.049691
-0.0484182
-0.0471293
-0.0458268
-0.0445133
-0.0431911
-0.0418625
-0.0405297
-0.039195
-0.0378603
-0.0365277
-0.0351991
-0.0338762
-0.0325608
-0.0312544
-0.0299585
-0.0286746
-0.0274038
-0.0261474
-0.0249064
-0.0236819
-0.0224746
-0.0212854
-0.020115
-0.0189638
-0.0178324
-0.0167211
-0.0156302
-0.0145598
-0.0135101
-0.0124808
-0.0114719
-0.010483
-0.00951349
-0.00856277
-0.00762955
-0.00671379
-0.00580943
-0.00492992
-0.00401845
-0.00325652
-0.00201501
-0.00235648
-0.0588856
-0.0578489
-0.0567743
-0.0556643
-0.0545218
-0.0533493
-0.0521496
-0.0509254
-0.0496793
-0.048414
-0.0471319
-0.0458358
-0.044528
-0.0432109
-0.0418869
-0.0405583
-0.0392272
-0.0378957
-0.0365658
-0.0352396
-0.0339186
-0.0326048
-0.0312996
-0.0300047
-0.0287213
-0.0274509
-0.0261946
-0.0249535
-0.0237287
-0.0225209
-0.021331
-0.0201597
-0.0190075
-0.017875
-0.0167625
-0.0156702
-0.0145985
-0.0135472
-0.0125163
-0.0115056
-0.0105147
-0.00954319
-0.00859025
-0.00765463
-0.00673606
-0.00582909
-0.004945
-0.0040332
-0.00325709
-0.00203385
-0.0023144
-0.0588197
-0.0577918
-0.0567255
-0.0556234
-0.0544883
-0.0533228
-0.0521296
-0.0509114
-0.049671
-0.0484108
-0.0471336
-0.0458418
-0.0445379
-0.0432244
-0.0419037
-0.0405779
-0.0392493
-0.0379201
-0.0365921
-0.0352675
-0.0339479
-0.0326351
-0.0313308
-0.0300365
-0.0287536
-0.0274835
-0.0262273
-0.0249861
-0.023761
-0.0225529
-0.0213626
-0.0201907
-0.0190378
-0.0179045
-0.0167912
-0.015698
-0.0146252
-0.0135728
-0.0125408
-0.0115289
-0.0105367
-0.00956376
-0.00860926
-0.00767198
-0.00675144
-0.00584272
-0.00495526
-0.00404422
-0.00325583
-0.00205503
-0.00227312
-0.0587855
-0.0577622
-0.0567002
-0.0556022
-0.0544709
-0.053309
-0.0521192
-0.0509042
-0.0496666
-0.0484092
-0.0471344
-0.0458449
-0.0445431
-0.0432315
-0.0419124
-0.0405881
-0.0392608
-0.0379327
-0.0366058
-0.0352819
-0.0339631
-0.0326509
-0.031347
-0.0300531
-0.0287704
-0.0275004
-0.0262442
-0.025003
-0.0237778
-0.0225695
-0.0213789
-0.0202068
-0.0190536
-0.0179199
-0.0168061
-0.0157124
-0.0146391
-0.0135862
-0.0125535
-0.011541
-0.0105482
-0.00957445
-0.00861914
-0.00768101
-0.0067594
-0.00584995
-0.00496013
-0.00405177
-0.00324976
-0.00209436
-0.00222478
)
;

boundaryField
{
    inlet
    {
        type            zeroGradient;