/*--------------------------------*- C++ -*----------------------------------*\
  =========                 |
  \\      /  F ield         | OpenFOAM: The Open Source CFD Toolbox
   \\    /   O peration     | Website:  https://openfoam.org
    \\  /    A nd           | Version:  7
     \\/     M anipulation  |
\*---------------------------------------------------------------------------*/
FoamFile
{
    version     2.0;
    format      ascii;
    class       surfaceScalarField;
    location    "10";
    object      phi;
}
// * * * * * * * * * * * * * * * * * * * * * * * * * * * * * * * * * * * * * //

dimensions      [0 3 -1 0 0 0 0];

internalField   nonuniform List<scalar> 
5138
(
0.000244608
-1.10458e-10
0.000305704
-1.16764e-10
0.000374952
-1.22886e-10
0.000452591
-1.27905e-10
0.000538619
-1.3141e-10
0.000632788
-1.32981e-10
0.000733966
-1.32372e-10
-1.29081e-10
0.000841555
0.00891595
0.00303194
0.00863408
0.0030505
0.00833393
0.0030643
0.00275017
0.00763711
0.00801528
0.00306881
0.00272296
0.00737674
0.00775731
0.00298093
0.00269503
0.00711659
0.00749782
0.00295451
0.00240343
0.00639737
0.00266446
0.00685555
0.00723559
0.0029267
0.00236842
0.00614817
0.00263001
0.00659396
0.0069703
0.00289531
0.0023299
0.00589957
0.00259162
0.00633224
0.00670261
0.00285931
0.00204031
0.00522712
0.00228795
0.00565193
0.00254935
0.00607083
0.00643334
0.00281862
0.00199647
0.00499337
0.0022427
0.00540569
0.00250327
0.00581026
0.00616337
0.00277325
0.00194994
0.00476212
0.00219431
0.00516132
0.0024535
0.00555108
0.00589356
0.00272331
0.00190096
0.00453383
0.00214297
0.00491932
0.0024002
0.00529384
0.00562476
0.002669
0.00162484
0.0039384
0.00184973
0.00430894
0.00208887
0.00468018
0.00234356
0.00503915
0.00535776
0.00261057
0.00157542
0.00373238
0.00179648
0.00408788
0.00203225
0.00444441
0.00228383
0.00478756
0.0050933
0.00254828
0.00152462
0.00353082
0.00174146
0.00387104
0.00197336
0.00421251
0.00222127
0.00453965
0.00483211
0.00248246
0.00147268
0.00333403
0.00168491
0.00365882
0.00191248
0.00398493
0.00215617
0.00429596
0.00457484
0.00241344
0.00141983
0.00314229
0.00162709
0.00345155
0.00184991
0.00376212
0.00208886
0.00405701
0.00432212
0.00234158
0.00117985
0.00266824
0.00136629
0.00295584
0.00156828
0.00324956
0.00178593
0.00354448
0.00201968
0.00382326
0.00407453
0.00226727
0.00113139
0.00250248
0.00131232
0.00277491
0.00150876
0.00305313
0.00172086
0.00333237
0.00194896
0.00359515
0.00383257
0.00219092
0.00108291
0.00234227
0.00125815
0.00259968
0.00144878
0.00286249
0.00165504
0.00312612
0.0018771
0.00337309
0.00359672
0.00211295
0.00103462
0.00218771
0.00120402
0.00243028
0.00138865
0.00267786
0.00158877
0.002926
0.00180446
0.0031574
0.00336739
0.00203379
0.000986715
0.00203884
0.00115017
0.00226682
0.00132865
0.00249938
0.00152241
0.00273223
0.00173143
0.00294838
0.00314491
0.0019539
0.000939396
0.00189571
0.00109685
0.00210937
0.00126905
0.00232718
0.00145628
0.002545
0.00165841
0.00274626
0.00292959
0.00187373
0.000755448
0.00156571
0.000892863
0.00175829
0.00104428
0.00195795
0.00121014
0.00216133
0.00139071
0.00236442
0.00158578
0.0025512
0.00272163
0.00179373
0.000715571
0.00144714
0.000847308
0.00162655
0.000992707
0.00181256
0.0011522
0.00200184
0.00132605
0.00219057
0.00151393
0.00236331
0.00252119
0.00171437
0.000676787
0.00133381
0.000802922
0.00150042
0.000942353
0.00167312
0.0010955
0.00184869
0.00126261
0.00202346
0.00144326
0.00218266
0.00232835
0.0016361
0.000639246
0.00122558
0.000759888
0.00137978
0.000893443
0.00153957
0.00104031
0.00170183
0.00120071
0.00186306
0.00137415
0.00200922
0.00214314
0.00155937
0.000603096
0.00112232
0.000718384
0.00126449
0.00084619
0.00141176
0.000986886
0.00156113
0.00114067
0.00170927
0.00130697
0.00184292
0.0019655
0.0014846
0.000568475
0.00102385
0.000678582
0.00115438
0.000800804
0.00128954
0.000935485
0.00142645
0.00108279
0.00156197
0.00124207
0.00168364
0.00179532
0.00141224
0.000535519
0.000929974
0.000640645
0.00104926
0.000757483
0.0011727
0.000886346
0.00129759
0.00102736
0.00142095
0.00117981
0.00153119
0.00163244
0.0013427
0.000504354
0.000840467
0.00060473
0.00094888
0.000716417
0.00106102
0.000839697
0.00117431
0.000974656
0.00128599
0.00112051
0.00138534
0.0014766
0.00127635
0.000475102
0.000755084
0.000570984
0.000852997
0.000677786
0.000954216
0.000795756
0.00105634
0.000924941
0.00115681
0.0010645
0.00124577
0.00132751
0.00121359
0.000366351
0.000589598
0.000447874
0.00067356
0.000539544
0.000761328
0.000641757
0.000852003
0.000754728
0.000943369
0.000878462
0.00103307
0.00101207
0.00111216
0.00118482
0.00115476
0.000344826
0.000521016
0.000422777
0.000595609
0.00051054
0.000673565
0.000608488
0.000754054
0.000716803
0.000835054
0.00083545
0.000914428
0.000963495
0.000984118
0.00104812
0.00110019
0.000325224
0.000455409
0.000399906
0.000520927
0.000484089
0.000589383
0.000578123
0.00066002
0.000682156
0.000731021
0.000796116
0.000800467
0.000919028
0.000861206
0.000916964
0.00105018
0.000307616
0.00039248
0.00037935
0.000449192
0.000460299
0.000508433
0.000550792
0.000569528
0.000650946
0.000630867
0.000760654
0.00069076
0.000878903
0.000742957
0.000790848
0.00100502
0.000292066
0.000331924
0.000361188
0.000380071
0.000439268
0.000430353
0.000526615
0.000482181
0.000623318
0.000534163
0.000729237
0.000584841
0.000843328
0.000628866
0.000669234
0.000964942
0.00027863
0.000273421
0.000345488
0.000313213
0.00042108
0.000354761
0.000505694
0.000397567
0.000599397
0.000440461
0.000702018
0.00048222
0.000812488
0.000518396
0.000551547
0.000930175
0.000267359
0.000216644
0.000332312
0.00024826
0.000405809
0.000281264
0.000488122
0.000315254
0.000579294
0.000349288
0.000679131
0.000382383
0.000786541
0.000410986
0.000437181
0.000900907
0.000258292
0.000161258
0.00032171
0.000184841
0.000393517
0.000209457
0.000473972
0.0002348
0.0005631
0.00026016
0.000660686
0.000284797
0.000765622
0.00030605
0.000325504
0.000877299
0.000251462
0.00010692
0.000313723
0.000122581
0.000384254
0.000138926
0.000463305
0.000155749
0.000550889
0.000172576
0.000646773
0.000188913
0.000749837
0.000202986
0.000215863
0.000859478
0.000246896
5.32841e-05
0.00030838
6.10961e-05
0.000378058
6.92486e-05
0.000456168
7.76384e-05
0.000542716
8.60281e-05
0.000637459
9.41699e-05
0.000739267
0.000101178
0.000107589
0.000847542
0.000244608
0.000305704
0.000374952
0.000452591
0.000538619
0.000632788
0.000733966
0.000841555
0.000873274
-6.51345e-11
0.000903931
-6.25813e-11
0.000933795
-5.91961e-11
0.000963026
-5.50244e-11
0.000991763
-4.99998e-11
0.00102012
-4.40661e-11
0.0010482
-3.72003e-11
0.00107607
-2.93527e-11
0.0011038
-2.04544e-11
0.00113143
-1.0469e-11
0.00115902
6.81689e-13
0.00118658
1.30875e-11
0.00121416
2.67654e-11
4.17682e-11
-0.00308518
0.00296214
-0.00309079
0.0028749
0.00278564
-0.00307572
-0.00309439
0.00278925
0.00269931
-0.00305484
0.00270352
-0.00307993
-0.00309606
0.00270519
0.00261649
-0.00303188
0.0026205
-0.00305884
0.00262288
-0.00308231
-0.00309586
0.00262268
0.00253727
-0.00300661
0.0025409
-0.00303551
0.00254313
-0.00306107
0.00254367
-0.00308285
-0.00309388
0.00254168
0.0024649
-0.00300993
0.00246679
-0.0030374
0.0024672
-0.00306148
0.00246584
-0.00308148
-0.00309017
0.00246213
0.00239393
-0.0030116
0.00239405
-0.00303752
0.00239259
-0.00306002
0.00238925
-0.00307815
-0.00308474
0.00238382
0.00232422
-0.00301156
0.00232246
-0.00303576
0.00231894
-0.00305651
0.00231334
-0.00307255
-0.00307775
0.00230635
0.00225625
0.00225243
0.00224642
0.00223817
0.00222923
0.00295023
-1.89392e-05
0.00293639
1.75437e-05
0.0029213
5.22284e-05
0.00290547
8.65315e-05
0.00288939
0.000119043
0.00287336
0.000149689
0.00285754
0.000178565
0.00284203
0.000205804
0.00282688
0.000231549
0.0028121
0.000255922
0.00279772
0.000279032
0.00278374
0.000300973
0.00277016
0.000321829
0.00275697
0.000341676
0.00274417
0.000360582
0.00273176
0.000378611
0.00271971
0.000395819
0.00270804
0.000412258
0.00269671
0.000427979
0.00268573
0.000443024
0.00267508
0.000457435
0.00266476
0.000471251
0.00265475
0.000484509
0.00264505
0.000497243
0.00263564
0.000509486
0.00262652
0.000521272
0.00261768
0.000532632
0.00260911
0.000543598
0.00260081
0.000554204
0.00259276
0.000564481
0.00258497
0.000574465
0.00257742
0.000584188
0.00257011
0.000593688
0.00256304
0.000603002
0.00255619
0.000612167
0.00254957
0.000621224
0.00254316
0.000630213
0.00253697
0.000639177
0.00253098
0.000648158
0.0025252
0.0006572
0.00251962
0.000666349
0.00251423
0.000675648
0.00250903
0.000685143
0.00250402
0.000694877
0.00249918
0.000704893
0.00249453
0.000715234
0.00249005
0.000725937
0.000737039
0.00286245
-6.49568e-06
0.00284794
3.20577e-05
0.0028322
6.79696e-05
0.00281592
0.000102808
0.00279961
0.000135353
0.00278352
0.000165783
0.00276776
0.000194318
0.00275241
0.00022116
0.00273747
0.000246484
0.00272297
0.000270427
0.00270889
0.000293107
0.00269524
0.000314622
0.00268202
0.000335057
0.0026692
0.000354492
0.00265679
0.000372996
0.00264477
0.000390632
0.00263313
0.000407459
0.00262186
0.000423529
0.00261094
0.000438891
0.00260038
0.00045359
0.00259015
0.000467665
0.00258024
0.000481157
0.00257065
0.0004941
0.00256136
0.000506529
0.00255237
0.000518477
0.00254367
0.000529976
0.00253524
0.000541057
0.00252709
0.000551753
0.0025192
0.000562095
0.00251156
0.000572116
0.00250418
0.00058185
0.00249704
0.00059133
0.00249013
0.000600592
0.00248346
0.000609673
0.00247702
0.000618612
0.00247079
0.000627447
0.00246479
0.00063622
0.00245899
0.000644972
0.0024534
0.000653746
0.00244802
0.000662586
0.00244283
0.000671537
0.00243784
0.000680642
0.00243303
0.000689947
0.00242841
0.000699496
0.00242397
0.000709331
0.00241972
0.000719493
0.00241563
0.000730022
0.000740954
0.00277615
6.60845e-06
0.00276089
4.73103e-05
0.00274453
8.43302e-05
0.00272791
0.000119429
0.00271149
0.000151774
0.00269546
0.000181819
0.00267987
0.0002099
0.00266476
0.000236269
0.00265013
0.000261121
0.00263596
0.000284599
0.00262224
0.000306822
0.00260897
0.000327891
0.00259614
0.000347892
0.00258372
0.000366904
0.00257172
0.000384997
0.00256012
0.000402236
0.0025489
0.000418678
0.00253805
0.000434376
0.00252756
0.000449379
0.00251742
0.000463731
0.00250762
0.000477471
0.00249814
0.000490639
0.00248897
0.000503269
0.0024801
0.000515395
0.00247153
0.000527049
0.00246324
0.000538263
0.00245523
0.000549069
0.00244749
0.000559496
0.00244
0.000569577
0.00243278
0.000579345
0.0024258
0.000588831
0.00241906
0.000598069
0.00241255
0.000607096
0.00240628
0.000615948
0.00240023
0.000624662
0.0023944
0.000633278
0.00238878
0.000641836
0.00238337
0.000650378
0.00237817
0.000658947
0.00237317
0.000667586
0.00236837
0.00067634
0.00236376
0.000685253
0.00235934
0.000694369
0.0023551
0.000703733
0.00235104
0.000713387
0.00234717
0.000723372
0.00234346
0.000733726
0.000744487
0.00269124
2.05575e-05
0.00267519
6.33549e-05
0.00265828
0.000101244
0.00264145
0.000136256
0.00262507
0.000168157
0.00260922
0.000197666
0.00259392
0.000225202
0.00257915
0.000251045
0.00256488
0.000275389
0.0025511
0.000298379
0.00253779
0.000320131
0.00252494
0.000340742
0.00251253
0.000360301
0.00250055
0.000378885
0.00248898
0.000396565
0.00247781
0.000413405
0.00246703
0.000429462
0.00245661
0.000444788
0.00244656
0.000459433
0.00243685
0.000473439
0.00242747
0.000486847
0.00241842
0.000499694
0.00240968
0.000512013
0.00240123
0.000523839
0.00239308
0.000535203
0.0023852
0.000546136
0.0023776
0.000556669
0.00237027
0.000566832
0.00236319
0.000576655
0.00235636
0.000586172
0.00234978
0.000595414
0.00234343
0.000604414
0.00233732
0.000613209
0.00233144
0.000621834
0.00232577
0.000630326
0.00232032
0.000638725
0.00231509
0.000647071
0.00231006
0.000655406
0.00230524
0.000663771
0.00230061
0.000672211
0.00229618
0.00068077
0.00229194
0.000689492
0.00228789
0.000698421
0.00228403
0.000707601
0.00228034
0.000717074
0.00227683
0.000726882
0.00227349
0.000737063
0.000747653
0.00260762
3.56099e-05
0.00259076
8.02185e-05
0.00257342
0.000118582
0.00255657
0.000153105
0.00254039
0.000184335
0.00252487
0.000213189
0.00250995
0.000240121
0.00249559
0.000265406
0.00248175
0.000289226
0.00246841
0.000311718
0.00245555
0.000332992
0.00244315
0.000353144
0.00243119
0.000372259
0.00241966
0.000390415
0.00240855
0.000407683
0.00239783
0.000424124
0.00238749
0.000439799
0.00237752
0.000454757
0.00236791
0.000469047
0.00235863
0.000482712
0.00234969
0.000495791
0.00234106
0.00050832
0.00233274
0.000520334
0.00232472
0.000531865
0.00231698
0.000542943
0.00230952
0.000553599
0.00230232
0.000563863
0.00229539
0.000573765
0.00228871
0.000583335
0.00228228
0.000592605
0.00227608
0.000601606
0.00227013
0.000610372
0.0022644
0.000618938
0.00225889
0.000627339
0.0022536
0.000635613
0.00224853
0.000643798
0.00224367
0.000651935
0.00223901
0.000660065
0.00223455
0.00066823
0.00223029
0.000676473
0.00222622
0.000684839
0.00222234
0.000693371
0.00221865
0.000702114
0.00221514
0.000711112
0.0022118
0.000720406
0.00220865
0.000730038
0.00220567
0.000740046
0.000750465
0.00252516
5.21277e-05
0.00250752
9.78655e-05
0.00248997
0.000136134
0.00247332
0.000169749
0.00245753
0.000200129
0.00244246
0.000228259
0.00242802
0.000254561
0.00241414
0.000279282
0.00240079
0.000302579
0.00238793
0.000324575
0.00237555
0.000345375
0.00236362
0.00036507
0.00235214
0.000383745
0.00234107
0.000401478
0.00233042
0.000418337
0.00232016
0.000434386
0.00231028
0.000449682
0.00230076
0.000464277
0.00229158
0.000478218
0.00228275
0.000491547
0.00227424
0.000504303
0.00226604
0.000516521
0.00225814
0.000528234
0.00225053
0.000539474
0.0022432
0.000550272
0.00223614
0.000560656
0.00222935
0.000570656
0.00222281
0.000580302
0.00221652
0.000589624
0.00221048
0.000598651
0.00220467
0.000607416
0.00219909
0.000615952
0.00219373
0.000624293
0.0021886
0.000632475
0.00218368
0.000640533
0.00217897
0.000648508
0.00217446
0.000656439
0.00217016
0.000664367
0.00216606
0.000672334
0.00216215
0.000680383
0.00215843
0.000688558
0.00215489
0.000696903
0.00215155
0.000705463
0.00214838
0.000714279
0.00214539
0.000723396
0.00214257
0.000732853
0.00213993
0.000742689
0.000752939
0.00244367
7.05941e-05
0.00242539
0.000116147
0.00240794
0.00015358
0.00239177
0.000185923
0.00237654
0.000215357
0.00236204
0.000242753
0.00234816
0.000268442
0.00233483
0.000292616
0.002322
0.000315405
0.00230966
0.000336918
0.00229778
0.000357253
0.00228635
0.000376501
0.00227535
0.000394745
0.00226477
0.000412061
0.00225458
0.000428519
0.00224479
0.000444183
0.00223536
0.000459109
0.00222629
0.000473348
0.00221756
0.000486947
0.00220916
0.000499947
0.00220108
0.000512385
0.0021933
0.000524298
0.00218582
0.000535717
0.00217862
0.000546673
0.00217169
0.000557196
0.00216504
0.000567314
0.00215864
0.000577057
0.00215249
0.000586452
0.00214658
0.00059553
0.00214091
0.00060432
0.00213547
0.000612854
0.00213026
0.000621164
0.00212527
0.000629284
0.0021205
0.00063725
0.00211593
0.000645098
0.00211157
0.000652866
0.00210742
0.000660594
0.00210346
0.000668323
0.0020997
0.000676095
0.00209613
0.000683953
0.00209275
0.00069194
0.00208955
0.000700101
0.00208653
0.000708479
0.0020837
0.000717117
0.00208104
0.000726057
0.00207855
0.000735341
0.00207623
0.000745006
0.000755087
0.00236289
9.15324e-05
0.00234431
0.000134727
0.00232741
0.000170474
0.002312
0.000201335
0.00229751
0.000229852
0.00228369
0.000256574
0.00227043
0.0002817
0.00225768
0.000305364
0.00224541
0.000327672
0.00223361
0.000348723
0.00222225
0.00036861
0.00221133
0.000387425
0.00220082
0.000405249
0.00219072
0.00042216
0.00218102
0.000438227
0.00217168
0.000453515
0.00216271
0.000468079
0.00215409
0.00048197
0.0021458
0.000495235
0.00213784
0.000507913
0.00213018
0.000520043
0.00212282
0.000531658
0.00211575
0.00054279
0.00210895
0.000553469
0.00210242
0.000563724
0.00209616
0.000573582
0.00209014
0.000583072
0.00208437
0.000592223
0.00207884
0.000601062
0.00207353
0.000609621
0.00206846
0.000617928
0.00206361
0.000626018
0.00205897
0.000633922
0.00205454
0.000641677
0.00205032
0.000649318
0.00204631
0.000656883
0.00204249
0.000664412
0.00203886
0.000671946
0.00203543
0.000679527
0.00203219
0.000687196
0.00202913
0.000694999
0.00202626
0.000702977
0.00202356
0.000711176
0.00202104
0.000719637
0.00201869
0.000728404
0.00201652
0.000737516
0.00201451
0.000747011
0.000756925
0.00228235
0.00011554
0.00226425
0.00015282
0.00224851
0.000186218
0.00223415
0.0002157
0.00222052
0.000243477
0.00220745
0.000269648
0.00219486
0.00029429
0.00218272
0.000317499
0.00217103
0.000339362
0.00215978
0.000359976
0.00214895
0.000379437
0.00213854
0.000397834
0.00212854
0.000415253
0.00211893
0.000431771
0.00210969
0.00044746
0.00210083
0.000462382
0.00209231
0.000476595
0.00208413
0.000490148
0.00207628
0.000503088
0.00206874
0.000515454
0.0020615
0.000527283
0.00205455
0.000538608
0.00204788
0.000549461
0.00204148
0.00055987
0.00203534
0.000569863
0.00202945
0.000579468
0.00202381
0.000588713
0.00201841
0.000597625
0.00201324
0.000606232
0.0020083
0.000614564
0.00200357
0.000622651
0.00199907
0.000630524
0.00199477
0.000638218
0.00199068
0.000645765
0.0019868
0.000653204
0.00198311
0.000660571
0.00197961
0.000667905
0.00197631
0.000675248
0.0019732
0.00068264
0.00197027
0.000690125
0.00196752
0.000697745
0.00196496
0.000705545
0.00196257
0.000713566
0.00196035
0.000721854
0.0019583
0.000730449
0.00195643
0.000739391
0.00195472
0.000748719
0.000758467
0.00220122
0.000143554
0.0021853
0.00016874
0.00217145
0.000200068
0.00215834
0.000228806
0.00214567
0.000256152
0.00213338
0.000281938
0.00212147
0.000306193
0.00210997
0.000329005
0.00209886
0.000350465
0.00208817
0.000370673
0.00207787
0.00038973
0.00206798
0.000407729
0.00205847
0.000424759
0.00204935
0.000440898
0.00204058
0.000456221
0.00203218
0.000470789
0.00202411
0.000484662
0.00201637
0.000497888
0.00200895
0.000510512
0.00200182
0.000522575
0.00199499
0.000534113
0.00198845
0.000545157
0.00198217
0.000555738
0.00197615
0.000565885
0.00197039
0.000575624
0.00196488
0.000584984
0.0019596
0.000593989
0.00195456
0.000602669
0.00194974
0.00061105
0.00194514
0.000619161
0.00194076
0.000627032
0.00193659
0.000634695
0.00193262
0.000642183
0.00192886
0.000649529
0.0019253
0.000656769
0.00192192
0.000663942
0.00191874
0.000671086
0.00191575
0.000678241
0.00191294
0.000685449
0.00191032
0.000692752
0.00190787
0.000700193
0.0019056
0.000707816
0.0019035
0.000715664
0.00190157
0.00072378
0.00189982
0.000732205
0.00189823
0.00074098
0.0018968
0.000750142
0.000759725
0.00296992
0.000154563
0.00294766
0.000191007
0.00292406
0.000223662
0.00290089
0.000251975
0.00287886
0.000278182
0.00285813
0.000302672
0.00283877
0.00032555
0.0028208
0.000346981
0.00280417
0.000367092
0.00278884
0.000386002
0.00277475
0.000403821
0.00276183
0.000420646
0.00275003
0.000436565
0.00273927
0.000451657
0.0027295
0.000465991
0.00272066
0.000479627
0.0027127
0.000492619
0.00270558
0.000505013
0.00269924
0.000516849
0.00269365
0.000528165
0.00268877
0.000538992
0.00268457
0.00054936
0.00268101
0.000559298
0.00267806
0.000568829
0.00267571
0.000577981
0.00267391
0.000586778
0.00267266
0.000595245
0.00267192
0.000603408
0.00267167
0.000611293
0.00267191
0.000618928
0.0026726
0.000626341
0.00267373
0.000633563
0.00267529
0.000640626
0.00267725
0.000647563
0.00267961
0.00065441
0.00268235
0.000661202
0.00268546
0.000667978
0.00268892
0.000674778
0.00269273
0.000681641
0.00269688
0.000688609
0.00270134
0.000695725
0.00270613
0.000703029
0.00271123
0.000710566
0.00271663
0.000718376
0.00272234
0.0007265
0.00272834
0.000734976
0.00273464
0.000743841
0.000753129
0.00293629
0.000172786
0.00291746
0.000209835
0.00289684
0.000244289
0.0028762
0.000272614
0.00285624
0.000298135
0.0028373
0.000321621
0.00281951
0.000343335
0.00280295
0.000363546
0.0027876
0.000382437
0.00277345
0.000400156
0.00276044
0.000416828
0.00274853
0.000432558
0.00273766
0.000447438
0.00272777
0.000461544
0.00271881
0.000474946
0.00271074
0.000487701
0.0027035
0.000499858
0.00269705
0.000511462
0.00269135
0.000522549
0.00268636
0.000533152
0.00268206
0.000543301
0.00267839
0.000553023
0.00267535
0.000562344
0.00267289
0.000571286
0.002671
0.000579873
0.00266965
0.000588129
0.00266882
0.000596076
0.00266848
0.00060374
0.00266863
0.000611146
0.00266924
0.00061832
0.00267029
0.000625289
0.00267177
0.000632084
0.00267366
0.000638735
0.00267595
0.000645274
0.00267862
0.000651737
0.00268167
0.000658158
0.00268507
0.000664575
0.00268882
0.000671026
0.00269291
0.000677552
0.00269733
0.000684191
0.00270207
0.000690986
0.00270712
0.000697977
0.00271248
0.000705206
0.00271814
0.000712714
0.0027241
0.000720538
0.00273036
0.000728718
0.00273692
0.000737287
0.000746278
0.00290572
0.000193756
0.002886
0.000229562
0.00286652
0.000263766
0.00284756
0.000291576
0.00282934
0.00031635
0.00281206
0.000338902
0.00279584
0.00035956
0.00278072
0.000378662
0.00276672
0.000396438
0.00275381
0.000413062
0.00274197
0.000428674
0.00273114
0.000443387
0.00272128
0.000457297
0.00271234
0.000470483
0.00270427
0.000483011
0.00269704
0.000494937
0.00269059
0.000506308
0.00268489
0.000517165
0.00267989
0.000527541
0.00267558
0.000537469
0.0026719
0.000546973
0.00266885
0.00055608
0.00266638
0.000564812
0.00266448
0.00057319
0.00266311
0.000581236
0.00266227
0.000588973
0.00266192
0.000596422
0.00266206
0.000603606
0.00266265
0.00061055
0.00266369
0.000617279
0.00266516
0.00062382
0.00266704
0.000630201
0.00266933
0.000636453
0.00267199
0.000642607
0.00267503
0.000648696
0.00267844
0.000654756
0.00268219
0.000660823
0.00268628
0.000666935
0.0026907
0.000673129
0.00269545
0.000679446
0.00270051
0.000685926
0.00270588
0.000692609
0.00271155
0.000699534
0.00271752
0.000706742
0.00272379
0.00071427
0.00273035
0.000722155
0.00273721
0.000730429
0.000739125
0.00287253
0.000216535
0.0028523
0.000249794
0.00283344
0.000282628
0.00281565
0.000309363
0.00279884
0.000333161
0.00278302
0.00035472
0.00276824
0.000374341
0.00275451
0.000392389
0.00274183
0.000409118
0.00273018
0.000424718
0.00271951
0.000439339
0.0027098
0.000453102
0.00270099
0.000466106
0.00269305
0.000478429
0.00268592
0.000490136
0.00267957
0.000501283
0.00267397
0.000511914
0.00266907
0.000522066
0.00266484
0.000531771
0.00266125
0.000541058
0.00265827
0.000549951
0.00265588
0.000558472
0.00265405
0.000566643
0.00265275
0.000574483
0.00265198
0.000582012
0.0026517
0.000589252
0.0026519
0.000596223
0.00265256
0.000602947
0.00265366
0.000609446
0.00265519
0.000615747
0.00265714
0.000621874
0.00265948
0.000627856
0.00266222
0.000633722
0.00266532
0.000639502
0.00266879
0.00064523
0.0026726
0.000650939
0.00267676
0.000656665
0.00268125
0.000662445
0.00268606
0.000668316
0.00269119
0.000674318
0.00269663
0.000680488
0.00270237
0.000686867
0.00270841
0.000693494
0.00271475
0.000700406
0.00272138
0.00070764
0.0027283
0.000715232
0.00273552
0.000723213
0.000731614
0.00283574
0.00024011
0.00281533
0.000270195
0.00279696
0.000301003
0.00278011
0.000326216
0.00276449
0.000348778
0.00274999
0.000369217
0.00273657
0.000387763
0.00272419
0.000404767
0.00271283
0.000420484
0.00270243
0.000435109
0.00269298
0.000448794
0.00268442
0.000461664
0.00267671
0.000473816
0.00266981
0.000485329
0.00266368
0.000496267
0.00265828
0.000506681
0.00265358
0.000516615
0.00264954
0.000526103
0.00264613
0.000535175
0.00264334
0.000543856
0.00264112
0.00055217
0.00263945
0.000560135
0.00263832
0.000567773
0.00263771
0.0005751
0.00263758
0.000582137
0.00263793
0.000588902
0.00263874
0.000595416
0.00263999
0.000601698
0.00264166
0.000607772
0.00264375
0.000613661
0.00264623
0.000619391
0.0026491
0.000624988
0.00265234
0.000630481
0.00265594
0.0006359
0.00265989
0.000641278
0.00266419
0.000646647
0.00266881
0.000652042
0.00267376
0.000657499
0.00267902
0.000663055
0.00268459
0.000668748
0.00269046
0.000674616
0.00269663
0.000680697
0.0027031
0.000687029
0.00270985
0.000693649
0.0027169
0.000700592
0.00272424
0.000707894
0.00273187
0.000715584
0.000723691
0.00279507
0.00026366
0.00277481
0.000290458
0.00275694
0.000318873
0.00274092
0.000342237
0.00272638
0.000363317
0.0027131
0.00038249
0.00270098
0.00039989
0.00268992
0.000415829
0.00267985
0.000430547
0.00267074
0.000444226
0.00266251
0.000457017
0.00265514
0.000469039
0.00264857
0.000480387
0.00264276
0.000491137
0.00263767
0.000501351
0.00263328
0.000511078
0.00262954
0.000520356
0.00262642
0.000529219
0.0026239
0.000537694
0.00262196
0.000545804
0.00262056
0.000553569
0.00261968
0.000561009
0.00261932
0.000568141
0.00261943
0.000574982
0.00262002
0.00058155
0.00262106
0.000587863
0.00262254
0.000593939
0.00262444
0.0005998
0.00262674
0.000605467
0.00262944
0.000610962
0.00263252
0.00061631
0.00263597
0.000621537
0.00263978
0.000626671
0.00264394
0.000631743
0.00264844
0.000636782
0.00265326
0.000641822
0.00265841
0.000646896
0.00266387
0.000652039
0.00266963
0.000657289
0.0026757
0.000662681
0.00268206
0.000668253
0.00268872
0.000674042
0.00269566
0.000680084
0.00270289
0.000686417
0.00271041
0.000693074
0.00271822
0.000700088
0.00272631
0.00070749
0.00275028
0.000286623
0.00273052
0.000310222
0.00271331
0.000336085
0.00269814
0.000357401
0.00268465
0.000376815
0.00267255
0.000394586
0.00266168
0.000410761
0.0026519
0.000425602
0.00264314
0.000439316
0.0026353
0.000452066
0.00262832
0.000463991
0.00262216
0.000475201
0.00261676
0.000485785
0.00261208
0.000495815
0.00260809
0.000505346
0.00260474
0.000514424
0.00260201
0.000523086
0.00259987
0.000531361
0.00259829
0.000539273
0.00259725
0.000546845
0.00259673
0.000554093
0.0025967
0.000561036
0.00259715
0.000567689
0.00259806
0.000574069
0.00259942
0.000580192
0.00260121
0.000586075
0.00260341
0.000591737
0.00260602
0.000597196
0.00260901
0.000602473
0.00261238
0.000607591
0.00261611
0.000612574
0.0026202
0.000617447
0.00262464
0.000622237
0.00262941
0.000626973
0.0026345
0.000631687
0.00263992
0.000636409
0.00264564
0.000641173
0.00265167
0.000646013
0.00265799
0.000650965
0.00266461
0.000656064
0.00267151
0.000661347
0.00267871
0.00066685
0.00268618
0.000672609
0.00269394
0.000678659
0.00270198
0.000685034
0.0027103
0.000691764
0.000698879
0.00270132
0.000308609
0.00268238
0.00032916
0.00266603
0.000352437
0.00265182
0.000371611
0.0026394
0.000389239
0.00262848
0.000405508
0.00261885
0.000420391
0.00261035
0.000434097
0.00260287
0.000446795
0.00259631
0.000458624
0.0025906
0.000469703
0.00258567
0.00048013
0.00258147
0.000489984
0.00257796
0.000499328
0.00257509
0.000508213
0.00257284
0.000516681
0.00257116
0.000524761
0.00257004
0.000532482
0.00256945
0.000539865
0.00256937
0.000546929
0.00256977
0.00055369
0.00257064
0.000560164
0.00257196
0.000566365
0.00257372
0.000572309
0.00257591
0.000578011
0.00257849
0.000583486
0.00258148
0.000588753
0.00258484
0.00059383
0.00258858
0.000598737
0.00259267
0.000603496
0.00259712
0.00060813
0.0026019
0.000612664
0.00260701
0.000617124
0.00261245
0.00062154
0.00261819
0.00062594
0.00262425
0.000630356
0.0026306
0.00063482
0.00263725
0.000639367
0.00264418
0.00064403
0.0026514
0.000648845
0.0026589
0.000653847
0.00266668
0.000659071
0.00267473
0.000664553
0.00268307
0.000670326
0.00269168
0.000676422
0.00270057
0.000682872
0.000689703
0.00264828
0.000329326
0.00263044
0.000347001
0.00261515
0.000367722
0.00260203
0.000384734
0.00259075
0.000400518
0.00258104
0.000415223
0.00257266
0.000428767
0.00256545
0.000441309
0.00255926
0.000452981
0.00255399
0.000463893
0.00254956
0.000474141
0.00254588
0.000483807
0.0025429
0.000492959
0.00254058
0.000501649
0.00253887
0.000509921
0.00253774
0.00051781
0.00253716
0.000525342
0.0025371
0.000532541
0.00253754
0.000539426
0.00253846
0.000546011
0.00253984
0.000552313
0.00254166
0.000558345
0.0025439
0.00056412
0.00254656
0.000569652
0.00254962
0.000574955
0.00255306
0.000580045
0.00255687
0.000584938
0.00256105
0.000589653
0.00256558
0.000594208
0.00257045
0.000598625
0.00257565
0.000602927
0.00258118
0.000607137
0.00258702
0.000611283
0.00259317
0.000615391
0.00259962
0.000619491
0.00260636
0.000623613
0.00261339
0.000627789
0.00262071
0.000632053
0.0026283
0.000636437
0.00263617
0.000640977
0.00264431
0.000645705
0.00265272
0.000650658
0.00266141
0.000655868
0.00267036
0.000661369
0.00267959
0.000667192
0.0026891
0.000673366
0.000679918
0.00259134
0.000348551
0.00257482
0.000363518
0.00256079
0.000381752
0.0025489
0.00039663
0.00253885
0.000410561
0.0025304
0.000423677
0.00252331
0.000435858
0.0025174
0.000447221
0.00251252
0.000457862
0.00250855
0.000467861
0.0025054
0.000477292
0.00250299
0.000486217
0.00250126
0.000494691
0.00250015
0.000502754
0.00249963
0.000510441
0.00249966
0.000517781
0.00250021
0.000524795
0.00250125
0.000531501
0.00250276
0.000537915
0.00250472
0.000544051
0.00250711
0.000549921
0.00250992
0.000555536
0.00251313
0.000560909
0.00251673
0.000566052
0.00252071
0.00057098
0.00252505
0.000575706
0.00252974
0.000580245
0.00253478
0.000584617
0.00254015
0.000588839
0.00254584
0.000592931
0.00255185
0.000596917
0.00255817
0.00060082
0.00256478
0.000604665
0.00257169
0.00060848
0.00257889
0.000612293
0.00258637
0.000616134
0.00259413
0.000620034
0.00260216
0.000624025
0.00261045
0.00062814
0.00261902
0.000632412
0.00262785
0.000636876
0.00263694
0.000641564
0.0026463
0.00064651
0.00265592
0.000651745
0.00266581
0.0006573
0.00267598
0.000663202
0.000669478
0.00253073
0.0003661
0.00251573
0.000378522
0.00250313
0.000394356
0.00249259
0.000407162
0.00248389
0.000419269
0.00247676
0.000430803
0.002471
0.000441621
0.00246642
0.000451804
0.00246286
0.000461417
0.00246021
0.000470512
0.00245836
0.00047914
0.00245723
0.000487343
0.00245676
0.00049516
0.0024569
0.000502621
0.00245759
0.00050975
0.0024588
0.000516567
0.00246051
0.00052309
0.00246268
0.00052933
0.00246529
0.000535301
0.00246833
0.000541012
0.00247178
0.000546474
0.00247562
0.000551698
0.00247983
0.000556692
0.00248442
0.00056147
0.00248935
0.000566043
0.00249463
0.000570425
0.00250025
0.000574631
0.00250619
0.000578679
0.00251244
0.000582585
0.002519
0.000586371
0.00252586
0.000590058
0.00253301
0.000593669
0.00254045
0.000597228
0.00254816
0.000600764
0.00255615
0.000604303
0.00256441
0.000607875
0.00257294
0.00061151
0.00258172
0.000615239
0.00259077
0.000619095
0.00260007
0.000623111
0.00260963
0.000627318
0.00261944
0.000631749
0.00262951
0.000636437