/*--------------------------------*- C++ -*----------------------------------*\
  =========                 |
  \\      /  F ield         | OpenFOAM: The Open Source CFD Toolbox
   \\    /   O peration     | Website:  https://openfoam.org
    \\  /    A nd           | Version:  7
     \\/     M anipulation  |
\*---------------------------------------------------------------------------*/
FoamFile
{
    version     2.0;
    format      ascii;
    class       surfaceScalarField;
    location    "10";
    object      phi;
}
// * * * * * * * * * * * * * * * * * * * * * * * * * * * * * * * * * * * * * //

dimensions      [0 3 -1 0 0 0 0];

internalField   nonuniform List<scalar> 
5145
(
0.0108942
-8.41514e-05
0.0109799
-8.56619e-05
-8.71289e-05
0.011067
0.0105625
-0.000163283
0.0106447
-0.000166341
0.0107284
-0.000169322
-0.000172216
0.0108135
0.0103238
-0.000242144
0.0104042
-0.000246673
0.0104859
-0.000251087
-0.000255371
0.0105691
0.0100934
-0.000319282
0.010172
-0.000325246
0.010252
-0.000331059
-0.000336698
0.0103333
0.00987077
-0.000394789
0.00994768
-0.000402153
0.010026
-0.000409332
-0.000416294
0.0101055
0.0096554
-0.000468747
0.00973073
-0.00047748
0.00980739
-0.000485992
-0.000494246
0.00988534
0.00944684
-0.000541233
0.00952067
-0.000551302
0.00959579
-0.000561116
-0.000570632
0.00967218
0.00924468
-0.000612311
0.00931707
-0.000623686
0.00939072
-0.000634773
-0.00064552
0.00946561
0.00904853
-0.00068204
0.00911954
-0.00069469
0.00919178
-0.00070702
-0.000718971
0.00926523
0.00885803
-0.000750468
0.0089277
-0.000764364
0.00899859
-0.000777909
-0.000791033
0.00907065
0.00867283
-0.000817637
0.00874121
-0.000832748
0.00881078
-0.000847478
-0.000861747
0.00888149
0.00849262
-0.000883578
0.00855975
-0.000899874
0.00862803
-0.000915759
-0.000931145
0.00869742
0.0083171
-0.000948316
0.008383
-0.000965764
0.00845001
-0.000982774
-0.000999245
0.00851811
0.00814599
-0.00101186
0.00821066
-0.00103043
0.00827642
-0.00104853
-0.00106606
0.00834324
0.00797901
-0.00107423
0.00804246
-0.00109388
0.00810697
-0.00111304
-0.00113159
0.0081725
0.00781589
-0.00113541
0.00787811
-0.00115611
0.00794136
-0.00117629
-0.00119583
0.00800559
0.00765636
-0.00119539
0.00771735
-0.00121709
0.00777932
-0.00123826
-0.00125874
0.00784224
0.00750018
-0.00125415
0.0075599
-0.00127682
0.00762056
-0.00129892
-0.00132032
0.00768214
0.0073471
-0.00131165
0.00740552
-0.00133524
0.00746483
-0.00135823
-0.0013805
0.00752501
0.00719686
-0.00136786
0.00725393
-0.00139231
0.00731185
-0.00141615
-0.00143923
0.00737058
0.00704923
-0.00142273
0.0071049
-0.00144798
0.00716136
-0.0014726
-0.00149646
0.00721859
0.00690396
-0.00147619
0.00695817
-0.00150219
0.0070131
-0.00152754
-0.00155211
0.00706875
0.00676084
-0.00152817
0.00681351
-0.00155486
0.00686684
-0.00158087
-0.00160609
0.00692082
0.00661964
-0.00157861
0.00667069
-0.00160591
0.00672232
-0.0016325
-0.00165832
0.00677455
0.00648013
-0.00162742
0.00652948
-0.00165525
0.00657934
-0.00168236
-0.0017087
0.00662971
0.00634214
-0.00167452
0.00638968
-0.0017028
0.00643766
-0.00173034
-0.00175712
0.00648609
0.00620545
-0.00171981
0.00625111
-0.00174846
0.00629711
-0.00177634
-0.00180349
0.00634348
0.00606991
-0.00176319
0.00611358
-0.00179212
0.0061575
-0.00182027
-0.0018477
0.00620172
0.00593536
-0.00180459
0.00597694
-0.00183371
0.00601869
-0.00186202
-0.00188965
0.00606063
0.00580166
-0.0018439
0.00584106
-0.00187311
0.00588053
-0.00190149
-0.00192923
0.00592011
0.0056687
-0.00188104
0.00570583
-0.00191024
0.00574293
-0.00193858
-0.00196634
0.00578004
0.00553638
-0.00191592
0.00557116
-0.00194502
0.0056058
-0.00197323
-0.0020009
0.00564036
0.00540464
-0.00194847
0.00543698
-0.00197736
0.00546908
-0.00200533
-0.00203283
0.005501
0.00527342
-0.00197861
0.00530325
-0.00200719
0.00533274
-0.00203482
-0.00206204
0.00536195
0.0051427
-0.00200627
0.00516996
-0.00203445
0.00519678
-0.00206163
-0.00208848
0.00522322
0.00501248
-0.00203142
0.00503712
-0.00205909
0.00506121
-0.00208573
-0.00211209
0.00508483
0.00488277
-0.00205399
0.00490475
-0.00208106
0.00492608
-0.00210705
-0.00213284
0.00494682
0.00475361
-0.00207397
0.00477289
-0.00210034
0.00479143
-0.00212559
-0.00215069
0.00480928
0.00462504
-0.00209133
0.00464161
-0.00211692
0.00465734
-0.00214132
-0.00216563
0.00467228
0.00449713
-0.00210605
0.00451098
-0.00213077
0.0045239
-0.00215424
-0.00217766
0.00453593
0.00436996
-0.00211814
0.0043811
-0.00214191
0.00439121
-0.00216435
-0.00218679
0.00440034
0.00424363
-0.00212762
0.00425206
-0.00215035
0.00425939
-0.00217168
-0.00219303
0.00426563
0.00411821
-0.00213449
0.00412398
-0.00215611
0.00412854
-0.00217624
-0.00219641
0.00413192
0.00399382
-0.00213879
0.00399695
-0.00215923
0.00399879
-0.00217809
-0.00219696
0.00399935
0.00387056
-0.00214056
0.00387109
-0.00215975
0.00387026
-0.00217726
-0.00219474
0.00386803
0.00374854
-0.00213984
0.00374651
-0.00215773
0.00374305
-0.0021738
-0.00218978
0.0037381
0.00362784
-0.00213669
0.00362332
-0.00215321
0.0036173
-0.00216778
-0.00218215
0.00360967
0.00350858
-0.00213116
0.00350162
-0.00214625
0.00349309
-0.00215925
-0.0021719
0.00348284
0.00339084
-0.00212331
0.00338152
-0.00213693
0.00337055
-0.00214828
-0.00215909
0.00335773
0.00327471
-0.0021132
0.00326308
-0.0021253
0.00324974
-0.00213493
-0.00214377
0.00323442
0.00316025
-0.0021009
0.0031464
-0.00211145
0.00313075
-0.00211929
0.00311298
0.00304755
-0.00208648
0.00303152
0.0110815
-1.45598e-05
0.0110958
-1.43052e-05
0.0111099
-1.40337e-05
0.0111236
-1.3744e-05
0.0111371
-1.34357e-05
0.0111502
-1.31093e-05
0.0111629
-1.27649e-05
0.0111753
-1.24028e-05
0.0111874
-1.20232e-05
0.011199
-1.16266e-05
0.0112102
-1.12132e-05
0.011221
-1.07834e-05
0.0112313
-1.03375e-05
0.0112412
-9.87619e-06
0.0112506
-9.39979e-06
0.0112595
-8.90887e-06
0.0112679
-8.40403e-06
0.0112758
-7.88586e-06
0.0112831
-7.35501e-06
0.01129
-6.81217e-06
0.0112962
-6.25803e-06
0.0113019
-5.69334e-06
0.011307
-5.11886e-06
0.0113116
-4.53537e-06
0.0113155
-3.94367e-06
0.0113189
-3.34456e-06
0.0113216
-2.73887e-06
0.0113237
-2.1274e-06
0.0113252
-1.51098e-06
0.0113261
-8.90427e-07
0.0113264
-2.66527e-07
0.011326
3.59938e-07
0.011325
9.88211e-07
0.0113234
1.61756e-06
0.0113212
2.24731e-06
0.0113183
2.87678e-06
0.0113148
3.50539e-06
0.0113107
4.13257e-06
0.0113059
4.75782e-06
0.0113005
5.3807e-06
0.0112945
6.00085e-06
0.0112879
6.61795e-06
0.0112807
7.23177e-06
0.0112728
7.84216e-06
0.0112644
8.44906e-06
0.0112553
9.05247e-06
0.0112457
9.65249e-06
1.02493e-05
0.0108277
-2.8818e-05
0.0108417
-2.83036e-05
0.0108554
-2.77577e-05
0.0108689
-2.71775e-05
0.010882
-2.65616e-05
0.0108948
-2.59105e-05
0.0109073
-2.52245e-05
0.0109194
-2.45041e-05
0.0109311
-2.37495e-05
0.0109424
-2.29613e-05
0.0109533
-2.21402e-05
0.0109638
-2.12868e-05
0.0109739
-2.0402e-05
0.0109835
-1.94866e-05
0.0109927
-1.85416e-05
0.0110013
-1.7568e-05
0.0110095
-1.6567e-05
0.0110171
-1.55397e-05
0.0110243
-1.44875e-05
0.0110309
-1.34117e-05
0.0110369
-1.23137e-05
0.0110424
-1.1195e-05
0.0110474
-1.0057e-05
0.0110517
-8.90131e-06
0.0110555
-7.7295e-06
0.0110587
-6.54316e-06
0.0110613
-5.34391e-06
0.0110633
-4.13338e-06
0.0110647
-2.91317e-06
0.0110655
-1.68489e-06
0.0110657
-4.50113e-07
0.0110653
7.89627e-07
0.0110642
2.03283e-06
0.0110626
3.27807e-06
0.0110603
4.52398e-06
0.0110574
5.76927e-06
0.0110539
7.01274e-06
0.0110498
8.2533e-06
0.011045
9.48996e-06
0.0110397
1.07219e-05
0.0110338
1.19483e-05
0.0110272
1.31686e-05
0.0110201
1.43824e-05
0.0110123
1.55893e-05
0.011004
1.67892e-05
0.010995
1.79822e-05
0.0109855
1.91685e-05
2.03484e-05
0.010583
-4.27645e-05
0.0105967
-4.19895e-05
0.0106101
-4.11684e-05
0.0106232
-4.02969e-05
0.0106361
-3.93731e-05
0.0106485
-3.83975e-05
0.0106607
-3.73706e-05
0.0106725
-3.62928e-05
0.0106839
-3.51649e-05
0.0106949
-3.39875e-05
0.0107055
-3.27614e-05
0.0107157
-3.14878e-05
0.0107255
-3.01678e-05
0.0107348
-2.88026e-05
0.0107437
-2.73939e-05
0.010752
-2.5943e-05
0.0107599
-2.44517e-05
0.0107673
-2.29217e-05
0.0107742
-2.1355e-05
0.0107805
-1.97535e-05
0.0107863
-1.81194e-05
0.0107916
-1.64548e-05
0.0107963
-1.47619e-05
0.0108004
-1.30431e-05
0.010804
-1.13006e-05
0.010807
-9.53681e-06
0.0108094
-7.75419e-06
0.0108112
-5.95511e-06
0.0108125
-4.14195e-06
0.0108131
-2.31708e-06
0.0108131
-4.82852e-07
0.0108126
1.35848e-06
0.0108114
3.20469e-06
0.0108096
5.05367e-06
0.0108072
6.90339e-06
0.0108042
8.75196e-06
0.0108007
1.05976e-05
0.0107965
1.24387e-05
0.0107917
1.42739e-05
0.0107863
1.61018e-05
0.0107803
1.79213e-05
0.0107738
1.97316e-05
0.0107666
2.15321e-05
0.0107589
2.33223e-05
0.0107506
2.5102e-05
0.0107417
2.68712e-05
0.0107322
2.86303e-05
3.03798e-05
0.0103469
-5.63955e-05
0.0103603
-5.53581e-05
0.0103734
-5.42601e-05
0.0103862
-5.30954e-05
0.0103987
-5.1862e-05
0.0104108
-5.05603e-05
0.0104227
-4.91912e-05
0.0104341
-4.77554e-05
0.0104452
-4.62536e-05
0.0104559
-4.46869e-05
0.0104662
-4.30563e-05
0.0104761
-4.13634e-05
0.0104855
-3.96096e-05
0.0104945
-3.77967e-05
0.010503
-3.59266e-05
0.0105111
-3.40014e-05
0.0105187
-3.20233e-05
0.0105257
-2.99946e-05
0.0105323
-2.79179e-05
0.0105384
-2.57959e-05
0.0105439
-2.36313e-05
0.0105488
-2.14269e-05
0.0105533
-1.91857e-05
0.0105571
-1.69107e-05
0.0105604
-1.46051e-05
0.0105632
-1.22719e-05
0.0105653
-9.91438e-06
0.0105669
-7.53562e-06
0.0105679
-5.13878e-06
0.0105683
-2.727e-06
0.0105681
-3.0335e-07
0.0105674
2.12919e-06
0.010566
4.56771e-06
0.010564
7.00942e-06
0.0105615
9.45169e-06
0.0105584
1.1892e-05
0.0105546
1.43281e-05
0.0105503
1.67578e-05
0.0105454
1.91792e-05
0.0105399
2.15907e-05
0.0105338
2.39909e-05
0.0105272
2.63787e-05
0.01052
2.87531e-05
0.0105122
3.11136e-05
0.0105038
3.34601e-05
0.0104949
3.57925e-05
0.0104854
3.81113e-05
4.04173e-05
0.0101189
-6.97086e-05
0.0101319
-6.84051e-05
0.0101447
-6.70265e-05
0.0101571
-6.55651e-05
0.0101693
-6.40185e-05
0.0101811
-6.23875e-05
0.0101926
-6.06733e-05
0.0102037
-5.88766e-05
0.0102145
-5.69986e-05
0.0102248
-5.50405e-05
0.0102348
-5.30039e-05
0.0102443
-5.08905e-05
0.0102534
-4.87023e-05
0.010262
-4.64415e-05
0.0102702
-4.41104e-05
0.0102779
-4.17118e-05
0.0102852
-3.92483e-05
0.0102919
-3.6723e-05
0.0102981
-3.41389e-05
0.0103038
-3.14995e-05
0.010309
-2.8808e-05
0.0103136
-2.60681e-05
0.0103177
-2.32834e-05
0.0103213
-2.04578e-05
0.0103243
-1.75949e-05
0.0103267
-1.46988e-05
0.0103286
-1.17732e-05
0.0103298
-8.82222e-06
0.0103306
-5.84964e-06
0.0103307
-2.85933e-06
0.0103302
1.44926e-07
0.0103292
3.15943e-06
0.0103276
6.18061e-06
0.0103254
9.20505e-06
0.0103226
1.22295e-05
0.0103193
1.52509e-05
0.0103153
1.82663e-05
0.0103108
2.12733e-05
0.0103057
2.42695e-05
0.0103001
2.72529e-05
0.0102938
3.02217e-05
0.010287
3.31746e-05
0.0102797
3.61106e-05
0.0102718
3.9029e-05
0.0102633
4.19295e-05
0.0102543
4.48123e-05
0.0102447
4.76778e-05
5.05271e-05
0.00989833
-8.27031e-05
0.00991105
-8.11275e-05
0.00992349
-7.94623e-05
0.00993562
-7.76984e-05
0.00994744
-7.5833e-05
0.00995892
-7.38674e-05
0.00997005
-7.1803e-05
0.00998081
-6.96408e-05
0.0099912
-6.73821e-05
0.0100012
-6.50288e-05
0.0100108
-6.25825e-05
0.0100199
-6.00456e-05
0.0100286
-5.74204e-05
0.0100369
-5.47096e-05
0.0100447
-5.19162e-05
0.010052
-4.90432e-05
0.0100589
-4.6094e-05
0.0100652
-4.30722e-05
0.0100711
-3.99817e-05
0.0100764
-3.68262e-05
0.0100812
-3.361e-05
0.0100855
-3.03372e-05
0.0100892
-2.70124e-05
0.0100924
-2.36399e-05
0.010095
-2.02243e-05
0.0100971
-1.67702e-05
0.0100986
-1.32824e-05
0.0100995
-9.76532e-06
0.0100999
-6.22375e-06
0.0100997
-2.66219e-06
0.0100989
9.14855e-07
0.0100976
4.50303e-06
0.0100957
8.09812e-06
0.0100932
1.16961e-05
0.0100901
1.5293e-05
0.0100865
1.88854e-05
0.0100823
2.24699e-05
0.0100775
2.60434e-05
0.0100722
2.96033e-05
0.0100663
3.31471e-05
0.0100598
3.66729e-05
0.0100528
4.01791e-05
0.0100453
4.36644e-05
0.0100372
4.71282e-05
0.0100285
5.05702e-05
0.0100194
5.39905e-05
0.0100097
5.73898e-05
6.07693e-05
0.00968485
-9.53776e-05
0.00969724
-9.35215e-05
0.00970934
-9.15615e-05
0.00972113
-8.9487e-05
0.00973259
-8.72952e-05
0.00974371
-8.49875e-05
0.00975448
-8.25657e-05
0.00976487
-8.00312e-05
0.00977487
-7.73857e-05
0.00978447
-7.46312e-05
0.00979366
-7.177e-05
0.00980242
-6.88046e-05
0.00981074
-6.57381e-05
0.0098186
-6.25736e-05
0.009826
-5.93145e-05
0.00983292
-5.59646e-05
0.00983936
-5.25277e-05
0.00984529
-4.90082e-05
0.00985072
-4.54103e-05
0.00985563
-4.17388e-05
0.00986002
-3.79984e-05
0.00986388
-3.41941e-05
0.0098672
-3.0331e-05
0.00986997
-2.64143e-05
0.0098722
-2.24492e-05
0.00987387
-1.84411e-05
0.00987498
-1.43955e-05
0.00987553
-1.03176e-05
0.00987552
-6.21279e-06
0.00987495
-2.08638e-06
0.0098738
2.05651e-06
0.0098721
6.21084e-06
0.00986982
1.03718e-05
0.00986698
1.45347e-05
0.00986358
1.86951e-05
0.00985962
2.2849e-05
0.0098551
2.69925e-05
0.00985002
3.11222e-05
0.00984438
3.52349e-05
0.0098382
3.9328e-05
0.00983148
4.33993e-05
0.00982421
4.74468e-05
0.0098164
5.14694e-05
0.00980807
5.54662e-05
0.0097992
5.94369e-05
0.00978981
6.33818e-05
0.0097799
6.73016e-05
7.11978e-05
0.00947796
-0.000107729
0.00949002
-0.000105582
0.00950178
-0.000103316
0.00951321
-0.000100921
0.00952431
-9.83931e-05
0.00953506
-9.57339e-05
0.00954544
-9.29457e-05
0.00955544
-9.00303e-05
0.00956504
-8.69897e-05
0.00957424
-8.38263e-05
0.00958301
-8.05429e-05
0.00959135
-7.71426e-05
0.00959924
-7.36287e-05
0.00960667
-7.0005e-05
0.00961363
-6.62755e-05
0.00962011
-6.24445e-05
0.0096261
-5.85165e-05
0.00963159
-5.44964e-05
0.00963657
-5.03892e-05
0.00964103
-4.62003e-05
0.00964496
-4.19351e-05
0.00964837
-3.75992e-05
0.00965124
-3.31986e-05
0.00965356
-2.87391e-05
0.00965534
-2.42268e-05
0.00965657
-1.96676e-05
0.00965724
-1.50678e-05
0.00965735
-1.04333e-05
0.00965691
-5.77034e-06
0.00965591
-1.08471e-06
0.00965435
3.61771e-06
0.00965223
8.33127e-06
0.00964955
1.30505e-05
0.00964631
1.77702e-05
0.00964252
2.24855e-05
0.00963818
2.71916e-05
0.00963329
3.18844e-05
0.00962785
3.656e-05
0.00962187
4.12149e-05
0.00961535
4.58462e-05
0.0096083
5.04514e-05
0.00960072
5.50284e-05
0.00959261
5.95759e-05
0.00958399
6.4093e-05
0.00957484
6.85795e-05
0.00956519
7.30356e-05
0.00955503
7.74623e-05
8.18612e-05
0.00927726
-0.000119751
0.00928897
-0.0001173
0.00930037
-0.000114717
0.00931144
-0.000111989
0.00932216
-0.000109113
0.00933252
-0.00010609
0.0093425
-0.000102925
0.00935209
-9.96181e-05
0.00936127
-9.61725e-05
0.00937003
-9.25909e-05
0.00937837
-8.88765e-05
0.00938626
-8.5033e-05
0.00939369
-8.10642e-05
0.00940066
-7.69744e-05
0.00940715
-7.27683e-05
0.00941316
-6.84507e-05
0.00941867
-6.40267e-05
0.00942368
-5.9502e-05
0.00942817
-5.48822e-05
0.00943214
-5.01733e-05
0.00943559
-4.53815e-05
0.0094385
-4.05131e-05
0.00944088
-3.55748e-05
0.00944271
-3.05731e-05
0.009444
-2.55148e-05
0.00944474
-2.04067e-05
0.00944493
-1.52556e-05
0.00944456
-1.00683e-05
0.00944364
-4.85147e-06
0.00944217
3.88233e-07
0.00944014
5.64435e-06
0.00943757
1.09106e-05
0.00943443
1.61809e-05
0.00943076
2.14496e-05
0.00942653
2.67111e-05
0.00942176
3.19604e-05
0.00941645
3.71928e-05
0.00941061
4.24041e-05
0.00940423
4.75904e-05
0.00939733
5.27486e-05
0.00938991
5.78759e-05
0.00938196
6.29702e-05
0.00937351
6.80299e-05
0.00936455
7.30542e-05
0.00935509
7.80429e-05
0.00934512
8.29964e-05
0.00933467
8.79157e-05
9.28028e-05
0.00908233
-0.000131433
0.0090937
-0.000128664
0.00910473
-0.000125749
0.00911541
-0.000122674
0.00912574
-0.000119436
0.00913569
-0.000116038
0.00914524
-0.000112483
0.0091544
-0.000108772
0.00916314
-0.00010491
0.00917144
-0.000100899
0.00917931
-9.67438e-05
0.00918673
-9.24475e-05
0.00919368
-8.80148e-05
0.00920015
-8.34508e-05
0.00920615
-7.87605e-05
0.00921164
-7.39495e-05
0.00921664
-6.90237e-05
0.00922113
-6.39892e-05
0.0092251
-5.88525e-05
0.00922855
-5.36201e-05
0.00923146
-4.8299e-05
0.00923385
-4.28964e-05
0.00923569
-3.74194e-05
0.00923699
-3.18754e-05
0.00923775
-2.62719e-05
0.00923796
-2.06163e-05
0.00923762
-1.49163e-05
0.00923673
-9.17932e-06
0.00923529
-3.4127e-06
0.00923331
2.37626e-06
0.00923077
8.18046e-06
0.00922769
1.3993e-05
0.00922406
1.98073e-05
0.00921989
2.56171e-05
0.00921519
3.14164e-05
0.00920995
3.71996e-05
0.00920418
4.29618e-05
0.00919789
4.86982e-05
0.00919107
5.44049e-05
0.00918374
6.00782e-05
0.0091759
6.57154e-05
0.00916756
7.13142e-05
0.00915871
7.68729e-05
0.00914938
8.23907e-05
0.00913955
8.78673e-05
0.00912925
9.33035e-05
0.00911846
9.87003e-05
0.00010406
0.00889282
-0.000142763
0.00890382
-0.000139659
0.00891447
-0.000136396
0.00892475
-0.000132959
0.00893466
-0.000129344
0.00894418
-0.000125555
0.00895329
-0.000121595
0.00896198
-0.000117468
0.00897025
-0.000113176
0.00897807
-0.000108724
0.00898545
-0.000104115
0.00899235
-9.93554e-05
0.00899879
-9.44488e-05
0.00900474
-8.94011e-05
0.0090102
-8.42182e-05
0.00901515
-7.89062e-05
0.0090196
-7.34717e-05
0.00902353
-6.79214e-05
0.00902694
-6.22626e-05
0.00902982
-5.65025e-05
0.00903217
-5.06488e-05
0.00903399
-4.47094e-05
0.00903526
-3.86922e-05
0.00903599
-3.26052e-05
0.00903618
-2.64568e-05
0.00903581
-2.0255e-05
0.00903491
-1.40082e-05
0.00903345
-7.72454e-06
0.00903145
-1.41199e-06
0.0090289
4.92148e-06
0.00902582
1.12682e-05
0.00902219
1.76206e-05
0.00901803
2.39717e-05
0.00901333
3.03145e-05
0.0090081
3.66427e-05
0.00900235
4.29503e-05
0.00899608
4.92319e-05
0.0089893
5.54826e-05
0.008982
6.16979e-05
0.00897421
6.78741e-05
0.00896591
7.40083e-05
0.00895713
8.0098e-05
0.00894786
8.61416e-05
0.00893811
9.21382e-05
0.00892789
9.80877e-05
0.00891721
0.000103991
0.00890606
0.000109849
0.000115665
0.00870838
-0.000153721
0.00871899
-0.000150265
0.00872923
-0.000146637
0.00873909
-0.000142819
0.00874856
-0.000138811
0.00875762
-0.000134615
0.00876626
-0.000130235
0.00877446
-0.000125676
0.00878223
-0.000120941
0.00878954
-0.000116033
0.00879638
-0.000110959
0.00880275
-0.000105724
0.00880863
-0.000100332
0.00881402
-9.47906e-05
0.00881891
-8.91057e-05
0.00882329
-8.32843e-05
0.00882715
-7.73334e-05
0.00883049
-7.12608e-05
0.0088333
-6.50741e-05
0.00883558
-5.87816e-05
0.00883732
-5.23916e-05
0.00883853
-4.59125e-05
0.00883919
-3.93532e-05
0.0088393
-3.27225e-05
0.00883888
-2.60292e-05
0.0088379
-1.92824e-05
0.00883639
-1.24908e-05
0.00883433
-5.66346e-06
0.00883172
1.19103e-06
0.00882858
8.06409e-06
0.0088249
1.49474e-05
0.00882069
2.1833e-05
0.00881595
2.87132e-05
0.00881068
3.55806e-05
0.0088049
4.24284e-05
0.0087986
4.92502e-05
0.00879179
5.60403e-05
0.00878448
6.27934e-05
0.00877667
6.95049e-05
0.00876837
7.6171e-05
0.00875959
8.27883e-05
0.00875034
8.93544e-05
0.00874061
9.58678e-05
0.00873042
0.000102328
0.00871977
0.000108734
0.00870868
0.000115087
0.00869714
0.000121389
0.000127643
0.00852867
-0.000164285
0.00853887
-0.000160457
0.00854867
-0.000156444
0.00855808
-0.000152228
0.00856708
-0.000147808
0.00857565
-0.000143187
0.00858379
-0.000138372
0.00859148
-0.000133365
0.00859871
-0.00012817
0.00860547
-0.000122794
0.00861175
-0.000117241
0.00861754
-0.000111517
0.00862284
-0.000105629
0.00862763
-9.95826e-05
0.00863191
-9.33858e-05
0.00863567
-8.70459e-05
0.00863891
-8.05707e-05
0.00864162
-7.39687e-05
0.00864379
-6.72482e-05
0.00864543
-6.04183e-05
0.00864653
-5.34879e-05
0.00864708
-4.64663e-05
0.00864709
-3.93631e-05
0.00864656
-3.21877e-05
0.00864548
-2.49498e-05
0.00864385
-1.76591e-05
0.00864169
-1.03251e-05
0.00863898
-2.95738e-06
0.00863574
4.43471e-06
0.00863196
1.1842e-05
0.00862765
1.92556e-05
0.00862282
2.6667e-05
0.00861746
3.4068e-05
0.00861159
4.14508e-05
0.00860521
4.88081e-05
0.00859833
5.61331e-05
0.00859095
6.34199e-05
0.00858308
7.06628e-05
0.00857473
7.78571e-05
0.0085659
8.49986e-05
0.0085566
9.20841e-05
0.00854685
9.9111e-05
0.00853664
0.000106078
0.00852598
0.000112984
0.00851489
0.000119828
0.00850336
0.000126614
0.00849141
0.000133341
0.000140013
0.00835338
-0.000174427
0.00836313
-0.000170207
0.00837247
-0.000165788
0.0083814
-0.000161154
0.00838989
-0.000156303
0.00839795
-0.00015124
0.00840554
-0.000145971
0.00841268
-0.000140499
0.00841934
-0.00013483
0.00842551
-0.000128969
0.0084312
-0.000122923
0.00843638
-0.000116698
0.00844105
-0.000110301
0.0084452
-0.000103739
0.00844884
-9.70197e-05
0.00845194
-9.01521e-05
0.00845452
-8.31445e-05
0.00845656
-7.60059e-05
0.00845805
-6.87457e-05
0.00845901
-6.13733e-05
0.00845942
-5.38986e-05
0.00845928
-4.63318e-05
0.0084586
-3.86829e-05
0.00845738
-3.09624e-05
0.00845561
-2.31805e-05
0.0084533
-1.53475e-05
0.00845045
-7.47392e-06
0.00844706
4.30225e-07
0.00844314
8.35492e-06
0.00843869
1.62904e-05
0.00843372
2.42272e-05
0.00842823
3.21562e-05
0.00842223
4.00688e-05
0.00841572
4.79568e-05
0.00840872
5.58124e-05
0.00840122
6.36286e-05
0.00839324
7.1399e-05
0.00838479
7.91178e-05
0.00837587
8.67801e-05
0.00836648
9.43815e-05
0.00835665
0.000101919
0.00834637
0.000109389
0.00833566
0.000116792
0.00832451
0.000124125
0.00831295
0.00013139
0.00830098
0.000138587
0.0082886
0.000145719
0.000152789
0.00818218
-0.000184114
0.00819146
-0.000179479
0.0082003
-0.000174634
0.00820871
-0.000169561
0.00821667
-0.000164259
0.00822416
-0.000158735
0.00823118
-0.000152994
0.00823773
-0.00014704
0.00824378
-0.00014088
0.00824933
-0.00013452
0.00825437
-0.000127967
0.0082589
-0.000121227
0.00826291
-0.000114308
0.00826639
-0.000107219
0.00826934
-9.99677e-05
0.00827175
-9.25634e-05
0.00827362
-8.50153e-05
0.00827495
-7.73333e-05
0.00827573
-6.95273e-05
0.00827596
-6.16079e-05
0.00827565
-5.35856e-05
0.00827479
-4.54711e-05
0.00827338
-3.72755e-05
0.00827143
-2.90098e-05
0.00826893
-2.06851e-05
0.0082659
-1.23124e-05
0.00826233
-3.90272e-06
0.00825822
4.53311e-06
0.00825359
1.29845e-05
0.00824844
2.14411e-05
0.00824278
2.98929e-05
0.0082366
3.83303e-05
0.00822993
4.67441e-05
0.00822276
5.51258e-05
0.0082151
6.34673e-05
0.00820697
7.17612e-05
0.00819837
8.00008e-05
0.00818931
8.81802e-05
0.00817979
9.62942e-05
0.00816984
0.000104338
0.00815945
0.00011231
0.00814863
0.000120205
0.0081374
0.000128023
0.00812576
0.000135764
0.00811372
0.000143427
0.00810129
0.000151015
0.00808848
0.00015853
0.000165974
0.00801479
-0.000193308
0.00802355
-0.000188237
0.00803186
-0.000182944
0.0080397
-0.00017741
0.00804708
-0.000171637
0.00805398
-0.000165632
0.00806039
-0.0001594
0.00806629
-0.000152948
0.00807169
-0.000146281
0.00807658
-0.000139406
0.00808094
-0.000132331
0.00808478
-0.000125063
0.00808808
-0.000117611
0.00809085
-0.000109983
0.00809307
-0.00010219
0.00809474
-9.42398e-05
0.00809587
-8.61437e-05
0.00809645
-7.79118e-05
0.00809648
-6.9555e-05
0.00809596
-6.10845e-05
0.00809488
-5.25116e-05
0.00809326
-4.3848e-05
0.00809109
-3.51053e-05
0.00808837
-2.62954e-05
0.00808512
-1.74301e-05
0.00808133
-8.52102e-06
0.008077
4.2004e-07
0.00807216
9.38166e-06
0.00806679
1.83526e-05
0.00806091
2.7322e-05
0.00805452
3.62792e-05
0.00804764
4.52143e-05
0.00804026
5.41176e-05
0.00803241
6.29801e-05
0.00802408
7.17935e-05
0.00801529
8.05501e-05
0.00800605
8.92429e-05
0.00799637
9.78658e-05
0.00798625
0.000106414
0.0079757
0.000114882
0.00796475
0.000123267
0.00795338
0.000131567
0.00794163
0.00013978
0.00792949
0.000147906
0.00791697
0.000155946
0.00790408
0.0001639
0.00789084
0.000171773
0.000179569
0.0078509
-0.000201969
0.0078591
-0.000196438
0.00786683
-0.000190673
0.00787407
-0.000184658
0.00788083
-0.000178393
0.00788709
-0.000171888
0.00789283
-0.000165148
0.00789806
-0.000158179
0.00790277
-0.000150988
0.00790695
-0.000143583
0.00791059
-0.000135973
0.00791369
-0.000128164
0.00791625
-0.000120167
0.00791826
-0.000111991
0.00791971
-0.000103646
0.00792061
-9.51423e-05
0.00792096
-8.64912e-05
0.00792075
-7.77038e-05
0.00791999
-6.87917e-05
0.00791867
-5.97671e-05
0.0079168
-5.06419e-05
0.00791438
-4.14285e-05
0.00791142
-3.21396e-05
0.00790791
-2.27875e-05
0.00790387
-1.33849e-05
0.00789929
-3.94428e-06
0.00789419
5.52215e-06
0.00788857
1.50022e-05
0.00788243
2.44842e-05
0.0078758
3.39565e-05
0.00786867
4.34081e-05
0.00786106
5.28285e-05
0.00785297
6.22078e-05
0.00784441
7.15365e-05
0.0078354
8.0806e-05
0.00782594
9.00083e-05
0.00781605
9.91364e-05
0.00780573
0.000108184
0.007795
0.000117146
0.00778386
0.000126017
0.00777233
0.000134795
0.00776042
0.000143477
0.00774814
0.000152062
0.0077355
0.000160549
0.0077225
0.00016894
0.00770917
0.000177237
0.0076955
0.000185443
0.000193562
0.00769022
-0.000210049
0.00769781
-0.000204036
0.00770492
-0.000197777
0.00771152
-0.000191258
0.00771761
-0.000184482
0.00772317
-0.000177457
0.00772822
-0.00017019
0.00773273
-0.000162688
0.0077367
-0.000154959
0.00774012
-0.00014701
0.007743
-0.00013885
0.00774533
-0.000130489
0.0077471
-0.000121936
0.00774831
-0.000113202
0.00774896
-0.000104297
0.00774905
-9.52328e-05
0.00774858
-8.60209e-05
0.00774755
-7.66735e-05
0.00774596
-6.7203e-05
0.00774382
-5.76222e-05
0.00774112
-4.79441e-05
0.00773787
-3.81818e-05
0.00773408
-2.83488e-05
0.00772975
-1.84581e-05
0.00772489
-8.52321e-06
0.0077195
1.44281e-06
0.0077136
1.1427e-05
0.00770718
2.14165e-05
0.00770027
3.13991e-05
0.00769286
4.13627e-05
0.00768497
5.12957e-05
0.00767662
6.11873e-05
0.0076678
7.10271e-05
0.00765853
8.08054e-05
0.00764882
9.05132e-05
0.00763869
0.000100143
0.00762814
0.000109686
0.00761718
0.000119137
0.00760584
0.000128491
0.00759411
0.000137743
0.00758202
0.00014689
0.00756956
0.00015593
0.00755676
0.000164861
0.00754363
0.000173684
0.00753017
0.0001824
0.0075164
0.000191012
0.00750231
0.000199523
0.000207938
0.00753246
-0.000217499
0.00753941
-0.000210981
0.00754584
-0.000204206
0.00755174
-0.000197163
0.00755711
-0.000189856
0.00756195
-0.000182293
0.00756624
-0.000174483
0.00756999
-0.000166432
0.00757318
-0.000158149
0.00757581
-0.000149643
0.00757788
-0.000140923
0.00757939
-0.000131998
0.00758033
-0.000122879
0.00758071
-0.000113579
0.00758052
-0.000104107
0.00757976
-9.44757e-05
0.00757844
-8.46984e-05
0.00757655
-7.47877e-05
0.00757411
-6.47569e-05
0.00757111
-5.46196e-05
0.00756755
-4.43896e-05
0.00756345
-3.40808e-05
0.00755881
-2.37074e-05
0.00755363
-1.32834e-05
0.00754793
-2.82284e-06
0.00754172
7.66043e-06
0.00753499
1.81528e-05
0.00752777
2.86409e-05
0.00752005
3.91117e-05
0.00751186
4.95529e-05
0.00750321
5.99524e-05
0.00749409
7.02989e-05
0.00748454
8.05816e-05
0.00747455
9.07907e-05
0.00746415
0.000100917
0.00745334
0.000110952
0.00744214
0.000120889
0.00743055
0.000130721
0.0074186
0.000140443
0.00740629
0.000150051
0.00739364
0.000159541
0.00738066
0.000168912
0.00736736
0.000178163
0.00735375
0.000187294
0.00733984
0.000196307
0.00732565
0.000205205
0.00731118
0.000213992
0.000222673
0.00737735
-0.000224267
0.00738359
-0.000217223
0.0073893
-0.00020991
0.00739446
-0.000202323
0.00739907
-0.000194466
0.00740313
-0.000186349
0.00740662
-0.00017798
0.00740956
-0.000169366
0.00741192
-0.000160517
0.00741372
-0.000151441
0.00741495
-0.000142148
0.0074156
-0.000132651
0.00741568
-0.000122959
0.00741519
-0.000113084
0.00741412
-0.00010304
0.00741248
-9.28379e-05
0.00741027
-8.24924e-05
0.0074075
-7.20169e-05
0.00740417
-6.14257e-05
0.00740029
-5.07331e-05
0.00739585
-3.99538e-05
0.00739087
-2.91028e-05
0.00738536
-1.81947e-05
0.00737932
-7.24457e-06
0.00737277
3.73296e-06
0.0073657
1.47233e-05
0.00735814
2.57122e-05
0.0073501
3.66857e-05
0.00734158
4.76304e-05
0.0073326
5.85332e-05
0.00732317
6.93819e-05
0.0073133
8.01647e-05
0.00730301
9.08706e-05
0.00729232
0.000101489
0.00728122
0.000112012
0.00726974
0.00012243
0.0072579
0.000132736
0.00724569
0.000142924
0.00723315
0.000152988
0.00722028
0.000162924
0.00720709
0.00017273
0.0071936
0.000182404
0.00717981
0.000191945
0.00716575
0.000201354
0.00715143
0.000210634
0.00713685
0.000219787
0.00712202
0.000228819
0.000237736
0.00722462
-0.000230299
0.0072301
-0.000222708
0.00723503
-0.000214839
0.0072394
-0.000206689
0.0072432
-0.000198266
0.00724643
-0.000189579
0.00724909
-0.000180637
0.00725117
-0.000171447
0.00725267
-0.000162019
0.00725359
-0.000152363
0.00725393
-0.000142491
0.00725369
-0.000132412
0.00725288
-0.00012214
0.00725148
-0.000111687
0.0072495
-0.000101066
0.00724696
-9.02904e-05
0.00724384
-7.93755e-05
0.00724016
-6.83355e-05
0.00723592
-5.71856e-05
0.00723113
-4.5941e-05
0.00722579
-3.46173e-05
0.00721992
-2.32302e-05
0.00721352
-1.17953e-05
0.0072066
-3.28395e-07
0.00719918
1.11552e-05
0.00719126
2.26402e-05
0.00718286
3.41116e-05
0.00717399
4.55551e-05
0.00716467
5.69567e-05
0.0071549
6.83028e-05
0.0071447
7.9581e-05
0.00713408
9.0779e-05
0.00712307
0.000101886
0.00711167
0.000112891
0.00709989
0.000123785
0.00708776
0.00013456
0.00707529
0.000145209
0.00706249
0.000155724
0.00704938
0.000166102
0.00703596
0.000176338
0.00702226
0.00018643
0.00700829
0.000196376
0.00699406
0.000206177
0.00697958
0.000215833
0.00696486
0.000225348
0.00694992
0.000234725
0.00693477
0.00024397
0.000253089
0.00707399
-0.000235541
0.00707867
-0.000227386
0.00708277
-0.000218942
0.0070863
-0.000210212
0.00708924
-0.000201209
0.0070916
-0.000191939
0.00709337
-0.000182411
0.00709456
-0.000172634
0.00709516
-0.000162618
0.00709517
-0.000152375
0.00709459
-0.000141914
0.00709343
-0.000131249
0.00709168
-0.000120392
0.00708935
-0.000109357
0.00708645
-9.81577e-05
0.00708296
-8.68086e-05
0.00707891
-7.53252e-05
0.0070743
-6.37231e-05
0.00706913
-5.20182e-05
0.00706342
-4.0227e-05
0.00705717
-2.83658e-05
0.00705039
-1.64512e-05
0.00704309
-4.4997e-06
0.00703529
7.47227e-06
0.007027
1.94485e-05
0.00701823
3.14132e-05
0.00700899
4.33507e-05
0.0069993
5.52462e-05
0.00698917
6.70851e-05
0.00697862
7.88537e-05
0.00696766
9.0539e-05
0.00695631
0.000102129
0.00694458
0.000113612
0.0069325
0.000124977
0.00692007
0.000136216
0.00690731
0.00014732
0.00689423
0.000158282
0.00688086
0.000169096
0.0068672
0.000179758
0.00685328
0.000190262
0.0068391
0.000200609
0.00682468
0.000210795
0.00681004
0.000220823
0.00679518
0.000230694
0.00678012
0.00024041
0.00676486
0.000249977
0.00674943
0.000259401
0.000268689
0.00692522
-0.000239939
0.00692904
-0.000231203
0.00693226
-0.000222169
0.0069349
-0.000212847
0.00693694
-0.00020325
0.00693839
-0.000193386
0.00693924
-0.000183263
0.0069395
-0.000172891
0.00693916
-0.00016228
0.00693823
-0.000151443
0.0069367
-0.00014039
0.00693459
-0.000129135
0.00693188
-0.000117691
0.0069286
-0.000106072
0.00692474
-9.42944e-05
0.0069203
-8.2373e-05
0.0069153
-7.03241e-05
0.00690974
-5.81643e-05
0.00690363
-4.59108e-05
0.00689699