/*--------------------------------*- C++ -*----------------------------------*\
  =========                 |
  \\      /  F ield         | OpenFOAM: The Open Source CFD Toolbox
   \\    /   O peration     | Website:  https://openfoam.org
    \\  /    A nd           | Version:  7
     \\/     M anipulation  |
\*---------------------------------------------------------------------------*/
FoamFile
{
    version     2.0;
    format      ascii;
    class       volScalarField;
    location    "20";
    object      p;
}
// * * * * * * * * * * * * * * * * * * * * * * * * * * * * * * * * * * * * * //

dimensions      [0 2 -2 0 0 0 0];

internalField   nonuniform List<scalar> 
2625
(
-0.132309
-0.114139
-0.108334
-0.0877822
-0.162662
-0.144854
-0.132375
-0.114143
-0.10847
-0.0876131
-0.162766
-0.144934
-0.132505
-0.11415
-0.10874
-0.0872793
-0.162921
-0.145053
-0.132698
-0.114163
-0.10914
-0.0867889
-0.163126
-0.14521
-0.132953
-0.114183
-0.10966
-0.0861541
-0.163379
-0.145407
-0.133265
-0.114211
-0.110293
-0.0853908
-0.163679
-0.145641
-0.133633
-0.114251
-0.111027
-0.0845181
-0.164023
-0.145912
-0.134052
-0.114305
-0.111848
-0.0835578
-0.164409
-0.146219
-0.134517
-0.114377
-0.112743
-0.0825341
-0.146559
-0.135023
-0.114469
-0.113695
-0.0814728
-0.146933
-0.135565
-0.114585
-0.114689
-0.0804008
-0.147337
-0.136137
-0.114728
-0.115708
-0.0793452
-0.14777
-0.136731
-0.114901
-0.116734
-0.0783331
-0.148229
-0.137342
-0.115105
-0.117753
-0.0773902
-0.14871
-0.137963
-0.115342
-0.118747
-0.0765408
-0.14921
-0.138586
-0.115614
-0.119703
-0.0758068
-0.149726
-0.139205
-0.115919
-0.120605
-0.0752069
-0.150252
-0.139811
-0.116257
-0.121442
-0.0747567
-0.150784
-0.140399
-0.116625
-0.122202
-0.0744677
-0.151316
-0.14096
-0.117021
-0.122875
-0.0743474
-0.151843
-0.141488
-0.117441
-0.123452
-0.074399
-0.152359
-0.141976
-0.117878
-0.123928
-0.0746213
-0.142416
-0.118328
-0.124297
-0.0750091
-0.142804
-0.118783
-0.124554
-0.0755533
-0.143131
-0.119237
-0.124699
-0.076241
-0.143393
-0.11968
-0.124729
-0.0770568
-0.143583
-0.120106
-0.124646
-0.0779824
-0.143697
-0.120505
-0.124449
-0.0789979
-0.143729
-0.12087
-0.124142
-0.0800821
-0.143675
-0.121192
-0.123726
-0.0812134
-0.121463
-0.123204
-0.0823699
-0.121676
-0.122579
-0.0835305
-0.121822
-0.121853
-0.084675
-0.121896
-0.121027
-0.085786
-0.121891
-0.120103
-0.0868516
-0.121801
-0.11908
-0.0878624
-0.117955
-0.0887915
-0.116713
-0.0895992
-0.115337
-0.0904344
-0.113852
-0.091961
-0.0946234
-0.0956952
-0.0959979
-0.0959453
-0.087994
-0.0869871
-0.0855239
-0.0841179
-0.0827465
-0.0813638
-0.0799725
-0.0785805
-0.0771911
-0.0758063
-0.0744283
-0.073059
-0.0716998
-0.0703523
-0.0690175
-0.0676964
-0.0663899
-0.0650987
-0.0638232
-0.0625641
-0.0613216
-0.060096
-0.0588875
-0.0576962
-0.0565223
-0.0553657
-0.0542263
-0.0531042
-0.0519992
-0.050911
-0.0498397
-0.0487848
-0.0477463
-0.0467238
-0.0457171
-0.0447258
-0.0437498
-0.0427886
-0.041842
-0.0409096
-0.039991
-0.039086
-0.0381942
-0.0881673
-0.0871632
-0.0856687
-0.0842434
-0.0828595
-0.0814658
-0.0800646
-0.0786642
-0.0772675
-0.0758765
-0.074493
-0.0731189
-0.0717556
-0.0704044
-0.0690664
-0.0677425
-0.0664335
-0.0651399
-0.0638624
-0.0626014
-0.0613572
-0.0601301
-0.0589202
-0.0577276
-0.0565524
-0.0553947
-0.0542543
-0.0531311
-0.0520251
-0.0509361
-0.0498639
-0.0488083
-0.0477689
-0.0467457
-0.0457383
-0.0447463
-0.0437696
-0.0428078
-0.0418605
-0.0409275
-0.0400084
-0.0391028
-0.0382105
-0.0885113
-0.0875129
-0.0859567
-0.0844933
-0.0830847
-0.0816691
-0.0802484
-0.0788311
-0.0774201
-0.0760166
-0.0746224
-0.0732388
-0.0718673
-0.0705088
-0.0691644
-0.0678347
-0.0665206
-0.0652225
-0.0639409
-0.0626762
-0.0614286
-0.0601984
-0.0589856
-0.0577904
-0.0566128
-0.0554528
-0.0543102
-0.0531851
-0.0520772
-0.0509864
-0.0499124
-0.0488552
-0.0478143
-0.0467895
-0.0457807
-0.0447873
-0.0438093
-0.0428461
-0.0418976
-0.0409634
-0.0400431
-0.0391363
-0.0382429
-0.0890206
-0.0880312
-0.0863844
-0.084865
-0.0834201
-0.0819723
-0.0805227
-0.0790807
-0.0776483
-0.0762264
-0.074816
-0.0734185
-0.0720346
-0.0706653
-0.0693113
-0.0679731
-0.0666514
-0.0653465
-0.0640588
-0.0627885
-0.0615358
-0.0603009
-0.0590839
-0.0578848
-0.0567035
-0.0555401
-0.0543943
-0.0532662
-0.0521554
-0.0510619
-0.0499854
-0.0489256
-0.0478824
-0.0468554
-0.0458444
-0.0448489
-0.0438689
-0.0429038
-0.0419534
-0.0410173
-0.0400952
-0.0391867
-0.0382916
-0.0896871
-0.0887107
-0.0869466
-0.0853547
-0.0838628
-0.0823732
-0.080886
-0.0794115
-0.0779512
-0.0765051
-0.0750736
-0.0736575
-0.0722574
-0.0708738
-0.0695071
-0.0681577
-0.0668259
-0.065512
-0.0642161
-0.0629384
-0.061679
-0.0604379
-0.0592152
-0.0580108
-0.0568247
-0.0556567
-0.0545067
-0.0533745
-0.0522599
-0.0511628
-0.0500828
-0.0490198
-0.0479735
-0.0469434
-0.0459295
-0.0449313
-0.0439485
-0.0429808
-0.0420279
-0.0410893
-0.0401648
-0.0392541
-0.0383567
-0.0905001
-0.0895414
-0.0876363
-0.0859572
-0.0844087
-0.0828685
-0.0813358
-0.0798218
-0.0783275
-0.0768517
-0.0753943
-0.0739555
-0.0725354
-0.0711342
-0.0697518
-0.0683884
-0.0670441
-0.065719
-0.0644129
-0.063126
-0.0618582
-0.0606095
-0.0593797
-0.0581688
-0.0569765
-0.0558028
-0.0546474
-0.0535102
-0.0523909
-0.0512893
-0.050205
-0.0491379
-0.0480876
-0.0470538
-0.0460362
-0.0450345
-0.0440483
-0.0430773
-0.0421212
-0.0411796
-0.0402521
-0.0393385
-0.0384382
-0.0914461
-0.0905107
-0.0884444
-0.0866658
-0.0850527
-0.0834544
-0.0818689
-0.0803092
-0.0787753
-0.0772649
-0.0757772
-0.0743117
-0.0728681
-0.071446
-0.0700451
-0.0686652
-0.067306
-0.0659675
-0.0646494
-0.0633515
-0.0620737
-0.0608158
-0.0595775
-0.0583587
-0.0571592
-0.0559786
-0.0548168
-0.0536736
-0.0525486
-0.0514415
-0.0503521
-0.04928
-0.048225
-0.0471866
-0.0461646
-0.0451587
-0.0441685
-0.0431935
-0.0422336
-0.0412883
-0.0403572
-0.03944
-0.0385364
-0.0925093
-0.0916034
-0.0893602
-0.0874722
-0.0857881
-0.0841256
-0.0824815
-0.0808706
-0.0792922
-0.0777428
-0.0762207
-0.0747249
-0.0732545
-0.0718086
-0.0703865
-0.0689876
-0.0676115
-0.0662575
-0.0649255
-0.0636149
-0.0623255
-0.0610569
-0.0598088
-0.0585809
-0.0573728
-0.0561843
-0.0550151
-0.0538648
-0.0527331
-0.0516196
-0.0505242
-0.0494463
-0.0483858
-0.0473421
-0.046315
-0.0453041
-0.0443091
-0.0433295
-0.0423651
-0.0414154
-0.0404801
-0.0395589
-0.0386512
-0.0936713
-0.0928022
-0.0903709
-0.0883667
-0.0866072
-0.0848758
-0.0831684
-0.0815021
-0.0798751
-0.0782829
-0.0767231
-0.0751938
-0.0736936
-0.0722212
-0.0707754
-0.0693553
-0.06796
-0.0665888
-0.065241
-0.0639161
-0.0626136
-0.0613329
-0.0600736
-0.0588353
-0.0576175
-0.05642
-0.0552422
-0.0540839
-0.0529446
-0.0518239
-0.0507215
-0.0496371
-0.0485702
-0.0475204
-0.0464875
-0.0454709
-0.0444704
-0.0434855
-0.042516
-0.0415613
-0.0406211
-0.0396951
-0.0387829
-0.0949119
-0.0940874
-0.0914619
-0.0893378
-0.0875006
-0.0856975
-0.0839236
-0.0821987
-0.0805201
-0.0788822
-0.0772817
-0.0757163
-0.0741839
-0.0726826
-0.0712109
-0.0697675
-0.0683511
-0.0669608
-0.0655957
-0.0642549
-0.0629378
-0.0616436
-0.0603719
-0.059122
-0.0578934
-0.0566857
-0.0554984
-0.0543311
-0.0531832
-0.0520544
-0.0509443
-0.0498524
-0.0487783
-0.0477217
-0.0466821
-0.0456592
-0.0446525
-0.0436616
-0.0426862
-0.0417259
-0.0407803
-0.0398489
-0.0389315
-0.096209
-0.0954374
-0.0926169
-0.0903727
-0.0884578
-0.086582
-0.0847401
-0.0829546
-0.0812225
-0.0795368
-0.0778935
-0.0762899
-0.0747232
-0.0731911
-0.0716916
-0.0702231
-0.068784
-0.067373
-0.065989
-0.0646308
-0.0632978
-0.0619889
-0.0607035
-0.0594409
-0.0582004
-0.0569815
-0.0557837
-0.0546063
-0.053449
-0.0523112
-0.0511924
-0.0500923
-0.0490103
-0.047946
-0.0468991
-0.045869
-0.0448555
-0.0438579
-0.0428761
-0.0419094
-0.0409577
-0.0400204
-0.0390972
-0.0975396
-0.0968292
-0.0938182
-0.0914571
-0.0894669
-0.0875195
-0.0856097
-0.0837633
-0.0819767
-0.0802421
-0.0785548
-0.0769115
-0.075309
-0.0737446
-0.0722159
-0.0707208
-0.0692575
-0.0678244
-0.0664201
-0.0650434
-0.0636931
-0.0623683
-0.0610681
-0.0597917
-0.0585383
-0.0573072
-0.0560979
-0.0549097
-0.053742
-0.0525943
-0.0514661
-0.0503568
-0.0492662
-0.0481935
-0.0471385
-0.0461006
-0.0450794
-0.0440745
-0.0430855
-0.042112
-0.0411534
-0.0402096
-0.03928
-0.0988799
-0.0982388
-0.095047
-0.0925759
-0.0905148
-0.0884988
-0.086523
-0.0846168
-0.0827763
-0.0809927
-0.0792609
-0.0775773
-0.0759381
-0.0743404
-0.0727814
-0.0712586
-0.06977
-0.0683136
-0.066888
-0.0654916
-0.064123
-0.0627813
-0.0614653
-0.060174
-0.0589067
-0.0576626
-0.0564408
-0.0552408
-0.0540619
-0.0529035
-0.0517651
-0.050646
-0.0495459
-0.0484641
-0.0474002
-0.0463538
-0.0453243
-0.0443114
-0.0433146
-0.0423335
-0.0413676
-0.0404165
-0.0394799
-0.100206
-0.0996416
-0.0962838
-0.0937127
-0.0915877
-0.0895081
-0.0874701
-0.0855066
-0.0836139
-0.0817824
-0.0800068
-0.0782829
-0.0766069
-0.0749755
-0.0733855
-0.0718343
-0.0703196
-0.0688392
-0.0673913
-0.0659743
-0.0645866
-0.063227
-0.0618942
-0.0605873
-0.0593052
-0.0580471
-0.0568121
-0.0555995
-0.0544086
-0.0532388
-0.0520893
-0.0509597
-0.0498493
-0.0487577
-0.0476843
-0.0466286
-0.0455902
-0.0445686
-0.0435633
-0.042574
-0.0416001
-0.0406412
-0.039697
-0.038767
-0.101495
-0.101013
-0.0975089
-0.0948509
-0.092671
-0.0905347
-0.0884398
-0.0864233
-0.0844815
-0.0826044
-0.0807863
-0.0790232
-0.077311
-0.075646
-0.0740251
-0.0724453
-0.070904
-0.0693991
-0.0679283
-0.06649
-0.0650825
-0.0637042
-0.0623541
-0.0610307
-0.0597331
-0.0584602
-0.0572113
-0.0559854
-0.0547817
-0.0535996
-0.0524384
-0.0512975
-0.0501762
-0.0490741
-0.0479905
-0.0469249
-0.0458769
-0.044846
-0.0438316
-0.0428334
-0.0418508
-0.0408836
-0.0399311
-0.0389932
-0.102725
-0.102331
-0.0987027
-0.0959737
-0.0937497
-0.0915654
-0.0894207
-0.0873569
-0.0853704
-0.083451
-0.0815931
-0.0797926
-0.0780454
-0.0763479
-0.0746965
-0.0730883
-0.0715205
-0.0699908
-0.068497
-0.067037
-0.0656091
-0.0642118
-0.0628436
-0.0615031
-0.0601894
-0.0589012
-0.0576376
-0.0563977
-0.0551806
-0.0539856
-0.0528121
-0.0516592
-0.0505264
-0.049413
-0.0483186
-0.0472425
-0.0461842
-0.0451433
-0.0441192
-0.0431116
-0.0421198
-0.0411435
-0.0401823
-0.0392357
-0.103875
-0.103572
-0.0998465
-0.0970647
-0.0948089
-0.0925867
-0.0904009
-0.0882968
-0.0862713
-0.0843141
-0.0824199
-0.0805848
-0.0788048
-0.0770762
-0.0753955
-0.0737597
-0.072166
-0.0706118
-0.0690948
-0.0676131
-0.0661647
-0.0647479
-0.0633613
-0.0620034
-0.060673
-0.0593689
-0.0580901
-0.0568357
-0.0556046
-0.0543962
-0.0532097
-0.0520442
-0.0508993
-0.0497741
-0.0486682
-0.047581
-0.0465119
-0.0454604
-0.044426
-0.0434083
-0.0424067
-0.0414209
-0.0404503
-0.0394946
-0.104929
-0.104717
-0.100923
-0.0981081
-0.0958339
-0.0935854
-0.0913684
-0.0892322
-0.0871745
-0.0851851
-0.0832592
-0.0813932
-0.0795833
-0.0778259
-0.0761176
-0.0744555
-0.0728367
-0.0712587
-0.0697191
-0.0682159
-0.066747
-0.0653108
-0.0639056
-0.06253
-0.0611826
-0.0598623
-0.0585679
-0.0572985
-0.056053
-0.0548306
-0.0536305
-0.052452
-0.0512943
-0.0501569
-0.049039
-0.04794
-0.0468595
-0.0457969
-0.0447517
-0.0437233
-0.0427114
-0.0417154
-0.0407349
-0.0397695
-0.10587
-0.105749
-0.101916
-0.0990893
-0.0968111
-0.0945485
-0.0923113
-0.0901525
-0.0880704
-0.0860554
-0.0841032
-0.0822107
-0.0803745
-0.0785913
-0.0768578
-0.0751713
-0.0735289
-0.0719282
-0.0703668
-0.0688426
-0.0673537
-0.0658982
-0.0644745
-0.0630811
-0.0617167
-0.0603799
-0.0590697
-0.0577849
-0.0565246
-0.0552879
-0.0540739
-0.0528818
-0.051711
-0.0505607
-0.0494303
-0.0483191
-0.0472267
-0.0461525
-0.0450958
-0.0440563
-0.0430335
-0.0420268
-0.0410359
-0.0400603
-0.106687
-0.106652
-0.102812
-0.099995
-0.0977275
-0.0954638
-0.0932182
-0.091047
-0.0889493
-0.086916
-0.0849438
-0.0830301
-0.081172
-0.0793666
-0.0776109
-0.0759024
-0.0742384
-0.0726165
-0.0710346
-0.0694904
-0.067982
-0.0665078
-0.0650659
-0.063655
-0.0622735
-0.0609203
-0.059594
-0.0582937
-0.0570184
-0.055767
-0.0545387
-0.0533328
-0.0521484
-0.0509848
-0.0498415
-0.0487177
-0.0476129
-0.0465265
-0.045458
-0.0444069
-0.0433726
-0.0423548
-0.0413529
-0.0403666
-0.107372
-0.107417
-0.1036
-0.100814
-0.0985718
-0.0963203
-0.0940785
-0.0919058
-0.0898018
-0.0877583
-0.0857729
-0.083844
-0.081969
-0.0801457
-0.0783714
-0.0766438
-0.0749607
-0.0733197
-0.0717187
-0.0701558
-0.0686291
-0.0671368
-0.0656774
-0.0642493
-0.0628511
-0.0614815
-0.0601394
-0.0588235
-0.057533
-0.0562668
-0.055024
-0.0538039
-0.0526057
-0.0514285
-0.0502719
-0.049135
-0.0480174
-0.0469185
-0.0458377
-0.0447745
-0.0437284
-0.0426989
-0.0416856
-0.0406881
-0.0397059
-0.107917
-0.108036
-0.104272
-0.101537
-0.0993341
-0.097108
-0.0948825
-0.0927193
-0.0906188
-0.0885738
-0.0865828
-0.0846451
-0.082759
-0.0809225
-0.0791337
-0.0773905
-0.0756911
-0.0740334
-0.0724154
-0.0708355
-0.0692918
-0.0677826
-0.0663065
-0.0648618
-0.0634474
-0.0620619
-0.060704
-0.0593728
-0.0580671
-0.056786
-0.0555287
-0.0542942
-0.0530819
-0.0518909
-0.0507206
-0.0495704
-0.0484397
-0.0473278
-0.0462343
-0.0451586
-0.0441002
-0.0430587
-0.0420335
-0.0410244
-0.0400307
-0.108322
-0.108504
-0.10482
-0.102156
-0.100007
-0.0978186
-0.0956217
-0.0934792
-0.0913922
-0.0893546
-0.087366
-0.0854264
-0.0835352
-0.0816908
-0.079892
-0.0781373
-0.0764249
-0.0747533
-0.0731208
-0.0715259
-0.0699668
-0.0684421
-0.0669504
-0.0654902
-0.0640602
-0.0626592
-0.0612861
-0.0599397
-0.0586191
-0.0573232
-0.0560513
-0.0548024
-0.0535759
-0.0523709
-0.0511869
-0.050023
-0.0488789
-0.0477538
-0.0466472
-0.0455586
-0.0444876
-0.0434336
-0.0423962
-0.041375
-0.0403695
-0.108587
-0.108821
-0.105243
-0.102668
-0.100583
-0.0984452
-0.0962888
-0.094178
-0.0921146
-0.0900934
-0.0881152
-0.0861812
-0.0842912
-0.0824447
-0.0806409
-0.0788788
-0.0771573
-0.0754751
-0.0738308
-0.0722232
-0.0706508
-0.0691123
-0.0676063
-0.0661317
-0.0646871
-0.0632715
-0.0618836
-0.0605226
-0.0591873
-0.057877
-0.0565906
-0.0553274
-0.0540867
-0.0528676
-0.0516696
-0.050492
-0.0493342
-0.0481956
-0.0470757
-0.045974
-0.04489
-0.0438232
-0.0427732
-0.0417395
-0.0407218
-0.108714
-0.108988
-0.10554
-0.103068
-0.101059
-0.0989827
-0.096878
-0.0948095
-0.0927793
-0.0907835
-0.0888241
-0.086903
-0.0850211
-0.0831784
-0.0813749
-0.0796102
-0.0778836
-0.0761943
-0.0745414
-0.0729238
-0.0713403
-0.0697899
-0.0682714
-0.0667837
-0.0653257
-0.0638964
-0.0624947
-0.0611196
-0.0597702
-0.0584457
-0.0571451
-0.0558678
-0.0546129
-0.0533798
-0.0521678
-0.0509763
-0.0498047
-0.0486525
-0.0475191
-0.046404
-0.0453067
-0.0442268
-0.0431639
-0.0421174
-0.0410871
-0.10871
-0.109011
-0.105711
-0.103357
-0.101433
-0.0994276
-0.0973849
-0.0953686
-0.093381
-0.0914194
-0.0894869
-0.0875863
-0.0857191
-0.0838865
-0.0820888
-0.0803264
-0.0785992
-0.0769067
-0.0752485
-0.0736238
-0.0720318
-0.0704718
-0.0689427
-0.0674436
-0.0659736
-0.0645317
-0.0631171
-0.0617287
-0.0603659
-0.0590277
-0.0577134
-0.0564222
-0.0551534
-0.0539064
-0.0526805
-0.0514751
-0.0502897
-0.0491236
-0.0479765
-0.0468478
-0.0457371
-0.0446438
-0.0435677
-0.0425082
-0.041465
-0.0404377
-0.108582
-0.108898
-0.105762
-0.103535
-0.101704
-0.0997783
-0.0978067
-0.0958516
-0.0939153
-0.0919963
-0.0900985
-0.0882257
-0.0863802
-0.0845638
-0.0827777
-0.0810227
-0.0792994
-0.0776079
-0.075948
-0.0743196
-0.072722
-0.0711548
-0.0696172
-0.0681086
-0.0666281
-0.0651751
-0.0637487
-0.0623481
-0.0609726
-0.0596214
-0.0582939
-0.0569892
-0.0557069
-0.0544462
-0.0532065
-0.0519873
-0.050788
-0.0496082
-0.0484473
-0.0473049
-0.0461805
-0.0450737
-0.0439841
-0.0429113
-0.0418549
-0.0408146
-0.10834
-0.108657
-0.105698
-0.103606
-0.101873
-0.100034
-0.0981418
-0.0962559
-0.0943789
-0.0925102
-0.0906547
-0.0888168
-0.0869997
-0.0852058
-0.083437
-0.0816948
-0.0799802
-0.0782939
-0.0766363
-0.0750075
-0.0734074
-0.0718357
-0.070292
-0.0687759
-0.0672869
-0.0658243
-0.0643874
-0.0629757
-0.0615885
-0.0602252
-0.0588851
-0.0575675
-0.056272
-0.0549979
-0.0537447
-0.0525119
-0.0512989
-0.0501053
-0.0489306
-0.0477743
-0.0466362
-0.0455157
-0.0444124
-0.0433261
-0.0422563
-0.0412027
-0.107992
-0.108298
-0.105525
-0.103574
-0.101943
-0.100197
-0.0983901
-0.0965803
-0.0947695
-0.0929582
-0.091152
-0.0893559
-0.0875737
-0.0858084
-0.0840626
-0.0823385
-0.0806375
-0.078961
-0.0773096
-0.0756841
-0.0740847
-0.0725114
-0.0709643
-0.069443
-0.0679474
-0.0664769
-0.0650311
-0.0636096
-0.0622119
-0.0608373
-0.0594854
-0.0581556
-0.0568475
-0.0555604
-0.054294
-0.0530478
-0.0518212
-0.0506139
-0.0494255
-0.0482554
-0.0471035
-0.0459691
-0.0448521
-0.0437521
-0.0426687
-0.0416016
-0.10755
-0.107834
-0.105253
-0.103445
-0.101918
-0.100268
-0.0985523
-0.0968243
-0.095086
-0.0933384
-0.0915879
-0.0898399
-0.0880987
-0.086368
-0.0846509
-0.0829501
-0.0812677
-0.0796054
-0.0779646
-0.0763461
-0.0747508
-0.0731791
-0.0716312
-0.0701072
-0.0686071
-0.0671307
-0.0656777
-0.0642478
-0.0628408
-0.061456
-0.0600933
-0.0587521
-0.057432
-0.0561325
-0.0548534
-0.053594
-0.0523542
-0.0511334
-0.0499312
-0.0487475
-0.0475816
-0.0464335
-0.0453026
-0.0441887
-0.0430915
-0.0420107
-0.040946
-0.107027
-0.107278
-0.104889
-0.103224
-0.101803
-0.100252
-0.0986305
-0.0969888
-0.0953279
-0.0936496
-0.0919605
-0.0902664
-0.0885721
-0.0868816
-0.0851987
-0.0835264
-0.0818675
-0.080224
-0.0785978
-0.0769904
-0.0754028
-0.0738358
-0.0722901
-0.070766
-0.0692638
-0.0677835
-0.0663251
-0.0648885
-0.0634735
-0.0620799
-0.0607073
-0.0593555
-0.0580242
-0.056713
-0.0554215
-0.0541496
-0.0528967
-0.0516626
-0.050447
-0.0492496
-0.04807
-0.046908
-0.0457632
-0.0446354
-0.0435243
-0.0424297
-0.0413512
-0.106433
-0.106641
-0.104444
-0.10292
-0.101603
-0.100152
-0.0986272
-0.0970751
-0.0954957
-0.0938913
-0.0922686
-0.0906337
-0.0889915
-0.0873467
-0.0857031
-0.0840644
-0.0824338
-0.0808137
-0.0792065
-0.0776141
-0.0760378
-0.0744789
-0.0729384
-0.071417
-0.0699151
-0.0684331
-0.0669713
-0.0655297
-0.0641083
-0.0627071
-0.0613259
-0.0599645
-0.0586228
-0.0573006
-0.0559975
-0.0547134
-0.0534479
-0.0522009
-0.050972
-0.0497611
-0.0485678
-0.047392
-0.0462333
-0.0450915
-0.0439665
-0.0428579
-0.0417655
-0.105783
-0.105939
-0.103927
-0.10254
-0.101323
-0.0999721
-0.0985457
-0.0970852
-0.0955903
-0.0940635
-0.0925116
-0.0909405
-0.0893554
-0.0877611
-0.0861619
-0.0845617
-0.082964
-0.0813719
-0.079788
-0.0782145
-0.0766532
-0.0751059
-0.0735738
-0.0720578
-0.0705589
-0.0690776
-0.0676144
-0.0661697
-0.0647435
-0.0633362
-0.0619476
-0.0605778
-0.0592267
-0.0578942
-0.0565801
-0.0552844
-0.0540069
-0.0527473
-0.0515055
-0.0502813
-0.0490745
-0.0478849
-0.0467124
-0.0455567
-0.0444176
-0.0432949
-0.0421885
-0.105091
-0.105185
-0.103347
-0.10209
-0.100971
-0.0997183
-0.0983898
-0.097022
-0.0956137
-0.0941675
-0.0926898
-0.0911866
-0.089663
-0.0881238
-0.0865735
-0.0850165
-0.0834564
-0.0818966
-0.0803401
-0.0787895
-0.0772471
-0.0757148
-0.0741942
-0.0726867
-0.0711934
-0.0697152
-0.0682529
-0.0668069
-0.0653778
-0.0639659
-0.0625713
-0.0611942
-0.0598347
-0.0584929
-0.0571687
-0.055862
-0.0545729
-0.0533012
-0.0520468
-0.0508096
-0.0495895
-0.0483864
-0.0472
-0.0460304
-0.0448772
-0.0437405
-0.0426199
-0.0415154
-0.104379
-0.104397
-0.102716
-0.101579
-0.100554
-0.0993959
-0.0981637
-0.0968886
-0.095568
-0.0942045
-0.092804
-0.0913721
-0.0899137
-0.0884337
-0.0869367
-0.085427
-0.0839088
-0.0823855
-0.0808606
-0.0793369
-0.077817
-0.0763032
-0.0747974
-0.0733014
-0.0718165
-0.070344
-0.0688848
-0.0674397
-0.0660095
-0.0645946
-0.0631955
-0.0618125
-0.0604458
-0.0590956
-0.057762
-0.0564451
-0.055145
-0.0538617
-0.0525951
-0.0513453
-0.0501121
-0.0488956
-0.0476956
-0.046512
-0.0453448
-0.0441939
-0.0430592
-0.0419405
-0.103677
-0.103596
-0.102044
-0.101013
-0.100074
-0.0990057
-0.0978666
-0.0966828
-0.0954503
-0.0941707
-0.0928497
-0.091492
-0.0901023
-0.0886853
-0.0872457
-0.0857877
-0.0843156
-0.0828332
-0.081344
-0.0798512
-0.0783577
-0.076866
-0.0753785
-0.0738971
-0.0724236
-0.0709594
-0.0695058
-0.0680639
-0.0666345
-0.0652185
-0.0638165
-0.0624289
-0.0610562
-0.0596988
-0.0583568
-0.0570306
-0.0557203
-0.0544259
-0.0531477
-0.0518856
-0.0506397
-0.04941
-0.0481965
-0.0469993
-0.0458182
-0.0446532
-0.0435042
-0.0423713
-0.102997
-0.102781
-0.101322
-0.10039
-0.0995327
-0.0985504
-0.0975029
-0.0964101
-0.095266
-0.0940719
-0.0928324
-0.0915517
-0.0902338
-0.0888834
-0.0875047
-0.0861022
-0.0846801
-0.0832423
-0.0817926
-0.0803343
-0.0788706
-0.0774045
-0.0759383
-0.0744745
-0.073015
-0.0715617
-0.070116
-0.0686793
-0.0672528
-0.0658374
-0.064434
-0.0630433
-0.0616659
-0.0603023
-0.058953
-0.0576183
-0.0562985
-0.0549938
-0.0537045
-0.0524307
-0.0511725
-0.0499301
-0.0487034
-0.0474927
-0.0462979
-0.045119
-0.043956
-0.0428089
-0.0416777
-0.102405
-0.101993
-0.100591
-0.0997647
-0.0989939
-0.0980996
-0.0971443
-0.0961417
-0.0950847
-0.0939746
-0.0928156
-0.0916109
-0.0903646
-0.0890808
-0.0877636
-0.0864175
-0.0850465
-0.0836547
-0.0822459
-0.0808238
-0.0793917
-0.0779527
-0.0765097
-0.0750652
-0.0736214
-0.0721804
-0.0707441
-0.069314
-0.0678915
-0.0664779
-0.0650741
-0.0636811
-0.0622998
-0.0609307
-0.0595745
-0.0582317
-0.0569026
-0.0555878
-0.0542875
-0.0530019
-0.0517313
-0.050476
-0.0492359
-0.0480114
-0.0468025
-0.0456092
-0.0444316
-0.0432699
-0.0421239
-0.102448
-0.101443
-0.0999019
-0.0990879
-0.0983453
-0.0975114
-0.0966369
-0.0957198
-0.0947497
-0.0937268
-0.0926534
-0.0915316
-0.0903647
-0.0891562
-0.0879099
-0.0866297
-0.0853197
-0.0839838
-0.0826258
-0.0812494
-0.0798581
-0.0784551
-0.0770434
-0.0756259
-0.074205
-0.0727831
-0.0713621
-0.069944
-0.0685304
-0.0671227
-0.0657223
-0.0643303
-0.0629478
-0.0615755
-0.0602143
-0.0588649
-0.0575278
-0.0562037
-0.0548929
-0.0535959
-0.052313
-0.0510446
-0.0497909
-0.0485521
-0.0473284
-0.0461201
-0.0449272
-0.0437498
-0.0425881
-0.10261
-0.100278
-0.0984811
-0.0976136
-0.0968451
-0.0960727
-0.0952991
-0.0944926
-0.0936388
-0.0927343
-0.091778
-0.0907704
-0.0897134
-0.08861
-0.0874633
-0.0862768
-0.0850544
-0.0837997
-0.0825167
-0.0812089
-0.0798801
-0.0785335
-0.0771725
-0.0758001
-0.0744191
-0.073032
-0.0716414
-0.0702493
-0.0688576
-0.0674683
-0.0660829
-0.0647028
-0.0633293
-0.0619636
-0.0606066
-0.0592594
-0.0579227
-0.0565973
-0.0552838
-0.0539827
-0.0526947
-0.0514201
-0.0501594
-0.0489129
-0.0476808
-0.0464636
-0.0452614
-0.0440744
-0.0429027
-0.0987896
-0.100086
-0.0991885
-0.0984562
-0.0976985
-0.0969249
-0.0961227
-0.0952755
-0.0943774
-0.0934263
-0.0924223
-0.0913672
-0.0902636
-0.0891146
-0.0879241
-0.0866957
-0.0854333
-0.084141
-0.0828226
-0.0814819
-0.0801223
-0.0787474
-0.0773604
-0.0759641
-0.0745613
-0.0731546
-0.0717461
-0.070338
-0.0689321
-0.0675301
-0.0661334
-0.0647434
-0.0633614
-0.0619882
-0.0606249
-0.0592722
-0.057931
-0.0566018
-0.0552853
-0.0539819
-0.052692
-0.0514161
-0.0501545
-0.0489076
-0.0476755
-0.0464585
-0.0452567
-0.0440705
-0.0428997
-0.096999
-0.0989828
-0.0984376
-0.0978631
-0.0971818
-0.0964539
-0.0956809
-0.0948567
-0.0939789
-0.0930467
-0.0920609
-0.0910235
-0.0899373
-0.0888056
-0.0876318
-0.0864199
-0.0851737
-0.0838971
-0.0825938
-0.0812677
-0.0799223
-0.0785609
-0.0771868
-0.0758028
-0.0744116
-0.0730159
-0.0716179
-0.0702195
-0.0688229
-0.0674295
-0.0660409
-0.0646585
-0.0632835
-0.061917
-0.0605598
-0.0592129
-0.057877
-0.0565528
-0.0552409
-0.0539418
-0.0526559
-0.0513838
-0.0501256
-0.0488819
-0.0476527
-0.0464385
-0.0452393
-0.0440554
-0.0428869
-0.0960548
-0.097923
-0.0975455
-0.0971086
-0.0965103
-0.0958378
-0.0951068
-0.0943188
-0.0934742
-0.0925737
-0.0916187
-0.0906114
-0.0895547
-0.0884517
-0.087306
-0.0861213
-0.0849014
-0.08365
-0.0823709
-0.0810677
-0.0797441
-0.0784032
-0.0770483
-0.0756823
-0.074308
-0.0729278
-0.0715442
-0.0701591
-0.0687745
-0.0673923
-0.0660138
-0.0646405
-0.0632738
-0.0619146
-0.0605641
-0.059223
-0.0578923
-0.0565727
-0.0552648
-0.0539691
-0.0526862
-0.0514165
-0.0501604
-0.0489183
-0.0476905
-0.0464773
-0.0452789
-0.0440954
-0.0429271
-0.0954234
-0.0970931
-0.0968119
-0.0964686
-0.095937
-0.0953133
-0.0946207
-0.0938655
-0.0930509
-0.0921788
-0.0912512
-0.0902706
-0.0892399
-0.0881624
-0.0870415
-0.0858808
-0.084684
-0.0834549
-0.0821972
-0.0809143
-0.0796099
-0.0782872
-0.0769493
-0.0755992
-0.0742397
-0.0728733
-0.0715022
-0.0701288
-0.0687549
-0.0673822
-0.0660125
-0.0646472
-0.0632874
-0.0619346
-0.0605896
-0.0592535
-0.0579271
-0.0566111
-0.0553063
-0.0540133
-0.0527326
-0.0514646
-0.0502099
-0.0489689
-0.0477418
-0.046529
-0.0453307
-0.0441472
-0.0429786
-0.0949044
-0.0963759
-0.0961583
-0.0958785
-0.0954014
-0.0948213
-0.0941642
-0.0934396
-0.092653
-0.0918073
-0.0909051
-0.0899493
-0.0889428
-0.0878888
-0.0867908
-0.0856523
-0.0844771
-0.0832687
-0.0820307
-0.0807668
-0.0794803
-0.0781745
-0.0768526
-0.0755175
-0.0741719
-0.0728184
-0.0714594
-0.0700969
-0.0687331
-0.0673696
-0.0660083
-0.0646505
-0.0632975
-0.0619507
-0.0606112
-0.0592798
-0.0579575
-0.0566452
-0.0553435
-0.0540531
-0.0527746
-0.0515085
-0.0502552
-0.0490152
-0.0477889
-0.0465766
-0.0453786
-0.0441951
-0.0430264
-0.0944547
-0.0957158
-0.0955375
-0.0953016
-0.0948702
-0.0943299
-0.0937065
-0.093012
-0.092253
-0.0914334
-0.0905564
-0.0896251
-0.0886425
-0.0876119
-0.0865366
-0.0854202
-0.0842663
-0.0830784
-0.0818602
-0.0806151
-0.0793465
-0.0780576
-0.0767516
-0.0754314
-0.0740998
-0.0727593
-0.0714122
-0.0700608
-0.0687071
-0.067353
-0.066
-0.0646499
-0.0633038
-0.0619632
-0.0606291
-0.0593026
-0.0579847
-0.0566761
-0.0553776
-0.0540899
-0.0528137
-0.0515495
-0.0502978
-0.049059
-0.0478336
-0.0466219
-0.0454242
-0.0442409
-0.0430721
-0.0940505
-0.0951
-0.0949446
-0.0947383
-0.0943451
-0.0938406
-0.0932494
-0.0925841
-0.0918523
-0.0910587
-0.0902068
-0.0892999
-0.0883411
-0.0873337
-0.086281
-0.0851866
-0.084054
-0.0828866
-0.081688
-0.0804617
-0.079211
-0.077939
-0.076649
-0.0753438
-0.0740261
-0.0726986
-0.0713636
-0.0700233
-0.0686799
-0.0673351
-0.0659907
-0.0646482
-0.0633091
-0.0619747
-0.0606462
-0.0593247
-0.058011
-0.0567062
-0.055411
-0.0541261
-0.0528523
-0.05159
-0.0503399
-0.0491024
-0.0478779
-0.0466668
-0.0454696
-0.0442864
-0.0431175
-0.0936704
-0.0945199
-0.0943787
-0.0941915
-0.09383
-0.0933577
-0.0927966
-0.0921595
-0.0914543
-0.0906862
-0.089859
-0.0889762
-0.0880409
-0.0870565
-0.0860262
-0.0849536
-0.083842
-0.0826949
-0.0815159
-0.0803082
-0.0790752
-0.0778201
-0.0765459
-0.0752556
-0.0739519
-0.0726373
-0.0713144
-0.0699853
-0.068652
-0.0673166
-0.0659807
-0.064646
-0.0633139
-0.0619857
-0.0606628
-0.0593462
-0.058037
-0.056736
-0.0554441
-0.054162
-0.0528906
-0.0516303
-0.0503818
-0.0491455
-0.047922
-0.0467116
-0.0455147
-0.0443317
-0.0431628
-0.0932998
-0.0939669
-0.0938355
-0.0936606
-0.0933254
-0.0928819
-0.092349
-0.0917389
-0.0910596
-0.0903165
-0.0895137
-0.0886545
-0.0877424
-0.0867806
-0.0857725
-0.0847213
-0.0836306
-0.0825036
-0.0813438
-0.0801546
-0.0789392
-0.0777008
-0.0764424
-0.0751669
-0.073877
-0.0725754
-0.0712645
-0.0699465
-0.0686234
-0.0672973
-0.06597
-0.064643
-0.0633179
-0.0619961
-0.0606788
-0.0593672
-0.0580623
-0.0567652
-0.0554766
-0.0541974
-0.0529284
-0.0516701
-0.0504232
-0.0491882
-0.0479657
-0.046756
-0.0455596
-0.0443767
-0.0432078
-0.09293
-0.0934344
-0.093311
-0.0931439
-0.0928309
-0.0924132
-0.0919067
-0.0913224
-0.0906683
-0.0899497
-0.0891706
-0.0883348
-0.0874456
-0.0865061
-0.0855198
-0.0844899
-0.0834197
-0.0823126
-0.0811719
-0.080001
-0.078803
-0.0775812
-0.0763384
-0.0750776
-0.0738016
-0.0725128
-0.0712139
-0.0699069
-0.0685941
-0.0672773
-0.0659585
-0.0646393
-0.0633212
-0.0620057
-0.060694
-0.0593874
-0.058087
-0.0567937
-0.0555085
-0.0542322
-0.0529656
-0.0517094
-0.0504641
-0.0492305
-0.0480089
-0.0468
-0.045604
-0.0444214
-0.0432525
-0.0925561
-0.0929177
-0.0928019
-0.0926401
-0.092346
-0.0919517
-0.0914698
-0.0909103
-0.0902805
-0.0895857
-0.0888301
-0.0880172
-0.0871505
-0.0862331
-0.0852682
-0.0842592
-0.0832094
-0.0821219
-0.0810001
-0.0798473
-0.0786667
-0.0774612
-0.076234
-0.0749878
-0.0737255
-0.0724496
-0.0711625
-0.0698666
-0.0685639
-0.0672565
-0.0659462
-0.0646348
-0.0633237
-0.0620145
-0.0607085
-0.059407
-0.058111
-0.0568216
-0.0555398
-0.0542664
-0.0530023
-0.0517481
-0.0505046
-0.0492722
-0.0480517
-0.0468435
-0.045648
-0.0444656
-0.0432967
-0.0921757
-0.0924137
-0.0923057
-0.092148
-0.0918704
-0.0914974
-0.0910385
-0.0905027
-0.0898964
-0.0892249
-0.0884922
-0.0877019
-0.0868573
-0.0859616
-0.085018
-0.0840296
-0.0829998
-0.0819318
-0.0808287
-0.0796938
-0.0785302
-0.0773411
-0.0761292
-0.0748976
-0.0736489
-0.0723858
-0.0711105
-0.0698256
-0.0685331
-0.067235
-0.0659333
-0.0646296
-0.0633255
-0.0620227
-0.0607223
-0.0594258
-0.0581343
-0.0568489
-0.0555705
-0.0543
-0.0530384
-0.0517863
-0.0505445
-0.0493135
-0.0480941
-0.0468866
-0.0456916
-0.0445095
-0.0433406
-0.0917877
-0.09192
-0.0918204
-0.0916665
-0.0914036
-0.0910502
-0.0906131
-0.0900998
-0.0895164
-0.0888675
-0.0881573
-0.0873891
-0.0865662
-0.0856919
-0.0898964
-0.0908918
-0.0918407
-0.0928697
-0.0936029
-0.0942369
-0.0905884
-0.0916447
-0.0928543
-0.0938491
-0.0952944
-0.0903046
-0.0913792
-0.0926518
-0.0937113
-0.0958486
-0.0910589
-0.0923505
-0.0933543
-0.0959361
-0.0907251
-0.0920381
-0.0929572
-0.0957967
-0.0903842
-0.0917192
-0.0925513
-0.0955168
-0.0913837
-0.0921352
-0.0951293
-0.0910311
-0.0917152
-0.0946649
-0.0912978
-0.0941498
-0.0908855
-0.0936024
-0.0930356
-0.0924592
)
;

boundaryField
{
    inlet
    {
        type            zeroGradient;
    }
    outlet
    {
        type            fixedValue;
        value           nonuniform 0();
    }
    cylinder
    {
        type            zeroGradient;
    }
    top
    {
        type            symmetryPlane;
    }
    bottom
    {
        type            symmetryPlane;
    }
    defaultFaces
    {
        type            empty;
    }
    procBoundary10to6
    {
        type            processor;
        value           nonuniform List<scalar> 
50
(
-0.16261
-0.144814
-0.144814
-0.132309
-0.114139
-0.108334
-0.0877822
-0.087994
-0.0869871
-0.0855239
-0.0841179
-0.0827465
-0.0813638
-0.0799725
-0.0785805
-0.0771911
-0.0758063
-0.0744283
-0.073059
-0.0716998
-0.0703523
-0.0690175
-0.0676964
-0.0663899
-0.0650987
-0.0638232
-0.0625641
-0.0613216
-0.060096
-0.0588875
-0.0576962
-0.0565223
-0.0553657
-0.0542263
-0.0531042
-0.0519991
-0.050911
-0.0498397
-0.0487848
-0.0477463