/*--------------------------------*- C++ -*----------------------------------*\
  =========                 |
  \\      /  F ield         | OpenFOAM: The Open Source CFD Toolbox
   \\    /   O peration     | Website:  https://openfoam.org
    \\  /    A nd           | Version:  7
     \\/     M anipulation  |
\*---------------------------------------------------------------------------*/
FoamFile
{
    version     2.0;
    format      ascii;
    class       volScalarField;
    location    "5";
    object      p;
}
// * * * * * * * * * * * * * * * * * * * * * * * * * * * * * * * * * * * * * //

dimensions      [0 2 -2 0 0 0 0];

internalField   nonuniform List<scalar> 
2625
(
-0.0572722
-0.0554074
-0.0535106
-0.0515874
-0.0496435
-0.0476845
-0.0457162
-0.0437445
-0.0417751
-0.039814
-0.0378667
-0.0359391
-0.0340365
-0.0321644
-0.0303279
-0.028532
-0.0267812
-0.0250798
-0.0234319
-0.0218409
-0.0203101
-0.018842
-0.017439
-0.0161027
-0.0148343
-0.0136347
-0.012504
-0.0114419
-0.0104478
-0.00952038
-0.00865812
-0.00785906
-0.00712091
-0.00644109
-0.0058169
-0.0762404
-0.0749477
-0.07429
-0.073379
-0.0723252
-0.0711521
-0.0698707
-0.0684966
-0.0670406
-0.0655115
-0.0639163
-0.0622613
-0.0605522
-0.0587943
-0.0569931
-0.0551537
-0.0532816
-0.0513823
-0.0494614
-0.0475247
-0.0455778
-0.0436265
-0.0416767
-0.039734
-0.0378043
-0.0358931
-0.034006
-0.0321483
-0.0303252
-0.0285415
-0.0268018
-0.0251106
-0.0234716
-0.0218886
-0.0203647
-0.0189025
-0.0175044
-0.0161721
-0.0149069
-0.0137095
-0.0125802
-0.0115189
-0.0105248
-0.00959679
-0.0087334
-0.00793271
-0.00719251
-0.00651028
-0.00588338
-0.0756684
-0.0743469
-0.0736889
-0.0727935
-0.0717629
-0.0706182
-0.0693671
-0.0680237
-0.066598
-0.0650984
-0.063532
-0.0619051
-0.0602232
-0.0584918
-0.0567164
-0.054902
-0.0530542
-0.0511785
-0.0492805
-0.0473657
-0.0454399
-0.0435088
-0.0415783
-0.039654
-0.0377416
-0.0358468
-0.033975
-0.0321315
-0.0303215
-0.02855
-0.0268214
-0.0251401
-0.0235101
-0.021935
-0.020418
-0.0189617
-0.0175685
-0.0162402
-0.0149781
-0.013783
-0.0126552
-0.0115947
-0.0106006
-0.00967212
-0.00880764
-0.00800539
-0.0072632
-0.00657863
-0.00594908
-0.075102
-0.0737615
-0.0731036
-0.0722227
-0.0712133
-0.0700949
-0.0688722
-0.0675581
-0.0661615
-0.0646906
-0.0631524
-0.0615528
-0.0598976
-0.0581923
-0.0564422
-0.0546525
-0.0528288
-0.0509763
-0.0491007
-0.0472076
-0.0453027
-0.0433916
-0.0414801
-0.0395739
-0.0376786
-0.0358
-0.0339433
-0.032114
-0.0303171
-0.0285575
-0.0268399
-0.0251685
-0.0235474
-0.0219802
-0.02047
-0.0190196
-0.0176314
-0.0163071
-0.0150481
-0.0138553
-0.012729
-0.0116692
-0.0106753
-0.00974634
-0.00888084
-0.00807707
-0.00733296
-0.00664611
-0.00601397
-0.0745408
-0.0731902
-0.0725328
-0.0716659
-0.070676
-0.069582
-0.0683862
-0.0670999
-0.0657315
-0.0642884
-0.0627775
-0.0612047
-0.0595757
-0.057896
-0.0561709
-0.0544055
-0.0526053
-0.0507758
-0.0489224
-0.0470506
-0.0451662
-0.0432748
-0.0413821
-0.0394938
-0.0376155
-0.0357528
-0.0339111
-0.0320958
-0.0303118
-0.0285641
-0.0268574
-0.0251959
-0.0235836
-0.0220242
-0.0205208
-0.0190762
-0.0176929
-0.0163726
-0.0151167
-0.0139263
-0.0128016
-0.0117426
-0.0107489
-0.00981943
-0.00895296
-0.00814774
-0.00740176
-0.00671269
-0.00607803
-0.0739845
-0.0726318
-0.0719755
-0.0711222
-0.0701507
-0.0690796
-0.0679092
-0.0666495
-0.065308
-0.0638919
-0.0624076
-0.0608611
-0.0592578
-0.0576032
-0.0559025
-0.054161
-0.0523841
-0.0505771
-0.0487455
-0.0468948
-0.0450307
-0.0431587
-0.0412846
-0.0394139
-0.0375524
-0.0357054
-0.0338785
-0.032077
-0.0303058
-0.0285699
-0.0268739
-0.0252222
-0.0236186
-0.0220669
-0.0205703
-0.0191316
-0.0177531
-0.0164368
-0.0151841
-0.0139959
-0.0128728
-0.0118147
-0.0108212
-0.00989136
-0.00902396
-0.00821735
-0.00746956
-0.00677834
-0.00614122
-0.0734334
-0.0720856
-0.0714309
-0.0705911
-0.069637
-0.0685875
-0.0674412
-0.066207
-0.0648915
-0.0635015
-0.0620431
-0.0605221
-0.0589439
-0.0573139
-0.0556373
-0.0539193
-0.0521652
-0.0503804
-0.0485703
-0.0467403
-0.0448962
-0.0430434
-0.0411875
-0.0393343
-0.0374892
-0.0356579
-0.0338456
-0.0320576
-0.0302991
-0.0285749
-0.0268895
-0.0252474
-0.0236525
-0.0221085
-0.0206186
-0.0191856
-0.017812
-0.0164997
-0.0152501
-0.0140643
-0.0129428
-0.0118856
-0.0108923
-0.00996212
-0.00909385
-0.00828589
-0.00753635
-0.00684303
-0.00620352
-0.0728877
-0.071551
-0.0708985
-0.070072
-0.0691346
-0.0681057
-0.0669823
-0.0657724
-0.064482
-0.0631172
-0.061684
-0.0601879
-0.0586343
-0.0570284
-0.0553754
-0.0536804
-0.0519488
-0.0501858
-0.0483968
-0.0465873
-0.0447628
-0.0429288
-0.041091
-0.039255
-0.0374262
-0.0356102
-0.0338123
-0.0320378
-0.0302918
-0.028579
-0.0269042
-0.0252716
-0.0236853
-0.0221489
-0.0206656
-0.0192384
-0.0178696
-0.0165613
-0.0153148
-0.0141314
-0.0130115
-0.0119552
-0.0109622
-0.0100317
-0.0091626
-0.00835335
-0.00760211
-0.00690675
-0.00626492
-0.0723477
-0.0710275
-0.0703777
-0.0695647
-0.0686433
-0.067634
-0.0665326
-0.065346
-0.0640797
-0.0627394
-0.0613306
-0.0598588
-0.0583292
-0.0567468
-0.0551169
-0.0534446
-0.051735
-0.0499934
-0.0482252
-0.0464358
-0.0446306
-0.0428152
-0.0409952
-0.039176
-0.0373633
-0.0355624
-0.0337788
-0.0320175
-0.0302838
-0.0285825
-0.026918
-0.0252949
-0.023717
-0.0221881
-0.0207115
-0.0192899
-0.0179259
-0.0166215
-0.0153782
-0.0141971
-0.0130788
-0.0120235
-0.0110308
-0.0101001
-0.00923019
-0.00841971
-0.00766683
-0.00696949
-0.00632539
-0.0718139
-0.0705147
-0.0698681
-0.0690686
-0.0681629
-0.0671723
-0.0660919
-0.0649277
-0.0636847
-0.062368
-0.0609831
-0.0595349
-0.0580287
-0.0564694
-0.0548622
-0.053212
-0.051524
-0.0498035
-0.0480557
-0.046286
-0.0444998
-0.0427027
-0.0409001
-0.0390976
-0.0373007
-0.0355147
-0.033745
-0.0319969
-0.0302753
-0.0285852
-0.026931
-0.0253172
-0.0237477
-0.0222262
-0.0207561
-0.0193402
-0.017981
-0.0166805
-0.0154403
-0.0142616
-0.0131449
-0.0120905
-0.0110982
-0.0101672
-0.00929662
-0.00848495
-0.00773048
-0.00703122
-0.0063849
-0.0712866
-0.0700125
-0.0693696
-0.0685835
-0.0676931
-0.0667206
-0.0656604
-0.0645178
-0.0632972
-0.0620034
-0.0606415
-0.0592164
-0.057733
-0.0561963
-0.0546112
-0.0529827
-0.0513159
-0.049616
-0.0478882
-0.0461379
-0.0443704
-0.0425913
-0.0408059
-0.0390197
-0.0372383
-0.035467
-0.0337112
-0.0319759
-0.0302663
-0.0285872
-0.0269432
-0.0253386
-0.0237774
-0.0222632
-0.0207996
-0.0193892
-0.0180347
-0.0167381
-0.0155011
-0.0143247
-0.0132097
-0.0121563
-0.0111643
-0.0102331
-0.00936185
-0.00854904
-0.00779305
-0.00709192
-0.00644345
-0.0707663
-0.0695206
-0.0688818
-0.0681092
-0.0672338
-0.0662789
-0.065238
-0.0641162
-0.0629172
-0.0616457
-0.0603061
-0.0589034
-0.0574423
-0.0559276
-0.0543641
-0.0527569
-0.0511109
-0.0494312
-0.047723
-0.0459917
-0.0442426
-0.0424811
-0.0407125
-0.0389425
-0.0371764
-0.0354195
-0.0336772
-0.0319547
-0.0302569
-0.0285887
-0.0269546
-0.025359
-0.023806
-0.0222991
-0.0208418
-0.019437
-0.0180872
-0.0167945
-0.0155605
-0.0143864
-0.0132731
-0.0122207
-0.0112291
-0.0102978
-0.00942587
-0.00861197
-0.0078545
-0.00715156
-0.006501
-0.0702534
-0.0690388
-0.0684047
-0.0676455
-0.066785
-0.0658469
-0.0648249
-0.063723
-0.062545
-0.0612949
-0.0599771
-0.0585962
-0.0571567
-0.0556635
-0.0541212
-0.0525347
-0.050909
-0.0492491
-0.0475602
-0.0458476
-0.0441164
-0.0423722
-0.0406202
-0.038866
-0.0371149
-0.0353722
-0.0336433
-0.0319332
-0.030247
-0.0285895
-0.0269653
-0.0253786
-0.0238336
-0.022334
-0.0208829
-0.0194836
-0.0181384
-0.0168495
-0.0156186
-0.0144469
-0.0133351
-0.0122838
-0.0112926
-0.0103612
-0.00948866
-0.00867372
-0.00791481
-0.00721012
-0.00655753
-0.0697485
-0.0685673
-0.0679381
-0.0671924
-0.0663464
-0.0654249
-0.0644209
-0.0633384
-0.0621806
-0.0609513
-0.0596546
-0.0582948
-0.0568765
-0.0554041
-0.0538825
-0.0523163
-0.0507105
-0.04907
-0.0474
-0.0457055
-0.043992
-0.0422648
-0.0405291
-0.0387903
-0.0370539
-0.0353252
-0.0336094
-0.0319116
-0.0302368
-0.0285898
-0.0269753
-0.0253974
-0.0238603
-0.0223677
-0.0209229
-0.0195289
-0.0181883
-0.0169032
-0.0156753
-0.0145059
-0.0133959
-0.0123455
-0.0113548
-0.0104233
-0.0095502
-0.00873426
-0.00797398
-0.00726758
-0.00661301
-0.0692519
-0.0681058
-0.0674821
-0.0667497
-0.0659182
-0.0650126
-0.0640262
-0.0629624
-0.0618242
-0.0606149
-0.0593386
-0.0579994
-0.0566016
-0.0551497
-0.0536482
-0.0521018
-0.0505154
-0.0488939
-0.0472423
-0.0455657
-0.0438695
-0.0421588
-0.0404391
-0.0387155
-0.0369936
-0.0352785
-0.0335756
-0.0318898
-0.0302262
-0.0285896
-0.0269845
-0.0254153
-0.023886
-0.0224004
-0.0209617
-0.019573
-0.0182369
-0.0169555
-0.0157307
-0.0145636
-0.0134552
-0.0124059
-0.0114157
-0.0104841
-0.00961046
-0.00879356
-0.00803196
-0.00732392
-0.00666743
-0.068764
-0.0676545
-0.0670366
-0.0663174
-0.0655001
-0.0646101
-0.0636408
-0.0625951
-0.0614757
-0.060286
-0.0590295
-0.0577103
-0.0563324
-0.0549003
-0.0534184
-0.0518914
-0.0503239
-0.0487209
-0.0470873
-0.0454283
-0.0437489
-0.0420545
-0.0403504
-0.0386417
-0.0369339
-0.0352323
-0.0335419
-0.031868
-0.0302154
-0.0285889
-0.0269932
-0.0254325
-0.0239108
-0.022432
-0.0209993
-0.0196159
-0.0182842
-0.0170066
-0.0157847
-0.0146199
-0.0135132
-0.0124649
-0.0114752
-0.0105436
-0.00966943
-0.00885162
-0.00808874
-0.0073791
-0.00672075
-0.0682853
-0.0672134
-0.0666016
-0.0658956
-0.0650923
-0.0642175
-0.0632647
-0.0622365
-0.0611354
-0.0599645
-0.0587272
-0.0574274
-0.0560689
-0.0546561
-0.0531934
-0.0516851
-0.0501362
-0.0485512
-0.0469352
-0.0452933
-0.0436304
-0.0419519
-0.040263
-0.038569
-0.036875
-0.0351865
-0.0335085
-0.0318461
-0.0302043
-0.0285878
-0.0270012
-0.0254488
-0.0239347
-0.0224626
-0.0210359
-0.0196575
-0.0183303
-0.0170563
-0.0158373
-0.0146748
-0.0135697
-0.0125225
-0.0115333
-0.0106017
-0.00972708
-0.0089084
-0.00814429
-0.00743311
-0.00677296
-0.0678163
-0.0667826
-0.0661773
-0.0654841
-0.0646947
-0.0638347
-0.062898
-0.0618867
-0.0608034
-0.0596507
-0.058432
-0.0571509
-0.0558113
-0.0544173
-0.0529731
-0.0514832
-0.0499522
-0.0483849
-0.0467861
-0.0451608
-0.0435141
-0.0418511
-0.0401771
-0.0384973
-0.0368169
-0.0351412
-0.0334753
-0.0318243
-0.030193
-0.0285863
-0.0270087
-0.0254645
-0.0239577
-0.0224922
-0.0210713
-0.019698
-0.018375
-0.0171046
-0.0158886
-0.0147284
-0.0136249
-0.0125787
-0.01159
-0.0106584
-0.00978339
-0.00896388
-0.00819858
-0.00748592
-0.00682402
-0.0673572
-0.0663621
-0.0657637
-0.0650832
-0.0643074
-0.0634619
-0.0625407
-0.0615459
-0.0604797
-0.0593447
-0.058144
-0.0568811
-0.0555597
-0.0541839
-0.0527578
-0.0512858
-0.0497723
-0.0482221
-0.0466401
-0.045031
-0.0434
-0.0417522
-0.0400928
-0.0384269
-0.0367597
-0.0350966
-0.0334425
-0.0318025
-0.0301816
-0.0285844
-0.0270156
-0.0254794
-0.0239798
-0.0225208
-0.0211055
-0.0197372
-0.0184185
-0.0171516
-0.0159385
-0.0147805
-0.0136786
-0.0126335
-0.0116453
-0.0107138
-0.00983834
-0.00901804
-0.0082516
-0.00753751
-0.00687391
-0.0669085
-0.0659521
-0.0653608
-0.0646927
-0.0639304
-0.063099
-0.062193
-0.0612141
-0.0601644
-0.0590465
-0.0578632
-0.056618
-0.0553143
-0.0539562
-0.0525476
-0.0510929
-0.0495965
-0.048063
-0.0464972
-0.044904
-0.0432883
-0.0416553
-0.04001
-0.0383577
-0.0367035
-0.0350526
-0.03341
-0.0317809
-0.03017
-0.0285822
-0.0270219
-0.0254935
-0.0240011
-0.0225484
-0.0211387
-0.0197753
-0.0184607
-0.0171973
-0.015987
-0.0148311
-0.0137309
-0.0126868
-0.0116992
-0.0107677
-0.0098919
-0.00907085
-0.00830332
-0.00758784
-0.00692261
-0.0664706
-0.0655527
-0.0649689
-0.064313
-0.0635639
-0.0627463
-0.0618549
-0.0608914
-0.0598578
-0.0587563
-0.0575899
-0.0563617
-0.0550752
-0.0537342
-0.0523426
-0.0509047
-0.0494249
-0.0479076
-0.0463577
-0.0447799
-0.0431791
-0.0415605
-0.039929
-0.0382899
-0.0366483
-0.0350093
-0.033378
-0.0317594
-0.0301584
-0.0285796
-0.0270278
-0.025507
-0.0240215
-0.0225749
-0.0211708
-0.0198121
-0.0185016
-0.0172416
-0.016034
-0.0148804
-0.0137817
-0.0127387
-0.0117516
-0.0108202
-0.00994405
-0.00912228
-0.00835371
-0.00763689
-0.00697008
-0.0660438
-0.0651641
-0.064588
-0.063944
-0.0632078
-0.0624036
-0.0615265
-0.0605779
-0.0595598
-0.0584743
-0.0573242
-0.0561124
-0.0548425
-0.0535181
-0.052143
-0.0507214
-0.0492576
-0.0477561
-0.0462216
-0.0446587
-0.0430724
-0.0414678
-0.0398498
-0.0382235
-0.0365942
-0.0349668
-0.0333464
-0.0317381
-0.0301467
-0.0285768
-0.0270331
-0.0255199
-0.0240411
-0.0226006
-0.0212017
-0.0198477
-0.0185412
-0.0172845
-0.0160797
-0.0149282
-0.0138311
-0.0127891
-0.0118025
-0.0108712
-0.00999476
-0.00917232
-0.00840274
-0.00768464
-0.0070163
-0.0656286
-0.0647864
-0.0642182
-0.0635858
-0.0628624
-0.0620712
-0.0612079
-0.0602738
-0.0592706
-0.0582005
-0.0570661
-0.0558703
-0.0546164
-0.053308
-0.0519489
-0.0505431
-0.0490948
-0.0476086
-0.046089
-0.0445406
-0.0429684
-0.0413774
-0.0397724
-0.0381587
-0.0365412
-0.0349251
-0.0333154
-0.0317171
-0.030135
-0.0285738
-0.0270381
-0.0255321
-0.0240599
-0.0226252
-0.0212316
-0.0198821
-0.0185795
-0.0173261
-0.0161239
-0.0149745
-0.0138789
-0.0128379
-0.0118519
-0.0109208
-0.010044
-0.00922093
-0.00845039
-0.00773105
-0.00706124
-0.0652252
-0.0644199
-0.0638599
-0.0632387
-0.0625277
-0.0617492
-0.0608993
-0.0599791
-0.0589904
-0.0579352
-0.0568159
-0.0556355
-0.0543971
-0.0531041
-0.0517604
-0.0503699
-0.0489367
-0.0474652
-0.04596
-0.0444257
-0.0428672
-0.0412893
-0.039697
-0.0380954
-0.0364895
-0.0348844
-0.033285
-0.0316964
-0.0301234
-0.0285706
-0.0270426
-0.0255436
-0.0240778
-0.0226489
-0.0212604
-0.0199153
-0.0186165
-0.0173663
-0.0161667
-0.0150193
-0.0139252
-0.0128853
-0.0118998
-0.0109688
-0.0100918
-0.00926808
-0.00849663
-0.0077761
-0.00710488
-0.064834
-0.0640647
-0.063513
-0.0629027
-0.0622038
-0.0614377
-0.0606007
-0.059694
-0.0587192
-0.0576783
-0.0565737
-0.055408
-0.0541845
-0.0529065
-0.0515777
-0.0502019
-0.0487832
-0.0473261
-0.0458348
-0.0443142
-0.0427688
-0.0412036
-0.0396236
-0.0380338
-0.036439
-0.0348445
-0.0332552
-0.0316761
-0.0301118
-0.0285672
-0.0270467
-0.0255546
-0.024095
-0.0226717
-0.021288
-0.0199473
-0.0186521
-0.0174051
-0.016208
-0.0150626
-0.01397
-0.0129311
-0.0119462
-0.0110153
-0.010138
-0.00931376
-0.00854142
-0.00781977
-0.00714718
-0.0644553
-0.0637211
-0.0631777
-0.0625781
-0.061891
-0.0611368
-0.0603123
-0.0594186
-0.0584573
-0.0574301
-0.0563395
-0.0551882
-0.053979
-0.0527154
-0.0514009
-0.0500393
-0.0486347
-0.0471913
-0.0457135
-0.044206
-0.0426734
-0.0411205
-0.0395524
-0.0379738
-0.03639
-0.0348058
-0.0332262
-0.0316561
-0.0301004
-0.0285636
-0.0270504
-0.025565
-0.0241114
-0.0226935
-0.0213146
-0.019978
-0.0186865
-0.0174424
-0.0162479
-0.0151044
-0.0140133
-0.0129753
-0.0119909
-0.0110602
-0.0101827
-0.00935792
-0.00858475
-0.00786201
-0.00718811
-0.0640896
-0.0633892
-0.0628544
-0.0622649
-0.0615893
-0.0608467
-0.0600343
-0.0591531
-0.0582046
-0.0571908
-0.0561137
-0.054976
-0.0537806
-0.0525308
-0.0512301
-0.0498822
-0.048491
-0.0470609
-0.0455962
-0.0441013
-0.042581
-0.04104
-0.0394833
-0.0379157
-0.0363423
-0.034768
-0.0331978
-0.0316366
-0.0300891
-0.02856
-0.0270538
-0.0255748
-0.024127
-0.0227143
-0.0213401
-0.0200076
-0.0187195
-0.0174784
-0.0162862
-0.0151447
-0.014055
-0.013018
-0.0120341
-0.0111035
-0.0102259
-0.00940055
-0.00862658
-0.0079028
-0.00722765
-0.0637371
-0.0630693
-0.0625431
-0.0619634
-0.0612989
-0.0605675
-0.0597667
-0.0588975
-0.0579615
-0.0569603
-0.0558962
-0.0547716
-0.0535895
-0.052353
-0.0510655
-0.0497307
-0.0483525
-0.0469352
-0.0454829
-0.0440002
-0.0424917
-0.0409622
-0.0394165
-0.0378595
-0.0362962
-0.0347315
-0.0331703
-0.0316175
-0.030078
-0.0285562
-0.0270568
-0.025584
-0.0241419
-0.0227342
-0.0213645
-0.0200359
-0.0187512
-0.0175129
-0.0163231
-0.0151834
-0.014095
-0.013059
-0.0120757
-0.0111453
-0.0102674
-0.00944161
-0.00866689
-0.00794211
-0.00726575
-0.0633981
-0.0627617
-0.062244
-0.0616738
-0.06102
-0.0602993
-0.0595098
-0.0586522
-0.057728
-0.056739
-0.0556873
-0.0545753
-0.0534058
-0.052182
-0.0509072
-0.049585
-0.0482193
-0.0468141
-0.0453738
-0.0439029
-0.0424057
-0.0408872
-0.0393521
-0.0378052
-0.0362516
-0.0346961
-0.0331436
-0.031599
-0.0300671
-0.0285524
-0.0270596
-0.0255928
-0.0241561
-0.0227532
-0.0213878
-0.020063
-0.0187816
-0.017546
-0.0163584
-0.0152205
-0.0141335
-0.0130984
-0.0121156
-0.0111853
-0.0103073
-0.00948107
-0.00870563
-0.00797991
-0.00730241
-0.063073
-0.0624665
-0.0619574
-0.0613962
-0.0607528
-0.0600425
-0.0592637
-0.0584171
-0.0575043
-0.0565269
-0.0554871
-0.0543871
-0.0532297
-0.052018
-0.0507553
-0.0494452
-0.0480913
-0.0466979
-0.0452691
-0.0438093
-0.0423231
-0.0408151
-0.0392901
-0.037753
-0.0362086
-0.0346619
-0.0331178
-0.0315811
-0.0300564
-0.0285486
-0.027062
-0.025601
-0.0241695
-0.0227713
-0.0214101
-0.0200889
-0.0188106
-0.0175777
-0.0163922
-0.015256
-0.0141703
-0.0131361
-0.0121538
-0.0112237
-0.0103456
-0.00951891
-0.00874279
-0.00801617
-0.00733757
-0.0627621
-0.0621841
-0.0616835
-0.061131
-0.0604975
-0.0597971
-0.0590285
-0.0581925
-0.0572906
-0.0563243
-0.0552957
-0.0542072
-0.0530614
-0.0518612
-0.0506101
-0.0493114
-0.0479689
-0.0465867
-0.0451688
-0.0437197
-0.0422439
-0.0407459
-0.0392306
-0.0377028
-0.0361674
-0.0346291
-0.0330929
-0.0315637
-0.0300461
-0.0285448
-0.0270642
-0.0256086
-0.0241821
-0.0227885
-0.0214312
-0.0201135
-0.0188382
-0.0176078
-0.0164245
-0.0152899
-0.0142055
-0.0131721
-0.0121904
-0.0112604
-0.0103822
-0.00955508
-0.00877832
-0.00805085
-0.00737121
-0.0624657
-0.0619147
-0.0614225
-0.0608782
-0.0602542
-0.0595633
-0.0588045
-0.0579786
-0.057087
-0.0561312
-0.0551134
-0.0540357
-0.0529008
-0.0517117
-0.0504715
-0.0491837
-0.0478521
-0.0464805
-0.045073
-0.0436341
-0.0421682
-0.0406798
-0.0391738
-0.0376548
-0.0361278
-0.0345976
-0.0330691
-0.031547
-0.0300361
-0.028541
-0.0270662
-0.0256158
-0.0241941
-0.0228047
-0.0214513
-0.0201369
-0.0188645
-0.0176365
-0.0164552
-0.0153222
-0.014239
-0.0132064
-0.0122252
-0.0112954
-0.010417
-0.00958956
-0.0088122
-0.00808393
-0.00740329
-0.0621842
-0.0616585
-0.0611747
-0.0606381
-0.0600232
-0.0593413
-0.0585918
-0.0577755
-0.0568936
-0.0559479
-0.0549402
-0.0538728
-0.0527484
-0.0515697
-0.0503399
-0.0490624
-0.047741
-0.0463795
-0.0449819
-0.0435527
-0.0420961
-0.0406169
-0.0391196
-0.0376091
-0.0360901
-0.0345676
-0.0330463
-0.031531
-0.0300265
-0.0285373
-0.0270679
-0.0256226
-0.0242054
-0.0228201
-0.0214702
-0.020159
-0.0188893
-0.0176637
-0.0164843
-0.0153528
-0.0142707
-0.013239
-0.0122582
-0.0113286
-0.0104501
-0.00962232
-0.00884439
-0.00811536
-0.00743379
-0.0619178
-0.0614159
-0.0609402
-0.060411
-0.0598047
-0.0591314
-0.0583907
-0.0575834
-0.0567108
-0.0557745
-0.0547764
-0.0537188
-0.0526041
-0.0514352
-0.0502152
-0.0489476
-0.0476358
-0.0462838
-0.0448956
-0.0434755
-0.0420278
-0.0405572
-0.0390682
-0.0375657
-0.0360543
-0.034539
-0.0330245
-0.0315157
-0.0300172
-0.0285336
-0.0270694
-0.0256288
-0.0242159
-0.0228345
-0.0214881
-0.0201799
-0.0189128
-0.0176894
-0.0165118
-0.0153817
-0.0143007
-0.0132697
-0.0122894
-0.01136
-0.0104815
-0.00965332
-0.00887485
-0.00814511
-0.00746267
-0.0616668
-0.0611872
-0.0607193
-0.0601971
-0.0595988
-0.0589337
-0.0582013
-0.0574025
-0.0565386
-0.0556112
-0.0546221
-0.0535736
-0.0524681
-0.0513085
-0.0500978
-0.0488393
-0.0475366
-0.0461936
-0.0448142
-0.0434026
-0.0419634
-0.0405008
-0.0390197
-0.0375246
-0.0360204
-0.0345119
-0.0330039
-0.0315012
-0.0300084
-0.0285301
-0.0270707
-0.0256346
-0.0242258
-0.022848
-0.0215048
-0.0201995
-0.0189348
-0.0177135
-0.0165376
-0.015409
-0.014329
-0.0132987
-0.0123188
-0.0113896
-0.010511
-0.00968253
-0.00890356
-0.00817316
-0.00748989
-0.0614317
-0.0609726
-0.0605123
-0.0599966
-0.059406
-0.0587484
-0.0580238
-0.057233
-0.0563773
-0.0554582
-0.0544776
-0.0534376
-0.0523407
-0.0511897
-0.0499876
-0.0487377
-0.0474436
-0.0461089
-0.0447377
-0.0433343
-0.0419028
-0.0404479
-0.038974
-0.037486
-0.0359886
-0.0344865
-0.0329845
-0.0314875
-0.03
-0.0285266
-0.0270719
-0.0256399
-0.0242349
-0.0228606
-0.0215204
-0.0202178
-0.0189555
-0.0177361
-0.0165618
-0.0154344
-0.0143554
-0.0133259
-0.0123464
-0.0114173
-0.0105386
-0.00970991
-0.00893048
-0.00819945
-0.00751543
-0.00687725
-0.0612126
-0.0607725
-0.0603194
-0.0598098
-0.0592263
-0.0585758
-0.0578585
-0.0570752
-0.056227
-0.0553156
-0.0543429
-0.0533108
-0.052222
-0.051079
-0.0498849
-0.048643
-0.0473568
-0.0460299
-0.0446664
-0.0432705
-0.0418463
-0.0403984
-0.0389314
-0.03745
-0.0359588
-0.0344626
-0.0329663
-0.0314746
-0.0299921
-0.0285234
-0.0270729
-0.0256449
-0.0242434
-0.0228722
-0.021535
-0.0202348
-0.0189746
-0.0177571
-0.0165843
-0.0154581
-0.0143801
-0.0133511
-0.0123721
-0.0114432
-0.0105644
-0.00973542
-0.00895557
-0.00822396
-0.00753924
-0.00690024
-0.0610099
-0.0605871
-0.060141
-0.0596369
-0.0590601
-0.0584162
-0.0577056
-0.0569291
-0.056088
-0.0551837
-0.0542182
-0.0531935
-0.0521121
-0.0509765
-0.0497899
-0.0485554
-0.0472764
-0.0459568
-0.0446004
-0.0432113
-0.0417939
-0.0403526
-0.0388919
-0.0374165
-0.0359311
-0.0344405
-0.0329494
-0.0314626
-0.0299847
-0.0285203
-0.0270737
-0.0256493
-0.0242512
-0.022883
-0.0215483
-0.0202505
-0.0189923
-0.0177765
-0.0166051
-0.0154801
-0.0144028
-0.0133745
-0.0123958
-0.011467
-0.0105882
-0.00975903
-0.0089788
-0.00824665
-0.00756129
-0.00692152
-0.060824
-0.0604168
-0.0599772
-0.0594783
-0.0589075
-0.0582697
-0.0575653
-0.0567951
-0.0559604
-0.0550627
-0.0541039
-0.0530859
-0.0520112
-0.0508825
-0.0497026
-0.0484749
-0.0472026
-0.0458896
-0.0445397
-0.043157
-0.0417458
-0.0403105
-0.0388556
-0.0373857
-0.0359057
-0.0344201
-0.0329338
-0.0314515
-0.0299779
-0.0285174
-0.0270745
-0.0256534
-0.0242582
-0.0228928
-0.0215606
-0.0202649
-0.0190085
-0.0177942
-0.0166242
-0.0155002
-0.0144237
-0.013396
-0.0124176
-0.011489
-0.0106101
-0.00978071
-0.00900012
-0.00826748
-0.00758154
-0.00694107
-0.0606551
-0.060262
-0.0598284
-0.0593342
-0.0587689
-0.0581366
-0.0574378
-0.0566734
-0.0558445
-0.0549528
-0.0539999
-0.0529881
-0.0519195
-0.050797
-0.0496233
-0.0484017
-0.0471355
-0.0458285
-0.0444845
-0.0431076
-0.041702
-0.0402721
-0.0388225
-0.0373577
-0.0358825
-0.0344016
-0.0329196
-0.0314414
-0.0299716
-0.0285147
-0.0270751
-0.0256571
-0.0242646
-0.0229017
-0.0215717
-0.0202779
-0.0190233
-0.0178104
-0.0166415
-0.0155184
-0.0144427
-0.0134154
-0.0124374
-0.0115089
-0.01063
-0.00980041
-0.00901949
-0.00828642
-0.00759994
-0.00695885
-0.0605035
-0.0601228
-0.0596948
-0.0592048
-0.0586445
-0.0580172
-0.0573234
-0.0565641
-0.0557405
-0.0548541
-0.0539067
-0.0529003
-0.0518373
-0.0507202
-0.0495521
-0.048336
-0.0470753
-0.0457737
-0.0444349
-0.0430632
-0.0416626
-0.0402377
-0.0387927
-0.0373325
-0.0358616
-0.0343848
-0.0329068
-0.0314323
-0.0299659
-0.0285122
-0.0270756
-0.0256603
-0.0242704
-0.0229096
-0.0215816
-0.0202896
-0.0190364
-0.0178248
-0.016657
-0.0155348
-0.0144597
-0.0134329
-0.0124551
-0.0115268
-0.0106478
-0.00981809
-0.00903689
-0.00830342
-0.00761647
-0.00697481
-0.0603697
-0.0599998
-0.0595768
-0.0590905
-0.0585346
-0.0579117
-0.0572224
-0.0564676
-0.0556486
-0.0547669
-0.0538243
-0.0528227
-0.0517646
-0.0506524
-0.0494892
-0.0482779
-0.047022
-0.0457251
-0.0443911
-0.0430239
-0.0416278
-0.0402072
-0.0387664
-0.0373102
-0.0358432
-0.03437
-0.0328955
-0.0314242
-0.0299609
-0.02851
-0.027076
-0.0256631
-0.0242754
-0.0229166
-0.0215903
-0.0202998
-0.0190481
-0.0178376
-0.0166707
-0.0155492
-0.0144747
-0.0134484
-0.0124708
-0.0115426
-0.0106636
-0.00983371
-0.00905226
-0.00831844
-0.00763108
-0.00698892
-0.0602539
-0.0598933
-0.0594747
-0.0589916
-0.0584395
-0.0578203
-0.0571349
-0.0563841
-0.0555691
-0.0546915
-0.053753
-0.0527556
-0.0517016
-0.0505937
-0.0494347
-0.0482276
-0.0469759
-0.0456831
-0.0443531
-0.0429899
-0.0415977
-0.0401808
-0.0387436
-0.0372909
-0.0358272
-0.0343572
-0.0328856
-0.0314172
-0.0299565
-0.0285081
-0.0270764
-0.0256656
-0.0242797
-0.0229226
-0.0215979
-0.0203087
-0.0190581
-0.0178486
-0.0166825
-0.0155617
-0.0144877
-0.0134617
-0.0124844
-0.0115562
-0.0106773
-0.00984723
-0.00906557
-0.00833145
-0.00764372
-0.00700113
-0.0601565
-0.0598035
-0.0593887
-0.0589084
-0.0583594
-0.0577435
-0.0570613
-0.0563138
-0.0555022
-0.054628
-0.053693
-0.0526991
-0.0516487
-0.0505443
-0.0493888
-0.0481853
-0.0469371
-0.0456478
-0.0443212
-0.0429613
-0.0415723
-0.0401585
-0.0387244
-0.0372746
-0.0358137
-0.0343463
-0.0328773
-0.0314113
-0.0299528
-0.0285065
-0.0270767
-0.0256676
-0.0242834
-0.0229277
-0.0216043
-0.0203162
-0.0190666
-0.0178579
-0.0166925
-0.0155723
-0.0144987
-0.0134729
-0.0124958
-0.0115677
-0.0106887
-0.00985862
-0.00907677
-0.0083424
-0.00765437
-0.00701142
-0.0600779
-0.059731
-0.0593193
-0.0588411
-0.0582947
-0.0576814
-0.0570019
-0.056257
-0.0554482
-0.0545767
-0.0536445
-0.0526535
-0.0516059
-0.0505044
-0.0493517
-0.0481511
-0.0469057
-0.0456192
-0.0442953
-0.0429381
-0.0415517
-0.0401405
-0.0387089
-0.0372614
-0.0358028
-0.0343376
-0.0328706
-0.0314065
-0.0299498
-0.0285051
-0.0270769
-0.0256692
-0.0242863
-0.0229318
-0.0216094
-0.0203223
-0.0190734
-0.0178654
-0.0167005
-0.0155807
-0.0145075
-0.013482
-0.012505
-0.011577
-0.010698
-0.00986781
-0.00908583
-0.00835125
-0.00766297
-0.00701973
-0.0600186
-0.059676
-0.0592667
-0.0587901
-0.0582457
-0.0576344
-0.0569568
-0.056214
-0.0554072
-0.0545379
-0.0536078
-0.0526189
-0.0515735
-0.0504741
-0.0493237
-0.0481251
-0.0468819
-0.0455975
-0.0442757
-0.0429206
-0.0415362
-0.0401269
-0.0386971
-0.0372514
-0.0357945
-0.0343309
-0.0328655
-0.0314028
-0.0299475
-0.0285041
-0.027077
-0.0256705
-0.0242885
-0.0229349
-0.0216133
-0.0203268
-0.0190786
-0.0178711
-0.0167066
-0.0155872
-0.0145142
-0.0134889
-0.012512
-0.0115841
-0.0107051
-0.00987478
-0.00909269
-0.00835796
-0.00766949
-0.00702603
-0.059979
-0.0596391
-0.0592312
-0.0587558
-0.0582127
-0.0576027
-0.0569265
-0.056185
-0.0553796
-0.0545117
-0.053583
-0.0525956
-0.0515516
-0.0504537
-0.0493047
-0.0481077
-0.0468659
-0.0455829
-0.0442625
-0.0429088
-0.0415257
-0.0401177
-0.0386892
-0.0372447
-0.0357889
-0.0343265
-0.0328621
-0.0314004
-0.029946
-0.0285034
-0.0270771
-0.0256713
-0.02429
-0.022937
-0.0216159
-0.0203299
-0.019082
-0.0178749
-0.0167108
-0.0155915
-0.0145187
-0.0134935
-0.0125168
-0.0115888
-0.0107098
-0.00987948
-0.00909731
-0.00836248
-0.00767389
-0.00703028
-0.0599599
-0.0596206
-0.0592135
-0.0587386
-0.0581961
-0.0575868
-0.0569112
-0.0561705
-0.0553658
-0.0544986
-0.0535706
-0.0525839
-0.0515407
-0.0504435
-0.0492952
-0.0480989
-0.0468578
-0.0455756
-0.0442559
-0.0429028
-0.0415204
-0.0401131
-0.0386852
-0.0372413
-0.0357861
-0.0343242
-0.0328603
-0.0313991
-0.0299452
-0.0285031
-0.0270772
-0.0256717
-0.0242907
-0.022938
-0.0216172
-0.0203314
-0.0190838
-0.0178768
-0.0167128
-0.0155937
-0.014521
-0.0134959
-0.0125191
-0.0115912
-0.0107122
-0.00988184
-0.00909963
-0.00836474
-0.00767609
-0.00703241
-0.0756621
-0.0754136
-0.0751006
-0.0757424
-0.0747323
-0.0753621
-0.0743621
-0.0749816
-0.0739953
-0.0746026
-0.0753315
-0.0736259
-0.0742195
-0.074928
-0.0732533
-0.0738328
-0.0745175
-0.075089
-0.0728788
-0.0734441
-0.0741026
-0.0746627
-0.0725032
-0.0730543
-0.073685
-0.0742326
-0.0749926
-0.072127
-0.0726639
-0.0732663
-0.0737991
-0.0744872
-0.0717508
-0.0722735
-0.0728478
-0.0733628
-0.073992
-0.0747367
-0.071375
-0.0718836
-0.0724304
-0.0729249
-0.073506
-0.0741392
-0.0714949
-0.072015
-0.0724864
-0.0730285
-0.0735487
-0.0711076
-0.0716024
-0.0720485
-0.0725586
-0.0729678
-0.0707224
-0.0711929
-0.0716121
-0.0720956
-0.0723985
-0.0703395
-0.0707871
-0.0711783
-0.0716389
-0.0718422
-0.0699594
-0.0703852
-0.070748
-0.0711881
-0.0712997
-0.0695823
-0.0699876
-0.0703221
-0.070743
-0.0707713
-0.0692088
-0.0695945
-0.0699012
-0.0703035
-0.0702574
-0.0688392
-0.0692062
-0.069486
-0.0698697
-0.0697579
-0.0684739
-0.0688231
-0.0690772
-0.0694419
-0.0692728
-0.0681134
-0.0684454
-0.0686751
-0.0690202
-0.0688018
-0.0677579
-0.0680733
-0.0682801
-0.068605
-0.0683448
-0.0674079
-0.0677072
-0.0678927
-0.0681966
-0.0679016
-0.0670636
-0.0673473
-0.067513
-0.0677955
-0.0674719
-0.0667253
-0.0669939
-0.0671414
-0.067402
-0.0670555
-0.0663934
-0.0666472
-0.066778
-0.0670166
-0.0666522
-0.0660682
-0.0663077
-0.0664231
-0.0666394
-0.0662618
-0.0657498
-0.0659755
-0.0660768
-0.066271
-0.0658842
-0.0654387
-0.065651
-0.0657393
-0.0659116
-0.0655191
-0.0651349
-0.0653344
-0.0654108
-0.0655615
-0.0651665
-0.0648388
-0.0650259
-0.0650914
-0.065221
-0.0648262
-0.0645505
-0.0647258
-0.0647812
-0.0648904
-0.0644981
-0.0642703
-0.0644344
-0.0644805
-0.06457
-0.064182
-0.0639985
-0.0641517
-0.0641894
-0.0642599
-0.063878
-0.0637351
-0.0638782
-0.063908
-0.0639604
-0.063586
-0.0634805
-0.063614
-0.0636365
-0.0636717
-0.0633058
-0.0632349
-0.0633594
-0.0633752
-0.0633941
-0.0630375
-0.0629986
-0.0631145
-0.0631241
-0.0631277
-0.0627811
-0.0627716
-0.0628797
-0.0628835
-0.0628727
-0.0625366
-0.0625544
-0.0626551
-0.0626535
-0.0626293
-0.0623039
-0.062347
-0.0624409
-0.0624344
-0.0623977
-0.0620831
-0.0621499
-0.0622374
-0.0622263
-0.0621781
-0.0618743
-0.061963
-0.0620449
-0.0620295
-0.0619706
-0.0616775
-0.0617869
-0.0618635
-0.0618442
-0.0617755
-0.0614927
-0.0616216
-0.0616934
-0.0616706
-0.061593
-0.0613201
-0.0614674
-0.061535
-0.0615089
-0.0614232
-0.0611598
-0.0613246
-0.0613884
-0.0613593
-0.0612663
-0.0610118
-0.0611935
-0.0612539
-0.0612222
-0.0611226
-0.0608764
-0.0610743
-0.0611318
-0.0610977
-0.0609923
-0.0607536
-0.0609673
-0.0610224
-0.0609862
-0.0608756
-0.0606437
-0.0608728
-0.0609258
-0.0608878
-0.0607727
-0.0605467
-0.0607911
-0.0608425
-0.0608029
-0.060684
-0.060463
-0.0607225
-0.0607727
-0.0607318
-0.0606096
-0.0603927
-0.0606673
-0.0607167
-0.0606748
-0.0605499
-0.0603359
-0.0606259
-0.0606749
-0.0606323
-0.0605053
-0.0602929
-0.0605988
-0.0606479
-0.0606048
-0.060476
-0.0602638
-0.0605866
-0.0606354
-0.0605918
-0.0604617
-0.0602485
)
;

boundaryField
{
    inlet
    {
        type            zeroGradient;
    }
    outlet
    {
        type            fixedValue;
        value           nonuniform 0();
    }
    cylinder
    {
        type            zeroGradient;
    }
    top
    {
        type            symmetryPlane;
    }
    bottom
    {
        type            symmetryPlane;
    }
    defaultFaces
    {
        type            empty;
    }
    procBoundary14to9
    {
        type            processor;