/*--------------------------------*- C++ -*----------------------------------*\
  =========                 |
  \\      /  F ield         | OpenFOAM: The Open Source CFD Toolbox
   \\    /   O peration     | Website:  https://openfoam.org
    \\  /    A nd           | Version:  7
     \\/     M anipulation  |
\*---------------------------------------------------------------------------*/
FoamFile
{
    version     2.0;
    format      ascii;
    class       volVectorField;
    location    "5";
    object      U;
}
// * * * * * * * * * * * * * * * * * * * * * * * * * * * * * * * * * * * * * //

dimensions      [0 1 -1 0 0 0 0];

internalField   nonuniform List<vector> 
2625
(
(1.18752 -0.0604731 0)
(1.18333 -0.0617505 0)
(1.17903 -0.0629345 0)
(1.17464 -0.064021 0)
(1.17015 -0.0650057 0)
(1.16558 -0.0658841 0)
(1.16094 -0.0666518 0)
(1.15621 -0.0673043 0)
(1.15142 -0.0678372 0)
(1.14657 -0.0682463 0)
(1.14167 -0.0685274 0)
(1.13673 -0.0686767 0)
(1.13175 -0.0686905 0)
(1.12675 -0.0685658 0)
(1.12174 -0.0683 0)
(1.11672 -0.0678908 0)
(1.11171 -0.0673371 0)
(1.10672 -0.0666382 0)
(1.10177 -0.0657944 0)
(1.09685 -0.0648073 0)
(1.09199 -0.0636791 0)
(1.0872 -0.0624136 0)
(1.08248 -0.0610156 0)
(1.07786 -0.0594912 0)
(1.07334 -0.0578477 0)
(1.06893 -0.0560939 0)
(1.06464 -0.0542395 0)
(1.06049 -0.0522954 0)
(1.05647 -0.0502735 0)
(1.05261 -0.0481866 0)
(1.04889 -0.0460479 0)
(1.04534 -0.0438713 0)
(1.04196 -0.0416709 0)
(1.03874 -0.0394605 0)
(1.03568 -0.0372538 0)
(1.23355 -0.033437 0)
(1.2313 -0.035605 0)
(1.22894 -0.0378039 0)
(1.22633 -0.0399793 0)
(1.22352 -0.0420996 0)
(1.22055 -0.0441489 0)
(1.21742 -0.0461221 0)
(1.21417 -0.0480188 0)
(1.21079 -0.0498398 0)
(1.20729 -0.0515858 0)
(1.20367 -0.0532567 0)
(1.19994 -0.0548512 0)
(1.19609 -0.0563674 0)
(1.19214 -0.0578027 0)
(1.18808 -0.0591538 0)
(1.18391 -0.0604174 0)
(1.17964 -0.0615894 0)
(1.17528 -0.0626658 0)
(1.17082 -0.0636423 0)
(1.16627 -0.0645147 0)
(1.16164 -0.0652786 0)
(1.15694 -0.0659295 0)
(1.15217 -0.0664633 0)
(1.14733 -0.0668756 0)
(1.14245 -0.0671624 0)
(1.13752 -0.0673199 0)
(1.13255 -0.0673446 0)
(1.12756 -0.0672334 0)
(1.12255 -0.0669835 0)
(1.11753 -0.0665931 0)
(1.11252 -0.0660606 0)
(1.10753 -0.0653855 0)
(1.10257 -0.0645682 0)
(1.09765 -0.0636098 0)
(1.09278 -0.0625128 0)
(1.08798 -0.0612806 0)
(1.08325 -0.059918 0)
(1.07862 -0.0584309 0)
(1.07408 -0.0568264 0)
(1.06965 -0.0551131 0)
(1.06535 -0.0533004 0)
(1.06117 -0.0513991 0)
(1.05714 -0.0494207 0)
(1.05325 -0.0473777 0)
(1.04952 -0.0452831 0)
(1.04594 -0.0431506 0)
(1.04253 -0.0409939 0)
(1.03928 -0.0388266 0)
(1.0362 -0.0366623 0)
(1.2333 -0.0326605 0)
(1.23111 -0.0347477 0)
(1.22881 -0.0368691 0)
(1.22628 -0.0389777 0)
(1.22354 -0.0410435 0)
(1.22064 -0.0430488 0)
(1.21758 -0.0449857 0)
(1.21438 -0.0468514 0)
(1.21105 -0.048645 0)
(1.2076 -0.0503661 0)
(1.20402 -0.052014 0)
(1.20033 -0.0535872 0)
(1.19653 -0.0550838 0)
(1.19261 -0.056501 0)
(1.18858 -0.0578358 0)
(1.18445 -0.0590847 0)
(1.18021 -0.0602438 0)
(1.17587 -0.0613093 0)
(1.17144 -0.0622771 0)
(1.16692 -0.0631427 0)
(1.16231 -0.0639021 0)
(1.15763 -0.0645509 0)
(1.15288 -0.0650848 0)
(1.14806 -0.0654997 0)
(1.14319 -0.0657917 0)
(1.13827 -0.0659569 0)
(1.13331 -0.0659919 0)
(1.12833 -0.0658935 0)
(1.12332 -0.0656593 0)
(1.11831 -0.065287 0)
(1.11331 -0.0647754 0)
(1.10832 -0.0641238 0)
(1.10335 -0.0633325 0)
(1.09843 -0.0624026 0)
(1.09356 -0.0613365 0)
(1.08874 -0.0601374 0)
(1.08401 -0.0588101 0)
(1.07936 -0.0573601 0)
(1.07481 -0.0557946 0)
(1.07037 -0.0541217 0)
(1.06604 -0.0523507 0)
(1.06185 -0.0504922 0)
(1.0578 -0.0485573 0)
(1.05389 -0.0465584 0)
(1.05013 -0.0445082 0)
(1.04653 -0.0424199 0)
(1.04309 -0.0403071 0)
(1.03982 -0.0381832 0)
(1.03672 -0.0360615 0)
(1.23304 -0.0318911 0)
(1.23088 -0.0339049 0)
(1.22864 -0.0359535 0)
(1.22617 -0.0379966 0)
(1.22351 -0.0400068 0)
(1.22067 -0.0419658 0)
(1.21768 -0.0438637 0)
(1.21454 -0.0456958 0)
(1.21126 -0.0474597 0)
(1.20786 -0.0491541 0)
(1.20433 -0.0507775 0)
(1.20068 -0.0523281 0)
(1.19691 -0.0538039 0)
(1.19303 -0.055202 0)
(1.18904 -0.0565195 0)
(1.18494 -0.0577528 0)
(1.18073 -0.0588984 0)
(1.17642 -0.0599522 0)
(1.17202 -0.0609104 0)
(1.16752 -0.0617686 0)
(1.16294 -0.0625228 0)
(1.15828 -0.0631687 0)
(1.15354 -0.0637022 0)
(1.14875 -0.0641191 0)
(1.14389 -0.0644156 0)
(1.13899 -0.0645879 0)
(1.13404 -0.0646326 0)
(1.12907 -0.0645467 0)
(1.12407 -0.0643275 0)
(1.11907 -0.063973 0)
(1.11407 -0.0634819 0)
(1.10908 -0.0628534 0)
(1.10411 -0.0620877 0)
(1.09918 -0.061186 0)
(1.09431 -0.0601505 0)
(1.08949 -0.0589843 0)
(1.08474 -0.057692 0)
(1.08008 -0.0562791 0)
(1.07552 -0.0547524 0)
(1.07106 -0.0531198 0)
(1.06672 -0.0513906 0)
(1.06251 -0.0495748 0)
(1.05844 -0.0476836 0)
(1.05451 -0.0457288 0)
(1.05073 -0.043723 0)
(1.04711 -0.0416792 0)
(1.04365 -0.0396106 0)
(1.04035 -0.0375304 0)
(1.03722 -0.0354515 0)
(1.23275 -0.0311277 0)
(1.23062 -0.0330741 0)
(1.22844 -0.0350544 0)
(1.22603 -0.0370338 0)
(1.22343 -0.0389881 0)
(1.22066 -0.0408991 0)
(1.21772 -0.0427559 0)
(1.21464 -0.0445522 0)
(1.21142 -0.0462845 0)
(1.20806 -0.0479503 0)
(1.20458 -0.0495476 0)
(1.20098 -0.0510744 0)
(1.19725 -0.0525281 0)
(1.19341 -0.0539061 0)
(1.18945 -0.0552053 0)
(1.18538 -0.0564223 0)
(1.18121 -0.0575534 0)
(1.17693 -0.0585948 0)
(1.17255 -0.0595426 0)
(1.16808 -0.0603927 0)
(1.16353 -0.0611411 0)
(1.15889 -0.0617834 0)
(1.15418 -0.0623158 0)
(1.1494 -0.0627341 0)
(1.14456 -0.0630345 0)
(1.13967 -0.0632134 0)
(1.13474 -0.0632673 0)
(1.12978 -0.0631932 0)
(1.12479 -0.0629886 0)
(1.11979 -0.0626514 0)
(1.1148 -0.0621803 0)
(1.10981 -0.0615744 0)
(1.10485 -0.0608341 0)
(1.09992 -0.0599602 0)
(1.09503 -0.058955 0)
(1.09021 -0.0578215 0)
(1.08546 -0.056564 0)
(1.08079 -0.0551879 0)
(1.07621 -0.0536999 0)
(1.07174 -0.0521077 0)
(1.06739 -0.0504201 0)
(1.06316 -0.0486471 0)
(1.05907 -0.0467996 0)
(1.05512 -0.0448891 0)
(1.05132 -0.0429279 0)
(1.04768 -0.0409287 0)
(1.04419 -0.0389044 0)
(1.04088 -0.0368681 0)
(1.03772 -0.0348324 0)
(1.23243 -0.0303694 0)
(1.23034 -0.0322537 0)
(1.2282 -0.0341696 0)
(1.22585 -0.0360874 0)
(1.22331 -0.037986 0)
(1.2206 -0.039848 0)
(1.21772 -0.0416621 0)
(1.2147 -0.0434208 0)
(1.21153 -0.0451195 0)
(1.20822 -0.0467551 0)
(1.20479 -0.0483249 0)
(1.20122 -0.0498264 0)
(1.19754 -0.051257 0)
(1.19373 -0.0526138 0)
(1.18981 -0.0538938 0)
(1.18578 -0.0550934 0)
(1.18164 -0.0562093 0)
(1.17739 -0.0572375 0)
(1.17305 -0.0581742 0)
(1.16861 -0.0590155 0)
(1.16408 -0.0597572 0)
(1.15946 -0.0603954 0)
(1.15477 -0.060926 0)
(1.15001 -0.061345 0)
(1.14519 -0.0616488 0)
(1.14032 -0.0618335 0)
(1.1354 -0.0618961 0)
(1.13045 -0.0618334 0)
(1.12548 -0.0616428 0)
(1.12049 -0.0613225 0)
(1.1155 -0.0608709 0)
(1.11052 -0.0602873 0)
(1.10556 -0.0595718 0)
(1.10063 -0.0587255 0)
(1.09574 -0.0577503 0)
(1.09091 -0.0566492 0)
(1.08616 -0.0554263 0)
(1.08148 -0.0540869 0)
(1.07689 -0.0526374 0)
(1.07241 -0.0510854 0)
(1.06804 -0.0494395 0)
(1.0638 -0.0477093 0)
(1.05969 -0.0459054 0)
(1.05572 -0.0440393 0)
(1.0519 -0.0421228 0)
(1.04824 -0.0401684 0)
(1.04473 -0.0381887 0)
(1.04139 -0.0361964 0)
(1.03822 -0.0342041 0)
(1.2321 -0.0296156 0)
(1.23004 -0.0314419 0)
(1.22794 -0.0332971 0)
(1.22563 -0.0351555 0)
(1.22315 -0.0369991 0)
(1.2205 -0.0388117 0)
(1.21768 -0.0405817 0)
(1.21471 -0.0423013 0)
(1.21159 -0.0439649 0)
(1.20833 -0.0455687 0)
(1.20495 -0.0471096 0)
(1.20143 -0.0485846 0)
(1.19778 -0.0499909 0)
(1.19402 -0.0513255 0)
(1.19014 -0.0525852 0)
(1.18614 -0.0537667 0)
(1.18203 -0.0548664 0)
(1.17782 -0.0558806 0)
(1.1735 -0.0568055 0)
(1.16909 -0.0576372 0)
(1.16459 -0.0583716 0)
(1.16 -0.0590049 0)
(1.15533 -0.0595331 0)
(1.15059 -0.0599522 0)
(1.14579 -0.0602587 0)
(1.14094 -0.0604488 0)
(1.13604 -0.0605194 0)
(1.1311 -0.0604675 0)
(1.12614 -0.0602905 0)
(1.12116 -0.0599865 0)
(1.11618 -0.059554 0)
(1.1112 -0.0589922 0)
(1.10624 -0.0583013 0)
(1.10131 -0.0574822 0)
(1.09643 -0.0565366 0)
(1.0916 -0.0554676 0)
(1.08683 -0.0542791 0)
(1.08215 -0.0529762 0)
(1.07755 -0.0515651 0)
(1.07306 -0.0500532 0)
(1.06868 -0.0484488 0)
(1.06442 -0.0467614 0)
(1.0603 -0.0450012 0)
(1.05631 -0.0431795 0)
(1.05247 -0.0413078 0)
(1.04879 -0.0393983 0)
(1.04526 -0.0374634 0)
(1.0419 -0.0355155 0)
(1.0387 -0.0335668 0)
(1.23175 -0.028866 0)
(1.22971 -0.0306378 0)
(1.22765 -0.0324354 0)
(1.22539 -0.0342366 0)
(1.22296 -0.0360261 0)
(1.22036 -0.037789 0)
(1.21759 -0.0395142 0)
(1.21468 -0.0411934 0)
(1.21161 -0.0428206 0)
(1.2084 -0.0443913 0)
(1.20506 -0.0459019 0)
(1.20159 -0.0473492 0)
(1.19799 -0.0487301 0)
(1.19426 -0.0500414 0)
(1.19042 -0.05128 0)
(1.18646 -0.0524424 0)
(1.18238 -0.0535252 0)
(1.1782 -0.0545245 0)
(1.17392 -0.0554368 0)
(1.16953 -0.0562582 0)
(1.16506 -0.0569846 0)
(1.1605 -0.0576123 0)
(1.15586 -0.0581374 0)
(1.15114 -0.0585561 0)
(1.14636 -0.0588646 0)
(1.14153 -0.0590595 0)
(1.13664 -0.0591376 0)
(1.13172 -0.0590959 0)
(1.12677 -0.058932 0)
(1.1218 -0.0586438 0)
(1.11683 -0.0582299 0)
(1.11186 -0.0576896 0)
(1.1069 -0.0570228 0)
(1.10198 -0.0562304 0)
(1.09709 -0.0553142 0)
(1.09226 -0.054277 0)
(1.08749 -0.0531226 0)
(1.0828 -0.051856 0)
(1.0782 -0.0504831 0)
(1.07369 -0.0490111 0)
(1.0693 -0.0474482 0)
(1.06503 -0.0458036 0)
(1.06089 -0.0440872 0)
(1.05689 -0.0423099 0)
(1.05303 -0.0404831 0)
(1.04933 -0.0386186 0)
(1.04578 -0.0367286 0)
(1.0424 -0.0348253 0)
(1.03918 -0.0329204 0)
(1.23139 -0.0281203 0)
(1.22937 -0.0298403 0)
(1.22734 -0.031583 0)
(1.22513 -0.0333291 0)
(1.22274 -0.0350655 0)
(1.22019 -0.0367791 0)
(1.21747 -0.038459 0)
(1.21461 -0.0400968 0)
(1.21159 -0.0416864 0)
(1.20843 -0.0432228 0)
(1.20513 -0.0447019 0)
(1.20171 -0.0461204 0)
(1.19815 -0.0474748 0)
(1.19446 -0.0487619 0)
(1.19066 -0.0499784 0)
(1.18673 -0.0511208 0)
(1.18269 -0.0521858 0)
(1.17855 -0.0531696 0)
(1.17429 -0.0540685 0)
(1.16994 -0.0548788 0)
(1.1655 -0.0555965 0)
(1.16096 -0.056218 0)
(1.15634 -0.0567393 0)
(1.15165 -0.0571568 0)
(1.1469 -0.0574668 0)
(1.14208 -0.0576659 0)
(1.13721 -0.0577508 0)
(1.13231 -0.0577189 0)
(1.12737 -0.0575674 0)
(1.12241 -0.0572946 0)
(1.11745 -0.0568989 0)
(1.11249 -0.0563795 0)
(1.10754 -0.0557364 0)
(1.10262 -0.0549705 0)
(1.09773 -0.0540833 0)
(1.0929 -0.0530776 0)
(1.08813 -0.0519571 0)
(1.08343 -0.0507265 0)
(1.07882 -0.0493916 0)
(1.07431 -0.0479595 0)
(1.06991 -0.046438 0)
(1.06562 -0.044836 0)
(1.06147 -0.0431633 0)
(1.05745 -0.0414305 0)
(1.05358 -0.0396487 0)
(1.04986 -0.0378294 0)
(1.04629 -0.0359845 0)
(1.04289 -0.0341259 0)
(1.03965 -0.0322652 0)
(1.231 -0.0273781 0)
(1.22902 -0.0290486 0)
(1.22702 -0.0307388 0)
(1.22484 -0.0324317 0)
(1.22249 -0.0341163 0)
(1.21999 -0.0357808 0)
(1.21732 -0.0374151 0)
(1.2145 -0.039011 0)
(1.21153 -0.0405621 0)
(1.20842 -0.0420631 0)
(1.20517 -0.0435097 0)
(1.20179 -0.0448982 0)
(1.19827 -0.0462251 0)
(1.19462 -0.047487 0)
(1.19086 -0.0486806 0)
(1.18697 -0.0498022 0)
(1.18297 -0.0508486 0)
(1.17885 -0.051816 0)
(1.17463 -0.0527008 0)
(1.17031 -0.0534993 0)
(1.1659 -0.0542076 0)
(1.16139 -0.0548222 0)
(1.1568 -0.0553391 0)
(1.15213 -0.0557547 0)
(1.1474 -0.0560656 0)
(1.1426 -0.0562682 0)
(1.13775 -0.0563595 0)
(1.13287 -0.0563367 0)
(1.12794 -0.0561972 0)
(1.123 -0.0559392 0)
(1.11805 -0.0555612 0)
(1.11309 -0.0550623 0)
(1.10815 -0.0544425 0)
(1.10323 -0.0537026 0)
(1.09835 -0.0528441 0)
(1.09352 -0.0518696 0)
(1.08874 -0.0507826 0)
(1.08404 -0.0495878 0)
(1.07943 -0.0482909 0)
(1.07491 -0.0468984 0)
(1.0705 -0.0454182 0)
(1.0662 -0.0438588 0)
(1.06203 -0.0422299 0)
(1.058 -0.0405416 0)
(1.05411 -0.0388048 0)
(1.05037 -0.0370308 0)
(1.04679 -0.0352311 0)
(1.04337 -0.0334174 0)
(1.04011 -0.031601 0)
(1.23061 -0.0266393 0)
(1.22865 -0.0282621 0)
(1.22667 -0.0299018 0)
(1.22453 -0.0315433 0)
(1.22222 -0.0331772 0)
(1.21976 -0.0347932 0)
(1.21714 -0.0363819 0)
(1.21437 -0.0379354 0)
(1.21145 -0.0394472 0)
(1.20838 -0.040912 0)
(1.20517 -0.0423252 0)
(1.20183 -0.0436828 0)
(1.19835 -0.0449813 0)
(1.19475 -0.0462171 0)
(1.19102 -0.0473867 0)
(1.18717 -0.0484868 0)
(1.18321 -0.0495137 0)
(1.17913 -0.050464 0)
(1.17494 -0.0513339 0)
(1.17065 -0.0521199 0)
(1.16626 -0.0528182 0)
(1.16178 -0.0534251 0)
(1.15722 -0.0539369 0)
(1.15258 -0.0543501 0)
(1.14787 -0.0546612 0)
(1.14309 -0.0548668 0)
(1.13827 -0.0549639 0)
(1.13339 -0.0549496 0)
(1.12849 -0.0548216 0)
(1.12356 -0.0545779 0)
(1.11862 -0.0542171 0)
(1.11367 -0.0537383 0)
(1.10874 -0.0531414 0)
(1.10383 -0.0524271 0)
(1.09895 -0.0515969 0)
(1.09412 -0.0506532 0)
(1.08934 -0.0495996 0)
(1.08464 -0.0484403 0)
(1.08002 -0.047181 0)
(1.07549 -0.0458281 0)
(1.07107 -0.044389 0)
(1.06677 -0.0428722 0)
(1.06259 -0.0412869 0)
(1.05854 -0.0396432 0)
(1.05464 -0.0379515 0)
(1.05088 -0.0362228 0)
(1.04728 -0.0344685 0)
(1.04384 -0.0326999 0)
(1.04056 -0.030928 0)
(1.2302 -0.0259037 0)
(1.22826 -0.0274803 0)
(1.22631 -0.0290712 0)
(1.2242 -0.0306628 0)
(1.22193 -0.0322472 0)
(1.21951 -0.0338154 0)
(1.21693 -0.0353586 0)
(1.2142 -0.0368694 0)
(1.21133 -0.0383414 0)
(1.2083 -0.0397692 0)
(1.20514 -0.0411481 0)
(1.20184 -0.0424741 0)
(1.1984 -0.0437432 0)
(1.19484 -0.0449521 0)
(1.19115 -0.046097 0)
(1.18734 -0.0471746 0)
(1.18341 -0.0481814 0)
(1.17936 -0.0491137 0)
(1.17521 -0.0499681 0)
(1.17095 -0.0507409 0)
(1.1666 -0.0514284 0)
(1.16215 -0.052027 0)
(1.15761 -0.0525332 0)
(1.15299 -0.0529433 0)
(1.14831 -0.0532539 0)
(1.14355 -0.0534619 0)
(1.13875 -0.0535641 0)
(1.13389 -0.0535579 0)
(1.12901 -0.0534408 0)
(1.12409 -0.0532109 0)
(1.11916 -0.0528668 0)
(1.11423 -0.0524076 0)
(1.1093 -0.0518331 0)
(1.1044 -0.051144 0)
(1.09952 -0.0503418 0)
(1.09469 -0.0494287 0)
(1.08992 -0.048408 0)
(1.08522 -0.0472841 0)
(1.08059 -0.0460622 0)
(1.07606 -0.0447486 0)
(1.07163 -0.0433506 0)
(1.06732 -0.0418762 0)
(1.06313 -0.0403346 0)
(1.05907 -0.0387354 0)
(1.05515 -0.0370888 0)
(1.05138 -0.0354056 0)
(1.04776 -0.0336968 0)
(1.0443 -0.0319734 0)
(1.041 -0.0302462 0)
(1.22978 -0.0251712 0)
(1.22787 -0.0267029 0)
(1.22594 -0.0282463 0)
(1.22386 -0.0297894 0)
(1.22163 -0.0313254 0)
(1.21924 -0.0328464 0)
(1.2167 -0.0343444 0)
(1.21401 -0.0358124 0)
(1.21118 -0.0372442 0)
(1.2082 -0.0386344 0)
(1.20508 -0.0399784 0)
(1.20182 -0.0412718 0)
(1.19842 -0.0425109 0)
(1.1949 -0.043692 0)
(1.19125 -0.0448115 0)
(1.18747 -0.0458659 0)
(1.18358 -0.0468517 0)
(1.17957 -0.0477655 0)
(1.17545 -0.0486035 0)
(1.17122 -0.0493624 0)
(1.1669 -0.0500385 0)
(1.16248 -0.0506281 0)
(1.15797 -0.0511279 0)
(1.15338 -0.0515343 0)
(1.14871 -0.051844 0)
(1.14399 -0.0520537 0)
(1.1392 -0.0521606 0)
(1.13437 -0.0521618 0)
(1.12949 -0.0520551 0)
(1.1246 -0.0518385 0)
(1.11968 -0.0515106 0)
(1.11476 -0.0510705 0)
(1.10984 -0.050518 0)
(1.10494 -0.0498538 0)
(1.10008 -0.0490791 0)
(1.09525 -0.0481962 0)
(1.09048 -0.0472082 0)
(1.08577 -0.0461193 0)
(1.08115 -0.0449346 0)
(1.07661 -0.0436602 0)
(1.07217 -0.042303 0)
(1.06785 -0.0408711 0)
(1.06365 -0.039373 0)
(1.05958 -0.0378183 0)
(1.05565 -0.0362169 0)
(1.05186 -0.0345793 0)
(1.04823 -0.0329161 0)
(1.04475 -0.031238 0)
(1.04144 -0.0295558 0)
(1.22935 -0.0244417 0)
(1.22746 -0.0259293 0)
(1.22556 -0.0274265 0)
(1.2235 -0.0289223 0)
(1.2213 -0.0304109 0)
(1.21895 -0.0318853 0)
(1.21645 -0.0333384 0)
(1.2138 -0.0347637 0)
(1.21101 -0.036155 0)
(1.20807 -0.0375073 0)
(1.20499 -0.0388157 0)
(1.20177 -0.040076 0)
(1.19841 -0.0412843 0)
(1.19493 -0.0424368 0)
(1.19131 -0.0435301 0)
(1.18758 -0.0445606 0)
(1.18372 -0.0455248 0)
(1.17974 -0.0464192 0)
(1.17566 -0.0472403 0)
(1.17146 -0.0479846 0)
(1.16717 -0.0486485 0)
(1.16277 -0.0492287 0)
(1.15829 -0.0497214 0)
(1.15373 -0.0501235 0)
(1.14909 -0.0504316 0)
(1.14439 -0.0506425 0)
(1.13962 -0.0507534 0)
(1.13481 -0.0507615 0)
(1.12996 -0.0506646 0)
(1.12508 -0.0504608 0)
(1.12017 -0.0501486 0)
(1.11526 -0.0497272 0)
(1.11036 -0.0491963 0)
(1.10547 -0.0485565 0)
(1.10061 -0.047809 0)
(1.09579 -0.0469559 0)
(1.09102 -0.0460003 0)
(1.08631 -0.0449462 0)
(1.08168 -0.0437985 0)
(1.07714 -0.042563 0)
(1.0727 -0.0412466 0)
(1.06837 -0.0398569 0)
(1.06416 -0.0384024 0)
(1.06008 -0.0368922 0)
(1.05613 -0.035336 0)
(1.05234 -0.0337439 0)
(1.04869 -0.0321264 0)
(1.04519 -0.0304939 0)
(1.04186 -0.0288567 0)
(1.22891 -0.023715 0)
(1.22705 -0.0251593 0)
(1.22517 -0.0266113 0)
(1.22314 -0.0280608 0)
(1.22096 -0.0295029 0)
(1.21865 -0.0309315 0)
(1.21618 -0.0323401 0)
(1.21357 -0.0337226 0)
(1.21081 -0.0350734 0)
(1.20791 -0.0363873 0)
(1.20487 -0.0376596 0)
(1.20169 -0.0388862 0)
(1.19837 -0.0400631 0)
(1.19493 -0.0411865 0)
(1.19135 -0.0422529 0)
(1.18765 -0.0432588 0)
(1.18383 -0.0442007 0)
(1.17989 -0.0450751 0)
(1.17583 -0.0458785 0)
(1.17167 -0.0466076 0)
(1.16741 -0.0472588 0)
(1.16304 -0.0478287 0)
(1.15859 -0.0483139 0)
(1.15406 -0.048711 0)
(1.14944 -0.0490169 0)
(1.14476 -0.0492284 0)
(1.14002 -0.0493427 0)
(1.13523 -0.0493573 0)
(1.13039 -0.0492697 0)
(1.12553 -0.0490781 0)
(1.12064 -0.0487812 0)
(1.11575 -0.0483779 0)
(1.11085 -0.0478682 0)
(1.10597 -0.0472523 0)
(1.10112 -0.0465316 0)
(1.0963 -0.045708 0)
(1.09153 -0.0447845 0)
(1.08683 -0.0437649 0)
(1.0822 -0.0426539 0)
(1.07766 -0.0414572 0)
(1.07321 -0.0401814 0)
(1.06887 -0.0388339 0)
(1.06466 -0.0374228 0)
(1.06056 -0.035957 0)
(1.05661 -0.034446 0)
(1.0528 -0.0328996 0)
(1.04913 -0.0313279 0)
(1.04563 -0.029741 0)
(1.04228 -0.0281492 0)
(1.22847 -0.0229911 0)
(1.22663 -0.0243926 0)
(1.22477 -0.0258002 0)
(1.22276 -0.0272043 0)
(1.22061 -0.0286007 0)
(1.21833 -0.0299841 0)
(1.21589 -0.0313486 0)
(1.21332 -0.0326886 0)
(1.2106 -0.0339987 0)
(1.20773 -0.035274 0)
(1.20473 -0.0365099 0)
(1.20159 -0.0377023 0)
(1.19831 -0.0388472 0)
(1.1949 -0.0399409 0)
(1.19136 -0.0409798 0)
(1.18769 -0.0419604 0)
(1.18391 -0.0428793 0)
(1.18 -0.0437331 0)
(1.17598 -0.0445183 0)
(1.17185 -0.0452315 0)
(1.16762 -0.0458693 0)
(1.16329 -0.0464284 0)
(1.15886 -0.0469053 0)
(1.15435 -0.047297 0)
(1.14977 -0.0476001 0)
(1.14511 -0.0478116 0)
(1.14039 -0.0479289 0)
(1.13562 -0.0479492 0)
(1.13081 -0.0478704 0)
(1.12596 -0.0476906 0)
(1.12109 -0.0474084 0)
(1.11621 -0.0470229 0)
(1.11132 -0.0465338 0)
(1.10645 -0.0459415 0)
(1.10161 -0.0452472 0)
(1.0968 -0.0444528 0)
(1.09203 -0.0435611 0)
(1.08733 -0.0425756 0)
(1.0827 -0.0415011 0)
(1.07816 -0.040343 0)
(1.07371 -0.0391076 0)
(1.06936 -0.037802 0)
(1.06514 -0.0364343 0)
(1.06104 -0.035013 0)
(1.05707 -0.0335472 0)
(1.05325 -0.0320465 0)
(1.04957 -0.0305206 0)
(1.04605 -0.0289796 0)
(1.04268 -0.0274331 0)
(1.22802 -0.0222697 0)
(1.2262 -0.0236291 0)
(1.22436 -0.0249927 0)
(1.22238 -0.0263522 0)
(1.22026 -0.0277037 0)
(1.218 -0.0290425 0)
(1.2156 -0.0303634 0)
(1.21305 -0.031661 0)
(1.21037 -0.0329304 0)
(1.20754 -0.034167 0)
(1.20457 -0.0353662 0)
(1.20146 -0.0365239 0)
(1.19822 -0.0376364 0)
(1.19485 -0.0386998 0)
(1.19135 -0.0397106 0)
(1.18772 -0.0406654 0)
(1.18396 -0.0415608 0)
(1.18009 -0.0423933 0)
(1.1761 -0.0431596 0)
(1.172 -0.0438563 0)
(1.1678 -0.0444802 0)
(1.1635 -0.0450278 0)
(1.15911 -0.045496 0)
(1.15462 -0.0458815 0)
(1.15006 -0.0461812 0)
(1.14543 -0.0463923 0)
(1.14074 -0.0465119 0)
(1.13599 -0.0465375 0)
(1.13119 -0.0464669 0)
(1.12636 -0.0462984 0)
(1.12151 -0.0460304 0)
(1.11664 -0.0456622 0)
(1.11177 -0.0451934 0)
(1.10691 -0.0446243 0)
(1.10207 -0.043956 0)
(1.09727 -0.0431903 0)
(1.09251 -0.04233 0)
(1.08781 -0.0413785 0)
(1.08318 -0.0403402 0)
(1.07864 -0.0392204 0)
(1.07419 -0.0380253 0)
(1.06984 -0.0367616 0)
(1.0656 -0.0354371 0)
(1.0615 -0.0340602 0)
(1.05752 -0.0326396 0)
(1.05368 -0.0311846 0)
(1.04999 -0.0297047 0)
(1.04646 -0.0282095 0)
(1.04308 -0.0267086 0)
(1.22757 -0.0215509 0)
(1.22577 -0.0228683 0)
(1.22394 -0.0241887 0)
(1.22198 -0.0255042 0)
(1.21989 -0.0268114 0)
(1.21766 -0.0281062 0)
(1.21528 -0.0293837 0)
(1.21277 -0.0306392 0)
(1.21012 -0.0318681 0)
(1.20732 -0.0330657 0)
(1.20439 -0.034228 0)
(1.20132 -0.0353508 0)
(1.19811 -0.0364303 0)
(1.19478 -0.037463 0)
(1.19131 -0.0384452 0)
(1.18771 -0.0393736 0)
(1.18399 -0.0402449 0)
(1.18015 -0.0410556 0)
(1.1762 -0.0418024 0)
(1.17213 -0.0424821 0)
(1.16796 -0.0430914 0)
(1.16369 -0.0436271 0)
(1.15932 -0.0440859 0)
(1.15487 -0.0444647 0)
(1.15034 -0.0447605 0)
(1.14573 -0.0449705 0)
(1.14106 -0.0450919 0)
(1.13633 -0.0451223 0)
(1.13155 -0.0450595 0)
(1.12674 -0.0449017 0)
(1.12191 -0.0446475 0)
(1.11705 -0.0442961 0)
(1.1122 -0.043847 0)
(1.10735 -0.0433007 0)
(1.10252 -0.042658 0)
(1.09772 -0.0419208 0)
(1.09297 -0.0410916 0)
(1.08828 -0.0401737 0)
(1.08365 -0.0391714 0)
(1.0791 -0.0380897 0)
(1.07465 -0.0369346 0)
(1.0703 -0.0357127 0)
(1.06606 -0.0344314 0)
(1.06194 -0.0330988 0)
(1.05795 -0.0317233 0)
(1.05411 -0.0303141 0)
(1.05041 -0.0288802 0)
(1.04686 -0.0274311 0)
(1.04346 -0.0259759 0)
(1.22711 -0.0208344 0)
(1.22533 -0.0221102 0)
(1.22353 -0.0233877 0)
(1.22159 -0.0246598 0)
(1.21952 -0.0259232 0)
(1.21731 -0.0271744 0)
(1.21496 -0.028409 0)
(1.21248 -0.0296227 0)
(1.20986 -0.030811 0)
(1.2071 -0.0319698 0)
(1.2042 -0.0330949 0)
(1.20116 -0.0341824 0)
(1.19799 -0.0352287 0)
(1.19468 -0.0362302 0)
(1.19125 -0.0371834 0)
(1.18769 -0.038085 0)
(1.184 -0.0389316 0)
(1.18019 -0.0397199 0)
(1.17627 -0.0404467 0)
(1.17224 -0.0411089 0)
(1.1681 -0.041703 0)
(1.16385 -0.0422261 0)
(1.15952 -0.042675 0)
(1.15509 -0.0430466 0)
(1.15058 -0.043338 0)
(1.146 -0.0435463 0)
(1.14135 -0.043669 0)
(1.13665 -0.0437037 0)
(1.13189 -0.0436481 0)
(1.1271 -0.0435006 0)
(1.12228 -0.0432597 0)
(1.11744 -0.0429246 0)
(1.1126 -0.0424949 0)
(1.10776 -0.0419709 0)
(1.10295 -0.0413535 0)
(1.09816 -0.0406444 0)
(1.09341 -0.0398459 0)
(1.08872 -0.0389614 0)
(1.0841 -0.0379948 0)
(1.07955 -0.036951 0)
(1.07509 -0.0358357 0)
(1.07074 -0.0346554 0)
(1.06649 -0.0334172 0)
(1.06237 -0.0321288 0)
(1.05838 -0.0307985 0)
(1.05452 -0.0294351 0)
(1.05081 -0.0280473 0)
(1.04725 -0.0266442 0)
(1.04384 -0.0252348 0)
(1.22665 -0.0201202 0)
(1.22489 -0.0213546 0)
(1.22311 -0.0225895 0)
(1.22119 -0.0238185 0)
(1.21914 -0.0250387 0)
(1.21695 -0.0262468 0)
(1.21464 -0.0274388 0)
(1.21218 -0.0286108 0)
(1.20959 -0.0297588 0)
(1.20686 -0.0308786 0)
(1.20399 -0.0319664 0)
(1.20098 -0.0330185 0)
(1.19784 -0.0340313 0)
(1.19457 -0.0350013 0)
(1.19117 -0.035925 0)
(1.18764 -0.0367992 0)
(1.18399 -0.0376207 0)
(1.18021 -0.0383862 0)
(1.17632 -0.0390925 0)
(1.17232 -0.0397365 0)
(1.16821 -0.040315 0)
(1.164 -0.0408251 0)
(1.15969 -0.0412635 0)
(1.15529 -0.0416273 0)
(1.15081 -0.0419137 0)
(1.14625 -0.0421199 0)
(1.14162 -0.0422434 0)
(1.13694 -0.0422818 0)
(1.13221 -0.0422329 0)
(1.12743 -0.0420952 0)
(1.12263 -0.0418672 0)
(1.11781 -0.041548 0)
(1.11298 -0.0411372 0)
(1.10816 -0.0406351 0)
(1.10335 -0.0400426 0)
(1.09857 -0.0393612 0)
(1.09383 -0.0385931 0)
(1.08915 -0.0377416 0)
(1.08453 -0.0368104 0)
(1.07998 -0.0358043 0)
(1.07552 -0.0347287 0)
(1.07117 -0.0335899 0)
(1.06692 -0.0323946 0)
(1.06279 -0.0311504 0)
(1.05879 -0.0298653 0)
(1.05492 -0.0285476 0)
(1.0512 -0.0272059 0)
(1.04763 -0.0258491 0)
(1.04421 -0.0244857 0)
(1.22619 -0.0194082 0)
(1.22445 -0.0206012 0)
(1.22268 -0.0217938 0)
(1.22079 -0.0229802 0)
(1.21876 -0.0241574 0)
(1.21659 -0.0253228 0)
(1.2143 -0.0264726 0)
(1.21187 -0.0276032 0)
(1.20931 -0.0287109 0)
(1.2066 -0.0297918 0)
(1.20377 -0.0308423 0)
(1.20079 -0.0318587 0)
(1.19769 -0.0328377 0)
(1.19445 -0.0337758 0)
(1.19108 -0.0346697 0)
(1.18758 -0.0355162 0)
(1.18396 -0.0363121 0)
(1.18021 -0.0370542 0)
(1.17635 -0.0377396 0)
(1.17238 -0.038365 0)
(1.1683 -0.0389274 0)
(1.16412 -0.0394238 0)
(1.15983 -0.0398512 0)
(1.15546 -0.0402068 0)
(1.15101 -0.0404877 0)
(1.14647 -0.0406913 0)
(1.14187 -0.0408151 0)
(1.13721 -0.0408566 0)
(1.1325 -0.0408141 0)
(1.12775 -0.0406856 0)
(1.12296 -0.04047 0)
(1.11816 -0.0401662 0)
(1.11335 -0.039774 0)
(1.10854 -0.0392934 0)
(1.10374 -0.0387254 0)
(1.09897 -0.0380713 0)
(1.09424 -0.0373334 0)
(1.08956 -0.0365146 0)
(1.08494 -0.0356186 0)
(1.08039 -0.0346499 0)
(1.07594 -0.0336138 0)
(1.07158 -0.0325162 0)
(1.06733 -0.0313638 0)
(1.06319 -0.0301637 0)
(1.05918 -0.0289237 0)
(1.05531 -0.0276518 0)
(1.05158 -0.0263563 0)
(1.04799 -0.0250457 0)
(1.04456 -0.0237284 0)
(1.22573 -0.0186982 0)
(1.22402 -0.0198499 0)
(1.22226 -0.0210004 0)
(1.22038 -0.0221443 0)
(1.21837 -0.023279 0)
(1.21623 -0.0244019 0)
(1.21396 -0.0255098 0)
(1.21156 -0.0265992 0)
(1.20902 -0.0276667 0)
(1.20634 -0.0287088 0)
(1.20353 -0.0297219 0)
(1.20059 -0.0307026 0)
(1.19751 -0.0316476 0)
(1.1943 -0.0325535 0)
(1.19096 -0.0334172 0)
(1.1875 -0.0342356 0)
(1.18391 -0.0350055 0)
(1.1802 -0.035724 0)
(1.17637 -0.0363878 0)
(1.17242 -0.0369941 0)
(1.16837 -0.0375399 0)
(1.16421 -0.0380223 0)
(1.15996 -0.0384383 0)
(1.15562 -0.0387851 0)
(1.15119 -0.03906 0)
(1.14668 -0.0392605 0)
(1.1421 -0.039384 0)
(1.13746 -0.0394284 0)
(1.13277 -0.0393916 0)
(1.12804 -0.039272 0)
(1.12327 -0.0390682 0)
(1.11849 -0.0387795 0)
(1.11369 -0.0384054 0)
(1.10889 -0.0379459 0)
(1.10411 -0.037402 0)
(1.09934 -0.0367749 0)
(1.09462 -0.0360668 0)
(1.08995 -0.0352804 0)
(1.08533 -0.0344193 0)
(1.08079 -0.0334878 0)
(1.07633 -0.032491 0)
(1.07197 -0.0314346 0)
(1.06772 -0.0303249 0)
(1.06358 -0.0291688 0)
(1.05957 -0.0279739 0)
(1.05568 -0.0267477 0)
(1.05194 -0.0254985 0)
(1.04835 -0.0242343 0)
(1.0449 -0.0229632 0)
(1.22528 -0.01799 0)
(1.22358 -0.0191005 0)
(1.22184 -0.0202089 0)
(1.21998 -0.0213106 0)
(1.21799 -0.022403 0)
(1.21587 -0.0234838 0)
(1.21362 -0.02455 0)
(1.21124 -0.0255985 0)
(1.20872 -0.026626 0)
(1.20608 -0.0276292 0)
(1.20329 -0.0286049 0)
(1.20038 -0.0295497 0)
(1.19733 -0.0304605 0)
(1.19415 -0.031334 0)
(1.19084 -0.0321673 0)
(1.1874 -0.0329573 0)
(1.18384 -0.0337008 0)
(1.18016 -0.0343951 0)
(1.17636 -0.0350371 0)
(1.17245 -0.0356239 0)
(1.16842 -0.0361527 0)
(1.1643 -0.0366205 0)
(1.16007 -0.0370245 0)
(1.15575 -0.0373621 0)
(1.15135 -0.0376306 0)
(1.14686 -0.0378275 0)
(1.14231 -0.0379503 0)
(1.13769 -0.0379969 0)
(1.13302 -0.0379655 0)
(1.12831 -0.0378543 0)
(1.12356 -0.037662 0)
(1.11879 -0.0373879 0)
(1.11401 -0.0370314 0)
(1.10923 -0.0365927 0)
(1.10445 -0.0360725 0)
(1.0997 -0.035472 0)
(1.09499 -0.0347934 0)
(1.09032 -0.0340391 0)
(1.08571 -0.0332127 0)
(1.08117 -0.0323182 0)
(1.07672 -0.0313605 0)
(1.07235 -0.030345 0)
(1.0681 -0.0292779 0)
(1.06395 -0.0281658 0)
(1.05993 -0.0270159 0)
(1.05605 -0.0258356 0)
(1.0523 -0.0246326 0)
(1.04869 -0.0234148 0)
(1.04524 -0.02219 0)
(1.22482 -0.0172837 0)
(1.22315 -0.0183528 0)
(1.22142 -0.0194193 0)
(1.21958 -0.0204789 0)
(1.2176 -0.0215292 0)
(1.2155 -0.0225681 0)
(1.21328 -0.0235928 0)
(1.21092 -0.0246005 0)
(1.20843 -0.0255881 0)
(1.2058 -0.0265526 0)
(1.20305 -0.0274908 0)
(1.20016 -0.0283997 0)
(1.19714 -0.0292761 0)
(1.19399 -0.0301171 0)
(1.1907 -0.0309196 0)
(1.1873 -0.0316808 0)
(1.18376 -0.0323978 0)
(1.18011 -0.0330675 0)
(1.17634 -0.0336872 0)
(1.17245 -0.0342541 0)
(1.16846 -0.0347654 0)
(1.16436 -0.0352182 0)
(1.16016 -0.0356099 0)
(1.15587 -0.0359378 0)
(1.15149 -0.0361994 0)
(1.14703 -0.0363922 0)
(1.1425 -0.0365139 0)
(1.1379 -0.0365624 0)
(1.13326 -0.0365358 0)
(1.12856 -0.0364325 0)
(1.12383 -0.0362514 0)
(1.11908 -0.0359914 0)
(1.11431 -0.0356522 0)
(1.10954 -0.0352338 0)
(1.10478 -0.034737 0)
(1.10004 -0.0341628 0)
(1.09534 -0.0335133 0)
(1.09067 -0.0327909 0)
(1.08607 -0.0319989 0)
(1.08154 -0.0311411 0)
(1.07708 -0.0302223 0)
(1.07272 -0.0292477 0)
(1.06846 -0.028223 0)
(1.06431 -0.0271548 0)
(1.06029 -0.0260498 0)
(1.0564 -0.0249153 0)
(1.05264 -0.0237586 0)
(1.04902 -0.0225873 0)
(1.04556 -0.021409 0)
(1.22437 -0.0165789 0)
(1.22272 -0.0176066 0)
(1.22101 -0.0186312 0)
(1.21918 -0.0196489 0)
(1.21722 -0.0206573 0)
(1.21514 -0.0216544 0)
(1.21293 -0.0226378 0)
(1.21059 -0.0236049 0)
(1.20813 -0.0245527 0)
(1.20553 -0.0254785 0)
(1.2028 -0.0263792 0)
(1.19993 -0.0272521 0)
(1.19694 -0.028094 0)
(1.19381 -0.0289023 0)
(1.19056 -0.0296739 0)
(1.18718 -0.0304061 0)
(1.18367 -0.031096 0)
(1.18005 -0.0317409 0)
(1.1763 -0.032338 0)
(1.17245 -0.0328846 0)
(1.16848 -0.0333779 0)
(1.16441 -0.0338154 0)
(1.16023 -0.0341943 0)
(1.15597 -0.0345121 0)
(1.15161 -0.0347664 0)
(1.14718 -0.0349546 0)
(1.14267 -0.0350748 0)
(1.1381 -0.0351247 0)
(1.13347 -0.0351025 0)
(1.1288 -0.0350068 0)
(1.12409 -0.0348363 0)
(1.11935 -0.03459 0)
(1.1146 -0.0342677 0)
(1.10984 -0.0338693 0)
(1.10509 -0.0333955 0)
(1.10036 -0.0328473 0)
(1.09567 -0.0322266 0)
(1.09101 -0.0315358 0)
(1.08641 -0.0307779 0)
(1.08188 -0.0299567 0)
(1.07743 -0.0290766 0)
(1.07307 -0.0281426 0)
(1.06881 -0.0271603 0)
(1.06466 -0.0261359 0)
(1.06063 -0.0250758 0)
(1.05673 -0.0239871 0)
(1.05297 -0.0228767 0)
(1.04935 -0.021752 0)
(1.04587 -0.0206202 0)
(1.22393 -0.0158755 0)
(1.22229 -0.0168618 0)
(1.2206 -0.0178445 0)
(1.21878 -0.0188203 0)
(1.21684 -0.0197868 0)
(1.21478 -0.0207424 0)
(1.21259 -0.0216846 0)
(1.21027 -0.0226112 0)
(1.20783 -0.0235193 0)
(1.20525 -0.0244064 0)
(1.20254 -0.0252698 0)
(1.1997 -0.0261065 0)
(1.19673 -0.0269139 0)
(1.19363 -0.0276892 0)
(1.1904 -0.0284297 0)
(1.18705 -0.0291326 0)
(1.18357 -0.0297953 0)
(1.17997 -0.030415 0)
(1.17626 -0.0309891 0)
(1.17243 -0.0315151 0)
(1.16848 -0.0319902 0)
(1.16444 -0.0324118 0)
(1.16029 -0.0327776 0)
(1.15605 -0.0330849 0)
(1.15172 -0.0333314 0)
(1.14731 -0.0335147 0)
(1.14282 -0.0336329 0)
(1.13827 -0.0336837 0)
(1.13367 -0.0336656 0)
(1.12901 -0.033577 0)
(1.12432 -0.0334167 0)
(1.1196 -0.0331839 0)
(1.11486 -0.0328781 0)
(1.11012 -0.0324993 0)
(1.10539 -0.0320481 0)
(1.10067 -0.0315256 0)
(1.09598 -0.0309334 0)
(1.09133 -0.0302738 0)
(1.08674 -0.0295498 0)
(1.08221 -0.0287649 0)
(1.07777 -0.0279233 0)
(1.0734 -0.0270298 0)
(1.06914 -0.0260898 0)
(1.06499 -0.0251091 0)
(1.06096 -0.0240939 0)
(1.05705 -0.0230509 0)
(1.05328 -0.021987 0)
(1.04965 -0.0209089 0)
(1.04617 -0.0198237 0)
(1.2235 -0.0151735 0)
(1.22187 -0.0161182 0)
(1.22019 -0.0170589 0)
(1.21839 -0.0179928 0)
(1.21647 -0.0189176 0)
(1.21442 -0.0198317 0)
(1.21225 -0.0207329 0)
(1.20995 -0.021619 0)
(1.20752 -0.0224876 0)
(1.20497 -0.0233361 0)
(1.20228 -0.024162 0)
(1.19947 -0.0249626 0)
(1.19652 -0.0257353 0)
(1.19345 -0.0264775 0)
(1.19024 -0.0271867 0)
(1.18692 -0.0278601 0)
(1.18346 -0.0284953 0)
(1.17989 -0.0290896 0)
(1.1762 -0.0296404 0)
(1.17239 -0.0301454 0)
(1.16848 -0.0306019 0)
(1.16446 -0.0310074 0)
(1.16033 -0.0313596 0)
(1.15612 -0.031656 0)
(1.15181 -0.0318943 0)
(1.14742 -0.0320723 0)