/*--------------------------------*- C++ -*----------------------------------*\
  =========                 |
  \\      /  F ield         | OpenFOAM: The Open Source CFD Toolbox
   \\    /   O peration     | Website:  https://openfoam.org
    \\  /    A nd           | Version:  7
     \\/     M anipulation  |
\*---------------------------------------------------------------------------*/
FoamFile
{
    version     2.0;
    format      ascii;
    class       surfaceScalarField;
    location    "5";
    object      phi;
}
// * * * * * * * * * * * * * * * * * * * * * * * * * * * * * * * * * * * * * //

dimensions      [0 3 -1 0 0 0 0];

internalField   nonuniform List<scalar> 
5134
(
0.00265292
-0.000420523
0.00264342
-0.000435511
0.0026337
-0.000450169
0.00262376
-0.000464447
0.00261364
-0.000478287
0.00260332
-0.000491633
0.00259284
-0.000504421
0.00258219
-0.000516588
0.00257141
-0.000528067
0.0025605
-0.000538788
0.00254949
-0.000548682
0.00253839
-0.000557677
0.00252722
-0.000565702
0.00251602
-0.000572684
0.00250479
-0.000578554
0.00249357
-0.000583244
0.00248239
-0.000586691
0.00247125
-0.000588836
0.00246021
-0.000589626
0.00244927
-0.000589017
0.00243846
-0.000586973
0.00242783
-0.000583468
0.00241738
-0.00057849
0.00240714
-0.000572039
0.00239715
-0.000564128
0.00238741
-0.000554785
0.00237797
-0.000544056
0.00236883
-0.000531999
0.00236001
-0.000518689
0.00235153
-0.000504212
0.0023434
-0.000488672
0.00233563
-0.000472182
0.00232824
-0.000454865
0.00232122
-0.000436851
-0.000418277
0.00277702
-0.000190988
-0.00278153
0.00277195
-0.000206151
0.00276633
-0.000221896
0.00276022
-0.000237935
0.0027537
-0.000254083
0.00274683
-0.000270231
0.00273964
-0.00028633
0.00273217
-0.000302359
0.00272442
-0.000318305
0.0027164
-0.000334157
0.00270812
-0.0003499
0.00269958
-0.000365511
0.0026908
-0.000380964
0.00268177
-0.000396223
0.0026725
-0.000411253
0.00266299
-0.000426008
0.00265327
-0.000440443
0.00264333
-0.000454506
0.00263318
-0.000468143
0.00262285
-0.000481298
0.00261233
-0.000493908
0.00260166
-0.000505913
0.00259084
-0.000517245
0.00257989
-0.000527837
0.00256882
-0.00053762
0.00255767
-0.000546525
0.00254645
-0.00055448
0.00253518
-0.000561415
0.00252389
-0.000567261
0.0025126
-0.000571952
0.00250133
-0.000575425
0.00249012
-0.000577623
0.00247898
-0.000578492
0.00246795
-0.000577988
0.00245706
-0.000576077
0.00244632
-0.000572732
0.00243577
-0.000567941
0.00242543
-0.000561702
0.00241533
-0.000554028
0.0024055
-0.000544947
0.00239594
-0.000534502
0.00238669
-0.000522748
0.00237776
-0.00050976
0.00236917
-0.000495622
0.00236093
-0.000480434
0.00235306
-0.000464307
0.00234555
-0.000447361
0.00233843
-0.000429724
-0.00041153
0.00279567
-0.000186522
-0.00280013
0.00279069
-0.000201169
0.00278519
-0.000216398
0.00277921
-0.00023196
0.00277282
-0.000247687
0.00276605
-0.000263466
0.00275895
-0.000279233
0.00275155
-0.000294955
0.00274386
-0.000310613
0.00273589
-0.000326187
0.00272765
-0.00034166
0.00271914
-0.000357007
0.00271038
-0.000372201
0.00270137
-0.000387209
0.00269211
-0.000401992
0.00268261
-0.00041651
0.00267288
-0.000430715
0.00266293
-0.000444558
0.00265278
-0.000457987
0.00264242
-0.000470945
0.00263189
-0.000483373
0.00262118
-0.000495209
0.00261033
-0.000506389
0.00259934
-0.000516846
0.00258823
-0.000526514
0.00257703
-0.000535322
0.00256575
-0.000543202
0.00255442
-0.000550085
0.00254306
-0.000555903
0.0025317
-0.00056059
0.00252036
-0.000564085
0.00250907
-0.000566329
0.00249785
-0.000567273
0.00248673
-0.000566871
0.00247574
-0.000565089
0.00246491
-0.000561901
0.00245426
-0.000557293
0.00244383
-0.000551264
0.00243362
-0.000543825
0.00242368
-0.000535004
0.00241402
-0.00052484
0.00240466
-0.00051339
0.00239562
-0.000500723
0.00238692
-0.000486923
0.00237858
-0.000472087
0.00237059
-0.000456324
0.00236298
-0.00043975
0.00235575
-0.000422492
-0.000404679
0.00281438
-0.000182093
-0.0028188
0.00280947
-0.000196265
0.00280408
-0.000211005
0.00279822
-0.000226102
0.00279194
-0.000241406
0.00278528
-0.000256804
0.00277827
-0.000272225
0.00277094
-0.000287628
0.00276331
-0.000302984
0.0027554
-0.000318269
0.0027472
-0.000333462
0.00273873
-0.000348537
0.00272999
-0.000363466
0.002721
-0.000378214
0.00271175
-0.000392746
0.00270226
-0.000407019
0.00269254
-0.000420989
0.00268258
-0.000434607
0.00267242
-0.000447821
0.00266205
-0.000460577
0.00265149
-0.000472816
0.00264076
-0.000484479
0.00262988
-0.000495501
0.00261885
-0.000505819
0.0026077
-0.000515365
0.00259645
-0.000524072
0.00258512
-0.000531873
0.00257373
-0.000538698
0.00256231
-0.000544482
0.00255088
-0.00054916
0.00253947
-0.000552671
0.0025281
-0.000554959
0.0025168
-0.000555973
0.0025056
-0.000555669
0.00249452
-0.000554012
0.0024836
-0.000550977
0.00247285
-0.000546549
0.00246232
-0.000540727
0.00245201
-0.000533521
0.00244197
-0.000524957
0.0024322
-0.000515073
0.00242273
-0.000503924
0.00241359
-0.000491578
0.00240478
-0.000478116
0.00239633
-0.000463632
0.00238824
-0.000448233
0.00238052
-0.000432032
0.00237318
-0.000415153
-0.000397724
0.00283315
-0.000177696
-0.00283755
0.00282831
-0.000191427
0.00282301
-0.000205704
0.00281726
-0.000220349
0.00281108
-0.000235231
0.00280452
-0.000250241
0.0027976
-0.000265306
0.00279035
-0.000280378
0.00278279
-0.00029542
0.00277493
-0.000310407
0.00276677
-0.000325311
0.00275834
-0.000340105
0.00274964
-0.00035476
0.00274067
-0.000369243
0.00273144
-0.000383516
0.00272196
-0.000397539
0.00271223
-0.000411268
0.00270228
-0.000424655
0.00269211
-0.000437649
0.00268173
-0.000450197
0.00267116
-0.000462243
0.0026604
-0.000473726
0.00264949
-0.000484586
0.00263843
-0.000494758
0.00262724
-0.000504177
0.00261595
-0.000512778
0.00260457
-0.000520493
0.00259312
-0.000527256
0.00258164
-0.000533001
0.00257015
-0.000537665
0.00255867
-0.000541189
0.00254722
-0.000543515
0.00253584
-0.000544595
0.00252456
-0.000544384
0.00251339
-0.000542849
0.00250238
-0.000539963
0.00249154
-0.000535712
0.00248091
-0.000530093
0.0024705
-0.000523117
0.00246036
-0.000514808
0.00245049
-0.000505203
0.00244091
-0.000494354
0.00243166
-0.000482327
0.00242275
-0.000469202
0.00241419
-0.00045507
0.00240599
-0.000440035
0.00239817
-0.000424208
0.00239072
-0.00040771
-0.000390665
0.002852
-0.000173327
-0.00285637
0.00284722
-0.000186644
0.002842
-0.000200482
0.00283634
-0.000214689
0.00283026
-0.000229153
0.00282379
-0.000243772
0.00281696
-0.000258473
0.00280978
-0.000273204
0.00280229
-0.000287924
0.00279448
-0.000302601
0.00278638
-0.000317207
0.00277799
-0.000331713
0.00276931
-0.000346088
0.00276037
-0.000360298
0.00275116
-0.000374306
0.00274169
-0.000388073
0.00273198
-0.000401554
0.00272203
-0.000414704
0.00271185
-0.000427473
0.00270146
-0.000439809
0.00269088
-0.000451655
0.0026801
-0.000462953
0.00266916
-0.000473644
0.00265807
-0.000483666
0.00264685
-0.000492953
0.00263551
-0.000501442
0.00262408
-0.000509067
0.00261259
-0.000515762
0.00260105
-0.000521463
0.00258949
-0.000526108
0.00257794
-0.000529639
0.00256643
-0.000531999
0.00255497
-0.00053314
0.00254361
-0.000533018
0.00253236
-0.0005316
0.00252126
-0.00052886
0.00251033
-0.000524782
0.0024996
-0.000519365
0.0024891
-0.000512616
0.00247885
-0.000504559
0.00246888
-0.00049523
0.0024592
-0.000484679
0.00244984
-0.000472971
0.00244083
-0.000460182
0.00243216
-0.000446403
0.00242385
-0.000431732
0.00241592
-0.000416279
0.00240838
-0.000400163
-0.000383504
0.00287093
-0.000168983
-0.00287527
0.00286619
-0.000181909
0.00286104
-0.000195329
0.00285546
-0.000209112
0.00284947
-0.000223163
0.00284309
-0.000237391
0.00283634
-0.000251723
0.00282925
-0.000266105
0.00282182
-0.000280494
0.00281407
-0.000294854
0.00280601
-0.000309154
0.00279767
-0.000323363
0.00278903
-0.00033745
0.00278011
-0.000351381
0.00277092
-0.000365118
0.00276147
-0.000378622
0.00275177
-0.000391851
0.00274182
-0.000404759
0.00273165
-0.000417297
0.00272125
-0.000429413
0.00271065
-0.000441054
0.00269986
-0.000452163
0.0026889
-0.00046268
0.00267778
-0.000472545
0.00266652
-0.000481696
0.00265514
-0.000490067
0.00264367
-0.000497596
0.00263213
-0.000504218
0.00262054
-0.00050987
0.00260892
-0.000514491
0.00259731
-0.000518024
0.00258572
-0.000520413
0.00257419
-0.000521611
0.00256275
-0.000521574
0.00255142
-0.000520269
0.00254023
-0.000517671
0.00252921
-0.000513763
0.00251839
-0.000508543
0.00250779
-0.000502018
0.00249744
-0.000494211
0.00248737
-0.000485157
0.00247759
-0.000474903
0.00246813
-0.000463512
0.00245901
-0.000451058
0.00245024
-0.00043763
0.00244183
-0.000423323
0.00243379
-0.000408246
0.00242614
-0.000392512
-0.00037624
0.00288994
-0.000164662
-0.00289426
0.00288524
-0.000177216
0.00288015
-0.000190236
0.00287465
-0.000203608
0.00286874
-0.000217254
0.00286244
-0.000231092
0.00285577
-0.000245052
0.00284874
-0.00025908
0.00284138
-0.00027313
0.00283369
-0.000287165
0.00282569
-0.000301152
0.00281738
-0.000315058
0.00280878
-0.00032885
0.0027999
-0.000342495
0.00279073
-0.000355955
0.0027813
-0.000369191
0.00277161
-0.000382161
0.00276167
-0.00039482
0.0027515
-0.000407122
0.0027411
-0.000419014
0.00273049
-0.000430445
0.00271968
-0.000441358
0.0027087
-0.000451696
0.00269755
-0.000461399
0.00268626
-0.000470407
0.00267485
-0.000478655
0.00266334
-0.000486083
0.00265175
-0.000492627
0.0026401
-0.000498225
0.00262843
-0.000502817
0.00261675
-0.000506347
0.0026051
-0.000508761
0.0025935
-0.00051001
0.00258198
-0.000510054
0.00257057
-0.000508858
0.00255929
-0.000506397
0.00254819
-0.000502656
0.00253727
-0.00049763
0.00252658
-0.000491327
0.00251614
-0.000483767
0.00250596
-0.000474984
0.00249609
-0.000465025
0.00248653
-0.00045395
0.0024773
-0.000441831
0.00246842
-0.000428753
0.00245991
-0.000414811
0.00245177
-0.000400109
0.00244402
-0.000384758
-0.000368875
0.00290903
-0.000160363
-0.00291333
0.00290437
-0.00017256
0.00289933
-0.000185194
0.00289389
-0.000198169
0.00288806
-0.000211418
0.00288183
-0.000224869
0.00287524
-0.000238455
0.00286828
-0.000252124
0.00286098
-0.00026583
0.00285335
-0.000279534
0.0028454
-0.000293201
0.00283714
-0.000306797
0.00282858
-0.000320288
0.00281972
-0.00033364
0.00281059
-0.000346817
0.00280117
-0.000359779
0.0027915
-0.000372485
0.00278157
-0.000384891
0.0027714
-0.00039695
0.002761
-0.000408613
0.00275038
-0.000419827
0.00273956
-0.00043054
0.00272856
-0.000440693
0.00271739
-0.00045023
0.00270607
-0.000459089
0.00269463
-0.00046721
0.00268307
-0.000474531
0.00267144
-0.000480991
0.00265974
-0.00048653
0.00264801
-0.000491088
0.00263628
-0.00049461
0.00262456
-0.000497043
0.00261289
-0.000498341
0.0026013
-0.00049846
0.00258981
-0.000497369
0.00257845
-0.000495042
0.00256726
-0.000491463
0.00255626
-0.000486628
0.00254547
-0.000480543
0.00253493
-0.000473228
0.00252466
-0.000464714
0.00251469
-0.000455048
0.00250502
-0.000444287
0.0024957
-0.000432502
0.00248672
-0.000419774
0.0024781
-0.000406196
0.00246986
-0.000391869
0.00246201
-0.000376902
-0.000361409
0.00292821
-0.000156084
-0.00293249
0.00292359
-0.000167935
0.00291859
-0.000180199
0.00291321
-0.000192788
0.00290744
-0.000205648
0.00290129
-0.000218715
0.00289476
-0.000231928
0.00288787
-0.000245236
0.00288063
-0.000258593
0.00287306
-0.00027196
0.00286516
-0.000285301
0.00285694
-0.000298581
0.00284842
-0.000311765
0.0028396
-0.00032482
0.00283049
-0.000337707
0.0028211
-0.000350389
0.00281144
-0.000362825
0.00280152
-0.000374972
0.00279136
-0.000386784
0.00278096
-0.000398211
0.00277033
-0.000409205
0.0027595
-0.000419711
0.00274849
-0.000429675
0.0027373
-0.000439039
0.00272595
-0.000447744
0.00271447
-0.000455732
0.00270288
-0.000462942
0.00269121
-0.000469314
0.00267946
-0.000474788
0.00266768
-0.000479307
0.00265589
-0.000482816
0.00264411
-0.000485264
0.00263237
-0.000486604
0.00262071
-0.000486795
0.00260914
-0.000485804
0.00259771
-0.000483607
0.00258643
-0.000480186
0.00257534
-0.000475538
0.00256446
-0.000469668
0.00255383
-0.000462595
0.00254347
-0.000454349
0.00253339
-0.000444973
0.00252363
-0.000434525
0.0025142
-0.000423072
0.00250512
-0.000410693
0.0024964
-0.000397479
0.00248806
-0.000383528
0.0024801
-0.000368945
-0.000353842
0.00294749
-0.000151824
-0.00295175
0.00294289
-0.00016334
0.00293794
-0.000175244
0.00293261
-0.000187457
0.00292689
-0.000199936
0.0029208
-0.000212624
0.00291434
-0.000225465
0.00290752
-0.000238411
0.00290034
-0.000251416
0.00289282
-0.000264442
0.00288497
-0.000277452
0.0028768
-0.00029041
0.00286832
-0.000303282
0.00285953
-0.000316033
0.00285045
-0.000328626
0.00284108
-0.000341023
0.00283144
-0.000353184
0.00282153
-0.000365066
0.00281137
-0.000376624
0.00280097
-0.000387812
0.00279035
-0.000398579
0.00277951
-0.000408874
0.00276848
-0.000418642
0.00275727
-0.000427829
0.0027459
-0.000436376
0.00273439
-0.000444225
0.00272277
-0.000451318
0.00271105
-0.000457596
0.00269926
-0.000463
0.00268743
-0.000467475
0.00267558
-0.000470966
0.00266374
-0.000473424
0.00265194
-0.000474802
0.00264021
-0.00047506
0.00262857
-0.000474165
0.00261705
-0.000472093
0.00260569
-0.000468828
0.00259452
-0.000464363
0.00258356
-0.000458705
0.00257283
-0.00045187
0.00256237
-0.000443889
0.0025522
-0.000434802
0.00254234
-0.000424665
0.00253281
-0.000413542
0.00252363
-0.000401512
0.00251481
-0.000388661
0.00250637
-0.000375086
0.00249831
-0.000360888
-0.000346177
0.00296686
-0.000147582
-0.0029711
0.00296229
-0.000158771
0.00295737
-0.000170324
0.00295208
-0.000182172
0.00294643
-0.000194277
0.00294039
-0.00020659
0.00293399
-0.000219062
0.00292722
-0.000231644
0.0029201
-0.000244296
0.00291264
-0.000256978
0.00290484
-0.000269652
0.00289671
-0.000282283
0.00288827
-0.000294838
0.00287952
-0.00030728
0.00287046
-0.000319573
0.00286112
-0.00033168
0.0028515
-0.00034356
0.0028416
-0.000355173
0.00283145
-0.000366474
0.00282106
-0.000377416
0.00281043
-0.000387952
0.00279959
-0.00039803
0.00278854
-0.000407598
0.00277731
-0.000416601
0.00276592
-0.000424984
0.00275439
-0.00043269
0.00274273
-0.000439661
0.00273097
-0.00044584
0.00271914
-0.000451169
0.00270726
-0.000455595
0.00269536
-0.000459064
0.00268346
-0.000461526
0.0026716
-0.000462937
0.00265979
-0.000463257
0.00264808
-0.000462455
0.00263649
-0.000460504
0.00262506
-0.000457389
0.0026138
-0.000453105
0.00260275
-0.000447655
0.00259193
-0.000441056
0.00258138
-0.000433336
0.00257111
-0.000424536
0.00256116
-0.000414708
0.00255153
-0.000403915
0.00254225
-0.000392232
0.00253333
-0.000379744
0.00252479
-0.000366544
0.00251663
-0.000352731
-0.000338412
0.00298633
-0.000143358
-0.00299055
0.00298178
-0.000154226
0.0029769
-0.000165437
0.00297165
-0.000176927
0.00296604
-0.000188666
0.00296006
-0.000200609
0.00295371
-0.000212713
0.002947
-0.000224933
0.00293993
-0.00023723
0.00293252
-0.000249564
0.00292477
-0.000261899
0.00291668
-0.0002742
0.00290828
-0.000286433
0.00289956
-0.000298561
0.00289054
-0.00031055
0.00288122
-0.000322362
0.00287162
-0.000333957
0.00286174
-0.000345295
0.0028516
-0.000356333
0.0028412
-0.000367025
0.00283058
-0.000377324
0.00281973
-0.00038718
0.00280867
-0.000396543
0.00279743
-0.000405358
0.00278602
-0.000413572
0.00277446
-0.000421129
0.00276277
-0.000427973
0.00275098
-0.000434047
0.0027391
-0.000439297
0.00272718
-0.000443668
0.00271522
-0.000447109
0.00270327
-0.000449572
0.00269134
-0.000451011
0.00267947
-0.000451389
0.00266769
-0.000450674
0.00265603
-0.00044884
0.00264451
-0.000445872
0.00263317
-0.000441764
0.00262204
-0.000436519
0.00261113
-0.000430153
0.00260049
-0.000422693
0.00259013
-0.000414177
0.00258008
-0.000404655
0.00257035
-0.00039419
0.00256098
-0.000382854
0.00255196
-0.000370728
0.00254332
-0.000357903
0.00253506
-0.000344476
-0.00033055
0.0030059
-0.00013915
-0.00301011
0.00300138
-0.000149704
0.00299652
-0.000160579
0.00299131
-0.000171718
0.00298574
-0.000183096
0.00297981
-0.000194675
0.00297351
-0.000206414
0.00296685
-0.000218273
0.00295983
-0.000230214
0.00295247
-0.000242199
0.00294476
-0.000254192
0.00293672
-0.000266159
0.00292835
-0.000278066
0.00291967
-0.000289877
0.00291068
-0.000301556
0.00290138
-0.000313068
0.0028918
-0.000324373
0.00288194
-0.000335432
0.00287181
-0.000346202
0.00286142
-0.000356639
0.00285079
-0.000366696
0.00283994
-0.000376326
0.00282887
-0.000385478
0.00281762
-0.000394101
0.00280619
-0.000402141
0.0027946
-0.000409544
0.00278288
-0.000416255
0.00277106
-0.000422221
0.00275914
-0.000427386
0.00274717
-0.000431697
0.00273517
-0.000435106
0.00272316
-0.000437563
0.00271118
-0.000439026
0.00269924
-0.000439458
0.0026874
-0.000438825
0.00267566
-0.000437104
0.00266407
-0.000434279
0.00265265
-0.000430343
0.00264143
-0.0004253
0.00263044
-0.000419164
0.0026197
-0.00041196
0.00260925
-0.000403725
0.00259911
-0.000394509
0.00258929
-0.00038437
0.00257981
-0.000373379
0.0025707
-0.000361614
0.00256196
-0.000349164
0.00255361
-0.000336123
-0.00032259
0.00302559
-0.000134959
-0.00302978
0.00302108
-0.000145201
0.00301625
-0.000155746
0.00301107
-0.000166541
0.00300554
-0.000177565
0.00299965
-0.000188783
0.0029934
-0.000200161
0.00298678
-0.00021166
0.00297981
-0.000223245
0.00297249
-0.000234879
0.00296483
-0.000246529
0.00295683
-0.000258159
0.0029485
-0.000269736
0.00293985
-0.000281225
0.00293088
-0.000292591
0.00292161
-0.000303799
0.00291205
-0.00031481
0.0029022
-0.000325585
0.00289208
-0.000336082
0.0028817
-0.000346259
0.00287108
-0.000356071
0.00286022
-0.000365469
0.00284915
-0.000374406
0.00283788
-0.00038283
0.00282643
-0.000390691
0.00281482
-0.000397936
0.00280308
-0.00040451
0.00279122
-0.000410361
0.00277927
-0.000415436
0.00276725
-0.000419684
0.0027552
-0.000423054
0.00274314
-0.000425502
0.0027311
-0.000426984
0.00271911
-0.000427464
0.00270719
-0.00042691
0.00269538
-0.000425298
0.00268372
-0.000422611
0.00267222
-0.000418844
0.00266092
-0.000413999
0.00264984
-0.000408089
0.00263902
-0.000401138
0.00262848
-0.000393183
0.00261824
-0.00038427
0.00260832
-0.000374455
0.00259875
-0.000363808
0.00258954
-0.000352404
0.00258071
-0.000340329
0.00257226
-0.000327673
-0.000314534
0.00304538
-0.000130783
-0.00304955
0.00304089
-0.000140717
0.00303609
-0.000150936
0.00303094
-0.000161393
0.00302544
-0.000172067
0.00301959
-0.000182929
0.00301337
-0.000193948
0.0030068
-0.00020509
0.00299988
-0.000216319
0.0029926
-0.000227602
0.00298498
-0.000238906
0.00297702
-0.000250197
0.00296872
-0.000261441
0.0029601
-0.000272605
0.00295116
-0.000283655
0.00294192
-0.000294554
0.00293238
-0.000305267
0.00292254
-0.000315753
0.00291244
-0.000325974
0.00290206
-0.000335887
0.00289144
-0.000345447
0.00288058
-0.00035461
0.0028695
-0.000363326
0.00285822
-0.000371548
0.00284675
-0.000379225
0.00283512
-0.000386306
0.00282335
-0.000392738
0.00281146
-0.00039847
0.00279947
-0.00040345
0.00278742
-0.000407629
0.00277532
-0.000410957
0.00276321
-0.00041339
0.00275111
-0.000414887
0.00273906
-0.00041541
0.00272708
-0.00041493
0.0027152
-0.000413422
0.00270346
-0.000410871
0.00269189
-0.000407268
0.00268051
-0.000402617
0.00266935
-0.00039693
0.00265844
-0.000390231
0.00264781
-0.000382552
0.00263748
-0.000373939
0.00262747
-0.000364448
0.00261781
-0.000354143
0.0026085
-0.000343099
0.00259957
-0.000331398
0.00259102
-0.000319128
-0.000306383
0.00306529
-0.000126622
-0.00306945
0.00306082
-0.000136251
0.00305603
-0.000146148
0.00305091
-0.00015627
0.00304544
-0.000166599
0.00303962
-0.00017711
0.00303345
-0.000187773
0.00302692
-0.000198558
0.00302003
-0.000209433
0.00301279
-0.000220365
0.00300521
-0.000231321
0.00299728
-0.00024227
0.00298902
-0.00025318
0.00298043
-0.000264016
0.00297152
-0.000274745
0.0029623
-0.000285333
0.00295278
-0.000295743
0.00294296
-0.000305938
0.00293286
-0.000315877
0.0029225
-0.000325521
0.00291188
-0.000334827
0.00290102
-0.000343748
0.00288993
-0.00035224
0.00287864
-0.000360255
0.00286716
-0.000367744
0.00285551
-0.000374656
0.00284371
-0.000380941
0.00283179
-0.000386549
0.00281977
-0.00039143
0.00280767
-0.000395534
0.00279553
-0.000398815
0.00278337
-0.000401229
0.00277122
-0.000402735
0.0027591
-0.000403298
0.00274706
-0.000402887
0.00273512
-0.000401479
0.00272331
-0.000399058
0.00271165
-0.000395617
0.00270019
-0.000391157
0.00268895
-0.00038569
0.00267796
-0.000379238
0.00266724
-0.000371833
0.00265682
-0.000363519
0.00264672
-0.000354349
0.00263696
-0.000344385
0.00262756
-0.000333699
0.00261854
-0.000322372
0.0026099
-0.000310487
-0.000298137
0.00308531
-0.000122474
-0.00308946
0.00308086
-0.0001318
0.00307609
-0.000141379
0.00307099
-0.00015117
0.00306555
-0.000161158
0.00305976
-0.000171321
0.00305362
-0.000181632
0.00304713
-0.000192062
0.00304028
-0.000202583
0.00303308
-0.000213163
0.00302553
-0.000223772
0.00301763
-0.000234378
0.0030094
-0.00024495
0.00300084
-0.000255456
0.00299196
-0.000265862
0.00298276
-0.000276134
0.00297326
-0.000286238
0.00296346
-0.000296137
0.00295337
-0.000305792
0.00294301
-0.000315163
0.0029324
-0.000324209
0.00292153
-0.000332886
0.00291044
-0.000341149
0.00289914
-0.000348952
0.00288764
-0.000356247
0.00287597
-0.000362986
0.00286415
-0.00036912
0.0028522
-0.000374599
0.00284015
-0.000379375
0.00282801
-0.0003834
0.00281583
-0.00038663
0.00280362
-0.000389019
0.00279141
-0.000390531
0.00277924
-0.000391128
0.00276714
-0.000390782
0.00275513
-0.00038947
0.00274325
-0.000387176
0.00273152
-0.000383892
0.00271998
-0.000379619
0.00270866
-0.000374369
0.00269759
-0.000368161
0.00268678
-0.000361028
0.00267627
-0.00035301
0.00266608
-0.000344159
0.00265623
-0.000334535
0.00264674
-0.000324207
0.00263762
-0.000313252
0.00262888
-0.000301753
-0.000289798
0.00310546
-0.000118341
-0.0031096
0.00310103
-0.000127365
0.00309628
-0.000136627
0.0030912
-0.000146091
0.00308578
-0.000155741
0.00308002
-0.000165558
0.0030739
-0.00017552
0.00306744
-0.000185598
0.00306062
-0.000195766
0.00305346
-0.000205995
0.00304594
-0.000216256
0.00303808
-0.000226517
0.00302988
-0.00023675
0.00302134
-0.000246923
0.00301249
-0.000257003
0.00300331
-0.000266957
0.00299382
-0.000276752
0.00298404
-0.000286351
0.00297396
-0.000295717
0.00296361
-0.000304812
0.002953
-0.000313594
0.00294213
-0.000322022
0.00293103
-0.000330052
0.00291972
-0.000337638
0.00290821
-0.000344736
0.00289652
-0.000351297
0.00288468
-0.000357275
0.0028727
-0.000362621
0.00286061
-0.000367287
0.00284844
-0.000371229
0.00283621
-0.000374402
0.00282396
-0.000376763
0.0028117
-0.000378275
0.00279947
-0.000378902
0.00278731
-0.000378617
0.00277524
-0.000377397
0.00276329
-0.000375225
0.00275149
-0.000372094
0.00273987
-0.000368005
0.00272847
-0.000362968
0.00271731
-0.000357002
0.00270642
-0.000350137
0.00269583
-0.000342413
0.00268555
-0.000333879
0.00267561
-0.000324593
0.00266602
-0.000314622
0.00265681
-0.00030404
0.00264798
-0.000292926
-0.000281365
0.00312574
-0.00011422
-0.00312986
0.00312132
-0.000122943
0.00311658
-0.000131891
0.00311152
-0.000141029
0.00310612
-0.000150345
0.00310039
-0.00015982
0.0030943
-0.000169434
0.00308786
-0.000179162
0.00308108
-0.000188979
0.00307394
-0.000198857
0.00306645
-0.000208769
0.00305862
-0.000218685
0.00305045
-0.000228577
0.00304194
-0.000238415
0.0030331
-0.000248166
0.00302395
-0.0002578
0.00301448
-0.000267283
0.0030047
-0.000276579
0.00299464
-0.000285653
0.00298429
-0.000294467
0.00297368
-0.000302982
0.00296282
-0.000311157
0.00295171
-0.000318949
0.00294039
-0.000326315
0.00292887
-0.000333211
0.00291716
-0.00033959
0.00290529
-0.000345407
0.00289329
-0.000350615
0.00288117
-0.000355168
0.00286896
-0.000359022
0.00285669
-0.000362133
0.00284439
-0.000364461
0.00283208
-0.000365969
0.0028198
-0.000366622
0.00280758
-0.000366393
0.00279544
-0.00036526
0.00278342
-0.000363207
0.00277155
-0.000360225
0.00275986
-0.000356316
0.00274839
-0.000351489
0.00273715
-0.000345762
0.00272617
-0.000339163
0.00271549
-0.000331731
0.00270512
-0.000323512
0.00269509
-0.000314562
0.00268541
-0.000304947
0.00267611
-0.000294736
0.00266719
-0.000284007
-0.000272841
0.00314615
-0.000110111
-0.00315025
0.00314174
-0.000118534
0.00313701
-0.000127169
0.00313197
-0.000135984
0.00312659
-0.000144967
0.00312087
-0.000154103
0.00311481
-0.000163372
0.0031084
-0.000172751
0.00310164
-0.000182218
0.00309453
-0.000191745
0.00308707
-0.000201308
0.00307926
-0.000210879
0.00307111
-0.000220429
0.00306263
-0.00022993
0.00305381
-0.000239351
0.00304468
-0.000248662
0.00303522
-0.000257829
0.00302546
-0.000266819
0.00301541
-0.000275598
0.00300507
-0.000284128
0.00299446
-0.000292372
0.00298359
-0.00030029
0.00297248
-0.000307841
0.00296115
-0.000314983
0.00294961
-0.000321672
0.00293789
-0.000327865
0.002926
-0.000333517
0.00291396
-0.000338582
0.00290181
-0.000343017
0.00288957
-0.000346778
0.00287726
-0.000349824
0.00286491
-0.000352114
0.00285256
-0.000353613
0.00284022
-0.000354288
0.00282794
-0.000354111
0.00281574
-0.000353061
0.00280366
-0.000351122
0.00279172
-0.000348286
0.00277996
-0.000344554
0.0027684
-0.000339933
0.00275708
-0.000334441
0.00274602
-0.000328106
0.00273526
-0.000320963
0.0027248
-0.000313057
0.00271468
-0.000304443
0.00270492
-0.000295181
0.00269552
-0.000285341
0.00268651
-0.000274996
-0.000264226
0.00316669
-0.000106013
-0.00317078
0.00316229
-0.000114137
0.00315758
-0.000122459
0.00315255
-0.000130953
0.00314719
-0.000139606
0.00314149
-0.000148404
0.00313545
-0.00015733
0.00312906
-0.000166362
0.00312232
-0.000175479
0.00311523
-0.000184658
0.0031078
-0.000193872
0.00310001
-0.000203096
0.00309189
-0.000212304
0.00308342
-0.000221466
0.00307463
-0.000230555
0.00306551
-0.00023954
0.00305607
-0.000248389
0.00304632
-0.000257071
0.00303627
-0.000265551
0.00302594
-0.000273794
0.00301533
-0.000281764
0.00300446
-0.000289421
0.00299335
-0.000296727
0.002982
-0.00030364
0.00297045
-0.000310119
0.00295871
-0.000316122
0.00294679
-0.000321604
0.00293473
-0.000326523
0.00292255
-0.000330835
0.00291027
-0.000334499
0.00289793
-0.000337475
0.00288553
-0.000339723
0.00287313
-0.000341209
0.00286074
-0.000341901
0.0028484
-0.000341772
0.00283614
-0.000340801
0.00282399
-0.000338972
0.00281199
-0.000336278
0.00280015
-0.000332719
0.00278852
-0.000328301
0.00277712
-0.000323042
0.00276598
-0.000316967
0.00275513
-0.000310111
0.00274459
-0.000302516
0.00273438
-0.000294235
0.00272453
-0.000285326
0.00271504
-0.000275856
0.00270594
-0.000265896
-0.000255521
0.00318737
-0.000101926
-0.00319145
0.00318298
-0.00010975
0.00317828
-0.000117761
0.00317326
-0.000125935
0.00316792
-0.000134259
0.00316223
-0.000142721
0.00315621
-0.000151305
0.00314984
-0.000159992
0.00314312
-0.000168762
0.00313605
-0.000177591
0.00312864
-0.000186457
0.00312088
-0.000195334
0.00311277
-0.000204198
0.00310433
-0.000213021
0.00309555
-0.000221776
0.00308644
-0.000230433
0.00307701
-0.000238962
0.00306727
-0.000247333
0.00305723
-0.000255511
0.0030469
-0.000263464
0.0030363
-0.000271156
0.00302542
-0.000278549
0.0030143
-0.000285606
0.00300295
-0.000292287
0.00299138
-0.000298552
0.00297962
-0.00030436
0.00296769
-0.000309669
0.0029556
-0.000314437
0.00294339
-0.000318623
0.00293107
-0.000322186
0.00291869
-0.000325086
0.00290625
-0.000327288
0.0028938
-0.000328757
0.00288136
-0.000329461
0.00286896
-0.000329376
0.00285664
-0.00032848
0.00284443
-0.000326758
0.00283235
-0.000324202
0.00282045
-0.000320812
0.00280874
-0.000316594
0.00279726
-0.000311565
0.00278604
-0.000305748
0.00277511
-0.000299176
0.00276448
-0.00029189
0.00275419
-0.000283941
0.00274425
-0.000275384
0.00273467
-0.000266283
0.00272548
-0.000256706
-0.000246727
0.00320819
-9.78487e-05
-0.00321227
0.00320381
-0.000105373
0.00319912
-0.000113073
0.00319412
-0.000120928
0.00318878
-0.000128924
0.00318311
-0.000137052
0.0031771
-0.000145296
0.00317075
-0.000153639
0.00316405
-0.000162061
0.003157
-0.000170542
0.0031496
-0.000179059
0.00314186
-0.00018759
0.00313377
-0.000196109
0.00312534
-0.000204592
0.00311657
-0.000213011
0.00310748
-0.000221338
0.00309806
-0.000229546
0.00308833
-0.000237602
0.0030783
-0.000245477
0.00306797
-0.000253137
0.00305736
-0.000260547
0.00304649
-0.000267673
0.00303536
-0.000274478
0.00302399
-0.000280924
0.00301241
-0.000286971
0.00300063
-0.00029258
0.00298868
-0.000297712
0.00297656
-0.000302325
0.00296432
-0.000306379
0.00295197
-0.000309837
0.00293954
-0.000312659
0.00292707
-0.00031481
0.00291457
-0.000316257
0.00290208
-0.00031697
0.00288962
-0.000316925
0.00287724
-0.0003161
0.00286497
-0.000314481
0.00285282
-0.000312059
0.00284085
-0.000308835
0.00282906
-0.000304814
0.00281751
-0.000300011
0.00280621
-0.000294449
0.00279519
-0.000288159
0.00278448
-0.000281181
0.0027741
-0.000273561
0.00276407
-0.000265355
0.00275441
-0.000256622
0.00274514
-0.000247428
-0.000237844
0.00322916
-9.37801e-05
-0.00323322
0.00322479
-0.000101004
0.00322011
-0.000108394
0.00321511
-0.000115929
0.00320979
-0.0001236
0.00320413
-0.000131394
0.00319813
-0.000139299
0.00319179
-0.000147299
0.0031851
-0.000155375
0.00317807
-0.000163508
0.00317069
-0.000171677
0.00316296
-0.000179861
0.00315489
-0.000188035
0.00314647
-0.000196176
0.00313772
-0.000204258
0.00312863
-0.000212254
0.00311923
-0.000220137
0.0031095
-0.000227878
0.00309947
-0.000235446
0.00308914
-0.00024281
0.00307853
-0.000249937
0.00306765
-0.000256793
0.00305652
-0.000263342
0.00304514
-0.000269548
0.00303354
-0.000275374
0.00302175
-0.000280781
0.00300976
-0.000285731
0.00299763
-0.000290185
0.00298535
-0.000294105
0.00297297
-0.000297453
0.0029605
-0.000300192
0.00294798
-0.000302289
0.00293543
-0.00030371
0.00292289
-0.000304428
0.00291038
-0.000304418
0.00289795
-0.00030366
0.0028856
-0.00030214
0.00287339
-0.000299849
0.00286135
-0.000296787
0.00284949
-0.00029296
0.00283786
-0.00028838
0.00282648
-0.000283071
0.00281539
-0.00027706
0.00280459
-0.000270387
0.00279413
-0.000263096
0.00278401
-0.000255239
0.00277426
-0.000246873
0.0027649
-0.000238063
-0.000228873
0.00325028
-8.97193e-05
-0.00325434
0.00324591
-9.66431e-05
0.00324124
-0.000103721
0.00323625
-0.000110939
0.00323094
-0.000118283
0.00322529
-0.000125746
0.0032193
-0.000133313
0.00321297
-0.00014097
0.0032063
-0.000148701
0.00319928
-0.000156486
0.00319191
-0.000164308
0.00318419
-0.000172144
0.00317613
-0.000179973
0.00316772
-0.000187771
0.00315898
-0.000195515
0.0031499
-0.000203179
0.0031405
-0.000210736
0.00313078
-0.000218158
0.00312075
-0.000225418
0.00311043
-0.000232483
0.00309981