/*--------------------------------*- C++ -*----------------------------------*\
  =========                 |
  \\      /  F ield         | OpenFOAM: The Open Source CFD Toolbox
   \\    /   O peration     | Website:  https://openfoam.org
    \\  /    A nd           | Version:  7
     \\/     M anipulation  |
\*---------------------------------------------------------------------------*/
FoamFile
{
    version     2.0;
    format      ascii;
    class       volScalarField;
    location    "10";
    object      p;
}
// * * * * * * * * * * * * * * * * * * * * * * * * * * * * * * * * * * * * * //

dimensions      [0 2 -2 0 0 0 0];

internalField   nonuniform List<scalar> 
21000
(
-0.172787
-0.154745
-0.141936
-0.123446
-0.117244
-0.0962445
-0.172843
-0.15479
-0.142007
-0.123457
-0.11739
-0.0960875
-0.172954
-0.154879
-0.142149
-0.123481
-0.117678
-0.0957778
-0.173121
-0.155013
-0.14236
-0.123518
-0.118104
-0.0953235
-0.173341
-0.155191
-0.142638
-0.123569
-0.11866
-0.0947366
-0.173613
-0.155412
-0.142979
-0.123637
-0.119334
-0.0940326
-0.173935
-0.155675
-0.14338
-0.123723
-0.120116
-0.0932301
-0.174304
-0.155979
-0.143836
-0.123829
-0.120991
-0.0923502
-0.174718
-0.156322
-0.144342
-0.123958
-0.121943
-0.0914163
-0.156702
-0.144892
-0.124112
-0.122955
-0.0904532
-0.157118
-0.145481
-0.124293
-0.12401
-0.0894863
-0.157566
-0.146101
-0.124505
-0.12509
-0.0885416
-0.158045
-0.146745
-0.124747
-0.126178
-0.0876441
-0.15855
-0.147406
-0.125022
-0.127255
-0.0868181
-0.159079
-0.148077
-0.12533
-0.128307
-0.0860856
-0.159626
-0.148749
-0.125671
-0.129315
-0.0854666
-0.160189
-0.149416
-0.126043
-0.130268
-0.0849779
-0.16076
-0.150069
-0.126444
-0.13115
-0.0846329
-0.161336
-0.1507
-0.126873
-0.13195
-0.0844416
-0.16191
-0.151302
-0.127323
-0.132659
-0.0844097
-0.162477
-0.151868
-0.127792
-0.133268
-0.0845389
-0.163028
-0.15239
-0.128273
-0.133771
-0.0848271
-0.152862
-0.12876
-0.134162
-0.0852682
-0.153276
-0.129246
-0.134438
-0.0858526
-0.153626
-0.129724
-0.134597
-0.0865677
-0.153907
-0.130186
-0.134639
-0.087398
-0.154113
-0.130624
-0.134564
-0.0883261
-0.154239
-0.13103
-0.134374
-0.0893329
-0.154279
-0.131396
-0.134072
-0.0903983
-0.15423
-0.131714
-0.133659
-0.0915019
-0.131977
-0.133139
-0.0926234
-0.132179
-0.132515
-0.093743
-0.132312
-0.13179
-0.0948422
-0.132371
-0.130964
-0.0959048
-0.132349
-0.13004
-0.0969207
-0.132243
-0.129017
-0.0978816
-0.12789
-0.0987613
-0.126645
-0.0995201
-0.125262
-0.10031
-0.123765
-0.101811
-0.104504
-0.105604
-0.105929
-0.105898
-0.105933
-0.105961
-0.105635
-0.104542
-0.123749
-0.101827
-0.125249
-0.100316
-0.126636
-0.0995269
-0.127883
-0.0987692
-0.132249
-0.129011
-0.0978893
-0.132355
-0.130035
-0.096928
-0.132376
-0.130961
-0.095912
-0.132317
-0.131787
-0.0948491
-0.132184
-0.132513
-0.0937498
-0.131983
-0.133138
-0.09263
-0.154231
-0.131719
-0.133658
-0.0915083
-0.15428
-0.1314
-0.134072
-0.0904046
-0.154239
-0.131034
-0.134375
-0.089339
-0.154114
-0.130628
-0.134565
-0.088332
-0.153908
-0.13019
-0.13464
-0.0874038
-0.153628
-0.129728
-0.134599
-0.0865733
-0.153277
-0.12925
-0.13444
-0.0858581
-0.163561
-0.152863
-0.128764
-0.134164
-0.0852735
-0.163031
-0.152392
-0.128277
-0.133773
-0.0848322
-0.162479
-0.15187
-0.127796
-0.133271
-0.0845439
-0.161913
-0.151304
-0.127327
-0.132662
-0.0844145
-0.161338
-0.150702
-0.126876
-0.131953
-0.0844462
-0.160762
-0.150071
-0.126448
-0.131152
-0.0846374
-0.160191
-0.149418
-0.126046
-0.13027
-0.0849821
-0.159628
-0.148751
-0.125674
-0.129318
-0.0854706
-0.159081
-0.148079
-0.125333
-0.128309
-0.0860894
-0.158552
-0.147408
-0.125025
-0.127258
-0.0868216
-0.158046
-0.146746
-0.12475
-0.12618
-0.0876474
-0.157568
-0.146102
-0.124507
-0.125092
-0.0885446
-0.157119
-0.145482
-0.124295
-0.124012
-0.0894891
-0.156703
-0.144894
-0.124114
-0.122957
-0.0904557
-0.174719
-0.156323
-0.144343
-0.123959
-0.121944
-0.0914186
-0.174305
-0.15598
-0.143837
-0.12383
-0.120993
-0.0923522
-0.173935
-0.155676
-0.143381
-0.123724
-0.120118
-0.0932318
-0.173613
-0.155413
-0.14298
-0.123638
-0.119336
-0.0940341
-0.173341
-0.155192
-0.142638
-0.12357
-0.118661
-0.0947378
-0.173121
-0.155014
-0.142361
-0.123519
-0.118105
-0.0953244
-0.172955
-0.15488
-0.14215
-0.123482
-0.117679
-0.0957784
-0.172843
-0.15479
-0.142007
-0.123458
-0.11739
-0.0960879
-0.172787
-0.154745
-0.141936
-0.123446
-0.117244
-0.0962446
-0.0961857
-0.0950831
-0.0935177
-0.0920054
-0.0905236
-0.089026
-0.0875149
-0.085998
-0.0844786
-0.0829585
-0.0814394
-0.079923
-0.0784106
-0.0769032
-0.0754018
-0.0739069
-0.0724191
-0.0709387
-0.0694659
-0.0680008
-0.0665434
-0.0650935
-0.0636509
-0.0622155
-0.0607867
-0.0593643
-0.0579478
-0.0565366
-0.0551304
-0.0537284
-0.0523302
-0.0509352
-0.0495428
-0.0481526
-0.0467639
-0.0453763
-0.0439894
-0.0426027
-0.0412161
-0.0398292
-0.0384419
-0.0370543
-0.0356664
-0.0342786
-0.0328913
-0.031505
-0.0301207
-0.0287392
-0.0273618
-0.0259899
-0.0246253
-0.0232698
-0.0219255
-0.020595
-0.0192807
-0.0179856
-0.0167126
-0.0154651
-0.0142463
-0.0130598
-0.0119089
-0.0107973
-0.00972847
-0.00870565
-0.00773205
-0.00681055
-0.00594371
-0.00513372
-0.00438226
-0.00369051
-0.00305908
-0.00248798
-0.00197658
-0.00152363
-0.00112728
-0.000785092
-0.000494095
-0.000250874
-5.16384e-05
0.00010768
0.000231326
0.000323617
0.00038884
0.000431166
0.000454555
0.000462709
0.000458983
0.000446443
0.000427623
0.00040511
0.000380094
0.000356033
0.000329824
0.00031317
0.000282115
0.000295199
0.000221071
0.000359217
4.33994e-05
0.000747686
-0.0963736
-0.0952739
-0.093677
-0.0921454
-0.0906512
-0.0891427
-0.0876219
-0.0860968
-0.0845704
-0.0830442
-0.08152
-0.0799991
-0.0784829
-0.0769722
-0.0754679
-0.0739706
-0.0724806
-0.0709983
-0.0695238
-0.0680573
-0.0665986
-0.0651476
-0.0637041
-0.0622677
-0.0608382
-0.0594151
-0.057998
-0.0565863
-0.0551795
-0.0537771
-0.0523785
-0.0509832
-0.0495905
-0.0481999
-0.0468109
-0.0454231
-0.0440359
-0.0426489
-0.041262
-0.0398748
-0.0384873
-0.0370993
-0.0357111
-0.034323
-0.0329352
-0.0315485
-0.0301637
-0.0287817
-0.0274037
-0.0260312
-0.0246659
-0.0233096
-0.0219646
-0.0206332
-0.019318
-0.0180219
-0.016748
-0.0154993
-0.0142794
-0.0130916
-0.0119395
-0.0108267
-0.00975646
-0.00873227
-0.00775727
-0.00683435
-0.00596609
-0.00515467
-0.00440179
-0.00370864
-0.00307584
-0.00250339
-0.00199069
-0.0015365
-0.00113896
-0.00079564
-0.00050358
-0.000259366
-5.92078e-05
0.000100961
0.000225384
0.000318382
0.000384244
0.000427143
0.000451044
0.000459652
0.000456327
0.000444139
0.000425626
0.000403377
0.00037859
0.000354719
0.000328676
0.00031214
0.000281218
0.000294304
0.000220394
0.000358156
4.32445e-05
0.000745364
-0.0967465
-0.0956526
-0.0939938
-0.092424
-0.0909053
-0.0893752
-0.0878352
-0.0862938
-0.0847534
-0.0832154
-0.0816809
-0.0801512
-0.0786273
-0.07711
-0.0756
-0.0740976
-0.0726033
-0.0711172
-0.0696395
-0.06817
-0.0667088
-0.0652556
-0.0638101
-0.062372
-0.0609409
-0.0595165
-0.0580981
-0.0566853
-0.0552776
-0.0538743
-0.0524749
-0.0510788
-0.0496855
-0.0482943
-0.0469047
-0.0455162
-0.0441285
-0.042741
-0.0413535
-0.0399657
-0.0385775
-0.0371889
-0.0358
-0.0344111
-0.0330226
-0.031635
-0.0302492
-0.0288661
-0.027487
-0.0261133
-0.0247466
-0.0233889
-0.0220423
-0.0207092
-0.0193922
-0.0180941
-0.0168181
-0.0155673
-0.0143451
-0.013155
-0.0120004
-0.0108849
-0.00981207
-0.00878517
-0.00780739
-0.00688167
-0.00601058
-0.00519633
-0.00444064
-0.0037447
-0.00310917
-0.00253406
-0.00201879
-0.00156212
-0.00116221
-0.000816644
-0.000522471
-0.000276282
-7.42919e-05
8.75656e-05
0.000213536
0.00030794
0.000375073
0.000419114
0.000444035
0.000453548
0.000451022
0.000439534
0.000421633
0.000399913
0.000375581
0.000352091
0.00032638
0.000310081
0.000279425
0.000292517
0.000219041
0.000356042
4.29348e-05
0.000740743
-0.0972981
-0.0962137
-0.0944638
-0.0928381
-0.0912834
-0.0897215
-0.0881532
-0.0865875
-0.0850266
-0.0834708
-0.0819211
-0.0803782
-0.078843
-0.0773159
-0.0757973
-0.0742875
-0.0727867
-0.0712949
-0.0698122
-0.0683384
-0.0668733
-0.0654167
-0.0639682
-0.0625275
-0.0610941
-0.0596676
-0.0582474
-0.0568329
-0.0554237
-0.0540191
-0.0526185
-0.0512213
-0.0498269
-0.0484347
-0.0470442
-0.0456548
-0.0442662
-0.0428779
-0.0414895
-0.0401008
-0.0387117
-0.0373221
-0.0359322
-0.0345421
-0.0331523
-0.0317634
-0.0303762
-0.0289916
-0.0276107
-0.0262352
-0.0248665
-0.0235066
-0.0221577
-0.020822
-0.0195024
-0.0182015
-0.0169224
-0.0156684
-0.0144428
-0.0132491
-0.0120909
-0.0109716
-0.00989479
-0.00886385
-0.00788196
-0.00695207
-0.0060768
-0.00525834
-0.00449847
-0.00379841
-0.00315882
-0.00257976
-0.00206066
-0.0016003
-0.00119687
-0.000847971
-0.000550655
-0.000301528
-9.68091e-05
6.75643e-05
0.000195839
0.000292339
0.000361369
0.000407113
0.000433555
0.00044442
0.000443087
0.000432646
0.000415659
0.000394728
0.000371078
0.000348158
0.000322944
0.000307
0.000276742
0.000289844
0.000217018
0.000352883
4.24727e-05
0.000733845
-0.0980192
-0.0969483
-0.0950807
-0.0933827
-0.0917814
-0.0901783
-0.0885731
-0.0869758
-0.0853879
-0.0838089
-0.0822391
-0.080679
-0.0791287
-0.0775886
-0.0760587
-0.074539
-0.0730296
-0.0715302
-0.0700409
-0.0685613
-0.067091
-0.0656299
-0.0641774
-0.0627332
-0.0612966
-0.0598673
-0.0584446
-0.0570279
-0.0556166
-0.0542102
-0.0528079
-0.0514092
-0.0500133
-0.0486198
-0.0472281
-0.0458375
-0.0444477
-0.0430582
-0.0416686
-0.0402787
-0.0388883
-0.0374974
-0.0361061
-0.0347145
-0.0333231
-0.0319325
-0.0305433
-0.0291566
-0.0277736
-0.0263956
-0.0250243
-0.0236615
-0.0223095
-0.0209706
-0.0196474
-0.0183428
-0.0170597
-0.0158015
-0.0145715
-0.0133731
-0.01221
-0.0110858
-0.0100038
-0.00896758
-0.0079803
-0.00704494
-0.00616416
-0.00534019
-0.00457482
-0.00386934
-0.00322441
-0.00264015
-0.002116
-0.00165079
-0.00124273
-0.000889426
-0.000587965
-0.000334959
-0.000126638
4.10594e-05
0.000172379
0.000271653
0.00034319
0.000391189
0.000419646
0.000432301
0.00043255
0.000423498
0.000407723
0.00038784
0.000365096
0.000342931
0.000318379
0.000302905
0.000273179
0.000286293
0.000214334
0.00034869
4.1862e-05
0.000724702
-0.0988974
-0.0978449
-0.0958361
-0.0940512
-0.0923941
-0.0907412
-0.0890913
-0.0874556
-0.0858348
-0.0842274
-0.0826331
-0.0810516
-0.0794828
-0.0779266
-0.0763826
-0.0748507
-0.0733305
-0.0718218
-0.0703242
-0.0688372
-0.0673606
-0.0658938
-0.0644363
-0.0629875
-0.061547
-0.0601141
-0.0586882
-0.0572686
-0.0558548
-0.054446
-0.0530416
-0.0516408
-0.0502432
-0.048848
-0.0474546
-0.0460625
-0.0446712
-0.0432801
-0.041889
-0.0404976
-0.0391057
-0.0377131
-0.03632
-0.0349265
-0.0335331
-0.0321403
-0.0307488
-0.0293596
-0.0279737
-0.0265928
-0.0252182
-0.023852
-0.0224962
-0.0211533
-0.0198258
-0.0185165
-0.0172286
-0.0159652
-0.0147298
-0.0135258
-0.0123568
-0.0112264
-0.0101381
-0.0090954
-0.00810151
-0.00715946
-0.00627192
-0.00544118
-0.00466908
-0.00395693
-0.00330545
-0.00271479
-0.00218444
-0.00171326
-0.00129948
-0.000940755
-0.000634181
-0.000376389
-0.000163619
8.18521e-06
0.000143271
0.000245975
0.000320617
0.000371408
0.000402364
0.000417238
0.00041945
0.000412121
0.000397852
0.000379272
0.000357653
0.000336428
0.000312699
0.000297811
0.000268748
0.000281876
0.000211
0.000343479
4.11078e-05
0.000713358
-0.0999175
-0.098889
-0.0967194
-0.0948355
-0.0931145
-0.0914045
-0.0897031
-0.088023
-0.0863639
-0.0847234
-0.0831002
-0.0814937
-0.0799032
-0.0783279
-0.0767673
-0.0752208
-0.0736878
-0.0721679
-0.0706603
-0.0691646
-0.0676802
-0.0662065
-0.0647429
-0.0632887
-0.0618433
-0.0604061
-0.0589763
-0.0575532
-0.0561362
-0.0547245
-0.0533174
-0.0519143
-0.0505144
-0.049117
-0.0477216
-0.0463276
-0.0449344
-0.0435415
-0.0421486
-0.0407553
-0.0393614
-0.0379668
-0.0365716
-0.0351759
-0.0337801
-0.0323847
-0.0309904
-0.0295982
-0.0282091
-0.0268246
-0.0254463
-0.024076
-0.0227158
-0.0213681
-0.0200356
-0.018721
-0.0174274
-0.016158
-0.0149162
-0.0137056
-0.0125297
-0.0113921
-0.0102964
-0.00924616
-0.00824454
-0.00729464
-0.00639918
-0.00556051
-0.0047805
-0.00406051
-0.00340134
-0.00280315
-0.0022655
-0.00178728
-0.00136677
-0.00100165
-0.000689035
-0.000425588
-0.000207558
-3.08936e-05
0.000108652
0.000215421
0.000293746
0.000347852
0.000381774
0.000399287
0.000403833
0.000398555
0.000386079
0.00036905
0.000348773
0.00032867
0.000305923
0.000291733
0.000263464
0.000276609
0.000207029
0.00033727
4.02162e-05
0.000699867
-0.101061
-0.100064
-0.0977177
-0.0957253
-0.0939344
-0.0921614
-0.0904027
-0.0886729
-0.086971
-0.0852931
-0.0836374
-0.0820025
-0.0803871
-0.07879
-0.0772103
-0.0756471
-0.0740993
-0.0725663
-0.0710472
-0.0695414
-0.0680479
-0.0665661
-0.0650953
-0.0636347
-0.0621836
-0.0607412
-0.0593067
-0.0578795
-0.0564586
-0.0550435
-0.0536332
-0.0522271
-0.0508245
-0.0494246
-0.0480268
-0.0466304
-0.045235
-0.0438399
-0.0424447
-0.0410492
-0.039653
-0.0382561
-0.0368584
-0.0354601
-0.0340615
-0.0326631
-0.0312657
-0.02987
-0.0284772
-0.0270887
-0.0257061
-0.0243312
-0.022966
-0.021613
-0.0202748
-0.0189541
-0.0176541
-0.0163779
-0.0151289
-0.0139108
-0.0127271
-0.0115814
-0.0104774
-0.00941854
-0.00840816
-0.00744935
-0.00654491
-0.00569722
-0.00490822
-0.00417932
-0.00351138
-0.00290461
-0.00235863
-0.00187238
-0.00144418
-0.00107174
-0.000752216
-0.00048229
-0.000258227
-7.59845e-05
6.86845e-05
0.000180128
0.000262691
0.000320616
0.000357957
0.000378515
0.000385755
0.000382846
0.000372444
0.000357209
0.000338485
0.000319679
0.000298072
0.00028469
0.000257345
0.000270507
0.000202438
0.000330085
3.91947e-05
0.00068429
-0.102309
-0.101349
-0.0988162
-0.0967088
-0.094844
-0.0930036
-0.0911832
-0.0893996
-0.0876509
-0.0859322
-0.0842407
-0.0825743
-0.0809313
-0.0793101
-0.077709
-0.0761269
-0.0745625
-0.0730147
-0.0714826
-0.0699651
-0.0684613
-0.0669703
-0.0654912
-0.0640232
-0.0625655
-0.061117
-0.0596772
-0.058245
-0.0568197
-0.0554004
-0.0539864
-0.0525769
-0.051171
-0.0497681
-0.0483674
-0.0469683
-0.0455702
-0.0441725
-0.0427747
-0.0413766
-0.0399778
-0.0385781
-0.0371776
-0.0357763
-0.0343746
-0.0329729
-0.0315718
-0.0301723
-0.0287754
-0.0273825
-0.0259951
-0.024615
-0.0232444
-0.0218855
-0.020541
-0.0192136
-0.0179065
-0.0166228
-0.015366
-0.0141396
-0.0129473
-0.0117927
-0.0106794
-0.00961107
-0.00859098
-0.00762233
-0.00670793
-0.00585025
-0.00505127
-0.00431249
-0.00363479
-0.00301849
-0.00246323
-0.00196802
-0.00153123
-0.00115062
-0.000823372
-0.000546194
-0.00031537
-0.00012687
2.35527e-05
0.000140251
0.000227582
0.000289808
0.000331004
0.000354996
0.000365279
0.000365048
0.00035699
0.000343786
0.000326821
0.000309485
0.000289171
0.000276704
0.000250413
0.000263591
0.000197245
0.00032195
3.80519e-05
0.000666701
-0.103637
-0.102723
-0.0999982
-0.0977726
-0.0958318
-0.0939215
-0.0920365
-0.0901962
-0.0883978
-0.0866354
-0.0849054
-0.0832052
-0.0815323
-0.0798845
-0.0782601
-0.0766572
-0.0750745
-0.0735104
-0.0719637
-0.0704332
-0.0689178
-0.0674164
-0.065928
-0.0644516
-0.0629863
-0.061531
-0.0600849
-0.0586471
-0.0572166
-0.0557927
-0.0543743
-0.0529607
-0.0515511
-0.0501446
-0.0487406
-0.0473383
-0.0459371
-0.0445364
-0.0431357
-0.0417345
-0.0403327
-0.03893
-0.0375262
-0.0361216
-0.0347164
-0.033311
-0.031906
-0.0305023
-0.0291009
-0.0277031
-0.0263106
-0.0249249
-0.0235483
-0.0221831
-0.0208318
-0.0194972
-0.0181824
-0.0168906
-0.0156253
-0.01439
-0.0131883
-0.012024
-0.0109008
-0.00982214
-0.00879155
-0.00781221
-0.00688701
-0.00601846
-0.00520863
-0.00445907
-0.00377074
-0.00314402
-0.00257863
-0.00207362
-0.00162743
-0.00123785
-0.000902119
-0.000616967
-0.000378704
-0.000183309
-2.65402e-05
9.5961e-05
0.000188564
0.000255548
0.000301015
0.000328816
0.000342476
0.00034522
0.000339769
0.000328823
0.000313818
0.000298119
0.000279249
0.0002678
0.00024269
0.000255883
0.000191473
0.000312895
3.67977e-05
0.000647177
-0.105022
-0.104162
-0.101245
-0.0989017
-0.0968852
-0.0949043
-0.0929533
-0.0910546
-0.0892048
-0.0873969
-0.0856264
-0.0838903
-0.0821856
-0.0805096
-0.07886
-0.0772348
-0.0756321
-0.0740502
-0.0724875
-0.0709428
-0.0694146
-0.0679017
-0.0664029
-0.0649172
-0.0634433
-0.0619804
-0.0605273
-0.0590831
-0.0576467
-0.0562174
-0.054794
-0.0533758
-0.0519618
-0.0505513
-0.0491435
-0.0477375
-0.0463327
-0.0449286
-0.0435245
-0.04212
-0.0407147
-0.0393085
-0.0379013
-0.036493
-0.0350839
-0.0336745
-0.0322652
-0.0308569
-0.0294507
-0.0280477
-0.0266496
-0.025258
-0.0238751
-0.0225031
-0.0211445
-0.0198022
-0.0184793
-0.0171789
-0.0159045
-0.0146597
-0.0134482
-0.0122736
-0.0111397
-0.0100501
-0.00900831
-0.00801755
-0.0070808
-0.00620063
-0.00537918
-0.00461806
-0.00391833
-0.00328042
-0.00270411
-0.00218855
-0.00173221
-0.00133295
-0.00098804
-0.000694255
-0.000447923
-0.000245042
-8.13738e-05
4.74438e-05
0.000145792
0.00021797
0.000268101
0.000300067
0.000317425
0.000323428
0.000320836
0.000312368
0.000299517
0.000285615
0.000268336
0.000258006
0.000234203
0.000247408
0.000185144
0.000302952
3.54431e-05
0.000625806
-0.106438
-0.105641
-0.102537
-0.10008
-0.0979901
-0.0959399
-0.0939233
-0.091966
-0.0900642
-0.0882097
-0.0863977
-0.0846244
-0.0828865
-0.0811808
-0.0795047
-0.0778558
-0.0762318
-0.0746308
-0.073051
-0.0714908
-0.0699487
-0.0684232
-0.0669131
-0.065417
-0.0639338
-0.0624623
-0.0610014
-0.05955
-0.0581071
-0.0566716
-0.0552427
-0.0538192
-0.0524003
-0.0509852
-0.049573
-0.0481628
-0.046754
-0.045346
-0.043938
-0.0425298
-0.0411207
-0.0397107
-0.0382995
-0.0368873
-0.035474
-0.0340602
-0.0326463
-0.0312332
-0.0298217
-0.0284133
-0.0270093
-0.0256114
-0.0242218
-0.0228427
-0.0214765
-0.0201262
-0.0187947
-0.0174853
-0.0162015
-0.0149467
-0.0137248
-0.0125394
-0.0113943
-0.0102932
-0.00923964
-0.00823688
-0.00728795
-0.00639551
-0.00556178
-0.00478844
-0.00407662
-0.00342683
-0.00283894
-0.00231215
-0.001845
-0.00143541
-0.0010807
-0.000777678
-0.000522704
-0.000311793
-0.000140713
-5.10147e-06
9.94348e-05
0.000177212
0.000232381
0.000268849
0.000290208
0.000299741
0.000300251
0.000294472
0.000283961
0.000272011
0.000256467
0.00024735
0.000224982
0.00023819
0.000178285
0.000292153
3.40004e-05
0.00060268
-0.10786
-0.107134
-0.103854
-0.101289
-0.0991315
-0.0970152
-0.0949352
-0.0929206
-0.0909673
-0.0890665
-0.0872125
-0.0854015
-0.0836297
-0.0818934
-0.0801898
-0.0785161
-0.0768698
-0.0752486
-0.0736506
-0.072074
-0.070517
-0.0689779
-0.0674555
-0.0659482
-0.0644547
-0.0629739
-0.0615043
-0.060045
-0.0585948
-0.0571526
-0.0557173
-0.054288
-0.0528636
-0.0514433
-0.0500261
-0.0486113
-0.047198
-0.0457856
-0.0443734
-0.0429609
-0.0415477
-0.0401335
-0.038718
-0.0373013
-0.0358836
-0.0344651
-0.0330463
-0.031628
-0.0302111
-0.0287969
-0.0273867
-0.0259824
-0.0245858
-0.0231992
-0.0218252
-0.0204665
-0.0191262
-0.0178075
-0.0165138
-0.0152488
-0.0140161
-0.0128195
-0.0116628
-0.0105498
-0.00948393
-0.00846866
-0.00750705
-0.00660182
-0.00575525
-0.00496913
-0.00424465
-0.00358241
-0.00298234
-0.00244374
-0.0019652
-0.00154471
-0.00117964
-0.000866844
-0.000602709
-0.000383271
-0.000204312
-6.14655e-05
4.96694e-05
0.000133427
0.000193981
0.000235268
0.000260916
0.000274237
0.000278078
0.00027519
0.000267198
0.000257349
0.000243678
0.000235864
0.000215056
0.00022826
0.000170924
0.000280537
3.2483e-05
0.000577898
-0.109263
-0.108615
-0.105174
-0.102512
-0.100294
-0.0981165
-0.0959769
-0.0939078
-0.091905
-0.0899589
-0.0880637
-0.0862152
-0.0844093
-0.0826422
-0.0809105
-0.0792113
-0.0775419
-0.0758998
-0.0742828
-0.0726888
-0.071116
-0.0695626
-0.068027
-0.0665076
-0.0650031
-0.0635121
-0.0620332
-0.0605652
-0.059107
-0.0576573
-0.0562151
-0.0547793
-0.0533488
-0.0519227
-0.0505001
-0.04908
-0.0476617
-0.0462444
-0.0448275
-0.0434104
-0.0419926
-0.0405737
-0.0391537
-0.0377323
-0.0363097
-0.0348862
-0.0334622
-0.0320385
-0.0306159
-0.0291956
-0.0277791
-0.026368
-0.0249642
-0.0235701
-0.022188
-0.0208207
-0.0194713
-0.018143
-0.0168393
-0.0155637
-0.01432
-0.0131119
-0.0119433
-0.010818
-0.00973954
-0.00871139
-0.0077367
-0.00681826
-0.00595843
-0.00515906
-0.00442145
-0.00374627
-0.00313354
-0.00258263
-0.0020922
-0.00166032
-0.0012844
-0.000961348
-0.000687588
-0.000459178
-0.000271913
-0.00012143
-3.31937e-06
8.67689e-05
0.000153034
0.000199437
0.000229644
0.000246996
0.000254386
0.000254579
0.000249279
0.000241671
0.000230009
0.000223583
0.000204459
0.000217645
0.00016309
0.000268139
3.09058e-05
0.00055156
-0.110622
-0.110058
-0.106475
-0.103731
-0.10146
-0.0992294
-0.0970358
-0.0949165
-0.0928674
-0.0908783
-0.0889435
-0.0870585
-0.0852191
-0.0834214
-0.0816617
-0.0799368
-0.078244
-0.0765804
-0.0749438
-0.0733318
-0.0717425
-0.070174
-0.0686245
-0.0670923
-0.065576
-0.0640741
-0.0625851
-0.0611078
-0.0596408
-0.058183
-0.0567332
-0.0552902
-0.0538531
-0.0524206
-0.0509919
-0.0495661
-0.0481423
-0.0467197
-0.0452976
-0.0438754
-0.0424525
-0.0410287
-0.0396036
-0.0381772
-0.0367495
-0.0353207
-0.0338913
-0.0324618
-0.0310333
-0.0296068
-0.0281837
-0.0267657
-0.0253546
-0.0239526
-0.0225623
-0.0211863
-0.0198277
-0.0184897
-0.0171757
-0.0158894
-0.0146345
-0.0134147
-0.012234
-0.0110962
-0.0100049
-0.00896359
-0.00797553
-0.00704357
-0.00617013
-0.00535717
-0.00460606
-0.00391755
-0.00329176
-0.00272812
-0.00222539
-0.00178169
-0.0013945
-0.00106078
-0.000776985
-0.000539208
-0.000343255
-0.000184771
-5.93403e-05
3.74015e-05
0.000109676
0.000161473
0.000196491
0.000218101
0.000229247
0.000232702
0.000230257
0.000225023
0.000215502
0.000210542
0.000193227
0.000206378
0.000154817
0.000254999
2.9285e-05
0.000523772
-0.111915
-0.111438
-0.107738
-0.104927
-0.102615
-0.100339
-0.0980988
-0.095935
-0.093844
-0.0918155
-0.0898437
-0.0879241
-0.0860526
-0.0842251
-0.0824379
-0.0806876
-0.0789713
-0.0772861
-0.0756295
-0.0739992
-0.072393
-0.0708088
-0.0692448
-0.0676992
-0.0661705
-0.064657
-0.0631573
-0.0616699
-0.0601936
-0.0587271
-0.057269
-0.0558183
-0.0543738
-0.0529344
-0.0514991
-0.050067
-0.0486371
-0.0472087
-0.0457809
-0.0443532
-0.0429249
-0.0414957
-0.0400653
-0.0386335
-0.0372003
-0.0357659
-0.0343308
-0.0328955
-0.0314608
-0.0300279
-0.028598
-0.0271729
-0.0257543
-0.0243445
-0.0229458
-0.021561
-0.0201931
-0.0188453
-0.017521
-0.0162239
-0.0149577
-0.0137261
-0.0125332
-0.0113827
-0.0102784
-0.00922382
-0.0082222
-0.0072765
-0.00638923
-0.00556242
-0.00479753
-0.00409539
-0.00345622
-0.00287953
-0.00236415
-0.00190828
-0.00150947
-0.00116472
-0.000870542
-0.000623048
-0.000418071
-0.00025126
-0.000118198
-1.45087e-05
6.40512e-05
0.000121495
0.00016156
0.000187641
0.000202736
0.000209622
0.000210189
0.000207454
0.0002002
0.000196779
0.000181397
0.00019449
0.000146138
0.000241156
2.76385e-05
0.000494639
-0.113121
-0.112734
-0.108942
-0.106083
-0.103742
-0.101431
-0.0991529
-0.0969517
-0.0948246
-0.0927611
-0.0907557
-0.0888044
-0.0869029
-0.0850472
-0.0832335
-0.0814586
-0.0797193
-0.0780127
-0.0763362
-0.0746874
-0.0730639
-0.0714637
-0.0698848
-0.0683254
-0.0667837
-0.0652581
-0.063747
-0.0622491
-0.0607628
-0.0592869
-0.05782
-0.056361
-0.0549086
-0.0534617
-0.0520193
-0.0505803
-0.0491439
-0.0477091
-0.0462752
-0.0448415
-0.0434074
-0.0419724
-0.0405363
-0.0390987
-0.0376597
-0.0362195
-0.0347784
-0.033337
-0.0318959
-0.0304564
-0.0290197
-0.0275874
-0.0261612
-0.0247434
-0.0233364
-0.0219427
-0.0205655
-0.0192079
-0.0178733
-0.0165653
-0.0152877
-0.0140444
-0.0128392
-0.0116761
-0.0105587
-0.00949071
-0.00847542
-0.00751587
-0.00661462
-0.0057738
-0.00499493
-0.00427896
-0.00362618
-0.00303618
-0.00250789
-0.00203957
-0.00162884
-0.00127277
-0.000967899
-0.000710389
-0.000496091
-0.000320665
-0.000179693
-6.87921e-05
1.63034e-05
7.96283e-05
0.000124957
0.000155705
0.000174931
0.000185406
0.000189132
0.000189013
0.000184152
0.000182332
0.000169009
0.000182013
0.000137091
0.000226649
2.59858e-05
0.000464269
-0.114221
-0.113925
-0.11007
-0.107182
-0.104826
-0.102492
-0.100185
-0.0979548
-0.0957983
-0.0937054
-0.0916711
-0.0896916
-0.087763
-0.0858812
-0.0840429
-0.0822446
-0.0804831
-0.0787558
-0.0770597
-0.0753925
-0.0737518
-0.0721355
-0.0705415
-0.0689678
-0.0674128
-0.0658747
-0.0643518
-0.0628428
-0.061346
-0.0598602
-0.0583839
-0.056916
-0.0554551
-0.0540002
-0.0525501
-0.0511038
-0.0496603
-0.0482187
-0.0467782
-0.0453381
-0.0438977
-0.0424566
-0.0410143
-0.0395707
-0.0381257
-0.0366793
-0.035232
-0.0337842
-0.0323366
-0.0308904
-0.0294467
-0.028007
-0.0265732
-0.0251474
-0.0237319
-0.0223295
-0.0209429
-0.0195755
-0.0182306
-0.0169119
-0.0156231
-0.014368
-0.0131506
-0.0119748
-0.0108443
-0.00976295
-0.008734
-0.00776055
-0.00684527
-0.00599034
-0.00519739
-0.00446745
-0.0038009
-0.00319741
-0.00265601
-0.00217502
-0.00175215
-0.00138451
-0.0010687
-0.000800921
-0.000577047
-0.000392754
-0.000243628
-0.000125277
-3.34199e-05
3.59983e-05
8.67887e-05
0.000122387
0.000145911
0.000160123
0.000167147
0.000169752
0.000167401
0.00016724
0.000156105
0.000168982
0.000127712
0.000211519
2.43484e-05
0.000432767
-0.115201
-0.114993
-0.111106
-0.108209
-0.105852
-0.103507
-0.101183
-0.0989329
-0.0967549
-0.0946391
-0.0925812
-0.090578
-0.0886258
-0.086721
-0.0848602
-0.0830402
-0.0812581
-0.0795109
-0.0777961
-0.076111
-0.0744534
-0.072821
-0.0712118
-0.0696239
-0.0680553
-0.0665043
-0.0649693
-0.0634487
-0.0619411
-0.0604448
-0.0589587
-0.0574814
-0.0560116
-0.0545481
-0.0530898
-0.0516356
-0.0501846
-0.0487357
-0.0472881
-0.0458411
-0.044394
-0.0429463
-0.0414976
-0.0400476
-0.0385962
-0.0371434
-0.0356896
-0.0342353
-0.032781
-0.0313279
-0.0298771
-0.02843
-0.0269886
-0.0255547
-0.0241308
-0.0227196
-0.0213238
-0.0199466
-0.0185915
-0.0172621
-0.0159621
-0.0146953
-0.0134658
-0.0122775
-0.0111341
-0.0100394
-0.0089968
-0.00800949
-0.00708018
-0.00621114
-0.00540408
-0.00466011
-0.00397969
-0.00336261
-0.00280795
-0.00231415
-0.00187895
-0.00149955
-0.0011726
-0.00089434
-0.000660673
-0.000467298
-0.000309801
-0.000183792
-8.49706e-05
-9.26745e-06
4.71665e-05
8.77806e-05
0.00011576
0.000133842
0.000144296
0.000149722
0.000149998
0.000151544
0.000142727
0.000155429
0.000118044
0.000195803
2.27502e-05
0.000400237
-0.116049
-0.115926
-0.112036
-0.109152
-0.106808
-0.104465
-0.102135
-0.0998754
-0.0976843
-0.0955529
-0.0934776
-0.0914557
-0.0894843
-0.0875599
-0.0856796
-0.0838404
-0.0820394
-0.0802739
-0.0785413
-0.0768392
-0.0751652
-0.0735172
-0.071893
-0.0702908
-0.0687086
-0.0671446
-0.0655972
-0.0640648
-0.0625459
-0.0610389
-0.0595425
-0.0580553
-0.0565761
-0.0551036
-0.0536366
-0.0521741
-0.050715
-0.0492584
-0.0478033
-0.046349
-0.0448948
-0.0434402
-0.0419846
-0.0405279
-0.0390697
-0.0376103
-0.0361498
-0.0346887
-0.0332276
-0.0317674
-0.0303094
-0.0288549
-0.0274057
-0.0259638
-0.0245315
-0.0231115
-0.0217065
-0.0203197
-0.0189545
-0.0176145
-0.0163035
-0.0150252
-0.0137838
-0.012583
-0.0114268
-0.0103189
-0.00926279
-0.00826172
-0.00731846
-0.00643536
-0.0056142
-0.0048562
-0.0041619
-0.00353117
-0.00296318
-0.00245645
-0.00200881
-0.0016175
-0.00127926
-0.000990346
-0.000746709
-0.000544067
-0.000378015
-0.000244165
-0.0001382
-5.60406e-05
6.20078e-06
5.1981e-05
8.45591e-05
0.000106635
0.000120644
0.000128979
0.000131996
0.000135286
0.00012892
0.000141387
0.000108128
0.000179539
2.12176e-05
0.000366778
-0.116757
-0.116712
-0.11285
-0.11
-0.107683
-0.105354
-0.103031
-0.100772
-0.0985772
-0.0964381
-0.0943521
-0.0923175
-0.0903317
-0.0883919
-0.0864955
-0.0846398
-0.0828223
-0.0810403
-0.0792915
-0.0775735
-0.075884
-0.074221
-0.0725823
-0.0709661
-0.0693704
-0.0677935
-0.0662336
-0.0646892
-0.0631588
-0.0616408
-0.0601337
-0.0586364
-0.0571473
-0.0556653
-0.0541893
-0.052718
-0.0512504
-0.0497856
-0.0483226
-0.0468605
-0.0453989
-0.0439369
-0.0424741
-0.0410102
-0.0395451
-0.0380787
-0.0366113
-0.0351431
-0.033675
-0.0322076
-0.0307422
-0.0292802
-0.0278233
-0.0263733
-0.0249327
-0.0235039
-0.0220898
-0.0206936
-0.0193184
-0.017968
-0.0166461
-0.0153565
-0.0141033
-0.0128903
-0.0117214
-0.0106005
-0.00953106
-0.00851637
-0.00755929
-0.00666222
-0.00582706
-0.00505508
-0.00434691
-0.00370253
-0.00312119
-0.00260147
-0.00214131
-0.00173801
-0.00138834
-0.00108865
-0.0008349
-0.000622839
-0.000448075
-0.000306225
-0.00019296
-0.000104193
-3.59967e-05
1.50849e-05
5.23937e-05
7.8574e-05
9.62545e-05
0.000107576
0.000113447
0.000118505
0.000114731
0.000126888
9.80103e-05
0.000162759
1.97805e-05
0.000332484
-0.117321
-0.117345
-0.113539
-0.110743
-0.108468
-0.106166
-0.103861
-0.101614
-0.0994249
-0.0972865
-0.0951972
-0.0931562
-0.0911614
-0.0892109
-0.0873023
-0.0854335
-0.0836022
-0.081806
-0.0800429
-0.0783105
-0.0766068
-0.0749296
-0.0732772
-0.0716474
-0.0700385
-0.0684488
-0.0668766
-0.0653202
-0.0637782
-0.0622489
-0.060731
-0.0592231
-0.0577239
-0.0562322
-0.0547466
-0.0532661
-0.0517897
-0.0503162
-0.0488448
-0.0473747
-0.0459051
-0.0444354
-0.0429651
-0.0414938
-0.0400213
-0.0385477
-0.037073
-0.0355977
-0.0341222
-0.0326476
-0.0311747
-0.0297051
-0.0282403
-0.0267823
-0.0253334
-0.0238959
-0.0224728
-0.0210672
-0.0196822
-0.0183216
-0.016989
-0.0156883
-0.0144234
-0.0131984
-0.0120171
-0.0108834
-0.00980078
-0.00877266
-0.00780192
-0.00689104
-0.00604199
-0.00525612
-0.00453417
-0.00387618
-0.00328149
-0.00274879
-0.00227606
-0.0018607
-0.00149955
-0.00118897
-0.000924997
-0.000703395
-0.00051979
-0.000369806
-0.000249105
-0.000153597
-7.93149e-05
-2.28114e-05
1.93485e-05
4.97323e-05
7.11943e-05
8.55684e-05
9.44057e-05
0.000101245
0.00010021
0.000111963
8.77381e-05
0.000145497
1.84727e-05
0.000297442
-0.117738
-0.117821
-0.114098
-0.111375
-0.109154
-0.106892
-0.104618
-0.102393
-0.10022
-0.0980908
-0.0960059
-0.0939651
-0.0919674
-0.0900112
-0.0880949
-0.0862167
-0.0843747
-0.0825671
-0.0807918
-0.0790469
-0.0773304
-0.0756404
-0.0739751
-0.0723325
-0.0707111
-0.069109
-0.0675246
-0.0659563
-0.0644027
-0.0628621
-0.0613332
-0.0598146
-0.058305
-0.0568031
-0.0553078
-0.0538178
-0.052332
-0.0508496
-0.0493695
-0.0478908
-0.0464129
-0.0449351
-0.0434569
-0.0419778
-0.0404977
-0.0390165
-0.0375344
-0.0360516
-0.0345687
-0.0330865
-0.0316061
-0.0301288
-0.0286561
-0.0271901
-0.0257328
-0.0242867
-0.0228547
-0.0214397
-0.0200451
-0.0186744
-0.0173313
-0.0160196
-0.0147434
-0.0135066
-0.0123131
-0.0111668
-0.0100713
-0.0090299
-0.0080457
-0.00712119
-0.0062584
-0.00545879
-0.00472315
-0.00405163
-0.00344366
-0.00289799
-0.00241271
-0.00198526
-0.00161257
-0.00129105
-0.00101676