/*--------------------------------*- C++ -*----------------------------------*\
  =========                 |
  \\      /  F ield         | OpenFOAM: The Open Source CFD Toolbox
   \\    /   O peration     | Website:  https://openfoam.org
    \\  /    A nd           | Version:  7
     \\/     M anipulation  |
\*---------------------------------------------------------------------------*/
FoamFile
{
    version     2.0;
    format      ascii;
    class       surfaceScalarField;
    location    "10";
    object      phi;
}
// * * * * * * * * * * * * * * * * * * * * * * * * * * * * * * * * * * * * * //

dimensions      [0 3 -1 0 0 0 0];

internalField   nonuniform List<scalar> 
41682
(
0.00115411
-0.000222867
4.5405e-08
0.00141169
-0.000257625
4.61455e-08
0.00170603
-0.000294389
4.24018e-08
0.00204551
-0.000339512
3.49169e-08
0.00242364
-0.000378146
1.89924e-08
-0.000455023
-6.28514e-09
0.00287867
0.00116348
-0.000447383
0.00142303
-0.000517176
0.00171969
-0.00059105
0.00206176
-0.000681585
0.00244301
-0.000759395
-0.000912956
0.00290094
0.00118214
-0.000675268
0.00144561
-0.000780644
0.00174686
-0.000892303
0.00209408
-0.0010288
0.00248151
-0.00114683
-0.00137664
0.00294519
0.00120995
-0.000908156
0.00147922
-0.00104992
0.00178727
-0.00120035
0.0021421
-0.00138363
0.00253866
-0.00154339
-0.00184879
0.00301081
0.00124668
-0.00114762
0.00152358
-0.00132681
0.00184052
-0.0015173
0.00220527
-0.00174837
0.00261374
-0.00195186
-0.00233197
0.00309691
0.00129205
-0.00139516
0.00157827
-0.00161303
0.00190608
-0.00184511
0.00228289
-0.00212518
0.0027058
-0.00237477
-0.00282849
0.00320232
0.0013457
-0.00165218
0.00164283
-0.00191016
0.00198329
-0.00218558
0.00237409
-0.00251598
0.0028137
-0.00281438
-0.0033404
0.00332561
0.0014072
-0.00191996
0.00171667
-0.00221963
0.00207139
-0.00254029
0.00247785
-0.00292245
0.00293611
-0.00327264
-0.00386942
0.00346513
0.00147608
0.00179916
-0.00254271
0.00216951
-0.00291064
0.00259304
-0.00334598
0.00307151
-0.00375111
-0.00441692
0.003619
0.00188956
-0.00288048
0.00227669
-0.00329777
0.00271839
-0.00378768
0.00321825
-0.00425097
-0.00498386
0.00378519
0.00198711
-0.00323383
0.00239189
-0.00370255
0.00285256
-0.00424834
0.00337455
-0.00477297
-0.00557082
0.00396151
0.00209096
-0.00360343
0.00251402
-0.0041256
0.00299411
-0.00472843
0.00353857
-0.00531742
-0.00617792
0.00414567
0.00220023
-0.00398976
0.00264191
-0.00456728
0.00314157
-0.0052281
0.00370836
-0.00588421
-0.00680489
0.00433533
0.002314
-0.00439306
0.00277436
-0.00502764
0.00329342
-0.00574716
0.00388198
-0.00647277
-0.00745102
0.00452811
0.00243132
-0.00481335
0.00291015
-0.00550647
0.00344811
-0.00628512
0.00405748
-0.00708215
-0.00811521
0.00472167
0.00255121
-0.00525045
0.00304803
-0.00600329
0.00360411
-0.0068412
0.00423294
-0.00771097
-0.00879598
0.0049137
0.00267271
-0.00570393
0.00318679
-0.00651736
0.00375991
-0.00741433
0.00440648
-0.00835754
-0.00949152
0.00510202
0.00279484
-0.00617318
0.00332518
-0.0070477
0.00391403
-0.00800317
0.00457633
-0.00901984
-0.0101998
0.00528457
0.00291664
-0.00665739
0.00346203
-0.00759309
0.00406504
-0.00860618
0.00474081
-0.00969561
-0.0109184
0.00545943
0.00303715
-0.00715556
0.00359618
-0.00815213
0.00421161
-0.00922161
0.00489839
-0.0103824
-0.0116449
0.00562492
0.00315546
-0.00766652
0.00372655
-0.00872321
0.00435248
-0.00984755
0.00504766
-0.0110776
-0.0123767
0.00577951
0.0032707
0.00385209
-0.0093046
0.00448648
-0.0104819
0.0051874
-0.0117785
-0.0131113
0.00592193
0.00397187
-0.00989444
0.00461258
-0.0111226
0.00531652
-0.0124824
-0.0138459
0.00605114
0.004085
-0.0104908
0.00472984
-0.0117675
0.00543415
-0.0131867
-0.0145781
0.00616631
0.00419073
-0.0110916
0.00483749
-0.0124142
0.00553957
-0.0138888
-0.0153053
0.00626685
0.00428836
-0.0116949
0.00493485
-0.0130607
0.00563227
-0.0145863
-0.0160255
0.00635241
0.00437733
-0.0122987
0.00502141
-0.0137048
0.00571187
-0.0152767
-0.0167364
0.0064228
0.00445716
-0.012901
0.00509679
-0.0143444
0.00577819
-0.0159581
-0.0174363
0.00647806
0.0045275
-0.0134998
0.00516072
-0.0149777
0.0058312
-0.0166286
-0.0181235
0.00651837
0.00458806
0.0052131
-0.0156027
0.005871
-0.0172865
-0.0187965
0.00654407
0.0052539
-0.0162179
0.00589782
-0.0179304
-0.0194543
0.00655561
0.00528325
-0.0168218
0.005912
-0.0185592
-0.0200959
0.00655356
0.00530133
-0.0174132
0.00591396
-0.0191718
-0.0207204
0.00653854
0.00530845
-0.0179909
0.00590419
-0.0197675
-0.0213275
0.00651124
0.00530496
-0.018554
0.00588324
-0.0203458
-0.0219167
0.00647241
0.0052913
0.00585167
-0.0209062
-0.0224878
0.00642285
0.00581007
-0.0214483
-0.0230412
0.00636343
0.00575898
-0.0219719
-0.0235773
0.00629507
0.00569891
-0.0224767
-0.0240976
0.00621924
0.0056305
-0.024607
0.00613982
-0.0251294
0.00607819
-0.0256294
0.0059742
-0.0261069
0.0058642
0.00575009
0.0261068
0.00575009
0.0256293
0.00586418
0.0251293
0.00597413
0.0246066
0.00607847
0.00563043
0.0224769
0.0240973
0.00613968
0.00569886
0.0219721
0.0235771
0.00621909
0.00575895
0.0214485
0.0230411
0.00629496
0.00581004
0.0209064
0.0224878
0.00636334
0.00529128
0.018554
0.00585165
0.020346
0.0219167
0.00642277
0.00530495
0.0179909
0.00588322
0.0197678
0.0213275
0.00647235
0.00530844
0.0174132
0.00590418
0.019172
0.0207205
0.00651119
0.00530133
0.0168219
0.00591395
0.0185594
0.020096
0.0065385
0.00528324
0.016218
0.005912
0.0179306
0.0194544
0.00655353
0.00525391
0.0156028
0.00589783
0.0172867
0.0187967
0.00655559
0.00458807
0.0134999
0.0052131
0.0149778
0.00587101
0.0166288
0.0181236
0.00654406
0.00452751
0.0129011
0.00516074
0.0143445
0.00583122
0.0159583
0.0174365
0.00651837
0.00445718
0.0122988
0.0050968
0.0137049
0.00577821
0.0152769
0.0167366
0.00647807
0.00437735
0.011695
0.00502143
0.0130608
0.00571189
0.0145865
0.0160257
0.00642281
0.00428839
0.0110917
0.00493487
0.0124144
0.00563229
0.013889
0.0153056
0.00635243
0.00419076
0.0104909
0.00483751
0.0117676
0.00553961
0.013187
0.0145783
0.00626688
0.00408503
0.00989453
0.00472987
0.0111228
0.00543419
0.0124826
0.0138461
0.00616634
0.00338205
0.008189
0.0039719
0.00930468
0.00461261
0.010482
0.00531656
0.0117787
0.0131115
0.00605118
0.00327073
0.00766655
0.00385213
0.00872329
0.00448652
0.00984765
0.00518744
0.0110778
0.012377
0.00592198
0.00315549
0.00715559
0.00372658
0.0081522
0.00435252
0.00922171
0.00504772
0.0103826
0.0116451
0.00577956
0.00303718
0.00665741
0.00359622
0.00759315
0.00421166
0.00860628
0.00489845
0.00969579
0.0109186
0.00562498
0.00291667
0.00617319
0.00346207
0.00704775
0.00406509
0.00800326
0.00474087
0.00902001
0.0102
0.0054595
0.00279488
0.00570393
0.00332522
0.0065174
0.00391408
0.0074144
0.00457639
0.00835769
0.00949173
0.00528464
0.00267275
0.00525045
0.00318683
0.00600332
0.00375996
0.00684127
0.00440654
0.00771111
0.00879617
0.0051021
0.00255125
0.00481334
0.00304808
0.00550649
0.00360417
0.00628518
0.004233
0.00708227
0.00811539
0.00491378
0.00243135
0.00439304
0.00291019
0.00502765
0.00344817
0.00574721
0.00405755
0.00647289
0.00745119
0.00472175
0.00231403
0.00398974
0.0027744
0.00456728
0.00329347
0.00522813
0.00388205
0.00588431
0.00680505
0.0045282
0.00220027
0.0036034
0.00264195
0.0041256
0.00314163
0.00472846
0.00370843
0.0053175
0.00617806
0.00433542
0.00209099
0.00323378
0.00251406
0.00370253
0.00299417
0.00424835
0.00353864
0.00477303
0.00557094
0.00414576
0.00198714
0.00288043
0.00239193
0.00329774
0.00285261
0.00378768
0.00337462
0.00425102
0.00498397
0.00396159
0.00188959
0.00254265
0.00227673
0.00291061
0.00271844
0.00334596
0.00321831
0.00375115
0.00441701
0.00378527
0.0014761
0.00191989
0.00179918
0.00221957
0.00216954
0.00254025
0.00259308
0.00292242
0.00307157
0.00327266
0.0038695
0.00361908
0.00140722
0.00165211
0.00171669
0.00191009
0.00207142
0.00218552
0.00247789
0.00251595
0.00293617
0.00281439
0.00334046
0.0034652
0.00134571
0.00139509
0.00164285
0.00161296
0.00198332
0.00184505
0.00237413
0.00212514
0.00281375
0.00237476
0.00282854
0.00332568
0.00129206
0.00114754
0.00157829
0.00132673
0.00190611
0.00151723
0.00228292
0.00174832
0.00270584
0.00195184
0.00233201
0.00320238
0.00124669
0.000908071
0.00152359
0.00104983
0.00184055
0.00120028
0.0022053
0.00138357
0.00261377
0.00154337
0.00184882
0.00309696
0.00120996
0.00067518
0.00147923
0.000780556
0.00178729
0.000892224
0.00214212
0.00102874
0.00253869
0.0011468
0.00137666
0.00301085
0.00118215
0.000447293
0.00144561
0.000517086
0.00174687
0.000590968
0.00209409
0.000681519
0.00248153
0.000759361
0.000912974
0.00294522
0.00116348
0.000222776
0.00142303
0.000257534
0.0017197
0.000294305
0.00206177
0.000339443
0.00244302
0.000378109
0.000455037
0.00290096
0.00115411
0.00141169
0.00170604
0.00204551
0.00242364
0.00287867
0.00291847
-3.98009e-05
-4.29404e-09
0.00295748
-3.90026e-05
-5.43617e-09
0.00299584
-3.83526e-05
-6.67924e-09
0.00303365
-3.77971e-05
-8.02201e-09
0.00307097
-3.73131e-05
-9.46563e-09
0.00310787
-3.68932e-05
-1.10125e-08
0.00314441
-3.65299e-05
-1.2665e-08
0.00318064
-3.62153e-05
-1.44257e-08
0.0032166
-3.59429e-05
-1.62969e-08
0.00325233
-3.57073e-05
-1.82812e-08
0.00328785
-3.55041e-05
-2.0381e-08
0.00332321
-3.53297e-05
-2.25983e-08
0.00335841
-3.51807e-05
-2.49353e-08
0.00339349
-3.50548e-05
-2.73937e-08
0.00342847
-3.49498e-05
-2.99749e-08
0.00346337
-3.48642e-05
-3.26798e-08
0.0034982
-3.47964e-05
-3.55091e-08
0.00353299
-3.47457e-05
-3.84628e-08
0.00356774
-3.47112e-05
-4.15402e-08
0.00360248
-3.46925e-05
-4.474e-08
0.00363721
-3.46893e-05
-4.80602e-08
0.00367197
-3.47016e-05
-5.1498e-08
0.00370675
-3.47294e-05
-5.50493e-08
0.00374158
-3.4773e-05
-5.87094e-08
0.00377648
-3.48327e-05
-6.24723e-08
0.00381145
-3.4909e-05
-6.63305e-08
0.00384653
-3.50026e-05
-7.02757e-08
0.00388172
-3.51141e-05
-7.42977e-08
0.00391704
-3.52442e-05
-7.83849e-08
0.00395251
-3.53938e-05
-8.25242e-08
0.00398816
-3.55636e-05
-8.67004e-08
0.00402401
-3.57544e-05
-9.08968e-08
0.00406007
-3.59673e-05
-9.50944e-08
0.00409637
-3.62029e-05
-9.92725e-08
0.00413294
-3.64621e-05
-1.03408e-07
0.00416979
-3.67455e-05
-1.07475e-07
0.00420696
-3.70539e-05
-1.11448e-07
0.00424446
-3.73878e-05
-1.15295e-07
0.00428233
-3.77474e-05
-1.18985e-07
0.00432058
-3.81332e-05
-1.22484e-07
0.00435925
-3.85449e-05
-1.25755e-07
0.00439836
-3.89824e-05
-1.2876e-07
0.00443794
-3.94452e-05
-1.31458e-07
0.00447801
-3.99324e-05
-1.33807e-07
0.00451859
-4.04428e-05
-1.35765e-07
0.0045597
-4.09746e-05
-1.37285e-07
0.00460136
-4.15259e-05
-1.38324e-07
0.0046436
-4.20941e-05
-1.38836e-07
0.00468641
-4.2676e-05
-1.38776e-07
0.00472982
-4.32679e-05
-1.38099e-07
0.00477382
-4.38656e-05
-1.36765e-07
0.00481842
-4.44639e-05
-1.34732e-07
0.00486361
-4.50574e-05
-1.31965e-07
0.00490937
-4.56396e-05
-1.28431e-07
0.0049557
-4.62035e-05
-1.24104e-07
0.00500256
-4.67414e-05
-1.18962e-07
0.00504992
-4.72448e-05
-1.12993e-07
0.00509773
-4.77046e-05
-1.0619e-07
0.00514594
-4.81111e-05
-9.85585e-08
0.00519449
-4.84541e-05
-9.01106e-08
0.00524329
-4.87229e-05
-8.08714e-08
0.00529227
-4.89065e-05
-7.08769e-08
0.00534132
-4.89937e-05
-6.01753e-08
0.00539034
-4.89734e-05
-4.88272e-08
0.00543921
-4.88345e-05
-3.6906e-08
0.0054878
-4.85664e-05
-2.44976e-08
0.00553598
-4.81593e-05
-1.17002e-08
0.00558358
-4.7604e-05
1.37654e-09
0.00563046
-4.68928e-05
1.46123e-08
0.00567645
-4.60195e-05
2.78777e-08
0.00572139
-4.49794e-05
4.10361e-08
0.0057651
-4.37703e-05
5.39457e-08
0.00580743
-4.23919e-05
6.64621e-08
0.0058482
-4.08469e-05
7.84417e-08
0.00588725
-3.91405e-05
8.97445e-08
0.00592443
-3.72809e-05
1.00238e-07
0.0059596
-3.52789e-05
1.09801e-07
0.00599263
-3.31486e-05
1.18326e-07
0.00602341
-3.09064e-05
1.25725e-07
0.00605185
-2.85712e-05
1.3193e-07
0.00607787
-2.6164e-05
1.36897e-07
0.00610144
-2.37074e-05
1.40608e-07
0.00612252
-2.12247e-05
1.43069e-07
0.00614112
-1.874e-05
1.44313e-07
0.00615725
-1.62766e-05
1.444e-07
0.00617096
-1.38572e-05
1.43407e-07
0.00618233
-1.15026e-05
1.41433e-07
0.00619142
-9.23156e-06
1.38591e-07
0.00619834
-7.06011e-06
1.35004e-07
0.00620321
-5.00117e-06
1.30798e-07
0.00620615
-3.06453e-06
1.261e-07
0.00620729
-1.25636e-06
1.21028e-07
0.00620675
4.1969e-07
1.15698e-07
0.00620468
1.96469e-06
1.10199e-07
0.00620119
3.37835e-06
1.04635e-07
0.00619642
4.67243e-06
9.90245e-08
0.00619049
5.83739e-06
9.35262e-08
0.00618348
6.92008e-06
8.79372e-08
0.00617556
7.83928e-06
8.28053e-08
8.82633e-06
7.68592e-08
0.00294027
-7.91297e-05
0.00297883
-7.75582e-05
0.00301676
-7.62833e-05
0.00305415
-7.51933e-05
0.00309108
-7.42426e-05
0.00312761
-7.34179e-05
0.00316378
-7.27044e-05
0.00319965
-7.20868e-05
0.00323526
-7.15523e-05
0.00327065
-7.10905e-05
0.00330584
-7.06928e-05
0.00334086
-7.03518e-05
0.00337574
-7.00615e-05
0.0034105
-6.98169e-05
0.00344516
-6.96138e-05
0.00347975
-6.94492e-05
0.00351427
-6.93202e-05
0.00354875
-6.92252e-05
0.0035832
-6.91625e-05
0.00361764
-6.91314e-05
0.00365208
-6.91312e-05
0.00368655
-6.91619e-05
0.00372104
-6.92236e-05
0.00375558
-6.93169e-05
0.00379019
-6.94424e-05
0.00382489
-6.96012e-05
0.00385968
-6.97944e-05
0.00389459
-7.00233e-05
0.00392963
-7.02894e-05
0.00396483
-7.05943e-05
0.00400021
-7.09397e-05
0.00403578
-7.13271e-05
0.00407157
-7.17583e-05
0.0041076
-7.22348e-05
0.0041439
-7.27583e-05
0.00418048
-7.33302e-05
0.00421738
-7.39518e-05
0.00425462
-7.4624e-05
0.00429222
-7.53475e-05
0.00433021
-7.61229e-05
0.00436861
-7.69499e-05
0.00440746
-7.78282e-05
0.00444677
-7.87565e-05
0.00448657
-7.97332e-05
0.00452688
-8.07557e-05
0.00456773
-8.18208e-05
0.00460913
-8.29243e-05
0.0046511
-8.40609e-05
0.00469364
-8.52244e-05
0.00473678
-8.64074e-05
0.00478052
-8.76011e-05
0.00482485
-8.87958e-05
0.00486977
-8.998e-05
0.00491527
-9.11411e-05
0.00496134
-9.2265e-05
0.00500793
-9.33362e-05
0.00505502
-9.43379e-05
0.00510257
-9.52519e-05
0.00515052
-9.60589e-05
0.0051988
-9.67384e-05
0.00524735
-9.72692e-05
0.00529607
-9.76292e-05
0.00534488
-9.77964e-05
0.00539365
-9.77483e-05
0.00544228
-9.74631e-05
0.00549063
-9.69197e-05
0.00553857
-9.60984e-05
0.00558595
-9.49811e-05
0.00563261
-9.35526e-05
0.00567839
-9.18003e-05
0.00572312
-8.97152e-05
0.00576665
-8.72929e-05
0.00580879
-8.45331e-05
0.00584938
-8.1441e-05
0.00588827
-7.80272e-05
0.0059253
-7.43081e-05
0.00596032
-7.03056e-05
0.00599322
-6.60476e-05
0.00602388
-6.15671e-05
0.00605221
-5.6902e-05
0.00607814
-5.2094e-05
0.00610162
-4.71882e-05
0.00612263
-4.22315e-05
0.00614116
-3.72714e-05
0.00615724
-3.23549e-05
0.00617091
-2.75269e-05
0.00618224
-2.28291e-05
0.0061913
-1.82988e-05
0.00619821
-1.39678e-05
0.00620307
-9.86178e-06
0.00620601
-6.0003e-06
0.00620715
-2.39552e-06
0.00620662
9.45322e-07
0.00620456
4.02447e-06
0.0062011
6.84138e-06
0.00619635
9.41958e-06
0.00619045
1.17401e-05
0.00618347
1.38963e-05
0.00617559
1.57266e-05
1.76915e-05
0.00298358
-0.000117514
0.00302123
-0.000115216
0.00305831
-0.000113363
0.0030949
-0.000111777
0.00313105
-0.000110392
0.00316682
-0.000109189
0.00320226
-0.000108148
0.00323742
-0.000107247
0.00327234
-0.000106467
0.00330704
-0.000105794
0.00334156
-0.000105214
0.00337593
-0.000104718
0.00341016
-0.000104297
0.00344429
-0.000103943
0.00347833
-0.000103651
0.00351229
-0.000103415
0.0035462
-0.000103232
0.00358008
-0.0001031
0.00361393
-0.000103015
0.00364778
-0.000102978
0.00368163
-0.000102986
0.00371551
-0.000103041
0.00374943
-0.000103142
0.0037834
-0.000103289
0.00381745
-0.000103485
0.00385158
-0.000103731
0.00388581
-0.000104028
0.00392016
-0.000104378
0.00395466
-0.000104784
0.00398931
-0.000105247
0.00402414
-0.000105771
0.00405917
-0.000106358
0.00409443
-0.00010701
0.00412992
-0.00010773
0.00416568
-0.00010852
0.00420173
-0.000109382
0.0042381
-0.000110318
0.00427481
-0.00011133
0.00431188
-0.000112419
0.00434934
-0.000113584
0.00438722
-0.000114827
0.00442553
-0.000116146
0.00446432
-0.00011754
0.00450359
-0.000119007
0.00454338
-0.000120541
0.0045837
-0.000122139
0.00462456
-0.000123794
0.004666
-0.000125499
0.00470802
-0.000127243
0.00475063
-0.000129017
0.00479384
-0.000130807
0.00483764
-0.000132597
0.00488203
-0.000134372
0.004927
-0.000136113
0.00497253
-0.000137797
0.0050186
-0.000139403
0.00506517
-0.000140905
0.00511219
-0.000142275
0.00515962
-0.000143486
0.00520739
-0.000144506
0.00525542
-0.000145303
0.00530364
-0.000145846
0.00535194
-0.000146099
0.00540022
-0.000146031
0.00544837
-0.000145609
0.00549625
-0.0001448
0.00554373
-0.000143576
0.00559066
-0.00014191
0.00563688
-0.000139778
0.00568224
-0.000137162
0.00572657
-0.000134048
0.00576971
-0.00013043
0.00581149
-0.000126308
0.00585173
-0.000121688
0.00589029
-0.000116587
0.00592702
-0.00011103
0.00596176
-0.000105049
0.0059944
-9.86857e-05
0.00602482
-9.19895e-05
0.00605293
-8.50171e-05
0.00607867
-7.78309e-05
0.00610198
-7.04983e-05
0.00612284
-6.30894e-05
0.00614124
-5.56753e-05
0.00615722
-4.83263e-05
0.0061708
-4.11094e-05
0.00618206
-3.40871e-05
0.00619107
-2.73151e-05
0.00619794
-2.0841e-05
0.00620279
-1.47033e-05
0.00620572
-8.93109e-06
0.00620686
-3.54269e-06
0.00620636
1.45116e-06
0.00620433
6.05374e-06
0.00620091
1.02643e-05
0.00619621
1.41179e-05
0.00619036
1.75862e-05
0.00618345
2.08088e-05
0.00617563
2.3544e-05
2.64805e-05
0.0030478
-0.000154501
0.00308413
-0.000151546
0.00311995
-0.000149183
0.00315533
-0.000147158
0.00319032
-0.000145384
0.00322498
-0.000143842
0.00325933
-0.000142507
0.00329344
-0.000141351
0.00332732
-0.000140351
0.00336102
-0.000139488
0.00339455
-0.000138747
0.00342795
-0.000138113
0.00346122
-0.000137576
0.00349441
-0.000137127
0.00352752
-0.000136758
0.00356056
-0.000136463
0.00359357
-0.000136237
0.00362655
-0.000136077
0.00365951
-0.000135981
0.00369248
-0.000135946
0.00372547
-0.000135972
0.00375848
-0.000136058
0.00379155
-0.000136206
0.00382467
-0.000136415
0.00385788
-0.000136688
0.00389117
-0.000137027
0.00392458
-0.000137434
0.00395811
-0.000137911
0.00399179
-0.000138462
0.00402563
-0.000139089
0.00405966
-0.000139796
0.00409388
-0.000140586
0.00412834
-0.000141463
0.00416304
-0.00014243
0.00419801
-0.000143489
0.00423327
-0.000144644
0.00426885
-0.000145897
0.00430477
-0.00014725
0.00434105
-0.000148705
0.00437773
-0.000150262
0.00441483
-0.000151922
0.00445236
-0.000153682
0.00449036
-0.000155542
0.00452885
-0.000157498
0.00456786
-0.000159544
0.00460739
-0.000161674
0.00464748
-0.00016388
0.00468813
-0.000166152
0.00472936
-0.000168477
0.00477119
-0.00017084
0.00481361
-0.000173225
0.00485662
-0.000175612
0.00490023
-0.000177978
0.00494441
-0.000180298
0.00498916
-0.000182544
0.00503444
-0.000184686
0.00508023
-0.000186691
0.00512647
-0.000188521
0.00517313
-0.00019014
0.00522013
-0.000191506
0.0052674
-0.000192577
0.00531486
-0.00019331
0.00536242
-0.00019366
0.00540998
-0.000193584
0.0054574
-0.000193037
0.00550458
-0.000191979
0.00555138
-0.000190369
0.00559764
-0.000188172
0.00564322
-0.000185357
0.00568796
-0.0001819
0.00573169
-0.000177782
0.00577425
-0.000172995
0.00581548
-0.000167537
0.00585522
-0.000161419
0.00589329
-0.000154662
0.00592956
-0.000147299
0.00596388
-0.000139371
0.00599613
-0.000130936
0.0060262
-0.000122058
0.00605399
-0.000112812
0.00607944
-0.000103281
0.0061025
-9.35548e-05
0.00612314
-8.37264e-05
0.00614135
-7.389e-05
0.00615716
-6.41389e-05
0.00617062
-5.45625e-05
0.00618177
-4.52436e-05
0.00619072
-3.62562e-05
0.00619754
-2.76636e-05
0.00620235
-1.95171e-05
0.00620528
-1.18552e-05
0.00620644
-4.7025e-06
0.00620596
1.92673e-06
0.00620398
8.03681e-06
0.00620062
1.36265e-05
0.00619599
1.87426e-05
0.00619023
2.33471e-05
0.00618341
2.76256e-05
0.0061757
3.12567e-05
3.51552e-05
0.00313207
-0.000189663
0.00316666
-0.000186137
0.00320083
-0.000183352
0.00323464
-0.000180962
0.00326811
-0.000178859
0.0033013
-0.00017703
0.00333424
-0.000175444
0.00336696
-0.000174072
0.00339949
-0.000172884
0.00343186
-0.00017186
0.0034641
-0.000170982
0.00349622
-0.000170233
0.00352824
-0.000169601
0.00356019
-0.000169075
0.00359208
-0.000168646
0.00362392
-0.000168307
0.00365574
-0.000168053
0.00368754
-0.00016788
0.00371934
-0.000167784
0.00375116
-0.000167763
0.003783
-0.000167817
0.00381489
-0.000167946
0.00384684
-0.00016815
0.00387885
-0.000168431
0.00391096
-0.000168791
0.00394316
-0.000169231
0.00397548
-0.000169755
0.00400794
-0.000170367
0.00404054
-0.000171069
0.00407332
-0.000171867
0.00410629
-0.000172763
0.00413946
-0.000173762
0.00417287
-0.000174868
0.00420653
-0.000176086
0.00424046
-0.000177419
0.00427468
-0.00017887
0.00430923
-0.000180442
0.00434412
-0.000182139
0.00437937
-0.000183962
0.00441502
-0.000185912
0.00445109
-0.000187989
0.0044876
-0.000190192
0.00452458
-0.000192517
0.00456204
-0.000194962
0.00460002
-0.000197519
0.00463852
-0.000200181
0.00467758
-0.000202937
0.0047172
-0.000205775
0.0047574
-0.000208679
0.00479819
-0.000211631
0.00483958
-0.00021461
0.00488156
-0.000217592
0.00492413
-0.000220549
0.00496728
-0.000223449
0.005011
-0.000226259
0.00505525
-0.000228939
0.00510001
-0.00023145
0.00514523
-0.000233745
0.00519087
-0.000235777
0.00523686
-0.000237497
0.00528314
-0.00023885
0.00532961
-0.000239785
0.0053762
-0.000240245
0.00542279
-0.000240176
0.00546927
-0.000239522
0.00551553
-0.000238234
0.00556142
-0.00023626
0.0056068
-0.000233557
0.00565153
-0.000230087
0.00569545
-0.000225818
0.0057384
-0.000220728
0.00578021
-0.000214806
0.00582072
-0.000208049
0.00585977
-0.000200472
0.00589721
-0.000192099
0.00593288
-0.00018297
0.00596665
-0.00017314
0.00599839
-0.000162676
0.00602799
-0.00015166
0.00605537
-0.000140185
0.00608044
-0.000128354
0.00610316
-0.000116278
0.00612351
-0.000104073
0.00614147
-9.18559e-05
0.00615708
-7.97434e-05
0.00617036
-6.78462e-05
0.00618139
-5.62674e-05
0.00619023
-4.50992e-05
0.00619699
-3.44207e-05
0.00620176
-2.42955e-05
0.00620468
-1.47719e-05
0.00620586
-5.88037e-06
0.00620542
2.36096e-06
0.0062035
9.95744e-06
0.00620022
1.69073e-05
0.0061957
2.32687e-05
0.00619005
2.89939e-05
0.00618336
3.43143e-05
0.00617579
3.88292e-05
4.36771e-05
0.00323526
-0.000222601
0.00326773
-0.000218608
0.00329988
-0.000215506
0.00333176
-0.000212837
0.00336338
-0.000210479
0.00339477
-0.000208423
0.00342597
-0.000206641
0.00345699
-0.000205097
0.00348787
-0.000203762
0.00351862
-0.000202613
0.00354927
-0.000201628
0.00357983
-0.000200792
0.00361032
-0.00020009
0.00364076
-0.00019951
0.00367115
-0.000199042
0.00370152
-0.000198679
0.00373189
-0.000198415
0.00376225
-0.000198244
0.00379263
-0.000198164
0.00382304
-0.000198173
0.00385349
-0.000198269
0.003884
-0.000198453
0.00391458
-0.000198726
0.00394523
-0.00019909
0.00397599
-0.000199546
0.00400686
-0.000200099
0.00403785
-0.00020075
0.00406899
-0.000201505
0.00410029
-0.000202368
0.00413177
-0.000203343
0.00416344
-0.000204436
0.00419533
-0.00020565
0.00422745
-0.000206992
0.00425983
-0.000208466
0.00429249
-0.000210076
0.00432545
-0.000211828
0.00435873
-0.000213724
0.00439236
-0.000215767
0.00442635
-0.00021796
0.00446075
-0.000220305
0.00449556
-0.0002228
0.00453081
-0.000225445
0.00456653
-0.000228236
0.00460273
-0.000231169
0.00463945
-0.000234236
0.0046767
-0.000237428
0.00471449
-0.000240733
0.00475285
-0.000244135
0.00479179
-0.000247617
0.00483132
-0.000251157
0.00487144
-0.000254729
0.00491215
-0.000258305
0.00495345
-0.000261853
0.00499534
-0.000265334
0.00503779
-0.000268708
0.00508078
-0.000271929
0.00512428
-0.000274949
0.00516825
-0.000277714
0.00521264
-0.000280167
0.00525739
-0.000282249
0.00530244
-0.000283897
0.0053477
-0.000285046
0.00539308
-0.000285632
0.0054385
-0.000285587
0.00548382
-0.000284849
0.00552894
-0.000283354
0.00557373
-0.000281044
0.00561803
-0.000277866
0.00566172
-0.000273773
0.00570463
-0.000268729
0.00574661
-0.000262706
0.00578749
-0.00025569
0.00582712
-0.00024768
0.00586534
-0.00023869
0.00590199
-0.00022875
0.00593693
-0.000217908
0.00597002
-0.000206227
0.00600113
-0.000193788
0.00603016
-0.000180689
0.00605702
-0.00016704
0.00608163
-0.000152963
0.00610394
-0.000138591
0.00612393
-0.000124063
0.00614159
-0.000109517
0.00615694
-9.50927e-05
0.00617002
-8.09225e-05
0.00618088
-6.71293e-05
0.0061896
-5.38233e-05
0.00619628
-4.10989e-05
0.00620102
-2.90323e-05
0.00620393
-1.76814e-05
0.00620513
-7.08263e-06
0.00620475
2.74199e-06
0.00620291
1.17988e-05
0.00619973
2.00851e-05
0.00619533
2.76706e-05
0.00618982
3.44975e-05
0.00618329
4.08424e-05
0.0061759
4.62262e-05
5.20079e-05
0.00335597
-0.000252956
0.00338597
-0.000248613
0.00341578
-0.00024531
0.0034454
-0.000242462
0.00347486
-0.000239931
0.00350415
-0.00023772
0.00353331
-0.000235802
0.00356236
-0.000234141
0.0035913
-0.000232706
0.00362016
-0.000231472
0.00364895
-0.000230418
0.00367769
-0.000229528
0.00370638
-0.000228786
0.00373505
-0.000228178
0.0037637
-0.000227696
0.00379236
-0.000227332
0.00382102
-0.000227077
0.0038497
-0.000226929
0.00387842
-0.000226883
0.00390719
-0.000226938
0.00393601
-0.000227093
0.00396491
-0.000227348
0.00399388
-0.000227704
0.00402296
-0.000228164
0.00405214
-0.00022873
0.00408145
-0.000229406
0.00411089
-0.000230196
0.00414049
-0.000231105
0.00417026
-0.000232137
0.00420022
-0.000233299
0.00423038
-0.000234596
0.00426076
-0.000236034
0.00429139
-0.000237618
0.00432228
-0.000239354
0.00435345
-0.000241248
0.00438493
-0.000243304
0.00441673
-0.000245526
0.00444888
-0.000247919
0.00448141
-0.000250485
0.00451433
-0.000253225
0.00454767
-0.00025614
0.00458145
-0.000259227
0.0046157
-0.000262484
0.00465043
-0.000265904
0.00468568
-0.00026948
0.00472145
-0.000273201
0.00475777
-0.000277052
0.00479465
-0.000281017
0.00483211
-0.000285074
0.00487015
-0.0002892
0.00490879
-0.000293364
0.00494802
-0.000297534
0.00498783
-0.000301671
0.00502823
-0.000305733
0.0050692
-0.000309673
0.00511071
-0.000313438
0.00515273
-0.000316972
0.00519523
-0.000320212
0.00523815
-0.000323094
0.00528145
-0.000325549
0.00532506
-0.000327503
0.0053689
-0.000328882
0.00541288
-0.000329611
0.0054569
-0.000329614
0.00550087
-0.000328815
0.00554466
-0.000327142
0.00558814
-0.000324527
0.00563118
-0.000320909
0.00567364
-0.000316233
0.00571537
-0.000310456
0.00575621
-0.000303546
0.005796
-0.000295487
0.0058346
-0.000286275
0.00587184
-0.000275928
0.00590757
-0.000264479
0.00594164
-0.000251983
0.00597393
-0.000238513
0.0060043
-0.000224164
0.00603266
-0.000209045
0.0060589
-0.000193286
0.00608297
-0.000177028
0.0061048
-0.000160424
0.00612437
-0.000143634
0.00614168
-0.000126821
0.00615673
-0.000110144
0.00616956
-9.37567e-05
0.00618024
-7.78027e-05
0.00618882
-6.24095e-05
0.00619541
-4.76867e-05
0.0062001
-3.37228e-05
0.006203
-2.05854e-05
0.00620424
-8.31684e-06
0.00620392
3.05694e-06
0.00620218
1.3543e-05
0.00619913
2.31379e-05
0.00619488
3.19223e-05
0.00618954
3.98283e-05
0.00618321
4.7177e-05
0.00617602
5.3412e-05
6.0109e-05
0.00349259
-0.000280413
0.00351982
-0.000275844
0.00354698
-0.000272467
0.00357406
-0.000269548
0.00360107
-0.000266936
0.003628
-0.000264649
0.00365486
-0.000262664
0.00368166
-0.000260945
0.00370842
-0.000259462
0.00373514
-0.00025819
0.00376183
-0.000257109
0.0037885
-0.000256202
0.00381517
-0.000255453
0.00384184
-0.000254849
0.00386853
-0.000254381
0.00389523
-0.00025404
0.00392198
-0.00025382
0.00394876
-0.000253716
0.00397561
-0.000253726
0.00400251
-0.000253846
0.0040295
-0.000254077
0.00405657
-0.00025442
0.00408374
-0.000254876
0.00411103
-0.000255447
0.00413843
-0.000256137
0.00416598
-0.00025695
0.00419367
-0.000257891
0.00422153
-0.000258965
0.00424958
-0.000260179
0.00427781
-0.000261538
0.00430627
-0.000263048
0.00433495
-0.000264717
0.00436388
-0.000266551
0.00439308
-0.000268556
0.00442257
-0.000270739
0.00445237
-0.000273104
0.00448251
-0.000275657
0.00451299
-0.000278403
0.00454385
-0.000281343
0.0045751
-0.000284481
0.00460678
-0.000287815
0.0046389
-0.000291345
0.00467148
-0.000295067
0.00470455
-0.000298974
0.00473813
-0.000303057
0.00477223
-0.000307304
0.00480688
-0.000311699
0.00484208
-0.000316224
0.00487786
-0.000320854
0.00491422
-0.000325563
0.00495118
-0.000330316
0.00498872
-0.000335078
0.00502685
-0.000339804
0.00506557
-0.000344448
0.00510485
-0.000348954
0.00514468
-0.000353266
0.00518502
-0.000357317
0.00522585
-0.00036104
0.00526712
-0.00036436
0.00530876
-0.000367197
0.00535073
-0.000369472
0.00539295
-0.000371099
0.00543533
-0.000371992
0.00547778
-0.000372065
0.0055202
-0.000371233
0.00556247
-0.000369414
0.00560448
-0.00036653
0.00564608
-0.000362511
0.00568714
-0.000357296
0.00572752
-0.000350835
0.00576707
-0.000343091
0.00580562
-0.000334043
0.00584304
-0.00032369
0.00587916
-0.000312048
0.00591384
-0.000299157
0.00594693
-0.000285076
0.0059783
-0.000269888
0.00600784
-0.000253699
0.00603543
-0.000236635
0.00606098
-0.000218839
0.00608443
-0.000200473
0.00610571
-0.00018171
0.00612481
-0.000162731
0.00614171
-0.000143719
0.00615642
-0.000124856
0.00616898
-0.000106317
0.00617944
-8.82642e-05
0.00618788
-7.08418e-05
0.00619437
-5.4175e-05
0.00619901
-3.83645e-05
0.00620191
-2.34873e-05
0.00620318
-9.59191e-06
0.00620295
3.29183e-06
0.00620132
1.51717e-05
0.00619842
2.60429e-05
0.00619434
3.59971e-05
0.00618921
4.49561e-05
0.0061831
5.32849e-05
0.00617617
6.03506e-05
6.79414e-05
0.0036433
-0.000304709
0.0036675
-0.000300043
0.00369176
-0.000296724
0.00371605
-0.000293848
0.00374037
-0.000291251
0.00376469
-0.000288971
0.00378902
-0.000286994
0.00381336
-0.000285282
0.00383771
-0.000283809
0.00386207
-0.00028255
0.00388644
-0.000281488
0.00391085
-0.000280605
0.00393528
-0.000279886
0.00395975
-0.00027932
0.00398427
-0.000278897
0.00400884
-0.000278609
0.00403347
-0.00027845
0.00405816
-0.000278415
0.00408294
-0.000278502
0.0041078
-0.00027871
0.00413276
-0.000279038
0.00415783
-0.000279487
0.00418302
-0.00028006
0.00420833
-0.000280759
0.00423378
-0.000281588
0.00425938
-0.000282553
0.00428515
-0.000283659
0.0043111
-0.000284912
0.00433724
-0.000286318
0.00436358
-0.000287884
0.00439015
-0.000289618
0.00441696
-0.000291527
0.00444403
-0.000293619
0.00447137
-0.0002959
0.00449901
-0.000298377
0.00452696
-0.000301057
0.00455525
-0.000303945
0.0045839
-0.000307046
0.00461292
-0.000310364
0.00464233
-0.0003139
0.00467217
-0.000317655
0.00470246
-0.000321627
0.0047332
-0.000325812
0.00476443
-0.000330203
0.00479616
-0.000334791
0.00482842
-0.000339562
0.00486122
-0.000344498
0.00489458
-0.00034958
0.0049285
-0.00035478
0.00496301
-0.000360068
0.0049981
-0.000365408
0.00503378
-0.000370759
0.00507005
-0.000376073