/*--------------------------------*- C++ -*----------------------------------*\
  =========                 |
  \\      /  F ield         | OpenFOAM: The Open Source CFD Toolbox
   \\    /   O peration     | Website:  https://openfoam.org
    \\  /    A nd           | Version:  7
     \\/     M anipulation  |
\*---------------------------------------------------------------------------*/
FoamFile
{
    version     2.0;
    format      ascii;
    class       volVectorField;
    location    "10";
    object      U;
}
// * * * * * * * * * * * * * * * * * * * * * * * * * * * * * * * * * * * * * //

dimensions      [0 1 -1 0 0 0 0];

internalField   nonuniform List<vector> 
21000
(
(0.240139 -0.00347367 1.00467e-21)
(0.271641 -0.0035995 3.10081e-21)
(0.302445 -0.00368711 -1.70795e-21)
(0.336014 -0.00383792 -3.83664e-21)
(0.366461 -0.00379059 -3.86351e-22)
(0.402146 -0.00432009 -1.71677e-21)
(0.242465 -0.0103972 5.32413e-21)
(0.274221 -0.0107714 -7.08733e-21)
(0.305268 -0.0110323 3.4239e-21)
(0.339142 -0.0114792 1.09288e-20)
(0.369768 -0.0113399 -2.58211e-22)
(0.405958 -0.0129079 -8.23529e-22)
(0.247104 -0.0172634 6.03116e-21)
(0.279364 -0.0178753 6.40227e-21)
(0.310894 -0.0183019 -7.33018e-21)
(0.345371 -0.019026 -8.87882e-21)
(0.376349 -0.0187986 2.94009e-21)
(0.413537 -0.0213384 1.16367e-20)
(0.254031 -0.0240347 -7.44713e-21)
(0.287039 -0.0248666 -5.74108e-21)
(0.319281 -0.0254465 1.21324e-20)
(0.354647 -0.0264164 2.12519e-21)
(0.386144 -0.0261074 -7.43532e-21)
(0.424798 -0.0295099 -9.74433e-21)
(0.26321 -0.0306735 1.97339e-21)
(0.297196 -0.0317013 -6.11306e-21)
(0.330369 -0.0324171 5.59582e-21)
(0.366891 -0.03359 -1.50036e-20)
(0.399058 -0.0332092 -5.60982e-21)
(0.439608 -0.0373258 5.00083e-21)
(0.27459 -0.0371433 -3.63866e-20)
(0.309771 -0.0383364 -5.41856e-21)
(0.344078 -0.0391666 8.18464e-21)
(0.381998 -0.0404888 9.84409e-21)
(0.414969 -0.0400492 1.83874e-20)
(0.457797 -0.0446964 -4.384e-21)
(0.288112 -0.0434082 4.70074e-20)
(0.324686 -0.0447303 4.07306e-20)
(0.360308 -0.0456493 -3.16564e-20)
(0.39984 -0.0470575 1.71164e-20)
(0.433729 -0.0465757 -1.13604e-20)
(0.479157 -0.0515406 -2.37694e-21)
(0.303703 -0.0494334 -2.11909e-20)
(0.341847 -0.0508429 -1.63993e-20)
(0.378945 -0.0518216 3.25861e-20)
(0.420265 -0.0532443 -7.0303e-21)
(0.455164 -0.0527407 -2.70881e-20)
(0.503445 -0.057787 2.20036e-20)
(0.321279 -0.0551855 -2.50702e-20)
(0.361148 -0.0566363 -3.34759e-20)
(0.399855 -0.0576424 -3.77544e-20)
(0.443103 -0.0590015 4.32937e-21)
(0.479076 -0.0584998 1.28725e-20)
(0.530384 -0.0633759 -3.18277e-20)
(0.382468 -0.0620745 5.1108e-20)
(0.42289 -0.0630735 1.48919e-20)
(0.468163 -0.0642859 -3.26976e-21)
(0.50525 -0.0638128 4.30379e-20)
(0.559676 -0.0682595 8.55471e-21)
(0.405677 -0.0671244 -8.00156e-20)
(0.447889 -0.0680796 -8.23313e-22)
(0.49524 -0.0690595 -1.74464e-20)
(0.533452 -0.0686437 4.17468e-21)
(0.590995 -0.072403 -4.86557e-21)
(0.430633 -0.0717552 7.2156e-20)
(0.474679 -0.072629 1.21177e-20)
(0.524113 -0.0732898 2.01125e-20)
(0.563435 -0.0729608 -4.08872e-20)
(0.624005 -0.0757848 2.38866e-20)
(0.457184 -0.0759395 -9.20275e-21)
(0.503076 -0.0766934 -9.28239e-21)
(0.554552 -0.0769505 -1.97799e-20)
(0.594941 -0.0767372 3.21041e-20)
(0.658355 -0.0783962 -3.83234e-20)
(0.485171 -0.0796531 5.5113e-22)
(0.532887 -0.0802489 -4.59942e-21)
(0.586316 -0.0800216 4.72414e-20)
(0.627704 -0.0799505 -8.80145e-21)
(0.693692 -0.0802414 3.92601e-20)
(0.514427 -0.0828753 2.66193e-22)
(0.563912 -0.0832756 3.0247e-20)
(0.619159 -0.0824897 -6.40982e-20)
(0.661453 -0.0825836 4.64117e-20)
(0.729664 -0.0813364 -3.27007e-20)
(0.54478 -0.0855891 -5.04891e-20)
(0.595945 -0.0857581 -2.6552e-20)
(0.652834 -0.0843483 8.41177e-20)
(0.695916 -0.0846243 -6.4282e-20)
(0.765926 -0.0817082 -3.52408e-21)
(0.576054 -0.0877814 2.81514e-20)
(0.62878 -0.0876855 1.03682e-20)
(0.687091 -0.085598 -5.55338e-20)
(0.730823 -0.0860663 -4.45888e-21)
(0.802146 -0.0813933 3.81602e-20)
(0.608069 -0.0894434 -2.87619e-21)
(0.662207 -0.089052 -3.98169e-20)
(0.721685 -0.0862457 -1.62217e-20)
(0.76591 -0.086909 -1.57424e-20)
(0.838011 -0.0804369 -5.87166e-21)
(0.640646 -0.0905702 2.96068e-20)
(0.696017 -0.0898565 -1.40751e-20)
(0.756376 -0.0863053 6.27305e-20)
(0.800917 -0.0871583 3.28741e-20)
(0.87323 -0.0788909 -2.94254e-20)
(0.673605 -0.0911614 -6.21207e-20)
(0.730004 -0.090103 3.77056e-20)
(0.790931 -0.0857965 -2.92089e-20)
(0.835597 -0.0868263 -6.70071e-20)
(0.90754 -0.0768123 4.77347e-20)
(0.706766 -0.0912205 3.89335e-20)
(0.763967 -0.0898003 2.35843e-20)
(0.825131 -0.0847449 -3.30387e-20)
(0.869719 -0.0859315 7.33606e-20)
(0.940706 -0.0742621 -4.41583e-20)
(0.739956 -0.0907557 2.80107e-21)
(0.797711 -0.088962 -2.76045e-20)
(0.858768 -0.0831809 8.60358e-21)
(0.903063 -0.084499 2.98772e-20)
(0.972527 -0.0713033 -7.29323e-22)
(0.831052 -0.0876068 2.61814e-20)
(0.89165 -0.0811394 -4.205e-20)
(0.935434 -0.0825599 -1.12946e-20)
(1.00283 -0.0679996 -1.2056e-20)
(0.863814 -0.0857573 -3.63279e-20)
(0.923603 -0.0786588 3.54532e-20)
(0.966652 -0.0801508 -3.10583e-20)
(1.03149 -0.0644141 3.32692e-20)
(0.895833 -0.0834408 -8.58983e-21)
(0.954472 -0.0757802 5.08492e-20)
(0.996565 -0.0773131 6.8276e-20)
(1.05839 -0.0606079 -2.10526e-21)
(0.92696 -0.0806878 8.24425e-20)
(0.98412 -0.0725467 -4.81372e-20)
(1.02504 -0.0740923 -5.48503e-21)
(1.08347 -0.0566393 -2.91588e-20)
(0.95706 -0.0775324 -9.28153e-21)
(1.01243 -0.0690027 4.47198e-22)
(1.05198 -0.0705363 -3.18785e-20)
(1.1067 -0.0525625 -2.06091e-21)
(0.986015 -0.0740111 -2.31727e-20)
(1.03932 -0.0651928 -2.4295e-21)
(1.0773 -0.0666951 -5.13585e-20)
(1.12805 -0.048427 4.96812e-20)
(1.01372 -0.0701626 7.04007e-20)
(1.0647 -0.0611615 6.91085e-20)
(1.10094 -0.0626189 -2.89033e-20)
(1.14755 -0.0442777 -1.10298e-19)
(1.0401 -0.0660268 -1.72002e-19)
(1.08853 -0.0569522 -1.02549e-19)
(1.12288 -0.0583573 3.20331e-20)
(1.16523 -0.0401536 1.09394e-19)
(1.11078 -0.052607 1.14323e-20)
(1.14311 -0.0539577 8.01601e-20)
(1.18114 -0.0360887 -1.38601e-20)
(1.13142 -0.0481658 1.20764e-19)
(1.16164 -0.0494649 6.04193e-21)
(1.19535 -0.032112 -4.44857e-20)
(1.15047 -0.0436662 -6.91931e-20)
(1.1785 -0.0449198 -9.74804e-20)
(1.20795 -0.0282478 6.11059e-20)
(1.16794 -0.039143 2.5666e-20)
(1.19375 -0.0403584 -1.40208e-20)
(1.21901 -0.0245168 -1.35505e-19)
(1.18387 -0.0346278 9.33257e-21)
(1.20745 -0.0358119 -6.05449e-20)
(1.22864 -0.0209387 1.24596e-19)
(1.19831 -0.0301491 -1.29442e-20)
(1.21966 -0.0313058 1.21652e-19)
(1.23692 -0.0175338 -5.7242e-20)
(1.23047 -0.0268599 6.68585e-20)
(1.24394 -0.0143206 9.49947e-20)
(1.23996 -0.0224849 -4.42416e-20)
(1.24979 -0.0113123 -7.47726e-20)
(1.24821 -0.0181808 1.42162e-20)
(1.25454 -0.00856223 -1.41576e-20)
(1.25529 -0.0139521 -1.17126e-20)
(1.25838 -0.00632286 1.33743e-20)
(1.26172 -0.00495698 -9.73488e-21)
(1.26521 -0.00346429 1.22865e-20)
(1.26816 -0.0016867 8.58992e-20)
(1.27047 0.000265793 1.15132e-20)
(1.27044 -0.000244031 -1.39011e-19)
(1.26814 0.00170575 7.3416e-20)
(1.26519 0.00347976 9.82299e-21)
(1.26168 0.00498391 -1.65746e-20)
(1.2553 0.0139516 -8.46202e-20)
(1.25835 0.0063322 1.08819e-20)
(1.24821 0.0181827 1.80401e-20)
(1.25451 0.00856803 -7.65627e-21)
(1.23997 0.0224886 -6.59603e-20)
(1.24977 0.011318 -7.46201e-20)
(1.23048 0.0268647 6.98722e-20)
(1.24393 0.014326 7.50566e-20)
(1.19831 0.0301533 -5.70773e-20)
(1.21967 0.0313114 1.29868e-19)
(1.23691 0.0175389 -8.0328e-20)
(1.18387 0.0346318 7.53829e-21)
(1.20746 0.0358179 -5.71816e-20)
(1.22863 0.0209438 1.24024e-19)
(1.16794 0.0391467 2.68399e-20)
(1.19376 0.0403647 -7.24852e-21)
(1.21901 0.024522 -1.23622e-19)
(1.15047 0.0436698 -7.19791e-20)
(1.17851 0.0449262 -1.00576e-19)
(1.20795 0.028253 5.54595e-20)
(1.13142 0.0481692 1.08904e-19)
(1.16164 0.0494714 1.16939e-20)
(1.19535 0.0321174 -3.38717e-20)
(1.11078 0.0526102 4.64799e-21)
(1.14311 0.0539641 8.11871e-20)
(1.18114 0.0360943 1.78224e-21)
(1.0401 0.0660289 -1.83288e-20)
(1.08854 0.0569553 -9.9361e-20)
(1.12288 0.0583635 4.18088e-20)
(1.16523 0.0401592 1.0395e-19)
(1.01373 0.0701646 7.63821e-20)
(1.06471 0.0611644 6.33686e-20)
(1.10095 0.062625 -3.24332e-20)
(1.14755 0.0442833 -1.05114e-19)
(0.986021 0.074013 -3.87275e-20)
(1.03932 0.0651955 1.72707e-21)
(1.0773 0.0667009 -5.3757e-20)
(1.12806 0.0484327 5.83253e-20)
(0.957066 0.0775341 -2.72404e-21)
(1.01244 0.0690052 4.38625e-21)
(1.05199 0.0705418 -3.80096e-20)
(1.1067 0.0525681 8.15935e-21)
(0.926966 0.0806893 9.10478e-20)
(0.984126 0.072549 -5.66573e-20)
(1.02505 0.0740975 -9.05248e-21)
(1.08348 0.0566448 -1.96292e-20)
(0.895839 0.0834421 -1.71229e-20)
(0.954478 0.0757823 4.65544e-20)
(0.996573 0.0773181 6.67958e-20)
(1.0584 0.0606134 2.06578e-21)
(0.863821 0.0857584 -2.86219e-20)
(0.92361 0.0786607 4.25173e-20)
(0.966661 0.0801554 -3.6254e-20)
(1.0315 0.0644193 3.29162e-20)
(0.773009 0.0897786 -9.44188e-20)
(0.831059 0.0876076 3.1779e-20)
(0.891657 0.0811411 -4.78192e-20)
(0.935443 0.0825642 -1.29295e-20)
(1.00284 0.0680047 -1.31097e-20)
(0.739961 0.0907551 1.28469e-20)
(0.797719 0.0889627 -3.57635e-20)
(0.858776 0.0831824 1.90204e-20)
(0.903073 0.084503 2.61453e-20)
(0.972537 0.0713081 -7.52667e-21)
(0.706772 0.0912196 3.36777e-20)
(0.763974 0.0898006 3.3367e-20)
(0.825139 0.0847461 -3.43178e-20)
(0.869729 0.0859352 7.4566e-20)
(0.940717 0.0742667 -4.30073e-20)
(0.673611 0.0911602 -6.94781e-20)
(0.730011 0.0901031 3.85086e-20)
(0.79094 0.0857975 -3.49422e-20)
(0.835608 0.0868296 -5.874e-20)
(0.907552 0.0768167 4.31064e-20)
(0.640652 0.0905688 3.36507e-20)
(0.696025 0.0898564 -9.31584e-21)
(0.756385 0.086306 5.76328e-20)
(0.800927 0.0871613 3.47601e-20)
(0.873242 0.078895 -3.1713e-20)
(0.608075 0.0894418 -2.02214e-21)
(0.662215 0.0890516 -4.08986e-20)
(0.721694 0.0862462 -1.6171e-20)
(0.765921 0.0869117 -1.58473e-20)
(0.838023 0.0804407 -6.49288e-21)
(0.57606 0.0877796 3.52508e-20)
(0.628788 0.0876848 9.79777e-21)
(0.687101 0.0855981 -5.22866e-20)
(0.730835 0.0860686 -3.89451e-21)
(0.802159 0.0813968 3.55069e-20)
(0.544786 0.0855869 -4.1875e-20)
(0.595953 0.085757 -2.85328e-20)
(0.652843 0.0843482 7.57184e-20)
(0.695927 0.0846262 -6.41749e-20)
(0.765939 0.0817113 -5.50189e-24)
(0.514432 0.0828729 4.67299e-21)
(0.563919 0.0832743 2.72046e-20)
(0.619169 0.0824892 -6.34066e-20)
(0.661464 0.0825852 3.98043e-20)
(0.729677 0.0813393 -2.89536e-20)
(0.485176 0.0796505 4.02509e-21)
(0.532894 0.0802473 -1.93338e-21)
(0.586325 0.0800209 4.1747e-20)
(0.627715 0.0799518 -1.44441e-20)
(0.693705 0.080244 4.25525e-20)
(0.457189 0.0759367 -5.08982e-21)
(0.503083 0.0766916 -1.52428e-20)
(0.554561 0.0769495 -1.82879e-20)
(0.594952 0.0767381 3.25847e-20)
(0.658368 0.0783985 -3.58925e-20)
(0.430638 0.0717521 7.24329e-20)
(0.474686 0.0726268 1.4624e-20)
(0.524122 0.0732886 1.86251e-20)
(0.563446 0.0729614 -4.11849e-20)
(0.624018 0.0757868 2.48037e-20)
(0.405682 0.0671211 -7.83009e-20)
(0.447896 0.0680772 -1.24471e-21)
(0.495248 0.069058 -1.67264e-20)
(0.533462 0.068644 4.12355e-21)
(0.591008 0.0724048 -6.94678e-21)
(0.382473 0.062071 5.49136e-20)
(0.422896 0.0630709 1.42823e-20)
(0.468171 0.0642842 -2.38175e-21)
(0.505259 0.0638128 4.2266e-20)
(0.559687 0.068261 7.3244e-21)
(0.321283 0.0551815 3.53377e-20)
(0.361152 0.0566326 -3.132e-20)
(0.39986 0.0576396 -3.81221e-20)
(0.44311 0.0589995 6.30249e-21)
(0.479085 0.0584995 9.18719e-21)
(0.530395 0.0633772 -3.09377e-20)
(0.303706 0.0494292 -2.75706e-20)
(0.341851 0.050839 -1.42363e-20)
(0.37895 0.0518185 3.35064e-20)
(0.420272 0.0532421 -5.78101e-21)
(0.455172 0.0527402 -3.06218e-20)
(0.503455 0.0577882 2.27206e-20)
(0.288115 0.0434039 4.8723e-20)
(0.324689 0.0447262 3.60365e-20)
(0.360313 0.045646 -2.73676e-20)
(0.399846 0.0470551 1.51883e-20)
(0.433736 0.0465749 -9.55911e-21)
(0.479166 0.0515416 -3.09534e-21)
(0.274593 0.0371389 -3.39431e-20)
(0.309774 0.0383323 -4.40547e-21)
(0.344082 0.0391632 4.05657e-21)
(0.382003 0.0404863 1.086e-20)
(0.414975 0.0400482 1.8713e-20)
(0.457805 0.0446973 -5.79123e-21)
(0.263212 0.030669 2.36915e-21)
(0.297198 0.0316971 -4.31267e-21)
(0.330372 0.0324136 4.74192e-21)
(0.366895 0.0335874 -1.42846e-20)
(0.399063 0.033208 -5.30817e-21)
(0.439614 0.0373265 4.61237e-21)
(0.254033 0.0240301 -7.27196e-21)
(0.28704 0.0248623 -6.57473e-21)
(0.319284 0.0254428 1.20122e-20)
(0.35465 0.0264136 1.66401e-21)
(0.386148 0.0261062 -6.32295e-21)
(0.424803 0.0295105 -1.0301e-20)
(0.247105 0.0172588 4.99177e-21)
(0.279366 0.0178709 7.59153e-21)
(0.310896 0.0182982 -6.81743e-21)
(0.345373 0.0190232 -1.02003e-20)
(0.376352 0.0187972 3.64218e-21)
(0.413541 0.0213389 1.17961e-20)
(0.242465 0.0103924 5.15942e-21)
(0.274222 0.0107669 -6.87935e-21)
(0.305269 0.0110285 3.43672e-21)
(0.339143 0.0114763 1.12276e-20)
(0.369769 0.0113385 -3.61053e-22)
(0.40596 0.0129084 -3.1906e-22)
(0.240139 0.00346892 9.58787e-22)
(0.271641 0.00359501 3.06899e-21)
(0.302446 0.00368327 -1.71747e-21)
(0.336015 0.00383498 -3.62658e-21)
(0.366462 0.00378911 -6.48582e-22)
(0.402147 0.00432055 -1.5454e-21)
(0.422013 -0.00388806 6.59866e-22)
(0.427958 -0.00376367 -3.48295e-22)
(0.433749 -0.00365497 -4.46725e-24)
(0.439498 -0.00355685 5.26309e-23)
(0.445188 -0.00346731 -4.46095e-23)
(0.450819 -0.00338535 -1.89401e-22)
(0.456401 -0.00330998 1.3797e-22)
(0.461943 -0.00324029 3.24376e-22)
(0.467451 -0.00317553 -2.37642e-22)
(0.472932 -0.00311508 3.93129e-23)
(0.478391 -0.00305843 -6.21421e-23)
(0.483832 -0.00300513 1.73771e-22)
(0.48926 -0.00295483 -1.29237e-22)
(0.494677 -0.00290722 2.6131e-22)
(0.500088 -0.00286205 -3.18743e-22)
(0.505495 -0.00281912 7.30161e-23)
(0.510902 -0.00277825 1.74906e-22)
(0.516311 -0.00273931 -1.5302e-22)
(0.521725 -0.00270217 1.89899e-22)
(0.527146 -0.00266674 -2.57166e-22)
(0.532577 -0.00263295 1.3744e-23)
(0.538021 -0.00260074 1.9517e-22)
(0.54348 -0.00257007 -2.81332e-22)
(0.548956 -0.0025409 2.1547e-22)
(0.554452 -0.00251322 -1.91982e-22)
(0.559971 -0.00248699 1.22998e-22)
(0.565516 -0.00246222 8.4693e-23)
(0.57109 -0.0024389 -2.11729e-23)
(0.576694 -0.00241702 -1.96361e-22)
(0.582334 -0.00239658 1.6959e-22)
(0.588011 -0.0023776 1.91843e-23)
(0.59373 -0.00236005 -5.33726e-23)
(0.599493 -0.00234396 8.33199e-23)
(0.605306 -0.0023293 3.70088e-23)
(0.61117 -0.00231609 -1.65911e-22)
(0.61709 -0.00230429 8.02511e-24)
(0.623071 -0.00229391 7.99414e-23)
(0.629117 -0.00228491 4.0444e-23)
(0.635231 -0.00227727 -6.88595e-23)
(0.641418 -0.00227093 7.42363e-24)
(0.647683 -0.00226586 -7.3758e-23)
(0.654029 -0.00226199 1.51486e-22)
(0.660462 -0.00225924 -1.4222e-22)
(0.666985 -0.00225752 1.5301e-22)
(0.673602 -0.00225674 -8.1995e-23)
(0.680318 -0.00225676 -3.53902e-23)
(0.687135 -0.00225745 -2.56376e-24)
(0.694058 -0.00225867 1.70718e-24)
(0.701089 -0.00226023 4.64869e-23)
(0.708231 -0.00226194 -1.75002e-23)
(0.715485 -0.00226359 4.25438e-23)
(0.722852 -0.00226496 -2.35228e-23)
(0.730334 -0.0022658 -2.03203e-23)
(0.737929 -0.00226584 2.68244e-23)
(0.745636 -0.00226479 -2.32015e-23)
(0.753452 -0.00226237 9.18169e-24)
(0.761373 -0.00225827 -1.14231e-23)
(0.769395 -0.00225216 1.40486e-23)
(0.77751 -0.00224372 -2.63195e-23)
(0.785711 -0.00223263 1.49072e-24)
(0.793987 -0.00221855 2.12888e-23)
(0.802328 -0.00220117 -1.4687e-23)
(0.810719 -0.00218018 -1.59127e-24)
(0.819147 -0.0021553 4.19451e-24)
(0.827594 -0.00212627 4.08173e-24)
(0.836042 -0.00209286 -3.90831e-24)
(0.844471 -0.00205489 6.44706e-25)
(0.852859 -0.00201221 -3.27544e-24)
(0.861184 -0.00196476 -4.14557e-25)
(0.869422 -0.0019125 5.09765e-24)
(0.877546 -0.00185551 6.92531e-25)
(0.885533 -0.00179389 -1.50317e-25)
(0.893354 -0.00172787 -1.94173e-24)
(0.900986 -0.00165772 3.07163e-25)
(0.908401 -0.00158382 -1.36956e-25)
(0.915576 -0.00150662 3.6732e-25)
(0.922488 -0.00142663 -1.81668e-25)
(0.929114 -0.00134445 6.78097e-26)
(0.935436 -0.00126073 -2.6364e-26)
(0.941437 -0.00117616 -7.22824e-26)
(0.947103 -0.00109145 -1.95171e-25)
(0.952425 -0.00100733 1.61546e-25)
(0.957395 -0.000924524 -1.96412e-25)
(0.962012 -0.000843722 1.56476e-25)
(0.966274 -0.000765569 -3.07937e-25)
(0.970187 -0.000690646 4.11269e-25)
(0.973758 -0.000619455 1.23829e-25)
(0.976999 -0.000552405 2.74434e-26)
(0.979922 -0.00048981 -6.46406e-26)
(0.982544 -0.000431876 1.95954e-26)
(0.984883 -0.000378712 -1.95426e-25)
(0.986957 -0.00033032 -1.64139e-26)
(0.988786 -0.000286631 8.77346e-26)
(0.990395 -0.000247457 5.25556e-27)
(0.99179 -0.000212645 1.50017e-25)
(0.993024 -0.000181753 1.33118e-26)
(0.994041 -0.000154865 1.48645e-25)
(0.995026 -0.000130728 1.6401e-25)
(0.995626 -0.000111119 -1.38973e-26)
(0.996667 -9.05867e-05 1.89083e-25)
(0.425691 -0.0116218 3.55711e-22)
(0.431561 -0.0112523 -1.42663e-22)
(0.437277 -0.0109294 -3.78172e-23)
(0.442958 -0.0106378 7.92685e-22)
(0.448585 -0.0103715 5.27966e-22)
(0.454155 -0.0101278 -1.59064e-21)
(0.459678 -0.00990362 1.68536e-22)
(0.465164 -0.00969634 2.27838e-21)
(0.470617 -0.00950373 -1.35002e-21)
(0.476045 -0.00932396 4.66653e-22)
(0.481451 -0.00915549 -4.42885e-22)
(0.486841 -0.00899704 1.26355e-22)
(0.492218 -0.00884753 3.11481e-22)
(0.497586 -0.00870606 -7.01776e-22)
(0.502948 -0.0085719 5.5784e-22)
(0.508307 -0.00844441 1.42628e-22)
(0.513667 -0.00832309 -1.75752e-22)
(0.519029 -0.00820752 -8.82788e-22)
(0.524397 -0.00809736 1.18196e-21)
(0.529772 -0.00799232 -7.2173e-22)
(0.535158 -0.00789219 5.90889e-22)
(0.540558 -0.0077968 -4.74754e-22)
(0.545972 -0.007706 2.0579e-22)
(0.551404 -0.0076197 -2.63281e-22)
(0.556857 -0.00753782 1.56468e-22)
(0.562334 -0.00746032 -6.55271e-23)
(0.567836 -0.00738716 1.78333e-23)
(0.573367 -0.00731832 -1.14547e-22)
(0.57893 -0.00725379 2.39163e-22)
(0.584527 -0.00719356 5.83832e-23)
(0.590163 -0.00713764 -1.46349e-22)
(0.595841 -0.00708603 1.95723e-22)
(0.601563 -0.00703872 -9.33999e-23)
(0.607334 -0.00699569 -8.13641e-23)
(0.613158 -0.00695693 -1.86536e-23)
(0.619038 -0.00692239 4.79963e-23)
(0.624979 -0.00689202 -9.96068e-23)
(0.630984 -0.00686574 -1.31118e-22)
(0.637058 -0.00684346 -6.26324e-23)
(0.643205 -0.00682505 -8.2202e-23)
(0.649429 -0.00681034 1.1311e-22)
(0.655736 -0.00679915 6.6885e-23)
(0.662128 -0.00679125 -1.90384e-22)
(0.668611 -0.00678635 1.73783e-22)
(0.675187 -0.00678415 4.63897e-23)
(0.681863 -0.00678427 -1.04529e-22)
(0.68864 -0.00678631 4.35326e-23)
(0.695522 -0.0067898 1.59626e-22)
(0.702512 -0.00679421 -5.02866e-23)
(0.709613 -0.00679897 2.56605e-23)
(0.716825 -0.00680345 -1.00671e-22)
(0.724152 -0.00680695 9.73105e-23)
(0.731592 -0.00680874 -4.66334e-23)
(0.739145 -0.00680801 -3.98438e-23)
(0.74681 -0.00680394 2.00026e-24)
(0.754584 -0.00679562 9.55184e-25)
(0.762463 -0.00678215 -1.69579e-23)
(0.770443 -0.00676256 6.06003e-23)
(0.778516 -0.0067359 -1.4754e-23)
(0.786674 -0.00670118 -4.30446e-23)
(0.794908 -0.00665744 9.42112e-24)
(0.803206 -0.00660373 5.65142e-23)
(0.811555 -0.00653916 2.00723e-25)
(0.81994 -0.00646287 -1.65917e-23)
(0.828346 -0.00637411 -2.10196e-23)
(0.836752 -0.00627221 4.13613e-24)
(0.84514 -0.00615663 -1.00671e-23)
(0.853488 -0.00602698 6.63033e-24)
(0.861774 -0.00588303 4.45214e-24)
(0.869972 -0.00572476 -6.5016e-24)
(0.878059 -0.00555234 3.80543e-24)
(0.886008 -0.00536617 -5.80783e-25)
(0.893794 -0.00516687 -1.94205e-24)
(0.901391 -0.00495534 6.46363e-25)
(0.908773 -0.00473269 2.00046e-24)
(0.915916 -0.00450028 5.78173e-25)
(0.922796 -0.00425968 6.61505e-25)
(0.929393 -0.00401268 -5.27022e-25)
(0.935688 -0.00376121 -3.29241e-26)
(0.941663 -0.00350734 2.69674e-26)
(0.947305 -0.00325323 -3.59955e-25)
(0.952605 -0.00300104 6.43033e-25)
(0.957555 -0.00275294 -2.7384e-25)
(0.962152 -0.00251098 -8.22369e-25)
(0.966397 -0.00227708 1.00767e-24)
(0.970294 -0.00205297 -1.23556e-25)
(0.973852 -0.00184014 -5.49329e-25)
(0.97708 -0.0016398 -2.34549e-25)
(0.979992 -0.00145287 -2.74972e-26)
(0.982604 -0.00127996 7.40249e-26)
(0.984933 -0.00112136 -7.94761e-26)
(0.987 -0.000977089 -3.20028e-26)
(0.988822 -0.000846915 -1.21782e-25)
(0.990425 -0.000730263 1.554e-25)
(0.991816 -0.000626672 -3.97852e-26)
(0.993045 -0.000534807 -1.89007e-25)
(0.99406 -0.000454913 1.02251e-26)
(0.995041 -0.000383255 -1.39985e-25)
(0.995639 -0.000325101 3.39324e-26)
(0.996677 -0.000264243 -6.86203e-25)
(0.433006 -0.0192241 5.66767e-22)
(0.438726 -0.0186193 1.67276e-21)
(0.444294 -0.0180907 -1.8651e-21)
(0.449842 -0.0176122 1.2238e-21)
(0.455343 -0.0171749 -1.26795e-21)
(0.460792 -0.0167742 -2.32737e-22)
(0.466199 -0.0164055 2.44033e-23)
(0.471571 -0.0160644 1.11748e-21)
(0.476916 -0.0157472 -2.8716e-22)
(0.482236 -0.0154511 3.02603e-22)
(0.487539 -0.0151735 -5.68311e-22)
(0.492826 -0.0149123 3.21946e-22)
(0.498103 -0.0146658 -5.94368e-22)
(0.503373 -0.0144326 -4.56486e-22)
(0.508638 -0.0142113 1.16744e-21)
(0.513902 -0.0140011 2.29134e-22)
(0.519168 -0.0138011 -1.15938e-21)
(0.524437 -0.0136105 1.44236e-21)
(0.529713 -0.0134289 -1.75342e-21)
(0.534998 -0.0132557 7.5099e-22)
(0.540295 -0.0130907 7.83714e-22)
(0.545605 -0.0129334 -7.5246e-22)
(0.550932 -0.0127838 2.111e-22)
(0.556277 -0.0126416 2.08173e-22)
(0.561644 -0.0125067 -3.92763e-22)
(0.567035 -0.012379 1.92078e-22)
(0.572452 -0.0122586 3.97748e-23)
(0.577899 -0.0121452 -4.54131e-23)
(0.583378 -0.012039 4.72526e-23)
(0.588893 -0.01194 3.90139e-22)
(0.594446 -0.011848 -3.37945e-22)
(0.600042 -0.0117632 -2.18253e-22)
(0.605683 -0.0116855 -2.7435e-22)
(0.611373 -0.0116149 7.44969e-22)
(0.617115 -0.0115513 -1.17753e-22)
(0.622915 -0.0114947 -5.82843e-23)
(0.628775 -0.011445 -1.45571e-22)
(0.6347 -0.0114021 -8.73229e-23)
(0.640694 -0.0113657 4.29103e-22)
(0.646761 -0.0113358 -2.45363e-22)
(0.652906 -0.011312 1.21781e-22)
(0.659132 -0.011294 1.19888e-22)
(0.665445 -0.0112814 -8.97122e-23)
(0.671847 -0.0112738 -1.85471e-22)
(0.678344 -0.0112706 7.24659e-23)
(0.684939 -0.0112712 1.24543e-22)
(0.691635 -0.011275 7.66378e-23)
(0.698436 -0.0112811 -2.79667e-22)
(0.705345 -0.0112888 1.46077e-22)
(0.712365 -0.0112969 -1.81264e-22)
(0.719495 -0.0113046 2.6144e-22)
(0.726739 -0.0113106 -1.24516e-22)
(0.734097 -0.0113137 -3.568e-23)
(0.741567 -0.0113126 8.2323e-23)
(0.749149 -0.011306 2.37002e-23)
(0.756839 -0.0112922 -8.84225e-23)
(0.764634 -0.0112698 -1.45558e-22)
(0.772529 -0.0112372 1.56712e-23)
(0.780518 -0.0111929 1.1277e-22)
(0.788592 -0.0111351 -8.89114e-23)
(0.796741 -0.0110623 -1.69678e-23)
(0.804955 -0.0109729 2.43719e-23)
(0.81322 -0.0108655 2.37158e-23)
(0.821521 -0.0107386 5.85989e-24)
(0.829844 -0.0105909 2.34593e-23)
(0.838168 -0.0104213 4.76011e-25)
(0.846474 -0.0102291 -2.4048e-23)
(0.854742 -0.0100134 -3.14956e-24)
(0.862948 -0.00977403 -5.13496e-24)
(0.871069 -0.00951082 -6.32705e-24)
(0.87908 -0.0092241 8.82006e-24)
(0.886955 -0.00891452 4.37972e-24)
(0.894669 -0.00858316 -6.1071e-24)
(0.902197 -0.00823147 6.67487e-24)
(0.909512 -0.00786131 -4.35709e-24)
(0.916591 -0.00747495 1.823e-24)
(0.923411 -0.00707501 -1.00627e-24)
(0.92995 -0.00666443 4.87149e-25)
(0.93619 -0.00624646 -6.03224e-26)
(0.942114 -0.00582452 2.87121e-26)
(0.947708 -0.00540219 1.64357e-25)
(0.952963 -0.0049831 8.82819e-26)
(0.957872 -0.0045708 -8.10356e-25)
(0.962431 -0.00416874 8.99127e-25)
(0.966642 -0.00378009 -1.49704e-24)
(0.970508 -0.00340774 5.83796e-25)
(0.974037 -0.00305414 -6.8978e-25)
(0.97724 -0.00272132 7.99728e-25)
(0.98013 -0.00241079 3.38833e-26)
(0.982722 -0.00212356 5.67824e-26)
(0.985034 -0.00186015 1.21105e-24)
(0.987086 -0.00162053 -9.07082e-26)
(0.988895 -0.00140435 7.77917e-25)
(0.990487 -0.00121064 7.70396e-26)
(0.991868 -0.00103864 -2.68025e-25)
(0.993089 -0.000886124 7.59454e-25)
(0.994096 -0.000753502 -3.94905e-26)
(0.995071 -0.000634565 -5.20962e-25)
(0.995666 -0.000538066 -8.58323e-27)
(0.996697 -0.000437081 5.75675e-25)
(0.443873 -0.0266099 -1.90692e-21)
(0.449372 -0.0257857 2.68974e-21)
(0.454721 -0.0250649 -7.12712e-22)
(0.460072 -0.0244106 1.4118e-21)
(0.465387 -0.0238116 -3.71602e-21)
(0.470657 -0.023262 1.83488e-21)
(0.475891 -0.0227558 1.61264e-21)
(0.481096 -0.0222869 1.09144e-21)
(0.486277 -0.0218506 -2.23438e-21)
(0.49144 -0.021443 -1.48804e-21)
(0.496588 -0.0210607 1.67913e-21)
(0.501724 -0.0207008 1.03506e-21)
(0.506852 -0.0203611 -2.12218e-21)
(0.511976 -0.0200395 9.87852e-22)
(0.517098 -0.0197345 -4.88524e-22)
(0.52222 -0.0194445 6.9064e-23)
(0.527346 -0.0191686 8.92176e-23)
(0.532478 -0.0189057 1.37261e-21)
(0.537618 -0.0186552 -1.12544e-21)
(0.542769 -0.0184163 1.61601e-21)
(0.547932 -0.0181887 -1.40083e-21)
(0.553111 -0.0179718 2.63638e-22)
(0.558307 -0.0177654 -2.50476e-23)
(0.563524 -0.0175694 -3.19587e-23)
(0.568762 -0.0173834 -1.61084e-22)
(0.574026 -0.0172075 -1.78573e-22)
(0.579318 -0.0170415 4.34523e-22)
(0.58464 -0.0168854 -1.65172e-21)
(0.589995 -0.0167391 9.30707e-22)
(0.595386 -0.0166028 -6.62937e-22)
(0.600817 -0.0164763 8.48096e-22)
(0.606291 -0.0163597 3.39086e-22)
(0.611811 -0.0162529 -1.14492e-21)
(0.61738 -0.016156 5.39865e-22)
(0.623003 -0.0160688 1.80565e-22)
(0.628683 -0.0159913 -2.33407e-22)
(0.634424 -0.0159234 7.43557e-22)
(0.64023 -0.0158648 -5.27532e-22)
(0.646105 -0.0158154 -1.83403e-22)
(0.652053 -0.0157749 2.7986e-22)
(0.658079 -0.0157428 -2.52564e-22)
(0.664187 -0.0157188 5.68505e-22)
(0.670381 -0.0157023 1.53318e-23)
(0.676664 -0.0156927 -2.44134e-22)
(0.683042 -0.0156892 -4.58155e-24)
(0.689517 -0.015691 -3.63998e-22)
(0.696094 -0.0156971 2.03647e-22)
(0.702775 -0.0157066 -1.12609e-22)
(0.709563 -0.0157181 -7.51852e-24)
(0.716461 -0.0157303 1.79039e-22)
(0.72347 -0.0157417 -1.60606e-22)
(0.730592 -0.0157509 1.024e-22)
(0.737826 -0.0157559 5.63241e-23)
(0.745173 -0.0157551 -1.50638e-22)
(0.752631 -0.0157465 1.27703e-22)
(0.760196 -0.015728 4.35901e-23)
(0.767867 -0.0156975 -9.72428e-23)
(0.775637 -0.0156527 3.03199e-24)
(0.783499 -0.0155916 9.99369e-23)
(0.791447 -0.0155117 -1.39139e-22)
(0.799471 -0.0154108 1.26128e-23)
(0.807559 -0.0152869 9.87785e-23)
(0.815699 -0.0151377 3.24635e-24)
(0.823876 -0.0149614 -3.41091e-24)
(0.832075 -0.0147562 -2.3919e-23)
(0.840276 -0.0145205 -2.73168e-24)
(0.848461 -0.0142531 1.84045e-24)
(0.856609 -0.013953 1.15644e-23)
(0.864698 -0.0136199 2.52559e-24)
(0.872703 -0.0132535 1.65939e-23)
(0.880601 -0.0128543 -1.82925e-23)
(0.888367 -0.0124233 -2.57911e-24)
(0.895974 -0.0119618 -3.25299e-24)
(0.903398 -0.011472 8.65534e-24)
(0.910614 -0.0109564 -3.52134e-24)
(0.917598 -0.0104182 -3.66645e-24)
(0.924327 -0.00986095 1.43507e-24)
(0.93078 -0.00928889 -1.3604e-24)
(0.936938 -0.00870646 6.26197e-25)
(0.942785 -0.00811848 -1.68358e-25)
(0.948308 -0.00752992 4.97446e-25)
(0.953497 -0.00694582 -4.65332e-25)
(0.958344 -0.00637118 9.6765e-25)
(0.962847 -0.00581076 -4.81408e-25)
(0.967007 -0.00526902 1.86526e-24)
(0.970827 -0.00474997 -3.14078e-25)
(0.974314 -0.00425705 7.01167e-25)
(0.977479 -0.00379308 -1.51273e-24)
(0.980335 -0.00336018 9.4991e-25)
(0.982898 -0.00295975 -1.0754e-25)
(0.985185 -0.00259252 -2.62468e-25)
(0.987214 -0.00225845 -9.7457e-26)
(0.989004 -0.00195706 -6.51025e-26)
(0.990578 -0.001687 4.38816e-25)
(0.991945 -0.00144719 2.35207e-25)
(0.993153 -0.00123456 -5.60434e-25)
(0.994151 -0.00104967 3.0716e-25)
(0.995116 -0.000883855 9.50024e-25)
(0.995705 -0.000749341 2.47921e-27)
(0.996726 -0.000608562 1.20371e-24)
(0.458167 -0.0336974 4.02551e-22)
(0.463379 -0.0326755 9.63597e-22)
(0.468441 -0.031781 2.82758e-21)
(0.473534 -0.030966 -3.65197e-21)
(0.478606 -0.0302179 1.69539e-21)
(0.483641 -0.0295305 -3.98472e-22)
(0.488647 -0.0288963 2.55695e-22)
(0.493633 -0.0283082 -8.90353e-22)
(0.498601 -0.0277604 6.93423e-22)
(0.503556 -0.027248 1.48194e-21)
(0.508501 -0.0267671 -6.55473e-22)
(0.513438 -0.0263142 -9.58011e-23)
(0.518372 -0.0258863 -3.10238e-21)
(0.523304 -0.0254812 7.36492e-22)
(0.528237 -0.0250968 1.33998e-21)
(0.533174 -0.0247313 4.08449e-22)
(0.538116 -0.0243834 -8.87381e-22)
(0.543067 -0.024052 -1.12731e-21)
(0.548029 -0.0237361 1.35195e-21)
(0.553003 -0.0234349 9.05102e-22)
(0.557991 -0.0231478 -2.04659e-21)
(0.562997 -0.0228744 1.97508e-21)
(0.568022 -0.0226143 6.99108e-22)
(0.573069 -0.0223671 -1.74107e-21)
(0.57814 -0.0221328 1.1641e-21)
(0.583237 -0.0219112 4.23397e-22)
(0.588363 -0.0217021 -3.35376e-22)
(0.59352 -0.0215056 -1.92827e-21)
(0.598713 -0.0213215 1.54743e-22)
(0.603942 -0.02115 9.28515e-22)
(0.609212 -0.020991 1.36284e-24)
(0.614526 -0.0208446 1.05181e-21)
(0.619887 -0.0207106 -1.72689e-21)
(0.625297 -0.0205891 5.06646e-22)
(0.630762 -0.02048 7.63337e-22)
(0.636285 -0.0203832 2.26516e-22)
(0.641869 -0.0202985 -1.79139e-21)
(0.647519 -0.0202257 9.85851e-22)
(0.653237 -0.0201646 3.99297e-22)
(0.65903 -0.0201147 -1.30973e-21)
(0.6649 -0.0200756 5.5832e-22)
(0.670852 -0.0200467 -7.72818e-24)
(0.676889 -0.0200274 2.41333e-22)
(0.683016 -0.0200167 3.59466e-22)
(0.689237 -0.0200139 -6.95444e-22)
(0.695555 -0.0200179 1.87722e-22)
(0.701974 -0.0200273 -2.31488e-22)
(0.708497 -0.0200409 2.38846e-22)
(0.715126 -0.020057 -4.7706e-23)
(0.721864 -0.0200741 2.23878e-22)
(0.728713 -0.0200902 -1.67472e-22)
(0.735674 -0.0201033 -2.5925e-24)
(0.742746 -0.0201112 -8.0337e-24)
(0.74993 -0.0201116 2.58513e-22)
(0.757225 -0.020102 -6.42803e-23)
(0.764627 -0.0200797 -1.39561e-22)
(0.772132 -0.0200421 1.41766e-22)
(0.779737 -0.0199863 -1.04518e-22)
(0.787435 -0.0199095 6.69611e-23)
(0.795217 -0.0198088 4.69472e-23)
(0.803075 -0.0196814 -5.41012e-23)
(0.810998 -0.0195243 -1.49385e-23)
(0.818973 -0.0193351 1.25927e-22)
(0.826986 -0.0191111 -1.11843e-22)
(0.835021 -0.0188502 9.07633e-23)
(0.843061 -0.0185503 -2.99036e-23)
(0.851086 -0.0182098 -2.93096e-23)
(0.859076 -0.0178276 -2.77306e-23)
(0.867009 -0.0174031 2.45334e-23)
(0.874862 -0.016936 1.76275e-23)
(0.882611 -0.0164269 -2.56049e-23)
(0.890231 -0.0158771 7.05383e-24)
(0.897698 -0.0152883 -9.52362e-26)
(0.904986 -0.0146631 8.63628e-25)
(0.912071 -0.0140049 3.06165e-24)
(0.918929 -0.0133177 -4.57618e-24)
(0.925538 -0.0126061 4.19044e-24)
(0.931877 -0.0118755 -3.51625e-24)
(0.937928 -0.0111314 1.06174e-24)
(0.943674 -0.0103802 -3.18033e-25)
(0.949102 -0.00962815 -1.72315e-25)
(0.954203 -0.00888171 -5.97146e-26)
(0.95897 -0.00814726 -1.70529e-25)
(0.963398 -0.00743091 -1.01184e-24)
(0.96749 -0.00673839 9.54899e-25)
(0.971248 -0.0060748 2.40687e-25)
(0.97468 -0.00544457 -1.24906e-24)
(0.977796 -0.0048513 1.77918e-24)
(0.980608 -0.00429773 -3.94222e-25)
(0.983132 -0.00378564 1.0093e-25)
(0.985384 -0.00331597 -5.94068e-25)
(0.987384 -0.0028887 -5.58977e-25)
(0.989147 -0.0025032 -3.16987e-25)