0.377883 	0.377883 	6.34489e-18 	0.0187419 	-0.0141868 	-3.79696e-19
0.428313 	0.428313 	1.3309e-17 	0.0808692 	-0.041257 	-5.74551e-20
0.482588 	0.482588 	1.69586e-17 	0.161841 	-0.0580091 	9.41402e-20
0.540971 	0.540971 	2.40461e-17 	0.252743 	-0.0715323 	-9.54393e-20
0.603773 	0.603773 	3.4593e-17 	0.351257 	-0.0778829 	-1.19467e-19
0.671328 	0.671328 	1.9913e-17 	0.452834 	-0.0807229 	-2.2509e-19
