0 	0.534376 	0 	-0.582968
0 	0.60573 	1.38778e-18 	-0.48607
0 	0.682485 	1.38778e-18 	-0.462895
0 	0.765049 	-1.73472e-18 	-0.398857
0 	0.853863 	-3.46945e-18 	-0.357735
0 	0.949399 	-2.08167e-18 	-0.303571
