/*--------------------------------*- C++ -*----------------------------------*\
  =========                 |
  \\      /  F ield         | OpenFOAM: The Open Source CFD Toolbox
   \\    /   O peration     | Website:  https://openfoam.org
    \\  /    A nd           | Version:  7
     \\/     M anipulation  |
\*---------------------------------------------------------------------------*/
FoamFile
{
    version     2.0;
    format      ascii;
    class       volScalarField;
    location    "20";
    object      p;
}
// * * * * * * * * * * * * * * * * * * * * * * * * * * * * * * * * * * * * * //

dimensions      [0 2 -2 0 0 0 0];

internalField   nonuniform List<scalar> 
657
(
-0.0103014
-0.00864999
-0.00746453
-0.00564753
-0.00488924
-0.00255728
-0.00265482
0.000823487
-0.0517641
-0.0483814
-0.0451631
-0.0421027
-0.0391934
-0.0364275
-0.0337983
-0.0312975
-0.0289189
-0.0266529
-0.0244967
-0.0224356
-0.0204761
-0.0185893
-0.0168061
-0.0150587
-0.0134415
-0.0117858
-0.0103453
-0.00870089
-0.00749442
-0.00570616
-0.00489688
-0.00265098
-0.0026109
0.000625669
-0.0519173
-0.0485415
-0.0453259
-0.0422648
-0.039352
-0.0365807
-0.0339444
-0.0314354
-0.0290479
-0.0267727
-0.024607
-0.0225367
-0.020568
-0.018673
-0.016881
-0.0151276
-0.0135014
-0.0118438
-0.0103914
-0.0087543
-0.00752561
-0.00576741
-0.00490456
-0.00274865
-0.00256454
0.00041939
-0.0520761
-0.0487081
-0.045496
-0.0424346
-0.0395185
-0.0367417
-0.0340981
-0.0315806
-0.0291839
-0.026899
-0.0247233
-0.0226434
-0.0206649
-0.0187614
-0.01696
-0.0152002
-0.0135644
-0.0119047
-0.0104397
-0.00881016
-0.00755812
-0.00583117
-0.00491236
-0.00285007
-0.00251599
0.000205216
-0.0522399
-0.048881
-0.0456731
-0.0426119
-0.0396929
-0.0369106
-0.0342596
-0.0317334
-0.0293269
-0.0270319
-0.0248458
-0.0227558
-0.0207669
-0.0188544
-0.0170431
-0.0152766
-0.0136306
-0.0119685
-0.0104904
-0.00886845
-0.00759199
-0.00589734
-0.00492038
-0.00295495
-0.0024656
-1.60922e-05
-0.0524085
-0.0490599
-0.0458571
-0.0427967
-0.039875
-0.0370873
-0.0344288
-0.0318936
-0.0294772
-0.0271716
-0.0249745
-0.022874
-0.0208742
-0.0189522
-0.0171305
-0.0153567
-0.0136999
-0.0120354
-0.0105433
-0.00892912
-0.00762726
-0.00596577
-0.00492874
-0.00306294
-0.00241378
-0.000243591
-0.0525812
-0.0492445
-0.0460477
-0.0429888
-0.0400647
-0.0372717
-0.0346057
-0.0320614
-0.0296346
-0.0273181
-0.0251096
-0.0229979
-0.0209868
-0.0190547
-0.017222
-0.0154406
-0.0137726
-0.0121051
-0.0105985
-0.00899207
-0.00766396
-0.00603624
-0.00493754
-0.0031736
-0.00236098
-0.000476082
-0.0527575
-0.049434
-0.0462445
-0.0431877
-0.0402618
-0.0374637
-0.0347902
-0.0322365
-0.029799
-0.0274713
-0.0252509
-0.0231277
-0.0211047
-0.019162
-0.0173178
-0.0155283
-0.0138484
-0.0121777
-0.010656
-0.00905716
-0.0077021
-0.00610851
-0.00494694
-0.00328636
-0.00230779
-0.000712116
-0.0529364
-0.0496279
-0.0464467
-0.043393
-0.0404658
-0.0376629
-0.0349818
-0.0324187
-0.0299704
-0.0276309
-0.0253984
-0.023263
-0.0212276
-0.0192739
-0.0174176
-0.0156196
-0.0139273
-0.012253
-0.0107157
-0.00912423
-0.00774167
-0.00618225
-0.00495707
-0.00340059
-0.00225487
-0.000949983
-0.0531171
-0.0498251
-0.0466537
-0.043604
-0.040676
-0.0378687
-0.0351802
-0.0326076
-0.0301482
-0.0277968
-0.0255516
-0.0234038
-0.0213555
-0.0193903
-0.0175215
-0.0157143
-0.0140092
-0.0123309
-0.0107776
-0.00919304
-0.00778266
-0.0062571
-0.0049681
-0.00351555
-0.00220297
-0.00118771
-0.0532982
-0.0500248
-0.0468645
-0.0438197
-0.0408917
-0.0380804
-0.0353848
-0.0328027
-0.0303321
-0.0279685
-0.0257103
-0.0235496
-0.021488
-0.0195109
-0.017629
-0.0158123
-0.014094
-0.0124111
-0.0108414
-0.00926331
-0.007825
-0.00633263
-0.00498021
-0.00363037
-0.00215294
-0.00142307
-0.0534787
-0.0502255
-0.0470778
-0.0440392
-0.0411119
-0.038297
-0.0355946
-0.0330031
-0.0305212
-0.0281453
-0.0258738
-0.0237
-0.0216247
-0.0196352
-0.0177399
-0.0159132
-0.0141812
-0.0124933
-0.0109071
-0.00933472
-0.00786863
-0.00640837
-0.00499358
-0.00374413
-0.00210568
-0.00165362
-0.0536571
-0.0504261
-0.0472924
-0.044261
-0.0413354
-0.0385176
-0.0358086
-0.0332079
-0.0307148
-0.0283264
-0.0260415
-0.0238542
-0.021765
-0.0197627
-0.0178537
-0.0160166
-0.0142707
-0.0125772
-0.0109743
-0.00940688
-0.00791342
-0.00648379
-0.00500837
-0.00385581
-0.00206215
-0.0018767
-0.0538318
-0.0506249
-0.0475067
-0.0444837
-0.0415606
-0.0387405
-0.0360255
-0.0334159
-0.0309117
-0.0285109
-0.0262125
-0.0240115
-0.0219081
-0.0198928
-0.0179697
-0.0161218
-0.0143618
-0.0126622
-0.0110427
-0.00947932
-0.00795922
-0.00655829
-0.00502473
-0.00396432
-0.0020233
-0.00208956
-0.0540014
-0.0508202
-0.0477191
-0.0447057
-0.041786
-0.0389643
-0.0362437
-0.0336256
-0.0311105
-0.0286974
-0.0263855
-0.0241708
-0.0220531
-0.0200245
-0.0180874
-0.0162283
-0.0144541
-0.0127478
-0.0111119
-0.00955153
-0.00800579
-0.00663125
-0.00504279
-0.00406854
-0.00199007
-0.00228937
-0.0541643
-0.0510103
-0.0479275
-0.0449248
-0.0420095
-0.0391871
-0.0364615
-0.0338353
-0.0313097
-0.0288844
-0.0265592
-0.0243308
-0.0221989
-0.0201569
-0.0182056
-0.0163351
-0.0145469
-0.0128333
-0.0111814
-0.00962292
-0.00805286
-0.00670201
-0.00506259
-0.00416733
-0.00196334
-0.00247337
-0.0543188
-0.0511933
-0.0481299
-0.045139
-0.0422289
-0.0394065
-0.0366767
-0.0340429
-0.0315072
-0.0290701
-0.0267319
-0.02449
-0.022344
-0.0202887
-0.0183234
-0.0164414
-0.0146392
-0.0129179
-0.0112506
-0.00969283
-0.00810005
-0.00676987
-0.00508415
-0.00425956
-0.00194385
-0.00263898
-0.0544634
-0.0513674
-0.0483243
-0.0453459
-0.0424419
-0.0396202
-0.0368869
-0.0342461
-0.0317009
-0.0292525
-0.0269016
-0.0246467
-0.0224869
-0.0204184
-0.0184394
-0.0165458
-0.0147301
-0.0130008
-0.0113188
-0.00976053
-0.00814691
-0.0068341
-0.00510737
-0.00434418
-0.00193213
-0.0027839
-0.0545967
-0.0515304
-0.0485082
-0.045543
-0.0426458
-0.0398255
-0.0370893
-0.0344422
-0.0318882
-0.0294291
-0.0270662
-0.0247986
-0.0226256
-0.0205444
-0.018552
-0.0166471
-0.0148184
-0.0130809
-0.011385
-0.00982519
-0.00819289
-0.00689399
-0.00513205
-0.0044202
-0.00192852
-0.00290629
-0.0547174
-0.0516806
-0.0486792
-0.0457275
-0.0428375
-0.0400193
-0.0372809
-0.0346283
-0.0320662
-0.0295972
-0.027223
-0.0249435
-0.0227579
-0.0206646
-0.0186596
-0.0167437
-0.0149027
-0.0131569
-0.0114483
-0.00988591
-0.00823731
-0.00694876
-0.00515783
-0.00448676
-0.00193301
-0.00300489
-0.0548242
-0.0518159
-0.0488349
-0.0458966
-0.043014
-0.0401983
-0.0374583
-0.034801
-0.0322317
-0.0297537
-0.0273692
-0.0250786
-0.0228815
-0.0207768
-0.0187601
-0.0168338
-0.0149814
-0.0132276
-0.0115076
-0.00994169
-0.00827938
-0.00699766
-0.00518423
-0.00454315
-0.00194529
-0.00307917
-0.0549162
-0.0519345
-0.0489727
-0.0460471
-0.0431719
-0.0403589
-0.0376179
-0.0349567
-0.0323811
-0.0298951
-0.0275014
-0.025201
-0.0229934
-0.0208785
-0.0188513
-0.0169154
-0.0150529
-0.0132913
-0.0115615
-0.00999146
-0.00831814
-0.00703994
-0.00521051
-0.00458889
-0.00196445
-0.00312951
-0.0549924
-0.0520344
-0.0490897
-0.0461757
-0.0433073
-0.040497
-0.0377555
-0.0350912
-0.0325103
-0.0300177
-0.0276161
-0.0253072
-0.0230907
-0.0209668
-0.0189305
-0.0169862
-0.0151151
-0.0133465
-0.0116084
-0.010034
-0.00835244
-0.0070749
-0.00523559
-0.00462398
-0.00198861
-0.00315739
-0.0550519
-0.0521134
-0.0491831
-0.0462789
-0.0434162
-0.0406085
-0.0378668
-0.0352001
-0.0326151
-0.0301171
-0.0277093
-0.0253935
-0.0231698
-0.0210386
-0.018995
-0.0170438
-0.0151657
-0.0133912
-0.0116469
-0.0100681
-0.00838101
-0.00710174
-0.00525828
-0.00464841
-0.002016
-0.00316447
-0.0550935
-0.0521695
-0.0492497
-0.0463527
-0.0434944
-0.0406886
-0.0379469
-0.0352785
-0.0326907
-0.0301889
-0.0277765
-0.0254559
-0.0232269
-0.0210905
-0.0190417
-0.0170854
-0.0152025
-0.0134232
-0.0116751
-0.0100917
-0.00840313
-0.00711827
-0.00527946
-0.00465815
-0.002052
-0.00314915
-0.0521996
-0.0492856
-0.0463925
-0.0435366
-0.0407319
-0.0379902
-0.0353209
-0.0327316
-0.0302278
-0.027813
-0.0254897
-0.023258
-0.0211187
-0.0190671
-0.0171078
-0.0152227
-0.01344
-0.0116914
-0.0101026
-0.00841856
-0.00712088
-0.00530201
-0.00464442
-0.00210843
-0.00311086
)
;

boundaryField
{
    inlet
    {
        type            zeroGradient;
    }
    outlet
    {
        type            fixedValue;
        value           uniform 0;
    }
    cylinder
    {
        type            zeroGradient;
    }
    top
    {
        type            symmetryPlane;
    }
    bottom
    {
        type            symmetryPlane;
    }
    defaultFaces
    {
        type            empty;
    }
    procBoundary15to11
    {
        type            processor;
        value           nonuniform List<scalar> 
27
(
-0.0102598
-0.0086017
-0.00743608
-0.00559163
-0.00488181
-0.00246759
-0.00269644
0.00101262
-0.0516171
-0.0482285
-0.0450082
-0.0419488
-0.0390429
-0.0362825
-0.0336601
-0.0311671
-0.0287971
-0.0265399
-0.0243926
-0.0223401
-0.0203893
-0.0185101
-0.0167352
-0.0149935
-0.0133848
-0.0117307
-0.0117307
)
;
    }
    procBoundary15to14
    {
        type            processor;
        value           nonuniform List<scalar> 
26
(
-0.0553172
-0.0554586
-0.055604
-0.0557529
-0.0559048
-0.0560591
-0.0562149
-0.0563712
-0.056527
-0.056681
-0.056832
-0.0569787
-0.0571195
-0.0572531
-0.0573783
-0.0574938
-0.0575986
-0.0576919
-0.0577732
-0.0578424
-0.0578993
-0.0579445
-0.0579783
-0.0580013
-0.0551159
-0.0551159
)
;
    }
}


// ************************************************************************* //
