/*--------------------------------*- C++ -*----------------------------------*\
  =========                 |
  \\      /  F ield         | OpenFOAM: The Open Source CFD Toolbox
   \\    /   O peration     | Website:  https://openfoam.org
    \\  /    A nd           | Version:  7
     \\/     M anipulation  |
\*---------------------------------------------------------------------------*/
FoamFile
{
    version     2.0;
    format      ascii;
    class       surfaceScalarField;
    location    "20";
    object      phi;
}
// * * * * * * * * * * * * * * * * * * * * * * * * * * * * * * * * * * * * * //

dimensions      [0 3 -1 0 0 0 0];

internalField   nonuniform List<scalar> 
1262
(
0.00460515
-0.000868732
0.00460374
-0.00086226
0.0046033
-0.000875686
0.00460349
-0.000863048
0.00460478
-0.000907538
0.00460668
-0.000869525
0.00460956
-0.000969469
-0.000911142
0.00508114
-0.00102951
0.00506126
-0.0010242
0.00504251
-0.00101715
0.00502486
-0.00100862
0.00500825
-0.000998886
0.00499268
-0.000988186
0.0049781
-0.000976765
0.00496449
-0.000964849
0.00495184
-0.000952663
0.00494012
-0.0009404
0.00492932
-0.000928298
0.00491941
-0.000916486
0.00491041
-0.000905309
0.00490228
-0.000894699
0.00489503
-0.000885434
0.00488863
-0.000876706
0.00488312
-0.000870863
0.00487843
-0.000864332
0.00487466
-0.000864958
0.00487167
-0.000859271
0.00486965
-0.000873667
0.00486837
-0.000861763
0.00486808
-0.000907255
0.00486866
-0.000870099
0.00486987
-0.000970679
-0.000914125
0.00540825
-0.00100573
0.00538569
-0.00100164
0.00536431
-0.000995767
0.00534407
-0.000988384
0.00532494
-0.000979754
0.00530688
-0.000970132
0.00528988
-0.000959763
0.00527391
-0.000948872
0.00525894
-0.000937692
0.00524495
-0.000926415
0.00523194
-0.000915285
0.00521988
-0.000904427
0.00520877
-0.000894198
0.00519858
-0.000884517
0.00518933
-0.000876184
0.00518099
-0.000868362
0.00517358
-0.000863449
0.00516704
-0.0008578
0.00516145
-0.000859366
0.00515671
-0.000854531
0.00515293
-0.000869884
0.00515
-0.00085883
0.00514795
-0.000905203
0.00514701
-0.000869166
0.00514634
-0.000970008
-0.000915668
0.0057564
-0.000979122
0.00573105
-0.00097629
0.00570692
-0.000971638
0.00568398
-0.000965441
0.00566219
-0.000957966
0.00564152
-0.000949469
0.00562196
-0.000940198
0.00560347
-0.000930383
0.00558604
-0.000920258
0.00556964
-0.000910017
0.00555426
-0.000899908
0.00553989
-0.000890056
0.00552652
-0.000880823
0.00551412
-0.000872122
0.00550271
-0.000864769
0.00549225
-0.000857905
0.00548276
-0.000853961
0.00547421
-0.000849248
0.00546662
-0.000851778
0.00545995
-0.000847863
0.00545422
-0.000864151
0.00544946
-0.000854066
0.00544543
-0.000901178
0.0054428
-0.000866537
0.00544003
-0.00096723
-0.000915565
0.00612651
-0.000949613
0.00609829
-0.00094807
0.00607132
-0.000944672
0.00604558
-0.000939696
0.00602103
-0.000933413
0.00599764
-0.00092608
0.00597539
-0.00091795
0.00595426
-0.000909254
0.00593423
-0.000900228
0.00591528
-0.000891069
0.0058974
-0.000882027
0.00588057
-0.000873226
0.00586478
-0.000865035
0.00585002
-0.00085736
0.00583628
-0.000851029
0.00582355
-0.00084517
0.00581182
-0.000842231
0.00580107
-0.000838504
0.00579131
-0.000842014
0.00578253
-0.000839085
0.00577466
-0.000856277
0.00576787
-0.000847283
0.00576166
-0.000894967
0.00575714
-0.000862014
0.00575202
-0.00096211
-0.000913594
0.00651945
-0.000917177
0.00648831
-0.000916937
0.00645845
-0.000914811
0.00642984
-0.000911081
0.00640244
-0.000906016
0.00637624
-0.000899879
0.00635121
-0.000892922
0.00632734
-0.000885379
0.0063046
-0.000877489
0.00628298
-0.000869449
0.00626246
-0.000861512
0.00624304
-0.000853803
0.0062247
-0.000846692
0.00620742
-0.000840085
0.00619121
-0.000834813
0.00617604
-0.00083
0.0061619
-0.000828095
0.00614879
-0.0008254
0.00613668
-0.000829899
0.00612561
-0.000828017
0.0061154
-0.000846066
0.0061064
-0.000838285
0.00609779
-0.000886355
0.00609116
-0.000855389
0.00608346
-0.000954406
-0.000909518
0.00693599
-0.000881833
0.00690194
-0.000882891
0.00686917
-0.000882041
0.00683766
-0.000879564
0.00680737
-0.000875732
0.0067783
-0.000870807
0.00675042
-0.000865044
0.00672372
-0.000858679
0.00669819
-0.000851952
0.0066738
-0.000845059
0.00665054
-0.000838258
0.00662841
-0.000831672
0.00660739
-0.000825672
0.00658747
-0.000820166
0.00656864
-0.000815981
0.00655089
-0.000812248
0.00653419
-0.000811398
0.00651856
-0.000809772
0.00650392
-0.000815259
0.00649038
-0.000814477
0.00647765
-0.000833327
0.00646624
-0.000826876
0.006455
-0.000875122
0.00644606
-0.000846445
0.00643552
-0.00094387
-0.000903085
0.00737682
-0.000843655
0.00733992
-0.000845984
0.00730427
-0.000846392
0.00726986
-0.000845158
0.00723668
-0.000842556
0.00720472
-0.000838846
0.00717397
-0.000834286
0.0071444
-0.00082911
0.007116
-0.000823559
0.00708878
-0.000817832
0.0070627
-0.000812185
0.00703777
-0.000806742
0.00701398
-0.000801875
0.0069913
-0.000797492
0.00696974
-0.000794413
0.00694927
-0.000791785
0.00692987
-0.000792
0.00691157
-0.000791469
0.00689424
-0.000797933
0.00687806
-0.000798296
0.00686261
-0.000817871
0.00684859
-0.000812862
0.00683452
-0.000861051
0.00682304
-0.000834961
0.00680942
-0.000930256
-0.000894032
0.00784252
-0.000802773
0.00780286
-0.000806323
0.00776442
-0.000807949
0.00772719
-0.000807928
0.00769116
-0.000806533
0.00765634
-0.000804025
0.00762271
-0.000800657
0.00759027
-0.000796666
0.007559
-0.000792292
0.0075289
-0.000787734
0.00749997
-0.000783247
0.00747218
-0.000778956
0.00744553
-0.000775228
0.00742002
-0.000771978
0.00739562
-0.000770012
0.00737233
-0.0007685
0.00735011
-0.000769778
0.007329
-0.000770359
0.00730884
-0.000777771
0.00728985
-0.000779312
0.0072715
-0.000799522
0.0072547
-0.000796052
0.00723757
-0.00084393
0.00722333
-0.000820713
0.00720639
-0.00091332
-0.000882082
0.00833353
-0.000759386
0.00829128
-0.000764077
0.00825019
-0.000766856
0.00821025
-0.000767995
0.00817149
-0.000767764
0.00813388
-0.00076642
0.00809744
-0.000764218
0.00806217
-0.00076139
0.00802805
-0.000758176
0.00799509
-0.000754774
0.00796328
-0.000751436
0.00793261
-0.00074829
0.00790308
-0.000745695
0.00787467
-0.000743574
0.00784737
-0.000742711
0.00782119
-0.000742312
0.00779604
-0.000744635
0.00777201
-0.000746327
0.00774889
-0.000754645
0.00772696
-0.00075738
0.00770555
-0.000778116
0.00768576
-0.000776267
0.00766539
-0.00082356
0.00764816
-0.000803477
0.00762767
-0.000892828
-0.000866954
0.00885015
-0.000713757
0.00880556
-0.000719482
0.00876202
-0.000723321
0.00871957
-0.00072554
0.00867821
-0.000726405
0.00863796
-0.000726169
0.00859882
-0.000725083
0.00856081
-0.000723376
0.00852392
-0.000721286
0.00848815
-0.000719008
0.00845351
-0.000716792
0.00841998
-0.000714765
0.00838757
-0.000713279
0.00835626
-0.000712266
0.00832603
-0.000712481
0.00829689
-0.000713173
0.00826876
-0.000716506
0.00824172
-0.000719291
0.00821553
-0.000728453
0.00819053
-0.000732378
0.00816592
-0.00075351
0.008143
-0.000753342
0.00811919
-0.000799754
0.00809875
-0.000783034
0.00807448
-0.00086856
-0.00084836
0.00939258
-0.000666213
0.00934594
-0.000672835
0.00930023
-0.000677613
0.0092555
-0.000680808
0.00921177
-0.000682676
0.00916907
-0.000683467
0.00912741
-0.000683424
0.00908681
-0.000682775
0.00904727
-0.000681751
0.00900881
-0.000680546
0.00897142
-0.000679403
0.00893511
-0.000678451
0.00889986
-0.00067803
0.00886567
-0.000678083
0.00883252
-0.00067933
0.00880042
-0.000681074
0.00876928
-0.000685361
0.00873919
-0.000689198
0.00870986
-0.000699123
0.00868169
-0.00070421
0.00865377
-0.000725589
0.00862756
-0.00072713
0.00860015
-0.000772352
0.00857629
-0.000759175
0.00854805
-0.000840319
-0.000826013
0.00996087
-0.00061714
0.00991253
-0.000624493
0.00986498
-0.000630064
0.00981828
-0.000634102
0.00977246
-0.000636857
0.00972756
-0.000638568
0.00968361
-0.000639474
0.00964063
-0.000639796
0.00959864
-0.000639759
0.00955764
-0.000639553
0.00951766
-0.000639414
0.00947867
-0.000639471
0.00944069
-0.000640049
0.00940372
-0.000641105
0.0093677
-0.000643318
0.00933268
-0.000646049
0.00929853
-0.000651214
0.00926537
-0.000656038
0.00923287
-0.00066662
0.00920147
-0.000672814
0.00917015
-0.000694267
0.00914053
-0.000697511
0.0091094
-0.000741218
0.00908192
-0.000731703
0.00904954
-0.00080793
-0.00079963
0.010555
-0.000566971
0.0105054
-0.000574865
0.0104564
-0.000581056
0.010408
-0.000585782
0.0103605
-0.000589281
0.0103137
-0.000591784
0.0102677
-0.000593521
0.0102226
-0.000594704
0.0101784
-0.000595552
0.0101351
-0.00059625
0.0100927
-0.000597023
0.0100513
-0.000598
0.0100107
-0.000599489
0.00997106
-0.000601462
0.00993229
-0.00060455
0.00989442
-0.000608181
0.00985733
-0.000614121
0.00982113
-0.000619841
0.00978546
-0.000630952
0.00975081
-0.000638164
0.00971604
-0.000659497
0.00968292
-0.000664393
0.00964796
-0.000706253
0.0096167
-0.000700443
0.00958002
-0.000771254
-0.000768937
0.0111748
-0.000516168
0.0111244
-0.000524394
0.0110743
-0.000531012
0.0110248
-0.000536249
0.0109758
-0.00054033
0.0109275
-0.000543476
0.0108799
-0.000545904
0.010833
-0.000547819
0.0107869
-0.000549428
0.0107416
-0.000550911
0.010697
-0.000552482
0.0106533
-0.000554269
0.0106104
-0.000556558
0.0105682
-0.000559337
0.0105269
-0.000563186
0.0104863
-0.000567601
0.0104464
-0.00057419
0.0104072
-0.000580684
0.0103684
-0.000592167
0.0103305
-0.000600275
0.0102923
-0.000621271
0.0102556
-0.000627719
0.0102168
-0.000667396
0.0101816
-0.000665241
0.0101405
-0.000730189
-0.000733679
0.0118203
-0.000465201
0.0117694
-0.000473536
0.0117188
-0.000480376
0.0116685
-0.000485933
0.0116186
-0.000490418
0.0115691
-0.000494039
0.0115202
-0.000497001
0.0114719
-0.000499499
0.0114242
-0.000501727
0.0113771
-0.000503858
0.0113308
-0.000506092
0.011285
-0.000508554
0.01124
-0.000511511
0.0111956
-0.000514961
0.0111519
-0.000519431
0.0111087
-0.000524489
0.0110661
-0.000531573
0.0110241
-0.000538689
0.0109823
-0.000550364
0.0109413
-0.000559205
0.0108996
-0.000579626
0.0108594
-0.000587469
0.0108166
-0.000624626
0.0107773
-0.000625973
0.0107318
-0.000684676
-0.00069362
0.0124913
-0.000414523
0.0124405
-0.000422741
0.0123897
-0.000429591
0.012339
-0.000435268
0.0122886
-0.000439969
0.0122384
-0.000443887
0.0121886
-0.000447214
0.0121393
-0.00045013
0.0120904
-0.00045282
0.012042
-0.000455444
0.0119941
-0.000458187
0.0119467
-0.000461173
0.0118998
-0.000464641
0.0118534
-0.000468606
0.0118075
-0.000473535
0.0117621
-0.000479067
0.011717
-0.000486467
0.0116724
-0.000494022
0.0116277
-0.000505679
0.0115835
-0.000515053
0.0115385
-0.00053464
0.0114947
-0.00054366
0.0114481
-0.000577968
0.0114046
-0.000582545
0.0113547
-0.000634698
-0.000648554
0.0131879
-0.000364537
0.0131376
-0.000372418
0.0130871
-0.000379068
0.0130365
-0.000384667
0.0129859
-0.000389394
0.0129354
-0.000393427
0.0128851
-0.000396942
0.0128351
-0.000400106
0.0127854
-0.000403088
0.012736
-0.000406037
0.0126869
-0.000409123
0.0126382
-0.000412462
0.0125898
-0.000416269
0.0125418
-0.000420571
0.012494
-0.000425774
0.0124466
-0.00043159
0.0123992
-0.000439102
0.0123521
-0.000446882
0.0123047
-0.000458289
0.0122576
-0.000467953
0.0122094
-0.00048643
0.012162
-0.000496344
0.0121116
-0.000527488
0.0120639
-0.000534898
0.0120095
-0.000580283
-0.000598308
0.0139104
-0.000315569
0.0138609
-0.000322907
0.013811
-0.000329162
0.0137608
-0.000334493
0.0137105
-0.000339062
0.0136601
-0.000343031
0.0136097
-0.000346559
0.0135594
-0.000349797
0.0135092
-0.000352898
0.0134591
-0.000355998
0.0134093
-0.00035925
0.0133596
-0.000362761
0.01331
-0.000366722
0.0132606
-0.000371166
0.0132113
-0.000376441
0.013162
-0.000382326
0.0131126
-0.000389726
0.0130633
-0.000397489
0.0130134
-0.000408391
0.0129635
-0.000418065
0.0129122
-0.000435141
0.0128614
-0.000445601
0.0128072
-0.000473287
0.0127553
-0.000483002
0.0126966
-0.0005215
-0.000542747
0.0146593
-0.000267835
0.0146108
-0.000274451
0.0145618
-0.000280133
0.0145123
-0.000285023
0.0144625
-0.000289266
0.0144125
-0.000293003
0.0143623
-0.000296376
0.014312
-0.00029952
0.0142617
-0.00030257
0.0142113
-0.000305646
0.014161
-0.000308884
0.0141106
-0.000312381
0.0140602
-0.0003163
0.0140097
-0.000320682
0.0139591
-0.000325814
0.0139083
-0.000331538
0.0138571
-0.000338586
0.0138057
-0.000346066
0.0137535
-0.000356192
0.013701
-0.000365559
0.0136468
-0.000380938
0.0135927
-0.00039153
0.0135349
-0.000415495
0.0134788
-0.000426854
0.0134157
-0.00045845
-0.000481775
0.0154353
-0.000221419
0.015388
-0.00022716
0.01534
-0.000232119
0.0152914
-0.000236421
0.0152423
-0.000240188
0.0151929
-0.000243543
0.0151431
-0.00024661
0.0150931
-0.000249504
0.0150429
-0.000252341
0.0149924
-0.000255226
0.0149418
-0.000258273
0.014891
-0.00026157
0.01484
-0.000265252
0.0147886
-0.000269362
0.014737
-0.00027413
0.0146849
-0.000279453
0.0146322
-0.000285896
0.0145789
-0.000292814
0.0145246
-0.00030188
0.0144697
-0.000310596
0.0144127
-0.000323978
0.0143554
-0.000334234
0.0142942
-0.000354252
0.0142338
-0.000366469
0.0141666
-0.00039126
-0.000415334
0.0162397
-0.000176246
0.0161935
-0.000180991
0.0161465
-0.000185107
0.0160988
-0.000188698
0.0160505
-0.000191866
0.0160016
-0.000194714
0.0159524
-0.000197342
0.0159027
-0.000199848
0.0158527
-0.000202326
0.0158023
-0.000204864
0.0157516
-0.000207556
0.0157005
-0.000210474
0.015649
-0.000213728
0.015597
-0.000217359
0.0155444
-0.000221544
0.0154912
-0.000226222
0.0154371
-0.000231809
0.0153822
-0.000237873
0.0153259
-0.000245597
0.0152686
-0.000253298
0.015209
-0.000264394
0.0151486
-0.000273797
0.015084
-0.000289689
0.0150194
-0.000301868
0.0149482
-0.00032007
-0.000343404
0.0170739
-0.000132069
0.0170286
-0.000135723
0.0169824
-0.000138904
0.0169354
-0.00014169
0.0168877
-0.000144162
0.0168394
-0.0001464
0.0167905
-0.000148481
0.0167411
-0.000150481
0.0166913
-0.000152475
0.016641
-0.000154528
0.0165901
-0.000156715
0.0165387
-0.000159091
0.0164867
-0.000161739
0.0164341
-0.000164695
0.0163806
-0.000168085
0.0163263
-0.000171885
0.0162708
-0.000176371
0.0162143
-0.000181295
0.0161561
-0.000187402
0.0160965
-0.000193717
0.0160344
-0.000202261
0.0159708
-0.000210258
0.015903
-0.000221913
0.0158342
-0.000233058
0.0157592
-0.000245025
-0.000265994
0.0179395
-8.84452e-05
0.0178947
-9.09387e-05
0.0178489
-9.31133e-05
0.0178022
-9.50237e-05
0.0177548
-9.67256e-05
0.0177067
-9.82739e-05
0.0176579
-9.97224e-05
0.0176085
-0.000101123
0.0175586
-0.000102527
0.017508
-0.00010398
0.0174569
-0.000105532
0.017405
-0.000107223
0.0173524
-0.000109106
0.0172989
-0.000111212
0.0172444
-0.000113617
0.0171889
-0.000116323
0.017132
-0.000119482
0.0170737
-0.000122996
0.0170135
-0.000127236
0.0169516
-0.000131802
0.0168869
-0.000137567
0.0168202
-0.000143589
0.0167493
-0.000150977
0.0166762
-0.000160016
0.0165975
-0.000166262
-0.000183135
0.0188381
0.0187932
-4.5996e-05
0.0187472
-4.71089e-05
0.0187003
-4.80883e-05
0.0186525
-4.89629e-05
0.018604
-4.9761e-05
0.0185548
-5.05106e-05
0.0185049
-5.12382e-05
0.0184543
-5.19701e-05
0.0184031
-5.27304e-05
0.0183511
-5.35438e-05
0.0182983
-5.44319e-05
0.0182446
-5.54206e-05
0.0181899
-5.65284e-05
0.0181341
-5.7788e-05
0.018077
-5.92143e-05
0.0180184
-6.08554e-05
0.0179581
-6.27233e-05
0.0178957
-6.48823e-05
0.0178313
-6.73757e-05
0.0177639
-7.01714e-05
0.017694
-7.36925e-05
0.0176199
-7.68314e-05
0.0175426
-8.27396e-05
0.0174602
-8.38372e-05
-9.49114e-05
0.0197253
0.0196782
0.0196301
0.0195811
0.0195314
0.0194808
0.0194296
0.0193776
0.0193249
0.0192714
0.0192169
0.0191615
0.019105
0.0190472
0.018988
0.0189271
0.0188644
0.0187995
0.0187321
0.018662
0.0185883
0.0185114
0.0184287
0.0183449
)
;

boundaryField
{
    inlet
    {
        type            calculated;
        value           nonuniform 0();
    }
    outlet
    {
        type            calculated;
        value           nonuniform List<scalar> 
26
(
0.00461379
0.00487285
0.00514788
0.00543992
0.00575005
0.00607938
0.00642909
0.00680037
0.00719444
0.00761254
0.00805589
0.00852571
0.00902315
0.00954933
0.0101052
0.0106918
0.0113096
0.0119593
0.012641
0.0133548
0.0141001
0.0148763
0.0156818
0.0165146
0.017372
0.01825
)
;
    }
    cylinder
    {
        type            calculated;
        value           nonuniform 0();
    }
    top
    {
        type            symmetryPlane;
        value           uniform 0;
    }
    bottom
    {
        type            symmetryPlane;
        value           nonuniform 0();
    }
    defaultFaces
    {
        type            empty;
        value           nonuniform 0();
    }
    procBoundary15to11
    {
        type            processor;
        value           nonuniform List<scalar> 
27
(
0.00087086
0.000863671
0.000876124
0.000862863
0.000906245
0.00086762
0.000966594
0.000906911
0.00105056
0.00104408
0.0010359
0.00102628
0.00101549
0.00100376
0.000991344
0.000978454
0.000965316
0.000952121
0.000939101
0.000926388
0.000914317
0.00090283
0.000892684
0.000883102
0.000876375
-0.00460728
0.000869016
)
;
    }
    procBoundary15to14
    {
        type            processor;
        value           nonuniform List<scalar> 
26
(
-0.00510219
-0.00543203
-0.00578301
-0.00615602
-0.00655188
-0.00697133
-0.007415
-0.0078834
-0.00837691
-0.00889578
-0.00944013
-0.0100099
-0.0106052
-0.0112256
-0.0118712
-0.012542
-0.0132379
-0.0139594
-0.014707
-0.0154817
-0.0162849
-0.017118
-0.0179831
-0.0188819
-4.47213e-05
-0.0197713
)
;
    }
}


// ************************************************************************* //
