-0.37194 	0.37194 	1.17961e-17 	0.121015 	0.116458 	7.58286e-20
-0.409303 	0.409303 	7.63278e-18 	0.300311 	0.273465 	-2.10558e-20
-0.448053 	0.448053 	1.35308e-17 	0.444466 	0.377998 	6.78602e-20
-0.488244 	0.488244 	2.56739e-17 	0.557194 	0.443133 	5.4996e-20
-0.529927 	0.529927 	3.33067e-17 	0.646848 	0.477457 	1.43901e-20
-0.573159 	0.573159 	3.88578e-17 	0.717016 	0.489112 	9.05315e-21
-0.617998 	0.617998 	3.19189e-17 	0.772269 	0.484173 	-1.85189e-19
-0.664503 	0.664503 	-7.63278e-18 	0.815612 	0.467984 	-4.98319e-20
