/*--------------------------------*- C++ -*----------------------------------*\
  =========                 |
  \\      /  F ield         | OpenFOAM: The Open Source CFD Toolbox
   \\    /   O peration     | Website:  https://openfoam.org
    \\  /    A nd           | Version:  7
     \\/     M anipulation  |
\*---------------------------------------------------------------------------*/
FoamFile
{
    version     2.0;
    format      ascii;
    class       volScalarField;
    location    "5";
    object      p;
}
// * * * * * * * * * * * * * * * * * * * * * * * * * * * * * * * * * * * * * //

dimensions      [0 2 -2 0 0 0 0];

internalField   nonuniform List<scalar> 
6050
(
-0.458424
-0.472541
-0.478549
-0.472999
-0.4528
-0.416134
-0.363809
-0.298687
-0.22647
-0.154371
-0.0878149
-0.0338378
0.00897871
-0.460347
-0.475051
-0.481833
-0.477251
-0.458184
-0.42278
-0.371324
-0.306724
-0.234567
-0.16221
-0.0948314
-0.0405569
0.00296199
-0.463821
-0.479557
-0.487695
-0.484813
-0.467728
-0.43437
-0.384587
-0.32098
-0.24898
-0.176264
-0.107842
-0.0527174
-0.00837801
-0.468184
-0.485159
-0.494927
-0.494086
-0.479364
-0.448538
-0.400897
-0.338568
-0.26675
-0.19379
-0.124903
-0.0687225
-0.023721
-0.47262
-0.490779
-0.502125
-0.503293
-0.491033
-0.462694
-0.417232
-0.35616
-0.285105
-0.212279
-0.14343
-0.0866064
-0.0413204
-0.49537
-0.507982
-0.510809
-0.500602
-0.47443
-0.430908
-0.371423
-0.301452
-0.229306
-0.161228
-0.104501
-0.0594318
-0.498096
-0.511508
-0.515504
-0.506755
-0.482248
-0.440346
-0.382431
-0.313948
-0.24321
-0.176713
-0.120948
-0.0766616
-0.49847
-0.512142
-0.516704
-0.508839
-0.485402
-0.444699
-0.388315
-0.321717
-0.253164
-0.189047
-0.135074
-0.0921134
-0.496299
-0.50977
-0.514396
-0.506794
-0.483819
-0.443884
-0.388998
-0.324686
-0.259059
-0.198038
-0.146548
-0.105358
-0.491748
-0.504676
-0.508899
-0.500967
-0.477855
-0.438302
-0.384938
-0.32334
-0.261292
-0.203934
-0.155432
-0.116318
-0.485225
-0.497319
-0.500699
-0.491856
-0.468051
-0.428631
-0.376939
-0.31851
-0.260554
-0.207221
-0.162005
-0.125125
-0.488207
-0.490266
-0.479943
-0.455014
-0.415705
-0.365991
-0.311167
-0.257628
-0.208456
-0.166634
-0.132019
-0.47775
-0.477953
-0.465659
-0.439419
-0.400472
-0.353142
-0.302256
-0.253232
-0.208153
-0.169681
-0.137266
-0.466196
-0.464018
-0.44946
-0.422043
-0.383913
-0.339353
-0.292561
-0.247927
-0.206726
-0.171465
-0.141123
-0.453668
-0.448715
-0.431897
-0.403721
-0.366919
-0.325381
-0.282641
-0.242096
-0.204482
-0.172239
-0.143811
-0.432389
-0.413613
-0.385236
-0.350181
-0.311741
-0.272839
-0.235973
-0.201637
-0.172176
-0.145478
-0.415485
-0.395249
-0.36721
-0.334152
-0.298726
-0.263334
-0.229693
-0.19834
-0.171345
-0.146178
-0.377339
-0.350051
-0.319067
-0.286465
-0.254199
-0.223357
-0.194704
-0.169717
-0.145916
-0.360249
-0.333966
-0.305006
-0.274983
-0.245453
-0.21707
-0.190818
-0.167262
-0.144853
-0.319014
-0.291948
-0.264234
-0.237084
-0.210921
-0.186765
-0.164208
-0.14349
-0.30515
-0.279809
-0.254136
-0.229064
-0.204926
-0.1826
-0.161265
-0.142193
-0.26848
-0.244597
-0.221354
-0.199026
-0.178293
-0.1586
-0.141228
-0.257848
-0.235535
-0.213903
-0.193175
-0.173947
-0.155745
-0.139635
-0.22687
-0.206656
-0.187362
-0.169464
-0.152577
-0.137671
-0.199568
-0.181543
-0.164842
-0.149129
-0.13522
-0.175699
-0.160059
-0.145378
-0.132393
-0.155113
-0.141366
-0.129202
-0.137097
-0.125685
-0.137097
-0.125685
-0.155113
-0.141366
-0.129202
-0.175699
-0.160059
-0.145378
-0.132393
-0.199568
-0.181543
-0.164842
-0.149129
-0.13522
-0.22687
-0.206656
-0.187362
-0.169464
-0.152577
-0.137671
-0.257848
-0.235535
-0.213903
-0.193175
-0.173947
-0.155745
-0.139635
-0.26848
-0.244597
-0.221354
-0.199026
-0.178293
-0.1586
-0.141228
-0.30515
-0.279809
-0.254136
-0.229064
-0.204926
-0.1826
-0.161265
-0.142193
-0.319014
-0.291948
-0.264234
-0.237084
-0.210921
-0.186765
-0.164208
-0.14349
-0.360249
-0.333966
-0.305006
-0.274983
-0.245453
-0.21707
-0.190818
-0.167262
-0.144853
-0.377339
-0.350051
-0.319067
-0.286465
-0.254199
-0.223357
-0.194704
-0.169717
-0.145916
-0.415485
-0.395249
-0.36721
-0.334152
-0.298726
-0.263334
-0.229693
-0.19834
-0.171345
-0.146178
-0.432389
-0.413613
-0.385236
-0.350181
-0.311741
-0.272839
-0.235973
-0.201637
-0.172176
-0.145478
-0.453668
-0.448715
-0.431897
-0.403721
-0.366919
-0.325382
-0.282641
-0.242096
-0.204482
-0.172239
-0.143811
-0.466196
-0.464018
-0.44946
-0.422043
-0.383913
-0.339353
-0.292561
-0.247927
-0.206726
-0.171465
-0.141123
-0.47775
-0.477953
-0.465659
-0.439419
-0.400472
-0.353143
-0.302256
-0.253232
-0.208153
-0.169681
-0.137266
-0.488207
-0.490266
-0.479943
-0.455014
-0.415705
-0.365991
-0.311167
-0.257628
-0.208456
-0.166634
-0.132019
-0.485225
-0.497319
-0.500699
-0.491856
-0.468051
-0.428631
-0.376939
-0.31851
-0.260554
-0.207221
-0.162005
-0.125125
-0.491748
-0.504676
-0.508899
-0.500967
-0.477855
-0.438303
-0.384938
-0.323341
-0.261292
-0.203935
-0.155432
-0.116318
-0.496298
-0.50977
-0.514396
-0.506794
-0.483819
-0.443884
-0.388998
-0.324686
-0.259059
-0.198039
-0.146549
-0.105358
-0.49847
-0.512142
-0.516704
-0.508839
-0.485402
-0.4447
-0.388315
-0.321717
-0.253164
-0.189047
-0.135074
-0.0921135
-0.498096
-0.511508
-0.515504
-0.506755
-0.482248
-0.440346
-0.382431
-0.313948
-0.243211
-0.176713
-0.120948
-0.0766617
-0.49537
-0.507982
-0.510809
-0.500602
-0.47443
-0.430909
-0.371423
-0.301453
-0.229306
-0.161228
-0.104501
-0.0594319
-0.47262
-0.490779
-0.502125
-0.503293
-0.491033
-0.462694
-0.417232
-0.35616
-0.285105
-0.21228
-0.14343
-0.0866065
-0.0413205
-0.468183
-0.485159
-0.494927
-0.494086
-0.479364
-0.448538
-0.400897
-0.338568
-0.26675
-0.19379
-0.124903
-0.0687226
-0.0237211
-0.463821
-0.479557
-0.487695
-0.484813
-0.467728
-0.43437
-0.384587
-0.32098
-0.24898
-0.176264
-0.107842
-0.0527175
-0.00837809
-0.460347
-0.475051
-0.481833
-0.477251
-0.458184
-0.42278
-0.371324
-0.306724
-0.234567
-0.16221
-0.0948315
-0.0405569
0.00296194
-0.458424
-0.472541
-0.478549
-0.472999
-0.4528
-0.416134
-0.363809
-0.298687
-0.22647
-0.154371
-0.0878149
-0.0338378
0.00897869
0.0304941
0.0431115
0.0526345
0.0592668
0.0632828
0.0651149
0.0652255
0.064018
0.0618232
0.0589128
0.055516
0.0518242
0.0479892
0.0441249
0.0403134
0.0366122
0.0330604
0.0296844
0.0265018
0.0235255
0.0207655
0.0182293
0.0159213
0.013841
0.0119825
0.0103348
0.00888325
0.00761043
0.00649911
0.0055337
0.00469314
0.00397425
0.00334969
0.00280992
0.00234649
0.00195028
0.00161289
0.00132695
0.00108556
0.000882834
0.000713081
0.000571802
0.000454168
0.000356981
0.000275869
0.000208952
0.000151752
0.000103864
5.98313e-05
2.11543e-05
0.0250856
0.0382602
0.0484672
0.0556776
0.0601428
0.0623574
0.0628204
0.0619325
0.0600175
0.0573507
0.0541675
0.0506641
0.0469951
0.0432769
0.039594
0.036006
0.0325541
0.0292659
0.0261599
0.0232493
0.0205449
0.0180547
0.015784
0.0137333
0.011898
0.0102683
0.00883053
0.00756842
0.00646531
0.00550621
0.00467074
0.00395619
0.00333487
0.00279768
0.00233639
0.00194198
0.00160609
0.00132138
0.00108101
0.000879138
0.00071009
0.000569396
0.000452249
0.000355464
0.000274692
0.000208058
0.000151102
0.000103419
5.95777e-05
2.10637e-05
0.0144756
0.0286636
0.0402242
0.0485632
0.0539046
0.0568758
0.0580414
0.0578013
0.0564548
0.0542803
0.0515277
0.0484027
0.0450654
0.0416364
0.0382056
0.0348377
0.0315784
0.0284583
0.0254983
0.0227132
0.0201149
0.0177129
0.015514
0.0135208
0.0117307
0.0101361
0.00872566
0.00748472
0.00639792
0.0054514
0.00462609
0.00392016
0.00330522
0.00277318
0.0023162
0.00192539
0.00159248
0.00131024
0.00107192
0.000871749
0.000704111
0.000564586
0.000448412
0.000352435
0.000272341
0.00020627
0.000149804
0.00010253
5.90708e-05
2.08827e-05
-0.000422758
0.014992
0.0283578
0.0382468
0.0448194
0.0488752
0.0510599
0.0517646
0.0512645
0.0498245
0.0477112
0.0451466
0.0422983
0.0392931
0.0362282
0.0331767
0.0301913
0.0273084
0.0245532
0.0219437
0.0194943
0.0172167
0.0151197
0.0132086
0.0114837
0.00994032
0.00856976
0.00736
0.00629741
0.00536969
0.00455963
0.00386628
0.00326075
0.00273643
0.00228593
0.00190052
0.00157208
0.00129355
0.00105831
0.000860678
0.000695155
0.000557381
0.000442666
0.000347897
0.000268819
0.000203593
0.000147859
0.000101199
5.83117e-05
2.06116e-05
-0.0179527
-0.00143977
0.0138189
0.0254423
0.033457
0.0388217
0.0422533
0.0441206
0.044682
0.0441851
0.0428933
0.0410443
0.038819
0.0363529
0.0337519
0.0310989
0.028456
0.0258673
0.0233646
0.0209712
0.0187051
0.0165812
0.0146113
0.0128034
0.0111612
0.00968337
0.00836432
0.00719513
0.00616438
0.00526171
0.00447211
0.00379474
0.00320139
0.00268744
0.0022456
0.00186738
0.00154492
0.00127133
0.00104018
0.00084594
0.000683233
0.000547793
0.00043502
0.00034186
0.000264135
0.000200033
0.000145272
9.94285e-05
5.73017e-05
2.02507e-05
-0.0362793
-0.0190213
-0.00215213
0.0111103
0.020597
0.0273604
0.0321499
0.0352956
0.0370294
0.0376119
0.0372821
0.0362694
0.0347679
0.032928
0.0308669
0.0286775
0.0264314
0.0241823
0.02197
0.0198243
0.0177687
0.015822
0.0139994
0.0123123
0.0107678
0.00936809
0.00811105
0.00699111
0.0059995
0.0051283
0.00436835
0.00370572
0.00312703
0.00262621
0.00219523
0.00182602
0.00151101
0.00124359
0.00101755
0.000827556
0.000668364
0.000535836
0.000425488
0.000334335
0.000258297
0.000195596
0.000142048
9.72218e-05
5.60426e-05
1.98006e-05
-0.053897
-0.0362972
-0.0183442
-0.00377465
0.00704258
0.0151597
0.0213022
0.0257418
0.0286779
0.0303716
0.0310771
0.0309857
0.0302802
0.029126
0.027657
0.0259777
0.0241692
0.0222941
0.0204012
0.0185279
0.016704
0.0149529
0.0132939
0.011742
0.0103079
0.00899739
0.00781176
0.00674898
0.00580334
0.00497001
0.00426675
0.00359793
0.0030374
0.00255276
0.00213487
0.00177647
0.0014704
0.00121037
0.000990471
0.00080555
0.00065057
0.000521532
0.000414087
0.000325336
0.000251317
0.000190292
0.000138194
9.45835e-05
5.45367e-05
1.92621e-05
-0.0698312
-0.0522424
-0.0338083
-0.0183951
-0.0065132
0.00280247
0.0101933
0.0158597
0.0199617
0.0227457
0.024467
0.025325
0.0254635
0.0250373
0.0241945
0.0230553
0.0217118
0.0202358
0.0186842
0.0171024
0.0155265
0.0139857
0.0125035
0.0110987
0.00978577
0.00857401
0.00746823
0.00646975
0.00557612
0.00478297
0.00409152
0.00346755
0.00293226
0.00246714
0.00206457
0.00171876
0.00142312
0.00117172
0.000958959
0.000779953
0.000629878
0.000504903
0.000400837
0.000314881
0.000243209
0.000184131
0.000133719
9.15192e-05
5.2787e-05
1.8636e-05
-0.0836253
-0.0663178
-0.0479478
-0.0321743
-0.0195547
-0.00926706
-0.000801755
0.00596185
0.0111437
0.0149621
0.0176521
0.0194106
0.0203946
0.0207241
0.0205336
0.0199545
0.0190935
0.0180334
0.0168391
0.0155633
0.0142486
0.0129298
0.0116351
0.0103875
0.00920495
0.00810044
0.00708213
0.00615455
0.00531835
0.00456877
0.00389933
0.00331964
0.00281215
0.00236931
0.00198438
0.00165298
0.00136922
0.00112767
0.000923058
0.0007508
0.00060632
0.000485977
0.000385762
0.00030299
0.00023399
0.000177129
0.000128631
8.80353e-05
5.07966e-05
1.79236e-05
-0.0952018
-0.0783675
-0.0604853
-0.0447774
-0.0317506
-0.0207486
-0.0114203
-0.00372689
0.00241223
0.00718039
0.0107787
0.0133844
0.0151545
0.0162273
0.0167061
0.0167054
0.0163403
0.0157072
0.0148814
0.0139226
0.0128796
0.0117926
0.0106946
0.00961268
0.00856861
0.0075789
0.006655
0.00580446
0.00503089
0.00433075
0.00370007
0.00316021
0.00267745
0.00225926
0.00189439
0.00157918
0.00130876
0.00107827
0.000882812
0.00071813
0.00057993
0.000464787
0.000368891
0.000289687
0.000223679
0.000169298
0.000122941
8.41395e-05
4.85697e-05
1.71261e-05
-0.104698
-0.0884674
-0.071369
-0.0560617
-0.0429236
-0.031463
-0.0214943
-0.0130546
-0.0061007
-0.000489485
0.00394036
0.00733815
0.00984691
0.011604
0.012733
0.0133219
0.0134675
0.0132721
0.0128231
0.0121896
0.0114267
0.0105797
0.00968627
0.0087777
0.00787938
0.00701132
0.00618823
0.00542051
0.00471475
0.00407053
0.00348595
0.00297089
0.00252493
0.00213681
0.00179472
0.00149745
0.00124179
0.00102357
0.000838273
0.000681989
0.00055075
0.000441367
0.000350253
0.000274998
0.000212299
0.000160657
0.000116663
7.98404e-05
4.61106e-05
1.62453e-05
-0.112342
-0.0968004
-0.0806764
-0.0660114
-0.053005
-0.0413198
-0.0309262
-0.0219241
-0.0143048
-0.00796883
-0.00279755
0.0013276
0.0045292
0.00693273
0.00865856
0.0098153
0.01048
0.0107354
0.0106727
0.0103716
0.00989556
0.00929558
0.00861383
0.00788545
0.0071395
0.00639939
0.00568304
0.00500367
0.00437068
0.00378822
0.00325842
0.00279463
0.00235779
0.00200243
0.00168557
0.00140787
0.00116837
0.000963656
0.000789496
0.000642426
0.000518823
0.000415758
0.000329883
0.000258952
0.000199872
0.000151226
0.000109811
7.51479e-05
4.34244e-05
1.52832e-05
-0.118381
-0.103582
-0.0885444
-0.0746807
-0.061993
-0.0502869
-0.0396665
-0.0302762
-0.0221388
-0.0152004
-0.00938504
-0.004606
-0.000763805
0.00224947
0.00454347
0.00622316
0.00738475
0.00809772
0.00843358
0.00847373
0.00829109
0.00794423
0.00748034
0.00693842
0.00635096
0.00574466
0.00514057
0.00455481
0.00399947
0.00348236
0.0030061
0.00256487
0.00217047
0.00185607
0.00156675
0.00131049
0.00108853
0.000898559
0.000736532
0.000599492
0.000484201
0.000388004
0.00030782
0.000241583
0.000186428
0.000141026
0.000102401
7.00731e-05
4.0517e-05
1.4242e-05
-0.123055
-0.109033
-0.0951323
-0.0821559
-0.0699223
-0.0583683
-0.0476966
-0.0380767
-0.0295614
-0.0221417
-0.0157822
-0.0104276
-0.0060037
-0.00242228
0.000411278
0.00259295
0.00421546
0.00536472
0.00610458
0.00649746
0.00661667
0.00652904
0.00628865
0.0059389
0.00551564
0.00504864
0.004562
0.00407474
0.00360162
0.00315292
0.00273363
0.00234654
0.0020231
0.00170097
0.00143858
0.00120558
0.0010024
0.000828341
0.000679414
0.000553231
0.000446932
0.00035815
0.000284105
0.000222926
0.000171995
0.000130082
9.44496e-05
6.46284e-05
3.73945e-05
1.31246e-05
-0.12659
-0.113374
-0.100607
-0.0885357
-0.0768465
-0.0655891
-0.0550168
-0.0453075
-0.0365448
-0.0287607
-0.021956
-0.0161064
-0.0111638
-0.00706134
-0.00372106
-0.00105949
0.00100867
0.00256635
0.00369058
0.00444068
0.00487218
0.00505172
0.00504069
0.00488846
0.00463477
0.00431238
0.00394825
0.00356421
0.0031776
0.00280113
0.00244304
0.00211105
0.0018112
0.00153775
0.00129943
0.00109252
0.000910164
0.000753241
0.000618238
0.0005037
0.000407066
0.000326241
0.000258778
0.000203018
0.000156604
0.000118417
8.59761e-05
5.88268e-05
3.40636e-05
1.19342e-05
-0.129202
-0.116831
-0.105138
-0.0939237
-0.0828328
-0.0719895
-0.0616407
-0.0519632
-0.0430725
-0.0350347
-0.0278813
-0.0216174
-0.0162213
-0.0116483
-0.00783864
-0.00472263
-0.00222531
-0.000269908
0.00121825
0.0023085
0.00305624
0.00351219
0.00373779
0.0037884
0.00370907
0.00353611
0.00329927
0.00302304
0.00272726
0.00242715
0.00213359
0.00185544
0.00159907
0.00136095
0.0011515
0.000968924
0.000810656
0.000673355
0.000553202
0.000451039
0.000364706
0.000292343
0.000231891
0.000181903
0.000140293
0.000106062
7.70028e-05
5.26839e-05
3.05322e-05
1.06744e-05
-0.131059
-0.119634
-0.108897
-0.0984301
-0.0879636
-0.0776232
-0.0675928
-0.0580492
-0.0491368
-0.0409464
-0.0335353
-0.0269358
-0.0211514
-0.0161601
-0.011921
-0.00837971
-0.00547281
-0.00313214
-0.00128789
0.000127705
0.00117804
0.00191383
0.00238445
0.00264463
0.00274441
0.00272469
0.00261866
0.0024537
0.00225216
0.00203169
0.00180543
0.00158349
0.00137383
0.00117494
0.000997963
0.000841367
0.000701821
0.000587275
0.000483808
0.000395209
0.000319941
0.000256564
0.000203534
0.000159655
0.000123119
9.30626e-05
6.75619e-05
4.6222e-05
2.68126e-05
9.35194e-06
-0.132285
-0.121942
-0.112006
-0.102145
-0.0923045
-0.082517
-0.0728703
-0.0635456
-0.0547047
-0.0464528
-0.0388701
-0.0320133
-0.025909
-0.0205566
-0.0159345
-0.0120043
-0.00871515
-0.00600839
-0.0038212
-0.00208938
-0.000750752
0.000253814
0.000973188
0.00145223
0.00174009
0.00188065
0.00191084
0.00186135
0.00175747
0.00161943
0.00146273
0.00129931
0.0011377
0.000981551
0.000836977
0.000710187
0.000598039
0.000495562
0.000409029
0.000335693
0.000272519
0.000218843
0.000173729
0.000136302
0.000105109
7.94409e-05
5.76723e-05
3.94554e-05
2.29139e-05
7.9749e-06
-0.133134
-0.123937
-0.114608
-0.105268
-0.0960454
-0.0868251
-0.0776176
-0.0685984
-0.0599198
-0.0516928
-0.0440177
-0.0369732
-0.0306076
-0.0249418
-0.0199737
-0.0156815
-0.0120283
-0.00896598
-0.00643976
-0.00439107
-0.00276134
-0.00149434
-0.000537378
0.000160966
0.000645483
0.000958249
0.00113709
0.00121474
0.0012187
0.00117173
0.00109166
0.000992343
0.000883929
0.000772733
0.00066605
0.000568458
0.000481846
0.000402917
0.000334356
0.000273427
0.000222048
0.000178596
0.00014206
0.000111574
8.60853e-05
6.50856e-05
4.72672e-05
3.23468e-05
1.88145e-05
6.53953e-06
-0.134288
-0.12602
-0.117037
-0.10811
-0.099381
-0.0906052
-0.0817982
-0.0731134
-0.0646609
-0.0565406
-0.0488586
-0.0417054
-0.0351467
-0.029224
-0.0239547
-0.0193345
-0.0153417
-0.0119407
-0.00908606
-0.00672584
-0.00480621
-0.00327331
-0.00207567
-0.00116349
-0.000489803
-1.06211e-05
0.000313493
0.000517318
0.00063097
0.000678896
0.000680462
0.000650804
0.000601279
0.000540077
0.000475077
0.000411771
0.000353236
0.000297243
0.000248599
0.000205996
0.000168598
0.000136131
0.00010856
8.5499e-05
6.60847e-05
5.00325e-05
3.63708e-05
2.49095e-05
1.4509e-05
5.03957e-06
-0.132229
-0.125417
-0.116407
-0.107859
-0.0994923
-0.0910174
-0.0825006
-0.074075
-0.0658441
-0.0579071
-0.0503645
-0.0433039
-0.036792
-0.030874
-0.0255732
-0.0208922
-0.0168158
-0.0133148
-0.01035
-0.00787427
-0.00583689
-0.00418726
-0.00287747
-0.00186062
-0.00109086
-0.000524381
-0.000121851
0.000150749
0.00032279
0.000419375
0.000461535
0.000466202
0.000446109
0.000410455
0.000367312
0.00032236
0.000278691
0.000235966
0.000198404
0.000164787
0.000134675
0.000108957
8.70087e-05
6.84902e-05
5.28699e-05
3.99605e-05
2.89939e-05
1.98199e-05
1.15231e-05
4.00461e-06
-0.129864
-0.123502
-0.114736
-0.106514
-0.0984722
-0.090287
-0.0820394
-0.0738645
-0.0658633
-0.0581301
-0.0507607
-0.04384
-0.0374345
-0.0315905
-0.0263339
-0.0216711
-0.0175908
-0.0140684
-0.0110686
-0.00854837
-0.00646029
-0.00475664
-0.00339152
-0.00231965
-0.00149651
-0.000879411
-0.000429837
-0.000114367
9.60492e-05
0.000226567
0.000298477
0.000329052
0.000331397
0.000315164
0.00028859
0.000257549
0.000225438
0.000192781
0.000163332
0.000136409
0.000111899
9.09115e-05
7.28367e-05
5.74614e-05
4.44314e-05
3.36242e-05
2.4426e-05
1.67067e-05
9.72864e-06
3.37611e-06
-0.126986
-0.121096
-0.112703
-0.104807
-0.0971116
-0.0892499
-0.0813002
-0.073405
-0.065663
-0.0581628
-0.0509953
-0.0442428
-0.0379708
-0.0322265
-0.0270379
-0.0224144
-0.018349
-0.0148209
-0.0117991
-0.0092445
-0.00711357
-0.00536151
-0.00394456
-0.00281926
-0.0019428
-0.00127401
-0.000775529
-0.000414566
-0.000162425
5.84367e-06
0.000111426
0.000171626
0.000199757
0.000205864
0.000198372
0.000183422
0.000164806
0.000143695
0.000123601
0.000104506
8.65641e-05
7.08777e-05
5.71551e-05
4.53223e-05
3.51943e-05
2.67252e-05
1.94801e-05
1.33505e-05
7.80673e-06
2.69829e-06
-0.124011
-0.118705
-0.110717
-0.103122
-0.0957606
-0.0882248
-0.0805738
-0.0729572
-0.0654732
-0.0582053
-0.0512395
-0.0446556
-0.0385181
-0.0328749
-0.0277557
-0.0231732
-0.0191239
-0.0155913
-0.0125483
-0.00995992
-0.00778608
-0.00598504
-0.00451536
-0.00333556
-0.00240457
-0.00168282
-0.00113406
-0.000726223
-0.000431023
-0.000223775
-8.3398e-05
7.45601e-06
6.23236e-05
9.1621e-05
0.000103977
0.000105819
0.000101295
9.21973e-05
8.19328e-05
7.10552e-05
5.99831e-05
4.98445e-05
4.06901e-05
3.25756e-05
2.54926e-05
1.94781e-05
1.42838e-05
9.82466e-06
5.7887e-06
1.98468e-06
-0.121054
-0.116313
-0.108734
-0.101425
-0.0943887
-0.0871819
-0.0798326
-0.072495
-0.0652696
-0.0582352
-0.051473
-0.0450599
-0.0390597
-0.0335204
-0.0284738
-0.0239352
-0.0199048
-0.0163699
-0.0133076
-0.0106866
-0.00847054
-0.00662079
-0.00509828
-0.00386363
-0.00287759
-0.00210217
-0.0015023
-0.00104669
-0.000707566
-0.000460509
-0.000284549
-0.000162282
-7.99535e-05
-2.68025e-05
6.01033e-06
2.52044e-05
3.52573e-05
3.8582e-05
3.85384e-05
3.61838e-05
3.22254e-05
2.78735e-05
2.34817e-05
1.9244e-05
1.53381e-05
1.18879e-05
8.83791e-06
6.12819e-06
3.67269e-06
1.23463e-06
-0.118118
-0.113871
-0.106706
-0.0996854
-0.0929659
-0.0860908
-0.0790484
-0.0719926
-0.0650284
-0.0582308
-0.0516761
-0.0454383
-0.0395803
-0.0341502
-0.0291813
-0.0246916
-0.0206846
-0.0171514
-0.0140729
-0.0114219
-0.00916561
-0.0072684
-0.00569377
-0.00440452
-0.00336331
-0.00253377
-0.00188212
-0.00137791
-0.000993925
-0.00070608
-0.000493543
-0.00033889
-0.000228175
-0.000150325
-9.62859e-05
-5.90457e-05
-3.37952e-05
-1.75344e-05
-6.89076e-06
-3.43336e-07
3.12735e-06
4.84046e-06
5.43482e-06
5.25824e-06
4.68204e-06
3.92091e-06
3.12062e-06
2.24745e-06
1.45166e-06
4.45773e-07
-0.115169
-0.111372
-0.104633
-0.0979056
-0.0914946
-0.0849513
-0.0782199
-0.0714485
-0.0647476
-0.0581898
-0.0518463
-0.0457883
-0.0400771
-0.0347614
-0.0298755
-0.0254398
-0.021461
-0.0179338
-0.0148429
-0.0121648
-0.00987045
-0.00792734
-0.00630158
-0.00495821
-0.00386187
-0.00297791
-0.0022739
-0.00172032
-0.00129056
-0.000960933
-0.000710798
-0.000522748
-0.000382679
-0.000279243
-0.000203167
-0.000147147
-0.000106038
-7.6298e-05
-5.44737e-05
-3.86152e-05
-2.73755e-05
-1.93075e-05
-1.34911e-05
-9.41186e-06
-6.49757e-06
-4.43826e-06
-2.87871e-06
-1.82437e-06
-8.78133e-07
-3.82722e-07
-0.112197
-0.108825
-0.102521
-0.0960919
-0.0899811
-0.0837666
-0.0773491
-0.0708642
-0.064428
-0.0581121
-0.051983
-0.0461084
-0.0405487
-0.0353521
-0.0305543
-0.0261777
-0.0222318
-0.0187149
-0.0156153
-0.0129134
-0.0105834
-0.00859622
-0.00692052
-0.0055237
-0.00437246
-0.00343396
-0.00267716
-0.00207353
-0.00159718
-0.00122486
-0.000936175
-0.000713771
-0.000543421
-0.000413538
-0.000314629
-0.000239108
-0.000181488
-0.000137727
-0.00010423
-7.86489e-05
-5.93001e-05
-4.45859e-05
-3.33087e-05
-2.47767e-05
-1.82092e-05
-1.31963e-05
-9.1651e-06
-6.09063e-06
-3.31886e-06
-1.25103e-06
-0.109217
-0.106241
-0.100371
-0.0942476
-0.0884296
-0.0825386
-0.0764363
-0.0702397
-0.0640689
-0.0579964
-0.0520843
-0.0463967
-0.0409925
-0.0359197
-0.0312149
-0.0269023
-0.0229943
-0.0194922
-0.0163879
-0.0136655
-0.0113026
-0.00927333
-0.00754913
-0.00609978
-0.00489411
-0.00390113
-0.00309126
-0.00243708
-0.00191344
-0.00149762
-0.0011695
-0.000911838
-0.000710325
-0.000553165
-0.000430651
-0.000334922
-0.000260147
-0.000201829
-0.000156169
-0.000120455
-9.26578e-05
-7.10052e-05
-5.40266e-05
-4.08438e-05
-3.04591e-05
-2.2358e-05
-1.57424e-05
-1.05538e-05
-5.87224e-06
-2.15912e-06
-0.106243
-0.103627
-0.0981871
-0.0923751
-0.0868441
-0.0812696
-0.0754821
-0.0695749
-0.0636699
-0.0578417
-0.0521487
-0.0466511
-0.0414061
-0.0364615
-0.0318545
-0.0276109
-0.0237456
-0.0202629
-0.0171581
-0.0144187
-0.0120259
-0.00995685
-0.00818587
-0.00668515
-0.00542574
-0.00437853
-0.00351552
-0.00281042
-0.00223894
-0.0017789
-0.00141055
-0.00111681
-0.000883296
-0.000698063
-0.000551195
-0.000434568
-0.000342009
-0.000268599
-0.000210296
-0.000164039
-0.000127454
-9.85708e-05
-7.56497e-05
-5.76175e-05
-4.3251e-05
-3.19263e-05
-2.26128e-05
-1.52153e-05
-8.53935e-06
-3.10666e-06
-0.103279
-0.100988
-0.0959713
-0.0904778
-0.0852291
-0.0799629
-0.0744878
-0.0688704
-0.063231
-0.0576473
-0.0521747
-0.0468697
-0.0417873
-0.036975
-0.0324704
-0.0283007
-0.0244828
-0.0210242
-0.0179231
-0.0151705
-0.012751
-0.0106448
-0.00882897
-0.00727831
-0.00596608
-0.00486515
-0.0039491
-0.00319291
-0.00257315
-0.00206831
-0.00165904
-0.00132845
-0.00106217
-0.000848116
-0.00067618
-0.000537991
-0.000427037
-0.000338011
-0.000266593
-0.000209389
-0.00016368
-0.000127278
-9.8175e-05
-7.50957e-05
-5.65837e-05
-4.19004e-05
-2.9776e-05
-2.00748e-05
-1.13203e-05
-4.09289e-06
-0.100333
-0.0983349
-0.0937295
-0.0885593
-0.0835895
-0.0786225
-0.0734553
-0.068127
-0.0627527
-0.0574129
-0.0521616
-0.0470511
-0.0421343
-0.0374579
-0.0330599
-0.0289687
-0.0252032
-0.0217732
-0.0186803
-0.0159184
-0.0134755
-0.0113349
-0.00947651
-0.00787757
-0.00651368
-0.00535974
-0.00439099
-0.00358369
-0.0029154
-0.00236531
-0.00191454
-0.00154645
-0.0012467
-0.00100313
-0.000805462
-0.000645083
-0.000515151
-0.000410004
-0.000325016
-0.000256472
-0.000201311
-0.000157109
-0.000121589
-9.32684e-05
-7.045e-05
-5.22749e-05
-3.72283e-05
-2.51294e-05
-1.42139e-05
-5.11657e-06
-0.0974136
-0.0956761
-0.091468
-0.0866239
-0.0819303
-0.0772531
-0.0723876
-0.0673465
-0.0622361
-0.057139
-0.0521087
-0.0471941
-0.0424453
-0.0379081
-0.0336207
-0.0296123
-0.0259037
-0.0225071
-0.0194267
-0.0166596
-0.0141968
-0.0120249
-0.0101263
-0.00848101
-0.00706688
-0.00586088
-0.00483997
-0.00398176
-0.00326486
-0.00266923
-0.00217651
-0.00177036
-0.00143655
-0.00116285
-0.00093883
-0.000755678
-0.000606228
-0.000484479
-0.00038549
-0.000305231
-0.000240302
-0.00018803
-0.000145865
-0.000112116
-8.48352e-05
-6.30388e-05
-4.49623e-05
-3.03738e-05
-1.72176e-05
-6.17588e-06
-0.094531
-0.0930222
-0.0891941
-0.0846769
-0.0802571
-0.0758603
-0.0712885
-0.0665311
-0.0616826
-0.0568264
-0.0520163
-0.0472981
-0.0427189
-0.0383236
-0.0341503
-0.0302289
-0.0265816
-0.0232228
-0.0201593
-0.017391
-0.0149122
-0.012712
-0.010776
-0.00908648
-0.00762378
-0.00636691
-0.00529461
-0.0043859
-0.00362051
-0.00297921
-0.00244425
-0.00199962
-0.00163125
-0.00132689
-0.00107599
-0.000869548
-0.000700085
-0.000561293
-0.000447904
-0.000355579
-0.000280584
-0.000219987
-0.000170964
-0.000131607
-9.97158e-05
-7.41747e-05
-5.29657e-05
-3.57993e-05
-2.03267e-05
-7.26835e-06
-0.0916946
-0.090384
-0.0869163
-0.0827241
-0.0785759
-0.0744502
-0.0701628
-0.065684
-0.0610944
-0.0564765
-0.0518848
-0.0473627
-0.0429543
-0.038703
-0.0346466
-0.0308158
-0.027234
-0.0239173
-0.020875
-0.0181098
-0.0156186
-0.0133936
-0.011423
-0.00969163
-0.00818223
-0.00687594
-0.00575326
-0.00479469
-0.00398113
-0.00329424
-0.0027169
-0.00223353
-0.00183023
-0.00149479
-0.00121657
-0.000986383
-0.000796478
-0.000640248
-0.000512101
-0.000407393
-0.000322061
-0.000252906
-0.000196826
-0.000151696
-0.000115058
-8.56573e-05
-6.12204e-05
-4.13936e-05
-2.35346e-05
-8.3908e-06
-0.088914
-0.0877728
-0.0846444
-0.0807728
-0.0768934
-0.0730296
-0.0690161
-0.0648091
-0.0604744
-0.0560915
-0.0517156
-0.0473883
-0.0431509
-0.039045
-0.035108
-0.0313709
-0.0278582
-0.0245877
-0.0215708
-0.0188127
-0.016313
-0.0140666
-0.0120644
-0.0102938
-0.00873986
-0.00738581
-0.00621401
-0.00520647
-0.00434528
-0.00361307
-0.00299342
-0.0024712
-0.00203276
-0.00166595
-0.00136007
-0.00110579
-0.000895087
-0.000721087
-0.000577876
-0.00046051
-0.000364603
-0.000286684
-0.000223373
-0.000172323
-0.000130816
-9.74518e-05
-6.97021e-05
-4.71395e-05
-2.68318e-05
-9.53918e-06
-0.0861999
-0.0852013
-0.0823892
-0.0788312
-0.0752169
-0.0716059
-0.0678552
-0.0639115
-0.0598263
-0.0556742
-0.0515105
-0.0473757
-0.0433086
-0.0393487
-0.0355328
-0.031892
-0.0284517
-0.0252311
-0.0222435
-0.0194964
-0.016992
-0.0147278
-0.0126972
-0.0108901
-0.00929398
-0.00789411
-0.00667469
-0.00561929
-0.00471127
-0.00393426
-0.00327257
-0.00271159
-0.00223795
-0.00183963
-0.00150588
-0.00122726
-0.000995504
-0.000803479
-0.000644964
-0.000514719
-0.000408042
-0.000321189
-0.0002505
-0.000193407
-0.000146928
-0.000109513
-7.83781e-05
-5.30146e-05
-3.0206e-05
-1.07085e-05
-0.083564
-0.0826825
-0.080163
-0.0769089
-0.0735548
-0.0701875
-0.0666876
-0.0629973
-0.0591547
-0.0552281
-0.0512721
-0.0473267
-0.0434282
-0.039614
-0.0359199
-0.0323773
-0.0290121
-0.0258446
-0.0228899
-0.0201576
-0.0176522
-0.0153737
-0.013318
-0.0114774
-0.00984163
-0.00839809
-0.00713282
-0.00603096
-0.00507715
-0.00425608
-0.00355286
-0.00295343
-0.00244474
-0.00201493
-0.00165326
-0.00135018
-0.00109722
-0.000887012
-0.000713031
-0.000569751
-0.000452164
-0.000356252
-0.000278077
-0.000214846
-0.000163316
-0.000121782
-8.72068e-05
-5.89905e-05
-3.36409e-05
-1.18926e-05
-0.0810187
-0.0802307
-0.0779789
-0.0750167
-0.0719165
-0.0687834
-0.0655219
-0.0620737
-0.0584653
-0.0547577
-0.051004
-0.0472434
-0.0435106
-0.0398408
-0.0362687
-0.0328253
-0.0295371
-0.0264255
-0.0235069
-0.0207929
-0.0182901
-0.0160008
-0.0139233
-0.0120522
-0.0103795
-0.00889471
-0.0075856
-0.00643892
-0.00544065
-0.00457655
-0.00383257
-0.00319522
-0.00265185
-0.00219077
-0.0018013
-0.0014738
-0.00119963
-0.00097118
-0.000781666
-0.000625277
-0.000496705
-0.000391665
-0.000305939
-0.000236513
-0.000179884
-0.000134186
-9.6136e-05
-6.50313e-05
-3.71163e-05
-1.30841e-05
-0.0785768
-0.0778607
-0.0758515
-0.0731669
-0.0703125
-0.0674036
-0.0643675
-0.0611489
-0.0577647
-0.0542684
-0.0507103
-0.0471292
-0.0435581
-0.0400302
-0.0365789
-0.0332349
-0.0300249
-0.0269712
-0.0240914
-0.0213987
-0.0189018
-0.0166051
-0.0145091
-0.0126108
-0.0109041
-0.00938056
-0.00802987
-0.0068403
-0.00579919
-0.00489337
-0.00410965
-0.0034352
-0.00285776
-0.00236587
-0.00194892
-0.00159721
-0.00130197
-0.00105537
-0.00085037
-0.000680893
-0.000541343
-0.000427169
-0.000333885
-0.00025825
-0.000196512
-0.000146636
-0.000105101
-7.10933e-05
-4.0607e-05
-1.42743e-05
-0.0762518
-0.0755884
-0.0737967
-0.071373
-0.0687545
-0.0660593
-0.0632351
-0.0602323
-0.057061
-0.0537666
-0.0503964
-0.046988
-0.0435731
-0.0401835
-0.0368508
-0.0336053
-0.0304738
-0.0274793
-0.0246403
-0.0219716
-0.0194836
-0.0171827
-0.0150715
-0.013149
-0.0114113
-0.00985186
-0.0084621
-0.00723186
-0.0061498
-0.00520388
-0.00438179
-0.00367134
-0.00306072
-0.00253872
-0.00209483
-0.00171935
-0.00140335
-0.00113885
-0.000918544
-0.000736114
-0.000585687
-0.000462456
-0.000361669
-0.000279869
-0.000213054
-0.000159023
-0.000114024
-7.71232e-05
-4.40824e-05
-1.54526e-05
-0.0740586
-0.073431
-0.0718316
-0.0696505
-0.0672561
-0.064763
-0.0621365
-0.0593348
-0.0563633
-0.05326
-0.0500683
-0.0468245
-0.0435594
-0.0403028
-0.0370853
-0.0339363
-0.0308826
-0.0279475
-0.0251507
-0.022508
-0.0200315
-0.0177293
-0.0156059
-0.0136625
-0.0118968
-0.0103044
-0.00887834
-0.00760992
-0.00648914
-0.00550507
-0.00464629
-0.00390127
-0.00325867
-0.00270756
-0.00223755
-0.00183895
-0.00150273
-0.00122075
-0.000985478
-0.000790364
-0.000629274
-0.000497156
-0.000389002
-0.000301141
-0.000229337
-0.000171216
-0.000122811
-8.30574e-05
-4.75058e-05
-1.66066e-05
-0.0720129
-0.0714066
-0.0699751
-0.0680165
-0.0658323
-0.0635282
-0.0610847
-0.0584684
-0.055682
-0.0527573
-0.0497334
-0.0466447
-0.043521
-0.040391