/*--------------------------------*- C++ -*----------------------------------*\
  =========                 |
  \\      /  F ield         | OpenFOAM: The Open Source CFD Toolbox
   \\    /   O peration     | Website:  https://openfoam.org
    \\  /    A nd           | Version:  7
     \\/     M anipulation  |
\*---------------------------------------------------------------------------*/
FoamFile
{
    version     2.0;
    format      ascii;
    class       surfaceScalarField;
    location    "5";
    object      phi;
}
// * * * * * * * * * * * * * * * * * * * * * * * * * * * * * * * * * * * * * //

dimensions      [0 3 -1 0 0 0 0];

internalField   nonuniform List<scalar> 
11919
(
-0.00225225
0.000363792
3.71236e-10
-0.00259842
0.000346167
7.12805e-10
-0.00290267
0.000304256
1.07718e-09
-0.00313535
0.000232678
1.44262e-09
-0.00326184
0.000126486
1.76604e-09
-0.00324527
-1.65684e-05
1.88134e-09
-0.00305616
-0.000189113
1.94644e-09
-0.00267185
-0.000384313
1.80438e-09
-0.00208644
-0.000585414
1.47267e-09
-0.00131703
-0.000769414
9.95072e-10
-0.000380133
-0.000936895
4.5105e-10
0.000656028
-0.00103616
-1.14255e-10
-0.00117502
-6.30048e-10
0.00183105
-0.00212982
0.000696268
-0.0024381
0.000654438
-0.00269785
0.000564008
-0.00287992
0.000414753
-0.00295032
0.000196884
-0.00287557
-9.13144e-05
-0.002625
-0.000439686
-0.00217876
-0.000830552
-0.00153494
-0.00122923
-0.000710623
-0.00159373
0.000266168
-0.00191369
0.00133959
-0.00210958
-0.00236231
0.00252688
-0.00189567
0.000969812
-0.00213353
0.000892294
-0.0023119
0.000742385
-0.00240336
0.000506206
-0.00237591
0.000169435
-0.00220125
-0.00026597
-0.00184993
-0.000791003
-0.00130598
-0.0013745
-0.00057417
-0.00196105
0.00032449
-0.00249239
0.00135135
-0.00294055
0.00246279
-0.00322103
-0.00354715
0.00364764
-0.00156884
0.00116314
-0.00171256
0.00103602
-0.00178449
0.000814316
-0.00176047
0.00048218
-0.00161243
2.13956e-05
-0.00131795
-0.000560451
-0.000850987
-0.00125796
-0.000198367
-0.00202712
0.000609834
-0.00276925
0.00156669
-0.00344924
0.00262249
-0.00399635
0.00374174
-0.00434028
-0.00468935
0.00488394
-0.00117361
-0.00120948
0.00107189
-0.00116235
0.000767191
-0.00101123
0.000331062
-0.000739261
-0.000250577
-0.000319144
-0.000980568
0.000259902
-0.00183701
0.000996581
-0.0027638
0.00187414
-0.00364681
0.00286259
-0.00443769
0.00390657
-0.00504033
0.00498797
-0.00542168
-0.00574444
0.00604306
-0.000660499
0.000995901
-0.000493263
0.000599955
-0.000218952
5.67508e-05
0.000176193
-0.000645722
0.000709524
-0.0015139
0.00138622
-0.00251371
0.00220029
-0.00357787
0.00311819
-0.00456471
0.0041027
-0.00542221
0.00509639
-0.00603402
0.00609644
-0.00642173
-0.00668034
0.00703235
-0.000100459
0.000812651
0.000179874
0.000319622
0.000567314
-0.000330689
0.00107357
-0.00115197
0.00170981
-0.00215014
0.00247279
-0.00327669
0.00334117
-0.00444625
0.00426904
-0.00549258
0.00521366
-0.00636683
0.00612391
-0.00694427
0.00700993
-0.00730775
-0.00748193
0.00781151
0.000442579
0.000531211
0.000822646
-6.04445e-05
0.0013102
-0.000818244
0.00191543
-0.0017572
0.0026431
-0.00287781
0.00347589
-0.00410948
0.00437287
-0.00534323
0.00527818
-0.00639789
0.00614935
-0.00723799
0.0069513
-0.00774622
0.00770653
-0.00806298
-0.00815141
0.00837601
0.000944953
0.000165139
0.00141193
-0.000527421
0.00198914
-0.00139545
0.0026851
-0.00245317
0.00349266
-0.00368538
0.00437383
-0.00499064
0.00526763
-0.00623703
0.00611619
-0.00724645
0.00688659
-0.00800839
0.00756726
-0.00842689
0.00819252
-0.00868824
-0.00870548
0.00874659
0.00139541
-0.0002747
0.00194105
-0.00107306
0.00260353
-0.00205793
0.00338464
-0.00323428
0.0042556
-0.00455634
0.00515419
-0.00588922
0.0060072
-0.00709003
0.00676755
-0.0080068
0.00742125
-0.00866209
0.00798232
-0.00898797
0.00849376
-0.00919968
-0.0091696
0.00895787
0.00179492
0.00241901
-0.00169715
0.00316715
-0.00280608
0.00402319
-0.00409031
0.00492888
-0.00546204
0.00580381
-0.00676415
0.00657857
-0.00786479
0.00722964
-0.00865788
0.00776616
-0.00919861
0.00822334
-0.00944515
0.00864657
-0.00962291
-0.00957122
0.00904819
0.00286559
-0.00240531
0.00369586
-0.00363635
0.00460221
-0.00499666
0.00549993
-0.00635976
0.00630754
-0.00757176
0.00697702
-0.00853427
0.00751442
-0.00919527
0.00794832
-0.00963251
0.00832627
-0.0098231
0.00868884
-0.00998548
-0.0099342
0.00905182
0.00329961
-0.00319984
0.00419297
-0.0045297
0.0051074
-0.00591109
0.00594902
-0.00720138
0.00665598
-0.00827871
0.00721155
-0.00908985
0.00764757
-0.0096313
0.00800274
-0.00998768
0.00832776
-0.0101481
0.00865311
-0.0103108
-0.010276
0.00899488
0.00372515
-0.00406762
0.00464242
-0.00544697
0.00551409
-0.00678276
0.00626102
-0.00794831
0.00685386
-0.00887155
0.00730539
-0.00954138
0.00766261
-0.00998852
0.00796448
-0.0102895
0.00825868
-0.0104423
0.0085634
-0.0106155
-0.0106076
0.00889502
0.00412556
0.0050158
-0.00633721
0.00580165
-0.00756861
0.00643581
-0.00858247
0.00692113
-0.00935688
0.00728991
-0.00991016
0.00759276
-0.0102914
0.00786253
-0.0105593
0.00814143
-0.0107212
0.00843549
-0.0109096
-0.0109353
0.00876317
0.00528809
-0.00715447
0.00596515
-0.00824567
0.00648952
-0.00910684
0.00688648
-0.00975384
0.00719639
-0.0102201
0.00746523
-0.0105602
0.00771776
-0.0108118
0.00799058
-0.010994
0.00827879
-0.0111978
-0.0112624
0.00860591
0.00544981
0.00601654
-0.0088124
0.00644762
-0.00953792
0.00677889
-0.0100851
0.00705044
-0.0104916
0.00729946
-0.0108092
0.00754387
-0.0110562
0.00781483
-0.011265
0.00809839
-0.0114814
-0.011591
0.00842704
0.00597768
-0.00928169
0.00633649
-0.00989674
0.00662228
-0.0103709
0.00687037
-0.0107397
0.00710825
-0.0110471
0.00734948
-0.0112975
0.00761918
-0.0115347
0.00789737
-0.0117596
-0.0119209
0.00822723
0.0058722
0.00617832
-0.0102029
0.00643399
-0.0106266
0.00666809
-0.0109738
0.0068996
-0.0112786
0.00714007
-0.0115379
0.00740639
-0.011801
0.00767802
-0.0120312
-0.0122462
0.0080033
0.00598947
-0.0104718
0.00622545
-0.0108626
0.00645078
-0.0111991
0.00667825
-0.0115061
0.00691874
-0.0117784
0.00717867
-0.0120609
0.00743918
-0.0122917
-0.0125791
0.00777212
0.00577862
0.0060014
-0.0110853
0.00622047
-0.0114182
0.00644473
-0.0117304
0.00668422
-0.0120179
0.00693941
-0.0123161
0.00720765
-0.01256
-0.0128762
0.00750468
0.00577061
-0.0112982
0.00598396
-0.0116316
0.00620446
-0.0119509
0.00643993
-0.0122534
0.00668744
-0.0125636
0.00696555
-0.0128381
-0.0131869
0.00727628
0.00553304
0.00574039
-0.0118389
0.00595584
-0.0121663
0.00618502
-0.0124826
0.00642966
-0.0128083
0.00669771
-0.0131061
-0.013467
0.00697786
0.00549053
0.00569931
-0.0123751
0.00592171
-0.012705
0.00615714
-0.0130437
0.00641453
-0.0133635
-0.0137449
0.00669239
0.0054356
0.00564881
-0.0129182
0.00587519
-0.0132701
0.00612208
-0.0136104
-0.014003
0.00638021
0.00536786
0.00558288
-0.0134851
0.00581563
-0.0138431
-0.0142495
0.00606206
0.00528136
0.00550053
-0.0140623
-0.0144792
0.00573024
0.00517493
0.00538886
0.00517493
0.0140623
0.0144792
0.00538886
0.00528136
0.0134851
0.00550053
0.0138431
0.0142495
0.00573024
0.00536786
0.0129182
0.00558288
0.0132701
0.00581563
0.0136104
0.014003
0.00606206
0.0054356
0.0123751
0.00564881
0.012705
0.0058752
0.0130437
0.00612208
0.0133635
0.0137449
0.00638021
0.00549053
0.0118389
0.00569931
0.0121663
0.00592171
0.0124826
0.00615714
0.0128083
0.00641453
0.0131061
0.013467
0.00669239
0.00553304
0.0112982
0.00574039
0.0116316
0.00595584
0.0119509
0.00618502
0.0122534
0.00642966
0.0125636
0.00669771
0.0128381
0.0131869
0.00697786
0.00577061
0.0110853
0.00598396
0.0114182
0.00620446
0.0117304
0.00643993
0.0120179
0.00668744
0.0123161
0.00696555
0.01256
0.0128762
0.00727628
0.00577862
0.0104718
0.0060014
0.0108626
0.00622047
0.0111991
0.00644473
0.0115061
0.00668422
0.0117784
0.00693941
0.0120609
0.00720765
0.0122917
0.0125791
0.00750468
0.00598947
0.0102029
0.00622545
0.0106266
0.00645078
0.0109738
0.00667825
0.0112786
0.00691874
0.0115379
0.00717867
0.011801
0.00743918
0.0120312
0.0122462
0.00777212
0.00587221
0.00928169
0.00617832
0.00989674
0.00643399
0.0103709
0.00666809
0.0107397
0.0068996
0.0110471
0.00714007
0.0112975
0.00740639
0.0115347
0.00767802
0.0117596
0.0119209
0.0080033
0.00597768
0.0088124
0.0063365
0.00953792
0.00662228
0.0100851
0.00687037
0.0104916
0.00710826
0.0108092
0.00734949
0.0110562
0.00761918
0.011265
0.00789737
0.0114814
0.011591
0.00822724
0.00544981
0.00715447
0.00601654
0.00824567
0.00644762
0.00910684
0.00677889
0.00975384
0.00705044
0.0102201
0.00729947
0.0105602
0.00754387
0.0108118
0.00781483
0.010994
0.00809839
0.0111978
0.0112624
0.00842704
0.00528809
0.00633721
0.00596515
0.00756861
0.00648952
0.00858247
0.00688648
0.00935688
0.00719639
0.00991015
0.00746523
0.0102914
0.00771776
0.0105593
0.00799058
0.0107212
0.00827879
0.0109096
0.0109353
0.00860591
0.00412556
0.00406762
0.0050158
0.00544697
0.00580165
0.00678276
0.00643581
0.00794831
0.00692113
0.00887155
0.00728991
0.00954138
0.00759276
0.00998852
0.00786253
0.0102895
0.00814143
0.0104423
0.00843549
0.0106155
0.0106076
0.00876317
0.00372515
0.00319984
0.00464242
0.0045297
0.00551409
0.00591109
0.00626102
0.00720138
0.00685386
0.00827871
0.00730539
0.00908985
0.00766261
0.0096313
0.00796448
0.00998768
0.00825868
0.0101481
0.0085634
0.0103108
0.010276
0.00889502
0.00329961
0.00240531
0.00419297
0.00363634
0.0051074
0.00499665
0.00594902
0.00635976
0.00665598
0.00757176
0.00721155
0.00853427
0.00764757
0.00919527
0.00800274
0.00963251
0.00832776
0.0098231
0.00865311
0.00998548
0.0099342
0.00899488
0.00286559
0.00169715
0.00369586
0.00280608
0.0046022
0.0040903
0.00549993
0.00546203
0.00630754
0.00676415
0.00697702
0.00786479
0.00751442
0.00865788
0.00794832
0.00919861
0.00832627
0.00944515
0.00868884
0.00962291
0.00957122
0.00905182
0.00179491
0.000274698
0.002419
0.00107306
0.00316715
0.00205793
0.00402318
0.00323427
0.00492888
0.00455634
0.00580381
0.00588922
0.00657857
0.00709003
0.00722964
0.0080068
0.00776616
0.00866209
0.00822334
0.00898797
0.00864657
0.00919968
0.0091696
0.00904819
0.00139541
-0.000165141
0.00194105
0.000527419
0.00260353
0.00139545
0.00338464
0.00245316
0.0042556
0.00368537
0.00515419
0.00499063
0.0060072
0.00623702
0.00676755
0.00724645
0.00742125
0.00800839
0.00798232
0.0084269
0.00849376
0.00868824
0.00870548
0.00895788
0.000944952
-0.000531213
0.00141193
6.04424e-05
0.00198914
0.000818241
0.0026851
0.0017572
0.00349266
0.00287781
0.00437383
0.00410947
0.00526763
0.00534322
0.00611619
0.00639789
0.00688659
0.00723799
0.00756726
0.00774622
0.00819252
0.00806298
0.00815141
0.00874659
0.000442579
-0.000812653
0.000822646
-0.000319624
0.0013102
0.000330687
0.00191543
0.00115197
0.0026431
0.00215014
0.00347589
0.00327669
0.00437287
0.00444624
0.00527818
0.00549258
0.00614935
0.00636683
0.0069513
0.00694427
0.00770653
0.00730775
0.00748193
0.00837601
-0.00010046
-0.000995902
0.000179874
-0.000599958
0.000567314
-5.67535e-05
0.00107356
0.000645719
0.00170981
0.0015139
0.00247279
0.0025137
0.00334117
0.00357786
0.00426904
0.0045647
0.00521366
0.00542221
0.00612391
0.00603402
0.00700993
0.00642173
0.00668034
0.00781151
-0.0006605
-0.00107189
-0.000493264
-0.000767194
-0.000218952
-0.000331065
0.000176192
0.000250574
0.000709524
0.000980565
0.00138622
0.00183701
0.00220029
0.0027638
0.00311819
0.0036468
0.0041027
0.00443769
0.00509639
0.00504033
0.00609644
0.00542168
0.00574444
0.00703235
-0.00117361
-0.00116314
-0.00120948
-0.00103602
-0.00116235
-0.000814318
-0.00101123
-0.000482183
-0.000739262
-2.13992e-05
-0.000319144
0.000560448
0.000259902
0.00125796
0.000996581
0.00202712
0.00187414
0.00276925
0.00286259
0.00344924
0.00390657
0.00399635
0.00498797
0.00434028
0.00468935
0.00604306
-0.00156884
-0.000969812
-0.00171256
-0.000892296
-0.00178449
-0.000742388
-0.00176047
-0.000506209
-0.00161243
-0.000169438
-0.00131795
0.000265967
-0.000850987
0.000791
-0.000198367
0.0013745
0.000609834
0.00196105
0.00156669
0.00249239
0.00262249
0.00294055
0.00374174
0.00322103
0.00354716
0.00488394
-0.00189567
-0.000696269
-0.00213353
-0.000654439
-0.0023119
-0.00056401
-0.00240336
-0.000414756
-0.00237591
-0.000196887
-0.00220125
9.13107e-05
-0.00184993
0.000439682
-0.00130598
0.000830549
-0.00057417
0.00122923
0.00032449
0.00159373
0.00135135
0.00191368
0.0024628
0.00210958
0.00236231
0.00364764
-0.00212982
-0.000363793
-0.0024381
-0.000346169
-0.00269785
-0.000304258
-0.00287992
-0.000232681
-0.00295032
-0.000126489
-0.00287557
1.65647e-05
-0.002625
0.000189109
-0.00217876
0.00038431
-0.00153494
0.000585411
-0.000710622
0.000769412
0.000266169
0.000936894
0.00133959
0.00103616
0.00117502
0.00252688
-0.00225225
-0.00259842
-0.00290267
-0.00313535
-0.00326184
-0.00324527
-0.00305616
-0.00267185
-0.00208644
-0.00131703
-0.000380133
0.000656028
0.00183105
0.00244565
-0.000614604
-5.74919e-10
0.0030266
-0.000580946
-7.0107e-10
0.00357485
-0.000548253
-8.07704e-10
0.00409202
-0.000517162
-8.92664e-10
0.00457811
-0.000486089
-9.52823e-10
0.0050329
-0.000454794
-9.87005e-10
0.00545676
-0.000423852
-9.95437e-10
0.0058507
-0.000393943
-9.78774e-10
0.00621614
-0.000365439
-9.37856e-10
0.00655463
-0.000338487
-8.7395e-10
0.00686781
-0.000313181
-7.89156e-10
0.00715739
-0.000289576
-6.86178e-10
0.00742502
-0.000267637
-5.68496e-10
0.00767224
-0.000247212
-4.40782e-10
0.00790027
-0.00022803
-3.08857e-10
0.00811
-0.000209728
-1.79556e-10
0.00830187
-0.000191879
-6.00614e-11
0.00847594
-0.000174065
4.23534e-11
0.0086319
-0.000155962
1.2214e-10
0.00876934
-0.000137438
1.76914e-10
0.00888796
-0.000118616
2.07777e-10
0.00898783
-9.98758e-05
2.18812e-10
0.00906961
-8.17816e-05
2.15841e-10
0.00913455
-6.49419e-05
2.04516e-10
0.00918441
-4.98536e-05
1.89332e-10
0.00922121
-3.68003e-05
1.73605e-10
0.00924704
-2.58345e-05
1.58562e-10
0.00926387
-1.68246e-05
1.44929e-10
0.00927339
-9.52643e-06
1.31786e-10
0.00927702
-3.62508e-06
1.21099e-10
0.00927587
1.14597e-06
1.05607e-10
0.00927091
4.96483e-06
9.72837e-11
0.00926268
8.2222e-06
8.87587e-11
0.00925163
1.10585e-05
8.05454e-11
0.00923805
1.35743e-05
7.32382e-11
0.00922221
1.58377e-05
6.66775e-11
0.00920432
1.78894e-05
6.06796e-11
0.00918456
1.97665e-05
5.52067e-11
0.00916307
2.14867e-05
5.03987e-11
0.00913999
2.30834e-05
4.57615e-11
0.00911542
2.45632e-05
4.17531e-11
0.00908946
2.59624e-05
3.78842e-11
0.00906219
2.7274e-05
3.47207e-11
0.00903364
2.85429e-05
3.11378e-11
0.0090039
2.97406e-05
2.85473e-11
0.00897297
3.09335e-05
2.52189e-11
0.00894091
3.20558e-05
2.35222e-11
0.0089077
3.3216e-05
2.01048e-11
0.00887341
3.42857e-05
1.93395e-11
3.54527e-05
1.54169e-11
0.00308237
-0.0011701
0.0036084
-0.00110698
0.00410568
-0.00104553
0.00457482
-0.000986306
0.00501532
-0.000926592
0.00542691
-0.000866381
0.00581009
-0.00080703
0.00616583
-0.000749685
0.00649543
-0.000695036
0.00680032
-0.000643382
0.00708207
-0.000594925
0.00734228
-0.000549792
0.00758257
-0.000507929
0.00780442
-0.000469058
0.00800908
-0.000432687
0.00819748
-0.000398134
0.00837019
-0.000364585
0.00852734
-0.000331219
0.00866875
-0.000297372
0.00879404
-0.000262726
0.00890286
-0.000227438
0.00899515
-0.000192165
0.00907131
-0.000157942
0.00913229
-0.000125919
0.00917949
-9.7061e-05
0.00921464
-7.19473e-05
0.00923953
-5.07236e-05
0.00925589
-3.31835e-05
0.00926526
-1.88981e-05
0.00926893
-7.29294e-06
0.00926794
2.13813e-06
0.0092632
9.70134e-06
0.00925525
1.61695e-05
0.0092445
2.18098e-05
0.00923126
2.68171e-05
0.00921577
3.13245e-05
0.00919825
3.54112e-05
0.00917887
3.915e-05
0.00915778
4.25762e-05
0.00913511
4.57558e-05
0.00911097
4.87017e-05
0.00908544
5.14864e-05
0.00905862
5.40958e-05
0.00903054
5.66196e-05
0.00900128
5.9001e-05
0.00897085
6.13722e-05
0.0089393
6.36022e-05
0.00890661
6.59074e-05
0.00887286
6.80314e-05
7.03493e-05
0.0041067
-0.00162916
0.00454383
-0.0015441
0.00495822
-0.00145991
0.00534954
-0.00137763
0.00571675
-0.0012938
0.00605932
-0.00120895
0.00637773
-0.00112544
0.00667289
-0.00104485
0.00694579
-0.000967937
0.00719761
-0.000895197
0.00742967
-0.000826982
0.00764339
-0.000763513
0.00784021
-0.000704756
0.00802153
-0.000650372
0.00818857
-0.000599733
0.00834238
-0.000551939
0.00848368
-0.000505881
0.00861284
-0.000460383
0.00872991
-0.000414438
0.00883465
-0.000367467
0.00892673
-0.000319523
0.00900593
-0.000271363
0.0090723
-0.000224316
0.00912632
-0.000179936
0.00916885
-0.000139593
0.00920107
-0.000104162
0.00922428
-7.39386e-05
0.00923983
-4.87309e-05
0.00924896
-2.80236e-05
0.00925274
-1.10785e-05
0.00925207
2.80722e-06
0.0092478
1.3974e-05
0.00924041
2.35642e-05
0.00923027
3.19457e-05
0.00921769
3.9397e-05
0.00920291
4.61097e-05
0.00918612
5.2198e-05
0.0091675
5.77683e-05
0.0091472
6.28719e-05
0.00912535
6.76067e-05
0.00910206
7.19916e-05
0.00907741
7.61346e-05
0.0090515
8.00143e-05
0.00902435
8.37652e-05
0.00899605
8.73019e-05
0.0089666
9.08225e-05
0.00893607
9.41307e-05
0.00890443
9.75505e-05
0.00887176
0.000100698
0.000104135
0.00522957
-0.0019748
0.00556273
-0.00187726
0.00588134
-0.00177852
0.00618398
-0.00168027
0.00646895
-0.00157876
0.00673528
-0.00147528
0.006983
-0.00137316
0.0072128
-0.00127465
0.00742524
-0.00118038
0.00762096
-0.00109091
0.00780084
-0.00100687
0.00796592
-0.000928593
0.00811729
-0.000856129
0.00825608
-0.00078916
0.0083834
-0.000727047
0.00850028
-0.000668821
0.00860761
-0.000613218
0.00870605
-0.000558821
0.00879595
-0.000504335
0.00887736
-0.000448882
0.00895012
-0.000392283
0.00901396
-0.000335197
0.00906867
-0.000279028
0.00911429
-0.000225552
0.00915112
-0.000176423
0.00917973
-0.000132781
0.00920091
-9.51118e-05
0.0092155
-6.33233e-05
0.0092244
-3.69194e-05
0.00922843
-1.51115e-05
0.00922828
2.95629e-06
0.00922472
1.75344e-05
0.00921816
3.0124e-05
0.00920895
4.11565e-05
0.00919736
5.09824e-05
0.00918363
5.98435e-05
0.00916794
6.78838e-05
0.00915047
7.52404e-05
0.00913137
8.19787e-05
0.00911074
8.82274e-05
0.00908873
9.40103e-05
0.00906539
9.94708e-05
0.00904082
0.00010458
0.00901507
0.000109516
0.00898821
0.000114166
0.00896024
0.000118792
0.00893124
0.000123135
0.00890116
0.000127624
0.00887011
0.000131749
0.000136256
0.00627092
-0.00220266
0.00649673
-0.00210307
0.00671762
-0.00199941
0.00693114
-0.00189379
0.00713494
-0.00178256
0.0073276
-0.00166794
0.00750847
-0.00155404
0.00767749
-0.00144366
0.00783487
-0.00133776
0.00798057
-0.00123661
0.00811478
-0.00114108
0.00823794
-0.00105176
0.00835062
-0.000968801
0.00845345
-0.000891999
0.00854723
-0.000820823
0.0086328
-0.000754386
0.00871102
-0.000691441
0.0087827
-0.000630503
0.00884848
-0.000570109
0.00890873
-0.000509138
0.00896357
-0.000447121
0.00901285
-0.000384472
0.00905628
-0.000322466
0.00909363
-0.000262901
0.00912478
-0.00020757
0.0091498
-0.000157802
0.00916896
-0.000114273
0.00918268
-7.70446e-05
0.00919149
-4.57267e-05
0.00919596
-1.95856e-05
0.00919657
2.35361e-06
0.00919398
2.01196e-05
0.00918854
3.55608e-05
0.00918057
4.91305e-05
0.00917031
6.12417e-05
0.00915798
7.21767e-05
0.00914376
8.21036e-05
0.00912781
9.11866e-05
0.00911029
9.95029e-05
0.0090913
0.00010721
0.00907098
0.000114337
0.00904939
0.000121061
0.00902662
0.000127345
0.00900273
0.000133411
0.00897778
0.000139117
0.00895178
0.000144792
0.0089248
0.00015011
0.00889682
0.000155607
0.00886792
0.000160649
0.000166163
0.00714942
-0.00231974
0.00727411
-0.00222776
0.0074034
-0.0021287
0.00753407
-0.00202447
0.00766336
-0.00191185
0.00778946
-0.00179404
0.00791116
-0.00167574
0.00802745
-0.00155996
0.00813779
-0.0014481
0.00824185
-0.00134067
0.00833906
-0.00123829
0.00842913
-0.00114183
0.00851201
-0.00105167
0.00858777
-0.000967761
0.0086567
-0.000889756
0.00871928
-0.000816964
0.00877614
-0.000748299
0.00882801
-0.000682374
0.00887562
-0.000617728
0.00891961
-0.000553119
0.00896032
-0.000487834
0.00899783
-0.00042198
0.00903193
-0.000356571
0.0090623
-0.000293269
0.00908859
-0.000233856
0.00911054
-0.000179753
0.00912805
-0.000131783
0.00914118
-9.01777e-05
0.00915016
-5.46995e-05
0.00915532
-2.47501e-05
0.00915695
7.26168e-07
0.00915561
2.14544e-05
0.00915159
3.95811e-05
0.00914517
5.55543e-05
0.00913657
6.98434e-05
0.00912598
8.27615e-05
0.00911359
9.44943e-05
0.00909955
0.000105229
0.009084
0.000115053
0.00906706
0.000124151
0.00904884
0.000132555
0.00902943
0.000140474
0.00900891
0.000147864
0.00898733
0.00015499
0.00896476
0.000161683
0.00894122
0.000168334
0.00891678
0.000174555
0.0088914
0.000180985
0.00886518
0.000186868
0.000193308
0.0078345
-0.00234272
0.00787263
-0.00226589
0.00792323
-0.00217931
0.00798288
-0.00208411
0.00804862
-0.0019776
0.00811844
-0.00186386
0.00819068
-0.00174797
0.00826366
-0.00163294
0.00833591
-0.00152035
0.00840656
-0.00141132
0.00847484
-0.00130657
0.00853978
-0.00120677
0.00860068
-0.00111257
0.0086571
-0.00102418
0.00870885
-0.000941497
0.00875594
-0.000864062
0.00879868
-0.000791031
0.00883753
-0.000721232
0.00887316
-0.000653353
0.00890622
-0.000586177
0.00893723
-0.00051885
0.00896645
-0.000451202
0.00899382
-0.000383942
0.00901906
-0.0003185
0.00904174
-0.000256543
0.00906147
-0.000199483
0.00907791
-0.000148224
0.00909088
-0.000103144
0.00910036
-6.41756e-05
0.0091065
-3.08996e-05
0.00910946
-2.23175e-06
0.00910966
2.12552e-05
0.00910736
4.18855e-05
0.0091028
6.01124e-05
0.00909619
7.64564e-05
0.0090877
9.12513e-05
0.0090775
0.000104695
0.00906573
0.000116994
0.00905254
0.000128241
0.00903805
0.000138648
0.00902235
0.000148247
0.00900555
0.000157281
0.00898771
0.000165696
0.00896891
0.0001738
0.00894919
0.000181395
0.00892859
0.000188936
0.00890717
0.000195972
0.00888491
0.000203245
0.0088619
0.000209877
0.000217149
0.00832683
-0.00229354
0.00829767
-0.00223673
0.00828644
-0.00216808
0.0082899
-0.00208757
0.00830531
-0.00199301
0.00833061
-0.00188916
0.00836384
-0.0017812
0.00840291
-0.00167201
0.00844581
-0.00156325
0.0084909
-0.0014564
0.00853708
-0.00135275
0.00858331
-0.001253
0.00862835
-0.00115762
0.00867129
-0.00106712
0.0087115
-0.000981708
0.00874865
-0.000901214
0.00878267
-0.000825051
0.00881374
-0.000752307
0.0088423
-0.000681912
0.00886892
-0.000612793
0.00889413
-0.000544067
0.0089183
-0.000475364
0.00894147
-0.000407113
0.00896346
-0.00034049
0.00898391
-0.000276992
0.00900237
-0.000217948
0.00901842
-0.000164271
0.00903171
-0.000116438
0.00904208
-7.45395e-05
0.0090495
-3.83187e-05
0.00905419
-6.92754e-06
0.00905618
1.92691e-05
0.0090559
4.2168e-05
0.00905352
6.24889e-05
0.00904922
8.07505e-05
0.00904317
9.73013e-05
0.00903552
0.000112346
0.00902641
0.000126108
0.00901597
0.000138682
0.00900431
0.000150303
0.00899156
0.000161004
0.00897778
0.000171059
0.00896307
0.000180404
0.00894748
0.000189389
0.00893109
0.000197789
0.00891391
0.000206119
0.00889601
0.000213868
0.00887737
0.000221879
0.0088581
0.000229154
0.000237147
0.00864786
-0.00219481
0.00857149
-0.00216035
0.00851586
-0.00211246
0.00847826
-0.00204997
0.00845644
-0.00197119
0.00844856
-0.00188128
0.00845256
-0.00178519
0.00846612
-0.00168557
0.00848702
-0.00158415
0.00851328
-0.00148266
0.00854321
-0.00138268
0.00857555
-0.00128534
0.00860917
-0.00119124
0.00864276
-0.0011007
0.00867532
-0.00101427
0.00870623
-0.000932122
0.00873513
-0.000853947
0.00876193
-0.000779107
0.00878682
-0.000706802
0.0088102
-0.000636174
0.00883253
-0.000566403
0.00885417
-0.000497002
0.00887524
-0.000428179
0.00889564
-0.000360889
0.0089151
-0.000296451
0.00893322
-0.000236071
0.00894955
-0.000180605
0.00896369
-0.000130575
0.00897535
-8.6202e-05
0.00898442
-4.73907e-05
0.0089911
-1.36041e-05
0.00899521
1.51562e-05
0.00899727
4.01099e-05
0.0089974
6.23657e-05
0.00899575
8.23956e-05
0.00899248
0.000100568
0.00898774
0.000117093
0.00898164
0.000132203
0.00897433
0.000145994
0.00896591
0.000158722
0.0089565
0.000170419
0.00894617
0.000181387
0.00893502
0.000191554
0.00892309
0.000201311
0.00891048
0.000210405
0.00889719
0.000219411
0.0088833
0.000227758
0.00886879
0.000236386
0.00885376
0.000244184
0.00025277
0.00882952
-0.00206646
0.00872371
-0.00205454
0.00863917
-0.00202792
0.00857382
-0.00198461
0.00852616
-0.00192353
0.00849477
-0.00184989
0.00847768
-0.0017681
0.00847259
-0.00168049
0.00847728
-0.00158883
0.00848966
-0.00149505
0.00850787
-0.00140089
0.00853022
-0.00130769
0.0085554
-0.00121642
0.00858234
-0.00112765
0.00860979
-0.00104172
0.00863681
-0.000959139
0.00866281
-0.000879947
0.00868749
-0.00080379
0.00871083
-0.000730144
0.00873305
-0.000658389
0.00875447
-0.000587823
0.00877537
-0.000517909
0.0087959
-0.000448703
0.008816
-0.000380997
0.00883552
-0.000315964
0.00885411
-0.000254669
0.00887137
-0.000197863
0.00888685
-0.000146056
0.00890023
-9.95753e-05
0.00891132
-5.8488e-05
0.00892027
-2.25459e-05
0.00892683
8.58786e-06
0.00893156
3.53846e-05
0.0089345
5.94206e-05
0.00893584
8.10606e-05
0.0089357
0.00010071
0.00893421
0.000118582
0.0089315
0.000134914
0.00892769
0.000149801
0.0089229
0.000163516
0.00891723
0.00017609
0.00891076
0.000187853
0.00890359
0.000198722
0.00889578
0.000209127
0.00888739
0.000218789
0.00887846
0.000228343
0.00886906
0.000237158
0.00885918
0.000246271
0.0088489
0.000254456
0.000263494
0.00890551
-0.00192377
0.00878404
-0.00193307
0.0086827
-0.00192658
0.00860006
-0.00190198
0.00853549
-0.00185896
0.00848808
-0.00180248
0.00845616
-0.00173618
0.00843762
-0.00166195
0.00843038
-0.00158159
0.00843245
-0.00149712
0.00844192
-0.00141036
0.00845702
-0.00132279
0.00847616
-0.00123556
0.00849811
-0.00114959
0.00852191
-0.00106553
0.00854645
-0.000983675
0.00857088
-0.000904376
0.00859471
-0.000827622
0.00861775
-0.000753182
0.00864004
-0.000680684
0.00866178
-0.000609562
0.00868315
-0.000539275
0.00870423
-0.000469787
0.00872503
-0.000401793
0.00874543
-0.000336367
0.0087652
-0.000274439
0.00878396
-0.000216619
0.00880126
-0.000163356
0.00881674
-0.000115061
0.00883023
-7.19704e-05
0.00884177
-3.40923e-05
0.0088511
-7.37206e-07
0.00885883
2.76496e-05
0.00886493
5.33242e-05
0.00886958
7.64123e-05
0.0088729
9.73861e-05
0.00887502
0.000116461
0.00887605
0.000133881
0.00887612
0.000149731
0.00887534
0.000164302
0.00887381
0.000177622
0.00887161
0.000190047
0.00886885
0.000201484
0.00886557
0.000212402
0.00886187
0.000222496
0.00885776
0.000232456
0.00885332
0.000241596
0.00884854
0.000251044
0.00884353
0.000259467
0.000268801
0.00890517
-0.00177713
0.00877755
-0.00180545
0.00866791
-0.00181694
0.00857547
-0.00180954
0.00850045
-0.00178393
0.0084425
-0.00174453
0.00840027
-0.00169395
0.008372
-0.00163368
0.00835589
-0.00156548
0.00835012
-0.00149134
0.00835285
-0.00141309
0.00836235
-0.00133229
0.00837701
-0.00125021
0.00839538
-0.00116797
0.00841636
-0.0010865
0.00843913
-0.00100645
0.00846274
-0.000927981
0.00848645
-0.000851336
0.00850991
-0.000776641
0.00853303
-0.000703799
0.00855585
-0.000632388
0.00857846
-0.000561883
0.00860088
-0.000492207
0.00862311
-0.000424017
0.00864508
-0.000358339
0.00866662
-0.000295981
0.00868739
-0.000237392
0.00870696
-0.000182924
0.00872495
-0.000133049
0.00874116
-8.81835e-05
0.00875552
-4.84479e-05
0.00876825
-1.34698e-05
0.00877917
1.67284e-05
0.00878876
4.37381e-05
0.00879706
6.81162e-05
0.00880419
9.02552e-05
0.00881026
0.000110385
0.0088154
0.000128747
0.00881971
0.000145417
0.00882331
0.000160702
0.00882631
0.000174626
0.00882879
0.000187569
0.00883084
0.000199429
0.00883253
0.000210711
0.00883394
0.000221085
0.0088351
0.000231296
0.0088361
0.000240604
0.00883691
0.000250226
0.00883766
0.000258723
0.000268182
0.00885066
-0.00163291
0.00872284
-0.00167763
0.00861035
-0.00170445
0.0085131
-0.00171229
0.00843208
-0.00170292
0.00836738
-0.00167983
0.00831801
-0.00164459
0.00828264
-0.00159831
0.00825979
-0.00154263
0.00824786
-0.00147942
0.00824521
-0.00141044
0.00825018
-0.00133726
0.00826121
-0.00126124
0.00827686
-0.00118362
0.00829588
-0.00110552
0.00831727
-0.00102785
0.00834038
-0.000951096
0.0083644
-0.000875354
0.00838874
-0.00080098
0.00841315
-0.000728212
0.00843758
-0.000656811
0.00846198
-0.000586283
0.00848631
-0.000516544
0.00851056
-0.000448262
0.00853467
-0.000382451
0.00855851
-0.000319824
0.00858178
-0.000260655
0.00860404
-0.000205187
0.00862492
-0.000153931
0.00864422
-0.000107482
0.00866187
-6.61014e-05
0.00867811
-2.97098e-05
0.00869266
2.1783e-06
0.00870611
3.02963e-05
0.00871839
5.58348e-05
0.00872966
7.89812e-05
0.00874004
0.000100009
0.00874962
0.000119161
0.00875854
0.000136499
0.0087669
0.000152345
0.0087748
0.00016672
0.00878235
0.000180024
0.00878963
0.000192149
0.0087967
0.000203634
0.00880366
0.000214125
0.00881054
0.000224419
0.00881742
0.000233725
0.0088243
0.000243345
0.00883129
0.000251739
0.000261137
0.00875691
-0.00149481
0.0086323
-0.00155301
0.0085202
-0.00159235
0.00842135
-0.00161344
0.00833733
-0.00161889
0.00826846
-0.00161096
0.00821415
-0.00159027
0.0081735
-0.00155766
0.0081454
-0.00151453
0.00812852
-0.00146254
0.00812141
-0.00140332
0.00812257
-0.00133842
0.00813055
-0.00126922
0.00814396
-0.00119703
0.00816153
-0.00112309
0.00818217
-0.00104848
0.00820502
-0.000973945
0.00822954
-0.000899876
0.00825507
-0.000826515
0.00828116
-0.000754295
0.00830757
-0.000683228
0.0083342
-0.00061291
0.00836093
-0.000543273
0.00838769
-0.000475026
0.00841445
-0.000409205
0.00844106
-0.00034644
0.00846725
-0.000286843
0.00849261
-0.000230543
0.00851676
-0.000178084
0.00853951
-0.000130228
0.00856085
-8.74395e-05
0.00858084
-4.96997e-05
0.00859951
-1.64962e-05
0.00861706
1.27415e-05
0.00863369
3.92135e-05
0.00864944
6.32279e-05
0.00866445
8.49973e-05
0.00867883
0.00010478
0.00869271
0.000122624
0.00870618
0.000138869
0.00871937
0.000153529
0.00873237
0.000167028
0.00874527
0.000179247
0.00875814
0.000190762
0.00877108
0.000201193
0.00878411
0.00021139
0.00879732
0.000220511
0.00881073
0.000229938
0.00882443
0.000238039
0.000247175
0.00863323
-0.00136487
0.00851357
-0.00143335
0.00840365
-0.00148243
0.00830524
-0.00151503
0.0082202
-0.00153385
0.00814893
-0.00153968
0.0080912
-0.00153255
0.0080466
-0.00151306
0.00801436
-0.00148229
0.00799341
-0.00144159
0.00798256
-0.00139247
0.00798051
-0.00133637
0.00798592
-0.00127464
0.0079975
-0.00120861
0.00801399
-0.00113958
0.00803428
-0.00106877
0.00805742
-0.000997084
0.00808268
-0.000925133
0.0081096
-0.000853441
0.00813766
-0.000782356
0.00816643
-0.000712
0.00819567
-0.000642144
0.0082252
-0.000572804
0.00825492
-0.000504745
0.00828475
-0.000439037
0.00831456
-0.000376246
0.00834406
-0.000316346
0.00837288
-0.000259361
0.00840066
-0.000205869
0.00842722
-0.000156787