/*--------------------------------*- C++ -*----------------------------------*\
  =========                 |
  \\      /  F ield         | OpenFOAM: The Open Source CFD Toolbox
   \\    /   O peration     | Website:  https://openfoam.org
    \\  /    A nd           | Version:  7
     \\/     M anipulation  |
\*---------------------------------------------------------------------------*/
FoamFile
{
    version     2.0;
    format      ascii;
    class       volVectorField;
    location    "5";
    object      U;
}
// * * * * * * * * * * * * * * * * * * * * * * * * * * * * * * * * * * * * * //

dimensions      [0 1 -1 0 0 0 0];

internalField   nonuniform List<vector> 
6050
(
(-0.488752 0.0110284 5.00635e-20)
(-0.528784 0.00857433 -7.06753e-20)
(-0.555635 0.00519594 4.16484e-20)
(-0.566576 0.000814769 2.18127e-20)
(-0.558782 -0.00457274 7.44819e-21)
(-0.53005 -0.0108148 -2.19151e-20)
(-0.479456 -0.0177678 -1.06438e-20)
(-0.407715 -0.0246379 -5.81862e-21)
(-0.317269 -0.0307697 1.93594e-20)
(-0.213655 -0.0353554 -1.48203e-20)
(-0.0979564 -0.0385772 -9.43541e-22)
(0.0144878 -0.0388167 7.14332e-22)
(0.133555 -0.0402662 -2.69663e-22)
(-0.466306 0.0326857 -2.19144e-19)
(-0.500419 0.0253635 1.37645e-19)
(-0.52075 0.0153181 -1.09146e-19)
(-0.524734 0.00232419 1.41305e-20)
(-0.509749 -0.0136517 -5.97648e-20)
(-0.473996 -0.0321852 1.93029e-20)
(-0.416698 -0.0526041 3.36402e-20)
(-0.338824 -0.0727977 4.87711e-20)
(-0.243058 -0.0907494 2.39639e-20)
(-0.136141 -0.104083 4.62571e-20)
(-0.0174462 -0.112897 1.80527e-21)
(0.0929012 -0.113555 -1.10747e-20)
(0.215344 -0.116786 -1.70069e-21)
(-0.423098 0.0531964 1.76582e-20)
(-0.446147 0.0411322 -5.28954e-20)
(-0.454487 0.0247006 1.07817e-19)
(-0.445955 0.0035662 -3.27949e-20)
(-0.418379 -0.0223625 3.57531e-20)
(-0.370634 -0.0524766 -3.72359e-20)
(-0.30234 -0.0852874 -6.10279e-20)
(-0.215081 -0.117719 -5.29564e-20)
(-0.111756 -0.146089 -5.38537e-20)
(-0.000868298 -0.167028 -7.79615e-20)
(0.120408 -0.179608 1.47621e-20)
(0.225494 -0.180469 5.26084e-21)
(0.349263 -0.18291 5.91843e-21)
(-0.362174 0.0719045 -1.64647e-20)
(-0.370301 0.0553327 -5.00728e-21)
(-0.362831 0.0330016 -3.18574e-19)
(-0.338272 0.00454303 -1.50247e-19)
(-0.29518 -0.0300062 6.93679e-20)
(-0.233098 -0.0706275 6.25896e-21)
(-0.152376 -0.11436 6.00544e-20)
(-0.0553775 -0.157499 -1.40964e-19)
(0.0543818 -0.193706 4.59366e-20)
(0.167299 -0.220857 5.25216e-20)
(0.287006 -0.23537 3.1314e-20)
(0.383405 -0.236063 -1.29676e-20)
(0.501386 -0.235009 -7.05176e-21)
(-0.287471 0.0882643 -1.28543e-20)
(-0.278307 0.0675272 -6.42806e-21)
(-0.252994 0.0399603 6.28268e-20)
(-0.210777 0.00515675 9.37696e-20)
(-0.151476 -0.0369264 -2.52825e-19)
(-0.0749584 -0.086062 2.93258e-19)
(0.0178251 -0.138629 1.45055e-19)
(0.123635 -0.190164 1.72242e-19)
(0.237335 -0.23208 -2.24977e-21)
(0.348499 -0.263448 -2.56792e-20)
(0.461019 -0.277978 6.37504e-21)
(0.545678 -0.278007 -1.17122e-20)
(0.649806 -0.27147 -1.90891e-20)
(-0.175996 0.0773611 2.41426e-20)
(-0.132509 0.0453315 6.68633e-20)
(-0.0730112 0.00532332 5.45072e-19)
(0.00199853 -0.0430576 -6.24132e-21)
(0.0922155 -0.0985661 1.77366e-19)
(0.195861 -0.157695 -3.84871e-19)
(0.308344 -0.21504 4.91384e-20)
(0.422952 -0.26078 -4.6544e-20)
(0.528754 -0.293918 -2.5299e-20)
(0.628716 -0.306501 2.72735e-20)
(0.69865 -0.305303 -3.80457e-20)
(0.78273 -0.292487 1.54529e-20)
(-0.069031 0.0845364 -3.48414e-19)
(-0.00829025 0.0487974 4.28672e-20)
(0.0670382 0.00466042 -1.11003e-19)
(0.156217 -0.0481865 1.74611e-19)
(0.258872 -0.108572 1.56562e-21)
(0.37208 -0.172168 -1.33682e-19)
(0.489156 -0.233011 3.18866e-19)
(0.601275 -0.279783 -1.06298e-19)
(0.697669 -0.312214 -6.58429e-20)
(0.780712 -0.321376 8.59188e-20)
(0.833323 -0.318451 1.92372e-20)
(0.894008 -0.299772 6.49121e-20)
(0.0375479 0.0887362 1.06077e-18)
(0.113751 0.0499978 1.47391e-20)
(0.20318 0.00264481 -7.0409e-19)
(0.305228 -0.0534159 -7.61138e-20)
(0.419347 -0.117176 -6.42539e-19)
(0.540809 -0.183106 2.7589e-19)
(0.659711 -0.244603 -1.83802e-19)
(0.765302 -0.28959 1.62403e-19)
(0.847924 -0.319076 1.72406e-19)
(0.910936 -0.323959 4.82783e-20)
(0.944648 -0.319178 -1.04789e-19)
(0.981688 -0.295996 -4.91499e-20)
(0.139845 0.0896731 -8.65526e-19)
(0.22969 0.0485973 -2.53434e-19)
(0.331965 -0.00114581 1.63559e-19)
(0.446527 -0.0595558 2.91419e-19)
(0.571723 -0.125078 -7.91911e-20)
(0.699417 -0.190908 3.06318e-19)
(0.815975 -0.250031 1.36018e-20)
(0.910106 -0.290712 -2.49426e-19)
(0.974843 -0.315657 -2.03376e-21)
(1.0163 -0.316201 -2.08668e-19)
(1.03121 -0.310026 3.11413e-20)
(1.04711 -0.284207 -5.42685e-20)
(0.235569 0.0871685 4.02951e-19)
(0.338127 0.0442865 -3.34049e-19)
(0.453415 -0.00718466 5.29416e-19)
(0.581153 -0.0668462 5.06225e-19)
(0.716505 -0.132077 6.16157e-19)
(0.846376 -0.195094 -5.5206e-19)
(0.954627 -0.249049 5.68561e-20)
(1.03201 -0.283722 3.47674e-19)
(1.07604 -0.303551 -1.22502e-19)
(1.09647 -0.300514 -3.06627e-21)
(1.09461 -0.2939 -5.97886e-21)
(1.09375 -0.267316 5.76035e-20)
(0.324713 0.081139 -4.28451e-19)
(0.440731 0.037004 -6.63888e-20)
(0.570674 -0.0152849 -2.30594e-19)
(0.711935 -0.0745708 -1.55736e-19)
(0.853998 -0.137 -3.44056e-19)
(0.979171 -0.194631 -1.49923e-19)
(1.07218 -0.241493 5.44148e-20)
(1.12865 -0.269684 -2.15481e-19)
(1.1515 -0.284859 2.2345e-20)
(1.15359 -0.279554 6.68444e-21)
(1.13857 -0.273599 -9.4393e-20)
(1.12597 -0.247723 4.32548e-20)
(0.541939 0.0273138 -2.21102e-19)
(0.688135 -0.0243187 7.12492e-19)
(0.840419 -0.0810599 -7.91624e-19)
(0.981909 -0.138214 -6.72452e-19)
(1.09372 -0.18873 8.62871e-19)
(1.16569 -0.227902 -1.682e-19)
(1.19976 -0.250332 8.0463e-20)
(1.20372 -0.261976 9.86431e-20)
(1.19168 -0.255837 -5.23597e-20)
(1.16773 -0.251393 1.37702e-19)
(1.14797 -0.227138 1.4058e-19)
(0.647065 0.0166728 3.56745e-19)
(0.808166 -0.0323098 -4.04582e-19)
(0.964269 -0.0843141 -1.52727e-19)
(1.09515 -0.134554 5.2579e-19)
(1.18593 -0.177537 -6.20551e-19)
(1.23426 -0.209681 -3.98221e-20)
(1.2477 -0.227787 1.96158e-19)
(1.23704 -0.23713 -6.6625e-20)
(1.21553 -0.231364 -6.97219e-20)
(1.18656 -0.228841 1.00232e-20)
(1.16313 -0.20663 -7.31285e-20)
(0.759036 0.00726413 -7.16069e-19)
(0.928407 -0.0371361 4.2106e-19)
(1.07738 -0.0829977 2.52822e-19)
(1.18821 -0.126003 -2.90384e-19)
(1.25396 -0.162213 4.25757e-19)
(1.27991 -0.188706 2.84731e-19)
(1.27688 -0.20403 -7.50593e-20)
(1.25649 -0.212019 -9.84339e-21)
(1.22958 -0.207468 -2.11126e-20)
(1.19861 -0.206835 -2.11838e-19)
(1.17383 -0.186801 -2.41473e-19)
(0.875658 0.00122679 3.01148e-19)
(1.04201 -0.0375081 -2.47253e-19)
(1.17287 -0.0770533 1.66097e-19)
(1.25807 -0.113635 1.33691e-19)
(1.29931 -0.144413 -8.62837e-20)
(1.30692 -0.166746 2.03923e-19)
(1.29241 -0.180516 -1.87137e-19)
(1.26663 -0.187699 2.19496e-19)
(1.23728 -0.184898 3.51975e-19)
(1.20637 -0.185786 1.43169e-19)
(1.18159 -0.167977 2.02712e-19)
(1.14098 -0.0334615 2.45006e-20)
(1.24653 -0.0675069 8.93797e-20)
(1.30552 -0.0989808 -1.44107e-19)
(1.32603 -0.12567 -3.3335e-19)
(1.32036 -0.145094 -6.69813e-21)
(1.29891 -0.158084 3.30729e-19)
(1.27088 -0.164707 -2.4476e-19)
(1.24099 -0.163988 -4.88319e-19)
(1.21144 -0.1658 -3.1692e-19)
(1.18729 -0.150323 1.16656e-19)
(1.21995 -0.026037 -6.52639e-19)
(1.29824 -0.0557774 4.79382e-19)
(1.33418 -0.0834143 5.21266e-20)
(1.33907 -0.107074 1.39235e-19)
(1.32479 -0.124506 -2.88142e-19)
(1.29986 -0.137082 -7.86391e-20)
(1.27156 -0.143268 -6.81988e-20)
(1.24224 -0.14481 5.51177e-20)
(1.21475 -0.146771 1.96997e-19)
(1.19138 -0.133918 -3.49093e-19)
(1.331 -0.0430934 -2.25547e-19)
(1.34877 -0.0678769 5.76005e-20)
(1.34293 -0.089257 -3.11239e-19)
(1.32369 -0.105318 -2.93952e-20)
(1.29762 -0.117559 4.76646e-20)
(1.27011 -0.123463 -3.67725e-20)
(1.24199 -0.127232 4.19384e-19)
(1.21679 -0.128441 1.58078e-20)
(1.194 -0.118876 3.48217e-19)
(1.34915 -0.0302797 -8.58723e-20)
(1.35369 -0.0528967 -2.68292e-19)
(1.3411 -0.07251 -4.53673e-19)
(1.31946 -0.0875903 -6.76444e-21)
(1.29366 -0.0994393 -1.73071e-19)
(1.26741 -0.105318 1.38349e-19)
(1.24088 -0.110921 -6.88698e-20)
(1.21774 -0.110583 -4.45128e-19)
(1.19521 -0.105519 -1.54188e-19)
(1.35244 -0.0387098 4.05962e-19)
(1.33598 -0.0569121 5.7629e-19)
(1.31361 -0.071233 -8.41711e-20)
(1.28881 -0.0826356 1.20063e-19)
(1.26402 -0.0887729 -3.79856e-20)
(1.23932 -0.0954002 2.27933e-19)
(1.21769 -0.0934143 1.00309e-19)
(1.19527 -0.0945783 1.02938e-19)
(1.34751 -0.0253727 4.32156e-20)
(1.32915 -0.0424166 1.53052e-19)
(1.30702 -0.056099 -2.88938e-20)
(1.28352 -0.0670802 2.39317e-19)
(1.26028 -0.0736154 2.12094e-20)
(1.23748 -0.0803434 -5.29386e-19)
(1.21694 -0.0780451 2.1136e-19)
(1.19422 -0.0873589 -1.88824e-19)
(1.32152 -0.0289077 -5.79059e-20)
(1.30014 -0.042038 -5.64093e-20)
(1.27805 -0.052678 -3.7914e-20)
(1.25635 -0.0595348 2.2255e-19)
(1.23525 -0.0660145 1.49909e-19)
(1.21551 -0.0658241 4.15165e-20)
(1.19677 -0.0718578 1.07337e-19)
(1.31364 -0.0162916 -6.08126e-20)
(1.29323 -0.02895 -2.15428e-20)
(1.27251 -0.0393083 1.97216e-19)
(1.25225 -0.0463597 -9.73524e-20)
(1.23256 -0.0530931 -1.0675e-19)
(1.21455 -0.0531303 -2.14272e-19)
(1.19624 -0.0606413 -1.33562e-19)
(1.28638 -0.0167146 6.6637e-21)
(1.26695 -0.0268298 -2.53894e-19)
(1.24798 -0.0341677 5.92262e-20)
(1.22975 -0.0407573 -1.06862e-19)
(1.21255 -0.0421881 -3.72348e-19)
(1.19627 -0.0495254 1.88892e-19)
(1.26137 -0.015192 1.37736e-19)
(1.24361 -0.0227004 -3.1577e-20)
(1.2265 -0.0294785 3.59499e-19)
(1.21056 -0.0316078 3.20167e-19)
(1.19524 -0.0389078 1.2092e-19)
(1.23907 -0.0120163 -1.06985e-20)
(1.2231 -0.0188218 -2.45865e-19)
(1.208 -0.0218094 -8.86709e-20)
(1.19385 -0.0291896 -1.19192e-19)
(1.21938 -0.00889598 -1.78359e-20)
(1.20522 -0.0125922 2.15655e-19)
(1.19197 -0.0198493 2.21235e-19)
(1.20209 -0.00391132 -1.28158e-19)
(1.18967 -0.0111904 -4.5685e-20)
(1.20209 0.0039113 -4.45629e-20)
(1.18967 0.0111904 -3.11047e-19)
(1.21938 0.00889595 1.12659e-19)
(1.20522 0.0125922 2.32214e-19)
(1.19197 0.0198493 1.19976e-19)
(1.23907 0.0120162 1.55316e-19)
(1.2231 0.0188218 -1.19942e-19)
(1.208 0.0218093 -1.88664e-19)
(1.19385 0.0291896 2.73039e-20)
(1.26137 0.0151919 -3.50387e-19)
(1.24361 0.0227004 -4.72941e-21)
(1.2265 0.0294785 4.02357e-19)
(1.21056 0.0316078 1.54403e-19)
(1.19524 0.0389077 1.26728e-19)
(1.28638 0.0167145 -8.67532e-20)
(1.26695 0.0268297 5.49695e-20)
(1.24798 0.0341677 -4.78324e-20)
(1.22975 0.0407572 4.1061e-20)
(1.21255 0.042188 -2.41698e-19)
(1.19627 0.0495254 1.13395e-19)
(1.31364 0.0162915 6.65393e-21)
(1.29323 0.0289499 1.68462e-19)
(1.27251 0.0393082 7.29634e-20)
(1.25225 0.0463596 -1.72646e-19)
(1.23256 0.0530931 -3.25373e-20)
(1.21455 0.0531303 -1.66871e-20)
(1.19624 0.0606413 -2.23109e-19)
(1.32152 0.0289076 -2.58872e-20)
(1.30014 0.0420379 8.34481e-21)
(1.27805 0.052678 -1.06336e-19)
(1.25635 0.0595348 8.87899e-20)
(1.23525 0.0660145 6.50605e-20)
(1.21551 0.0658241 4.81443e-21)
(1.19677 0.0718577 1.67032e-19)
(1.34751 0.0253726 -2.38108e-19)
(1.32915 0.0424166 -3.44235e-19)
(1.30702 0.0560989 2.59404e-19)
(1.28352 0.0670802 1.54901e-19)
(1.26028 0.0736154 -6.25598e-20)
(1.23748 0.0803433 -4.87287e-19)
(1.21694 0.0780451 5.17908e-20)
(1.19422 0.0873589 2.35797e-20)
(1.35244 0.0387097 4.57605e-19)
(1.33598 0.0569121 4.55374e-19)
(1.31361 0.0712329 -1.44807e-19)
(1.28881 0.0826355 3.25555e-20)
(1.26402 0.0887728 8.8917e-20)
(1.23932 0.0954002 7.77697e-20)
(1.21769 0.0934143 2.11759e-19)
(1.19527 0.0945782 6.79095e-20)
(1.34915 0.0302796 -1.3674e-19)
(1.35369 0.0528966 -2.09466e-19)
(1.3411 0.0725099 -3.13052e-19)
(1.31946 0.0875902 6.46174e-20)
(1.29366 0.0994392 -2.50408e-19)
(1.26741 0.105318 -7.22398e-21)
(1.24088 0.110921 -1.57671e-19)
(1.21774 0.110583 -2.03221e-19)
(1.19521 0.105519 -1.22417e-19)
(1.331 0.0430933 9.59832e-20)
(1.34877 0.0678768 -1.24045e-19)
(1.34293 0.0892569 -2.62938e-19)
(1.32369 0.105318 -1.50075e-19)
(1.29762 0.117559 2.16512e-19)
(1.27011 0.123463 -1.22469e-19)
(1.24199 0.127232 5.0379e-19)
(1.21679 0.128441 2.26904e-19)
(1.194 0.118876 2.78026e-20)
(1.21995 0.0260368 8.45207e-20)
(1.29824 0.0557772 -3.97682e-20)
(1.33418 0.0834142 -1.22796e-19)
(1.33907 0.107074 6.13716e-19)
(1.32479 0.124506 -3.72838e-19)
(1.29986 0.137082 -3.03872e-19)
(1.27156 0.143268 6.2405e-20)
(1.24224 0.144809 4.56528e-20)
(1.21475 0.146771 4.97428e-19)
(1.19138 0.133918 -4.393e-19)
(1.14098 0.0334614 3.45385e-19)
(1.24653 0.0675068 3.57316e-20)
(1.30552 0.0989807 -8.35019e-20)
(1.32603 0.12567 -2.45923e-19)
(1.32036 0.145094 7.53746e-20)
(1.29891 0.158083 1.51775e-19)
(1.27088 0.164707 -2.09107e-19)
(1.24099 0.163988 -4.37457e-19)
(1.21144 0.1658 -2.23356e-19)
(1.18729 0.150323 9.10885e-20)
(0.875657 -0.00122691 1.32418e-18)
(1.04201 0.0375079 -5.83147e-19)
(1.17287 0.0770532 3.577e-20)
(1.25807 0.113635 3.85187e-19)
(1.29931 0.144412 2.65733e-19)
(1.30692 0.166746 -1.75814e-19)
(1.29241 0.180516 6.05195e-20)
(1.26663 0.187699 1.63915e-19)
(1.23728 0.184898 1.10316e-19)
(1.20637 0.185786 1.89094e-19)
(1.18159 0.167977 3.58376e-19)
(0.759036 -0.00726426 -8.22418e-19)
(0.928407 0.0371359 5.12343e-19)
(1.07738 0.0829975 3.45306e-19)
(1.18821 0.126003 -6.42314e-19)
(1.25396 0.162213 8.26005e-19)
(1.27991 0.188706 -6.47363e-20)
(1.27688 0.20403 -1.1418e-19)
(1.25649 0.212019 -5.93648e-20)
(1.22958 0.207468 -1.15758e-20)
(1.19861 0.206835 -2.7333e-20)
(1.17383 0.186801 -1.41145e-19)
(0.647065 -0.016673 3.16544e-19)
(0.808166 0.0323096 -3.87868e-19)
(0.964269 0.0843139 -1.79305e-19)
(1.09515 0.134553 5.4164e-19)
(1.18593 0.177537 -8.15491e-19)
(1.23426 0.209681 -6.14775e-21)
(1.2477 0.227787 2.71062e-19)
(1.23704 0.23713 -1.44788e-19)
(1.21553 0.231364 9.69752e-20)
(1.18656 0.228841 -1.7653e-19)
(1.16313 0.20663 -1.12776e-19)
(0.541939 -0.0273139 1.60107e-19)
(0.688135 0.0243186 4.20878e-19)
(0.840419 0.0810597 -6.4243e-19)
(0.981909 0.138214 -6.43998e-19)
(1.09372 0.18873 7.71067e-19)
(1.16569 0.227902 -1.62078e-19)
(1.19976 0.250332 2.13672e-19)
(1.20372 0.261976 1.40271e-19)
(1.19168 0.255837 -1.98878e-19)
(1.16773 0.251393 1.554e-19)
(1.14797 0.227138 1.02002e-19)
(0.324713 -0.0811392 6.11368e-19)
(0.440731 -0.0370042 1.95513e-19)
(0.570674 0.0152847 -8.57946e-19)
(0.711935 0.0745706 1.55451e-19)
(0.853998 0.137 -4.82692e-19)
(0.979171 0.194631 -3.17886e-20)
(1.07218 0.241493 1.58319e-19)
(1.12865 0.269683 -2.71217e-19)
(1.1515 0.284859 -5.97349e-20)
(1.15359 0.279554 -3.9928e-20)
(1.13857 0.273599 1.62691e-20)
(1.12597 0.247723 -2.79559e-20)
(0.235569 -0.0871686 3.86759e-19)
(0.338127 -0.0442866 -2.05682e-19)
(0.453415 0.00718446 7.68706e-19)
(0.581153 0.066846 -9.14636e-20)
(0.716505 0.132077 6.64556e-19)
(0.846376 0.195094 -1.51816e-19)
(0.954627 0.249049 8.5524e-20)
(1.03201 0.283722 -1.05058e-19)
(1.07604 0.303551 1.12338e-19)
(1.09647 0.300514 4.68953e-20)
(1.09461 0.293901 1.89206e-20)
(1.09375 0.267316 -4.02944e-20)
(0.139844 -0.0896732 -1.0784e-18)
(0.22969 -0.0485975 -1.3345e-19)
(0.331965 0.00114559 1.90833e-19)
(0.446527 0.0595556 2.81951e-19)
(0.571723 0.125077 2.89648e-19)
(0.699416 0.190908 3.62519e-20)
(0.815975 0.250031 -2.67143e-20)
(0.910106 0.290712 -3.63034e-19)
(0.974843 0.315657 -2.7223e-20)
(1.0163 0.316201 5.44981e-20)
(1.03121 0.310026 -8.74559e-20)
(1.04712 0.284207 -9.83101e-20)
(0.0375477 -0.0887364 7.40931e-19)
(0.113751 -0.049998 -1.04972e-19)
(0.20318 -0.00264503 -5.44675e-19)
(0.305228 0.0534157 -4.09985e-19)
(0.419347 0.117176 -1.32802e-19)
(0.540809 0.183106 -1.34294e-19)
(0.659711 0.244603 1.02598e-19)
(0.765302 0.28959 1.11112e-19)
(0.847924 0.319075 1.26827e-19)
(0.910936 0.323959 6.72339e-21)
(0.944648 0.319179 1.1724e-20)
(0.981688 0.295996 -6.85205e-20)
(-0.0690312 -0.0845365 -4.46992e-19)
(-0.00829042 -0.0487976 2.95385e-19)
(0.067038 -0.00466065 -1.07972e-19)
(0.156217 0.0481862 2.09573e-19)
(0.258872 0.108572 -4.10035e-20)
(0.37208 0.172168 -5.53005e-20)
(0.489156 0.233011 1.38447e-19)
(0.601275 0.279782 -1.0012e-19)
(0.697669 0.312214 7.33278e-20)
(0.780712 0.321376 1.87765e-21)
(0.833323 0.318451 2.99568e-20)
(0.894009 0.299772 1.0319e-19)
(-0.175996 -0.0773613 9.01443e-20)
(-0.132509 -0.0453317 1.77554e-19)
(-0.0730114 -0.00532357 4.227e-19)
(0.00199837 0.0430573 -1.24944e-19)
(0.0922154 0.0985658 1.44228e-19)
(0.195861 0.157695 -1.58326e-19)
(0.308344 0.21504 -1.37038e-19)
(0.422952 0.26078 1.43071e-19)
(0.528754 0.293918 -3.50021e-20)
(0.628717 0.306501 -9.04537e-20)
(0.69865 0.305303 3.89183e-20)
(0.78273 0.292487 -2.79065e-20)
(-0.287471 -0.0882644 2.94158e-19)
(-0.278307 -0.0675274 -4.59687e-20)
(-0.252994 -0.0399605 1.46972e-20)
(-0.210777 -0.005157 -5.81344e-20)
(-0.151476 0.0369261 -6.74165e-21)
(-0.0749585 0.0860617 2.33611e-19)
(0.017825 0.138629 2.37512e-19)
(0.123635 0.190164 2.27387e-20)
(0.237335 0.23208 7.30096e-20)
(0.348499 0.263448 -1.07546e-19)
(0.461019 0.277978 9.7171e-20)
(0.545678 0.278007 -6.84763e-20)
(0.649807 0.27147 -1.14348e-20)
(-0.362174 -0.0719046 3.98028e-20)
(-0.370301 -0.0553329 -8.40408e-20)
(-0.362831 -0.0330018 -1.50109e-19)
(-0.338272 -0.00454329 -2.34444e-19)
(-0.29518 0.030006 1.24592e-19)
(-0.233098 0.0706272 -3.19885e-20)
(-0.152376 0.114359 1.32865e-19)
(-0.0553776 0.157499 -2.00573e-19)
(0.0543818 0.193706 6.66411e-20)
(0.167299 0.220856 5.31948e-20)
(0.287006 0.23537 -3.66048e-20)
(0.383405 0.236063 2.62053e-20)
(0.501386 0.235009 -9.35346e-21)
(-0.423098 -0.0531965 -1.75072e-20)
(-0.446147 -0.0411324 -9.70624e-20)
(-0.454487 -0.0247008 4.38589e-20)
(-0.445955 -0.00356648 5.06256e-20)
(-0.418379 0.0223622 7.46163e-20)
(-0.370634 0.0524763 -9.15181e-20)
(-0.30234 0.0852871 -3.78997e-20)
(-0.215081 0.117719 5.28257e-21)
(-0.111756 0.146089 -1.20783e-19)
(-0.000868264 0.167028 -4.18684e-20)
(0.120408 0.179608 -1.40117e-20)
(0.225494 0.180469 2.62508e-20)
(0.349263 0.18291 3.93145e-21)
(-0.466306 -0.0326858 -1.8918e-19)
(-0.500419 -0.0253636 1.34878e-19)
(-0.52075 -0.0153184 -1.11294e-19)
(-0.524734 -0.00232448 6.23718e-20)
(-0.509749 0.0136514 -8.43775e-20)
(-0.473996 0.0321849 -1.30852e-20)
(-0.416698 0.0526037 2.09211e-20)
(-0.338824 0.0727974 6.37583e-20)
(-0.243058 0.0907492 2.96311e-20)
(-0.136141 0.104083 5.36638e-20)
(-0.0174462 0.112897 -1.04722e-20)
(0.0929013 0.113555 -6.14355e-21)
(0.215344 0.116786 7.64064e-22)
(-0.488752 -0.0110285 5.33716e-20)
(-0.528784 -0.00857448 -5.99187e-20)
(-0.555635 -0.00519617 2.35204e-20)
(-0.566576 -0.000815059 4.73972e-20)
(-0.558782 0.0045724 -2.10211e-20)
(-0.53005 0.0108145 3.7281e-21)
(-0.479456 0.0177675 -2.48206e-20)
(-0.407715 0.0246376 -4.58813e-21)
(-0.317269 0.0307695 1.57537e-20)
(-0.213655 0.0353552 -7.214e-21)
(-0.0979564 0.0385771 -5.8253e-21)
(0.0144879 0.0388167 -7.09768e-22)
(0.133555 0.0402663 1.22732e-21)
(0.218956 -0.0366087 1.78283e-21)
(0.28088 -0.0335673 -1.12684e-21)
(0.338737 -0.0307671 1.30599e-21)
(0.393316 -0.0281877 -2.73397e-21)
(0.444934 -0.0257351 2.75594e-22)
(0.493556 -0.0233977 2.20235e-21)
(0.539119 -0.0212089 -6.69049e-22)
(0.581655 -0.0191881 -1.64129e-22)
(0.621281 -0.0173366 5.42017e-22)
(0.658158 -0.0156496 -2.28154e-21)
(0.692455 -0.0141201 2.2284e-21)
(0.724341 -0.012739 6.26492e-23)
(0.753984 -0.0114944 -1.16742e-21)
(0.781545 -0.0103707 2.40766e-22)
(0.807166 -0.00934931 1.49185e-22)
(0.830956 -0.00840982 -3.85021e-22)
(0.852982 -0.00753161 5.85897e-22)
(0.873263 -0.00669659 -4.03441e-22)
(0.891779 -0.00589213 2.81335e-22)
(0.908482 -0.00511349 -5.14067e-22)
(0.923324 -0.00436484 3.69126e-22)
(0.936279 -0.00365803 1.83114e-22)
(0.947378 -0.00300906 7.71155e-23)
(0.956715 -0.0024331 -5.77882e-23)
(0.964446 -0.00193994 -3.58158e-22)
(0.970771 -0.00153179 8.03258e-23)
(0.975908 -0.00120377 6.21836e-23)
(0.980072 -0.000946279 -6.55467e-23)
(0.983455 -0.000747606 2.77161e-23)
(0.986219 -0.000595482 3.39014e-23)
(0.988493 -0.000478039 -1.79976e-23)
(0.990391 -0.000387232 -5.47067e-23)
(0.991992 -0.000315716 9.3503e-24)
(0.993345 -0.000258114 3.33618e-24)
(0.994488 -0.000211021 4.47067e-24)
(0.995453 -0.000172154 -4.46562e-24)
(0.996264 -0.000140053 -1.19543e-23)
(0.996945 -0.000113483 3.67897e-24)
(0.997511 -9.16934e-05 3.16218e-24)
(0.997985 -7.37194e-05 -1.68353e-24)
(0.998373 -5.91706e-05 1.02961e-24)
(0.9987 -4.71657e-05 -5.90271e-25)
(0.998959 -3.76514e-05 6.63444e-25)
(0.999183 -2.97087e-05 1.98388e-24)
(0.99935 -2.36986e-05 2.42516e-26)
(0.999508 -1.84526e-05 2.54665e-26)
(0.999607 -1.49305e-05 -1.13866e-25)
(0.999727 -1.14151e-05 9.85489e-26)
(0.999773 -9.76741e-06 -7.77506e-26)
(0.999882 -7.24978e-06 1.94978e-25)
(0.29338 -0.106199 3.33784e-21)
(0.349381 -0.0974295 -2.25389e-21)
(0.401315 -0.0893468 5.89264e-21)
(0.450385 -0.0818532 -2.38626e-21)
(0.496885 -0.0747005 -2.19417e-21)
(0.540668 -0.0678751 -2.43692e-21)
(0.581637 -0.0614825 5.94039e-21)
(0.619843 -0.0555915 -4.03147e-21)
(0.65541 -0.050203 4.03709e-21)
(0.688488 -0.0452978 -3.778e-23)
(0.719232 -0.040855 -2.31136e-21)
(0.747799 -0.0368491 -2.59019e-21)
(0.774347 -0.033245 3.54525e-21)
(0.799031 -0.0299972 -2.31311e-21)
(0.821989 -0.0270516 -9.33764e-22)
(0.843332 -0.0243483 1.4522e-21)
(0.863131 -0.0218268 6.59236e-22)
(0.881417 -0.0194331 -1.30807e-21)
(0.898181 -0.0171283 5.0773e-22)
(0.913381 -0.014896 1.03732e-22)
(0.926972 -0.0127458 6.27961e-22)
(0.938921 -0.0107105 -1.27072e-21)
(0.949239 -0.00883562 9.37206e-22)
(0.957993 -0.00716567 -7.41325e-22)
(0.965305 -0.00573037 1.36025e-22)
(0.971341 -0.00453778 4.26171e-22)
(0.976285 -0.00357553 -5.1117e-22)
(0.980322 -0.00281725 2.17131e-22)
(0.983625 -0.00223001 -3.77019e-23)
(0.986337 -0.00177893 2.13352e-22)
(0.988578 -0.00142963 -2.90982e-23)
(0.990454 -0.00115893 7.68145e-24)
(0.99204 -0.00094536 -8.8576e-23)
(0.993382 -0.000773138 5.82473e-23)
(0.994517 -0.000632222 3.72603e-23)
(0.995476 -0.000515853 -6.05518e-23)
(0.996282 -0.000419706 2.715e-23)
(0.996959 -0.0003401 -2.71912e-24)
(0.997523 -0.000274808 -1.97845e-23)
(0.997994 -0.000220941 4.45145e-24)
(0.99838 -0.000177336 -2.66621e-25)
(0.998705 -0.000141354 -4.22646e-24)
(0.998964 -0.000112836 3.18604e-24)
(0.999187 -8.9028e-05 2.84133e-24)
(0.999353 -7.10133e-05 -3.75505e-24)
(0.99951 -5.52895e-05 6.14145e-25)
(0.999609 -4.47329e-05 2.52957e-25)
(0.999728 -3.41973e-05 -5.80596e-26)
(0.999774 -2.92593e-05 1.85337e-25)
(0.999883 -2.17156e-05 1.4009e-25)
(0.415279 -0.166465 2.16788e-21)
(0.461452 -0.152939 -3.88e-21)
(0.503601 -0.140372 -1.42723e-21)
(0.543638 -0.128593 3.24257e-21)
(0.581796 -0.117289 1.82491e-21)
(0.617727 -0.106487 -6.06007e-21)
(0.651266 -0.0963607 8.396e-21)
(0.682486 -0.0870339 -1.99999e-21)
(0.711529 -0.0785213 4.2004e-22)
(0.738518 -0.0707853 1.24963e-21)
(0.763572 -0.0637892 -9.91122e-22)
(0.786819 -0.0574938 -5.38857e-21)
(0.808398 -0.0518447 5.80129e-21)
(0.828444 -0.0467704 -2.62652e-21)
(0.847087 -0.0421867 1.01229e-21)
(0.864436 -0.0379997 -1.30301e-21)
(0.880572 -0.0341131 1.18115e-21)
(0.895545 -0.030438 -1.18872e-21)
(0.909366 -0.026907 4.93597e-22)
(0.922017 -0.023487 -1.14137e-21)
(0.933462 -0.0201848 7.37291e-22)
(0.943666 -0.0170453 1.71832e-21)
(0.952615 -0.0141367 -1.13167e-21)
(0.960335 -0.0115291 4.80178e-23)
(0.966897 -0.00927184 -2.77105e-23)
(0.972409 -0.00738239 4.47373e-22)
(0.976998 -0.00584633 -2.53812e-22)
(0.980801 -0.00462681 2.70536e-22)
(0.983952 -0.0036757 1.21678e-22)
(0.986568 -0.00294061 -2.19843e-22)
(0.988746 -0.00236816 -2.69843e-22)
(0.990578 -0.00192248 3.16681e-22)
(0.992134 -0.00156969 -6.15213e-23)
(0.993455 -0.00128456 -1.04385e-22)
(0.994574 -0.00105089 9.6408e-23)
(0.995521 -0.000857717 3.38066e-23)
(0.996318 -0.000697988 -4.45161e-24)
(0.996988 -0.00056567 -2.08113e-23)
(0.997545 -0.000457104 -1.25806e-24)
(0.998012 -0.000367512 -1.37231e-23)
(0.998395 -0.000294976 2.10551e-23)
(0.998717 -0.000235113 -1.12623e-23)
(0.998973 -0.000187666 -3.60085e-24)
(0.999194 -0.000148056 -3.45253e-24)
(0.999359 -0.000118084 6.67508e-24)
(0.999514 -9.19247e-05 -1.00278e-25)
(0.999612 -7.4363e-05 -1.71949e-24)
(0.999731 -5.68387e-05 -6.52894e-25)
(0.999776 -4.86254e-05 -8.64479e-25)
(0.999884 -3.60827e-05 -1.0468e-25)
(0.552936 -0.214356 6.25299e-23)
(0.587447 -0.197476 3.02823e-21)
(0.618108 -0.181557 -3.99381e-21)
(0.647629 -0.166405 -9.01032e-21)
(0.676189 -0.151759 1.40568e-20)
(0.703213 -0.137737 3.38452e-21)
(0.728423 -0.124571 -1.4653e-20)
(0.751884 -0.112409 1.47031e-20)
(0.773751 -0.101304 -3.53229e-21)
(0.794113 -0.0912256 5.08666e-22)
(0.813025 -0.0821221 -3.87005e-21)
(0.83056 -0.0739396 -5.34461e-21)
(0.846814 -0.0666103 5.10914e-21)
(0.86189 -0.0600468 5.29938e-21)
(0.875892 -0.0541447 -9.99653e-21)
(0.888913 -0.0487865 2.93048e-21)
(0.90104 -0.0438478 4.28076e-21)
(0.912336 -0.0392098 -6.95827e-21)
(0.922842 -0.0347766 3.0081e-21)
(0.932573 -0.0304919 -6.71586e-22)
(0.941516 -0.0263499 1.18478e-21)
(0.949647 -0.0223946 -3.09896e-22)
(0.95694 -0.0187056 5.10655e-22)
(0.963388 -0.0153704 2.89006e-22)
(0.96901 -0.0124563 -8.53222e-22)
(0.973852 -0.00999225 1.29205e-22)
(0.977979 -0.00796818 -8.14196e-23)
(0.981473 -0.00634447 -1.741e-22)
(0.98442 -0.0050656 1.24752e-22)
(0.986903 -0.00406871 -2.97482e-22)
(0.988992 -0.00328635 5.76859e-22)
(0.990763 -0.0026731 -1.69263e-22)
(0.992275 -0.00218542 2.59149e-23)
(0.993564 -0.00179011 1.63619e-22)
(0.99466 -0.00146541 -3.55879e-23)
(0.995589 -0.00119655 2.32111e-23)
(0.996371 -0.000974001 -1.34856e-22)
(0.99703 -0.000789501 5.0155e-23)
(0.997579 -0.000638039 -6.47537e-23)
(0.99804 -0.000513001 1.46411e-23)
(0.998417 -0.000411741 3.80706e-25)
(0.998734 -0.000328158 2.52793e-23)
(0.998987 -0.000261907 -1.71235e-23)
(0.999205 -0.000206598 8.84771e-24)
(0.999368 -0.000164747 -7.60275e-24)
(0.999521 -0.000128224 -2.96913e-24)
(0.999618 -0.000103707 3.15782e-24)
(0.999734 -7.92461e-05 -5.92511e-25)
(0.999779 -6.77824e-05 1.70128e-24)
(0.999886 -5.02857e-05 -6.17739e-25)
(0.685809 -0.248555 4.63901e-22)
(0.708221 -0.229951 3.38533e-22)
(0.727084 -0.21208 -3.00518e-21)
(0.745846 -0.194723 -4.74861e-21)
(0.764691 -0.177768 4.52444e-21)
(0.782837 -0.161469 1.19134e-20)
(0.799902 -0.146122 -8.88421e-21)
(0.815905 -0.131878 2.31206e-21)
(0.830965 -0.118801 7.19305e-21)
(0.845143 -0.106912 -1.03315e-20)
(0.858428 -0.0961735 5.34407e-21)
(0.870813 -0.0865173 -1.99532e-22)
(0.882328 -0.0778642 -1.01314e-20)
(0.893022 -0.0701208 5.23049e-21)
(0.902951 -0.0631775 -1.06793e-21)
(0.912174 -0.0569077 5.47478e-21)
(0.920758 -0.0511723 -6.64284e-21)
(0.928769 -0.0458328 1.84098e-21)
(0.936265 -0.0407699 3.92399e-21)
(0.943288 -0.035903 -2.99322e-21)
(0.94986 -0.0312052 2.77825e-21)
(0.955978 -0.0267075 -3.44897e-21)
(0.961623 -0.0224868 3.01681e-21)
(0.966772 -0.0186379 -1.10595e-21)
(0.97141 -0.0152396 -5.08257e-22)
(0.975532 -0.0123327 1.31875e-22)
(0.979151 -0.00991537 1.0787e-22)
(0.982295 -0.007952 1.83225e-24)
(0.985005 -0.00638708 -6.49932e-22)
(0.98733 -0.00515462 4.62526e-23)
(0.989311 -0.00417901 5.89447e-23)
(0.991003 -0.00340678 2.07341e-23)
(0.99246 -0.00278963 -3.94323e-23)
(0.993708 -0.00228766 -9.10484e-23)
(0.994773 -0.00187422 1.13847e-22)
(0.995678 -0.00153119 3.11632e-23)
(0.996442 -0.00124686 -1.72538e-23)
(0.997087 -0.00101091 -3.72399e-23)
(0.997625 -0.000817078 -4.92394e-23)
(0.998076 -0.000656979 4.33324e-23)
(0.998446 -0.000527283 -3.40696e-23)
(0.998757 -0.000420206 -2.74193e-24)
(0.999005 -0.000335327 -4.92946e-24)
(0.999219 -0.000264461 1.43222e-24)
(0.999379 -0.000210843 -3.12703e-24)
(0.99953 -0.000164055 9.37608e-24)
(0.999625 -0.00013265 1.67181e-24)
(0.999739 -0.000101327 1.58854e-25)
(0.999783 -8.66475e-05 -2.75727e-24)
(0.999888 -6.426e-05 -1.65812e-25)
(0.8035 -0.269159 -6.27764e-21)
(0.814529 -0.250415 -6.41578e-21)
(0.822412 -0.232051 4.77383e-21)
(0.83111 -0.21377 1.79526e-21)
(0.84088 -0.195654 2.38935e-21)
(0.850804 -0.178119 -4.3121e-21)
(0.860428 -0.161523 -7.75337e-21)
(0.869737 -0.146028 1.0915e-20)
(0.878776 -0.131687 -5.55851e-21)
(0.88754 -0.118555 6.94148e-21)
(0.895985 -0.106655 -1.15922e-20)
(0.904042 -0.0959341 3.84369e-21)
(0.911661 -0.0863038 1.07694e-21)
(0.918821 -0.0776677 6.7401e-22)
(0.925518 -0.0699213 -2.81277e-21)
(0.931762 -0.0629438 -2.86606e-21)
(0.937582 -0.0565965 3.5067e-21)
(0.943021 -0.0507353 6.79508e-22)
(0.948133 -0.0452284 2.67702e-21)
(0.952973 -0.0399767 -3.33959e-22)
(0.957586 -0.0349307 -4.01305e-22)
(0.961996 -0.0301001 -2.97788e-21)
(0.9662 -0.025548 1.39942e-21)
(0.970178 -0.021365 1.68237e-21)
(0.973898 -0.0176341 -1.81097e-22)
(0.977328 -0.0144044 5.4419e-22)
(0.980442 -0.0116833 -7.5889e-23)
(0.983227 -0.00944316 -4.2272e-22)
(0.985685 -0.00763403 -5.06765e-22)
(0.987835 -0.00619314 5.22746e-22)
(0.989695 -0.00504259 1.68413e-22)
(0.991298 -0.00412018 -8.02474e-23)
(0.992688 -0.00337973 -9.41077e-23)
(0.993886 -0.00277529 -3.2617e-22)
(0.994913 -0.00227586 6.67778e-23)
(0.995789 -0.00186054 6.59631e-23)
(0.996531 -0.00151572 -1.0382e-22)
(0.997157 -0.00122924 9.25539e-23)
(0.997681 -0.000993697 -3.60561e-23)
(0.998121 -0.000799027 2.08259e-23)
(0.998482 -0.000641263 4.66859e-23)
(0.998786 -0.000510977 -5.26316e-23)
(0.999028 -0.000407692 1.97395e-23)
(0.999237 -0.000321457 5.82888e-24)
(0.999394 -0.00025621 -2.67836e-24)
(0.999541 -0.000199286 -3.87979e-24)
(0.999633 -0.000161081 -8.11078e-24)
(0.999746 -0.000122989 4.37557e-24)
(0.999789 -0.000105139 1.4045e-24)
(0.999891 -7.79415e-05 -1.28252e-25)
(0.901189 -0.277611 3.32721e-20)
(0.902467 -0.260036 4.75702e-21)
(0.901098 -0.242465 4.99585e-21)
(0.901223 -0.224458 -3.17808e-21)
(0.903187 -0.206284 1.49679e-21)
(0.90604 -0.188515 -4.01303e-21)
(0.909295 -0.171559 7.63667e-21)
(0.912923 -0.155594 1.14202e-21)
(0.916913 -0.140692 -1.24433e-20)
(0.921164 -0.126908 5.99765e-21)
(0.925586 -0.114305 -6.32468e-21)
(0.930094 -0.102893 1.20486e-20)
(0.934589 -0.0926039 -4.0988e-22)
(0.938978 -0.0833421 2.81009e-21)
(0.943197 -0.075009 -8.0783e-21)
(0.947204 -0.0674962 3.67529e-21)
(0.950983 -0.0606774 -4.28856e-21)
(0.954541 -0.0544159 2.77298e-21)
(0.957909 -0.0485805 1.08967e-21)
(0.961135 -0.0430636 9.54666e-22)
(0.964271 -0.0377976 -2.123e-21)
(0.967357 -0.0327698 -7.67474e-22)
(0.970408 -0.0280232 -6.09929e-22)
(0.973414 -0.0236363 1.2781e-21)
(0.976344 -0.0196887 -1.1472e-22)
(0.979154 -0.0162325 -2.53372e-22)
(0.981798 -0.0132828 5.75198e-22)
(0.984235 -0.010821 -1.29377e-21)
(0.98644 -0.00880573 1.3931e-21)
(0.988409 -0.00718154 -2.84914e-22)
(0.990139 -0.00587912 -1.66762e-22)