/*--------------------------------*- C++ -*----------------------------------*\
  =========                 |
  \\      /  F ield         | OpenFOAM: The Open Source CFD Toolbox
   \\    /   O peration     | Website:  https://openfoam.org
    \\  /    A nd           | Version:  7
     \\/     M anipulation  |
\*---------------------------------------------------------------------------*/
FoamFile
{
    version     2.0;
    format      ascii;
    class       volScalarField;
    location    "20";
    object      p;
}
// * * * * * * * * * * * * * * * * * * * * * * * * * * * * * * * * * * * * * //

dimensions      [0 2 -2 0 0 0 0];

internalField   nonuniform List<scalar> 
2625
(
-0.0187228
-0.0179245
-0.0171385
-0.0163632
-0.0156001
-0.0148458
-0.014105
-0.0133694
-0.0126509
-0.0119303
-0.0112362
-0.0105237
-0.00986059
-0.00914308
-0.00852754
-0.00777729
-0.00724789
-0.00640623
-0.00604845
-0.00499022
-0.00498912
-0.00344796
-0.00419821
-0.00160873
-0.00394405
0.000891014
-0.0047455
-0.0419641
-0.0408246
-0.0396999
-0.0385902
-0.0374957
-0.0364164
-0.0353523
-0.0343034
-0.0332697
-0.0322513
-0.0312479
-0.0302595
-0.0292861
-0.0283275
-0.0273835
-0.026454
-0.0255388
-0.0246378
-0.0237506
-0.022877
-0.0220169
-0.02117
-0.0203359
-0.0195144
-0.0187054
-0.0179082
-0.0171231
-0.0163486
-0.0155863
-0.0148329
-0.0140928
-0.013358
-0.0126401
-0.0119203
-0.0112264
-0.0105151
-0.00985164
-0.00913578
-0.0085188
-0.00777152
-0.00723836
-0.00640265
-0.00603628
-0.0049905
-0.00497083
-0.00345583
-0.00416725
-0.00163194
-0.00388882
0.000838709
-0.00464509
-0.0419239
-0.0407847
-0.0396605
-0.0385515
-0.0374577
-0.0363791
-0.0353159
-0.0342679
-0.0332353
-0.0322178
-0.0312155
-0.0302283
-0.029256
-0.0282985
-0.0273556
-0.0264272
-0.0255132
-0.0246132
-0.0237271
-0.0228547
-0.0219956
-0.0211497
-0.0203167
-0.0194962
-0.0186881
-0.0178918
-0.0171076
-0.016334
-0.0155726
-0.01482
-0.0140806
-0.0133467
-0.0126292
-0.0119104
-0.0112167
-0.0105065
-0.00984268
-0.00912848
-0.00851001
-0.00776576
-0.00722875
-0.00639911
-0.00602399
-0.00499086
-0.00495232
-0.0034639
-0.00413587
-0.0016556
-0.00383288
0.000785473
-0.00454347
-0.0418839
-0.040745
-0.0396213
-0.0385129
-0.0374198
-0.0363421
-0.0352797
-0.0342327
-0.033201
-0.0321846
-0.0311833
-0.0301972
-0.029226
-0.0282696
-0.0273279
-0.0264006
-0.0254877
-0.0245888
-0.0237038
-0.0228324
-0.0219744
-0.0211295
-0.0202975
-0.019478
-0.0186709
-0.0178755
-0.0170922
-0.0163195
-0.0155589
-0.0148071
-0.0140684
-0.0133353
-0.0126184
-0.0119004
-0.011207
-0.0104979
-0.00983369
-0.00912117
-0.00850119
-0.00776001
-0.00721907
-0.00639559
-0.00601157
-0.00499131
-0.00493359
-0.00347218
-0.00410408
-0.00167975
-0.0037762
0.000731214
-0.00444064
-0.0418439
-0.0407054
-0.0395822
-0.0384744
-0.0373821
-0.0363051
-0.0352436
-0.0341975
-0.0331668
-0.0321514
-0.0311513
-0.0301662
-0.0291961
-0.0282408
-0.0273002
-0.026374
-0.0254622
-0.0245644
-0.0236805
-0.0228102
-0.0219533
-0.0211094
-0.0202784
-0.0194599
-0.0186538
-0.0178593
-0.0170768
-0.016305
-0.0155452
-0.0147943
-0.0140562
-0.013324
-0.0126075
-0.0118905
-0.0111972
-0.0104892
-0.00982465
-0.00911385
-0.00849229
-0.00775423
-0.00720929
-0.00639208
-0.005999
-0.00499182
-0.00491461
-0.00348067
-0.00407185
-0.00170439
-0.00371873
0.000675877
-0.0043366
-0.0418019
-0.040664
-0.0395414
-0.0384343
-0.0373427
-0.0362667
-0.0352061
-0.0341611
-0.0331314
-0.0321172
-0.0311181
-0.0301342
-0.0291652
-0.0282111
-0.0272717
-0.0263467
-0.0254361
-0.0245395
-0.0236567
-0.0227875
-0.0219317
-0.0210889
-0.0202589
-0.0194414
-0.0186363
-0.0178428
-0.0170612
-0.0162903
-0.0155313
-0.0147813
-0.0140439
-0.0133125
-0.0125966
-0.0118804
-0.0111874
-0.0104805
-0.00981558
-0.0091065
-0.00848338
-0.00774845
-0.00719949
-0.00638857
-0.00598641
-0.00499234
-0.00489561
-0.00348915
-0.00403956
-0.00172904
-0.0036612
0.000620535
-0.00423197
-0.0417567
-0.0406194
-0.0394975
-0.0383913
-0.0373007
-0.0362257
-0.0351662
-0.0341223
-0.0330939
-0.0320808
-0.031083
-0.0301004
-0.0291328
-0.02818
-0.0272418
-0.0263182
-0.0254088
-0.0245134
-0.0236319
-0.0227639
-0.0219093
-0.0210677
-0.0202389
-0.0194225
-0.0186184
-0.017826
-0.0170454
-0.0162755
-0.0155174
-0.0147682
-0.0140317
-0.0133011
-0.0125858
-0.0118706
-0.0111778
-0.0104721
-0.00980684
-0.00909945
-0.00847486
-0.00774296
-0.00719016
-0.00638527
-0.00597438
-0.00499285
-0.00487733
-0.00349722
-0.00400839
-0.00175251
-0.00360571
0.000567956
-0.00412843
-0.0417247
-0.0405874
-0.0394657
-0.0383597
-0.0372695
-0.036195
-0.0351361
-0.0340928
-0.0330651
-0.0320528
-0.0310558
-0.030074
-0.0291073
-0.0281554
-0.0272181
-0.0262954
-0.0253869
-0.0244924
-0.0236118
-0.0227448
-0.021891
-0.0210503
-0.0202223
-0.0194067
-0.0186035
-0.0178118
-0.017032
-0.0162628
-0.0155054
-0.014757
-0.014021
-0.0132912
-0.0125763
-0.0118618
-0.0111692
-0.0104645
-0.00979878
-0.00909301
-0.00846679
-0.00773791
-0.00718107
-0.0063823
-0.00596238
-0.0049937
-0.00485883
-0.00350576
-0.0039766
-0.00177688
-0.00354898
0.000513586
-0.00402306
-0.0417477
-0.0406082
-0.0394844
-0.0383765
-0.0372844
-0.0362082
-0.0351477
-0.0341029
-0.0330737
-0.03206
-0.0310617
-0.0300787
-0.0291108
-0.0281577
-0.0272195
-0.0262958
-0.0253864
-0.0244911
-0.0236097
-0.0227419
-0.0218874
-0.021046
-0.0202175
-0.0194013
-0.0185975
-0.0178054
-0.0170251
-0.0162556
-0.0154977
-0.0147491
-0.0140127
-0.0132828
-0.0125674
-0.0118531
-0.0111597
-0.0104557
-0.00978855
-0.0090847
-0.00845538
-0.00773084
-0.0071674
-0.00637808
-0.00594412
-0.00499555
-0.00483117
-0.00352022
-0.00392984
-0.00181708
-0.00346519
0.000422833
-0.00389497
-0.041755
-0.0406142
-0.039489
-0.0383796
-0.0372859
-0.0362079
-0.0351457
-0.0340991
-0.0330682
-0.0320527
-0.0310526
-0.0300679
-0.0290982
-0.0281435
-0.0272036
-0.0262782
-0.0253673
-0.0244704
-0.0235875
-0.0227183
-0.0218625
-0.0210198
-0.02019
-0.0193726
-0.0185677
-0.0177745
-0.0169931
-0.0162227
-0.0154638
-0.0147145
-0.013977
-0.013247
-0.0125301
-0.0118166
-0.0111208
-0.0104194
-0.00974762
-0.00905023
-0.00841123
-0.00770119
-0.00711699
-0.00635897
-0.0058806
-0.00499815
-0.00473979
-0.00356665
-0.00378006
-0.00195147
-0.00319678
0.000111391
-0.00354258
-0.0414409
-0.0403107
-0.0391963
-0.0380977
-0.0370147
-0.0359475
-0.0348959
-0.0338598
-0.0328392
-0.0318339
-0.0308437
-0.0298687
-0.0289085
-0.027963
-0.027032
-0.0261154
-0.0252128
-0.0243242
-0.0234491
-0.0225874
-0.0217389
-0.0209031
-0.02008
-0.0192691
-0.0184702
-0.0176829
-0.0169071
-0.0161421
-0.0153881
-0.0146438
-0.0139106
-0.0131852
-0.0124718
-0.0117629
-0.0110694
-0.0103731
-0.00970146
-0.00901099
-0.008368
-0.00766943
-0.0070729
-0.00633685
-0.00582888
-0.0049915
-0.00466762
-0.00358913
-0.00366272
-0.00203299
-0.00298859
-8.89923e-05
-0.00317579
-0.0409924
-0.039878
-0.0387793
-0.0376963
-0.036629
-0.0355772
-0.0345408
-0.0335197
-0.0325138
-0.031523
-0.0305471
-0.0295858
-0.0286392
-0.0277069
-0.0267887
-0.0258845
-0.024994
-0.0241169
-0.0232532
-0.0224024
-0.0215643
-0.0207387
-0.0199252
-0.0191237
-0.0183337
-0.017555
-0.0167874
-0.0160302
-0.0152836
-0.0145465
-0.0138199
-0.0131011
-0.0123934
-0.0116906
-0.0110016
-0.0103114
-0.00964249
-0.00895887
-0.00831554
-0.00762638
-0.0070236
-0.0063034
-0.00577724
-0.00497059
-0.00460395
-0.00358897
-0.00356896
-0.00207289
-0.00283168
-0.000206512
-0.00286936
-0.0416773
-0.0405619
-0.0394623
-0.0383784
-0.03731
-0.0362571
-0.0352197
-0.0341974
-0.0331903
-0.0321981
-0.0312207
-0.030258
-0.0293097
-0.0283756
-0.0274556
-0.0265494
-0.0256568
-0.0247776
-0.0239115
-0.0230583
-0.0222178
-0.0213896
-0.0205736
-0.0197693
-0.0189766
-0.0181952
-0.0174246
-0.0166648
-0.0159151
-0.0151757
-0.0144454
-0.0137251
-0.0130127
-0.0123105
-0.0116137
-0.0109291
-0.0102448
-0.00957876
-0.00890166
-0.00825841
-0.00757805
-0.00696997
-0.00626444
-0.00572205
-0.00494374
-0.00453812
-0.00358196
-0.00347525
-0.00210419
-0.00267679
-0.000314872
-0.00257472
-0.041254
-0.0401528
-0.0390673
-0.0379974
-0.036943
-0.035904
-0.0348801
-0.0338714
-0.0328775
-0.0318983
-0.0309337
-0.0299834
-0.0290473
-0.0281251
-0.0272166
-0.0263217
-0.0254401
-0.0245715
-0.0237157
-0.0228725
-0.0220416
-0.0212228
-0.0204157
-0.0196201
-0.0188357
-0.0180622
-0.0172994
-0.0165469
-0.0158042
-0.0150714
-0.0143476
-0.0136333
-0.0129268
-0.0122298
-0.0115385
-0.0108582
-0.0101793
-0.00951599
-0.00884475
-0.00820182
-0.00752927
-0.0069167
-0.00622411
-0.0056674
-0.00491423
-0.00447361
-0.00357028
-0.0033845
-0.00212783
-0.00252654
-0.000413748
-0.00228862
-0.0408373
-0.0397503
-0.0386789
-0.0376231
-0.0365826
-0.0355572
-0.0345469
-0.0335515
-0.0325707
-0.0316044
-0.0306523
-0.0297143
-0.0287902
-0.0278798
-0.0269827
-0.0260989
-0.025228
-0.0243699
-0.0235242
-0.0226908
-0.0218693
-0.0210596
-0.0202613
-0.0194741
-0.0186979
-0.0179322
-0.0171768
-0.0164314
-0.0156956
-0.0149693
-0.0142518
-0.0135433
-0.0128425
-0.0121506
-0.0114646
-0.0107884
-0.0101145
-0.00945417
-0.00878827
-0.00814604
-0.00748031
-0.00686427
-0.00618272
-0.005614
-0.00488219
-0.00441145
-0.00355358
-0.00329835
-0.00214232
-0.00238414
-0.000498817
-0.00201183
-0.0404264
-0.0393535
-0.0382962
-0.0372542
-0.0362275
-0.0352158
-0.0342188
-0.0332365
-0.0322687
-0.031315
-0.0303754
-0.0294495
-0.0285373
-0.0276383
-0.0267525
-0.0258796
-0.0250193
-0.0241714
-0.0233357
-0.0225118
-0.0216997
-0.0208989
-0.0201092
-0.0193303
-0.018562
-0.017804
-0.0170559
-0.0163176
-0.0155885
-0.0148685
-0.0141571
-0.0134543
-0.0127591
-0.0120722
-0.0113912
-0.0107192
-0.0100501
-0.00939273
-0.00873171
-0.00809054
-0.00743079
-0.00681218
-0.00614002
-0.00556134
-0.0048476
-0.00435107
-0.00353212
-0.00321604
-0.00214839
-0.00224855
-0.00057132
-0.00174243
-0.0410977
-0.0400231
-0.0389642
-0.0379207
-0.0368925
-0.0358793
-0.0348809
-0.0338972
-0.0329278
-0.0319726
-0.0310314
-0.0301039
-0.0291899
-0.0282892
-0.0274016
-0.0265267
-0.0256644
-0.0248145
-0.0239766
-0.0231506
-0.0223362
-0.021533
-0.0207409
-0.0199597
-0.0191889
-0.0184284
-0.0176778
-0.0169369
-0.0162054
-0.0154828
-0.0147691
-0.0140636
-0.0133664
-0.0126765
-0.0119945
-0.0113184
-0.0106505
-0.00998593
-0.00933156
-0.00867503
-0.00803516
-0.0073807
-0.00676023
-0.00609609
-0.0055091
-0.00481068
-0.00429194
-0.00350644
-0.00313667
-0.00214718
-0.00211825
-0.000633496
-0.00147811
-0.0406887
-0.039628
-0.0385829
-0.0375531
-0.0365384
-0.0355385
-0.0345532
-0.0335824
-0.0326257
-0.0316829
-0.0307539
-0.0298383
-0.0289359
-0.0280465
-0.0271698
-0.0263057
-0.0254538
-0.024614
-0.0237859
-0.0229693
-0.022164
-0.0213697
-0.0205861
-0.019813
-0.0190502
-0.0182972
-0.0175539
-0.0168199
-0.016095
-0.0153788
-0.0146711
-0.0139714
-0.0132796
-0.0125949
-0.0119177
-0.0112463
-0.0105824
-0.00992206
-0.00927071
-0.00861832
-0.00797992
-0.00733014
-0.00670836
-0.00605108
-0.00545714
-0.00477171
-0.00423375
-0.00347706
-0.00305964
-0.00213964
-0.00199214
-0.000687004
-0.00121711
-0.0402882
-0.0392413
-0.0382098
-0.0371935
-0.036192
-0.0352052
-0.0342328
-0.0332746
-0.0323304
-0.0313997
-0.0304826
-0.0295786
-0.0286875
-0.0278092
-0.0269433
-0.0260896
-0.0252479
-0.0244178
-0.0235993
-0.0227919
-0.0219955
-0.0212098
-0.0204345
-0.0196694
-0.0189141
-0.0181685
-0.0174323
-0.0167051
-0.0159866
-0.0152766
-0.0145748
-0.0138806
-0.0131941
-0.0125144
-0.0118418
-0.0111748
-0.0105149
-0.00985859
-0.00921021
-0.00856163
-0.00792483
-0.0072792
-0.00665654
-0.00600511
-0.00540537
-0.00473092
-0.00417628
-0.0034444
-0.00298449
-0.00212655
-0.00186944
-0.000733101
-0.00095815
-0.0398967
-0.0388634
-0.0378453
-0.0368421
-0.0358537
-0.0348798
-0.03392
-0.0329742
-0.032042
-0.0311233
-0.0302177
-0.0293251
-0.0284451
-0.0275775
-0.0267221
-0.0258785
-0.0250467
-0.0242262
-0.0234169
-0.0226185
-0.0218307
-0.0210534
-0.0202861
-0.0195287
-0.018781
-0.0180425
-0.0173131
-0.0165924
-0.0158802
-0.0151762
-0.01448
-0.0137913
-0.0131098
-0.012435
-0.0117668
-0.0111042
-0.010448
-0.00979553
-0.00915007
-0.00850503
-0.00786988
-0.00722794
-0.00660475
-0.00595832
-0.0053537
-0.00468851
-0.00411935
-0.00340883
-0.00291086
-0.00210858
-0.0017495
-0.000772841
-0.000700303
-0.0405501
-0.0395146
-0.0384946
-0.0374896
-0.0364995
-0.0355238
-0.0345624
-0.033615
-0.0326813
-0.0317609
-0.0308538
-0.0299595
-0.0290779
-0.0282087
-0.0273516
-0.0265063
-0.0256727
-0.0248504
-0.0240393
-0.0232389
-0.0224492
-0.0216699
-0.0209006
-0.0201411
-0.0193913
-0.0186507
-0.0179192
-0.0171964
-0.0164821
-0.0157759
-0.0150776
-0.0143869
-0.0137034
-0.0130269
-0.0123567
-0.0116928
-0.0110343
-0.0103818
-0.00973296
-0.00909034
-0.00844857
-0.00781511
-0.00717644
-0.00655299
-0.00591081
-0.00530208
-0.00464468
-0.00406281
-0.0033707
-0.00283845
-0.00208635
-0.00163182
-0.000807125
-0.000442911
-0.0401646
-0.0391424
-0.0381354
-0.0371433
-0.0361658
-0.0352027
-0.0342535
-0.0333181
-0.0323962
-0.0314874
-0.0305915
-0.0297083
-0.0288374
-0.0279786
-0.0271316
-0.0262963
-0.0254722
-0.0246593
-0.0238571
-0.0230655
-0.0222842
-0.021513
-0.0207516
-0.0199997
-0.0192571
-0.0185235
-0.0177986
-0.0170822
-0.016374
-0.0156738
-0.0149811
-0.0142956
-0.0136172
-0.0129453
-0.0122796
-0.0116199
-0.0109653
-0.0103163
-0.00967092
-0.00903104
-0.00839231
-0.00776053
-0.00712478
-0.00650127
-0.0058627
-0.00525049
-0.00459963
-0.00400658
-0.00333035
-0.00276704
-0.00206038
-0.00151602
-0.00083672
-0.000185569
-0.0397896
-0.0387803
-0.0377861
-0.0368067
-0.0358416
-0.0348906
-0.0339534
-0.0330297
-0.0321192
-0.0312216
-0.0303367
-0.0294641
-0.0286036
-0.027755
-0.0269179
-0.0260921
-0.0252774
-0.0244734
-0.0236799
-0.0228968
-0.0221237
-0.0213603
-0.0206064
-0.0198618
-0.0191262
-0.0183994
-0.017681
-0.0169708
-0.0162685
-0.0155739
-0.0148865
-0.0142062
-0.0135325
-0.0128652
-0.0122038
-0.0115481
-0.0108973
-0.0102516
-0.00960949
-0.00897225
-0.00833633
-0.00770621
-0.00707306
-0.00644963
-0.00581412
-0.00519894
-0.00455353
-0.00395059
-0.00328806
-0.00269648
-0.00203119
-0.00140182
-0.000862282
7.19165e-05
-0.0394256
-0.038429
-0.0374473
-0.0364801
-0.035527
-0.0345879
-0.0336623
-0.03275
-0.0318506
-0.0309639
-0.0300895
-0.0292273
-0.0283769
-0.0275381
-0.0267105
-0.025894
-0.0250882
-0.0242929
-0.0235079
-0.0227329
-0.0219676
-0.0212118
-0.0204653
-0.0197277
-0.0189989
-0.0182785
-0.0175664
-0.0168621
-0.0161655
-0.0154763
-0.0147941
-0.0141187
-0.0134497
-0.0127867
-0.0121294
-0.0114775
-0.0108303
-0.0101878
-0.00954875
-0.00891403
-0.00828071
-0.0076522
-0.00702136
-0.00639811
-0.00576518
-0.00514745
-0.00450657
-0.00389482
-0.00324413
-0.00262666
-0.00199921
-0.00128906
-0.000884366
0.000329531
-0.0400722
-0.0390729
-0.0380887
-0.0371192
-0.0361639
-0.0352226
-0.0342949
-0.0333806
-0.0324792
-0.0315906
-0.0307144
-0.0298503
-0.0289981
-0.0281574
-0.0273281
-0.0265097
-0.0257021
-0.024905
-0.0241181
-0.0233412
-0.022574
-0.0218163
-0.0210678
-0.0203283
-0.0195975
-0.0188752
-0.0181611
-0.0174549
-0.0167564
-0.0160652
-0.0153812
-0.014704
-0.0140332
-0.0133686
-0.0127098
-0.0120565
-0.0114082
-0.0107644
-0.0101249
-0.00948877
-0.00885645
-0.00822554
-0.00759857
-0.0069698
-0.00634678
-0.00571602
-0.00509607
-0.00445893
-0.0038393
-0.00319884
-0.00255754
-0.00196486
-0.00117766
-0.000903432
0.000587077
-0.0397192
-0.0387322
-0.03776
-0.0368022
-0.0358585
-0.0349285
-0.034012
-0.0331085
-0.0322178
-0.0313396
-0.0304735
-0.0296193
-0.0287767
-0.0279454
-0.0271252
-0.0263156
-0.0255166
-0.0247278
-0.023949
-0.0231799
-0.0224203
-0.0216698
-0.0209284
-0.0201956
-0.0194713
-0.0187552
-0.0180471
-0.0173466
-0.0166536
-0.0159677
-0.0152886
-0.0146161
-0.0139499
-0.0132895
-0.0126347
-0.011985
-0.0113402
-0.0106996
-0.0100631
-0.00942967
-0.00879961
-0.00817092
-0.00754542
-0.00691848
-0.00629572
-0.00566678
-0.00504487
-0.0044108
-0.00378407
-0.00315246
-0.00248914
-0.00192852
-0.00106763
-0.000919869
0.000844199
-0.039379
-0.0384038
-0.0374432
-0.0364968
-0.0355642
-0.0346452
-0.0337394
-0.0328464
-0.0319659
-0.0310977
-0.0302414
-0.0293967
-0.0285634
-0.0277411
-0.0269296
-0.0261286
-0.0253378
-0.024557
-0.0237859
-0.0230243
-0.0222718
-0.0215284
-0.0207936
-0.0200674
-0.0193493
-0.0186392
-0.0179367
-0.0172418
-0.016554
-0.015873
-0.0151988
-0.0145308
-0.0138688
-0.0132124
-0.0125614
-0.0119153
-0.0112737
-0.0106362
-0.0100024
-0.00937152
-0.00874361
-0.00811697
-0.00749285
-0.00686753
-0.00624505
-0.0056176
-0.00499396
-0.00436238
-0.0037292
-0.00310525
-0.00242149
-0.00189056
-0.000959029
-0.000934007
0.0011004
-0.0390518
-0.038088
-0.0371386
-0.0362032
-0.0352815
-0.034373
-0.0334774
-0.0325945
-0.0317239
-0.0308653
-0.0300183
-0.0291828
-0.0283583
-0.0275446
-0.0267415
-0.0259486
-0.0251657
-0.0243926
-0.0236289
-0.0228744
-0.0221289
-0.0213921
-0.0206638
-0.0199436
-0.0192315
-0.0185271
-0.0178301
-0.0171404
-0.0164576
-0.0157814
-0.0151116
-0.0144479
-0.01379
-0.0131375
-0.0124901
-0.0118473
-0.0112089
-0.0105742
-0.009943
-0.00931447
-0.00868856
-0.00806379
-0.00744097
-0.00681708
-0.00619487
-0.00556865
-0.00494344
-0.00431385
-0.0036748
-0.00305748
-0.00235468
-0.00185132
-0.000852
-0.00094613
0.00135508
-0.0387382
-0.0377854
-0.0368468
-0.0359219
-0.0350105
-0.0341121
-0.0332264
-0.0323532
-0.031492
-0.0306425
-0.0298045
-0.0289777
-0.0281617
-0.0273562
-0.0265611
-0.025776
-0.0250006
-0.0242348
-0.0234781
-0.0227304
-0.0219915
-0.0212611
-0.0205389
-0.0198246
-0.0191181
-0.0184191
-0.0177274
-0.0170426
-0.0163645
-0.0156929
-0.0150274
-0.0143678
-0.0137137
-0.0130648
-0.0124208
-0.0117812
-0.0111457
-0.0105137
-0.00988492
-0.00925861
-0.00863457
-0.00801153
-0.0073899
-0.00676727
-0.00614531
-0.00552008
-0.00489345
-0.00426542
-0.00362099
-0.00300941
-0.00228884
-0.00181112
-0.000746728
-0.000956483
0.00160752
-0.0393949
-0.0384384
-0.0374962
-0.0365679
-0.0356531
-0.0347515
-0.0338628
-0.0329866
-0.0321225
-0.0312703
-0.0304296
-0.0296002
-0.0287816
-0.0279737
-0.0271761
-0.0263886
-0.0256109
-0.0248426
-0.0240837
-0.0233338
-0.0225926
-0.0218599
-0.0211355
-0.0204191
-0.0197104
-0.0190093
-0.0183155
-0.0176286
-0.0169486
-0.016275
-0.0156076
-0.0149462
-0.0142905
-0.01364
-0.0129945
-0.0123537
-0.0117171
-0.0110843
-0.0104548
-0.00982834
-0.00920408
-0.00858178
-0.00796031
-0.00733978
-0.00671825
-0.00609651
-0.00547206
-0.00484412
-0.00421729
-0.00356792
-0.0029613
-0.0022241
-0.00177029
-0.00064344
-0.000965276
0.00185691
-0.0390991
-0.0381529
-0.0372207
-0.0363022
-0.0353971
-0.034505
-0.0336254
-0.0327582
-0.0319029
-0.0310592
-0.0302268
-0.0294055
-0.0285948
-0.0277945
-0.0270044
-0.0262241
-0.0254534
-0.0246919
-0.0239396
-0.023196
-0.0224609
-0.0217342
-0.0210155
-0.0203046
-0.0196012
-0.0189052
-0.0182162
-0.017534
-0.0168584
-0.0161891
-0.0155258
-0.0148682
-0.014216
-0.013569
-0.0129267
-0.0122889
-0.0116551
-0.0110249
-0.0103978
-0.00977338
-0.00915102
-0.00853032
-0.00791028
-0.00729076
-0.00667018
-0.00604863
-0.00542478
-0.00479562
-0.00416969
-0.00351574
-0.00291342
-0.00216065
-0.00172915
-0.000542404
-0.000972697
0.00210238
-0.0388184
-0.0378819
-0.0369593
-0.0360502
-0.0351542
-0.034271
-0.0334002
-0.0325414
-0.0316944
-0.0308588
-0.0300343
-0.0292206
-0.0284174
-0.0276243
-0.0268412
-0.0260678
-0.0253037
-0.0245486
-0.0238025
-0.0230649
-0.0223356
-0.0216145
-0.0209011
-0.0201954
-0.019497
-0.0188058
-0.0181214
-0.0174436
-0.0167722
-0.0161069
-0.0154473
-0.0147934
-0.0141446
-0.0135008
-0.0128616
-0.0122265
-0.0115953
-0.0109675
-0.0103426
-0.00972016
-0.00909956
-0.00848034
-0.00786159
-0.00724298
-0.00662323
-0.00600182
-0.00537843
-0.00474811
-0.00412282
-0.00346464
-0.00286603
-0.00209866
-0.00168799
-0.000443915
-0.000978907
0.00234299
-0.0385529
-0.0376257
-0.0367122
-0.0358119
-0.0349245
-0.0340497
-0.0331871
-0.0323364
-0.0314972
-0.0306693
-0.0298522
-0.0290457
-0.0282495
-0.0274633
-0.0266868
-0.0259197
-0.0251619
-0.0244129
-0.0236725
-0.0229406
-0.0222168
-0.0215009
-0.0207926
-0.0200918
-0.0193981
-0.0187113
-0.0180312
-0.0173576
-0.0166901
-0.0160285
-0.0153725
-0.0147219
-0.0140764
-0.0134356
-0.0127991
-0.0121667
-0.0115379
-0.0109123
-0.0102895
-0.00966885
-0.00904985
-0.00843199
-0.0078144
-0.00719661
-0.00657757
-0.00595626
-0.00533318
-0.00470178
-0.00407692
-0.0034148
-0.0028194
-0.00203836
-0.00164711
-0.000348293
-0.000984055
0.00257778
-0.038303
-0.0373845
-0.0364795
-0.0355875
-0.0347083
-0.0338414
-0.0329866
-0.0321434
-0.0313116
-0.0304907
-0.0296806
-0.0288809
-0.0280913
-0.0273115
-0.0265412
-0.0257802
-0.0250281
-0.0242848
-0.0235499
-0.0228232
-0.0221045
-0.0213935
-0.02069
-0.0199937
-0.0193044
-0.0186218
-0.0179458
-0.017276
-0.0166122
-0.0159541
-0.0153015
-0.014654
-0.0140114
-0.0133734
-0.0127396
-0.0121096
-0.0114831
-0.0108595
-0.0102385
-0.00961957
-0.00900204
-0.00838541
-0.00776887
-0.0071518
-0.00653336
-0.00591212
-0.00528924
-0.00465682
-0.00403219
-0.00336643
-0.00277379
-0.00197996
-0.00160681
-0.000255874
-0.000988271
0.00280572
-0.0380688
-0.0371585
-0.0362615
-0.0353773
-0.0345057
-0.0336462
-0.0327986
-0.0319624
-0.0311375
-0.0303233
-0.0295197
-0.0287263
-0.0279428
-0.027169
-0.0264045
-0.0256491
-0.0249025
-0.0241644
-0.0234346
-0.0227129
-0.0219989
-0.0212925
-0.0205934
-0.0199014
-0.0192162
-0.0185375
-0.0178652
-0.017199
-0.0165386
-0.0158838
-0.0152342
-0.0145897
-0.0139499
-0.0133144
-0.012683
-0.0120553
-0.0114308
-0.0108092
-0.0101899
-0.00957247
-0.00895628
-0.00834076
-0.00772516
-0.00710873
-0.0064908
-0.00586959
-0.00524681
-0.00461341
-0.00398888
-0.00331973
-0.00272946
-0.00192369
-0.00156738
-0.000167007
-0.000991675
0.0030258
-0.0378505
-0.0369478
-0.0360582
-0.0351813
-0.0343167
-0.0334641
-0.0326232
-0.0317936
-0.030975
-0.0301671
-0.0293695
-0.028582
-0.0278042
-0.0270359
-0.0262768
-0.0255266
-0.0247851
-0.0240519
-0.0233269
-0.0226097
-0.0219001
-0.021198
-0.020503
-0.0198149
-0.0191334
-0.0184584
-0.0177896
-0.0171267
-0.0164694
-0.0158176
-0.0151709
-0.0145291
-0.0138918
-0.0132588
-0.0126296
-0.0120039
-0.0113814
-0.0107615
-0.0101437
-0.0095277
-0.00891272
-0.00829821
-0.00768343
-0.00706757
-0.00645005
-0.00582883
-0.00520609
-0.00457176
-0.0039472
-0.00327491
-0.00268668
-0.00186979
-0.0015291
-8.20472e-05
-0.000994375
0.00323697
-0.038557
-0.0376481
-0.0367524
-0.0358697
-0.0349995
-0.0341415
-0.0332953
-0.0324606
-0.0316371
-0.0308244
-0.0300222
-0.0292302
-0.0284481
-0.0276756
-0.0269124
-0.0261582
-0.0254128
-0.024676
-0.0239473
-0.0232266
-0.0225136
-0.0218082
-0.0211099
-0.0204187
-0.0197342
-0.0190563
-0.0183846
-0.017719
-0.0170591
-0.0164048
-0.0157557
-0.0151117
-0.0144723
-0.0138374
-0.0132065
-0.0125794
-0.0119556
-0.0113348
-0.0107165
-0.0101002
-0.0094854
-0.00887151
-0.0082579
-0.00764385
-0.00702847
-0.0064113
-0.00579005
-0.00516726
-0.00453205
-0.00390738
-0.00323218
-0.00264569
-0.0018185
-0.00149224
-1.34933e-06
-0.00099647
0.00343821
-0.0383639
-0.0374617
-0.0365725
-0.0356961
-0.0348321
-0.0339801
-0.0331397
-0.0323107
-0.0314928
-0.0306855
-0.0298885
-0.0291017
-0.0283245
-0.0275569
-0.0267984
-0.0260488
-0.0253078
-0.0245752
-0.0238506
-0.023134
-0.0224249
-0.0217231
-0.0210285
-0.0203407
-0.0196596
-0.0189848
-0.0183162
-0.0176535
-0.0169964
-0.0163448
-0.0156982
-0.0150566
-0.0144195
-0.0137867
-0.0131578
-0.0125326
-0.0119105
-0.0112913
-0.0106744
-0.0100594
-0.00944571
-0.0088328
-0.00821999
-0.00760658
-0.00699162
-0.00637472
-0.00575341
-0.00513054
-0.0044945
-0.00386963
-0.00319176
-0.00260675
-0.00177006
-0.00145706
7.47348e-05
-0.000998052
0.0036285
-0.0381874
-0.0372912
-0.036408
-0.0355373
-0.0346789
-0.0338324
-0.0329974
-0.0321736
-0.0313607
-0.0305583
-0.0297662
-0.028984
-0.0282114
-0.0274481
-0.0266939
-0.0259485
-0.0252115
-0.0244828
-0.023762
-0.023049
-0.0223434
-0.021645
-0.0209537
-0.020269
-0.0195909
-0.0189191
-0.0182532
-0.0175932
-0.0169387
-0.0162894
-0.0156452
-0.0150057
-0.0143707
-0.0137398
-0.0131128
-0.0124892
-0.0118687
-0.0112509
-0.0106353
-0.0100214
-0.00940878
-0.00879673
-0.00818462
-0.00757177
-0.00695717
-0.00634049
-0.00571909
-0.0050961
-0.00445929
-0.00383417
-0.00315385
-0.00257011
-0.00172469
-0.00142381
0.000145862
-0.000999205
0.00380686
-0.0380274
-0.0371367
-0.0362588
-0.0353934
-0.0345401
-0.0336985
-0.0328684
-0.0320493
-0.0312409
-0.030443
-0.0296552
-0.0288772
-0.0281087
-0.0273494
-0.026599
-0.0258573
-0.025124
-0.0243988
-0.0236814
-0.0229717
-0.0222693
-0.021574
-0.0208855
-0.0202038
-0.0195284
-0.0188591
-0.0181958
-0.0175382
-0.0168859
-0.0162389
-0.0155968
-0.0149592
-0.0143261
-0.0136969
-0.0130715
-0.0124494
-0.0118303
-0.0112138
-0.0105993
-0.00998648
-0.00937473
-0.00876345
-0.00815195
-0.00753958
-0.00692528
-0.00630877
-0.00568727
-0.00506413
-0.00442659
-0.00380121
-0.00311866
-0.00253597
-0.00168263
-0.00139275
0.000211701
-0.001
0.00397236
-0.0378839
-0.0369981
-0.036125
-0.0352642
-0.0344155
-0.0335783
-0.0327525
-0.0319376
-0.0311333
-0.0303394
-0.0295555
-0.0287812
-0.0280164
-0.0272606
-0.0265137
-0.0257754
-0.0250453
-0.0243232
-0.0236089
-0.0229021
-0.0222025
-0.0215099
-0.0208242
-0.0201449
-0.019472
-0.0188051
-0.018144
-0.0174885
-0.0168383
-0.0161932
-0.0155529
-0.0149171
-0.0142856
-0.013658
-0.013034
-0.0124133
-0.0117954
-0.01118
-0.0105666
-0.00995465
-0.00934369
-0.00873307
-0.00812212
-0.00751015
-0.0068961
-0.00627972
-0.00565812
-0.0050348
-0.00439661
-0.00377092
-0.00308637
-0.00250458
-0.00164409
-0.00136409
0.000271939
-0.00100052
0.00412409
-0.0377567
-0.0368752
-0.0360064
-0.0351498
-0.034305
-0.0334718
-0.0326498
-0.0318386
-0.0310379
-0.0302475
-0.029467
-0.0286961
-0.0279345
-0.0271819
-0.026438
-0.0257026
-0.0249754
-0.0242561
-0.0235444
-0.0228402
-0.0221431
-0.021453
-0.0207695
-0.0200925
-0.0194217
-0.0187569
-0.0180978
-0.0174442
-0.0167958
-0.0161524
-0.0155138
-0.0148795
-0.0142495
-0.0136232
-0.0130005
-0.012381
-0.0117642
-0.0111497
-0.0105372
-0.00992606
-0.00931577
-0.00870573
-0.00809524
-0.00748362
-0.00686978
-0.00625348
-0.00563177
-0.00500829
-0.00436949
-0.00374351
-0.00305717
-0.00247611
-0.00160927
-0.00133805
0.000326283
-0.00100082
0.00426121
-0.0376457
-0.0367681
-0.0359029
-0.0350499
-0.0342086
-0.0333788
-0.0325601
-0.0317522
-0.0309547
-0.0301673
-0.0293897
-0.0286217
-0.0278629
-0.027113
-0.0263718
-0.025639
-0.0249142
-0.0241973
-0.023488
-0.0227861
-0.0220912
-0.0214031
-0.0207217
-0.0200467
-0.0193777
-0.0187147
-0.0180573
-0.0174053
-0.0167585
-0.0161166
-0.0154794
-0.0148465
-0.0142177
-0.0135926
-0.012971
-0.0123525
-0.0117366
-0.011123
-0.0105112
-0.00990079
-0.00929109
-0.00868154
-0.00807143
-0.0074601
-0.00684643
-0.0062302
-0.00560838
-0.00498473
-0.00434539
-0.00371913
-0.00303122
-0.00245077
-0.00157836
-0.00131481
0.000374462
-0.00100095
0.00438298
-0.0375509
-0.0366765
-0.0358145
-0.0349645
-0.0341263
-0.0332993
-0.0324834
-0.0316782
-0.0308834
-0.0300987
-0.0293237
-0.0285581
-0.0278017
-0.0270541
-0.0263152
-0.0255845
-0.0248619
-0.024147
-0.0234397
-0.0227397
-0.0220466
-0.0213604
-0.0206807
-0.0200073
-0.01934
-0.0186785
-0.0180225
-0.017372
-0.0167265
-0.0160859
-0.0154498
-0.0148181
-0.0141903
-0.0135663
-0.0129456
-0.0123279
-0.0117128
-0.0111
-0.0104888
-0.00987895
-0.00926974
-0.0086606
-0.00805082
-0.00743972
-0.00682618
-0.00620999
-0.00558807
-0.00496426
-0.00432445
-0.00369793
-0.00300868
-0.00242872
-0.00155154
-0.00129455
0.000416235
-0.00100096
0.00448869
-0.0374722
-0.0366004
-0.035741
-0.0348936
-0.0340578
-0.0332333
-0.0324197
-0.0316168
-0.0308242
-0.0300416
-0.0292687
-0.0285052
-0.0277507
-0.0270051
-0.026268
-0.0255392
-0.0248183
-0.0241052
-0.0233995
-0.022701
-0.0220095
-0.0213248
-0.0206465
-0.0199745
-0.0193085
-0.0186482
-0.0179935
-0.0173441
-0.0166997
-0.0160602
-0.0154251
-0.0147943
-0.0141674
-0.0135442
-0.0129243
-0.0123073
-0.0116929
-0.0110806
-0.01047
-0.00986061
-0.0092518
-0.008643
-0.00803348
-0.00742257
-0.00680914
-0.00619298
-0.00557096
-0.004947
-0.0043068
-0.00368004
-0.00298967
-0.00241011
-0.00152894
-0.00127743
0.000451387
-0.00100091
0.00457774
-0.0374093
-0.0365397
-0.0356824
-0.0348369
-0.0340031
-0.0331805
-0.0323688
-0.0315677
-0.0307769
-0.029996
-0.0292248
-0.0284629
-0.02771
-0.0269659
-0.0262303
-0.0255029
-0.0247835
-0.0240717
-0.0233673
-0.0226701
-0.0219799
-0.0212963
-0.0206191
-0.0199482
-0.0192832
-0.018624
-0.0179703
-0.0173218
-0.0166783
-0.0160395
-0.0154053
-0.0147752
-0.014149
-0.0135265
-0.0129072
-0.0122908
-0.0116769
-0.0110651
-0.0104549
-0.00984585
-0.00923736
-0.00862882
-0.0080195
-0.00740874
-0.00679538
-0.00617924
-0.00555714
-0.00493306
-0.00429255
-0.00366559
-0.00297432
-0.00239505
-0.00151069
-0.00126356
0.000479738
-0.00100082
0.00464962
-0.0373622
-0.0364942
-0.0356385
-0.0347946
-0.0339622
-0.033141
-0.0323307
-0.031531
-0.0307415
-0.0299619
-0.0291919
-0.0284312
-0.0276795
-0.0269366
-0.0262021
-0.0254758
-0.0247574
-0.0240466
-0.0233432
-0.022647
-0.0219576
-0.0212749
-0.0205986
-0.0199285
-0.0192643
-0.0186058
-0.0179528
-0.017305
-0.0166622
-0.0160241
-0.0153904
-0.0147609
-0.0141352
-0.0135131
-0.0128943
-0.0122783
-0.0116648
-0.0110533
-0.0104435
-0.00983471
-0.00922646
-0.00861811
-0.00800894
-0.00739829
-0.00678499
-0.00616885
-0.00554669
-0.00492252
-0.00428176
-0.00365465
-0.00296271
-0.00238366
-0.00149691
-0.00125307
0.000501141
-0.00100073
0.00470391
-0.0373309
-0.036464
-0.0356092
-0.0347663
-0.0339349
-0.0331147
-0.0323054
-0.0315065
-0.0307179
-0.0299391
-0.02917
-0.0284101
-0.0276592
-0.026917
-0.0261833
-0.0254577
-0.02474
-0.0240299
-0.0233271
-0.0226315
-0.0219428
-0.0212607
-0.0205849
-0.0199154
-0.0192517
-0.0185937
-0.0179412
-0.0172938
-0.0166514
-0.0160137
-0.0153804
-0.0147513
-0.014126
-0.0135042
-0.0128857
-0.01227
-0.0116567
-0.0110455
-0.0104358
-0.00982725
-0.00921915
-0.00861093
-0.00800186
-0.00739128
-0.00677801
-0.00616188
-0.00553967
-0.00491544
-0.00427452
-0.0036473
-0.00295491
-0.00237601
-0.00148766
-0.00124601
0.000515482
-0.00100065
0.00474028
-0.0373153
-0.0364489
-0.0355947
-0.0347523
-0.0339214
-0.0331016
-0.0322927
-0.0314943
-0.0307061
-0.0299278
-0.0291591
-0.0283996
-0.0276491
-0.0269073
-0.0261739
-0.0254487
-0.0247313
-0.0240215
-0.0233191
-0.0226238
-0.0219354
-0.0212535
-0.0205781
-0.0199088
-0.0192454
-0.0185877
-0.0179354
-0.0172882
-0.0166461
-0.0160085
-0.0153755
-0.0147465
-0.0141214
-0.0134998
-0.0128814
-0.0122658
-0.0116527
-0.0110416
-0.010432
-0.00982349
-0.00921547