/*--------------------------------*- C++ -*----------------------------------*\
  =========                 |
  \\      /  F ield         | OpenFOAM: The Open Source CFD Toolbox
   \\    /   O peration     | Website:  https://openfoam.org
    \\  /    A nd           | Version:  7
     \\/     M anipulation  |
\*---------------------------------------------------------------------------*/
FoamFile
{
    version     2.0;
    format      ascii;
    class       surfaceScalarField;
    location    "10";
    object      phi;
}
// * * * * * * * * * * * * * * * * * * * * * * * * * * * * * * * * * * * * * //

dimensions      [0 3 -1 0 0 0 0];

internalField   nonuniform List<scalar> 
5141
(
0.00263779
-0.000598065
0.00263076
-0.000607568
0.00262394
-0.000616994
0.00261734
-0.000626384
0.00261095
-0.000635782
0.00260477
-0.000645232
0.00259878
-0.000654778
0.00259298
-0.000664466
0.00258738
-0.000674341
0.00258196
-0.000684446
0.00257672
-0.000694825
0.00257166
-0.00070552
0.00256678
-0.00071657
0.00256206
-0.000728011
-0.000739877
0.0031304
5.33975e-05
-0.00314148
0.00311776
2.21502e-05
0.00310394
-8.85359e-06
0.00308917
-4.06077e-05
0.00307384
-7.18999e-05
0.00305825
-0.00010221
0.00304261
-0.000131331
0.00302706
-0.000159173
0.00301171
-0.00018574
0.0029966
-0.000211069
0.00298179
-0.000235213
0.0029673
-0.000258235
0.00295314
-0.000280196
0.00293933
-0.000301155
0.00292586
-0.00032117
0.00291275
-0.000340296
0.00289998
-0.000358584
0.00288755
-0.000376084
0.00287545
-0.000392841
0.00286369
-0.000408898
0.00285225
-0.000424295
0.00284112
-0.00043907
0.0028303
-0.000453262
0.00281978
-0.000466904
0.00280955
-0.000480031
0.00279961
-0.000492676
0.00278994
-0.000504873
0.00278055
-0.000516655
0.00277142
-0.000528055
0.00276255
-0.000539107
0.00275393
-0.000549846
0.00274556
-0.000560307
0.00273743
-0.000570527
0.00272953
-0.000580544
0.00272186
-0.000590395
0.00271441
-0.000600123
0.00270718
-0.000609767
0.00270017
-0.00061937
0.00269337
-0.000628977
0.00268676
-0.00063863
0.00268036
-0.000648375
0.00267415
-0.000658257
0.00266813
-0.000668321
0.0026623
-0.000678611
0.00265664
-0.00068917
0.00265117
-0.000700041
0.00264586
-0.000711262
0.00264072
-0.000722871
-0.0007349
0.00322287
6.41235e-05
-0.0032336
0.00321076
3.4264e-05
0.00319754
4.3668e-06
0.00318334
-2.64108e-05
0.00316848
-5.70428e-05
0.00315324
-8.6965e-05
0.00313782
-0.000115913
0.00312239
-0.000143742
0.00310705
-0.000170407
0.0030919
-0.000195912
0.00307697
-0.000220287
0.00306231
-0.000243576
0.00304795
-0.000265829
0.00303389
-0.000287097
0.00302015
-0.00030743
0.00300673
-0.00032688
0.00299364
-0.000345494
0.00298088
-0.000363318
0.00296843
-0.000380397
0.00295631
-0.000396771
0.00294449
-0.000412481
0.00293298
-0.000427563
0.00292178
-0.000442055
0.00291087
-0.000455991
0.00290024
-0.000469406
0.0028899
-0.000482332
0.00287983
-0.000494804
0.00287003
-0.000506854
0.00286049
-0.000518517
0.00285121
-0.000529825
0.00284217
-0.000540814
0.00283339
-0.00055152
0.00282484
-0.000561979
0.00281652
-0.000572228
0.00280843
-0.000582308
0.00280057
-0.000592259
0.00279292
-0.000602121
0.00278549
-0.000611937
0.00277827
-0.000621751
0.00277124
-0.000631607
0.00276442
-0.00064155
0.00275778
-0.000651625
0.00275134
-0.000661877
0.00274508
-0.00067235
0.00273899
-0.000683087
0.00273309
-0.000694132
0.00272735
-0.000705522
0.00272177
-0.000717296
-0.000729485
0.00331695
7.45135e-05
-0.00332734
0.00330534
4.588e-05
0.0032927
1.70076e-05
0.00327908
-1.27948e-05
0.00326474
-4.26967e-05
0.0032499
-7.2129e-05
0.00323478
-0.000100794
0.00321954
-0.000128505
0.00320431
-0.000155175
0.00318917
-0.000180776
0.0031742
-0.000205313
0.00315944
-0.000228813
0.00314492
-0.000251309
0.00313066
-0.000272844
0.0031167
-0.000293462
0.00310302
-0.000313206
0.00308965
-0.000332121
0.00307658
-0.000350249
0.00306381
-0.000367631
0.00305135
-0.000384308
0.00303919
-0.000400317
0.00302732
-0.000415695
0.00301574
-0.000430478
0.00300445
-0.0004447
0.00299344
-0.000458396
0.00298271
-0.000471597
0.00297224
-0.000484339
0.00296204
-0.000496653
0.00295209
-0.000508573
0.0029424
-0.000520135
0.00293296
-0.000531371
0.00292376
-0.000542319
0.0029148
-0.000553014
0.00290606
-0.000563496
0.00289756
-0.000573802
0.00288927
-0.000583973
0.0028812
-0.000594051
0.00287334
-0.000604079
0.00286569
-0.000614099
0.00285824
-0.000624156
0.00285099
-0.000634295
0.00284392
-0.00064456
0.00283704
-0.000654998
0.00283035
-0.000665652
0.00282382
-0.000676566
0.00281747
-0.000687782
0.00281129
-0.000699339
0.00280527
-0.000711275
-0.000723621
0.00341267
8.45729e-05
-0.00342273
0.00340153
5.70217e-05
0.00338944
2.90924e-05
0.00337641
2.41428e-07
0.0033626
-2.88884e-05
0.00334822
-5.77519e-05
0.00333347
-8.60385e-05
0.0033185
-0.000113534
0.00330344
-0.000140118
0.0032884
-0.000165733
0.00327345
-0.000190361
0.00325864
-0.000214008
0.00324403
-0.000236695
0.00322963
-0.000258452
0.00321549
-0.000279314
0.0032016
-0.000299318
0.00318798
-0.000318505
0.00317464
-0.000336911
0.00316159
-0.000354576
0.00314882
-0.000371536
0.00313633
-0.000387828
0.00312412
-0.000403488
0.00311219
-0.00041855
0.00310054
-0.000433048
0.00308916
-0.000447015
0.00307805
-0.000460484
0.0030672
-0.000473488
0.0030566
-0.00048606
0.00304626
-0.000498233
0.00303617
-0.000510043
0.00302632
-0.000521522
0.00301671
-0.000532708
0.00300733
-0.000543637
0.00299819
-0.000554346
0.00298926
-0.000564876
0.00298055
-0.000575265
0.00297206
-0.000585557
0.00296377
-0.000595792
0.00295569
-0.000606016
0.0029478
-0.000616271
0.00294011
-0.000626603
0.00293261
-0.000637057
0.00292529
-0.000647678
0.00291815
-0.00065851
0.00291118
-0.000669598
0.00290438
-0.000680982
0.00289774
-0.000692702
0.00289126
-0.000704796
-0.000717296
0.00351003
9.42975e-05
-0.00351976
0.00349935
6.77044e-05
0.0034878
4.0642e-05
0.00347534
1.27043e-05
0.00346208
-1.56342e-05
0.0034482
-4.38716e-05
0.00343387
-7.17007e-05
0.00341922
-9.8893e-05
0.00340441
-0.000125305
0.00338953
-0.000150853
0.00337467
-0.000175499
0.00335989
-0.000199228
0.00334524
-0.000222047
0.00333076
-0.000243975
0.00331649
-0.000265038
0.00330244
-0.000285265
0.00328862
-0.000304689
0.00327505
-0.000323345
0.00326174
-0.000341266
0.0032487
-0.000358488
0.00323591
-0.000375045
0.00322339
-0.000390969
0.00321114
-0.000406295
0.00319914
-0.000421055
0.00318741
-0.000435282
0.00317594
-0.000449008
0.00316471
-0.000462265
0.00315374
-0.000475087
0.00314301
-0.000487506
0.00313253
-0.000499557
0.00312228
-0.000511274
0.00311227
-0.000522692
0.00310248
-0.000533849
0.00309291
-0.000544782
0.00308357
-0.000555531
0.00307444
-0.000566135
0.00306552
-0.000576636
0.0030568
-0.000587076
0.00304829
-0.000597499
0.00303996
-0.000607949
0.00303183
-0.000618471
0.00302388
-0.00062911
0.00301612
-0.00063991
0.00300852
-0.000650917
0.0030011
-0.000662174
0.00299384
-0.000673722
0.00298674
-0.000685601
0.00297979
-0.000697849
-0.000710498
0.00360905
0.000103677
-0.00361843
0.00359881
7.79368e-05
0.00358778
5.16723e-05
0.00357589
2.46023e-05
0.00356319
-2.94264e-06
0.00354984
-3.05154e-05
0.00353596
-5.7824e-05
0.00352171
-8.46376e-05
0.0035072
-0.000110797
0.00349255
-0.000136201
0.00347784
-0.000160791
0.00346315
-0.000184535
0.00344853
-0.000207427
0.00343402
-0.000229473
0.00341967
-0.000250688
0.0034055
-0.000271095
0.00339154
-0.00029072
0.00337778
-0.000309592
0.00336426
-0.000327742
0.00335097
-0.0003452
0.00333792
-0.000361997
0.00332512
-0.000378167
0.00331257
-0.000393739
0.00330026
-0.000408746
0.00328819
-0.000423219
0.00327637
-0.000437189
0.0032648
-0.000450688
0.00325346
-0.00046375
0.00324236
-0.000476406
0.00323149
-0.000488689
0.00322085
-0.000500636
0.00321044
-0.00051228
0.00320025
-0.000523659
0.00319028
-0.00053481
0.00318052
-0.000545771
0.00317097
-0.000556584
0.00316162
-0.00056729
0.00315247
-0.00057793
0.00314352
-0.000588548
0.00313476
-0.000599188
0.00312618
-0.000609895
0.00311779
-0.000620714
0.00310957
-0.00063169
0.00310152
-0.000642866
0.00309363
-0.000654287
0.0030859
-0.000665995
0.00307833
-0.000678028
0.00307091
-0.000690425
-0.000703218
0.00370972
0.000112694
-0.00371873
0.00369993
8.77212e-05
0.00368941
6.21948e-05
0.00367807
3.59445e-05
0.00366594
9.18284e-06
0.00365313
-1.77025e-05
0.00363975
-4.44427e-05
0.00362592
-7.08141e-05
0.00361178
-9.66505e-05
0.00359741
-0.000121837
0.00358292
-0.000146299
0.00356838
-0.000169993
0.00355385
-0.000192896
0.00353938
-0.000215004
0.00352501
-0.000236321
0.00351078
-0.000256863
0.0034967
-0.000276648
0.00348281
-0.0002957
0.00346911
-0.000314044
0.00345562
-0.000331709
0.00344235
-0.000348723
0.0034293
-0.000365113
0.00341647
-0.000380911
0.00340387
-0.000396146
0.0033915
-0.000410848
0.00337936
-0.000425048
0.00336745
-0.000438776
0.00335576
-0.000452065
0.0033443
-0.000464946
0.00333307
-0.000477453
0.00332205
-0.00048962
0.00331125
-0.000501481
0.00330066
-0.000513073
0.00329029
-0.000524434
0.00328012
-0.000535603
0.00327015
-0.000546618
0.00326039
-0.000557521
0.00325081
-0.000568355
0.00324143
-0.000579162
0.00323223
-0.000589987
0.0032232
-0.000600874
0.00321436
-0.000611867
0.00320568
-0.000623012
0.00319717
-0.000634353
0.00318881
-0.000645933
0.00318061
-0.000657794
0.00317256
-0.000669976
0.00316465
-0.000682515
-0.000695446
0.00381204
0.000121331
-0.00382068
0.00380271
9.70546e-05
0.00379269
7.2216e-05
0.00378189
4.67383e-05
0.00377033
2.07418e-05
0.00375808
-5.44591e-06
0.00374522
-3.15834e-05
0.00373187
-5.74609e-05
0.00371813
-8.29121e-05
0.0037041
-0.000107815
0.00368989
-0.000132083
0.00367556
-0.00015566
0.00366117
-0.000178513
0.00364679
-0.000200625
0.00363246
-0.000221992
0.00361822
-0.00024262
0.00360409
-0.000262521
0.00359011
-0.000281714
0.00357628
-0.000300219
0.00356263
-0.000318058
0.00354917
-0.000335258
0.0035359
-0.000351845
0.00352283
-0.000367845
0.00350997
-0.000383287
0.00349732
-0.000398199
0.00348489
-0.000412611
0.00347266
-0.000426552
0.00346065
-0.000440053
0.00344885
-0.000453146
0.00343726
-0.000465864
0.00342588
-0.00047824
0.00341471
-0.000490308
0.00340374
-0.000502104
0.00339297
-0.000513667
0.0033824
-0.000525033
0.00337203
-0.000536242
0.00336184
-0.000547336
0.00335184
-0.000558356
0.00334203
-0.000569345
0.00333239
-0.000580348
0.00332292
-0.000591407
0.00331362
-0.000602568
0.00330448
-0.000613876
0.0032955
-0.000625374
0.00328668
-0.000637106
0.003278
-0.000649114
0.00326946
-0.000661437
0.00326106
-0.000674113
-0.000687174
0.00391603
0.000129563
-0.00392426
0.00390715
0.00010593
0.00389763
8.1738e-05
0.00388738
5.69895e-05
0.00387639
3.17352e-05
0.00386469
6.246e-06
0.00385238
-1.9266e-05
0.00383952
-4.46092e-05
0.00382624
-6.9623e-05
0.0038126
-9.41824e-05
0.00379871
-0.000118194
0.00378465
-0.000141593
0.00377047
-0.000164335
0.00375624
-0.000186393
0.003742
-0.000207756
0.0037278
-0.000228421
0.00371367
-0.000248393
0.00369965
-0.000267685
0.00368574
-0.000286311
0.00367197
-0.000304291
0.00365836
-0.000321646
0.00364491
-0.000338399
0.00363164
-0.000354575
0.00361856
-0.0003702
0.00360566
-0.000385301
0.00359295
-0.000399904
0.00358044
-0.00041404
0.00356812
-0.000427738
0.00355601
-0.000441028
0.00354408
-0.000453942
0.00353236
-0.000466513
0.00352082
-0.000478776
0.00350949
-0.000490765
0.00349834
-0.000502518
0.00348738
-0.000514071
0.0034766
-0.000525466
0.003466
-0.000536741
0.00345559
-0.000547938
0.00344534
-0.000559101
0.00343527
-0.000570272
0.00342536
-0.000581497
0.00341561
-0.000592818
0.00340601
-0.00060428
0.00339656
-0.000615929
0.00338726
-0.000627805
0.0033781
-0.000639952
0.00336907
-0.000652408
0.00336017
-0.000665212
-0.000678395
0.00402167
0.000137368
-0.00402947
0.00401326
0.000114336
0.00400424
9.07586e-05
0.00399453
6.67009e-05
0.0039841
4.21642e-05
0.00397298
1.73678e-05
0.00396122
-7.50536e-06
0.0039489
-3.2284e-05
0.00393609
-5.68172e-05
0.00392289
-8.09817e-05
0.00390938
-0.000104681
0.00389563
-0.000127843
0.00388171
-0.000150415
0.00386768
-0.000172364
0.00385359
-0.000193669
0.00383949
-0.00021432
0.00382541
-0.000234316
0.00381139
-0.000253663
0.00379745
-0.00027237
0.00378361
-0.000290453
0.00376989
-0.000307928
0.00375631
-0.000324817
0.00374288
-0.00034114
0.0037296
-0.000356922
0.00371648
-0.000372186
0.00370354
-0.00038696
0.00369077
-0.000401269
0.00367817
-0.000415144
0.00366576
-0.000428613
0.00365353
-0.000441708
0.00364147
-0.00045446
0.0036296
-0.000466903
0.00361791
-0.000479072
0.00360639
-0.000491002
0.00359505
-0.000502732
0.00358388
-0.000514299
0.00357289
-0.000525745
0.00356206
-0.00053711
0.00355139
-0.000548436
0.00354089
-0.000559767
0.00353054
-0.000571147
0.00352034
-0.000582619
0.00351029
-0.000594227
0.00350037
-0.000606016
0.0034906
-0.000618028
0.00348095
-0.000630305
0.00347143
-0.000642886
0.00346202
-0.000655808
-0.000669104
0.00412897
0.00014472
-0.00413632
0.00412105
0.000122259
0.00411253
9.9272e-05
0.00410336
7.58726e-05
0.0040935
5.20293e-05
0.00408295
2.79156e-05
0.00407176
3.68752e-06
0.00405998
-2.05049e-05
0.00404768
-4.45232e-05
0.00403495
-6.82489e-05
0.00402185
-9.15853e-05
0.00400847
-0.000114456
0.00399486
-0.000136805
0.00398108
-0.00015859
0.0039672
-0.000179784
0.00395325
-0.00020037
0.00393927
-0.000220342
0.00392531
-0.000239698
0.00391138
-0.000258444
0.00389752
-0.00027659
0.00388374
-0.00029415
0.00387007
-0.000311141
0.00385651
-0.00032758
0.00384307
-0.000343489
0.00382978
-0.000358891
0.00381663
-0.00037381
0.00380363
-0.000388271
0.00379079
-0.000402301
0.0037781
-0.00041593
0.00376558
-0.000429187
0.00375322
-0.000442102
0.00374103
-0.000454709
0.003729
-0.000467042
0.00371714
-0.000479136
0.00370543
-0.000491028
0.00369389
-0.000502756
0.0036825
-0.00051436
0.00367128
-0.00052588
0.0036602
-0.000537359
0.00364927
-0.000548839
0.00363849
-0.000560363
0.00362784
-0.000571975
0.00361733
-0.000583719
0.00360696
-0.000595638
0.0035967
-0.000607776
0.00358657
-0.000620172
0.00357655
-0.000632868
0.00356664
-0.000645898
-0.000659297
0.00423793
0.000151594
-0.0042448
0.0042305
0.000129682
0.00422251
0.000107269
0.00421388
8.4502e-05
0.00420458
6.13295e-05
0.00419461
3.78865e-05
0.00418399
1.43044e-05
0.00417277
-9.2874e-06
0.00416101
-3.2764e-05
0.00414878
-5.60144e-05
0.00413614
-7.89443e-05
0.00412316
-0.000101476
0.0041099
-0.00012355
0.00409643
-0.000145119
0.0040828
-0.000166151
0.00406905
-0.000186622
0.00405523
-0.000206521
0.00404137
-0.000225841
0.00402751
-0.000244583
0.00401367
-0.000262752
0.00399988
-0.000280358
0.00398615
-0.000297414
0.00397251
-0.000313936
0.00395896
-0.000329942
0.00394553
-0.000345453
0.00393221
-0.00036049
0.00391901
-0.000375077
0.00390595
-0.00038924
0.00389303
-0.000403007
0.00388024
-0.000416405
0.00386761
-0.000429465
0.00385512
-0.000442218
0.00384277
-0.000454698
0.00383057
-0.000466939
0.00381852
-0.000478978
0.00380662
-0.000490852
0.00379486
-0.000502601
0.00378324
-0.000514263
0.00377177
-0.000525881
0.00376042
-0.000537497
0.00374921
-0.000549153
0.00373813
-0.000560894
0.00372718
-0.000572761
0.00371634
-0.0005848
0.00370561
-0.000597051
0.003695
-0.000609556
0.00368448
-0.000622354
0.00367407
-0.000635482
-0.000648972
0.00434854
0.000157963
-0.00435491
0.00434164
0.00013659
0.00433417
0.00011474
0.00432608
9.2584e-05
0.00431735
7.00624e-05
0.00430796
4.72775e-05
0.00429793
2.43387e-05
0.00428728
1.35656e-06
0.00427608
-2.15583e-05
0.00426437
-4.43037e-05
0.00425221
-6.67897e-05
0.00423967
-8.89401e-05
0.00422682
-0.000110692
0.00421369
-0.000131997
0.00420036
-0.000152817
0.00418686
-0.000173125
0.00417325
-0.000192904
0.00415955
-0.000212142
0.0041458
-0.000230835
0.00413203
-0.000248985
0.00411827
-0.000266598
0.00410454
-0.000283683
0.00409086
-0.000300253
0.00407724
-0.000316322
0.0040637
-0.000331911
0.00405024
-0.000347037
0.00403689
-0.000361723
0.00402364
-0.000375994
0.00401051
-0.000389874
0.0039975
-0.000403391
0.00398461
-0.000416574
0.00397184
-0.000429454
0.00395921
-0.000442062
0.0039467
-0.000454433
0.00393432
-0.000466602
0.00392208
-0.000478606
0.00390996
-0.000490483
0.00389797
-0.000502272
0.0038861
-0.000514015
0.00387436
-0.000525753
0.00386273
-0.000537528
0.00385122
-0.000549383
0.00383982
-0.000561362
0.00382853
-0.000573506
0.00381734
-0.000585858
0.00380624
-0.000598459
0.00379523
-0.000611347
0.00378431
-0.000624559
-0.000638128
0.00446082
0.000163802
-0.00446666
0.00445445
0.000142962
0.00444752
0.00012167
0.00443999
0.000100111
0.00443183
7.8224e-05
0.00442302
5.60852e-05
0.00441358
3.3785e-05
0.00440352
1.14173e-05
0.00439288
-1.09212e-05
0.00438171
-3.31379e-05
0.00437007
-5.51487e-05
0.00435801
-7.68799e-05
0.00434559
-9.8269e-05
0.00433286
-0.000119265
0.00431987
-0.000139827
0.00430667
-0.000159925
0.0042933
-0.000179537
0.00427981
-0.000198647
0.00426622
-0.000217248
0.00425257
-0.000235337
0.00423889
-0.000252916
0.0042252
-0.000269992
0.00421152
-0.000286573
0.00419787
-0.000302672
0.00418426
-0.000318306
0.00417072
-0.000333491
0.00415724
-0.000348247
0.00414385
-0.000362598
0.00413054
-0.000376566
0.00411732
-0.000390178
0.00410421
-0.000403461
0.0040912
-0.000416445
0.0040783
-0.000429161
0.00406551
-0.000441641
0.00405283
-0.000453921
0.00404026
-0.000466037
0.0040278
-0.000478025
0.00401545
-0.000489925
0.00400321
-0.000501776
0.00399108
-0.00051362
0.00397905
-0.000525499
0.00396712
-0.000537454
0.00395529
-0.000549529
0.00394355
-0.000561765
0.0039319
-0.000574204
0.00392032
-0.000586887
0.00390883
-0.000599851
0.0038974
-0.000613133
-0.000626766
0.00457477
0.000169088
-0.00458006
0.00456895
0.00014878
0.00456258
0.000128045
0.00455561
0.000107074
0.00454803
8.58087e-05
0.00453981
6.43052e-05
0.00453096
4.26383e-05
0.00452149
2.0887e-05
0.00451143
-8.64862e-07
0.00450083
-2.25344e-05
0.00448972
-4.4044e-05
0.00447817
-6.53238e-05
0.00446621
-8.63127e-05
0.0044539
-0.000106959
0.0044413
-0.000127221
0.00442844
-0.000147065
0.00441537
-0.000166466
0.00440212
-0.000185404
0.00438874
-0.00020387
0.00437526
-0.000221855
0.00436171
-0.00023936
0.0043481
-0.000256386
0.00433447
-0.000272941
0.00432083
-0.000289034
0.0043072
-0.000304679
0.0042936
-0.00031989
0.00428004
-0.000334687
0.00426653
-0.000349088
0.00425308
-0.000363117
0.0042397
-0.000376797
0.0042264
-0.000390155
0.00421317
-0.00040322
0.00420003
-0.000416021
0.00418698
-0.00042859
0.00417402
-0.000440961
0.00416115
-0.000453168
0.00414838
-0.000465248
0.00413569
-0.00047724
0.0041231
-0.000489182
0.00411059
-0.000501116
0.00409818
-0.000513081
0.00408584
-0.00052512
0.00407359
-0.000537275
0.00406141
-0.000549587
0.0040493
-0.000562097
0.00403726
-0.000574846
0.00402528
-0.000587871
0.00401336
-0.000601208
-0.00061489
0.0046904
0.000173798
-0.00469511
0.00468515
0.000154025
0.00467935
0.00013385
0.00467296
0.000113462
0.00466596
9.28095e-05
0.00465833
7.19327e-05
0.00465007
5.08936e-05
0.0046412
2.97588e-05
0.00463174
8.60071e-06
0.00462171
-1.25073e-05
0.00461116
-3.34946e-05
0.00460013
-5.42957e-05
0.00458867
-7.48521e-05
0.00457682
-9.51129e-05
0.00456464
-0.000115035
0.00455216
-0.000134584
0.00453942
-0.000153731
0.00452647
-0.000172456
0.00451335
-0.000190743
0.00450008
-0.000208584
0.00448669
-0.000225973
0.00447321
-0.000242911
0.00445967
-0.000259402
0.00444609
-0.000275452
0.00443249
-0.000291073
0.00441887
-0.000306278
0.00440527
-0.000321081
0.00439168
-0.000335503
0.00437813
-0.000349563
0.00436462
-0.000363284
0.00435115
-0.000376691
0.00433774
-0.000389811
0.0043244
-0.000402673
0.00431111
-0.000415307
0.0042979
-0.000427746
0.00428475
-0.000440023
0.00427168
-0.000452175
0.00425868
-0.000464239
0.00424575
-0.000476253
0.00423289
-0.000488257
0.0042201
-0.000500291
0.00420738
-0.000512395
0.00419472
-0.000524613
0.00418211
-0.000536983
0.00416956
-0.000549548
0.00415706
-0.000562346
0.00414461
-0.000575414
0.00413219
-0.00058879
-0.000602505
0.00480772
0.00017791
-0.00481183
0.00480306
0.00015868
0.00479784
0.000139071
0.00479204
0.000119264
0.00478563
9.92183e-05
0.0047786
7.89617e-05
0.00477095
5.85458e-05
0.00476268
3.80269e-05
0.00475381
1.74673e-05
0.00474437
-3.06826e-06
0.0047344
-2.3516e-05
0.00472392
-4.38156e-05
0.00471298
-6.39114e-05
0.00470162
-8.37543e-05
0.00468988
-0.000103302
0.00467782
-0.000122517
0.00466546
-0.000141371
0.00465284
-0.000159842
0.00464001
-0.00017791
0.00462699
-0.000195565
0.00461382
-0.000212799
0.00460051
-0.00022961
0.00458711
-0.000245998
0.00457363
-0.000261969
0.00456008
-0.00027753
0.0045465
-0.000292693
0.00453289
-0.000307471
0.00451927
-0.000321882
0.00450565
-0.000335942
0.00449204
-0.000349675
0.00447845
-0.000363103
0.00446489
-0.000376251
0.00445137
-0.000389148
0.00443788
-0.000401822
0.00442444
-0.000414305
0.00441105
-0.00042663
0.0043977
-0.000438831
0.00438441
-0.000450946
0.00437117
-0.00046301
0.00435797
-0.000475064
0.00434483
-0.000487146
0.00433173
-0.000499298
0.00431868
-0.000511558
0.00430566
-0.000523969
0.00429268
-0.000536569
0.00427974
-0.000549397
0.00426681
-0.000562492
0.00425391
-0.000575888
-0.000589617
0.00492675
0.000181405
-0.00493025
0.0049227
0.000162728
0.00491808
0.000143692
0.00491288
0.000124469
0.00490707
0.000105027
0.00490064
8.53859e-05
0.0048936
6.55896e-05
0.00488594
4.56858e-05
0.00487768
2.5728e-05
0.00486884
5.7733e-06
0.00485944
-1.41211e-05
0.00484953
-3.39e-05
0.00483913
-5.35113e-05
0.00482828
-7.2908e-05
0.00481703
-9.20482e-05
0.00480541
-0.000110896
0.00479346
-0.000129421
0.00478121
-0.000147598
0.00476871
-0.000165409
0.00475599
-0.00018284
0.00474307
-0.000199879
0.00472998
-0.000216524
0.00471676
-0.000232772
0.00470341
-0.000248626
0.00468998
-0.000264091
0.00467646
-0.000279178
0.00466289
-0.000293897
0.00464927
-0.000308263
0.00463562
-0.000322293
0.00462195
-0.000336006
0.00460827
-0.000349426
0.00459459
-0.000362574
0.00458092
-0.000375478
0.00456727
-0.000388166
0.00455363
-0.000400668
0.00454002
-0.000413016
0.00452643
-0.000425243
0.00451287
-0.000437385
0.00449933
-0.000449478
0.00448583
-0.00046156
0.00447235
-0.000473669
0.0044589
-0.000485846
0.00444547
-0.000498129
0.00443206
-0.000510559
0.00441867
-0.000523175
0.00440529
-0.000536015
0.00439191
-0.000549115
0.00437853
-0.000562512
-0.000576235
0.00504753
0.000184268
-0.00505039
0.0050441
0.000166153
0.00504009
0.0001477
0.0050355
0.000129065
0.0050303
0.000110226
0.00502449
9.11986e-05
0.00501806
7.20197e-05
0.00501101
5.27303e-05
0.00500336
3.33769e-05
0.00499513
1.40096e-05
0.00498632
-5.3203e-06
0.00497699
-2.45625e-05
0.00496714
-4.36688e-05
0.00495683
-6.25946e-05
0.00494608
-8.12996e-05
0.00493494
-9.97484e-05
0.00492342
-0.00011791
0.00491159
-0.00013576
0.00489945
-0.000153277
0.00488706
-0.000170445
0.00487443
-0.000187253
0.0048616
-0.000203693
0.00484859
-0.000219763
0.00483543
-0.000235464
0.00482214
-0.000250797
0.00480873
-0.000265772
0.00479523
-0.000280397
0.00478165
-0.000294685
0.00476801
-0.000308652
0.00475432
-0.000322315
0.00474059
-0.000335695
0.00472683
-0.000348815
0.00471305
-0.000361698
0.00469926
-0.000374372
0.00468545
-0.000386866
0.00467165
-0.000399211
0.00465784
-0.000411438
0.00464404
-0.000423583
0.00463024
-0.00043568
0.00461645
-0.000447767
0.00460266
-0.000459881
0.00458888
-0.00047206
0.00457509
-0.000484345
0.00456131
-0.000496773
0.00454752
-0.000509383
0.00453371
-0.000522212
0.0045199
-0.000535298
0.00450606
-0.000548674
-0.000562372
0.00517007
0.000186483
-0.00517229
0.00516729
0.000168943
0.0051639
0.000151082
0.00515993
0.00013304
0.00515535
0.000114807
0.00515015
9.6393e-05
0.00514434
7.78306e-05
0.00513792
5.91557e-05
0.00513088
4.04089e-05
0.00512326
2.16345e-05
0.00511506
2.87823e-06
0.00510631
-1.5814e-05
0.00509704
-3.43978e-05
0.00508728
-5.28314e-05
0.00507705
-7.10763e-05
0.0050664
-8.90981e-05
0.00505536
-0.000106866
0.00504396
-0.000124355
0.00503222
-0.000141544
0.00502019
-0.000158414
0.00500789
-0.000174954
0.00499535
-0.000191154
0.0049826
-0.00020701
0.00496966
-0.000222521
0.00495655
-0.000237687
0.00494329
-0.000252514
0.0049299
-0.00026701
0.00491641
-0.000281187
0.00490281
-0.000295058
0.00488914
-0.000308639
0.00487539
-0.000321948
0.00486158
-0.000335008
0.00484773
-0.000347841
0.00483383
-0.000360473
0.00481989
-0.000372931
0.00480592
-0.000385245
0.00479193
-0.000397447
0.00477792
-0.000409568
0.00476388
-0.000421645
0.00474983
-0.000433711
0.00473575
-0.000445805
0.00472166
-0.000457964
0.00470754
-0.000470226
0.00469339
-0.000482629
0.00467922
-0.00049521
0.00466502
-0.000508008
0.00465077
-0.000521056
0.00463649
-0.000534389
-0.000548038
0.00529444
0.000188039
-0.005296
0.0052923
0.000171085
0.00528955
0.000153827
0.00528621
0.000136387
0.00528225
0.000118762
0.00527768
0.000100963
0.00527249
8.30174e-05
0.00526669
6.49577e-05
0.00526028
4.68197e-05
0.00525327
2.86428e-05
0.00524568
1.0468e-05
0.00523753
-7.66307e-06
0.00522884
-2.57095e-05
0.00521964
-4.36324e-05
0.00520996
-6.13953e-05
0.00519983
-7.8965e-05
0.00518928
-9.6312e-05
0.00517833
-0.00011341
0.00516703
-0.000130238
0.00515539
-0.000146778
0.00514345
-0.000163016
0.00513124
-0.000178942
0.00511878
-0.000194548
0.00510609
-0.000209833
0.0050932
-0.000224796
0.00508013
-0.000239442
0.00506689
-0.000253775
0.00505351
-0.000267807
0.00504
-0.000281548
0.00502638
-0.000295013
0.00501265
-0.000308221
0.00499883
-0.00032119
0.00498493
-0.000333942
0.00497096
-0.000346502
0.00495692
-0.000358895
0.00494283
-0.000371151
0.00492868
-0.000383298
0.00491448
-0.00039537
0.00490024
-0.000407399
0.00488594
-0.00041942
0.00487161
-0.000431469
0.00485722
-0.000443582
0.00484279
-0.000455796
0.00482832
-0.000468149
0.00481378
-0.000480678
0.00479919
-0.000493419
0.00478454
-0.000506406
0.00476983
-0.000519673
-0.00053325
0.00542067
0.000188929
-0.00542156
0.00541918
0.000172573
0.00541708
0.000155927
0.00541437
0.000139096
0.00541105
0.000122084
0.00540711
0.000104902
0.00540255
8.75756e-05
0.00539738
7.01327e-05
0.00539159
5.26059e-05
0.0053852
3.50307e-05
0.00537823
1.7444e-05
0.00537068
-1.16236e-07
0.00536259
-1.76125e-05
0.00535396
-3.50086e-05
0.00534484
-5.22703e-05
0.00533524
-6.93658e-05
0.00532519
-8.62666e-05
0.00531473
-0.000102947
0.00530388
-0.000119386
0.00529266
-0.000135564
0.00528111
-0.000151468
0.00526926
-0.000167085
0.00525712
-0.000182409
0.00524472
-0.000197434
0.00523208
-0.000212161
0.00521923
-0.00022659
0.00520618
-0.000240726
0.00519295
-0.000254579
0.00517956
-0.000268157
0.00516603
-0.000281475
0.00515235
-0.000294548
0.00513856
-0.000307394
0.00512465
-0.000320035
0.00511064
-0.000332492
0.00509654
-0.000344791
0.00508234
-0.000356959
0.00506807
-0.000369024
0.00505372
-0.000381018
0.00503929
-0.000392972
0.00502479
-0.00040492
0.00501022
-0.000416896
0.00499557
-0.000428938
0.00498086
-0.000441079
0.00496606
-0.000453357
0.00495119
-0.000465808
0.00493624
-0.000478467
0.0049212
-0.000491368
0.00490607
-0.000504544
-0.000518024
0.00554883
0.000189147
-0.00554904
0.005548
0.0001734
0.00554655
0.000157376
0.00554449
0.000141161
0.0055418
0.000124768
0.0055385
0.000108207
0.00553457
9.15015e-05
0.00553003
7.46776e-05
0.00552487
5.7765e-05
0.0055191
4.07955e-05
0.00551274
2.38029e-05
0.00550581
6.82194e-06
0.00549831
-1.01131e-05
0.00549027
-2.69684e-05
0.00548171
-4.37119e-05
0.00547266
-6.03135e-05
0.00546313
-7.67458e-05
0.00545317
-9.2984e-05
0.00544279
-0.000109007
0.00543202
-0.000124795
0.00542089
-0.000140334
0.00540942
-0.000155613
0.00539763
-0.000170621
0.00538555
-0.000185355
0.0053732
-0.000199811
0.0053606
-0.000213991
0.00534777
-0.000227897
0.00533473
-0.000241537
0.00532149
-0.00025492
0.00530808
-0.000268057
0.00529449
-0.000280964
0.00528075
-0.000293656
0.00526687
-0.000306153
0.00525286
-0.000318477
0.00523872
-0.000330651
0.00522446
-0.000342701
0.00521009
-0.000354654
0.00519561
-0.000366541
0.00518103
-0.000378392
0.00516635
-0.000390239
0.00515157
-0.000402116
0.00513669
-0.000414058
0.00512171
-0.0004261
0.00510663
-0.000438276
0.00509145
-0.000450622
0.00507615
-0.000463173
0.00506074
-0.000475961
0.00504522
-0.00048902
-0.000502377
0.00567898
0.000188692
-0.00567852
0.00567881
0.000173563
0.00567802
0.000158169
0.0056766
0.000142579
0.00567456
0.00012681
0.00567189
0.000110874
0.0056686
9.47928e-05
0.00566469
7.85908e-05
0.00566016
6.22953e-05
0.00565502
4.59357e-05
0.00564928
2.95429e-05
0.00564295
1.31486e-05
0.00563606
-3.21523e-06
0.0056286
-1.95174e-05
0.00562062
-3.57279e-05
0.00561213
-5.18181e-05
0.00560314
-6.7762e-05
0.00559369
-8.35355e-05
0.0055838
-9.91176e-05
0.0055735
-0.00011449
0.0055628
-0.000129637
0.00555174
-0.000144547
0.00554033
-0.000159211
0.00552859
-0.000173621
0.00551656
-0.000187776
0.00550424
-0.000201674
0.00549166
-0.000215318
0.00547884
-0.000228713
0.00546579
-0.000241868
0.00545252
-0.000254793
0.00543906
-0.0002675
0.00542541
-0.000280006
0.00541158
-0.000292329
0.0053976
-0.000304488
0.00538345
-0.000316507
0.00536916
-0.000328409
0.00535473
-0.000340221
0.00534016
-0.000351971
0.00532545
-0.000363689
0.00531062
-0.000375407
0.00529566
-0.000387156
0.00528057
-0.00039897
0.00526536
-0.000410884
0.00525001
-0.00042293
0.00523453
-0.000435144
0.00521892
-0.00044756
0.00520317
-0.000460208
0.00518727
-0.000473122
-0.000486328
0.0058112
0.000187565
-0.00581008
0.0058117
0.000173063
0.00581157
0.000158306
0.0058108
0.000143347
0.0058094
0.000128208
0.00580737
0.000112902
0.00580472
9.74485e-05
0.00580144
8.18716e-05
0.00579753
6.61968e-05
0.00579302
5.04512e-05
0.0057879
3.46634e-05
0.00578218
1.88628e-05
0.00577589
3.07884e-06
0.00576903
-1.26593e-05
0.00576163
-2.83234e-05
0.0057537
-4.38867e-05
0.00574526
-5.93242e-05
0.00573634
-7.46129e-05
0.00572695
-8.97324e-05
0.00571712
-0.000104665
0.00570688
-0.000119394
0.00569624
-0.000133909
0.00568523
-0.000148199
0.00567387
-0.000162257
0.00566217
-0.00017608
0.00565016
-0.000189666
0.00563786
-0.000203016
0.00562529
-0.000216136
0.00561245
-0.000229031
0.00559937
-0.000241711
0.00558605
-0.000254188
0.00557252
-0.000266476
0.00555879
-0.000278593
0.00554486
-0.000290557
0.00553074
-0.000302389
0.00551644
-0.000314112
0.00550197
-0.000325752
0.00548734
-0.000337336
0.00547254
-0.000348892
0.00545759
-0.000360451
0.00544247
-0.000372043
0.0054272
-0.000383701
0.00541178
-0.000395457
0.00539619
-0.000407346
0.00538045
-0.000419399
0.00536454
-0.000431651
0.00534846
-0.000444131
0.00533221
-0.000456872
-0.000469899
0.0059456
0.000185772