/*--------------------------------*- C++ -*----------------------------------*\
  =========                 |
  \\      /  F ield         | OpenFOAM: The Open Source CFD Toolbox
   \\    /   O peration     | Website:  https://openfoam.org
    \\  /    A nd           | Version:  7
     \\/     M anipulation  |
\*---------------------------------------------------------------------------*/
FoamFile
{
    version     2.0;
    format      ascii;
    class       volVectorField;
    location    "10";
    object      U;
}
// * * * * * * * * * * * * * * * * * * * * * * * * * * * * * * * * * * * * * //

dimensions      [0 1 -1 0 0 0 0];

internalField   nonuniform List<vector> 
2625
(
(1.09859 -0.0475249 0)
(1.09417 -0.0475892 0)
(1.08973 -0.0475459 0)
(1.08528 -0.0473848 0)
(1.08082 -0.0470966 0)
(1.07637 -0.0466725 0)
(1.07195 -0.046105 0)
(1.06757 -0.0453882 0)
(1.06324 -0.0445179 0)
(1.05897 -0.0434922 0)
(1.0548 -0.0423115 0)
(1.05072 -0.0409792 0)
(1.04676 -0.0395016 0)
(1.04292 -0.037888 0)
(1.03924 -0.0361511 0)
(1.03571 -0.0343063 0)
(1.03235 -0.0323716 0)
(1.02917 -0.0303678 0)
(1.02618 -0.0283168 0)
(1.02338 -0.0262422 0)
(1.02078 -0.0241671 0)
(1.01838 -0.0221154 0)
(1.01617 -0.0201079 0)
(1.01417 -0.0181668 0)
(1.01235 -0.0163063 0)
(1.01071 -0.0145467 0)
(1.00925 -0.012891 0)
(1.00795 -0.0113605 0)
(1.0068 -0.00994023 0)
(1.00581 -0.00866266 0)
(1.00491 -0.00748022 0)
(1.00418 -0.00646069 0)
(1.00348 -0.00549158 0)
(1.00299 -0.00472792 0)
(1.00241 -0.00392066 0)
(1.00215 -0.00341987 0)
(1.00159 -0.00268155 0)
(1.15624 -0.039993 0)
(1.15268 -0.0406129 0)
(1.14905 -0.0412351 0)
(1.14534 -0.0418557 0)
(1.14156 -0.0424703 0)
(1.1377 -0.0430739 0)
(1.13377 -0.0436606 0)
(1.12976 -0.044224 0)
(1.12569 -0.0447569 0)
(1.12155 -0.0452514 0)
(1.11734 -0.0456991 0)
(1.11307 -0.0460908 0)
(1.10874 -0.0464171 0)
(1.10436 -0.0466679 0)
(1.09994 -0.0468332 0)
(1.09548 -0.0469026 0)
(1.091 -0.0468659 0)
(1.0865 -0.046713 0)
(1.082 -0.0464346 0)
(1.07751 -0.0460221 0)
(1.07304 -0.045468 0)
(1.0686 -0.0447665 0)
(1.06422 -0.0439133 0)
(1.05991 -0.0429064 0)
(1.05568 -0.0417464 0)
(1.05155 -0.0404364 0)
(1.04754 -0.0389826 0)
(1.04365 -0.0373943 0)
(1.03991 -0.0356837 0)
(1.03634 -0.0338662 0)
(1.03293 -0.0319596 0)
(1.0297 -0.0299843 0)
(1.02666 -0.027962 0)
(1.02382 -0.0259159 0)
(1.02118 -0.0238689 0)
(1.01874 -0.0218447 0)
(1.0165 -0.0198636 0)
(1.01446 -0.0179479 0)
(1.0126 -0.0161115 0)
(1.01094 -0.0143743 0)
(1.00945 -0.0127395 0)
(1.00813 -0.0112281 0)
(1.00695 -0.00982548 0)
(1.00594 -0.00856342 0)
(1.00503 -0.00739547 0)
(1.00428 -0.00638787 0)
(1.00357 -0.00543065 0)
(1.00306 -0.00467529 0)
(1.00247 -0.00387831 0)
(1.00221 -0.00338184 0)
(1.00163 -0.0026532 0)
(1.15789 -0.0393159 0)
(1.15431 -0.0399316 0)
(1.15067 -0.0405495 0)
(1.14694 -0.0411659 0)
(1.14315 -0.0417765 0)
(1.13927 -0.0423764 0)
(1.13532 -0.0429597 0)
(1.1313 -0.0435202 0)
(1.1272 -0.0440506 0)
(1.12303 -0.0445434 0)
(1.11879 -0.0449901 0)
(1.11449 -0.0453818 0)
(1.11013 -0.0457091 0)
(1.10572 -0.0459621 0)
(1.10126 -0.0461309 0)
(1.09677 -0.0462052 0)
(1.09224 -0.0461748 0)
(1.0877 -0.0460299 0)
(1.08316 -0.0457613 0)
(1.07862 -0.0453604 0)
(1.07411 -0.0448197 0)
(1.06963 -0.0441335 0)
(1.0652 -0.0432974 0)
(1.06083 -0.0423096 0)
(1.05655 -0.0411704 0)
(1.05237 -0.0398829 0)
(1.04831 -0.0384532 0)
(1.04437 -0.0368904 0)
(1.04059 -0.0352066 0)
(1.03696 -0.0334169 0)
(1.0335 -0.0315388 0)
(1.03023 -0.0295924 0)
(1.02715 -0.0275992 0)
(1.02426 -0.0255822 0)
(1.02158 -0.0235638 0)
(1.0191 -0.0215675 0)
(1.01682 -0.0196136 0)
(1.01474 -0.0177237 0)
(1.01286 -0.0159118 0)
(1.01117 -0.0141975 0)
(1.00965 -0.0125842 0)
(1.00831 -0.0110923 0)
(1.00711 -0.00970767 0)
(1.00608 -0.00846148 0)
(1.00514 -0.00730838 0)
(1.00438 -0.00631299 0)
(1.00365 -0.00536796 0)
(1.00314 -0.00462112 0)
(1.00253 -0.00383466 0)
(1.00226 -0.00334269 0)
(1.00167 -0.00262395 0)
(1.15949 -0.0386325 0)
(1.15591 -0.0392435 0)
(1.15225 -0.0398568 0)
(1.14851 -0.0404688 0)
(1.1447 -0.0410751 0)
(1.14081 -0.0416709 0)
(1.13684 -0.0422505 0)
(1.1328 -0.0428076 0)
(1.12867 -0.0433354 0)
(1.12448 -0.0438261 0)
(1.12022 -0.0442716 0)
(1.11589 -0.044663 0)
(1.1115 -0.044991 0)
(1.10705 -0.045246 0)
(1.10256 -0.045418 0)
(1.09803 -0.0454969 0)
(1.09347 -0.0454728 0)
(1.08889 -0.0453358 0)
(1.0843 -0.0450768 0)
(1.07972 -0.0446874 0)
(1.07516 -0.0441602 0)
(1.07063 -0.0434892 0)
(1.06616 -0.0426704 0)
(1.06174 -0.0417018 0)
(1.05741 -0.0405835 0)
(1.05318 -0.0393188 0)
(1.04907 -0.0379135 0)
(1.04509 -0.0363766 0)
(1.04125 -0.0347198 0)
(1.03757 -0.0329582 0)
(1.03407 -0.0311091 0)
(1.03075 -0.0291921 0)
(1.02762 -0.0272286 0)
(1.0247 -0.0252411 0)
(1.02197 -0.0232518 0)
(1.01945 -0.0212841 0)
(1.01714 -0.0193577 0)
(1.01503 -0.0174941 0)
(1.01311 -0.0157072 0)
(1.01139 -0.0140164 0)
(1.00985 -0.0124249 0)
(1.00848 -0.0109529 0)
(1.00726 -0.0095868 0)
(1.00621 -0.00835683 0)
(1.00526 -0.00721893 0)
(1.00448 -0.00623605 0)
(1.00374 -0.0053035 0)
(1.00321 -0.00456542 0)
(1.00259 -0.00378971 0)
(1.00232 -0.00330244 0)
(1.00171 -0.00259381 0)
(1.16105 -0.0379429 0)
(1.15746 -0.038549 0)
(1.15379 -0.0391573 0)
(1.15004 -0.0397644 0)
(1.14622 -0.0403661 0)
(1.14231 -0.0409574 0)
(1.13833 -0.041533 0)
(1.13426 -0.0420865 0)
(1.13012 -0.0426113 0)
(1.12591 -0.0430996 0)
(1.12162 -0.0435436 0)
(1.11726 -0.0439344 0)
(1.11284 -0.0442629 0)
(1.10837 -0.0445195 0)
(1.10384 -0.0446946 0)
(1.09927 -0.044778 0)
(1.09468 -0.0447599 0)
(1.09006 -0.0446307 0)
(1.08543 -0.0443813 0)
(1.08081 -0.0440033 0)
(1.0762 -0.0434894 0)
(1.07163 -0.0428338 0)
(1.0671 -0.0420323 0)
(1.06264 -0.0410829 0)
(1.05827 -0.0399858 0)
(1.05399 -0.0387441 0)
(1.04982 -0.0373634 0)
(1.04579 -0.0358526 0)
(1.04191 -0.0342234 0)
(1.03818 -0.0324903 0)
(1.03463 -0.0306705 0)
(1.03127 -0.0287834 0)
(1.0281 -0.02685 0)
(1.02513 -0.0248925 0)
(1.02236 -0.022933 0)
(1.01981 -0.0209942 0)
(1.01746 -0.0190959 0)
(1.01531 -0.0172592 0)
(1.01337 -0.0154978 0)
(1.01162 -0.0138308 0)
(1.01004 -0.0122617 0)
(1.00865 -0.0108101 0)
(1.00741 -0.00946282 0)
(1.00634 -0.00824945 0)
(1.00537 -0.00712709 0)
(1.00458 -0.00615703 0)
(1.00382 -0.00523725 0)
(1.00328 -0.00450816 0)
(1.00265 -0.00374345 0)
(1.00237 -0.00326106 0)
(1.00175 -0.00256275 0)
(1.16257 -0.0372472 0)
(1.15897 -0.037848 0)
(1.1553 -0.0384511 0)
(1.15154 -0.039053 0)
(1.1477 -0.0396497 0)
(1.14378 -0.0402363 0)
(1.13978 -0.0408074 0)
(1.1357 -0.0413571 0)
(1.13154 -0.0418784 0)
(1.1273 -0.0423642 0)
(1.12299 -0.0428062 0)
(1.11861 -0.0431962 0)
(1.11416 -0.0435249 0)
(1.10965 -0.043783 0)
(1.1051 -0.0439608 0)
(1.1005 -0.0440485 0)
(1.09586 -0.0440363 0)
(1.09121 -0.0439147 0)
(1.08654 -0.0436747 0)
(1.08187 -0.043308 0)
(1.07722 -0.0428074 0)
(1.07261 -0.0421672 0)
(1.06804 -0.0413831 0)
(1.06353 -0.040453 0)
(1.05911 -0.0393773 0)
(1.05478 -0.0381587 0)
(1.05057 -0.0368029 0)
(1.04649 -0.0353186 0)
(1.04256 -0.0337172 0)
(1.03878 -0.032013 0)
(1.03519 -0.030223 0)
(1.03178 -0.0283663 0)
(1.02856 -0.0264634 0)
(1.02555 -0.0245365 0)
(1.02275 -0.0226072 0)
(1.02016 -0.0206979 0)
(1.01777 -0.0188282 0)
(1.01559 -0.0170189 0)
(1.01362 -0.0152836 0)
(1.01184 -0.0136409 0)
(1.01024 -0.0120946 0)
(1.00882 -0.0106637 0)
(1.00756 -0.00933573 0)
(1.00647 -0.00813933 0)
(1.00548 -0.00703286 0)
(1.00468 -0.00607592 0)
(1.0039 -0.00516921 0)
(1.00335 -0.00444934 0)
(1.00271 -0.00369586 0)
(1.00242 -0.00321855 0)
(1.00179 -0.00253078 0)
(1.16405 -0.0365456 0)
(1.16045 -0.0371408 0)
(1.15676 -0.0377383 0)
(1.153 -0.0383347 0)
(1.14915 -0.038926 0)
(1.14522 -0.0395075 0)
(1.1412 -0.0400739 0)
(1.1371 -0.0406193 0)
(1.13292 -0.041137 0)
(1.12866 -0.0416198 0)
(1.12433 -0.0420597 0)
(1.11992 -0.0424484 0)
(1.11545 -0.0427771 0)
(1.11092 -0.0430363 0)
(1.10633 -0.0432167 0)
(1.1017 -0.0433084 0)
(1.09703 -0.0433019 0)
(1.09233 -0.0431878 0)
(1.08763 -0.0429571 0)
(1.08292 -0.0426017 0)
(1.07823 -0.0421144 0)
(1.07357 -0.0414895 0)
(1.06896 -0.0407228 0)
(1.06441 -0.0398122 0)
(1.05993 -0.0387579 0)
(1.05556 -0.0375627 0)
(1.0513 -0.0362321 0)
(1.04718 -0.0347745 0)
(1.0432 -0.0332012 0)
(1.03938 -0.0315264 0)
(1.03574 -0.0297666 0)
(1.03228 -0.0279407 0)
(1.02903 -0.026069 0)
(1.02598 -0.0241731 0)
(1.02313 -0.0222745 0)
(1.0205 -0.0203953 0)
(1.01808 -0.0185546 0)
(1.01587 -0.0167732 0)
(1.01386 -0.0150644 0)
(1.01206 -0.0134466 0)
(1.01043 -0.0119235 0)
(1.009 -0.0105139 0)
(1.00771 -0.00920552 0)
(1.0066 -0.00802646 0)
(1.00559 -0.00693623 0)
(1.00477 -0.0059927 0)
(1.00398 -0.00509935 0)
(1.00343 -0.00438896 0)
(1.00277 -0.00364694 0)
(1.00248 -0.00317491 0)
(1.00183 -0.00249789 0)
(1.16549 -0.0358383 0)
(1.16189 -0.0364275 0)
(1.15819 -0.037019 0)
(1.15442 -0.0376096 0)
(1.15056 -0.0381952 0)
(1.14662 -0.0387713 0)
(1.14259 -0.0393326 0)
(1.13847 -0.0398734 0)
(1.13428 -0.0403871 0)
(1.13 -0.0408666 0)
(1.12564 -0.0413041 0)
(1.12121 -0.0416913 0)
(1.11672 -0.0420196 0)
(1.11215 -0.0422798 0)
(1.10754 -0.0424624 0)
(1.10287 -0.0425579 0)
(1.09817 -0.0425569 0)
(1.09344 -0.0424501 0)
(1.0887 -0.0422286 0)
(1.08395 -0.0418843 0)
(1.07922 -0.0414103 0)
(1.07452 -0.0408007 0)
(1.06986 -0.0400514 0)
(1.06527 -0.0391604 0)
(1.06075 -0.0381278 0)
(1.05633 -0.0369561 0)
(1.05203 -0.0356509 0)
(1.04785 -0.0342204 0)
(1.04383 -0.0326756 0)
(1.03997 -0.0310305 0)
(1.03628 -0.0293013 0)
(1.03278 -0.0275067 0)
(1.02949 -0.0256665 0)
(1.02639 -0.0238022 0)
(1.02351 -0.0219348 0)
(1.02085 -0.0200861 0)
(1.01839 -0.0182751 0)
(1.01615 -0.0165221 0)
(1.01411 -0.0148403 0)
(1.01228 -0.0132478 0)
(1.01062 -0.0117484 0)
(1.00916 -0.0103604 0)
(1.00785 -0.00907217 0)
(1.00673 -0.00791081 0)
(1.0057 -0.00683717 0)
(1.00487 -0.00590737 0)
(1.00406 -0.00502768 0)
(1.0035 -0.004327 0)
(1.00282 -0.00359668 0)
(1.00253 -0.00313012 0)
(1.00187 -0.00246407 0)
(1.16689 -0.0351254 0)
(1.16328 -0.0357083 0)
(1.15959 -0.0362935 0)
(1.15581 -0.0368778 0)
(1.15194 -0.0374574 0)
(1.14798 -0.0380277 0)
(1.14394 -0.0385837 0)
(1.13981 -0.0391196 0)
(1.1356 -0.0396289 0)
(1.1313 -0.0401048 0)
(1.12693 -0.0405395 0)
(1.12248 -0.0409249 0)
(1.11795 -0.0412526 0)
(1.11337 -0.0415133 0)
(1.10872 -0.041698 0)
(1.10403 -0.0417972 0)
(1.09929 -0.0418014 0)
(1.09453 -0.0417017 0)
(1.08975 -0.0414892 0)
(1.08497 -0.041156 0)
(1.0802 -0.0406952 0)
(1.07545 -0.0401009 0)
(1.07075 -0.0393692 0)
(1.06612 -0.0384978 0)
(1.06156 -0.0374869 0)
(1.05709 -0.036339 0)
(1.05274 -0.0350594 0)
(1.04852 -0.0336562 0)
(1.04445 -0.0321403 0)
(1.04055 -0.0305252 0)
(1.03682 -0.0288271 0)
(1.03328 -0.0270642 0)
(1.02994 -0.0252561 0)
(1.02681 -0.0234238 0)
(1.02389 -0.0215881 0)
(1.02118 -0.0197705 0)
(1.0187 -0.0179897 0)
(1.01642 -0.0162656 0)
(1.01435 -0.0146113 0)
(1.01249 -0.0130446 0)
(1.01081 -0.0115693 0)
(1.00933 -0.0102034 0)
(1.008 -0.00893566 0)
(1.00685 -0.00779238 0)
(1.00581 -0.00673568 0)
(1.00496 -0.00581992 0)
(1.00414 -0.00495417 0)
(1.00357 -0.00426345 0)
(1.00288 -0.00354508 0)
(1.00258 -0.00308418 0)
(1.00191 -0.00242931 0)
(1.16826 -0.034407 0)
(1.16464 -0.0349832 0)
(1.16094 -0.0355618 0)
(1.15715 -0.0361396 0)
(1.15328 -0.0367128 0)
(1.14931 -0.037277 0)
(1.14526 -0.0378273 0)
(1.14112 -0.0383579 0)
(1.13689 -0.0388625 0)
(1.13258 -0.0393344 0)
(1.12818 -0.039766 0)
(1.12371 -0.0401494 0)
(1.11917 -0.0404761 0)
(1.11455 -0.0407372 0)
(1.10988 -0.0409236 0)
(1.10516 -0.0410262 0)
(1.10039 -0.0410355 0)
(1.0956 -0.0409427 0)
(1.09078 -0.0407391 0)
(1.08596 -0.0404169 0)
(1.08116 -0.0399691 0)
(1.07637 -0.0393902 0)
(1.07163 -0.0386759 0)
(1.06695 -0.0378243 0)
(1.06235 -0.0368352 0)
(1.05784 -0.0357113 0)
(1.05345 -0.0344576 0)
(1.04918 -0.033082 0)
(1.04507 -0.0315952 0)
(1.04112 -0.0300107 0)
(1.03735 -0.028344 0)
(1.03377 -0.0266132 0)
(1.03039 -0.0248376 0)
(1.02722 -0.0230379 0)
(1.02426 -0.0212345 0)
(1.02152 -0.0194485 0)
(1.019 -0.0176983 0)
(1.01669 -0.0160036 0)
(1.01459 -0.0143773 0)
(1.0127 -0.0128369 0)
(1.011 -0.0113863 0)
(1.0095 -0.0100429 0)
(1.00814 -0.00879599 0)
(1.00698 -0.00767116 0)
(1.00592 -0.00663175 0)
(1.00506 -0.00573033 0)
(1.00422 -0.00487883 0)
(1.00364 -0.00419831 0)
(1.00294 -0.00349212 0)
(1.00263 -0.00303709 0)
(1.00195 -0.00239361 0)
(1.16958 -0.0336834 0)
(1.16596 -0.0342526 0)
(1.16226 -0.0348242 0)
(1.15847 -0.0353951 0)
(1.15458 -0.0359615 0)
(1.15061 -0.0365193 0)
(1.14655 -0.0370634 0)
(1.14239 -0.0375884 0)
(1.13815 -0.0380881 0)
(1.13382 -0.0385557 0)
(1.12941 -0.0389839 0)
(1.12492 -0.0393649 0)
(1.12035 -0.0396903 0)
(1.11572 -0.0399514 0)
(1.11102 -0.0401394 0)
(1.10627 -0.040245 0)
(1.10147 -0.0402592 0)
(1.09664 -0.0401732 0)
(1.0918 -0.0399783 0)
(1.08694 -0.039667 0)
(1.0821 -0.0392322 0)
(1.07728 -0.0386685 0)
(1.0725 -0.0379718 0)
(1.06777 -0.03714 0)
(1.06313 -0.0361729 0)
(1.05858 -0.0350731 0)
(1.05414 -0.0338454 0)
(1.04984 -0.0324978 0)
(1.04568 -0.0310405 0)
(1.04169 -0.0294867 0)
(1.03787 -0.0278519 0)
(1.03425 -0.0261538 0)
(1.03083 -0.0244112 0)
(1.02762 -0.0226445 0)
(1.02462 -0.0208738 0)
(1.02185 -0.0191199 0)
(1.01929 -0.017401 0)
(1.01696 -0.0157361 0)
(1.01483 -0.0141384 0)
(1.01292 -0.0126247 0)
(1.01119 -0.0111992 0)
(1.00966 -0.0098787 0)
(1.00829 -0.00865313 0)
(1.0071 -0.00754714 0)
(1.00603 -0.00652537 0)
(1.00515 -0.00563861 0)
(1.0043 -0.00480164 0)
(1.00371 -0.00413158 0)
(1.00299 -0.0034378 0)
(1.00268 -0.00298884 0)
(1.00199 -0.00235695 0)
(1.17086 -0.0329546 0)
(1.16724 -0.0335164 0)
(1.16354 -0.0340807 0)
(1.15974 -0.0346443 0)
(1.15585 -0.0352037 0)
(1.15187 -0.0357547 0)
(1.1478 -0.0362924 0)
(1.14364 -0.0368114 0)
(1.13938 -0.0373057 0)
(1.13504 -0.0377687 0)
(1.13061 -0.0381931 0)
(1.1261 -0.0385714 0)
(1.12151 -0.0388952 0)
(1.11685 -0.0391562 0)
(1.11213 -0.0393454 0)
(1.10735 -0.0394538 0)
(1.10253 -0.0394727 0)
(1.09767 -0.0393932 0)
(1.09279 -0.0392069 0)
(1.0879 -0.0389063 0)
(1.08302 -0.0384845 0)
(1.07816 -0.037936 0)
(1.07334 -0.0372569 0)
(1.06858 -0.0364449 0)
(1.0639 -0.0354999 0)
(1.0593 -0.0344244 0)
(1.05482 -0.033223 0)
(1.05048 -0.0319035 0)
(1.04628 -0.0304761 0)
(1.04224 -0.0289535 0)
(1.03839 -0.027351 0)
(1.03472 -0.0256858 0)
(1.03126 -0.0239767 0)
(1.02802 -0.0222436 0)
(1.02499 -0.0205061 0)
(1.02218 -0.0187849 0)
(1.01959 -0.0170976 0)
(1.01722 -0.0154632 0)
(1.01507 -0.0138945 0)
(1.01312 -0.012408 0)
(1.01137 -0.011008 0)
(1.00982 -0.00971094 0)
(1.00843 -0.00850709 0)
(1.00723 -0.0074203 0)
(1.00613 -0.00641652 0)
(1.00524 -0.00554474 0)
(1.00438 -0.00472259 0)
(1.00377 -0.00406324 0)
(1.00305 -0.00338212 0)
(1.00273 -0.00293942 0)
(1.00203 -0.00231934 0)
(1.1721 -0.0322208 0)
(1.16849 -0.0327749 0)
(1.16478 -0.0333315 0)
(1.16098 -0.0338875 0)
(1.15708 -0.0344395 0)
(1.1531 -0.0349833 0)
(1.14902 -0.0355142 0)
(1.14484 -0.0360269 0)
(1.14058 -0.0365155 0)
(1.13622 -0.0369735 0)
(1.13178 -0.0373939 0)
(1.12725 -0.0377691 0)
(1.12264 -0.0380911 0)
(1.11796 -0.0383515 0)
(1.11322 -0.0385416 0)
(1.10841 -0.0386528 0)
(1.10356 -0.038676 0)
(1.09868 -0.0386028 0)
(1.09376 -0.038425 0)
(1.08884 -0.038135 0)
(1.08393 -0.037726 0)
(1.07903 -0.0371928 0)
(1.07418 -0.0365312 0)
(1.06938 -0.035739 0)
(1.06465 -0.0348163 0)
(1.06002 -0.0337652 0)
(1.0555 -0.0325904 0)
(1.05111 -0.0312993 0)
(1.04687 -0.029902 0)
(1.04279 -0.0284109 0)
(1.03889 -0.0268411 0)
(1.03519 -0.0252094 0)
(1.03169 -0.0235342 0)
(1.02841 -0.0218351 0)
(1.02534 -0.0201315 0)
(1.0225 -0.0184433 0)
(1.01988 -0.0167883 0)
(1.01748 -0.0151848 0)
(1.0153 -0.0136456 0)
(1.01333 -0.0121869 0)
(1.01155 -0.0108129 0)
(1.00998 -0.00953957 0)
(1.00857 -0.00835784 0)
(1.00735 -0.00729064 0)
(1.00624 -0.0063052 0)
(1.00534 -0.00544871 0)
(1.00446 -0.00464168 0)
(1.00384 -0.0039933 0)
(1.00311 -0.00332506 0)
(1.00278 -0.00288882 0)
(1.00206 -0.00228078 0)
(1.17331 -0.0314821 0)
(1.16969 -0.0320282 0)
(1.16598 -0.0325767 0)
(1.16218 -0.0331248 0)
(1.15828 -0.033669 0)
(1.15429 -0.0342053 0)
(1.1502 -0.0347291 0)
(1.14602 -0.0352351 0)
(1.14174 -0.0357177 0)
(1.13737 -0.0361704 0)
(1.13292 -0.0365864 0)
(1.12837 -0.0369582 0)
(1.12375 -0.037278 0)
(1.11905 -0.0375375 0)
(1.11428 -0.0377284 0)
(1.10945 -0.0378418 0)
(1.10457 -0.0378693 0)
(1.09966 -0.0378022 0)
(1.09472 -0.0376326 0)
(1.08977 -0.0373531 0)
(1.08482 -0.0369569 0)
(1.07989 -0.0364388 0)
(1.07499 -0.0357947 0)
(1.07015 -0.0350225 0)
(1.06539 -0.0341221 0)
(1.06072 -0.0330956 0)
(1.05616 -0.0319475 0)
(1.05173 -0.0306851 0)
(1.04745 -0.0293182 0)
(1.04333 -0.0278591 0)
(1.03939 -0.0263223 0)
(1.03565 -0.0247246 0)
(1.03212 -0.0230837 0)
(1.0288 -0.0214191 0)
(1.02569 -0.0197497 0)
(1.02282 -0.0180952 0)
(1.02017 -0.0164729 0)
(1.01774 -0.0149009 0)
(1.01553 -0.0133917 0)
(1.01353 -0.0119612 0)
(1.01173 -0.0106136 0)
(1.01014 -0.00936458 0)
(1.00871 -0.00820539 0)
(1.00747 -0.00715815 0)
(1.00634 -0.00619141 0)
(1.00543 -0.00535051 0)
(1.00453 -0.0045589 0)
(1.00391 -0.00392174 0)
(1.00316 -0.00326662 0)
(1.00283 -0.00283706 0)
(1.0021 -0.00224124 0)
(1.17447 -0.0307386 0)
(1.17086 -0.0312763 0)
(1.16715 -0.0318165 0)
(1.16334 -0.0323563 0)
(1.15944 -0.0328924 0)
(1.15545 -0.0334208 0)
(1.15135 -0.0339371 0)
(1.14716 -0.0344361 0)
(1.14288 -0.0349123 0)
(1.1385 -0.0353593 0)
(1.13403 -0.0357706 0)
(1.12947 -0.0361387 0)
(1.12482 -0.036456 0)
(1.12011 -0.0367144 0)
(1.11532 -0.0369056 0)
(1.11047 -0.0370212 0)
(1.10556 -0.0370525 0)
(1.10062 -0.0369914 0)
(1.09565 -0.0368299 0)
(1.09067 -0.0365607 0)
(1.08569 -0.0361772 0)
(1.08072 -0.0356741 0)
(1.07579 -0.0350476 0)
(1.07092 -0.0342954 0)
(1.06612 -0.0334174 0)
(1.06141 -0.0324156 0)
(1.05681 -0.0312944 0)
(1.05234 -0.030061 0)
(1.04802 -0.0287248 0)
(1.04386 -0.0272979 0)
(1.03989 -0.0257946 0)
(1.03611 -0.0242312 0)
(1.03253 -0.0226253 0)
(1.02918 -0.0209956 0)
(1.02604 -0.019361 0)
(1.02313 -0.0177407 0)
(1.02045 -0.0161516 0)
(1.01799 -0.0146116 0)
(1.01575 -0.0131329 0)
(1.01373 -0.011731 0)
(1.01191 -0.0104103 0)
(1.0103 -0.00918597 0)
(1.00884 -0.00804972 0)
(1.00759 -0.00702282 0)
(1.00645 -0.00607513 0)
(1.00552 -0.00525016 0)
(1.00461 -0.00447424 0)
(1.00397 -0.00384856 0)
(1.00321 -0.0032068 0)
(1.00288 -0.00278412 0)
(1.00214 -0.00220074 0)
(1.1756 -0.0299906 0)
(1.17199 -0.0305196 0)
(1.16828 -0.031051 0)
(1.16447 -0.0315822 0)
(1.16057 -0.0321098 0)
(1.15657 -0.03263 0)
(1.15247 -0.0331384 0)
(1.14827 -0.0336301 0)
(1.14398 -0.0340995 0)
(1.13959 -0.0345405 0)
(1.13511 -0.0349467 0)
(1.13053 -0.0353107 0)
(1.12587 -0.0356252 0)
(1.12114 -0.0358822 0)
(1.11633 -0.0360735 0)
(1.11146 -0.0361909 0)
(1.10653 -0.0362259 0)
(1.10156 -0.0361706 0)
(1.09657 -0.0360169 0)
(1.09155 -0.0357578 0)
(1.08654 -0.0353869 0)
(1.08154 -0.0348989 0)
(1.07658 -0.0342899 0)
(1.07167 -0.0335577 0)
(1.06683 -0.0327022 0)
(1.06208 -0.0317252 0)
(1.05744 -0.0306312 0)
(1.05294 -0.029427 0)
(1.04858 -0.0281218 0)
(1.04438 -0.0267275 0)
(1.04037 -0.0252581 0)
(1.03655 -0.0237294 0)
(1.03294 -0.0221588 0)
(1.02955 -0.0205646 0)
(1.02638 -0.0189653 0)
(1.02344 -0.0173796 0)
(1.02073 -0.0158243 0)
(1.01824 -0.0143167 0)
(1.01598 -0.012869 0)
(1.01393 -0.0114962 0)
(1.01209 -0.010203 0)
(1.01045 -0.00900374 0)
(1.00898 -0.00789084 0)
(1.00771 -0.00688465 0)
(1.00655 -0.00595635 0)
(1.0056 -0.00514763 0)
(1.00468 -0.0043877 0)
(1.00404 -0.00377377 0)
(1.00327 -0.0031456 0)
(1.00293 -0.00273 0)
(1.00217 -0.00215926 0)
(1.17669 -0.0292381 0)
(1.17308 -0.029758 0)
(1.16937 -0.0302803 0)
(1.16557 -0.0308025 0)
(1.16166 -0.0313212 0)
(1.15766 -0.0318329 0)
(1.15356 -0.0323331 0)
(1.14935 -0.032817 0)
(1.14505 -0.0332793 0)
(1.14065 -0.0337141 0)
(1.13616 -0.0341148 0)
(1.13157 -0.0344744 0)
(1.1269 -0.0347858 0)
(1.12214 -0.035041 0)
(1.11731 -0.0352322 0)
(1.11242 -0.0353511 0)
(1.10747 -0.0353896 0)
(1.10248 -0.0353397 0)
(1.09746 -0.0351937 0)
(1.09242 -0.0349447 0)
(1.08737 -0.0345862 0)
(1.08234 -0.0341131 0)
(1.07735 -0.0335216 0)
(1.0724 -0.0328095 0)
(1.06753 -0.0319765 0)
(1.06274 -0.0310246 0)
(1.05807 -0.0299579 0)
(1.05352 -0.028783 0)
(1.04913 -0.0275092 0)
(1.0449 -0.0261479 0)
(1.04085 -0.0247126 0)
(1.03699 -0.0232192 0)
(1.03335 -0.0216843 0)
(1.02992 -0.0201261 0)
(1.02672 -0.0185625 0)
(1.02375 -0.017012 0)
(1.021 -0.0154909 0)
(1.01849 -0.0140163 0)
(1.0162 -0.0126001 0)
(1.01413 -0.011257 0)
(1.01226 -0.00999158 0)
(1.0106 -0.00881787 0)
(1.00911 -0.00772872 0)
(1.00782 -0.00674364 0)
(1.00665 -0.00583509 0)
(1.00569 -0.00504293 0)
(1.00476 -0.00429928 0)
(1.0041 -0.00369735 0)
(1.00332 -0.003083 0)
(1.00298 -0.00267469 0)
(1.00221 -0.00211681 0)
(1.17774 -0.0284812 0)
(1.17413 -0.0289916 0)
(1.17043 -0.0295046 0)
(1.16662 -0.0300174 0)
(1.16272 -0.0305269 0)
(1.15871 -0.0310296 0)
(1.15461 -0.0315213 0)
(1.1504 -0.0319972 0)
(1.14609 -0.032452 0)
(1.14168 -0.0328801 0)
(1.13718 -0.033275 0)
(1.13258 -0.03363 0)
(1.12789 -0.0339378 0)
(1.12312 -0.034191 0)
(1.11828 -0.0343816 0)
(1.11336 -0.0345018 0)
(1.10839 -0.0345435 0)
(1.10338 -0.0344989 0)
(1.09833 -0.0343604 0)
(1.09326 -0.0341212 0)
(1.08819 -0.033775 0)
(1.08313 -0.0333168 0)
(1.0781 -0.0327428 0)
(1.07312 -0.0320508 0)
(1.06821 -0.0312405 0)
(1.06339 -0.0303137 0)
(1.05868 -0.0292744 0)
(1.0541 -0.0281293 0)
(1.04967 -0.026887 0)
(1.0454 -0.025559 0)
(1.04131 -0.0241584 0)
(1.03742 -0.0227005 0)
(1.03374 -0.0212018 0)
(1.03028 -0.0196801 0)
(1.02705 -0.0181527 0)
(1.02404 -0.0166379 0)
(1.02127 -0.0151516 0)
(1.01873 -0.0137104 0)
(1.01641 -0.0123262 0)
(1.01432 -0.0110132 0)
(1.01243 -0.00977609 0)
(1.01075 -0.00862837 0)
(1.00924 -0.00756339 0)
(1.00794 -0.00659979 0)
(1.00675 -0.00571133 0)
(1.00578 -0.00493605 0)
(1.00483 -0.00420897 0)
(1.00417 -0.00361931 0)
(1.00337 -0.00301901 0)
(1.00302 -0.00261821 0)
(1.00225 -0.00207338 0)
(1.17875 -0.02772 0)
(1.17515 -0.0282207 0)
(1.17145 -0.0287238 0)
(1.16764 -0.029227 0)
(1.16374 -0.029727 0)
(1.15973 -0.0302204 0)
(1.15563 -0.0307031 0)
(1.15141 -0.0311706 0)
(1.1471 -0.0316177 0)
(1.14268 -0.0320387 0)
(1.13817 -0.0324274 0)
(1.13356 -0.0327774 0)
(1.12886 -0.0330814 0)
(1.12407 -0.0333322 0)
(1.11921 -0.0335221 0)
(1.11428 -0.0336432 0)
(1.10929 -0.0336878 0)
(1.10425 -0.0336483 0)
(1.09918 -0.0335171 0)
(1.09408 -0.0332876 0)
(1.08898 -0.0329536 0)
(1.0839 -0.0325102 0)
(1.07884 -0.0319536 0)
(1.07383 -0.0312817 0)
(1.06888 -0.0304941 0)
(1.06403 -0.0295925 0)
(1.05928 -0.028581 0)
(1.05467 -0.0274657 0)
(1.0502 -0.0262554 0)
(1.04589 -0.0249609 0)
(1.04177 -0.0235953 0)
(1.03785 -0.0221734 0)
(1.03413 -0.0207114 0)
(1.03064 -0.0192265 0)
(1.02737 -0.0177359 0)
(1.02434 -0.0162572 0)
(1.02154 -0.0148062 0)
(1.01897 -0.013399 0)
(1.01662 -0.0120473 0)
(1.01451 -0.0107649 0)
(1.01259 -0.00955653 0)
(1.0109 -0.00843523 0)
(1.00937 -0.00739482 0)
(1.00805 -0.00645308 0)
(1.00684 -0.00558506 0)
(1.00586 -0.004827 0)
(1.0049 -0.00411677 0)
(1.00423 -0.00353965 0)
(1.00342 -0.00295363 0)
(1.00307 -0.00256054 0)
(1.00228 -0.00202897 0)
(1.17973 -0.0269547 0)
(1.17613 -0.0274452 0)
(1.17243 -0.0279383 0)
(1.16863 -0.0284314 0)
(1.16473 -0.0289215 0)
(1.16072 -0.0294053 0)
(1.15661 -0.0298788 0)
(1.15239 -0.0303374 0)
(1.14807 -0.0307763 0)
(1.14365 -0.0311899 0)
(1.13913 -0.0315722 0)
(1.13451 -0.0319168 0)
(1.1298 -0.0322167 0)
(1.125 -0.0324648 0)
(1.12012 -0.0326535 0)
(1.11517 -0.0327754 0)
(1.11016 -0.0328227 0)
(1.1051 -0.0327879 0)
(1.10001 -0.0326639 0)
(1.09489 -0.0324439 0)
(1.08976 -0.032122 0)
(1.08464 -0.0316933 0)
(1.07955 -0.0311541 0)
(1.07451 -0.0305022 0)
(1.06954 -0.0297374 0)
(1.06465 -0.0288612 0)
(1.05987 -0.0278775 0)
(1.05522 -0.0267924 0)
(1.05071 -0.0256142 0)
(1.04638 -0.0243536 0)
(1.04222 -0.0230234 0)
(1.03826 -0.021638 0)
(1.03451 -0.0202131 0)
(1.03099 -0.0187655 0)
(1.02769 -0.0173122 0)
(1.02463 -0.0158701 0)
(1.0218 -0.0144549 0)
(1.0192 -0.0130822 0)
(1.01683 -0.0117634 0)
(1.01469 -0.0105121 0)
(1.01276 -0.00933291 0)
(1.01104 -0.00823846 0)
(1.00949 -0.00722303 0)
(1.00816 -0.00630353 0)
(1.00694 -0.0054563 0)
(1.00594 -0.00471577 0)
(1.00497 -0.00402268 0)
(1.00429 -0.00345836 0)
(1.00347 -0.00288685 0)
(1.00312 -0.00250169 0)
(1.00231 -0.00198357 0)
(1.18067 -0.0261853 0)
(1.17707 -0.0266654 0)
(1.17338 -0.027148 0)
(1.16958 -0.0276307 0)
(1.16568 -0.0281106 0)
(1.16167 -0.0285844 0)
(1.15756 -0.0290482 0)
(1.15334 -0.0294978 0)
(1.14902 -0.0299281 0)
(1.14459 -0.030334 0)
(1.14006 -0.0307095 0)
(1.13543 -0.0310483 0)
(1.13071 -0.0313437 0)
(1.1259 -0.0315888 0)
(1.121 -0.0317762 0)
(1.11604 -0.0318984 0)
(1.11101 -0.0319481 0)
(1.10593 -0.0319179 0)
(1.10081 -0.0318008 0)
(1.09567 -0.0315901 0)
(1.09052 -0.0312802 0)
(1.08537 -0.0308661 0)
(1.08026 -0.0303442 0)
(1.07518 -0.0297125 0)
(1.07018 -0.0289705 0)
(1.06526 -0.0281198 0)
(1.06044 -0.0271641 0)
(1.05576 -0.0261093 0)
(1.05122 -0.0249636 0)
(1.04685 -0.0237373 0)
(1.04266 -0.0224427 0)
(1.03867 -0.0210941 0)
(1.03489 -0.0197068 0)
(1.03133 -0.0182971 0)
(1.028 -0.0168814 0)
(1.02491 -0.0154766 0)
(1.02205 -0.0140976 0)
(1.01943 -0.0127598 0)
(1.01704 -0.0114745 0)
(1.01488 -0.0102547 0)
(1.01292 -0.00910522 0)
(1.01118 -0.00803805 0)
(1.00962 -0.00704801 0)
(1.00827 -0.00615114 0)
(1.00703 -0.00532504 0)
(1.00602 -0.00460236 0)
(1.00504 -0.0039267 0)
(1.00435 -0.00337546 0)
(1.00352 -0.00281867 0)
(1.00316 -0.00244166 0)
(1.00235 -0.00193719 0)
(1.18157 -0.025412 0)
(1.17798 -0.0258813 0)
(1.17429 -0.0263531 0)
(1.1705 -0.026825 0)
(1.1666 -0.0272943 0)
(1.16259 -0.0277578 0)
(1.15848 -0.0282116 0)
(1.15426 -0.0286517 0)
(1.14993 -0.0290732 0)
(1.1455 -0.0294709 0)
(1.14096 -0.0298393 0)
(1.13632 -0.030172 0)
(1.13159 -0.0304626 0)
(1.12677 -0.0307044 0)
(1.12186 -0.03089 0)
(1.11688 -0.0310124 0)
(1.11184 -0.0310643 0)
(1.10674 -0.0310384 0)
(1.1016 -0.0309279 0)
(1.09643 -0.0307264 0)
(1.09125 -0.0304283 0)
(1.08608 -0.0300287 0)
(1.08094 -0.0295242 0)
(1.07584 -0.0289126 0)
(1.0708 -0.0281935 0)
(1.06585 -0.0273684 0)
(1.06101 -0.0264408 0)
(1.05629 -0.0254166 0)
(1.05172 -0.0243035 0)
(1.04731 -0.0231118 0)
(1.04309 -0.0218533 0)
(1.03907 -0.020542 0)
(1.03525 -0.0191926 0)
(1.03167 -0.0178211 0)
(1.02831 -0.0164437 0)
(1.02519 -0.0150765 0)
(1.0223 -0.0137343 0)
(1.01966 -0.012432 0)
(1.01724 -0.0111807 0)
(1.01505 -0.00999286 0)
(1.01308 -0.00887348 0)
(1.01132 -0.00783403 0)
(1.00974 -0.00686977 0)
(1.00837 -0.0059959 0)
(1.00712 -0.00519129 0)
(1.0061 -0.00448678 0)
(1.00511 -0.00382882 0)
(1.00441 -0.00329093 0)
(1.00357 -0.0027491 0)
(1.0032 -0.00238045 0)
(1.00238 -0.00188982 0)
(1.18243 -0.0246348 0)
(1.17885 -0.0250929 0)
(1.17517 -0.0255536 0)
(1.17138 -0.0260144 0)
(1.16748 -0.0264728 0)
(1.16348 -0.0269256 0)
(1.15937 -0.0273691 0)
(1.15515 -0.0277993 0)
(1.15081 -0.0282116 0)
(1.14638 -0.0286009 0)
(1.14183 -0.0289617 0)
(1.13719 -0.029288 0)
(1.13245 -0.0295735 0)
(1.12761 -0.0298116 0)
(1.12269 -0.0299952 0)
(1.1177 -0.0301175 0)
(1.11264 -0.0301712 0)
(1.10752 -0.0301494 0)
(1.10236 -0.0300453 0)
(1.09717 -0.0298529 0)
(1.09197 -0.0295664 0)
(1.08678 -0.0291812 0)
(1.0816 -0.028694 0)
(1.07648 -0.0281025 0)
(1.07141 -0.0274063 0)
(1.06643 -0.0266069 0)
(1.06155 -0.0257077 0)
(1.0568 -0.0247142 0)
(1.0522 -0.0236341 0)
(1.04776 -0.0224772 0)
(1.04351 -0.0212552 0)
(1.03945 -0.0199815 0)
(1.03561 -0.0186705 0)
(1.03199 -0.0173378 0)
(1.02861 -0.015999 0)
(1.02546 -0.01467 0)
(1.02255 -0.0133651 0)
(1.01988 -0.0120987 0)
(1.01743 -0.0108818 0)
(1.01523 -0.00972649 0)
(1.01323 -0.00863768 0)
(1.01146 -0.00762638 0)
(1.00986 -0.00668831 0)
(1.00848 -0.00583783 0)
(1.00721 -0.00505504 0)
(1.00618 -0.00436904 0)
(1.00518 -0.00372907 0)
(1.00447 -0.00320478 0)
(1.00362 -0.00267813 0)
(1.00325 -0.00231806 0)
(1.00241 -0.00184147 0)
(1.18327 -0.0238538 0)
(1.17969 -0.0243005 0)
(1.17601 -0.0247496 0)
(1.17223 -0.025199 0)
(1.16834 -0.0256461 0)
(1.16433 -0.0260878 0)
(1.16022 -0.0265207 0)
(1.156 -0.0269407 0)
(1.15167 -0.0273434 0)
(1.14722 -0.0277239 0)
(1.14268 -0.0280769 0)
(1.13803 -0.0283964 0)
(1.13327 -0.0286765 0)
(1.12843 -0.0289105 0)
(1.1235 -0.0290919 0)
(1.11849 -0.0292136 0)
(1.11341 -0.0292689 0)
(1.10828 -0.029251 0)
(1.1031 -0.0291532 0)
(1.09789 -0.0289695 0)
(1.09267 -0.0286946 0)
(1.08745 -0.0283238 0)
(1.08225 -0.0278537 0)
(1.0771 -0.0272823 0)
(1.072 -0.0266091 0)
(1.06699 -0.0258355 0)
(1.06209 -0.0249647 0)
(1.05731 -0.0240022 0)
(1.05267 -0.0229554 0)
(1.0482 -0.0218337 0)
(1.04392 -0.0206485 0)
(1.03983 -0.0194127 0)
(1.03596 -0.0181406 0)
(1.03231 -0.0168471 0)
(1.0289 -0.0155475 0)
(1.02572 -0.0142571 0)
(1.02279 -0.0129899 0)
(1.02009 -0.01176 0)
(1.01763 -0.010578 0)
(1.0154 -0.00945564 0)
(1.01338 -0.00839785 0)
(1.01159 -0.00741513 0)
(1.00998 -0.00650364 0)
(1.00858 -0.00567693 0)
(1.0073 -0.0049163 0)
(1.00626 -0.00424913 0)
(1.00524 -0.00362742 0)
(1.00453 -0.00311702 0)
(1.00367 -0.00260577 0)
(1.00329 -0.00225449 0)
(1.00245 -0.00179213 0)
(1.18406 -0.023069 0)
(1.18049 -0.0235039 0)
(1.17682 -0.0239413 0)
(1.17304 -0.0243789 0)
(1.16915 -0.0248144 0)
(1.16515 -0.0252447 0)
(1.16104 -0.0256665 0)
(1.15682 -0.026076 0)
(1.15249 -0.0264688 0)
(1.14804 -0.0268401 0)
(1.14349 -0.0271848 0)
(1.13883 -0.0274973 0)
(1.13407 -0.0277715 0)
(1.12922 -0.0280013 0)
(1.12428 -0.02818 0)
(1.11926 -0.028301 0)
(1.11417 -0.0283577 0)
(1.10902 -0.0283433 0)
(1.10382 -0.0282515 0)
(1.09859 -0.0280765 0)
(1.09335 -0.0278129 0)
(1.0881 -0.0274563 0)
(1.08288 -0.0270034 0)
(1.0777 -0.0264521 0)
(1.07258 -0.0258019 0)
(1.06754 -0.0250542 0)
(1.06261 -0.0242121 0)
(1.0578 -0.0232807 0)
(1.05313 -0.0222674 0)
(1.04863 -0.0211812 0)
(1.04432 -0.0200331 0)
(1.0402 -0.0188358 0)
(1.0363 -0.0176029 0)
(1.03263 -0.0163491 0)
(1.02918 -0.015089 0)
(1.02598 -0.0138377 0)
(1.02302 -0.0126088 0)
(1.0203 -0.0114159 0)
(1.01781 -0.0102693 0)
(1.01557 -0.00918032 0)
(1.01353 -0.00815399 0)
(1.01172 -0.00720028 0)
(1.01009 -0.00631578 0)
(1.00868 -0.00551321 0)
(1.00739 -0.00477508 0)
(1.00633 -0.00412706 0)
(1.0053 -0.0035239 0)
(1.00458 -0.00302766 0)
(1.00371 -0.00253201 0)
(1.00333 -0.00218976 0)
(1.00248 -0.00174181 0)
(1.18482 -0.0222806 0)
(1.18126 -0.0227034 0)
(1.1776 -0.0231286 0)
(1.17382 -0.0235541 0)
(1.16994 -0.0239776 0)
(1.16594 -0.0243962 0)
(1.16183 -0.0248067 0)
(1.15761 -0.0252052 0)
(1.15328 -0.0255878 0)
(1.14883 -0.0259496 0)
(1.14427 -0.0262857 0)
(1.13961 -0.0265908 0)
(1.13485 -0.0268589 0)
(1.12998 -0.027084 0)