/*--------------------------------*- C++ -*----------------------------------*\
  =========                 |
  \\      /  F ield         | OpenFOAM: The Open Source CFD Toolbox
   \\    /   O peration     | Website:  https://openfoam.org
    \\  /    A nd           | Version:  7
     \\/     M anipulation  |
\*---------------------------------------------------------------------------*/
FoamFile
{
    version     2.0;
    format      ascii;
    class       volScalarField;
    location    "10";
    object      p;
}
// * * * * * * * * * * * * * * * * * * * * * * * * * * * * * * * * * * * * * //

dimensions      [0 2 -2 0 0 0 0];

internalField   nonuniform List<scalar> 
6050
(
-0.356569
-0.363464
-0.370963
-0.378859
-0.386795
-0.394228
-0.400409
-0.404359
-0.404941
-0.400828
-0.390747
-0.373728
-0.348215
-0.35684
-0.363768
-0.371329
-0.379326
-0.387413
-0.395058
-0.401526
-0.40584
-0.406888
-0.40334
-0.393705
-0.377581
-0.351905
-0.357326
-0.364303
-0.371962
-0.380122
-0.388457
-0.396449
-0.403395
-0.408298
-0.410076
-0.407507
-0.398388
-0.384048
-0.35806
-0.357926
-0.364938
-0.372688
-0.381014
-0.389611
-0.397968
-0.405425
-0.410951
-0.413406
-0.412102
-0.403205
-0.391473
-0.364505
-0.358513
-0.365512
-0.3733
-0.381731
-0.390521
-0.399146
-0.407004
-0.413023
-0.41585
-0.416014
-0.406662
-0.396779
-0.370205
-0.365865
-0.373602
-0.382028
-0.390882
-0.399601
-0.407654
-0.413955
-0.41693
-0.417621
-0.408365
-0.399059
-0.373435
-0.365864
-0.373442
-0.381732
-0.390498
-0.399118
-0.407117
-0.413383
-0.416178
-0.41691
-0.407594
-0.397864
-0.373315
-0.365424
-0.372739
-0.38077
-0.389283
-0.397612
-0.40532
-0.411242
-0.413588
-0.413677
-0.404272
-0.393159
-0.369342
-0.364517
-0.37148
-0.379145
-0.387272
-0.395145
-0.402329
-0.407593
-0.409208
-0.407963
-0.398261
-0.385201
-0.361466
-0.363166
-0.369716
-0.376936
-0.384561
-0.391838
-0.398214
-0.402508
-0.402986
-0.399924
-0.389426
-0.374338
-0.350202
-0.361439
-0.367532
-0.374253
-0.381242
-0.387759
-0.392987
-0.395965
-0.394807
-0.389684
-0.37789
-0.361106
-0.336605
-0.36503
-0.371172
-0.377355
-0.382866
-0.386578
-0.387841
-0.384643
-0.377433
-0.364193
-0.346336
-0.321965
-0.362264
-0.367694
-0.372849
-0.377005
-0.378874
-0.378065
-0.3727
-0.363623
-0.349213
-0.331033
-0.307394
-0.359235
-0.363742
-0.367588
-0.370014
-0.369825
-0.366789
-0.359453
-0.348957
-0.333892
-0.316065
-0.293574
-0.355869
-0.359177
-0.361425
-0.361841
-0.359554
-0.354413
-0.345545
-0.334156
-0.318947
-0.301961
-0.280781
-0.353868
-0.354285
-0.352606
-0.348371
-0.341464
-0.331584
-0.319724
-0.304768
-0.288901
-0.269029
-0.34775
-0.346232
-0.34258
-0.336682
-0.328439
-0.317985
-0.305907
-0.291482
-0.276795
-0.258172
-0.337455
-0.332087
-0.324862
-0.315693
-0.304959
-0.29279
-0.279063
-0.265337
-0.24797
-0.328196
-0.321425
-0.313189
-0.303431
-0.292576
-0.280423
-0.267412
-0.254125
-0.238199
-0.310812
-0.301835
-0.291726
-0.280834
-0.268841
-0.256436
-0.243068
-0.22877
-0.300387
-0.290879
-0.280572
-0.269703
-0.258001
-0.246074
-0.232898
-0.219672
-0.280335
-0.269924
-0.259141
-0.247765
-0.236204
-0.223817
-0.211668
-0.270179
-0.259729
-0.249076
-0.238017
-0.22694
-0.21526
-0.203985
-0.249929
-0.239427
-0.228714
-0.218086
-0.207069
-0.196707
-0.230132
-0.219755
-0.209581
-0.199213
-0.189551
-0.211079
-0.201333
-0.191535
-0.182532
-0.193272
-0.184013
-0.17557
-0.176574
-0.168641
-0.176574
-0.168641
-0.193272
-0.184013
-0.17557
-0.211079
-0.201333
-0.191535
-0.182532
-0.230132
-0.219755
-0.209581
-0.199213
-0.189551
-0.249929
-0.239427
-0.228714
-0.218086
-0.207069
-0.196707
-0.270179
-0.25973
-0.249076
-0.238017
-0.22694
-0.21526
-0.203985
-0.280335
-0.269924
-0.259141
-0.247765
-0.236204
-0.223817
-0.211668
-0.300387
-0.290879
-0.280572
-0.269703
-0.258001
-0.246074
-0.232898
-0.219672
-0.310812
-0.301835
-0.291727
-0.280834
-0.268841
-0.256436
-0.243069
-0.22877
-0.328197
-0.321425
-0.313189
-0.303431
-0.292576
-0.280423
-0.267413
-0.254125
-0.238199
-0.337455
-0.332087
-0.324862
-0.315693
-0.304959
-0.292791
-0.279063
-0.265337
-0.247971
-0.34775
-0.346232
-0.34258
-0.336682
-0.328439
-0.317985
-0.305907
-0.291483
-0.276795
-0.258172
-0.353868
-0.354285
-0.352607
-0.348372
-0.341465
-0.331584
-0.319724
-0.304768
-0.288901
-0.269029
-0.355869
-0.359177
-0.361425
-0.361841
-0.359554
-0.354413
-0.345546
-0.334156
-0.318947
-0.301961
-0.280781
-0.359235
-0.363742
-0.367589
-0.370014
-0.369825
-0.36679
-0.359453
-0.348957
-0.333893
-0.316065
-0.293575
-0.362265
-0.367695
-0.372849
-0.377005
-0.378874
-0.378066
-0.3727
-0.363624
-0.349214
-0.331033
-0.307394
-0.36503
-0.371172
-0.377355
-0.382866
-0.386578
-0.387841
-0.384644
-0.377434
-0.364193
-0.346336
-0.321965
-0.361439
-0.367532
-0.374254
-0.381243
-0.38776
-0.392987
-0.395965
-0.394807
-0.389684
-0.377891
-0.361106
-0.336605
-0.363166
-0.369716
-0.376936
-0.384561
-0.391838
-0.398214
-0.402508
-0.402987
-0.399924
-0.389426
-0.374338
-0.350202
-0.364517
-0.37148
-0.379145
-0.387273
-0.395146
-0.402329
-0.407593
-0.409209
-0.407963
-0.398261
-0.385201
-0.361466
-0.365424
-0.37274
-0.38077
-0.389283
-0.397613
-0.405321
-0.411243
-0.413588
-0.413678
-0.404273
-0.393159
-0.369342
-0.365864
-0.373443
-0.381732
-0.390498
-0.399118
-0.407118
-0.413383
-0.416178
-0.41691
-0.407594
-0.397864
-0.373315
-0.365865
-0.373602
-0.382029
-0.390883
-0.399601
-0.407655
-0.413956
-0.41693
-0.417622
-0.408365
-0.399059
-0.373435
-0.358513
-0.365512
-0.3733
-0.381731
-0.390521
-0.399147
-0.407004
-0.413023
-0.41585
-0.416014
-0.406663
-0.396779
-0.370205
-0.357926
-0.364938
-0.372688
-0.381014
-0.389612
-0.397969
-0.405426
-0.410951
-0.413407
-0.412102
-0.403205
-0.391473
-0.364505
-0.357326
-0.364303
-0.371962
-0.380122
-0.388458
-0.39645
-0.403395
-0.408298
-0.410076
-0.407508
-0.398388
-0.384048
-0.35806
-0.35684
-0.363768
-0.371329
-0.379326
-0.387413
-0.395058
-0.401527
-0.40584
-0.406889
-0.403341
-0.393705
-0.377581
-0.351905
-0.356569
-0.363464
-0.370963
-0.378859
-0.386795
-0.394228
-0.400409
-0.404359
-0.404941
-0.400828
-0.390747
-0.373728
-0.348215
-0.326274
-0.30999
-0.292004
-0.272367
-0.251241
-0.228845
-0.205455
-0.181397
-0.157047
-0.132797
-0.108994
-0.0856568
-0.0640797
-0.044218
-0.0262717
-0.0104232
0.00321108
0.0145976
0.0237812
0.0308753
0.0360481
0.039506
0.041477
0.0421956
0.0418926
0.0407874
0.0390775
0.0369352
0.0345057
0.0319086
0.0292388
0.0265716
0.023964
0.021461
0.0190938
0.016887
0.0148519
0.0129985
0.0113203
0.00981886
0.00847104
0.00727978
0.00620372
0.00526123
0.00437789
0.00360949
0.00281196
0.00213875
0.00129875
0.000659444
-0.330653
-0.314446
-0.296494
-0.27684
-0.255652
-0.233157
-0.209655
-0.185477
-0.160963
-0.136599
-0.113009
-0.0883173
-0.0669534
-0.0469569
-0.0287998
-0.0127359
0.00110546
0.0126868
0.0220521
0.0293149
0.0346439
0.0382467
0.0403529
0.0411987
0.0410123
0.0400124
0.0383983
0.0363427
0.0339915
0.0314642
0.0288561
0.0262427
0.0236816
0.0212183
0.0188849
0.0167069
0.0146963
0.0128641
0.0112042
0.00971858
0.00838456
0.00720509
0.00613948
0.00520592
0.00433143
0.00357052
0.00278181
0.00211427
0.00128406
0.000645949
-0.337986
-0.321926
-0.30403
-0.28442
-0.26321
-0.240633
-0.217014
-0.192542
-0.167732
-0.142984
-0.118662
-0.094844
-0.0727043
-0.0522416
-0.0336899
-0.0172525
-0.00305161
0.0088757
0.0185728
0.0261527
0.0317836
0.0356726
0.0380495
0.039151
0.0392053
0.0384247
0.0370093
0.035134
0.0329449
0.0305622
0.0280816
0.0255794
0.023114
0.0207324
0.0184684
0.0163493
0.0143889
0.0125996
0.0109765
0.00952265
0.00821618
0.00706017
0.00601528
0.00509933
0.00424205
0.00349557
0.00272377
0.00206704
0.00125575
0.000620142
-0.346269
-0.330252
-0.312419
-0.292962
-0.271881
-0.249365
-0.225699
-0.201223
-0.176301
-0.15134
-0.126746
-0.102904
-0.0804013
-0.0595441
-0.0405892
-0.0237381
-0.00911427
0.00324257
0.0133722
0.0213837
0.0274406
0.0317453
0.0345236
0.0360092
0.0364292
0.035989
0.0348826
0.0332869
0.0313494
0.029191
0.026908
0.0245778
0.0222606
0.0200054
0.0178486
0.0158201
0.0139366
0.0122125
0.0106452
0.00923903
0.00797365
0.00685255
0.00583825
0.00494812
0.00411562
0.00338962
0.00264167
0.00200006
0.00121566
0.000584185
-0.352129
-0.337198
-0.319771
-0.300656
-0.279959
-0.257785
-0.234389
-0.210104
-0.185318
-0.160429
-0.13585
-0.112011
-0.0893683
-0.06828
-0.0490285
-0.0318246
-0.0167983
-0.00399653
0.00661222
0.0151275
0.0217026
0.0265294
0.029823
0.0318089
0.0327079
0.032723
0.0320339
0.0308149
0.0292163
0.0273602
0.0253439
0.0232464
0.0211299
0.0190462
0.0170348
0.0151292
0.0133495
0.0117131
0.0102203
0.00887734
0.00766608
0.0065908
0.00561639
0.00475971
0.00395872
0.00325836
0.00253989
0.00191695
0.00116601
0.000540862
-0.355103
-0.340852
-0.324353
-0.306028
-0.286022
-0.264492
-0.241714
-0.218015
-0.193744
-0.16928
-0.145037
-0.121443
-0.0989213
-0.0778307
-0.058463
-0.0410366
-0.0256911
-0.0124845
-0.00139892
0.00764966
0.0147975
0.0202192
0.0241131
0.0266895
0.0281591
0.0287192
0.0285404
0.0277829
0.0265985
0.0251123
0.0234234
0.0216124
0.0197441
0.0178733
0.0160431
0.0142909
0.0126406
0.0111133
0.00971261
0.0084474
0.00730237
0.00628301
0.00535702
0.00454077
0.0037772
0.00310695
0.00242251
0.0018213
0.00110895
0.000493144
-0.354227
-0.340393
-0.325213
-0.30818
-0.28922
-0.268629
-0.246804
-0.224078
-0.200737
-0.177102
-0.15356
-0.130536
-0.108432
-0.0876016
-0.0683345
-0.0508549
-0.0353127
-0.021781
-0.0102602
-0.000688011
0.00704836
0.0130999
0.0176428
0.0208668
0.0229664
0.0241297
0.0245252
0.0242951
0.0235826
0.0225174
0.0212023
0.0197202
0.0181382
0.0165146
0.0148958
0.0133233
0.0118249
0.0104256
0.00913285
0.00795849
0.00689049
0.00593608
0.0050661
0.00429654
0.00357563
0.00293949
0.00229283
0.00171625
0.00104634
0.000443776
-0.349278
-0.335735
-0.322181
-0.306827
-0.289204
-0.269796
-0.249203
-0.227784
-0.205757
-0.183348
-0.160887
-0.138773
-0.117391
-0.0970839
-0.0781391
-0.0607867
-0.0451889
-0.0314359
-0.0195508
-0.0094981
-0.00119337
0.00548589
0.0106892
0.0145826
0.0173395
0.0191346
0.0201307
0.0204675
0.0202675
0.0196578
0.0187471
0.0176225
0.016354
0.0150026
0.0136184
0.0122463
0.0109182
0.00966279
0.00849131
0.00741897
0.00643732
0.00555563
0.00474826
0.00403093
0.0033573
0.00275899
0.00215329
0.0016043
0.000979617
0.000394963
-0.340408
-0.327205
-0.315523
-0.302102
-0.286035
-0.26805
-0.248966
-0.22913
-0.208661
-0.187756
-0.166698
-0.145813
-0.125437
-0.105895
-0.0874762
-0.0704227
-0.0549115
-0.0410523
-0.0288933
-0.0184287
-0.00960571
-0.00233322
0.00350892
0.00806068
0.011473
0.013902
0.0155009
0.0164097
0.0167431
0.0166107
0.0161224
0.0153718
0.0144331
0.0133704
0.0122366
0.01108
0.00993593
0.00883674
0.00779732
0.0068362
0.00594867
0.00514626
0.00440712
0.00374681
0.00312453
0.00256756
0.00200562
0.00148733
0.000909864
0.000348216
-0.328268
-0.315574
-0.305944
-0.294585
-0.280205
-0.263827
-0.246472
-0.22843
-0.209704
-0.19044
-0.170948
-0.151511
-0.13237
-0.113795
-0.0960755
-0.0794707
-0.0641778
-0.0503277
-0.0379947
-0.0272034
-0.0179337
-0.0101267
-0.00369253
0.00148151
0.00552323
0.00856876
0.010757
0.0122215
0.0130824
0.0134368
0.0133815
0.0130132
0.0124124
0.0116473
0.0107736
0.00984241
0.00889203
0.00795812
0.00705905
0.00621646
0.00542942
0.00471176
0.0040456
0.00344645
0.00287911
0.00236673
0.00185106
0.00136664
0.000837852
0.000304374
-0.314122
-0.302129
-0.294548
-0.285197
-0.272531
-0.257869
-0.242366
-0.226212
-0.2093
-0.191745
-0.173856
-0.155933
-0.138146
-0.12068
-0.103794
-0.087761
-0.0728002
-0.0590665
-0.0466603
-0.035635
-0.0260019
-0.0177336
-0.0107704
-0.00502644
-0.000397639
0.00323235
0.00598589
0.00798639
0.00934992
0.0101806
0.0105619
0.0105808
0.0103213
0.00985746
0.00924869
0.00854868
0.00779832
0.00703603
0.00628345
0.00556506
0.00488366
0.00425526
0.00366609
0.00313169
0.00262244
0.00215768
0.00169056
0.00124315
0.000764122
0.000263709
-0.299507
-0.288361
-0.28259
-0.275007
-0.26396
-0.251012
-0.237357
-0.223054
-0.207914
-0.192042
-0.175738
-0.159282
-0.142852
-0.126555
-0.110592
-0.0952252
-0.0806906
-0.0671683
-0.0547836
-0.0436164
-0.0337064
-0.025056
-0.017634
-0.011381
-0.00621615
-0.00204294
0.00124446
0.00375651
0.00560196
0.00688269
0.00768909
0.00809626
0.00818061
0.00801938
0.00767721
0.00721112
0.00666447
0.00607801
0.00547632
0.00488646
0.00431479
0.00377941
0.00327064
0.00280409
0.00235571
0.00194137
0.00152487
0.00111745
0.000689042
0.000226064
-0.285605
-0.275389
-0.271062
-0.264899
-0.255283
-0.243947
-0.232024
-0.219434
-0.205941
-0.191657
-0.176863
-0.161798
-0.146643
-0.1315
-0.1165
-0.101864
-0.0878307
-0.0746002
-0.062322
-0.0510991
-0.0409959
-0.0320421
-0.024233
-0.0175344
-0.0118878
-0.00721665
-0.00343165
-0.0004357
0.00187006
0.00358233
0.00479
0.00557441
0.00600267
0.00614568
0.00607079
0.00583945
0.00549825
0.00509017
0.00464245
0.00418436
0.0037257
0.00328643
0.00286098
0.00246501
0.00207997
0.00171859
0.00135458
0.000989902
0.000612907
0.000191018
-0.272933
-0.263682
-0.260461
-0.255381
-0.24698
-0.237094
-0.226728
-0.215662
-0.203651
-0.190826
-0.177434
-0.163666
-0.149685
-0.135629
-0.121588
-0.107719
-0.0942427
-0.0813706
-0.0692725
-0.058071
-0.0478522
-0.0386694
-0.0305426
-0.0234605
-0.0173867
-0.0122639
-0.00801942
-0.00456979
-0.00182672
0.000299067
0.00189276
0.00303436
0.0037963
0.00424314
0.00443694
0.00444096
0.00430587
0.00407748
0.00378574
0.00346184
0.00311879
0.00277823
0.00243861
0.00211562
0.00179612
0.00148999
0.00118018
0.000860719
0.000535903
0.000158044
-0.261545
-0.253266
-0.250896
-0.246617
-0.239238
-0.230647
-0.221647
-0.211905
-0.201207
-0.189703
-0.177593
-0.16502
-0.152125
-0.139067
-0.125942
-0.11285
-0.0999681
-0.0875078
-0.0756521
-0.0645399
-0.0542753
-0.0449324
-0.0365526
-0.0291467
-0.0226985
-0.0171697
-0.0125041
-0.00863201
-0.00547623
-0.00295564
-0.000990506
0.000496434
0.00157636
0.00231748
0.00277911
0.0030198
0.00309173
0.00304385
0.00290938
0.0027214
0.00249607
0.00225639
0.0020048
0.00175692
0.00150493
0.00125613
0.00100209
0.000729991
0.000458121
0.000126591
-0.251354
-0.24405
-0.242307
-0.238588
-0.232087
-0.224661
-0.216848
-0.208244
-0.198706
-0.188391
-0.177443
-0.165962
-0.154075
-0.141932
-0.129661
-0.117327
-0.10506
-0.0930516
-0.0814903
-0.070526
-0.0602775
-0.0508366
-0.0422639
-0.0345897
-0.0278172
-0.0219263
-0.016877
-0.0126135
-0.00907009
-0.00617428
-0.00385256
-0.00203174
-0.000642659
0.000381707
0.00110247
0.00157837
0.00185839
0.00199217
0.00201609
0.00196537
0.00185941
0.00172243
0.00156077
0.00138986
0.00120715
0.00101752
0.000820673
0.00059777
0.000379646
9.61169e-05
-0.242273
-0.235961
-0.234593
-0.231205
-0.225487
-0.219124
-0.212331
-0.204705
-0.196201
-0.186959
-0.177061
-0.166579
-0.155625
-0.144336
-0.132844
-0.121229
-0.109576
-0.0980456
-0.0868185
-0.0760501
-0.0658707
-0.0563866
-0.0476751
-0.0397839
-0.0327344
-0.0265236
-0.0211271
-0.0165033
-0.0125978
-0.0093474
-0.00668527
-0.00454297
-0.00285426
-0.00155378
-0.000581046
0.00012282
0.000608859
0.000924785
0.00110825
0.00119603
0.00121083
0.00117802
0.00110785
0.0010155
0.000903614
0.000774714
0.000636344
0.000464161
0.000300592
6.61695e-05
-0.234255
-0.228985
-0.227672
-0.224393
-0.219405
-0.213994
-0.20805
-0.201262
-0.193678
-0.185392
-0.176436
-0.166868
-0.156783
-0.146297
-0.135531
-0.124587
-0.113534
-0.102497
-0.0916373
-0.081108
-0.0710465
-0.0615712
-0.0527734
-0.0447165
-0.0374379
-0.0309507
-0.0252457
-0.0202947
-0.0160549
-0.0124724
-0.00948778
-0.00703778
-0.0050597
-0.00349058
-0.00227102
-0.00134298
-0.000655296
-0.000158887
0.000184764
0.00041262
0.00055
0.000623119
0.000646146
0.000633962
0.000594398
0.000527754
0.000449069
0.000329015
0.000220832
3.63224e-05
-0.227309
-0.223116
-0.221437
-0.218118
-0.213893
-0.209364
-0.20417
-0.198164
-0.191434
-0.18401
-0.175903
-0.167165
-0.157874
-0.148125
-0.138025
-0.127687
-0.117195
-0.106645
-0.0961704
-0.0859092
-0.0759997
-0.0665691
-0.0577204
-0.0495311
-0.0420538
-0.0353169
-0.0293258
-0.0240658
-0.0195059
-0.0156023
-0.0123033
-0.00955161
-0.00728842
-0.00545325
-0.00398778
-0.00283482
-0.00194332
-0.00126477
-0.000759309
-0.000389304
-0.000126673
5.50859e-05
0.000173762
0.000243919
0.000278467
0.000275819
0.000258054
0.000191646
0.00013976
5.81263e-06
-0.222025
-0.218678
-0.215824
-0.212121
-0.208428
-0.204475
-0.199861
-0.194575
-0.188644
-0.182042
-0.17477
-0.166862
-0.158373
-0.149373
-0.139951
-0.130202
-0.12023
-0.110145
-0.100067
-0.0901105
-0.0804041
-0.0710759
-0.062236
-0.0539731
-0.046353
-0.0394179
-0.0331871
-0.0276587
-0.0228136
-0.0186184
-0.0150303
-0.0119989
-0.00946982
-0.00738523
-0.0056875
-0.00431997
-0.00323138
-0.00237411
-0.00170787
-0.00119575
-0.000807763
-0.000517202
-0.000302459
-0.000149486
-4.01902e-05
2.16261e-05
6.54082e-05
5.28566e-05
5.83408e-05
-2.60608e-05
-0.217508
-0.216413
-0.2123
-0.208595
-0.205144
-0.201302
-0.196864
-0.191828
-0.186178
-0.179888
-0.172955
-0.165407
-0.157287
-0.14866
-0.139605
-0.130216
-0.120589
-0.110824
-0.101034
-0.0913342
-0.0818479
-0.0726969
-0.0639886
-0.0558117
-0.0482347
-0.0413037
-0.0350431
-0.0294569
-0.0245304
-0.0202347
-0.0165304
-0.0133718
-0.0107101
-0.00849454
-0.00667313
-0.00519313
-0.00400344
-0.00305559
-0.00230614
-0.0017174
-0.00125719
-0.0009008
-0.00062447
-0.000417352
-0.000256905
-0.000151883
-6.48148e-05
-4.19842e-05
4.69553e-06
-4.82952e-05
-0.213211
-0.21281
-0.208782
-0.205234
-0.201963
-0.19826
-0.193961
-0.189079
-0.183603
-0.177509
-0.170796
-0.163483
-0.155615
-0.14725
-0.138462
-0.12934
-0.119975
-0.110464
-0.100915
-0.0914399
-0.0821572
-0.0731832
-0.0646221
-0.0565616
-0.04907
-0.042195
-0.0359637
-0.030383
-0.0254418
-0.021115
-0.0173664
-0.0141541
-0.0114324
-0.00915356
-0.00726822
-0.00572572
-0.00447604
-0.00347168
-0.00266924
-0.00203168
-0.0015263
-0.0011293
-0.00081573
-0.000575997
-0.000385246
-0.000254335
-0.000141842
-9.76357e-05
-2.71952e-05
-6.1031e-05
-0.20847
-0.208656
-0.204904
-0.20146
-0.198331
-0.194782
-0.190629
-0.185903
-0.180606
-0.174717
-0.168231
-0.161167
-0.153564
-0.145477
-0.136975
-0.128139
-0.119058
-0.109824
-0.100541
-0.0913169
-0.0822637
-0.0734928
-0.0651049
-0.0571858
-0.0498035
-0.0430067
-0.0368245
-0.0312668
-0.0263263
-0.0219814
-0.0182002
-0.014944
-0.0121704
-0.00983417
-0.00788816
-0.00628385
-0.00497284
-0.00390938
-0.00305095
-0.00236165
-0.00180865
-0.00136891
-0.00101641
-0.00074248
-0.000520203
-0.000361991
-0.000223111
-0.000156021
-6.12298e-05
-7.40282e-05
-0.203856
-0.204481
-0.201048
-0.197686
-0.194676
-0.191286
-0.187288
-0.182724
-0.177611
-0.17193
-0.165674
-0.15886
-0.151523
-0.143715
-0.135498
-0.126949
-0.118152
-0.109196
-0.100179
-0.0912057
-0.0823821
-0.0738147
-0.0656008
-0.0578243
-0.0505527
-0.0438356
-0.037704
-0.0321706
-0.0272317
-0.0228696
-0.019056
-0.0157559
-0.0129298
-0.0105353
-0.0085275
-0.00686009
-0.00548641
-0.00436248
-0.00344664
-0.00270415
-0.00210207
-0.00161814
-0.00122531
-0.00091584
-0.000660801
-0.00047409
-0.000307784
-0.000216702
-9.67873e-05
-8.72375e-05
-0.199242
-0.200251
-0.19716
-0.193891
-0.19099
-0.187763
-0.183933
-0.179538
-0.174612
-0.169141
-0.163117
-0.156553
-0.149482
-0.141951
-0.134019
-0.125757
-0.117244
-0.108566
-0.0998162
-0.0910936
-0.0825004
-0.0741378
-0.0660997
-0.058468
-0.0513094
-0.0446744
-0.0385957
-0.0330888
-0.0281533
-0.0237752
-0.01993
-0.0165863
-0.0137075
-0.0112542
-0.00918391
-0.0074526
-0.00601534
-0.00482991
-0.00385552
-0.00305862
-0.00240614
-0.00187671
-0.00144223
-0.00109597
-0.000806966
-0.000590603
-0.000395828
-0.000279693
-0.000133826
-0.000100689
-0.194615
-0.195954
-0.193203
-0.190047
-0.187248
-0.184185
-0.180531
-0.176313
-0.171577
-0.166318
-0.160526
-0.154213
-0.147408
-0.140155
-0.132508
-0.124534
-0.116307
-0.107908
-0.0994269
-0.0909577
-0.0825975
-0.0744429
-0.0665842
-0.0591012
-0.0520599
-0.0455112
-0.0394894
-0.0340128
-0.0290839
-0.0246925
-0.0208177
-0.0174318
-0.0145013
-0.0119897
-0.0098569
-0.00806133
-0.00655978
-0.0053119
-0.00427782
-0.00342524
-0.00272105
-0.00214477
-0.00166734
-0.001283
-0.000958847
-0.000711655
-0.000487372
-0.000345064
-0.000172429
-0.000114393
-0.190028
-0.191612
-0.189184
-0.186159
-0.183459
-0.180555
-0.177085
-0.173049
-0.168506
-0.16346
-0.157902
-0.151841
-0.145302
-0.138327
-0.130965
-0.123279
-0.115338
-0.10722
-0.0990095
-0.0907954
-0.0826705
-0.0747268
-0.067051
-0.0597206
-0.0528007
-0.0463426
-0.040382
-0.0349395
-0.0300207
-0.0256191
-0.0217172
-0.0182909
-0.01531
-0.0127409
-0.0105459
-0.00868583
-0.00711945
-0.00580826
-0.00471341
-0.00380395
-0.00304675
-0.00242233
-0.00190067
-0.00147698
-0.0011165
-0.000837288
-0.000582469
-0.000412833
-0.000212627
-0.000128339
-0.185484
-0.187237
-0.185116
-0.182239
-0.179638
-0.176887
-0.173602
-0.169755
-0.165408
-0.160577
-0.155253
-0.149443
-0.14317
-0.136472
-0.129395
-0.121996
-0.114342
-0.106505
-0.0985653
-0.0906076
-0.0827197
-0.0749891
-0.0674991
-0.0603248
-0.0535302
-0.0471668
-0.0412714
-0.0358669
-0.0309619
-0.0265531
-0.0226267
-0.0191621
-0.0161322
-0.0135065
-0.0112497
-0.00932524
-0.00769364
-0.00631846
-0.00516191
-0.00419446
-0.00338309
-0.00270927
-0.00214215
-0.00167786
-0.0012799
-0.000967479
-0.00068111
-0.000482982
-0.000254416
-0.000142519
-0.180963
-0.182842
-0.181011
-0.178294
-0.175794
-0.17319
-0.170092
-0.166438
-0.162289
-0.157672
-0.152583
-0.147023
-0.141015
-0.134593
-0.127799
-0.120687
-0.113319
-0.105763
-0.0980945
-0.0903938
-0.082744
-0.0752284
-0.0679268
-0.0609117
-0.0542461
-0.0479812
-0.0421551
-0.0367925
-0.0319049
-0.0274922
-0.0235441
-0.0200434
-0.0169662
-0.014285
-0.0119671
-0.00997845
-0.00828147
-0.00684179
-0.00562278
-0.00459639
-0.00372975
-0.00300536
-0.00239161
-0.00188554
-0.00144897
-0.00110217
-0.000783264
-0.000555476
-0.000297781
-0.000156923
-0.176469
-0.178442
-0.176881
-0.174333
-0.171938
-0.169476
-0.166561
-0.163103
-0.159155
-0.154753
-0.149897
-0.144587
-0.138842
-0.132693
-0.126181
-0.119355
-0.112271
-0.104995
-0.097597
-0.0901533
-0.0827424
-0.0754432
-0.068332
-0.0614789
-0.0549456
-0.048783
-0.0430301
-0.0377134
-0.0328469
-0.0284337
-0.0244669
-0.0209325
-0.01781
-0.0150748
-0.0126967
-0.0106442
-0.00888189
-0.0073774
-0.00609534
-0.00500919
-0.00408633
-0.00331031
-0.00264884
-0.00209982
-0.00162359
-0.00124126
-0.000888863
-0.000630262
-0.000342689
-0.000171544
-0.172015
-0.174047
-0.172737
-0.170364
-0.16808
-0.165755
-0.16302
-0.159758
-0.156013
-0.151825
-0.1472
-0.142138
-0.136655
-0.130777
-0.124544
-0.118001
-0.1112
-0.104202
-0.0970734
-0.089886
-0.0827139
-0.075632
-0.0687129
-0.0620243
-0.0556263
-0.0495695
-0.0438936
-0.0386267
-0.0337851
-0.0293749
-0.0253925
-0.0218271
-0.0186614
-0.0158737
-0.0134366
-0.011321
-0.00949365
-0.00792425
-0.00657875
-0.00543218
-0.00445228
-0.00362367
-0.00291349
-0.00232046
-0.00180355
-0.00138459
-0.000997804
-0.000707257
-0.00038909
-0.000186375
-0.167607
-0.169669
-0.16859
-0.166397
-0.16423
-0.162038
-0.159478
-0.156412
-0.15287
-0.148896
-0.1445
-0.139683
-0.134458
-0.128849
-0.122892
-0.116628
-0.110107
-0.103385
-0.0965242
-0.089592
-0.0826582
-0.0757937
-0.0690678
-0.0625457
-0.0562857
-0.050338
-0.0447427
-0.0395293
-0.0347164
-0.0303128
-0.026318
-0.0227245
-0.019518
-0.0166797
-0.0141849
-0.0120072
-0.0101153
-0.00848111
-0.00707198
-0.00586452
-0.00482693
-0.0039449
-0.00318512
-0.00254709
-0.0019886
-0.00153196
-0.00110993
-0.000786351
-0.000436909
-0.000201408
-0.163252
-0.165318
-0.164453
-0.162444
-0.160399
-0.158337
-0.155946
-0.153074
-0.149735
-0.145972
-0.141803
-0.137228
-0.132257
-0.126913
-0.121228
-0.11524
-0.108995
-0.102546
-0.0959506
-0.0892715
-0.0825748
-0.0759275
-0.0693954
-0.0630411
-0.0569214
-0.0510857
-0.0455743
-0.0404181
-0.0356377
-0.0312443
-0.0272404
-0.0236218
-0.020377
-0.0174903
-0.0149395
-0.0127008
-0.0107451
-0.00904649
-0.00757376
-0.00630515
-0.00520939
-0.00427328
-0.00346317
-0.00277926
-0.00217835
-0.00168307
-0.00122504
-0.000867394
-0.000486047
-0.000216633
-0.158961
-0.161008
-0.16034
-0.158516
-0.156599
-0.154664
-0.152436
-0.149754
-0.146616
-0.143063
-0.139117
-0.13478
-0.13006
-0.124976
-0.119558
-0.113841
-0.107868
-0.101688
-0.0953542
-0.0889256
-0.082464
-0.0760326
-0.0696943
-0.0635087
-0.057531
-0.0518098
-0.0463855
-0.0412899
-0.0365455
-0.032166
-0.0281565
-0.0245159
-0.0212356
-0.0183027
-0.0156977
-0.0133996
-0.0113811
-0.00961867
-0.00808261
-0.0067528
-0.00559862
-0.00460793
-0.0037469
-0.00301637
-0.00237235
-0.00183757
-0.00134284
-0.000950198
-0.000536375
-0.000232036
-0.15475
-0.156756
-0.156266
-0.154626
-0.152841
-0.151033
-0.148962
-0.146464
-0.143524
-0.140178
-0.13645
-0.132346
-0.127872
-0.123043
-0.117887
-0.112436
-0.10673
-0.100814
-0.0947372
-0.0885553
-0.082326
-0.076109
-0.0699635
-0.0639469
-0.0581124
-0.0525077
-0.0471731
-0.0421414
-0.0374364
-0.0330743
-0.0290627
-0.0254033
-0.0220904
-0.0191139
-0.016457
-0.0141009
-0.012021
-0.0101957
-0.0085968
-0.00720599
-0.00599334
-0.00494777
-0.00403544
-0.00325771
-0.00257001
-0.00199499
-0.001463
-0.00103453
-0.00058773
-0.000247601
-0.150633
-0.152577
-0.152245
-0.150788
-0.14914
-0.147457
-0.145536
-0.143217
-0.14047
-0.137328
-0.133814
-0.129937
-0.125701
-0.121121
-0.116221
-0.11103
-0.105584
-0.0999263
-0.094102
-0.0881625
-0.082162
-0.0761566
-0.0702024
-0.0643543
-0.0586636
-0.0531768
-0.0479342
-0.0429692
-0.0383069
-0.0339655
-0.0299552
-0.0262804
-0.0229379
-0.0199206
-0.017214
-0.0148021
-0.0126622
-0.0107751
-0.00911429
-0.00766294
-0.00639203
-0.00529153
-0.0043277
-0.00350238
-0.00277063
-0.00215478
-0.00158509
-0.00112009
-0.000639917
-0.0002633
-0.146627
-0.148489
-0.148296
-0.147018
-0.14551
-0.143951
-0.142174
-0.140025
-0.137467
-0.134523
-0.131218
-0.127561
-0.123557
-0.119219
-0.114567
-0.109628
-0.104437
-0.0990303
-0.0934521
-0.0877495
-0.0819732
-0.0761759
-0.0704107
-0.0647298
-0.0591826
-0.0538147
-0.0486658
-0.0437698
-0.0391531
-0.0348357
-0.0308301
-0.0271431
-0.0237743
-0.020719
-0.0179653
-0.0154997
-0.0133018
-0.0113544
-0.00963272
-0.0081216
-0.0067929
-0.00563768
-0.00462241
-0.00374931
-0.00297331
-0.00231624
-0.00170858
-0.00120653
-0.000692697
-0.000279097
-0.142746
-0.144511
-0.144438
-0.143333
-0.141966
-0.14053
-0.13889
-0.136905
-0.134528
-0.131776
-0.128673
-0.125229
-0.12145
-0.117345
-0.112933
-0.108239
-0.103293
-0.0981305
-0.0927913
-0.0873192
-0.0817617
-0.076168
-0.0705883
-0.0650725
-0.0596679
-0.0544189
-0.0493648
-0.0445398
-0.0399713
-0.0356809
-0.0316831
-0.0279872
-0.0245952
-0.021505
-0.0187071
-0.0161903
-0.0139364
-0.0119305
-0.0101494
-0.00857955
-0.00719388
-0.00598442
-0.00491803
-0.00399725
-0.00317704
-0.00247856
-0.00183283
-0.00129342
-0.000745789
-0.000294937
-0.13901
-0.140663
-0.140691
-0.139752
-0.138526
-0.137211
-0.135703
-0.133872
-0.131668
-0.129101
-0.126193
-0.122954
-0.11939
-0.11551
-0.111329
-0.10687
-0.10216
-0.0972328
-0.0921243
-0.0868753
-0.0815298
-0.0761342
-0.0707358
-0.0653819
-0.0601181
-0.0549873
-0.0500284
-0.0452757
-0.0407574
-0.0364967
-0.0325098
-0.0288082
-0.0253963
-0.0222743
-0.019435
-0.0168698
-0.0145624
-0.0125
-0.0106612
-0.00903406
-0.00759253
-0.00632966
-0.00521278
-0.00424468
-0.00338057
-0.00264076
-0.0019571
-0.00138025
-0.000798863
-0.00031075
-0.135436
-0.136966
-0.137077
-0.136294
-0.135208
-0.134012
-0.132628
-0.130943
-0.128903
-0.126514
-0.123791
-0.120748
-0.11739
-0.113724
-0.109764
-0.105529
-0.101046
-0.0963437
-0.0914565
-0.086422
-0.0812809
-0.0760768
-0.0708542
-0.065658
-0.060532
-0.0555179
-0.0506538
-0.045974
-0.0415076
-0.0372787
-0.0333054
-0.0296011
-0.0261724
-0.0230219
-0.0201444
-0.0175336
-0.0151754
-0.013059
-0.0111646
-0.00948194
-0.00798607
-0.00667095
-0.00550458
-0.00448987
-0.00358247
-0.00280171
-0.0020805
-0.00146642
-0.000851535
-0.000326441
-0.132045
-0.133443
-0.133619
-0.132981
-0.132032
-0.130952
-0.129686
-0.128137
-0.126252
-0.124029
-0.121484
-0.118626
-0.115463
-0.112
-0.108248
-0.104227
-0.0999588
-0.0954709
-0.0907945
-0.0859644
-0.0810188
-0.0759982
-0.0709448
-0.065901
-0.060909
-0.0560089
-0.0512383
-0.0466314
-0.0422175
-0.0380221
-0.0340648
-0.0303607
-0.0269184
-0.0237425
-0.0208301
-0.0181769
-0.0157708
-0.0136031
-0.0116557
-0.00991961
-0.00837128
-0.00700551
-0.005791
-0.00473076
-0.00378104
-0.00296005
-0.00220199
-0.00155121
-0.000903358
-0.00034189
-0.128855
-0.130117
-0.130341
-0.129837
-0.129019
-0.128051
-0.126897
-0.125473
-0.123732
-0.121666
-0.119287
-0.116604
-0.113623
-0.11035
-0.106796
-0.102975
-0.0989091
-0.0946229
-0.0901454
-0.0855087
-0.0807482
-0.075902
-0.0710097
-0.0661118
-0.0612485
-0.0564588
-0.0517793
-0.0472441
-0.042883
-0.0387223
-0.0347827
-0.0310813
-0.0276282
-0.0244302
-0.0214862
-0.018794
-0.0163434
-0.0141275
-0.0121298
-0.010343
-0.00874451
-0.0073301
-0.00606927
-0.00496502
-0.00397433
-0.00311424
-0.00232038
-0.00163381
-0.000953821
-0.000356948
-0.125889
-0.127013
-0.12727
-0.126886
-0.126193
-0.125333
-0.124283
-0.122975
-0.121365
-0.119444
-0.117219
-0.114699
-0.111888
-0.108792
-0.10542
-0.101785
-0.0979078
-0.0938097
-0.0895177
-0.0850616
-0.0804745
-0.075792
-0.0710515
-0.0662915
-0.0615504
-0.056866
-0.0522742
-0.0478087
-0.0434996
-0.0393739
-0.0354535
-0.0317568
-0.0282958
-0.0250787
-0.0221065
-0.0193788
-0.0168872
-0.0146265
-0.0125819
-0.0107473
-0.00910161
-0.00764108
-0.00633622
-0.00518994
-0.00416011
-0.00326248
-0.00243427
-0.00171323
-0.00100234
-0.000371434
-0.12317
-0.124157
-0.124435
-0.124158
-0.123582
-0.122822
-0.121868
-0.120665
-0.119175
-0.117386
-0.115303
-0.112931
-0.110275
-0.107341
-0.104136
-0.100673
-0.0969677
-0.0930423
-0.0889209
-0.0846312
-0.0802041
-0.0756731
-0.0710734
-0.0664416
-0.0618148
-0.0572294
-0.0527205
-0.0483215
-0.0440626
-0.0399714
-0.0360709
-0.0323807
-0.028914
-0.025681
-0.022684
-0.0199245
-0.0173957
-0.0150941
-0.0130063
-0.0111275
-0.00943786
-0.00793429
-0.00658822
-0.00540245
-0.0043358
-0.00340271
-0.00254208
-0.00178839
-0.00104824
-0.000385134
-0.120723
-0.121579
-0.121868
-0.121684
-0.121213
-0.120547
-0.11968
-0.118571
-0.117187
-0.115516
-0.113559
-0.111321
-0.108806
-0.106017
-0.102962
-0.0996522
-0.0961029
-0.0923332
-0.0883658
-0.0842265
-0.0799442
-0.0755505
-0.0710789
-0.0665642
-0.062042
-0.0575477
-0.0531155
-0.0487785
-0.044567
-0.040509
-0.0366283
-0.0329456
-0.0294755
-0.0262292
-0.023211
-0.0204235