/*--------------------------------*- C++ -*----------------------------------*\
  =========                 |
  \\      /  F ield         | OpenFOAM: The Open Source CFD Toolbox
   \\    /   O peration     | Website:  https://openfoam.org
    \\  /    A nd           | Version:  7
     \\/     M anipulation  |
\*---------------------------------------------------------------------------*/
FoamFile
{
    version     2.0;
    format      ascii;
    class       surfaceScalarField;
    location    "10";
    object      phi;
}
// * * * * * * * * * * * * * * * * * * * * * * * * * * * * * * * * * * * * * //

dimensions      [0 3 -1 0 0 0 0];

internalField   nonuniform List<scalar> 
11919
(
-0.00119488
0.00022727
2.01007e-09
-0.00144594
0.000251061
2.0454e-09
-0.00172067
0.000274733
1.99052e-09
-0.00201744
0.000296768
1.8158e-09
-0.00233257
0.000315127
1.48911e-09
-0.00265981
0.00032724
9.83517e-10
-0.00298991
0.000330095
2.74721e-10
-0.00330964
0.000319729
-6.31048e-10
-0.0036026
0.000292969
-1.72986e-09
-0.00384695
0.00024435
-2.96693e-09
-0.00401472
0.000167773
-4.27246e-09
-0.0040962
8.14884e-05
-5.44353e-09
-6.79513e-05
-6.34663e-09
-0.00402825
-0.00114097
0.000439127
-0.00137193
0.000482022
-0.00162084
0.000523636
-0.00188488
0.000560815
-0.00215918
0.000589423
-0.00243623
0.000604292
-0.00270583
0.000599695
-0.00295379
0.000567688
-0.00316347
0.000502649
-0.00331553
0.000396411
-0.00337403
0.000226268
-0.00334492
5.23831e-05
-0.000263664
-0.00314921
-0.00103701
0.000621518
-0.00122983
0.000674838
-0.00143013
0.000723934
-0.00163322
0.000763902
-0.00183231
0.000788513
-0.00201803
0.000790022
-0.00217901
0.000760673
-0.00229999
0.000688663
-0.00236361
0.000566275
-0.00235784
0.000390639
-0.00223374
0.000102163
-0.0020194
-0.000161953
-0.000661736
-0.00162133
-0.000890032
0.00076286
-0.0010303
0.000815101
-0.00116449
0.000858131
-0.00128589
0.000885296
-0.00138587
0.000888497
-0.00145337
0.000857526
-0.00147635
0.000783654
-0.00143939
0.000651701
-0.00132425
0.000451133
-0.00112492
0.000191311
-0.000799558
-0.000223201
-0.000351231
-0.000610281
-0.00126522
0.000252256
-0.000709287
-0.000787048
0.000892862
-0.000843871
0.000914955
-0.000871322
0.000912747
-0.000859579
0.000876755
-0.000796542
0.000794488
-0.000670607
0.000657719
-0.000466735
0.000447829
-0.000172892
0.00015729
0.000237884
-0.000219465
0.00075695
-0.000742267
0.0014095
-0.00126283
-0.00209468
0.00223896
-0.000514868
0.000902674
-0.000489033
0.000889119
-0.000417992
0.000841706
-0.000291479
0.000750242
-9.73313e-05
0.00060034
0.000175066
0.000385322
0.000543741
7.91543e-05
0.00101087
-0.000309842
0.00160206
-0.000810649
0.00232188
-0.00146209
0.00315361
-0.00209456
-0.00311586
0.0041748
-0.00022769
0.000842951
-0.000118702
0.000780132
4.95865e-05
0.000673417
0.000287971
0.000511857
0.000608725
0.000279586
0.00101887
-2.48231e-05
0.00154124
-0.000443217
0.00216643
-0.000935035
0.00293002
-0.00157423
0.00381909
-0.00235116
0.00482093
-0.0030964
-0.00427656
0.00598162
6.32153e-05
0.000714712
0.000253142
0.000590205
0.00051525
0.00041131
0.000859979
0.000167128
0.00130051
-0.000160945
0.00184125
-0.000565562
0.00250792
-0.00110989
0.00328377
-0.00171088
0.00420551
-0.00249597
0.00523414
-0.0033798
0.0063842
-0.00424646
-0.00550305
0.00761068
0.000350984
0.000519772
0.000619383
0.000321805
0.000972316
5.8377e-05
0.0014208
-0.000281355
0.00197816
-0.000718311
0.00264877
-0.00123617
0.0034525
-0.00191362
0.00437282
-0.0026312
0.00543172
-0.00355487
0.00656049
-0.00450857
0.00780081
-0.00548677
-0.00670124
0.008999
0.000634578
0.000258606
0.000981666
-2.52823e-05
0.00142683
-0.000386784
0.00198181
-0.00083634
0.00265803
-0.00139453
0.00346068
-0.00203882
0.00439292
-0.00284586
0.00543902
-0.0036773
0.00658984
-0.00470568
0.00775953
-0.00567827
0.00898817
-0.00671541
-0.00777484
0.0100618
0.000919645
0.00135047
-0.000456106
0.00189456
-0.000930872
0.00256307
-0.00150486
0.00336103
-0.00219248
0.00428949
-0.00296728
0.00532711
-0.00388348
0.00645293
-0.00480313
0.00761971
-0.00587246
0.00874785
-0.00680641
0.00985081
-0.00781837
-0.0086604
0.0107364
0.00174195
-0.000980251
0.00239423
-0.00158316
0.00318043
-0.00229105
0.00409274
-0.0031048
0.00511914
-0.00399369
0.00621227
-0.0049766
0.00734184
-0.00593269
0.00843437
-0.00696499
0.00943662
-0.00780866
0.0103413
-0.00872306
-0.00935318
0.0110341
0.00217135
-0.00160817
0.00293593
-0.00234773
0.00383003
-0.00318516
0.00482713
-0.0041019
0.00589621
-0.00506277
0.00697172
-0.00605211
0.00801968
-0.00698065
0.00896538
-0.00791069
0.00979386
-0.00863714
0.0104981
-0.00942729
-0.00989814
0.0110431
0.00264373
-0.00234371
0.0035097
-0.00321371
0.00447942
-0.00415488
0.0055071
-0.00512958
0.00654627
-0.00610194
0.00753036
-0.0070362
0.00843496
-0.00788525
0.00920635
-0.00868207
0.00986882
-0.00929962
0.0104212
-0.00997965
-0.0103539
0.0108769
0.0031462
0.00408152
-0.00414903
0.00507343
-0.00514679
0.0060653
-0.00612144
0.00700846
-0.0070451
0.00785431
-0.00788205
0.00859826
-0.00862921
0.00921487
-0.00929868
0.00975518
-0.00983993
0.0102123
-0.0104368
-0.0107639
0.0106224
0.0046014
-0.00510365
0.00555458
-0.00609997
0.00645382
-0.00702069
0.00726375
-0.00785503
0.0079639
-0.00858219
0.0085682
-0.00923351
0.00907273
-0.0098032
0.00953657
-0.0103038
0.00993738
-0.0108376
-0.0111533
0.0103267
0.00502113
0.00588618
-0.00696501
0.00666276
-0.00779727
0.00733684
-0.00852912
0.00791307
-0.00915842
0.00841382
-0.00973426
0.00884644
-0.0102358
0.00926387
-0.0107212
0.0096292
-0.0112029
-0.0115364
0.0100123
0.00606351
-0.00771671
0.00671619
-0.00844994
0.00727482
-0.00908775
0.00775847
-0.00964207
0.00818817
-0.010164
0.0085764
-0.010624
0.00896226
-0.0111071
0.00930404
-0.0115447
-0.0119215
0.00968915
0.00610763
0.00665337
-0.00899568
0.00712387
-0.00955825
0.00754237
-0.0100606
0.00792423
-0.0105458
0.00828425
-0.0109841
0.00864334
-0.0114661
0.00896946
-0.0118708
-0.0123104
0.00935839
0.00651189
-0.00945718
0.00691846
-0.00996481
0.00729133
-0.0104334
0.00764043
-0.0108949
0.00798089
-0.0113245
0.00831391
-0.0117992
0.00862071
-0.0121776
-0.0127157
0.00902596
0.00631807
0.00667877
-0.0103255
0.00701866
-0.0107733
0.00734405
-0.0112203
0.00766811
-0.0116486
0.00798305
-0.0121141
0.00829848
-0.0124931
-0.0130173
0.0086001
0.00642245
-0.0106522
0.00673685
-0.0110877
0.00704319
-0.0115267
0.00735028
-0.0119557
0.00764817
-0.012412
0.00796496
-0.0128099
-0.0133245
0.00827212
0.00615496
0.00644825
-0.011381
0.00673731
-0.0118157
0.00702744
-0.0122458
0.00731608
-0.0127006
0.00761277
-0.0131065
-0.0136146
0.00790291
0.00615487
0.00642708
-0.0120879
0.0067022
-0.0125209
0.00697451
-0.0129729
0.00725868
-0.0133907
-0.0139013
0.00754542
0.00611346
0.00637171
-0.0127792
0.00663052
-0.0132318
0.0069005
-0.0136607
-0.014167
0.00716614
0.00603795
0.00628066
-0.0134745
0.00653321
-0.0139132
-0.01442
0.00678627
0.00592618
0.00616217
-0.0141492
-0.0146544
0.00639648
0.00578426
0.00600127
0.00578426
0.0141492
0.0146544
0.00600127
0.00592618
0.0134745
0.00616217
0.0139132
0.01442
0.00639648
0.00603795
0.0127792
0.00628066
0.0132318
0.00653321
0.0136607
0.014167
0.00678627
0.00611346
0.0120879
0.00637171
0.0125209
0.00663052
0.0129729
0.0069005
0.0133907
0.0139013
0.00716614
0.00615487
0.011381
0.00642708
0.0118157
0.0067022
0.0122458
0.00697451
0.0127006
0.00725868
0.0131065
0.0136146
0.00754542
0.00615496
0.0106522
0.00644825
0.0110877
0.00673731
0.0115267
0.00702744
0.0119557
0.00731607
0.012412
0.00761277
0.0128099
0.0133245
0.00790291
0.00642245
0.0103255
0.00673685
0.0107733
0.00704319
0.0112203
0.00735028
0.0116486
0.00764817
0.0121141
0.00796495
0.0124931
0.0130173
0.00827212
0.00631807
0.00945718
0.00667877
0.00996482
0.00701866
0.0104334
0.00734405
0.0108949
0.00766811
0.0113245
0.00798305
0.0117992
0.00829848
0.0121776
0.0127157
0.0086001
0.00651189
0.00899569
0.00691846
0.00955825
0.00729133
0.0100606
0.00764043
0.0105458
0.00798089
0.0109841
0.00831391
0.0114661
0.00862071
0.0118708
0.0123104
0.00902596
0.00610763
0.00771671
0.00665337
0.00844994
0.00712387
0.00908775
0.00754237
0.00964207
0.00792423
0.010164
0.00828425
0.0106241
0.00864334
0.0111071
0.00896946
0.0115447
0.0119215
0.00935839
0.00606351
0.00696501
0.00671619
0.00779727
0.00727482
0.00852912
0.00775847
0.00915842
0.00818817
0.00973427
0.0085764
0.0102358
0.00896226
0.0107212
0.00930404
0.0112029
0.0115364
0.00968915
0.00502113
0.00510365
0.00588618
0.00609997
0.00666276
0.00702069
0.00733684
0.00785504
0.00791307
0.0085822
0.00841382
0.00923351
0.00884644
0.0098032
0.00926386
0.0103038
0.0096292
0.0108376
0.0111533
0.0100123
0.0046014
0.00414903
0.00555458
0.00514679
0.00645382
0.00612145
0.00726375
0.0070451
0.0079639
0.00788205
0.0085682
0.00862921
0.00907272
0.00929868
0.00953657
0.00983993
0.00993738
0.0104368
0.0107639
0.0103267
0.0031462
0.00234371
0.00408152
0.00321371
0.00507343
0.00415488
0.0060653
0.00512958
0.00700846
0.00610194
0.00785431
0.0070362
0.00859826
0.00788526
0.00921487
0.00868208
0.00975517
0.00929962
0.0102123
0.00997965
0.0103539
0.0106224
0.00264373
0.00160817
0.0035097
0.00234773
0.00447942
0.00318516
0.0055071
0.0041019
0.00654628
0.00506277
0.00753036
0.00605212
0.00843496
0.00698066
0.00920635
0.00791069
0.00986882
0.00863715
0.0104212
0.0094273
0.00989814
0.0108769
0.00217135
0.000980251
0.00293593
0.00158316
0.00383003
0.00229105
0.00482714
0.0031048
0.00589622
0.00399369
0.00697173
0.00497661
0.00801968
0.0059327
0.00896538
0.006965
0.00979386
0.00780867
0.0104981
0.00872306
0.00935318
0.0110431
0.00174195
0.000456105
0.00239423
0.000930871
0.00318043
0.00150486
0.00409274
0.00219248
0.00511915
0.00296728
0.00621228
0.00388348
0.00734184
0.00480313
0.00843437
0.00587247
0.00943662
0.00680642
0.0103413
0.00781837
0.00866041
0.0110341
0.000919647
-0.000258608
0.00135047
2.5281e-05
0.00189456
0.000386783
0.00256308
0.00083634
0.00336103
0.00139453
0.0042895
0.00203882
0.00532711
0.00284587
0.00645293
0.00367731
0.00761971
0.00470569
0.00874785
0.00567828
0.00985081
0.00671542
0.00777484
0.0107364
0.00063458
-0.000519774
0.000981668
-0.000321807
0.00142683
-5.8378e-05
0.00198181
0.000281355
0.00265803
0.000718312
0.00346068
0.00123617
0.00439292
0.00191363
0.00543903
0.0026312
0.00658984
0.00355488
0.00775954
0.00450858
0.00898817
0.00548678
0.00670125
0.0100618
0.000350986
-0.000714714
0.000619385
-0.000590207
0.000972318
-0.000411311
0.0014208
-0.000167128
0.00197817
0.000160946
0.00264877
0.000565564
0.00345251
0.00110989
0.00437282
0.00171089
0.00543172
0.00249598
0.0065605
0.0033798
0.00780081
0.00424647
0.00550306
0.008999
6.32171e-05
-0.000842953
0.000253144
-0.000780134
0.000515252
-0.000673419
0.000859982
-0.000511858
0.00130051
-0.000279586
0.00184125
2.48248e-05
0.00250793
0.00044322
0.00328377
0.00093504
0.00420552
0.00157424
0.00523415
0.00235117
0.0063842
0.00309641
0.00427657
0.00761069
-0.000227688
-0.000902677
-0.0001187
-0.000889122
4.9589e-05
-0.000841708
0.000287974
-0.000750244
0.000608728
-0.00060034
0.00101887
-0.00038532
0.00154124
-7.91512e-05
0.00216644
0.000309847
0.00293002
0.000810656
0.00381909
0.0014621
0.00482093
0.00209457
0.00311588
0.00598163
-0.000514866
-0.000892865
-0.000489031
-0.000914958
-0.00041799
-0.000912749
-0.000291476
-0.000876757
-9.73281e-05
-0.000794488
0.00017507
-0.000657718
0.000543744
-0.000447826
0.00101088
-0.000157285
0.00160206
0.000219472
0.00232189
0.000742275
0.00315362
0.00126284
0.00209469
0.0041748
-0.000709286
-0.000762863
-0.000787046
-0.000815105
-0.000843869
-0.000858134
-0.000871319
-0.000885299
-0.000859577
-0.000888499
-0.000796539
-0.000857526
-0.000670604
-0.000783653
-0.000466731
-0.000651699
-0.000172887
-0.000451129
0.000237888
-0.000191304
0.000756955
0.000223209
0.00140951
0.000610291
0.00126523
0.00223896
-0.000890031
-0.000621522
-0.00103029
-0.000674841
-0.00116449
-0.000723938
-0.00128588
-0.000763905
-0.00138587
-0.000788516
-0.00145337
-0.000790023
-0.00147635
-0.000760673
-0.00143939
-0.000688661
-0.00132425
-0.000566271
-0.00112492
-0.000390633
-0.000799554
-0.000102155
-0.000351227
0.000161963
0.000661748
0.000252259
-0.00103701
-0.00043913
-0.00122983
-0.000482025
-0.00143013
-0.000523639
-0.00163321
-0.000560818
-0.0018323
-0.000589426
-0.00201803
-0.000604294
-0.00217901
-0.000599696
-0.00229998
-0.000567686
-0.00236361
-0.000502645
-0.00235784
-0.000396405
-0.00223373
-0.000226259
-0.0020194
-5.23723e-05
0.000263676
-0.00162133
-0.00114097
-0.000227274
-0.00137193
-0.000251065
-0.00162084
-0.000274737
-0.00188488
-0.000296771
-0.00215918
-0.00031513
-0.00243623
-0.000327242
-0.00270583
-0.000330095
-0.00295379
-0.000319728
-0.00316347
-0.000292965
-0.00331553
-0.000244344
-0.00337402
-0.000167764
-0.00334492
-8.14775e-05
6.79638e-05
-0.00314921
-0.00119488
-0.00144594
-0.00172067
-0.00201744
-0.00233257
-0.00265981
-0.00298991
-0.00330964
-0.0036026
-0.00384695
-0.00401472
-0.0040962
-0.00402825
-0.00387238
-0.000155865
-3.24399e-09
-0.00368863
-0.000183744
-3.36309e-09
-0.00347603
-0.000212597
-3.42894e-09
-0.00323388
-0.000242142
-3.43454e-09
-0.00296189
-0.000271992
-3.372e-09
-0.00266027
-0.000301612
-3.23457e-09
-0.00232976
-0.000330505
-3.01466e-09
-0.00197133
-0.000358433
-2.70627e-09
-0.00158757
-0.000383753
-2.3269e-09
-0.00118085
-0.00040672
-1.86907e-09
-0.000754515
-0.000426336
-1.34668e-09
-0.000310043
-0.000444471
-7.8041e-10
0.000146309
-0.000456352
-1.63921e-10
0.000610978
-0.00046467
4.48932e-10
0.00107978
-0.000468805
1.06085e-09
0.00154837
-0.000468591
1.64565e-09
0.00201253
-0.00046416
2.18133e-09
0.00246831
-0.000455786
2.64922e-09
0.00291217
-0.000443865
3.03393e-09
0.00334107
-0.000428897
3.32451e-09
0.00375252
-0.000411453
3.51408e-09
0.00414466
-0.000392146
3.59994e-09
0.00451622
-0.000371561
3.58342e-09
0.00486636
-0.00035015
3.47049e-09
0.00519474
-0.000328377
3.26977e-09
0.00550139
-0.000306657
2.99155e-09
0.00578671
-0.000285322
2.64831e-09
0.00605133
-0.000264623
2.25307e-09
0.00629607
-0.000244739
1.81897e-09
0.00652184
-0.000225776
1.36035e-09
0.00672966
-0.000207817
8.91464e-10
0.00692057
-0.000190916
4.25183e-10
0.00709573
-0.000175157
-2.43274e-11
0.00725632
-0.000160584
-4.4477e-10
0.00740361
-0.000147293
-8.24818e-10
0.00753886
-0.000135253
-1.15426e-09
0.0076634
-0.000124539
-1.42144e-09
0.00777836
-0.000114959
-1.61949e-09
0.00788498
-0.000106616
-1.74024e-09
0.00798406
-9.90713e-05
-1.78101e-09
0.00807674
-9.2679e-05
-1.73494e-09
0.00816336
-8.66255e-05
-1.60986e-09
0.00824543
-8.20673e-05
-1.40162e-09
0.00832237
-7.6938e-05
-1.13928e-09
0.0083963
-7.39294e-05
-8.27924e-10
0.00846342
-6.71196e-05
-5.30999e-10
0.00852739
-6.39702e-05
-2.39819e-10
0.00857783
-5.04423e-05
-3.35413e-11
0.00862501
-4.7179e-05
1.34944e-10
-2.42518e-05
2.24651e-10
-0.00299495
-0.000310129
-0.00281619
-0.000362502
-0.00260992
-0.00041886
-0.00237578
-0.000476284
-0.00211367
-0.000534101
-0.00182386
-0.000591426
-0.00150724
-0.000647124
-0.00116432
-0.000701352
-0.000797918
-0.000750156
-0.000410144
-0.000794494
-3.38446e-06
-0.000833096
0.000414582
-0.000862437
0.000844792
-0.000886562
0.00128238
-0.000902253
0.00172291
-0.000909344
0.00216221
-0.000907888
0.00259625
-0.000898204
0.00302134
-0.000880877
0.00343421
-0.000856728
0.00383207
-0.000826758
0.00421271
-0.000792091
0.00457448
-0.000753921
0.00491634
-0.000713417
0.0052377
-0.000671515
0.00553835
-0.000629023
0.00581845
-0.000586753
0.00607846
-0.000545334
0.00631907
-0.000505236
0.00654112
-0.000466788
0.00674552
-0.000430178
0.00693326
-0.000395552
0.00710534
-0.000363003
0.00726289
-0.000332698
0.00740703
-0.000304724
0.00753901
-0.000279275
0.00766004
-0.000256288
0.00777141
-0.000235905
0.00787419
-0.000217739
0.00796956
-0.000201984
0.00805825
-0.000187764
0.00814133
-0.000175764
0.00821908
-0.000164368
0.00829286
-0.000155849
0.00836209
-0.000146168
0.00842879
-0.000140628
0.00848937
-0.000127702
0.00854733
-0.00012193
0.00859293
-9.60395e-05
0.00863573
-8.99811e-05
-4.5898e-05
-0.00147227
-0.000459192
-0.00130203
-0.000532735
-0.00110828
-0.000612612
-0.000890039
-0.000694527
-0.000647237
-0.000776903
-0.000379999
-0.000858665
-8.86644e-05
-0.000938459
0.000222079
-0.0010121
0.00055328
-0.00108136
0.000902497
-0.00114371
0.00126665
-0.00119725
0.00164435
-0.00124014
0.0020302
-0.00127241
0.00242077
-0.00129282
0.00281231
-0.00130088
0.00320108
-0.00129666
0.00358352
-0.00128065
0.0039564
-0.00125375
0.00431686
-0.0012172
0.00466258
-0.00117248
0.00499173
-0.00112123
0.00530299
-0.00106518
0.00559558
-0.00100601
0.00586925
-0.000945188
0.00612404
-0.000883811
0.00636023
-0.000822948
0.00657841
-0.000763509
0.0067793
-0.00070613
0.00696376
-0.000651245
0.00713267
-0.000599086
0.00728694
-0.000549829
0.00742753
-0.000503592
0.00755546
-0.000460622
0.00767179
-0.00042106
0.00777773
-0.00038521
0.00787443
-0.000352988
0.00796312
-0.000324595
0.00804482
-0.000299438
0.00812062
-0.000277787
0.00819117
-0.000258318
0.00825742
-0.000242012
0.00831951
-0.000226456
0.00837863
-0.00021497
0.00843417
-0.000201705
0.00848796
-0.000194418
0.00853682
-0.000176564
0.00858395
-0.000169054
0.00862078
-0.000132875
0.00865563
-0.000124829
-6.28078e-05
0.000389885
-0.000596821
0.000544843
-0.000687693
0.000718344
-0.000786113
0.000911477
-0.00088766
0.0011242
-0.000989625
0.00135633
-0.0010908
0.00160723
-0.00118935
0.0018771
-0.00128197
0.00216348
-0.00136774
0.00246413
-0.00144436
0.00277661
-0.00150972
0.0030985
-0.00156203
0.00342627
-0.00160019
0.00375665
-0.0016232
0.00408636
-0.0016306
0.00441223
-0.00162253
0.00473127
-0.00159969
0.0050408
-0.00156327
0.0053385
-0.0015149
0.00562252
-0.00145649
0.00589143
-0.00139015
0.00614427
-0.00131802
0.00638047
-0.00124221
0.00659994
-0.00116466
0.00680297
-0.00108684
0.00698991
-0.00100989
0.00716136
-0.000934954
0.00731803
-0.0008628
0.0074607
-0.000793918
0.00759016
-0.000728541
0.00770717
-0.000666845
0.00781253
-0.000608956
0.00790713
-0.000555213
0.00799191
-0.000505847
0.00806802
-0.000461317
0.00813658
-0.000421547
0.0081988
-0.000386812
0.00825567
-0.000356307
0.00830823
-0.000330352
0.00835708
-0.000307167
0.00840303
-0.000287967
0.00844614
-0.000269558
0.00848735
-0.000256189
0.00852606
-0.000240411
0.00856386
-0.000232214
0.0085981
-0.000210805
0.00863157
-0.000202533
0.00865732
-0.000158622
0.00868202
-0.000149526
-7.36781e-05
0.0023485
-0.000706363
0.00247975
-0.000818948
0.00262702
-0.000933375
0.00278883
-0.00104947
0.00296525
-0.00116604
0.00315634
-0.00128189
0.00336177
-0.00139478
0.00358136
-0.00150155
0.0038133
-0.00159968
0.00405567
-0.00168674
0.00430646
-0.00176051
0.00456345
-0.00181902
0.00482404
-0.00186078
0.00508562
-0.00188477
0.00534559
-0.00189057
0.00560149
-0.00187843
0.00585105
-0.00184925
0.00609226
-0.00180448
0.0063234
-0.00174605
0.00654314
-0.00167622
0.00675043
-0.00159744
0.00694459
-0.00151217
0.0071252
-0.00142283
0.00729217
-0.00133163
0.00744578
-0.00124045
0.00758643
-0.00115054
0.00771455
-0.00106307
0.0078307
-0.000978953
0.00793549
-0.000898702
0.00802945
-0.000822504
0.0081131
-0.0007505
0.00818696
-0.000682807
0.00825162
-0.000619878
0.00830786
-0.000562091
0.00835669
-0.000510143
0.00839919
-0.000464047
0.00843658
-0.000424197
0.00846987
-0.000389597
0.00850011
-0.000360596
0.00852789
-0.000334951
0.00855397
-0.00031404
0.00857831
-0.000293897
0.00860167
-0.000279557
0.00862345
-0.000262191
0.00864499
-0.000253749
0.00866423
-0.000230043
0.00868352
-0.000221829
0.00869768
-0.000172775
0.00871164
-0.000163488
-7.81873e-05
0.00426201
-0.000793572
0.00436492
-0.000921862
0.00447991
-0.00104836
0.00460453
-0.00117409
0.00473863
-0.00130014
0.00488265
-0.00142591
0.0050365
-0.00154863
0.00519959
-0.00166465
0.00537068
-0.00177076
0.00554833
-0.00186439
0.00573105
-0.00194322
0.0059172
-0.00200518
0.00610503
-0.00204861
0.00629274
-0.00207248
0.00647865
-0.00207647
0.00666117
-0.00206095
0.00683886
-0.00202695
0.00701049
-0.00197611
0.007175
-0.00191056
0.00733153
-0.00183276
0.00747943
-0.00174534
0.0076182
-0.00165094
0.0077475
-0.00155213
0.00786714
-0.00145127
0.00797717
-0.00135047
0.00807788
-0.00125125
0.00816947
-0.00115466
0.00825223
-0.00106171
0.00832645
-0.000972925
0.00839237
-0.000888423
0.00845013
-0.000808257
0.00849982
-0.000732506
0.00854168
-0.000661736
0.00857613
-0.000596538
0.00860394
-0.000537952
0.00862609
-0.000486201
0.00864379
-0.000441894
0.00865809
-0.000403901
0.0086701
-0.000372606
0.00868046
-0.000345305
0.00868989
-0.000323472
0.00869837
-0.000302374
0.00870648
-0.000287675
0.00871367
-0.000269372
0.00872098
-0.000261066
0.00872697
-0.000236027
0.00873352
-0.000228379
0.0087372
-0.000176455
0.00874132
-0.000167608
-7.69402e-05
0.00604439
-0.000856342
0.00611657
-0.000994034
0.00619459
-0.00112638
0.00627671
-0.00125622
0.00636325
-0.00138668
0.00645499
-0.00151765
0.00655198
-0.00164563
0.00665371
-0.00176637
0.00675938
-0.00187643
0.0068682
-0.00197322
0.00697935
-0.00205437
0.00709191
-0.00211774
0.00720497
-0.00216167
0.00731771
-0.00218522
0.00742938
-0.00218815
0.00753935
-0.00217092
0.00764703
-0.00213463
0.00775191
-0.00208098
0.0078535
-0.00201215
0.00795138
-0.00193064
0.00804515
-0.0018391
0.00813441
-0.00174021
0.0082188
-0.00163652
0.00829794
-0.00153042
0.00837155
-0.00142409
0.0084396
-0.00131929
0.00850212
-0.00121719
0.00855901
-0.0011186
0.00861026
-0.00102417
0.00865576
-0.000933929
0.00869529
-0.000847787
0.00872851
-0.000765727
0.00875518
-0.000688402
0.00877528
-0.000616637
0.00878924
-0.000551909
0.00879783
-0.000494794
0.00880218
-0.000446243
0.00880337
-0.000405093
0.00880256
-0.000371797
0.00880047
-0.000343215
0.00879786
-0.000320859
0.00879473
-0.000299246
0.00879156
-0.000284509
0.00878784
-0.000265647
0.00878437
-0.000257595
0.00878018
-0.000231846
0.00877675
-0.000224947
0.00877222
-0.000171919
0.00876848
-0.000163868
-7.12556e-05
0.00764036
-0.000886023
0.00767505
-0.00102872
0.0077105
-0.00116183
0.00774519
-0.00129091
0.00777998
-0.00142147
0.00781567
-0.00155334
0.00785224
-0.0016822
0.00788945
-0.00180359
0.00792745
-0.00191443
0.0079663
-0.00201206
0.00800594
-0.00209401
0.00804625
-0.00215806
0.00808717
-0.00220259
0.00812874
-0.00222679
0.00817114
-0.00223054
0.0082145
-0.00221429
0.00825895
-0.00217908
0.00830451
-0.00212654
0.00835111
-0.00205874
0.00839855
-0.00197808
0.00844652
-0.00188708
0.00849461
-0.00178829
0.00854227
-0.00168418
0.00858893
-0.00157708
0.00863397
-0.00146913
0.00867689
-0.00136222
0.00871748
-0.00125777
0.00875543
-0.00115655
0.00879037
-0.00105911
0.00882193
-0.000965489
0.00884959
-0.000875446
0.00887266
-0.000788795
0.00889046
-0.000706205
0.00890253
-0.000628709
0.00890889
-0.00055827
0.00891003
-0.000495926
0.00890689
-0.000443111
0.00890055
-0.000398751
0.00889219
-0.00036344
0.00888263
-0.000333647
0.00887266
-0.000310888
0.00886236
-0.000288951
0.00885215
-0.000274293
0.00884156
-0.000255062
0.00883118
-0.000247211
0.00882043
-0.000221099
0.00881037
-0.000214886
0.00880043
-0.000161984
0.00879141
-0.000154846
-6.28849e-05
0.00898817
-0.000875196
0.00897903
-0.00101958
0.00896701
-0.00114981
0.00895075
-0.00127466
0.00893167
-0.00140238
0.00891072
-0.0015324
0.00888786
-0.00165933
0.00886296
-0.00177869
0.00883654
-0.00188801
0.00880979
-0.00198532
0.00878372
-0.00206794
0.00875899
-0.00213332
0.00873624
-0.00217984
0.00871623
-0.00220678
0.00869975
-0.00221406
0.00868751
-0.00220205
0.00868004
-0.00217161
0.00867768
-0.00212417
0.0086805
-0.00206157
0.00868837
-0.00198595
0.00870091
-0.00189962
0.00871755
-0.00180493
0.00873757
-0.0017042
0.00876014
-0.00159964
0.00878434
-0.00149333
0.00880935
-0.00138722
0.00883449
-0.00128292
0.00885939
-0.00118145
0.00888348
-0.0010832
0.00890614
-0.00098815
0.00892668
-0.000895986
0.00894419
-0.000806306
0.00895769
-0.000719706
0.00896634
-0.000637354
0.00896975
-0.000561683
0.00896808
-0.000494259
0.00896208
-0.00043711
0.00895271
-0.00038938
0.00894116
-0.000351893
0.00892831
-0.000320797
0.00891502
-0.000297592
0.00890145
-0.000275378
0.00888797
-0.000260813
0.00887421
-0.000241309
0.00886055
-0.000233547
0.0088467
-0.000207249
0.00883334
-0.000201531
0.00882089
-0.00014953
0.00880931
-0.000143266
-5.37338e-05
0.0100113
-0.000824739
0.00995938
-0.000967646
0.00990206
-0.00109248
0.00983851
-0.00121111
0.00977058
-0.00133445
0.0096993
-0.00146112
0.00962474
-0.00158477
0.00954718
-0.00170114
0.00946764
-0.00180846
0.00938749
-0.00190517
0.00930853
-0.00198898
0.00923229
-0.00205709
0.00916006
-0.0021076
0.00909303
-0.00213975
0.00903233
-0.00215337
0.00897894
-0.00214865
0.00893355
-0.00212623
0.00889659
-0.00208721
0.00886814
-0.00203312
0.008848
-0.0019658
0.00883567
-0.00188729
0.00883043
-0.0017997
0.00883137
-0.00170515
0.00883747
-0.00160573
0.00884762
-0.00150349
0.00886075
-0.00140035
0.00887592
-0.00129809
0.00889243
-0.00119796
0.00890979
-0.00110055
0.00892725
-0.00100561
0.008944
-0.000912737
0.00895904
-0.000821345
0.00897123
-0.000731891
0.00897945
-0.000645578
0.00898301
-0.000565242
0.00898174
-0.000492986
0.00897612
-0.000431496
0.008967
-0.000380254
0.00895551
-0.000340402
0.00894256
-0.000307853
0.00892907
-0.000284095
0.00891528
-0.000261591
0.00890157
-0.000247104
0.00888766
-0.000227398
0.00887374
-0.000219633
0.00885975
-0.000193252
0.00884604
-0.000187826
0.00883368
-0.000137168
0.00882209
-0.000131675
-4.56557e-05
0.0106573
-0.000745683
0.0105736
-0.000883902
0.0104826
-0.00100155
0.0103845
-0.00111302
0.0102814
-0.00123132
0.0101742
-0.00135394
0.0100632
-0.00147378
0.0099492
-0.00158709
0.00983352
-0.00169278
0.00971789
-0.00178954
0.00960396
-0.00187505
0.00949383
-0.00194695
0.00938931
-0.00200309
0.00929192
-0.00204236
0.0092029
-0.00206436
0.0091233
-0.00206905
0.00905385
-0.00205678
0.00899498
-0.00202833
0.00894674
-0.00198488
0.00890885
-0.00192791
0.00888074
-0.00185919
0.00886162
-0.00178057
0.00885046
-0.00169399
0.00884615
-0.00160142
0.00884749
-0.00150483
0.00885329
-0.00140616
0.00886249
-0.00130728
0.00887417
-0.00120964
0.00888769
-0.00111407
0.00890247
-0.00102039
0.00891765
-0.000927916
0.00893218
-0.000835884
0.00894489
-0.000744595
0.00895451
-0.000655202
0.00896012
-0.000570846
0.00896125
-0.000494122
0.00895816
-0.000428404
0.0089515
-0.000373592
0.00894233
-0.000331235
0.00893157
-0.000297096
0.00892015
-0.000272672
0.00890841
-0.000249852
0.00889674
-0.000235436
0.00888496
-0.000215613
0.00887314
-0.000207814
0.00886133
-0.000181439
0.00884966
-0.000176161
0.00883957
-0.000127079
0.00883016
-0.000122261
-4.03189e-05
0.0109422
-0.000653793
0.0108431
-0.000784774
0.0107355
-0.000894
0.0106204
-0.000997941
0.0105
-0.00111088
0.0103751
-0.00122899
0.010246
-0.0013447
0.0101139
-0.00145499
0.00998047
-0.00155937
0.00984751
-0.00165658
0.00971668
-0.00174421
0.00958981
-0.00182009
0.00946913
-0.0018824
0.00935634
-0.00192957
0.0092528
-0.00196081
0.00915955
-0.00197579
0.00907736
-0.00197459
0.00900667
-0.00195764
0.00894754
-0.00192575
0.0088997
-0.00188007
0.00886259
-0.00182208
0.00883542
-0.00175339
0.00881717
-0.00167575
0.00880674
-0.00159098
0.00880292
-0.00150101
0.00880452
-0.00140776
0.00881041
-0.00131318
0.00881963
-0.00121886
0.00883141
-0.00112585
0.00884514
-0.00103411
0.00886015
-0.000942934
0.00887544
-0.000851173
0.00888979
-0.000758944
0.0089019
-0.000667308
0.00891067
-0.000579621
0.00891545
-0.0004989
0.00891623
-0.000429184
0.00891349
-0.000370854
0.00890819
-0.000325931
0.00890121
-0.000290114
0.00889347
-0.000264938
0.00888541
-0.000241786
0.00887743
-0.000227457
0.00886943
-0.00020762
0.00886144
-0.000199821
0.00885356
-0.000173559
0.00884578
-0.000168376
0.00883969
-0.000120989
0.00883423
-0.000116806
-3.91442e-05
0.0109512
-0.00056192
0.0108508
-0.000684389
0.0107414
-0.000784643
0.0106246
-0.000881062
0.0105022
-0.00098848
0.0103748
-0.00110162
0.0102429
-0.00121281
0.0101078
-0.00131992
0.00997138
-0.00142293
0.00983523
-0.00152042
0.009701
-0.00160998
0.00957041
-0.0016895
0.00944553
-0.00175752
0.00932826
-0.0018123
0.00922003
-0.00185259
0.00912195
-0.00187772
0.00903485
-0.00188749
0.00895923
-0.00188201
0.00889522
-0.00186173
0.00884263
-0.00182749
0.00880101
-0.00178046
0.00876962
-0.00172201
0.00874757
-0.0016537
0.0087338
-0.00157722
0.0087272
-0.0014944
0.00872662
-0.00140717
0.00873095
-0.00131751
0.00873924
-0.00122715
0.00875067
-0.00113728
0.00876459
-0.00104804
0.00878038
-0.000958722
0.00879724
-0.00086803
0.00881398
-0.000775688
0.00882927
-0.000682601
0.00884193
-0.00059228
0.00885113
-0.000508093
0.00885665
-0.000434709
0.00885881
-0.000373012
0.00885842
-0.000325545
0.00885633
-0.000288019
0.00885343
-0.000262042
0.00885021
-0.000238561
0.0088471
-0.000224354
0.0088441
-0.000204618
0.00884119
-0.000196905
0.00883851
-0.000170885
0.00883597
-0.000165835
0.0088352
-0.000120215
0.00883508
-0.000116692
-4.33032e-05
0.0107917
-0.000476697
0.0106977
-0.000590373
0.0105948
-0.000681743
0.0104849
-0.000771137
0.0103695
-0.000873164
0.0102489
-0.000980979
0.0101234
-0.00108726
0.0099944
-0.00119096
0.00986376
-0.00129229
0.00973292
-0.00138957
0.00960337
-0.00148043
0.00947683
-0.00156297
0.00935504
-0.00163573
0.00923991
-0.00169717
0.00913297
-0.00174564
0.0090354
-0.00178015
0.00894812
-0.00180021
0.00887172
-0.00180562
0.00880646
-0.00179648
0.00875229
-0.00177332
0.00870888
-0.00173704
0.00867565
-0.00168878
0.00865183
-0.00162988
0.00863651
-0.0015619
0.00862868
-0.00148657
0.00862727
-0.00140576
0.00863125
-0.0013215
0.00863968
-0.00123557
0.00865175
-0.00114936
0.00866681
-0.0010631
0.00868425
-0.000976158
0.00870331
-0.000887093
0.00872302
-0.000795393
0.00874203
-0.000701617
0.0087591
-0.000609346
0.00877325
-0.000522249
0.00878413
-0.000445582
0.00879186
-0.000380742
0.00879714
-0.000330827
0.00880073
-0.000291613
0.00880351
-0.00026482
0.00880598
-0.000241029
0.00880862
-0.000226995
0.00881148
-0.000207477
0.00881454
-0.000199966
0.00881799
-0.000174337
0.00882169
-0.000169532
0.00882721
-0.000125739
0.00883349
-0.000122968
-5.37383e-05
0.010546
-0.000400303
0.0104607
-0.000505122
0.0103671
-0.000588084
0.0102674
-0.000671485
0.0101628
-0.000768536
0.0100526
-0.000870821
0.00993739
-0.000972026
0.00981866
-0.00107222
0.00969791
-0.00117154
0.00957637
-0.00126803
0.00945541
-0.00135947
0.00933667
-0.00144423
0.0092217
-0.00152076
0.00911215
-0.00158763
0.00900963