/*--------------------------------*- C++ -*----------------------------------*\
  =========                 |
  \\      /  F ield         | OpenFOAM: The Open Source CFD Toolbox
   \\    /   O peration     | Website:  https://openfoam.org
    \\  /    A nd           | Version:  7
     \\/     M anipulation  |
\*---------------------------------------------------------------------------*/
FoamFile
{
    version     2.0;
    format      ascii;
    class       volVectorField;
    location    "10";
    object      U;
}
// * * * * * * * * * * * * * * * * * * * * * * * * * * * * * * * * * * * * * //

dimensions      [0 1 -1 0 0 0 0];

internalField   nonuniform List<vector> 
6050
(
(-0.253718 0.00790417 3.88741e-20)
(-0.285943 0.0081378 -5.4241e-20)
(-0.317541 0.00830659 3.22068e-20)
(-0.348232 0.00834365 1.71148e-20)
(-0.377496 0.00817181 6.31481e-21)
(-0.404577 0.00770594 -2.10983e-20)
(-0.428499 0.00686071 -1.22938e-20)
(-0.44803 0.00553404 -8.14521e-21)
(-0.46181 0.00367428 3.40187e-20)
(-0.468196 0.00116891 -3.97347e-20)
(-0.465549 -0.00203869 -8.21928e-21)
(-0.452796 -0.00529283 9.20628e-21)
(-0.425912 -0.0100729 -2.53261e-20)
(-0.244628 0.023412 -1.69571e-19)
(-0.273941 0.0240577 1.05275e-19)
(-0.302045 0.0245033 -8.38911e-20)
(-0.328589 0.024551 1.00549e-20)
(-0.352988 0.0239744 -5.10191e-20)
(-0.374438 0.0225254 1.8791e-20)
(-0.391954 0.019965 3.85736e-20)
(-0.404304 0.01599 6.51841e-20)
(-0.410269 0.0104693 3.96695e-20)
(-0.408384 0.00314305 1.0969e-19)
(-0.39664 -0.00647047 9.87967e-21)
(-0.376299 -0.015586 -8.57541e-20)
(-0.337549 -0.0302489 5.86931e-20)
(-0.226981 0.0380432 1.43634e-20)
(-0.250735 0.0389453 -4.03899e-20)
(-0.272229 0.0394987 8.32319e-20)
(-0.291008 0.0393832 -2.56476e-20)
(-0.306412 0.0382393 3.06307e-20)
(-0.317584 0.0356728 -3.1598e-20)
(-0.323595 0.03134 -6.13529e-20)
(-0.323229 0.0247481 -7.18425e-20)
(-0.315512 0.0157383 -8.88325e-20)
(-0.299736 0.0042352 -1.7899e-19)
(-0.271804 -0.0118098 6.49513e-20)
(-0.240981 -0.0256208 5.35013e-20)
(-0.181292 -0.0500311 1.59565e-19)
(-0.201768 0.0512761 -1.2135e-20)
(-0.217783 0.0522022 -3.58518e-21)
(-0.230202 0.0526182 -2.39064e-19)
(-0.238492 0.0520969 -1.15977e-19)
(-0.241968 0.0501709 5.51066e-20)
(-0.239766 0.0463194 6.60881e-21)
(-0.231158 0.0401632 5.63226e-20)
(-0.214987 0.0310392 -1.72862e-19)
(-0.190318 0.0187877 6.77644e-20)
(-0.158905 0.00398583 9.96336e-20)
(-0.11008 -0.0180484 1.12829e-19)
(-0.0706589 -0.0370053 -5.94443e-20)
(0.0152176 -0.0669924 -1.30609e-19)
(-0.170296 0.0626685 -9.48146e-21)
(-0.176972 0.0633399 -4.02344e-21)
(-0.17863 0.0633361 4.86258e-20)
(-0.174721 0.0621437 7.36218e-20)
(-0.164634 0.0592222 -2.01746e-19)
(-0.147554 0.0539406 2.49534e-19)
(-0.12313 0.0459572 1.30114e-19)
(-0.0903813 0.0344527 2.04717e-19)
(-0.0476203 0.0194339 -4.86161e-21)
(-0.00200058 0.000827824 -4.96055e-20)
(0.0694683 -0.0239327 5.8606e-21)
(0.114782 -0.0495974 -7.1771e-20)
(0.228728 -0.0813929 -1.25378e-19)
(-0.130348 0.0719944 1.79121e-20)
(-0.120311 0.0712858 4.97955e-20)
(-0.103417 0.0691732 4.06428e-19)
(-0.0792428 0.0650782 -1.897e-21)
(-0.0470228 0.0582861 1.50702e-19)
(-0.00690711 0.0485361 -3.73629e-19)
(0.0417357 0.0346828 4.8259e-20)
(0.102004 0.0178181 -7.83489e-20)
(0.159747 -0.00553601 -6.23393e-20)
(0.254383 -0.0301586 5.83977e-20)
(0.30155 -0.0612597 -1.26385e-19)
(0.44333 -0.0949785 1.22702e-19)
(-0.0798401 0.0779302 -2.56095e-19)
(-0.0577731 0.0762592 3.09747e-20)
(-0.0277807 0.0730245 -8.40064e-20)
(0.0103019 0.0676153 1.33558e-19)
(0.0572279 0.0592815 -5.35001e-21)
(0.112277 0.0479768 -1.3011e-19)
(0.175797 0.0315957 3.43725e-19)
(0.252675 0.0140272 -1.34636e-19)
(0.321422 -0.0136808 -1.13681e-19)
(0.436473 -0.0379786 1.76574e-19)
(0.486666 -0.0724814 6.51204e-20)
(0.649274 -0.106794 2.75147e-19)
(-0.0269836 0.081045 7.79285e-19)
(0.00712028 0.0782071 1.09677e-20)
(0.0500297 0.0737138 -5.18932e-19)
(0.101651 0.0669341 -5.41206e-20)
(0.162861 0.0570697 -5.27612e-19)
(0.232235 0.0446012 2.54768e-19)
(0.310451 0.0257141 -1.91792e-19)
(0.402097 0.00816737 2.01957e-19)
(0.484365 -0.0228177 2.82346e-19)
(0.61233 -0.0463482 1.07267e-19)
(0.670783 -0.0830549 -2.96341e-19)
(0.841227 -0.115126 -2.46738e-19)
(0.0273698 0.081382 -6.37021e-19)
(0.0735544 0.0772641 -1.85088e-19)
(0.129398 0.0714845 1.20847e-19)
(0.194604 0.0634338 2.24523e-19)
(0.270254 0.0521996 -6.98307e-20)
(0.354027 0.0389605 2.71308e-19)
(0.447849 0.018284 1.56554e-20)
(0.551926 0.000795968 -3.02134e-19)
(0.650561 -0.0314983 1.94532e-20)
(0.781681 -0.053521 -4.21319e-19)
(0.851815 -0.0911488 7.95993e-20)
(1.01189 -0.118009 -1.57538e-19)
(0.0833403 0.079158 2.96106e-19)
(0.142119 0.0738003 -2.46617e-19)
(0.211577 0.0668965 3.91122e-19)
(0.291312 0.0578791 3.92458e-19)
(0.382317 0.0457287 5.17229e-19)
(0.481292 0.0321122 -5.02546e-19)
(0.591 0.0110314 4.49788e-20)
(0.705251 -0.00631934 4.4237e-19)
(0.817911 -0.0377238 -1.57502e-19)
(0.942398 -0.0575195 8.50943e-22)
(1.02015 -0.0942859 -1.14183e-20)
(1.15075 -0.114449 1.9673e-19)
(0.142246 0.0748079 -3.21474e-19)
(0.21497 0.0684896 -5.25276e-20)
(0.299635 0.0608784 -1.70392e-19)
(0.395651 0.0514796 -1.16061e-19)
(0.503055 0.0392257 -2.79426e-19)
(0.617604 0.0258506 -1.38771e-19)
(0.74044 0.0058443 5.16509e-20)
(0.861014 -0.0107958 -2.76604e-19)
(0.977936 -0.0396398 3.04808e-20)
(1.08682 -0.0569022 1.34521e-20)
(1.16015 -0.091176 -1.94056e-19)
(1.24903 -0.105291 1.30574e-19)
(0.295556 0.0623418 -1.69657e-19)
(0.397602 0.0547626 5.41447e-19)
(0.511426 0.0458587 -6.23919e-19)
(0.634842 0.0345637 -5.7145e-19)
(0.762463 0.0222339 8.02432e-19)
(0.891406 0.00439743 -1.78332e-19)
(1.01039 -0.0109555 9.15258e-20)
(1.11765 -0.0365815 1.23048e-19)
(1.20323 -0.0515864 -1.06515e-19)
(1.25911 -0.0828328 2.87458e-19)
(1.30619 -0.0927911 3.4191e-19)
(0.387669 0.0566931 2.68098e-19)
(0.50868 0.0501921 -3.0991e-19)
(0.639713 0.0427724 -1.31938e-19)
(0.775406 0.0334226 4.42206e-19)
(0.908828 0.0226739 -5.84958e-19)
(1.03328 0.0074057 -3.36289e-20)
(1.13955 -0.00677552 2.41919e-19)
(1.22512 -0.02948 -9.69709e-20)
(1.28306 -0.04305 -1.18404e-19)
(1.31582 -0.0717297 1.50334e-20)
(1.33107 -0.0792594 -1.57524e-19)
(0.493814 0.0530819 -5.57813e-19)
(0.632942 0.0487603 3.33457e-19)
(0.776644 0.043572 1.96417e-19)
(0.916534 0.0365874 -2.57295e-19)
(1.04458 0.027263 4.08857e-19)
(1.15315 0.0141008 3.13556e-19)
(1.23706 0.000254182 -8.21916e-20)
(1.29545 -0.0202349 1.36807e-21)
(1.32735 -0.0333982 -1.3638e-20)
(1.34024 -0.0600229 -3.73754e-19)
(1.33643 -0.0660902 -4.94768e-19)
(0.613388 0.0529126 2.26616e-19)
(0.765731 0.0514783 -1.93437e-19)
(0.913242 0.0486238 1.38996e-19)
(1.04621 0.0435054 1.19812e-19)
(1.15748 0.0347729 -9.41833e-20)
(1.24207 0.0226582 2.12586e-19)
(1.29987 0.00821425 -2.37759e-19)
(1.33307 -0.0105836 2.84037e-19)
(1.34559 -0.0241225 5.41816e-19)
(1.34564 -0.0486865 2.63318e-19)
(1.33241 -0.0538198 4.05133e-19)
(0.898048 0.0583247 2.53829e-20)
(1.03806 0.0570658 7.62338e-20)
(1.15346 0.0525639 -1.3022e-19)
(1.24055 0.0433835 -3.3206e-19)
(1.29911 0.0312862 -1.1863e-20)
(1.33345 0.0158295 3.98101e-19)
(1.34796 -0.00140087 -3.31726e-19)
(1.3487 -0.0157581 -7.38128e-19)
(1.34173 -0.0378627 -5.31052e-19)
(1.32464 -0.0426266 1.97476e-19)
(1.01925 0.0682006 -5.49769e-19)
(1.14151 0.0672031 4.20011e-19)
(1.23279 0.0619535 5.6207e-20)
(1.2943 0.0516432 1.44156e-19)
(1.33018 0.0390122 -3.21379e-19)
(1.34707 0.0227573 -9.25425e-20)
(1.34975 0.0071251 -8.36654e-20)
(1.34429 -0.00831218 9.30196e-20)
(1.33372 -0.0274009 3.16195e-19)
(1.31577 -0.0326284 -6.31348e-19)
(1.21917 0.0773365 -1.9699e-19)
(1.28528 0.0704742 5.50346e-20)
(1.32455 0.0589237 -3.1124e-19)
(1.3435 0.0456785 -2.65991e-20)
(1.34895 0.029181 6.16909e-20)
(1.34488 0.0149827 -4.35205e-20)
(1.33643 -0.00158317 6.04571e-19)
(1.32404 -0.0170504 1.15997e-20)
(1.30694 -0.0239946 5.97195e-19)
(1.27219 0.0864161 -7.39142e-20)
(1.3162 0.0777452 -2.58339e-19)
(1.33853 0.0652178 -4.67505e-19)
(1.34607 0.0515224 -1.22127e-20)
(1.34463 0.0353386 -2.10771e-19)
(1.33696 0.0221205 1.81656e-19)
(1.32718 0.00484183 -9.44266e-20)
(1.31377 -0.00662167 -6.75591e-19)
(1.29861 -0.0170949 -2.53035e-19)
(1.3318 0.0839033 3.86482e-19)
(1.3423 0.0707524 5.88027e-19)
(1.34267 0.0568515 -9.70398e-20)
(1.3373 0.0413213 1.41624e-19)
(1.32788 0.0285486 -4.93972e-20)
(1.31755 0.011539 3.06565e-19)
(1.30348 0.00352625 1.49851e-19)
(1.29084 -0.0124541 1.6899e-19)
(1.3374 0.0892472 3.70807e-20)
(1.34012 0.0757786 1.59291e-19)
(1.33621 0.061906 -2.95131e-20)
(1.3287 0.0470946 2.80361e-19)
(1.31856 0.0344938 2.99986e-20)
(1.30804 0.0188221 -7.10667e-19)
(1.29393 0.0120354 3.07696e-19)
(1.28279 -0.0111379 -2.81087e-19)
(1.33469 0.0805125 -6.19474e-20)
(1.32833 0.0668208 -6.5452e-20)
(1.31971 0.0526395 -4.82416e-20)
(1.30937 0.0403097 2.77667e-19)
(1.29878 0.0261271 2.07731e-19)
(1.28526 0.0173001 6.0313e-20)
(1.27535 0.0026637 1.72567e-19)
(1.32761 0.0850852 -6.43125e-20)
(1.31988 0.0716314 -2.48556e-20)
(1.31073 0.0580144 2.26808e-19)
(1.30042 0.0460877 -1.18761e-19)
(1.28987 0.0322946 -1.3463e-19)
(1.27723 0.0251919 -3.03435e-19)
(1.26718 0.00884729 -1.97083e-19)
(1.31129 0.0763752 1.18988e-20)
(1.30191 0.0632865 -2.93298e-19)
(1.29172 0.0514616 7.15948e-20)
(1.28139 0.0389119 -1.35649e-19)
(1.26925 0.0306419 -5.10184e-19)
(1.2601 0.0165306 2.66998e-19)
(1.2933 0.0683553 1.56446e-19)
(1.2833 0.0568581 -3.72855e-20)
(1.27312 0.0445936 4.57334e-19)
(1.26177 0.0367583 4.31362e-19)
(1.25271 0.0231562 1.74092e-19)
(1.27507 0.0618926 -9.48076e-21)
(1.26516 0.050323 -3.10436e-19)
(1.25432 0.0420215 -1.16668e-19)
(1.24565 0.029152 -1.67019e-19)
(1.25735 0.0555386 -2.14848e-20)
(1.24711 0.0471432 2.80403e-19)
(1.23858 0.0349132 2.9985e-19)
(1.23994 0.0519102 -1.65297e-19)
(1.23162 0.0401062 -6.25582e-20)
(1.23994 -0.0519102 -5.83471e-20)
(1.23162 -0.0401061 -4.19565e-19)
(1.25735 -0.0555385 1.40196e-19)
(1.24711 -0.0471431 3.03573e-19)
(1.23858 -0.0349131 1.61037e-19)
(1.27507 -0.0618925 1.83874e-19)
(1.26516 -0.050323 -1.50968e-19)
(1.25432 -0.0420215 -2.46564e-19)
(1.24565 -0.0291519 3.88062e-20)
(1.2933 -0.0683553 -4.02227e-19)
(1.2833 -0.0568581 -5.44787e-21)
(1.27312 -0.0445935 5.13255e-19)
(1.26177 -0.0367582 2.076e-19)
(1.25271 -0.0231562 1.74085e-19)
(1.31129 -0.0763752 -1.00163e-19)
(1.30191 -0.0632864 6.1061e-20)
(1.29172 -0.0514615 -5.64494e-20)
(1.28139 -0.0389118 5.85499e-20)
(1.26925 -0.0306418 -3.19899e-19)
(1.2601 -0.0165305 1.74399e-19)
(1.32761 -0.0850851 7.67128e-21)
(1.31988 -0.0716314 1.86834e-19)
(1.31073 -0.0580143 8.61262e-20)
(1.30042 -0.0460877 -2.14174e-19)
(1.28987 -0.0322945 -4.0437e-20)
(1.27723 -0.0251919 -2.29648e-20)
(1.26718 -0.0088472 -3.15882e-19)
(1.33469 -0.0805124 -2.51151e-20)
(1.32833 -0.0668207 1.24487e-20)
(1.31971 -0.0526394 -1.22021e-19)
(1.30937 -0.0403096 1.10076e-19)
(1.29878 -0.026127 8.56504e-20)
(1.28526 -0.0173 -5.73168e-21)
(1.27535 -0.0026636 2.49133e-19)
(1.3374 -0.0892471 -2.27906e-19)
(1.34012 -0.0757786 -3.56747e-19)
(1.33621 -0.0619059 2.83977e-19)
(1.3287 -0.0470945 1.83188e-19)
(1.31857 -0.0344937 -7.99849e-20)
(1.30804 -0.018822 -6.60234e-19)
(1.29393 -0.0120352 6.58136e-20)
(1.28279 0.011138 3.85949e-20)
(1.3318 -0.0839032 4.51716e-19)
(1.3423 -0.0707524 4.76842e-19)
(1.34267 -0.0568514 -1.55732e-19)
(1.3373 -0.0413212 4.05019e-20)
(1.32788 -0.0285485 1.16719e-19)
(1.31755 -0.0115388 1.03621e-19)
(1.30348 -0.00352613 3.15808e-19)
(1.29084 0.0124542 1.17951e-19)
(1.27219 -0.0864161 -1.26981e-19)
(1.3162 -0.0777452 -2.06656e-19)
(1.33853 -0.0652177 -3.21835e-19)
(1.34607 -0.0515223 7.59794e-20)
(1.34463 -0.0353385 -2.93615e-19)
(1.33696 -0.0221203 -7.92899e-21)
(1.32718 -0.00484168 -2.32979e-19)
(1.31377 0.00662182 -3.13369e-19)
(1.29861 0.017095 -1.91218e-19)
(1.21917 -0.0773365 8.6238e-20)
(1.28528 -0.0704742 -1.20353e-19)
(1.32455 -0.0589237 -2.69576e-19)
(1.3435 -0.0456784 -1.71078e-19)
(1.34895 -0.0291809 2.54983e-19)
(1.34488 -0.0149826 -1.60852e-19)
(1.33643 0.00158334 7.20403e-19)
(1.32404 0.0170505 3.54967e-19)
(1.30694 0.0239948 6.12422e-20)
(1.01925 -0.0682006 7.95817e-20)
(1.14151 -0.0672032 -3.2608e-20)
(1.23279 -0.0619534 -1.23578e-19)
(1.2943 -0.0516431 6.16995e-19)
(1.33018 -0.0390121 -4.03526e-19)
(1.34707 -0.0227571 -3.69998e-19)
(1.34975 -0.00712492 7.90216e-20)
(1.34429 0.00831237 7.6191e-20)
(1.33372 0.0274011 8.18196e-19)
(1.31577 0.0326286 -7.62306e-19)
(0.898048 -0.0583248 2.84378e-19)
(1.03806 -0.0570659 2.79733e-20)
(1.15346 -0.0525639 -7.68891e-20)
(1.24055 -0.0433834 -2.41369e-19)
(1.29911 -0.0312861 9.07859e-20)
(1.33346 -0.0158294 1.87879e-19)
(1.34796 0.00140108 -2.85632e-19)
(1.3487 0.0157583 -6.5695e-19)
(1.34173 0.0378629 -3.58666e-19)
(1.32464 0.0426268 1.68171e-19)
(0.613388 -0.0529128 1.03728e-18)
(0.765731 -0.0514784 -4.61026e-19)
(0.913243 -0.0486238 2.3901e-20)
(1.04621 -0.0435054 3.43463e-19)
(1.15748 -0.0347728 2.75842e-19)
(1.24207 -0.022658 -1.77048e-19)
(1.29987 -0.00821406 8.39326e-20)
(1.33307 0.0105838 2.42028e-19)
(1.34559 0.0241228 1.74444e-19)
(1.34564 0.0486867 3.33808e-19)
(1.33241 0.05382 7.15438e-19)
(0.493814 -0.053082 -6.39717e-19)
(0.632942 -0.0487605 4.07539e-19)
(0.776644 -0.0435721 2.80188e-19)
(0.916534 -0.0365874 -5.6614e-19)
(1.04458 -0.0272629 8.01563e-19)
(1.15315 -0.0141007 -5.69089e-20)
(1.23706 -0.000253968 -1.50329e-19)
(1.29545 0.0202352 -9.79167e-20)
(1.32735 0.0333985 -3.28911e-20)
(1.34024 0.0600232 -4.72885e-20)
(1.33643 0.0660905 -2.69638e-19)
(0.387669 -0.0566933 2.38006e-19)
(0.508681 -0.0501922 -2.93743e-19)
(0.639714 -0.0427725 -1.47524e-19)
(0.775407 -0.0334226 4.64258e-19)
(0.908828 -0.0226738 -7.68618e-19)
(1.03328 -0.00740555 -5.47608e-21)
(1.13955 0.00677575 3.34488e-19)
(1.22512 0.0294803 -2.09763e-19)
(1.28306 0.0430503 1.7106e-19)
(1.31582 0.07173 -3.39717e-19)
(1.33107 0.0792597 -2.66999e-19)
(0.295557 -0.062342 1.16997e-19)
(0.397602 -0.0547628 3.21058e-19)
(0.511426 -0.0458589 -5.04569e-19)
(0.634843 -0.0345638 -5.39767e-19)
(0.762463 -0.0222339 7.23398e-19)
(0.891406 -0.00439728 -1.68825e-19)
(1.01039 0.0109557 2.73743e-19)
(1.11765 0.0365818 2.24245e-19)
(1.20323 0.0515868 -3.33349e-19)
(1.25911 0.0828332 3.32862e-19)
(1.30619 0.0927915 2.53336e-19)
(0.142247 -0.0748082 4.57178e-19)
(0.21497 -0.0684899 1.42287e-19)
(0.299635 -0.0608786 -6.41799e-19)
(0.395651 -0.0514797 1.22829e-19)
(0.503056 -0.0392257 -3.96722e-19)
(0.617604 -0.0258505 -3.21909e-20)
(0.740441 -0.00584416 1.74604e-19)
(0.861014 0.0107961 -3.25133e-19)
(0.977937 0.0396401 -8.62575e-20)
(1.08682 0.0569026 -8.6265e-20)
(1.16015 0.0911765 4.87175e-20)
(1.24903 0.105291 -5.30957e-20)
(0.0833405 -0.0791583 2.84689e-19)
(0.142119 -0.0738006 -1.52096e-19)
(0.211578 -0.0668968 5.72666e-19)
(0.291313 -0.0578793 -7.05886e-20)
(0.382318 -0.0457287 5.38987e-19)
(0.481292 -0.0321121 -1.37923e-19)
(0.591001 -0.0110312 1.04427e-19)
(0.705252 0.00631959 -1.36552e-19)
(0.817912 0.0377242 1.58526e-19)
(0.942399 0.0575199 9.99427e-20)
(1.02015 0.0942864 7.15428e-20)
(1.15075 0.114449 -9.1778e-20)
(0.0273701 -0.0813823 -7.9228e-19)
(0.0735547 -0.0772644 -9.74126e-20)
(0.129399 -0.0714847 1.39549e-19)
(0.194605 -0.063434 2.14435e-19)
(0.270254 -0.0521997 2.42046e-19)
(0.354028 -0.0389604 3.95579e-20)
(0.447849 -0.0182838 -3.02086e-20)
(0.551927 -0.000795711 -4.69783e-19)
(0.650561 0.0314986 -7.4001e-20)
(0.781681 0.0535214 1.0061e-19)
(0.851816 0.0911493 -1.9747e-19)
(1.01189 0.118009 -3.33553e-19)
(-0.0269833 -0.0810454 5.4293e-19)
(0.00712062 -0.0782075 -7.68184e-20)
(0.05003 -0.073714 -4.02325e-19)
(0.101651 -0.0669343 -3.18442e-19)
(0.162862 -0.0570698 -1.10114e-19)
(0.232235 -0.0446011 -1.25352e-19)
(0.310452 -0.0257139 1.02854e-19)
(0.402098 -0.00816711 1.48394e-19)
(0.484365 0.0228181 2.06243e-19)
(0.612331 0.0463487 -9.04678e-21)
(0.670784 0.0830555 3.99195e-20)
(0.841228 0.115127 -2.72188e-19)
(-0.0798398 -0.0779306 -3.27497e-19)
(-0.0577728 -0.0762595 2.16181e-19)
(-0.0277803 -0.0730248 -8.00359e-20)
(0.0103024 -0.0676155 1.64824e-19)
(0.0572283 -0.0592816 -3.47601e-20)
(0.112277 -0.0479768 -4.5371e-20)
(0.175798 -0.0315955 1.5267e-19)
(0.252676 -0.014027 -1.41769e-19)
(0.321423 0.0136812 1.38257e-19)
(0.436474 0.0379791 1.43902e-20)
(0.486667 0.072482 1.09963e-19)
(0.649274 0.106795 5.18569e-19)
(-0.130347 -0.0719948 6.70228e-20)
(-0.120311 -0.0712861 1.31931e-19)
(-0.103417 -0.0691735 3.15449e-19)
(-0.0792423 -0.0650784 -9.84767e-20)
(-0.0470223 -0.0582862 1.11882e-19)
(-0.00690659 -0.0485361 -1.59891e-19)
(0.0417362 -0.0346827 -1.63596e-19)
(0.102004 -0.0178179 1.87327e-19)
(0.159747 0.00553644 -3.57415e-20)
(0.254384 0.0301591 -2.32792e-19)
(0.301551 0.0612603 1.62625e-19)
(0.44333 0.0949791 -1.20831e-19)
(-0.170296 -0.0626689 2.2366e-19)
(-0.176972 -0.0633403 -3.41697e-20)
(-0.17863 -0.0633365 1.28294e-20)
(-0.174721 -0.062144 -4.42176e-20)
(-0.164634 -0.0592224 -5.12774e-21)
(-0.147553 -0.0539407 2.03739e-19)
(-0.123129 -0.0459572 2.33146e-19)
(-0.0903808 -0.0344526 3.90454e-20)
(-0.0476197 -0.0194336 1.09362e-19)
(-0.00199997 -0.000827391 -2.11646e-19)
(0.0694689 0.0239332 2.78099e-19)
(0.114783 0.0495981 -2.87363e-19)
(0.228729 0.0813936 -7.40882e-20)
(-0.201768 -0.0512766 3.17048e-20)
(-0.217783 -0.0522026 -6.29882e-20)
(-0.230202 -0.0526186 -1.11497e-19)
(-0.238492 -0.0520972 -1.80264e-19)
(-0.241967 -0.0501712 1.01644e-19)
(-0.239766 -0.0463196 -2.51061e-20)
(-0.231158 -0.0401632 1.37542e-19)
(-0.214986 -0.0310391 -2.35334e-19)
(-0.190318 -0.0187874 1.09529e-19)
(-0.158904 -0.00398539 1.23392e-19)
(-0.110079 0.018049 -1.22548e-19)
(-0.0706584 0.037006 1.07893e-19)
(0.0152181 0.0669932 -1.64874e-19)
(-0.226981 -0.0380436 -1.26225e-20)
(-0.250735 -0.0389457 -7.38921e-20)
(-0.272228 -0.0394991 3.30506e-20)
(-0.291008 -0.0393835 3.77824e-20)
(-0.306412 -0.0382396 6.26159e-20)
(-0.317584 -0.035673 -8.34951e-20)
(-0.323594 -0.0313401 -4.18108e-20)
(-0.323229 -0.024748 7.01438e-21)
(-0.315512 -0.015738 -1.98308e-19)
(-0.299735 -0.00423475 -1.00578e-19)
(-0.271803 0.0118104 -5.52002e-20)
(-0.240981 0.0256216 1.78467e-19)
(-0.181291 0.0500319 5.92864e-20)
(-0.244628 -0.0234124 -1.46236e-19)
(-0.273941 -0.0240581 1.03124e-19)
(-0.302045 -0.0245038 -8.54616e-20)
(-0.328589 -0.0245513 4.97316e-20)
(-0.352988 -0.0239747 -6.95777e-20)
(-0.374438 -0.0225256 -1.12093e-20)
(-0.391954 -0.019965 2.15823e-20)
(-0.404304 -0.0159899 8.1208e-20)
(-0.410268 -0.010469 4.8392e-20)
(-0.408384 -0.00314259 1.32937e-19)
(-0.39664 0.00647111 -4.11471e-20)
(-0.376298 0.0155868 -5.49165e-20)
(-0.337549 0.0302498 8.20997e-23)
(-0.253718 -0.00790462 4.14102e-20)
(-0.285943 -0.00813824 -4.59453e-20)
(-0.317541 -0.00830701 1.8145e-20)
(-0.348232 -0.00834402 3.80891e-20)
(-0.377496 -0.00817209 -1.7847e-20)
(-0.404577 -0.00770612 3.99003e-21)
(-0.428499 -0.00686076 -2.6391e-20)
(-0.44803 -0.00553393 -5.78247e-21)
(-0.46181 -0.00367398 2.78216e-20)
(-0.468196 -0.00116843 -1.6252e-20)
(-0.465549 0.00203935 -2.08637e-20)
(-0.452796 0.00529365 -9.16016e-21)
(-0.425912 0.0100738 -3.06414e-20)
(-0.402792 -0.0114951 -2.24301e-20)
(-0.385922 -0.0132736 7.83972e-21)
(-0.365925 -0.0149476 -1.07143e-20)
(-0.342993 -0.0165787 1.79532e-20)
(-0.316968 -0.0181279 -8.33996e-21)
(-0.287853 -0.0195599 -3.98539e-21)
(-0.255682 -0.0208451 5.32398e-21)
(-0.220524 -0.0219768 -1.62345e-21)
(-0.182568 -0.0228882 2.95758e-21)
(-0.142058 -0.0235972 2.47261e-22)
(-0.0992611 -0.0240697 -4.41228e-21)
(-0.0544185 -0.0244109 4.26418e-22)
(-0.00791022 -0.0243577 1.80178e-21)
(0.0397706 -0.0241088 5.00533e-22)
(0.0882062 -0.023647 -4.41045e-22)
(0.136977 -0.022981 -6.7254e-22)
(0.185651 -0.022135 2.1866e-22)
(0.233806 -0.0211381 -3.57129e-22)
(0.281056 -0.0200223 2.66988e-22)
(0.327058 -0.0188212 -7.69863e-22)
(0.371522 -0.0175679 1.10704e-21)
(0.414219 -0.0162936 6.71412e-22)
(0.454982 -0.0150288 -1.00856e-21)
(0.493698 -0.0138008 9.9508e-22)
(0.5303 -0.0126244 -1.19612e-21)
(0.564767 -0.0115092 1.35241e-22)
(0.597115 -0.0104631 4.9019e-22)
(0.627396 -0.0094905 -1.5811e-22)
(0.655678 -0.00859263 -4.60545e-23)
(0.682055 -0.00776834 2.06904e-23)
(0.706614 -0.0070157 1.58676e-22)
(0.729472 -0.00633187 -1.44238e-22)
(0.750724 -0.00571501 -4.82125e-22)
(0.770515 -0.00516208 1.57714e-22)
(0.788935 -0.00467158 2.679e-23)
(0.806174 -0.00423864 4.80861e-23)
(0.822286 -0.00386137 -7.58948e-23)
(0.837521 -0.0035313 1.98783e-23)
(0.851834 -0.00324778 1.90117e-23)
(0.865584 -0.00299731 -5.44479e-23)
(0.878517 -0.00278589 -2.29927e-23)
(0.891233 -0.00259263 4.75862e-23)
(0.903075 -0.00244173 -2.66519e-23)
(0.915217 -0.00228593 -3.51007e-23)
(0.926099 -0.0021815 1.29146e-23)
(0.938131 -0.00200439 -1.32569e-23)
(0.947516 -0.00190746 -2.29752e-23)
(0.959669 -0.00161514 -1.34342e-23)
(0.965685 -0.0015289 -2.27333e-24)
(0.978528 -0.00108993 1.1522e-26)
(-0.311029 -0.0344447 -6.91409e-20)
(-0.294594 -0.0394908 -1.37967e-20)
(-0.274811 -0.0444806 5.81654e-20)
(-0.25225 -0.0492663 -4.16543e-20)
(-0.226811 -0.0537978 2.09826e-21)
(-0.198503 -0.0579856 2.04712e-20)
(-0.167396 -0.0617571 -1.56867e-20)
(-0.133485 -0.0651707 7.81918e-21)
(-0.0970011 -0.0677919 8.13286e-21)
(-0.0582374 -0.0698132 -1.15107e-20)
(-0.0175515 -0.0711609 1.5558e-20)
(0.0251136 -0.0717837 -1.16889e-20)
(0.0693269 -0.0716957 -5.81681e-21)
(0.114335 -0.0709448 4.40057e-21)
(0.159939 -0.0695385 8.41844e-23)
(0.205725 -0.0675276 -8.22493e-22)
(0.251281 -0.0649881 2.1035e-22)
(0.296216 -0.0620085 1.6842e-22)
(0.340177 -0.0586858 -1.42882e-21)
(0.382855 -0.0551199 1.69022e-21)
(0.423993 -0.0514088 6.79149e-22)
(0.463391 -0.047644 -2.71258e-21)
(0.500906 -0.04391 2.50146e-21)
(0.536454 -0.040285 -2.63743e-21)
(0.569992 -0.0368213 1.15751e-21)
(0.601515 -0.0335456 1.39054e-21)
(0.631047 -0.0304781 -2.59152e-21)
(0.658649 -0.0276301 6.9142e-22)
(0.684393 -0.0250044 -3.3015e-22)
(0.708372 -0.0225965 7.33789e-22)
(0.730674 -0.0204 7.41904e-23)
(0.751411 -0.018406 2.19877e-22)
(0.770672 -0.016609 -4.25548e-22)
(0.7886 -0.0150001 6.9864e-22)
(0.805278 -0.0135748 3.0296e-22)
(0.820894 -0.0123186 -6.18124e-22)
(0.835495 -0.011226 4.14594e-22)
(0.849326 -0.0102715 -1.81215e-22)
(0.862337 -0.00945315 -4.30275e-24)
(0.874878 -0.00873062 -1.612e-23)
(0.886689 -0.0081217 2.13321e-22)
(0.898356 -0.00756417 -1.32327e-22)
(0.909223 -0.00713001 1.44455e-22)
(0.920434 -0.00667979 -9.81047e-23)
(0.930458 -0.00638073 -4.74348e-23)
(0.941646 -0.00586754 2.41695e-23)
(0.950321 -0.00559068 1.41386e-23)
(0.961721 -0.00473972 3.59848e-24)
(0.967299 -0.00449231 1.52518e-23)
(0.979446 -0.00321056 2.50427e-24)
(-0.151428 -0.0573634 -8.95805e-20)
(-0.135221 -0.0650106 5.42513e-20)
(-0.116075 -0.0729974 6.67899e-21)
(-0.0943371 -0.0806584 -5.78476e-20)
(-0.0701492 -0.0878714 2.18979e-20)
(-0.0435175 -0.0945299 -9.74569e-21)
(-0.0146928 -0.100506 -9.62856e-22)
(0.0167204 -0.105588 1.213e-20)
(0.0505911 -0.109721 7.28986e-21)
(0.0861454 -0.112872 4.65291e-21)
(0.123315 -0.114921 -2.48635e-20)
(0.161922 -0.115663 2.32191e-20)
(0.201628 -0.115439 -1.82297e-20)
(0.241982 -0.114089 5.88035e-21)
(0.282636 -0.111672 4.75292e-21)
(0.323223 -0.108287 -3.30535e-21)
(0.363383 -0.10406 7.71179e-22)
(0.402783 -0.0991407 1.3896e-21)
(0.441123 -0.0936873 -3.40969e-21)
(0.47815 -0.0878641 -8.19834e-23)
(0.513659 -0.0818294 5.20613e-22)
(0.547497 -0.0757302 -1.21645e-21)
(0.579562 -0.0696958 2.20161e-21)
(0.609801 -0.0638402 -8.53549e-22)
(0.638212 -0.0582595 -1.55532e-21)
(0.664813 -0.0530035 3.26157e-21)
(0.689645 -0.0480971 -1.14495e-21)
(0.712774 -0.0435536 9.92256e-22)
(0.734276 -0.0393744 -1.33677e-21)
(0.754244 -0.0355495 2.88517e-21)
(0.772758 -0.0320663 1.20149e-21)
(0.789923 -0.0289092 -2.80989e-21)
(0.80582 -0.0260691 7.68974e-22)
(0.820581 -0.0235316 -6.65934e-22)
(0.834284 -0.0212903 6.6401e-22)
(0.847109 -0.0193214 1.75862e-22)
(0.859099 -0.0176155 -8.7188e-22)
(0.87049 -0.0161302 5.49888e-22)
(0.881227 -0.0148622 -1.26665e-22)
(0.891643 -0.0137445 6.78376e-23)
(0.901476 -0.0128058 -5.61156e-23)
(0.911283 -0.0119438 -3.01516e-22)
(0.920416 -0.0112761 -1.77644e-22)
(0.929961 -0.0105778 1.09152e-22)
(0.938448 -0.0101221 2.13571e-23)
(0.948111 -0.00932233 2.13336e-23)
(0.955503 -0.0089031 1.49494e-23)
(0.965525 -0.00756581 1.64526e-23)
(0.970301 -0.00718819 2.76872e-23)
(0.981162 -0.00516265 6.18719e-25)
(0.0453433 -0.0798574 -4.83712e-20)
(0.0611166 -0.0894913 -3.53528e-20)
(0.0792172 -0.0996323 6.66856e-20)
(0.0995816 -0.10958 7.6551e-20)
(0.121874 -0.11897 -1.13372e-19)
(0.146076 -0.127648 -5.25646e-21)
(0.172138 -0.135433 6.52376e-20)
(0.200015 -0.141853 -4.42665e-20)
(0.229656 -0.147171 -1.98198e-20)
(0.260743 -0.151152 2.01417e-20)
(0.293032 -0.153655 1.17498e-20)
(0.326293 -0.154592 5.96195e-21)
(0.360229 -0.15402 -2.82817e-21)
(0.394495 -0.151955 -6.95788e-21)
(0.428773 -0.148482 1.19342e-20)
(0.462755 -0.143733 -6.09671e-21)
(0.496149 -0.137883 2.73033e-21)
(0.528691 -0.131133 5.51747e-22)
(0.560151 -0.1237 2.27526e-21)
(0.590342 -0.115805 -5.0655e-21)
(0.619117 -0.107662 5.34424e-22)
(0.646376 -0.0994634 4.44763e-22)
(0.672056 -0.0913803 1.58815e-21)
(0.696133 -0.0835506 1.37019e-21)
(0.718627 -0.0760957 -2.38963e-21)
(0.739585 -0.0691007 -8.45061e-22)
(0.759057 -0.0625969 3.12776e-22)
(0.777107 -0.0565926 -8.1716e-22)
(0.793806 -0.0510839 4.03867e-23)
(0.809237 -0.046053 5.24585e-22)
(0.823465 -0.0414795 7.56695e-22)
(0.836579 -0.0373408 -1.68001e-21)
(0.84864 -0.0336252 -7.38872e-23)
(0.859768 -0.0303148 2.06507e-21)
(0.870028 -0.0274029 -5.63728e-22)
(0.879594 -0.0248577 -7.86693e-22)
(0.888507 -0.0226663 1.89898e-22)
(0.896996 -0.0207695 -5.39254e-22)
(0.905004 -0.0191615 2.26652e-22)
(0.912851 -0.0177491 -1.77484e-22)
(0.920275 -0.0165699 -5.32993e-23)
(0.9278 -0.0154829 1.6762e-22)
(0.934789 -0.0146477 1.61413e-22)
(0.942261 -0.0137634 -2.06924e-22)
(0.948823 -0.0132013 -9.94584e-23)
(0.956554 -0.0121826 7.90952e-23)
(0.962314 -0.0116714 -6.01472e-23)
(0.970555 -0.00995096 1.61129e-23)
(0.974299 -0.00948595 -4.92181e-23)
(0.983465 -0.00686159 -2.0583e-24)
(0.255518 -0.0993173 -6.41913e-20)
(0.271034 -0.111384 -2.37338e-20)
(0.287292 -0.123409 1.47608e-19)
(0.305437 -0.135008 -6.9161e-20)
(0.325127 -0.145951 8.72498e-20)
(0.346161 -0.156073 -1.37131e-19)
(0.368504 -0.165146 4.27405e-20)
(0.392114 -0.172867 5.35062e-21)
(0.416888 -0.179064 2.5804e-20)
(0.442595 -0.18358 -5.25743e-21)
(0.469006 -0.186303 -2.3905e-20)
(0.49591 -0.187164 1.03755e-20)
(0.523074 -0.186173 2.98542e-20)
(0.550243 -0.183382 -2.29041e-20)
(0.577174 -0.178901 9.31605e-21)
(0.603639 -0.172901 -3.27336e-21)
(0.629437 -0.165597 1.2693e-21)
(0.654391 -0.157237 -1.64845e-21)
(0.678355 -0.148087 2.24348e-21)
(0.701214 -0.138416 -1.86509e-21)
(0.722888 -0.12848 4.6496e-21)
(0.743324 -0.11851 -7.15889e-21)
(0.762496 -0.108708 9.52938e-21)
(0.780399 -0.0992369 -4.36777e-21)
(0.797054 -0.0902226 -1.77116e-21)
(0.812514 -0.0817752 1.25285e-21)
(0.826836 -0.0739471 9.75029e-22)
(0.840068 -0.0667405 9.45205e-23)
(0.85226 -0.0601413 -3.6581e-21)
(0.863469 -0.0541217 6.13254e-22)
(0.873736 -0.0486532 2.09927e-21)
(0.883116 -0.0437067 -1.2654e-21)
(0.891639 -0.0392704 4.3522e-22)
(0.899396 -0.0353267 -7.51331e-22)
(0.906437 -0.0318729 6.75349e-22)
(0.912923 -0.0288729 4.19044e-22)
(0.918892 -0.0263117 4.77047e-22)
(0.924572 -0.0241136 -8.24285e-22)
(0.929907 -0.0222693 4.27653e-22)
(0.93521 -0.0206592 1.77969e-22)
(0.940224 -0.0193273 -4.01637e-22)
(0.945442 -0.0180945 1.24169e-22)
(0.95025 -0.0171574 -3.48685e-23)
(0.955584 -0.0161496 2.06924e-22)
(0.960149 -0.0155298 4.04771e-23)
(0.965842 -0.0143628 -9.67369e-23)
(0.969876 -0.0138098 7.07224e-24)
(0.976184 -0.0118206 -2.12953e-23)
(0.978818 -0.0113131 3.03736e-23)
(0.986097 -0.00825708 5.90322e-24)
(0.464368 -0.115282 -4.8084e-20)
(0.47834 -0.129527 1.0709e-19)
(0.492952 -0.143191 -2.75797e-19)
(0.50859 -0.155993 1.40456e-19)
(0.525077 -0.167999 -1.0822e-19)
(0.542317 -0.179119 7.14651e-20)
(0.560321 -0.189076 2.2417e-20)
(0.579028 -0.197528 -3.94587e-21)
(0.59829 -0.20423 -5.98036e-21)
(0.61791 -0.209015 -8.69327e-21)
(0.637711 -0.21177 -6.82545e-21)
(0.657536 -0.212429 1.98401e-20)
(0.677227 -0.210994 -1.64998e-21)
(0.696624 -0.207532 -9.88369e-21)
(0.715583 -0.202183 1.70378e-21)
(0.733986 -0.195146 6.66117e-21)
(0.751737 -0.186672 -6.27538e-21)
(0.768763 -0.177043 1.18143e-22)
(0.785011 -0.166561 5.56809e-22)
(0.800447 -0.155526 7.27945e-22)
(0.815052 -0.144223 -4.67461e-23)
(0.82882 -0.132908 -4.8885e-21)
(0.841751 -0.121802 1.22263e-21)
(0.853854 -0.111086 2.76549e-21)
(0.865136 -0.100894 2.74369e-21)
(0.875631 -0.0913303 2.02448e-21)
(0.885386 -0.0824771 -1.47016e-21)
(0.894433 -0.0743427 -1.29525e-21)
(0.902785 -0.0669005 -1.66789e-21)
(0.910465 -0.0601093 1.78474e-21)
(0.917473 -0.0539317 -8.73917e-22)
(0.923822 -0.0483335 -2.16261e-22)
(0.929497 -0.0433054 1.83269e-21)
(0.934547 -0.0388363 -1.1031e-21)
(0.938989 -0.0349343 -7.54361e-22)
(0.942964 -0.0315652 7.40171e-22)
(0.946504 -0.0287162 -1.1007e-21)
(0.949832 -0.0262968 8.4552e-22)
(0.952901 -0.0242941 1.21199e-22)
(0.956014 -0.0225618 -8.9661e-24)
(0.958931 -0.0211467 3.77834e-22)
(0.962116 -0.0198328 -4.509e-22)
(0.964982 -0.018847 5.15662e-22)
(0.968388 -0.0177673 -1.48064e-22)
(0.97114 -0.0171278 1.38467e-22)
(0.97494 -0.0158731 -9.03104e-23)
(0.977371 -0.0153184 -1.15658e-23)
(0.981819 -0.0131683 -7.35466e-23)
(0.983401 -0.0126568 -4.07212e-26)
(0.988804 -0.0093347 1.41209e-24)
(0.664111 -0.128565 3.423e-19)
(0.675343 -0.143865 -7.21894e-20)
(0.687768 -0.158297 1.2713e-20)
(0.700478 -0.171655 -3.02336e-20)
(0.713145 -0.184174 -3.71067e-20)
(0.725903 -0.195812 1.15499e-19)
(0.738902 -0.206234 -1.72863e-19)
(0.752093 -0.215045 1.07496e-20)
(0.765285 -0.22195 1.7623e-19)
(0.778286 -0.226773 3.98826e-20)
(0.790972 -0.229406 -1.75258e-19)
(0.803265 -0.229792 8.54444e-20)
(0.815103 -0.227943 -2.46956e-20)
(0.826431 -0.223944 -2.67848e-20)
(0.837219 -0.217955 3.57481e-20)
(0.847465 -0.210198 -2.21546e-22)
(0.857187 -0.20094 -3.30402e-21)
(0.866413 -0.190485 6.28529e-21)
(0.875181 -0.17915 -1.948e-21)
(0.883527 -0.167253 9.9392e-22)
(0.891486 -0.155089 4.40189e-23)
(0.899083 -0.142924 -8.18866e-22)
(0.906335 -0.130987 -1.01073e-21)
(0.913248 -0.119464 -1.12533e-23)
(0.919817 -0.108502 -7.88255e-22)
(0.926039 -0.0981955 1.62838e-21)
(0.931926 -0.0886311 3.3727e-21)