/*--------------------------------*- C++ -*----------------------------------*\
  =========                 |
  \\      /  F ield         | OpenFOAM: The Open Source CFD Toolbox
   \\    /   O peration     | Website:  https://openfoam.org
    \\  /    A nd           | Version:  7
     \\/     M anipulation  |
\*---------------------------------------------------------------------------*/
FoamFile
{
    version     2.0;
    format      ascii;
    class       volScalarField;
    location    "15";
    object      p;
}
// * * * * * * * * * * * * * * * * * * * * * * * * * * * * * * * * * * * * * //

dimensions      [0 2 -2 0 0 0 0];

internalField   nonuniform List<scalar> 
2625
(
-0.0216379
-0.0204904
-0.0193693
-0.0182728
-0.0172001
-0.0161486
-0.015119
-0.0141061
-0.0131155
-0.0121332
-0.0111802
-0.0102162
-0.0093072
-0.00833721
-0.00749898
-0.00646619
-0.00577843
-0.00454368
-0.00421758
-0.00243923
-0.00300283
0.00014346
-0.00258333
0.00388351
-0.0681019
-0.0656957
-0.0633518
-0.0610696
-0.0588481
-0.0566866
-0.054584
-0.0525393
-0.0505513
-0.0486189
-0.0467407
-0.0449156
-0.043142
-0.0414186
-0.0397439
-0.0381166
-0.036535
-0.0349978
-0.0335034
-0.0320502
-0.0306368
-0.0292616
-0.027923
-0.0266197
-0.02535
-0.0241125
-0.0229057
-0.021728
-0.0205781
-0.0194545
-0.0183555
-0.0172804
-0.0162265
-0.0151946
-0.0141794
-0.0131865
-0.0122025
-0.011247
-0.0102822
-0.0093699
-0.00840128
-0.0075571
-0.00653116
-0.00582964
-0.00461595
-0.0042544
-0.0025342
-0.00300399
-1.2132e-05
-0.00249266
0.00357791
-0.068133
-0.0657393
-0.0634066
-0.0611342
-0.0589215
-0.0567677
-0.0546717
-0.0526327
-0.0506496
-0.0487212
-0.0468462
-0.0450236
-0.0432519
-0.0415298
-0.039856
-0.0382289
-0.0366472
-0.0351094
-0.0336141
-0.0321597
-0.0307448
-0.0293679
-0.0280275
-0.0267221
-0.0254502
-0.0242103
-0.0230011
-0.0218209
-0.0206684
-0.0195423
-0.0184408
-0.0173631
-0.0163068
-0.0152724
-0.014255
-0.0132596
-0.0122738
-0.0113157
-0.0103501
-0.00943436
-0.00846705
-0.00761683
-0.00659772
-0.00588231
-0.00468975
-0.00429248
-0.00263077
-0.00300606
-0.000169847
-0.00240173
0.00326748
-0.0681609
-0.0657805
-0.0634596
-0.0611979
-0.0589945
-0.0568488
-0.05476
-0.0527271
-0.0507491
-0.048825
-0.0469536
-0.0451338
-0.0433642
-0.0416436
-0.0399707
-0.038344
-0.0367623
-0.0352241
-0.0337279
-0.0322724
-0.030856
-0.0294774
-0.028135
-0.0268275
-0.0255533
-0.0243111
-0.0230993
-0.0219167
-0.0207616
-0.0196328
-0.0185287
-0.0174484
-0.0163895
-0.0153525
-0.0143328
-0.0133349
-0.0123471
-0.0113864
-0.0104198
-0.00950062
-0.00853454
-0.00767819
-0.00666585
-0.00593648
-0.00476499
-0.00433196
-0.00272872
-0.00300931
-0.000329227
-0.00231115
0.00295297
-0.0681854
-0.065819
-0.0635108
-0.0612602
-0.0590668
-0.0569298
-0.0548486
-0.0528222
-0.0508498
-0.0489304
-0.0470629
-0.045246
-0.0434788
-0.0417599
-0.0400881
-0.038462
-0.0368803
-0.0353417
-0.0338447
-0.0323881
-0.0309703
-0.02959
-0.0282457
-0.026936
-0.0256595
-0.0244148
-0.0232005
-0.0220152
-0.0208575
-0.019726
-0.0186192
-0.0175362
-0.0164747
-0.015435
-0.0144129
-0.0134123
-0.0124226
-0.0114591
-0.0104914
-0.00956868
-0.00860372
-0.00774122
-0.0067355
-0.0059922
-0.00484157
-0.00437293
-0.00282783
-0.00301404
-0.000489798
-0.00222153
0.0026352
-0.0682062
-0.0658546
-0.0635597
-0.061321
-0.0591381
-0.0570104
-0.0549373
-0.052918
-0.0509516
-0.0490372
-0.0471738
-0.0453603
-0.0435957
-0.0418787
-0.0402081
-0.0385827
-0.0370012
-0.0354623
-0.0339646
-0.0325069
-0.0310877
-0.0297057
-0.0283594
-0.0270476
-0.0257688
-0.0245216
-0.0233047
-0.0221167
-0.0209562
-0.0198219
-0.0187123
-0.0176265
-0.0165623
-0.0155199
-0.0144952
-0.0134919
-0.0125001
-0.0115337
-0.0105649
-0.00963856
-0.00867461
-0.00780593
-0.00680666
-0.00604953
-0.00491943
-0.00441553
-0.0029279
-0.00302055
-0.00065109
-0.00213349
0.00231502
-0.0682228
-0.0658869
-0.0636061
-0.06138
-0.0592083
-0.0570905
-0.0550261
-0.0530142
-0.0510542
-0.0491453
-0.0472863
-0.0454765
-0.0437147
-0.0419998
-0.0403307
-0.0387062
-0.037125
-0.0355859
-0.0340876
-0.0326288
-0.0312083
-0.0298245
-0.0284763
-0.0271623
-0.0258811
-0.0246314
-0.0234119
-0.0222211
-0.0210578
-0.0199206
-0.0188082
-0.0177194
-0.0166524
-0.0156071
-0.0145798
-0.0135738
-0.0125797
-0.0116104
-0.0106402
-0.00971028
-0.00874718
-0.00787234
-0.00687927
-0.00610849
-0.00499844
-0.00445985
-0.00302868
-0.0030291
-0.0008126
-0.00204765
0.00199333
-0.0682349
-0.0659156
-0.0636496
-0.0614369
-0.0592771
-0.0571698
-0.0551145
-0.0531107
-0.0511576
-0.0492545
-0.0474004
-0.0455945
-0.0438359
-0.0421233
-0.0404559
-0.0388324
-0.0372516
-0.0357125
-0.0342136
-0.0327539
-0.031332
-0.0299466
-0.0285964
-0.0272802
-0.0259966
-0.0247443
-0.0235221
-0.0223285
-0.0211622
-0.0200221
-0.0189067
-0.017815
-0.016745
-0.0156968
-0.0146668
-0.0136578
-0.0126614
-0.0116891
-0.0107175
-0.00978383
-0.00882141
-0.00794044
-0.00695329
-0.0061691
-0.00507851
-0.00450598
-0.00312995
-0.00303995
-0.000973826
-0.00196462
0.00167106
-0.068242
-0.0659401
-0.0636899
-0.0614913
-0.0593441
-0.057248
-0.0552026
-0.0532073
-0.0512615
-0.0493646
-0.0475158
-0.0457143
-0.043959
-0.0422491
-0.0405836
-0.0389613
-0.0373811
-0.035842
-0.0343427
-0.0328821
-0.0314588
-0.0300718
-0.0287197
-0.0274013
-0.0261152
-0.0248603
-0.0236353
-0.0224388
-0.0212696
-0.0201264
-0.0190079
-0.0179131
-0.0168401
-0.0157889
-0.014756
-0.013744
-0.0127452
-0.0117697
-0.0107966
-0.00985921
-0.00889728
-0.00801024
-0.00702867
-0.00623139
-0.00515952
-0.00455401
-0.00323148
-0.00305336
-0.00113427
-0.00188499
0.0013492
-0.0682438
-0.0659603
-0.0637267
-0.061543
-0.0594092
-0.0573249
-0.0552899
-0.0533037
-0.0513658
-0.0494756
-0.0476325
-0.0458356
-0.044084
-0.042377
-0.0407136
-0.0390927
-0.0375133
-0.0359744
-0.0344747
-0.0330133
-0.0315888
-0.0302001
-0.0288461
-0.0275254
-0.0262369
-0.0249794
-0.0237515
-0.0225521
-0.0213798
-0.0202335
-0.0191119
-0.0180139
-0.0169378
-0.0158834
-0.0148476
-0.0138324
-0.0128311
-0.0118524
-0.0108776
-0.00993642
-0.00897476
-0.00808174
-0.00710535
-0.00629537
-0.00524138
-0.00460399
-0.00333303
-0.00306954
-0.00129343
-0.00180934
0.00102872
-0.0682397
-0.0659756
-0.0637595
-0.0615916
-0.0594719
-0.0574001
-0.0553762
-0.0533997
-0.0514702
-0.0495873
-0.0477502
-0.0459583
-0.0442108
-0.042507
-0.0408459
-0.0392267
-0.0376482
-0.0361096
-0.0346097
-0.0331475
-0.0317219
-0.0303316
-0.0289756
-0.0276528
-0.0263618
-0.0251015
-0.0238708
-0.0226683
-0.0214929
-0.0203434
-0.0192186
-0.0181173
-0.017038
-0.0159803
-0.0149414
-0.0139231
-0.012919
-0.0119371
-0.0109605
-0.0100154
-0.00905382
-0.0081549
-0.00718328
-0.00636102
-0.00532399
-0.00465599
-0.0034344
-0.00308872
-0.00145084
-0.00173824
0.000710652
-0.0682293
-0.0659856
-0.063788
-0.0616368
-0.0595319
-0.0574734
-0.0554612
-0.053495
-0.0515745
-0.0496993
-0.0478687
-0.0460822
-0.0443392
-0.0426389
-0.0409804
-0.039363
-0.0377857
-0.0362475
-0.0347476
-0.0332847
-0.0318579
-0.0304662
-0.0291083
-0.0277832
-0.0264897
-0.0252267
-0.023993
-0.0227875
-0.0216089
-0.0204562
-0.0193279
-0.0182233
-0.0171407
-0.0160796
-0.0150376
-0.0140159
-0.0130091
-0.0120238
-0.0110451
-0.0100962
-0.00913442
-0.00822972
-0.0072624
-0.00642835
-0.00540722
-0.00471004
-0.00353537
-0.00311105
-0.001606
-0.00167219
0.000396015
-0.0682122
-0.0659899
-0.0638118
-0.061678
-0.0595889
-0.0575445
-0.0555447
-0.0535895
-0.0516785
-0.0498114
-0.0479879
-0.0462072
-0.044469
-0.0427725
-0.041117
-0.0395016
-0.0379256
-0.0363881
-0.0348882
-0.0334248
-0.031997
-0.0306037
-0.029244
-0.0279167
-0.0266207
-0.0253549
-0.0241183
-0.0229096
-0.0217278
-0.0205716
-0.01944
-0.0183319
-0.0172458
-0.0161813
-0.015136
-0.0141109
-0.0131011
-0.0121124
-0.0111315
-0.0101788
-0.00921652
-0.00830616
-0.00734266
-0.00649733
-0.005491
-0.00476615
-0.00363573
-0.00313669
-0.00175848
-0.00161169
8.58415e-05
-0.0681878
-0.065988
-0.0638303
-0.061715
-0.0596425
-0.0576129
-0.0556263
-0.0536826
-0.0517818
-0.0499235
-0.0481074
-0.0463331
-0.0446
-0.0429077
-0.0412554
-0.0396424
-0.0380679
-0.0365313
-0.0350315
-0.0335677
-0.0321389
-0.0307443
-0.0293827
-0.0280531
-0.0267546
-0.0254861
-0.0242464
-0.0230346
-0.0218494
-0.0206899
-0.0195547
-0.0184431
-0.0173535
-0.0162854
-0.0152367
-0.0142081
-0.0131952
-0.0122029
-0.0112197
-0.010263
-0.00930007
-0.00838419
-0.00742398
-0.00656792
-0.00557521
-0.00482433
-0.00373529
-0.00316575
-0.00190783
-0.00155718
-0.000218841
-0.0681556
-0.0659795
-0.0638432
-0.0617473
-0.0596923
-0.0576783
-0.0557056
-0.0537743
-0.0518842
-0.0500352
-0.0482271
-0.0464595
-0.0447321
-0.0430442
-0.0413954
-0.0397851
-0.0382124
-0.0366768
-0.0351773
-0.0337132
-0.0322836
-0.0308876
-0.0295243
-0.0281926
-0.0268915
-0.0256202
-0.0243775
-0.0231624
-0.0219739
-0.0208108
-0.0196721
-0.0185568
-0.0174635
-0.0163918
-0.0153395
-0.0143073
-0.0132912
-0.0122953
-0.0113096
-0.010349
-0.00938502
-0.00846374
-0.0075063
-0.00664008
-0.00565975
-0.00488454
-0.00383389
-0.00319829
-0.00205365
-0.00150903
-0.000517015
-0.0681152
-0.0659638
-0.06385
-0.0617745
-0.0597378
-0.0577403
-0.0557823
-0.053864
-0.0519853
-0.0501463
-0.0483467
-0.0465863
-0.0448649
-0.0431819
-0.041537
-0.0399295
-0.0383589
-0.0368245
-0.0353256
-0.0338614
-0.032431
-0.0310337
-0.0296686
-0.0283348
-0.0270313
-0.0257571
-0.0245114
-0.023293
-0.022101
-0.0209344
-0.019792
-0.0186729
-0.017576
-0.0165004
-0.0154445
-0.0144086
-0.0133891
-0.0123896
-0.0114011
-0.0104365
-0.00947132
-0.00854476
-0.00758955
-0.00671375
-0.00574453
-0.00494674
-0.00393134
-0.00323436
-0.00219557
-0.00146757
-0.000807686
-0.0680662
-0.0659406
-0.0638503
-0.0617962
-0.0597788
-0.0577986
-0.0558561
-0.0539515
-0.0520849
-0.0502563
-0.0484658
-0.0467132
-0.0449982
-0.0433206
-0.0416798
-0.0400756
-0.0385073
-0.0369743
-0.0354761
-0.0340119
-0.0325809
-0.0311825
-0.0298157
-0.0284798
-0.0271738
-0.0258968
-0.024648
-0.0234263
-0.0222308
-0.0210605
-0.0199144
-0.0187915
-0.0176907
-0.0166113
-0.0155516
-0.0145119
-0.0134889
-0.0124856
-0.0114942
-0.0105256
-0.00955888
-0.00862719
-0.00767365
-0.00678884
-0.00582946
-0.00501086
-0.00402751
-0.00327394
-0.00233323
-0.00143306
-0.00108989
-0.0680079
-0.0659093
-0.0638437
-0.0618119
-0.0598147
-0.0578528
-0.0559265
-0.0540363
-0.0521825
-0.0503651
-0.0485842
-0.0468398
-0.0451318
-0.0434598
-0.0418237
-0.040223
-0.0386573
-0.037126
-0.0356287
-0.0341646
-0.0327332
-0.0313337
-0.0299653
-0.0286273
-0.0273189
-0.0260391
-0.0247872
-0.0235622
-0.0223631
-0.0211891
-0.0200392
-0.0189124
-0.0178076
-0.0167243
-0.0156607
-0.014617
-0.0135905
-0.0125832
-0.0115888
-0.0106162
-0.00964765
-0.00871094
-0.00775852
-0.00686528
-0.00591444
-0.00507681
-0.00412225
-0.00331698
-0.00246634
-0.00140569
-0.0013627
-0.0679401
-0.0658695
-0.0638296
-0.0618212
-0.0598452
-0.0579023
-0.0559932
-0.0541182
-0.0522778
-0.0504722
-0.0487016
-0.046966
-0.0452653
-0.0435995
-0.0419683
-0.0403715
-0.0388086
-0.0372793
-0.0357831
-0.0343194
-0.0328877
-0.0314872
-0.0301174
-0.0287774
-0.0274665
-0.026184
-0.0249289
-0.0237005
-0.0224979
-0.0213201
-0.0201663
-0.0190355
-0.0179267
-0.0168393
-0.0157718
-0.0147241
-0.0136937
-0.0126825
-0.0116849
-0.0107081
-0.00973753
-0.00879593
-0.00784409
-0.00694296
-0.00599938
-0.00514448
-0.00421544
-0.0033634
-0.00259462
-0.00138559
-0.00162523
-0.0678622
-0.0658209
-0.0638077
-0.0618237
-0.0598698
-0.0579469
-0.0560557
-0.0541967
-0.0523705
-0.0505773
-0.0488175
-0.0470912
-0.0453985
-0.0437392
-0.0421134
-0.0405208
-0.0389611
-0.0374341
-0.0359392
-0.0344761
-0.0330441
-0.0316428
-0.0302716
-0.0289297
-0.0276164
-0.0263311
-0.025073
-0.0238412
-0.0226349
-0.0214533
-0.0202956
-0.0191607
-0.0180479
-0.0169563
-0.0158847
-0.0148328
-0.0137986
-0.0127833
-0.0117823
-0.0108014
-0.00982845
-0.00888205
-0.00793026
-0.00702177
-0.00608419
-0.00521373
-0.00430698
-0.00341305
-0.00271783
-0.0013728
-0.00187665
-0.0677739
-0.065763
-0.0637776
-0.061819
-0.0598882
-0.0579862
-0.0561137
-0.0542715
-0.0524601
-0.0506801
-0.0489317
-0.0472153
-0.045531
-0.0438788
-0.0422587
-0.0406707
-0.0391145
-0.0375899
-0.0360967
-0.0346343
-0.0332023
-0.0318004
-0.0304278
-0.0290841
-0.0277685
-0.0264805
-0.0252193
-0.0239841
-0.0227741
-0.0215887
-0.0204269
-0.019288
-0.0181709
-0.0170751
-0.0159993
-0.0149432
-0.013905
-0.0128855
-0.0118809
-0.0108959
-0.00992031
-0.0089692
-0.00801694
-0.00710158
-0.00616879
-0.00528441
-0.00439677
-0.00346575
-0.00283579
-0.0013673
-0.00211619
-0.0676749
-0.0656955
-0.063739
-0.0618067
-0.0599
-0.0580197
-0.0561668
-0.0543421
-0.0525464
-0.0507801
-0.0490438
-0.0473378
-0.0456624
-0.0440177
-0.0424038
-0.0408208
-0.0392684
-0.0377467
-0.0362552
-0.0347938
-0.0333621
-0.0319596
-0.0305859
-0.0292404
-0.0279226
-0.0266319
-0.0253675
-0.0241289
-0.0229154
-0.021726
-0.0205602
-0.0194171
-0.0182958
-0.0171956
-0.0161155
-0.0150551
-0.0140127
-0.0129891
-0.0119807
-0.0109914
-0.010013
-0.00905725
-0.00810404
-0.00718226
-0.00625308
-0.00535633
-0.00448473
-0.0035213
-0.00294834
-0.00136898
-0.00234316
-0.0675649
-0.065618
-0.0636914
-0.0617866
-0.0599047
-0.0580471
-0.0562146
-0.0544083
-0.0526289
-0.0508771
-0.0491534
-0.0474584
-0.0457924
-0.0441557
-0.0425485
-0.0409708
-0.0394226
-0.037904
-0.0364146
-0.0349544
-0.0335231
-0.0321202
-0.0307454
-0.0293983
-0.0280784
-0.026785
-0.0255176
-0.0242757
-0.0230584
-0.0218652
-0.0206952
-0.0195479
-0.0184222
-0.0173177
-0.0162332
-0.0151684
-0.0141218
-0.0130937
-0.0120815
-0.011088
-0.0101064
-0.00914608
-0.00819144
-0.00726365
-0.00633697
-0.00542932
-0.00457079
-0.00357943
-0.00305536
-0.00137767
-0.00255693
-0.0674436
-0.0655304
-0.0636347
-0.0617582
-0.0599022
-0.058068
-0.0562568
-0.0544696
-0.0527072
-0.0509705
-0.0492602
-0.0475768
-0.0459208
-0.0442925
-0.0426923
-0.0411204
-0.0395767
-0.0380615
-0.0365746
-0.0351158
-0.033685
-0.0322819
-0.0309063
-0.0295577
-0.0282356
-0.0269397
-0.0256693
-0.024424
-0.0232031
-0.0220059
-0.0208318
-0.0196802
-0.0185502
-0.0174412
-0.0163522
-0.0152829
-0.0142319
-0.0131995
-0.0121832
-0.0111853
-0.0102004
-0.00923555
-0.00827904
-0.00734561
-0.00642038
-0.00550316
-0.00465489
-0.00363987
-0.00315678
-0.00139313
-0.00275696
-0.067311
-0.0654324
-0.0635686
-0.0617213
-0.0598921
-0.0580822
-0.056293
-0.0545256
-0.052781
-0.0510601
-0.0493637
-0.0476925
-0.0460469
-0.0444277
-0.042835
-0.0412692
-0.0397304
-0.0382189
-0.0367346
-0.0352776
-0.0338476
-0.0324445
-0.0310681
-0.0297181
-0.0283941
-0.0270957
-0.0258224
-0.0245737
-0.0233491
-0.022148
-0.0209698
-0.0198138
-0.0186794
-0.0175659
-0.0164724
-0.0153985
-0.014343
-0.0133061
-0.0122857
-0.0112833
-0.0102949
-0.00932552
-0.00836671
-0.00742796
-0.0065032
-0.00557763
-0.00473697
-0.0037023
-0.00325255
-0.00141504
-0.0029428
-0.0671671
-0.0653239
-0.0634929
-0.0616758
-0.0598741
-0.0580894
-0.056323
-0.0545762
-0.0528501
-0.0511456
-0.0494637
-0.0478051
-0.0461707
-0.0445608
-0.042976
-0.0414168
-0.0398833
-0.0383759
-0.0368946
-0.0354395
-0.0340105
-0.0326076
-0.0312306
-0.0298794
-0.0285535
-0.0272526
-0.0259765
-0.0247245
-0.0234963
-0.0222913
-0.0211089
-0.0199486
-0.0188097
-0.0176916
-0.0165935
-0.0155149
-0.014455
-0.0134134
-0.0123887
-0.0113819
-0.0103897
-0.00941582
-0.00845434
-0.00751053
-0.00658535
-0.00565251
-0.00481699
-0.00376639
-0.00334267
-0.00144302
-0.00311408
-0.0670117
-0.065205
-0.0634076
-0.0616214
-0.0598482
-0.0580894
-0.0563465
-0.054621
-0.0529139
-0.0512265
-0.0495597
-0.0479145
-0.0462915
-0.0446915
-0.0431152
-0.0415629
-0.040035
-0.038532
-0.037054
-0.0356011
-0.0341734
-0.0327709
-0.0313935
-0.0300411
-0.0287135
-0.0274104
-0.0261314
-0.0248762
-0.0236444
-0.0224355
-0.021249
-0.0200843
-0.0189408
-0.0178181
-0.0167154
-0.0156321
-0.0145675
-0.0135213
-0.0124922
-0.0114808
-0.0104847
-0.00950629
-0.00854179
-0.00759313
-0.0066667
-0.00572755
-0.00489491
-0.00383178
-0.00342717
-0.00147664
-0.00327053
-0.0668452
-0.0650756
-0.0633127
-0.0615582
-0.0598141
-0.0580819
-0.0563633
-0.0546597
-0.0529724
-0.0513026
-0.0496515
-0.04802
-0.0464091
-0.0448196
-0.043252
-0.0417071
-0.0401852
-0.0386869
-0.0372124
-0.035762
-0.0343358
-0.0329339
-0.0315564
-0.030203
-0.0288738
-0.0275684
-0.0262868
-0.0250284
-0.0237931
-0.0225803
-0.0213896
-0.0202206
-0.0190726
-0.0179452
-0.0168378
-0.0157498
-0.0146804
-0.0136295
-0.0125959
-0.0115799
-0.0105797
-0.00959675
-0.00862891
-0.00767558
-0.00674717
-0.00580252
-0.00497069
-0.00389809
-0.00350609
-0.00151542
-0.003412
-0.0666677
-0.0649361
-0.0632082
-0.0614862
-0.0597718
-0.0580669
-0.0563732
-0.0546921
-0.0530251
-0.0513736
-0.0497387
-0.0481216
-0.0465232
-0.0449445
-0.0433861
-0.0418489
-0.0403335
-0.0388402
-0.0373696
-0.0359219
-0.0344975
-0.0330964
-0.0317188
-0.0303647
-0.029034
-0.0277266
-0.0264423
-0.0251809
-0.023942
-0.0227254
-0.0215306
-0.0203572
-0.0192047
-0.0180727
-0.0169605
-0.0158677
-0.0147936
-0.0137379
-0.0126996
-0.011679
-0.0106745
-0.00968703
-0.00871556
-0.00775768
-0.00682663
-0.00587716
-0.00504428
-0.00396496
-0.00357953
-0.00155882
-0.00353842
-0.0664798
-0.0647866
-0.0630944
-0.0614054
-0.0597214
-0.0580444
-0.0563761
-0.0547181
-0.053072
-0.0514393
-0.0498211
-0.0482188
-0.0466334
-0.0450659
-0.0435172
-0.0419881
-0.0404793
-0.0389915
-0.037525
-0.0360804
-0.034658
-0.0332579
-0.0318805
-0.0305258
-0.0291937
-0.0278844
-0.0265976
-0.0253332
-0.0240909
-0.0228705
-0.0216716
-0.0204939
-0.0193369
-0.0182002
-0.0170832
-0.0159856
-0.0149067
-0.0138462
-0.0128032
-0.0117778
-0.010769
-0.00977693
-0.00880158
-0.00783924
-0.00690496
-0.00595122
-0.00511565
-0.00403199
-0.00364758
-0.0016063
-0.00364982
-0.0662818
-0.0646275
-0.0629716
-0.061316
-0.059663
-0.0580143
-0.056372
-0.0547376
-0.0531129
-0.0514994
-0.0498984
-0.0483113
-0.0467393
-0.0451835
-0.0436448
-0.0421242
-0.0406225
-0.0391403
-0.0376783
-0.036237
-0.0348168
-0.033418
-0.032041
-0.0306858
-0.0293526
-0.0280415
-0.0267523
-0.025485
-0.0242394
-0.0230153
-0.0218124
-0.0206303
-0.0194688
-0.0183275
-0.0172057
-0.0161033
-0.0150195
-0.0139541
-0.0129064
-0.0118763
-0.0108629
-0.00986624
-0.00888679
-0.00792005
-0.00698204
-0.00602447
-0.00518476
-0.0040988
-0.00371037
-0.00165725
-0.00374635
-0.0660744
-0.0644595
-0.0628401
-0.0612184
-0.0595967
-0.0579769
-0.0563609
-0.0547506
-0.0531477
-0.0515538
-0.0499704
-0.0483989
-0.0468407
-0.0452969
-0.0437686
-0.0422569
-0.0407625
-0.0392863
-0.0378291
-0.0363913
-0.0349736
-0.0335763
-0.0321998
-0.0308444
-0.0295102
-0.0281974
-0.026906
-0.0256359
-0.024387
-0.0231593
-0.0219524
-0.0207662
-0.0196002
-0.0184542
-0.0173277
-0.0162204
-0.0151318
-0.0140615
-0.013009
-0.0119741
-0.0109561
-0.00995477
-0.00897103
-0.0079999
-0.00705773
-0.00609665
-0.00525156
-0.00416503
-0.00376804
-0.00171108
-0.00382825
-0.0658585
-0.0642831
-0.0627005
-0.0611131
-0.0595229
-0.0579322
-0.056343
-0.054757
-0.0531763
-0.0516024
-0.0500369
-0.0484815
-0.0469374
-0.0454059
-0.0438883
-0.0423857
-0.040899
-0.0394291
-0.0379768
-0.0365429
-0.0351279
-0.0337323
-0.0323566
-0.0310011
-0.0296661
-0.0283518
-0.0270582
-0.0257855
-0.0245335
-0.0233022
-0.0220915
-0.0209011
-0.0197307
-0.0185801
-0.0174489
-0.0163367
-0.0152433
-0.0141681
-0.0131107
-0.0120709
-0.0110483
-0.0100423
-0.0090541
-0.00807859
-0.0071319
-0.00616753
-0.00531601
-0.0042303
-0.00382075
-0.00176718
-0.00389586
-0.0656349
-0.0640991
-0.0625535
-0.0610004
-0.0594421
-0.0578807
-0.0563184
-0.0547571
-0.0531987
-0.0516451
-0.0500979
-0.0485587
-0.047029
-0.0455102
-0.0440036
-0.0425103
-0.0410316
-0.0395682
-0.0381212
-0.0366913
-0.0352792
-0.0338856
-0.0325109
-0.0311555
-0.0298199
-0.0285042
-0.0272086
-0.0259334
-0.0246784
-0.0234437
-0.0222291
-0.0210346
-0.0198599
-0.0187047
-0.0175688
-0.0164519
-0.0153536
-0.0142735
-0.0132113
-0.0121667
-0.0111393
-0.0101286
-0.0091358
-0.00815589
-0.00720438
-0.00623688
-0.00537806
-0.00429429
-0.00386868
-0.00182494
-0.00394964
-0.0654049
-0.0639086
-0.0623999
-0.0608811
-0.0593546
-0.0578226
-0.0562874
-0.0547509
-0.0532151
-0.0516819
-0.0501531
-0.0486304
-0.0471154
-0.0456095
-0.0441141
-0.0426305
-0.0411598
-0.0397033
-0.0382617
-0.0368361
-0.0354272
-0.0340356
-0.0326621
-0.031307
-0.0299709
-0.0286541
-0.0273567
-0.026079
-0.0248212
-0.0235831
-0.0223649
-0.0211664
-0.0199874
-0.0188278
-0.0176873
-0.0165656
-0.0154625
-0.0143775
-0.0133105
-0.012261
-0.0112288
-0.0102134
-0.00921593
-0.0082316
-0.00727504
-0.00630446
-0.00543765
-0.00435665
-0.003912
-0.00188377
-0.00399012
-0.0651695
-0.0637125
-0.0622405
-0.0607559
-0.0592612
-0.0577586
-0.0562504
-0.0547387
-0.0532256
-0.051713
-0.0502028
-0.0486967
-0.0471964
-0.0457036
-0.0442195
-0.0427458
-0.0412835
-0.0398339
-0.038398
-0.0369768
-0.0355713
-0.034182
-0.0328098
-0.0314553
-0.0301188
-0.0288009
-0.0275019
-0.026222
-0.0249614
-0.0237202
-0.0224984
-0.021296
-0.0201128
-0.0189488
-0.0178038
-0.0166774
-0.0155695
-0.0144798
-0.0134079
-0.0123536
-0.0113166
-0.0102965
-0.00929427
-0.0083055
-0.0073437
-0.00637006
-0.00549472
-0.00441709
-0.00395091
-0.0019431
-0.00401793
-0.0649303
-0.0635121
-0.0620764
-0.0606258
-0.0591626
-0.0576892
-0.0562079
-0.054721
-0.0532305
-0.0517384
-0.0502468
-0.0487574
-0.047272
-0.0457923
-0.0443198
-0.0428559
-0.0414021
-0.0399597
-0.0385296
-0.0371131
-0.035711
-0.0343242
-0.0329536
-0.0315997
-0.0302631
-0.0289443
-0.0276438
-0.0263618
-0.0250986
-0.0238543
-0.0226291
-0.0214229
-0.0202357
-0.0190675
-0.0179179
-0.016787
-0.0156744
-0.0145799
-0.0135033
-0.0124442
-0.0114025
-0.0103776
-0.00937058
-0.00837735
-0.0074102
-0.00643346
-0.00554921
-0.00447533
-0.00398562
-0.00200237
-0.00403381
-0.0646888
-0.0633088
-0.0619089
-0.0604917
-0.0590596
-0.0576151
-0.0561605
-0.0546981
-0.05323
-0.0517584
-0.0502852
-0.0488125
-0.047342
-0.0458754
-0.0444145
-0.0429607
-0.0415155
-0.0400802
-0.0386561
-0.0372443
-0.0358459
-0.0344618
-0.0330928
-0.0317397
-0.0304032
-0.0290837
-0.0277818
-0.0264979
-0.0252323
-0.0239851
-0.0227566
-0.0215467
-0.0203556
-0.0191832
-0.0180294
-0.016894
-0.0157768
-0.0146776
-0.0135963
-0.0125324
-0.011486
-0.0104564
-0.00944464
-0.00844692
-0.00747436
-0.00649447
-0.00560106
-0.00453112
-0.00401632
-0.00206108
-0.00403855
-0.0644467
-0.063104
-0.0617392
-0.0603548
-0.0589533
-0.0575371
-0.0561088
-0.0546705
-0.0532246
-0.0517732
-0.0503184
-0.0488621
-0.0474064
-0.0459529
-0.0445035
-0.0430598
-0.0416232
-0.0401952
-0.0387771
-0.0373702
-0.0359756
-0.0345942
-0.033227
-0.0318749
-0.0305385
-0.0292185
-0.0279154
-0.0266297
-0.0253618
-0.0241119
-0.0228802
-0.0216669
-0.0204721
-0.0192956
-0.0181376
-0.0169978
-0.0158762
-0.0147725
-0.0136865
-0.012618
-0.0115669
-0.0105327
-0.00951618
-0.00851399
-0.00753599
-0.00655289
-0.0056502
-0.00458425
-0.00404323
-0.00211878
-0.00403304
-0.0642059
-0.0628995
-0.0615688
-0.0602163
-0.0588447
-0.0574563
-0.0560536
-0.054639
-0.0532148
-0.0517832
-0.0503464
-0.0489064
-0.0474652
-0.0460247
-0.0445868
-0.043153
-0.041725
-0.0403043
-0.0388923
-0.0374903
-0.0360994
-0.0347209
-0.0333557
-0.0320046
-0.0306685
-0.0293482
-0.0280441
-0.0267568
-0.0254867
-0.0242342
-0.0229996
-0.021783
-0.0205845
-0.0194042
-0.0182421
-0.0170982
-0.0159722
-0.0148641
-0.0137736
-0.0127006
-0.011645
-0.0106062
-0.00958493
-0.0085783
-0.0075949
-0.00660852
-0.00569655
-0.00463452
-0.00406656
-0.00217503
-0.00401823
-0.0639683
-0.062697
-0.0613993
-0.0600777
-0.058735
-0.0573734
-0.0559957
-0.0546041
-0.053201
-0.0517888
-0.0503695
-0.0489454
-0.0475185
-0.0460908
-0.044664
-0.0432401
-0.0418206
-0.0404071
-0.0390011
-0.037604
-0.0362171
-0.0348415
-0.0334783
-0.0321284
-0.0307927
-0.0294721
-0.0281671
-0.0268783
-0.0256063
-0.0243515
-0.023114
-0.0218943
-0.0206924
-0.0195085
-0.0183425
-0.0171945
-0.0160644
-0.014952
-0.0138572
-0.0127798
-0.0117197
-0.0106764
-0.00965062
-0.00863961
-0.00765089
-0.00666119
-0.00574004
-0.00468177
-0.00408652
-0.00222949
-0.00399512
-0.0637362
-0.0624985
-0.0612324
-0.0599405
-0.0586255
-0.0572898
-0.0559361
-0.0545667
-0.053184
-0.0517904
-0.0503882
-0.0489795
-0.0475665
-0.0461511
-0.0447353
-0.0433209
-0.0419097
-0.0405033
-0.0391033
-0.0377111
-0.036328
-0.0349553
-0.0335942
-0.0322456
-0.0309105
-0.0295897
-0.0282839
-0.0269939
-0.0257201
-0.024463
-0.023223
-0.0220003
-0.0207952
-0.0196078
-0.0184382
-0.0172863
-0.0161522
-0.0150357
-0.0139368
-0.0128552
-0.0117908
-0.0107432
-0.00971295
-0.00869766
-0.00770375
-0.0067107
-0.00578059
-0.00472587
-0.00410333
-0.00228185
-0.00396477
-0.0635118
-0.062306
-0.0610699
-0.0598063
-0.0585177
-0.0572067
-0.0558758
-0.0545276
-0.0531644
-0.0517887
-0.0504028
-0.0490089
-0.0476091
-0.0462056
-0.0448004
-0.0433953
-0.0419921
-0.0405926
-0.0391984
-0.037811
-0.0364317
-0.035062
-0.0337029
-0.0323556
-0.0310211
-0.0297003
-0.028394
-0.0271028
-0.0258274
-0.0245683
-0.0233258
-0.0221004
-0.0208923
-0.0197016
-0.0185285
-0.0173731
-0.0162352
-0.0151149
-0.014012
-0.0129263
-0.0118579
-0.0108062
-0.0097716
-0.00875216
-0.00775325
-0.00675687
-0.0058181
-0.0047667
-0.00411721
-0.00233186
-0.00392827
-0.0632976
-0.0621217
-0.0609139
-0.0596768
-0.058413
-0.0571252
-0.055816
-0.0544877
-0.053143
-0.0517842
-0.0504137
-0.0490338
-0.0476467
-0.0462545
-0.0448593
-0.0434631
-0.0420676
-0.0406747
-0.0392861
-0.0379032
-0.0365277
-0.0351608
-0.0338038
-0.0324579
-0.0311241
-0.0298034
-0.0284965
-0.0272044
-0.0259275
-0.0246665
-0.0234219
-0.022194
-0.0209831
-0.0197894
-0.0186131
-0.0174542
-0.0163128
-0.0151889
-0.0140823
-0.0129928
-0.0119205
-0.0108649
-0.00982625
-0.00880284
-0.00779917
-0.00679953
-0.00585249
-0.00480418
-0.00412836
-0.00237935
-0.00388673
-0.063096
-0.0619479
-0.0607662
-0.0595538
-0.0583131
-0.0570469
-0.0557577
-0.0544481
-0.0531206
-0.0517776
-0.0504215
-0.0490547
-0.0476794
-0.0462979
-0.0449121
-0.0435241
-0.0421359
-0.0407493
-0.0393659
-0.0379875
-0.0366155
-0.0352513
-0.0338964
-0.0325518
-0.0312187
-0.0298981
-0.0285909
-0.0272979
-0.0260198
-0.0247571
-0.0235105
-0.0222803
-0.0210668
-0.0198704
-0.0186911
-0.0175291
-0.0163845
-0.0152572
-0.0141471
-0.0130542
-0.0119783
-0.010919
-0.00987654
-0.00884939
-0.00784126
-0.00683848
-0.00588366
-0.00483824
-0.00413698
-0.0024242
-0.00384126
-0.0629098
-0.0617869
-0.0606292
-0.0594392
-0.0582197
-0.0569732
-0.0557024
-0.0544098
-0.053098
-0.0517695
-0.0504266
-0.0490719
-0.0477075
-0.0463357
-0.0449586
-0.0435783
-0.0421968
-0.040816
-0.0394375
-0.0380632
-0.0366945
-0.035333
-0.0339799
-0.0326366
-0.0313043
-0.0299839
-0.0286764
-0.0273827
-0.0261034
-0.0248393
-0.0235909
-0.0223587
-0.0211429
-0.019944
-0.018762
-0.0175972
-0.0164497
-0.0153193
-0.0142061
-0.0131099
-0.0120307
-0.0109681
-0.00992211
-0.0088915
-0.00787924
-0.00687352
-0.0059115
-0.00486882
-0.00414327
-0.00246633
-0.00379298
-0.0627417
-0.0616414
-0.0605049
-0.059335
-0.0581343
-0.0569055
-0.0556511
-0.0543738
-0.0530761
-0.0517606
-0.0504297
-0.0490857
-0.0477311
-0.0463681
-0.0449989
-0.0436256
-0.0422501
-0.0408745
-0.0395005
-0.0381299
-0.0367642
-0.0354051
-0.0340538
-0.0327118
-0.0313801
-0.0300599
-0.0287523
-0.0274579
-0.0261778
-0.0249124
-0.0236624
-0.0224284
-0.0212106
-0.0200095
-0.0188252
-0.0176579
-0.0165077
-0.0153746
-0.0142586
-0.0131595
-0.0120773
-0.0110117
-0.00996256
-0.00892882
-0.00791285
-0.00690444
-0.00593587
-0.00489588
-0.00414741
-0.00250581
-0.00374296
-0.0625945
-0.0615137
-0.0603957
-0.0592432
-0.0580589
-0.0568454
-0.0556053
-0.0543413
-0.0530559
-0.0517517
-0.0504311
-0.0490966
-0.0477505
-0.0463952
-0.0450329
-0.0436656
-0.0422955
-0.0409245
-0.0395544
-0.0381871
-0.0368241
-0.0354671
-0.0341174
-0.0327764
-0.0314454
-0.0301255
-0.0288177
-0.0275229
-0.0262419
-0.0249755
-0.0237242
-0.0224886
-0.0212691
-0.0200661
-0.0188798
-0.0177103
-0.0165578
-0.0154224
-0.0143039
-0.0132024
-0.0121176
-0.0110494
-0.00999748
-0.00896099
-0.00794178
-0.00693102
-0.00595665
-0.00491934
-0.00414956
-0.00254266
-0.00369234
-0.062471
-0.0614064
-0.0603038
-0.0591659
-0.0579952
-0.0567944
-0.0555663
-0.0543133
-0.0530382
-0.0517434
-0.0504314
-0.0491048
-0.0477659
-0.0464171
-0.0450605
-0.0436983
-0.0423326
-0.0409655
-0.0395987
-0.0382342
-0.0368735
-0.0355182
-0.0341699
-0.0328299
-0.0314995
-0.0301798
-0.0288719
-0.0275768
-0.0262952
-0.0250279
-0.0237755
-0.0225386
-0.0213177
-0.0201131
-0.0189251
-0.0177538
-0.0165995
-0.0154621
-0.0143416
-0.013238
-0.0121511
-0.0110806
-0.0100264
-0.00898763
-0.0079657
-0.006953
-0.00597366
-0.00493914
-0.00414988
-0.00257634
-0.00364259
-0.0623742
-0.0613223
-0.0602316
-0.059105
-0.0579449
-0.0567541
-0.0555352
-0.0542909
-0.0530238
-0.0517364
-0.0504312
-0.0491108
-0.0477775
-0.0464337
-0.0450816
-0.0437234
-0.0423613
-0.0409971
-0.039633
-0.0382706
-0.0369117
-0.0355579
-0.0342107
-0.0328714
-0.0315415
-0.030222
-0.0289141
-0.0276186
-0.0263365
-0.0250686
-0.0238154
-0.0225775
-0.0213555
-0.0201497
-0.0189604
-0.0177877
-0.0166319
-0.015493
-0.014371
-0.0132657
-0.0121771
-0.0111049
-0.0100489
-0.00900833
-0.00798426
-0.0069701
-0.00598673
-0.00495521
-0.00414865
-0.00260624
-0.0035943
-0.0623069
-0.0612637
-0.0601814
-0.0590625
-0.0579098
-0.0567259
-0.0555135
-0.0542752
-0.0530136
-0.0517313
-0.0504309
-0.0491147
-0.0477853
-0.046445
-0.045096
-0.0437406
-0.0423809
-0.0410189
-0.0396566
-0.0382957
-0.0369381
-0.0355853
-0.0342388
-0.0329001
-0.0315705
-0.0302512
-0.0289432
-0.0276475
-0.0263651
-0.0250967
-0.023843
-0.0226045
-0.0213817
-0.020175
-0.0189848
-0.0178112
-0.0166544
-0.0155144
-0.0143913
-0.0132849
-0.0121951
-0.0111217
-0.0100645
-0.00902265
-0.00799707
-0.006982
-0.00599551
-0.00496777
-0.00414499
-0.00264085
-0.00354052
-0.062272
-0.0612334
-0.0601553
-0.0590405
-0.0578916
-0.0567113
-0.0555022
-0.054267
-0.0530083
-0.0517287
-0.0504307
-0.0491167
-0.0477893
-0.0464508
-0.0451035
-0.0437495
-0.0423911
-0.0410302
-0.0396688
-0.0383088
-0.0369518
-0.0355995
-0.0342534
-0.032915
-0.0315856
-0.0302663
-0.0289583
-0.0276626
-0.02638
-0.0251114
-0.0238573
-0.0226185
-0.0213953
-0.0201882
-0.0189975
-0.0178234
-0.0166661
-0.0155255
-0.0144018
-0.0132949
-0.0122045
-0.0111305
-0.0100726
-0.00903011
-0.00800367
-0.00698841
-0.0059993
-0.00497734
-0.00413385
-0.0027065
-0.00346756
)
;

boundaryField
{
    inlet
    {
        type            zeroGradient;
    }
    outlet
    {
        type            fixedValue;
        value           uniform 0;
    }
    cylinder