/*--------------------------------*- C++ -*----------------------------------*\
  =========                 |
  \\      /  F ield         | OpenFOAM: The Open Source CFD Toolbox
   \\    /   O peration     | Website:  https://openfoam.org
    \\  /    A nd           | Version:  7
     \\/     M anipulation  |
\*---------------------------------------------------------------------------*/
FoamFile
{
    version     2.0;
    format      ascii;
    class       volScalarField;
    location    "25";
    object      p;
}
// * * * * * * * * * * * * * * * * * * * * * * * * * * * * * * * * * * * * * //

dimensions      [0 2 -2 0 0 0 0];

internalField   nonuniform List<scalar> 
656
(
0.0870105
0.101148
0.0921901
0.103418
0.1159
0.0956358
0.110778
0.11986
0.130559
0.11701
0.129367
0.136292
0.145069
0.122177
0.138393
0.1479
0.15267
0.159367
0.146859
0.159711
0.166317
0.168947
0.173384
0.156257
0.171473
0.180888
0.184561
0.185093
0.187051
0.185111
0.195926
0.20185
0.202579
0.201094
0.200276
0.213785
0.220124
0.222521
0.220318
0.216886
0.212823
0.228087
0.242159
0.243976
0.242827
0.237714
0.232188
0.224191
0.26081
0.270116
0.267389
0.2627
0.254697
0.246714
0.233963
0.293021
0.29753
0.290276
0.282076
0.271216
0.261054
0.245933
0.324582
0.324288
0.312547
0.300885
0.287206
0.274879
0.258259
0.355349
0.350277
0.334117
0.319059
0.302614
0.288081
0.27014
0.410531
0.385174
0.375383
0.3549
0.336533
0.317395
0.300674
0.281442
0.445721
0.413913
0.3995
0.374817
0.353244
0.3315
0.312653
0.292178
0.479512
0.441426
0.422523
0.393789
0.369132
0.344883
0.323989
0.302331
0.511723
0.467581
0.444352
0.411741
0.384142
0.357503
0.334654
0.311866
0.54218
0.49225
0.464892
0.428603
0.398218
0.369319
0.344624
0.320756
0.57072
0.515313
0.484054
0.444309
0.411311
0.380292
0.35387
0.328981
0.597187
0.536657
0.501754
0.458796
0.423372
0.390388
0.362369
0.336521
0.621438
0.556178
0.517915
0.472006
0.434359
0.399574
0.370096
0.34336
0.661021
0.64334
0.573779
0.532464
0.483886
0.44423
0.407819
0.377027
0.349481
0.683137
0.662775
0.589375
0.545339
0.494388
0.45295
0.415096
0.383141
0.35487
0.702356
0.679635
0.602889
0.556483
0.503471
0.460485
0.42138
0.38842
0.359515
0.718559
0.693829
0.614253
0.565846
0.511097
0.466809
0.42665
0.392845
0.363404
0.731643
0.705279
0.623412
0.573386
0.517236
0.471896
0.430888
0.396404
0.366527
0.741527
0.71392
0.63032
0.57907
0.521861
0.475729
0.43408
0.399084
0.368877
0.748149
0.719707
0.634944
0.582873
0.524955
0.478292
0.436214
0.400876
0.370448
0.637261
0.584778
0.526505
0.479576
0.437284
0.401773
0.371234
0.219738
0.204145
0.191677
0.179042
0.165991
0.152788
0.139449
0.218109
0.201728
0.189401
0.176901
0.163993
0.151001
0.21349
0.196965
0.184953
0.172869
0.160351
0.208473
0.192373
0.180609
0.168958
0.203408
0.18805
0.176509
0.198267
0.183762
0.193122
0.240136
0.240596
0.241684
0.243168
0.245025
0.24711
0.24923
0.251192
0.252602
0.25328
0.252485
0.25054
0.245435
0.240563
0.224134
0.23985
0.240261
0.241246
0.242577
0.24422
0.246024
0.247784
0.249298
0.250163
0.250201
0.248658
0.245908
0.239844
0.234211
0.216743
0.239553
0.239927
0.240819
0.242013
0.24347
0.245034
0.246501
0.247668
0.248134
0.247736
0.245725
0.242529
0.235991
0.230095
0.213217
0.239237
0.23957
0.240362
0.241408
0.24266
0.243963
0.245109
0.245894
0.245922
0.245045
0.242526
0.238835
0.23183
0.225574
0.20913
0.238902
0.23919
0.239874
0.24076
0.241794
0.242817
0.243618
0.243995
0.243557
0.242168
0.239111
0.234884
0.227419
0.22071
0.204583
0.238547
0.238788
0.239358
0.240077
0.240882
0.241614
0.24206
0.242019
0.241108
0.239204
0.23562
0.230865
0.222995
0.21582
0.200054
0.238171
0.238362
0.238814
0.239358
0.239926
0.240358
0.24044
0.239974
0.23859
0.236174
0.232081
0.226817
0.218598
0.21097
0.195619
0.237774
0.237914
0.238241
0.238603
0.238925
0.239047
0.238756
0.237859
0.236
0.233077
0.228493
0.222738
0.214218
0.245646
0.246523
0.248751
0.251909
0.256113
0.261314
0.267536
0.274791
0.283047
0.292306
0.302517
0.313636
0.325573
0.338269
0.351499
0.245616
0.246491
0.248713
0.251864
0.256058
0.261245
0.26745
0.274679
0.282905
0.292124
0.302285
0.313342
0.325202
0.337809
0.35092
0.245557
0.246427
0.248639
0.251775
0.255948
0.261106
0.267276
0.274455
0.28262
0.29176
0.301821
0.312756
0.324462
0.33689
0.349764
0.245467
0.246331
0.248528
0.251641
0.255782
0.260899
0.267017
0.274121
0.282193
0.291216
0.301127
0.311878
0.323354
0.335514
0.348036
0.245348
0.246204
0.24838
0.251463
0.255563
0.260624
0.26667
0.273677
0.281625
0.290492
0.300204
0.31071
0.32188
0.333684
0.345737
0.2452
0.246046
0.248196
0.251242
0.255289
0.260281
0.266238
0.273124
0.280918
0.28959
0.299054
0.309255
0.320042
0.331405
0.342874
0.245024
0.245858
0.247977
0.250979
0.254962
0.259864
0.265721
0.272462
0.280072
0.288512
0.297678
0.307515
0.317844
0.328679
0.339454
0.24482
0.245641
0.247724
0.250673
0.254584
0.259369
0.265117
0.271695
0.27909
0.28726
0.296079
0.305492
0.315289
0.325514
0.335482
0.244589
0.245394
0.247437
0.250327
0.254156
0.258879
0.26443
0.270823
0.277973
0.285835
0.294259
0.303191
0.312382
0.321914
0.330969
0.244331
0.24512
0.247117
0.249941
0.253678
0.25829
0.263661
0.269848
0.276724
0.284241
0.292222
0.300616
0.309126
0.317887
0.325921
0.244048
0.244819
0.246766
0.249516
0.253146
0.257613
0.262814
0.268772
0.275344
0.282481
0.289971
0.297771
0.305527
0.313439
0.320347
0.24374
0.244492
0.246384
0.249055
0.25256
0.256883
0.261893
0.267597
0.273838
0.280558
0.287509
0.294661
0.301588
0.308578
0.314254
0.243409
0.244141
0.245972
0.248559
0.251968
0.256097
0.260897
0.266326
0.272207
0.278476
0.28484
0.29129
0.297314
0.303311
0.307648
0.243056
0.243767
0.245532
0.248008
0.251314
0.255256
0.259829
0.264963
0.270457
0.276241
0.281973
0.287668
0.292713
0.297647
0.300534
0.242681
0.24337
0.245067
0.247399
0.250594
0.25436
0.258691
0.263509
0.26859
0.273855
0.278911
0.283802
0.287792
0.291601
0.292918
0.242287
0.242952
0.244576
0.24692
0.249837
0.253408
0.257477
0.261956
0.266595
0.271303
0.275635
0.279668
0.282523
0.285145
0.284771
0.241873
0.242515
0.244058
0.246246
0.249043
0.252404
0.256195
0.26031
0.264474
0.268581
0.272128
0.275233
0.27685
0.278204
0.275986
0.241444
0.242063
0.243537
0.245582
0.248238
0.25139
0.254906
0.258661
0.262352
0.265852
0.268598
0.270734
0.271033
0.271044
0.266786
0.241
0.241602
0.242997
0.244935
0.24744
0.250399
0.253669
0.257108
0.260388
0.263362
0.265404
0.266676
0.265717
0.264478
0.258176
0.240536
0.2411
0.242384
0.244164
0.246448
0.24912
0.252026
0.255009
0.257716
0.259994
0.261149
0.261419
0.258977
0.25645
0.247335
)
;

boundaryField
{
    inlet
    {
        type            zeroGradient;
    }
    outlet
    {
        type            fixedValue;
        value           nonuniform 0();
    }
    cylinder
    {
        type            zeroGradient;
    }
    top
    {
        type            symmetryPlane;
    }
    bottom
    {
        type            symmetryPlane;
    }
    defaultFaces
    {
        type            empty;
    }
    procBoundary8to4
    {
        type            processor;
        value           nonuniform List<scalar> 
25
(
0.751473
0.722609
0.722609
0.637261
0.584778
0.526505
0.479576
0.437284
0.401773
0.371234
0.245646
0.246523
0.248751
0.251909
0.256113
0.261314
0.267536
0.274791
0.283047
0.292306
0.302517
0.313636
0.325573
0.338269
0.351499
)
;
    }
    procBoundary8to9
    {
        type            processor;
        value           nonuniform List<scalar> 
37
(
0.0706798
0.0736616
0.0736616
0.0743425
0.0743425
0.0729763
0.0975194
0.0975194
0.0984885
0.127343
0.127343
0.128579
0.161826
0.195045
0.195045
0.220242
0.25961
0.298481
0.336713
0.374129
0.374129
0.399373
0.438512
0.476237
0.512326
0.546562
0.578739
0.60866
0.636144
0.636144
0.832201
0.859843
0.883867
0.904125
0.92049
0.932857
0.941152
)
;
    }
    procBoundary8to12
    {
        type            processor;
        value           nonuniform List<scalar> 
34
(
0.0863535
0.0989862
0.112511
0.12601
0.12601
0.137908
0.137908
0.147785
0.147785
0.156848
0.156848
0.165275
0.165275
0.17245
0.17245
0.179493
0.179493
0.188031
0.206154
0.191248
0.237356
0.237441
0.237638
0.237811
0.237878
0.237681
0.237009
0.235676
0.233341
0.229917
0.224861
0.218636
0.206154
0.209857
)
;
    }
}


// ************************************************************************* //
