/*--------------------------------*- C++ -*----------------------------------*\
  =========                 |
  \\      /  F ield         | OpenFOAM: The Open Source CFD Toolbox
   \\    /   O peration     | Website:  https://openfoam.org
    \\  /    A nd           | Version:  7
     \\/     M anipulation  |
\*---------------------------------------------------------------------------*/
FoamFile
{
    version     2.0;
    format      ascii;
    class       surfaceScalarField;
    location    "15";
    object      phi;
}
// * * * * * * * * * * * * * * * * * * * * * * * * * * * * * * * * * * * * * //

dimensions      [0 3 -1 0 0 0 0];

internalField   nonuniform List<scalar> 
1262
(
0.00464745
-0.00141452
0.0046511
-0.00147796
0.00465632
-0.00156689
0.00466254
-0.00160964
0.00467058
-0.00172495
0.00467916
-0.00167909
0.00468975
-0.00184845
-0.00163467
0.0050856
-0.00106054
0.00506628
-0.00106015
0.00504817
-0.00105892
0.00503125
-0.00105731
0.00501548
-0.00105581
0.00500085
-0.00105494
0.00498735
-0.00105527
0.00497496
-0.00105742
0.00496368
-0.00106208
0.00495351
-0.00106996
0.00494444
-0.0010819
0.00493648
-0.00109866
0.00492963
-0.00112128
0.00492389
-0.00115024
0.0049193
-0.00118703
0.00491584
-0.00123081
0.00491358
-0.00128457
0.00491246
-0.00134284
0.00491266
-0.00141472
0.00491399
-0.0014793
0.00491679
-0.00156969
0.00492066
-0.00161351
0.00492613
-0.00173042
0.0049325
-0.00168546
0.00494035
-0.0018563
-0.00164342
0.00541234
-0.00103722
0.00539029
-0.0010381
0.0053695
-0.00103812
0.00534993
-0.00103774
0.00533157
-0.00103744
0.00531438
-0.00103775
0.00529836
-0.00103925
0.00528348
-0.00104255
0.00526975
-0.00104835
0.00525715
-0.00105736
0.00524567
-0.00107043
0.00523531
-0.0010883
0.00522607
-0.00111204
0.00521794
-0.00114211
0.00521093
-0.00118003
0.00520503
-0.00122491
0.00520029
-0.00127983
0.00519665
-0.0013392
0.00519425
-0.00141231
0.00519297
-0.00147802
0.00519301
-0.00156973
0.00519421
-0.0016147
0.00519674
-0.00173296
0.00520055
-0.00168927
0.00520526
-0.00186101
-0.00164986
0.00576002
-0.00101101
0.00573514
-0.00101321
0.00571153
-0.00101452
0.00568919
-0.00101539
0.00566808
-0.00101633
0.00564818
-0.00101785
0.00562947
-0.00102054
0.00561195
-0.00102503
0.00559558
-0.00103199
0.00558037
-0.00104215
0.00556629
-0.00105635
0.00555333
-0.00107534
0.00554149
-0.00110019
0.00553073
-0.00113135
0.00552107
-0.00117037
0.00551248
-0.00121632
0.00550498
-0.00127233
0.00549854
-0.00133276
0.00549323
-0.001407
0.00548901
-0.00147379
0.00548595
-0.00156667
0.00548411
-0.00161287
0.00548331
-0.00173215
0.00548419
-0.00169015
0.00548532
-0.00186213
-0.00165362
0.00612958
-0.000981848
0.00610175
-0.000985389
0.00607524
-0.000988003
0.00605
-0.000990156
0.00602602
-0.000992346
0.00600327
-0.000995105
0.00598174
-0.000999013
0.0059614
-0.00100469
0.00594224
-0.00101283
0.00592424
-0.00102414
0.00590737
-0.00103948
0.00589161
-0.00105958
0.00587695
-0.00108553
0.00586335
-0.00111775
0.00585079
-0.00115781
0.00583925
-0.00120478
0.00582872
-0.0012618
0.00581918
-0.00132322
0.00581064
-0.00139846
0.00580313
-0.00146629
0.0057966
-0.00156013
0.00579135
-0.00160762
0.00578679
-0.00172759
0.00578433
-0.00168769
0.0057814
-0.00185921
-0.0016543
0.00652185
-0.000949688
0.00649103
-0.000954569
0.00646152
-0.000958498
0.00643331
-0.00096194
0.00640636
-0.000965396
0.00638065
-0.000969399
0.00635617
-0.000974529
0.00633288
-0.000981404
0.00631078
-0.00099072
0.00628982
-0.00100318
0.00626998
-0.00101965
0.00625124
-0.00104084
0.00623355
-0.00106784
0.00621687
-0.00110108
0.00620118
-0.00114212
0.00618643
-0.00119002
0.00617258
-0.00124796
0.00615963
-0.00131027
0.00614753
-0.00138636
0.00613639
-0.00145515
0.00612598
-0.00154973
0.00611692
-0.00159856
0.00610815
-0.00171882
0.00610192
-0.00168147
0.00609445
-0.00185174
-0.00165145
0.00693761
-0.000914537
0.00690378
-0.000920741
0.00687126
-0.000925971
0.00684001
-0.000930694
0.00681002
-0.000935409
0.00678127
-0.000940649
0.00675374
-0.000946993
0.00672739
-0.000955057
0.00670221
-0.000965534
0.00667815
-0.000979127
0.00665518
-0.000996683
0.00663327
-0.00101892
0.00661236
-0.00104693
0.0065924
-0.00108111
0.00657333
-0.00112305
0.00655511
-0.0011718
0.00653766
-0.00123051
0.00652099
-0.00129361
0.00650499
-0.00137035
0.00648984
-0.00144
0.00647517
-0.00153505
0.00646186
-0.00158525
0.00644842
-0.00170538
0.00643796
-0.001671
0.00642542
-0.0018392
-0.0016446
0.00737754
-0.000876452
0.00734074
-0.000883938
0.0073052
-0.000890435
0.00727092
-0.000896409
0.00723786
-0.000902356
0.00720602
-0.000908808
0.00717537
-0.00091634
0.00714588
-0.000925565
0.00711751
-0.000937169
0.00709024
-0.000951851
0.007064
-0.000970451
0.00703876
-0.000993682
0.00701445
-0.00102261
0.006991
-0.00105766
0.00696833
-0.00110038
0.00694638
-0.00114985
0.00692506
-0.00120919
0.00690436
-0.00127291
0.00688411
-0.0013501
0.00686458
-0.00142048
0.00684523
-0.0015157
0.00682724
-0.00156727
0.00680863
-0.00168677
0.00679345
-0.00165581
0.00677531
-0.00182107
-0.00163323
0.0078422
-0.00083555
0.00780252
-0.00084425
0.00776404
-0.000851955
0.00772675
-0.000859125
0.00769065
-0.000866256
0.00765572
-0.000873871
0.00762192
-0.000882544
0.00758923
-0.000892879
0.00755762
-0.000905557
0.00752704
-0.000921267
0.00749743
-0.00094084
0.00746872
-0.000964978
0.00744085
-0.00099474
0.00741372
-0.00103054
0.00738724
-0.0010739
0.00736133
-0.00112394
0.00733585
-0.00118371
0.00731082
-0.00124788
0.00728598
-0.00132526
0.0072617
-0.00139619
0.00723724
-0.00149124
0.00721413
-0.00154415
0.00718986
-0.0016625
0.00716943
-0.00163538
0.00714513
-0.00179677
-0.00161681
0.00833204
-0.000792013
0.00828962
-0.000801828
0.00824831
-0.000810652
0.00820813
-0.00081894
0.00816905
-0.000827177
0.00813106
-0.000835885
0.00809414
-0.000845625
0.00805826
-0.000856997
0.00802338
-0.000870671
0.00798943
-0.000887323
0.00795637
-0.000907773
0.0079241
-0.000932711
0.00789254
-0.000963177
0.00786158
-0.00099958
0.0078311
-0.00104342
0.007801
-0.00109385
0.00777112
-0.00115382
0.00774146
-0.00121822
0.0077117
-0.0012955
0.00768228
-0.00136678
0.00765231
-0.00146127
0.0076236
-0.00151544
0.00759316
-0.00163207
0.00756695
-0.00160917
0.00753593
-0.00176574
-0.00159475
0.00884735
-0.000746085
0.00880241
-0.000756887
0.00875847
-0.000766712
0.00871554
-0.000776006
0.00867361
-0.000785248
0.00863267
-0.000794948
0.0085927
-0.000805658
0.00855367
-0.000817967
0.00851553
-0.00083253
0.00847822
-0.000850013
0.00844167
-0.000871216
0.00840577
-0.000896817
0.00837042
-0.00092783
0.00833551
-0.000964667
0.00830087
-0.00100878
0.0082664
-0.00105938
0.00823187
-0.00111929
0.00819731
-0.00118366
0.00816231
-0.0012605
0.00812739
-0.00133186
0.00809149
-0.00142536
0.00805672
-0.00148068
0.00801962
-0.00159497
0.00798708
-0.00157663
0.00794875
-0.00172742
-0.00156645
0.00938833
-0.000698078
0.00934114
-0.000709703
0.00929481
-0.000720379
0.00924935
-0.000730541
0.00920475
-0.000740655
0.00916102
-0.000751218
0.00911814
-0.000762771
0.00907606
-0.000775888
0.00903473
-0.000791207
0.0089941
-0.000809379
0.00895407
-0.000831181
0.00891453
-0.000857277
0.00887534
-0.000888649
0.00883639
-0.000925711
0.00879746
-0.000969854
0.00875845
-0.00102036
0.00871907
-0.00107991
0.00867936
-0.00114395
0.00863883
-0.00121996
0.00859807
-0.0012911
0.00855583
-0.00138313
0.00851455
-0.00143939
0.00847029
-0.00155071
0.00843085
-0.00153718
0.00838467
-0.00168124
-0.00153129
0.00995502
-0.000648357
0.00990593
-0.000660612
0.00985752
-0.00067196
0.00980979
-0.00068282
0.00976278
-0.000693643
0.00971648
-0.000704913
0.00967086
-0.000717152
0.00962589
-0.000730918
0.00958151
-0.000746829
0.00953765
-0.000765517
0.0094942
-0.000787732
0.00945104
-0.000814122
0.00940802
-0.000845628
0.00936498
-0.00088267
0.0093217
-0.000926568
0.00927802
-0.000976688
0.00923363
-0.00103552
0.00918855
-0.00109887
0.00914221
-0.00117363
0.00909528
-0.00124417
0.00904635
-0.0013342
0.00899811
-0.00139116
0.00894621
-0.00149881
0.0088993
-0.00149027
0.00884471
-0.00162665
-0.00148862
0.0105474
-0.000597337
0.0104968
-0.000610002
0.0104467
-0.000621813
0.010397
-0.000633173
0.0103479
-0.000644515
0.0102993
-0.000656304
0.0102512
-0.000669044
0.0102035
-0.000683271
0.0101563
-0.00069958
0.0101093
-0.000718579
0.0100626
-0.000740988
0.0100159
-0.000767435
0.00996908
-0.000798816
0.00992196
-0.000835552
0.00987428
-0.000878885
0.00982586
-0.000928268
0.00977633
-0.000985996
0.0097257
-0.00104824
0.00967334
-0.00112127
0.00961995
-0.00119077
0.00956397
-0.00127823
0.00950836
-0.00133554
0.00944837
-0.00143882
0.00939343
-0.00143534
0.00932991
-0.00156312
-0.00143778
0.0111654
-0.000545463
0.0111137
-0.000558294
0.0110622
-0.000570337
0.011011
-0.000581974
0.0109601
-0.000593619
0.0109095
-0.000605715
0.0108592
-0.000618742
0.0108092
-0.000633212
0.0107593
-0.000649694
0.0107095
-0.000668769
0.0106596
-0.00069112
0.0106095
-0.000717352
0.010559
-0.000748311
0.0105079
-0.000784416
0.0104558
-0.000826824
0.0104026
-0.000875076
0.0103479
-0.000931255
0.0102916
-0.000991932
0.010233
-0.0010627
0.0101729
-0.00113065
0.0101096
-0.00121492
0.0100462
-0.00127215
0.0099777
-0.00137034
0.00991419
-0.00137183
0.00984124
-0.00149017
-0.00137813
0.0118089
-0.000493188
0.0117565
-0.000505926
0.0117041
-0.000517952
0.0116518
-0.000529626
0.0115995
-0.000541336
0.0115473
-0.000553503
0.0114951
-0.00056658
0.0114429
-0.000581052
0.0113907
-0.000597455
0.0113383
-0.00061634
0.0112855
-0.00063835
0.0112322
-0.000664062
0.0111782
-0.000694265
0.0111231
-0.000729375
0.0110668
-0.000770453
0.0110088
-0.000817134
0.0109488
-0.000871275
0.0108868
-0.000929864
0.0108218
-0.000997779
0.0107548
-0.00106362
0.0106839
-0.00114401
0.0106124
-0.00120063
0.010535
-0.00129299
0.0104624
-0.00129923
0.0103796
-0.00140737
-0.00130903
0.0124778
-0.000440949
0.0124252
-0.000453329
0.0123723
-0.00046508
0.0123192
-0.000476537
0.012266
-0.000488063
0.0122125
-0.000500049
0.0121588
-0.00051292
0.0121049
-0.00052713
0.0120506
-0.000543179
0.0119959
-0.000561582
0.0119405
-0.000582939
0.0118842
-0.000607792
0.0118268
-0.000636872
0.011768
-0.000670584
0.0117075
-0.000709889
0.0116448
-0.000754513
0.0115796
-0.00080608
0.0115118
-0.000862002
0.0114404
-0.000926434
0.0113663
-0.000989498
0.0112876
-0.00106532
0.0112077
-0.00112069
0.0111212
-0.00120646
0.011039
-0.00121707
0.0109459
-0.00131432
-0.00122987
0.0131722
-0.000389138
0.0131198
-0.000400898
0.0130668
-0.000412116
0.0130134
-0.0004231
0.0129595
-0.000434184
0.0129052
-0.000445729
0.0128504
-0.000458127
0.0127951
-0.000471795
0.0127391
-0.000487196
0.0126823
-0.000504806
0.0126246
-0.000525173
0.0125656
-0.000548804
0.0125051
-0.000576362
0.0124427
-0.000608239
0.0123781
-0.000645292
0.0123109
-0.00068733
0.0122406
-0.000735742
0.012167
-0.000788364
0.0120892
-0.000848632
0.0120079
-0.000908199
0.0119212
-0.000978688
0.0118326
-0.00103207
0.0117367
-0.00111052
0.0116445
-0.0011249
0.0115409
-0.00121071
-0.00114009
0.0138925
-0.000338068
0.0138406
-0.00034896
0.0137878
-0.000359397
0.0137344
-0.000369658
0.0136803
-0.000380046
0.0136254
-0.000390889
0.0135698
-0.000402541
0.0135134
-0.000415383
0.0134561
-0.000429832
0.0133976
-0.000446321
0.0133378
-0.000465346
0.0132763
-0.000487368
0.0132129
-0.000512982
0.0131473
-0.000542558
0.0130788
-0.000576846
0.0130072
-0.00061573
0.0129318
-0.00066037
0.0128525
-0.000709009
0.0127682
-0.000764391
0.0126797
-0.000819667
0.0125851
-0.000884041
0.0124876
-0.000934581
0.012382
-0.00100499
0.0122795
-0.00102237
0.0121651
-0.00109631
-0.00103919
0.0146391
-0.00028795
0.0145879
-0.000297748
0.0145357
-0.000307174
0.0144825
-0.000316477
0.0144284
-0.000325927
0.0143733
-0.000335815
0.0143172
-0.000346454
0.01426
-0.000358184
0.0142015
-0.000371374
0.0141416
-0.00038641
0.01408
-0.000403728
0.0140164
-0.000423742
0.0139504
-0.000446971
0.0138816
-0.000473759
0.0138095
-0.000504745
0.0137336
-0.000539878
0.0136534
-0.000580097
0.0135684
-0.000624028
0.0134777
-0.000673766
0.013382
-0.000723898
0.0132793
-0.000781348
0.0131728
-0.000828091
0.0130576
-0.000889761
0.0129444
-0.000909171
0.012819
-0.000970974
-0.000926755
0.0154129
-0.000238864
0.0153625
-0.000247368
0.0153109
-0.000255579
0.0152581
-0.000263713
0.0152042
-0.000272001
0.0151491
-0.000280695
0.0150927
-0.000290068
0.0150349
-0.00030041
0.0149756
-0.00031204
0.0149145
-0.000325291
0.0148513
-0.000340537
0.0147857
-0.000358138
0.0147172
-0.000378535
0.0146455
-0.000402034
0.0145699
-0.000429166
0.01449
-0.000459931
0.014405
-0.000495058
0.0143144
-0.000533527
0.0142175
-0.000576839
0.0141145
-0.000620926
0.0140038
-0.00067063
0.0138883
-0.000712533
0.0137633
-0.00076481
0.0136393
-0.000785106
0.0135029
-0.000834655
-0.000802462
0.016215
-0.000190736
0.0161654
-0.000197778
0.0161144
-0.000204599
0.0160621
-0.000211377
0.0160084
-0.000218305
0.0159533
-0.000225591
0.0158967
-0.000233461
0.0158384
-0.000242155
0.0157783
-0.000251938
0.0157161
-0.000263084
0.0156515
-0.000275901
0.015584
-0.000290688
0.0155133
-0.000307806
0.0154388
-0.000327516
0.0153598
-0.000350238
0.0152759
-0.00037601
0.0151862
-0.000405368
0.0150903
-0.000437603
0.0149872
-0.0004737
0.0148771
-0.000510806
0.0147584
-0.000551949
0.0146337
-0.000587899
0.0144991
-0.000630189
0.0143641
-0.000650055
0.0142168
-0.000687429
-0.000666125
0.0170469
-0.000143323
0.0169979
-0.000148764
0.0169474
-0.000154047
0.0168953
-0.000159312
0.0168417
-0.000164707
0.0167865
-0.000170395
0.0167296
-0.00017655
0.0166708
-0.00018336
0.0166099
-0.000191028
0.0165466
-0.000199767
0.0164805
-0.000209815
0.0164112
-0.000221404
0.0163382
-0.00023481
0.0162609
-0.00025024
0.0161787
-0.000268009
0.0160909
-0.00028817
0.0159966
-0.000311087
0.0158953
-0.000336321
0.015786
-0.000364423
0.0156688
-0.000393607
0.0155423
-0.000425395
0.0154086
-0.000454234
0.0152644
-0.000486033
0.0151184
-0.000504002
0.0149605
-0.000529512
-0.000517699
0.0179104
-9.61932e-05
0.0178615
-9.99182e-05
0.017811
-0.000103542
0.0177589
-0.00010716
0.017705
-0.000110876
0.0176494
-0.000114802
0.0175919
-0.000119057
0.0175323
-0.000123771
0.0174704
-0.000129083
0.0174058
-0.000135139
0.0173381
-0.000142103
0.0172668
-0.000150135
0.0171914
-0.000159421
0.0171113
-0.000170108
0.0170257
-0.000182404
0.0169339
-0.000196363
0.016835
-0.000212199
0.0167283
-0.000229689
0.016613
-0.00024905
0.0164887
-0.000269389
0.0163544
-0.000291086
0.0162118
-0.000311639
0.0160584
-0.000332571
0.0159014
-0.000347046
0.0157332
-0.000361292
-0.000357318
0.018807
0.0187577
-5.06191e-05
0.0187066
-5.24785e-05
0.0186538
-5.43377e-05
0.0185992
-5.62499e-05
0.0185427
-5.82726e-05
0.0184841
-6.04678e-05
0.0184232
-6.29016e-05
0.0183598
-6.5646e-05
0.0182934
-6.87763e-05
0.0182237
-7.2376e-05
0.0181501
-7.65275e-05
0.018072
-8.13262e-05
0.0179887
-8.68498e-05
0.0178995
-9.31991e-05
0.0178036
-0.000100415
0.0176999
-0.000108579
0.0175879
-0.000117641
0.0174664
-0.000127573
0.0173352
-0.000138212
0.0171933
-0.000149145
0.017042
-0.00016031
0.0168795
-0.00017008
0.016712
-0.000179525
0.0165339
-0.000183249
-0.000185385
0.0196876
0.0196352
0.0195808
0.0195246
0.0194663
0.0194058
0.0193429
0.0192773
0.0192085
0.0191361
0.0190596
0.0189783
0.0188914
0.0187982
0.0186978
0.0185892
0.0184716
0.018344
0.0182058
0.0180567
0.0178963
0.0177263
0.0175467
0.0173635
)
;

boundaryField
{
    inlet
    {
        type            calculated;
        value           nonuniform 0();
    }
    outlet
    {
        type            calculated;
        value           nonuniform List<scalar> 
26
(
0.00470047
0.00494911
0.0052117
0.00548908
0.00578208
0.0060916
0.00641857
0.00676394
0.00712871
0.00751387
0.00792046
0.0083495
0.00880204
0.00927907
0.00978159
0.0103105
0.0108668
0.0114511
0.0120642
0.0127066
0.0133786
0.0140805
0.014812
0.0155728
0.016362
0.0171781
)
;
    }
    cylinder
    {
        type            calculated;
        value           nonuniform 0();
    }
    top
    {
        type            symmetryPlane;
        value           uniform 0;
    }
    bottom
    {
        type            symmetryPlane;
        value           nonuniform 0();
    }
    defaultFaces
    {
        type            empty;
        value           nonuniform 0();
    }
    procBoundary15to11
    {
        type            processor;
        value           nonuniform List<scalar> 
27
(
0.00141202
0.00147431
0.00156167
0.00160343
0.00171691
0.00167051
0.00183786
0.00162395
0.0010811
0.00107946
0.00107702
0.00107423
0.00107157
0.00106957
0.00106877
0.00106981
0.00107336
0.00108014
0.00109097
0.00110662
0.00112813
0.00115598
0.00119162
0.00123428
0.00128683
-0.00464495
0.00134395
)
;
    }
    procBoundary15to14
    {
        type            processor;
        value           nonuniform List<scalar> 
26
(
-0.00510615
-0.00543566
-0.00578623
-0.00615874
-0.00655401
-0.00697276
-0.00741563
-0.0078831
-0.00837558
-0.00889328
-0.00943634
-0.0100047
-0.0105984
-0.0112173
-0.0118611
-0.01253
-0.0132241
-0.0139436
-0.0146892
-0.015462
-0.0162631
-0.0170943
-0.0179575
-0.0188545
-4.87099e-05
-0.0197383
)
;
    }
}


// ************************************************************************* //
