# Force coefficients
# liftDir     : (0.000000e+00 1.000000e+00 0.000000e+00)
# dragDir     : (1.000000e+00 0.000000e+00 0.000000e+00)
# pitchAxis   : (0.000000e+00 0.000000e+00 1.000000e+00)
# magUInf     : 1.000000e+00
# lRef        : 1.000000e+00
# Aref        : 1.000000e-01
# CofR        : (0.000000e+00 0.000000e+00 0.000000e+00)
# Time        	Cm            	Cd            	Cl            	Cl(f)         	Cl(r)         
0.001         	7.290207e-08	1.688655e+03	-5.426887e-03	-2.713371e-03	-2.713516e-03
0.002         	2.982342e-07	-4.398636e+01	3.718146e-03	1.859371e-03	1.858775e-03
0.003         	2.629470e-07	4.141472e+01	6.206654e-04	3.105957e-04	3.100698e-04
0.004         	2.344309e-07	3.345823e+01	5.680331e-04	2.842510e-04	2.837821e-04
0.005         	1.683778e-07	3.267839e+01	2.120133e-04	1.061751e-04	1.058383e-04
0.006         	7.116486e-08	3.131013e+01	1.307526e-04	6.544745e-05	6.530512e-05
0.007         	-1.955938e-08	3.011394e+01	9.580891e-05	4.788489e-05	4.792401e-05
0.008         	-1.031546e-07	2.900969e+01	7.143919e-05	3.561644e-05	3.582275e-05
0.009         	-1.795479e-07	2.799681e+01	6.551683e-05	3.257887e-05	3.293796e-05
0.01          	-2.489047e-07	2.706171e+01	5.571578e-05	2.760899e-05	2.810680e-05
0.011         	-4.107994e-07	2.619395e+01	4.824043e-05	2.370941e-05	2.453101e-05
0.012         	-5.579173e-07	2.538502e+01	4.107804e-05	1.998110e-05	2.109694e-05
0.013         	-6.908738e-07	2.462806e+01	3.317124e-05	1.589475e-05	1.727649e-05
0.014         	-8.104273e-07	2.391762e+01	2.755361e-05	1.296638e-05	1.458723e-05
0.015         	-9.174153e-07	2.324924e+01	2.201987e-05	1.009252e-05	1.192735e-05
0.016         	-1.012684e-06	2.261923e+01	1.677378e-05	7.374207e-06	9.399575e-06
0.017         	-1.097079e-06	2.202444e+01	1.443037e-05	6.118105e-06	8.312262e-06
0.018         	-1.171429e-06	2.146214e+01	1.096595e-05	4.311547e-06	6.654406e-06
0.019         	-1.236516e-06	2.092991e+01	7.595702e-06	2.561335e-06	5.034367e-06
0.02          	-1.293092e-06	2.042562e+01	5.598646e-06	1.506232e-06	4.092415e-06
0.021         	-1.341865e-06	1.994734e+01	1.417720e-06	-6.330048e-07	2.050725e-06
0.022         	-1.383498e-06	1.949334e+01	3.193035e-06	2.130197e-07	2.980015e-06
0.023         	-1.418629e-06	1.906202e+01	6.191462e-07	-1.109056e-06	1.728202e-06
0.024         	-1.447819e-06	1.865193e+01	-5.437682e-07	-1.719703e-06	1.175935e-06
0.025         	-1.471611e-06	1.826174e+01	-1.788280e-06	-2.365751e-06	5.774711e-07
0.026         	-1.494148e-06	1.789024e+01	-1.493412e-06	-2.240854e-06	7.474414e-07
0.027         	-1.511793e-06	1.753625e+01	-2.530114e-06	-2.776849e-06	2.467358e-07
0.028         	-1.525015e-06	1.719873e+01	-2.865495e-06	-2.957762e-06	9.226709e-08
0.029         	-1.534251e-06	1.687672e+01	-3.690847e-06	-3.379675e-06	-3.111720e-07
0.03          	-1.539902e-06	1.656930e+01	-3.316254e-06	-3.198029e-06	-1.182250e-07
0.031         	-1.542336e-06	1.627562e+01	-3.891526e-06	-3.488100e-06	-4.034267e-07
0.032         	-1.541887e-06	1.599490e+01	-4.108793e-06	-3.596283e-06	-5.125093e-07
0.033         	-1.538863e-06	1.572641e+01	-4.919630e-06	-3.998677e-06	-9.209522e-07
0.034         	-1.533543e-06	1.546944e+01	-4.955346e-06	-4.011216e-06	-9.441301e-07
0.035         	-1.526188e-06	1.522336e+01	-4.777268e-06	-3.914822e-06	-8.624464e-07
0.036         	-1.517031e-06	1.498757e+01	-4.576984e-06	-3.805523e-06	-7.714613e-07
0.037         	-1.506285e-06	1.476151e+01	-4.774003e-06	-3.893287e-06	-8.807162e-07
0.038         	-1.494145e-06	1.454465e+01	-4.600862e-06	-3.794576e-06	-8.062858e-07
0.039         	-1.480787e-06	1.433649e+01	-4.555148e-06	-3.758362e-06	-7.967868e-07
0.04          	-1.466373e-06	1.413657e+01	-4.539907e-06	-3.736326e-06	-8.035807e-07
0.041         	-1.451047e-06	1.394446e+01	-4.423535e-06	-3.662815e-06	-7.607201e-07
0.042         	-1.434944e-06	1.375974e+01	-4.118173e-06	-3.494030e-06	-6.241431e-07
0.043         	-1.418181e-06	1.358204e+01	-4.268818e-06	-3.552590e-06	-7.162274e-07
0.044         	-1.400868e-06	1.341098e+01	-4.412155e-06	-3.606946e-06	-8.052091e-07
0.045         	-1.383103e-06	1.324623e+01	-4.798589e-06	-3.782398e-06	-1.016191e-06
0.046         	-1.364975e-06	1.308747e+01	-3.920965e-06	-3.325458e-06	-5.955079e-07
0.047         	-1.346565e-06	1.293440e+01	-3.776801e-06	-3.234965e-06	-5.418353e-07
0.048         	-1.327943e-06	1.278673e+01	-4.024916e-06	-3.340401e-06	-6.845148e-07
0.049         	-1.309173e-06	1.264420e+01	-3.761417e-06	-3.189881e-06	-5.715359e-07
0.05          	-1.290313e-06	1.250657e+01	-3.850953e-06	-3.215789e-06	-6.351636e-07
0.051         	-1.271414e-06	1.237359e+01	-3.603047e-06	-3.072938e-06	-5.301091e-07
0.052         	-1.304374e-06	1.224497e+01	-3.886851e-06	-3.247800e-06	-6.390512e-07
0.053         	-1.333179e-06	1.212064e+01	-3.789482e-06	-3.227919e-06	-5.615622e-07
0.054         	-1.358144e-06	1.200034e+01	-3.499151e-06	-3.107720e-06	-3.914312e-07
0.055         	-1.379592e-06	1.188386e+01	-3.335488e-06	-3.047336e-06	-2.881522e-07
0.056         	-1.397816e-06	1.177102e+01	-3.315862e-06	-3.055747e-06	-2.601153e-07
0.057         	-1.413088e-06	1.166168e+01	-3.089949e-06	-2.958062e-06	-1.318866e-07
0.058         	-1.425659e-06	1.155567e+01	-3.029786e-06	-2.940553e-06	-8.923365e-08
0.059         	-1.435762e-06	1.145283e+01	-2.908372e-06	-2.889948e-06	-1.842361e-08
0.06          	-1.443610e-06	1.135303e+01	-2.876836e-06	-2.882028e-06	5.192327e-09
0.061         	-1.449401e-06	1.125614e+01	-2.487306e-06	-2.693054e-06	2.057475e-07
0.062         	-1.453315e-06	1.116203e+01	-2.619623e-06	-2.763127e-06	1.435040e-07
0.063         	-1.455521e-06	1.107058e+01	-2.296127e-06	-2.603585e-06	3.074578e-07
0.064         	-1.456173e-06	1.098165e+01	-2.339120e-06	-2.625734e-06	2.866133e-07
0.065         	-1.455414e-06	1.089515e+01	-1.988124e-06	-2.449476e-06	4.613519e-07
0.066         	-1.453375e-06	1.081102e+01	-1.987699e-06	-2.447224e-06	4.595254e-07
0.067         	-1.450175e-06	1.072913e+01	-1.938964e-06	-2.419657e-06	4.806928e-07
0.068         	-1.445926e-06	1.064938e+01	-1.786017e-06	-2.338934e-06	5.529171e-07
0.069         	-1.440730e-06	1.057167e+01	-1.523673e-06	-2.202567e-06	6.788936e-07
0.07          	-1.434682e-06	1.049595e+01	-1.487349e-06	-2.178356e-06	6.910077e-07
0.071         	-1.427867e-06	1.042213e+01	-1.448015e-06	-2.151875e-06	7.038597e-07
0.072         	-1.420365e-06	1.035014e+01	-1.256561e-06	-2.048646e-06	7.920848e-07
0.073         	-1.412249e-06	1.027989e+01	-1.195239e-06	-2.009869e-06	8.146300e-07
0.074         	-1.403587e-06	1.021132e+01	-8.896596e-07	-1.848416e-06	9.587567e-07
0.075         	-1.394438e-06	1.014437e+01	-1.219236e-06	-2.004056e-06	7.848205e-07
0.076         	-1.384861e-06	1.007900e+01	-8.677852e-07	-1.818753e-06	9.509682e-07
0.077         	-1.374906e-06	1.001512e+01	-8.641744e-07	-1.806994e-06	9.428192e-07
0.078         	-1.364622e-06	9.952695e+00	-7.172526e-07	-1.723248e-06	1.005996e-06
0.079         	-1.354051e-06	9.891673e+00	-6.706587e-07	-1.689381e-06	1.018722e-06
0.08          	-1.343234e-06	9.832006e+00	-5.982949e-07	-1.642382e-06	1.044087e-06
0.081         	-1.332206e-06	9.773624e+00	-5.191204e-07	-1.591767e-06	1.072646e-06
0.082         	-1.321002e-06	9.716488e+00	-4.032741e-07	-1.522639e-06	1.119365e-06
0.083         	-1.309650e-06	9.660570e+00	-4.007647e-07	-1.510032e-06	1.109268e-06
0.084         	-1.298180e-06	9.605800e+00	-2.254461e-07	-1.410903e-06	1.185456e-06
0.085         	-1.286615e-06	9.552172e+00	-2.137581e-07	-1.393494e-06	1.179736e-06
0.086         	-1.274980e-06	9.499620e+00	-1.357639e-07	-1.342862e-06	1.207098e-06
0.087         	-1.263296e-06	9.448145e+00	-2.125531e-08	-1.273923e-06	1.252668e-06
0.088         	-1.251580e-06	9.397680e+00	2.008202e-08	-1.241539e-06	1.261621e-06
0.089         	-1.239850e-06	9.348204e+00	-3.816823e-08	-1.258934e-06	1.220766e-06
0.09          	-1.227842e-06	9.299697e+00	4.550559e-07	-1.000314e-06	1.455370e-06
0.091         	-1.215876e-06	9.252101e+00	3.450000e-07	-1.043376e-06	1.388376e-06
0.092         	-1.203963e-06	9.205395e+00	6.111056e-07	-8.984097e-07	1.509515e-06
0.093         	-1.192111e-06	9.159588e+00	5.384511e-07	-9.228858e-07	1.461337e-06
0.094         	-1.180331e-06	9.114615e+00	5.401364e-07	-9.102623e-07	1.450399e-06
0.095         	-1.168628e-06	9.070438e+00	6.749652e-07	-8.311457e-07	1.506111e-06
0.096         	-1.157012e-06	9.027048e+00	6.754221e-07	-8.193010e-07	1.494723e-06
0.097         	-1.145488e-06	8.984436e+00	7.663262e-07	-7.623245e-07	1.528651e-06
0.098         	-1.134060e-06	8.942556e+00	8.144823e-07	-7.268192e-07	1.541302e-06
0.099         	-1.122735e-06	8.901423e+00	8.500313e-07	-6.977196e-07	1.547751e-06
0.1           	-1.111516e-06	8.860985e+00	8.684422e-07	-6.772950e-07	1.545737e-06
0.101         	-1.100407e-06	8.821248e+00	8.691687e-07	-6.658222e-07	1.534991e-06
0.102         	-1.089410e-06	8.782164e+00	9.151576e-07	-6.318311e-07	1.546989e-06
0.103         	-1.078529e-06	8.743723e+00	9.973719e-07	-5.798428e-07	1.577215e-06
0.104         	-1.067765e-06	8.705914e+00	1.041086e-06	-5.472221e-07	1.588308e-06
0.105         	-1.057121e-06	8.668717e+00	1.054338e-06	-5.299518e-07	1.584290e-06
0.106         	-1.046597e-06	8.632116e+00	1.112188e-06	-4.905034e-07	1.602691e-06
0.107         	-1.036196e-06	8.596093e+00	1.092256e-06	-4.900675e-07	1.582323e-06
0.108         	-1.025916e-06	8.560656e+00	1.233816e-06	-4.090087e-07	1.642824e-06
0.109         	-1.015761e-06	8.525745e+00	1.183117e-06	-4.242023e-07	1.607319e-06
0.11          	-1.005729e-06	8.491367e+00	1.213288e-06	-3.990848e-07	1.612373e-06
0.111         	-9.958204e-07	8.457508e+00	1.237629e-06	-3.770061e-07	1.614635e-06
0.112         	-9.860356e-07	8.424168e+00	1.254067e-06	-3.590019e-07	1.613069e-06
0.113         	-9.763740e-07	8.391330e+00	1.312077e-06	-3.203357e-07	1.632412e-06
0.114         	-9.668353e-07	8.358975e+00	1.301029e-06	-3.163206e-07	1.617350e-06
0.115         	-9.574189e-07	8.327094e+00	1.365590e-06	-2.746239e-07	1.640214e-06
0.116         	-9.481242e-07	8.295669e+00	1.365882e-06	-2.651831e-07	1.631065e-06
0.117         	-9.389502e-07	8.264697e+00	1.355430e-06	-2.612354e-07	1.616665e-06
0.118         	-9.298961e-07	8.234164e+00	1.419995e-06	-2.198986e-07	1.639894e-06
0.119         	-9.209610e-07	8.204062e+00	1.404658e-06	-2.186317e-07	1.623290e-06
0.12          	-9.121437e-07	8.174386e+00	1.410217e-06	-2.070355e-07	1.617252e-06
0.121         	-9.034433e-07	8.145114e+00	1.424944e-06	-1.909715e-07	1.615915e-06
0.122         	-8.948584e-07	8.116240e+00	1.513339e-06	-1.381891e-07	1.651528e-06
0.123         	-8.863877e-07	8.087752e+00	1.379431e-06	-1.966721e-07	1.576103e-06
0.124         	-8.780302e-07	8.059668e+00	1.538838e-06	-1.086113e-07	1.647449e-06
0.125         	-8.697846e-07	8.031942e+00	1.557420e-06	-9.107475e-08	1.648494e-06
0.126         	-8.616491e-07	8.004572e+00	1.470237e-06	-1.265304e-07	1.596768e-06
0.127         	-8.536227e-07	7.977566e+00	1.590475e-06	-5.838523e-08	1.648860e-06
0.128         	-8.457038e-07	7.950920e+00	1.586656e-06	-5.237552e-08	1.639032e-06
0.129         	-8.378908e-07	7.924619e+00	1.592792e-06	-4.149470e-08	1.634287e-06
0.13          	-8.301825e-07	7.898648e+00	1.628398e-06	-1.598350e-08	1.644381e-06
0.131         	-8.225773e-07	7.873007e+00	1.658482e-06	6.663686e-09	1.651818e-06
0.132         	-8.150738e-07	7.847690e+00	1.592202e-06	-1.897265e-08	1.611175e-06
0.133         	-8.076705e-07	7.822687e+00	1.680177e-06	3.241806e-08	1.647759e-06
0.134         	-8.003661e-07	7.797993e+00	1.627047e-06	1.315763e-08	1.613890e-06
0.135         	-7.931589e-07	7.773603e+00	1.692039e-06	5.286081e-08	1.639179e-06
0.136         	-7.860477e-07	7.749508e+00	1.683041e-06	5.547274e-08	1.627568e-06
0.137         	-7.790310e-07	7.725705e+00	1.708098e-06	7.501814e-08	1.633080e-06
0.138         	-7.721073e-07	7.702178e+00	1.672403e-06	6.409401e-08	1.608309e-06
0.139         	-7.652750e-07	7.678959e+00	1.750395e-06	1.099227e-07	1.640473e-06
0.14          	-7.585333e-07	7.655974e+00	1.724078e-06	1.035058e-07	1.620572e-06
0.141         	-7.518808e-07	7.633290e+00	1.705503e-06	1.008709e-07	1.604633e-06
0.142         	-7.453155e-07	7.610866e+00	1.785940e-06	1.476545e-07	1.638286e-06
0.143         	-7.388366e-07	7.588677e+00	1.780755e-06	1.515408e-07	1.629214e-06
0.144         	-7.324425e-07	7.566750e+00	1.788547e-06	1.618312e-07	1.626716e-06
0.145         	-7.261316e-07	7.545083e+00	1.799292e-06	1.735144e-07	1.625778e-06
0.146         	-7.199027e-07	7.523658e+00	1.790682e-06	1.754382e-07	1.615244e-06
0.147         	-7.137545e-07	7.502473e+00	1.763353e-06	1.679220e-07	1.595431e-06
0.148         	-7.076858e-07	7.481525e+00	1.747346e-06	1.659872e-07	1.581359e-06
0.149         	-7.016954e-07	7.460807e+00	1.812324e-06	2.044668e-07	1.607857e-06
0.15          	-6.957820e-07	7.440316e+00	1.793443e-06	2.009395e-07	1.592503e-06
0.151         	-6.899444e-07	7.420051e+00	1.809643e-06	2.148774e-07	1.594766e-06
0.152         	-6.841814e-07	7.400001e+00	1.809209e-06	2.204232e-07	1.588786e-06
0.153         	-6.784916e-07	7.380169e+00	1.783662e-06	2.133393e-07	1.570323e-06
0.154         	-6.728741e-07	7.360549e+00	1.926377e-06	2.903143e-07	1.636063e-06
0.155         	-6.673278e-07	7.341135e+00	1.858136e-06	2.617402e-07	1.596396e-06
0.156         	-6.618512e-07	7.321927e+00	1.827702e-06	2.519997e-07	1.575702e-06
0.157         	-6.564433e-07	7.302921e+00	1.889484e-06	2.882988e-07	1.601185e-06
0.158         	-6.511032e-07	7.284111e+00	1.826072e-06	2.619328e-07	1.564139e-06
0.159         	-6.458295e-07	7.265471e+00	1.923432e-06	3.158866e-07	1.607546e-06
0.16          	-6.406216e-07	7.247074e+00	1.814943e-06	2.668497e-07	1.548093e-06
0.161         	-6.354784e-07	7.228849e+00	1.882591e-06	3.058169e-07	1.576774e-06
0.162         	-6.303987e-07	7.210786e+00	1.896195e-06	3.176988e-07	1.578496e-06
0.163         	-6.253816e-07	7.192900e+00	1.902586e-06	3.259114e-07	1.576674e-06
0.164         	-6.204261e-07	7.175214e+00	1.895948e-06	3.275479e-07	1.568400e-06
0.165         	-6.155309e-07	7.157702e+00	1.917752e-06	3.433451e-07	1.574407e-06
0.166         	-6.106955e-07	7.140357e+00	1.929281e-06	3.539452e-07	1.575336e-06
0.167         	-6.059185e-07	7.123185e+00	1.955216e-06	3.716896e-07	1.583527e-06
0.168         	-6.011992e-07	7.106188e+00	1.913726e-06	3.556639e-07	1.558062e-06
0.169         	-5.965368e-07	7.089350e+00	1.876375e-06	3.416507e-07	1.534724e-06
0.17          	-5.919303e-07	7.072675e+00	1.927171e-06	3.716553e-07	1.555516e-06
0.171         	-5.873789e-07	7.056157e+00	1.958082e-06	3.916620e-07	1.566420e-06
0.172         	-5.828817e-07	7.039800e+00	1.934985e-06	3.846109e-07	1.550374e-06
0.173         	-5.784379e-07	7.023597e+00	1.910657e-06	3.768908e-07	1.533767e-06
0.174         	-5.740467e-07	7.007547e+00	1.961782e-06	4.068441e-07	1.554938e-06
0.175         	-5.697073e-07	6.991648e+00	1.963144e-06	4.118645e-07	1.551279e-06
0.176         	-5.654188e-07	6.975897e+00	1.970050e-06	4.196060e-07	1.550444e-06
0.177         	-5.611804e-07	6.960291e+00	1.971746e-06	4.246926e-07	1.547053e-06
0.178         	-5.569913e-07	6.944830e+00	1.946477e-06	4.162474e-07	1.530230e-06
0.179         	-5.528509e-07	6.929510e+00	1.989516e-06	4.419073e-07	1.547609e-06
0.18          	-5.487583e-07	6.914326e+00	2.016828e-06	4.596557e-07	1.557172e-06
0.181         	-5.447129e-07	6.899277e+00	1.929107e-06	4.198408e-07	1.509267e-06
0.182         	-5.407140e-07	6.884377e+00	1.985590e-06	4.520812e-07	1.533509e-06
0.183         	-5.367610e-07	6.869614e+00	1.999614e-06	4.630461e-07	1.536568e-06
0.184         	-5.328534e-07	6.854966e+00	2.008062e-06	4.711778e-07	1.536885e-06
0.185         	-5.289902e-07	6.840440e+00	2.031956e-06	4.869879e-07	1.544968e-06
0.186         	-5.251709e-07	6.826058e+00	1.975025e-06	4.623415e-07	1.512683e-06
0.187         	-5.213945e-07	6.811801e+00	2.013152e-06	4.851815e-07	1.527971e-06
0.188         	-5.176607e-07	6.797668e+00	1.992945e-06	4.788116e-07	1.514133e-06
0.189         	-5.139687e-07	6.783659e+00	2.022712e-06	4.973873e-07	1.525325e-06
0.19          	-5.103180e-07	6.769769e+00	2.021198e-06	5.002810e-07	1.520917e-06
0.191         	-5.201993e-07	6.755953e+00	2.064234e-06	5.119175e-07	1.552316e-06
0.192         	-5.293674e-07	6.742304e+00	2.043988e-06	4.926266e-07	1.551361e-06
0.193         	-5.378472e-07	6.728769e+00	1.906638e-06	4.154717e-07	1.491166e-06
0.194         	-5.456803e-07	6.715346e+00	2.082330e-06	4.954847e-07	1.586845e-06
0.195         	-5.529058e-07	6.702040e+00	2.040357e-06	4.672727e-07	1.573084e-06
0.196         	-5.595602e-07	6.688844e+00	2.049392e-06	4.651356e-07	1.584256e-06
0.197         	-5.656780e-07	6.675758e+00	2.014778e-06	4.417108e-07	1.573067e-06
0.198         	-5.712913e-07	6.662781e+00	2.078553e-06	4.679851e-07	1.610568e-06
0.199         	-5.764304e-07	6.649909e+00	2.079864e-06	4.635017e-07	1.616363e-06
0.2           	-5.811238e-07	6.637145e+00	2.082426e-06	4.600893e-07	1.622337e-06
0.201         	-5.853982e-07	6.624484e+00	2.085603e-06	4.574035e-07	1.628200e-06
0.202         	-5.892785e-07	6.611926e+00	2.124807e-06	4.731250e-07	1.651682e-06
0.203         	-5.927883e-07	6.599468e+00	2.060140e-06	4.372816e-07	1.622858e-06
0.204         	-5.959497e-07	6.587105e+00	2.171362e-06	4.897315e-07	1.681631e-06
0.205         	-5.987838e-07	6.574864e+00	2.006474e-06	4.044533e-07	1.602021e-06
0.206         	-6.013092e-07	6.562704e+00	2.227091e-06	5.122360e-07	1.714855e-06
0.207         	-6.035456e-07	6.550626e+00	2.133627e-06	4.632680e-07	1.670359e-06
0.208         	-6.055089e-07	6.538676e+00	2.167412e-06	4.781973e-07	1.689215e-06
0.209         	-6.072168e-07	6.526796e+00	2.215538e-06	5.005522e-07	1.714986e-06
0.21          	-6.086834e-07	6.515014e+00	2.137980e-06	4.603067e-07	1.677673e-06
0.211         	-6.099236e-07	6.503313e+00	2.212134e-06	4.961436e-07	1.715991e-06
0.212         	-6.109501e-07	6.491717e+00	2.219105e-06	4.986026e-07	1.720503e-06
0.213         	-6.117759e-07	6.480210e+00	2.280336e-06	5.283922e-07	1.751944e-06
0.214         	-6.124129e-07	6.468791e+00	2.106422e-06	4.407983e-07	1.665624e-06
0.215         	-6.128724e-07	6.457461e+00	2.288342e-06	5.312988e-07	1.757044e-06
0.216         	-6.131652e-07	6.446212e+00	2.268165e-06	5.209173e-07	1.747248e-06
0.217         	-6.133006e-07	6.435052e+00	2.284647e-06	5.290228e-07	1.755624e-06
0.218         	-6.132884e-07	6.423975e+00	2.272327e-06	5.228750e-07	1.749452e-06
0.219         	-6.131373e-07	6.412981e+00	2.319195e-06	5.464604e-07	1.772735e-06
0.22          	-6.128558e-07	6.402070e+00	2.343192e-06	5.587403e-07	1.784452e-06
0.221         	-6.124513e-07	6.391240e+00	2.285261e-06	5.301793e-07	1.755082e-06
0.222         	-6.119314e-07	6.380490e+00	2.353052e-06	5.645943e-07	1.788457e-06
0.223         	-6.113032e-07	6.369819e+00	2.359934e-06	5.686639e-07	1.791270e-06
0.224         	-6.105728e-07	6.359228e+00	2.304021e-06	5.414378e-07	1.762584e-06
0.225         	-6.097468e-07	6.348715e+00	2.382091e-06	5.812989e-07	1.800792e-06
0.226         	-6.088309e-07	6.338277e+00	2.375856e-06	5.790973e-07	1.796759e-06
0.227         	-6.078305e-07	6.327914e+00	2.404201e-06	5.942698e-07	1.809931e-06
0.228         	-6.067508e-07	6.317626e+00	2.404620e-06	5.955590e-07	1.809061e-06
0.229         	-6.055967e-07	6.307413e+00	2.417726e-06	6.032664e-07	1.814460e-06
0.23          	-6.043727e-07	6.297272e+00	2.441211e-06	6.162329e-07	1.824978e-06
0.231         	-6.030833e-07	6.287196e+00	2.428460e-06	6.111469e-07	1.817314e-06
0.232         	-6.017325e-07	6.277217e+00	2.435158e-06	6.158464e-07	1.819311e-06
0.233         	-6.003240e-07	6.267290e+00	2.468408e-06	6.338799e-07	1.834528e-06
0.234         	-5.988617e-07	6.257423e+00	2.458181e-06	6.302288e-07	1.827952e-06
0.235         	-5.973483e-07	6.247660e+00	2.462726e-06	6.340147e-07	1.828711e-06
0.236         	-5.957887e-07	6.237933e+00	2.494493e-06	6.514576e-07	1.843035e-06
0.237         	-5.941852e-07	6.228278e+00	2.510013e-06	6.608212e-07	1.849192e-06
0.238         	-5.925403e-07	6.218694e+00	2.510274e-06	6.625966e-07	1.847677e-06
0.239         	-5.908570e-07	6.209177e+00	2.522169e-06	6.702277e-07	1.851942e-06
0.24          	-5.891377e-07	6.199724e+00	2.528764e-06	6.752443e-07	1.853520e-06
0.241         	-5.873850e-07	6.190326e+00	2.557484e-06	6.913569e-07	1.866127e-06
0.242         	-5.856017e-07	6.181007e+00	2.536518e-06	6.826571e-07	1.853861e-06
0.243         	-5.837893e-07	6.171749e+00	2.545222e-06	6.888217e-07	1.856400e-06
0.244         	-5.819499e-07	6.162555e+00	2.339880e-06	5.879902e-07	1.751890e-06
0.245         	-5.800859e-07	6.153420e+00	2.720092e-06	7.799599e-07	1.940132e-06
0.246         	-5.781991e-07	6.144347e+00	2.611538e-06	7.275698e-07	1.883968e-06
0.247         	-5.762908e-07	6.135335e+00	2.615542e-06	7.314804e-07	1.884062e-06
0.248         	-5.743629e-07	6.126383e+00	2.632996e-06	7.421353e-07	1.890861e-06
0.249         	-5.724170e-07	6.117491e+00	2.643717e-06	7.494414e-07	1.894275e-06
0.25          	-5.704547e-07	6.108657e+00	2.609095e-06	7.340928e-07	1.875002e-06
0.251         	-5.684771e-07	6.099882e+00	2.633918e-06	7.484816e-07	1.885436e-06
0.252         	-5.664859e-07	6.091164e+00	2.653814e-06	7.604211e-07	1.893393e-06
0.253         	-5.644821e-07	6.082503e+00	2.658500e-06	7.647679e-07	1.893732e-06
0.254         	-5.624671e-07	6.073899e+00	2.679841e-06	7.774536e-07	1.902388e-06
0.255         	-5.604419e-07	6.065345e+00	2.802268e-06	8.406921e-07	1.961576e-06
0.256         	-5.584074e-07	6.056863e+00	2.446277e-06	6.647312e-07	1.781546e-06
0.257         	-5.563652e-07	6.048420e+00	2.723683e-06	8.054760e-07	1.918207e-06
0.258         	-5.543159e-07	6.040035e+00	2.716400e-06	8.038843e-07	1.912516e-06
0.259         	-5.522603e-07	6.031704e+00	2.700995e-06	7.982372e-07	1.902758e-06
0.26          	-5.501993e-07	6.023426e+00	2.723216e-06	8.114087e-07	1.911807e-06
0.261         	-5.481338e-07	6.015199e+00	2.729375e-06	8.165537e-07	1.912821e-06
0.262         	-5.460645e-07	6.007020e+00	2.712935e-06	8.104027e-07	1.902532e-06
0.263         	-5.439923e-07	5.998914e+00	2.750239e-06	8.311272e-07	1.919112e-06
0.264         	-5.419176e-07	5.990836e+00	2.765653e-06	8.409088e-07	1.924744e-06
0.265         	-5.398412e-07	5.982812e+00	2.632507e-06	7.764122e-07	1.856095e-06
0.266         	-5.377633e-07	5.974863e+00	2.784006e-06	8.542395e-07	1.929766e-06
0.267         	-5.356862e-07	5.966938e+00	2.727564e-06	8.280957e-07	1.899468e-06
0.268         	-5.336088e-07	5.959066e+00	2.790049e-06	8.614157e-07	1.928633e-06
0.269         	-5.315321e-07	5.951244e+00	2.785139e-06	8.610373e-07	1.924101e-06
0.27          	-5.294564e-07	5.943471e+00	2.784428e-06	8.627578e-07	1.921671e-06
0.271         	-5.273821e-07	5.935740e+00	2.813529e-06	8.793823e-07	1.934146e-06
0.272         	-5.253104e-07	5.928057e+00	2.803557e-06	8.764684e-07	1.927089e-06
0.273         	-5.232409e-07	5.920425e+00	2.806626e-06	8.800718e-07	1.926554e-06
0.274         	-5.211744e-07	5.912839e+00	2.791357e-06	8.745042e-07	1.916853e-06
0.275         	-5.191112e-07	5.905300e+00	2.818167e-06	8.899721e-07	1.928194e-06
0.276         	-5.170517e-07	5.897800e+00	2.884024e-06	9.249605e-07	1.959064e-06
0.277         	-5.149969e-07	5.890343e+00	2.825253e-06	8.976295e-07	1.927623e-06
0.278         	-5.129454e-07	5.882941e+00	2.836085e-06	9.050971e-07	1.930988e-06
0.279         	-5.108988e-07	5.875582e+00	2.854707e-06	9.164549e-07	1.938252e-06
0.28          	-5.088569e-07	5.868266e+00	2.833060e-06	9.076730e-07	1.925387e-06
0.281         	-5.068203e-07	5.860992e+00	2.879614e-06	9.329867e-07	1.946627e-06
0.282         	-5.047892e-07	5.853762e+00	2.846994e-06	9.187079e-07	1.928286e-06
0.283         	-5.027638e-07	5.846575e+00	2.875356e-06	9.349142e-07	1.940442e-06
0.284         	-5.007442e-07	5.839429e+00	2.891705e-06	9.451083e-07	1.946597e-06
0.285         	-4.987308e-07	5.832325e+00	2.898894e-06	9.507162e-07	1.948178e-06
0.286         	-4.967238e-07	5.825263e+00	2.912144e-06	9.593481e-07	1.952796e-06
0.287         	-4.947232e-07	5.818241e+00	2.918632e-06	9.645930e-07	1.954039e-06
0.288         	-4.927293e-07	5.811260e+00	2.881278e-06	9.479099e-07	1.933368e-06
0.289         	-4.907421e-07	5.804319e+00	2.885779e-06	9.521474e-07	1.933632e-06
0.29          	-4.887621e-07	5.797413e+00	2.935573e-06	9.790247e-07	1.956549e-06
0.291         	-4.867889e-07	5.790562e+00	2.939912e-06	9.831672e-07	1.956745e-06
0.292         	-4.848237e-07	5.783739e+00	2.948470e-06	9.894116e-07	1.959059e-06
0.293         	-4.828656e-07	5.776955e+00	2.988480e-06	1.011374e-06	1.977106e-06
0.294         	-4.809151e-07	5.770209e+00	2.885325e-06	9.617472e-07	1.923577e-06
0.295         	-4.789722e-07	5.763503e+00	2.977554e-06	1.009805e-06	1.967749e-06
0.296         	-4.770372e-07	5.756834e+00	2.979884e-06	1.012905e-06	1.966979e-06
0.297         	-4.751099e-07	5.750200e+00	3.001787e-06	1.025784e-06	1.976003e-06
0.298         	-4.731907e-07	5.743602e+00	2.974953e-06	1.014286e-06	1.960667e-06
0.299         	-4.712794e-07	5.737053e+00	3.043297e-06	1.050369e-06	1.992928e-06
0.3           	-4.693762e-07	5.730537e+00	2.812317e-06	9.367823e-07	1.875535e-06
0.301         	-4.674813e-07	5.724060e+00	3.058418e-06	1.061728e-06	1.996690e-06
0.302         	-4.655951e-07	5.717608e+00	3.026480e-06	1.047645e-06	1.978835e-06
0.303         	-4.637172e-07	5.711195e+00	2.978637e-06	1.025601e-06	1.953036e-06
0.304         	-4.618476e-07	5.704816e+00	3.061000e-06	1.068653e-06	1.992348e-06
0.305         	-4.599863e-07	5.698474e+00	2.924612e-06	1.002320e-06	1.922292e-06
0.306         	-4.581336e-07	5.692169e+00	3.181791e-06	1.132762e-06	2.049029e-06
0.307         	-4.562896e-07	5.685896e+00	2.948554e-06	1.017987e-06	1.930566e-06
0.308         	-4.544539e-07	5.679658e+00	3.072689e-06	1.081891e-06	1.990799e-06
0.309         	-4.526270e-07	5.673454e+00	3.032930e-06	1.063838e-06	1.969092e-06
0.31          	-4.508087e-07	5.667283e+00	3.032957e-06	1.065670e-06	1.967287e-06
0.311         	-4.489991e-07	5.661147e+00	3.070173e-06	1.086088e-06	1.984086e-06
0.312         	-4.471981e-07	5.655043e+00	3.056602e-06	1.081103e-06	1.975499e-06
0.313         	-4.454058e-07	5.648970e+00	3.069187e-06	1.089188e-06	1.979999e-06
0.314         	-4.436227e-07	5.642926e+00	3.082258e-06	1.097506e-06	1.984752e-06
0.315         	-4.418482e-07	5.636919e+00	3.088485e-06	1.102394e-06	1.986091e-06
0.316         	-4.400825e-07	5.630943e+00	3.094614e-06	1.107224e-06	1.987389e-06
0.317         	-4.383256e-07	5.624999e+00	3.101912e-06	1.112630e-06	1.989282e-06
0.318         	-4.365776e-07	5.619087e+00	3.114592e-06	1.120718e-06	1.993874e-06
0.319         	-4.348382e-07	5.613201e+00	3.132294e-06	1.131309e-06	2.000985e-06
0.32          	-4.331083e-07	5.607348e+00	3.099375e-06	1.116579e-06	1.982796e-06
0.321         	-4.313867e-07	5.601531e+00	3.130289e-06	1.133758e-06	1.996531e-06
0.322         	-4.296739e-07	5.595743e+00	3.142163e-06	1.141408e-06	2.000756e-06
0.323         	-4.279699e-07	5.589984e+00	3.111222e-06	1.127641e-06	1.983581e-06
0.324         	-4.262747e-07	5.584257e+00	3.140317e-06	1.143884e-06	1.996433e-06
0.325         	-4.245883e-07	5.578558e+00	3.128074e-06	1.139449e-06	1.988625e-06
0.326         	-4.229106e-07	5.572888e+00	3.115321e-06	1.134750e-06	1.980571e-06
0.327         	-4.212417e-07	5.567248e+00	3.209010e-06	1.183263e-06	2.025747e-06
0.328         	-4.195816e-07	5.561636e+00	3.176524e-06	1.168680e-06	2.007844e-06
0.329         	-4.179301e-07	5.556048e+00	3.171113e-06	1.167627e-06	2.003487e-06
0.33          	-4.162871e-07	5.550503e+00	3.201028e-06	1.184227e-06	2.016801e-06
0.331         	-4.146533e-07	5.544976e+00	3.162728e-06	1.166711e-06	1.996017e-06
0.332         	-4.130279e-07	5.539478e+00	3.191015e-06	1.182480e-06	2.008536e-06
0.333         	-4.114112e-07	5.534007e+00	3.219234e-06	1.198206e-06	2.021028e-06
0.334         	-4.098031e-07	5.528564e+00	3.188668e-06	1.184531e-06	2.004137e-06
0.335         	-4.082036e-07	5.523150e+00	3.131926e-06	1.157760e-06	1.974167e-06
0.336         	-4.066126e-07	5.517761e+00	3.238042e-06	1.212408e-06	2.025634e-06
0.337         	-4.050303e-07	5.512400e+00	3.222329e-06	1.206134e-06	2.016195e-06
0.338         	-4.034564e-07	5.507064e+00	3.245760e-06	1.219423e-06	2.026336e-06
0.339         	-4.018910e-07	5.501744e+00	3.262214e-06	1.229216e-06	2.032998e-06
0.34          	-4.003336e-07	5.496481e+00	3.191758e-06	1.195545e-06	1.996212e-06
0.341         	-3.987854e-07	5.491237e+00	3.196348e-06	1.199389e-06	1.996959e-06
0.342         	-3.972456e-07	5.486002e+00	3.264896e-06	1.235202e-06	2.029694e-06
0.343         	-3.957142e-07	5.480798e+00	3.263934e-06	1.236253e-06	2.027681e-06
0.344         	-3.941911e-07	5.475619e+00	3.269122e-06	1.240370e-06	2.028752e-06
0.345         	-3.926763e-07	5.470467e+00	3.278264e-06	1.246456e-06	2.031808e-06
0.346         	-3.911697e-07	5.465340e+00	3.271758e-06	1.244709e-06	2.027049e-06
0.347         	-3.896714e-07	5.460237e+00	3.311689e-06	1.266173e-06	2.045516e-06
0.348         	-3.881813e-07	5.455158e+00	3.298955e-06	1.261296e-06	2.037659e-06
0.349         	-3.866992e-07	5.450110e+00	3.216679e-06	1.221640e-06	1.995039e-06
0.35          	-3.852254e-07	5.445084e+00	3.321599e-06	1.275574e-06	2.046025e-06
0.351         	-3.837600e-07	5.440079e+00	3.249746e-06	1.241113e-06	2.008633e-06
0.352         	-3.823024e-07	5.435100e+00	3.319914e-06	1.277655e-06	2.042260e-06
0.353         	-3.808530e-07	5.430145e+00	3.307184e-06	1.272739e-06	2.034445e-06
0.354         	-3.794116e-07	5.425216e+00	3.390241e-06	1.315709e-06	2.074532e-06
0.355         	-3.779784e-07	5.420304e+00	3.318686e-06	1.281365e-06	2.037322e-06
0.356         	-3.765526e-07	5.415420e+00	3.298438e-06	1.272666e-06	2.025772e-06
0.357         	-3.751348e-07	5.410559e+00	3.371449e-06	1.310590e-06	2.060859e-06
0.358         	-3.737249e-07	5.405721e+00	3.310116e-06	1.281333e-06	2.028783e-06
0.359         	-3.723227e-07	5.400906e+00	3.367903e-06	1.311629e-06	2.056274e-06
0.36          	-3.709284e-07	5.396114e+00	3.356662e-06	1.307403e-06	2.049259e-06
0.361         	-3.695418e-07	5.391344e+00	3.315633e-06	1.288275e-06	2.027358e-06
0.362         	-3.681629e-07	5.386597e+00	3.367426e-06	1.315550e-06	2.051876e-06