/*--------------------------------*- C++ -*----------------------------------*\
  =========                 |
  \\      /  F ield         | OpenFOAM: The Open Source CFD Toolbox
   \\    /   O peration     | Website:  https://openfoam.org
    \\  /    A nd           | Version:  7
     \\/     M anipulation  |
\*---------------------------------------------------------------------------*/
FoamFile
{
    version     2.0;
    format      ascii;
    class       volScalarField;
    location    "10";
    object      p;
}
// * * * * * * * * * * * * * * * * * * * * * * * * * * * * * * * * * * * * * //

dimensions      [0 2 -2 0 0 0 0];

internalField   nonuniform List<scalar> 
2625
(
0.0846787
0.0899195
0.0868656
0.0951068
0.100235
0.105298
0.110291
0.11521
0.120051
0.124811
0.129486
0.134073
0.138572
0.151105
0.147126
0.143075
0.138953
0.134758
0.130492
0.126155
0.121745
0.117265
0.112714
0.108093
0.103403
0.0986461
0.0938237
0.0889381
0.0839921
0.151083
0.14712
0.143085
0.138976
0.134795
0.13054
0.126213
0.121812
0.117338
0.112793
0.108176
0.103488
0.0987321
0.0939093
0.089022
0.0840733
0.154565
0.150702
0.146765
0.142754
0.138669
0.13451
0.130277
0.125968
0.121586
0.11713
0.1126
0.107998
0.103325
0.0985818
0.0937714
0.0888961
0.0839588
0.154126
0.150289
0.146378
0.142392
0.13833
0.134193
0.129981
0.125693
0.12133
0.116892
0.11238
0.107795
0.103138
0.098411
0.0936157
0.088755
0.0838319
0.15373
0.149918
0.14603
0.142067
0.138027
0.133911
0.129718
0.125449
0.121104
0.116684
0.112188
0.107618
0.102976
0.0982633
0.0934817
0.0886343
0.0837241
0.157057
0.153346
0.149558
0.145693
0.141752
0.137733
0.133637
0.129464
0.125214
0.120887
0.116483
0.112003
0.107448
0.102821
0.0981213
0.093353
0.0885183
0.0836204
0.156648
0.15296
0.149197
0.145355
0.141436
0.137438
0.133363
0.129209
0.124977
0.120667
0.11628
0.111816
0.107276
0.102663
0.0979775
0.0932224
0.0884004
0.083515
0.159824
0.15624
0.152577
0.148837
0.145018
0.141121
0.137144
0.133089
0.128954
0.12474
0.120447
0.116076
0.111628
0.107104
0.102504
0.0978327
0.0930908
0.0882816
0.0834085
0.159396
0.155837
0.152198
0.148481
0.144684
0.140808
0.136852
0.132816
0.1287
0.124504
0.120228
0.115874
0.111441
0.106931
0.102346
0.0976879
0.092959
0.0881625
0.0833017
0.162433
0.158973
0.155438
0.151822
0.148127
0.144353
0.140498
0.136562
0.132545
0.128448
0.124269
0.12001
0.115672
0.111254
0.106759
0.102188
0.0975432
0.0928272
0.0880432
0.0831947
0.161991
0.158554
0.155043
0.15145
0.147778
0.144024
0.14019
0.136274
0.132276
0.128197
0.124036
0.119793
0.11547
0.111068
0.106587
0.10203
0.0973984
0.0926953
0.0879237
0.0830873
0.164875
0.161554
0.15814
0.154652
0.151082
0.147431
0.143699
0.139885
0.135988
0.132009
0.127948
0.123803
0.119577
0.11527
0.110882
0.106416
0.101872
0.0972536
0.0925632
0.087804
0.0829796
0.164419
0.161122
0.157731
0.154265
0.150717
0.147088
0.143376
0.139582
0.135705
0.131744
0.1277
0.123572
0.119362
0.11507
0.110697
0.106244
0.101714
0.0971088
0.092431
0.087684
0.0828716
0.167204
0.163969
0.160695
0.157326
0.153883
0.150356
0.146748
0.143057
0.139282
0.135423
0.131481
0.127454
0.123342
0.119148
0.114871
0.110512
0.106073
0.101557
0.0969641
0.0922987
0.0875639
0.0827634
0.166737
0.163525
0.160273
0.156927
0.153505
0.15
0.146412
0.142741
0.138985
0.135145
0.131219
0.127209
0.123114
0.118935
0.114673
0.110328
0.105903
0.101399
0.0968194
0.0921664
0.0874435
0.0826548
0.169287
0.166275
0.163087
0.159857
0.156532
0.153132
0.149647
0.14608
0.142428
0.138691
0.134868
0.13096
0.126966
0.122887
0.118723
0.114475
0.110145
0.105733
0.101242
0.0966748
0.092034
0.087323
0.082546
0.168813
0.16582
0.162654
0.159446
0.156143
0.152764
0.149299
0.145751
0.142118
0.138399
0.134594
0.130703
0.126725
0.122661
0.118512
0.114279
0.109962
0.105563
0.101085
0.0965304
0.0919015
0.0872024
0.0824369
0.171497
0.168345
0.16537
0.162228
0.159041
0.155759
0.1524
0.148955
0.145427
0.141812
0.138111
0.134323
0.130448
0.126486
0.122437
0.118303
0.114083
0.10978
0.105394
0.100929
0.096386
0.0917691
0.0870816
0.0823276
0.173385
0.171002
0.167885
0.164928
0.161808
0.158641
0.15538
0.152041
0.148616
0.145106
0.141509
0.137825
0.134054
0.130195
0.126249
0.122215
0.118094
0.113888
0.109598
0.105225
0.100772
0.0962417
0.0916366
0.0869606
0.082218
0.172905
0.170514
0.167432
0.164491
0.161395
0.158248
0.155007
0.151687
0.148281
0.144789
0.14121
0.137543
0.133788
0.129945
0.126013
0.121994
0.117887
0.113695
0.109418
0.105057
0.100616
0.0960976
0.0915041
0.0868395
0.0821081
0.17635
0.172434
0.170034
0.166986
0.164062
0.160987
0.15786
0.154639
0.151338
0.14795
0.144476
0.140914
0.137264
0.133524
0.129696
0.12578
0.121775
0.117682
0.113502
0.109238
0.10489
0.100461
0.0959537
0.0913716
0.0867183
0.0819981
0.175795
0.171969
0.16956
0.166547
0.163639
0.160587
0.157478
0.154277
0.150994
0.147624
0.144167
0.140622
0.136987
0.133264
0.129451
0.125548
0.121557
0.117477
0.113311
0.109059
0.104723
0.100306
0.09581
0.0912391
0.0865969
0.0818877
0.175248
0.171512
0.169095
0.166116
0.163223
0.160193
0.157103
0.15392
0.150656
0.147303
0.143862
0.140333
0.136715
0.133006
0.129207
0.125319
0.121341
0.117274
0.11312
0.10888
0.104556
0.100151
0.0956664
0.0911067
0.0864755
0.0817772
0.174712
0.171063
0.168639
0.165692
0.162815
0.159805
0.156733
0.153569
0.150322
0.146986
0.143562
0.140048
0.136445
0.132751
0.128966
0.125092
0.121127
0.117073
0.112931
0.108703
0.104391
0.0999963
0.0955231
0.0909743
0.0863539
0.0816664
0.174187
0.170622
0.168191
0.165276
0.162414
0.159425
0.15637
0.153224
0.149993
0.146674
0.143266
0.139767
0.136179
0.132499
0.128728
0.124866
0.120914
0.116873
0.112743
0.108526
0.104225
0.0998423
0.0953799
0.090842
0.0862323
0.0815554
0.173672
0.170188
0.167752
0.164868
0.16202
0.159051
0.156014
0.152884
0.14967
0.146367
0.142974
0.13949
0.135916
0.13225
0.128492
0.124643
0.120704
0.116674
0.112556
0.108351
0.104061
0.0996886
0.0952371
0.0907097
0.0861106
0.0814442
0.173169
0.169763
0.167322
0.164467
0.161634
0.158684
0.155663
0.152551
0.149353
0.146064
0.142686
0.139217
0.135656
0.132004
0.128259
0.124422
0.120495
0.116477
0.11237
0.108176
0.103897
0.0995354
0.0950944
0.0905775
0.0859887
0.0813328
0.172676
0.169346
0.166901
0.164075
0.161255
0.158325
0.15532
0.152223
0.14904
0.145767
0.142403
0.138948
0.1354
0.13176
0.128028
0.124204
0.120288
0.116281
0.112186
0.108002
0.103734
0.0993827
0.094952
0.0904453
0.0858668
0.0812211
0.172196
0.168938
0.16649
0.16369
0.160885
0.157972
0.154982
0.151902
0.148733
0.145474
0.142124
0.138682
0.135148
0.13152
0.1278
0.123987
0.120083
0.116087
0.112002
0.10783
0.103571
0.0992305
0.0948099
0.0903133
0.0857448
0.0811092
0.171728
0.168539
0.166089
0.163314
0.160523
0.157627
0.154652
0.151586
0.148432
0.145187
0.14185
0.138421
0.134899
0.131283
0.127575
0.123773
0.11988
0.115895
0.11182
0.107658
0.10341
0.0990787
0.094668
0.0901813
0.0856228
0.0809971
0.171271
0.168148
0.165697
0.162946
0.160168
0.157289
0.154329
0.151277
0.148137
0.144905
0.141581
0.138164
0.134654
0.13105
0.127352
0.123561
0.119678
0.115704
0.111639
0.107487
0.103249
0.0989274
0.0945264
0.0900494
0.0855007
0.0808848
0.170827
0.167767
0.165315
0.162587
0.159822
0.156958
0.154012
0.150974
0.147847
0.144628
0.141316
0.137911
0.134412
0.130819
0.127132
0.123352
0.119479
0.115515
0.11146
0.107317
0.103088
0.0987766
0.0943851
0.0899176
0.0853784
0.0807723
0.170396
0.167395
0.164944
0.162236
0.159484
0.156635
0.153702
0.150678
0.147563
0.144356
0.141056
0.137662
0.134174
0.130592
0.126915
0.123145
0.119282
0.115327
0.111282
0.107148
0.102929
0.0986264
0.0942441
0.0897859
0.0852562
0.0806595
0.169977
0.167033
0.164582
0.161894
0.159155
0.15632
0.1534
0.150388
0.147285
0.144089
0.1408
0.137417
0.13394
0.130368
0.126701
0.12294
0.119087
0.115141
0.111105
0.10698
0.10277
0.0984766
0.0941034
0.0896544
0.0851338
0.169572
0.166681
0.164231
0.161562
0.158834
0.156013
0.153104
0.150104
0.147013
0.143828
0.14055
0.137177
0.133709
0.130147
0.12649
0.122738
0.118893
0.114957
0.110929
0.106814
0.102612
0.0983274
0.093963
0.0895229
0.0850114
0.169179
0.166339
0.163891
0.161238
0.158522
0.155713
0.152816
0.149827
0.146747
0.143572
0.140304
0.136941
0.133483
0.129929
0.126281
0.122538
0.118702
0.114774
0.110755
0.106648
0.102455
0.0981787
0.0938229
0.0893915
0.0848889
0.168799
0.166007
0.16356
0.160924
0.158219
0.155422
0.152535
0.149557
0.146487
0.143322
0.140063
0.136709
0.13326
0.129715
0.126076
0.122341
0.118513
0.114593
0.110583
0.106484
0.102299
0.0980306
0.0936832
0.0892602
0.0847663
0.168433
0.165686
0.163241
0.160619
0.157924
0.155138
0.152262
0.149294
0.146233
0.143077
0.139827
0.136482
0.133041
0.129505
0.125873
0.122147
0.118327
0.114414
0.110411
0.10632
0.102143
0.097883
0.0935437
0.0891291
0.0846437
0.168081
0.165375
0.162933
0.160324
0.157639
0.154863
0.151997
0.149037
0.145985
0.142838
0.139597
0.136259
0.132826
0.129298
0.125673
0.121955
0.118142
0.114237
0.110242
0.106158
0.101988
0.097736
0.0934046
0.088998
0.084521
0.167742
0.165076
0.162635
0.160039
0.157363
0.154596
0.151739
0.148788
0.145744
0.142605
0.139371
0.136041
0.132616
0.129094
0.125477
0.121765
0.11796
0.114062
0.110073
0.105997
0.101834
0.0975895
0.0932657
0.0888671
0.0843982
0.167417
0.164787
0.162349
0.159764
0.157096
0.154338
0.151489
0.148546
0.145509
0.142378
0.139151
0.135828
0.132409
0.128894
0.125284
0.121578
0.117779
0.113888
0.109906
0.105837
0.101681
0.0974436
0.0931273
0.0887363
0.0842752
0.167106
0.16451
0.162074
0.159498
0.156839
0.154089
0.151246
0.148311
0.145281
0.142156
0.138936
0.135619
0.132207
0.128698
0.125093
0.121394
0.117601
0.113716
0.109741
0.105678
0.101529
0.0972983
0.0929891
0.0886055
0.0841523
0.166809
0.164245
0.16181
0.159244
0.156591
0.153848
0.151012
0.148083
0.14506
0.141941
0.138726
0.135415
0.132008
0.128505
0.124906
0.121213
0.117426
0.113547
0.109577
0.10552
0.101378
0.0971536
0.0928513
0.0884749
0.0840292
0.166527
0.163991
0.161558
0.158999
0.156353
0.153616
0.150786
0.147863
0.144845
0.141731
0.138522
0.135216
0.131814
0.128316
0.124723
0.121034
0.117252
0.113379
0.109415
0.105363
0.101227
0.0970094
0.0927138
0.0883444
0.083906
0.166259
0.16375
0.161318
0.158766
0.156125
0.153393
0.150569
0.14765
0.144637
0.141528
0.138323
0.135022
0.131625
0.128131
0.124542
0.120858
0.117081
0.113213
0.109254
0.105208
0.101078
0.0968659
0.0925766
0.088214
0.0837826
0.166006
0.16352
0.161089
0.158543
0.155907
0.15318
0.150359
0.147445
0.144436
0.141331
0.13813
0.134833
0.131439
0.12795
0.124365
0.120685
0.116913
0.113049
0.109095
0.105054
0.100929
0.0967229
0.0924397
0.0880836
0.0836592
0.165768
0.163304
0.160873
0.158331
0.155699
0.152975
0.150159
0.147248
0.144242
0.14114
0.137943
0.134649
0.131258
0.127772
0.124191
0.120515
0.116746
0.112886
0.108937
0.104901
0.100781
0.0965805
0.0923032
0.0879534
0.0835356
0.165545
0.1631
0.160669
0.15813
0.155501
0.152781
0.149967
0.147058
0.144055
0.140956
0.137761
0.13447
0.131082
0.127599
0.124021
0.120348
0.116583
0.112726
0.108781
0.104749
0.100634
0.0964388
0.092167
0.0878232
0.0834119
0.165338
0.162908
0.160477
0.157941
0.155314
0.152595
0.149783
0.146877
0.143876
0.140778
0.137585
0.134296
0.13091
0.127429
0.123854
0.120184
0.116421
0.112568
0.108627
0.104599
0.100488
0.0962976
0.0920312
0.0876931
0.0832881
0.165146
0.162731
0.160298
0.157764
0.155138
0.15242
0.149609
0.146704
0.143703
0.140607
0.137415
0.134127
0.130744
0.127264
0.12369
0.120023
0.116263
0.112412
0.108474
0.10445
0.100343
0.0961571
0.0918956
0.0875631
0.0831641
0.16497
0.162566
0.160132
0.157598
0.154972
0.152255
0.149444
0.146539
0.143539
0.140443
0.137252
0.133964
0.130581
0.127103
0.12353
0.119864
0.116107
0.112259
0.108323
0.104302
0.100199
0.0960172
0.0917605
0.0874331
0.0830399
0.164809
0.162415
0.159978
0.157444
0.154818
0.1521
0.149289
0.146383
0.143382
0.140286
0.137094
0.133807
0.130424
0.126946
0.123374
0.119709
0.115953
0.112107
0.108174
0.104156
0.100056
0.0958779
0.0916256
0.0873032
0.0829156
0.164665
0.162279
0.159838
0.157302
0.154675
0.151955
0.149142
0.146235
0.143233
0.140136
0.136943
0.133655
0.130272
0.126794
0.123222
0.119557
0.115802
0.111958
0.108026
0.10401
0.0999137
0.0957392
0.091491
0.0871733
0.082791
0.164538
0.162156
0.159712
0.157173
0.154543
0.151821
0.149006
0.146096
0.143092
0.139993
0.136798
0.133509
0.130124
0.126645
0.123073
0.119409
0.115654
0.11181
0.10788
0.103867
0.0997724
0.0956012
0.0913567
0.0870435
0.0826662
0.164427
0.162048
0.159599
0.157057
0.154424
0.151698
0.148879
0.145967
0.142959
0.139857
0.13666
0.133368
0.129982
0.126502
0.122928
0.119264
0.115508
0.111665
0.107736
0.103724
0.0996323
0.0954639
0.0912229
0.0869138
0.0825414
0.164333
0.161955
0.159501
0.156954
0.154316
0.151586
0.148763
0.145846
0.142835
0.13973
0.136529
0.133235
0.129846
0.126363
0.122788
0.119122
0.115367
0.111523
0.107595
0.103584
0.0994938
0.0953278
0.0910901
0.0867848
0.0824168
0.164257
0.161877
0.159416
0.156864
0.15422
0.151485
0.148657
0.145735
0.142719
0.139609
0.136405
0.133106
0.129714
0.126229
0.122651
0.118984
0.115227
0.111383
0.107455
0.103444
0.0993557
0.0951919
0.0909569
0.0866552
0.0822916
0.164197
0.161813
0.159345
0.156785
0.154135
0.151393
0.148558
0.14563
0.142608
0.139492
0.136282
0.132979
0.129582
0.126093
0.122513
0.118842
0.115083
0.111238
0.10731
0.1033
0.0992119
0.0950499
0.0908175
0.0865192
0.0821597
0.164154
0.161765
0.159288
0.15672
0.154061
0.151311
0.148468
0.145533
0.142503
0.139381
0.136165
0.132855
0.129453
0.125959
0.122375
0.118701
0.114939
0.111092
0.107162
0.103151
0.099064
0.0949032
0.0906729
0.0863776
0.0820221
0.164134
0.161741
0.159259
0.156687
0.154023
0.151268
0.148421
0.145481
0.142447
0.13932
0.1361
0.132787
0.129381
0.125884
0.122296
0.118619
0.114855
0.111006
0.107074
0.103062
0.0989744
0.0948136
0.0905839
0.0862899
0.0819362
0.21017
0.209763
0.209266
0.208688
0.208029
0.207292
0.206479
0.205591
0.204629
0.203594
0.202487
0.20131
0.200061
0.198742
0.197354
0.195896
0.19437
0.192776
0.191114
0.189386
0.187595
0.185736
0.183837
0.181827
0.179962
0.177445
0.210562
0.210603
0.210448
0.210233
0.209903
0.20949
0.208986
0.2084
0.207732
0.206985
0.206161
0.205262
0.204288
0.20324
0.202121
0.20093
0.199667
0.198335
0.196933
0.195462
0.193923
0.192316
0.190643
0.188905
0.187105
0.18524
0.183334
0.181324
0.179445
0.176957
0.210307
0.210348
0.210192
0.209974
0.209639
0.209221
0.20871
0.208116
0.207439
0.206683
0.205848
0.204937
0.203952
0.202892
0.201759
0.200555
0.19928
0.197934
0.196519
0.195035
0.193484
0.191865
0.190181
0.188433
0.186625
0.184752
0.18284
0.18083
0.178937
0.176477
0.210055
0.210097
0.209939
0.209718
0.209379
0.208955
0.208438
0.207836
0.207151
0.206384
0.20554
0.204618
0.20362
0.202548
0.201404
0.200187
0.198898
0.19754
0.196112
0.194616
0.193052
0.191422
0.189728
0.18797
0.186153
0.184275
0.182356
0.180345
0.178439
0.176005
0.209806
0.209849
0.209689
0.209465
0.209122
0.208693
0.208169
0.20756
0.206866
0.20609
0.205235
0.204303
0.203294
0.20221
0.201053
0.199824
0.198523
0.197152
0.195712
0.194204
0.192629
0.190988
0.189283
0.187517
0.185692
0.183807
0.181881
0.179869
0.17795
0.17554
0.209562
0.209604
0.209443
0.209216
0.208869
0.208434
0.207904
0.207288
0.206585
0.205801
0.204936
0.203993
0.202973
0.201878
0.200709
0.199467
0.198155
0.196772
0.195319
0.193799
0.192213
0.190562
0.188848
0.187072
0.185239
0.183348
0.181417
0.179402
0.177471
0.175084
0.20932
0.209364
0.209201
0.208971
0.20862
0.20818
0.207644
0.20702
0.206309
0.205516
0.204641
0.203688
0.202657
0.201551
0.20037
0.199117
0.197793
0.196398
0.194934
0.193403
0.191806
0.190144
0.188421
0.186637
0.184797
0.182899
0.180961
0.178946
0.177002
0.174637
0.209083
0.209127
0.208962
0.20873
0.208375
0.20793
0.207387
0.206756
0.206038
0.205235
0.204352
0.203388
0.202347
0.20123
0.200038
0.198774
0.197438
0.196032
0.194557
0.193015
0.191407
0.189736
0.188003
0.186211
0.184364
0.18246
0.180516
0.178499
0.176544
0.174198
0.20885
0.208894
0.208728
0.208493
0.208134
0.207684
0.207135
0.206497
0.205771
0.20496
0.204067
0.203094
0.202043
0.200915
0.199713
0.198437
0.19709
0.195673
0.194187
0.192635
0.191017
0.189336
0.187595
0.185795
0.18394
0.182031
0.180081
0.178062
0.176095
0.173769
0.208621
0.208666
0.208498
0.20826
0.207897
0.207442
0.206888
0.206243
0.20551
0.20469
0.203788
0.202806
0.201744
0.200606
0.199394
0.198107
0.196749
0.195322
0.193825
0.192263
0.190636
0.188946
0.187196
0.185388
0.183527
0.181612
0.179657
0.177635
0.175658
0.173349
0.208397
0.208441
0.208272
0.208032
0.207666
0.207206
0.206646
0.205994
0.205253
0.204426
0.203515
0.202523
0.201452
0.200304
0.199081
0.197785
0.196417
0.194978
0.193472
0.1919
0.190263
0.188565
0.186807
0.184992
0.183124
0.181204
0.179243
0.177218
0.175231
0.172939
0.208177
0.208222
0.208051
0.207808
0.207438
0.206974
0.206408
0.205751
0.205002
0.204167
0.203248
0.202247
0.201167
0.200009
0.198776
0.19747
0.196091
0.194643
0.193127
0.191545
0.1899
0.188193
0.186427
0.184605
0.182731
0.180805
0.178839
0.176812
0.174816
0.172538
0.207962
0.208007
0.207835
0.20759
0.207216
0.206747
0.206176
0.205512
0.204757
0.203914
0.202987
0.201977
0.200888
0.199721
0.198478
0.197162
0.195774
0.194316
0.192791
0.1912
0.189546
0.187831
0.186058
0.184229
0.182349
0.180418
0.178446
0.176417
0.174412
0.172148
0.207752
0.207797
0.207624
0.207376
0.206999
0.206526
0.20595
0.205279
0.204517
0.203667
0.202732
0.201714
0.200616
0.19944
0.198188
0.196862
0.195465
0.193998
0.192464
0.190864
0.189202
0.187479
0.185698
0.183863
0.181977
0.180041
0.178064
0.176032
0.174019
0.171768
0.207547
0.207593
0.207418
0.207167
0.206788
0.20631
0.205728
0.205052
0.204284
0.203427
0.202484
0.201457
0.200351
0.199166
0.197905
0.19657
0.195164
0.193688
0.192145
0.190537
0.188867
0.187137
0.185349
0.183508
0.181616
0.179675
0.177693
0.175659
0.173637
0.171399
0.207348
0.207393
0.207217
0.206964
0.206581
0.206099
0.205513
0.204831
0.204056
0.203192
0.202242
0.201208
0.200093
0.1989
0.19763
0.196287
0.194872
0.193388
0.191836
0.19022
0.188542
0.186805
0.185011
0.183163
0.181266
0.17932
0.177334
0.175297
0.173268
0.171041
0.207153
0.207199
0.207022
0.206767
0.206381
0.205895
0.205304
0.204617
0.203836
0.202965
0.202007
0.200965
0.199843
0.198641
0.197363
0.196012
0.194588
0.193096
0.191537
0.189913
0.188228
0.186483
0.184683
0.18283
0.180927
0.178977
0.176986
0.174946
0.17291
0.170694
0.206965
0.207011
0.206833
0.206575
0.206186
0.205696
0.205101
0.204408
0.203621
0.202744
0.201779
0.20073
0.1996
0.198391
0.197105
0.195745
0.194314
0.192814
0.191247
0.189616
0.187923
0.186172
0.184366
0.182507
0.180599
0.178645
0.17665
0.174608
0.172565
0.170358
0.206783
0.206829
0.20665
0.20639
0.205998
0.205504
0.204904
0.204206
0.203414
0.20253
0.201559
0.200503
0.199365
0.198148
0.196855
0.195488
0.194049
0.192541
0.190966
0.189328
0.187629
0.185872
0.18406
0.182196
0.180283
0.178324
0.176325
0.174281
0.172232
0.170034
0.206606
0.206652
0.206472
0.20621
0.205816
0.205318
0.204714
0.204012
0.203213
0.202324
0.201346
0.200283
0.199139
0.197915
0.196614
0.195239
0.193793
0.192278
0.190696
0.189052
0.187346
0.185583
0.183765
0.181896
0.179979
0.178016
0.176013
0.173966
0.171912
0.169722
0.206436
0.206482
0.206301
0.206037
0.20564
0.205139
0.204531
0.203824
0.20302
0.202125
0.201141
0.200072
0.19892
0.19769
0.196382
0.195
0.193547
0.192025
0.190437
0.188786
0.187074
0.185305
0.183482
0.181608
0.179686
0.17772
0.175713
0.173664
0.171605
0.169422
0.206273
0.206319
0.206137
0.205871
0.205471
0.204967
0.204355
0.203643
0.202834
0.201934
0.200944
0.199869
0.198711
0.197473
0.196159
0.19477
0.193311
0.191782
0.190188
0.18853
0.186813
0.185039
0.183211
0.181332
0.179406
0.177436
0.175426
0.173375
0.17131
0.169134
0.206116
0.206162
0.205979
0.205711
0.205309
0.204802
0.204186
0.20347
0.202656
0.20175
0.200755
0.199674
0.19851
0.197266
0.195945
0.194551
0.193084
0.19155
0.189949
0.188286
0.186564
0.184784
0.182951
0.181068
0.179138
0.177165
0.175152
0.173098
0.171029
0.16886
0.205966
0.206012
0.205828
0.205559
0.205154
0.204644
0.204024
0.203304
0.202486
0.201575
0.200575
0.199488
0.198318
0.197068
0.195742
0.194341
0.192869
0.191328
0.189722
0.188054
0.186326
0.184541
0.182704
0.180817
0.178883
0.176906
0.17489
0.172835
0.170761
0.168598
0.205823
0.205869
0.205685
0.205413
0.205007
0.204494
0.203871
0.203146
0.202324
0.201409
0.200403
0.199311
0.198136
0.19688
0.195548
0.194141
0.192663
0.191117
0.189506
0.187832
0.1861
0.184311
0.182469
0.180578
0.178641
0.176661
0.174642
0.172584
0.170507
0.168349
0.205687
0.205734
0.205549
0.205276
0.204867
0.204351
0.203725
0.202997
0.202171
0.201251
0.20024
0.199143
0.197963
0.196702
0.195364
0.193952
0.192469
0.190918
0.189301
0.187623
0.185885
0.184092
0.182247
0.180352
0.178412
0.176429
0.174407
0.172348
0.170267
0.168113
0.205559
0.205606
0.20542
0.205145
0.204735
0.204216
0.203587
0.202856
0.202026
0.201101
0.200086
0.198985
0.1978
0.196534
0.195191
0.193774
0.192286
0.19073
0.189109
0.187426
0.185684
0.183887
0.182037
0.180139
0.178196
0.17621
0.174186
0.172125
0.170041
0.167892
0.205439
0.205485
0.205299
0.205023
0.204611
0.20409
0.203458
0.202723
0.201889
0.200961
0.199942
0.198836
0.197646
0.196376
0.195029
0.193607
0.192114
0.190553
0.188928
0.18724
0.185495
0.183694
0.181841
0.17994
0.177993
0.176005
0.173979
0.171916
0.169829
0.167684
0.205326
0.205373
0.205186
0.204909
0.204495
0.203971
0.203337
0.202599
0.201762
0.20083
0.199807
0.198697
0.197503
0.196229
0.194877
0.193451
0.191954
0.190389
0.188759
0.187068
0.185319
0.183514
0.181658
0.179754
0.177805
0.175814
0.173786
0.171722
0.169632
0.16749
0.205222
0.205269
0.205081
0.204803
0.204387
0.203862
0.203225
0.202484
0.201644
0.200709
0.199683
0.198569
0.197371
0.196092
0.194736
0.193306
0.191805
0.190236
0.188603
0.186908
0.185155
0.183348
0.181489
0.179582
0.17763
0.175638
0.173607
0.171542
0.16945
0.167311
0.205126
0.205173
0.204985
0.204705
0.204288
0.203761
0.203122
0.202379
0.201536
0.200598
0.199568
0.198451
0.197249
0.195967
0.194607
0.193174
0.191669
0.190097
0.18846
0.186762
0.185006
0.183195
0.181334
0.179424
0.17747
0.175476
0.173444
0.171377
0.169283
0.167147
0.205039
0.205086
0.204898
0.204616
0.204198
0.203669
0.203028
0.202283
0.201437
0.200496
0.199463
0.198343
0.197138
0.195853
0.19449
0.193053
0.191545
0.189969
0.188329
0.186628
0.18487
0.183056
0.181192
0.179281
0.177325
0.175329
0.173295
0.171227
0.169132
0.166998
0.204961
0.205007
0.204819
0.204537
0.204117
0.203587
0.202944
0.202196
0.201349
0.200405
0.19937
0.198246
0.197039
0.19575
0.194384
0.192944
0.191434
0.189855
0.188212
0.186509
0.184747
0.182932
0.181066
0.179152
0.177195
0.175197
0.173162
0.171093
0.168996
0.166864
0.204891
0.204938
0.204749
0.204466
0.204046
0.203514
0.202869
0.20212
0.20127
0.200324
0.199287
0.198161
0.196951
0.19566
0.194291
0.192849
0.191335
0.189754
0.188109
0.186403
0.184639
0.182822
0.180954
0.179038
0.177079
0.17508
0.173044
0.170974
0.168876
0.166746
0.204831
0.204877
0.204689
0.204405
0.203984
0.203451
0.202805
0.202054
0.201202
0.200255
0.199215
0.198087
0.196875
0.195581
0.194211
0.192766
0.19125
0.189667
0.188019
0.186311
0.184546
0.182727
0.180857
0.17894
0.17698
0.174979
0.172942
0.170871
0.168772
0.166644
0.204781
0.204827
0.204638
0.204353
0.203932
0.203397
0.20275
0.201998
0.201145
0.200196
0.199154
0.198025
0.19681
0.195515
0.194143
0.192696
0.191178
0.189593
0.187944
0.186234
0.184467
0.182646
0.180775
0.178857
0.176896
0.174894
0.172856
0.170785
0.168685
0.166558
0.20474
0.204786
0.204597
0.204312
0.203889
0.203354
0.202706
0.201953
0.201099
0.200148
0.199105
0.197974
0.196758
0.195462
0.194088
0.192639
0.19112
0.189534
0.187883
0.186172
0.184404
0.182582
0.180709
0.17879
0.176828
0.174826
0.172787
0.170715
0.168615
0.166489
0.204709
0.204754
0.204566
0.20428
0.203857
0.203321
0.202673
0.201919
0.201064
0.200112
0.199068
0.197936
0.196719
0.195421
0.194046
0.192596
0.191076
0.189488
0.187837
0.186125
0.184356
0.182533
0.180659
0.17874
0.176776
0.174774
0.172735
0.170663
0.168561
0.166437
0.204688
0.204733
0.204545
0.204259
0.203836
0.203299
0.20265
0.201896
0.20104
0.200088
0.199043
0.19791
0.196693
0.195394
0.194018
0.192568
0.191046
0.189458
0.187806
0.186093
0.184323
0.182499
0.180626
0.178705
0.176742
0.174739
0.172699
0.170627
0.168526
0.166402
0.204678
0.204722
0.204535
0.204248
0.203825
0.203288
0.202639
0.201884
0.201028
0.200075
0.199031
0.197897
0.196679
0.19538
0.194004
0.192553
0.191032
0.189443
0.18779
0.186077
0.184307
0.182483
0.180609
0.178688
0.176724
0.174721
0.172682
0.170609
0.168508
0.166386
)
;

boundaryField
{
    inlet
    {
        type            zeroGradient;
    }
    outlet
    {
        type            fixedValue;
        value           nonuniform 0();
    }
    cylinder
    {
        type            zeroGradient;
    }
    top
    {
        type            symmetryPlane;
    }
    bottom
    {
        type            symmetryPlane;
    }
    defaultFaces
    {
        type            empty;
    }
    procBoundary12to8
    {
        type            processor;
        value           nonuniform List<scalar> 
76
(
0.0918855
0.0918855
0.0968692
0.101814
0.106719
0.111581
0.116399
0.121172
0.125898
0.130576
0.142978
0.142978
0.147292
0.151512
0.155636
0.155012
0.154973
0.154973
0.158353
0.157887
0.157466
0.157466
0.160691
0.160256
0.160256
0.163333
0.162881
0.162881
0.165803
0.165336
0.165336
0.168155
0.167677
0.167677
0.170256
0.169768
0.169768
0.172505
0.171998
0.171998
0.173871
0.173871
0.177488
0.176915
0.176915
0.21044
0.210039
0.209549
0.208979
0.208329
0.207602
0.2068
0.205924
0.204974
0.203952
0.202859
0.201695
0.20046
0.199156
0.197781
0.196337
0.194825
0.193243
0.191593
0.189875
0.188094
0.186242
0.18435
0.18234
0.180488
0.17794
0.21082
0.21086
0.210708
0.210496
0.210496
)
;
    }
    procBoundary12to9
    {
        type            processor;
        value           nonuniform List<scalar> 5(0.0793907 0.0767276 0.081812 0.081812 0.0841429);
    }
    procBoundary12to13
    {
        type            processor;
        value           nonuniform List<scalar> 
61
(
0.0789889
0.0790667
0.0789632
0.0788502
0.078755
0.0786634
0.07857
0.0784756
0.0783808
0.0782858
0.0781903
0.0780945
0.0779982
0.0779017
0.0778047
0.0777074
0.0776098
0.0775118
0.0774134
0.0773148
0.0772157
0.0771164
0.0770167
0.0769167
0.0768163
0.0767156
0.0766146
0.0765133
0.0764116
0.0763096
0.0762072
0.0761045
0.0760014
0.0805466
0.0805466
0.0804334
0.0803199
0.0802063
0.0800924
0.0799782
0.0798638
0.0797491
0.0796342
0.079519
0.0794035
0.0792877
0.0791716
0.0790552
0.0789384
0.0788213
0.0787038
0.078586
0.0784678
0.0783491
0.07823
0.0781106
0.0779913
0.0778711
0.0777442
0.0776113
0.0775282
)
;
    }
}


// ************************************************************************* //
