/*--------------------------------*- C++ -*----------------------------------*\
  =========                 |
  \\      /  F ield         | OpenFOAM: The Open Source CFD Toolbox
   \\    /   O peration     | Website:  https://openfoam.org
    \\  /    A nd           | Version:  7
     \\/     M anipulation  |
\*---------------------------------------------------------------------------*/
FoamFile
{
    version     2.0;
    format      ascii;
    class       volVectorField;
    location    "10";
    object      U;
}
// * * * * * * * * * * * * * * * * * * * * * * * * * * * * * * * * * * * * * //

dimensions      [0 1 -1 0 0 0 0];

internalField   nonuniform List<vector> 
2625
(
(1.12263 0.052378 7.5242e-21)
(1.11813 0.0532038 -1.53714e-21)
(1.1188 0.0714626 -1.79976e-20)
(1.11365 0.0540106 -4.65617e-20)
(1.10921 0.0547935 -7.86642e-21)
(1.10481 0.0555481 5.48604e-20)
(1.10044 0.0562697 8.94431e-21)
(1.09613 0.0569539 -5.78184e-20)
(1.09186 0.0575964 -5.10126e-21)
(1.08765 0.0581931 4.13082e-20)
(1.0835 0.0587401 -9.68872e-21)
(1.07942 0.0592336 3.58591e-21)
(1.0754 0.0596701 8.77537e-20)
(1.05978 0.0515138 1.2051e-19)
(1.06331 0.0511453 1.28179e-19)
(1.06691 0.0507205 -8.95154e-20)
(1.0706 0.0502428 -1.11792e-19)
(1.07436 0.0497157 9.54389e-20)
(1.07819 0.049143 2.53454e-21)
(1.0821 0.0485286 4.31018e-20)
(1.08607 0.0478768 -9.50366e-22)
(1.09011 0.0471919 1.59235e-20)
(1.09422 0.0464781 4.03771e-20)
(1.09838 0.0457402 -8.72977e-21)
(1.1026 0.0449825 5.37889e-20)
(1.10687 0.0442096 -1.12706e-20)
(1.11118 0.043426 -5.36677e-21)
(1.11554 0.0426361 1.53754e-20)
(1.11994 0.0418441 -1.0062e-20)
(1.05976 0.0505977 -5.46819e-20)
(1.06327 0.0502389 1.29161e-20)
(1.06686 0.0498257 6.31153e-20)
(1.07053 0.0493612 4.80073e-20)
(1.07427 0.0488488 -2.91008e-20)
(1.07809 0.0482921 -1.78047e-20)
(1.08199 0.047695 -1.31957e-20)
(1.08595 0.0470616 -8.97349e-21)
(1.08998 0.0463958 2.35827e-20)
(1.09408 0.0457021 -1.05358e-20)
(1.09823 0.0449847 4.35924e-20)
(1.10245 0.0442481 -2.92981e-20)
(1.10671 0.0434965 8.35734e-22)
(1.11102 0.0427344 1.96937e-20)
(1.11538 0.0419659 -1.96654e-20)
(1.11978 0.0411952 5.57882e-21)
(1.05635 0.0500151 -4.75734e-20)
(1.05976 0.0497187 -6.19434e-20)
(1.06325 0.0493669 -1.12275e-19)
(1.06682 0.0489626 9.85555e-21)
(1.07047 0.0485087 -4.63032e-20)
(1.0742 0.0480086 -4.37114e-20)
(1.07801 0.0474656 2.68166e-20)
(1.08189 0.0468836 -1.42648e-20)
(1.08584 0.0462663 -1.04701e-21)
(1.08986 0.0456177 -4.29711e-20)
(1.09395 0.044942 -2.71706e-20)
(1.0981 0.0442433 -2.14723e-20)
(1.1023 0.0435258 1.47955e-21)
(1.10656 0.0427938 -1.76892e-20)
(1.11087 0.0420515 -2.4832e-20)
(1.11522 0.0413029 1.69514e-20)
(1.11962 0.0405521 -1.97482e-20)
(1.05639 0.0491433 -1.54415e-20)
(1.05978 0.0488505 1.74142e-20)
(1.06324 0.0485044 1.29031e-19)
(1.0668 0.0481076 -4.02727e-20)
(1.07043 0.0476632 3.94868e-20)
(1.07414 0.0471741 1.29889e-20)
(1.07793 0.0466438 -2.88737e-20)
(1.0818 0.0460757 -1.09825e-20)
(1.08574 0.0454735 -2.50076e-20)
(1.08975 0.0448412 5.14999e-21)
(1.09383 0.0441825 1.35905e-20)
(1.09797 0.0435017 4.10039e-21)
(1.10217 0.0428028 1.62467e-20)
(1.10642 0.0420897 2.29904e-20)
(1.11072 0.0413667 -4.91435e-21)
(1.11507 0.0406375 -9.5976e-21)
(1.11946 0.039906 1.00486e-20)
(1.05646 0.0482826 -2.77611e-20)
(1.05982 0.0479921 3.14693e-20)
(1.06326 0.0476504 -3.85113e-20)
(1.0668 0.0472601 -1.66848e-20)
(1.07041 0.046824 -2.58047e-20)
(1.07411 0.0463449 3.70336e-20)
(1.07788 0.0458261 2.51769e-20)
(1.08173 0.0452709 -5.74098e-22)
(1.08566 0.044683 4.9292e-20)
(1.08966 0.044066 1.94506e-20)
(1.09372 0.0434238 -5.11367e-21)
(1.09785 0.0427601 -2.28193e-20)
(1.10204 0.042079 -2.33622e-20)
(1.10629 0.0413843 6.12531e-21)
(1.11059 0.04068 4.2634e-21)
(1.11493 0.0399697 1.69485e-20)
(1.11931 0.0392572 9.19025e-21)
(1.05329 0.0476733 -1.2757e-20)
(1.05654 0.0474348 2.72494e-20)
(1.05988 0.0471454 1.0647e-20)
(1.0633 0.0468069 -1.78472e-20)
(1.06681 0.0464219 1.75841e-20)
(1.07041 0.0459929 -5.03311e-21)
(1.07409 0.0455227 2.63805e-20)
(1.07784 0.0450144 -4.03138e-20)
(1.08168 0.0444712 1.31734e-20)
(1.08559 0.0438965 -5.20062e-20)
(1.08958 0.043294 -3.86328e-20)
(1.09363 0.0426673 2.78977e-20)
(1.09775 0.04202 3.74737e-20)
(1.10193 0.041356 2.45816e-21)
(1.10617 0.040679 1.50255e-20)
(1.11046 0.0399928 -2.21661e-21)
(1.11479 0.0393009 -1.23311e-20)
(1.11917 0.0386069 3.89251e-21)
(1.05341 0.0468393 -8.48036e-20)
(1.05664 0.0465987 4.48727e-20)
(1.05995 0.0463093 -2.05583e-20)
(1.06336 0.0459731 3.28573e-20)
(1.06685 0.0455924 1.25613e-20)
(1.07042 0.0451695 3.04172e-20)
(1.07408 0.0447072 -3.22715e-20)
(1.07782 0.0442084 1.97076e-20)
(1.08164 0.0436763 1.56532e-20)
(1.08554 0.043114 8.92253e-21)
(1.08951 0.0425251 3.79996e-20)
(1.09355 0.0419131 -2.85736e-20)
(1.09765 0.0412814 -2.34518e-20)
(1.10182 0.0406339 2.07754e-20)
(1.10605 0.0399739 -1.90329e-20)
(1.11033 0.0393052 3.19847e-20)
(1.11466 0.0386312 -1.32586e-21)
(1.11903 0.0379552 -1.38977e-20)
(1.05045 0.0462117 -2.58607e-20)
(1.05355 0.0460159 1.00449e-19)
(1.05676 0.0457724 -8.14779e-20)
(1.06005 0.0454824 1.73829e-20)
(1.06343 0.0451477 -2.2668e-20)
(1.06689 0.0447705 -6.53083e-21)
(1.07045 0.0443529 -5.56251e-20)
(1.07409 0.0438977 -3.39222e-20)
(1.07781 0.0434076 6.31773e-21)
(1.08161 0.0428857 1.50154e-20)
(1.08549 0.0423351 3.56016e-21)
(1.08945 0.041759 -1.07986e-20)
(1.09347 0.0411609 -4.27898e-21)
(1.09757 0.0405442 5.06477e-21)
(1.10173 0.0399124 -4.66125e-21)
(1.10595 0.0392689 -1.9279e-21)
(1.11022 0.0386171 -2.84353e-20)
(1.11454 0.0379604 -3.21608e-21)
(1.1189 0.037302 -1.21981e-20)
(1.05062 0.0454029 -6.00276e-20)
(1.05371 0.0452015 -7.81355e-20)
(1.05688 0.0449546 8.32013e-20)
(1.06015 0.0446635 2.86488e-21)
(1.06351 0.0443297 4.46953e-20)
(1.06695 0.0439552 -3.50276e-20)
(1.07049 0.0435423 5.96128e-20)
(1.07411 0.0430935 5.61413e-20)
(1.07781 0.0426114 -1.08717e-20)
(1.0816 0.042099 -2.31528e-20)
(1.08546 0.0415593 1.42438e-20)
(1.0894 0.0409954 -6.49048e-21)
(1.09341 0.0404106 2.38275e-20)
(1.09749 0.0398081 -3.12053e-21)
(1.10164 0.0391915 -3.61027e-21)
(1.10585 0.0385638 2.29279e-20)
(1.11011 0.0379285 -2.2165e-21)
(1.11442 0.0372887 -1.16379e-20)
(1.11878 0.0366474 1.55694e-20)
(1.04785 0.044765 5.10874e-20)
(1.05081 0.0446018 9.82067e-21)
(1.05387 0.0443946 6.44159e-20)
(1.05703 0.0441441 4.08129e-21)
(1.06027 0.0438514 1.33957e-20)
(1.0636 0.043518 -4.94602e-20)
(1.06703 0.0431459 2.93024e-20)
(1.07054 0.0427371 -2.66635e-20)
(1.07414 0.042294 -6.37876e-20)
(1.07782 0.0418193 2.55113e-20)
(1.08159 0.0413158 -3.23755e-20)
(1.08544 0.0407863 -1.7525e-20)
(1.08936 0.040234 4.09305e-20)
(1.09336 0.0396618 -9.30959e-21)
(1.09743 0.0390731 -1.9597e-20)
(1.10156 0.038471 -2.05007e-20)
(1.10576 0.0378587 -4.35234e-20)
(1.11001 0.0372393 1.41022e-20)
(1.11431 0.0366159 1.04551e-20)
(1.11866 0.0359913 -8.54821e-21)
(1.04807 0.043978 6.41849e-20)
(1.05101 0.0438068 6.21394e-20)
(1.05405 0.0435938 -4.56963e-20)
(1.05718 0.0433396 1.19573e-20)
(1.0604 0.0430451 -3.16763e-20)
(1.06371 0.0427119 4.00947e-20)
(1.06711 0.0423417 -5.22611e-21)
(1.0706 0.0419365 -2.77617e-20)
(1.07418 0.0414988 1.62254e-20)
(1.07785 0.0410309 -1.67583e-20)
(1.0816 0.0405357 1.37534e-20)
(1.08543 0.040016 2.29024e-20)
(1.08934 0.0394746 -2.11867e-20)
(1.09332 0.0389146 1.38604e-20)
(1.09737 0.0383391 1.64661e-20)
(1.10149 0.037751 1.87261e-20)
(1.10568 0.0371535 2.10299e-20)
(1.10992 0.0365496 1.97748e-20)
(1.11421 0.0359421 2.60517e-20)
(1.11855 0.0353338 2.79936e-20)
(1.04548 0.0433348 -3.59521e-20)
(1.0483 0.0431953 -4.07604e-20)
(1.05122 0.0430166 -1.44488e-21)
(1.05423 0.042798 7.77346e-20)
(1.05734 0.0425401 -5.04574e-21)
(1.06054 0.0422438 2.1106e-20)
(1.06383 0.0419104 -2.21224e-20)
(1.06721 0.0415419 -1.08379e-20)
(1.07068 0.04114 8.85199e-21)
(1.07424 0.0407072 4.05093e-20)
(1.07788 0.0402458 2.64362e-20)
(1.08162 0.0397585 3.93303e-20)
(1.08543 0.0392479 -9.71504e-21)
(1.08932 0.038717 -1.2734e-20)
(1.09329 0.0381687 9.73248e-21)
(1.09732 0.0376058 1.14148e-20)
(1.10143 0.0370313 -1.57432e-20)
(1.1056 0.0364482 1.78484e-20)
(1.10983 0.0358592 -2.08223e-20)
(1.11411 0.0352672 -6.30522e-21)
(1.11844 0.0346748 -1.59393e-20)
(1.04573 0.0425637 -5.38125e-20)
(1.04854 0.0424156 -2.79192e-20)
(1.05143 0.0422298 1.02123e-20)
(1.05442 0.042006 -1.50712e-20)
(1.05751 0.0417445 -1.61148e-21)
(1.06068 0.0414463 -4.80926e-20)
(1.06395 0.0411129 1.02526e-20)
(1.06731 0.0407457 4.76945e-20)
(1.07076 0.040347 -4.13102e-21)
(1.0743 0.0399188 -2.13588e-20)
(1.07793 0.0394635 -5.72298e-20)
(1.08164 0.0389836 -2.44399e-20)
(1.08544 0.0384819 -2.6682e-22)
(1.08931 0.037961 -4.29707e-21)
(1.09326 0.0374238 -1.18011e-20)
(1.09728 0.0368732 1.88388e-20)
(1.10138 0.0363118 1.89179e-20)
(1.10553 0.0357426 -2.68067e-20)
(1.10975 0.0351682 -3.36866e-21)
(1.11402 0.0345913 -2.6022e-20)
(1.11834 0.0340143 -4.3506e-21)
(1.0433 0.0419143 -7.94563e-20)
(1.04599 0.0417935 -1.3282e-21)
(1.04877 0.0416376 -1.71381e-20)
(1.05165 0.0414454 9.91126e-21)
(1.05462 0.0412167 -1.46677e-20)
(1.05768 0.0409519 -7.14665e-21)
(1.06084 0.040652 1.82906e-20)
(1.06408 0.0403183 1.47078e-20)
(1.06742 0.0399526 -4.68724e-20)
(1.07086 0.0395568 2.06591e-20)
(1.07438 0.039133 1.2719e-20)
(1.07798 0.0386835 3.17882e-20)
(1.08168 0.0382108 3.06197e-20)
(1.08545 0.0377175 -2.67006e-22)
(1.08931 0.0372063 1.15432e-20)
(1.09325 0.0366799 -2.30701e-20)
(1.09725 0.036141 -2.40343e-20)
(1.10133 0.0355924 4.40837e-21)
(1.10547 0.0350367 -4.12159e-21)
(1.10968 0.0344765 1.04603e-20)
(1.11394 0.0339143 -6.08795e-21)
(1.11825 0.0333525 1.9027e-20)
(1.04358 0.0411517 -6.2402e-21)
(1.04625 0.041023 3.76799e-22)
(1.04901 0.0408602 -1.36185e-20)
(1.05187 0.0406622 8.55937e-21)
(1.05482 0.040429 -3.38656e-20)
(1.05786 0.0401613 -8.63901e-21)
(1.061 0.0398599 2.62245e-20)
(1.06423 0.0395262 -3.72858e-20)
(1.06755 0.0391619 -3.42958e-20)
(1.07096 0.0387689 -4.05196e-20)
(1.07446 0.0383493 -1.44137e-20)
(1.07805 0.0379054 4.52984e-21)
(1.08172 0.0374397 -3.85941e-20)
(1.08548 0.0369546 -1.59552e-20)
(1.08932 0.0364527 1.34006e-20)
(1.09324 0.0359367 1.39428e-20)
(1.09723 0.0354093 1.39065e-20)
(1.10129 0.034873 5.81627e-21)
(1.10542 0.0343304 -8.43528e-22)
(1.10961 0.033784 -8.32568e-21)
(1.11386 0.0332361 1.6907e-20)
(1.11816 0.0326891 -1.07718e-20)
(1.0413 0.0404881 -1.64341e-20)
(1.04386 0.0403869 -5.29069e-21)
(1.04651 0.0402512 2.77278e-20)
(1.04926 0.0400824 5.17188e-20)
(1.05209 0.0398792 -4.90695e-20)
(1.05502 0.0396422 4.88366e-20)
(1.05805 0.0393719 -5.75049e-21)
(1.06116 0.0390693 -4.22187e-20)
(1.06437 0.0387357 2.90799e-20)
(1.06767 0.0383729 2.59725e-20)
(1.07106 0.0379827 5.65686e-20)
(1.07455 0.0375673 4.5805e-21)
(1.07812 0.0371289 2.06698e-20)
(1.08177 0.0366699 -1.78912e-20)
(1.08551 0.0361927 -1.23924e-20)
(1.08934 0.0356999 -4.64017e-20)
(1.09324 0.0351941 1.19884e-20)
(1.09721 0.0346778 -2.14268e-20)
(1.10126 0.0341535 -1.21411e-20)
(1.10537 0.0336236 3.74534e-20)
(1.10955 0.0330907 -1.55415e-20)
(1.11379 0.0325569 1.40798e-20)
(1.11807 0.0320243 -7.98936e-21)
(1.0416 0.0397259 3.78894e-20)
(1.04413 0.0396188 4.58311e-20)
(1.04677 0.0394773 3.28182e-21)
(1.0495 0.0393032 -4.70871e-20)
(1.05232 0.0390958 5.1437e-20)
(1.05523 0.0388554 7.45465e-21)
(1.05824 0.038583 1.66145e-20)
(1.06133 0.0382794 2.11417e-20)
(1.06452 0.0379462 -2.95149e-20)
(1.0678 0.0375851 2.38473e-20)
(1.07118 0.0371978 7.00778e-21)
(1.07464 0.0367865 3.1905e-20)
(1.07819 0.0363535 -2.47835e-20)
(1.08183 0.0359011 1.59416e-20)
(1.08555 0.0354317 3.19472e-20)
(1.08936 0.0349477 1.11282e-20)
(1.09324 0.0344518 -2.50912e-20)
(1.0972 0.0339463 3.30604e-20)
(1.10123 0.0334337 1.48926e-20)
(1.10533 0.0329163 -8.48411e-21)
(1.1095 0.0323965 3.03651e-20)
(1.11372 0.0318764 -9.71654e-21)
(1.11799 0.031358 -3.94083e-21)
(1.03941 0.0390433 3.19014e-21)
(1.04188 0.0389589 -5.45316e-20)
(1.04441 0.038847 2.57676e-20)
(1.04703 0.0387005 -8.8397e-21)
(1.04974 0.0385221 2.27631e-20)
(1.05255 0.0383109 -3.29488e-20)
(1.05544 0.0380679 -5.1029e-20)
(1.05843 0.0377938 8.40727e-21)
(1.06151 0.0374897 -1.68255e-20)
(1.06468 0.0371572 -4.68786e-21)
(1.06794 0.0367978 -1.29404e-20)
(1.0713 0.0364136 -5.89384e-20)
(1.07474 0.0360065 -5.73799e-20)
(1.07828 0.0355789 6.12563e-21)
(1.0819 0.035133 1.04918e-20)
(1.0856 0.0346712 -2.86069e-20)
(1.08939 0.0341959 9.44898e-22)
(1.09326 0.0337096 4.84668e-20)
(1.0972 0.0332147 -1.59665e-20)
(1.10122 0.0327135 1.92476e-20)
(1.1053 0.0322084 -1.85138e-20)
(1.10945 0.0317014 -2.20465e-20)
(1.11366 0.0311947 -6.9124e-21)
(1.11792 0.0306901 1.66423e-20)
(1.03742 0.0383169 -2.32856e-20)
(1.03971 0.0382752 1.11141e-20)
(1.04217 0.0381867 5.6305e-20)
(1.04468 0.0380707 -3.82848e-20)
(1.04729 0.0379202 -3.77595e-20)
(1.04999 0.0377382 2.45201e-20)
(1.05277 0.0375241 5.77176e-20)
(1.05565 0.037279 2.93147e-20)
(1.05862 0.0370037 -3.62147e-20)
(1.06168 0.0366995 4.47513e-20)
(1.06484 0.0363679 9.08725e-23)
(1.06809 0.0360107 1.68593e-22)
(1.07142 0.0356296 2.46514e-20)
(1.07485 0.0352269 1.44327e-20)
(1.07836 0.0348046 5.61365e-21)
(1.08197 0.0343652 1.08573e-20)
(1.08566 0.0339109 1.87422e-20)
(1.08943 0.0334442 3.37649e-20)
(1.09328 0.0329674 -4.88111e-20)
(1.0972 0.0324829 -1.72331e-21)
(1.1012 0.0319929 -4.18166e-20)
(1.10527 0.0314997 1.81013e-21)
(1.10941 0.0310053 -3.24831e-21)
(1.1136 0.0305118 2.70902e-21)
(1.11785 0.0300208 -3.43161e-21)
(1.03772 0.0375451 1.87234e-21)
(1.04 0.0375006 -1.18157e-20)
(1.04245 0.0374088 -4.14243e-20)
(1.04495 0.0372896 -8.61223e-22)
(1.04755 0.0371358 5.89848e-20)
(1.05023 0.0369509 -2.32139e-20)
(1.053 0.0367346 -2.17084e-20)
(1.05586 0.036488 9.33566e-21)
(1.05882 0.0362122 1.01509e-20)
(1.06186 0.0359083 7.50283e-21)
(1.065 0.035578 3.1404e-20)
(1.06823 0.0352231 -9.34351e-21)
(1.07155 0.0348454 2.79502e-20)
(1.07496 0.0344471 2.71562e-20)
(1.07846 0.0340303 2.27213e-20)
(1.08204 0.0335974 -2.99491e-20)
(1.08571 0.0331506 7.861e-21)
(1.08947 0.0326923 -1.65101e-21)
(1.0933 0.0322249 4.73075e-20)
(1.09721 0.0317506 1.23217e-20)
(1.1012 0.0312717 6.50361e-22)
(1.10525 0.0307902 -1.11191e-20)
(1.10937 0.0303082 2.24279e-20)
(1.11355 0.0298275 -1.042e-20)
(1.11779 0.0293498 -1.2961e-20)
(1.0356 0.0368076 8.26834e-21)
(1.03802 0.0367665 -1.16299e-20)
(1.04029 0.0367195 -2.60638e-20)
(1.04272 0.0366251 -3.84927e-20)
(1.04521 0.0365032 3.78696e-20)
(1.0478 0.0363468 1.66672e-21)
(1.05047 0.0361599 8.60873e-21)
(1.05323 0.035942 -1.68634e-20)
(1.05608 0.0356946 6.2281e-21)
(1.05901 0.0354186 2.82025e-20)
(1.06205 0.0351155 -4.19244e-20)
(1.06517 0.034787 -2.33575e-20)
(1.06838 0.0344347 3.35045e-20)
(1.07168 0.0340606 -9.54546e-21)
(1.07508 0.0336669 -4.36725e-20)
(1.07856 0.0332557 -7.23299e-21)
(1.08213 0.0328293 -5.82073e-21)
(1.08578 0.03239 1.33007e-20)
(1.08952 0.0319401 9.65863e-21)
(1.09333 0.031482 -5.17953e-20)
(1.09723 0.0310178 -1.78344e-20)
(1.10119 0.0305497 1.71475e-20)
(1.10523 0.0300797 1.82983e-20)
(1.10934 0.0296098 -1.6139e-20)
(1.1135 0.0291418 1.34959e-20)
(1.11773 0.0286772 8.95065e-21)
(1.03591 0.0360235 -5.74285e-20)
(1.03831 0.0359809 5.75897e-20)
(1.04057 0.0359315 4.08186e-20)
(1.04299 0.0358351 5.47039e-20)
(1.04547 0.0357111 1.94173e-21)
(1.04805 0.035553 -3.49654e-20)
(1.0507 0.0353646 -5.44937e-20)
(1.05345 0.0351458 -3.2483e-20)
(1.05629 0.034898 -3.32947e-20)
(1.05921 0.0346225 -4.18794e-20)
(1.06223 0.0343207 -5.3938e-21)
(1.06534 0.0339942 -3.86183e-22)
(1.06853 0.0336449 -1.43537e-21)
(1.07182 0.0332748 -1.37431e-20)
(1.0752 0.0328859 5.41692e-20)
(1.07866 0.0324804 -3.32991e-20)
(1.08221 0.0320607 4.20594e-20)
(1.08585 0.0316289 -1.44186e-20)
(1.08957 0.0311874 -4.48605e-20)
(1.09337 0.0307384 1.99864e-20)
(1.09725 0.0302842 1.37759e-20)
(1.1012 0.0298268 -1.77131e-20)
(1.10522 0.0293682 -2.8593e-21)
(1.10931 0.0289103 -2.43869e-22)
(1.11346 0.0284547 -4.49236e-21)
(1.11767 0.0280029 -2.82691e-21)
(1.03621 0.0352319 6.35471e-20)
(1.03859 0.0351881 -2.98854e-20)
(1.04085 0.0351366 -2.13574e-20)
(1.04326 0.0350387 3.46143e-20)
(1.04573 0.0349132 2.12006e-21)
(1.04829 0.0347538 5.84545e-21)
(1.05094 0.0345646 7.59937e-20)
(1.05367 0.0343455 2.06858e-20)
(1.0565 0.0340981 -6.77861e-21)
(1.05941 0.0338235 5.05579e-20)
(1.06241 0.0335234 -1.89982e-20)
(1.0655 0.0331995 3.98095e-20)
(1.06869 0.0328535 -3.60079e-20)
(1.07196 0.0324876 -7.90909e-21)
(1.07532 0.0321037 -1.93501e-20)
(1.07877 0.0317041 2.63248e-20)
(1.0823 0.0312911 -4.89298e-20)
(1.08592 0.0308669 -1.71882e-20)
(1.08963 0.0304338 -6.25689e-21)
(1.09341 0.029994 9.55893e-21)
(1.09727 0.0295497 -1.92736e-20)
(1.10121 0.0291029 6.65606e-21)
(1.10522 0.0286555 -2.11328e-20)
(1.10929 0.0282094 8.4512e-21)
(1.11343 0.027766 -6.87099e-22)
(1.11762 0.0273269 -5.16934e-21)
(1.03651 0.0344328 -7.28649e-20)
(1.03887 0.034388 -8.61687e-21)
(1.04112 0.0343347 7.10694e-21)
(1.04352 0.0342356 -7.80873e-20)
(1.04598 0.0341091 -3.01402e-20)
(1.04854 0.0339491 -1.68545e-20)
(1.05117 0.0337597 -8.31555e-21)
(1.05389 0.0335408 2.64319e-20)
(1.05671 0.0332942 4.20729e-20)
(1.05961 0.0330212 -4.95399e-20)
(1.06259 0.0327233 -3.9834e-21)
(1.06567 0.0324023 -3.08984e-20)
(1.06884 0.03206 3.33148e-20)
(1.0721 0.0316986 -3.49888e-21)
(1.07544 0.03132 -1.93364e-20)
(1.07888 0.0309265 -2.02547e-20)
(1.0824 0.0305204 2.43404e-20)
(1.086 0.0301039 4.92918e-21)
(1.08969 0.0296792 2.75032e-20)
(1.09346 0.0292486 -1.24733e-20)
(1.0973 0.0288141 1.14539e-20)
(1.10122 0.0283779 5.18591e-21)
(1.10521 0.0279416 1.39365e-20)
(1.10927 0.0275071 2.84013e-21)
(1.11339 0.0270758 5.37207e-21)
(1.11758 0.0266492 -4.99196e-21)
(1.0368 0.0336261 6.11724e-20)
(1.03914 0.0335806 5.73234e-20)
(1.04139 0.0335255 -3.27346e-20)
(1.04378 0.0334258 7.3369e-20)
(1.04623 0.0332987 -2.41032e-21)
(1.04877 0.0331386 2.43027e-20)
(1.0514 0.0329495 -2.74918e-20)
(1.05411 0.0327314 -2.88254e-20)
(1.05691 0.0324862 -3.69187e-20)
(1.0598 0.0322151 4.16871e-20)
(1.06278 0.0319199 1.16876e-20)
(1.06584 0.0316022 2.49461e-20)
(1.069 0.0312641 -9.12186e-21)
(1.07224 0.0309074 2.48388e-20)
(1.07557 0.0305345 2.40475e-20)
(1.07899 0.0301473 -2.23886e-20)
(1.0825 0.0297483 -2.57137e-20)
(1.08608 0.0293396 4.12264e-20)
(1.08975 0.0289234 3.80214e-21)
(1.09351 0.028502 2.88422e-20)
(1.09734 0.0280774 -1.20369e-20)
(1.10124 0.0276515 -1.81849e-20)
(1.10522 0.0272263 -5.2796e-21)
(1.10926 0.0268033 -9.90124e-21)
(1.11337 0.0263839 -2.54774e-22)
(1.11753 0.0259696 9.88058e-21)
(1.03708 0.0328117 -1.22219e-20)
(1.0394 0.0327656 -9.11135e-20)
(1.04165 0.0327091 1.80558e-20)
(1.04403 0.0326092 -6.24389e-20)
(1.04647 0.0324818 -1.42158e-20)
(1.04901 0.0323221 -3.77432e-20)
(1.05162 0.0321337 4.75806e-20)
(1.05433 0.031917 -3.55327e-21)
(1.05712 0.0316736 3.53855e-20)
(1.06 0.0314051 -7.71742e-21)
(1.06296 0.0311129 4.21038e-20)
(1.06601 0.0307991 -4.23913e-20)
(1.06916 0.0304654 3.08336e-21)
(1.07239 0.0301139 2.25246e-20)
(1.0757 0.0297468 9.44916e-21)
(1.07911 0.0293662 1.90875e-20)
(1.0826 0.0289745 3.60032e-20)
(1.08617 0.0285737 -3.32556e-20)
(1.08982 0.0281661 2.69265e-20)
(1.09356 0.027754 -2.31358e-20)
(1.09737 0.0273392 -2.92314e-20)
(1.10126 0.0269238 2.37586e-20)
(1.10522 0.0265095 2.18568e-21)
(1.10925 0.0260979 -2.58776e-21)
(1.11334 0.0256904 -4.12623e-21)
(1.1175 0.0252882 -3.13293e-21)
(1.03735 0.0319897 -1.52372e-20)
(1.03966 0.0319432 6.4685e-21)
(1.0419 0.0318854 -4.82149e-21)
(1.04427 0.0317855 -1.66079e-20)
(1.04671 0.0316583 2.42646e-20)
(1.04924 0.0314994 -7.77745e-21)
(1.05185 0.0313123 -8.77329e-21)
(1.05454 0.0310973 3.17474e-22)
(1.05732 0.0308563 -2.2635e-21)
(1.06019 0.0305907 2.31253e-20)
(1.06314 0.0303021 -1.16953e-20)
(1.06618 0.0299925 3.6884e-20)
(1.06931 0.0296637 2.44719e-20)
(1.07253 0.0293177 -7.354e-22)
(1.07583 0.0289568 2.56038e-22)
(1.07922 0.028583 -2.79506e-21)
(1.0827 0.0281987 1.56453e-20)
(1.08626 0.027806 1.08166e-20)
(1.0899 0.0274072 -8.21865e-22)
(1.09362 0.0270044 -8.264e-21)
(1.09742 0.0265995 3.84352e-20)
(1.10129 0.0261945 -5.00975e-21)
(1.10523 0.0257911 9.97833e-21)
(1.10925 0.0253908 -4.08156e-21)
(1.11332 0.024995 3.44238e-21)
(1.11746 0.0246049 -2.18501e-21)
(1.03762 0.0311599 4.01354e-20)
(1.03992 0.0311131 6.01442e-20)
(1.04215 0.0310543 1.67459e-20)
(1.04451 0.0309547 2.21511e-20)
(1.04695 0.030828 -5.12491e-20)
(1.04946 0.0306703 1.91467e-21)
(1.05206 0.0304849 -7.42115e-20)
(1.05475 0.0302722 -5.23434e-22)
(1.05752 0.030034 -3.53807e-20)
(1.06038 0.0297718 -2.18945e-20)
(1.06332 0.0294872 -1.08464e-20)
(1.06635 0.0291822 -2.42592e-20)
(1.06947 0.0288586 -1.34524e-20)
(1.07268 0.0285185 -3.29176e-20)
(1.07597 0.028164 -2.09562e-20)
(1.07934 0.0277974 2.68401e-20)
(1.0828 0.0274208 -9.83786e-21)
(1.08635 0.0270364 7.71116e-21)
(1.08997 0.0266465 -2.88917e-20)
(1.09368 0.026253 6.12328e-21)
(1.09746 0.0258581 -1.27288e-20)
(1.10132 0.0254635 -2.33799e-21)
(1.10525 0.0250709 5.29518e-21)
(1.10925 0.0246819 1.13509e-20)
(1.11331 0.0242977 -9.14291e-21)
(1.11743 0.0239195 5.35349e-21)
(1.03787 0.0303224 -6.95347e-20)
(1.04016 0.0302754 -4.43263e-21)
(1.04239 0.0302158 -5.64723e-21)
(1.04475 0.0301168 1.03828e-20)
(1.04717 0.0299909 1.79609e-20)
(1.04969 0.0298348 6.25742e-20)
(1.05228 0.0296514 4.63631e-20)
(1.05496 0.0294414 2.98533e-20)
(1.05772 0.0292064 1.86328e-20)
(1.06057 0.028948 -2.56679e-20)
(1.0635 0.0286679 8.61298e-21)
(1.06652 0.0283679 -2.4068e-20)
(1.06963 0.0280499 -7.21628e-22)
(1.07282 0.0277161 1.42412e-20)
(1.0761 0.0273684 -5.70544e-22)
(1.07946 0.0270091 -4.56922e-20)
(1.08291 0.0266405 7.23632e-21)
(1.08644 0.0262646 -2.7292e-20)
(1.09005 0.0258837 -2.20378e-20)
(1.09374 0.0254998 -2.67199e-21)
(1.09751 0.0251148 6.18483e-21)
(1.10135 0.0247307 1.79702e-21)
(1.10527 0.024349 -4.59096e-21)
(1.10925 0.0239712 5.27808e-21)
(1.1133 0.0235985 8.72127e-21)
(1.11741 0.0232321 4.66145e-21)
(1.03813 0.029477 4.55563e-20)
(1.0404 0.0294301 2.59421e-20)
(1.04263 0.0293698 -5.12985e-21)
(1.04498 0.0292716 -6.11702e-21)
(1.0474 0.0291469 3.69187e-20)
(1.0499 0.0289926 -6.98809e-20)
(1.05249 0.0288117 -1.22509e-20)
(1.05516 0.0286047 8.4807e-21)
(1.05791 0.0283735 -2.13676e-20)
(1.06075 0.0281193 1.11813e-20)
(1.06368 0.027844 -3.35562e-20)
(1.06669 0.0275494 2.35007e-20)
(1.06979 0.0272375 -2.75821e-21)
(1.07297 0.0269102 -4.41801e-20)
(1.07623 0.0265696 -1.34455e-21)
(1.07958 0.026218 3.71358e-20)
(1.08302 0.0258576 -1.39911e-20)
(1.08653 0.0254904 1.45508e-20)
(1.09013 0.0251187 2.61985e-20)
(1.09381 0.0247444 -2.14324e-21)
(1.09756 0.0243695 8.67898e-21)
(1.10139 0.0239959 -2.19245e-21)
(1.10529 0.023625 -5.14603e-21)
(1.10925 0.0232584 -6.25107e-21)
(1.11329 0.0228973 -9.60692e-21)
(1.11738 0.0225425 -2.80278e-21)
(1.03837 0.0286239 2.92007e-20)
(1.04063 0.0285771 -5.60795e-20)
(1.04286 0.0285164 1.22862e-20)
(1.0452 0.0284192 4.41778e-20)
(1.04761 0.0282959 -6.63669e-20)
(1.05011 0.0281438 6.28484e-20)
(1.05269 0.0279657 3.00533e-22)
(1.05536 0.0277622 -3.22503e-20)
(1.0581 0.0275349 4.38684e-20)
(1.06094 0.0272854 4.19549e-21)
(1.06385 0.0270153 3.17451e-21)
(1.06686 0.0267265 -2.97719e-20)
(1.06994 0.026421 2.01492e-21)
(1.07311 0.0261006 5.20781e-20)
(1.07637 0.0257675 -3.67053e-20)
(1.07971 0.0254239 -1.05003e-20)
(1.08313 0.0250718 7.68822e-21)
(1.08663 0.0247136 -6.80833e-21)
(1.09021 0.0243512 -1.51397e-20)
(1.09387 0.0239868 -1.1841e-21)
(1.09761 0.0236221 1.66559e-21)
(1.10143 0.023259 6.52234e-23)
(1.10531 0.0228991 -5.31285e-22)
(1.10926 0.0225436 1.84973e-21)
(1.11328 0.0221939 1.35489e-20)
(1.11736 0.0218508 2.27702e-21)
(1.03861 0.027763 -5.627e-20)
(1.04086 0.0277164 4.904e-20)
(1.04308 0.0276554 -1.44275e-20)
(1.04542 0.0275595 1.25524e-20)
(1.04783 0.0274378 8.19118e-21)
(1.05032 0.0272883 -2.25125e-20)
(1.05289 0.0271132 2.19656e-21)
(1.05555 0.0269135 6.81827e-22)
(1.05829 0.0266906 -4.97944e-20)
(1.06112 0.0264461 -1.39508e-20)
(1.06403 0.0261817 5.68469e-20)
(1.06702 0.0258991 3.2263e-20)
(1.0701 0.0256002 -3.78318e-20)
(1.07326 0.0252871 -2.264e-20)
(1.0765 0.0249618 2.52445e-20)
(1.07983 0.0246264 -1.0488e-20)
(1.08324 0.0242831 -8.2088e-21)
(1.08673 0.023934 -2.70208e-21)
(1.0903 0.0235812 4.73937e-22)
(1.09394 0.0232267 -2.79056e-21)
(1.09767 0.0228724 -1.30192e-20)
(1.10147 0.0225199 1.02819e-20)
(1.10534 0.0221709 7.28668e-22)
(1.10928 0.0218266 -3.67819e-21)
(1.11328 0.0214883 -1.1909e-20)
(1.11735 0.0211567 -7.37221e-21)
(1.03884 0.0268943 -1.53403e-20)
(1.04108 0.026848 -6.95888e-20)
(1.0433 0.026787 -2.87309e-22)
(1.04563 0.0266925 -3.92681e-20)
(1.04803 0.0265727 1.95637e-20)
(1.05052 0.0264259 7.88558e-21)
(1.05309 0.0262542 -2.81805e-20)
(1.05574 0.0260586 -1.46284e-20)
(1.05848 0.0258405 4.62945e-20)
(1.0613 0.0256013 2.3026e-20)
(1.0642 0.0253428 -1.76954e-20)
(1.06718 0.0250668 -1.11687e-20)
(1.07025 0.024775 -5.24088e-21)
(1.0734 0.0244695 -1.4495e-20)
(1.07664 0.0241523 3.26058e-20)
(1.07995 0.0238255 1.66707e-20)
(1.08335 0.0234912 -1.02301e-20)
(1.08683 0.0231515 -1.91801e-21)
(1.09038 0.0228085 6.74437e-21)
(1.09402 0.0224641 8.32413e-22)
(1.09773 0.0221202 -5.31137e-21)
(1.10151 0.0217785 -1.49477e-20)
(1.10537 0.0214404 -8.85389e-23)
(1.10929 0.0211073 -7.38701e-22)
(1.11328 0.0207803 7.11879e-21)
(1.11733 0.0204603 5.80637e-22)
(1.03906 0.0260177 4.78941e-20)
(1.04129 0.0259718 1.37974e-21)
(1.04351 0.025911 -1.2511e-20)
(1.04584 0.0258181 -1.72477e-20)
(1.04824 0.0257004 2.59838e-20)
(1.05072 0.0255566 -1.03905e-20)
(1.05328 0.0253886 1.67717e-20)
(1.05593 0.0251974 4.17426e-20)
(1.05866 0.0249843 4.41004e-21)
(1.06147 0.0247509 -9.89656e-21)
(1.06437 0.0244987 -2.7598e-20)
(1.06734 0.0242296 -7.61297e-21)
(1.0704 0.0239452 -1.66171e-20)
(1.07354 0.0236477 5.24429e-20)
(1.07677 0.0233389 -2.78981e-20)
(1.08007 0.023021 -2.27477e-20)
(1.08346 0.0226959 1.15722e-20)
(1.08692 0.0223659 8.94026e-21)
(1.09047 0.0220329 8.28022e-21)
(1.09409 0.0216988 2.42617e-20)
(1.09779 0.0213654 1.44387e-21)
(1.10156 0.0210345 8.59034e-21)
(1.1054 0.0207075 -5.45739e-21)
(1.10931 0.0203856 4.43614e-21)
(1.11328 0.02007 9.29112e-21)
(1.03927 0.0251333 -8.62464e-21)
(1.04149 0.0250879 3.99708e-20)
(1.04371 0.0250274 2.34869e-20)
(1.04603 0.0249363 2.11943e-20)
(1.04843 0.0248209 2.52155e-20)
(1.05091 0.0246803 3.73991e-20)
(1.05347 0.0245163 1.81611e-20)
(1.05611 0.0243298 -1.86015e-20)
(1.05884 0.0241221 -2.8546e-20)
(1.06164 0.0238947 -3.1153e-20)
(1.06453 0.0236492 3.9044e-20)
(1.0675 0.0233873 2.87749e-21)
(1.07055 0.0231107 1.57927e-20)
(1.07369 0.0228214 -4.23809e-20)
(1.0769 0.0225214 3.94314e-21)
(1.0802 0.0222126 2.37068e-20)
(1.08357 0.0218971 1.57048e-20)
(1.08702 0.021577 -1.57175e-20)
(1.09056 0.0212541 5.69158e-21)
(1.09416 0.0209305 -1.49542e-20)
(1.09785 0.0206079 1.46344e-20)
(1.1016 0.0202879 5.58529e-21)
(1.10543 0.019972 3.94995e-23)
(1.10933 0.0196615 -9.73082e-21)
(1.11329 0.0193572 -1.71406e-20)
(1.03948 0.0242411 1.9089e-20)
(1.04169 0.0241963 -4.83158e-20)
(1.04391 0.0241363 3.04367e-20)
(1.04623 0.0240471 4.83044e-21)
(1.04862 0.0239342 -2.5593e-20)
(1.0511 0.0237971 -1.50358e-20)
(1.05365 0.0236373 1.64941e-20)
(1.05629 0.0234557 2.24096e-20)
(1.05901 0.0232537 -1.05019e-20)
(1.06181 0.0230327 3.30351e-20)
(1.06469 0.0227942 -9.42327e-21)
(1.06766 0.0225398 1.79942e-20)
(1.0707 0.0222713 1.43306e-20)
(1.07383 0.0219906 -5.38097e-21)
(1.07703 0.0216996 1.41818e-20)
(1.08032 0.0214003 -2.47026e-20)
(1.08368 0.0210946 -6.37614e-21)
(1.08712 0.0207846 1.99546e-20)
(1.09064 0.0204722 -1.81444e-21)
(1.09424 0.0201593 3.1769e-21)
(1.09791 0.0198476 -1.38234e-20)
(1.10165 0.0195386 -1.9448e-20)
(1.10546 0.0192339 -1.28103e-21)
(1.10935 0.0189347 1.0394e-20)
(1.1133 0.0186418 1.90095e-20)
(1.03968 0.0233411 -4.71417e-20)
(1.04188 0.023297 6.15571e-20)
(1.0441 0.0232376 -1.1717e-20)
(1.04642 0.0231505 3.24767e-20)
(1.04881 0.0230403 -4.33362e-22)
(1.05128 0.0229069 -4.01576e-20)
(1.05383 0.0227515 -5.61327e-21)
(1.05647 0.0225751 -8.12697e-21)
(1.05918 0.0223791 1.82821e-20)
(1.06198 0.0221647 -7.67538e-21)
(1.06485 0.0219334 -9.20777e-22)
(1.06781 0.0216869 -1.80588e-20)
(1.07085 0.0214269 2.05863e-20)
(1.07396 0.0211551 4.34647e-21)
(1.07716 0.0208735 -1.41989e-20)
(1.08044 0.0205839 1.91412e-20)
(1.08379 0.0202883 -1.0755e-20)
(1.08722 0.0199887 -2.31817e-20)
(1.09073 0.0196869 -1.47425e-20)
(1.09431 0.0193849 -4.77668e-21)
(1.09797 0.0190842 8.307e-21)
(1.1017 0.0187865 8.16938e-21)
(1.1055 0.018493 1.0368e-20)
(1.10937 0.0182051 -1.26333e-20)
(1.1133 0.0179237 -1.95216e-22)
(1.03987 0.0224333 -1.34532e-20)
(1.04207 0.0223899 7.33231e-22)
(1.04429 0.0223314 -3.05054e-20)
(1.0466 0.0222464 -4.42684e-20)
(1.04899 0.0221392 2.65026e-20)
(1.05146 0.0220096 4.66283e-20)
(1.05401 0.0218589 4.64716e-21)
(1.05664 0.021688 1.44323e-21)
(1.05935 0.0214981 7.44441e-21)
(1.06214 0.0212907 -1.46766e-20)
(1.06501 0.021067 7.92488e-22)
(1.06796 0.0208287 -2.87929e-21)
(1.07099 0.0205774 -1.45867e-20)
(1.0741 0.0203148 1.84277e-20)
(1.07729 0.0200428 1.07189e-20)
(1.08055 0.0197632 7.68257e-21)
(1.0839 0.019478 1.02247e-22)
(1.08732 0.0191891 8.14897e-22)
(1.09082 0.0188982 -2.6219e-21)
(1.09439 0.0186072 -7.27223e-21)
(1.09803 0.0183177 6.83216e-21)
(1.10175 0.0180313 -4.90066e-21)
(1.10554 0.0177493 3.05777e-21)
(1.10939 0.0174728 6.31216e-21)
(1.11332 0.0172028 -1.43578e-20)
(1.04005 0.0215177 1.61002e-20)
(1.04225 0.0214751 -4.2744e-20)
(1.04446 0.0214176 -1.01058e-20)
(1.04677 0.0213349 3.26962e-22)
(1.04916 0.0212308 -4.9597e-20)
(1.05163 0.0211052 -4.74287e-20)
(1.05417 0.0209594 -3.72665e-20)
(1.0568 0.0207942 -2.30706e-20)
(1.05951 0.0206108 -3.273e-20)
(1.06229 0.0204105 3.62729e-20)
(1.06516 0.0201947 -2.02707e-20)
(1.06811 0.0199649 1.77849e-20)
(1.07113 0.0197226 -1.94046e-21)
(1.07423 0.0194695 -1.85999e-20)
(1.07741 0.0192075 -5.8284e-21)
(1.08067 0.0189382 -8.35213e-21)
(1.08401 0.0186636 -7.74743e-21)
(1.08742 0.0183856 -2.16215e-21)
(1.0909 0.0181058 -5.53763e-21)
(1.09446 0.017826 -3.10331e-21)
(1.0981 0.0175479 -2.04841e-20)
(1.1018 0.017273 8.16103e-21)
(1.10558 0.0170025 -2.88534e-21)
(1.10942 0.0167375 8.39676e-21)
(1.11333 0.016479 -5.39558e-21)
(1.04023 0.0205942 2.07002e-20)
(1.04242 0.0205525 3.89993e-22)
(1.04463 0.0204961 -1.94806e-20)
(1.04694 0.0204159 6.4532e-21)
(1.04933 0.0203151 1.79628e-20)
(1.05179 0.0201937 1.90312e-20)
(1.05434 0.020053 3.18335e-20)