/*--------------------------------*- C++ -*----------------------------------*\
  =========                 |
  \\      /  F ield         | OpenFOAM: The Open Source CFD Toolbox
   \\    /   O peration     | Website:  https://openfoam.org
    \\  /    A nd           | Version:  7
     \\/     M anipulation  |
\*---------------------------------------------------------------------------*/
FoamFile
{
    version     2.0;
    format      ascii;
    class       volScalarField;
    location    "5";
    object      p;
}
// * * * * * * * * * * * * * * * * * * * * * * * * * * * * * * * * * * * * * //

dimensions      [0 2 -2 0 0 0 0];

internalField   nonuniform List<scalar> 
6050
(
-0.464719
-0.479527
-0.486225
-0.481288
-0.461538
-0.425054
-0.372501
-0.306615
-0.233118
-0.159556
-0.0912265
-0.0360261
0.0084344
-0.466654
-0.482057
-0.489539
-0.485587
-0.466993
-0.431825
-0.380174
-0.314828
-0.241386
-0.16757
-0.098319
-0.0428662
0.00232772
-0.470151
-0.486599
-0.495461
-0.493245
-0.476683
-0.443632
-0.393722
-0.329408
-0.256138
-0.181962
-0.111531
-0.0551815
-0.00920916
-0.474546
-0.492252
-0.502776
-0.502654
-0.488539
-0.458098
-0.410417
-0.347435
-0.274354
-0.19984
-0.128951
-0.0714193
-0.0248487
-0.479019
-0.497931
-0.51007
-0.512019
-0.500455
-0.472592
-0.427193
-0.365477
-0.293162
-0.218748
-0.147896
-0.0895948
-0.0428061
-0.502577
-0.516017
-0.51968
-0.510261
-0.484629
-0.44123
-0.38116
-0.309916
-0.236151
-0.166095
-0.107795
-0.0612777
-0.505345
-0.519615
-0.52449
-0.516562
-0.492663
-0.450937
-0.392467
-0.322698
-0.250318
-0.181882
-0.124501
-0.0788165
-0.505737
-0.520295
-0.525744
-0.518729
-0.495946
-0.455436
-0.398499
-0.330595
-0.260384
-0.194378
-0.138794
-0.0944933
-0.503542
-0.517881
-0.523435
-0.516705
-0.494396
-0.454629
-0.399159
-0.333512
-0.266228
-0.203385
-0.150334
-0.107875
-0.498925
-0.51273
-0.517884
-0.510827
-0.488359
-0.448907
-0.394895
-0.331932
-0.268252
-0.209161
-0.159189
-0.118895
-0.492287
-0.505266
-0.509577
-0.501591
-0.478369
-0.438938
-0.386513
-0.326701
-0.267173
-0.212224
-0.165659
-0.127705
-0.496005
-0.498986
-0.489474
-0.465021
-0.425559
-0.375026
-0.318833
-0.263813
-0.213168
-0.170135
-0.134558
-0.485363
-0.486461
-0.474895
-0.448985
-0.409735
-0.361524
-0.309321
-0.258938
-0.212542
-0.173005
-0.139735
-0.473592
-0.47225
-0.458299
-0.431042
-0.392482
-0.347019
-0.299001
-0.25315
-0.210788
-0.174606
-0.143509
-0.460811
-0.456601
-0.440239
-0.412058
-0.374741
-0.332321
-0.288473
-0.246859
-0.208231
-0.175202
-0.146113
-0.439854
-0.421375
-0.392859
-0.357255
-0.317985
-0.278105
-0.240313
-0.205093
-0.174974
-0.147702
-0.422466
-0.402382
-0.374115
-0.340511
-0.304327
-0.268089
-0.233649
-0.201531
-0.173996
-0.148322
-0.383833
-0.356268
-0.324767
-0.291489
-0.258497
-0.226965
-0.197661
-0.172242
-0.14798
-0.366125
-0.339548
-0.310112
-0.279493
-0.249343
-0.220362
-0.193572
-0.169667
-0.146832
-0.32402
-0.296523
-0.26829
-0.240609
-0.213927
-0.189326
-0.166451
-0.145413
-0.30964
-0.283913
-0.257789
-0.232258
-0.207672
-0.18497
-0.163314
-0.144036
-0.272164
-0.247889
-0.224248
-0.201536
-0.18047
-0.1605
-0.142975
-0.261155
-0.238501
-0.216523
-0.195464
-0.175945
-0.157499
-0.141237
-0.229538
-0.209024
-0.189444
-0.171289
-0.154192
-0.139132
-0.201701
-0.183429
-0.166503
-0.150607
-0.136547
-0.177399
-0.161562
-0.146724
-0.133597
-0.156464
-0.142583
-0.130288
-0.138188
-0.12666
-0.138188
-0.12666
-0.156464
-0.142583
-0.130288
-0.177399
-0.161562
-0.146724
-0.133597
-0.201701
-0.183429
-0.166503
-0.150607
-0.136547
-0.229538
-0.209024
-0.189444
-0.171289
-0.154192
-0.139132
-0.261155
-0.238501
-0.216523
-0.195464
-0.175945
-0.157499
-0.141237
-0.272164
-0.247889
-0.224248
-0.201536
-0.18047
-0.1605
-0.142975
-0.30964
-0.283913
-0.257789
-0.232258
-0.207672
-0.18497
-0.163315
-0.144036
-0.32402
-0.296523
-0.26829
-0.240609
-0.213927
-0.189326
-0.166451
-0.145413
-0.366125
-0.339548
-0.310112
-0.279493
-0.249343
-0.220362
-0.193572
-0.169667
-0.146832
-0.383833
-0.356268
-0.324767
-0.291489
-0.258497
-0.226965
-0.197661
-0.172242
-0.14798
-0.422466
-0.402382
-0.374115
-0.340511
-0.304327
-0.268089
-0.233649
-0.201531
-0.173996
-0.148322
-0.439854
-0.421375
-0.392859
-0.357255
-0.317985
-0.278105
-0.240313
-0.205093
-0.174974
-0.147702
-0.460811
-0.456601
-0.440239
-0.412058
-0.374741
-0.332321
-0.288473
-0.246859
-0.208231
-0.175202
-0.146113
-0.473592
-0.47225
-0.458299
-0.431042
-0.392482
-0.347019
-0.299001
-0.25315
-0.210788
-0.174606
-0.143509
-0.485363
-0.486461
-0.474895
-0.448985
-0.409735
-0.361524
-0.309321
-0.258938
-0.212542
-0.173005
-0.139735
-0.496005
-0.498986
-0.489474
-0.465021
-0.425559
-0.375026
-0.318833
-0.263813
-0.213168
-0.170136
-0.134558
-0.492287
-0.505266
-0.509577
-0.501591
-0.478369
-0.438938
-0.386513
-0.326701
-0.267173
-0.212224
-0.165659
-0.127705
-0.498925
-0.51273
-0.517884
-0.510827
-0.488359
-0.448907
-0.394895
-0.331932
-0.268252
-0.209162
-0.159189
-0.118895
-0.503542
-0.517881
-0.523435
-0.516705
-0.494396
-0.454629
-0.399159
-0.333512
-0.266228
-0.203385
-0.150334
-0.107875
-0.505737
-0.520295
-0.525744
-0.518729
-0.495946
-0.455436
-0.398499
-0.330595
-0.260384
-0.194378
-0.138794
-0.0944933
-0.505345
-0.519615
-0.52449
-0.516562
-0.492663
-0.450937
-0.392467
-0.322698
-0.250318
-0.181882
-0.124501
-0.0788165
-0.502577
-0.516017
-0.51968
-0.510261
-0.484629
-0.44123
-0.38116
-0.309916
-0.236151
-0.166095
-0.107795
-0.0612777
-0.479019
-0.497931
-0.51007
-0.512019
-0.500455
-0.472592
-0.427193
-0.365477
-0.293162
-0.218748
-0.147896
-0.0895948
-0.0428061
-0.474546
-0.492252
-0.502776
-0.502654
-0.488539
-0.458098
-0.410417
-0.347435
-0.274354
-0.19984
-0.128951
-0.0714193
-0.0248487
-0.470151
-0.486599
-0.495461
-0.493245
-0.476683
-0.443632
-0.393722
-0.329408
-0.256138
-0.181962
-0.111531
-0.0551816
-0.00920917
-0.466654
-0.482057
-0.489539
-0.485587
-0.466993
-0.431825
-0.380174
-0.314828
-0.241386
-0.16757
-0.098319
-0.0428662
0.00232772
-0.464719
-0.479527
-0.486225
-0.481288
-0.461538
-0.425054
-0.372501
-0.306615
-0.233118
-0.159556
-0.0912265
-0.0360261
0.0084344
0.0287818
0.0398518
0.0489109
0.0559319
0.0610043
0.0643509
0.0662229
0.0668476
0.0664253
0.0651437
0.0631792
0.0606916
0.057821
0.0546868
0.0513886
0.048008
0.0446103
0.0412465
0.0379553
0.034765
0.0316962
0.0287641
0.02598
0.0233536
0.020893
0.0186054
0.0164953
0.0145647
0.0128116
0.0112307
0.00981321
0.00854815
0.00742466
0.00643114
0.00554934
0.00477368
0.00408961
0.00348888
0.00296209
0.00250159
0.00209877
0.00174819
0.00144139
0.00117507
0.000939825
0.000735148
0.00054904
0.000385113
0.000225967
8.1661e-05
0.0232647
0.0347803
0.0444187
0.0519399
0.0574187
0.0611239
0.063329
0.064263
0.0641244
0.0630968
0.0613602
0.0590793
0.0563959
0.0534307
0.0502846
0.0470408
0.0437664
0.0405136
0.0373223
0.0342222
0.0312345
0.0283748
0.025655
0.0230848
0.0206728
0.0184262
0.0163504
0.0144477
0.0127172
0.0111544
0.00975119
0.00849745
0.00738279
0.00639624
0.00552036
0.00474976
0.00406984
0.00347246
0.00294841
0.00249021
0.00208934
0.0017404
0.00143501
0.00116989
0.000935701
0.000731939
0.000546659
0.000383454
0.000225007
8.1312e-05
0.0124188
0.024795
0.0355753
0.044057
0.0503152
0.0547206
0.0575859
0.0591349
0.0595607
0.0590484
0.057775
0.0559114
0.0536053
0.0509797
0.048138
0.0451664
0.0421353
0.0391
0.0361032
0.0331769
0.0303445
0.0276231
0.0250257
0.0225627
0.0202434
0.0180755
0.0160655
0.0142171
0.0125306
0.011003
0.009628
0.0083966
0.00729943
0.00632663
0.00546253
0.00470202
0.00403037
0.00343965
0.0029211
0.0024675
0.00207049
0.00172483
0.00142225
0.00115954
0.000927463
0.000725526
0.000541902
0.000380139
0.000223089
8.06143e-05
-0.00281421
0.0106297
0.0229288
0.0327047
0.0400298
0.0454157
0.0492223
0.0516568
0.0528991
0.0531414
0.0525595
0.0513183
0.0495712
0.0474479
0.0450557
0.0424844
0.0398088
0.0370887
0.0343713
0.0316926
0.0290796
0.0265525
0.0241262
0.0218131
0.0196235
0.0175666
0.0156499
0.0138789
0.0122556
0.0107792
0.00944526
0.00824668
0.00717531
0.00622289
0.00537609
0.00463069
0.00397138
0.00339059
0.00288024
0.00243349
0.00204228
0.00170152
0.00140315
0.00114405
0.000915128
0.000715923
0.000534777
0.000375174
0.000220215
7.95688e-05
-0.0207099
-0.00632123
0.00755478
0.0187499
0.0272844
0.0338147
0.0387448
0.0422531
0.0444967
0.0456678
0.0459578
0.0455157
0.0444843
0.0430003
0.0411799
0.0391184
0.0368946
0.0345735
0.0322077
0.0298384
0.0274979
0.0252103
0.0229945
0.0208652
0.0188352
0.0169153
0.0151147
0.0134406
0.0118974
0.0104863
0.00920519
0.00804917
0.00701151
0.00608565
0.00526144
0.00453609
0.00389309
0.00332542
0.00282593
0.00238829
0.00200476
0.00167053
0.00137775
0.00112344
0.000898723
0.00070315
0.000525299
0.000368568
0.000216389
7.81769e-05
-0.039397
-0.0243813
-0.00918791
0.00331032
0.0130301
0.0207313
0.0268444
0.0315078
0.0348467
0.0370458
0.0382992
0.0387695
0.0385733
0.037834
0.0366759
0.0352047
0.0335056
0.0316483
0.0296905
0.0276796
0.0256532
0.023641
0.0216663
0.0197475
0.0179003
0.0161379
0.0144717
0.0129108
0.0114617
0.0101281
0.00891036
0.00780585
0.00680936
0.00591607
0.0051191
0.00441869
0.00379582
0.00324435
0.00275833
0.00233201
0.00195804
0.00163192
0.0013461
0.00109777
0.000878283
0.000687235
0.000513487
0.000360334
0.00021162
7.64406e-05
-0.0573186
-0.0420392
-0.0260002
-0.012515
-0.00178317
0.00699115
0.0142303
0.0200249
0.0244639
0.0277144
0.0299611
0.0313647
0.0320575
0.0321348
0.0317041
0.0308771
0.0297501
0.0284003
0.0268907
0.0252737
0.0235927
0.0218829
0.0201727
0.0184847
0.0168383
0.0152494
0.0137319
0.0122973
0.0109542
0.00970864
0.00856351
0.00751866
0.00657043
0.00571541
0.0049499
0.00427908
0.00367991
0.00314763
0.00267763
0.00226479
0.00190223
0.00158578
0.00130829
0.00106709
0.000853853
0.00066821
0.000499365
0.000350486
0.000205913
7.43623e-05
-0.0734631
-0.0582396
-0.0418895
-0.0278372
-0.0163641
-0.00670609
0.00151341
0.00833069
0.0137981
0.0180588
0.0212772
0.0235991
0.025153
0.0260557
0.0263904
0.0262466
0.0257223
0.0249057
0.0238687
0.0226692
0.0213554
0.0199676
0.0185392
0.0170975
0.0156655
0.0142627
0.0129054
0.0116076
0.0103802
0.00923174
0.00816737
0.00718953
0.00629637
0.00548532
0.00475441
0.00411784
0.0035457
0.00303553
0.00258404
0.00218679
0.00183744
0.00153222
0.00126438
0.00103147
0.000825489
0.000646118
0.000482963
0.000339043
0.000199279
7.1945e-05
-0.0873661
-0.0724401
-0.0562562
-0.0420603
-0.0301535
-0.0198495
-0.010849
-0.00317189
0.00319855
0.00837791
0.012504
0.0156999
0.0180798
0.0197555
0.0208327
0.0213875
0.0214898
0.0212249
0.0206742
0.0199054
0.0189725
0.0179202
0.0167861
0.0156022
0.0143954
0.0131883
0.0120004
0.010848
0.00974471
0.008701
0.00772454
0.00682035
0.00598891
0.00522845
0.00452705
0.0039356
0.00339359
0.00290836
0.0024778
0.00209821
0.00176383
0.00147136
0.00121449
0.000990992
0.000793254
0.000621007
0.000464315
0.000326029
0.00019173
6.91924e-05
-0.0989649
-0.0845028
-0.0688479
-0.0548694
-0.0428216
-0.0321183
-0.0225557
-0.0142074
-0.00708839
-0.00111313
0.00382541
0.0078246
0.0109798
0.01339
0.0151536
0.0163632
0.0170918
0.0173942
0.0173432
0.0170135
0.016469
0.0157604
0.0149295
0.014012
0.0130384
0.0120349
0.0110239
0.0100243
0.00905186
0.00811965
0.00723746
0.00641278
0.00564934
0.00495044
0.00434877
0.00373556
0.00322393
0.00276641
0.00235916
0.00199925
0.00168157
0.00140333
0.00115872
0.000945746
0.00075722
0.000592933
0.000443461
0.000311468
0.000183279
6.61089e-05
-0.108419
-0.0945303
-0.0796497
-0.0661621
-0.0542214
-0.0433462
-0.0334347
-0.024607
-0.0169035
-0.0102693
-0.00463055
8.28634e-05
0.00394597
0.00704163
0.0094559
0.0112735
0.0125754
0.0134331
0.0138923
0.0140134
0.013864
0.0135041
0.0129819
0.012337
0.0116031
0.0108096
0.00998171
0.0091409
0.00830548
0.00749064
0.00670839
0.00596835
0.00527713
0.00463772
0.0040535
0.00350736
0.00303647
0.00260971
0.00222841
0.00189013
0.00159082
0.00132828
0.0010972
0.000895838
0.000717471
0.000561959
0.000420446
0.000295392
0.000173942
6.26998e-05
-0.115977
-0.102729
-0.0887747
-0.075968
-0.0643275
-0.0534744
-0.0434067
-0.0342796
-0.0261518
-0.0189981
-0.0127777
-0.00744805
-0.0029554
0.000765663
0.00378668
0.00618131
0.00802319
0.00938421
0.0103325
0.0109108
0.0111676
0.0111632
0.0109539
0.0105858
0.0100965
0.00951821
0.00887871
0.00820208
0.00750894
0.00681669
0.00613944
0.00548874
0.00487326
0.00429657
0.00375836
0.00325138
0.00283192
0.0024383
0.00208585
0.00177112
0.00149178
0.00124637
0.00103007
0.000841383
0.0006741
0.000528158
0.000395322
0.000277835
0.000163735
5.89714e-05
-0.121899
-0.109332
-0.0963883
-0.0843829
-0.0731823
-0.0625095
-0.0524522
-0.0431863
-0.0347824
-0.0272431
-0.0205592
-0.0147138
-0.00967465
-0.00539502
-0.0018188
0.00111516
0.00347083
0.00531344
0.00670741
0.00771497
0.00838047
0.00874215
0.00885298
0.00876583
0.00852481
0.0081658
0.00771924
0.00721147
0.00666532
0.00610031
0.00553262
0.00497558
0.00443965
0.0039316
0.00345742
0.00303939
0.00261725
0.00225305
0.00193211
0.00164245
0.0013846
0.00115778
0.00095748
0.000782512
0.00062721
0.000491608
0.000368145
0.000258835
0.00015268
5.49315e-05
-0.126439
-0.114571
-0.102671
-0.091527
-0.0808596
-0.0704932
-0.0605865
-0.0513202
-0.0427724
-0.0349722
-0.0279378
-0.0216754
-0.0161739
-0.0114055
-0.00733021
-0.00390034
-0.00106257
0.00123976
0.00306499
0.0044711
0.00551391
0.00623987
0.00668057
0.00688211
0.00689364
0.00675729
0.00650735
0.0061725
0.00577755
0.00534398
0.00488992
0.00443054
0.00397808
0.00354208
0.00312909
0.00274059
0.00237863
0.00205003
0.00176741
0.00150443
0.00126946
0.00106265
0.000879575
0.000719356
0.000576909
0.000452395
0.000338979
0.000238436
0.000140797
5.05896e-05
-0.129839
-0.118678
-0.107809
-0.0975264
-0.0874445
-0.077485
-0.067845
-0.0586933
-0.0501169
-0.0421691
-0.0348898
-0.0283052
-0.022424
-0.017237
-0.0127208
-0.00884177
-0.00555811
-0.00282248
-0.000584087
0.00120961
0.00261096
0.00367082
0.00443562
0.004934
0.00520593
0.00529679
0.00524677
0.00508826
0.00484826
0.00455
0.00421337
0.00385534
0.00348998
0.00312841
0.0027785
0.00244576
0.00212615
0.00182383
0.00159058
0.00135724
0.00114682
0.000961314
0.000796538
0.000652054
0.000523311
0.000410607
0.000307887
0.000216683
0.000128109
4.59567e-05
-0.132333
-0.121901
-0.111994
-0.102506
-0.0930257
-0.083554
-0.0742738
-0.0653299
-0.056824
-0.0488299
-0.0414022
-0.0345839
-0.0284025
-0.0228661
-0.0179676
-0.0136877
-0.00999691
-0.00685812
-0.00422856
-0.00206218
-0.000311186
0.00107229
0.00213497
0.00292127
0.00345986
0.00378534
0.00393992
0.00396101
0.00387912
0.00371959
0.00350396
0.00325085
0.00297596
0.00269209
0.00240878
0.00213359
0.00186469
0.00163745
0.00139931
0.00119777
0.00101618
0.000854183
0.000708718
0.000580842
0.000466572
0.000366356
0.000274949
0.000193629
0.00011464
4.10457e-05
-0.134087
-0.124485
-0.115431
-0.106589
-0.0976908
-0.0887638
-0.0799094
-0.0712462
-0.0628961
-0.0549459
-0.0474585
-0.0404913
-0.0340876
-0.0282713
-0.0230505
-0.01842
-0.0143632
-0.0108537
-0.00785775
-0.00533634
-0.00324725
-0.00154661
-0.000190262
0.000864806
0.00165989
0.00222424
0.00259027
0.0027957
0.00287504
0.00285678
0.00276469
0.00261912
0.00243742
0.00223402
0.00202014
0.00180407
0.00159151
0.00139594
0.00120096
0.00103007
0.000875351
0.000740278
0.00061588
0.000505834
0.000406842
0.000319778
0.000240273
0.000169351
0.000100434
3.58817e-05
-0.135259
-0.126628
-0.118304
-0.109977
-0.101629
-0.0932709
-0.0848767
-0.0765458
-0.0684164
-0.0605771
-0.0530973
-0.0460473
-0.0394843
-0.0334459
-0.0279543
-0.0230181
-0.0186332
-0.0147844
-0.0114474
-0.00859105
-0.00617918
-0.00417255
-0.00253039
-0.00121127
-0.000175
0.000617484
0.00119713
0.0015933
0.00183989
0.00196749
0.00200234
0.00196705
0.00188087
0.00176
0.00161732
0.00146281
0.00130411
0.00115079
0.000994959
0.000860441
0.00073594
0.000620317
0.000517093
0.000426637
0.000344044
0.000270877
0.000203922
0.000143903
8.55237e-05
3.05016e-05
-0.135952
-0.128281
-0.120414
-0.112495
-0.104678
-0.0968614
-0.0889391
-0.0810054
-0.0731827
-0.0655438
-0.0581611
-0.0511161
-0.0444772
-0.0382949
-0.0326048
-0.027428
-0.0227722
-0.0186328
-0.0149951
-0.0118359
-0.00912574
-0.00683053
-0.00491349
-0.0033362
-0.00206045
-0.00104971
-0.000269324
0.000314791
0.000732855
0.00101397
0.00118451
0.00126805
0.00128535
0.00125417
0.00118884
0.00110091
0.000999383
0.000892994
0.000782389
0.000680695
0.000586385
0.000498561
0.000418454
0.000344538
0.000278337
0.000219412
0.000165673
0.000117142
6.98153e-05
2.48899e-05
-0.137487
-0.130765
-0.123177
-0.115536
-0.108134
-0.100701
-0.0931454
-0.0855586
-0.0780319
-0.0706146
-0.0633652
-0.0563616
-0.0496761
-0.0433689
-0.0374881
-0.0320687
-0.0271322
-0.022687
-0.0187297
-0.015247
-0.0122173
-0.00961282
-0.00740162
-0.0055486
-0.00401723
-0.0027716
-0.00177805
-0.00100333
-0.00041488
1.82e-05
0.000323561
0.000525978
0.000647737
0.000708372
0.0007239
0.000706857
0.000667133
0.000613386
0.000550031
0.000486662
0.000424977
0.00036463
0.000308403
0.000256738
0.000209127
0.00016628
0.000125602
8.90691e-05
5.32413e-05
1.9005e-05
-0.134971
-0.129982
-0.122301
-0.114948
-0.107885
-0.100724
-0.0934351
-0.0861064
-0.0788083
-0.0715952
-0.0645289
-0.0576809
-0.0511191
-0.0449021
-0.0390784
-0.0336843
-0.0287442
-0.0242699
-0.0202623
-0.0167122
-0.013602
-0.0109075
-0.00859989
-0.00664708
-0.00501528
-0.00367041
-0.0025803
-0.00171389
-0.00104042
-0.000529479
-0.000152834
0.000114416
0.000293909
0.000404507
0.000462603
0.00048204
0.000474196
0.000448425
0.000410633
0.000368805
0.000325436
0.00028149
0.000239702
0.000200429
0.000163569
0.000130207
9.85365e-05
6.99362e-05
4.17634e-05
1.49667e-05
-0.132207
-0.127677
-0.120265
-0.113218
-0.106471
-0.0995941
-0.0925665
-0.085486
-0.0784226
-0.0714299
-0.0645671
-0.0579013
-0.0514973
-0.0454124
-0.0396942
-0.0343798
-0.0294947
-0.0250531
-0.0210583
-0.017504
-0.0143755
-0.0116514
-0.00930578
-0.00730908
-0.00562968
-0.0042352
-0.00309475
-0.00217837
-0.0014563
-0.000898913
-0.000478547
-0.000170728
4.58568e-05
0.000189903
0.000277868
0.000323845
0.000339508
0.000334379
0.000314968
0.000288698
0.000258686
0.000226484
0.000194712
0.000164001
0.000134588
0.000107622
8.17934e-05
5.82045e-05
3.48553e-05
1.24943e-05
-0.129049
-0.124951
-0.117952
-0.111206
-0.104772
-0.0981991
-0.091452
-0.0846372
-0.0778284
-0.0710764
-0.064437
-0.0579733
-0.0517474
-0.0458146
-0.0402218
-0.0350061
-0.0301941
-0.0258018
-0.0218348
-0.0182896
-0.0151542
-0.0124102
-0.0100344
-0.00799975
-0.00627698
-0.00483574
-0.00364656
-0.00268065
-0.00190928
-0.00130393
-0.000837859
-0.000487165
-0.000230835
-5.03054e-05
7.08115e-05
0.000146595
0.000188787
0.000206998
0.000208197
0.000199525
0.000184683
0.000165664
0.00014511
0.000124038
0.000103004
8.3142e-05
6.36991e-05
4.5561e-05
2.74652e-05
9.82008e-06
-0.125878
-0.122273
-0.11571
-0.109241
-0.103097
-0.0968261
-0.0903599
-0.0838088
-0.0772517
-0.0707379
-0.0643194
-0.0580561
-0.0520071
-0.046226
-0.0407587
-0.0356424
-0.0309047
-0.0265631
-0.0226255
-0.0190907
-0.0159496
-0.0131867
-0.0107813
-0.00870898
-0.0069427
-0.00545418
-0.00421549
-0.00319908
-0.00237738
-0.00172299
-0.00121006
-0.000815302
-0.000518024
-0.00029986
-0.000144525
-3.79596e-05
3.16623e-05
7.4062e-05
9.66013e-05
0.000106277
0.000107255
0.000101955
9.31399e-05
8.21583e-05
6.98933e-05
5.74715e-05
4.47162e-05
3.22995e-05
1.97219e-05
7.00568e-06
-0.122763
-0.119608
-0.113462
-0.107263
-0.101397
-0.0954263
-0.089245
-0.0829592
-0.0766545
-0.0703796
-0.0641832
-0.0581215
-0.0522514
-0.0466243
-0.0412854
-0.0362716
-0.0316114
-0.0273237
-0.0234184
-0.0198967
-0.0167524
-0.0139725
-0.011539
-0.00943004
-0.0076209
-0.00608534
-0.00479707
-0.00372987
-0.00285738
-0.00215335
-0.00159284
-0.00115318
-0.000814104
-0.00055747
-0.000367121
-0.000229009
-0.000131223
-6.39232e-05
-1.94108e-05
9.25086e-06
2.66141e-05
3.55279e-05
3.89236e-05
3.84248e-05
3.52842e-05
3.06209e-05
2.4848e-05
1.84171e-05
1.16178e-05
4.04948e-06
-0.119693
-0.116909
-0.111166
-0.105242
-0.0996467
-0.0939738
-0.0880812
-0.0820639
-0.0760134
-0.0699798
-0.0640082
-0.0581514
-0.0524636
-0.0469947
-0.0417885
-0.036882
-0.032304
-0.0280748
-0.0242063
-0.020702
-0.017558
-0.0147642
-0.0123052
-0.0101615
-0.00831096
-0.00672928
-0.0053919
-0.00427404
-0.0033506
-0.00259649
-0.00198776
-0.00150243
-0.00112067
-0.000824636
-0.000598322
-0.000427722
-0.000300859
-0.000207786
-0.000140521
-9.2123e-05
-5.76889e-05
-3.39705e-05
-1.78213e-05
-7.37712e-06
-9.78601e-07
2.48174e-06
4.01881e-06
3.8629e-06
3.1255e-06
9.42856e-07
-0.116631
-0.114173
-0.108827
-0.103184
-0.0978528
-0.0924727
-0.0868707
-0.0811242
-0.0753293
-0.0695383
-0.0637936
-0.0581443
-0.052642
-0.0473349
-0.0422656
-0.0374709
-0.0329799
-0.0288141
-0.0249869
-0.0215042
-0.0183645
-0.0155601
-0.0130784
-0.0109024
-0.00901206
-0.00738544
-0.00599967
-0.00483145
-0.00385703
-0.00305254
-0.00239504
-0.00186332
-0.00143804
-0.00110169
-0.000838453
-0.000634401
-0.00047752
-0.000357778
-0.000266944
-0.000198034
-0.000145812
-0.000106672
-7.72043e-05
-5.53311e-05
-3.8958e-05
-2.6993e-05
-1.78056e-05
-1.13859e-05
-5.76848e-06
-2.31578e-06
-0.113563
-0.111411
-0.106453
-0.101096
-0.0960228
-0.0909288
-0.0856167
-0.0801426
-0.0746037
-0.0690561
-0.0635398
-0.0581
-0.0527858
-0.0476436
-0.0427151
-0.0380363
-0.0336368
-0.029539
-0.0257578
-0.022301
-0.0191695
-0.0163581
-0.0138567
-0.0116507
-0.00972262
-0.00805244
-0.00661919
-0.00540112
-0.00437586
-0.00352084
-0.00281418
-0.00223546
-0.00176592
-0.00138842
-0.00108736
-0.000848943
-0.000661147
-0.000513872
-0.000398672
-0.00030849
-0.000237774
-0.000182598
-0.000139249
-0.000105458
-7.86739e-05
-5.78206e-05
-4.06392e-05
-2.73387e-05
-1.50713e-05
-5.72529e-06
-0.1105
-0.108629
-0.104049
-0.09898
-0.0941611
-0.0893456
-0.0843211
-0.0791198
-0.0738372
-0.068533
-0.0632456
-0.058017
-0.0528931
-0.0479187
-0.0431345
-0.0385757
-0.034272
-0.0302466
-0.0265159
-0.0230895
-0.0199703
-0.0171556
-0.0146377
-0.0124045
-0.0104408
-0.00872866
-0.00724907
-0.00598187
-0.00490613
-0.00400061
-0.00324454
-0.00261836
-0.00210393
-0.00168452
-0.00134483
-0.00107121
-0.000851647
-0.000676013
-0.00053567
-0.000423477
-0.000333575
-0.000261755
-0.000203966
-0.000157769
-0.000120139
-9.00121e-05
-6.44917e-05
-4.40017e-05
-2.47886e-05
-9.28377e-06
-0.10745
-0.105834
-0.10162
-0.0968401
-0.092272
-0.0877271
-0.082986
-0.078057
-0.0730303
-0.0679688
-0.0629106
-0.057894
-0.0529623
-0.0481583
-0.0435214
-0.0390863
-0.0348826
-0.0309341
-0.0272584
-0.0238667
-0.0207641
-0.01795
-0.015419
-0.0131615
-0.0111645
-0.00941233
-0.00788779
-0.0065724
-0.00544675
-0.00449095
-0.00368539
-0.00301145
-0.00245161
-0.00198968
-0.00161062
-0.00130101
-0.00104889
-0.000844116
-0.000677881
-0.000542962
-0.000433198
-0.000344133
-0.000271353
-0.000212266
-0.000163357
-0.000123571
-8.93666e-05
-6.13767e-05
-3.49237e-05
-1.29882e-05
-0.104418
-0.103029
-0.0991685
-0.0946801
-0.0903602
-0.0860781
-0.0816146
-0.0769561
-0.0721842
-0.0673642
-0.0625345
-0.0577305
-0.0529921
-0.0483605
-0.0438737
-0.0395657
-0.0354659
-0.0315987
-0.0279824
-0.0246298
-0.0215479
-0.0187383
-0.0161979
-0.0139192
-0.0118916
-0.0101015
-0.00853362
-0.00717123
-0.00599644
-0.00499079
-0.00413587
-0.003414
-0.00280841
-0.00230342
-0.00188438
-0.00153809
-0.00125268
-0.00101803
-0.000825191
-0.000666861
-0.000536585
-0.00042969
-0.000341384
-0.000268927
-0.000208315
-0.000158487
-0.000115258
-7.94589e-05
-4.5476e-05
-1.68341e-05
-0.101409
-0.100223
-0.0967023
-0.092505
-0.0884311
-0.0844035
-0.0802109
-0.0758195
-0.0713007
-0.0667203
-0.0621179
-0.0575261
-0.0529818
-0.048524
-0.0441896
-0.0400118
-0.0360195
-0.0322374
-0.0286848
-0.0253758
-0.0223189
-0.0195179
-0.0169716
-0.0146751
-0.0126196
-0.010794
-0.00918464
-0.00777666
-0.00655374
-0.00549887
-0.00459489
-0.00382512
-0.00317358
-0.00262516
-0.00216562
-0.00178205
-0.00146271
-0.00119751
-0.000977417
-0.000795033
-0.000643632
-0.000518345
-0.000413996
-0.000327707
-0.000254976
-0.000194735
-0.000142149
-9.82345e-05
-5.64401e-05
-2.0815e-05
-0.0984323
-0.0974257
-0.0942281
-0.0903202
-0.08649
-0.0827093
-0.0787794
-0.0746506
-0.0703821
-0.0660389
-0.0616616
-0.057281
-0.0529308
-0.0486479
-0.0444677
-0.0404225
-0.036541
-0.0328478
-0.029363
-0.0261017
-0.0230741
-0.0202856
-0.0177374
-0.0154264
-0.0133461
-0.0114874
-0.00983869
-0.00838676
-0.00711696
-0.00601372
-0.00506119
-0.00424375
-0.00354622
-0.00295413
-0.00245372
-0.00203239
-0.00167857
-0.00138224
-0.00113429
-0.00092727
-0.000754175
-0.000609968
-0.000489091
-0.000388526
-0.000303284
-0.000232269
-0.000170007
-0.00011768
-6.78049e-05
-2.49226e-05
-0.0954977
-0.0946454
-0.0917539
-0.0881319
-0.084543
-0.0810014
-0.0773256
-0.0734534
-0.0694314
-0.0653223
-0.0611674
-0.056996
-0.0528393
-0.0487316
-0.0447067
-0.0407962
-0.0370283
-0.0334273
-0.030014
-0.0268044
-0.0238102
-0.0210384
-0.018492
-0.0161701
-0.0140682
-0.0121792
-0.0104934
-0.0089994
-0.00768416
-0.00653364
-0.00553329
-0.00466859
-0.00392522
-0.00328942
-0.0027479
-0.00228846
-0.00189972
-0.00157178
-0.00129547
-0.00106328
-0.000867985
-0.000704374
-0.000566522
-0.000451271
-0.000353148
-0.000271022
-0.000198783
-0.00013776
-7.95521e-05
-2.91465e-05
-0.0926139
-0.0918925
-0.0892885
-0.0859472
-0.0825968
-0.0792868
-0.0758556
-0.0722327
-0.0684525
-0.0645735
-0.0606374
-0.0566727
-0.0527079
-0.0487749
-0.044906
-0.0411317
-0.0374794
-0.0339737
-0.0306353
-0.0274813
-0.0245243
-0.0217732
-0.0192325
-0.0169032
-0.014783
-0.0128665
-0.0111462
-0.00961215
-0.00825317
-0.00705668
-0.00600946
-0.00509813
-0.00430929
-0.00362988
-0.00304721
-0.00254946
-0.00212549
-0.00176556
-0.00146047
-0.00120269
-0.000984753
-0.000801317
-0.000646091
-0.000515784
-0.000404446
-0.000310899
-0.000228409
-0.000158425
-9.16549e-05
-3.34736e-05
-0.0897904
-0.0891778
-0.0868419
-0.0837744
-0.0806589
-0.077573
-0.0743765
-0.0709945
-0.06745
-0.0637963
-0.0600747
-0.0563131
-0.0525379
-0.0487784
-0.0450653
-0.0414279
-0.037893
-0.0344848
-0.0312244
-0.0281293
-0.0252134
-0.0224867
-0.0199554
-0.0176225
-0.0154872
-0.0135464
-0.0117941
-0.0102224
-0.00882155
-0.00758062
-0.00648772
-0.00553062
-0.00469687
-0.00397419
-0.00335048
-0.00281439
-0.00235505
-0.00196289
-0.00162873
-0.00134501
-0.00110408
-0.00090047
-0.000727538
-0.000581854
-0.000457015
-0.000351772
-0.000258793
-0.000179609
-0.000104077
-3.78881e-05
-0.0870377
-0.0865131
-0.0844252
-0.0816228
-0.0787376
-0.0758681
-0.072896
-0.0697455
-0.0664295
-0.0629953
-0.059483
-0.0559202
-0.0523313
-0.0487432
-0.0451849
-0.0416844
-0.0382679
-0.0349591
-0.0317791
-0.028746
-0.0258744
-0.0231757
-0.0206575
-0.0183244
-0.0161776
-0.0142155
-0.0124341
-0.0108271
-0.00938658
-0.00810296
-0.0069658
-0.00596401
-0.00508616
-0.00432076
-0.00365635
-0.00308207
-0.00258738
-0.00216291
-0.00179951
-0.00148964
-0.00122548
-0.00100142
-0.000810529
-0.000649216
-0.000510643
-0.000393479
-0.000289814
-0.000201226
-0.000116769
-4.23709e-05
-0.0843673
-0.0839111
-0.0820505
-0.0795027
-0.0768421
-0.0741811
-0.0714227
-0.0684934
-0.0653975
-0.0621759
-0.058867
-0.0554976
-0.0520907
-0.0486711
-0.0452657
-0.0419013
-0.0386033
-0.035395
-0.0322973
-0.0293287
-0.0265045
-0.023837
-0.0213354
-0.0190056
-0.0168505
-0.0148703
-0.0130627
-0.0114232
-0.00994521
-0.00862091
-0.00744112
-0.00639599
-0.00547508
-0.00466774
-0.00396319
-0.00335109
-0.00282126
-0.00236456
-0.00197192
-0.00163583
-0.00134831
-0.00110367
-0.000894649
-0.000717532
-0.000565065
-0.000435813
-0.000321321
-0.000223171
-0.000129671
-4.68989e-05
-0.0817912
-0.0813853
-0.0797311
-0.0774257
-0.0749826
-0.0725218
-0.0699662
-0.0672468
-0.0643615
-0.0613447
-0.0582321
-0.05505
-0.0518199
-0.0485647
-0.0453093
-0.0420794
-0.0388992
-0.0357916
-0.0327774
-0.0298751
-0.0271008
-0.0244675
-0.0219856
-0.0196623
-0.0175023
-0.0155072
-0.0136764
-0.012007
-0.0104941
-0.0091313
-0.00791079
-0.0068239
-0.00586122
-0.00501298
-0.00426909
-0.00361978
-0.00305524
-0.00256661
-0.00214492
-0.00178269
-0.00147185
-0.00120658
-0.000979387
-0.000786391
-0.000619954
-0.000478519
-0.000353124
-0.00024531
-0.000142703
-5.14448e-05
-0.079322
-0.07895
-0.0774811
-0.0754045
-0.0731708
-0.0709011
-0.068537
-0.0660156
-0.0633303
-0.0605091
-0.0575849
-0.0545828
-0.0515232
-0.0484272
-0.0453181
-0.0422198
-0.0391559
-0.0361485
-0.0332181
-0.0303834
-0.0276607
-0.025064
-0.0226045
-0.0202909
-0.018129
-0.0161221
-0.0142711
-0.0125747
-0.0110296
-0.00963065
-0.00837152
-0.00724471
-0.00624183
-0.005354
-0.00457185
-0.00388619
-0.00328763
-0.00276759
-0.00231723
-0.00192915
-0.00159517
-0.00130942
-0.00106413
-0.000855291
-0.000674911
-0.000521288
-0.000384995
-0.000267482
-0.000155771
-5.59758e-05
-0.0769732
-0.0766205
-0.0753162
-0.0734532
-0.0714191
-0.0693311
-0.0671466
-0.0648107
-0.0623135
-0.0596779
-0.0569329
-0.0541025
-0.051206
-0.048263
-0.045295
-0.0423247
-0.0393743
-0.0364656
-0.0336185
-0.0308517
-0.0281818
-0.0256235
-0.0231888
-0.0208874
-0.0187265
-0.0167108
-0.0148426
-0.0131222
-0.0115475
-0.0101151
-0.00881967
-0.00765503
-0.0066138
-0.00568797
-0.00486893
-0.00414807
-0.00351644
-0.00296577
-0.00248737
-0.00207393
-0.00171721
-0.00141127
-0.00114813
-0.000923632
-0.000729456
-0.000563746
-0.000416653
-0.000289494
-0.000168761
-6.04531e-05
-0.0747594
-0.0744133
-0.0732532
-0.0715876
-0.0697418
-0.0678249
-0.0658078
-0.063644
-0.0613224
-0.0588608
-0.0562848
-0.0536166
-0.0508747
-0.0480772
-0.0452442
-0.0423966
-0.0395561
-0.0367433
-0.0339779
-0.0312785
-0.0286618
-0.026143
-0.0237348
-0.0214478
-0.0192905
-0.0172688
-0.0153864
-0.0136448
-0.0120435
-0.0105802
-0.00925113
-0.00805103
-0.00697358
-0.00601167
-0.00515742
-0.00440282
-0.00373938
-0.00315914
-0.0026536
-0.00221555
-0.00183672
-0.00151109
-0.00123052
-0.000990702
-0.000783022
-0.00060545
-0.000447769
-0.000311115
-0.000181535
-6.48309e-05
-0.0726962
-0.072346
-0.0713104
-0.0698248
-0.0681547
-0.0663974
-0.0645348
-0.0625291
-0.0603693
-0.0580691
-0.0556505
-0.0531339
-0.0505367
-0.047876
-0.0451702
-0.0424392
-0.0397034
-0.0369827
-0.0342964
-0.0316627
-0.0290987
-0.0266196
-0.0242389
-0.0219682
-0.0198166
-0.0177914
-0.0158975
-0.0141376
-0.0125126
-0.0110214
-0.00966137
-0.00842842
-0.0073172
-0.00632144
-0.005434
-0.00464747
-0.00395381
-0.00334539
-0.00281393
-0.00235229
-0.00195222