/*--------------------------------*- C++ -*----------------------------------*\
  =========                 |
  \\      /  F ield         | OpenFOAM: The Open Source CFD Toolbox
   \\    /   O peration     | Website:  https://openfoam.org
    \\  /    A nd           | Version:  7
     \\/     M anipulation  |
\*---------------------------------------------------------------------------*/
FoamFile
{
    version     2.0;
    format      ascii;
    class       surfaceScalarField;
    location    "5";
    object      phi;
}
// * * * * * * * * * * * * * * * * * * * * * * * * * * * * * * * * * * * * * //

dimensions      [0 3 -1 0 0 0 0];

internalField   nonuniform List<scalar> 
11919
(
-0.00227283
0.000368289
5.87924e-12
-0.00262424
0.000351415
3.08686e-11
-0.00293447
0.000310226
5.88849e-11
-0.0031737
0.000239236
8.73559e-11
-0.00330711
0.000133406
1.14136e-10
-0.00329702
-1.00931e-05
1.31145e-10
-0.0031131
-0.000183917
1.46279e-10
-0.00273196
-0.00038114
1.48457e-10
-0.00214769
-0.000584272
1.38159e-10
-0.00137681
-0.000770876
1.15562e-10
-0.000436408
-0.000940406
8.58966e-11
0.000603601
-0.00104001
5.18096e-11
-0.00117814
1.6951e-11
0.00178175
-0.00215027
0.000705262
-0.0024638
0.000664946
-0.00272956
0.000575984
-0.00291827
0.000427951
-0.00299583
0.00021097
-0.00292772
-7.82049e-05
-0.00268263
-0.000429007
-0.00223966
-0.000824114
-0.00159722
-0.0012267
-0.000771732
-0.00159637
0.000206831
-0.00191897
0.00128578
-0.00211896
-0.00236966
0.00247729
-0.00191574
0.000983262
-0.00215883
0.000908026
-0.00234318
0.000760342
-0.00244124
0.000526004
-0.00242135
0.000191079
-0.00225343
-0.000246119
-0.00190796
-0.000774479
-0.00136729
-0.00136478
-0.000637384
-0.00195661
0.000264213
-0.00249797
0.00129268
-0.00294743
0.00240923
-0.00323551
-0.0035602
0.00359977
-0.00158818
0.00118091
-0.00173696
0.0010568
-0.00181465
0.000838041
-0.00179701
0.000508361
-0.00165636
5.04314e-05
-0.00136864
-0.000533842
-0.000907969
-0.00123515
-0.000260005
-0.00201275
0.000548662
-0.00276528
0.00150747
-0.00345677
0.0025674
-0.00400736
0.00369238
-0.00436049
-0.00470938
0.00484156
-0.00119171
-0.00123226
0.00109735
-0.00119044
0.000796222
-0.00104559
0.000363514
-0.000779486
-0.000215672
-0.000366466
-0.000946862
0.00020749
-0.00180911
0.000941384
-0.00274664
0.00181811
-0.003642
0.00280948
-0.00444815
0.00385959
-0.00505747
0.00494808
-0.00544898
-0.00577259
0.00601128
-0.000680909
0.00102547
-0.000518252
0.000633564
-0.000249259
9.45206e-05
0.000140617
-0.000605547
0.000668301
-0.00147455
0.00134035
-0.00248116
0.00215277
-0.00355906
0.00307195
-0.00456119
0.00406115
-0.00543734
0.00506253
-0.00605885
0.00607105
-0.00645751
-0.00671686
0.00701533
-0.00011782
0.000845613
0.000158606
0.000357138
0.000542117
-0.00028899
0.00104379
-0.00110722
0.00167567
-0.00210642
0.00243592
-0.00324141
0.00330496
-0.0044281
0.00423699
-0.00549321
0.00518858
-0.00638893
0.00610767
-0.00697794
0.0070028
-0.00735264
-0.00752607
0.00781201
0.000428962
0.000566649
0.000806124
-2.00242e-05
0.00129039
-0.00077326
0.00189204
-0.00170886
0.00261718
-0.00283156
0.00345023
-0.00407446
0.00435137
-0.00532924
0.00526416
-0.00640601
0.00614453
-0.00726929
0.00695581
-0.00778923
0.00771962
-0.00811646
-0.00820138
0.00839493
0.000935335
0.00020242
0.00140011
-0.000484803
0.00197465
-0.0013478
0.00266839
-0.0024026
0.00347623
-0.0036394
0.00436184
-0.00496007
0.00526407
-0.00623147
0.00612331
-0.00726525
0.0069043
-0.00805029
0.00759375
-0.00847868
0.00822578
-0.00874848
-0.00875859
0.00878299
0.00138962
-0.000236099
0.00193349
-0.00102868
0.00259417
-0.00200848
0.00337534
-0.00318377
0.00425076
-0.00451482
0.00515887
-0.00586817
0.00602442
-0.00709703
0.0067976
-0.00803842
0.0074618
-0.00871449
0.00802986
-0.00904674
0.00854524
-0.00926386
-0.00922275
0.00900941
0.00179238
0.00241517
-0.00165147
0.00316322
-0.00275652
0.00402317
-0.00404371
0.0049387
-0.00543035
0.00582809
-0.00675756
0.00661817
-0.00788711
0.00728238
-0.00870263
0.00782764
-0.00925975
0.00828904
-0.00950814
0.00871302
-0.00968784
-0.00962155
0.00911182
0.00286547
-0.00235955
0.00369895
-0.00359001
0.00461461
-0.00495937
0.00552764
-0.00634339
0.00635311
-0.00758303
0.00703846
-0.00857246
0.00758733
-0.0092515
0.00802702
-0.00969944
0.00840613
-0.00988725
0.00876653
-0.0100482
-0.0099795
0.00912448
0.0033045
-0.00315679
0.00420615
-0.00449166
0.00513569
-0.00588891
0.00599654
-0.00720424
0.00672219
-0.00830868
0.00729188
-0.00914216
0.00773637
-0.00969598
0.00809406
-0.0100571
0.00841761
-0.0102108
0.0087386
-0.0103692
-0.0103149
0.009074
0.00373794
-0.00403183
0.00466925
-0.00542297
0.00556041
-0.00678007
0.00632773
-0.00797156
0.00693753
-0.00891848
0.00739997
-0.0096046
0.00776232
-0.0100583
0.00806395
-0.0103588
0.00835493
-0.0105018
0.00865394
-0.0106682
-0.0106396
0.00897863
0.0041497
0.00505859
-0.00633186
0.00586552
-0.007587
0.0065185
-0.00862454
0.00701746
-0.00941743
0.00739362
-0.00998076
0.00769879
-0.0103635
0.00796648
-0.0106264
0.0082413
-0.0107766
0.00852909
-0.010956
-0.0109604
0.00884994
0.00534661
-0.00716978
0.00604351
-0.0082839
0.00658344
-0.00916447
0.00699035
-0.00982434
0.00730468
-0.0102951
0.00757394
-0.0106328
0.00782348
-0.010876
0.00809205
-0.0110452
0.00837398
-0.011238
-0.0112814
0.00869496
0.00552132
0.00610486
-0.00886744
0.00654782
-0.00960743
0.00688588
-0.0101624
0.00715981
-0.010569
0.00740824
-0.0108812
0.00764943
-0.0111172
0.00791646
-0.0113122
0.00819405
-0.0115156
-0.0116049
0.00851748
0.00607133
-0.00934997
0.00643881
-0.00997491
0.00672908
-0.0104527
0.00697836
-0.0108183
0.00721525
-0.0111181
0.00745351
-0.0113554
0.00771991
-0.0115786
0.0079926
-0.0117883
-0.0119313
0.00831905
0.00596732
0.00627963
-0.0102872
0.00653829
-0.0107113
0.00677303
-0.011053
0.00700351
-0.0113486
0.00724156
-0.0115935
0.00750543
-0.0118425
0.00777255
-0.0120554
-0.0122525
0.00809371
0.00608764
-0.0105606
0.00632571
-0.0109494
0.00655151
-0.0112788
0.00677811
-0.0115752
0.00701684
-0.0118322
0.00727466
-0.0121003
0.00753121
-0.0123119
-0.0125846
0.00786337
0.00587221
0.00609658
-0.0111738
0.0063161
-0.0114984
0.00653976
-0.0117988
0.00677813
-0.0120706
0.00703133
-0.0123535
0.00729544
-0.012576
-0.0128812
0.00759198
0.00586002
-0.0113879
0.00607384
-0.0117122
0.00629403
-0.012019
0.00652889
-0.0123054
0.00677452
-0.0125991
0.00705117
-0.0128527
-0.0131881
0.0073581
0.00561617
0.00582399
-0.01192
0.00603937
-0.0122344
0.00626815
-0.0125342
0.00651165
-0.0128426
0.00677817
-0.0131192
-0.0134645
0.00705458
0.00556739
0.00577619
-0.0124432
0.00599848
-0.0127565
0.00623301
-0.0130771
0.00648959
-0.0133758
-0.0137397
0.00676482
0.00550538
0.00571852
-0.0129697
0.00594437
-0.013303
0.0061907
-0.0136221
-0.0139956
0.00644661
0.00543002
0.00564466
-0.0135176
0.00587713
-0.0138546
-0.0142407
0.00612216
0.00533522
0.00555424
-0.0140736
-0.0144693
0.00578289
0.00522025
0.00543342
0.00522025
0.0140736
0.0144693
0.00543342
0.00533522
0.0135176
0.00555424
0.0138546
0.0142407
0.00578289
0.00543002
0.0129697
0.00564466
0.013303
0.00587713
0.0136221
0.0139956
0.00612216
0.00550538
0.0124432
0.00571852
0.0127565
0.00594437
0.0130771
0.0061907
0.0133758
0.0137397
0.00644661
0.00556739
0.01192
0.00577619
0.0122344
0.00599848
0.0125342
0.00623301
0.0128426
0.00648959
0.0131192
0.0134645
0.00676482
0.00561617
0.0113879
0.00582399
0.0117122
0.00603937
0.012019
0.00626815
0.0123054
0.00651165
0.0125991
0.00677817
0.0128527
0.0131881
0.00705458
0.00586003
0.0111738
0.00607384
0.0114984
0.00629403
0.0117988
0.00652889
0.0120706
0.00677452
0.0123535
0.00705117
0.012576
0.0128812
0.0073581
0.00587221
0.0105606
0.00609658
0.0109494
0.0063161
0.0112788
0.00653976
0.0115752
0.00677813
0.0118322
0.00703133
0.0121003
0.00729544
0.0123119
0.0125846
0.00759198
0.00608764
0.0102872
0.00632571
0.0107113
0.00655151
0.011053
0.00677811
0.0113486
0.00701684
0.0115935
0.00727466
0.0118425
0.00753121
0.0120554
0.0122525
0.00786337
0.00596732
0.00934997
0.00627963
0.00997491
0.00653829
0.0104527
0.00677303
0.0108183
0.00700351
0.0111181
0.00724156
0.0113554
0.00750543
0.0115786
0.00777255
0.0117883
0.0119313
0.00809371
0.00607133
0.00886744
0.00643881
0.00960743
0.00672908
0.0101624
0.00697836
0.010569
0.00721525
0.0108812
0.00745351
0.0111172
0.00771991
0.0113122
0.0079926
0.0115156
0.0116049
0.00831905
0.00552132
0.00716978
0.00610486
0.0082839
0.00654782
0.00916447
0.00688588
0.00982434
0.00715981
0.0102951
0.00740824
0.0106328
0.00764943
0.010876
0.00791646
0.0110452
0.00819405
0.011238
0.0112814
0.00851748
0.00534661
0.00633186
0.00604351
0.007587
0.00658344
0.00862454
0.00699035
0.00941743
0.00730468
0.00998076
0.00757394
0.0103635
0.00782348
0.0106264
0.00809205
0.0107766
0.00837398
0.010956
0.0109604
0.00869496
0.0041497
0.00403183
0.00505859
0.00542297
0.00586552
0.00678007
0.0065185
0.00797156
0.00701746
0.00891848
0.00739362
0.0096046
0.00769879
0.0100583
0.00796648
0.0103588
0.0082413
0.0105018
0.00852909
0.0106682
0.0106396
0.00884994
0.00373794
0.00315679
0.00466925
0.00449166
0.00556041
0.00588891
0.00632773
0.00720424
0.00693753
0.00830868
0.00739997
0.00914216
0.00776232
0.00969598
0.00806395
0.0100571
0.00835493
0.0102108
0.00865394
0.0103692
0.0103149
0.00897863
0.0033045
0.00235955
0.00420615
0.00359001
0.00513569
0.00495937
0.00599654
0.00634339
0.00672219
0.00758303
0.00729188
0.00857246
0.00773637
0.0092515
0.00809406
0.00969944
0.00841761
0.00988725
0.0087386
0.0100482
0.0099795
0.009074
0.00286547
0.00165146
0.00369895
0.00275652
0.00461461
0.00404371
0.00552764
0.00543035
0.00635311
0.00675756
0.00703846
0.00788711
0.00758733
0.00870263
0.00802702
0.00925975
0.00840613
0.00950814
0.00876653
0.00968784
0.00962155
0.00912448
0.00179238
0.000236099
0.00241517
0.00102868
0.00316322
0.00200848
0.00402317
0.00318377
0.0049387
0.00451482
0.00582809
0.00586817
0.00661817
0.00709703
0.00728238
0.00803842
0.00782764
0.00871449
0.00828904
0.00904674
0.00871302
0.00926386
0.00922275
0.00911182
0.00138962
-0.00020242
0.00193349
0.000484803
0.00259417
0.0013478
0.00337534
0.0024026
0.00425076
0.0036394
0.00515887
0.00496007
0.00602442
0.00623147
0.0067976
0.00726525
0.0074618
0.00805029
0.00802986
0.00847868
0.00854524
0.00874848
0.00875859
0.00900941
0.000935335
-0.000566649
0.00140011
2.0024e-05
0.00197465
0.00077326
0.00266839
0.00170886
0.00347623
0.00283156
0.00436184
0.00407446
0.00526407
0.00532924
0.00612331
0.00640601
0.0069043
0.00726929
0.00759375
0.00778923
0.00822578
0.00811646
0.00820138
0.00878299
0.000428962
-0.000845613
0.000806124
-0.000357138
0.00129039
0.00028899
0.00189204
0.00110722
0.00261718
0.00210642
0.00345023
0.00324141
0.00435137
0.0044281
0.00526416
0.00549321
0.00614453
0.00638893
0.00695581
0.00697794
0.00771962
0.00735264
0.00752607
0.00839493
-0.00011782
-0.00102547
0.000158606
-0.000633564
0.000542117
-9.45208e-05
0.00104379
0.000605547
0.00167566
0.00147455
0.00243592
0.00248116
0.00330496
0.00355906
0.00423699
0.00456119
0.00518858
0.00543734
0.00610767
0.00605885
0.0070028
0.00645751
0.00671686
0.00781201
-0.00068091
-0.00109735
-0.000518252
-0.000796222
-0.000249259
-0.000363514
0.000140617
0.000215672
0.000668301
0.000946862
0.00134035
0.00180911
0.00215277
0.00274664
0.00307195
0.003642
0.00406115
0.00444815
0.00506253
0.00505747
0.00607105
0.00544898
0.00577259
0.00701533
-0.00119171
-0.00118091
-0.00123226
-0.0010568
-0.00119044
-0.000838041
-0.00104559
-0.000508361
-0.000779486
-5.04317e-05
-0.000366466
0.000533842
0.00020749
0.00123515
0.000941384
0.00201275
0.00181811
0.00276528
0.00280948
0.00345677
0.00385959
0.00400736
0.00494808
0.00436049
0.00470938
0.00601128
-0.00158818
-0.000983262
-0.00173696
-0.000908026
-0.00181465
-0.000760342
-0.00179701
-0.000526005
-0.00165636
-0.000191079
-0.00136864
0.000246119
-0.000907969
0.000774479
-0.000260005
0.00136478
0.000548662
0.00195661
0.00150747
0.00249796
0.0025674
0.00294743
0.00369238
0.00323551
0.0035602
0.00484156
-0.00191574
-0.000705262
-0.00215883
-0.000664946
-0.00234318
-0.000575984
-0.00244124
-0.000427951
-0.00242135
-0.00021097
-0.00225343
7.82047e-05
-0.00190796
0.000429007
-0.00136729
0.000824114
-0.000637384
0.0012267
0.000264213
0.00159637
0.00129268
0.00191897
0.00240923
0.00211896
0.00236966
0.00359977
-0.00215027
-0.000368289
-0.0024638
-0.000351415
-0.00272956
-0.000310226
-0.00291827
-0.000239236
-0.00299583
-0.000133406
-0.00292772
1.00928e-05
-0.00268263
0.000183916
-0.00223966
0.00038114
-0.00159722
0.000584272
-0.000771732
0.000770875
0.000206831
0.000940406
0.00128578
0.00104001
0.00117814
0.00247729
-0.00227283
-0.00262424
-0.00293447
-0.0031737
-0.00330711
-0.00329702
-0.0031131
-0.00273196
-0.00214769
-0.00137681
-0.000436408
0.000603601
0.00178175
0.00227425
-0.0004925
-1.45607e-12
0.00274896
-0.000474713
-7.41358e-12
0.00320589
-0.000456928
-1.27893e-11
0.00364512
-0.000439234
-1.74411e-11
0.00406591
-0.000420794
-2.15441e-11
0.00446751
-0.000401595
-2.52065e-11
0.00484955
-0.000382039
-2.83028e-11
0.00521201
-0.000362461
-3.07465e-11
0.00555501
-0.000343005
-3.25215e-11
0.00587885
-0.000323837
-3.35876e-11
0.00618397
-0.000305119
-3.39179e-11
0.00647097
-0.000287003
-3.35925e-11
0.00674058
-0.000269608
-3.26654e-11
0.00699359
-0.00025301
-3.11083e-11
0.00723082
-0.000237231
-2.88917e-11
0.00745307
-0.000222248
-2.60837e-11
0.00766106
-0.00020799
-2.27878e-11
0.00785539
-0.000194331
-1.91167e-11
0.00803648
-0.000181092
-1.52211e-11
0.00820453
-0.000168052
-1.12826e-11
0.0083595
-0.000154965
-7.45529e-12
0.0085011
-0.000141599
-3.86315e-12
0.00862889
-0.000127795
-7.01963e-13
0.0087424
-0.000113512
1.86476e-12
0.00884127
-9.88657e-05
3.7336e-12
0.0089254
-8.41258e-05
4.93472e-12
0.00899507
-6.96795e-05
5.62735e-12
0.00905104
-5.59638e-05
5.99681e-12
0.00909442
-4.33777e-05
6.16133e-12
0.00912662
-3.21989e-05
6.18865e-12
0.00914916
-2.25436e-05
6.14027e-12
0.00916353
-1.43747e-05
6.08727e-12
0.00917109
-7.55435e-06
6.08699e-12
0.00917296
-1.86804e-06
6.12879e-12
0.0091702
2.75519e-06
5.74371e-12
0.00916359
6.61049e-06
5.41834e-12
0.0091537
9.89411e-06
4.91249e-12
0.00914094
1.27608e-05
4.31636e-12
0.00912563
1.53057e-05
3.73718e-12
0.009108
1.76301e-05
3.23776e-12
0.00908825
1.97522e-05
2.8615e-12
0.0090665
2.17471e-05
2.59027e-12
0.00904293
2.35737e-05
2.41777e-12
0.00901759
2.53323e-05
2.21496e-12
0.00899067
2.69221e-05
2.02486e-12
0.00896216
2.85121e-05
1.75524e-12
0.00893226
2.99015e-05
1.61487e-12
0.00890087
3.13908e-05
1.37379e-12
0.00886828
3.25922e-05
1.28875e-12
3.40584e-05
1.15401e-12
0.0029229
-0.000938106
0.00335322
-0.000905036
0.00376797
-0.000871682
0.00416676
-0.000838018
0.00454857
-0.000802609
0.00491261
-0.000765635
0.00525854
-0.000727967
0.0055864
-0.000690318
0.00589637
-0.000652971
0.00618868
-0.000616151
0.00646377
-0.00058021
0.00672222
-0.000545452
0.00696472
-0.000512111
0.00719204
-0.00048033
0.00740498
-0.000450163
0.00760431
-0.000421578
0.00779076
-0.000394446
0.00796497
-0.000368541
0.00812741
-0.000343532
0.00827836
-0.000318998
0.00841786
-0.000294464
0.00854573
-0.00026947
0.00866161
-0.000243672
0.00876505
-0.000216952
0.00885566
-0.00018948
0.00893326
-0.000161726
0.00899798
-0.000134399
0.00905033
-0.00010832
0.00909122
-8.42606e-05
0.00912179
-6.27741e-05
0.00914336
-4.41134e-05
0.00915723
-2.82383e-05
0.00916459
-1.49143e-05
0.00916647
-3.7523e-06
0.00916386
5.36515e-06
0.00915748
1.29895e-05
0.00914788
1.94994e-05
0.00913544
2.51932e-05
0.0091205
3.02534e-05
0.00910325
3.48786e-05
0.0090839
3.91023e-05
0.00906257
4.30737e-05
0.00903943
4.67098e-05
0.00901456
5.02105e-05
0.0089881
5.3374e-05
0.00896008
5.6538e-05
0.00893068
5.93011e-05
0.00889981
6.22635e-05
0.00886775
6.46505e-05
6.75656e-05
0.00396884
-0.00130717
0.00432674
-0.00126293
0.00467253
-0.00121747
0.00500538
-0.00117087
0.00532406
-0.00112129
0.00562768
-0.00106925
0.00591583
-0.00101612
0.00618846
-0.000962947
0.00644582
-0.000910331
0.00668813
-0.000858461
0.00691569
-0.000807772
0.007129
-0.000758756
0.00732864
-0.000711757
0.0075153
-0.000666987
0.00768968
-0.000624546
0.00785252
-0.000584413
0.00800452
-0.000546444
0.00814633
-0.000510355
0.00827852
-0.000475719
0.00840149
-0.000441969
0.00851547
-0.000408443
0.00862046
-0.000374467
0.00871629
-0.0003395
0.00880262
-0.000303281
0.00887908
-0.000265943
0.00894539
-0.000228036
0.00900146
-0.000190465
0.00904748
-0.000154338
0.00908395
-0.000120735
0.00911165
-9.04715e-05
0.0091315
-6.39604e-05
0.00914447
-4.1211e-05
0.00915151
-2.19588e-05
0.00915347
-5.70983e-06
0.00915117
7.66449e-06
0.00914527
1.88953e-05
0.00913624
2.85225e-05
0.00912447
3.69668e-05
0.00911024
4.44848e-05
0.00909375
5.13638e-05
0.00907521
5.76487e-05
0.00905472
6.356e-05
0.00903246
6.89713e-05
0.00900849
7.41814e-05
0.00898298
7.88867e-05
0.00895592
8.35928e-05
0.00892752
8.7698e-05
0.00889769
9.21011e-05
0.00886669
9.5642e-05
9.99718e-05
0.00512017
-0.00158579
0.00539283
-0.00153559
0.00565811
-0.00148276
0.00591483
-0.00142758
0.00616149
-0.00136795
0.00639707
-0.00130484
0.00662102
-0.00124007
0.00683305
-0.00117498
0.00703314
-0.00111041
0.00722154
-0.00104686
0.00739837
-0.0009846
0.00756385
-0.000924244
0.00771838
-0.000866279
0.00786239
-0.000811005
0.00799643
-0.000758579
0.00812104
-0.000709027
0.00823683
-0.000662234
0.0083444
-0.000617923
0.00844432
-0.000575645
0.00853713
-0.000534776
0.00862323
-0.000494543
0.00870288
-0.000454115
0.00877614
-0.000412763
0.00884291
-0.000370051
0.00890295
-0.00032598
0.00895596
-0.000281045
0.00900169
-0.000236201
0.00904006
-0.000192701
0.00907116
-0.000151839
0.00909534
-0.000114648
0.00911309
-8.17126e-05
0.00912501
-5.31363e-05
0.00913175
-2.8694e-05
0.00913391
-7.86585e-06
0.00913212
9.45109e-06
0.00912695
2.40678e-05
0.00911881
3.66612e-05
0.00910803
4.77479e-05
0.00909487
5.76403e-05
0.00907953
6.67045e-05
0.00906219
7.49906e-05
0.00904296
8.27873e-05
0.00902201
8.99228e-05
0.0089994
9.6793e-05
0.00897529
0.000102992
0.00894969
0.000109193
0.0089228
0.000114593
0.00889451
0.000120388
0.00886512
0.000125036
0.000130729
0.00619519
-0.0017697
0.00637912
-0.00171952
0.00656139
-0.00166502
0.00674042
-0.00160662
0.00691458
-0.0015421
0.00708269
-0.00147295
0.00724404
-0.00140142
0.00739807
-0.00132901
0.00754431
-0.00125666
0.00768266
-0.0011852
0.00781322
-0.00111516
0.00793588
-0.00104691
0.00805064
-0.000981037
0.00815761
-0.000917979
0.00825701
-0.000857979
0.00834912
-0.000801136
0.00843429
-0.0007474
0.00851293
-0.00069656
0.00858551
-0.000648223
0.00865253
-0.000601801
0.0087145
-0.000556514
0.00877185
-0.000511467
0.0088249
-0.00046581
0.00887379
-0.000418945
0.00891851
-0.000370698
0.00895888
-0.000321409
0.00899461
-0.000271938
0.00902545
-0.00022354
0.00905122
-0.000177607
0.00907189
-0.00013532
0.00908759
-9.74139e-05
0.00909857
-6.41091e-05
0.00910514
-3.52714e-05
0.00910771
-1.04295e-05
0.00910668
1.04798e-05
0.00910252
2.82236e-05
0.00909558
4.36029e-05
0.00908613
5.71979e-05
0.00907441
6.93589e-05
0.0090606
8.05192e-05
0.00904486
9.0728e-05
0.00902731
0.000100338
0.0090081
0.00010913
0.0089873
0.000117595
0.00896507
0.000125225
0.0089414
0.000132856
0.00891651
0.000139489
0.00889028
0.000146612
0.00886302
0.000152303
0.000159291
0.00710965
-0.00186402
0.00720954
-0.00181941
0.00731339
-0.00176887
0.00741946
-0.00171268
0.00752604
-0.00164869
0.00763195
-0.00157886
0.0077363
-0.00150577
0.00783829
-0.00143099
0.00793714
-0.00135551
0.0080322
-0.00128026
0.00812319
-0.00120615
0.00820999
-0.00113371
0.00829222
-0.00106326
0.00836957
-0.000995326
0.00844187
-0.00093028
0.00850907
-0.000868336
0.0085712
-0.000809533
0.0086284
-0.000753754
0.00868089
-0.000700714
0.00872902
-0.000649934
0.00877323
-0.000600719
0.00881397
-0.000552214
0.00885171
-0.000503542
0.00888677
-0.000454014
0.00891938
-0.0004033
0.00894951
-0.000351543
0.00897699
-0.000299417
0.00900151
-0.000248063
0.00902276
-0.000198854
0.00904048
-0.000153039
0.00905452
-0.000111459
0.00906486
-7.44456e-05
0.00907157
-4.19766e-05
0.00907482
-1.36844e-05
0.00907484
1.04621e-05
0.00907201
3.10568e-05
0.00906658
4.90242e-05
0.00905881
6.49743e-05
0.00904889
7.92784e-05
0.00903698
9.24271e-05
0.00902325
0.000104462
0.00900779
0.000115797
0.00899076
0.000126161
0.00897221
0.00013614
0.00895231
0.000145122
0.00893107
0.000154105
0.00890866
0.000161893
0.00888501
0.000170262
0.0088604
0.000176918
0.000185115
0.00782968
-0.00188169
0.00785725
-0.00184698
0.00789344
-0.00180506
0.00793653
-0.00175578
0.00798498
-0.00169714
0.00803764
-0.00163152
0.00809353
-0.00156166
0.00815164
-0.0014891
0.00821095
-0.00141482
0.00827053
-0.00133984
0.00832954
-0.00126517
0.00838749
-0.00119166
0.00844404
-0.00111982
0.00849857
-0.00104985
0.00855052
-0.000982234
0.00859951
-0.00091732
0.00864526
-0.000855282
0.00868762
-0.000796115
0.00872656
-0.000739656
0.00876219
-0.000685567
0.00879477
-0.000633297
0.00882466
-0.000582102
0.00885229
-0.000531173
0.00887809
-0.000479816
0.0089024
-0.000427608
0.00892538
-0.000374518
0.00894696
-0.000321002
0.00896691
-0.00026801
0.00898488
-0.000216823
0.00900052
-0.000168679
0.00901353
-0.000124473
0.0090237
-8.46167e-05
0.00903092
-4.91942e-05
0.00903521
-1.79744e-05
0.0090366
9.07355e-06
0.00903541
3.22411e-05
0.00903184
5.25928e-05
0.00902609
7.07305e-05
0.00901833
8.70358e-05
0.00900871
0.000102048
0.00899738
0.000115796
0.00898442
0.00012875
0.00897
0.000140587
0.00895415
0.000151984
0.00893705
0.000162223
0.00891869
0.000172464
0.00889927
0.000181313
0.0088787
0.000190833
0.00885726
0.000198359
0.000207665
0.00835328
-0.00184003
0.00832433
-0.00181803
0.00830719
-0.00178791
0.00830038
-0.00174897
0.00830264
-0.0016994
0.00831299
-0.00164187
0.00833042
-0.00157909
0.00835378
-0.00151246
0.00838191
-0.00144295
0.00841369
-0.00137162
0.00844808
-0.00129956
0.0084841
-0.00122768
0.008521
-0.00115672
0.00855834
-0.00108719
0.00859536
-0.00101925
0.00863134
-0.000953305
0.00866576
-0.000889693
0.0086982
-0.000828564
0.00872844
-0.00076989
0.00875635
-0.000713476
0.00878198
-0.000658929
0.00880554
-0.000605657
0.00882733
-0.000552971
0.00884777
-0.000500249
0.00886721
-0.000447053
0.00888592
-0.000393228
0.00890394
-0.000339024
0.00892112
-0.00028519
0.00893716
-0.000232863
0.00895171
-0.000183227
0.00896442
-0.000137181
0.00897498
-9.51737e-05
0.00898315
-5.73681e-05
0.00898886
-2.36805e-05
0.00899197
5.96426e-06
0.00899277
3.14351e-05
0.0089914
5.39693e-05
0.00898801
7.41168e-05
0.00898278
9.22668e-05
0.00897582
0.000109002
0.00896729
0.000124334
0.00895725
0.000138786
0.00894585
0.000151983
0.00893315
0.000164685
0.0089193
0.000176072
0.00890431
0.000187462
0.00888835
0.000197264
0.00887136
0.000207823
0.00885361
0.000216111
0.000226406
0.0087002
-0.00175725
0.00863143
-0.00174925
0.00857604
-0.00173253
0.00853294
-0.00170586
0.00850126
-0.00166771
0.00848026
-0.00162087
0.00846901
-0.00156784
0.00846636
-0.00150981
0.00847108
-0.00144767
0.00848198
-0.00138252
0.00849791
-0.00131549
0.00851775
-0.00124753
0.00854046
-0.00117943
0.00856513
-0.00111186
0.00859124
-0.00104535
0.00861802
-0.000980084
0.00864469
-0.00091637
0.00867065
-0.000854525
0.00869546
-0.000794701
0.00871885
-0.00073686
0.00874068
-0.000680763
0.00876099
-0.00062597
0.00877996
-0.000571938
0.00879787
-0.000518161
0.00881507
-0.00046425
0.00883182
-0.000409981
0.00884824
-0.000355441
0.00886424
-0.000301187
0.00887959
-0.000248219
0.00889401
-0.000197639
0.00890714
-0.000150313
0.00891865
-0.000106688
0.00892825
-6.69655e-05
0.00893577
-3.11958e-05
0.00894097
7.57138e-07
0.00894412
2.82896e-05
0.00894528
5.28095e-05
0.00894461
7.47804e-05
0.00894227
9.46064e-05
0.00893837
0.00011291
0.00893302
0.000129682
0.00892631
0.000145499
0.00891836
0.000159924
0.00890924
0.000173807
0.0088991
0.000186219
0.00888792
0.000198633
0.00887592
0.000209266
0.00886301
0.000220736
0.00884946
0.000229662
0.000240812
0.00890178
-0.00164962
0.00880815
-0.00165563
0.00872812
-0.00165249
0.00866091
-0.00163866
0.00860614
-0.00161294
0.00856341
-0.00157814
0.00853195
-0.00153638
0.0085107
-0.00148856
0.0084985
-0.00143547
0.00849419
-0.00137821
0.0084966
-0.0013179
0.00850457
-0.0012555
0.008517
-0.00119186
0.00853284
-0.00112769
0.00855112
-0.00106364
0.00857125
-0.00100022
0.00859258
-0.000937698
0.00861432
-0.00087626
0.00863584
-0.000816223
0.00865672
-0.000757748
0.00867673
-0.000700765
0.00869574
-0.000644982
0.00871379
-0.000589995
0.00873107
-0.000535434
0.00874781
-0.000480997
0.00876427
-0.00042644
0.00878056
-0.000371729
0.00879664
-0.000317267
0.00881236
-0.000263935
0.00882748
-0.000212761
0.00884172
-0.000164553
0.00885474
-0.000119713
0.00886623
-7.84501e-05
0.00887592
-4.08846e-05
0.00888369
-7.01416e-06
0.00888948
2.2494e-05
0.00889353
4.87604e-05
0.00889595
7.2363e-05
0.00889687
9.36865e-05
0.00889639
0.000113391
0.00889462
0.000131449
0.00889164
0.000148481
0.00888757
0.000163994
0.00888246
0.000178918
0.00887646
0.000192218
0.00886957
0.000205517
0.008862
0.000216843
0.00885365
0.000229083
0.0088448
0.000238507
0.000250362
0.00899204
-0.00152985
0.00888536
-0.00154895
0.00879141
-0.00155855
0.00870978
-0.00155703
0.00864056
-0.00154372
0.0085837
-0.00152128
0.00853866
-0.00149134
0.00850458
-0.00145448
0.00848046
-0.00141135
0.00846525
-0.001363
0.00845785
-0.0013105
0.00845714
-0.00125479
0.00846201
-0.00119673
0.0084714
-0.00113709
0.00848432
-0.00107655
0.00849984
-0.00101574
0.00851729
-0.00095515
0.00853616
-0.000895128
0.0085557
-0.00083577
0.00857535
-0.000777391
0.00859471
-0.000720126
0.00861358
-0.000663851
0.00863188
-0.0006083
0.00864968
-0.000553235
0.00866714
-0.000498456
0.00868444
-0.000443735
0.00870166
-0.000388949
0.00871878
-0.000334387
0.0087357
-0.000280853
0.00875225
-0.000229318
0.00876822
-0.000180517
0.00878328
-0.000134774
0.0087971
-9.22708e-05
0.00880937
-5.31542e-05
0.00882008
-1.77255e-05
0.00882889
1.36847e-05
0.0088362
4.14521e-05
0.00884206
6.65023e-05
0.00884661
8.91356e-05
0.00884994
0.000110065
0.00885214
0.000129242
0.00885329
0.000147332
0.00885351
0.000163779
0.00885284
0.000179591
0.00885142
0.000193628
0.00884928
0.000207661
0.0088466
0.000219529
0.0088433
0.000232381
0.00883965
0.00024215
0.000254544
0.00900134
-0.0014067
0.00888983
-0.00143744
0.00878958
-0.00145829
0.00870046
-0.00146791
0.00862304
-0.0014663
0.00855761
-0.00145585
0.00850387
-0.0014376
0.00846117
-0.00141178
0.00842877
-0.00137895
0.00840578
-0.00134001
0.00839123
-0.00129595
0.00838409
-0.00124765
0.00838331
-0.00119595
0.00838787
-0.00114165
0.00839679
-0.00108547
0.00840913
-0.00102808
0.00842404
-0.000970065
0.00844084
-0.000911928
0.00845912
-0.000854044
0.00847824
-0.000796511
0.00849768
-0.000739567
0.00851711
-0.000683282
0.00853636
-0.000627556
0.00855542
-0.000572287
0.00857434
-0.00051738
0.00859324
-0.00046263
0.00861215
-0.000407858
0.00863104
-0.000353281
0.00864985
-0.00029966
0.00866846
-0.000247936
0.00868671
-0.000198766
0.0087043
-0.000152366
0.0087209
-0.000108869
0.00873621
-6.84616e-05
0.00875013
-3.1647e-05
0.00876236
1.45065e-06
0.00877332
3.04942e-05
0.008783
5.68227e-05
0.00879156
8.05767e-05
0.00879908
0.000102547
0.00880565
0.000122672
0.00881133
0.000141653
0.00881624
0.00015887
0.00882042
0.000175406
0.00882403
0.000190018
0.00882708
0.000204617
0.00882974
0.000216863
0.00883197
0.000230155
0.00883402
0.000240102
0.000252852
0.00895296
-0.00128566
0.00884183
-0.00132631
0.00874017
-0.00135663
0.00864818
-0.00137592
0.00856683
-0.00138495
0.00849668
-0.0013857
0.00843762
-0.00137855
0.0083893
-0.00136345
0.00835119
-0.00134084
0.00832262
-0.00131145
0.0083028
-0.00127612
0.0082908
-0.00123565
0.00828568
-0.00119084
0.00828651
-0.00114247
0.00829233
-0.00109129
0.00830224
-0.00103799
0.00831541
-0.00098323
0.00833105
-0.000927577
0.00834853
-0.000871517
0.00836747
-0.000815454
0.0083874
-0.000759501
0.00840785
-0.000703732
0.00842853
-0.000648235
0.00844933
-0.000593081
0.00847023
-0.000538287
0.00849128
-0.000483677
0.00851246
-0.000429036
0.00853371
-0.000374535
0.00855499
-0.000320936
0.00857622
-0.00026917
0.00859727
-0.000219814
0.00861786
-0.000172959
0.00863766
-0.000128668
0.00865639
-8.71893e-05
0.00867386
-4.91123e-05
0.00869004
-1.47302e-05
0.00870495
1.55793e-05
0.00871884
4.2935e-05
0.00873179
6.76282e-05
0.00874388
9.04535e-05
0.0087552
0.00011135
0.00876581
0.000131049
0.00877581
0.000148863
0.00878527
0.000165949
0.00879433
0.00018096
0.008803
0.000195947
0.00881147
0.000208392
0.00881969
0.000221938
0.00882791
0.000231882
0.000244793
0.0088629
-0.00116994
0.00875518
-0.00121858
0.00865501
-0.00125647
0.00856304
-0.00128394
0.00848057
-0.00130249
0.00840829
-0.00131341
0.00834624
-0.0013165
0.00829434
-0.00131155
0.00825234
-0.00129883
0.00821975
-0.00127887
0.00819596
-0.00125233
0.00818021
-0.0012199
0.00817169
-0.00118232
0.00816954
-0.00114033
0.00817291
-0.00109465
0.00818093
-0.00104602
0.0081928
-0.0009951
0.00820776
-0.000942531
0.00822511
-0.000888873
0.00824428
-0.000834619
0.00826491
-0.000780137
0.00828668
-0.000725498
0.00830915
-0.000670706
0.00833209
-0.000616016
0.0083554
-0.000561597
0.00837904
-0.000507324
0.00840296
-0.000452957
0.00842708
-0.000398654
0.00845134
-0.000345197
0.0084757
-0.000293525
0.00850002
-0.000244138
0.00852406
-0.000196993
0.00854747
-0.000152081
0.00856998
-0.000109702
0.00859144
-7.05675e-05
0.00861192
-3.52087e-05
0.00863113
-3.63856e-06
0.00864965
2.44199e-05
0.00866738
4.98989e-05
0.00868443
7.34028e-05
0.00870088
9.4895e-05
0.0087168
0.000115134
0.0087323
0.000133365
0.00874743
0.000150814
0.00876235
0.000166039
0.00877708
0.000181221
0.0087918
0.000193674
0.00880646
0.000207275
0.00882132
0.00021702
0.00022988
0.00874132
-0.00106133
0.00863859
-0.00111585
0.0085415
-0.00115938
0.00845131
-0.00119375
0.00836954
-0.00122072
0.00829681
-0.00124068
0.00823334
-0.00125303
0.0081793
-0.00125752
0.00813468
-0.00125421
0.00809919
-0.00124338
0.00807239
-0.00122553
0.00805371
-0.00120122
0.00804249
-0.00117109
0.00803798
-0.00113582
0.00803942
-0.00109609
0.00804602
-0.00105262
0.00805701
-0.00100609
0.00807165
-0.000957172
0.00808926
-0.000906477
0.00810922
-0.000854578
0.00813101
-0.000801929
0.0081543
-0.000748785
0.00817884
-0.000695246
0.00820427
-0.000641446
0.00823036
-0.000587695
0.00825701
-0.000533968
0.00828409
-0.000480043
0.00831152
-0.00042608
0.00833922