/*--------------------------------*- C++ -*----------------------------------*\
  =========                 |
  \\      /  F ield         | OpenFOAM: The Open Source CFD Toolbox
   \\    /   O peration     | Website:  https://openfoam.org
    \\  /    A nd           | Version:  7
     \\/     M anipulation  |
\*---------------------------------------------------------------------------*/
FoamFile
{
    version     2.0;
    format      ascii;
    class       volVectorField;
    location    "5";
    object      U;
}
// * * * * * * * * * * * * * * * * * * * * * * * * * * * * * * * * * * * * * //

dimensions      [0 1 -1 0 0 0 0];

internalField   nonuniform List<vector> 
6050
(
(-0.493029 0.0112 2.61924e-20)
(-0.533789 0.00876795 -3.68658e-20)
(-0.561401 0.00541089 2.16731e-20)
(-0.573117 0.00104502 1.1331e-20)
(-0.566085 -0.0043436 3.86555e-21)
(-0.538028 -0.0106188 -1.13825e-20)
(-0.48792 -0.0176327 -5.53604e-21)
(-0.416333 -0.0245936 -3.02762e-21)
(-0.325556 -0.0308116 1.00816e-20)
(-0.221493 -0.0354952 -7.74278e-21)
(-0.104825 -0.0388155 -5.00088e-22)
(0.00843948 -0.0390336 3.83634e-22)
(0.128407 -0.0404474 -1.68728e-22)
(-0.470584 0.0332002 -1.14655e-19)
(-0.505432 0.0259425 7.17894e-20)
(-0.526534 0.0159581 -5.68026e-20)
(-0.531309 0.00300577 7.32873e-21)
(-0.517118 -0.0129714 -3.10494e-20)
(-0.48207 -0.0316134 1.00264e-20)
(-0.425296 -0.0522261 1.74947e-20)
(-0.347593 -0.0727057 2.53725e-20)
(-0.251505 -0.0908943 1.24757e-20)
(-0.144137 -0.10454 2.41436e-20)
(-0.0244386 -0.113534 9.55316e-22)
(0.0868724 -0.114303 -5.86406e-21)
(0.210197 -0.117376 -8.18884e-22)
(-0.427361 0.0540536 9.24636e-21)
(-0.45115 0.0420936 -2.75753e-20)
(-0.460267 0.0257555 5.61438e-20)
(-0.452534 0.00467539 -1.70152e-20)
(-0.425787 -0.0212649 1.85707e-20)
(-0.378786 -0.0515492 -1.93255e-20)
(-0.311066 -0.0846941 -3.16904e-20)
(-0.223974 -0.117646 -2.75478e-20)
(-0.120332 -0.146424 -2.8041e-20)
(-0.00892159 -0.167956 -4.06694e-20)
(0.113318 -0.180587 7.73399e-21)
(0.219537 -0.181819 2.81456e-21)
(0.344396 -0.184002 3.1928e-21)
(-0.36638 0.0731036 -8.60087e-21)
(-0.375236 0.0566729 -2.5955e-21)
(-0.368529 0.0344658 -1.6579e-19)
(-0.344746 0.00607697 -7.80926e-20)
(-0.302455 -0.0285782 3.60116e-20)
(-0.241134 -0.0693473 3.2332e-21)
(-0.161022 -0.113553 3.11835e-20)
(-0.0641723 -0.157469 -7.33361e-20)
(0.0459592 -0.194342 2.39003e-20)
(0.159585 -0.222297 2.73632e-20)
(0.280332 -0.236821 1.63515e-20)
(0.377847 -0.238003 -6.7882e-21)
(0.497248 -0.236665 -3.74283e-21)
(-0.291551 0.089802 -6.72521e-21)
(-0.283078 0.0692399 -3.37339e-21)
(-0.258475 0.0418234 3.26914e-20)
(-0.217019 0.00711559 4.87656e-20)
(-0.158407 -0.035039 -1.31307e-19)
(-0.0825564 -0.0844134 1.52282e-19)
(0.00962489 -0.137639 7.53516e-20)
(0.1153 -0.19014 8.95628e-20)
(0.22954 -0.232964 -1.16245e-21)
(0.341663 -0.2653 -1.33889e-20)
(0.455421 -0.27999 3.29928e-21)
(0.541132 -0.280531 -6.13223e-21)
(0.646928 -0.273686 -9.92882e-21)
(-0.180487 0.0794385 1.25982e-20)
(-0.137617 0.0475848 3.47747e-20)
(-0.0787608 0.00769214 2.83298e-19)
(-0.00438457 -0.040666 -3.20912e-21)
(0.0852396 -0.0965415 9.22343e-20)
(0.188472 -0.156474 -2.00075e-19)
(0.301031 -0.214983 2.54896e-20)
(0.416389 -0.261801 -2.42484e-20)
(0.523418 -0.296094 -1.31826e-20)
(0.624856 -0.308987 1.41814e-20)
(0.695777 -0.308321 -1.97599e-20)
(0.781619 -0.295133 8.07168e-21)
(-0.0731239 0.0869721 -1.81719e-19)
(-0.0129026 0.051438 2.23235e-20)
(0.0619046 0.00743804 -5.77045e-20)
(0.150541 -0.0453997 9.06995e-20)
(0.252719 -0.106146 7.83164e-22)
(0.365763 -0.170624 -6.95564e-20)
(0.48329 -0.232843 1.65856e-19)
(0.596538 -0.280858 -5.52941e-20)
(0.694454 -0.314582 -3.42361e-20)
(0.779146 -0.324141 4.465e-20)
(0.83266 -0.321766 1.00081e-20)
(0.895001 -0.302591 3.35964e-20)
(0.0339591 0.0915175 5.53404e-19)
(0.109735 0.0530063 7.72324e-21)
(0.19871 0.00583802 -3.66048e-19)
(0.300283 -0.0501995 -3.94577e-20)
(0.414105 -0.114347 -3.33902e-19)
(0.53581 -0.18126 1.43463e-19)
(0.655717 -0.2443 -9.55806e-20)
(0.762933 -0.290651 8.44651e-20)
(0.847363 -0.321486 8.96552e-20)
(0.912056 -0.326757 2.50298e-20)
(0.946506 -0.322514 -5.43127e-20)
(0.984876 -0.298669 -2.54153e-20)
(0.136811 0.0927802 -4.51553e-19)
(0.226291 0.0519699 -1.31892e-19)
(0.328139 0.0024461 8.50809e-20)
(0.442296 -0.055934 1.51508e-19)
(0.567512 -0.121924 -4.12304e-20)
(0.696081 -0.188862 1.59228e-19)
(0.814354 -0.249633 7.07559e-21)
(0.910609 -0.291702 -1.29686e-19)
(0.977314 -0.317937 -1.09698e-21)
(1.02028 -0.318767 -1.08281e-19)
(1.03562 -0.313072 1.61906e-20)
(1.05234 -0.286417 -2.79571e-20)
(0.233082 0.0905824 2.10279e-19)
(0.335269 0.048022 -1.73959e-19)
(0.450131 -0.00322271 2.7526e-19)
(0.577666 -0.0629021 2.63198e-19)
(0.713628 -0.128729 3.20531e-19)
(0.845232 -0.192963 -2.87106e-19)
(0.955922 -0.248567 2.95023e-20)
(1.03576 -0.284525 1.80751e-19)
(1.08166 -0.305479 -6.36357e-20)
(1.10318 -0.302569 -1.63532e-21)
(1.10134 -0.296351 -3.01205e-21)
(1.10066 -0.268796 2.97262e-20)
(0.32266 0.0848318 -2.23569e-19)
(0.438267 0.0410527 -3.46791e-20)
(0.56788 -0.0110311 -1.19948e-19)
(0.709442 -0.0704319 -8.09025e-20)
(0.853032 -0.133588 -1.78898e-19)
(0.980865 -0.192469 -7.79297e-20)
(1.07683 -0.240848 2.82253e-20)
(1.13573 -0.270115 -1.11814e-19)
(1.16006 -0.286186 1.15898e-20)
(1.16263 -0.28084 3.38691e-21)
(1.14715 -0.2752 -4.86456e-20)
(1.13411 -0.248283 2.22913e-20)
(0.539754 0.0315927 -1.15184e-19)
(0.686019 -0.0198924 3.70617e-19)
(0.839516 -0.0768578 -4.11666e-19)
(0.983619 -0.134804 -3.49718e-19)
(1.0988 -0.186488 4.48548e-19)
(1.17379 -0.226936 -8.74579e-20)
(1.2099 -0.250183 4.1904e-20)
(1.21469 -0.262477 5.10904e-20)
(1.20247 -0.256166 -2.70155e-20)
(1.17761 -0.251979 7.0995e-20)
(1.15687 -0.226677 7.2165e-20)
(0.645289 0.0210677 1.85721e-19)
(0.807311 -0.0278245 -2.10569e-19)
(0.965807 -0.0801165 -7.94689e-20)
(1.1002 -0.131108 2.73296e-19)
(1.19454 -0.175081 -3.2254e-19)
(1.24549 -0.208208 -2.07047e-20)
(1.26028 -0.226884 1.01691e-19)
(1.24971 -0.236664 -3.44978e-20)
(1.22743 -0.230644 -3.59128e-20)
(1.19721 -0.228336 5.17112e-21)
(1.17239 -0.205124 -3.75207e-20)
(0.758219 0.0116845 -3.7295e-19)
(0.929705 -0.0326347 2.19001e-19)
(1.08213 -0.0787694 1.31428e-19)
(1.19682 -0.122399 -1.50957e-19)
(1.26578 -0.159385 2.21103e-19)
(1.29359 -0.186586 1.47506e-19)
(1.29111 -0.202285 -3.88759e-20)
(1.27016 -0.210542 -5.11806e-21)
(1.24204 -0.205701 -1.0894e-20)
(1.20959 -0.205243 -1.08828e-19)
(1.18315 -0.184289 -1.2357e-19)
(0.876686 0.00566365 1.56796e-19)
(1.0463 -0.0329417 -1.2871e-19)
(1.18113 -0.072691 8.64143e-20)
(1.26994 -0.109746 6.94716e-20)
(1.3136 -0.14111 -4.48698e-20)
(1.32222 -0.163928 1.05395e-19)
(1.30754 -0.177936 -9.6641e-20)
(1.2807 -0.185252 1.1321e-19)
(1.24986 -0.18215 1.81059e-19)
(1.21736 -0.183166 7.35283e-20)
(1.19075 -0.164539 1.03746e-19)
(1.14865 -0.0287373 1.27821e-20)
(1.25803 -0.0629177 4.64725e-20)
(1.31989 -0.0947444 -7.47887e-20)
(1.34192 -0.121878 -1.72788e-19)
(1.33649 -0.141614 -3.68718e-21)
(1.31432 -0.154748 1.70706e-19)
(1.28492 -0.161388 -1.26095e-19)
(1.25342 -0.160367 -2.50881e-19)
(1.22219 -0.162249 -1.62466e-19)
(1.19617 -0.146064 5.96174e-20)
(1.23079 -0.0210937 -3.39352e-19)
(1.31226 -0.0509366 2.48821e-19)
(1.35017 -0.0788505 2.70739e-20)
(1.35576 -0.10285 7.20071e-20)
(1.34113 -0.120461 -1.48985e-19)
(1.31513 -0.133113 -4.05791e-20)
(1.2853 -0.139198 -3.50639e-20)
(1.25431 -0.140448 2.84206e-20)
(1.22511 -0.142414 1.01021e-19)
(1.19988 -0.128947 -1.78305e-19)
(1.34669 -0.0380495 -1.17035e-19)
(1.36559 -0.0630658 2.98724e-20)
(1.35983 -0.0847002 -1.61016e-19)
(1.33984 -0.100839 -1.51891e-20)
(1.31248 -0.113094 2.4522e-20)
(1.28336 -0.118779 -1.88503e-20)
(1.25358 -0.122287 2.15077e-19)
(1.22665 -0.123415 8.0774e-21)
(1.20208 -0.113293 1.77864e-19)
(1.36572 -0.0251259 -4.45193e-20)
(1.37074 -0.0479454 -1.38691e-19)
(1.35778 -0.067738 -2.34196e-19)
(1.33515 -0.0828173 -3.45884e-21)
(1.30795 -0.0946126 -8.89985e-20)
(1.28006 -0.100172 7.1081e-20)
(1.2519 -0.105563 -3.53623e-20)
(1.22702 -0.105006 -2.27864e-19)
(1.20287 -0.0994586 -7.86835e-20)
(1.36932 -0.0337292 2.09876e-19)
(1.3522 -0.0520444 2.9735e-19)
(1.32869 -0.0663032 -4.32921e-20)
(1.30244 -0.077577 6.1746e-20)
(1.27601 -0.0833326 -1.94446e-20)
(1.2497 -0.0897745 1.16659e-19)
(1.22632 -0.0873816 5.13295e-20)
(1.20258 -0.0880549 5.25073e-20)
(1.36397 -0.0204659 2.22448e-20)
(1.34476 -0.0375668 7.88089e-20)
(1.3214 -0.0511386 -1.48325e-20)
(1.29645 -0.0619197 1.22849e-19)
(1.27156 -0.0680486 1.08924e-20)
(1.24718 -0.0745467 -2.7089e-19)
(1.22489 -0.071644 1.07984e-19)
(1.20089 -0.0810781 -9.60168e-20)
(1.33645 -0.0241789 -2.98332e-20)
(1.3138 -0.0371616 -2.89693e-20)
(1.29024 -0.0475464 -1.94848e-20)
(1.26691 -0.0539864 1.13961e-19)
(1.24424 -0.0601196 7.67147e-20)
(1.22272 -0.0594605 2.11414e-20)
(1.20287 -0.0652006 5.46401e-20)
(1.32785 -0.0117754 -3.12639e-20)
(1.30614 -0.0242627 -1.10578e-20)
(1.28395 -0.0343301 1.01027e-19)
(1.26209 -0.0409452 -4.98194e-20)
(1.24081 -0.0473025 -5.448e-20)
(1.22108 -0.0467778 -1.09396e-19)
(1.20149 -0.0541063 -6.78144e-20)
(1.29856 -0.0123108 3.40056e-21)
(1.27765 -0.0221136 -1.30087e-19)
(1.25708 -0.0290257 3.03065e-20)
(1.23728 -0.0351518 -5.44748e-20)
(1.21832 -0.0361184 -1.89853e-19)
(1.20083 -0.0430148 9.59637e-20)
(1.27134 -0.0108426 7.04335e-20)
(1.25199 -0.0179252 -1.61112e-20)
(1.23329 -0.0242321 1.83436e-19)
(1.21565 -0.0258691 1.63201e-19)
(1.19902 -0.0326472 6.13664e-20)
(1.24674 -0.00771678 -5.4518e-21)
(1.22918 -0.0140256 -1.25368e-19)
(1.21238 -0.0165609 -4.51351e-20)
(1.19691 -0.0233017 -6.04698e-20)
(1.22477 -0.00466919 -9.07415e-21)
(1.20894 -0.0079213 1.09766e-19)
(1.19431 -0.0144807 1.12127e-19)
(1.20517 8.50367e-05 -6.52005e-20)
(1.19134 -0.00646934 -2.31781e-20)
(1.20517 -8.50369e-05 -2.26748e-20)
(1.19134 0.00646934 -1.57642e-19)
(1.22477 0.00466919 5.74014e-20)
(1.20894 0.0079213 1.18191e-19)
(1.19431 0.0144807 6.07841e-20)
(1.24674 0.00771678 7.93124e-20)
(1.22918 0.0140256 -6.11666e-20)
(1.21238 0.0165609 -9.60611e-20)
(1.19691 0.0233017 1.38444e-20)
(1.27134 0.0108426 -1.79291e-19)
(1.25199 0.0179252 -2.39259e-21)
(1.23329 0.0242321 2.05299e-19)
(1.21565 0.0258691 7.87264e-20)
(1.19902 0.0326472 6.43084e-20)
(1.29856 0.0123108 -4.45031e-20)
(1.27765 0.0221136 2.80924e-20)
(1.25708 0.0290257 -2.44391e-20)
(1.23728 0.0351518 2.10429e-20)
(1.21832 0.0361184 -1.23231e-19)
(1.20083 0.0430148 5.76446e-20)
(1.32785 0.0117754 3.39287e-21)
(1.30614 0.0242627 8.64884e-20)
(1.28395 0.0343301 3.73339e-20)
(1.26209 0.0409452 -8.83383e-20)
(1.24081 0.0473025 -1.65561e-20)
(1.22108 0.0467778 -8.55695e-21)
(1.20149 0.0541063 -1.13291e-19)
(1.33645 0.0241789 -1.33538e-20)
(1.3138 0.0371616 4.28899e-21)
(1.29024 0.0475464 -5.46e-20)
(1.26691 0.0539864 4.54688e-20)
(1.24424 0.0601196 3.33487e-20)
(1.22272 0.0594605 2.39126e-21)
(1.20287 0.0652006 8.49341e-20)
(1.36397 0.0204659 -1.22925e-19)
(1.34476 0.0375668 -1.77452e-19)
(1.3214 0.0511386 1.33462e-19)
(1.29645 0.0619197 7.95037e-20)
(1.27156 0.0680486 -3.20255e-20)
(1.24718 0.0745467 -2.49335e-19)
(1.22489 0.071644 2.64263e-20)
(1.20089 0.0810781 1.20369e-20)
(1.36932 0.0337292 2.36587e-19)
(1.3522 0.0520444 2.3496e-19)
(1.32869 0.0663032 -7.4532e-20)
(1.30244 0.077577 1.6771e-20)
(1.27601 0.0833326 4.56333e-20)
(1.2497 0.0897745 3.97497e-20)
(1.22632 0.0873816 1.08338e-19)
(1.20258 0.0880549 3.46914e-20)
(1.36572 0.0251259 -7.09126e-20)
(1.37074 0.0479454 -1.08269e-19)
(1.35778 0.067738 -1.61585e-19)
(1.33515 0.0828173 3.33042e-20)
(1.30795 0.0946126 -1.28809e-19)
(1.28006 0.100172 -3.64831e-21)
(1.2519 0.105563 -8.0849e-20)
(1.22702 0.105006 -1.0404e-19)
(1.20287 0.0994586 -6.24278e-20)
(1.34669 0.0380495 4.96954e-20)
(1.36559 0.0630658 -6.42019e-20)
(1.35983 0.0847002 -1.36042e-19)
(1.33984 0.100839 -7.74235e-20)
(1.31248 0.113094 1.11495e-19)
(1.28336 0.118779 -6.28689e-20)
(1.25358 0.122287 2.58384e-19)
(1.22665 0.123415 1.16159e-19)
(1.20208 0.113293 1.41851e-20)
(1.23079 0.0210937 4.39467e-20)
(1.31226 0.0509366 -2.06353e-20)
(1.35017 0.0788505 -6.36665e-20)
(1.35576 0.10285 3.17566e-19)
(1.34113 0.120461 -1.92762e-19)
(1.31513 0.133113 -1.56669e-19)
(1.2853 0.139198 3.21621e-20)
(1.25431 0.140448 2.35711e-20)
(1.22511 0.142414 2.54938e-19)
(1.19988 0.128947 -2.24428e-19)
(1.14865 0.0287373 1.79504e-19)
(1.25803 0.0629177 1.85752e-20)
(1.31989 0.0947444 -4.33557e-20)
(1.34192 0.121878 -1.27488e-19)
(1.33649 0.141614 3.87354e-20)
(1.31432 0.154748 7.83183e-20)
(1.28492 0.161388 -1.07725e-19)
(1.25342 0.160367 -2.24758e-19)
(1.22219 0.162249 -1.14523e-19)
(1.19617 0.146064 4.6506e-20)
(0.876686 -0.00566366 6.89678e-19)
(1.0463 0.0329417 -3.03334e-19)
(1.18113 0.072691 1.85867e-20)
(1.26994 0.109746 2.0005e-19)
(1.3136 0.14111 1.37758e-19)
(1.32222 0.163928 -9.12782e-20)
(1.30754 0.177936 3.12956e-20)
(1.2807 0.185252 8.44313e-20)
(1.24986 0.18215 5.67002e-20)
(1.21736 0.183166 9.7134e-20)
(1.19075 0.164539 1.8337e-19)
(0.758219 -0.0116846 -4.28248e-19)
(0.929705 0.0326347 2.66578e-19)
(1.08213 0.0787694 1.79666e-19)
(1.19682 0.122399 -3.33812e-19)
(1.26578 0.159385 4.28914e-19)
(1.29359 0.186586 -3.36798e-20)
(1.29111 0.202285 -5.90743e-20)
(1.27016 0.210542 -3.05987e-20)
(1.24204 0.205701 -5.86993e-21)
(1.20959 0.205243 -1.39663e-20)
(1.18315 0.184289 -7.22331e-20)
(0.645289 -0.0210677 1.64943e-19)
(0.807311 0.0278245 -2.01719e-19)
(0.965807 0.0801165 -9.31541e-20)
(1.1002 0.131108 2.81635e-19)
(1.19454 0.175081 -4.23812e-19)
(1.24549 0.208208 -3.23237e-21)
(1.26028 0.226884 1.40504e-19)
(1.24971 0.236664 -7.49133e-20)
(1.22743 0.230644 5.00491e-20)
(1.19721 0.228336 -9.08483e-20)
(1.17239 0.205124 -5.77994e-20)
(0.539754 -0.0315927 8.3426e-20)
(0.686019 0.0198924 2.19e-19)
(0.839516 0.0768578 -3.34054e-19)
(0.983619 0.134804 -3.34819e-19)
(1.0988 0.186488 4.00871e-19)
(1.17379 0.226936 -8.42724e-20)
(1.2099 0.250183 1.10997e-19)
(1.21469 0.262477 7.25679e-20)
(1.20247 0.256166 -1.02779e-19)
(1.17761 0.251979 8.00933e-20)
(1.15687 0.226677 5.23483e-20)
(0.32266 -0.0848319 3.1902e-19)
(0.438267 -0.0410527 1.0192e-19)
(0.56788 0.0110311 -4.46268e-19)
(0.709442 0.0704319 8.07879e-20)
(0.853032 0.133588 -2.51005e-19)
(0.980865 0.192469 -1.65238e-20)
(1.07683 0.240848 8.22717e-20)
(1.13573 0.270115 -1.40756e-19)
(1.16006 0.286186 -3.09748e-20)
(1.16263 0.28084 -2.07e-20)
(1.14715 0.2752 8.46948e-21)
(1.13411 0.248283 -1.43345e-20)
(0.233082 -0.0905824 2.01797e-19)
(0.335269 -0.0480221 -1.07102e-19)
(0.450131 0.0032227 3.99897e-19)
(0.577666 0.062902 -4.75474e-20)
(0.713628 0.128729 3.4539e-19)
(0.845232 0.192963 -7.89902e-20)
(0.955922 0.248567 4.45207e-20)
(1.03576 0.284525 -5.4544e-20)
(1.08166 0.305479 5.82891e-20)
(1.10318 0.302569 2.42446e-20)
(1.10134 0.296351 9.821e-21)
(1.10066 0.268796 -2.06985e-20)
(0.136811 -0.0927802 -5.62725e-19)
(0.226291 -0.0519699 -6.95481e-20)
(0.328139 -0.00244612 9.9183e-20)
(0.442296 0.0559339 1.46509e-19)
(0.567512 0.121924 1.50631e-19)
(0.696081 0.188862 1.89412e-20)
(0.814354 0.249633 -1.39077e-20)
(0.910609 0.291702 -1.88798e-19)
(0.977314 0.317937 -1.41836e-20)
(1.02028 0.318767 2.82476e-20)
(1.03562 0.313072 -4.52395e-20)
(1.05234 0.286417 -5.0661e-20)
(0.0339591 -0.0915175 3.86581e-19)
(0.109735 -0.0530063 -5.46978e-20)
(0.19871 -0.00583803 -2.83236e-19)
(0.300283 0.0501995 -2.13146e-19)
(0.414105 0.114347 -6.90507e-20)
(0.53581 0.18126 -6.98306e-20)
(0.655717 0.2443 5.33285e-20)
(0.762933 0.290651 5.78134e-20)
(0.847363 0.321486 6.59567e-20)
(0.912056 0.326757 3.45813e-21)
(0.946506 0.322514 6.09788e-21)
(0.984876 0.298669 -3.54508e-20)
(-0.073124 -0.0869722 -2.33222e-19)
(-0.0129026 -0.051438 1.53754e-19)
(0.0619046 -0.00743806 -5.60519e-20)
(0.150541 0.0453997 1.08966e-19)
(0.252719 0.106146 -2.12392e-20)
(0.365763 0.170624 -2.87e-20)
(0.48329 0.232843 7.20493e-20)
(0.596538 0.280858 -5.21181e-20)
(0.694454 0.314582 3.81736e-20)
(0.779146 0.324141 9.59425e-22)
(0.83266 0.321766 1.55733e-20)
(0.895001 0.302591 5.34241e-20)
(-0.180487 -0.0794385 4.70168e-20)
(-0.137617 -0.0475849 9.24394e-20)
(-0.0787608 -0.00769216 2.19733e-19)
(-0.00438459 0.040666 -6.49456e-20)
(0.0852396 0.0965414 7.48641e-20)
(0.188472 0.156474 -8.23546e-20)
(0.301031 0.214983 -7.13429e-20)
(0.416389 0.261801 7.44149e-20)
(0.523418 0.296094 -1.8184e-20)
(0.624856 0.308987 -4.70791e-20)
(0.695777 0.308321 2.028e-20)
(0.781619 0.295133 -1.44617e-20)
(-0.291551 -0.089802 1.53907e-19)
(-0.283078 -0.0692399 -2.3954e-20)
(-0.258475 -0.0418234 7.66006e-21)
(-0.217019 -0.00711561 -3.0247e-20)
(-0.158407 0.035039 -3.50606e-21)
(-0.0825564 0.0844134 1.21383e-19)
(0.00962487 0.137639 1.23496e-19)
(0.1153 0.19014 1.18681e-20)
(0.22954 0.232964 3.80097e-20)
(0.341663 0.2653 -5.60161e-20)
(0.455421 0.27999 5.0608e-20)
(0.541132 0.280531 -3.57105e-20)
(0.646928 0.273686 -5.93557e-21)
(-0.36638 -0.0731036 2.08195e-20)
(-0.375236 -0.0566729 -4.38482e-20)
(-0.368529 -0.0344658 -7.81135e-20)
(-0.344746 -0.00607698 -1.21818e-19)
(-0.302455 0.0285782 6.47135e-20)
(-0.241134 0.0693473 -1.65984e-20)
(-0.161022 0.113553 6.90653e-20)
(-0.0641723 0.157469 -1.0428e-19)
(0.0459592 0.194342 3.47029e-20)
(0.159585 0.222297 2.77445e-20)
(0.280332 0.236821 -1.90968e-20)
(0.377847 0.238003 1.3669e-20)
(0.497248 0.236665 -4.95952e-21)
(-0.427361 -0.0540536 -9.15858e-21)
(-0.45115 -0.0420936 -5.06408e-20)
(-0.460267 -0.0257555 2.27925e-20)
(-0.452534 -0.00467541 2.6276e-20)
(-0.425787 0.0212648 3.87428e-20)
(-0.378786 0.0515491 -4.75324e-20)
(-0.311066 0.0846941 -1.97105e-20)
(-0.223974 0.117646 2.75033e-21)
(-0.120332 0.146424 -6.28775e-20)
(-0.0089216 0.167956 -2.186e-20)
(0.113318 0.180587 -7.32561e-21)
(0.219537 0.181819 1.3834e-20)
(0.344396 0.184002 2.07164e-21)
(-0.470584 -0.0332002 -9.89779e-20)
(-0.505432 -0.0259425 7.03523e-20)
(-0.526534 -0.0159581 -5.79158e-20)
(-0.531309 -0.00300579 3.24222e-20)
(-0.517118 0.0129714 -4.37954e-20)
(-0.48207 0.0316134 -6.78586e-21)
(-0.425296 0.0522261 1.0866e-20)
(-0.347593 0.0727057 3.31486e-20)
(-0.251505 0.0908943 1.54231e-20)
(-0.144137 0.10454 2.80167e-20)
(-0.0244386 0.113534 -5.4783e-21)
(0.0868724 0.114303 -3.26653e-21)
(0.210197 0.117376 3.97386e-22)
(-0.493029 -0.0112 2.79249e-20)
(-0.533789 -0.00876796 -3.12493e-20)
(-0.561401 -0.0054109 1.22417e-20)
(-0.573117 -0.00104504 2.46341e-20)
(-0.566085 0.00434358 -1.09135e-20)
(-0.538028 0.0106188 1.93856e-21)
(-0.48792 0.0176327 -1.28904e-20)
(-0.416333 0.0245936 -2.3849e-21)
(-0.325556 0.0308116 8.20463e-21)
(-0.221493 0.0354951 -3.76459e-21)
(-0.104825 0.0388155 -3.0466e-21)
(0.00843948 0.0390336 -3.81192e-22)
(0.128407 0.0404474 6.03764e-22)
(0.207659 -0.0370764 8.93652e-22)
(0.257715 -0.0347031 -4.5652e-22)
(0.305443 -0.0324694 9.7881e-22)
(0.351389 -0.0303418 -1.85406e-21)
(0.395675 -0.0282632 9.40781e-22)
(0.438186 -0.026232 6.05796e-22)
(0.478815 -0.024272 -8.43984e-22)
(0.517526 -0.022405 2.8332e-22)
(0.554327 -0.0206422 -6.70185e-22)
(0.589243 -0.0189843 -1.61529e-22)
(0.622311 -0.0174327 1.27329e-21)
(0.653582 -0.015989 -3.75687e-23)
(0.683122 -0.014653 -7.93656e-22)
(0.711005 -0.0134217 -5.22725e-22)
(0.737314 -0.0122896 -3.58862e-23)
(0.762133 -0.0112493 1.29463e-21)
(0.785537 -0.0102917 -1.03847e-22)
(0.807596 -0.00940608 -5.58056e-22)
(0.828361 -0.0085802 2.59484e-22)
(0.847862 -0.00780121 -4.02276e-22)
(0.866107 -0.00705665 5.15177e-22)
(0.883073 -0.00633609 2.06124e-22)
(0.898719 -0.00563302 -3.45643e-22)
(0.912989 -0.00494639 2.62303e-22)
(0.925831 -0.00428105 -3.12668e-22)
(0.937213 -0.00364683 3.43813e-23)
(0.947137 -0.00305648 1.0309e-22)
(0.955654 -0.00252276 -3.41585e-23)
(0.962857 -0.00205545 -9.2156e-24)
(0.968882 -0.00165899 3.8143e-24)
(0.973883 -0.00133194 2.6136e-23)
(0.978023 -0.00106805 -2.49067e-23)
(0.98145 -0.000858602 -7.54425e-23)
(0.984294 -0.000693732 2.41886e-23)
(0.98667 -0.000564322 3.56593e-24)
(0.988683 -0.000462858 6.44625e-24)
(0.990396 -0.00038274 -1.08597e-23)
(0.99187 -0.000318093 2.5079e-24)
(0.99313 -0.000265306 2.39389e-24)
(0.994229 -0.000221052 -7.05154e-24)
(0.995156 -0.000184272 -2.9005e-24)
(0.995976 -0.000152746 5.73397e-24)
(0.996645 -0.000126991 -3.14899e-24)
(0.997262 -0.000104497 -3.94248e-24)
(0.997726 -8.70935e-05 1.40843e-24)
(0.998205 -7.10831e-05 -1.38076e-24)
(0.998502 -6.02322e-05 -2.27709e-24)
(0.998908 -4.85813e-05 -1.22721e-24)
(0.999055 -4.32293e-05 -2.00864e-25)
(0.999459 -3.40698e-05 2.3661e-28)
(0.28264 -0.107566 2.05726e-21)
(0.327951 -0.100731 1.22766e-21)
(0.370858 -0.094292 -4.37799e-21)
(0.412249 -0.0881193 3.80994e-21)
(0.452216 -0.0820657 -2.50264e-23)
(0.490566 -0.0761444 -2.72001e-21)
(0.527169 -0.0704298 2.33752e-21)
(0.562003 -0.064982 -1.32682e-21)
(0.595095 -0.0598365 -1.80691e-21)
(0.626475 -0.055005 2.53366e-21)
(0.656175 -0.0504888 -4.64686e-21)
(0.68424 -0.0462907 3.34598e-21)
(0.710734 -0.0424094 2.58212e-21)
(0.735729 -0.038836 -2.28852e-21)
(0.759305 -0.0355544 -4.51041e-22)
(0.78154 -0.0325432 9.95227e-22)
(0.802511 -0.029776 7.06294e-22)
(0.822286 -0.0272212 -2.07502e-22)
(0.84092 -0.0248436 -1.13998e-21)
(0.858448 -0.0226055 1.08005e-21)
(0.874886 -0.0204697 2.00047e-22)
(0.890222 -0.0184047 -1.04136e-21)
(0.904423 -0.0163899 8.07925e-22)
(0.917441 -0.0144204 -7.47964e-22)
(0.929224 -0.0125086 3.17345e-22)
(0.939737 -0.0106816 3.13218e-22)
(0.948972 -0.00897579 -5.60395e-22)
(0.956957 -0.0074285 1.48672e-22)
(0.963767 -0.006069 -5.70687e-23)
(0.969509 -0.00491145 1.32977e-22)
(0.974313 -0.00395308 1.10238e-23)
(0.978319 -0.003177 3.4782e-23)
(0.981657 -0.00255884 -6.67959e-23)
(0.984442 -0.00207071 1.06213e-22)
(0.986779 -0.00168635 4.28725e-23)
(0.988765 -0.0013843 -8.93531e-23)
(0.990459 -0.00114536 5.78598e-23)
(0.99192 -0.000952277 -2.51145e-23)
(0.99317 -0.00079446 -8.76257e-25)
(0.99426 -0.000662057 -2.19395e-24)
(0.995181 -0.000551964 2.66123e-23)
(0.995997 -0.000457567 -1.63025e-23)
(0.996662 -0.000380433 1.68807e-23)
(0.997275 -0.000313051 -1.1391e-23)
(0.997737 -0.000260915 -5.15769e-24)
(0.998214 -0.000212945 2.50714e-24)
(0.998509 -0.000180435 1.36217e-24)
(0.998913 -0.000145524 3.33356e-25)
(0.99906 -0.000129489 1.35881e-24)
(0.999462 -0.000102047 1.61717e-25)
(0.405658 -0.168702 1.23155e-21)
(0.443002 -0.158151 -2.14763e-21)
(0.477908 -0.148148 -9.86889e-22)
(0.511798 -0.138463 4.44268e-21)
(0.544682 -0.128915 -1.87182e-21)
(0.576233 -0.119563 1.29734e-21)
(0.60629 -0.110534 4.11933e-22)
(0.634847 -0.101917 -1.70041e-21)
(0.661944 -0.0937655 -1.37603e-21)
(0.687622 -0.0861168 -1.27195e-21)
(0.711908 -0.0789829 6.19633e-21)
(0.734832 -0.0723623 -6.81679e-21)
(0.756446 -0.0662489 6.84414e-21)
(0.776813 -0.0606286 -2.11608e-21)
(0.796001 -0.0554771 -3.69235e-21)
(0.814083 -0.0507611 3.86484e-21)
(0.831125 -0.0464393 -9.66421e-22)
(0.847195 -0.0424632 1.43719e-21)
(0.86235 -0.0387776 -3.5385e-21)
(0.876634 -0.0353227 4.11952e-22)
(0.890077 -0.0320385 4.96229e-22)
(0.902686 -0.0288721 -3.02793e-22)
(0.914447 -0.0257861 8.42911e-22)
(0.925327 -0.0227671 -2.00819e-22)
(0.935286 -0.0198287 -3.3803e-22)
(0.944288 -0.0170091 8.19472e-22)
(0.952308 -0.0143625 -2.32052e-22)
(0.959352 -0.0119472 2.1871e-22)
(0.965454 -0.00981114 -2.43315e-22)
(0.970683 -0.00798003 5.29098e-22)
(0.975127 -0.00645348 1.96895e-22)
(0.978885 -0.00520865 -4.71033e-22)
(0.982056 -0.00421044 1.23461e-22)
(0.984731 -0.00341722 -1.02783e-22)
(0.986993 -0.00278901 9.93026e-23)
(0.988927 -0.00229315 2.39988e-23)
(0.990584 -0.00189949 -1.23645e-22)
(0.992019 -0.00158049 7.60057e-23)
(0.993249 -0.00131924 -1.74341e-23)
(0.994323 -0.00109975 8.47215e-24)
(0.995233 -0.000917089 -7.78149e-24)
(0.996038 -0.000760359 -3.74779e-23)
(0.996695 -0.000632242 -2.10109e-23)
(0.997302 -0.000520276 1.27125e-23)
(0.997759 -0.000433632 2.44995e-24)
(0.998231 -0.000353888 2.17697e-24)
(0.998524 -0.000299848 1.49848e-24)
(0.998924 -0.000241807 1.52822e-24)
(0.999069 -0.000215153 2.53477e-24)
(0.999467 -0.00016954 7.00526e-26)
(0.54506 -0.217445 -1.53813e-22)
(0.572857 -0.204247 1.55166e-21)
(0.598266 -0.19158 -1.83881e-21)
(0.623319 -0.179153 -5.0665e-21)
(0.647945 -0.166818 7.97084e-21)
(0.671651 -0.154707 1.1034e-21)
(0.694239 -0.142998 -7.11059e-21)
(0.715717 -0.131806 5.62842e-21)
(0.736119 -0.121193 3.66232e-21)
(0.755472 -0.111211 -2.81039e-21)
(0.773801 -0.101906 -2.10212e-21)
(0.79112 -0.0932837 -1.39516e-21)
(0.807452 -0.0853293 9.28631e-22)
(0.822834 -0.0780213 3.49823e-21)
(0.837314 -0.0713303 -6.16592e-21)
(0.850941 -0.0652167 6.09187e-21)
(0.863767 -0.0596301 -9.75257e-22)
(0.875846 -0.0545106 -2.58071e-21)
(0.887229 -0.0497893 1.99157e-21)
(0.897966 -0.0453903 -4.04394e-21)
(0.908097 -0.0412352 5.88918e-22)
(0.91765 -0.0372509 2.94957e-22)
(0.926634 -0.0333817 5.58087e-22)
(0.935045 -0.0296001 3.5544e-22)
(0.942862 -0.0259131 -6.86832e-22)
(0.950057 -0.0223598 -2.10121e-22)
(0.956603 -0.0190034 7.21498e-23)
(0.962483 -0.0159165 -1.69016e-22)
(0.967698 -0.0131629 1.61055e-23)
(0.972272 -0.0107805 9.9819e-23)
(0.976246 -0.00877547 1.29531e-22)
(0.979677 -0.00712452 -2.88128e-22)
(0.982624 -0.00578813 -7.96685e-24)
(0.985147 -0.00471687 3.23172e-22)
(0.987304 -0.00386145 -8.97878e-23)
(0.989165 -0.00318205 -1.17738e-22)
(0.99077 -0.00264 2.68946e-23)
(0.992165 -0.002199 -7.56068e-23)
(0.993366 -0.00183685 3.07826e-23)
(0.994418 -0.001532 -2.35848e-23)
(0.995309 -0.00127797 -6.59069e-24)
(0.996099 -0.00105979 2.11362e-23)
(0.996745 -0.000881347 1.90094e-23)
(0.997342 -0.000725296 -2.49081e-23)
(0.997792 -0.000604518 -1.13547e-23)
(0.998257 -0.000493307 8.46535e-24)
(0.998545 -0.000417951 -6.0075e-24)
(0.99894 -0.000336993 1.66163e-24)
(0.999082 -0.000299826 -4.48717e-24)
(0.999475 -0.000236225 -1.40854e-25)
(0.680282 -0.252369 -1.11438e-21)
(0.69813 -0.237798 1.45824e-21)
(0.713675 -0.223594 -1.29285e-21)
(0.72956 -0.209413 1.77385e-21)
(0.745691 -0.195205 -4.73056e-21)
(0.761425 -0.181189 9.05922e-21)
(0.776519 -0.167594 -2.73391e-21)
(0.790998 -0.154557 -1.3873e-22)
(0.804889 -0.142154 -2.99281e-21)
(0.818171 -0.130442 6.68385e-22)
(0.830842 -0.119483 4.42932e-21)
(0.842913 -0.109319 -1.37446e-21)
(0.85438 -0.0999427 -7.64049e-21)
(0.865236 -0.0913233 6.90724e-21)
(0.87549 -0.0834262 -3.87434e-21)
(0.885159 -0.07621 1.66117e-21)
(0.894265 -0.069623 -2.28776e-21)
(0.902835 -0.0636021 -1.79261e-21)
(0.910904 -0.0580737 6.82225e-21)
(0.918508 -0.0529546 -2.65198e-21)
(0.925686 -0.0481555 2.60952e-21)
(0.932478 -0.0435891 -3.6135e-21)
(0.938913 -0.0391829 3.65218e-21)
(0.945012 -0.0348933 -1.66182e-21)
(0.950779 -0.0307135 -5.72085e-22)
(0.956209 -0.026674 3.00913e-22)
(0.961279 -0.0228365 1.95744e-22)
(0.965967 -0.0192785 -1.95745e-23)
(0.970251 -0.016074 -7.60766e-22)
(0.974121 -0.0132724 1.31979e-22)
(0.97758 -0.0108878 3.85902e-22)
(0.980642 -0.00890147 -2.23521e-22)
(0.983329 -0.0072752 7.63033e-23)
(0.985674 -0.00595777 -1.16894e-22)
(0.987705 -0.00489529 1.08475e-22)
(0.989474 -0.00404492 6.30288e-23)
(0.991012 -0.00336235 6.84765e-23)
(0.992358 -0.00280437 -1.19118e-22)
(0.993521 -0.00234465 5.93961e-23)
(0.994542 -0.00195673 2.34093e-23)
(0.99541 -0.00163299 -5.31357e-23)
(0.996181 -0.00135457 1.60097e-23)
(0.996812 -0.0011267 -4.67575e-24)
(0.997396 -0.000927251 2.4417e-23)
(0.997836 -0.000772856 4.42484e-24)
(0.998292 -0.000630604 -1.0736e-23)
(0.998573 -0.00053423 6.34015e-25)
(0.998961 -0.00043065 -2.19882e-24)
(0.9991 -0.000383118 2.83026e-24)
(0.999486 -0.000301786 4.24126e-25)
(0.800758 -0.273441 -4.03547e-21)
(0.809205 -0.258753 1.73325e-21)
(0.815485 -0.244197 -4.49779e-21)
(0.822701 -0.229348 2.38228e-22)
(0.830802 -0.214276 2.98715e-21)
(0.839047 -0.199305 -1.98788e-21)
(0.847165 -0.184703 -1.25027e-21)
(0.855192 -0.170623 1.50009e-22)
(0.86315 -0.157159 4.36674e-22)
(0.870989 -0.144388 1.00668e-21)
(0.878645 -0.132368 1.09052e-21)
(0.886101 -0.121154 -3.23934e-21)
(0.893354 -0.110778 -5.82918e-23)
(0.900366 -0.101224 2.22531e-21)
(0.9071 -0.0924533 -3.94637e-22)
(0.913527 -0.0844206 -3.32057e-21)
(0.919634 -0.0770768 3.41409e-21)
(0.925416 -0.0703634 7.61584e-22)
(0.930877 -0.0642107 -1.95999e-21)
(0.93603 -0.0585376 1.2444e-21)
(0.940897 -0.0532538 -3.86119e-22)
(0.945512 -0.0482663 -2.61322e-21)
(0.94991 -0.0434927 9.80024e-22)
(0.954125 -0.0388754 1.15917e-21)
(0.958185 -0.034392 8.47104e-22)
(0.962104 -0.0300581 4.69466e-22)
(0.965878 -0.0259245 -4.78556e-22)
(0.969487 -0.0220648 -3.47861e-22)
(0.972902 -0.0185561 -3.69541e-22)
(0.976096 -0.0154551 3.60367e-22)
(0.979044 -0.0127843 -1.73545e-22)
(0.981729 -0.0105315 -4.03683e-23)
(0.984144 -0.00866368 3.14271e-22)
(0.986294 -0.0071329 -1.91336e-22)
(0.988185 -0.00588486 -1.24766e-22)
(0.989849 -0.00487714 1.14785e-22)
(0.991309 -0.00406275 -1.65459e-22)
(0.992595 -0.00339357 1.2707e-22)
(0.993711 -0.00284021 1.80332e-23)
(0.994696 -0.00237202 -4.39211e-25)
(0.995535 -0.00198059 5.12888e-23)
(0.996282 -0.00164345 -5.8597e-23)
(0.996894 -0.00136727 6.60593e-23)
(0.997462 -0.0011253 -1.781e-23)
(0.99789 -0.000937944 1.6395e-23)
(0.998334 -0.000765193 -1.00745e-23)
(0.998609 -0.000648178 -1.05824e-24)
(0.998986 -0.000522357 -7.37769e-24)
(0.999122 -0.000464646 7.8144e-26)
(0.999499 -0.000365911 1.69697e-25)
(0.901379 -0.282018 2.99889e-20)
(0.90173 -0.26827 -4.89901e-21)
(0.900143 -0.254409 7.90041e-22)
(0.899912 -0.2399 -1.72848e-22)
(0.901057 -0.224927 8.57518e-22)
(0.902812 -0.209911 -1.16559e-21)
(0.904902 -0.195148 5.67178e-21)
(0.907374 -0.180798 1.4819e-21)
(0.910246 -0.166974 -1.03965e-20)
(0.913449 -0.153776 -4.59428e-21)
(0.916889 -0.141281 1.7014e-20)
(0.92049 -0.129532 -9.60599e-21)
(0.924221 -0.118572 3.76685e-21)
(0.928053 -0.10843 6.011e-21)
(0.931924 -0.0990889 -7.26961e-21)
(0.935766 -0.0905078 1.68553e-22)
(0.939526 -0.0826362 1.92479e-21)
(0.943166 -0.0754207 -3.7412e-21)
(0.946659 -0.0688009 2.4451e-21)
(0.949991 -0.0627051 1.4197e-21)
(0.953162 -0.0570502 -1.55916e-21)
(0.956184 -0.0517464 -8.75393e-22)
(0.959083 -0.0467092 -5.53809e-22)
(0.961896 -0.0418737 3.6102e-23)
(0.964658 -0.0372048 -2.23251e-22)
(0.967399 -0.0327021 5.63708e-22)
(0.970129 -0.0284 9.21881e-22)
(0.972841 -0.0243616 -6.5632e-22)
(0.975509 -0.0206606 7.81026e-22)
(0.978099 -0.0173563 -6.29003e-22)
(0.980574 -0.0144775 4.79965e-23)
(0.982898 -0.0120183 -2.03619e-22)
(0.985042 -0.00995277 -9.45078e-23)
(0.986993 -0.00823959 3.14489e-22)