/*--------------------------------*- C++ -*----------------------------------*\
  =========                 |
  \\      /  F ield         | OpenFOAM: The Open Source CFD Toolbox
   \\    /   O peration     | Website:  https://openfoam.org
    \\  /    A nd           | Version:  7
     \\/     M anipulation  |
\*---------------------------------------------------------------------------*/
FoamFile
{
    version     2.0;
    format      ascii;
    class       volScalarField;
    location    "20";
    object      p;
}
// * * * * * * * * * * * * * * * * * * * * * * * * * * * * * * * * * * * * * //

dimensions      [0 2 -2 0 0 0 0];

internalField   nonuniform List<scalar> 
12100
(
-0.306464
-0.310745
-0.311663
-0.313312
-0.314649
-0.315917
-0.316976
-0.317799
-0.318352
-0.318617
-0.318576
-0.31821
-0.317497
-0.316411
-0.314906
-0.312928
-0.310461
-0.307355
-0.303718
-0.299198
-0.30675
-0.310968
-0.311871
-0.313504
-0.314831
-0.316093
-0.317148
-0.317969
-0.318524
-0.318791
-0.318756
-0.318398
-0.317697
-0.316627
-0.315145
-0.313181
-0.31076
-0.307609
-0.30404
-0.299151
-0.307314
-0.311406
-0.31228
-0.313878
-0.315186
-0.316433
-0.317479
-0.318295
-0.318849
-0.31912
-0.319092
-0.318747
-0.318064
-0.317019
-0.315577
-0.31362
-0.311308
-0.308012
-0.30469
-0.29901
-0.308142
-0.312049
-0.312876
-0.314419
-0.315693
-0.316914
-0.317943
-0.318748
-0.319295
-0.319565
-0.319541
-0.319206
-0.318538
-0.317514
-0.316123
-0.314122
-0.312039
-0.308353
-0.305657
-0.298725
-0.309214
-0.312879
-0.313639
-0.315103
-0.316325
-0.317506
-0.318504
-0.319286
-0.319816
-0.320075
-0.320045
-0.319709
-0.319045
-0.318017
-0.316699
-0.314532
-0.312882
-0.308386
-0.306806
-0.298472
-0.310505
-0.313876
-0.314545
-0.315901
-0.317049
-0.31817
-0.31912
-0.319863
-0.320361
-0.320592
-0.320539
-0.320184
-0.319505
-0.318432
-0.31722
-0.314747
-0.313499
-0.308477
-0.307322
-0.298336
-0.311988
-0.315018
-0.315565
-0.316781
-0.317827
-0.318863
-0.319744
-0.320427
-0.320873
-0.321056
-0.320959
-0.320559
-0.319844
-0.31869
-0.317509
-0.314762
-0.313811
-0.30813
-0.307413
-0.298086
-0.313634
-0.31628
-0.316673
-0.317709
-0.318621
-0.319543
-0.320329
-0.320928
-0.321299
-0.321411
-0.321245
-0.320771
-0.319987
-0.31871
-0.31752
-0.314433
-0.313632
-0.307419
-0.306667
-0.297582
-0.315417
-0.31764
-0.317839
-0.318653
-0.319393
-0.320169
-0.320831
-0.321321
-0.321592
-0.321606
-0.321344
-0.320767
-0.319868
-0.318421
-0.317108
-0.313745
-0.312651
-0.306355
-0.304787
-0.296387
-0.317314
-0.319079
-0.31904
-0.319583
-0.320111
-0.320705
-0.321213
-0.321566
-0.321711
-0.321599
-0.32121
-0.320483
-0.319412
-0.317753
-0.316123
-0.312604
-0.310681
-0.304684
-0.301744
-0.293954
-0.319304
-0.320579
-0.320255
-0.320476
-0.320747
-0.321123
-0.321446
-0.321635
-0.321627
-0.321357
-0.320799
-0.319865
-0.318541
-0.316584
-0.314444
-0.310753
-0.307718
-0.301992
-0.297627
-0.29008
-0.321377
-0.322128
-0.32147
-0.321316
-0.321285
-0.321405
-0.321513
-0.32151
-0.321318
-0.32085
-0.320065
-0.318838
-0.317154
-0.314754
-0.311968
-0.307902
-0.303801
-0.298027
-0.292511
-0.284837
-0.323529
-0.323722
-0.322676
-0.322093
-0.321716
-0.321545
-0.321407
-0.321182
-0.320767
-0.320045
-0.318947
-0.31731
-0.315122
-0.312107
-0.308578
-0.303905
-0.298938
-0.292829
-0.286543
-0.278618
-0.325763
-0.325363
-0.323877
-0.322811
-0.322045
-0.321548
-0.321134
-0.32065
-0.319957
-0.318899
-0.317365
-0.315174
-0.312308
-0.308541
-0.304194
-0.298815
-0.293189
-0.286664
-0.279978
-0.2719
-0.328095
-0.327057
-0.325083
-0.323482
-0.322288
-0.321431
-0.320705
-0.319912
-0.318861
-0.31735
-0.315222
-0.312321
-0.308619
-0.304031
-0.298851
-0.292828
-0.286729
-0.279882
-0.273112
-0.264999
-0.33055
-0.328814
-0.326317
-0.324129
-0.322472
-0.321221
-0.320137
-0.318961
-0.317438
-0.315323
-0.312432
-0.308679
-0.304051
-0.29865
-0.292706
-0.286198
-0.279779
-0.272771
-0.266154
-0.258086
-0.333166
-0.330664
-0.327601
-0.324786
-0.32263
-0.320945
-0.319437
-0.317776
-0.315631
-0.312741
-0.308938
-0.30424
-0.298694
-0.292556
-0.285985
-0.279166
-0.272512
-0.265502
-0.25917
-0.251213
-0.335989
-0.332633
-0.328973
-0.325493
-0.322804
-0.320627
-0.318606
-0.316319
-0.313383
-0.309553
-0.30474
-0.299079
-0.2927
-0.285944
-0.278907
-0.271905
-0.265049
-0.258152
-0.252053
-0.244324
-0.339068
-0.334757
-0.330476
-0.326294
-0.323026
-0.320284
-0.317627
-0.314548
-0.310644
-0.305748
-0.299896
-0.293324
-0.286242
-0.278995
-0.271641
-0.264521
-0.257497
-0.250748
-0.244581
-0.237282
-0.342416
-0.337112
-0.332157
-0.32723
-0.323321
-0.319915
-0.316471
-0.312415
-0.307392
-0.301363
-0.294503
-0.287123
-0.279472
-0.271851
-0.264294
-0.25708
-0.249962
-0.243313
-0.236721
-0.229961
-0.346132
-0.339711
-0.334053
-0.328322
-0.323692
-0.319505
-0.315097
-0.309883
-0.303632
-0.296465
-0.288675
-0.280607
-0.272507
-0.264606
-0.256916
-0.249629
-0.242499
-0.235873
-0.22901
-0.222421
-0.350255
-0.342606
-0.336226
-0.329614
-0.324173
-0.319057
-0.313479
-0.306942
-0.299405
-0.291143
-0.282523
-0.27388
-0.265425
-0.257313
-0.249531
-0.242198
-0.235085
-0.228418
-0.22168
-0.2154
-0.354847
-0.345849
-0.338702
-0.331108
-0.324759
-0.318525
-0.311563
-0.303582
-0.294755
-0.285474
-0.276129
-0.26701
-0.25827
-0.249996
-0.242149
-0.234793
-0.227701
-0.221097
-0.214492
-0.208493
-0.359963
-0.349484
-0.341493
-0.332815
-0.325438
-0.317851
-0.309309
-0.299815
-0.289738
-0.279532
-0.269559
-0.26004
-0.251066
-0.242661
-0.234769
-0.227401
-0.220367
-0.213839
-0.207388
-0.20174
-0.365653
-0.353552
-0.3446
-0.334758
-0.326172
-0.316965
-0.306687
-0.295664
-0.284407
-0.273369
-0.26285
-0.252989
-0.243815
-0.235303
-0.227377
-0.220017
-0.213052
-0.20663
-0.200379
-0.194971
-0.371961
-0.358074
-0.348022
-0.33696
-0.326883
-0.315796
-0.303681
-0.291157
-0.278802
-0.26702
-0.25602
-0.245861
-0.236513
-0.227909
-0.219962
-0.21262
-0.205741
-0.199436
-0.193365
-0.188192
-0.378925
-0.363046
-0.351781
-0.339402
-0.32747
-0.31428
-0.300285
-0.286317
-0.272952
-0.260501
-0.249073
-0.238648
-0.229145
-0.220465
-0.212506
-0.205195
-0.19841
-0.192222
-0.18634
-0.181361
-0.386571
-0.368434
-0.355926
-0.342
-0.327823
-0.312368
-0.296497
-0.28116
-0.266869
-0.253815
-0.242002
-0.231339
-0.221698
-0.212954
-0.204992
-0.197721
-0.191036
-0.184969
-0.179263
-0.174464
-0.394901
-0.374182
-0.360507
-0.344615
-0.327838
-0.310018
-0.292313
-0.275694
-0.260556
-0.246955
-0.234794
-0.223915
-0.214154
-0.20536
-0.197405
-0.190184
-0.183601
-0.177651
-0.172121
-0.167484
-0.403876
-0.380235
-0.36552
-0.347084
-0.327419
-0.307196
-0.287728
-0.269916
-0.254004
-0.239906
-0.22743
-0.216359
-0.206495
-0.197665
-0.189728
-0.182567
-0.176089
-0.170256
-0.164896
-0.160408
-0.413404
-0.386553
-0.370855
-0.34925
-0.326478
-0.303868
-0.282729
-0.263816
-0.247198
-0.23265
-0.21989
-0.208652
-0.198705
-0.189855
-0.181947
-0.174855
-0.168485
-0.162769
-0.157577
-0.153225
-0.423321
-0.393121
-0.376279
-0.350969
-0.32494
-0.300001
-0.277297
-0.257375
-0.240116
-0.225163
-0.212155
-0.200776
-0.190766
-0.181914
-0.17405
-0.167038
-0.160777
-0.155182
-0.150155
-0.145927
-0.433404
-0.399928
-0.381473
-0.352099
-0.322737
-0.295559
-0.271408
-0.25057
-0.232734
-0.217424
-0.204203
-0.192713
-0.182666
-0.173831
-0.166025
-0.159104
-0.152958
-0.147487
-0.142622
-0.138509
-0.443392
-0.406937
-0.386096
-0.352497
-0.319808
-0.290506
-0.265034
-0.243373
-0.225028
-0.209409
-0.196015
-0.184446
-0.174388
-0.165593
-0.157863
-0.151046
-0.14502
-0.139679
-0.134976
-0.130969
-0.453013
-0.414053
-0.389843
-0.352016
-0.316096
-0.284808
-0.258144
-0.235756
-0.21697
-0.201096
-0.187572
-0.175961
-0.165923
-0.157191
-0.149557
-0.142857
-0.13696
-0.131758
-0.127213
-0.123306
-0.462005
-0.421092
-0.392475
-0.350518
-0.311542
-0.278426
-0.250703
-0.227689
-0.208536
-0.192465
-0.178859
-0.167245
-0.157259
-0.148617
-0.1411
-0.134533
-0.128776
-0.123722
-0.119335
-0.115522
-0.470136
-0.427778
-0.393822
-0.34788
-0.306087
-0.271324
-0.242679
-0.219142
-0.199701
-0.183496
-0.16986
-0.158287
-0.148388
-0.139867
-0.132489
-0.126073
-0.120468
-0.115573
-0.111342
-0.107623
-0.477202
-0.433759
-0.39376
-0.344007
-0.299676
-0.263467
-0.234042
-0.21009
-0.190445
-0.174174
-0.160564
-0.149077
-0.139305
-0.130935
-0.123722
-0.117475
-0.112038
-0.107314
-0.10324
-0.0996152
-0.483027
-0.438642
-0.392195
-0.338825
-0.292263
-0.254823
-0.224766
-0.200511
-0.180751
-0.164487
-0.150962
-0.139612
-0.130007
-0.121821
-0.1148
-0.108743
-0.103492
-0.098949
-0.0950337
-0.0915089
-0.487422
-0.442021
-0.389034
-0.332288
-0.283811
-0.245365
-0.214829
-0.190388
-0.170607
-0.154425
-0.141049
-0.129886
-0.120491
-0.112524
-0.105724
-0.09988
-0.0948329
-0.0904855
-0.0867308
-0.0833165
-0.490188
-0.443529
-0.384178
-0.324349
-0.274278
-0.23506
-0.204205
-0.179701
-0.159997
-0.143979
-0.130818
-0.119898
-0.110757
-0.103047
-0.0964967
-0.0908897
-0.086067
-0.0819316
-0.0783461
-0.0750473
-0.491338
-0.44298
-0.377563
-0.314976
-0.263627
-0.223875
-0.192871
-0.168434
-0.148912
-0.133143
-0.120265
-0.109645
-0.100806
-0.0933919
-0.0871237
-0.0817786
-0.0772001
-0.073296
-0.0699027
-0.0667063
-0.49066
-0.440111
-0.369093
-0.304134
-0.251837
-0.211794
-0.180816
-0.15658
-0.137347
-0.121914
-0.109392
-0.0991313
-0.0906432
-0.0835653
-0.0776136
-0.0725574
-0.068245
-0.0645894
-0.061411
-0.0583086
-0.487975
-0.434771
-0.358713
-0.291811
-0.238894
-0.198805
-0.168032
-0.144136
-0.125301
-0.110294
-0.0982033
-0.0883629
-0.08028
-0.0735776
-0.0679764
-0.0632388
-0.0592238
-0.0558436
-0.0528314
-0.0498961
-0.483112
-0.426854
-0.34638
-0.277995
-0.224792
-0.1849
-0.154513
-0.131098
-0.112778
-0.0982941
-0.0867106
-0.0773511
-0.0697293
-0.0634436
-0.0582209
-0.0538314
-0.050144
-0.0470466
-0.0442143
-0.041473
-0.47589
-0.416293
-0.332069
-0.262684
-0.20953
-0.170077
-0.14026
-0.117475
-0.099797
-0.0859304
-0.0749334
-0.0661148
-0.05899
-0.0531672
-0.0483596
-0.0443498
-0.0410144
-0.0382119
-0.0355831
-0.0330533
-0.466129
-0.403052
-0.315775
-0.245879
-0.193103
-0.154343
-0.125292
-0.103289
-0.0863867
-0.0732164
-0.0628701
-0.0546575
-0.048082
-0.0427624
-0.038407
-0.0348081
-0.0318479
-0.0293569
-0.0269529
-0.0246549
-0.453659
-0.387119
-0.297509
-0.227587
-0.175515
-0.13773
-0.109654
-0.0885813
-0.0725296
-0.0601602
-0.050542
-0.0429958
-0.037022
-0.0322462
-0.0283785
-0.0252211
-0.0226597
-0.0204986
-0.0183382
-0.0162962
-0.43833
-0.368502
-0.277297
-0.207828
-0.156801
-0.120303
-0.0933529
-0.0733419
-0.0582608
-0.0467839
-0.0379701
-0.0311498
-0.025828
-0.0216364
-0.0182911
-0.0156048
-0.0134657
-0.0116531
-0.00975532
-0.00799504
-0.420023
-0.34722
-0.255157
-0.186668
-0.137079
-0.102034
-0.0764082
-0.0576036
-0.04361
-0.0331146
-0.0251781
-0.019142
-0.0145203
-0.0109524
-0.00816328
-0.00597672
-0.00428281
-0.00283723
-0.00122197
0.000230736
-0.398659
-0.323329
-0.231085
-0.164228
-0.116365
-0.0829653
-0.0588583
-0.0414038
-0.0286099
-0.0191821
-0.0121925
-0.00699684
-0.00312102
-0.000214828
0.00198565
0.00364482
0.00487138
0.00593092
0.00724199
0.00836269
-0.37421
-0.296966
-0.205089
-0.140574
-0.0946862
-0.0631605
-0.0407502
-0.0247848
-0.0132971
-0.0050197
0.000957042
0.00525917
0.00834587
0.0105543
0.0121353
0.0132409
0.0139787
0.0146319
0.0156148
0.016381
-0.346692
-0.268349
-0.177401
-0.115548
-0.0721026
-0.0426859
-0.0221383
-0.00779323
0.00228765
0.0093364
0.0142383
0.0175972
0.0198546
0.0213316
0.0222643
0.0227922
0.0230215
0.0232474
0.0238752
0.0242654
-0.316178
-0.237527
-0.148078
-0.0893386
-0.0486906
-0.0216124
-0.00308378
0.00951911
0.0180992
0.0238466
0.0276165
0.0299866
0.0313777
0.0320924
0.0323502
0.0322791
0.0319837
0.0317635
0.0320078
0.0319985
-0.282819
-0.204057
-0.11764
-0.0621206
-0.0245394
-1.57377e-05
0.0163469
0.0270955
0.0340888
0.0384682
0.0410542
0.0423944
0.042886
0.0428103
0.0423688
0.0416807
0.0408506
0.0401713
0.0400047
0.0395696
-0.246858
-0.168197
-0.0859853
-0.0340468
0.000247122
0.0220218
0.0360819
0.0448747
0.0502037
0.0531558
0.0545118
0.0547861
0.0543492
0.0534575
0.0522948
0.0509758
0.0496066
0.0484579
0.0478481
0.0469612
-0.208373
-0.130409
-0.053145
-0.00525057
0.0255538
0.0444102
0.0560446
0.0627912
0.0663879
0.067861
0.0679477
0.0671257
0.0657353
0.0640058
0.062104
0.0601458
0.0582354
0.0565921
0.055469
0.0540903
-0.16702
-0.0916904
-0.0193105
0.0241397
0.0512602
0.067052
0.0761534
0.0807759
0.0825825
0.0825335
0.0813186
0.0793754
0.0770114
0.0744272
0.0717759
0.0691788
0.0667231
0.0645222
0.0627267
0.0607289
-0.123543
-0.0519939
0.0152933
0.0539808
0.0772398
0.0898434
0.0963223
0.0987563
0.0987263
0.0971212
0.0945797
0.0914968
0.0881443
0.0846948
0.0812929
0.0780658
0.0750554
0.0721958
0.0694927
0.0666645
-0.078214
-0.0114033
0.0504376
0.0841119
0.10336
0.112676
0.116462
0.116658
0.114757
0.111571
0.107685
0.10345
0.0991
0.0947818
0.0906357
0.0867873
0.0831998
0.0795791
0.0758341
0.0724252
-0.0312401
0.0298926
0.0859063
0.114371
0.12949
0.135441
0.136482
0.134405
0.130608
0.125827
0.120588
0.115195
0.109844
0.104661
0.099779
0.0953042
0.0910971
0.0866769
0.082048
0.0795491
0.0166033
0.0715938
0.121491
0.144603
0.155501
0.15803
0.156291
0.151919
0.146216
0.139833
0.13324
0.126688
0.120342
0.114302
0.108692
0.103573
0.098706
0.0935841
0.0885613
0.0865412
0.0649925
0.113437
0.156962
0.174623
0.181244
0.180323
0.175789
0.169119
0.16151
0.153531
0.14559
0.137889
0.130557
0.123675
0.117342
0.111568
0.106054
0.100369
0.0951356
0.0931109
0.113541
0.155112
0.192087
0.204251
0.206575
0.202203
0.194881
0.185924
0.176424
0.166864
0.157589
0.148755
0.140455
0.132745
0.125696
0.119268
0.113146
0.107005
0.10157
0.0992628
0.16184
0.196313
0.226635
0.233304
0.231349
0.22355
0.213468
0.202252
0.190889
0.179773
0.16919
0.159245
0.149998
0.141479
0.133725
0.126659
0.119976
0.113432
0.107752
0.105039
0.209484
0.23673
0.260374
0.261601
0.25542
0.244247
0.231454
0.218024
0.204837
0.192202
0.180343
0.169318
0.159151
0.149845
0.141404
0.133725
0.126521
0.1196
0.11364
0.110469
0.256069
0.276061
0.293076
0.288963
0.278646
0.264178
0.248743
0.23316
0.218202
0.204095
0.191002
0.178932
0.167878
0.157812
0.148708
0.140445
0.132753
0.125471
0.119211
0.115564
0.301199
0.314007
0.324516
0.315214
0.300885
0.283229
0.265242
0.247582
0.23092
0.215397
0.201118
0.188048
0.176145
0.16535
0.155612
0.146795
0.138646
0.131017
0.124452
0.120326
0.344494
0.350281
0.354478
0.340183
0.322001
0.301289
0.28086
0.261216
0.242928
0.226056
0.210649
0.196627
0.183917
0.172431
0.162091
0.152753
0.144174
0.136218
0.129353
0.124752
0.385588
0.384607
0.382753
0.363707
0.341864
0.318254
0.295512
0.273991
0.254166
0.236021
0.219551
0.204633
0.191163
0.179026
0.168123
0.158298
0.149318
0.141054
0.1339
0.128837
0.424141
0.416716
0.409142
0.385629
0.360349
0.334022
0.309114
0.285839
0.264578
0.245245
0.227783
0.21203
0.197853
0.185112
0.173685
0.163407
0.154057
0.145509
0.138081
0.132576
0.459833
0.446357
0.43346
0.405804
0.377341
0.3485
0.321591
0.296695
0.27411
0.253682
0.235307
0.218787
0.20396
0.190662
0.178754
0.168062
0.158375
0.149567
0.141883
0.13596
0.492366
0.473301
0.455532
0.424096
0.392731
0.3616
0.33287
0.3065
0.282713
0.261291
0.242088
0.224872
0.209456
0.195656
0.183312
0.172246
0.162255
0.153214
0.145296
0.138985
0.521464
0.497342
0.475203
0.440382
0.406421
0.373244
0.342887
0.315203
0.290343
0.268035
0.248094
0.230259
0.21432
0.200071
0.18734
0.175942
0.165683
0.156436
0.148309
0.141644
0.546881
0.518297
0.492332
0.454552
0.418322
0.383359
0.351583
0.322753
0.296959
0.27388
0.253297
0.234924
0.218529
0.203891
0.190824
0.179137
0.168646
0.159222
0.15091
0.143932
0.568401
0.536008
0.506797
0.466509
0.42836
0.391885
0.358909
0.32911
0.302526
0.278796
0.257672
0.238844
0.222065
0.207099
0.193748
0.181818
0.171133
0.161559
0.153092
0.145845
0.585843
0.550339
0.518494
0.476173
0.436468
0.398768
0.364821
0.334238
0.307016
0.282759
0.261197
0.242001
0.224912
0.209682
0.196101
0.183976
0.173133
0.163441
0.154846
0.147379
0.599058
0.561183
0.527339
0.483477
0.442593
0.403967
0.369285
0.338109
0.310403
0.285748
0.263855
0.244382
0.227059
0.211628
0.197874
0.185601
0.174641
0.164858
0.156167
0.148532
0.607932
0.568456
0.533268
0.488372
0.446697
0.407449
0.372274
0.3407
0.312671
0.287749
0.265634
0.245975
0.228495
0.21293
0.19906
0.186688
0.175648
0.165806
0.157051
0.149301
0.612391
0.572106
0.536243
0.490827
0.448755
0.409195
0.373772
0.341999
0.313807
0.288752
0.266526
0.246774
0.229215
0.213582
0.199654
0.187232
0.176153
0.166281
0.157494
0.149686
0.612391
0.572106
0.536243
0.490827
0.448755
0.409195
0.373772
0.341999
0.313807
0.288752
0.266526
0.246774
0.229215
0.213582
0.199654
0.187232
0.176153
0.166281
0.157494
0.149686
0.607932
0.568456
0.533268
0.488372
0.446697
0.407449
0.372274
0.3407
0.312671
0.287749
0.265634
0.245975
0.228495
0.21293
0.19906
0.186688
0.175648
0.165806
0.157051
0.149301
0.599058
0.561183
0.527339
0.483477
0.442593
0.403967
0.369285
0.338109
0.310403
0.285748
0.263855
0.244382
0.227059
0.211628
0.197874
0.185601
0.174641
0.164858
0.156167
0.148532
0.585843
0.550339
0.518494
0.476173
0.436468
0.398768
0.364821
0.334238
0.307016
0.282759
0.261197
0.242002
0.224912
0.209682
0.196101
0.183976
0.173133
0.163441
0.154846
0.147379
0.568401
0.536008
0.506797
0.466509
0.42836
0.391885
0.358909
0.32911
0.302526
0.278796
0.257672
0.238844
0.222065
0.207099
0.193748
0.181818
0.171133
0.161559
0.153092
0.145845
0.546881
0.518297
0.492332
0.454552
0.418322
0.383359
0.351583
0.322753
0.296959
0.27388
0.253297
0.234924
0.218529
0.203891
0.190824
0.179137
0.168646
0.159222
0.15091
0.143932
0.521464
0.497342
0.475203
0.440382
0.406421
0.373244
0.342887
0.315203
0.290343
0.268035
0.248094
0.230259
0.21432
0.200071
0.18734
0.175942
0.165683
0.156436
0.148309
0.141644
0.492366
0.473301
0.455532
0.424096
0.392731
0.3616
0.33287
0.306501
0.282713
0.261291
0.242088
0.224872
0.209456
0.195656
0.183312
0.172246
0.162255
0.153214
0.145297
0.138985
0.459833
0.446357
0.43346
0.405804
0.377341
0.3485
0.321591
0.296695
0.27411
0.253682
0.235307
0.218787
0.20396
0.190662
0.178754
0.168062
0.158375
0.149567
0.141884
0.13596
0.424141
0.416716
0.409142
0.385629
0.360349
0.334022
0.309114
0.285839
0.264578
0.245245
0.227783
0.21203
0.197853
0.185112
0.173685
0.163407
0.154057
0.145509
0.138081
0.132576
0.385588
0.384607
0.382753
0.363707
0.341864
0.318254
0.295512
0.273991
0.254166
0.236021
0.219551
0.204633
0.191163
0.179026
0.168123
0.158298
0.149318
0.141054
0.1339
0.128837
0.344494
0.350282
0.354478
0.340183
0.322001
0.301289
0.280861
0.261216
0.242928
0.226056
0.210649
0.196627
0.183917
0.172431
0.162091
0.152754
0.144174
0.136218
0.129353
0.124752
0.3012
0.314007
0.324516
0.315214
0.300885
0.283229
0.265242
0.247582
0.23092
0.215397
0.201119
0.188048
0.176145
0.16535
0.155612
0.146795
0.138646
0.131017
0.124452
0.120326
0.256069
0.276061
0.293076
0.288963
0.278646
0.264178
0.248743
0.23316
0.218202
0.204095
0.191002
0.178932
0.167878
0.157812
0.148708
0.140445
0.132753
0.125471
0.119211
0.115564
0.209484
0.236731
0.260374
0.261601
0.255421
0.244247
0.231454
0.218024
0.204837
0.192202
0.180343
0.169318
0.159151
0.149845
0.141404
0.133725
0.126522
0.1196
0.11364
0.110469
0.161841
0.196313
0.226635
0.233304
0.231349
0.22355
0.213469
0.202252
0.190889
0.179773
0.16919
0.159246
0.149998
0.141479
0.133725
0.126659
0.119976
0.113432
0.107752
0.105039
0.113541
0.155112
0.192087
0.204251
0.206575
0.202203
0.194881
0.185924
0.176424
0.166864
0.157589
0.148755
0.140455
0.132745
0.125696
0.119268
0.113146
0.107005
0.10157
0.0992628
0.0649926
0.113437
0.156962
0.174623
0.181244
0.180324
0.17579
0.169119
0.16151
0.153531
0.14559
0.137889
0.130557
0.123675
0.117342
0.111568
0.106054
0.100369
0.0951357
0.093111
0.0166034
0.0715939
0.121491
0.144603
0.155501
0.15803
0.156291
0.151919
0.146216
0.139833
0.13324
0.126688
0.120342
0.114302
0.108692
0.103573
0.0987061
0.0935841
0.0885613
0.0865412
-0.03124
0.0298927
0.0859064
0.114372
0.12949
0.135441
0.136482
0.134405
0.130608
0.125827
0.120588
0.115195
0.109844
0.104661
0.099779
0.0953042
0.0910972
0.0866769
0.0820481
0.0795491
-0.0782138
-0.0114031
0.0504377
0.0841119
0.10336
0.112676
0.116462
0.116658
0.114757
0.111571
0.107686
0.10345
0.0991001
0.0947819
0.0906358
0.0867874
0.0831999
0.0795792
0.0758342
0.0724252
-0.123543
-0.0519938
0.0152934
0.0539809
0.0772399
0.0898435
0.0963224
0.0987564
0.0987263
0.0971212
0.0945797
0.0914968
0.0881443
0.0846948
0.081293
0.0780658
0.0750555
0.0721958
0.0694928
0.0666646
-0.167019
-0.0916903
-0.0193104
0.0241398
0.0512603
0.0670521
0.0761535
0.0807759
0.0825825
0.0825336
0.0813186
0.0793755
0.0770115
0.0744273
0.071776
0.0691788
0.0667232
0.0645223
0.0627268
0.0607289
-0.208373
-0.130409
-0.0531449
-0.00525048
0.0255539
0.0444103
0.0560447
0.0627913
0.0663879
0.0678611
0.0679478
0.0671257
0.0657353
0.0640059
0.0621041
0.0601459
0.0582355
0.0565922
0.0554691
0.0540904
-0.246857
-0.168197
-0.0859852
-0.0340467
0.000247213
0.0220219
0.036082
0.0448748
0.0502037
0.0531559
0.0545119
0.0547862
0.0543493
0.0534576
0.0522948
0.0509758
0.0496066
0.0484579
0.0478482
0.0469612
-0.282818
-0.204056
-0.11764
-0.0621205
-0.0245393
-1.56509e-05
0.016347
0.0270956
0.0340888
0.0384683
0.0410543
0.0423944
0.0428861
0.0428104
0.0423688
0.0416807
0.0408506
0.0401713
0.0400048
0.0395696
-0.316177
-0.237527
-0.148078
-0.0893385
-0.0486905
-0.0216124
-0.00308369
0.0095192
0.0180993
0.0238467
0.0276166
0.0299866
0.0313777
0.0320925
0.0323503
0.0322791
0.0319838
0.0317636
0.0320078
0.0319985
-0.346692
-0.268349
-0.177401
-0.115548
-0.0721025
-0.0426858
-0.0221382
-0.00779315
0.00228773
0.00933648
0.0142384
0.0175973
0.0198546
0.0213317
0.0222644
0.0227923
0.0230216
0.0232475
0.0238752
0.0242654
-0.374209
-0.296965
-0.205089
-0.140574
-0.0946861
-0.0631604
-0.0407501
-0.0247847
-0.013297
-0.00501961
0.000957121
0.00525924
0.00834595
0.0105543
0.0121353
0.013241
0.0139788
0.014632
0.0156148
0.0163811
-0.398659
-0.323329
-0.231085
-0.164228
-0.116365
-0.0829652
-0.0588582
-0.0414037
-0.0286098
-0.0191821
-0.0121924
-0.00699676
-0.00312094
-0.000214753
0.00198572
0.00364489
0.00487144
0.00593098
0.00724204
0.00836274
-0.420023
-0.34722
-0.255157
-0.186667
-0.137079
-0.102034
-0.0764081
-0.0576035
-0.0436099
-0.0331145
-0.025178
-0.019142
-0.0145203
-0.0109523
-0.0081632
-0.00597665
-0.00428274
-0.00283717
-0.00122191
0.000230795
-0.43833
-0.368502
-0.277297
-0.207828
-0.156801
-0.120303
-0.0933528
-0.0733418
-0.0582607
-0.0467839
-0.03797
-0.0311497
-0.025828
-0.0216363
-0.0182911
-0.0156047
-0.0134656
-0.011653
-0.00975526
-0.00799498
-0.453659
-0.387119
-0.297509
-0.227587
-0.175515
-0.13773
-0.109654
-0.0885812
-0.0725295
-0.0601601
-0.0505419
-0.0429957
-0.0370219
-0.0322461
-0.0283784
-0.025221
-0.0226596
-0.0204985
-0.0183381
-0.0162961
-0.466129
-0.403052
-0.315775
-0.245879
-0.193103
-0.154342
-0.125292
-0.103289
-0.0863866
-0.0732163
-0.06287
-0.0546574
-0.0480819
-0.0427624
-0.0384069
-0.034808
-0.0318479
-0.0293568
-0.0269528
-0.0246548
-0.47589
-0.416293
-0.332069
-0.262684
-0.20953
-0.170077
-0.140259
-0.117475
-0.0997969
-0.0859303
-0.0749333
-0.0661147
-0.0589899
-0.0531671
-0.0483595
-0.0443497
-0.0410144
-0.0382118
-0.035583
-0.0330532
-0.483112
-0.426854
-0.34638
-0.277995
-0.224792
-0.1849
-0.154513
-0.131098
-0.112778
-0.098294
-0.0867105
-0.077351
-0.0697292
-0.0634436
-0.0582208
-0.0538313
-0.050144
-0.0470465
-0.0442142
-0.041473
-0.487975
-0.434771
-0.358713
-0.291811
-0.238894
-0.198805
-0.168032
-0.144135
-0.125301
-0.110294
-0.0982032
-0.0883628
-0.0802799
-0.0735775
-0.0679763
-0.0632388
-0.0592237
-0.0558435
-0.0528313
-0.049896
-0.49066
-0.440111
-0.369093
-0.304134
-0.251836
-0.211793
-0.180816
-0.15658
-0.137347
-0.121913
-0.109392
-0.0991312
-0.0906431
-0.0835652
-0.0776135
-0.0725573
-0.0682449
-0.0645893
-0.0614109
-0.0583085
-0.491338
-0.442979
-0.377563
-0.314976
-0.263627
-0.223875
-0.192871
-0.168434
-0.148912
-0.133143
-0.120265
-0.109645
-0.100806
-0.0933918
-0.0871236
-0.0817785
-0.0772
-0.0732959
-0.0699026
-0.0667062
-0.490188
-0.443529
-0.384178
-0.324349
-0.274278
-0.235059
-0.204205
-0.179701
-0.159997
-0.143979
-0.130818
-0.119898
-0.110757
-0.103047
-0.0964966
-0.0908896
-0.0860669
-0.0819315
-0.078346
-0.0750473
-0.487422
-0.442021
-0.389034
-0.332288
-0.283811
-0.245365
-0.214828
-0.190388
-0.170606
-0.154425
-0.141049
-0.129886
-0.120491
-0.112524
-0.105724
-0.0998799
-0.0948328
-0.0904854
-0.0867307
-0.0833164
-0.483027
-0.438642
-0.392194
-0.338825
-0.292263
-0.254823
-0.224766
-0.200511
-0.180751
-0.164487
-0.150962
-0.139611
-0.130007
-0.12182
-0.1148
-0.108743
-0.103492
-0.0989489
-0.0950337
-0.0915088
-0.477202
-0.433759
-0.39376
-0.344006
-0.299676
-0.263467
-0.234042
-0.21009
-0.190445
-0.174174
-0.160564
-0.149077
-0.139305
-0.130935
-0.123722
-0.117475
-0.112038
-0.107313
-0.10324
-0.0996151
-0.470135
-0.427778
-0.393822
-0.34788
-0.306086
-0.271324
-0.242679
-0.219142
-0.199701
-0.183496
-0.16986
-0.158286
-0.148388
-0.139866
-0.132489
-0.126072
-0.120468
-0.115573
-0.111342
-0.107623
-0.462005
-0.421092
-0.392475
-0.350518
-0.311541
-0.278426
-0.250703
-0.227689
-0.208535
-0.192465
-0.178859
-0.167245
-0.157259
-0.148617
-0.1411
-0.134533
-0.128776
-0.123722
-0.119335
-0.115522
-0.453013
-0.414053
-0.389843
-0.352016
-0.316096
-0.284807
-0.258143
-0.235756
-0.21697
-0.201096
-0.187572
-0.175961
-0.165923
-0.157191
-0.149556
-0.142857
-0.13696
-0.131758
-0.127213
-0.123306
-0.443392
-0.406937
-0.386096
-0.352497
-0.319808
-0.290506
-0.265034
-0.243373
-0.225027
-0.209409
-0.196015
-0.184446
-0.174388
-0.165593
-0.157863
-0.151046
-0.14502
-0.139679
-0.134976
-0.130969
-0.433404
-0.399928
-0.381473
-0.352099
-0.322737
-0.295559
-0.271408
-0.25057
-0.232734
-0.217424
-0.204203
-0.192713
-0.182665
-0.17383
-0.166025
-0.159104
-0.152958
-0.147486
-0.142622
-0.138509
-0.423321
-0.393121
-0.376279
-0.350968
-0.32494
-0.300001
-0.277297
-0.257375
-0.240115
-0.225163
-0.212155
-0.200776
-0.190766
-0.181914
-0.174049
-0.167038
-0.160777
-0.155181
-0.150154
-0.145927
-0.413404
-0.386553
-0.370855
-0.349249
-0.326478
-0.303868
-0.282728
-0.263816
-0.247197
-0.23265
-0.21989
-0.208652
-0.198704
-0.189855
-0.181947
-0.174855
-0.168484
-0.162769
-0.157577
-0.153225
-0.403876
-0.380235
-0.36552
-0.347084
-0.327419
-0.307196
-0.287728
-0.269916
-0.254004
-0.239906
-0.227429
-0.216359
-0.206495
-0.197665
-0.189728
-0.182566
-0.176089
-0.170256
-0.164896
-0.160408
-0.394901
-0.374182
-0.360507
-0.344615
-0.327838
-0.310018
-0.292313
-0.275694
-0.260556
-0.246955
-0.234793
-0.223915
-0.214154
-0.205359
-0.197405
-0.190184
-0.183601
-0.177651
-0.172121
-0.167484
-0.386571
-0.368434
-0.355926
-0.342
-0.327823
-0.312368
-0.296497
-0.28116
-0.266869
-0.253815
-0.242002
-0.231338
-0.221698
-0.212954
-0.204992
-0.197721
-0.191036
-0.184969
-0.179263
-0.174464
-0.378925
-0.363046
-0.351781
-0.339401
-0.32747
-0.31428
-0.300285
-0.286316
-0.272951
-0.260501
-0.249073
-0.238648
-0.229145
-0.220464
-0.212505
-0.205194
-0.198409
-0.192222
-0.18634
-0.181361
-0.371961
-0.358074
-0.348022
-0.33696
-0.326883
-0.315796
-0.303681
-0.291157
-0.278802
-0.26702
-0.25602
-0.24586
-0.236512
-0.227908
-0.219962
-0.21262
-0.205741
-0.199436
-0.193365
-0.188192
-0.365653
-0.353551
-0.3446
-0.334758
-0.326172
-0.316965
-0.306687
-0.295664
-0.284407
-0.273369
-0.262849
-0.252989
-0.243815
-0.235302
-0.227377
-0.220017
-0.213052
-0.20663
-0.200379
-0.194971
-0.359963
-0.349484
-0.341493
-0.332815
-0.325438
-0.317851
-0.309309
-0.299814
-0.289738
-0.279532
-0.269559
-0.26004
-0.251066
-0.242661
-0.234768
-0.227401
-0.220367
-0.213839
-0.207388
-0.201739
-0.354847
-0.345848
-0.338702
-0.331108
-0.324759
-0.318525
-0.311563
-0.303581
-0.294754
-0.285474
-0.276129
-0.26701
-0.25827
-0.249996
-0.242149
-0.234792
-0.2277
-0.221096
-0.214492
-0.208493
-0.350255
-0.342606
-0.336226
-0.329614
-0.324173
-0.319057
-0.313479
-0.306942
-0.299405
-0.291142
-0.282522
-0.27388
-0.265424
-0.257313
-0.249531
-0.242197
-0.235085
-0.228418
-0.22168
-0.2154
-0.346132
-0.339711
-0.334053
-0.328322
-0.323692
-0.319505
-0.315097
-0.309882
-0.303631
-0.296465
-0.288675
-0.280607
-0.272506
-0.264605
-0.256915
-0.249628
-0.242498
-0.235873
-0.229009
-0.22242
-0.342416
-0.337112
-0.332157
-0.32723
-0.323321
-0.319915
-0.316471
-0.312415
-0.307392
-0.301363
-0.294502
-0.287123
-0.279471
-0.27185
-0.264293
-0.25708
-0.249962
-0.243312
-0.236721
-0.229961
-0.339067
-0.334757
-0.330476
-0.326294
-0.323026
-0.320284
-0.317627
-0.314548
-0.310644
-0.305748
-0.299895
-0.293324
-0.286241
-0.278994
-0.271641
-0.26452
-0.257496
-0.250748
-0.244581
-0.237282
-0.335989
-0.332633
-0.328973
-0.325493
-0.322804
-0.320627
-0.318606
-0.316319
-0.313382
-0.309552
-0.304739
-0.299078
-0.292699
-0.285943
-0.278906
-0.271904
-0.265048
-0.258152
-0.252052
-0.244324
-0.333166
-0.330664
-0.327601
-0.324785
-0.32263
-0.320945
-0.319437
-0.317775
-0.315631
-0.31274
-0.308937
-0.304239
-0.298693
-0.292555
-0.285984
-0.279165
-0.272511
-0.265501
-0.259169
-0.251213
-0.33055
-0.328814
-0.326316
-0.324129
-0.322472
-0.321221
-0.320137
-0.318961
-0.317437
-0.315322
-0.312431
-0.308678
-0.30405
-0.298649
-0.292705
-0.286197
-0.279778
-0.27277
-0.266153
-0.258086
-0.328095
-0.327057
-0.325082
-0.323481
-0.322288
-0.321431
-0.320705
-0.319912
-0.318861
-0.31735
-0.315222
-0.31232
-0.308618
-0.30403
-0.298849
-0.292826
-0.286728
-0.279882
-0.273111
-0.264999
-0.325763
-0.325363
-0.323877
-0.322811
-0.322045
-0.321548
-0.321133
-0.320649
-0.319957
-0.318898
-0.317364
-0.315172
-0.312307
-0.308539
-0.304193
-0.298814
-0.293188
-0.286664
-0.279978
-0.271899
-0.323528
-0.323722
-0.322676
-0.322093
-0.321716
-0.321544
-0.321407
-0.321181
-0.320766
-0.320044
-0.318946
-0.317309
-0.315121
-0.312105
-0.308577
-0.303904
-0.298936
-0.292828
-0.286542
-0.278618
-0.321377
-0.322128
-0.321469
-0.321316
-0.321285
-0.321405
-0.321512
-0.321509
-0.321317
-0.320849
-0.320064
-0.318837
-0.317152
-0.314752
-0.311966
-0.3079
-0.303799
-0.298026
-0.29251
-0.284837
-0.319304
-0.320579
-0.320255
-0.320476
-0.320747
-0.321123
-0.321446
-0.321635
-0.321626
-0.321357
-0.320798
-0.319863
-0.318539
-0.316583
-0.314443
-0.310751
-0.307717
-0.30199
-0.297626
-0.29008
-0.317313
-0.319079
-0.31904
-0.319583
-0.320111