/*--------------------------------*- C++ -*----------------------------------*\
  =========                 |
  \\      /  F ield         | OpenFOAM: The Open Source CFD Toolbox
   \\    /   O peration     | Website:  https://openfoam.org
    \\  /    A nd           | Version:  7
     \\/     M anipulation  |
\*---------------------------------------------------------------------------*/
FoamFile
{
    version     2.0;
    format      ascii;
    class       surfaceScalarField;
    location    "20";
    object      phi;
}
// * * * * * * * * * * * * * * * * * * * * * * * * * * * * * * * * * * * * * //

dimensions      [0 3 -1 0 0 0 0];

internalField   nonuniform List<scalar> 
23915
(
-3.74784e-05
3.748e-05
-1.60326e-09
-0.000109412
7.19363e-05
-3.13591e-09
-0.000200092
9.0684e-05
-3.94011e-09
-0.000301201
0.000101114
-4.4092e-09
-0.000409395
0.000108199
-4.79542e-09
-0.000523484
0.000114093
-5.1634e-09
-0.000643253
0.000119775
-5.48239e-09
-0.000768805
0.000125558
-5.6745e-09
-0.000900299
0.0001315
-5.63878e-09
-0.00103783
0.00013754
-5.25784e-09
-0.00118138
0.000143553
-4.40127e-09
-0.00133071
0.000149336
-2.93199e-09
-0.00148531
0.000154595
-7.15102e-10
-0.00164426
0.000158952
2.34409e-09
-0.00180604
0.000161772
6.31557e-09
-0.00196814
0.000162085
1.11808e-08
-0.00212903
0.000160872
1.68086e-08
-0.0022818
0.000152746
2.30148e-08
-0.00243265
0.000150823
2.92701e-08
0.000133573
3.54455e-08
-0.00256626
-3.68046e-05
7.42847e-05
-0.000107509
0.00014264
-0.00019648
0.000179656
-0.000295337
0.00019997
-0.00040058
0.000213443
-0.00051082
0.000224333
-0.000625603
0.000234558
-0.000744748
0.000244703
-0.000868083
0.000254835
-0.000995313
0.000264769
-0.00112595
0.000274194
-0.00125926
0.000282639
-0.00139411
0.000289452
-0.00152901
0.000293843
-0.00166185
0.000294618
-0.00178898
0.000289213
-0.00190965
0.000281538
-0.00201181
0.000254912
-0.00210822
0.000247232
0.000192355
-0.002167
-3.5497e-05
0.000109782
-0.000103787
0.00021093
-0.00018939
0.000265258
-0.000283796
0.000294376
-0.000383209
0.000312856
-0.000485852
0.000326976
-0.000590809
0.000339514
-0.000697357
0.000351252
-0.000804691
0.000362169
-0.000911778
0.000371855
-0.00101728
0.0003797
-0.00111949
0.000384849
-0.00121624
0.000386196
-0.00130484
0.000382444
-0.00138239
0.000372175
-0.00144268
0.000349503
-0.00148795
0.000326805
-0.00149528
0.000262244
-0.00149045
0.000242404
0.000119555
-0.00141765
-3.36141e-05
0.000143396
-9.8385e-05
0.000275701
-0.000179045
0.000345919
-0.000266907
0.000382237
-0.000357746
0.000403696
-0.000449232
0.000418462
-0.00053979
0.000430072
-0.000627935
0.000439397
-0.000711982
0.000446217
-0.000789888
0.000449761
-0.000859175
0.000448986
-0.000916846
0.00044252
-0.000959347
0.000428696
-0.000982406
0.000405502
-0.000982458
0.000372227
-0.000948908
0.000315953
-0.000890063
0.00026796
-0.000769352
0.000141533
-0.000620732
9.37842e-05
-0.000112678
-0.000388499
-3.12396e-05
0.000174635
-9.14989e-05
0.000335961
-0.00016577
0.00042019
-0.000245137
0.000461605
-0.000324842
0.0004834
-0.000401854
0.000495474
-0.000473775
0.000501992
-0.000538177
0.000503799
-0.000592304
0.000500344
-0.000632903
0.00049036
-0.000656154
0.000472237
-0.000657573
0.000443939
-0.000632065
0.000403188
-0.000573384
0.000346821
-0.000477609
0.000276452
-0.000330386
0.00016873
-0.000136635
7.42095e-05
0.000123256
-0.000118359
0.000452391
-0.00023535
-0.000531553
0.000871266
-2.84787e-05
0.000203114
-8.3375e-05
0.000390857
-0.000149964
0.000486779
-0.000219062
0.000530703
-0.000285278
0.000549615
-0.000344761
0.000554957
-0.000394142
0.000551374
-0.000429898
0.000539555
-0.000448042
0.000518488
-0.00044395
0.000486268
-0.000412323
0.00044061
-0.00034704
0.000378656
-0.000241405
0.000297554
-8.776e-05
0.000193175
0.000122283
6.64091e-05
0.000397631
-0.000106618
0.000739957
-0.000268116
0.00117993
-0.000558334
0.00168291
-0.000738328
-0.00117305
0.0023244
-2.54514e-05
0.000228566
-7.42952e-05
0.000439701
-0.000132085
0.000544569
-0.000189322
0.00058794
-0.000239898
0.000600191
-0.000279024
0.000594084
-0.000302223
0.000574572
-0.000304711
0.000542044
-0.000281109
0.000494886
-0.000225259
0.000430418
-0.000130242
0.000345594
1.17821e-05
0.000236632
0.000209474
9.98621e-05
0.000471422
-6.8773e-05
0.000807767
-0.000269936
0.0012289
-0.000527751
0.00173738
-0.000776593
0.00236169
-0.00118265
0.00305934
-0.00143598
-0.00203939
0.00392569
-2.22864e-05
0.000250852
-6.45607e-05
0.000481975
-0.000112615
0.000592624
-0.000156576
0.0006319
-0.000189527
0.000633142
-0.000205612
0.000610169
-0.000199073
0.000568033
-0.000163677
0.000506648
-9.24374e-05
0.000423646
2.25504e-05
0.00031543
0.000189976
0.000178169
0.000419464
7.14361e-06
0.000721591
-0.000202265
0.00110444
-0.000451618
0.0015835
-0.000748999
0.00215888
-0.00110313
0.00284601
-0.00146372
0.00365455
-0.0019912
0.00454604
-0.00232747
-0.00310255
0.0056092
-1.91134e-05
0.000269965
-5.44726e-05
0.000517334
-9.20256e-05
0.000630176
-0.000121439
0.000661313
-0.000134871
0.000646575
-0.000125223
0.00060052
-8.52322e-05
0.000528043
-6.94798e-06
0.000428364
0.0001185
0.000298198
0.000300992
0.000132938
0.000551114
-7.19539e-05
0.000879872
-0.000321614
0.00129959
-0.00062198
0.0018162
-0.000968228
0.002448
-0.0013808
0.00318397
-0.0018391
0.00404646
-0.00232621
0.00501739
-0.00296213
0.00608211
-0.00339219
-0.00429148
0.00727104
-1.60544e-05
0.00028602
-4.43107e-05
0.000545591
-7.07399e-05
0.000656606
-8.4417e-05
0.00067499
-7.64043e-05
0.000638562
-3.81127e-05
0.000562229
3.95397e-05
0.00045039
0.00016657
0.000301334
0.000354028
0.000110741
0.000613883
-0.000126918
0.000958328
-0.000416399
0.00139908
-0.000762363
0.0019476
-0.0011705
0.00260773
-0.00162836
0.00339077
-0.00216384
0.00427992
-0.00272825
0.00529159
-0.00333788
0.00637445
-0.00404498
0.00755677
-0.00457451
-0.00550103
0.00876632
-1.32159e-05
0.000299236
-3.43094e-05
0.000566684
-4.90859e-05
0.000671382
-4.58264e-05
0.000671731
-1.42438e-05
0.000606979
5.60998e-05
0.000491885
0.000176513
0.000329977
0.000359457
0.00011839
0.000618321
-0.000148123
0.000966819
-0.000475416
0.00141761
-0.000867186
0.00198117
-0.00132593
0.00266354
-0.00185287
0.00346539
-0.00243021
0.00438081
-0.00307927
0.00539052
-0.00373796
0.00649406
-0.00444142
0.00761665
-0.00516758
0.00882011
-0.00577797
-0.00663006
0.00994915
-1.06799e-05
0.000309916
-2.46343e-05
0.000580639
-2.7248e-05
0.000673996
-5.70732e-06
0.00065019
5.19996e-05
0.000549272
0.000158619
0.000385266
0.000328169
0.000160427
0.00057579
-0.000129232
0.000916865
-0.000489198
0.00136551
-0.000924059
0.00193216
-0.00143384
0.00262226
-0.00201603
0.00343136
-0.00266196
0.00435218
-0.00335104
0.00535879
-0.00408587
0.00642883
-0.00480799
0.00754034
-0.00555294
0.00862295
-0.00625018
0.00973648
-0.00689151
-0.00760448
0.0107109
-8.49667e-06
0.000318412
-1.53561e-05
0.000587498
-5.21996e-06
0.00066386
3.62622e-05
0.000608708
0.000123327
0.000462208
0.000271606
0.000236987
0.0004982
-6.61674e-05
0.000820677
-0.000451708
0.00125498
-0.000923501
0.0018126
-0.00148168
0.0024973
-0.00211853
0.00330397
-0.00282271
0.0042141
-0.00357208
0.00520725
-0.00434419
0.00624263
-0.00512125
0.00729562
-0.00586099
0.00832994
-0.00658726
0.00930332
-0.00722356
0.0102527
-0.0078409
-0.00840927
0.0110575
-6.6788e-06
0.000325091
-6.42038e-06
0.000587239
1.7263e-05
0.000640176
8.08476e-05
0.000545123
0.000201468
0.000341587
0.000398193
4.02621e-05
0.000691173
-0.000359147
0.00109906
-0.000859596
0.00163515
-0.00145959
0.00230333
-0.00214987
0.00309508
-0.00291028
0.00398989
-0.00371751
0.00495474
-0.00453693
0.00595661
-0.00534607
0.00695024
-0.00611488
0.00791458
-0.00682532
0.00881494
-0.00748762
0.00964359
-0.00805221
0.0104192
-0.00861656
-0.0090792
0.0110892
-5.20258e-06
0.000330294
2.33782e-06
0.000579699
4.07093e-05
0.000601805
0.000129308
0.000456525
0.000288887
0.000182009
0.000542264
-0.000213115
0.000911636
-0.000728519
0.0014136
-0.00136156
0.00205344
-0.00209944
0.00282136
-0.00291778
0.00369204
-0.00378097
0.00462886
-0.00465433
0.00558907
-0.00549714
0.00653508
-0.00629207
0.00742983
-0.00700963
0.00826376
-0.00765926
0.00901645
-0.00824031
0.00970861
-0.00874438
0.0103492
-0.0092571
-0.00966286
0.0109328
-3.96986e-06
0.000334263
1.11211e-05
0.000564608
6.59432e-05
0.000546983
0.000183405
0.000339063
0.000388656
-2.32425e-05
0.000707861
-0.00053232
0.00116255
-0.00118321
0.0017618
-0.00196081
0.00249625
-0.00283389
0.00333751
-0.00375904
0.00424354
-0.004687
0.00516727
-0.00557805
0.00606619
-0.00639606
0.00690968
-0.00713556
0.00767874
-0.0077787
0.00837859
-0.00835911
0.00900541
-0.00886712
0.00959618
-0.00933515
0.0101487
-0.00980961
-0.0101968
0.0106826
-2.82275e-06
0.000337086
2.05425e-05
0.000541243
9.40834e-05
0.000473442
0.000245333
0.000187813
0.000504122
-0.000282031
0.000898141
-0.000926339
0.00144314
-0.00172821
0.00213343
-0.0026511
0.0029394
-0.00363986
0.00381402
-0.00463366
0.00470504
-0.00557802
0.00556593
-0.00643894
0.00636556
-0.00719569
0.00708879
-0.00785879
0.00773672
-0.00842663
0.00832502
-0.00894741
0.00886159
-0.00940369
0.0093859
-0.00985946
0.00988255
-0.0103063
-0.0107021
0.0103878
-1.56827e-06
0.000338654
3.11288e-05
0.000508546
0.000126483
0.000378088
0.000317553
-3.25725e-06
0.000638292
-0.00060277
0.00111387
-0.00140192
0.00174676
-0.0023611
0.00250962
-0.00341396
0.00335169
-0.00448192
0.00421406
-0.00549604
0.00504567
-0.00640963
0.00581198
-0.00720525
0.00649975
-0.00788345
0.00711061
-0.00846966
0.0076601
-0.00897611
0.00816658
-0.00945389
0.00864367
-0.00988078
0.00912304
-0.0103388
0.00958174
-0.010765
-0.0111909
0.0100706
1.52468e-07
0.000338502
4.3547e-05
0.000465151
0.000164657
0.000256978
0.000402494
-0.000241095
0.000792925
-0.000993201
0.00135178
-0.00196077
0.00205989
-0.00306921
0.0028654
-0.00421946
0.00370251
-0.00531903
0.00451235
-0.00630588
0.00525631
-0.00715358
0.00591823
-0.00786717
0.00650216
-0.00846738
0.0070217
-0.0089892
0.00749841
-0.00945283
0.0079479
-0.00990338
0.00838553
-0.0103184
0.00882939
-0.0107827
0.00926012
-0.0111957
-0.0116711
0.00974037
1.89847e-06
0.000336604
5.8494e-05
0.000408556
0.000210175
0.000105297
0.000502111
-0.000533032
0.000967416
-0.00145851
0.00160345
-0.00259681
0.00236349
-0.00382925
0.0031754
-0.00503138
0.00397024
-0.00611387
0.00470101
-0.00703665
0.00534781
-0.00780039
0.00591236
-0.00843171
0.0064105
-0.00896552
0.00686127
-0.00943997
0.00728582
-0.00987737
0.00769539
-0.010313
0.00810484
-0.0107279
0.00851691
-0.0111948
0.00891979
-0.0115986
-0.0121497
0.00939831
4.62645e-06
0.000331977
7.68307e-05
0.000336351
0.00026433
-8.22022e-05
0.000616759
-0.000885461
0.00115678
-0.00199853
0.00185419
-0.00329421
0.00263513
-0.0046102
0.00341831
-0.00581456
0.00414443
-0.00683998
0.00478543
-0.00767765
0.00533991
-0.00835486
0.00582238
-0.00891419
0.00625414
-0.00939728
0.00665457
-0.0098404
0.00704111
-0.0102639
0.00742136
-0.0106932
0.00780771
-0.0111142
0.00819491
-0.011582
0.00859065
-0.0119943
-0.0125363
0.00897728
8.08091e-06
0.000323896
9.9009e-05
0.000245423
0.000328446
-0.00031164
0.000746421
-0.00130344
0.00135485
-0.00260695
0.00209051
-0.00402987
0.00286067
-0.00538036
0.00358864
-0.00654253
0.00423341
-0.00748475
0.00478672
-0.00823096
0.00526125
-0.00882939
0.00567835
-0.0093313
0.0060599
-0.00977883
0.00642279
-0.0102033
0.00678001
-0.0106211
0.0071366
-0.0110498
0.00750084
-0.0114784
0.00786521
-0.0119463
0.00824718
-0.0123763
-0.0129149
0.00862574
1.2636e-05
0.00031126
0.000125821
0.000132239
0.000403024
-0.000588843
0.000887584
-0.001788
0.00155015
-0.00326952
0.00229643
-0.00477615
0.00302852
-0.00611245
0.0036855
-0.00719952
0.00424736
-0.00804661
0.00472209
-0.00870569
0.00513094
-0.00923824
0.0054972
-0.00969756
0.00584047
-0.0101221
0.00617405
-0.0105369
0.00650706
-0.0109541
0.00684248
-0.0113852
0.00718544
-0.0118214
0.0075325
-0.0122934
0.00789
-0.0127338
-0.013275
0.00825012
1.84481e-05
0.000292812
0.000157784
-7.09692e-06
0.000487678
-0.000918737
0.00103464
-0.00233496
0.00173093
-0.00396581
0.00246106
-0.00550628
0.00313604
-0.00678743
0.00371635
-0.00777982
0.0042009
-0.00853116
0.00460888
-0.00911367
0.00496517
-0.00959454
0.00529183
-0.0100242
0.00560487
-0.0104351
0.00591409
-0.0108461
0.00622554
-0.0112656
0.00654074
-0.0117004
0.00686408
-0.0121447
0.00719004
-0.0126194
0.00752916
-0.0130729
-0.0136202
0.00787442
2.56544e-05
0.000267158
0.000195248
-0.00017669
0.000580779
-0.00130427
0.0011801
-0.00293428
0.00188675
-0.00467247
0.00257897
-0.00619849
0.0031866
-0.00739507
0.00369184
-0.00828506
0.0041082
-0.00894752
0.00446113
-0.00946659
0.0047756
-0.00990901
0.00507064
-0.0103193
0.00535853
-0.010723
0.0056461
-0.0111337
0.00593718
-0.0115567
0.00623278
-0.011996
0.00653548
-0.0124474
0.00684235
-0.0129262
0.00716183
-0.0133924
-0.0139411
0.00748273
3.43843e-05
0.000232773
0.000238289
-0.000380595
0.000679323
-0.0017453
0.00131582
-0.00357077
0.00201039
-0.00536703
0.0026498
-0.0068379
0.00318706
-0.00793233
0.00362314
-0.00872113
0.00398135
-0.00930574
0.00428939
-0.00977463
0.0045701
-0.0101897
0.00483885
-0.010588
0.00510458
-0.0109888
0.00537185
-0.0114009
0.00564309
-0.0118279
0.00591881
-0.0122717
0.00620132
-0.01273
0.00648769
-0.0132126
0.00678551
-0.0136902
-0.0142418
0.00708613
4.47782e-05
0.000187995
0.000286564
-0.00062238
0.000779121
-0.00223786
0.00143449
-0.00422614
0.00209837
-0.00603092
0.00267678
-0.00741631
0.00314565
-0.0084012
0.00352041
-0.00909589
0.00382989
-0.00961522
0.00410119
-0.0100459
0.00435385
-0.0104424
0.00459967
-0.0108338
0.00484486
-0.011234
0.00509243
-0.0116485
0.00534386
-0.0120793
0.00559965
-0.0125275
0.0058613
-0.0129916
0.00612701
-0.0134783
0.0064034
-0.0139666
-0.0145189
0.00668059
5.69996e-05
0.000130996
0.00033917
-0.000904551
0.000875304
-0.00277399
0.00153075
-0.00488158
0.00215056
-0.00665074
0.00266515
-0.0079309
0.00307052
-0.00880657
0.0033922
-0.00941757
0.00366104
-0.00988405
0.00390175
-0.0102866
0.00413019
-0.0106708
0.00435504
-0.0110587
0.00458052
-0.0114595
0.00480854
-0.0118765
0.0050401
-0.0123109
0.00527557
-0.012763
0.00551621
-0.0132322
0.00576071
-0.0137228
0.00601426
-0.0142201
-0.0147733
0.00626859
7.12202e-05
5.97754e-05
0.000394621
-0.00122795
0.00096302
-0.00334239
0.00160167
-0.00552023
0.00216913
-0.0072182
0.00262087
-0.00838263
0.00296904
-0.00915475
0.00324532
-0.00969384
0.00348003
-0.0101188
0.00369455
-0.0105012
0.00390123
-0.0108775
0.00410622
-0.0112637
0.00431231
-0.0116655
0.00452076
-0.012085
0.00473223
-0.0125224
0.00494715
-0.0129779
0.0051664
-0.0134515
0.00538917
-0.0139456
0.00561976
-0.0144507
-0.0150039
0.0058504
8.75567e-05
-2.77813e-05
0.000450962
-0.00159136
0.00103812
-0.00392956
0.00164653
-0.00612864
0.0021576
-0.00772927
0.00254982
-0.00877485
0.00284744
-0.00945237
0.00308498
-0.00993139
0.00329059
-0.0103244
0.00348195
-0.0106925
0.00366834
-0.0110639
0.00385402
-0.0114493
0.00404082
-0.0118523
0.00422956
-0.0122737
0.00442078
-0.0127136
0.00461483
-0.013172
0.00481242
-0.0136491
0.0050131
-0.0141463
0.00522007
-0.0146577
-0.0152107
0.00542683
0.000105967
-0.000133748
0.000505977
-0.00199137
0.00109769
-0.00452127
0.00166625
-0.0066972
0.00212006
-0.00818308
0.0024574
-0.00911219
0.00271078
-0.00970576
0.00291511
-0.0101357
0.0030953
-0.0105046
0.0032655
-0.0108627
0.00343246
-0.0112308
0.00359907
-0.011616
0.00376653
-0.0120198
0.00393543
-0.0124426
0.00410617
-0.0128843
0.00427914
-0.0133449
0.00445482
-0.0138248
0.004633
-0.0143244
0.00481613
-0.0148408
-0.0153932
0.0049987
0.000126157
-0.000259905
0.000557383
-0.00242259
0.00114017
-0.00510406
0.00166279
-0.00721982
0.00206069
-0.00858098
0.00234826
-0.00939976
0.00256309
-0.00992059
0.00273856
-0.0103112
0.00289597
-0.010662
0.00304626
-0.011013
0.00319425
-0.0113788
0.00334185
-0.0117636
0.00348989
-0.0121678
0.0036388
-0.0125915
0.00378892
-0.0130344
0.00394058
-0.0134966
0.00409414
-0.0139783
0.00424955
-0.0144799
0.00440855
-0.0149998
-0.0155514
0.00456671
0.000147562
-0.000407467
0.000603018
-0.00287805
0.00116529
-0.00566633
0.00163868
-0.00769321
0.0019834
-0.00892569
0.00222634
-0.0096427
0.00240745
-0.0101017
0.00255742
-0.0104611
0.00269385
-0.0107984
0.00282501
-0.0111442
0.00295424
-0.0115081
0.00308283
-0.0118922
0.00321136
-0.0122964
0.00334015
-0.0127203
0.0034695
-0.0131638
0.00359969
-0.0136268
0.00373097
-0.0141096
0.00386337
-0.0146123
0.00399811
-0.0151346
-0.0156849
0.00413166
0.000169422
-0.00057689
0.000641013
-0.00334964
0.00117366
-0.00619898
0.00159665
-0.00811619
0.0018917
-0.00922075
0.00209483
-0.00984583
0.00224624
-0.0102531
0.00237319
-0.0105881
0.00248985
-0.0109151
0.00260231
-0.0112566
0.00271287
-0.0116186
0.00282241
-0.0120017
0.00293134
-0.0124053
0.00303993
-0.0128289
0.00314841
-0.0132723
0.00325702
-0.0137354
0.0033659
-0.0142185
0.00347515
-0.0147215
0.00358553
-0.0152449
-0.0157937
0.00369429
0.000190905
-0.000767794
0.000669973
-0.00382871
0.00116649
-0.0066955
0.00153941
-0.00848911
0.00178866
-0.00947001
0.00195631
-0.0100135
0.00208122
-0.010378
0.00218695
-0.0106938
0.00228463
-0.0110128
0.00237864
-0.0113506
0.00247056
-0.0117105
0.002561
-0.0120921
0.00265027
-0.0124946
0.00273859
-0.0129172
0.00282614
-0.0133598
0.00291309
-0.0138223
0.00299953
-0.0143049
0.00308553
-0.0148075
0.00317153
-0.0153309
-0.0158776
0.0032554
0.000211206
-0.000979
0.000689079
-0.00430658
0.00114529
-0.00715171
0.00146953
-0.00881335
0.00167687
-0.00967734
0.0018128
-0.0101494
0.00191373
-0.010479
0.00199951
-0.0107796
0.00207869
-0.0110919
0.00215439
-0.0114263
0.00222768
-0.0117838
0.002299
-0.0121634
0.00236858
-0.0125641
0.0024366
-0.0129852
0.0025032
-0.0134264
0.00256847
-0.0138876
0.00263245
-0.0143689
0.00269519
-0.0148703
0.00275683
-0.0153926
-0.0159365
0.00281576
0.000229597
-0.0012086
0.000698092
-0.00477507
0.00111169
-0.00756531
0.00138937
-0.00909103
0.00155848
-0.00984645
0.00166589
-0.0102568
0.00174477
-0.0105578
0.00181149
-0.0108463
0.00187248
-0.0111529
0.00192994
-0.0114838
0.0019846
-0.0118385
0.00203679
-0.0122156
0.00208668
-0.012614
0.00213442
-0.013033
0.00218008
-0.0134721
0.0022237
-0.0139312
0.00226526
-0.0144104
0.00230478
-0.0149098
0.00234216
-0.01543
-0.0159705
0.00237616
0.000245432
-0.00145403
0.000697264
-0.00522691
0.00106736
-0.00793541
0.001301
-0.00932467
0.0014353
-0.00998075
0.00151683
-0.0103383
0.00157511
-0.0106161
0.00162336
-0.0108946
0.00166636
-0.0111959
0.00170563
-0.011523
0.00174168
-0.0118745
0.00177476
-0.0122487
0.001805
-0.0126443
0.00183249
-0.0130605
0.00185727
-0.0134968
0.00187931
-0.0139533
0.00189854
-0.0144297
0.00191494
-0.0149262
0.00192822
-0.0154432
-0.0159797
0.0019374
0.000258145
-0.00171217
0.0006872
-0.00565596
0.00101389
-0.0082621
0.00120623
-0.00951701
0.00130879
-0.0100833
0.00136657
-0.0103961
0.00140532
-0.0106549
0.00143553
-0.0109248
0.00146067
-0.0112211
0.00148179
-0.0115442
0.00149928
-0.011892
0.0015133
-0.0122627
0.00152395
-0.0126549
0.00153128
-0.0130678
0.00153527
-0.0135008
0.00153584
-0.0139539
0.00153289
-0.0144267
0.00152631
-0.0149196
0.00151573
-0.0154327
-0.0159642
0.00150024
0.000267279
-0.00197945
0.000668741
-0.00605742
0.000952788
-0.00854615
0.00110662
-0.00967084
0.00118013
-0.0101568
0.00121587
-0.0104319
0.00123589
-0.0106749
0.00124834
-0.0109372
0.00125572
-0.0112285
0.00125876
-0.0115472
0.00125774
-0.011891
0.00125278
-0.0122578
0.00124394
-0.0126461
0.00123121
-0.0130551
0.00121454
-0.0134842
0.00119381
-0.0139331
0.00116886
-0.0144018
0.0011395
-0.0148902
0.00110532
-0.0153985
-0.0159243
0.00106546
0.000270971
-0.00225042
0.000640282
-0.00642673
0.000882399
-0.00878826
0.00100041
-0.00978885
0.00104733
-0.0102037
0.00106255
-0.0104471
0.00106457
-0.0106769
0.00105962
-0.0109323
0.00104947
-0.0112183
0.00103465
-0.0115324
0.00101536
-0.0118717
0.000991679
-0.0122341
0.000963614
-0.012618
0.000931124
-0.0130226
0.000894113
-0.0134472
0.000852417
-0.0138914
0.000805861
-0.0143552
0.000754178
-0.0148386
0.000696746
-0.015341
-0.0158607
0.000633143
0.000271957
-0.00252238
0.000607856
-0.00676263
0.000809976
-0.00899039
0.000894826
-0.0098737
0.000917078
-0.010226
0.000912692
-0.0104427
0.000896986
-0.0106612
0.000874642
-0.0109099
0.000846927
-0.0111906
0.000814201
-0.0114997
0.000776607
-0.0118341
0.000734179
-0.0121917
0.000686899
-0.0125708
0.000634674
-0.0129703
0.000577362
-0.0133898
0.000514756
-0.0138288
0.000446684
-0.0142871
0.000372978
-0.0147649
0.000292415
-0.0152605
-0.0157735
0.000205211
0.00026891
-0.00279129
0.000570003
-0.00706373
0.000733757
-0.00915414
0.000787784
-0.00992772
0.000787033
-0.0102252
0.000763854
-0.0104195
0.000730742
-0.0106281
0.000691154
-0.0108703
0.00064598
-0.0111454
0.000595467
-0.0114491
0.000539711
-0.0117784
0.000478699
-0.0121307
0.000412372
-0.0125044
0.000340626
-0.0128986
0.000263241
-0.0133125
0.000179975
-0.0137456
9.05066e-05
-0.0141977
-5.59765e-06
-0.0146688
-0.000107325
-0.0151588
-0.0156625
-0.00021834
0.000262028
-0.00305332
0.000527609
-0.00732931
0.000654722
-0.00928125
0.000680049
-0.00995305
0.000657703
-0.0102029
0.00061638
-0.0103782
0.000566121
-0.0105778
0.000509429
-0.0108137
0.000446929
-0.0110829
0.000378763
-0.011381
0.000304997
-0.0117046
0.000225596
-0.0120513
0.000140375
-0.0124192
4.92502e-05
-0.0128075
-4.78877e-05
-0.0132153
-0.000151386
-0.0136421
-0.000261538
-0.0140875
-0.0003784
-0.0145519
-0.00050366
-0.0150335
-0.0155294
-0.000636769
0.000251619
-0.00330494
0.00048151
-0.0075592
0.000573747
-0.00937349
0.000572276
-0.00995158
0.000529495
-0.0101601
0.00047054
-0.0103192
0.000403352
-0.0105106
0.0003297
-0.01074
0.000250011
-0.0110032
0.000164334
-0.0112953
7.26562e-05
-0.0116129
-2.50338e-05
-0.0119536
-0.00012862
-0.0123156
-0.000238618
-0.0126975
-0.000355291
-0.0130986
-0.000478863
-0.0135185
-0.000609498
-0.0139569
-0.00074768
-0.0144137
-0.000894418
-0.0148868
-0.0153742
-0.00104968
0.000238072
-0.00354301
0.000432479
-0.00775361
0.00049159
-0.0094326
0.000465003
-0.00992499
0.000402749
-0.0100979
0.00032658
-0.0102431
0.000242642
-0.0104267
0.000152178
-0.0106495
5.53106e-05
-0.0109064
-4.76065e-05
-0.0111924
-0.000156629
-0.0115039
-0.000272081
-0.0118381
-0.000394192
-0.0121935
-0.000523018
-0.0125687
-0.000658909
-0.0129628
-0.000802133
-0.0133753
-0.000952955
-0.0138061
-0.0011119
-0.0142548
-0.00127964
-0.014719
-0.0151973
-0.00145654
0.00022182
-0.00376483
0.000381222
-0.00791301
0.000408904
-0.00946028
0.000358677
-0.00987476
0.000277749
-0.0100169
0.0001847
-0.01015
8.4076e-05
-0.0103261
-2.31936e-05
-0.0105423
-0.000136388
-0.0107932
-0.000256268
-0.0110725
-0.000382802
-0.0113774
-0.000516024
-0.0117049
-0.00065619
-0.0120533
-0.000803504
-0.0124213
-0.00095827
-0.012808
-0.0011208
-0.0132127
-0.00129141
-0.0136355
-0.00147061
-0.0140756
-0.00165895
-0.0145307
-0.0149993
-0.00185687
0.00020331
-0.00396814
0.000328384
-0.00803808
0.000326235
-0.00945813
0.000253667
-0.0098022
0.000154716
-0.00991799
4.48458e-05
-0.0100402
-7.1833e-05
-0.0102094
-0.000195066
-0.010419
-0.000325174
-0.0106631
-0.000461966
-0.0109357
-0.000605627
-0.0112337
-0.000756309
-0.0115542
-0.000914243
-0.0118954
-0.0010797
-0.0122559
-0.001253
-0.0126347
-0.00143446
-0.0130313
-0.00162445
-0.0134455
-0.00182344
-0.0138766
-0.00203189
-0.0143222
-0.014781
-0.00225026
0.000182976
-0.00415112
0.000274543
-0.00812965
0.000244053
-0.00942764
0.00015028
-0.00970842
3.34377e-05
-0.00980115
-9.20393e-05
-0.00991467
-0.000224769
-0.0100767
-0.000364384
-0.0102794
-0.000510871
-0.0105166
-0.000664283
-0.0107823
-0.000824794
-0.0110732
-0.000992626
-0.0113864
-0.00116802
-0.01172
-0.00135129
-0.0120726
-0.00154275
-0.0124432
-0.00174276
-0.0128313
-0.0019517
-0.0132365
-0.00217
-0.0136583
-0.00239808
-0.0140942
-0.0145427
-0.00263633
0.00016123
-0.00431235
0.000220208
-0.00818863
0.000162767
-0.0093702
4.86756e-05
-0.00959433
-8.45275e-05
-0.00966794
-0.000226257
-0.00977294
-0.00037497
-0.00992795
-0.000530602
-0.0101238
-0.000693206
-0.010354
-0.000862947
-0.0106126
-0.00104002
-0.0108961
-0.00122469
-0.0112017
-0.00141722
-0.0115275
-0.00161794
-0.0118719
-0.00182719
-0.012234
-0.00204533
-0.0126131
-0.00227278
-0.0130091
-0.00250996
-0.0134211
-0.00275715
-0.013847
-0.0142852
-0.00301471
0.000138466
-0.00445081
0.000165813
-0.00821597
8.27335e-05
-0.00928712
-5.06103e-05
-0.00946099
-0.000200073
-0.00951848
-0.000357721
-0.0096153
-0.000522134
-0.00976354
-0.000693495
-0.00995243
-0.000871945
-0.0101755
-0.00105772
-0.0104268
-0.00125105
-0.0107028
-0.00145223
-0.0110005
-0.00166155
-0.0113182
-0.00187936
-0.0116541
-0.002106
-0.0120073
-0.00234186
-0.0123773
-0.00258738
-0.0127636
-0.00284297
-0.0131655
-0.00310878
-0.0135812
-0.0140089
-0.00338507
0.000115072
-0.00456588
0.00011178
-0.00821268
2.87009e-06
-0.00917821
-0.000147452
-0.00931067
-0.000313034
-0.0093529
-0.000486217
-0.00944211
-0.000666059
-0.0095837
-0.000852866
-0.00976562
-0.00104687
-0.00998152
-0.00124836
-0.0102253
-0.00145762
-0.0104935
-0.00167497
-0.0107832
-0.00190072
-0.0110924
-0.00213524
-0.0114196
-0.00237887
-0.0117637
-0.00263202
-0.0121241
-0.00289516
-0.0125004
-0.00316871
-0.0128919
-0.00345264
-0.0132972
-0.0137144
-0.0037471
9.13932e-05
-0.00465728
5.87891e-05
-0.00818008
-7.2307e-05
-0.00904712
-0.000241855
-0.00914112
-0.000423203
-0.00917155
-0.000611597
-0.00925372
-0.000806574
-0.00938872
-0.00100853
-0.00956367
-0.00121777
-0.00977228
-0.00143465
-0.0100084
-0.0016595
-0.0102687
-0.00189265
-0.01055
-0.00213447
-0.0108506
-0.0023853
-0.0111687
-0.00264552
-0.0115035
-0.00291553
-0.0118541
-0.00319584
-0.0122201
-0.00348687
-0.0126009
-0.00378845
-0.0129956
-0.0134024
-0.00410049
6.7661e-05
-0.00472494
8.67701e-06
-0.00812109
-0.000146611
-0.00889183
-0.000333721
-0.00895401
-0.000530444
-0.00897483
-0.000733723
-0.00905044
-0.000943517
-0.00917893
-0.00116029
-0.00934689
-0.00138444
-0.00954813
-0.00161636
-0.00977649
-0.00185643
-0.0100286
-0.00210503
-0.0103014
-0.00236252
-0.0105931
-0.00262928
-0.010902
-0.00290567
-0.0112271
-0.0031921
-0.0115677
-0.00348914
-0.0119231
-0.00379721
-0.0122928
-0.00411592
-0.0126769
-0.0130733
-0.00444493
4.4023e-05
-0.00476896
-4.56074e-05
-0.00803146
-0.000219258
-0.00871818
-0.000422863
-0.0087504
-0.000634608
-0.00876308
-0.000852456
-0.00883259
-0.00107673
-0.00895465
-0.00130799
-0.00911563
-0.00154669
-0.00930943
-0.00179329
-0.00952989
-0.00204821
-0.0097737
-0.00231185
-0.0100378
-0.00258462
-0.0103203
-0.00286689
-0.0106197
-0.00315903
-0.010935
-0.00346147
-0.0112652
-0.0037748
-0.0116097
-0.00409948
-0.0119682
-0.00443481
-0.0123416
-0.012728
-0.00478011
2.11977e-05
-0.00479016
-9.67623e-05
-0.0079135
-0.000289845
-0.0085251
-0.000509199
-0.00853105
-0.000735579
-0.0085367
-0.000967665
-0.00860051
-0.00120607
-0.00871625
-0.00145144
-0.00887026
-0.00170432
-0.00905656
-0.00196522
-0.00926899
-0.00223459
-0.00950433
-0.00251289
-0.0097595
-0.00280052
-0.0100327
-0.00309789
-0.0103223
-0.00340535
-0.0106275
-0.00372335
-0.0109472
-0.00405252
-0.0112806
-0.00439338
-0.0116273
-0.00474497
-0.01199
-0.0123672
-0.00510578
8.42846e-07
-0.004791
-0.000145585
-0.00776707
-0.000358173
-0.00831251
-0.000592675
-0.00829655
-0.000833259
-0.00829612
-0.00107922
-0.00835454
-0.00133138
-0.00846409
-0.0015905
-0.00861115
-0.00185716
-0.00878989
-0.00213196
-0.00899419
-0.00241538
-0.00922091
-0.00270791
-0.00946697
-0.00300999
-0.00973062
-0.00332202
-0.0100103
-0.00364437
-0.0103052
-0.00397748
-0.0106141
-0.004322
-0.010936
-0.00467848
-0.0112708
-0.00504599
-0.0116225
-0.0119913
-0.00542188
-2.62452e-05
-0.00476476
-0.000192975
-0.00760034
-0.000424008
-0.00808147
-0.000673191
-0.00804737
-0.000927555
-0.00804175
-0.00118702
-0.00809508
-0.00145254
-0.00819856
-0.00172499
-0.0083387
-0.00200503
-0.00850984
-0.00229331
-0.00870592
-0.00259036
-0.00892386
-0.0028967
-0.00916063
-0.00321279
-0.00941453
-0.00353905
-0.00968405
-0.00387588
-0.00996832
-0.00422372
-0.0102663
-0.00458311
-0.0105766
-0.00495454
-0.0108994
-0.00533748
-0.0112396
-0.0116
-0.00572878
-5.00919e-05
-0.00471466
-0.000238749
-0.00741169
-0.000487252
-0.00783297
-0.000750654
-0.00778396
-0.00101838
-0.00777403
-0.00129093
-0.00782253
-0.00156941
-0.00792008
-0.00185477
-0.00805334
-0.00214777
-0.00821685
-0.00244909
-0.0084046
-0.00275932
-0.00861362
-0.00307902
-0.00884092
-0.00340867
-0.00908488
-0.00374873
-0.009344
-0.00409964
-0.00961741
-0.00446192
-0.009904
-0.00483596
-0.0102026
-0.00522212
-0.0105132
-0.00561969
-0.010842
-0.0111955
-0.00602418
-7.25336e-05
-0.00464213
-0.00028277
-0.00720145
-0.00054788
-0.00756786
-0.000824993
-0.00750685
-0.00110565
-0.00749336
-0.00139086
-0.00753733
-0.00168186
-0.00762909
-0.00197969
-0.00775551
-0.00228519
-0.00791134
-0.00259911
-0.00809068
-0.00292207
-0.00829066
-0.00325467
-0.00850833
-0.00359741
-0.00874214
-0.00395079
-0.00899061
-0.00431536
-0.00925284
-0.00469172
-0.00952764
-0.00508021
-0.00981411
-0.00548106
-0.0101124
-0.00589522
-0.0104278
-0.0107893
-0.00630141
-9.70681e-05
-0.00454506
-0.000328648
-0.00696987
-0.000609367
-0.00728714
-0.000899415
-0.0072168
-0.00119236
-0.00720042
-0.00148959
-0.00724009
-0.00179251
-0.00732617
-0.00210222
-0.0074458
-0.00241964
-0.00759393
-0.00274555
-0.00776477
-0.00308064
-0.00795557
-0.00342553
-0.00816344
-0.00378076
-0.00838691
-0.00414687
-0.0086245
-0.00452447
-0.00887524
-0.00491418
-0.00913792
-0.00531619
-0.00941211
-0.00572893
-0.00969966
-0.00615046
-0.0100063
-0.010325
-0.00661482
-0.000117352
-0.00442771
-0.000368731
-0.00671849
-0.000664376
-0.0069915
-0.000967073
-0.00691411
-0.00127205
-0.00689545
-0.00158104
-0.0069311
-0.00189557
-0.00701164
-0.00221684
-0.00712453
-0.00254583
-0.00726493
-0.0028834
-0.0074272
-0.00323027
-0.0076087
-0.00358708
-0.00780663
-0.00395443
-0.00801956
-0.00433291
-0.00824602
-0.00472315
-0.00848501
-0.00512553
-0.00873554
-0.00553977
-0.00899787
-0.00596563
-0.00927379
-0.0064087
-0.00956325
-0.00985516
-0.00687853
-0.000136724
-0.00429099
-0.00040686
-0.00644836
-0.00071666
-0.0066817
-0.00103145
-0.00659931
-0.00134797
-0.00657893
-0.00166822
-0.00661085
-0.00199387
-0.00668599
-0.00232621
-0.00679219
-0.00266629
-0.00692485
-0.003015
-0.00707849
-0.00337313
-0.00725057
-0.00374136
-0.0074384
-0.00412032
-0.0076406
-0.00451065
-0.00785569