/*--------------------------------*- C++ -*----------------------------------*\
  =========                 |
  \\      /  F ield         | OpenFOAM: The Open Source CFD Toolbox
   \\    /   O peration     | Website:  https://openfoam.org
    \\  /    A nd           | Version:  7
     \\/     M anipulation  |
\*---------------------------------------------------------------------------*/
FoamFile
{
    version     2.0;
    format      ascii;
    class       volVectorField;
    location    "20";
    object      U;
}
// * * * * * * * * * * * * * * * * * * * * * * * * * * * * * * * * * * * * * //

dimensions      [0 1 -1 0 0 0 0];

internalField   nonuniform List<vector> 
12100
(
(-0.00678462 0.00258829 -3.81778e-20)
(-0.0288151 0.00446866 -4.63016e-20)
(-0.0587044 0.00496668 5.79923e-21)
(-0.0851922 0.00490897 -1.50062e-20)
(-0.109404 0.00464764 7.31991e-20)
(-0.130571 0.00435274 2.31589e-20)
(-0.149317 0.00407815 -3.23955e-20)
(-0.16599 0.00383721 3.46565e-20)
(-0.180952 0.00362642 -4.74325e-20)
(-0.194462 0.00343774 2.7682e-20)
(-0.206709 0.00326173 1.44453e-20)
(-0.217818 0.00308722 5.23614e-21)
(-0.227855 0.0029011 -1.69496e-20)
(-0.236833 0.00268898 -9.6288e-21)
(-0.244688 0.00242941 -6.32266e-21)
(-0.25127 0.00209315 2.62415e-20)
(-0.256547 0.00172863 -3.07722e-20)
(-0.260028 0.00116689 -6.52739e-21)
(-0.26204 0.000886141 7.57205e-21)
(-0.261338 0.000217139 -2.12666e-20)
(-0.00707061 0.0077099 1.95758e-21)
(-0.0290579 0.0133251 -2.91996e-20)
(-0.0585547 0.0148166 -6.1516e-20)
(-0.0845172 0.0146436 4.99567e-20)
(-0.108083 0.0138585 3.20299e-20)
(-0.128495 0.0129698 4.90396e-21)
(-0.146357 0.0121392 9.36731e-20)
(-0.161997 0.0114068 -1.51075e-19)
(-0.175755 0.0107621 9.22245e-20)
(-0.187861 0.0101811 -7.19516e-20)
(-0.198479 0.00963553 8.63024e-21)
(-0.207703 0.00909242 -4.16013e-20)
(-0.215569 0.00851352 1.50937e-20)
(-0.222069 0.00785747 3.02095e-20)
(-0.227126 0.00706567 5.0404e-20)
(-0.230521 0.0060312 3.02811e-20)
(-0.232392 0.00496404 8.41837e-20)
(-0.231794 0.0031561 7.98357e-21)
(-0.229925 0.0024196 -6.85003e-20)
(-0.223286 9.48897e-06 5.08636e-20)
(-0.00763432 0.0126724 -1.08471e-20)
(-0.0295397 0.0219462 -4.1806e-20)
(-0.058261 0.0244218 6.0331e-20)
(-0.0831809 0.0241336 4.68436e-20)
(-0.105464 0.0228219 -1.58476e-19)
(-0.124373 0.0213278 2.06235e-20)
(-0.14048 0.0199213 -1.57506e-19)
(-0.154078 0.0186696 1.27533e-20)
(-0.165457 0.0175556 -3.56641e-20)
(-0.174803 0.0165391 7.07552e-20)
(-0.182228 0.0155737 -2.21122e-20)
(-0.187776 0.0146057 2.51162e-20)
(-0.191432 0.0135749 -2.54017e-20)
(-0.193145 0.0124174 -4.84194e-20)
(-0.192844 0.0110602 -5.56403e-20)
(-0.190103 0.00924681 -6.78372e-20)
(-0.18565 0.00759547 -1.3694e-19)
(-0.177111 0.00418308 5.08295e-20)
(-0.168631 0.00336372 4.26309e-20)
(-0.150628 -0.00161391 1.32973e-19)
(-0.00845997 0.0173784 5.46471e-20)
(-0.0302534 0.0301824 2.21516e-19)
(-0.0578338 0.0336235 -7.27645e-20)
(-0.0812085 0.0332189 -1.49378e-19)
(-0.101585 0.0313754 -8.66651e-20)
(-0.118263 0.0292582 1.20848e-19)
(-0.13177 0.0272453 1.51469e-19)
(-0.142348 0.025432 -1.10127e-20)
(-0.150228 0.0237955 -3.45947e-21)
(-0.155532 0.0222794 -2.04926e-19)
(-0.15831 0.0208203 -9.70004e-20)
(-0.158545 0.0193457 4.53167e-20)
(-0.156161 0.0177783 5.61619e-21)
(-0.151044 0.0160347 4.44152e-20)
(-0.143227 0.0140794 -1.32493e-19)
(-0.131695 0.0113517 5.16942e-20)
(-0.118858 0.0093449 7.53255e-20)
(-0.0985967 0.00398011 8.69918e-20)
(-0.0823156 0.003354 -4.64711e-20)
(-0.0478648 -0.00429883 -1.07527e-19)
(-0.00952548 0.021741 -1.4862e-19)
(-0.0311877 0.0378939 -4.32878e-20)
(-0.0572867 0.0422685 1.30435e-19)
(-0.0786332 0.0417428 6.84249e-20)
(-0.0964981 0.0393603 3.36627e-19)
(-0.110237 0.0365976 -3.12915e-19)
(-0.120325 0.0339409 -1.75851e-19)
(-0.126944 0.031515 -8.43354e-21)
(-0.130258 0.0292927 -3.07483e-21)
(-0.130316 0.0272031 4.18176e-20)
(-0.127104 0.0251673 6.11526e-20)
(-0.12054 0.0230959 -1.65277e-19)
(-0.110493 0.020902 2.00081e-19)
(-0.0967433 0.0184816 1.02216e-19)
(-0.0796912 0.0158952 1.57384e-19)
(-0.0569047 0.0121681 -3.97198e-21)
(-0.0345215 0.00975873 -3.72128e-20)
(0.00116525 0.00319529 3.8418e-21)
(0.0252591 0.0013856 -5.59096e-20)
(0.0807421 -0.00689913 -1.00052e-19)
(-0.0108039 0.0256869 9.6731e-20)
(-0.0323281 0.0449538 7.90061e-21)
(-0.0566334 0.0502117 -2.42881e-19)
(-0.0754905 0.0495535 -1.20867e-19)
(-0.0902584 0.0466225 -3.9744e-19)
(-0.100366 0.04319 -1.46051e-20)
(-0.106235 0.0398498 -2.09447e-20)
(-0.107982 0.0367585 -3.47051e-20)
(-0.105694 0.0338875 1.55528e-20)
(-0.0993479 0.031154 4.31083e-20)
(-0.0888619 0.0284675 3.41604e-19)
(-0.0740949 0.0257234 -2.18418e-21)
(-0.0548869 0.0228363 1.19698e-19)
(-0.030811 0.0196971 -2.91542e-19)
(-0.00309215 0.0163374 3.77263e-20)
(0.0332601 0.0119004 -5.89833e-20)
(0.0658268 0.00858697 -4.69077e-20)
(0.120887 0.00194289 4.42844e-20)
(0.150413 -0.00219079 -9.78689e-20)
(0.233955 -0.0091654 9.86268e-20)
(-0.0122655 0.0291596 -2.47168e-19)
(-0.0336552 0.0512511 -4.44069e-19)
(-0.0558839 0.0573183 1.61482e-19)
(-0.0718108 0.0565065 -4.50769e-20)
(-0.0829085 0.0530148 3.5779e-19)
(-0.0886995 0.0488885 3.44934e-19)
(-0.0895481 0.0448281 -1.18661e-19)
(-0.0855 0.0410251 1.65008e-19)
(-0.0765596 0.0374548 -2.25723e-19)
(-0.0626245 0.034027 2.64835e-20)
(-0.0435494 0.0306471 -6.99781e-20)
(-0.0191314 0.0271998 1.10022e-19)
(0.0107693 0.023596 -2.95083e-21)
(0.0468779 0.0198129 -1.0117e-19)
(0.086646 0.0155144 2.64382e-19)
(0.139089 0.0109866 -1.02112e-19)
(0.181221 0.00602596 -8.61822e-20)
(0.260609 0.000457691 1.33604e-19)
(0.291664 -0.00604045 4.98459e-20)
(0.408188 -0.0113158 2.16013e-19)
(-0.0138794 0.0321204 1.83195e-19)
(-0.0351451 0.0566934 2.04473e-19)
(-0.0550396 0.0634665 1.42696e-19)
(-0.0676092 0.0624661 5.11139e-19)
(-0.0744644 0.0583983 -1.13716e-19)
(-0.0752363 0.0535575 1.7278e-19)
(-0.0702265 0.0487497 2.25141e-19)
(-0.0593992 0.0442059 -2.83715e-19)
(-0.0426646 0.0399128 6.85877e-19)
(-0.0198308 0.035781 8.77762e-21)
(0.00930488 0.0317236 -4.38796e-19)
(0.0450005 0.0276269 -4.59389e-20)
(0.0873038 0.0233521 -4.24773e-19)
(0.137312 0.0192017 2.00335e-19)
(0.190536 0.013827 -1.48159e-19)
(0.261122 0.0101374 1.54179e-19)
(0.312972 0.00280805 2.14441e-19)
(0.417801 -0.000212203 8.33699e-20)
(0.44963 -0.0090204 -2.32349e-19)
(0.596405 -0.0124081 -2.00685e-19)
(-0.0156157 0.0345495 -8.9845e-20)
(-0.0367673 0.061208 5.36908e-20)
(-0.054087 0.0685497 -4.3384e-19)
(-0.062873 0.0673087 -2.49848e-19)
(-0.0648928 0.0626459 -2.00379e-19)
(-0.0598925 0.0570773 -1.12163e-19)
(-0.0480972 0.0515127 -5.5087e-19)
(-0.0293701 0.0462298 9.97298e-20)
(-0.00351105 0.041238 -5.63047e-19)
(0.0297711 0.036461 -1.61494e-19)
(0.0707132 0.031833 1.00858e-19)
(0.119585 0.0272596 1.856e-19)
(0.176223 0.0224952 -5.57405e-20)
(0.24186 0.0184588 2.1651e-19)
(0.310388 0.0120992 1.24654e-20)
(0.398589 0.010046 -2.32523e-19)
(0.462881 0.000789276 1.6271e-20)
(0.586371 0.000515374 -3.24544e-19)
(0.622869 -0.00949114 5.97047e-20)
(0.786902 -0.0106904 -1.2796e-19)
(-0.0174471 0.036445 3.43151e-19)
(-0.0384835 0.0647434 3.9851e-19)
(-0.0529895 0.072479 1.05438e-19)
(-0.0575466 0.0709262 4.35224e-19)
(-0.0540856 0.0656473 1.21547e-19)
(-0.0424599 0.0593509 2.72641e-19)
(-0.0227918 0.0530507 3.0743e-19)
(0.00518472 0.0470816 2.84028e-19)
(0.0417931 0.0414914 2.61258e-19)
(0.08741 0.0362348 -2.1537e-19)
(0.142221 0.0312781 3.35018e-19)
(0.206373 0.0265748 3.28117e-19)
(0.27931 0.0217323 4.21543e-19)
(0.36153 0.0182817 -4.01258e-19)
(0.447051 0.0118248 3.71459e-20)
(0.548776 0.0111788 3.421e-19)
(0.628725 0.00199971 -1.21288e-19)
(0.757072 0.00350305 1.91292e-21)
(0.803264 -0.00638751 -1.36496e-20)
(0.963375 -0.00530749 1.61322e-19)
(-0.0193499 0.0378217 -2.14971e-19)
(-0.0402444 0.0672694 -3.61939e-19)
(-0.0516785 0.0751866 6.34404e-19)
(-0.0515118 0.0732312 -6.53973e-19)
(-0.0418278 0.0673171 -4.69379e-19)
(-0.0225579 0.0603163 -2.01794e-19)
(0.00631841 0.053351 -8.83654e-20)
(0.0452234 0.0468297 -4.86084e-19)
(0.0945865 0.0408592 -2.86789e-19)
(0.15478 0.0354456 -4.56955e-20)
(0.22572 0.0305912 -1.45379e-19)
(0.307107 0.0262991 -9.6432e-20)
(0.397624 0.022087 -2.27232e-19)
(0.495982 0.0195399 -1.13462e-19)
(0.597703 0.0144255 4.32064e-20)
(0.706749 0.0144685 -2.20775e-19)
(0.800358 0.00726859 2.40209e-20)
(0.918827 0.00941559 1.4038e-20)
(0.974398 0.00040559 -1.64094e-19)
(1.10886 0.00301505 1.08339e-19)
(-0.021304 0.038708 2.01226e-19)
(-0.041986 0.0687763 1.60398e-19)
(-0.0500415 0.0766283 -7.37117e-19)
(-0.0445667 0.0741632 -2.49453e-19)
(-0.0277609 0.0676048 2.65194e-19)
(0.000419657 0.0599642 -1.40543e-19)
(0.0401841 0.0524834 3.83228e-19)
(0.0921076 0.0456675 3.64473e-19)
(0.156618 0.0397046 -4.76652e-19)
(0.233824 0.0346635 -1.49886e-19)
(0.322928 0.0305634 4.6818e-19)
(0.42262 0.0273805 -5.26992e-19)
(0.530115 0.0246603 -4.7327e-19)
(0.642049 0.023352 6.55447e-19)
(0.75449 0.0204889 -1.41709e-19)
(0.86404 0.0209094 6.87602e-20)
(0.96135 0.016075 9.90896e-20)
(1.0598 0.0178878 -8.81579e-20)
(1.11654 0.00976969 2.40203e-19)
(1.21155 0.0121176 3.01133e-19)
(-0.023293 0.0391429 -6.44864e-19)
(-0.0436249 0.0692733 -6.31404e-19)
(-0.0479103 0.0767871 4.72006e-19)
(-0.0364004 0.0736971 3.01017e-19)
(-0.0113429 0.0665108 1.61142e-19)
(0.0273544 0.0583635 -1.31761e-19)
(0.0801157 0.0506378 -2.37878e-19)
(0.14757 0.043963 1.19621e-19)
(0.229842 0.0386179 1.49039e-20)
(0.326228 0.0347057 2.37229e-19)
(0.434486 0.0321946 -2.66911e-19)
(0.551548 0.0308762 -1.13564e-19)
(0.672421 0.0303025 3.70253e-19)
(0.792226 0.0305317 -4.8037e-19)
(0.905865 0.0297698 -2.66786e-20)
(1.0081 0.0303701 1.9609e-19)
(1.09563 0.0268942 -7.81692e-20)
(1.16955 0.0275506 -1.02276e-19)
(1.21624 0.0195287 1.28907e-20)
(1.27133 0.0201505 -1.36436e-19)
(-0.0253022 0.0391716 9.96789e-20)
(-0.0450511 0.0687854 6.62995e-19)
(-0.0450467 0.0756766 -2.08988e-19)
(-0.0265681 0.0718529 -2.70355e-20)
(0.00818854 0.0641051 -2.10342e-19)
(0.0594373 0.0556927 -7.93668e-20)
(0.127763 0.0481697 7.12141e-20)
(0.213538 0.0423046 2.33883e-19)
(0.315954 0.0384325 6.51776e-20)
(0.432573 0.0365735 -4.95996e-19)
(0.558819 0.0364991 2.92637e-19)
(0.689183 0.0375993 1.67512e-19)
(0.816489 0.0393094 -2.16529e-19)
(0.935179 0.0408578 3.40483e-19)
(1.0394 0.0412864 2.63354e-19)
(1.12601 0.0413369 -6.76666e-20)
(1.19387 0.0378176 2.34525e-21)
(1.24312 0.0366355 -1.04832e-20)
(1.27351 0.0278028 -3.33723e-19)
(1.29852 0.0264082 -4.67163e-19)
(-0.0273166 0.0388418 5.63182e-19)
(-0.0461231 0.0673524 -1.64481e-19)
(-0.0411275 0.0733431 -4.23733e-19)
(-0.0144673 0.0687062 5.67057e-19)
(0.0318422 0.06055 5.03046e-19)
(0.098161 0.0522771 3.64302e-19)
(0.184983 0.0456417 3.35318e-19)
(0.291745 0.0415156 -1.15347e-19)
(0.415629 0.0401534 2.13403e-19)
(0.551309 0.0412512 2.01173e-19)
(0.691201 0.0441597 -1.67868e-19)
(0.827361 0.0476856 1.18654e-19)
(0.951645 0.0511101 1.01615e-19)
(1.05907 0.0530445 -7.71408e-20)
(1.14526 0.0534074 1.84652e-19)
(1.21062 0.0518324 -2.03682e-19)
(1.25591 0.0473463 2.43066e-19)
(1.28414 0.0439022 4.76341e-19)
(1.29951 0.0340515 2.36632e-19)
(1.30682 0.0311554 3.75466e-19)
(-0.0293172 0.0381981 -1.77719e-19)
(-0.0466646 0.0650317 9.88235e-20)
(-0.0357301 0.0698635 2.45482e-19)
(0.000680624 0.0643986 -6.87998e-19)
(0.060876 0.0561245 -1.17344e-19)
(0.145238 0.0486234 -5.88765e-19)
(0.253544 0.0438401 2.40158e-19)
(0.383083 0.0425918 -5.75447e-19)
(0.52761 0.0447536 2.24794e-19)
(0.677987 0.0493659 -5.30441e-19)
(0.823819 0.0551489 2.23155e-20)
(0.956 0.0603666 6.57828e-20)
(1.06753 0.0642753 -1.12177e-19)
(1.15575 0.0653371 -2.83656e-19)
(1.21969 0.064453 -4.95369e-21)
(1.26324 0.0605382 3.43743e-19)
(1.289 0.0549103 -2.89008e-19)
(1.30238 0.049162 -6.62257e-19)
(1.30774 0.0388287 -4.9525e-19)
(1.30639 0.0349827 1.87199e-19)
(-0.0312721 0.0372758 5.62283e-21)
(-0.0464566 0.0618884 4.39383e-19)
(-0.0283295 0.0653527 -1.16674e-19)
(0.0198358 0.0591524 -4.00651e-20)
(0.0967566 0.0512502 1.32857e-19)
(0.202403 0.0454407 4.5917e-19)
(0.334616 0.0437314 -2.26136e-19)
(0.486805 0.0465194 -2.0399e-19)
(0.648014 0.0528492 1.34745e-19)
(0.805406 0.0608383 2.99545e-19)
(0.947348 0.0685762 -4.87349e-19)
(1.06598 0.0741552 3.69994e-19)
(1.15763 0.0770901 4.81233e-20)
(1.2233 0.0762782 1.26413e-19)
(1.26576 0.0734594 -2.76825e-19)
(1.29124 0.0672216 -7.98729e-20)
(1.30313 0.0607705 -7.51831e-20)
(1.30777 0.0529259 7.90872e-20)
(1.30745 0.0429479 2.8971e-19)
(1.30246 0.0381892 -6.21412e-19)
(-0.0331297 0.0360958 -4.75224e-20)
(-0.045229 0.0579945 -4.26575e-20)
(-0.0182951 0.0599698 4.96514e-19)
(0.0441238 0.0532806 2.58124e-19)
(0.141055 0.0465096 -2.35183e-19)
(0.271065 0.0436226 6.79992e-20)
(0.42811 0.0463172 7.51361e-20)
(0.599872 0.0539743 6.66545e-19)
(0.770449 0.0643816 -5.61466e-19)
(0.925072 0.0747662 -7.96191e-19)
(1.05363 0.0829529 -7.83176e-19)
(1.152 0.0874333 -1.74055e-19)
(1.22108 0.0882903 4.78315e-20)
(1.26547 0.0852123 -2.71916e-19)
(1.2906 0.0803773 -2.29047e-20)
(1.30329 0.0723808 5.55988e-20)
(1.30667 0.0654562 -4.07625e-20)
(1.30674 0.0558181 5.59144e-19)
(1.30326 0.0469838 1.08333e-20)
(1.29729 0.0407953 5.83943e-19)
(-0.0348129 0.0346653 4.04873e-20)
(-0.0426615 0.0534347 -5.55435e-19)
(-0.00489121 0.053911 1.46842e-19)
(0.074794 0.0471997 -4.97642e-19)
(0.195249 0.0426534 6.35808e-19)
(0.351807 0.0441586 -4.30837e-19)
(0.532041 0.0523788 1.75613e-20)
(0.716919 0.0650161 -3.60193e-20)
(0.887256 0.0785203 -4.45299e-19)
(1.02955 0.0897067 1.09149e-18)
(1.13803 0.0967686 4.60393e-19)
(1.21367 0.099078 -6.5867e-20)
(1.26159 0.0974169 -2.31954e-19)
(1.28879 0.0922333 -4.18138e-19)
(1.30162 0.085693 -1.17146e-20)
(1.3062 0.0766457 -1.91416e-19)
(1.30484 0.0693421 1.65195e-19)
(1.30261 0.0583891 -8.37209e-20)
(1.29722 0.0512663 -6.48863e-19)
(1.29182 0.0425929 -2.56197e-19)
(-0.0362385 0.0330066 -2.92505e-19)
(-0.0383593 0.0482798 3.8346e-19)
(0.0127106 0.0474132 -3.38478e-19)
(0.113139 0.0414469 -3.73731e-19)
(0.260415 0.0405773 -6.96501e-19)
(0.443817 0.0479484 2.75547e-19)
(0.642314 0.0621846 -1.91127e-19)
(0.831187 0.0789718 -5.5537e-19)
(0.991522 0.0939209 4.8189e-19)
(1.11447 0.104222 -3.88973e-19)
(1.20016 0.109012 5.6071e-19)
(1.25433 0.108702 6.43679e-19)
(1.2849 0.104652 3.4648e-19)
(1.29962 0.0977879 5.28245e-19)
(1.30447 0.0899838 -8.90438e-20)
(1.30425 0.0804341 1.28291e-19)
(1.30045 0.0726481 -4.75575e-20)
(1.29702 0.0611841 2.93089e-19)
(1.29038 0.0556691 1.44688e-19)
(1.28634 0.043195 1.66704e-19)
(-0.0373077 0.03112 1.52303e-18)
(-0.0318783 0.0425966 -3.89819e-19)
(0.0354093 0.0407795 3.45552e-19)
(0.160351 0.036705 4.24852e-19)
(0.336799 0.0412332 6.56847e-19)
(0.544497 0.0555366 -3.49137e-19)
(0.753251 0.0753222 2.0607e-19)
(0.936182 0.0946372 -2.79151e-19)
(1.07882 0.109211 -5.14443e-19)
(1.17906 0.117333 2.66321e-19)
(1.24273 0.119322 -4.75652e-19)
(1.27887 0.116467 -3.00921e-19)
(1.29646 0.110445 3.44812e-20)
(1.30278 0.102353 1.46161e-19)
(1.30278 0.0936986 -2.76003e-20)
(1.29987 0.0839294 2.59758e-19)
(1.29493 0.0756359 2.7983e-20)
(1.2908 0.0645295 -6.799e-19)
(1.28361 0.0592881 3.06043e-19)
(1.28062 0.042267 -2.84245e-19)
(-0.0378858 0.028992 -1.06979e-18)
(-0.0227404 0.0364897 4.66619e-19)
(0.0641469 0.0343818 -4.94239e-20)
(0.217321 0.0337746 -2.43066e-19)
(0.423391 0.0454036 -7.31082e-19)
(0.649544 0.0668542 5.22073e-19)
(0.858806 0.0907811 -4.75264e-19)
(1.02719 0.110685 2.10435e-19)
(1.14773 0.123392 2.59642e-19)
(1.22526 0.128642 -1.10699e-18)
(1.26982 0.127822 2.13157e-19)
(1.292 0.122779 3.82054e-20)
(1.30051 0.115254 4.67498e-19)
(1.3015 0.106317 -5.66285e-20)
(1.29869 0.0971158 -6.11972e-20)
(1.29434 0.0872277 -4.45817e-20)
(1.28891 0.0786188 2.63594e-19)
(1.2843 0.0680724 2.00453e-19)
(1.27732 0.061138 6.42972e-20)
(1.2743 0.0496912 1.78001e-19)
(-0.0378227 0.0266117 -7.80889e-20)
(-0.0104196 0.0300658 -7.02123e-19)
(0.0998634 0.0286676 3.89513e-19)
(0.284387 0.0335 2.59609e-19)
(0.517765 0.0534616 -2.12234e-19)
(0.753853 0.0812257 -6.61188e-19)
(0.954149 0.10734 4.46657e-19)
(1.10216 0.126089 -1.16e-19)
(1.19942 0.13599 8.43123e-20)
(1.25641 0.138192 6.94018e-19)
(1.28556 0.13485 -3.72253e-19)
(1.29754 0.128056 -3.4464e-19)
(1.30001 0.119437 -3.16239e-19)
(1.29775 0.109936 -5.97903e-20)
(1.29338 0.10037 -2.34326e-20)
(1.2883 0.0904319 2.14605e-19)
(1.28268 0.0816869 -1.13069e-19)
(1.27781 0.0710276 -1.32313e-19)
(1.27103 0.0650884 -3.03065e-19)
(1.26795 0.0523005 -2.05132e-19)
(-0.0369412 0.0239639 -3.30676e-20)
(0.00565033 0.023457 4.10987e-19)
(0.143385 0.0242199 -7.29226e-19)
(0.36097 0.0366483 1.46072e-19)
(0.616204 0.0652449 5.07783e-19)
(0.852522 0.0976254 9.63679e-20)
(1.03631 0.123935 1.5388e-19)
(1.16116 0.14026 2.79458e-19)
(1.23631 0.146936 -3.16278e-19)
(1.27598 0.146247 -2.35388e-19)
(1.29336 0.140786 4.39006e-19)
(1.29823 0.132651 8.15625e-19)
(1.29684 0.123257 9.07502e-20)
(1.29269 0.113371 -3.22268e-19)
(1.28747 0.103549 1.21766e-20)
(1.28202 0.0936192 -2.77068e-19)
(1.27636 0.0845775 6.82114e-20)
(1.27132 0.0744918 -1.3552e-19)
(1.26481 0.0675905 -5.14272e-19)
(1.2619 0.0560105 2.69496e-19)
(-0.0350428 0.0210388 8.02618e-20)
(0.0260697 0.0168464 7.71473e-19)
(0.195279 0.0217616 -2.37197e-19)
(0.44538 0.0436779 6.55124e-19)
(0.714391 0.0800891 -5.39303e-19)
(0.941839 0.114991 6.41277e-19)
(1.10429 0.139835 -5.24428e-19)
(1.20573 0.152978 3.41593e-19)
(1.26128 0.15639 -2.23535e-19)
(1.28709 0.153137 2.33456e-20)
(1.29585 0.14597 -2.64221e-19)
(1.29594 0.136829 -4.61982e-19)
(1.29217 0.12688 -2.29147e-19)
(1.28693 0.116714 1.59693e-19)
(1.28127 0.106706 5.42856e-20)
(1.27563 0.0967236 1.50114e-19)
(1.26999 0.0875935 -3.64854e-20)
(1.26486 0.0774699 4.50118e-19)
(1.25869 0.0706533 4.33811e-19)
(1.25565 0.0591911 1.81098e-19)
(-0.0319098 0.0178379 -7.2655e-19)
(0.0514572 0.0105046 -6.95869e-19)
(0.255652 0.0220899 5.44691e-19)
(0.534891 0.0545697 -3.30995e-20)
(0.808298 0.0970724 7.69021e-19)
(1.01968 0.132468 -4.66398e-19)
(1.15856 0.154654 2.03908e-19)
(1.23803 0.164276 -2.65115e-19)
(1.27707 0.164613 4.99637e-19)
(1.2922 0.159181 -2.00074e-19)
(1.29487 0.150671 1.9675e-19)
(1.29186 0.140774 -1.34284e-20)
(1.28664 0.130411 1.55139e-19)
(1.28079 0.120022 -2.03914e-20)
(1.2749 0.109838 2.39912e-19)
(1.26918 0.0998304 4.92674e-20)
(1.26358 0.0904541 -8.65992e-21)
(1.25842 0.0806009 -3.07492e-19)
(1.25255 0.0732824 -1.1839e-19)
(1.24947 0.0620998 -1.73146e-19)
(-0.0273038 0.0143782 1.04361e-18)
(0.0824114 0.00483598 -6.74436e-19)
(0.323941 0.0259142 1.73177e-19)
(0.626168 0.0688492 -6.85618e-19)
(0.894842 0.115293 -4.84146e-19)
(1.08534 0.149491 5.30278e-20)
(1.20047 0.168263 9.56407e-20)
(1.26037 0.174318 -2.69086e-19)
(1.28603 0.171888 4.90282e-20)
(1.29321 0.16465 3.83884e-19)
(1.2917 0.155086 -2.83851e-19)
(1.2867 0.144606 -1.71098e-19)
(1.28063 0.13391 -9.46473e-20)
(1.27443 0.123312 -8.53492e-20)
(1.26842 0.112969 -1.10007e-19)
(1.26268 0.102864 2.07868e-19)
(1.25713 0.0933474 -1.01953e-19)
(1.25197 0.0834971 -2.14828e-20)
(1.24641 0.0759063 2.83433e-19)
(1.24317 0.0649694 3.10371e-19)
(-0.0209605 0.0106984 -2.48091e-19)
(0.119434 0.000418135 6.26231e-19)
(0.398813 0.0336504 3.76156e-19)
(0.715866 0.0857832 -4.28785e-19)
(0.972121 0.134031 5.32816e-19)
(1.13917 0.165747 -3.16653e-21)
(1.23175 0.180695 4.82939e-19)
(1.2749 0.183326 3.16089e-19)
(1.29004 0.178475 2.81435e-19)
(1.29146 0.169756 -2.71994e-19)
(1.28713 0.159353 1.90818e-19)
(1.28089 0.148396 2.01928e-19)
(1.27431 0.137404 3.39976e-19)
(1.26792 0.1266 -1.80301e-19)
(1.26186 0.11608 -1.94115e-22)
(1.25611 0.105874 -1.7497e-19)
(1.25062 0.0961427 6.7672e-21)
(1.24551 0.0863626 -7.86804e-20)
(1.24019 0.0783916 -1.67457e-19)
(1.23682 0.0675904 -6.407e-20)
(-0.0125842 0.00687085 -2.26151e-19)
(0.162813 -0.00200526 -2.53032e-19)
(0.478258 0.0452967 -1.31141e-20)
(0.801162 0.104612 4.06458e-19)
(1.03929 0.152791 -3.9843e-19)
(1.18212 0.181105 -4.36539e-19)
(1.25419 0.192074 1.67445e-19)
(1.28343 0.191527 -1.9819e-19)
(1.29053 0.184595 -1.26313e-19)
(1.28787 0.174656 4.95209e-20)
(1.28169 0.16356 -4.32224e-19)
(1.27468 0.152185 3.99695e-19)
(1.26779 0.140908 -3.87456e-20)
(1.26129 0.129882 -8.979e-20)
(1.2552 0.119179 8.12573e-20)
(1.24947 0.108821 -1.24531e-19)
(1.24405 0.0989124 -1.11483e-19)
(1.23899 0.0890979 -6.79897e-21)
(1.2339 0.0807739 -8.34502e-20)
(1.23038 0.0701333 1.58433e-19)
(-0.00184884 0.00301741 2.6041e-19)
(0.212499 -0.001611 4.59507e-19)
(0.559863 0.0604799 -6.23542e-19)
(0.880023 0.124695 -2.32946e-19)
(1.0963 0.171259 -1.06086e-19)
(1.21545 0.195555 6.11516e-19)
(1.26948 0.202566 -1.63627e-19)
(1.28746 0.199135 -1.02502e-19)
(1.28855 0.190419 -1.42672e-19)
(1.28305 0.179457 1.71958e-19)
(1.27566 0.16776 6.39315e-20)
(1.26817 0.155992 -7.4998e-20)
(1.2611 0.144423 -2.02244e-19)
(1.25454 0.13316 2.0708e-20)
(1.24845 0.12225 -8.82809e-20)
(1.24276 0.111724 1.58992e-19)
(1.23741 0.101611 3.93649e-20)
(1.23242 0.0917485 4.15585e-20)
(1.22752 0.0830676 5.69559e-20)
(1.22388 0.0725195 -1.66888e-19)
(0.0115867 -0.000670125 -4.89887e-19)
(0.268005 0.0023426 -2.8745e-20)
(0.641168 0.0786278 -9.52627e-20)
(0.951216 0.145552 2.75314e-19)
(1.14362 0.189259 -9.57621e-20)
(1.24051 0.209155 -2.68819e-19)
(1.27907 0.212344 -3.79284e-19)
(1.28815 0.206329 2.67118e-19)
(1.28482 0.196079 -3.15011e-19)
(1.27738 0.184229 1.57126e-19)
(1.26922 0.171979 9.28221e-20)
(1.26143 0.159822 -4.91496e-20)
(1.25425 0.147945 1.16168e-19)
(1.24767 0.136424 1.31262e-19)
(1.24159 0.125293 -2.80743e-19)
(1.23595 0.114567 2.1224e-19)
(1.23069 0.104259 1.90377e-20)
(1.22578 0.0942961 3.70364e-20)
(1.22104 0.0852619 1.80221e-19)
(1.2173 0.0748063 4.53231e-20)
(0.0280414 -0.00391166 1.45683e-19)
(0.328408 0.0103454 -5.96468e-19)
(0.719964 0.0991435 5.645e-19)
(1.01416 0.166843 2.58839e-19)
(1.18202 0.206707 -1.94024e-19)
(1.2586 0.222 -3.21498e-19)
(1.28418 0.221574 1.09926e-20)
(1.28636 0.213255 -6.38439e-20)
(1.27985 0.201661 5.42146e-19)
(1.27111 0.189011 -2.48239e-19)
(1.26245 0.176229 -2.86406e-20)
(1.25447 0.16367 6.61298e-20)
(1.24724 0.151466 -4.13312e-20)
(1.24066 0.139667 -8.53045e-20)
(1.23462 0.128294 2.41814e-19)
(1.22904 0.117355 -2.00258e-19)
(1.22386 0.10684 2.48926e-20)
(1.21905 0.0967473 -1.14656e-19)
(1.21446 0.0873761 -1.22093e-19)
(1.21066 0.0769799 -3.98739e-20)
(0.047761 -0.00633443 -1.04893e-19)
(0.392423 0.0225409 2.49466e-19)
(0.794477 0.121499 -2.28398e-19)
(1.06876 0.188332 -2.38159e-19)
(1.2124 0.223578 3.97572e-19)
(1.27087 0.234202 4.23987e-19)
(1.28581 0.230401 2.0594e-19)
(1.28273 0.220022 -3.53918e-21)
(1.27398 0.207225 -5.33138e-19)
(1.26437 0.193822 4.52109e-20)
(1.25539 0.180507 1.71549e-20)
(1.24732 0.167529 1.16425e-19)
(1.24007 0.154977 1.92053e-19)
(1.23351 0.14288 -1.01064e-20)
(1.22752 0.131249 -4.43322e-20)
(1.22202 0.120077 1.80004e-19)
(1.21694 0.109355 -1.18514e-19)
(1.21223 0.0991004 1.46914e-19)
(1.20778 0.0894047 -1.32943e-20)
(1.20396 0.0790579 1.53001e-19)
(0.0708681 -0.00749189 1.82838e-19)
(0.458557 0.0387523 9.76651e-20)
(0.863431 0.145257 -2.2426e-19)
(1.11523 0.209843 -2.7952e-19)
(1.23571 0.239886 -1.98792e-20)
(1.27837 0.245873 -4.65397e-20)
(1.28472 0.238944 2.30414e-19)
(1.27771 0.226706 1.61275e-19)
(1.2674 0.2128 1.7427e-19)
(1.25723 0.198665 -6.36442e-20)
(1.24807 0.184804 8.43984e-20)
(1.23995 0.171386 -7.79144e-20)
(1.23272 0.158464 -1.59346e-19)
(1.2262 0.146052 1.944e-20)
(1.22029 0.134147 4.19662e-20)
(1.21488 0.122732 5.03486e-20)
(1.20991 0.111797 6.75511e-20)
(1.2053 0.101355 -4.08947e-20)
(1.20099 0.091358 7.96748e-20)
(1.19718 0.0810421 -1.84893e-19)
(0.0973248 -0.00690868 2.41384e-19)
(0.52526 0.0585921 -2.21481e-20)
(0.926015 0.170062 3.15018e-19)
(1.15397 0.231242 1.93519e-19)
(1.25286 0.255662 8.73003e-20)
(1.28195 0.257116 -2.15072e-19)
(1.28149 0.247294 -2.05101e-19)
(1.27161 0.233356 -5.73101e-20)
(1.26024 0.218398 -1.55458e-20)
(1.24973 0.203531 -1.51991e-20)
(1.24048 0.189104 -2.03425e-19)
(1.23237 0.175224 4.48681e-20)
(1.22518 0.161914 8.15836e-20)
(1.21874 0.149171 2.47226e-21)
(1.21292 0.13698 9.96241e-21)
(1.20763 0.125313 -2.55575e-20)
(1.20277 0.114159 -6.26515e-20)
(1.19827 0.103511 -5.24039e-20)
(1.19409 0.0932348 -1.10168e-19)
(1.19032 0.0829382 1.705e-20)
(0.12692 -0.00414335 -1.4827e-19)
(0.591052 0.0815853 9.36267e-20)
(0.981808 0.195627 -3.90043e-20)
(1.18551 0.252419 9.18725e-21)
(1.26467 0.270946 -3.58868e-19)
(1.28232 0.268019 8.93515e-20)
(1.27657 0.255516 5.78569e-20)
(1.26464 0.239995 -4.01785e-20)
(1.25259 0.224015 1.44294e-19)
(1.24189 0.208405 -2.36715e-21)
(1.23262 0.19339 6.37929e-20)
(1.22455 0.179026 7.50352e-20)
(1.21745 0.165311 -5.16404e-20)
(1.21111 0.152225 -6.13237e-20)
(1.20541 0.139737 -3.35201e-20)
(1.20024 0.127813 -3.61688e-20)
(1.19551 0.116436 3.19119e-20)
(1.19114 0.105568 3.70886e-20)
(1.1871 0.095039 6.01765e-20)
(1.18338 0.0847486 6.99493e-20)
(0.15928 0.00114998 -6.91418e-20)
(0.654604 0.107251 -1.38147e-20)
(1.03068 0.221717 -1.27029e-19)
(1.21042 0.273281 1.18727e-19)
(1.27188 0.285778 2.57696e-19)
(1.28005 0.278649 1.41547e-19)
(1.27026 0.263647 -6.40608e-20)
(1.25692 0.246626 -3.75838e-20)
(1.24446 0.229634 -8.55195e-20)
(1.2337 0.213263 8.2605e-20)
(1.22448 0.197639 -3.23712e-21)
(1.21651 0.182773 -4.13797e-20)
(1.20952 0.168639 -4.89768e-20)
(1.20331 0.155198 -4.72215e-20)
(1.19775 0.142407 9.86221e-20)
(1.19273 0.130222 -3.35809e-20)
(1.18814 0.118618 -3.66452e-20)
(1.18391 0.107524 -6.35214e-21)
(1.18 0.0967693 -6.58708e-21)
(1.17635 0.0864742 -3.88871e-20)
(0.193902 0.00918071 -6.87544e-21)
(0.714791 0.135134 -9.28607e-20)
(1.07271 0.248138 4.34392e-20)
(1.22928 0.293755 -1.55962e-19)
(1.27513 0.300188 -1.09667e-19)
(1.27558 0.289055 1.64332e-20)
(1.2628 0.271705 -1.64533e-21)
(1.24853 0.253239 7.34131e-21)
(1.23588 0.235232 2.32297e-20)
(1.22516 0.21808 4.13101e-20)
(1.21605 0.201827 -5.63778e-20)
(1.20821 0.186444 2.41255e-20)
(1.20138 0.171879 4.23723e-20)
(1.19534 0.158077 -9.27912e-21)
(1.18994 0.144979 -4.16098e-20)
(1.18508 0.132533 2.35133e-20)
(1.18065 0.120699 2.70831e-20)
(1.17657 0.109377 2.76491e-20)
(1.17281 0.0984251 -1.41889e-20)
(1.16924 0.0881149 5.17326e-21)
(0.230186 0.0200135 7.67371e-20)
(0.770708 0.164809 -1.0821e-19)
(1.10811 0.274718 -1.49011e-20)
(1.24269 0.31378 6.37956e-20)
(1.27497 0.314199 1.03581e-19)
(1.26926 0.299264 -3.19011e-20)
(1.25434 0.279688 -9.15252e-20)
(1.23953 0.259809 9.113e-20)
(1.22686 0.240778 -2.471e-20)
(1.21626 0.222826 -2.85814e-20)
(1.20732 0.205927 2.61344e-20)
(1.19967 0.190015 -1.30465e-20)
(1.19303 0.175013 -3.84949e-21)
(1.18719 0.160845 1.03334e-20)
(1.18198 0.147439 1.49297e-20)
(1.17731 0.134732 1.92709e-20)
(1.17305 0.12267 -3.46357e-20)
(1.16914 0.111125 -8.67939e-21)
(1.16552 0.100003 -2.1716e-21)
(1.16204 0.0896679 1.06389e-20)
(0.267443 0.0335893 -4.2117e-20)
(0.821665 0.195876 7.52064e-20)
(1.13714 0.301292 -9.43631e-21)
(1.25117 0.333304 -2.05165e-20)
(1.27187 0.327822 -6.74136e-20)
(1.26135 0.309282 3.17565e-20)
(1.24499 0.287577 2.09567e-20)
(1.22995 0.266305 -2.3272e-20)
(1.21739 0.246237 -3.82237e-21)
(1.20699 0.227469 1.11687e-20)
(1.19828 0.209911 -1.21611e-20)
(1.19088 0.193464 6.14784e-21)
(1.18447 0.17802 -1.34334e-20)
(1.17886 0.163485 7.73732e-21)
(1.17387 0.149773 1.60911e-21)
(1.1694 0.136811 -7.16803e-21)
(1.16534 0.124522 4.14282e-21)
(1.16161 0.112764 -6.52087e-21)
(1.15815 0.101496 2.14417e-21)
(1.15477 0.0911293 7.7144e-21)
(0.304893 0.049755 -3.02494e-20)
(0.867175 0.22795 6.58718e-20)
(1.16012 0.327698 -6.97332e-21)
(1.25525 0.352282 -2.63709e-20)
(1.2662 0.341055 -6.20218e-20)
(1.25205 0.319101 3.12666e-20)
(1.23482 0.295343 2.03954e-20)
(1.21978 0.272687 -1.83495e-20)
(1.20746 0.251571 -2.1202e-22)
(1.19736 0.231976 8.71799e-21)
(1.18895 0.213752 -7.71635e-21)
(1.18182 0.196765 -2.12004e-21)
(1.1757 0.18088 -4.67912e-21)
(1.17035 0.165981 2.81634e-21)
(1.16562 0.151968 1.83614e-21)
(1.16138 0.138755 -7.27494e-21)
(1.15753 0.126247 8.17917e-21)
(1.154 0.114289 -7.91294e-21)
(1.1507 0.102899 -1.94558e-21)
(1.14742 0.0924923 5.04194e-21)
(0.34177 0.0682644 8.75752e-20)
(0.90686 0.260628 -8.88374e-20)
(1.1773 0.353749 -6.44185e-20)
(1.25532 0.370664 8.42453e-20)
(1.25825 0.353892 9.63202e-20)
(1.24149 0.328701 -3.93741e-20)
(1.22385 0.302952 -6.54045e-20)
(1.20904 0.278917 7.17938e-20)
(1.19708 0.256745 -2.00867e-20)
(1.18734 0.236315 -2.35222e-20)
(1.17929 0.217422 1.84792e-20)
(1.17252 0.199897 -3.57132e-21)
(1.16671 0.183573 -8.71792e-21)
(1.16167 0.168316 2.79583e-21)
(1.15721 0.154009 1.35803e-20)
(1.15323 0.140555 1.60199e-20)
(1.14962 0.127834 -2.02196e-20)
(1.14631 0.115691 -5.36917e-21)
(1.14318 0.104205 -3.5279e-21)
(1.14 0.0937531 7.61697e-21)
(0.377534 0.0888946 3.90186e-20)
(0.940776 0.293641 -1.4118e-19)
(1.18914 0.379332 3.97843e-20)
(1.25183 0.388415 -1.04424e-19)
(1.24829 0.3663 -1.22149e-19)
(1.22979 0.338032 1.98735e-20)
(1.21213 0.310343 7.89488e-21)
(1.19772 0.284936 -8.00933e-21)
(1.18623 0.261705 2.67159e-20)
(1.17695 0.24044 -1.06813e-21)
(1.16933 0.220883 -1.75317e-20)
(1.16296 0.202826 3.55362e-21)
(1.15752 0.186072 3.4515e-20)
(1.15282 0.170465 -2.97462e-21)
(1.14868 0.155878 -1.19278e-20)
(1.14497 0.142194 -6.97672e-21)
(1.14161 0.12927 3.06036e-20)
(1.13854 0.116954 1.32614e-20)
(1.13562 0.105409 -7.85328e-21)
(1.13251 0.0949134 -9.33294e-21)
(0.41156 0.111402 -8.66033e-20)
(0.968883 0.326699 -1.68774e-20)
(1.19595 0.404286 -1.24132e-19)
(1.24512 0.405475 1.39766e-19)
(1.23653 0.378242 1.74336e-19)
(1.21702 0.347046 6.78514e-20)
(1.19968 0.317464 -1.24111e-20)
(1.18584 0.290695 1.41242e-20)
(1.17493 0.266411 -7.22891e-20)
(1.16619 0.244319 5.20542e-20)
(1.15907 0.224106 -1.58005e-20)
(1.15315 0.205528 -1.21543e-20)
(1.14813 0.188357 -3.33095e-20)
(1.1438 0.172413 -1.01698e-20)
(1.14001 0.157559 1.58969e-20)
(1.13661 0.143662 -1.04779e-20)
(1.13354 0.130547 -1.38307e-20)
(1.13073 0.118068 4.01124e-21)
(1.12799 0.106501 -2.48769e-21)
(1.125 0.0959694 -2.14157e-20)
(0.443271 0.135524 -1.27988e-19)
(0.991248 0.359525 2.47226e-20)
(1.19806 0.428463 6.00354e-20)
(1.23551 0.421787 -6.60365e-20)
(1.22314 0.389666 -2.3886e-19)
(1.20325 0.355682 1.99174e-20)
(1.18651 0.324251 8.65336e-20)
(1.17339 0.296139 -3.20983e-20)
(1.16317 0.270813 6.93242e-20)
(1.15506 0.247908 -1.85522e-20)
(1.1485 0.227055 4.64154e-20)
(1.1431 0.207971 6.35197e-21)
(1.13855 0.1904 7.95842e-22)