/*--------------------------------*- C++ -*----------------------------------*\
  =========                 |
  \\      /  F ield         | OpenFOAM: The Open Source CFD Toolbox
   \\    /   O peration     | Website:  https://openfoam.org
    \\  /    A nd           | Version:  7
     \\/     M anipulation  |
\*---------------------------------------------------------------------------*/
FoamFile
{
    version     2.0;
    format      ascii;
    class       surfaceScalarField;
    location    "20";
    object      phi;
}
// * * * * * * * * * * * * * * * * * * * * * * * * * * * * * * * * * * * * * //

dimensions      [0 3 -1 0 0 0 0];

internalField   nonuniform List<scalar> 
5145
(
0.00206539
-2.35557e-05
0.00208867
-2.3279e-05
0.00211167
-2.29956e-05
0.00213437
-2.2706e-05
0.00215678
-2.24108e-05
0.00217889
-2.21104e-05
0.0022007
-2.18052e-05
0.0022222
-2.14958e-05
0.00224338
-2.11826e-05
0.00226424
-2.0866e-05
0.00228479
-2.05465e-05
0.00230501
-2.02245e-05
0.00232492
-1.99003e-05
0.00234449
-1.95745e-05
0.00236374
-1.92473e-05
0.00238266
-1.89191e-05
0.00240125
-1.85903e-05
0.00241951
-1.82613e-05
0.00243744
-1.79324e-05
0.00245505
-1.76039e-05
0.00247232
-1.72761e-05
0.00248927
-1.69494e-05
0.0025059
-1.66242e-05
0.0025222
-1.63006e-05
0.00253818
-1.59791e-05
0.00255384
-1.56599e-05
0.00256918
-1.53434e-05
-5.92758e-10
0.00258421
-1.503e-05
-6.5746e-10
0.00259893
-1.47198e-05
-7.2074e-10
0.00261335
-1.44134e-05
-7.84749e-10
0.00262746
-1.41112e-05
-8.49261e-10
0.00264127
-1.38134e-05
-9.14244e-10
0.00265479
-1.35205e-05
-9.79596e-10
0.00266803
-1.3233e-05
-1.04507e-09
0.00268098
-1.29515e-05
-1.11045e-09
0.00269366
-1.26763e-05
-1.17561e-09
0.00270607
-1.24082e-05
-1.24035e-09
0.00271822
-1.21477e-05
-1.30463e-09
0.00273011
-1.18954e-05
-1.3684e-09
0.00274177
-1.16524e-05
-1.43175e-09
0.00275319
-1.14188e-05
-1.49474e-09
0.00276439
-1.11964e-05
-1.55752e-09
0.00277537
-1.09843e-05
-1.61985e-09
0.00278616
-1.07867e-05
-1.68218e-09
0.00279676
-1.0598e-05
-1.74279e-09
0.00280719
-1.04311e-05
-1.80308e-09
0.00281746
-1.02636e-05
-1.85746e-09
0.0028276
-1.0139e-05
-1.91146e-09
0.00283758
-9.97766e-06
-1.94921e-09
0.0028475
-9.92427e-06
-1.99205e-09
0.00285722
-9.71479e-06
-1.99522e-09
0.00286704
-9.81636e-06
-2.03202e-09
0.00287643
-9.38862e-06
-1.97385e-09
0.00288633
-9.89291e-06
-2.05661e-09
-8.67909e-06
-1.90313e-09
0.00206739
-4.7054e-05
0.00209062
-4.65017e-05
0.00211356
-4.59361e-05
0.00213621
-4.53582e-05
0.00215857
-4.4769e-05
0.00218063
-4.41694e-05
0.00220238
-4.35603e-05
0.00222383
-4.29427e-05
0.00224496
-4.23175e-05
0.00226578
-4.16856e-05
0.00228629
-4.10479e-05
0.00230647
-4.0405e-05
0.00232632
-3.9758e-05
0.00234586
-3.91075e-05
0.00236506
-3.84544e-05
0.00238394
-3.77993e-05
0.0024025
-3.7143e-05
0.00242072
-3.64862e-05
0.00243862
-3.58296e-05
0.00245619
-3.51738e-05
0.00247343
-3.45195e-05
0.00249035
-3.38674e-05
0.00250694
-3.32181e-05
0.00252322
-3.25722e-05
0.00253917
-3.19304e-05
0.0025548
-3.12932e-05
0.00257012
-3.06615e-05
0.00258512
-3.00357e-05
0.00259982
-2.94167e-05
0.00261421
-2.88051e-05
0.0026283
-2.82017e-05
0.0026421
-2.76072e-05
0.0026556
-2.70227e-05
0.00266881
-2.64489e-05
0.00268175
-2.58869e-05
0.00269441
-2.53377e-05
0.00270681
-2.48025e-05
0.00271894
-2.42827e-05
0.00273082
-2.37793e-05
0.00274247
-2.32942e-05
0.00275388
-2.28281e-05
0.00276506
-2.23844e-05
0.00277604
-2.19613e-05
0.00278682
-2.15671e-05
0.00279741
-2.11906e-05
0.00280784
-2.08579e-05
0.0028181
-2.05239e-05
0.00282824
-2.02756e-05
0.00283821
-1.99539e-05
0.00284814
-1.9848e-05
0.00285785
-1.94301e-05
0.00286767
-1.9634e-05
0.00287706
-1.87799e-05
0.00288696
-1.97888e-05
-1.73647e-05
0.00207138
-7.04379e-05
0.00209449
-6.96125e-05
0.00211732
-6.87671e-05
0.00213987
-6.79033e-05
0.00216212
-6.70224e-05
0.00218408
-6.6126e-05
0.00220573
-6.52155e-05
0.00222708
-6.42922e-05
0.00224812
-6.33575e-05
0.00226885
-6.24128e-05
0.00228926
-6.14592e-05
0.00230935
-6.0498e-05
0.00232913
-5.95306e-05
0.00234858
-5.85579e-05
0.0023677
-5.75813e-05
0.00238651
-5.66017e-05
0.00240498
-5.56203e-05
0.00242314
-5.46382e-05
0.00244096
-5.36563e-05
0.00245846
-5.26756e-05
0.00247564
-5.16972e-05
0.0024925
-5.07221e-05
0.00250903
-4.97511e-05
0.00252524
-4.87852e-05
0.00254114
-4.78254e-05
0.00255672
-4.68726e-05
0.00257198
-4.59278e-05
0.00258694
-4.49921e-05
0.00260159
-4.40664e-05
0.00261594
-4.31518e-05
0.00262998
-4.22495e-05
0.00264374
-4.13606e-05
0.0026572
-4.04866e-05
0.00267038
-3.96286e-05
0.00268328
-3.87883e-05
0.00269591
-3.79672e-05
0.00270828
-3.71671e-05
0.00272038
-3.63899e-05
0.00273224
-3.56374e-05
0.00274386
-3.49123e-05
0.00275525
-3.42158e-05
0.00276642
-3.35527e-05
0.00277737
-3.29205e-05
0.00278814
-3.23317e-05
0.00279872
-3.17694e-05
0.00280913
-3.12727e-05
0.00281938
-3.0774e-05
0.00282951
-3.04039e-05
0.00283948
-2.99237e-05
0.0028494
-2.9767e-05
0.00285911
-2.91427e-05
0.00286893
-2.94503e-05
0.00287832
-2.81729e-05
0.00288822
-2.96867e-05
-2.60599e-05
0.00207733
-9.36513e-05
0.00210027
-9.25562e-05
0.00212294
-9.14346e-05
0.00214532
-9.02884e-05
0.00216742
-8.91196e-05
0.00218923
-8.79301e-05
0.00221073
-8.67218e-05
0.00223194
-8.54965e-05
0.00225283
-8.42559e-05
0.00227342
-8.3002e-05
0.0022937
-8.17363e-05
0.00231366
-8.04605e-05
0.00233331
-7.91763e-05
0.00235264
-7.78851e-05
0.00237164
-7.65886e-05
0.00239033
-7.52882e-05
0.00240869
-7.39854e-05
0.00242674
-7.26815e-05
0.00244446
-7.13779e-05
0.00246186
-7.0076e-05
0.00247894
-6.87771e-05
0.0024957
-6.74824e-05
0.00251214
-6.61932e-05
0.00252827
-6.49108e-05
0.00254408
-6.36365e-05
0.00255958
-6.23715e-05
0.00257477
-6.11172e-05
0.00258965
-5.98748e-05
0.00260423
-5.86458e-05
0.00261851
-5.74316e-05
0.00263249
-5.62337e-05
0.00264619
-5.50538e-05
0.00265959
-5.38934e-05
0.00267272
-5.27546e-05
0.00268557
-5.16392e-05
0.00269815
-5.05494e-05
0.00271047
-4.94874e-05
0.00272254
-4.8456e-05
0.00273436
-4.74575e-05
0.00274594
-4.64954e-05
0.0027573
-4.55714e-05
0.00276844
-4.46918e-05
0.00277937
-4.38535e-05
0.00279011
-4.30729e-05
0.00280067
-4.23276e-05
0.00281107
-4.16697e-05
0.0028213
-4.10092e-05
0.00283142
-4.05199e-05
0.00284138
-3.9884e-05
0.00285129
-3.96791e-05
0.002861
-3.88516e-05
0.00287081
-3.9265e-05
0.00288021
-3.75686e-05
0.00289011
-3.9588e-05
-3.47696e-05
0.0020852
-0.000116639
0.00210792
-0.000115279
0.00213037
-0.000113886
0.00215254
-0.000112462
0.00217444
-0.00011101
0.00219604
-0.000109532
0.00221735
-0.000108031
0.00223836
-0.000106509
0.00225907
-0.000104967
0.00227948
-0.000103409
0.00229958
-0.000101836
0.00231937
-0.00010025
0.00233884
-9.86542e-05
0.00235801
-9.70494e-05
0.00237686
-9.54379e-05
0.00239539
-9.38215e-05
0.00241361
-9.2202e-05
0.00243151
-9.05812e-05
0.00244909
-8.89607e-05
0.00246636
-8.73423e-05
0.00248331
-8.57275e-05
0.00249994
-8.4118e-05
0.00251626
-8.25153e-05
0.00253227
-8.0921e-05
0.00254798
-7.93368e-05
0.00256337
-7.77642e-05
0.00257846
-7.62049e-05
0.00259324
-7.46604e-05
0.00260773
-7.31326e-05
0.00262192
-7.16232e-05
0.00263582
-7.01342e-05
0.00264943
-6.86674e-05
0.00266277
-6.72252e-05
0.00267582
-6.58097e-05
0.0026886
-6.44234e-05
0.00270112
-6.3069e-05
0.00271339
-6.17495e-05
0.0027254
-6.04679e-05
0.00273717
-5.92274e-05
0.00274871
-5.80324e-05
0.00276002
-5.68849e-05
0.00277112
-5.57928e-05
0.00278202
-5.47522e-05
0.00279273
-5.37836e-05
0.00280326
-5.28591e-05
0.00281363
-5.20438e-05
0.00282385
-5.1225e-05
0.00283395
-5.06202e-05
0.0028439
-4.98324e-05
0.0028538
-4.95826e-05
0.00286351
-4.8556e-05
0.00287332
-4.9078e-05
0.00288272
-4.69685e-05
0.00289263
-4.94942e-05
-4.34991e-05
0.00209494
-0.000139347
0.00211739
-0.000137728
0.00213957
-0.000136069
0.00216149
-0.000134374
0.00218312
-0.000132645
0.00220447
-0.000130885
0.00222554
-0.000129097
0.00224631
-0.000127283
0.00226679
-0.000125447
0.00228697
-0.00012359
0.00230685
-0.000121716
0.00232643
-0.000119827
0.0023457
-0.000117925
0.00236466
-0.000116012
0.00238332
-0.000114092
0.00240166
-0.000112165
0.00241969
-0.000110235
0.00243742
-0.000108303
0.00245483
-0.000106372
0.00247193
-0.000104443
0.00248872
-0.000102518
0.0025052
-0.000100599
0.00252137
-9.86891e-05
0.00253724
-9.67888e-05
0.00255281
-9.49004e-05
0.00256807
-9.30258e-05
0.00258303
-9.11671e-05
0.0025977
-8.93261e-05
0.00261207
-8.75051e-05
0.00262615
-8.5706e-05
0.00263995
-8.39312e-05
0.00265346
-8.21831e-05
0.0026667
-8.04643e-05
0.00267967
-7.87775e-05
0.00269237
-7.71256e-05
0.00270482
-7.55119e-05
0.00271701
-7.39398e-05
0.00272895
-7.24133e-05
0.00274066
-7.09358e-05
0.00275214
-6.95129e-05
0.0027634
-6.81467e-05
0.00277446
-6.6847e-05
0.00278531
-6.56089e-05
0.00279599
-6.44571e-05
0.00280649
-6.33581e-05
0.00281683
-6.23899e-05
0.00282702
-6.14176e-05
0.00283711
-6.07017e-05
0.00284704
-5.97666e-05
0.00285693
-5.94761e-05
0.00286663
-5.82556e-05
0.00287644
-5.88897e-05
0.00288585
-5.63744e-05
0.00289576
-5.94072e-05
-5.22538e-05
0.0021065
-0.000161724
0.00212863
-0.000159853
0.00215049
-0.000157936
0.00217209
-0.000155976
0.00219343
-0.000153977
0.00221448
-0.000151941
0.00223526
-0.000149873
0.00225575
-0.000147776
0.00227596
-0.000145652
0.00229587
-0.000143504
0.00231549
-0.000141336
0.00233481
-0.00013915
0.00235384
-0.000136949
0.00237256
-0.000134736
0.00239099
-0.000132514
0.0024091
-0.000130285
0.00242692
-0.000128051
0.00244443
-0.000125815
0.00246164
-0.00012358
0.00247854
-0.000121347
0.00249515
-0.000119119
0.00251145
-0.000116899
0.00252744
-0.000114687
0.00254314
-0.000112488
0.00255854
-0.000110302
0.00257365
-0.000108132
0.00258846
-0.000105981
0.00260299
-0.00010385
0.00261723
-0.000101742
0.00263118
-9.96602e-05
0.00264486
-9.76062e-05
0.00265826
-9.55832e-05
0.00267139
-9.35942e-05
0.00268425
-9.16423e-05
0.00269686
-8.97311e-05
0.00270921
-8.78643e-05
0.00272131
-8.60459e-05
0.00273318
-8.42804e-05
0.00274482
-8.2572e-05
0.00275623
-8.09271e-05
0.00276743
-7.93481e-05
0.00277843
-7.78466e-05
0.00278924
-7.64167e-05
0.00279987
-7.50873e-05
0.00281033
-7.38195e-05
0.00282065
-7.27038e-05
0.00283081
-7.15835e-05
0.00284087
-7.07618e-05
0.00285079
-6.96849e-05
0.00286067
-6.93588e-05
0.00287037
-6.79504e-05
0.00288018
-6.87007e-05
0.00288959
-6.57883e-05
0.00289951
-6.93294e-05
-6.10396e-05
0.0021198
-0.00018372
0.00214156
-0.000181605
0.00216306
-0.000179437
0.0021843
-0.000177221
0.00220529
-0.00017496
0.002226
-0.000172658
0.00224645
-0.000170318
0.00226662
-0.000167945
0.00228651
-0.000165541
0.00230611
-0.000163111
0.00232543
-0.000160657
0.00234447
-0.000158183
0.00236321
-0.000155692
0.00238166
-0.000153187
0.00239981
-0.000150671
0.00241768
-0.000148147
0.00243524
-0.000145617
0.00245251
-0.000143086
0.00246949
-0.000140555
0.00248617
-0.000138026
0.00250255
-0.000135503
0.00251864
-0.000132989
0.00253444
-0.000130485
0.00254994
-0.000127994
0.00256516
-0.000125518
0.00258009
-0.000123061
0.00259473
-0.000120625
0.0026091
-0.000118212
0.00262318
-0.000115825
0.00263699
-0.000113467
0.00265052
-0.000111142
0.00266379
-0.000108851
0.00267679
-0.000106599
0.00268954
-0.00010439
0.00270204
-0.000102226
0.00271429
-0.000100114
0.0027263
-9.80558e-05
0.00273807
-9.60584e-05
0.00274963
-9.41261e-05
0.00276097
-9.2266e-05
0.0027721
-9.04811e-05
0.00278304
-8.87844e-05
0.00279379
-8.71694e-05
0.00280437
-8.56689e-05
0.00281479
-8.42386e-05
0.00282507
-8.29819e-05
0.0028352
-8.17198e-05
0.00284524
-8.07985e-05
0.00285514
-7.95862e-05
0.00286501
-7.92303e-05
0.0028747
-7.76412e-05
0.00288452
-7.85124e-05
0.00289394
-7.52129e-05
0.00290388
-7.92635e-05
-6.98627e-05
0.00213477
-0.000205288
0.0021561
-0.000202938
0.00217719
-0.000200529
0.00219804
-0.000198065
0.00221863
-0.000195551
0.00223896
-0.000192992
0.00225904
-0.00019039
0.00227884
-0.00018775
0.00229838
-0.000185076
0.00231764
-0.000182373
0.00233662
-0.000179642
0.00235533
-0.000176889
0.00237376
-0.000174117
0.0023919
-0.000171329
0.00240976
-0.000168529
0.00242733
-0.000165719
0.00244461
-0.000162904
0.00246161
-0.000160086
0.00247833
-0.000157268
0.00249475
-0.000154453
0.0025109
-0.000151644
0.00252675
-0.000148844
0.00254232
-0.000146056
0.00255761
-0.000143283
0.00257262
-0.000140527
0.00258735
-0.000137791
0.0026018
-0.000135078
0.00261598
-0.000132392
0.00262989
-0.000129735
0.00264354
-0.00012711
0.00265692
-0.000124521
0.00267004
-0.000121971
0.0026829
-0.000119465
0.00269552
-0.000117006
0.00270789
-0.000114599
0.00272002
-0.000112248
0.00273193
-0.000109959
0.00274361
-0.000107738
0.00275507
-0.000105589
0.00276633
-0.000103522
0.00277738
-0.000101538
0.00278825
-9.96541e-05
0.00279894
-9.78614e-05
0.00280947
-9.61972e-05
0.00281985
-9.46118e-05
0.00283009
-9.32212e-05
0.00284019
-9.18246e-05
0.0028502
-9.08106e-05
0.00286009
-8.94702e-05
0.00286995
-8.90909e-05
0.00287963
-8.73291e-05
0.00288945
-8.83266e-05
0.00289889
-8.46515e-05
0.00290884
-8.92128e-05
-7.87298e-05
0.0021513
-0.000226383
0.00217217
-0.000223808
0.00219281
-0.000221168
0.00221322
-0.000218467
0.00223337
-0.000215711
0.00225329
-0.000212904
0.00227295
-0.00021005
0.00229235
-0.000207154
0.0023115
-0.000204221
0.00233038
-0.000201254
0.00234899
-0.000198258
0.00236734
-0.000195236
0.00238542
-0.000192193
0.00240322
-0.000189133
0.00242075
-0.000186058
0.002438
-0.000182974
0.00245498
-0.000179882
0.00247168
-0.000176788
0.00248811
-0.000173693
0.00250426
-0.000170602
0.00252013
-0.000167517
0.00253573
-0.000164442
0.00255105
-0.00016138
0.0025661
-0.000158334
0.00258088
-0.000155307
0.00259539
-0.000152302
0.00260964
-0.000149323
0.00262362
-0.000146373
0.00263734
-0.000143454
0.0026508
-0.000140572
0.00266401
-0.000137729
0.00267697
-0.00013493
0.00268968
-0.000132178
0.00270215
-0.000129479
0.00271439
-0.000126837
0.0027264
-0.000124257
0.00273819
-0.000121746
0.00274976
-0.000119309
0.00276112
-0.000116953
0.00277229
-0.000114687
0.00278326
-0.000112514
0.00279406
-0.00011045
0.00280469
-0.000108488
0.00281516
-0.000106669
0.00282548
-0.000104936
0.00283568
-0.00010342
0.00284575
-0.000101897
0.00285574
-0.000100798
0.00286561
-9.93372e-05
0.00287546
-9.89418e-05
0.00288515
-9.70163e-05
0.00289497
-9.81459e-05
0.00290442
-9.41079e-05
0.00291439
-9.91814e-05
-8.76479e-05
0.00216931
-0.000246964
0.00218967
-0.000244175
0.00220982
-0.000241315
0.00222974
-0.000238388
0.00224943
-0.000235401
0.00226889
-0.000232358
0.0022881
-0.000229263
0.00230707
-0.000226123
0.00232579
-0.000222941
0.00234426
-0.000219722
0.00236247
-0.000216471
0.00238043
-0.000213192
0.00239812
-0.00020989
0.00241556
-0.000206568
0.00243273
-0.000203231
0.00244964
-0.000199882
0.00246628
-0.000196526
0.00248266
-0.000193166
0.00249877
-0.000189806
0.00251462
-0.000186449
0.0025302
-0.000183099
0.00254552
-0.00017976
0.00256058
-0.000176435
0.00257537
-0.000173127
0.0025899
-0.00016984
0.00260418
-0.000166577
0.0026182
-0.000163342
0.00263196
-0.000160138
0.00264548
-0.000156969
0.00265874
-0.000153839
0.00267177
-0.000150753
0.00268455
-0.000147714
0.0026971
-0.000144727
0.00270942
-0.000141797
0.00272151
-0.00013893
0.00273339
-0.000136132
0.00274505
-0.000133408
0.00275651
-0.000130766
0.00276777
-0.000128212
0.00277883
-0.000125756
0.00278972
-0.000123403
0.00280044
-0.000121169
0.002811
-0.000119047
0.00282141
-0.000117081
0.00283169
-0.00011521
0.00284184
-0.000113577
0.00285188
-0.000111936
0.00286184
-0.00011076
0.0028717
-0.000109188
0.00288154
-0.000108785
0.00289123
-0.000106705
0.00290106
-0.000107974
0.00291053
-0.000103587
0.00292053
-0.000109174
-9.66249e-05
0.00218867
-0.000266993
0.0022085
-0.000264002
0.00222811
-0.000260933
0.00224752
-0.000257793
0.0022667
-0.000254587
0.00228567
-0.00025132
0.0023044
-0.000247997
0.0023229
-0.000244624
0.00234117
-0.000241206
0.00235919
-0.000237747
0.00237697
-0.000234254
0.00239451
-0.00023073
0.0024118
-0.00022718
0.00242884
-0.000223609
0.00244563
-0.000220021
0.00246217
-0.00021642
0.00247846
-0.000212811
0.00249449
-0.000209198
0.00251027
-0.000205584
0.00252579
-0.000201974
0.00254106
-0.000198371
0.00255608
-0.00019478
0.00257085
-0.000191203
0.00258537
-0.000187645
0.00259964
-0.000184109
0.00261366
-0.000180599
0.00262744
-0.000177119
0.00264097
-0.000173673
0.00265427
-0.000170265
0.00266733
-0.000166899
0.00268015
-0.00016358
0.00269275
-0.000160313
0.00270513
-0.000157102
0.00271728
-0.000153953
0.00272922
-0.000150871
0.00274096
-0.000147864
0.00275249
-0.000144938
0.00276382
-0.000142101
0.00277497
-0.000139359
0.00278594
-0.000136725
0.00279674
-0.000134201
0.00280737
-0.000131807
0.00281786
-0.000129535
0.00282821
-0.000127432
0.00283844
-0.000125433
0.00284855
-0.000123691
0.00285856
-0.000121942
0.0028685
-0.000120699
0.00287833
-0.000119026
0.00288817
-0.000118623
0.00289787
-0.0001164
0.00290771
-0.000117814
0.00291721
-0.000113093
0.00292724
-0.000119195
-0.000105669
0.00220927
-0.000286434
0.00222852
-0.000283254
0.00224758
-0.000279991
0.00226644
-0.00027665
0.00228509
-0.000273237
0.00230353
-0.000269759
0.00232175
-0.000266221
0.00233975
-0.000262629
0.00235754
-0.000258987
0.00237509
-0.000255302
0.00239242
-0.000251579
0.00240951
-0.000247823
0.00242637
-0.000244039
0.00244299
-0.000240232
0.00245938
-0.000236406
0.00247552
-0.000232566
0.00249143
-0.000228717
0.00250709
-0.000224863
0.00252252
-0.000221009
0.0025377
-0.000217158
0.00255264
-0.000213314
0.00256735
-0.000209483
0.00258181
-0.000205667
0.00259604
-0.000201871
0.00261003
-0.000198099
0.00262378
-0.000194354
0.00263731
-0.000190642
0.0026506
-0.000186966
0.00266367
-0.000183331
0.00267651
-0.000179741
0.00268913
-0.000176202
0.00270153
-0.000172717
0.00271372
-0.000169293
0.00272571
-0.000165936
0.00273749
-0.000162652
0.00274907
-0.000159448
0.00276047
-0.000156331
0.00277168
-0.00015331
0.00278271
-0.000150392
0.00279357
-0.000147589
0.00280428
-0.000144906
0.00281483
-0.000142363
0.00282525
-0.000139951
0.00283554
-0.000137722
0.00284571
-0.000135604
0.00285579
-0.000133766
0.00286576
-0.000131918
0.00287568
-0.000130618
0.00288551
-0.000128853
0.00289534
-0.00012846
0.00290505
-0.000126106
0.00291491
-0.000127672
0.00292445
-0.000122634
0.00293451
-0.000129252
-0.000114789
0.00223098
-0.000305258
0.00224963
-0.000301903
0.0022681
-0.000298458
0.00228638
-0.00029493
0.00230446
-0.000291325
0.00232236
-0.00028765
0.00234004
-0.00028391
0.00235753
-0.000280112
0.0023748
-0.000276261
0.00239186
-0.000272363
0.00240871
-0.000268425
0.00242533
-0.00026445
0.00244174
-0.000260445
0.00245792
-0.000256416
0.00247388
-0.000252366
0.00248962
-0.0002483
0.00250513
-0.000244225
0.00252041
-0.000240144
0.00253546
-0.000236062
0.00255029
-0.000231984
0.00256488
-0.000227913
0.00257926
-0.000223855
0.0025934
-0.000219813
0.00260733
-0.000215793
0.00262102
-0.000211797
0.0026345
-0.000207832
0.00264776
-0.0002039
0.0026608
-0.000200007
0.00267363
-0.000196157
0.00268624
-0.000192356
0.00269865
-0.000188608
0.00271085
-0.000184919
0.00272285
-0.000181296
0.00273466
-0.000177743
0.00274627
-0.000174268
0.0027577
-0.000170879
0.00276896
-0.000167584
0.00278004
-0.00016439
0.00279095
-0.000161308
0.00280171
-0.000158348
0.00281232
-0.000155517
0.0028228
-0.000152836
0.00283314
-0.000150295
0.00284337
-0.000147951
0.00285349
-0.000145727
0.00286353
-0.000143801
0.00287348
-0.000141866
0.00288338
-0.000140519
0.0028932
-0.000138674
0.00290304
-0.0001383
0.00291276
-0.000135827
0.00292264
-0.000137554
0.00293222
-0.000132216
0.00294232
-0.000139352
-0.000123995
0.00225368
-0.000323437
0.00227169
-0.000319921
0.00228955
-0.000316309
0.00230722
-0.000312608
0.00232472
-0.000308825
0.00234204
-0.000304967
0.00235917
-0.00030104
0.00237611
-0.000297051
0.00239286
-0.000293006
0.0024094
-0.00028891
0.00242575
-0.00028477
0.00244189
-0.000280592
0.00245782
-0.000276381
0.00247355
-0.000272143
0.00248907
-0.000267883
0.00250438
-0.000263607
0.00251947
-0.000259319
0.00253435
-0.000255025
0.00254902
-0.00025073
0.00256347
-0.000246439
0.00257772
-0.000242155
0.00259175
-0.000237884
0.00260556
-0.000233631
0.00261917
-0.000229399
0.00263257
-0.000225194
0.00264575
-0.000221021
0.00265874
-0.000216883
0.00267152
-0.000212787
0.0026841
-0.000208736
0.00269648
-0.000204737
0.00270866
-0.000200794
0.00272066
-0.000196914
0.00273247
-0.000193103
0.00274409
-0.000189368
0.00275554
-0.000185716
0.00276681
-0.000182155
0.00277792
-0.000178693
0.00278887
-0.00017534
0.00279967
-0.000172105
0.00281032
-0.000169001
0.00282084
-0.000166034
0.00283123
-0.000163228
0.00284151
-0.00016057
0.00285168
-0.000158122
0.00286175
-0.000155802
0.00287175
-0.000153802
0.00288168
-0.000151791
0.00289157
-0.000150408
0.00290139
-0.000148495
0.00291124
-0.00014815
0.00292098
-0.00014557
0.00293089
-0.000147466
0.00294053
-0.000141847
0.00295068
-0.000149502
-0.000133298
0.00227721
-0.000340949
0.00229458
-0.000337286
0.00231179
-0.000333522
0.00232885
-0.000329664
0.00234574
-0.000325718
0.00236247
-0.000321693
0.00237902
-0.000317594
0.0023954
-0.000313429
0.00241159
-0.000309204
0.00242761
-0.000304925
0.00244344
-0.000300599
0.00245908
-0.000296232
0.00247453
-0.00029183
0.00248978
-0.000287399
0.00250485
-0.000282944
0.00251971
-0.000278472
0.00253438
-0.000273987
0.00254885
-0.000269495
0.00256312
-0.000265002
0.00257719
-0.000260511
0.00259107
-0.000256029
0.00260474
-0.00025156
0.00261822
-0.00024711
0.0026315
-0.000242682
0.00264459
-0.000238282
0.00265749
-0.000233915
0.00267019
-0.000229586
0.0026827
-0.0002253
0.00269503
-0.000221062
0.00270717
-0.000216879
0.00271913
-0.000212755
0.00273091
-0.000208698
0.00274253
-0.000204714
0.00275397
-0.000200809
0.00276524
-0.000196993
0.00277636
-0.000193273
0.00278733
-0.000189658
0.00279815
-0.000186159
0.00280883
-0.000182785
0.00281937
-0.00017955
0.0028298
-0.000176459
0.00284011
-0.00017354
0.00285032
-0.000170778
0.00286044
-0.000168239
0.00287047
-0.000165836
0.00288044
-0.000163772
0.00289035
-0.000161698
0.00290023
-0.00016029
0.00291006
-0.000158321
0.00291992
-0.000158017
0.0029297
-0.000155344
0.00293965
-0.000157418
0.00294934
-0.000151537
0.00295955
-0.000159711
-0.000142708
0.00230145
0.00231814
-0.000353981
0.0023347
-0.00035008
0.00235112
-0.00034608
0.00236739
-0.000341988
0.0023835
-0.000337811
0.00239947
-0.000333556
0.00241527
-0.00032923
0.0024309
-0.000324841
0.00244637
-0.000320395
0.00246167
-0.000315898
0.0024768
-0.000311358
0.00249175
-0.000306781
0.00250652
-0.000302172
0.00252112
-0.000297538
0.00253553
-0.000292885
0.00254976
-0.000288219
0.00256381
-0.000283545
0.00257768
-0.000278868
0.00259136
-0.000274194
0.00260486
-0.000269529
0.00261818
-0.000264877
0.00263131
-0.000260244
0.00264427
-0.000255635
0.00265704
-0.000251055
0.00266963
-0.000246509
0.00268205
-0.000242003
0.00269429
-0.000237542
0.00270636
-0.000233132
0.00271827
-0.000228779
0.00273
-0.000224489
0.00274157
-0.000220269
0.00275298
-0.000216126
0.00276424
-0.000212067
0.00277535
-0.0002081
0.00278631
-0.000204235
0.00279713
-0.000200482
0.00280782
-0.00019685
0.00281839
-0.00019335
0.00282883
-0.000189997
0.00283917
-0.000186797
0.00284941
-0.000183777
0.00285956
-0.000180924
0.00286962
-0.000178307
0.00287962
-0.000175834
0.00288957
-0.000173719
0.00289946
-0.000171594
0.00290935
-0.000170173
0.00291919
-0.000168161
0.00292908
-0.000167908
0.00293889
-0.000165158
0.00294889
-0.000167418
0.00295865
-0.000161295
0.00296893
-0.00016999
-0.000152238
0.00234224
-0.000369991
0.00235813
-0.000365971
0.0023739
-0.000361845
0.00238953
-0.000357622
0.00240503
-0.000353309
0.00242039
-0.000348914
0.0024356
-0.000344445
0.00245067
-0.000339907
0.00246558
-0.00033531
0.00248034
-0.000330659
0.00249495
-0.000325962
0.00250939
-0.000321226
0.00252368
-0.000316455
0.0025378
-0.000311658
0.00255175
-0.000306841
0.00256554
-0.000302008
0.00257916
-0.000297167
0.00259262
-0.000292323
0.00260591
-0.000287482
0.00261903
-0.000282649
0.00263198
-0.00027783
0.00264477
-0.00027303
0.00265739
-0.000268255
0.00266984
-0.00026351
0.00268213
-0.000258801
0.00269426
-0.000254134
0.00270624
-0.000249513
0.00271805
-0.000244946
0.00272971
-0.000240439
0.00274122
-0.000235997
0.00275258
-0.000231629
0.00276379
-0.000227341
0.00277487
-0.000223141
0.00278581
-0.00021904
0.00279661
-0.000215044
0.0028073
-0.000211166
0.00281786
-0.000207415
0.00282832
-0.000203804
0.00283867
-0.000200347
0.00284892
-0.000197051
0.00285909
-0.000193945
0.00286918
-0.000191015
0.00287921
-0.000188332
0.00288917
-0.000185802
0.0028991
-0.00018365
0.002909
-0.000181487
0.00291889
-0.000180066
0.00292875
-0.000178024
0.00293868
-0.000177834
0.00294854
-0.000175021
0.0029586
-0.000177476
0.00296844
-0.000171134
0.0029788
-0.00018035
-0.0001619
0.00236673
-0.000385308
0.00238194
-0.000381184
0.00239705
-0.000376949
0.00241204
-0.000372612
0.00242691
-0.00036818
0.00244166
-0.000363662
0.00245628
-0.000359065
0.00247077
-0.000354397
0.00248512
-0.000349665
0.00249934
-0.000344876
0.00251342
-0.000340039
0.00252735
-0.000335159
0.00254114
-0.000330244
0.00255478
-0.0003253
0.00256827
-0.000320334
0.00258162
-0.000315352
0.00259481
-0.000310361
0.00260785
-0.000305365
0.00262074
-0.000300373
0.00263348
-0.000295388
0.00264607
-0.000290418
0.00265851
-0.000285467
0.00267079
-0.000280542
0.00268293
-0.000275649
0.00269492
-0.000270792
0.00270677
-0.000265978
0.00271847
-0.000261214
0.00273003
-0.000256505
0.00274145
-0.000251858
0.00275273
-0.000247281
0.00276388
-0.000242779
0.0027749
-0.000238362
0.0027858
-0.000234038
0.00279657
-0.000229815
0.00280723
-0.000225704
0.00281778
-0.000221716
0.00282823
-0.000217862
0.00283858
-0.000214153
0.00284884
-0.000210606
0.00285902
-0.000207229
0.00286912
-0.00020405
0.00287916
-0.000201057
0.00288916
-0.000198324
0.0028991
-0.00019575
0.00290903
-0.000193573
0.00291893
-0.000191386
0.00292884
-0.000189978
0.00293873
-0.00018792
0.00294871
-0.000187805
0.00295863
-0.000184945
0.00296876
-0.000187604
0.00297869
-0.000181065
0.00298914
-0.000190802
-0.000171709
0.00239146
-0.000399926
0.00240599
-0.000395715
0.00242043
-0.000391389
0.00243478
-0.000386954
0.00244902
-0.000382421
0.00246315
-0.000377796
0.00247717
-0.000373088
0.00249108
-0.000368306
0.00250487
-0.000363456
0.00251855
-0.000358547
0.00253209
-0.000353586
0.00254551
-0.00034858
0.00255881
-0.000343537
0.00257197
-0.000338463
0.002585
-0.000333365
0.0025979
-0.00032825
0.00261066
-0.000323125
0.00262329
-0.000317995
0.00263579
-0.000312867
0.00264814
-0.000307748
0.00266037
-0.000302642
0.00267246
-0.000297557
0.00268441
-0.000292498
0.00269624
-0.000287472
0.00270793
-0.000282484
0.00271949
-0.00027754
0.00273093
-0.000272648
0.00274223
-0.000267813
0.00275342
-0.000263043
0.00276448
-0.000258345
0.00277543
-0.000253726
0.00278626
-0.000249195
0.00279699
-0.000244761
0.0028076
-0.000240433
0.00281812
-0.000236222
0.00282855
-0.000232139
0.00283888
-0.000228196
0.00284913
-0.000224405
0.00285931
-0.000220783
0.00286942
-0.000217339
0.00287947
-0.000214103
0.00288948
-0.00021106
0.00289944
-0.00020829
0.00290938
-0.000205687
0.00291931
-0.0002035
0.00292922
-0.000201302
0.00293917
-0.000199922
0.00294911
-0.000197861
0.00295914
-0.000197834
0.00296913
-0.000194942
0.00297935
-0.000197815
0.00298938
-0.000191101
0.00299994
-0.00020136
-0.00018168
0.00241629
-0.000413844
0.00243013
-0.000409564
0.00244391
-0.000405163
0.0024576
-0.000400649
0.00247121
-0.000396031
0.00248473
-0.000391317
0.00249816
-0.000386516
0.00251149
-0.000381636
0.00252472
-0.000376686
0.00253785
-0.000371673
0.00255087
-0.000366606
0.00256378
-0.000361491
0.00257658
-0.000356336
0.00258926
-0.000351149
0.00260184
-0.000345936
0.00261429
-0.000340705
0.00262663
-0.000335463
0.00263885
-0.000330215
0.00265095
-0.000324969
0.00266294
-0.000319731
0.0026748
-0.000314507
0.00268655
-0.000309304
0.00269818
-0.000304128
0.00270969
-0.000298986
0.00272109
-0.000293882
0.00273238
-0.000288825
0.00274355
-0.000283821
0.00275461
-0.000278877
0.00276557
-0.000273999
0.00277642
-0.000269197
0.00278717
-0.000264477
0.00279782
-0.000259848
0.00280838
-0.00025532
0.00281885
-0.000250903
0.00282924
-0.000246607
0.00283954
-0.000242444
0.00284977
-0.000238428
0.00285994
-0.00023457
0.00287004
-0.000230889
0.0028801
-0.000227392
0.00289011
-0.000224113
0.00290008
-0.000221036
0.00291004
-0.000218244
0.00291997
-0.000215626
0.00292992
-0.000213443
0.00293986
-0.000211249
0.00294985
-0.000209908
0.00295985
-0.000207861
0.00296995
-0.000207934
0.00298004
-0.000205027
0.00299034
-0.000208124
0.0030005
-0.000201259
0.00301118
-0.000212039
-0.000191827
0.00244105
-0.000427067
0.00245422
-0.000422735
0.00246733
-0.000418277
0.00248038
-0.0004137
0.00249337
-0.000409015
0.00250628
-0.000404229
0.00251912
-0.000399353
0.00253187
-0.000394393
0.00254455
-0.00038936
0.00255713
-0.000384261
0.00256963
-0.000379104
0.00258204
-0.000373897
0.00259435
-0.000368648
0.00260657
-0.000363365
0.00261868
-0.000358054
0.0026307
-0.000352724
0.00264262
-0.000347382
0.00265444
-0.000342033
0.00266616
-0.000336686
0.00267777
-0.000331346
0.00268929
-0.000326021
0.0027007
-0.000320717
0.00271201
-0.00031544
0.00272322
-0.000310198
0.00273434
-0.000304996
0.00274535
-0.000299842
0.00275627
-0.000294742
0.0027671
-0.000289705
0.00277784
-0.000284736
0.00278849
-0.000279845
0.00279905
-0.00027504
0.00280953
-0.00027033
0.00281994
-0.000265724
0.00283027
-0.000261233
0.00284053
-0.000256869
0.00285073
-0.000252642
0.00286087
-0.000248568
0.00287096
-0.000244659
0.002881
-0.000240933
0.00289101
-0.0002374
0.00290099
-0.000234094
0.00291095
-0.000230997
0.0029209
-0.000228197
0.00293086
-0.000225579
0.00294083
-0.000223415
0.00295082
-0.00022124
0.00296086
-0.000219953
0.00297094
-0.000217933
0.00298112
-0.000218119
0.00299131
-0.000215215
0.00300173
-0.000218544
0.00301203
-0.000211553
0.00302284
-0.000222854
-0.000202167
0.0024656
-0.000439601
0.0024781
-0.000435236
0.00249056
-0.000430738
0.00250298
-0.000426116
0.00251534
-0.000421381
0.00252766
-0.000416542
0.00253991
-0.000411607
0.0025521
-0.000406585
0.00256423
-0.000401486
0.00257629
-0.000396318
0.00258827
-0.000391089
0.00260018
-0.000385807
0.00261202
-0.000380482
0.00262377
-0.00037512
0.00263545
-0.000369729
0.00264704
-0.000364317
0.00265855
-0.000358891
0.00266997
-0.000353459
0.00268131
-0.000348027
0.00269257
-0.000342603
0.00270374
-0.000337193
0.00271483
-0.000331804