/*--------------------------------*- C++ -*----------------------------------*\
  =========                 |
  \\      /  F ield         | OpenFOAM: The Open Source CFD Toolbox
   \\    /   O peration     | Website:  https://openfoam.org
    \\  /    A nd           | Version:  7
     \\/     M anipulation  |
\*---------------------------------------------------------------------------*/
FoamFile
{
    version     2.0;
    format      ascii;
    class       volScalarField;
    location    "40";
    object      p;
}
// * * * * * * * * * * * * * * * * * * * * * * * * * * * * * * * * * * * * * //

dimensions      [0 2 -2 0 0 0 0];

internalField   nonuniform List<scalar> 
10500
(
-0.398309
-0.386416
-0.367714
-0.341721
-0.315568
-0.287492
-0.261156
-0.234108
-0.213163
-0.187274
-0.399324
-0.386936
-0.368179
-0.342048
-0.315854
-0.287724
-0.261372
-0.234215
-0.213391
-0.186824
-0.401342
-0.387971
-0.369103
-0.342697
-0.316422
-0.288185
-0.261798
-0.234427
-0.213844
-0.185938
-0.404344
-0.38951
-0.370477
-0.343659
-0.317263
-0.288865
-0.262426
-0.23474
-0.214512
-0.184644
-0.408303
-0.391537
-0.372283
-0.344921
-0.318363
-0.289754
-0.263244
-0.235149
-0.215381
-0.182984
-0.413183
-0.394029
-0.374502
-0.346468
-0.319706
-0.290836
-0.264235
-0.235646
-0.216428
-0.181011
-0.418945
-0.396958
-0.37711
-0.348278
-0.321272
-0.292093
-0.265379
-0.236225
-0.217626
-0.178789
-0.42551
-0.400314
-0.380081
-0.350331
-0.323041
-0.293507
-0.266654
-0.236878
-0.218939
-0.17639
-0.432829
-0.404056
-0.383383
-0.352602
-0.324987
-0.295055
-0.268032
-0.237595
-0.220322
-0.173893
-0.440846
-0.408144
-0.386985
-0.355067
-0.327085
-0.296716
-0.269487
-0.23837
-0.221724
-0.171377
-0.44949
-0.412543
-0.390852
-0.357698
-0.32931
-0.298464
-0.270988
-0.239193
-0.223084
-0.168923
-0.458683
-0.417214
-0.394951
-0.36047
-0.331634
-0.300277
-0.272501
-0.240055
-0.224336
-0.166606
-0.468347
-0.422119
-0.399244
-0.363356
-0.334031
-0.30213
-0.273995
-0.240946
-0.225405
-0.164492
-0.478399
-0.427215
-0.403694
-0.366328
-0.336472
-0.303995
-0.275433
-0.241854
-0.226212
-0.162647
-0.488757
-0.432459
-0.408265
-0.369357
-0.338929
-0.305844
-0.276781
-0.242768
-0.22668
-0.161149
-0.499331
-0.437809
-0.412916
-0.372416
-0.341372
-0.307648
-0.278002
-0.243673
-0.226731
-0.160088
-0.510035
-0.44322
-0.417608
-0.375473
-0.343769
-0.309372
-0.279059
-0.244551
-0.226255
-0.159406
-0.520778
-0.448647
-0.422303
-0.378497
-0.346087
-0.310979
-0.279922
-0.245394
-0.22508
-0.158786
-0.531471
-0.454045
-0.426956
-0.381453
-0.348288
-0.312424
-0.280562
-0.246201
-0.223149
-0.159065
-0.541983
-0.459337
-0.431504
-0.384292
-0.350321
-0.313654
-0.280943
-0.246903
-0.220991
-0.165957
-0.552134
-0.464405
-0.435852
-0.38694
-0.352124
-0.314602
-0.281003
-0.24727
-0.219188
-0.186813
-0.562035
-0.469363
-0.440061
-0.389422
-0.353683
-0.315223
-0.280677
-0.247079
-0.216655
-0.193562
-0.571518
-0.474091
-0.44403
-0.391657
-0.354923
-0.315442
-0.279893
-0.246175
-0.213598
-0.194448
-0.580441
-0.478495
-0.447675
-0.39357
-0.35577
-0.315186
-0.27859
-0.244517
-0.210294
-0.193156
-0.588694
-0.482507
-0.450925
-0.395095
-0.356155
-0.314389
-0.276709
-0.242089
-0.206641
-0.190215
-0.596167
-0.486055
-0.453707
-0.396161
-0.356005
-0.312979
-0.274189
-0.238875
-0.202528
-0.185877
-0.602743
-0.489062
-0.455937
-0.39669
-0.355241
-0.31089
-0.270971
-0.234865
-0.197881
-0.180436
-0.608304
-0.491442
-0.457528
-0.396598
-0.353782
-0.308055
-0.267004
-0.230052
-0.192647
-0.174115
-0.612725
-0.493107
-0.458385
-0.395797
-0.351548
-0.304411
-0.262239
-0.224434
-0.186786
-0.167058
-0.615883
-0.493965
-0.458412
-0.394199
-0.348458
-0.299897
-0.256636
-0.218009
-0.18027
-0.159359
-0.61765
-0.493917
-0.457507
-0.39171
-0.344433
-0.29446
-0.250163
-0.210777
-0.17308
-0.151078
-0.617902
-0.492864
-0.455566
-0.38824
-0.3394
-0.288052
-0.242794
-0.202744
-0.165211
-0.142253
-0.616512
-0.490703
-0.452485
-0.383699
-0.333289
-0.280631
-0.23451
-0.193917
-0.156663
-0.13291
-0.613355
-0.48733
-0.448159
-0.378
-0.326037
-0.272165
-0.225302
-0.184306
-0.147444
-0.123065
-0.60831
-0.482643
-0.442488
-0.371062
-0.317588
-0.262628
-0.215167
-0.173924
-0.13757
-0.112732
-0.601261
-0.476539
-0.435373
-0.362808
-0.307898
-0.252003
-0.204107
-0.16279
-0.127057
-0.101925
-0.592098
-0.468921
-0.426723
-0.353173
-0.296929
-0.240283
-0.192135
-0.150924
-0.115929
-0.0906576
-0.580731
-0.459701
-0.416457
-0.3421
-0.284656
-0.227469
-0.179266
-0.138349
-0.104211
-0.0789472
-0.567071
-0.448795
-0.404501
-0.329543
-0.271063
-0.213568
-0.165522
-0.125092
-0.0919289
-0.0668125
-0.550915
-0.436063
-0.390761
-0.315453
-0.256142
-0.198598
-0.150931
-0.111182
-0.0791129
-0.0542748
-0.531939
-0.42131
-0.37513
-0.299786
-0.239892
-0.182581
-0.135525
-0.096653
-0.0657934
-0.041359
-0.51082
-0.404832
-0.357741
-0.282605
-0.222357
-0.165557
-0.119343
-0.0815394
-0.0520038
-0.0280955
-0.487282
-0.38645
-0.338503
-0.263883
-0.203554
-0.147562
-0.102424
-0.0658793
-0.0377793
-0.0145125
-0.46119
-0.366076
-0.317383
-0.243626
-0.183517
-0.128641
-0.0848149
-0.0497137
-0.0231647
-0.000634363
-0.432544
-0.343695
-0.294391
-0.221866
-0.162295
-0.108846
-0.0665623
-0.0330842
-0.00820671
0.0135076
-0.401373
-0.319315
-0.269555
-0.198649
-0.139945
-0.0882329
-0.0477185
-0.0160327
0.00711432
0.0278277
-0.367715
-0.292952
-0.242917
-0.17403
-0.116534
-0.0668656
-0.0283387
0.00138505
0.0227187
0.0423302
-0.331628
-0.26464
-0.214536
-0.148079
-0.0921353
-0.0448112
-0.00848097
0.0191289
0.0385639
0.0569719
-0.293187
-0.23443
-0.184486
-0.120878
-0.0668319
-0.0221422
0.0117949
0.0371486
0.0546124
0.0717086
-0.252493
-0.202394
-0.152859
-0.0925178
-0.0407118
0.00106627
0.0324253
0.0553918
0.0708231
0.0864968
-0.209664
-0.168619
-0.119762
-0.0631021
-0.0138703
0.024735
0.0533447
0.0738049
0.0871538
0.101291
-0.164841
-0.133217
-0.0853085
-0.0327446
0.0135922
0.0487812
0.0744858
0.0923334
0.103562
0.116043
-0.118182
-0.0963161
-0.0496329
-0.0015644
0.0415703
0.0731197
0.0957791
0.110921
0.120003
0.130702
-0.0698601
-0.0580343
-0.0129051
0.0303103
0.0699545
0.0976627
0.117154
0.12951
0.136436
0.145213
-0.0200729
-0.0185512
0.0247345
0.0627445
0.0986318
0.122321
0.138536
0.148043
0.152813
0.159511
0.0309559
0.0219734
0.0631164
0.095597
0.127486
0.147003
0.159854
0.16646
0.169091
0.173527
0.083006
0.0633464
0.10206
0.128722
0.156401
0.171616
0.181032
0.184704
0.185236
0.187195
0.135815
0.105359
0.141377
0.16197
0.185255
0.196069
0.201994
0.202722
0.201238
0.200419
0.189125
0.147802
0.180876
0.195188
0.213928
0.220268
0.222664
0.220461
0.21703
0.212966
0.242877
0.190536
0.220385
0.228231
0.242303
0.244119
0.24297
0.237857
0.232331
0.224334
0.297207
0.23349
0.259753
0.260954
0.270259
0.267532
0.262844
0.25484
0.246858
0.234106
0.35059
0.275977
0.298624
0.293164
0.297673
0.290419
0.282219
0.27136
0.261197
0.246077
0.403161
0.317935
0.336856
0.324726
0.324432
0.312691
0.301028
0.287349
0.275023
0.258402
0.454824
0.359196
0.374273
0.355493
0.35042
0.33426
0.319202
0.302757
0.288224
0.270283
0.505287
0.399517
0.410674
0.385318
0.375527
0.355044
0.336676
0.317538
0.300818
0.281585
0.554245
0.438655
0.445864
0.414056
0.399643
0.37496
0.353387
0.331643
0.312796
0.292321
0.601416
0.476381
0.479655
0.44157
0.422666
0.393932
0.369276
0.345027
0.324132
0.302474
0.646527
0.512469
0.511866
0.467724
0.444495
0.411884
0.384285
0.357647
0.334798
0.312009
0.689314
0.546705
0.542324
0.492393
0.465035
0.428747
0.398361
0.369462
0.344767
0.320899
0.729523
0.578882
0.570863
0.515456
0.484197
0.444452
0.411454
0.380436
0.354014
0.329124
0.766913
0.608803
0.59733
0.5368
0.501897
0.458939
0.423516
0.390532
0.362513
0.336664
0.801256
0.636287
0.621581
0.556321
0.518058
0.472149
0.434502
0.399717
0.370239
0.343503
0.832344
0.661164
0.643484
0.573922
0.532608
0.484029
0.444373
0.407962
0.37717
0.349624
0.859986
0.683281
0.662918
0.589518
0.545483
0.494532
0.453093
0.415239
0.383284
0.355013
0.884011
0.7025
0.679779
0.603032
0.556626
0.503614
0.460628
0.421523
0.388563
0.359658
0.904269
0.718702
0.693972
0.614396
0.565989
0.51124
0.466952
0.426793
0.392989
0.363547
0.920633
0.731786
0.705422
0.623555
0.573529
0.517379
0.472039
0.431032
0.396547
0.366671
0.933001
0.74167
0.714064
0.630463
0.579213
0.522004
0.475872
0.434223
0.399227
0.369021
0.941295
0.748293
0.719851
0.635087
0.583016
0.525098
0.478435
0.436358
0.401019
0.370591
0.945464
0.751617
0.722753
0.637404
0.584922
0.526649
0.479719
0.437427
0.401917
0.371377
0.945464
0.751617
0.722753
0.637404
0.584922
0.526649
0.479719
0.437427
0.401917
0.371377
0.941295
0.748293
0.719851
0.635087
0.583016
0.525098
0.478435
0.436358
0.401019
0.370591
0.933001
0.74167
0.714064
0.630463
0.579213
0.522004
0.475872
0.434223
0.399227
0.369021
0.920633
0.731786
0.705422
0.623555
0.573529
0.517379
0.472039
0.431032
0.396547
0.366671
0.904269
0.718702
0.693972
0.614396
0.565989
0.51124
0.466952
0.426793
0.392989
0.363547
0.884011
0.7025
0.679779
0.603032
0.556626
0.503614
0.460628
0.421523
0.388563
0.359658
0.859986
0.683281
0.662918
0.589518
0.545483
0.494532
0.453093
0.415239
0.383284
0.355013
0.832344
0.661164
0.643484
0.573922
0.532608
0.484029
0.444373
0.407962
0.37717
0.349624
0.801256
0.636287
0.621581
0.556321
0.518058
0.472149
0.434502
0.399717
0.370239
0.343503
0.766913
0.608803
0.59733
0.5368
0.501897
0.458939
0.423516
0.390532
0.362513
0.336664
0.729523
0.578882
0.570863
0.515456
0.484197
0.444452
0.411454
0.380436
0.354014
0.329124
0.689314
0.546705
0.542324
0.492393
0.465035
0.428747
0.398361
0.369462
0.344767
0.320899
0.646527
0.512469
0.511866
0.467724
0.444495
0.411884
0.384285
0.357647
0.334798
0.312009
0.601416
0.476381
0.479655
0.44157
0.422666
0.393932
0.369276
0.345027
0.324132
0.302474
0.554245
0.438655
0.445864
0.414056
0.399643
0.37496
0.353387
0.331643
0.312796
0.292321
0.505287
0.399517
0.410674
0.385318
0.375527
0.355044
0.336676
0.317538
0.300818
0.281585
0.454824
0.359196
0.374273
0.355493
0.35042
0.33426
0.319202
0.302757
0.288224
0.270283
0.403161
0.317935
0.336856
0.324726
0.324432
0.312691
0.301028
0.287349
0.275023
0.258402
0.350589
0.275977
0.298624
0.293164
0.297673
0.290419
0.282219
0.27136
0.261197
0.246077
0.297207
0.23349
0.259753
0.260954
0.270259
0.267532
0.262844
0.25484
0.246858
0.234106
0.242877
0.190536
0.220385
0.228231
0.242303
0.244119
0.24297
0.237857
0.232331
0.224334
0.189125
0.147802
0.180876
0.195188
0.213928
0.220268
0.222664
0.220461
0.21703
0.212966
0.135815
0.105359
0.141377
0.16197
0.185255
0.196069
0.201994
0.202722
0.201238
0.200419
0.083006
0.0633464
0.10206
0.128722
0.156401
0.171616
0.181032
0.184704
0.185236
0.187195
0.0309559
0.0219734
0.0631164
0.095597
0.127486
0.147003
0.159854
0.16646
0.169091
0.173527
-0.0200729
-0.0185512
0.0247345
0.0627445
0.0986318
0.122321
0.138536
0.148043
0.152813
0.159511
-0.0698601
-0.0580343
-0.0129051
0.0303103
0.0699545
0.0976627
0.117153
0.12951
0.136436
0.145213
-0.118182
-0.0963161
-0.0496329
-0.00156441
0.0415703
0.0731197
0.0957791
0.110921
0.120003
0.130702
-0.164841
-0.133217
-0.0853085
-0.0327446
0.0135921
0.0487812
0.0744858
0.0923334
0.103562
0.116043
-0.209664
-0.168619
-0.119762
-0.0631021
-0.0138703
0.0247349
0.0533447
0.0738049
0.0871537
0.101291
-0.252493
-0.202394
-0.152859
-0.0925178
-0.0407118
0.00106625
0.0324252
0.0553917
0.0708231
0.0864968
-0.293187
-0.23443
-0.184486
-0.120878
-0.0668319
-0.0221423
0.0117949
0.0371486
0.0546123
0.0717086
-0.331628
-0.26464
-0.214536
-0.148079
-0.0921354
-0.0448113
-0.008481
0.0191289
0.0385639
0.0569719
-0.367715
-0.292952
-0.242917
-0.17403
-0.116534
-0.0668656
-0.0283388
0.00138503
0.0227187
0.0423302
-0.401373
-0.319315
-0.269555
-0.198649
-0.139945
-0.0882329
-0.0477185
-0.0160327
0.00711429
0.0278277
-0.432544
-0.343695
-0.294391
-0.221866
-0.162295
-0.108846
-0.0665623
-0.0330842
-0.00820673
0.0135076
-0.46119
-0.366076
-0.317383
-0.243626
-0.183517
-0.128641
-0.0848149
-0.0497138
-0.0231647
-0.000634392
-0.487282
-0.38645
-0.338503
-0.263883
-0.203554
-0.147562
-0.102424
-0.0658794
-0.0377793
-0.0145125
-0.51082
-0.404832
-0.357741
-0.282605
-0.222357
-0.165557
-0.119343
-0.0815394
-0.0520038
-0.0280956
-0.531939
-0.42131
-0.37513
-0.299786
-0.239892
-0.182581
-0.135525
-0.0966531
-0.0657934
-0.041359
-0.550915
-0.436063
-0.390761
-0.315453
-0.256142
-0.198598
-0.150931
-0.111182
-0.079113
-0.0542749
-0.567071
-0.448795
-0.404501
-0.329543
-0.271063
-0.213568
-0.165522
-0.125092
-0.0919289
-0.0668125
-0.580731
-0.459701
-0.416457
-0.3421
-0.284656
-0.227469
-0.179266
-0.138349
-0.104211
-0.0789472
-0.592098
-0.468921
-0.426723
-0.353173
-0.296929
-0.240284
-0.192135
-0.150924
-0.115929
-0.0906577
-0.601261
-0.476539
-0.435373
-0.362808
-0.307898
-0.252003
-0.204108
-0.16279
-0.127057
-0.101925
-0.60831
-0.482643
-0.442488
-0.371062
-0.317588
-0.262628
-0.215167
-0.173924
-0.13757
-0.112732
-0.613355
-0.48733
-0.448159
-0.378
-0.326037
-0.272165
-0.225302
-0.184306
-0.147444
-0.123065
-0.616512
-0.490703
-0.452485
-0.383699
-0.333289
-0.280631
-0.23451
-0.193917
-0.156663
-0.13291
-0.617902
-0.492864
-0.455566
-0.38824
-0.3394
-0.288052
-0.242794
-0.202744
-0.165211
-0.142253
-0.61765
-0.493917
-0.457507
-0.39171
-0.344433
-0.29446
-0.250163
-0.210777
-0.17308
-0.151078
-0.615883
-0.493965
-0.458412
-0.394199
-0.348458
-0.299897
-0.256636
-0.218009
-0.18027
-0.159359
-0.612725
-0.493108
-0.458385
-0.395797
-0.351548
-0.304411
-0.262239
-0.224434
-0.186786
-0.167058
-0.608304
-0.491442
-0.457528
-0.396598
-0.353782
-0.308055
-0.267004
-0.230052
-0.192647
-0.174115
-0.602743
-0.489062
-0.455937
-0.39669
-0.355241
-0.31089
-0.270971
-0.234865
-0.197881
-0.180436
-0.596167
-0.486055
-0.453707
-0.396161
-0.356005
-0.312979
-0.274189
-0.238875
-0.202528
-0.185877
-0.588694
-0.482507
-0.450925
-0.395095
-0.356155
-0.314389
-0.276709
-0.242089
-0.206641
-0.190215
-0.580441
-0.478495
-0.447675
-0.39357
-0.35577
-0.315187
-0.27859
-0.244517
-0.210294
-0.193156
-0.571518
-0.474091
-0.444031
-0.391657
-0.354923
-0.315442
-0.279893
-0.246175
-0.213598
-0.194448
-0.562035
-0.469363
-0.440061
-0.389422
-0.353683
-0.315223
-0.280677
-0.247079
-0.216655
-0.193562
-0.552134
-0.464405
-0.435852
-0.38694
-0.352124
-0.314602
-0.281003
-0.24727
-0.219188
-0.186813
-0.541983
-0.459337
-0.431504
-0.384292
-0.350321
-0.313654
-0.280943
-0.246903
-0.220991
-0.165957
-0.531471
-0.454045
-0.426956
-0.381453
-0.348288
-0.312424
-0.280562
-0.246201
-0.223149
-0.159065
-0.520778
-0.448647
-0.422303
-0.378497
-0.346087
-0.310979
-0.279922
-0.245394
-0.22508
-0.158786
-0.510035
-0.44322
-0.417608
-0.375473
-0.343769
-0.309372
-0.279059
-0.244551
-0.226255
-0.159406
-0.499331
-0.437809
-0.412916
-0.372416
-0.341372
-0.307648
-0.278002
-0.243673
-0.226731
-0.160088
-0.488757
-0.432459
-0.408265
-0.369357
-0.338929
-0.305844
-0.276781
-0.242768
-0.22668
-0.161149
-0.478399
-0.427215
-0.403694
-0.366328
-0.336472
-0.303995
-0.275433
-0.241854
-0.226212
-0.162647
-0.468347
-0.422119
-0.399244
-0.363356
-0.334031
-0.30213
-0.273995
-0.240946
-0.225405
-0.164492
-0.458683
-0.417214
-0.394951
-0.36047
-0.331634
-0.300277
-0.272501
-0.240055
-0.224336
-0.166606
-0.44949
-0.412543
-0.390852
-0.357698
-0.32931
-0.298464
-0.270988
-0.239193
-0.223084
-0.168923
-0.440846
-0.408144
-0.386985
-0.355067
-0.327085
-0.296716
-0.269487
-0.23837
-0.221724
-0.171377
-0.432829
-0.404056
-0.383383
-0.352602
-0.324987
-0.295055
-0.268032
-0.237595
-0.220322
-0.173893
-0.42551
-0.400314
-0.380081
-0.350331
-0.323041
-0.293507
-0.266654
-0.236878
-0.218939
-0.17639
-0.418945
-0.396958
-0.37711
-0.348278
-0.321272
-0.292094
-0.265379
-0.236225
-0.217626
-0.178789
-0.413183
-0.394029
-0.374502
-0.346468
-0.319706
-0.290836
-0.264235
-0.235646
-0.216428
-0.181011
-0.408303
-0.391537
-0.372283
-0.344921
-0.318363
-0.289754
-0.263244
-0.235149
-0.215381
-0.182984
-0.404344
-0.38951
-0.370477
-0.343659
-0.317263
-0.288865
-0.262426
-0.23474
-0.214512
-0.184644
-0.401342
-0.387971
-0.369103
-0.342697
-0.316422
-0.288185
-0.261798
-0.234427
-0.213844
-0.185938
-0.399324
-0.386936
-0.368179
-0.342048
-0.315854
-0.287724
-0.261372
-0.234215
-0.213391
-0.186824
-0.398309
-0.386416
-0.367714
-0.341721
-0.315568
-0.287492
-0.261156
-0.234108
-0.213163
-0.187274
-0.179075
-0.171232
-0.163062
-0.155223
-0.147505
-0.139931
-0.132554
-0.125393
-0.118462
-0.111776
-0.105346
-0.0991794
-0.0932811
-0.0876534
-0.0822963
-0.0772074
-0.0723822
-0.0678145
-0.0634965
-0.059419
-0.055572
-0.0519445
-0.048525
-0.0453017
-0.0422627
-0.039396
-0.0366898
-0.0341329
-0.0317142
-0.0294233
-0.0272504
-0.0251862
-0.0232224
-0.0213504
-0.0195647
-0.0178552
-0.0162231
-0.0146494
-0.0131549
-0.0116879
-0.010331
-0.0089239
-0.00774228
-0.00628953
-0.0054232
-0.00364312
-0.00351805
-0.000622468
-0.00247101
0.00379387
-0.17966
-0.171649
-0.163336
-0.155456
-0.147705
-0.140102
-0.132705
-0.125528
-0.118585
-0.111889
-0.10545
-0.0992761
-0.0933711
-0.0877374
-0.0823748
-0.0772807
-0.0724508
-0.0678785
-0.0635563
-0.0594747
-0.0556239
-0.0519927
-0.0485696
-0.045343
-0.0423008
-0.039431
-0.036722
-0.0341624
-0.0317412
-0.0294479
-0.0272728
-0.0252065
-0.0232408
-0.0213669
-0.0195796
-0.0178685
-0.016235
-0.01466
-0.0131643
-0.0116961
-0.0103382
-0.00893029
-0.00774762
-0.00629459
-0.00542672
-0.00364791
-0.00351914
-0.000629753
-0.00246707
0.0037749
-0.180817
-0.172477
-0.163882
-0.15592
-0.148102
-0.140444
-0.133007
-0.125799
-0.118831
-0.112114
-0.105658
-0.099469
-0.0935507
-0.0879051
-0.0825315
-0.0774273
-0.0725879
-0.0680066
-0.0636758
-0.0595862
-0.0557275
-0.0520889
-0.0486589
-0.0454255
-0.0423769
-0.0395012
-0.0367865
-0.0342215
-0.0317952
-0.0294972
-0.0273176
-0.0252471
-0.0232775
-0.0214001
-0.0196094
-0.0178952
-0.0162588
-0.0146812
-0.013183
-0.0117127
-0.0103526
-0.00894305
-0.00775827
-0.00630471
-0.00543374
-0.00365748
-0.00352132
-0.000644278
-0.00245925
0.00373715
-0.182518
-0.173706
-0.164695
-0.156612
-0.148696
-0.140954
-0.133457
-0.126203
-0.119197
-0.11245
-0.105969
-0.0997571
-0.0938193
-0.0881559
-0.0827662
-0.0776469
-0.0727933
-0.0681987
-0.0638551
-0.0597533
-0.0558831
-0.0522334
-0.0487928
-0.0455494
-0.0424913
-0.0396064
-0.0368832
-0.0343101
-0.0318763
-0.0295711
-0.0273849
-0.0253081
-0.0233327
-0.0214498
-0.0196541
-0.0179352
-0.0162945
-0.0147129
-0.0132111
-0.0117374
-0.0103741
-0.00896216
-0.00777423
-0.00631987
-0.00544427
-0.0036718
-0.00352461
-0.000665956
-0.00244764
0.00368099
-0.184718
-0.175314
-0.165767
-0.157525
-0.14948
-0.141628
-0.134052
-0.126737
-0.119682
-0.112895
-0.106379
-0.100139
-0.0941753
-0.0884889
-0.0830778
-0.0779388
-0.0730665
-0.0684543
-0.0640939
-0.059976
-0.0560904
-0.052426
-0.0489714
-0.0457146
-0.0426438
-0.0397469
-0.0370122
-0.0344284
-0.0319844
-0.0296697
-0.0274745
-0.0253894
-0.0234062
-0.021516
-0.0197136
-0.0179885
-0.016342
-0.0147551
-0.0132484
-0.0117704
-0.0104028
-0.0089876
-0.00779548
-0.00634003
-0.0054583
-0.00369083
-0.00352906
-0.000694655
-0.0024324
0.00360699
-0.187353
-0.177273
-0.167085
-0.15865
-0.150448
-0.142461
-0.134786
-0.127396
-0.120281
-0.113445
-0.106888
-0.100612
-0.0946172
-0.0889025
-0.0834655
-0.0783022
-0.073407
-0.068773
-0.0643919
-0.0602541
-0.0563494
-0.0526668
-0.0491947
-0.0459212
-0.0428345
-0.0399225
-0.0371736
-0.0345762
-0.0321195
-0.0297929
-0.0275865
-0.0254909
-0.023498
-0.0215988
-0.0197879
-0.018055
-0.0164013
-0.0148078
-0.013295
-0.0118114
-0.0104386
-0.00901931
-0.00782196
-0.00636516
-0.00547581
-0.00371451
-0.00353469
-0.000730205
-0.00241372
0.00351588
-0.190344
-0.179541
-0.168629
-0.159973
-0.151588
-0.143443
-0.135653
-0.128175
-0.12099
-0.114096
-0.107491
-0.101174
-0.0951425
-0.0893949
-0.0839276
-0.078736
-0.073814
-0.0691544
-0.0647486
-0.0605873
-0.0566599
-0.0529555
-0.0494625
-0.0461691
-0.0430634
-0.0401333
-0.0373672
-0.0347537
-0.0322817
-0.0299407
-0.0277209
-0.0256127
-0.023608
-0.0216979
-0.0198769
-0.0181347
-0.0164724
-0.0148708
-0.0133507
-0.0118606
-0.0104814
-0.00905724
-0.00785364
-0.0063952
-0.00549677
-0.00374277
-0.00354155
-0.000772393
-0.00239182
0.00340855
-0.193591
-0.182062
-0.170374
-0.161474
-0.152885
-0.144563
-0.136644
-0.129066
-0.121801
-0.114843
-0.108184
-0.10182
-0.0957484
-0.0899639
-0.0844625
-0.0792388
-0.0742864
-0.0695975
-0.0651636
-0.0609751
-0.0570216
-0.053292
-0.0497748
-0.0464583
-0.0433304
-0.0403792
-0.0375932
-0.0349607
-0.0324709
-0.0301131
-0.0278775
-0.0257547
-0.0237363
-0.0218134
-0.0199806
-0.0182274
-0.016555
-0.0149442
-0.0134155
-0.0119177
-0.0105312
-0.0091013
-0.00789045
-0.00643009
-0.00552117
-0.00377552
-0.0035497
-0.000820974
-0.00236699
0.00328605
-0.196981
-0.184765
-0.172283
-0.163127
-0.154319
-0.145806
-0.137746
-0.130059
-0.122707
-0.115679
-0.108962
-0.102548
-0.0964316
-0.0906069
-0.0850682
-0.0798092
-0.074823
-0.0701016
-0.0656362
-0.0614172
-0.0574342
-0.0536761
-0.0501314
-0.0467885
-0.0436354
-0.0406602
-0.0378513
-0.0351972
-0.0326869
-0.0303099
-0.0280564
-0.0259167
-0.0238826
-0.0219451
-0.0200987
-0.018333
-0.0166491
-0.0150277
-0.0134893
-0.0119827
-0.0105878
-0.00915142
-0.00793231
-0.00646975
-0.00554898
-0.00381266
-0.0035592
-0.000875669
-0.00233952
0.00314953
-0.200382
-0.187562
-0.174308
-0.164898
-0.155865
-0.147152
-0.138944
-0.131142
-0.123699
-0.116596
-0.109818
-0.103351
-0.0971883
-0.0913209
-0.0857422
-0.0804452
-0.0754223
-0.0706654
-0.0661655
-0.0619128
-0.0578971
-0.0541073
-0.0505321
-0.0471597
-0.0439783
-0.0409761
-0.0381415
-0.035463
-0.0329298
-0.0305312
-0.0282573
-0.0260986
-0.0240468
-0.0220929
-0.0202313
-0.0184515
-0.0167546
-0.0151212
-0.0135718
-0.0120555
-0.0106511
-0.0092075
-0.00797917
-0.0065141
-0.00558016
-0.00385409
-0.0035701
-0.000936172
-0.00230975
0.00300027
-0.203652
-0.190351
-0.176394
-0.166745
-0.157488
-0.148577
-0.140219
-0.132301
-0.124765
-0.117587
-0.110746
-0.104225
-0.0980141
-0.0921023
-0.0864817
-0.0811446
-0.0760827
-0.0712876
-0.0667504
-0.0624612
-0.0584098
-0.0545852
-0.0509763
-0.0475714
-0.0443587
-0.0413267
-0.0384636
-0.0357581
-0.0331993
-0.0307766
-0.0284801
-0.0263003
-0.0242288
-0.0222565
-0.020378
-0.0185825
-0.0168712
-0.0152247
-0.0136631
-0.0121359
-0.0107211
-0.00926941
-0.00803091
-0.00656305
-0.00561466
-0.00389967
-0.00358248
-0.00100215
-0.00227804
0.00283963
-0.206646
-0.193016
-0.178469
-0.168613
-0.15915
-0.150051
-0.14155
-0.133519
-0.125892
-0.118641
-0.111738
-0.105164
-0.0989039
-0.0929471
-0.0872837
-0.0819048
-0.076802
-0.0719666
-0.0673896
-0.0630612
-0.0589713
-0.0551092
-0.0514636
-0.0480232
-0.0447764
-0.0417116
-0.0388173
-0.0360821
-0.0334951
-0.031046
-0.0287246
-0.0265215
-0.0244284
-0.022436
-0.0205388
-0.018726
-0.0169989
-0.0153378
-0.0137629
-0.0122238
-0.0107975
-0.00933705
-0.00808744
-0.00661649
-0.00565245
-0.00394928
-0.00359641
-0.00107326
-0.00224475
0.00266904
-0.209216
-0.195429
-0.180452
-0.170443
-0.160803
-0.151541
-0.142912
-0.134777
-0.127067
-0.119747
-0.112785
-0.10616
-0.0998529
-0.0938515
-0.0881448
-0.0827233
-0.0775783
-0.0727008
-0.0680819
-0.063712
-0.059581
-0.0556785
-0.0519935
-0.0485149
-0.0452311
-0.0421307
-0.0392023
-0.0364348
-0.0338172
-0.0313391
-0.0289907
-0.0267622
-0.0246453
-0.0226309
-0.0207134
-0.0188818
-0.0171374
-0.0154604
-0.013871
-0.0123189
-0.0108802
-0.00941028
-0.00814865
-0.0066743
-0.00569348
-0.00400277
-0.00361196
-0.00114912
-0.00221027
0.00248995
-0.211226
-0.197463
-0.182256
-0.172163
-0.162394
-0.153009
-0.144277
-0.136056
-0.128274
-0.120894
-0.11388
-0.107207
-0.100855
-0.0948108
-0.0890615
-0.0835973
-0.0784092
-0.0734884
-0.0688258
-0.0644122
-0.0602379
-0.0562925
-0.0525655
-0.0490458
-0.0457222
-0.0425835
-0.0396185
-0.036816
-0.0341652
-0.0316558
-0.0292779
-0.0270219
-0.0248794
-0.0228411
-0.0209015
-0.0190496
-0.0172865
-0.0155924
-0.0139873
-0.0124213
-0.0109692
-0.00948894
-0.00821443
-0.00673636
-0.00573769
-0.00405999
-0.00362919
-0.00122937
-0.002175
0.00230385
-0.212563
-0.198993
-0.183782
-0.17369
-0.163858
-0.154404
-0.145607
-0.137326
-0.129492
-0.122064
-0.115007
-0.108293
-0.101902
-0.0958175
-0.0900273
-0.0845212
-0.0792901
-0.0743252
-0.0696178
-0.065159
-0.0609393
-0.0569489
-0.0531774
-0.0496142
-0.0462484
-0.0430688
-0.0400645
-0.0372245
-0.0345382
-0.0319952
-0.0295857
-0.0273
-0.0251299
-0.023066
-0.0211027
-0.0192289
-0.0174458
-0.0157333
-0.0141114
-0.0125304
-0.011064
-0.0095728
-0.00828457
-0.00680247
-0.00578496
-0.00412072
-0.00364815
-0.00131358
-0.00213934
0.00211224
-0.213087
-0.199854
-0.184898
-0.174917
-0.165116
-0.15567
-0.14686
-0.138555
-0.130694
-0.123237
-0.11615
-0.109405
-0.10298
-0.0968602
-0.0910324
-0.0854863
-0.0802131
-0.0752044
-0.0704518
-0.0659468
-0.0616805
-0.0576433
-0.0538255
-0.0502167
-0.0468064
-0.0435837
-0.0405379
-0.0376582
-0.0349342
-0.0323554
-0.0299123
-0.0275952
-0.0253957
-0.0233045
-0.021316
-0.019419
-0.0176145
-0.0158825
-0.0142427
-0.0126459
-0.0111643
-0.00966153
-0.00835882
-0.00687241
-0.00583517
-0.00418474
-0.00366889
-0.00140131
-0.00210371
0.00191658
-0.212544
-0.199881
-0.185525
-0.175806
-0.166156
-0.156811
-0.148047
-0.139758
-0.131896
-0.124429
-0.117324
-0.110556
-0.104103
-0.0979511
-0.0920876
-0.0865025
-0.0811873
-0.0761341
-0.0713352
-0.0667824
-0.0624674
-0.0583813
-0.0545147
-0.0508578
-0.0474004
-0.044132
-0.0410421
-0.0381202
-0.035356
-0.0327391
-0.0302602
-0.0279094
-0.0256786
-0.0235583
-0.0215429
-0.0196209
-0.0177937
-0.016041
-0.0143821
-0.0127684
-0.0112707
-0.00975559
-0.00843755
-0.00694645
-0.00588857
-0.00425218
-0.00369159
-0.00149242
-0.0020684
0.0017181
-0.211208
-0.199328
-0.185813
-0.176443
-0.167054
-0.1579
-0.149241
-0.141008
-0.133172
-0.12571
-0.118597
-0.111811
-0.105333
-0.0991492
-0.0932488
-0.0876225
-0.0822623
-0.077161
-0.0723114
-0.0677063
-0.0633378
-0.0591977
-0.0552772
-0.0515669
-0.0480572
-0.0447379
-0.041599
-0.03863
-0.0358209
-0.0331616
-0.0306427
-0.0282545
-0.0259888
-0.023836
-0.0217907
-0.0198412
-0.0179888
-0.0162131
-0.0145333
-0.0129011
-0.0113857
-0.00985703
-0.00852237
-0.00702591
-0.00594611
-0.00432382
-0.00371672
-0.00158735
-0.00203336
0.00151764
-0.210588
-0.198101
-0.185185
-0.176157
-0.167191
-0.158404
-0.149998
-0.141936
-0.134215
-0.126827
-0.119759
-0.112995
-0.106523
-0.100333
-0.0944152
-0.0887628
-0.0833691
-0.0782282
-0.0733341
-0.0686804
-0.0642606
-0.0600671
-0.056092
-0.0523269
-0.0487625
-0.0453896
-0.0421983
-0.0391789
-0.0363214
-0.0336162
-0.0310538
-0.0286248
-0.0263211
-0.024133
-0.0220552
-0.0200758
-0.018196
-0.0163955
-0.0146931
-0.0130409
-0.0115066
-0.00996346
-0.00861123
-0.00710893
-0.00600641
-0.00439821
-0.00374369
-0.00168484
-0.00199912
0.00131738
-0.204993
-0.192852
-0.181578
-0.173297
-0.16512
-0.157011
-0.149116
-0.141442
-0.134015
-0.12685
-0.119952
-0.113318
-0.106944
-0.100827
-0.0949628
-0.0893465
-0.0839749
-0.0788442
-0.0739503
-0.0692887
-0.0648541
-0.0606406
-0.0566413
-0.0528488
-0.0492549
-0.045851
-0.0426281
-0.0395769
-0.0366881
-0.0339522
-0.0313604
-0.0289032
-0.0265728
-0.0243596
-0.0222584
-0.0202572
-0.0183575
-0.0165386
-0.0148194
-0.0131524
-0.0116038
-0.0100501
-0.00868423
-0.00717864
-0.00605734
-0.00446379
-0.00376773
-0.00177491
-0.00197095
0.001125
-0.177485
-0.189493
-0.181206
-0.173221
-0.165192
-0.157108
-0.149199
-0.141501
-0.134049
-0.126861
-0.119942
-0.113291
-0.106903
-0.100775
-0.0949014
-0.0892792
-0.0839041
-0.0787721
-0.0738788
-0.0692196
-0.0647887
-0.06058
-0.0565865
-0.0528003
-0.0492132
-0.0458163
-0.0426004
-0.039556
-0.0366737
-0.033944
-0.0313578
-0.0289057
-0.0265799
-0.0243705
-0.0222726
-0.0202741
-0.0183766
-0.0165592
-0.0148412
-0.013175
-0.0116266
-0.0100738
-0.00870624
-0.00720442
-0.00607621
-0.00449654
-0.00377836
-0.0018295
-0.00195886
0.000986014
-0.16688
-0.184558
-0.177747
-0.170607
-0.163202
-0.155539
-0.147951
-0.140507
-0.133261
-0.126241
-0.119461
-0.112924
-0.106633
-0.100585
-0.0947793
-0.0892132
-0.0838845
-0.0787905
-0.0739278
-0.0692928
-0.0648806
-0.0606859
-0.0567021
-0.0529222
-0.0493384
-0.0459423
-0.0427253
-0.0396781
-0.0367919
-0.0340572
-0.0314653
-0.029007
-0.0266747
-0.0244588
-0.0223542
-0.0203492
-0.0184453
-0.0166219
-0.0148979
-0.0132265
-0.0116724
-0.0101162
-0.00874207
-0.00724084
-0.00610178
-0.0045334
-0.00378984
-0.00188226
-0.00194156
0.000871805
-0.162808
-0.179269
-0.173361
-0.167081
-0.160392
-0.153267
-0.146107
-0.139011
-0.132051
-0.125269
-0.118688
-0.112319
-0.106169
-0.100241
-0.0945365
-0.0890556
-0.0837981
-0.0787631
-0.0739487
-0.0693523
-0.0649705
-0.0607987
-0.0568317
-0.0530631
-0.049486
-0.0460929
-0.0428755
-0.0398256
-0.0369346
-0.0341936
-0.0315944
-0.029128
-0.0267871
-0.0245625
-0.0224493
-0.0204358
-0.0185237
-0.0166928
-0.0149613
-0.0132838
-0.0117225
-0.0101626
-0.00878036
-0.00728073
-0.00612821
-0.00457445
-0.00379976
-0.00194248
-0.00191685
0.000746522
-0.159917
-0.174227
-0.169196
-0.163592
-0.157539
-0.150929
-0.144189
-0.137441
-0.130771
-0.124232
-0.117855
-0.111659
-0.105656
-0.0998532
-0.0942546
-0.0888634
-0.0836813
-0.078709
-0.0739463
-0.0693918
-0.0650431
-0.0608969
-0.0569489
-0.0531936
-0.049625
-0.0462362
-0.0430199
-0.0399683
-0.0370734
-0.0343269
-0.0317209
-0.029247
-0.026898
-0.0246651
-0.0225435
-0.0205218
-0.0186017
-0.0167634
-0.0150244
-0.0133411
-0.0117726
-0.0102095
-0.00881884
-0.0073214
-0.00615482
-0.00461696
-0.00380953
-0.00200553
-0.00189055
0.00061513
-0.157319
-0.169303
-0.165148
-0.160104
-0.154625
-0.148515
-0.142193
-0.135799
-0.129426
-0.123138
-0.116973
-0.110958
-0.105109
-0.099437
-0.0939497
-0.0886527
-0.08355
-0.0786439
-0.0739357
-0.0694254
-0.065112
-0.0609931
-0.0570655
-0.0533247
-0.0497655
-0.0463819
-0.0431672
-0.0401143
-0.0372158
-0.034464
-0.0318513
-0.0293698
-0.0270127
-0.0247714
-0.0226412
-0.0206113
-0.0186828
-0.016837
-0.0150904
-0.013401
-0.0118251
-0.0102586
-0.00885927
-0.00736415
-0.00618293
-0.00466162
-0.00382014
-0.00207137
-0.00186368
0.000477981
-0.154851
-0.164429
-0.16106
-0.156518
-0.151573
-0.14596
-0.140064
-0.134036
-0.127976
-0.121954
-0.116016
-0.110195
-0.104511
-0.0989804
-0.0936133
-0.0884182
-0.0834012
-0.0785668
-0.0739177
-0.0694555
-0.0651804
-0.0610914
-0.0571862
-0.0534613
-0.0499126
-0.0465349
-0.0433223
-0.0402683
-0.0373663
-0.034609
-0.0319895
-0.0295002
-0.0271345