/*--------------------------------*- C++ -*----------------------------------*\
  =========                 |
  \\      /  F ield         | OpenFOAM: The Open Source CFD Toolbox
   \\    /   O peration     | Website:  https://openfoam.org
    \\  /    A nd           | Version:  7
     \\/     M anipulation  |
\*---------------------------------------------------------------------------*/
FoamFile
{
    version     2.0;
    format      ascii;
    class       volScalarField;
    location    "20";
    object      p;
}
// * * * * * * * * * * * * * * * * * * * * * * * * * * * * * * * * * * * * * //

dimensions      [0 2 -2 0 0 0 0];

internalField   nonuniform List<scalar> 
48400
(
-0.30215
-0.305058
-0.30577
-0.306815
-0.307502
-0.308174
-0.308782
-0.309361
-0.309904
-0.310409
-0.310868
-0.311275
-0.311624
-0.311912
-0.312134
-0.312287
-0.31237
-0.31238
-0.312315
-0.312175
-0.311956
-0.311659
-0.31128
-0.310817
-0.310267
-0.309628
-0.308896
-0.308065
-0.307132
-0.306089
-0.304932
-0.303653
-0.302248
-0.300712
-0.299046
-0.297255
-0.295355
-0.293366
-0.291311
-0.289302
-0.302222
-0.305117
-0.305826
-0.306867
-0.307551
-0.308221
-0.308827
-0.309405
-0.309947
-0.31045
-0.310909
-0.311315
-0.311664
-0.311951
-0.312173
-0.312327
-0.312409
-0.31242
-0.312355
-0.312215
-0.311997
-0.3117
-0.311322
-0.310861
-0.310313
-0.309676
-0.308945
-0.308117
-0.307186
-0.306146
-0.304992
-0.303716
-0.302313
-0.300778
-0.29911
-0.297313
-0.295402
-0.293399
-0.291315
-0.289271
-0.302364
-0.305234
-0.305937
-0.306971
-0.307649
-0.308315
-0.308917
-0.309492
-0.310032
-0.310533
-0.31099
-0.311395
-0.311743
-0.31203
-0.312251
-0.312404
-0.312487
-0.312498
-0.312434
-0.312295
-0.312078
-0.311783
-0.311406
-0.310947
-0.310402
-0.309768
-0.309041
-0.308218
-0.307292
-0.306257
-0.305108
-0.303838
-0.302438
-0.300905
-0.299234
-0.297426
-0.295496
-0.293466
-0.291327
-0.289206
-0.302576
-0.30541
-0.306104
-0.307125
-0.307796
-0.308454
-0.309051
-0.309621
-0.310157
-0.310656
-0.31111
-0.311513
-0.31186
-0.312145
-0.312366
-0.312519
-0.312602
-0.312612
-0.312549
-0.312411
-0.312196
-0.311903
-0.311529
-0.311073
-0.310532
-0.309902
-0.309181
-0.308363
-0.307444
-0.306417
-0.305276
-0.304013
-0.302619
-0.301088
-0.299413
-0.297592
-0.295634
-0.293566
-0.291357
-0.289096
-0.302857
-0.305642
-0.306324
-0.307328
-0.307989
-0.308638
-0.309228
-0.309792
-0.310323
-0.310817
-0.311268
-0.311668
-0.312012
-0.312296
-0.312515
-0.312667
-0.31275
-0.312761
-0.312699
-0.312562
-0.312348
-0.312057
-0.311686
-0.311234
-0.310697
-0.310073
-0.309358
-0.308548
-0.307636
-0.306619
-0.305486
-0.304232
-0.302845
-0.301318
-0.299639
-0.297803
-0.295812
-0.293697
-0.291421
-0.288932
-0.303204
-0.305929
-0.306597
-0.30758
-0.308227
-0.308865
-0.309445
-0.310001
-0.310525
-0.311014
-0.31146
-0.311856
-0.312197
-0.312479
-0.312696
-0.312847
-0.312929
-0.312939
-0.312877
-0.312741
-0.31253
-0.312241
-0.311873
-0.311424
-0.310892
-0.310274
-0.309565
-0.308763
-0.30786
-0.306851
-0.305729
-0.304484
-0.303105
-0.301581
-0.2999
-0.29805
-0.296023
-0.293854
-0.291543
-0.288709
-0.303616
-0.30627
-0.30692
-0.307879
-0.30851
-0.309132
-0.309701
-0.310246
-0.310762
-0.311244
-0.311684
-0.312075
-0.312412
-0.31269
-0.312905
-0.313053
-0.313133
-0.313143
-0.313081
-0.312946
-0.312735
-0.312448
-0.312083
-0.311638
-0.31111
-0.310497
-0.309795
-0.308999
-0.308105
-0.307105
-0.305992
-0.304755
-0.303384
-0.301864
-0.300181
-0.298319
-0.296258
-0.294022
-0.291759
-0.288406
-0.304088
-0.306662
-0.307292
-0.308221
-0.308833
-0.309438
-0.309992
-0.310526
-0.311031
-0.311504
-0.311936
-0.312321
-0.312653
-0.312926
-0.313136
-0.313282
-0.31336
-0.313368
-0.313305
-0.313169
-0.312959
-0.312673
-0.312309
-0.311867
-0.311343
-0.310734
-0.310037
-0.309247
-0.30836
-0.307368
-0.306262
-0.305033
-0.303667
-0.30215
-0.300465
-0.298592
-0.296505
-0.294181
-0.292089
-0.28761
-0.30462
-0.307104
-0.30771
-0.308606
-0.309195
-0.30978
-0.310317
-0.310836
-0.311329
-0.31179
-0.312213
-0.31259
-0.312914
-0.313181
-0.313387
-0.313528
-0.313602
-0.313607
-0.313542
-0.313405
-0.313194
-0.312908
-0.312545
-0.312104
-0.311581
-0.310975
-0.310282
-0.309497
-0.308614
-0.307627
-0.306526
-0.305301
-0.303939
-0.302422
-0.300734
-0.29885
-0.296756
-0.294339
-0.29225
-0.287711
-0.305206
-0.307592
-0.308172
-0.30903
-0.309594
-0.310155
-0.310672
-0.311173
-0.311651
-0.312099
-0.31251
-0.312877
-0.313192
-0.313452
-0.31365
-0.313786
-0.313855
-0.313856
-0.313787
-0.313646
-0.313433
-0.313145
-0.312782
-0.31234
-0.311818
-0.311213
-0.31052
-0.309737
-0.308856
-0.30787
-0.306771
-0.305546
-0.304183
-0.302663
-0.300969
-0.29907
-0.296967
-0.2945
-0.292364
-0.287624
-0.305845
-0.308125
-0.308675
-0.309492
-0.310025
-0.310559
-0.311053
-0.311534
-0.311993
-0.312426
-0.312824
-0.313178
-0.313482
-0.313732
-0.313922
-0.314049
-0.314112
-0.314106
-0.314032
-0.313887
-0.313669
-0.313378
-0.313012
-0.312567
-0.312043
-0.311436
-0.310742
-0.309957
-0.309074
-0.308086
-0.306983
-0.305754
-0.304385
-0.302855
-0.301152
-0.299229
-0.297128
-0.294578
-0.2925
-0.287424
-0.306531
-0.3087
-0.309217
-0.309987
-0.310488
-0.31099
-0.311457
-0.311914
-0.312353
-0.312767
-0.313148
-0.313487
-0.313779
-0.314016
-0.314196
-0.314313
-0.314367
-0.314353
-0.314272
-0.31412
-0.313896
-0.313599
-0.313227
-0.312778
-0.312249
-0.311637
-0.310938
-0.310147
-0.309258
-0.308263
-0.307151
-0.305911
-0.30453
-0.302982
-0.301266
-0.299306
-0.297218
-0.294546
-0.29261
-0.287137
-0.307262
-0.309313
-0.309794
-0.310514
-0.310977
-0.311444
-0.311881
-0.31231
-0.312725
-0.313117
-0.313478
-0.313801
-0.314076
-0.314299
-0.314466
-0.314571
-0.314614
-0.31459
-0.314499
-0.314338
-0.314106
-0.313801
-0.313421
-0.312963
-0.312426
-0.311806
-0.311098
-0.310297
-0.309397
-0.308389
-0.307263
-0.306005
-0.304604
-0.303029
-0.301295
-0.299282
-0.297216
-0.294381
-0.29264
-0.286752
-0.308034
-0.309963
-0.310405
-0.31107
-0.311491
-0.311919
-0.31232
-0.312718
-0.313104
-0.313472
-0.313811
-0.314112
-0.314369
-0.314576
-0.314726
-0.314818
-0.314847
-0.31481
-0.314707
-0.314535
-0.314291
-0.313975
-0.313584
-0.313116
-0.312567
-0.311934
-0.311213
-0.310397
-0.30948
-0.308453
-0.307305
-0.306021
-0.304593
-0.302981
-0.301223
-0.299136
-0.2971
-0.294068
-0.292542
-0.286259
-0.308843
-0.310646
-0.311045
-0.311651
-0.312026
-0.312409
-0.312771
-0.313134
-0.313488
-0.313827
-0.31414
-0.314418
-0.314653
-0.31484
-0.314972
-0.315047
-0.315059
-0.315008
-0.31489
-0.314704
-0.314446
-0.314116
-0.313711
-0.313228
-0.312664
-0.312015
-0.311275
-0.310438
-0.309498
-0.308444
-0.307267
-0.305947
-0.304484
-0.30282
-0.301032
-0.298852
-0.296846
-0.293594
-0.292269
-0.285656
-0.309686
-0.311361
-0.311713
-0.312255
-0.312579
-0.312913
-0.313231
-0.313554
-0.313872
-0.314178
-0.314461
-0.314712
-0.314923
-0.315087
-0.315198
-0.315253
-0.315247
-0.315178
-0.315042
-0.314839
-0.314565
-0.314218
-0.313795
-0.313293
-0.312709
-0.312038
-0.311274
-0.31041
-0.309439
-0.308351
-0.307134
-0.305768
-0.304258
-0.302529
-0.300701
-0.29841
-0.296424
-0.292952
-0.291776
-0.284938
-0.310559
-0.312103
-0.312406
-0.31288
-0.313147
-0.313428
-0.313696
-0.313974
-0.314251
-0.31452
-0.31477
-0.314991
-0.315174
-0.315312
-0.315399
-0.315431
-0.315404
-0.315314
-0.315159
-0.314935
-0.314641
-0.314273
-0.313829
-0.313304
-0.312695
-0.311996
-0.311201
-0.310303
-0.309293
-0.308159
-0.306892
-0.305468
-0.303898
-0.302089
-0.300208
-0.297794
-0.295802
-0.292133
-0.291021
-0.284099
-0.31146
-0.312872
-0.313122
-0.313522
-0.313729
-0.313949
-0.314163
-0.31439
-0.314622
-0.31485
-0.315062
-0.315249
-0.315401
-0.31551
-0.31557
-0.315577
-0.315525
-0.315412
-0.315234
-0.314987
-0.314669
-0.314277
-0.313807
-0.313254
-0.312614
-0.31188
-0.311047
-0.310105
-0.309045
-0.307854
-0.306524
-0.305027
-0.303383
-0.301479
-0.299525
-0.296984
-0.294946
-0.291126
-0.28997
-0.283118
-0.312384
-0.313666
-0.313858
-0.314181
-0.31432
-0.314475
-0.314629
-0.314801
-0.314982
-0.315164
-0.315335
-0.315484
-0.315601
-0.315678
-0.315708
-0.315687
-0.315608
-0.315468
-0.315263
-0.31499
-0.314645
-0.314224
-0.313723
-0.313136
-0.312458
-0.311682
-0.3108
-0.309803
-0.308681
-0.30742
-0.306011
-0.304426
-0.302689
-0.300677
-0.298625
-0.29596
-0.293828
-0.289914
-0.288602
-0.281963
-0.313331
-0.314482
-0.314613
-0.314853
-0.31492
-0.315004
-0.315092
-0.315202
-0.315328
-0.31546
-0.315585
-0.315692
-0.31577
-0.315812
-0.31581
-0.315756
-0.315648
-0.315478
-0.315244
-0.314941
-0.314564
-0.314109
-0.31357
-0.312942
-0.312218
-0.31139
-0.310448
-0.309384
-0.308185
-0.306837
-0.305333
-0.303641
-0.301792
-0.299658
-0.297482
-0.294701
-0.292426
-0.288479
-0.286915
-0.280592
-0.314299
-0.315319
-0.315386
-0.315538
-0.315527
-0.315533
-0.315548
-0.315592
-0.315657
-0.315733
-0.315808
-0.31587
-0.315907
-0.31591
-0.315871
-0.315784
-0.315642
-0.31544
-0.315172
-0.314835
-0.314421
-0.313926
-0.313344
-0.312666
-0.311886
-0.310993
-0.309979
-0.308831
-0.307538
-0.306086
-0.304467
-0.302651
-0.300668
-0.298402
-0.296078
-0.293189
-0.290733
-0.286801
-0.284925
-0.278979
-0.315285
-0.316176
-0.316175
-0.316234
-0.316138
-0.31606
-0.315997
-0.315969
-0.315968
-0.315984
-0.316004
-0.316016
-0.316008
-0.315969
-0.315892
-0.315767
-0.315589
-0.31535
-0.315046
-0.314668
-0.314213
-0.313671
-0.313035
-0.312298
-0.311449
-0.310478
-0.309375
-0.308127
-0.306722
-0.305145
-0.303392
-0.301433
-0.299299
-0.296888
-0.294401
-0.29141
-0.288756
-0.28487
-0.282663
-0.277133
-0.316288
-0.317054
-0.316979
-0.31694
-0.316753
-0.316585
-0.316437
-0.316331
-0.316258
-0.316209
-0.316171
-0.31613
-0.316073
-0.315989
-0.315869
-0.315704
-0.315486
-0.315207
-0.314861
-0.314439
-0.313933
-0.313336
-0.312637
-0.311828
-0.310896
-0.309831
-0.30862
-0.307252
-0.305714
-0.303994
-0.302086
-0.299969
-0.297669
-0.295107
-0.292448
-0.289361
-0.286511
-0.282686
-0.280167
-0.275039
-0.31731
-0.317951
-0.317799
-0.317657
-0.317372
-0.317107
-0.316868
-0.316677
-0.316527
-0.316409
-0.316308
-0.316209
-0.316101
-0.315969
-0.315804
-0.315595
-0.315333
-0.31501
-0.314615
-0.314141
-0.313578
-0.312914
-0.31214
-0.311243
-0.310212
-0.309034
-0.307696
-0.306187
-0.304496
-0.302613
-0.300535
-0.298246
-0.295771
-0.293055
-0.290228
-0.287051
-0.284025
-0.280263
-0.277475
-0.272712
-0.318349
-0.318867
-0.318633
-0.318382
-0.317994
-0.317625
-0.317289
-0.317007
-0.316775
-0.316583
-0.316415
-0.316256
-0.316092
-0.315909
-0.315695
-0.315439
-0.315129
-0.314755
-0.314307
-0.313772
-0.31314
-0.312398
-0.311533
-0.310532
-0.309382
-0.30807
-0.306584
-0.304914
-0.303051
-0.300989
-0.298728
-0.29626
-0.293611
-0.290743
-0.287761
-0.284502
-0.281331
-0.277628
-0.274625
-0.270173
-0.319407
-0.319805
-0.319484
-0.319118
-0.318619
-0.31814
-0.3177
-0.317323
-0.317003
-0.316732
-0.316493
-0.31627
-0.316047
-0.31581
-0.315544
-0.315236
-0.314873
-0.314443
-0.313931
-0.313326
-0.312612
-0.311776
-0.310803
-0.309679
-0.308389
-0.306923
-0.305268
-0.303418
-0.301368
-0.299115
-0.296666
-0.294019
-0.2912
-0.288191
-0.285075
-0.281745
-0.278465
-0.274816
-0.271657
-0.267455
-0.320486
-0.320764
-0.320351
-0.319866
-0.319248
-0.318653
-0.318103
-0.317624
-0.317212
-0.316857
-0.316544
-0.316253
-0.315969
-0.315674
-0.315351
-0.314987
-0.314564
-0.314069
-0.313485
-0.312796
-0.311986
-0.311039
-0.309938
-0.308669
-0.307219
-0.305577
-0.303735
-0.30169
-0.299442
-0.296993
-0.294357
-0.291537
-0.288564
-0.285429
-0.282203
-0.278818
-0.275466
-0.271864
-0.268604
-0.264597
-0.321587
-0.321746
-0.321237
-0.320625
-0.319884
-0.319165
-0.318499
-0.317912
-0.317404
-0.316962
-0.31657
-0.316208
-0.315859
-0.315502
-0.315119
-0.314691
-0.314202
-0.313632
-0.312963
-0.312175
-0.311251
-0.310173
-0.308923
-0.307488
-0.305856
-0.30402
-0.301976
-0.299726
-0.297275
-0.294634
-0.291819
-0.28884
-0.285732
-0.282492
-0.279183
-0.275759
-0.272367
-0.26881
-0.265494
-0.261634
-0.322714
-0.322754
-0.322143
-0.321398
-0.320527
-0.319678
-0.31889
-0.318191
-0.317581
-0.317048
-0.316574
-0.316138
-0.31572
-0.315296
-0.314847
-0.31435
-0.313784
-0.313127
-0.312358
-0.311455
-0.310397
-0.309166
-0.307745
-0.306123
-0.304291
-0.302246
-0.29999
-0.297531
-0.294881
-0.292055
-0.289076
-0.285959
-0.282738
-0.279416
-0.276051
-0.272605
-0.2692
-0.265684
-0.262349
-0.258599
-0.32387
-0.323791
-0.323071
-0.322188
-0.32118
-0.320194
-0.319279
-0.318463
-0.317747
-0.317119
-0.31656
-0.316046
-0.315555
-0.31506
-0.314537
-0.313962
-0.313308
-0.31255
-0.311663
-0.310624
-0.309411
-0.308005
-0.306392
-0.304564
-0.302516
-0.300253
-0.297782
-0.295117
-0.292278
-0.289283
-0.28616
-0.282927
-0.279618
-0.276236
-0.272837
-0.269384
-0.265987
-0.262513
-0.259187
-0.255518
-0.325059
-0.324859
-0.324025
-0.322997
-0.321845
-0.320718
-0.31967
-0.318732
-0.317907
-0.31718
-0.316532
-0.315937
-0.315367
-0.314795
-0.314191
-0.313525
-0.312769
-0.311893
-0.310869
-0.309673
-0.308281
-0.306679
-0.304855
-0.302805
-0.300532
-0.298047
-0.295364
-0.292504
-0.289491
-0.286348
-0.283103
-0.279777
-0.276402
-0.272982
-0.269568
-0.266122
-0.262749
-0.259315
-0.256019
-0.252414
-0.326287
-0.325959
-0.32501
-0.323829
-0.322527
-0.321252
-0.320066
-0.319003
-0.318063
-0.317235
-0.316494
-0.315813
-0.31516
-0.314502
-0.313806
-0.313038
-0.312163
-0.311149
-0.309967
-0.30859
-0.306998
-0.30518
-0.303128
-0.300846
-0.298345
-0.295641
-0.292756
-0.289717
-0.286549
-0.283279
-0.279936
-0.27654
-0.27312
-0.269679
-0.266266
-0.262836
-0.259497
-0.256104
-0.252855
-0.249302
-0.327558
-0.327099
-0.326027
-0.324686
-0.323229
-0.3218
-0.320472
-0.319279
-0.318223
-0.317289
-0.316452
-0.315679
-0.314936
-0.314184
-0.313384
-0.312496
-0.311484
-0.31031
-0.308946
-0.307366
-0.305553
-0.303501
-0.301211
-0.298693
-0.295966
-0.293053
-0.289981
-0.286781
-0.283481
-0.280107
-0.276688
-0.273241
-0.269793
-0.266346
-0.262943
-0.259538
-0.25624
-0.252888
-0.249701
-0.246195
-0.328879
-0.328282
-0.327081
-0.325573
-0.323954
-0.322368
-0.320893
-0.319566
-0.31839
-0.317347
-0.316409
-0.31554
-0.314698
-0.313839
-0.31292
-0.311895
-0.310723
-0.309367
-0.307797
-0.305992
-0.303941
-0.301643
-0.299109
-0.296357
-0.293412
-0.290304
-0.287065
-0.283725
-0.280314
-0.276859
-0.273382
-0.269902
-0.266439
-0.262996
-0.259609
-0.256236
-0.252982
-0.249673
-0.246558
-0.243096
-0.330256
-0.329514
-0.328175
-0.326495
-0.324709
-0.322959
-0.321334
-0.319871
-0.318571
-0.317415
-0.316371
-0.315397
-0.314446
-0.313468
-0.312411
-0.311228
-0.309873
-0.308311
-0.306513
-0.304464
-0.30216
-0.299609
-0.296831
-0.293852
-0.290704
-0.287419
-0.284032
-0.280575
-0.277074
-0.273555
-0.270037
-0.266537
-0.263068
-0.259638
-0.25627
-0.252934
-0.249723
-0.246461
-0.243429
-0.240009
-0.331697
-0.330796
-0.329317
-0.327455
-0.325497
-0.323579
-0.321801
-0.320197
-0.31877
-0.317498
-0.316342
-0.315254
-0.314181
-0.313066
-0.311852
-0.310488
-0.308926
-0.307133
-0.305086
-0.302777
-0.300212
-0.297408
-0.294393
-0.291199
-0.287863
-0.284422
-0.280908
-0.277353
-0.273782
-0.270215
-0.266669
-0.263158
-0.25969
-0.256276
-0.252928
-0.24963
-0.246459
-0.243253
-0.240312
-0.236937
-0.333209
-0.332137
-0.330509
-0.32846
-0.326323
-0.324235
-0.322299
-0.320553
-0.318995
-0.3176
-0.316325
-0.315112
-0.313903
-0.312632
-0.311238
-0.309667
-0.307873
-0.305828
-0.303514
-0.300935
-0.298105
-0.295051
-0.291809
-0.288417
-0.284913
-0.281335
-0.277715
-0.27408
-0.270453
-0.266851
-0.263287
-0.259771
-0.25631
-0.252912
-0.249584
-0.246323
-0.243182
-0.240044
-0.237198
-0.233885
-0.334795
-0.333542
-0.331758
-0.329514
-0.327195
-0.324931
-0.322835
-0.320943
-0.319251
-0.317728
-0.316322
-0.314972
-0.313608
-0.312159
-0.310561
-0.308758
-0.306709
-0.30439
-0.301797
-0.298941
-0.295848
-0.292554
-0.289099
-0.285526
-0.281874
-0.278179
-0.27447
-0.270772
-0.267102
-0.263474
-0.259898
-0.256383
-0.25293
-0.249549
-0.246237
-0.243009
-0.239881
-0.236811
-0.23404
-0.230849
-0.336466
-0.335016
-0.333069
-0.330623
-0.328117
-0.325674
-0.323416
-0.321374
-0.319542
-0.317883
-0.316338
-0.314834
-0.313294
-0.311644
-0.309815
-0.307754
-0.305427
-0.302819
-0.299937
-0.296804
-0.293455
-0.289933
-0.286283
-0.282548
-0.278766
-0.274971
-0.271189
-0.267439
-0.263736
-0.26009
-0.256508
-0.252996
-0.249552
-0.246187
-0.242891
-0.239686
-0.236556
-0.23353
-0.230737
-0.227753
-0.338234
-0.336566
-0.334448
-0.331791
-0.329093
-0.326467
-0.324043
-0.321847
-0.31987
-0.318066
-0.316366
-0.314689
-0.312952
-0.311074
-0.308988
-0.306646
-0.304022
-0.301114
-0.29794
-0.294534
-0.29094
-0.287205
-0.283378
-0.279499
-0.275605
-0.271726
-0.267882
-0.264091
-0.260362
-0.256704
-0.253118
-0.249611
-0.246178
-0.242827
-0.239546
-0.236358
-0.233224
-0.230209
-0.22725
-0.224385
-0.340116
-0.338201
-0.335899
-0.33302
-0.330122
-0.327308
-0.324713
-0.322359
-0.320229
-0.318268
-0.316398
-0.314529
-0.312569
-0.310437
-0.308069
-0.305425
-0.30249
-0.299276
-0.295812
-0.292142
-0.288317
-0.284387
-0.2804
-0.276395
-0.272404
-0.268453
-0.264559
-0.260734
-0.256985
-0.253317
-0.249731
-0.246228
-0.242806
-0.239469
-0.236203
-0.233029
-0.229899
-0.226887
-0.223798
-0.220723
-0.34209
-0.339918
-0.337431
-0.334325
-0.331226
-0.328223
-0.325455
-0.322938
-0.320647
-0.318515
-0.316456
-0.314369
-0.312159
-0.309745
-0.307069
-0.304102
-0.300844
-0.297319
-0.29357
-0.289647
-0.285605
-0.281497
-0.277366
-0.273249
-0.269175
-0.265162
-0.261225
-0.257371
-0.253606
-0.24993
-0.246345
-0.242849
-0.239438
-0.236114
-0.232864
-0.229702
-0.226583
-0.223561
-0.22046
-0.217465
-0.344174
-0.341725
-0.339048
-0.335709
-0.332406
-0.32921
-0.326265
-0.323578
-0.321114
-0.318796
-0.316525
-0.314193
-0.311704
-0.30898
-0.305973
-0.302668
-0.29908
-0.295247
-0.29122
-0.287058
-0.282816
-0.278545
-0.274286
-0.270071
-0.265923
-0.261856
-0.257882
-0.254004
-0.250225
-0.246544
-0.24296
-0.239471
-0.236071
-0.232761
-0.229527
-0.226382
-0.223278
-0.220267
-0.217194
-0.214263
-0.346379
-0.343631
-0.340756
-0.337176
-0.333665
-0.330272
-0.327145
-0.324279
-0.321629
-0.319105
-0.316597
-0.313993
-0.311196
-0.308135
-0.304778
-0.301124
-0.297204
-0.293068
-0.288776
-0.284389
-0.279963
-0.275544
-0.27117
-0.266868
-0.262654
-0.25854
-0.254533
-0.250634
-0.246843
-0.243158
-0.239575
-0.236093
-0.232705
-0.22941
-0.226194
-0.223067
-0.219985
-0.216999
-0.213969
-0.211122
-0.348713
-0.34564
-0.342561
-0.338732
-0.335008
-0.331414
-0.328098
-0.325044
-0.322192
-0.31944
-0.316669
-0.313761
-0.310626
-0.307206
-0.303481
-0.299472
-0.295222
-0.290792
-0.286247
-0.281651
-0.277055
-0.272503
-0.268025
-0.263644
-0.259372
-0.255215
-0.251178
-0.24726
-0.243458
-0.239769
-0.236189
-0.232715
-0.229338
-0.226059
-0.222863
-0.219758
-0.216704
-0.213751
-0.210772
-0.207998
-0.351181
-0.347758
-0.344468
-0.340381
-0.33644
-0.33264
-0.329129
-0.325873
-0.322801
-0.319796
-0.316731
-0.31349
-0.309989
-0.306187
-0.302084
-0.297715
-0.29314
-0.288427
-0.283645
-0.278854
-0.274103
-0.269428
-0.264857
-0.260404
-0.256078
-0.251882
-0.247818
-0.243881
-0.240069
-0.236378
-0.232801
-0.229334
-0.22597
-0.222708
-0.219533
-0.216452
-0.21343
-0.210514
-0.207588
-0.20488
-0.353791
-0.34999
-0.346482
-0.342131
-0.337968
-0.333956
-0.33024
-0.326768
-0.323454
-0.320167
-0.316776
-0.313169
-0.309277
-0.305075
-0.300585
-0.295859
-0.290968
-0.285985
-0.280978
-0.276006
-0.271112
-0.266326
-0.261667
-0.257148
-0.252772
-0.248541
-0.24445
-0.240497
-0.236676
-0.232981
-0.229407
-0.225949
-0.222599
-0.219353
-0.216201
-0.213147
-0.210158
-0.207283
-0.204409
-0.201762
-0.356546
-0.352342
-0.34861
-0.343985
-0.339596
-0.335365
-0.331433
-0.327727
-0.324145
-0.320546
-0.316796
-0.312793
-0.308484
-0.303869
-0.298988
-0.293909
-0.288712
-0.283472
-0.278255
-0.273115
-0.268088
-0.263198
-0.258459
-0.253878
-0.249456
-0.245189
-0.241074
-0.237105
-0.233275
-0.229578
-0.226007
-0.222558
-0.219221
-0.215994
-0.212865
-0.20984
-0.206886
-0.204051
-0.201229
-0.198638
-0.359453
-0.354817
-0.350856
-0.345949
-0.341329
-0.336871
-0.332708
-0.328748
-0.324869
-0.320924
-0.31678
-0.312351
-0.307606
-0.302567
-0.297295
-0.291871
-0.286379
-0.280895
-0.275482
-0.270185
-0.265034
-0.260047
-0.255233
-0.250594
-0.246127
-0.241827
-0.237688
-0.233703
-0.229865
-0.226166
-0.222599
-0.219159
-0.215837
-0.212629
-0.209524
-0.206527
-0.203609
-0.200815
-0.198042
-0.195505
-0.362516
-0.357421
-0.353224
-0.348028
-0.343171
-0.338475
-0.334066
-0.329826
-0.325619
-0.321291
-0.31672
-0.311838
-0.306639
-0.30117
-0.29551
-0.28975
-0.283976
-0.278262
-0.272664
-0.26722
-0.261953
-0.256875
-0.251989
-0.247294
-0.242784
-0.238452
-0.23429
-0.23029
-0.226444
-0.222743
-0.219181
-0.21575
-0.212442
-0.209254
-0.206174
-0.203206
-0.200324
-0.197571
-0.194846
-0.192359
-0.36574
-0.360158
-0.35572
-0.350226
-0.345125
-0.34018
-0.335504
-0.330956
-0.326385
-0.321638
-0.316605
-0.311245
-0.30558
-0.299679
-0.293637
-0.287552
-0.281509
-0.275577
-0.269804
-0.264221
-0.258844
-0.253679
-0.248725
-0.243976
-0.239425
-0.235062
-0.230878
-0.226864
-0.22301
-0.219308
-0.21575
-0.212329
-0.209037
-0.205868
-0.202813
-0.199874
-0.197028
-0.194314
-0.191637
-0.189198
-0.369126
-0.363031
-0.358347
-0.352547
-0.347194
-0.341985
-0.33702
-0.332132
-0.327159
-0.321953
-0.316428
-0.310569
-0.304427
-0.298095
-0.291679
-0.28528
-0.278981
-0.272842
-0.266904
-0.26119
-0.255709
-0.250461
-0.245441
-0.24064
-0.236048
-0.231655
-0.22745
-0.223421
-0.21956
-0.215858
-0.212305
-0.208894
-0.205617
-0.202468
-0.199439
-0.19653
-0.193719
-0.191044
-0.188411
-0.18602
-0.372679
-0.366043
-0.36111
-0.354996
-0.349381
-0.34389
-0.338609
-0.333344
-0.327928
-0.322226
-0.316178
-0.309802
-0.303179
-0.29642
-0.28964
-0.28294
-0.276396
-0.270061
-0.263966
-0.258127
-0.252546
-0.247218
-0.242134
-0.237283
-0.232652
-0.228229
-0.224003
-0.219961
-0.216094
-0.212391
-0.208844
-0.205443
-0.202182
-0.199054
-0.196049
-0.193169
-0.190394
-0.187756
-0.185168
-0.182821
-0.376399
-0.369198
-0.364012
-0.357574
-0.351686
-0.345894
-0.340265
-0.334583
-0.328682
-0.322446
-0.315847
-0.308941
-0.301835
-0.294656
-0.287523
-0.280533
-0.273756
-0.267234
-0.26099
-0.255031
-0.249353
-0.243948
-0.238802
-0.233902
-0.229233
-0.224782
-0.220536
-0.216482
-0.212608
-0.208906
-0.205364
-0.201975
-0.19873
-0.195622
-0.192642
-0.189791
-0.18705
-0.184449
-0.181904
-0.1796
-0.380288
-0.372497
-0.367055
-0.360284
-0.35411
-0.347991
-0.341979
-0.335837
-0.329407
-0.3226
-0.315428
-0.307982
-0.300395
-0.292804
-0.285329
-0.278062
-0.271062
-0.264361
-0.257974
-0.2519
-0.246129
-0.240649
-0.235443
-0.230495
-0.22579
-0.221311
-0.217046
-0.21298
-0.209102
-0.2054
-0.201865
-0.198487
-0.195258
-0.19217
-0.189216
-0.186394
-0.183686
-0.181121
-0.178618
-0.176356
-0.384346
-0.375942
-0.370241
-0.363128
-0.35665
-0.350177
-0.343741
-0.337093
-0.33009
-0.322679
-0.314914
-0.306923
-0.298858
-0.290865
-0.283061
-0.275528
-0.268314
-0.261443
-0.254918
-0.248732
-0.242872
-0.237318
-0.232054
-0.22706
-0.222319
-0.217815
-0.213531
-0.209454
-0.205572
-0.201872
-0.198344
-0.194977
-0.191765
-0.188698
-0.185769
-0.182975
-0.1803
-0.17777
-0.175308
-0.173085
-0.388571
-0.379534
-0.373572
-0.366104
-0.359305
-0.352444
-0.345541
-0.338338
-0.330717
-0.322671
-0.314299
-0.30576
-0.297224
-0.28884
-0.280719
-0.27293
-0.265512
-0.258476
-0.251819
-0.245526
-0.239578
-0.233954
-0.228633
-0.223595
-0.21882
-0.21429
-0.209989
-0.205903
-0.202017
-0.198319
-0.194799
-0.191445
-0.188249
-0.185203
-0.182298
-0.179533
-0.176891
-0.174394
-0.171972
-0.169788
-0.392961
-0.383271
-0.377046
-0.369212
-0.362069
-0.354783
-0.347364
-0.339556
-0.331276
-0.322567
-0.313576
-0.30449
-0.295493
-0.28673
-0.278303
-0.270269
-0.262654
-0.25546
-0.248675
-0.242277
-0.236245
-0.230553
-0.225177
-0.220096
-0.215288
-0.210735
-0.206419
-0.202324
-0.198435
-0.194741
-0.191228
-0.187887
-0.184709
-0.181683
-0.178804
-0.176066
-0.173456
-0.170992
-0.168609
-0.166462
-0.397513
-0.387154
-0.380664
-0.372449
-0.364935
-0.357182
-0.349196
-0.34073
-0.331751
-0.322358
-0.312741
-0.303113
-0.293664
-0.284534
-0.275812
-0.267543
-0.259739
-0.252392
-0.245483
-0.238985
-0.23287
-0.227112
-0.221684
-0.216562
-0.211723
-0.207148
-0.202817
-0.198715
-0.194825
-0.191135
-0.187631
-0.184304
-0.181142
-0.178139
-0.175284
-0.172573
-0.169995
-0.167563
-0.165218
-0.163107
-0.402222
-0.39118
-0.384423
-0.375811
-0.367896
-0.359629
-0.351019
-0.341846
-0.332131
-0.322035
-0.311788
-0.301625
-0.291736
-0.282251
-0.273246
-0.26475
-0.256763
-0.249269
-0.24224
-0.235644
-0.229451
-0.223629
-0.218151
-0.21299
-0.208122
-0.203526
-0.199183
-0.195074
-0.191184
-0.187499
-0.184006
-0.180692
-0.177549
-0.174567
-0.171736
-0.169053
-0.166506
-0.164106
-0.161797
-0.159721
-0.407081
-0.395344
-0.388317
-0.37929
-0.370939
-0.362107
-0.352817
-0.342885
-0.332402
-0.321588
-0.310713
-0.300024
-0.289707
-0.27988
-0.270601
-0.261887
-0.253725
-0.246088
-0.238943
-0.232253
-0.225984
-0.220102
-0.214575
-0.209377
-0.204483
-0.199868
-0.195514
-0.1914
-0.187512
-0.183833
-0.18035
-0.177052
-0.173927
-0.170966
-0.168161
-0.165505
-0.162988
-0.160619
-0.158346
-0.156303
-0.412082
-0.399641
-0.392342
-0.382878
-0.374051
-0.364598
-0.354568
-0.343831
-0.332552
-0.321012
-0.309511
-0.298307
-0.287575
-0.277418
-0.267876
-0.258951
-0.25062
-0.242846
-0.235589
-0.228809
-0.222467
-0.216526
-0.210955
-0.205722
-0.200803
-0.196172
-0.191808
-0.187692
-0.183806
-0.180135
-0.176664
-0.173381
-0.170275
-0.167337
-0.164556
-0.161927
-0.15944
-0.157101
-0.154864
-0.152854
-0.417216
-0.404065
-0.396489
-0.386565
-0.377217
-0.367084
-0.356254
-0.344668
-0.332569
-0.320297
-0.308179
-0.296471
-0.285338
-0.274862
-0.265067
-0.25594
-0.247445
-0.239539
-0.232175
-0.225308
-0.218896
-0.2129
-0.207286
-0.202022
-0.19708
-0.192435
-0.188064
-0.183947
-0.180065
-0.176403
-0.172945
-0.169679
-0.166593
-0.163677
-0.160922
-0.15832
-0.155862
-0.153553
-0.151351
-0.149371
-0.42247
-0.408607
-0.400749
-0.390337
-0.380419
-0.369542
-0.357854
-0.345378
-0.332442
-0.319437
-0.306711
-0.294514
-0.282992
-0.272209
-0.262171
-0.252849
-0.244196
-0.236163
-0.228696
-0.221747
-0.215269
-0.209221
-0.203568
-0.198275
-0.193314
-0.188657
-0.18428
-0.180164
-0.176288
-0.172636
-0.169193
-0.165944
-0.162879
-0.159986
-0.157256
-0.154681
-0.152253
-0.149973
-0.147805
-0.145854
-0.427833
-0.413257
-0.405109
-0.394177
-0.383635
-0.37195
-0.359347
-0.345946
-0.332159
-0.318425
-0.305102
-0.29243
-0.280534
-0.269457
-0.259184
-0.249674
-0.240871
-0.232716
-0.225151
-0.218122
-0.211582
-0.205487
-0.199798
-0.194479
-0.189501
-0.184834
-0.180455
-0.176342
-0.172474
-0.168834
-0.165406
-0.162176
-0.159132
-0.156263
-0.153559
-0.151011
-0.148612
-0.146361
-0.144226
-0.142304
-0.433287
-0.418001
-0.409556
-0.398069
-0.386844
-0.374283
-0.360712
-0.346356
-0.331711
-0.317255
-0.303349
-0.290217
-0.277961
-0.266599
-0.256102
-0.246412
-0.237464
-0.229193
-0.221534
-0.214432
-0.207834
-0.201695
-0.195973
-0.190632
-0.185639
-0.180966
-0.176587
-0.172479
-0.168621
-0.164994
-0.161584
-0.158374
-0.155352
-0.152508
-0.14983
-0.147309
-0.14494
-0.142717
-0.140615
-0.138721
-0.438815
-0.422827
-0.414071
-0.401992
-0.39002
-0.376517
-0.361928
-0.346592
-0.331086
-0.315918
-0.301446
-0.28787
-0.275267
-0.263633
-0.25292
-0.243058
-0.233973
-0.225591
-0.217844
-0.210673
-0.204022
-0.197842
-0.192092
-0.186732
-0.181728
-0.177052
-0.172675
-0.168574
-0.164728
-0.161117
-0.157725
-0.154537
-0.151539
-0.148719
-0.146068
-0.143576
-0.141235
-0.139041
-0.136971
-0.135103
-0.444398
-0.427715
-0.418636
-0.405921
-0.393136
-0.378626
-0.362974
-0.346641
-0.330276
-0.31441
-0.299388
-0.285384
-0.272448
-0.260554
-0.249635
-0.239609
-0.230392
-0.221906
-0.214077
-0.206842
-0.200142
-0.193927
-0.188152
-0.182776
-0.177766
-0.173089
-0.168717
-0.164627
-0.160794
-0.157201
-0.15383
-0.150664
-0.147691
-0.144897
-0.142273
-0.139809
-0.137498
-0.135332
-0.133295
-0.131452
-0.450014
-0.432649
-0.423229
-0.409831
-0.396164
-0.380583
-0.36383
-0.346487
-0.329271
-0.312722
-0.297169
-0.282754
-0.2695
-0.257357
-0.246241
-0.236059
-0.226719
-0.218135
-0.21023
-0.202936
-0.196192
-0.189947
-0.184151
-0.178765
-0.173751
-0.169077
-0.164713
-0.160635
-0.156819
-0.153246
-0.149897
-0.146755
-0.143808
-0.141042
-0.138446
-0.136011
-0.133729
-0.131592
-0.129586
-0.127768
-0.455637
-0.437606
-0.427826
-0.413695
-0.399075
-0.382364
-0.364476
-0.346118
-0.328061
-0.310849
-0.294783
-0.279975
-0.266418
-0.254037
-0.242735
-0.232406
-0.222949
-0.214274
-0.206299
-0.198953
-0.192171
-0.185899
-0.180088
-0.174695
-0.169681
-0.165013
-0.160661
-0.156599
-0.152802
-0.149251
-0.145925
-0.14281
-0.13989
-0.137152
-0.134586
-0.13218
-0.129927
-0.127819
-0.125844
-0.124051
-0.461243
-0.442563
-0.432399
-0.417481
-0.401837
-0.38394
-0.364893
-0.34552
-0.326638
-0.308783
-0.292226
-0.277042
-0.263195
-0.25059
-0.239111
-0.228644
-0.219079
-0.210321
-0.202283
-0.19489
-0.188076
-0.181783
-0.175961
-0.170565
-0.165556
-0.160898
-0.156561
-0.152517
-0.148742
-0.145215
-0.141916
-0.138828
-0.135937
-0.133229
-0.130692
-0.128317
-0.126094
-0.124015
-0.122072
-0.120301
-0.466801
-0.447494
-0.43692
-0.421157
-0.404418
-0.385287
-0.365062
-0.344681
-0.324993
-0.306518
-0.28949
-0.273949
-0.259827
-0.24701
-0.235366
-0.22477
-0.215106
-0.206272
-0.198177
-0.190744
-0.183904
-0.177596
-0.171769
-0.166375
-0.161374
-0.15673
-0.152411
-0.148389
-0.144638
-0.141138
-0.137867
-0.13481
-0.131949
-0.129272
-0.126766
-0.124422
-0.12223
-0.12018
-0.118268
-0.116521
-0.472282
-0.452371
-0.441357
-0.424691
-0.406789
-0.386381
-0.364966
-0.343588
-0.323117
-0.304047
-0.28657
-0.270689
-0.256309
-0.243292
-0.231494
-0.220779
-0.211025
-0.202123
-0.19398
-0.186514
-0.179654
-0.173337
-0.167509
-0.162122
-0.157134
-0.152508
-0.148211
-0.144213
-0.140491
-0.13702
-0.13378
-0.130754
-0.127926
-0.125281
-0.122808
-0.120496
-0.118335
-0.116315
-0.114434
-0.11271
-0.477653
-0.457163
-0.445676
-0.428045
-0.408915
-0.387195
-0.364588
-0.342231
-0.321002
-0.301362
-0.283459
-0.267259
-0.252636
-0.239433
-0.227492
-0.216669
-0.206834
-0.197873
-0.189689
-0.182198
-0.175324
-0.169004
-0.163181
-0.157806
-0.152835
-0.148231
-0.14396
-0.139991
-0.136299
-0.13286
-0.129654
-0.126662
-0.123868
-0.121257
-0.118818
-0.116538
-0.11441
-0.112421
-0.110571
-0.108869
-0.482879
-0.46184