/*--------------------------------*- C++ -*----------------------------------*\
  =========                 |
  \\      /  F ield         | OpenFOAM: The Open Source CFD Toolbox
   \\    /   O peration     | Website:  https://openfoam.org
    \\  /    A nd           | Version:  7
     \\/     M anipulation  |
\*---------------------------------------------------------------------------*/
FoamFile
{
    version     2.0;
    format      ascii;
    class       surfaceScalarField;
    location    "20";
    object      phi;
}
// * * * * * * * * * * * * * * * * * * * * * * * * * * * * * * * * * * * * * //

dimensions      [0 3 -1 0 0 0 0];

internalField   nonuniform List<scalar> 
96230
(
-4.55073e-06
4.54985e-06
8.8367e-10
-1.52167e-05
1.0664e-05
1.94067e-09
-3.02656e-05
1.50464e-05
2.54557e-09
-4.84202e-05
1.81517e-05
2.83918e-09
-6.88071e-05
2.0384e-05
2.93472e-09
-9.082e-05
2.201e-05
2.90929e-09
-0.000114053
2.32297e-05
2.81279e-09
-0.000138239
2.41838e-05
2.6726e-09
-0.000163212
2.49707e-05
2.49996e-09
-0.000188872
2.56574e-05
2.29552e-09
-0.000215162
2.6288e-05
2.05377e-09
-0.000242054
2.68906e-05
1.76613e-09
-0.000269538
2.74825e-05
1.42286e-09
-0.000297613
2.80737e-05
1.01384e-09
-0.000326283
2.86696e-05
5.29397e-10
-0.000355556
2.92725e-05
-4.00108e-11
-0.000385438
2.98827e-05
-7.03293e-10
-0.000415935
3.04992e-05
-1.46887e-09
-0.000447053
3.11198e-05
-2.34442e-09
-0.000478791
3.17414e-05
-3.33674e-09
-0.000511146
3.23597e-05
-4.45142e-09
-0.00054411
3.29691e-05
-5.69254e-09
-0.000577665
3.35625e-05
-7.06232e-09
-0.000611787
3.41309e-05
-8.56068e-09
-0.00064644
3.46631e-05
-1.01848e-08
-0.000681573
3.51451e-05
-1.19286e-08
-0.000717119
3.55598e-05
-1.3782e-08
-0.000752991
3.58872e-05
-1.57306e-08
-0.000789077
3.61041e-05
-1.77546e-08
-0.000825243
3.61853e-05
-1.98284e-08
-0.000861327
3.61058e-05
-2.19195e-08
-0.000897147
3.58446e-05
-2.39878e-08
-0.000932514
3.53926e-05
-2.59853e-08
-0.000967249
3.47633e-05
-2.78554e-08
-0.00100123
3.40089e-05
-2.95335e-08
-0.00103444
3.32415e-05
-3.09487e-08
-0.00106707
3.26621e-05
-3.20266e-08
-0.00109957
3.25357e-05
-3.26947e-08
-0.00113265
3.31083e-05
-3.28871e-08
3.5051e-05
-3.25623e-08
-0.00116767
-4.52756e-06
9.07741e-06
-1.51449e-05
2.12814e-05
-3.01269e-05
3.00283e-05
-4.81994e-05
3.62242e-05
-6.84902e-05
4.06748e-05
-9.03922e-05
4.3912e-05
-0.000113498
4.63353e-05
-0.000137539
4.82252e-05
-0.000162347
4.97784e-05
-0.000187818
5.11283e-05
-0.000213893
5.23631e-05
-0.000240541
5.35386e-05
-0.000267747
5.46891e-05
-0.000295508
5.58345e-05
-0.000323824
5.6985e-05
-0.000352696
5.81451e-05
-0.000382128
5.93149e-05
-0.000412121
6.04919e-05
-0.000442673
6.16713e-05
-0.000473778
6.28465e-05
-0.000505426
6.40082e-05
-0.000537602
6.51451e-05
-0.000570282
6.62424e-05
-0.000603433
6.72818e-05
-0.00063701
6.82405e-05
-0.000670956
6.90905e-05
-0.000705193
6.97978e-05
-0.000739629
7.03222e-05
-0.000774142
7.06177e-05
-0.000808591
7.06339e-05
-0.000842805
7.032e-05
-0.000876593
6.96325e-05
-0.000909749
6.85486e-05
-0.000942073
6.70873e-05
-0.000973404
6.53403e-05
-0.00100368
6.3513e-05
-0.001033
6.19885e-05
-0.00106178
6.13088e-05
-0.00109064
6.19722e-05
6.52198e-05
-0.00112081
-4.48292e-06
1.35603e-05
-1.50046e-05
3.1803e-05
-2.98536e-05
4.48774e-05
-4.77631e-05
5.41337e-05
-6.78624e-05
6.07741e-05
-8.95434e-05
6.5593e-05
-0.000112396
6.91876e-05
-0.000136148
7.19771e-05
-0.000160625
7.42556e-05
-0.000185719
7.62226e-05
-0.000211365
7.80092e-05
-0.000237526
7.9699e-05
-0.000264179
8.13427e-05
-0.000291314
8.29693e-05
-0.000318922
8.45934e-05
-0.000346998
8.62207e-05
-0.000375534
8.78506e-05
-0.00040452
8.94783e-05
-0.000433944
9.10956e-05
-0.000463789
9.26911e-05
-0.000494031
9.42502e-05
-0.00052464
9.57545e-05
-0.000555579
9.71809e-05
-0.000586798
9.85013e-05
-0.000618239
9.96806e-05
-0.000649825
0.000100677
-0.000681465
0.000101438
-0.000713048
0.000101906
-0.000744441
0.00010201
-0.000775483
0.000101676
-0.00080599
0.000100827
-0.00083575
9.93928e-05
-0.000864532
9.73304e-05
-0.000892095
9.46501e-05
-0.000918214
9.14598e-05
-0.000942724
8.80229e-05
-0.000965597
8.48618e-05
-0.000987097
8.28079e-05
-0.00100777
8.26454e-05
8.59007e-05
-0.00102845
-4.41728e-06
1.79776e-05
-1.47971e-05
4.21829e-05
-2.94486e-05
5.95289e-05
-4.71153e-05
7.18003e-05
-6.6929e-05
8.05877e-05
-8.82802e-05
8.69442e-05
-0.000110754
9.16617e-05
-0.000134074
9.52966e-05
-0.000158058
9.82393e-05
-0.000182589
0.000100754
-0.000207595
0.000103015
-0.000233027
0.000105131
-0.000258855
0.000107171
-0.000285055
0.00010917
-0.000311608
0.000111147
-0.000338495
0.000113107
-0.000365694
0.00011505
-0.000393181
0.000116965
-0.000420926
0.000118841
-0.000448894
0.000120659
-0.000477043
0.000122399
-0.000505322
0.000124034
-0.000533673
0.000125532
-0.000562024
0.000126852
-0.000590292
0.000127948
-0.000618379
0.000128763
-0.000646168
0.000129228
-0.000673526
0.000129263
-0.000700295
0.000128779
-0.000726295
0.000127676
-0.000751317
0.000125849
-0.000775125
0.000123201
-0.000797455
0.00011966
-0.000818017
0.000115212
-0.000836509
0.000109952
-0.000852641
0.000104155
-0.000866192
9.84125e-05
-0.000877214
9.38297e-05
-0.000886152
9.1583e-05
9.28684e-05
-0.000893119
-4.33143e-06
2.2309e-05
-1.45247e-05
5.23761e-05
-2.89158e-05
7.392e-05
-4.62616e-05
8.91462e-05
-6.56974e-05
0.000100024
-8.66118e-05
0.000107859
-0.000108585
0.000113635
-0.000131331
0.000118043
-0.000154661
0.000121569
-0.000178446
0.00012454
-0.000202602
0.000127171
-0.00022707
0.000129599
-0.000251804
0.000131905
-0.000276767
0.000134132
-0.000301923
0.000136303
-0.000327236
0.000138421
-0.000352667
0.000140481
-0.000378172
0.000142469
-0.000403699
0.000144367
-0.00042919
0.00014615
-0.000454578
0.000147788
-0.000479788
0.000149244
-0.000504732
0.000150475
-0.000529309
0.00015143
-0.000553407
0.000152047
-0.000576897
0.000152253
-0.000599632
0.000151963
-0.000621448
0.000151079
-0.000642158
0.000149489
-0.000661553
0.00014707
-0.000679396
0.000143692
-0.000695423
0.000139228
-0.000709335
0.000133572
-0.000720794
0.000126672
-0.000729425
0.000118583
-0.000734812
0.000109542
-0.000736519
0.000100119
-0.00073429
9.16016e-05
-0.000728516
8.58085e-05
8.25199e-05
-0.000718167
-4.22636e-06
2.65354e-05
-1.41903e-05
6.23401e-05
-2.82601e-05
8.79898e-05
-4.52094e-05
0.000106095
-6.41775e-05
0.000118992
-8.45506e-05
0.000128232
-0.000105902
0.000134986
-0.000127938
0.000140079
-0.000150455
0.000144086
-0.000173315
0.000147399
-0.000196417
0.000150274
-0.000219688
0.00015287
-0.000243065
0.000155282
-0.000266494
0.000157561
-0.000289919
0.000159728
-0.000313285
0.000161786
-0.000336528
0.000163724
-0.000359581
0.000165522
-0.000382367
0.000167153
-0.0004048
0.000168583
-0.000426784
0.000169772
-0.000448211
0.000170671
-0.000468961
0.000171225
-0.000488898
0.000171367
-0.000507874
0.000171023
-0.000525724
0.000170102
-0.000542263
0.000168502
-0.00055729
0.000166106
-0.000570584
0.000162783
-0.000581899
0.000158386
-0.000590968
0.000152761
-0.000597494
0.000145754
-0.000601145
0.000137224
-0.000601545
0.000127072
-0.000598258
0.000115296
-0.000590769
0.000102052
-0.000578455
8.78052e-05
-0.000560642
7.37887e-05
-0.000537757
6.29235e-05
5.21631e-05
-0.000507401
-4.10331e-06
3.06387e-05
-1.37974e-05
7.20341e-05
-2.7488e-05
0.00010168
-4.39681e-05
0.000122576
-6.23815e-05
0.000137405
-8.21118e-05
0.000147962
-0.000102725
0.000155599
-0.000123914
0.000161268
-0.000145466
0.000165638
-0.000167225
0.000169158
-0.000189074
0.000172123
-0.000210921
0.000174717
-0.000232686
0.000177046
-0.000254291
0.000179166
-0.000275661
0.000181098
-0.000296714
0.000182839
-0.000317363
0.000184373
-0.000337511
0.00018567
-0.000357051
0.000186694
-0.000375867
0.000187399
-0.000393828
0.000187732
-0.000410789
0.000187633
-0.000426594
0.000187029
-0.000441067
0.000185841
-0.000454019
0.000183975
-0.000465242
0.000181325
-0.00047451
0.00017777
-0.000481579
0.000173175
-0.000486185
0.000167389
-0.000488043
0.000160245
-0.000486849
0.000151567
-0.000482271
0.000141175
-0.000473945
0.000128898
-0.000461464
0.000114591
-0.000444356
9.81877e-05
-0.000422044
7.97408e-05
-0.000393824
5.95855e-05
-0.000358483
3.8447e-05
-0.000316464
2.09047e-05
5.38423e-07
-0.000264839
-3.96372e-06
3.46024e-05
-1.33501e-05
8.14205e-05
-2.66068e-05
0.000114937
-4.25482e-05
0.000138517
-6.03234e-05
0.00015518
-7.93129e-05
0.000166951
-9.90735e-05
0.00017536
-0.000119287
0.000181482
-0.000139723
0.000186074
-0.00016021
0.000189644
-0.000180612
0.000192525
-0.000200815
0.000194921
-0.000220718
0.000196949
-0.00024022
0.000198669
-0.00025922
0.000200097
-0.000277608
0.000201227
-0.000295268
0.000202033
-0.000312072
0.000202475
-0.000327882
0.000202503
-0.000342543
0.00020206
-0.000355888
0.000201077
-0.000367733
0.000199478
-0.000377878
0.000197174
-0.000386105
0.000194068
-0.00039218
0.000190049
-0.000395847
0.000184992
-0.000396835
0.000178758
-0.00039485
0.000171191
-0.000389584
0.000162122
-0.000380706
0.000151366
-0.000367867
0.000138728
-0.000350697
0.000124006
-0.000328801
0.000107001
-0.000301741
8.75312e-05
-0.000269032
6.54786e-05
-0.000230064
4.07729e-05
-0.000184235
1.3756e-05
-0.000130044
-1.5744e-05
-6.58148e-05
-4.33241e-05
-6.90993e-05
3.82289e-06
-3.80925e-06
3.84117e-05
-1.28532e-05
9.04644e-05
-2.56248e-05
0.000127709
-4.0962e-05
0.000153854
-5.80195e-05
0.000172238
-7.61742e-05
0.000185106
-9.49731e-05
0.000194159
-0.000114084
0.000200593
-0.00013326
0.000205249
-0.000152308
0.000208693
-0.000171074
0.000211291
-0.000189421
0.000213267
-0.000207221
0.000214749
-0.000224347
0.000215795
-0.000240671
0.000216421
-0.000256053
0.000216609
-0.000270344
0.000216324
-0.000283383
0.000215514
-0.000294994
0.000214114
-0.000304984
0.00021205
-0.000313145
0.000209238
-0.00031925
0.000205583
-0.000323054
0.000200978
-0.000324292
0.000195307
-0.000322681
0.000188438
-0.000317917
0.000180227
-0.000309674
0.000170515
-0.000297611
0.000159128
-0.000281367
0.000145877
-0.00026056
0.00013056
-0.000234795
0.000112963
-0.000203656
9.28668e-05
-0.000166711
7.00563e-05
-0.000123493
4.43136e-05
-7.35157e-05
1.55011e-05
-1.61387e-05
-1.66041e-05
4.92524e-05
-5.16351e-05
0.000123757
-9.02486e-05
0.000209145
-0.000128712
-0.000167257
0.000307302
-3.6417e-06
4.20534e-05
-1.23117e-05
9.91344e-05
-2.45512e-05
0.000139948
-3.92229e-05
0.000168526
-5.54873e-05
0.000188502
-7.27174e-05
0.000202336
-9.04496e-05
0.000211891
-0.000108336
0.00021848
-0.000126111
0.000223024
-0.000143562
0.000226144
-0.00016051
0.000228238
-0.000176792
0.00022955
-0.000192254
0.000230212
-0.000206742
0.000230283
-0.000220094
0.000229773
-0.000232139
0.000228654
-0.000242693
0.000226878
-0.000251557
0.000224378
-0.000258517
0.000221073
-0.000263338
0.000216871
-0.000265767
0.000211668
-0.000265533
0.000205349
-0.000262342
0.000197787
-0.00025588
0.000188845
-0.000245811
0.000178369
-0.000231779
0.000166195
-0.000213405
0.000152142
-0.000190294
0.000136016
-0.000162028
0.000117611
-0.000128174
9.67063e-05
-8.82851e-05
7.30739e-05
-4.18964e-05
4.64781e-05
1.14654e-05
1.66944e-05
7.23057e-05
-1.65267e-05
0.000141107
-5.33001e-05
0.000218543
-9.40401e-05
0.000304953
-0.000138045
0.000402147
-0.000187443
0.000509683
-0.000236248
-0.000291594
0.00063402
-3.46302e-06
4.55164e-05
-1.17313e-05
0.000107403
-2.33959e-05
0.000151613
-3.73453e-05
0.000182475
-5.27459e-05
0.000203903
-6.89665e-05
0.000218557
-8.55315e-05
0.000228456
-0.000102077
0.000235025
-0.000118317
0.000239264
-0.000134015
0.000241842
-0.000148967
0.00024319
-0.000162984
0.000243566
-0.000175881
0.000243109
-0.000187474
0.000241876
-0.000197566
0.000239865
-0.000205953
0.00023704
-0.000212411
0.000233337
-0.000216703
0.00022867
-0.000218571
0.000222941
-0.000217737
0.000216037
-0.000213903
0.000207833
-0.000206746
0.000198192
-0.000195924
0.000186965
-0.00018107
0.000173991
-0.000161795
0.000159094
-0.000137686
0.000142086
-0.000108311
0.000122767
-7.32169e-05
0.000100922
-3.1931e-05
7.63252e-05
1.60344e-05
4.87409e-05
7.11805e-05
1.79279e-05
0.000134022
-1.63632e-05
0.000205071
-5.43551e-05
0.000284879
-9.63348e-05
0.000373917
-0.000142338
0.000472925
-0.000193048
0.000582015
-0.000247135
0.00070309
-0.000308518
0.000834856
-0.000368014
-0.00044219
0.000985452
-3.27528e-06
4.87917e-05
-1.11178e-05
0.000115245
-2.21694e-05
0.000162664
-3.53445e-05
0.00019565
-4.98155e-05
0.000218374
-6.49463e-05
0.000233688
-8.02487e-05
0.000243758
-9.5341e-05
0.000250117
-0.000109915
0.000253838
-0.000123711
0.000255638
-0.000136496
0.000255975
-0.000148052
0.000255123
-0.000158164
0.000253221
-0.000166611
0.000250322
-0.000173162
0.000246417
-0.000177574
0.000241452
-0.000179585
0.000235347
-0.000178913
0.000227998
-0.000175255
0.000219284
-0.000168288
0.00020907
-0.000157663
0.000197208
-0.000143008
0.000183537
-0.000123926
0.000167883
-9.99961e-05
0.000150061
-7.07736e-05
0.000129871
-3.57902e-05
0.000107103
5.44383e-06
8.15331e-05
5.34384e-05
5.29274e-05
0.00010872
2.10432e-05
0.000171832
-1.43706e-05
0.000243323
-5.3563e-05
0.000323755
-9.67954e-05
0.000413676
-0.000144276
0.000513679
-0.000196338
0.000624205
-0.000252865
0.000746083
-0.000314925
0.000879168
-0.000380221
0.00102548
-0.000454831
0.00118284
-0.000525368
-0.000619567
0.00136021
-3.08061e-06
5.18723e-05
-1.04774e-05
0.000122642
-2.08825e-05
0.00017307
-3.32365e-05
0.000208004
-4.67171e-05
0.000231854
-6.06828e-05
0.000247653
-7.46319e-05
0.000257707
-8.81638e-05
0.000263649
-0.000100947
0.000266622
-0.000112695
0.000267386
-0.000123147
0.000266427
-0.000132051
0.000264027
-0.000139159
0.000260329
-0.000144214
0.000255377
-0.000146947
0.00024915
-0.000147072
0.000241578
-0.000144285
0.00023256
-0.000138258
0.000221971
-0.000128642
0.000209668
-0.000115061
0.00019549
-9.71163e-05
0.000179263
-7.43813e-05
0.000160802
-4.64042e-05
0.000139906
-1.27077e-05
0.000116365
2.721e-05
8.99536e-05
7.38743e-05
6.04385e-05
0.000127831
2.75767e-05
0.000189644
-8.88596e-06
0.000259893
-4.92054e-05
0.000339166
-9.36438e-05
0.000428056
-0.000142453
0.000527159
-0.000195899
0.000637041
-0.000254157
0.000758323
-0.000317619
0.000891393
-0.000385935
0.00103713
-0.000460664
0.00119518
-0.000538273
0.00136762
-0.000627265
0.00155142
-0.000709174
-0.000824048
0.0017559
-2.8812e-06
5.47535e-05
-9.8163e-06
0.000129577
-1.95465e-05
0.0001828
-3.10375e-05
0.000219495
-4.3472e-05
0.000244289
-5.62023e-05
0.000260384
-6.87123e-05
0.000270217
-8.05811e-05
0.000275518
-9.14528e-05
0.000277493
-0.000101012
0.000276946
-0.000108966
0.000274381
-0.000115031
0.000270092
-0.00011892
0.000264218
-0.000120338
0.000256795
-0.000118974
0.000247785
-0.000114498
0.000237102
-0.000106559
0.000224621
-9.47815e-05
0.000210194
-7.87644e-05
0.000193651
-5.80798e-05
0.000174805
-3.22727e-05
0.000153456
-8.60854e-07
0.00012939
3.6665e-05
0.00010238
8.08397e-05
7.21899e-05
0.000132222
3.85711e-05
0.000191395
1.26615e-06
0.000258954
-3.99829e-05
0.000335515
-8.54472e-05
0.0004217
-0.00013539
0.000518134
-0.000190077
0.000625431
-0.00024975
0.000744205
-0.000314673
0.000875009
-0.000384962
0.00101845
-0.000461062
0.00117485
-0.000542337
0.00134504
-0.000630848
0.00152852
-0.000721751
0.00172724
-0.000825985
0.00193756
-0.000919501
-0.00105517
0.00216869
-2.67926e-06
5.74327e-05
-9.14077e-06
0.000136039
-1.81725e-05
0.000191831
-2.87639e-05
0.000230087
-4.01017e-05
0.000255627
-5.1531e-05
0.000271813
-6.25204e-05
0.000281207
-7.26276e-05
0.000285625
-8.147e-05
0.000286336
-8.87024e-05
0.000284178
-9.39982e-05
0.000279677
-9.70363e-05
0.00027313
-9.74908e-05
0.000264673
-9.50239e-05
0.000254328
-8.928e-05
0.000242041
-7.98821e-05
0.000227704
-6.64286e-05
0.000211167
-4.84917e-05
0.000192257
-2.56156e-05
0.000170774
2.68407e-06
0.000146505
3.692e-05
0.00011922
7.76333e-05
8.86768e-05
0.000125392
5.4622e-05
0.000180788
1.67936e-05
0.000244437
-2.50779e-05
0.00031697
-7.12668e-05
0.000399034
-0.000122047
0.000491279
-0.000177692
0.000594355
-0.000238466
0.000708901
-0.000304623
0.00083553
-0.00037638
0.000974831
-0.000453973
0.00112731
-0.000537441
0.00129349
-0.000627243
0.00147361
-0.000722459
0.00166827
-0.000825509
0.00187694
-0.000930416
0.00210118
-0.00105023
0.00233702
-0.00115534
-0.00131119
0.00259304
-2.47696e-06
5.99097e-05
-8.45704e-06
0.000142019
-1.67715e-05
0.000200146
-2.64318e-05
0.000239747
-3.66271e-05
0.000265822
-4.66945e-05
0.00028188
-5.60861e-05
0.000290598
-6.43363e-05
0.000293875
-7.10346e-05
0.000293034
-7.58032e-05
0.000288946
-7.82792e-05
0.000282153
-7.81018e-05
0.000272953
-7.49025e-05
0.000261473
-6.82975e-05
0.000247723
-5.78825e-05
0.000231626
-4.3229e-05
0.00021305
-2.38814e-05
0.00019182
6.44681e-07
0.000167731
3.08633e-05
0.000140556
6.73186e-05
0.00011005
0.000110584
7.59552e-05
0.00016126
3.80009e-05
0.000219973
-4.09112e-06
0.00028737
-5.06043e-05
0.000364118
-0.000101825
0.000450889
-0.000158038
0.000548362
-0.00021952
0.000657207
-0.000286537
0.000778074
-0.000359333
0.000911582
-0.000438131
0.0010583
-0.000523097
0.00121873
-0.000614408
0.0013933
-0.000712007
0.00158233
-0.000816271
0.00178597
-0.000926098
0.00200439
-0.00104393
0.00223707
-0.0011631
0.00248493
-0.00129809
0.00274398
-0.00141439
-0.00158871
0.0030215
-2.27643e-06
6.21861e-05
-7.77116e-06
0.000147514
-1.53544e-05
0.000207729
-2.40567e-05
0.000248449
-3.30684e-05
0.000274834
-4.17172e-05
0.000290529
-4.94369e-05
0.000298318
-5.57374e-05
0.000300176
-6.0178e-05
0.000297475
-6.23457e-05
0.000291114
-6.18386e-05
0.000281646
-5.82527e-05
0.000269367
-5.11729e-05
0.000254393
-4.01655e-05
0.000236716
-2.47733e-05
0.000216234
-4.51163e-06
0.000192789
2.11335e-05
0.000166175
5.27071e-05
0.000136157
9.07852e-05
0.000102478
0.000135974
6.4861e-05
0.00018891
2.302e-05
0.000250251
-2.33405e-05
0.00032068
-7.452e-05
0.000400892
-0.000130817
0.000491591
-0.000192524
0.000593477
-0.000259924
0.000707236
-0.000333278
0.000833523
-0.000412824
0.000972952
-0.000498762
0.00112607
-0.000591248
0.00129334
-0.00069037
0.00147512
-0.000796185
0.00167166
-0.000908546
0.00188298
-0.00102759
0.0021091
-0.00115222
0.00234959
-0.00128442
0.00260398
-0.00141749
0.0028722
-0.00156631
0.00315072
-0.00169291
-0.00188262
0.00344463
-2.07969e-06
6.42658e-05
-7.08886e-06
0.000152523
-1.39313e-05
0.000214572
-2.16534e-05
0.000256171
-2.94445e-05
0.000282625
-3.66213e-05
0.000297706
-4.25978e-05
0.000304294
-4.68574e-05
0.000304436
-4.89264e-05
0.000299544
-4.83539e-05
0.000290542
-4.46953e-05
0.000277987
-3.74998e-05
0.000262171
-2.63014e-05
0.000243195
-1.06117e-05
0.000221026
1.00845e-05
0.000195538
3.63324e-05
0.000166541
6.87093e-05
0.000133798
0.000107825
9.70418e-05
0.00015432
5.59827e-05
0.000208864
1.03165e-05
0.000272154
-4.02695e-05
0.000344904
-9.60905e-05
0.000427842
-0.000157458
0.000521698
-0.000224673
0.000627194
-0.00029802
0.000745027
-0.000377757
0.000875853
-0.000464105
0.00102027
-0.000557242
0.00117879
-0.000657285
0.00135183
-0.000764285
0.00153967
-0.000878212
0.00174242
-0.000998929
0.00196008
-0.00112621
0.00219227
-0.00125978
0.00243877
-0.00139873
0.00269849
-0.00154414
0.00297093
-0.00168993
0.00325486
-0.00185023
0.0035477
-0.00198576
-0.00218623
0.00385131
-1.88863e-06
6.61545e-05
-6.4155e-06
0.00015705
-1.25117e-05
0.000220668
-1.92352e-05
0.000262895
-2.57725e-05
0.000289162
-3.14267e-05
0.00030336
-3.55903e-05
0.000308458
-3.77174e-05
0.000306563
-3.72988e-05
0.000299125
-3.3842e-05
0.000287085
-2.68559e-05
0.000271001
-1.5838e-05
0.000251153
-2.66567e-07
0.000227624
2.04067e-05
0.000200353
4.67599e-05
0.000169185
7.94044e-05
0.000133896
0.000118985
9.42177e-05
0.000166178
4.98487e-05
0.000221691
4.69534e-07
0.000286256
-5.42486e-05
0.000360624
-0.000114637
0.000445555
-0.000181021
0.000541806
-0.000253709
0.000650118
-0.000332986
0.000771198
-0.0004191
0.000905698
-0.000512257
0.00105419
-0.0006126
0.00121716
-0.000720204
0.00139493
-0.000835061
0.0015877
-0.000957055
0.00179549
-0.001086
0.00201805
-0.00122149
0.00225505
-0.00136322
0.00250562
-0.00151034
0.00276922
-0.00166232
0.00304407
-0.00181899
0.00332958
-0.00197544
0.00362327
-0.00214393
0.00392398
-0.00228647
-0.00249189
0.00422965
-1.70497e-06
6.78594e-05
-5.75588e-06
0.0001611
-1.11038e-05
0.000226016
-1.68142e-05
0.000268605
-2.20669e-05
0.000294415
-2.61498e-05
0.000307443
-2.84311e-05
0.000310739
-2.83326e-05
0.000306464
-2.5306e-05
0.000296098
-1.88134e-05
0.000280592
-8.3121e-06
0.0002605
6.75685e-06
0.000236084
2.69768e-05
0.000207404
5.29613e-05
0.000174368
8.53572e-05
0.000136789
0.000124846
9.44074e-05
0.000172143
4.69206e-05
0.000227994
-6.00252e-06
0.000293171
-6.47067e-05
0.00036846
-0.000129538
0.000454656
-0.000200834
0.000552546
-0.000278911
0.000662889
-0.000364052
0.000786399
-0.000456496
0.000923721
-0.000556422
0.0010754
-0.000663938
0.00124187
-0.000779063
0.00142338
-0.000901716
0.00162002
-0.00103171
0.00183167
-0.0011687
0.00205796
-0.0013123
0.00229824
-0.00146176
0.00255173
-0.00161671
0.00281705
-0.00177567
0.00309323
-0.0019385
0.00337793
-0.00210369
0.00367041
-0.00226793
0.00396706
-0.00244057
0.00426834
-0.00258775
-0.00279174
0.00456819
-1.53024e-06
6.93897e-05
-5.11421e-06
0.000164684
-9.71507e-06
0.000230617
-1.44001e-05
0.00027329
-1.83398e-05
0.000298354
-2.08033e-05
0.000309906
-2.11314e-05
0.000311067
-1.87104e-05
0.000304043
-1.29487e-05
0.000290337
-3.258e-06
0.000270902
1.09612e-05
0.00024628
3.03304e-05
0.000216715
5.55004e-05
0.000182234
8.71559e-05
0.000142713
0.000126017
9.79275e-05
0.00017284
4.75845e-05
0.000228412
-8.65097e-06
0.000293544
-7.11351e-05
0.000369066
-0.000140228
0.000455806
-0.000216279
0.000554583
-0.00029961
0.000666176
-0.000390504
0.000791308
-0.000489184
0.000930613
-0.000595801
0.00108461
-0.000710418
0.00125366
-0.000832991
0.00143795
-0.000963357
0.00163746
-0.00110122
0.00185189
-0.00124614
0.00208072
-0.00139752
0.00232314
-0.00155471
0.002578
-0.00171662
0.00284402
-0.00188273
0.00311938
-0.00205103
0.0034026
-0.00222171
0.00369099
-0.00239208
0.00398365
-0.00256059
0.0042762
-0.00273312
0.00457066
-0.00288221
-0.00307851
0.00485744
-1.3657e-06
7.07554e-05
-4.49393e-06
0.000167813
-8.35113e-06
0.000234474
-1.20007e-05
0.00027694
-1.45995e-05
0.000300953
-1.53948e-05
0.000310702
-1.3696e-05
0.000309369
-8.84976e-06
0.000299197
-2.16185e-07
0.000281703
1.28491e-05
0.000257836
3.10083e-05
0.000228121
5.49518e-05
0.000192772
8.54041e-05
0.000151781
0.000123127
0.00010499
0.000168917
5.21368e-05
0.000223607
-7.1053e-06
0.000288053
-7.30966e-05
0.000363125
-0.000146208
0.000449695
-0.000226798
0.000548612
-0.000315196
0.000660681
-0.000411679
0.000786633
-0.000516456
0.000927095
-0.000629646
0.00108255
-0.000751258
0.00125331
-0.000881178
0.00143947
-0.00101915
0.00164088
-0.00116476
0.0018571
-0.00131744
0.00208743
-0.00147647
0.00233082
-0.00164092
0.00258599
-0.00180988
0.00285128
-0.00198192
0.00312492
-0.00215637
0.00340475
-0.00233085
0.00368882
-0.00250579
0.00397439
-0.00267764
0.00426041
-0.00284661
0.00454228
-0.00301499
0.00482331
-0.00316325
-0.00334707
0.00509187
-1.21238e-06
7.19677e-05
-3.89764e-06
0.000170498
-7.01618e-06
0.000237592
-9.62094e-06
0.000279545
-1.08508e-05
0.000302183
-9.92651e-06
0.000309777
-6.12222e-06
0.000305564
1.26061e-06
0.000291814
1.29157e-05
0.000270048
2.95495e-05
0.000241203
5.1894e-05
0.000205777
8.07151e-05
0.000163951
0.000116817
0.00011568
0.000161042
6.07653e-05
0.000214268
-1.08886e-06
0.000277398
-7.02358e-05
0.000351352
-0.00014705
0.000437043
-0.000231899
0.00053536
-0.000325115
0.000647135
-0.000426971
0.000773116
-0.000537659
0.00091392
-0.000657261
0.00107001
-0.000785731
0.00124162
-0.000922874
0.00142877
-0.00106833
0.00163119
-0.00122156
0.00184828
-0.00138185
0.00207915
-0.00154831
0.00232257
-0.00171989
0.002577
-0.00189535
0.00284062
-0.0020735
0.00311138
-0.00225268
0.00338708
-0.00243206
0.00366536
-0.00260913
0.00394404
-0.00278447
0.00422053
-0.00295413
0.00449382
-0.0031199
0.00475966
-0.00328082
0.00502216
-0.00342574
-0.00359395
0.00526903
-1.07096e-06
7.30387e-05
-3.327e-06
0.000172754
-5.71251e-06
0.000239978
-7.26286e-06
0.000281095
-7.09369e-06
0.000302014
-4.3946e-06
0.000307078
1.60118e-06
0.000299569
1.16429e-05
0.000281772
2.64848e-05
0.000255206
4.69026e-05
0.000220785
7.3705e-05
0.000178974
0.00010774
0.000129916
0.000149896
7.35232e-05
0.0002011
9.56141e-06
0.000262307
-6.22953e-05
0.000334485
-0.000142414
0.0004186
-0.000231165
0.000515583
-0.000328882
0.000626302
-0.000435834
0.000751524
-0.000552193
0.000891869
-0.000678004
0.00104777
-0.00081316
0.00121942
-0.00095738
0.00140673
-0.00111019
0.00160932
-0.00127092
0.00182644
-0.00143869
0.00205702
-0.00161243
0.00229962
-0.00179091
0.00255249
-0.00197276
0.00281361
-0.00215647
0.00308073
-0.00234063
0.00335151
-0.00252345
0.0036235
-0.00270405
0.00389437
-0.00288
0.00416196
-0.00305206
0.0044241
-0.00321627
0.00467996
-0.00337576
0.00492616
-0.00352703
0.00516708
-0.00366666
-0.00381825
0.00539139
-9.41817e-07
7.39805e-05
-2.78265e-06
0.000174595
-4.44042e-06
0.000241636
-4.92523e-06
0.00028158
-3.32367e-06
0.000300412
1.21167e-06
0.000302543
9.49445e-06
0.000291286
2.23315e-05
0.000268935
4.05449e-05
0.000236993
6.4987e-05
0.000196343
9.65505e-05
0.000147411
0.000136171
9.02948e-05
0.000184826
2.48683e-05
0.000243524
-4.91363e-05
0.00031329
-0.000132061
0.000395143
-0.000224268
0.000490067
-0.000326089
0.000598974
-0.000437788
0.000722658
-0.000559518
0.000861749
-0.000691284
0.00101666
-0.000832917
0.00118755
-0.000984044
0.00137424
-0.00114407
0.00157623
-0.00131218
0.00179263
-0.00148732
0.00202217
-0.00166823
0.00226324
-0.0018535
0.00251388
-0.00204155
0.00277186
-0.00223075
0.00303479
-0.0024194
0.00330015
-0.00260599
0.00356548
-0.00278878
0.00382836
-0.00296693
0.00408671
-0.00313836
0.00433865
-0.00330401
0.00458266
-0.00346028
0.00481826
-0.00361135
0.0050432
-0.00375197
0.00526177
-0.00388523
-0.00402092
0.00546443
-8.24984e-07
7.48055e-05
-2.2641e-06
0.000176034
-3.19801e-06
0.00024257
-2.60324e-06
0.000280985
4.6919e-07
0.00029734
6.91028e-06
0.000296102
1.75877e-05
0.000280608
3.33735e-05
0.000253149
5.51652e-05
0.000215201
8.39002e-05
0.000167608
0.000120562
0.000110749
0.000166177
4.4679e-05
0.000221812
-3.07666e-05
0.000288551
-0.000115875
0.000367475
-0.000210985
0.000459628
-0.00031642
0.000565972
-0.000432434
0.000687344
-0.00055916
0.000824396
-0.000696569
0.000977537
-0.000844426
0.00114688
-0.00100226
0.0013322
-0.00116936
0.00153286
-0.00134474
0.00174785
-0.00152717
0.00197573
-0.00171519
0.00221468
-0.00190718
0.00246256
-0.00210138
0.00271696
-0.00229595
0.00297531
-0.0024891
0.00323501
-0.0026791
0.0034935
-0.00286447
0.00374843
-0.00304371
0.00399769
-0.00321619
0.00423965
-0.00338032
0.00447296
-0.00353732
0.00469685
-0.00368417
0.0049113
-0.0038258
0.00511524
-0.00395591
0.0053126
-0.00408259
-0.00420441
0.0054961
-7.20113e-07
7.55256e-05
-1.7697e-06
0.000177083
-1.9811e-06
0.000242781
-2.87279e-07
0.000279291
4.30029e-06
0.000292752
1.2727e-05
0.000287675
2.59214e-05
0.000267414
4.4829e-05
0.000234242
7.04316e-05
0.000189598
0.000103759
0.000134281
0.000145889
6.86189e-05
0.000197945
-7.37666e-06
0.000261074
-9.38954e-05
0.000336424
-0.000191225
0.000425106
-0.000299667
0.000528148
-0.000419462
0.00064644
-0.000550726
0.000780671
-0.000693391
0.000931263
-0.000847161
0.00109831
-0.00101147
0.00128152
-0.00118548
0.00148019
-0.00136802
0.00169314
-0.00155769
0.0019188
-0.00175282
0.00215516
-0.00195155
0.00239988
-0.00215191
0.00265039
-0.00235189
0.00290398
-0.00254953
0.00315792
-0.00274305
0.00340964
-0.00293082
0.00365678
-0.0031116
0.00389736
-0.00328429
0.00412978
-0.00344861
0.00435303
-0.00360357
0.00456645
-0.00375074
0.00476999
-0.00388771
0.00496413
-0.00401994
0.00514881
-0.00414059
0.00532747
-0.00426125
-0.00437194
0.005495
-6.26477e-07
7.61521e-05
-1.29655e-06
0.000177754
-7.83257e-07
0.000242268
2.03167e-06
0.000276476
8.19074e-06
0.000286593
1.86957e-05
0.00027717
3.45467e-05
0.000251563
5.67717e-05
0.000212017
8.64454e-05
0.000159925
0.000124696
9.60301e-05
0.000172701
2.06135e-05
0.000231674
-6.63494e-05
0.000302834
-0.000165055
0.000387368
-0.000275759
0.000486381
-0.00039868
0.000600832
-0.000533913
0.000731463
-0.000681358
0.000878731
-0.000840659
0.00104273
-0.00101116
0.00122313
-0.00119187
0.00141914
-0.00138149
0.0016295
-0.00157838
0.00185245
-0.00178064
0.00208582
-0.00198619
0.0023271
-0.00219284
0.00257355
-0.00239836
0.00282232
-0.00260065
0.00307059
-0.00279781
0.00331574
-0.00298819
0.00355544
-0.00317052
0.00378778
-0.00334394
0.00401135
-0.00350787
0.00422521
-0.00366247
0.00442906
-0.00380743
0.00462288
-0.00394455
0.00480732
-0.00407215
0.00498324
-0.00419586
0.00515131
-0.00430866
0.00531444
-0.00442439
-0.00452682
0.00546933
-5.42957e-07
7.6695e-05
-8.4049e-07
0.000178051
4.04632e-07
0.000241023
4.37332e-06
0.000272507
1.21677e-05
0.000278799
2.48581e-05
0.00026448
4.35248e-05
0.000232896
6.92878e-05
0.000186254
0.000103322
0.00012589
0.00014686
5.24923e-05
0.000201178
-3.37041e-05
0.000267569
-0.000132741
0.000347306
-0.000244792
0.000441579
-0.000370033
0.000551434
-0.000508535
0.000677689
-0.000660168
0.000820854
-0.000824523
0.00098105
-0.00100085
0.00115794
-0.00118805
0.00135067
-0.00138461
0.00155788
-0.0015887
0.00177769
-0.00179818
0.00200776
-0.00201071
0.00224541
-0.00222385
0.00248773
-0.00243516
0.00273174
-0.00264237
0.00297453
-0.00284344
0.00321344
-0.00303671
0.00344615
-0.0032209
0.00367084
-0.00339521
0.00388621
-0.00355931
0.00409154
-0.0037132
0.00428659
-0.00385751
0.00447172
-0.00399256
0.00464749
-0.00412032
0.00481506
-0.00423972
0.00497552
-0.00435632
0.00512998
-0.00446312
0.00528082
-0.00457522
-0.00467202
0.00542602
-4.6803e-07
7.71631e-05
-3.95657e-07
0.000177979
1.59402e-06
0.000239033
6.75701e-06
0.000267345
1.6264e-05
0.000269292
3.1264e-05
0.00024948
5.29274e-05
0.000211233
8.24752e-05
0.000156706
0.00012119
8.71756e-05
0.000170409
3.27302e-06
0.000231502
-9.47968e-05
0.000305827
-0.000207066
0.000394675
-0.000333639
0.000499192
-0.00047455
0.000620295
-0.000629638
0.000758575
-0.000798448
0.000914207
-0.000980156
0.00108687
-0.00117352
0.0012757
-0.00137687
0.00147923
-0.00158815
0.00169549
-0.00180496
0.00192199
-0.00202468
0.00215588
-0.0022446
0.00239409
-0.00246206
0.0026335
-0.00267457
0.0028711
-0.00287997
0.00310417
-0.00307652
0.00333042