/*--------------------------------*- C++ -*----------------------------------*\
  =========                 |
  \\      /  F ield         | OpenFOAM: The Open Source CFD Toolbox
   \\    /   O peration     | Website:  https://openfoam.org
    \\  /    A nd           | Version:  7
     \\/     M anipulation  |
\*---------------------------------------------------------------------------*/
FoamFile
{
    version     2.0;
    format      ascii;
    class       volVectorField;
    location    "20";
    object      U;
}
// * * * * * * * * * * * * * * * * * * * * * * * * * * * * * * * * * * * * * //

dimensions      [0 1 -1 0 0 0 0];

internalField   nonuniform List<vector> 
48400
(
(-0.00122055 0.000645905 2.76685e-21)
(-0.0079123 0.00143686 5.78154e-21)
(-0.0193499 0.0019091 1.21976e-22)
(-0.0318886 0.00217456 4.8095e-21)
(-0.0451694 0.00230093 -1.34958e-22)
(-0.0582858 0.002339 -4.29075e-22)
(-0.0709689 0.00232189 -3.9288e-21)
(-0.0830148 0.00227252 -3.77882e-22)
(-0.0943617 0.00220577 9.69127e-22)
(-0.105001 0.00213117 -2.52065e-21)
(-0.11496 0.0020545 9.98595e-22)
(-0.124283 0.00197911 -1.42597e-21)
(-0.133019 0.00190675 -2.34646e-21)
(-0.141218 0.0018382 -4.40458e-21)
(-0.148928 0.00177366 3.59177e-21)
(-0.156191 0.00171299 3.48347e-21)
(-0.163045 0.00165585 1.66013e-21)
(-0.169525 0.0016018 1.33756e-21)
(-0.175658 0.00155035 -2.62703e-21)
(-0.181471 0.00150096 7.10978e-22)
(-0.186984 0.00145301 -2.57307e-21)
(-0.192213 0.00140587 2.05874e-21)
(-0.197173 0.00135878 2.24827e-21)
(-0.201872 0.00131091 -6.04827e-23)
(-0.206317 0.0012613 1.47384e-22)
(-0.210508 0.00120884 8.25289e-22)
(-0.214444 0.00115229 8.54817e-22)
(-0.218116 0.00109024 -1.89925e-21)
(-0.221513 0.0010212 -1.1123e-22)
(-0.224618 0.000943672 -2.68936e-21)
(-0.227411 0.000856361 -4.42646e-21)
(-0.229867 0.000758523 2.93929e-21)
(-0.231963 0.000650506 1.3559e-21)
(-0.233677 0.000534563 1.01916e-21)
(-0.234998 0.000415875 1.30397e-21)
(-0.235936 0.000303815 1.54657e-21)
(-0.23654 0.000213375 9.79746e-22)
(-0.236898 0.00016251 -9.57176e-22)
(-0.237112 0.000166683 1.04071e-21)
(-0.237493 0.000266878 -5.8849e-22)
(-0.00126514 0.00193411 -1.11392e-20)
(-0.00799083 0.00430388 -1.14302e-20)
(-0.0194196 0.00571944 3.4875e-21)
(-0.0319287 0.0065153 -6.26935e-21)
(-0.0451636 0.00689431 -3.7044e-21)
(-0.0582236 0.0070085 -1.38034e-21)
(-0.0708421 0.00695721 9.15675e-21)
(-0.0828165 0.00680909 -5.43173e-21)
(-0.0940854 0.00660875 -4.62546e-21)
(-0.10464 0.00638476 2.94077e-21)
(-0.114509 0.00615448 6.69498e-21)
(-0.123734 0.00592794 1.25382e-20)
(-0.132365 0.00571042 1.02528e-21)
(-0.140451 0.00550423 1.24826e-20)
(-0.148039 0.00530998 5.82533e-21)
(-0.155171 0.00512722 9.50095e-22)
(-0.161885 0.00495495 6.68764e-21)
(-0.168213 0.00479187 -4.25981e-21)
(-0.174184 0.00463649 7.97672e-21)
(-0.179822 0.00448715 5.33734e-21)
(-0.185147 0.00434207 3.8289e-21)
(-0.190175 0.00419928 1.42789e-21)
(-0.194919 0.0040566 -2.80966e-21)
(-0.199387 0.00391152 6.25378e-21)
(-0.203584 0.00376119 3.36414e-21)
(-0.207511 0.00360236 -4.51204e-21)
(-0.211165 0.0034313 -1.74368e-21)
(-0.214538 0.00324389 8.15527e-21)
(-0.217618 0.00303569 -7.58537e-22)
(-0.220388 0.00280224 7.13569e-21)
(-0.222827 0.00253964 5.25632e-21)
(-0.224912 0.00224553 -5.92134e-21)
(-0.226617 0.00192063 -1.53554e-21)
(-0.227918 0.00157114 5.80788e-22)
(-0.228802 0.00121175 -1.71773e-21)
(-0.22927 0.000869536 -3.60113e-21)
(-0.229363 0.000588617 2.07134e-21)
(-0.229161 0.000424385 2.21106e-21)
(-0.228737 0.000424805 -6.92167e-22)
(-0.228383 0.000707137 5.59117e-21)
(-0.00135385 0.00321073 2.25926e-20)
(-0.00814722 0.00714841 2.02323e-20)
(-0.0195587 0.00950246 -9.97554e-21)
(-0.0320084 0.0108267 2.04795e-20)
(-0.045152 0.0114578 1.37537e-21)
(-0.0580996 0.0116483 -3.80255e-21)
(-0.0705891 0.0115631 -1.27679e-20)
(-0.0824205 0.0113164 -8.80488e-22)
(-0.0935338 0.0109825 8.5283e-21)
(-0.10392 0.010609 -1.25665e-21)
(-0.113608 0.0102247 -1.34175e-20)
(-0.122637 0.00984636 -4.41958e-21)
(-0.131059 0.00948281 -4.13936e-21)
(-0.138919 0.00913794 -1.79533e-20)
(-0.146264 0.0088127 -1.98098e-20)
(-0.153135 0.00850639 -1.35864e-20)
(-0.159568 0.00821734 -6.60722e-21)
(-0.165594 0.00794336 -2.13687e-20)
(-0.171241 0.00768195 -6.94219e-21)
(-0.17653 0.00743039 -1.6624e-20)
(-0.181481 0.00718571 -6.3599e-21)
(-0.186108 0.00694466 2.22162e-21)
(-0.190421 0.00670361 -1.06879e-20)
(-0.194429 0.00645848 3.45284e-21)
(-0.198134 0.00620462 -6.48927e-21)
(-0.201536 0.00593671 3.11172e-21)
(-0.20463 0.00564873 3.16846e-21)
(-0.207409 0.00533395 -5.4826e-21)
(-0.20986 0.00498515 9.13493e-21)
(-0.211965 0.004595 -1.37676e-20)
(-0.213703 0.00415694 1.03968e-21)
(-0.215051 0.00366657 -3.45447e-22)
(-0.215981 0.00312413 3.20969e-21)
(-0.216467 0.00253811 -4.1872e-21)
(-0.216489 0.00193033 -3.32932e-22)
(-0.216036 0.00134223 -3.06092e-21)
(-0.21513 0.000844064 -3.94061e-21)
(-0.21384 0.000532178 -1.06072e-22)
(-0.212184 0.00049294 5.38124e-22)
(-0.210376 0.000899459 -9.87798e-21)
(-0.0014858 0.0044686 -2.36705e-20)
(-0.00838017 0.00995605 -7.30451e-22)
(-0.019766 0.0132404 2.05986e-20)
(-0.0321275 0.0150896 -8.54406e-21)
(-0.0451347 0.0159719 -1.36014e-21)
(-0.0579142 0.0162386 1.52209e-20)
(-0.0702106 0.0161199 1.58969e-20)
(-0.0818281 0.0157751 -2.89694e-21)
(-0.0927083 0.0153077 -9.57336e-21)
(-0.102843 0.0147843 -8.07714e-21)
(-0.112258 0.0142453 1.69815e-21)
(-0.120996 0.0137142 -1.71764e-20)
(-0.129103 0.0132032 3.09716e-20)
(-0.136626 0.0127179 2.03004e-20)
(-0.143608 0.0122597 -4.93467e-21)
(-0.150088 0.0118274 -7.33605e-21)
(-0.156101 0.0114188 -1.49016e-20)
(-0.161677 0.0110309 2.69465e-20)
(-0.166839 0.0106601 5.34037e-22)
(-0.171608 0.0103026 2.26403e-20)
(-0.176001 0.00995435 1.61508e-20)
(-0.180029 0.00961074 -9.0682e-21)
(-0.183702 0.00926684 1.70843e-20)
(-0.187025 0.00891706 -4.87337e-21)
(-0.189998 0.00855507 8.59553e-21)
(-0.19262 0.00817368 1.31329e-21)
(-0.194885 0.00776477 4.03236e-21)
(-0.196782 0.0073193 -1.0541e-20)
(-0.198299 0.00682749 -7.02636e-21)
(-0.199418 0.00627935 7.72772e-21)
(-0.200119 0.0056656 7.14825e-21)
(-0.200375 0.00497944 -1.25007e-20)
(-0.200162 0.00421942 9.78594e-21)
(-0.199448 0.00339405 2.77378e-21)
(-0.198207 0.00252856 4.1925e-21)
(-0.196412 0.00167339 1.56219e-20)
(-0.194062 0.000918744 -3.99058e-21)
(-0.19121 0.000404363 -3.33598e-21)
(-0.187815 0.00026904 -7.90412e-21)
(-0.183867 0.000696561 8.74648e-22)
(-0.0016597 0.0057007 1.04987e-20)
(-0.00868781 0.0127127 -3.03407e-20)
(-0.0200402 0.0169158 -1.60091e-20)
(-0.0322852 0.019285 -1.11625e-20)
(-0.0451116 0.020417 4.88541e-21)
(-0.0576681 0.02076 2.192e-20)
(-0.069708 0.0206084 -2.28859e-20)
(-0.0810411 0.0201657 5.45713e-21)
(-0.0916112 0.019565 9.97022e-21)
(-0.101411 0.0188913 -7.29966e-21)
(-0.110465 0.0181968 9.03472e-21)
(-0.118814 0.0175114 8.25629e-21)
(-0.126503 0.0168512 -2.12289e-20)
(-0.133577 0.0162231 -1.62631e-20)
(-0.140076 0.015629 -6.67903e-22)
(-0.146038 0.0150675 1.7153e-20)
(-0.151494 0.0145358 1.14967e-20)
(-0.156471 0.0140298 -5.03331e-21)
(-0.160991 0.0135451 -1.27927e-20)
(-0.165072 0.0130767 8.33015e-21)
(-0.168727 0.0126194 -4.36306e-21)
(-0.171965 0.0121675 -3.43398e-21)
(-0.174793 0.0117147 8.89388e-21)
(-0.177212 0.0112541 7.83656e-22)
(-0.179221 0.0107778 3.59342e-21)
(-0.180816 0.010277 -6.1624e-21)
(-0.181989 0.00974168 -1.65206e-20)
(-0.182729 0.0091609 -7.29059e-21)
(-0.18302 0.0085227 -7.01205e-22)
(-0.182846 0.00781469 3.91792e-21)
(-0.182186 0.00702508 -1.5785e-20)
(-0.181015 0.00614437 9.8746e-21)
(-0.179306 0.00516841 -3.05862e-21)
(-0.17703 0.00410331 1.0165e-20)
(-0.174151 0.00297343 -1.65161e-20)
(-0.170633 0.0018313 7.11448e-21)
(-0.166444 0.000777028 -1.37771e-20)
(-0.161621 -1.02499e-05 8.78968e-22)
(-0.156104 -0.000310824 8.43948e-21)
(-0.149368 -2.00361e-05 3.25985e-21)
(-0.00187389 0.00690033 -1.03519e-22)
(-0.00906768 0.0154047 1.22798e-20)
(-0.0203795 0.0205116 1.30817e-20)
(-0.0324805 0.0233943 -8.1018e-21)
(-0.0450828 0.024774 -1.57377e-20)
(-0.0573622 0.0251932 -4.86512e-20)
(-0.0690828 0.0250092 -7.61746e-21)
(-0.0800618 0.0244692 -1.01241e-21)
(-0.0902456 0.0237352 -4.89717e-21)
(-0.099627 0.0229108 3.55337e-20)
(-0.108231 0.0220595 7.60552e-21)
(-0.116096 0.0212182 -4.64692e-21)
(-0.123265 0.0204063 -2.24455e-20)
(-0.129779 0.0196325 4.39033e-21)
(-0.135678 0.0188991 -1.42295e-20)
(-0.140995 0.0182046 5.26452e-22)
(-0.145758 0.0175452 -1.59748e-20)
(-0.149992 0.0169161 -5.1925e-21)
(-0.153716 0.0163119 1.55572e-21)
(-0.156943 0.0157266 -3.80175e-20)
(-0.159684 0.0151537 -2.01587e-20)
(-0.161944 0.0145866 1.70879e-20)
(-0.163728 0.0140176 -2.41948e-20)
(-0.165032 0.0134387 -4.7792e-21)
(-0.165854 0.0128405 -3.09466e-20)
(-0.166186 0.012213 -8.78957e-21)
(-0.166017 0.0115446 3.03133e-20)
(-0.165335 0.0108227 3.00925e-20)
(-0.164123 0.0100338 9.24176e-22)
(-0.162365 0.00916345 1.52607e-21)
(-0.160038 0.00819774 -7.98059e-21)
(-0.157121 0.00712458 -2.01389e-20)
(-0.153586 0.00593657 5.19923e-21)
(-0.149405 0.00463564 -3.11282e-20)
(-0.144542 0.00324135 1.63491e-20)
(-0.138953 0.00180093 2.2225e-21)
(-0.13258 0.000411993 -7.62306e-21)
(-0.125429 -0.000725735 -2.16753e-20)
(-0.117556 -0.00126645 1.31578e-20)
(-0.107438 -0.00134266 1.75751e-20)
(-0.00212638 0.00806117 2.02537e-20)
(-0.00951677 0.0180192 7.85958e-21)
(-0.0207817 0.0240116 -1.1531e-20)
(-0.0327122 0.0273995 2.28504e-20)
(-0.0450482 0.029024 1.19993e-20)
(-0.0569974 0.0295192 -9.88223e-21)
(-0.0683371 0.0293032 4.78161e-20)
(-0.0788928 0.0286665 2.55787e-20)
(-0.0886146 0.0277991 1.01335e-21)
(-0.0974963 0.0268234 -2.1038e-20)
(-0.105562 0.0258141 -1.36563e-20)
(-0.112848 0.0248148 1.26776e-20)
(-0.119394 0.0238486 -2.09469e-20)
(-0.125241 0.0229258 2.9658e-20)
(-0.130422 0.0220492 -1.39793e-20)
(-0.134968 0.0212169 2.02141e-20)
(-0.138906 0.0204247 2.30508e-20)
(-0.142255 0.0196668 3.0267e-20)
(-0.14503 0.0189368 2.50999e-20)
(-0.147242 0.0182277 3.43535e-20)
(-0.148898 0.017532 2.93058e-20)
(-0.149999 0.0168417 7.68304e-21)
(-0.150546 0.0161484 6.81651e-21)
(-0.150532 0.0154426 -1.76075e-20)
(-0.149952 0.0147142 1.00167e-20)
(-0.148793 0.0139517 1.56824e-20)
(-0.147045 0.0131425 -2.6813e-21)
(-0.144691 0.0122729 -2.63963e-20)
(-0.141714 0.011328 -3.07006e-21)
(-0.138096 0.0102923 1.19883e-20)
(-0.133816 0.00915001 3.10198e-21)
(-0.128853 0.00788709 4.03793e-21)
(-0.123182 0.00649306 1.39652e-20)
(-0.116777 0.00496492 1.01963e-20)
(-0.109606 0.00331511 -1.10652e-20)
(-0.101625 0.00157954 8.77592e-21)
(-0.0927612 -0.000156131 1.25399e-20)
(-0.0829474 -0.00171538 7.4319e-21)
(-0.0726416 -0.00260225 -4.20999e-20)
(-0.0586098 -0.00331238 -1.74889e-20)
(-0.00241484 0.00917737 1.70793e-20)
(-0.0100316 0.0205438 -4.63955e-21)
(-0.0212439 0.0274 3.9092e-20)
(-0.0329788 0.0312831 -4.46682e-20)
(-0.0450076 0.0331489 1.86208e-20)
(-0.0565747 0.0337191 1.90995e-20)
(-0.0674726 0.0334716 7.77705e-21)
(-0.077537 0.0327386 -4.7562e-20)
(-0.086722 0.031738 1.66562e-20)
(-0.0950227 0.0306103 -2.02407e-20)
(-0.102462 0.0294416 1.66982e-20)
(-0.109075 0.0282821 1.15936e-20)
(-0.114898 0.0271586 2.70046e-20)
(-0.119968 0.0260831 -4.89109e-20)
(-0.124316 0.0250589 2.32972e-20)
(-0.12797 0.0240839 -3.61935e-20)
(-0.13095 0.0231532 -2.64809e-20)
(-0.133274 0.0222603 -4.08374e-20)
(-0.134952 0.0213977 -2.34904e-20)
(-0.135991 0.0205574 -1.30222e-20)
(-0.136395 0.0197309 1.07773e-20)
(-0.13616 0.0189092 -1.14423e-20)
(-0.135283 0.0180828 -3.50653e-21)
(-0.133755 0.0172414 -1.54293e-20)
(-0.131566 0.0163737 5.28279e-21)
(-0.128701 0.0154675 -3.6235e-21)
(-0.125146 0.0145094 -1.26665e-20)
(-0.120883 0.0134849 1.72847e-20)
(-0.115893 0.0123785 5.22954e-20)
(-0.110157 0.0111737 -9.74813e-21)
(-0.103654 0.00985418 2.69219e-20)
(-0.096365 0.00840437 -2.18283e-21)
(-0.0882675 0.00681167 -1.58844e-21)
(-0.0793381 0.00506863 1.41797e-20)
(-0.0695527 0.00318072 -1.52922e-20)
(-0.0588744 0.00116906 -1.90516e-20)
(-0.0472432 -0.000890624 -2.3582e-20)
(-0.0344453 -0.00290043 2.64026e-20)
(-0.021711 -0.00434769 5.55361e-21)
(-0.00333656 -0.00505137 3.91095e-20)
(-0.00273671 0.0102436 -7.28702e-20)
(-0.0106083 0.0229672 1.69259e-20)
(-0.0217632 0.030662 -2.43639e-20)
(-0.0332785 0.0350283 4.80556e-20)
(-0.0449606 0.0371307 -3.07169e-20)
(-0.056095 0.0377748 3.81888e-21)
(-0.0664915 0.0374959 -2.6867e-20)
(-0.0759972 0.036667 7.23593e-21)
(-0.0845714 0.0355331 3.11321e-21)
(-0.0922104 0.0342527 7.00151e-20)
(-0.0989368 0.032923 1.50273e-20)
(-0.104783 0.0316009 -7.00238e-22)
(-0.109783 0.0303169 1.16549e-20)
(-0.113969 0.0290849 -3.01496e-20)
(-0.117369 0.0279085 -2.14699e-20)
(-0.120007 0.0267856 -2.67235e-20)
(-0.121901 0.0257106 2.87761e-20)
(-0.123061 0.0246763 5.1827e-20)
(-0.123495 0.0236741 3.86393e-20)
(-0.123207 0.0226951 5.34387e-21)
(-0.122194 0.0217298 -9.84625e-21)
(-0.120451 0.0207683 2.20788e-20)
(-0.117969 0.0198002 2.4125e-20)
(-0.114737 0.0188142 4.23679e-20)
(-0.110739 0.0177985 -4.90609e-20)
(-0.10596 0.0167402 -3.3091e-20)
(-0.10038 0.0156253 3.50472e-20)
(-0.0939811 0.0144391 -4.13829e-20)
(-0.0867423 0.0131655 -4.5473e-20)
(-0.0786434 0.0117883 -1.49319e-20)
(-0.0696643 0.0102908 -5.25164e-20)
(-0.0597855 0.00865707 -8.92921e-21)
(-0.0489887 0.00687359 -4.45942e-21)
(-0.0372535 0.00492968 -2.13733e-20)
(-0.0245653 0.00282669 3.04744e-20)
(-0.0108883 0.000567888 -4.83765e-20)
(0.00377455 -0.00177599 4.27158e-20)
(0.0198124 -0.0041844 -3.22287e-20)
(0.0355199 -0.00629201 -8.15951e-21)
(0.0578098 -0.00689215 6.07486e-21)
(-0.00308918 0.0112551 4.17383e-20)
(-0.0112426 0.025279 -4.28008e-20)
(-0.0223361 0.0337839 6.57782e-21)
(-0.0336093 0.0386193 -4.83295e-20)
(-0.0449066 0.0409524 1.29118e-22)
(-0.055559 0.0416684 1.49117e-20)
(-0.0653954 0.0413579 -9.05255e-21)
(-0.0742762 0.0404333 -1.70475e-20)
(-0.082166 0.0391661 -8.78727e-21)
(-0.0890635 0.0377321 4.42663e-21)
(-0.0949903 0.0362398 -4.8118e-21)
(-0.0999763 0.0347528 -6.95839e-20)
(-0.104053 0.0333051 4.46356e-20)
(-0.107248 0.0319125 -2.76345e-21)
(-0.109588 0.0305794 -6.92183e-21)
(-0.111089 0.0293033 2.34532e-20)
(-0.111765 0.0280782 2.64596e-21)
(-0.111625 0.026896 -1.12378e-20)
(-0.11067 0.0257474 -4.11582e-20)
(-0.108901 0.0246225 -1.54317e-20)
(-0.10631 0.0235109 -3.04566e-20)
(-0.102888 0.0224017 -1.3837e-20)
(-0.098622 0.0212839 1.22397e-20)
(-0.0934974 0.0201454 -2.52681e-21)
(-0.087496 0.0189739 4.3656e-20)
(-0.0805981 0.017756 7.25262e-20)
(-0.0727829 0.0164776 -4.59693e-20)
(-0.0640288 0.0151238 -9.56893e-21)
(-0.0543142 0.013679 -1.17045e-20)
(-0.043618 0.0121269 3.62235e-20)
(-0.0319203 0.0104517 4.04181e-22)
(-0.0192025 0.00863769 2.8469e-20)
(-0.00544986 0.00667187 4.57637e-20)
(0.00935612 0.00454132 6.23613e-21)
(0.0252152 0.00224759 6.09856e-21)
(0.0421753 -0.000226102 5.41979e-20)
(0.0601386 -0.00279703 -1.39959e-20)
(0.0797003 -0.00554089 1.05774e-20)
(0.0984751 -0.0081709 4.31042e-20)
(0.125358 -0.00942014 -3.45332e-20)
(-0.00346929 0.0122079 -2.58512e-20)
(-0.0119298 0.0274699 -4.13376e-20)
(-0.0229588 0.0367528 -3.43463e-20)
(-0.0339686 0.042041 3.4135e-20)
(-0.0448447 0.0445975 -3.17743e-20)
(-0.0549671 0.0453827 6.57221e-21)
(-0.0641859 0.0450399 -3.46807e-23)
(-0.0723761 0.0440195 2.37545e-20)
(-0.0795089 0.0426187 2.33125e-20)
(-0.085585 0.0410304 -2.32918e-20)
(-0.0906259 0.039374 -2.94003e-20)
(-0.0946589 0.0377196 2.17333e-20)
(-0.0977122 0.0361051 -1.94343e-20)
(-0.0998105 0.0345481 1.66635e-22)
(-0.100974 0.0330537 6.66551e-20)
(-0.101216 0.0316194 4.06094e-20)
(-0.100546 0.0302388 1.63854e-20)
(-0.0989671 0.0289028 -4.26737e-20)
(-0.0964782 0.0276016 6.53667e-21)
(-0.093073 0.0263242 4.61834e-20)
(-0.0887414 0.0250596 -2.28019e-21)
(-0.0834699 0.0237961 -4.72129e-20)
(-0.077242 0.0225219 -5.17174e-20)
(-0.0700386 0.0212246 -5.82498e-20)
(-0.0618387 0.0198912 -5.56396e-20)
(-0.0526199 0.0185085 -3.41104e-20)
(-0.0423592 0.0170621 1.23531e-20)
(-0.0310334 0.0155376 -1.30354e-20)
(-0.0186198 0.0139197 4.06478e-20)
(-0.00509706 0.0121931 -6.07386e-20)
(0.0095538 0.010343 2.62427e-20)
(0.0253501 0.00835448 -2.34599e-20)
(0.0423014 0.00621631 -3.03744e-20)
(0.060427 0.00391401 3.25143e-21)
(0.0797013 0.0014549 1.8082e-20)
(0.100215 -0.00119988 -3.67676e-20)
(0.121686 -0.00393136 1.34282e-20)
(0.14515 -0.00695192 -2.11719e-20)
(0.166918 -0.00989701 -1.42755e-20)
(0.199032 -0.0119029 -3.62622e-20)
(-0.00387398 0.0130984 3.17609e-20)
(-0.012665 0.0295316 3.56816e-20)
(-0.0236273 0.039557 6.86132e-22)
(-0.0343538 0.0452793 -4.66141e-20)
(-0.0447737 0.0480504 5.95421e-20)
(-0.0543192 0.0489009 2.96696e-20)
(-0.0628639 0.0485246 7.6368e-20)
(-0.0702986 0.047408 6.78225e-20)
(-0.0766017 0.0458733 -5.7199e-20)
(-0.081777 0.0441298 5.93813e-22)
(-0.0858454 0.0423077 -1.28898e-20)
(-0.088832 0.0404838 3.94813e-20)
(-0.0907614 0.0386996 4.97809e-21)
(-0.0916541 0.0369747 -7.81313e-21)
(-0.0915256 0.0353149 1.23768e-20)
(-0.0903855 0.0337179 -3.3632e-20)
(-0.0882378 0.0321768 -6.10914e-20)
(-0.0850812 0.0306821 3.95875e-20)
(-0.0809095 0.029223 -2.7445e-20)
(-0.0757123 0.027788 -1.15343e-20)
(-0.0694751 0.0263653 -1.85109e-20)
(-0.0621804 0.0249426 9.83386e-20)
(-0.053808 0.0235075 9.91733e-21)
(-0.0443354 0.0220475 3.92781e-20)
(-0.0337389 0.0205493 1.37265e-20)
(-0.0219936 0.0189995 -2.08162e-21)
(-0.00907495 0.0173845 2.12973e-20)
(0.00504138 0.0156899 5.09014e-20)
(0.0203781 0.0139016 -7.64897e-21)
(0.0369556 0.0120053 4.2476e-20)
(0.0547906 0.0099875 2.46163e-20)
(0.073898 0.00783481 -1.18706e-20)
(0.0942785 0.00553878 1.66622e-20)
(0.115957 0.00308329 -1.22032e-21)
(0.13886 0.000486664 -2.11808e-20)
(0.163175 -0.00231522 3.92813e-21)
(0.188286 -0.00515467 -6.22617e-22)
(0.216038 -0.00834586 5.89807e-20)
(0.240652 -0.0114953 -4.93075e-20)
(0.278589 -0.014067 8.06419e-20)
(-0.00430009 0.013924 -2.63914e-21)
(-0.0134432 0.0314571 4.22218e-20)
(-0.024337 0.0421861 5.16647e-20)
(-0.0347616 0.0483212 4.53019e-20)
(-0.0446915 0.0512962 -7.61758e-20)
(-0.0536146 0.0522071 -7.51127e-20)
(-0.0614294 0.0517954 -1.00306e-20)
(-0.068044 0.0505819 -7.51523e-20)
(-0.0734451 0.0489126 9.98529e-21)
(-0.0776396 0.0470132 -8.34964e-20)
(-0.0806482 0.0450241 6.57838e-20)
(-0.0824936 0.0430285 2.55265e-22)
(-0.0831969 0.0410721 1.86178e-20)
(-0.0827742 0.0391762 -2.2493e-20)
(-0.0812361 0.0373477 -4.90312e-20)
(-0.0785873 0.0355843 8.14076e-20)
(-0.0748268 0.033879 6.6102e-21)
(-0.0699484 0.0322217 2.83311e-21)
(-0.0639412 0.0306012 -2.48989e-20)
(-0.0567899 0.0290052 1.19056e-20)
(-0.0484761 0.0274215 -3.51877e-20)
(-0.0389781 0.0258374 -6.01048e-20)
(-0.028272 0.0242402 -5.92593e-21)
(-0.0163327 0.0226172 3.25217e-21)
(-0.00313372 0.0209551 -1.03006e-20)
(0.0113512 0.019241 1.58457e-20)
(0.0271476 0.0174616 -5.0184e-20)
(0.0442793 0.0156034 -4.06236e-20)
(0.0627674 0.0136534 3.40975e-21)
(0.0826298 0.0115987 -1.60708e-20)
(0.103878 0.00942761 1.50786e-20)
(0.126522 0.00712849 -2.36309e-20)
(0.150547 0.00469654 -1.58459e-20)
(0.17599 0.00211377 -2.65854e-20)
(0.202692 -0.000588888 2.39127e-20)
(0.231024 -0.00349565 3.99712e-20)
(0.25981 -0.00640765 7.26528e-20)
(0.292182 -0.00964335 -1.88261e-20)
(0.319387 -0.0129404 2.75077e-20)
(0.363632 -0.0157893 -6.13897e-20)
(-0.00474448 0.0146827 2.83158e-20)
(-0.0142592 0.0332405 -7.56895e-20)
(-0.0250835 0.0446307 -1.77539e-20)
(-0.0351883 0.0511548 4.23227e-20)
(-0.0445957 0.0543211 7.73372e-20)
(-0.0528516 0.0552862 1.64179e-20)
(-0.0598813 0.0548361 -8.83423e-20)
(-0.0656115 0.0535245 6.19087e-21)
(-0.0700377 0.05172 1.98016e-21)
(-0.0731706 0.0496638 7.18751e-20)
(-0.0750305 0.0475066 -7.62743e-20)
(-0.0756382 0.0453379 -3.15778e-20)
(-0.0750104 0.0432072 -1.94325e-20)
(-0.0731589 0.0411381 3.06405e-20)
(-0.0700892 0.0391384 3.01989e-20)
(-0.0658005 0.0372062 -8.76456e-20)
(-0.0602866 0.0353343 -3.98511e-20)
(-0.0535362 0.0335126 6.77363e-20)
(-0.0455331 0.0317291 4.43994e-20)
(-0.0362576 0.0299715 5.00075e-20)
(-0.0256867 0.0282271 3.23639e-20)
(-0.0137951 0.026483 5.8261e-20)
(-0.000555637 0.0247265 1.84419e-20)
(0.0140594 0.0229449 -1.74332e-20)
(0.0300778 0.0211254 1.50786e-20)
(0.0475265 0.0192557 6.19219e-20)
(0.06643 0.0173228 1.75532e-20)
(0.0868097 0.0153149 7.57841e-20)
(0.108683 0.01322 -5.33365e-20)
(0.13206 0.0110272 -3.11953e-20)
(0.156944 0.00872682 -2.55418e-20)
(0.183339 0.00630907 2.20752e-21)
(0.211198 0.00377258 8.37317e-20)
(0.240585 0.00110014 -7.86825e-21)
(0.271195 -0.00167203 -7.77067e-22)
(0.303701 -0.00462196 -6.76001e-20)
(0.33608 -0.00758929 -6.45799e-20)
(0.373283 -0.0107274 -5.35975e-20)
(0.4027 -0.0141544 2.87143e-22)
(0.453475 -0.0169687 2.78932e-20)
(-0.00520406 0.0153731 -6.37583e-20)
(-0.0151076 0.0348771 -5.2657e-21)
(-0.0258615 0.0468831 4.26076e-20)
(-0.0356298 0.0537694 1.30783e-20)
(-0.0444831 0.0571124 7.78705e-21)
(-0.0520277 0.0581238 -2.64173e-20)
(-0.0582173 0.0576316 7.60557e-20)
(-0.0629982 0.05622 -6.53112e-21)
(-0.0663758 0.0542795 -7.42664e-22)
(-0.0683646 0.0520658 -5.32751e-20)
(-0.068985 0.0497396 7.06017e-20)
(-0.0682549 0.0473968 7.28498e-20)
(-0.0661875 0.0450907 -3.37079e-20)
(-0.0627891 0.0428472 -9.13017e-20)
(-0.0580597 0.0406751 -3.06051e-20)
(-0.051993 0.0385734 5.00841e-20)
(-0.0445771 0.0365347 1.21884e-19)
(-0.035795 0.0345489 -1.33142e-19)
(-0.0256254 0.032604 -5.72688e-20)
(-0.0140438 0.0306875 -6.16194e-20)
(-0.00102292 0.0287866 -4.50598e-20)
(0.0134661 0.0268886 -1.33418e-20)
(0.0294528 0.024981 3.17434e-20)
(0.0469665 0.0230514 -3.64432e-20)
(0.0660351 0.0210878 7.64646e-21)
(0.0866836 0.0190785 -6.61907e-21)
(0.108933 0.0170118 1.49106e-20)
(0.1328 0.0148773 -4.39825e-20)
(0.158291 0.0126647 3.72112e-20)
(0.185408 0.0103648 3.17042e-20)
(0.214135 0.00797012 -2.66726e-20)
(0.244463 0.00547373 1.89343e-20)
(0.276301 0.0028751 -5.51018e-20)
(0.309752 0.00016602 2.28361e-20)
(0.344291 -0.00263506 -2.16167e-20)
(0.381025 -0.00554074 -5.6113e-21)
(0.416784 -0.00855892 6.78096e-20)
(0.458818 -0.0114439 -4.72886e-20)
(0.489969 -0.0150082 5.32483e-22)
(0.547064 -0.0175016 4.32934e-20)
(-0.00567584 0.0159948 -3.09063e-20)
(-0.0159832 0.0363635 4.58439e-20)
(-0.0266659 0.0489364 -3.96328e-20)
(-0.0360811 0.0561556 -2.67637e-20)
(-0.0443493 0.0596582 2.78921e-21)
(-0.0511387 0.0607066 9.7966e-20)
(-0.0564329 0.0601674 -2.05333e-20)
(-0.060199 0.0586535 2.26639e-20)
(-0.0624526 0.0565758 -4.74837e-21)
(-0.0632124 0.0542042 6.28999e-20)
(-0.0624989 0.0517087 4.96147e-20)
(-0.0603272 0.0491916 -9.58462e-20)
(-0.0567057 0.04671 1.00756e-19)
(-0.0516356 0.0442922 3.6381e-20)
(-0.0451108 0.0419485 1.04779e-19)
(-0.0371187 0.0396785 2.85735e-20)
(-0.0276414 0.0374755 -5.65816e-20)
(-0.0166559 0.0353293 6.21606e-20)
(-0.00413567 0.0332282 9.82881e-20)
(0.00994865 0.03116 3.16528e-20)
(0.0256281 0.029112 6.35441e-20)
(0.0429344 0.027072 1.97527e-20)
(0.0618984 0.0250281 1.66784e-20)
(0.0825491 0.0229685 8.2891e-20)
(0.104912 0.0208824 2.60885e-20)
(0.129007 0.0187589 -5.12574e-20)
(0.154847 0.0165883 3.4776e-20)
(0.182438 0.0143612 -2.93588e-20)
(0.211771 0.0120692 -3.36556e-20)
(0.242829 0.00970542 -6.56023e-21)
(0.275567 0.00726382 6.73437e-20)
(0.309959 0.0047422 -4.84871e-22)
(0.345843 0.00213451 -1.48831e-20)
(0.383379 -0.000541675 -1.0254e-20)
(0.421743 -0.00332822 8.72054e-20)
(0.462589 -0.00608115 -2.89993e-20)
(0.501378 -0.00914632 -5.31991e-20)
(0.547916 -0.011626 -5.48817e-20)
(0.580265 -0.0153347 7.34635e-20)
(0.642895 -0.0172809 4.2315e-20)
(-0.00615697 0.0165478 -1.03788e-20)
(-0.0168806 0.0376975 7.07039e-20)
(-0.027491 0.0507855 2.69858e-20)
(-0.0365368 0.0583051 -7.35672e-20)
(-0.0441889 0.0619482 -6.48913e-20)
(-0.0501791 0.0630224 -1.01352e-19)
(-0.0545218 0.0624302 -5.52381e-20)
(-0.0572059 0.060811 7.27345e-20)
(-0.0582576 0.0585948 6.81242e-21)
(-0.0577002 0.056065 -4.93057e-20)
(-0.0555538 0.0534006 -1.03351e-19)
(-0.0518305 0.0507099 -1.35937e-20)
(-0.0465337 0.0480541 -5.10519e-20)
(-0.0396585 0.0454641 5.28844e-20)
(-0.0311921 0.0429518 -9.09493e-20)
(-0.0211154 0.0405178 6.45395e-20)
(-0.0094037 0.0381561 -1.06915e-19)
(0.00397187 0.0358573 -8.08517e-21)
(0.0190433 0.0336101 -6.46327e-20)
(0.0358443 0.0314027 5.86367e-20)
(0.0544089 0.0292234 -3.61056e-20)
(0.07477 0.0270605 -3.74142e-20)
(0.0969578 0.0249032 -9.03682e-20)
(0.120998 0.0227408 -7.73689e-20)
(0.146908 0.0205636 -7.41081e-21)
(0.1747 0.0183624 -1.41029e-20)
(0.204371 0.0161287 -4.46156e-21)
(0.235907 0.0138549 2.23134e-20)
(0.269274 0.0115345 6.38656e-21)
(0.304426 0.00916262 -6.60985e-20)
(0.341276 0.00673341 -7.72584e-20)
(0.379769 0.00425268 2.52387e-20)
(0.41965 0.00169796 3.04508e-20)
(0.461138 -0.000863125 -1.19364e-20)
(0.503064 -0.0035879 -2.45392e-20)
(0.547653 -0.00607603 8.35737e-20)
(0.58898 -0.00916932 3.6526e-20)
(0.639266 -0.0111249 2.33791e-20)
(0.672252 -0.0149623 2.0205e-21)
(0.738976 -0.0162141 -5.63805e-20)
(-0.00664479 0.0170328 5.99964e-20)
(-0.0177945 0.0388782 -2.59805e-20)
(-0.0283308 0.0524264 -1.07221e-19)
(-0.0369905 0.0602112 -1.0225e-21)
(-0.0439952 0.0639729 5.83883e-20)
(-0.0491411 0.0650601 3.98204e-20)
(-0.0524747 0.0644076 2.35752e-20)
(-0.0540073 0.0626796 -4.20157e-20)
(-0.053776 0.0603236 4.5432e-20)
(-0.0518084 0.0576357 -8.78996e-20)
(-0.0481243 0.0548036 -1.15717e-20)
(-0.0427319 0.0519415 8.81606e-20)
(-0.0356292 0.0491147 1.82867e-20)
(-0.0268044 0.0463568 2.16451e-20)
(-0.0162376 0.0436818 2.63885e-20)
(-0.00390241 0.0410915 -8.53835e-20)
(0.0102327 0.0385813 3.71528e-20)
(0.0262029 0.0361425 6.85361e-20)
(0.0440448 0.033765 -4.47634e-20)
(0.0637956 0.031438 -9.97118e-21)
(0.0854905 0.0291507 -3.43809e-20)
(0.109161 0.0268929 -3.69373e-20)
(0.134833 0.0246546 5.02323e-20)
(0.162523 0.0224269 6.57904e-20)
(0.192237 0.0202014 1.30365e-20)
(0.223966 0.0179703 3.01424e-20)
(0.257684 0.0157268 -2.53213e-20)
(0.293347 0.0134648 -3.83568e-20)
(0.330882 0.0111787 1.55176e-20)
(0.370198 0.00886618 1.42302e-19)
(0.411152 0.0065188 3.38281e-20)
(0.453644 0.00415434 2.04556e-20)
(0.497307 0.00172063 -7.63682e-20)
(0.542402 -0.000640474 6.18993e-20)
(0.587427 -0.0032499 -1.51915e-20)
(0.635074 -0.00538311 -7.83997e-20)
(0.678291 -0.00845926 -1.05276e-20)
(0.731092 -0.00983478 -3.08979e-20)
(0.764148 -0.0137562 -6.46893e-20)
(0.832884 -0.0142551 -1.64373e-20)
(-0.00713686 0.0174513 -1.12593e-21)
(-0.0187199 0.0399055 1.13424e-20)
(-0.0291791 0.0538563 1.19948e-19)
(-0.037435 0.0618682 6.06758e-20)
(-0.0437598 0.0657245 -2.22418e-20)
(-0.048015 0.0668098 -2.6236e-20)
(-0.0502796 0.0660888 -8.03602e-20)
(-0.0505876 0.0642478 -2.73207e-21)
(-0.0489875 0.0617508 -3.08354e-20)
(-0.0455109 0.0589054 1.23229e-19)
(-0.0401764 0.0559079 3.82045e-20)
(-0.0329881 0.0528783 -1.1203e-19)
(-0.0239375 0.0498859 -2.56023e-20)
(-0.0130054 0.0469675 -2.11246e-20)
(-0.000163989 0.0441393 -1.63953e-20)
(0.0146208 0.0414051 -2.01085e-20)
(0.0313874 0.0387617 2.90513e-20)
(0.0501763 0.036202 -2.56303e-22)
(0.0710283 0.0337173 7.72609e-21)
(0.0939815 0.0312982 -2.57901e-20)
(0.119069 0.0289356 2.77556e-20)
(0.146317 0.0266205 3.6143e-20)
(0.17574 0.0243448 -2.37757e-20)
(0.207339 0.0221009 -6.21825e-20)
(0.241097 0.0198818 1.95735e-20)
(0.276975 0.0176811 -4.9985e-20)
(0.31491 0.0154929 1.20554e-20)
(0.35481 0.0133122 -5.48039e-20)
(0.396549 0.0111335 4.35536e-20)
(0.439974 0.00895629 -9.87649e-20)
(0.484866 0.00676618 3.61154e-20)
(0.531063 0.00459581 -1.84721e-20)
(0.578084 0.00235266 3.97323e-20)
(0.62618 0.000264543 -2.15555e-20)
(0.673611 -0.0021698 -4.30866e-20)
(0.72329 -0.00390333 4.37687e-20)
(0.767574 -0.00689261 8.68889e-20)
(0.821235 -0.0077115 5.34487e-20)
(0.853763 -0.0116522 1.0952e-20)
(0.921947 -0.0114303 9.00751e-21)
(-0.00763099 0.0178052 -7.92968e-20)
(-0.0196515 0.0407807 -1.14737e-20)
(-0.0300291 0.055074 -2.00386e-20)
(-0.0378618 0.0632722 -1.48232e-20)
(-0.0434726 0.0671965 -5.47153e-20)
(-0.0467881 0.0682634 1.529e-19)
(-0.0479204 0.0674643 1.67432e-19)
(-0.0469266 0.0655056 -4.41504e-20)
(-0.0438659 0.0628664 -1.18899e-19)
(-0.0387736 0.0598653 -4.35744e-20)
(-0.0316667 0.0567063 2.27429e-20)
(-0.022544 0.0535151 -7.25738e-20)
(-0.0113899 0.0503656 -6.96034e-21)
(0.00182321 0.0472978 -8.52025e-20)
(0.0171313 0.0443306 8.74301e-20)
(0.0345763 0.0414702 1.07444e-20)
(0.0542029 0.0387154 -3.82663e-20)
(0.0760561 0.0360613 -4.07157e-20)
(0.100178 0.033501 4.28849e-20)
(0.126603 0.031027 6.20693e-20)
(0.155359 0.028632 7.57403e-20)
(0.186458 0.0263089 -1.62414e-22)
(0.219895 0.0240511 -5.45692e-20)
(0.255643 0.0218522 5.23643e-20)
(0.29365 0.0197063 1.49377e-21)
(0.333831 0.0176077 -7.26159e-21)
(0.376068 0.0155505 5.27074e-20)
(0.420205 0.0135294 5.30442e-20)
(0.466041 0.0115372 -3.81629e-20)
(0.513346 0.00957385 -1.37381e-20)
(0.561808 0.00761595 1.44969e-20)
(0.611182 0.00571018 -7.69493e-21)
(0.660885 0.00372131 3.89693e-20)
(0.711096 0.00195268 6.68754e-20)
(0.759988 -0.000248957 6.32313e-20)
(0.810377 -0.00159497 -6.32229e-20)
(0.854715 -0.00442167 -8.47991e-20)
(0.907319 -0.00478493 -2.27585e-20)
(0.938669 -0.00867639 -1.91706e-21)
(1.00354 -0.007858 -2.37394e-21)
(-0.00812528 0.0180969 1.41376e-19)
(-0.0205844 0.0415057 5.70251e-20)
(-0.0308735 0.0560793 -3.70852e-20)
(-0.0382613 0.0644203 -1.22972e-20)
(-0.0431213 0.0683837 1.30386e-19)
(-0.0454447 0.0694139 -4.64758e-20)
(-0.0453772 0.0685262 -7.95695e-21)
(-0.0429982 0.066445 8.10284e-20)
(-0.0383777 0.0636631 1.06508e-19)
(-0.0315538 0.0605089 -2.27332e-20)
(-0.0225408 0.0571941 -5.34107e-20)
(-0.0113315 0.0538503 8.77543e-20)
(0.00209802 0.0505558 3.65749e-20)
(0.017784 0.0473542 1.59115e-19)
(0.0357711 0.0442678 -6.54964e-21)
(0.0561082 0.0413056 4.11692e-20)
(0.0788451 0.0384692 1.14713e-19)
(0.104028 0.035756 5.39417e-20)
(0.131696 0.0331617 3.89897e-20)
(0.161877 0.0306809 -1.21487e-20)
(0.19458 0.0283084 -3.48694e-20)
(0.229796 0.0260385 -9.7619e-21)
(0.267486 0.023866 2.3659e-20)
(0.307582 0.0217852 4.50547e-20)
(0.349976 0.0197902 -7.04453e-20)
(0.394521 0.0178745 1.39292e-20)
(0.441023 0.0160305 -5.28393e-21)
(0.489241 0.0142507 -5.37425e-20)
(0.538883 0.0125235 2.52528e-23)
(0.589619 0.0108472 6.81226e-20)
(0.641042 0.00918699 -8.58688e-20)
(0.692803 0.00759781 -1.91424e-20)
(0.74425 0.00591015 -3.7989e-20)
(0.795429 0.00447098 -3.88246e-20)
(0.844596 0.00254069 -3.05542e-20)
(0.894182 0.00151631 1.25444e-19)
(0.937394 -0.00109438 9.6481e-21)
(0.987002 -0.00116211 -1.22267e-20)