/*--------------------------------*- C++ -*----------------------------------*\
  =========                 |
  \\      /  F ield         | OpenFOAM: The Open Source CFD Toolbox
   \\    /   O peration     | Website:  https://openfoam.org
    \\  /    A nd           | Version:  7
     \\/     M anipulation  |
\*---------------------------------------------------------------------------*/
FoamFile
{
    version     2.0;
    format      ascii;
    class       surfaceScalarField;
    location    "15";
    object      phi;
}
// * * * * * * * * * * * * * * * * * * * * * * * * * * * * * * * * * * * * * //

dimensions      [0 3 -1 0 0 0 0];

internalField   nonuniform List<scalar> 
5142
(
0.00965187
-0.000108199
0.00976218
-0.000110311
0.00987455
-0.000112371
-0.00011437
0.00998892
0.0094292
-0.000213859
0.00953692
-0.000218031
0.00964664
-0.000222099
-0.000226044
0.00975832
0.00921293
-0.000317064
0.00931815
-0.000323246
0.00942532
-0.000329272
-0.000335116
0.00953439
0.00900282
-0.000417898
0.00910562
-0.00042604
0.00921032
-0.000433977
-0.000441672
0.00931688
0.0087986
-0.000516441
0.00889905
-0.000526495
0.00900137
-0.000536296
-0.000545798
0.0091055
0.00860001
-0.000612768
0.0086982
-0.000624688
0.00879821
-0.000636308
-0.000647572
0.00889999
0.00840681
-0.000706952
0.00850281
-0.000720691
0.00860059
-0.000734085
-0.000747068
0.00870009
0.00821877
-0.000799057
0.00831265
-0.000814569
0.00840825
-0.000829693
-0.000844352
0.00850554
0.00803566
-0.000889143
0.00812747
-0.000906384
0.00822097
-0.000923193
-0.000939485
0.00831611
0.00785727
-0.000977264
0.00794707
-0.000996188
0.00803852
-0.00101464
-0.00103252
0.00813156
0.0076834
-0.00106347
0.00777124
-0.00108403
0.00786068
-0.00110408
-0.00112351
0.00795167
0.00751385
-0.0011478
0.00759977
-0.00116995
0.00768724
-0.00119155
-0.00121249
0.00777622
0.00734844
-0.00123029
0.00743247
-0.00125399
0.00751801
-0.00127709
-0.00129949
0.00760502
0.00718698
-0.00131096
0.00726915
-0.00133616
0.00735279
-0.00136073
-0.00138455
0.00743784
0.0070293
-0.00138986
0.00710964
-0.0014165
0.00719139
-0.00144248
-0.00146767
0.00727451
0.00687522
-0.00146698
0.00695374
-0.00149502
0.00703363
-0.00152237
-0.00154888
0.00711483
0.00672459
-0.00154235
0.0068013
-0.00157173
0.00687933
-0.00160039
-0.00162818
0.00695862
0.00657725
-0.00161596
0.00665215
-0.00164664
0.00672832
-0.00167655
-0.00170557
0.0068057
0.00643303
-0.00168783
0.00650613
-0.00171974
0.00658043
-0.00175085
-0.00178104
0.00665591
0.0062918
-0.00175795
0.00636309
-0.00179103
0.00643552
-0.00182328
-0.00185459
0.00650907
0.00615341
-0.00182631
0.00622288
-0.0018605
0.00629343
-0.00189383
-0.0019262
0.00636504
0.00601772
-0.0018929
0.00608536
-0.00192814
0.00615402
-0.00196249
-0.00199586
0.00622367
0.00588462
-0.00195771
0.00595041
-0.00199393
0.00601715
-0.00202923
-0.00206354
0.00608483
0.00575397
-0.00202072
0.0058179
-0.00205786
0.00588271
-0.00209403
-0.00212921
0.00594838
0.00562568
-0.00208193
0.00568772
-0.0021199
0.00575057
-0.00215688
-0.00219287
0.00581423
0.00549964
-0.0021413
0.00555978
-0.00218004
0.00562065
-0.00221776
-0.00225447
0.00568225
0.00537575
-0.00219882
0.00543397
-0.00223826
0.00549284
-0.00227663
-0.002314
0.00555237
0.00525394
-0.00225447
0.00531021
-0.00229453
0.00536706
-0.00233348
-0.00237143
0.00542449
0.00513412
-0.00230824
0.00518843
-0.00234884
0.00524323
-0.00238828
-0.00242673
0.00529854
0.00501624
-0.00236011
0.00506856
-0.00240116
0.0051213
-0.00244102
-0.00247989
0.00517446
0.00490022
-0.00241006
0.00495055
-0.00245149
0.00500121
-0.00249168
-0.00253088
0.0050522
0.00478603
-0.00245808
0.00483434
-0.0024998
0.00488291
-0.00254024
-0.00257969
0.00493171
0.00467361
-0.00250415
0.0047199
-0.00254609
0.00476636
-0.0025867
-0.0026263
0.00481296
0.00456294
-0.00254828
0.00460719
-0.00259035
0.00465153
-0.00263103
-0.00267069
0.00469592
0.00445397
-0.00259045
0.00449619
-0.00263257
0.00453839
-0.00267324
-0.00271286
0.00458057
0.00434669
-0.00263065
0.00438686
-0.00267274
0.00442694
-0.00271332
-0.00275281
0.00446688
0.00424107
-0.0026689
0.00427919
-0.00271086
0.00431714
-0.00275127
-0.00279052
0.00435486
0.00413709
-0.00270518
0.00417318
-0.00274695
0.004209
-0.00278708
-0.00282601
0.00424448
0.00403475
-0.00273951
0.0040688
-0.00278099
0.00410249
-0.00282078
-0.00285926
0.00413575
0.00390166
-0.00272909
0.00393404
-0.00277189
0.00396605
-0.00281301
0.00399763
-0.00285236
-0.00289029
0.00402867
0.00380449
-0.00275992
0.00383494
-0.00280233
0.00386493
-0.002843
0.00389441
-0.00288184
-0.00291911
0.00392323
0.00370893
-0.0027889
0.00373745
-0.00283085
0.00376544
-0.00287099
0.00379282
-0.00290923
-0.00294572
0.00381943
0.00361496
-0.00281604
0.00364156
-0.00285746
0.00366756
-0.00289699
0.00369288
-0.00293454
-0.00297013
0.00371729
0.00352257
-0.00284136
0.00354728
-0.00288217
0.0035713
-0.00292101
0.00359456
-0.0029578
-0.00299236
0.00361679
0.00343176
-0.00286488
0.0034546
-0.00290501
0.00347667
-0.00294307
0.00349789
-0.00297903
-0.00301242
0.00351795
0.00334253
-0.00288661
0.00336351
-0.00292599
0.00338364
-0.00296321
0.00340286
-0.00299824
-0.00303032
0.00342076
0.00325487
-0.00290657
0.00327401
-0.00294513
0.00329224
-0.00298143
0.00330946
-0.00301546
-0.00304608
0.00332522
0.00316877
-0.00292478
0.0031861
-0.00296247
0.00320244
-0.00299777
0.00321769
-0.00303072
-0.00305972
0.00323133
0.00308422
-0.00294127
0.00309976
-0.00297801
0.00311424
-0.00301224
0.00312756
-0.00304403
-0.00307125
0.00313909
0.00300123
-0.00295604
0.003015
-0.00299178
0.00302764
-0.00302488
0.00303904
-0.00305543
0.00304848
0.00291977
-0.00296911
0.00293179
-0.00300381
0.00294262
-0.00303571
-0.00306495
0.00283984
-0.0029805
0.00285013
-0.0030141
0.00285918
-0.00304476
0.00276143
-0.00299023
0.00277
-0.00302267
0.00268453
-0.0029983
0.0100019
-1.29717e-05
0.0100143
-1.24296e-05
0.0100262
-1.1869e-05
0.0100375
-1.1289e-05
0.0100482
-1.06906e-05
0.0100582
-1.00759e-05
0.0100677
-9.44668e-06
0.0100765
-8.80461e-06
0.0100846
-8.15131e-06
0.0100921
-7.48845e-06
0.010099
-6.81768e-06
0.0101051
-6.14068e-06
0.0101106
-5.4591e-06
0.0101153
-4.77461e-06
0.0101194
-4.08886e-06
0.0101228
-3.40348e-06
0.0101255
-2.7201e-06
0.0101276
-2.04028e-06
0.0101289
-1.36557e-06
0.0101296
-6.97447e-07
0.0101297
-3.73581e-08
0.0101291
6.13369e-07
0.0101278
1.25341e-06
0.0101259
1.88158e-06
0.0101234
2.49676e-06
0.0101203
3.09793e-06
0.0101167
3.68417e-06
0.0101124
4.25467e-06
0.0101076
4.80872e-06
0.0101022
5.34575e-06
0.0100964
5.86527e-06
0.01009
6.36692e-06
0.0100832
6.85046e-06
0.0100758
7.31577e-06
0.0100681
7.76283e-06
0.0100599
8.19174e-06
0.0100513
8.6027e-06
0.0100423
8.99605e-06
0.0100329
9.37219e-06
0.0100232
9.73166e-06
0.0100131
1.00751e-05
0.0100027
1.04031e-05
0.00999199
1.07167e-05
0.00998098
1.10165e-05
0.00996967
1.13037e-05
0.00995809
1.15793e-05
0.00994625
1.18444e-05
1.21002e-05
0.00977101
-2.56604e-05
0.00978315
-2.45748e-05
0.00979474
-2.34565e-05
0.00980575
-2.23024e-05
0.00981618
-2.11135e-05
0.00982599
-1.98933e-05
0.00983519
-1.86452e-05
0.00984376
-1.73722e-05
0.00985169
-1.60774e-05
0.00985896
-1.47641e-05
0.00986558
-1.34354e-05
0.00987153
-1.20945e-05
0.00987682
-1.07449e-05
0.00988143
-9.38968e-06
0.00988538
-8.03216e-06
0.00988865
-6.67555e-06
0.00989125
-5.32302e-06
0.00989319
-3.97768e-06
0.00989447
-2.64258e-06
0.00989509
-1.32063e-06
0.00989507
-1.46926e-08
0.00989441
1.27264e-06
0.00989312
2.53874e-06
0.00989122
3.78128e-06
0.00988872
4.99805e-06
0.00988563
6.18705e-06
0.00988197
7.34647e-06
0.00987775
8.47471e-06
0.00987299
9.5704e-06
0.0098677
1.06324e-05
0.00986191
1.16597e-05
0.00985562
1.26517e-05
0.00984887
1.36079e-05
0.00984165
1.4528e-05
0.009834
1.5412e-05
0.00982594
1.62601e-05
0.00981747
1.70727e-05
0.00980861
1.78505e-05
0.00979939
1.85943e-05
0.00978982
1.93051e-05
0.00977991
1.99841e-05
0.00976968
2.06329e-05
0.00975914
2.12528e-05
0.00974831
2.18458e-05
0.0097372
2.24136e-05
0.00972582
2.29585e-05
0.00971418
2.34826e-05
2.39882e-05
0.00954678
-3.80489e-05
0.00955863
-3.6422e-05
0.00956992
-3.47492e-05
0.00958064
-3.30251e-05
0.00959078
-3.1251e-05
0.00960032
-2.94318e-05
0.00960925
-2.75723e-05
0.00961755
-2.56766e-05
0.00962522
-2.37494e-05
0.00963226
-2.17952e-05
0.00963864
-1.98188e-05
0.00964437
-1.7825e-05
0.00964944
-1.58186e-05
0.00965386
-1.38043e-05
0.00965761
-1.1787e-05
0.00966071
-9.77141e-06
0.00966315
-7.76225e-06
0.00966493
-5.7641e-06
0.00966607
-3.78143e-06
0.00966657
-1.81858e-06
0.00966644
1.2029e-07
0.00966568
2.03124e-06
0.00966431
3.91051e-06
0.00966233
5.75461e-06
0.00965977
7.56031e-06
0.00965663
9.32464e-06
0.00965293
1.10449e-05
0.00964869
1.27189e-05
0.00964392
1.43444e-05
0.00963863
1.59199e-05
0.00963284
1.74439e-05
0.00962658
1.89154e-05
0.00961985
2.03338e-05
0.00961268
2.16986e-05
0.00960509
2.30099e-05
0.00959708
2.42679e-05
0.00958868
2.54733e-05
0.0095799
2.66271e-05
0.00957076
2.77303e-05
0.00956128
2.87847e-05
0.00955148
2.97919e-05
0.00954136
3.07542e-05
0.00953093
3.16737e-05
0.00952023
3.25532e-05
0.00950925
3.33954e-05
0.009498
3.42034e-05
0.0094865
3.49805e-05
3.57302e-05
0.00932895
-5.01184e-05
0.00934048
-4.79531e-05
0.00935146
-4.57289e-05
0.00936187
-4.34381e-05
0.0093717
-4.10828e-05
0.00938094
-3.86695e-05
0.00938957
-3.62039e-05
0.00939759
-3.36919e-05
0.00940498
-3.11392e-05
0.00941173
-2.8552e-05
0.00941785
-2.59362e-05
0.00942332
-2.32983e-05
0.00942815
-2.06445e-05
0.00943233
-1.79811e-05
0.00943585
-1.53143e-05
0.00943873
-1.26505e-05
0.00944097
-9.99577e-06
0.00944256
-7.35613e-06
0.00944351
-4.73746e-06
0.00944384
-2.14543e-06
0.00944355
4.14493e-07
0.00944264
2.93714e-06
0.00944113
5.41761e-06
0.00943904
7.85133e-06
0.00943636
1.02341e-05
0.00943313
1.25619e-05
0.00942934
1.48315e-05
0.00942502
1.70397e-05
0.00942018
1.91839e-05
0.00941484
2.12619e-05
0.00940901
2.3272e-05
0.00940271
2.52127e-05
0.00939596
2.70832e-05
0.00938878
2.88831e-05
0.00938118
3.06123e-05
0.00937317
3.22713e-05
0.00936479
3.38608e-05
0.00935603
3.53823e-05
0.00934692
3.68371e-05
0.00933748
3.82275e-05
0.00932772
3.95556e-05
0.00931765
4.08244e-05
0.00930728
4.20369e-05
0.00929664
4.31964e-05
0.00928573
4.43067e-05
0.00927456
4.53718e-05
0.00926314
4.63961e-05
4.7384e-05
0.00911723
-6.18518e-05
0.00912843
-5.915e-05
0.00913908
-5.63764e-05
0.00914916
-5.35213e-05
0.00915866
-5.05876e-05
0.00916758
-4.75834e-05
0.00917589
-4.45161e-05
0.00918359
-4.13924e-05
0.00919067
-3.82197e-05
0.00919712
-3.50055e-05
0.00920295
-3.17572e-05
0.00920813
-2.84825e-05
0.00921267
-2.51893e-05
0.00921658
-2.18852e-05
0.00921984
-1.8578e-05
0.00922247
-1.52754e-05
0.00922446
-1.1985e-05
0.00922581
-8.71401e-06
0.00922655
-5.46983e-06
0.00922666
-2.25937e-06
0.00922616
9.10678e-07
0.00922507
4.03395e-06
0.00922338
7.10444e-06
0.00922112
1.01165e-05
0.00921828
1.30651e-05
0.0092149
1.59454e-05
0.00921098
1.87531e-05
0.00920653
2.14847e-05
0.00920158
2.41368e-05
0.00919614
2.67068e-05
0.00919022
2.91925e-05
0.00918384
3.15924e-05
0.00917701
3.39054e-05
0.00916977
3.61309e-05
0.00916211
3.8269e-05
0.00915406
4.03201e-05
0.00914564
4.22854e-05
0.00913685
4.41664e-05
0.00912772
4.59651e-05
0.00911827
4.76839e-05
0.0091085
4.93259e-05
0.00909843
5.08943e-05
0.00908807
5.2393e-05
0.00907744
5.38261e-05
0.00906655
5.51982e-05
0.00905541
5.65142e-05
0.00904402
5.77795e-05
5.89996e-05
0.00891137
-7.32342e-05
0.00892222
-6.99958e-05
0.00893251
-6.66732e-05
0.00894225
-6.32547e-05
0.0089514
-5.97441e-05
0.00895997
-5.61512e-05
0.00896794
-5.24847e-05
0.0089753
-4.87529e-05
0.00898204
-4.49644e-05
0.00898817
-4.11279e-05
0.00899366
-3.72525e-05
0.00899853
-3.33473e-05
0.00900276
-2.94214e-05
0.00900636
-2.5484e-05
0.00900932
-2.15443e-05
0.00901166
-1.76112e-05
0.00901337
-1.36938e-05
0.00901446
-9.80084e-06
0.00901493
-5.94074e-06
0.00901479
-2.12175e-06
0.00901405
1.64824e-06
0.00901272
5.36175e-06
0.00901082
9.01173e-06
0.00900834
1.25916e-05
0.00900531
1.60953e-05
0.00900174
1.95173e-05
0.00899764
2.28526e-05
0.00899303
2.6097e-05
0.00898792
2.92466e-05
0.00898233
3.22983e-05
0.00897627
3.52498e-05
0.00896976
3.8099e-05
0.00896282
4.08449e-05
0.00895547
4.34868e-05
0.00894771
4.60247e-05
0.00893957
4.84594e-05
0.00893106
5.07921e-05
0.00892221
5.30245e-05
0.00891301
5.51592e-05
0.0089035
5.7199e-05
0.00889368
5.91474e-05
0.00888356
6.10084e-05
0.00887317
6.27865e-05
0.00886251
6.44865e-05
0.00885159
6.61138e-05
0.00884043
6.76744e-05
0.00882904
6.91743e-05
7.06203e-05
0.0087111
-8.42516e-05
0.00872158
-8.04748e-05
0.00873151
-7.66018e-05
0.00874087
-7.2619e-05
0.00874966
-6.85314e-05
0.00875786
-6.43505e-05
0.00876546
-6.00864e-05
0.00877246
-5.57487e-05
0.00877884
-5.13472e-05
0.00878461
-4.68922e-05
0.00878975
-4.23942e-05
0.00879426
-3.78634e-05
0.00879815
-3.33106e-05
0.00880142
-2.87463e-05
0.00880405
-2.41809e-05
0.00880607
-1.9625e-05
0.00880746
-1.50887e-05
0.00880824
-1.05821e-05
0.00880842
-6.11492e-06
0.00880799
-1.69664e-06
0.00880698
2.66377e-06
0.00880538
6.95773e-06
0.00880321
1.11772e-05
0.00880049
1.53147e-05
0.00879722
1.93632e-05
0.00879342
2.33167e-05
0.00878911
2.71693e-05
0.00878429
3.09162e-05
0.00877898
3.45531e-05
0.0087732
3.80766e-05
0.00876697
4.14838e-05
0.00876029
4.47728e-05
0.0087532
4.79421e-05
0.00874569
5.09911e-05
0.0087378
5.392e-05
0.00872953
5.67294e-05
0.0087209
5.9421e-05
0.00871193
6.19967e-05
0.00870263
6.44594e-05
0.00869301
6.68124e-05
0.0086831
6.90597e-05
0.0086729
7.1206e-05
0.00866243
7.32562e-05
0.0086517
7.52161e-05
0.00864073
7.70919e-05
0.00862951
7.88901e-05
0.00861807
8.06179e-05
8.2283e-05
0.00851618
-9.48904e-05
0.00852627
-9.05712e-05
0.00853582
-8.61448e-05
0.00854479
-8.15953e-05
0.00855319
-7.69292e-05
0.008561
-7.21598e-05
0.00856821
-6.72983e-05
0.00857482
-6.23557e-05
0.00858082
-5.73432e-05
0.0085862
-5.22724e-05
0.00859096
-4.71551e-05
0.0085951
-4.2003e-05
0.00859861
-3.68281e-05
0.00860151
-3.16424e-05
0.00860379
-2.64576e-05
0.00860545
-2.12854e-05
0.0086065
-1.61376e-05
0.00860694
-1.10252e-05
0.00860678
-5.95926e-06
0.00860604
-9.50367e-07
0.00860471
3.9914e-06
0.00860281
8.85646e-06
0.00860035
1.36358e-05
0.00859735
1.83211e-05
0.0085938
2.29046e-05
0.00858974
2.73794e-05
0.00858517
3.17392e-05
0.00858011
3.59786e-05
0.00857457
4.00928e-05
0.00856857
4.40781e-05
0.00856212
4.79313e-05
0.00855524
5.16503e-05
0.00854795
5.52335e-05
0.00854026
5.86803e-05
0.00853219
6.19909e-05
0.00852375
6.51662e-05
0.00851497
6.82079e-05
0.00850585
7.11184e-05
0.0084964
7.39008e-05
0.00848666
7.65589e-05
0.00847662
7.90973e-05
0.0084663
8.1521e-05
0.00845573
8.38358e-05
0.00844489
8.6048e-05
0.00843382
8.81647e-05
0.00842252
9.01931e-05
0.00841099
9.21414e-05
9.40181e-05
0.00832635
-0.000105136
0.00833605
-0.000100269
0.00834519
-9.52847e-05
0.00835376
-9.01647e-05
0.00836175
-8.49173e-05
0.00836915
-7.95575e-05
0.00837595
-7.40979e-05
0.00838214
-6.85504e-05
0.00838772
-6.29278e-05
0.0083927
-5.7243e-05
0.00839705
-5.1509e-05
0.00840079
-4.5739e-05
0.0084039
-3.99463e-05
0.00840641
-3.41439e-05
0.00840829
-2.83452e-05
0.00840957
-2.25631e-05
0.00841024
-1.68104e-05
0.00841032
-1.10995e-05
0.0084098
-5.44264e-06
0.0084087
1.48599e-07
0.00840703
5.66308e-06
0.0084048
1.10902e-05
0.00840201
1.64202e-05
0.00839869
2.16437e-05
0.00839484
2.67525e-05
0.00839048
3.17388e-05
0.00838563
3.65958e-05
0.00838029
4.13176e-05
0.00837448
4.58991e-05
0.00836822
5.03362e-05
0.00836153
5.46255e-05
0.00835441
5.87645e-05
0.0083469
6.27519e-05
0.00833899
6.6587e-05
0.00833071
7.02699e-05
0.00832207
7.38018e-05
0.0083131
7.71846e-05
0.0083038
8.04208e-05
0.00829418
8.35142e-05
0.00828427
8.64688e-05
0.00827408
8.92896e-05
0.00826362
9.19824e-05
0.0082529
9.45535e-05
0.00824194
9.70099e-05
0.00823074
9.93593e-05
0.00821933
0.00010161
0.0082077
0.000103771
0.000105851
0.0081414
-0.000114974
0.00815068
-0.000109553
0.0081594
-0.000104004
0.00816754
-9.83079e-05
0.0081751
-9.24754e-05
0.00818206
-8.65225e-05
0.00818843
-8.04628e-05
0.00819419
-7.43098e-05
0.00819934
-6.80773e-05
0.00820387
-6.17795e-05
0.0082078
-5.54308e-05
0.0082111
-4.90456e-05
0.00821379
-4.26385e-05
0.00821587
-3.62239e-05
0.00821735
-2.98163e-05
0.00821821
-2.34299e-05
0.00821848
-1.70786e-05
0.00821816
-1.07762e-05
0.00821725
-4.53582e-06
0.00821577
1.62982e-06
0.00821372
7.70862e-06
0.00821112
1.36891e-05
0.00820798
1.95605e-05
0.00820431
2.53129e-05
0.00820013
3.09372e-05
0.00819544
3.64252e-05
0.00819027
4.17695e-05
0.00818462
4.69636e-05
0.00817852
5.20023e-05
0.00817198
5.6881e-05
0.00816501
6.15961e-05
0.00815762
6.61453e-05
0.00814985
7.05268e-05
0.0081417
7.47401e-05
0.00813318
7.87855e-05
0.00812432
8.26642e-05
0.00811512
8.63784e-05
0.00810561
8.9931e-05
0.0080958
9.33258e-05
0.0080857
9.65676e-05
0.00807533
9.96618e-05
0.0080647
0.000102615
0.00805382
0.000105433
0.00804271
0.000108125
0.00803137
0.000110698
0.00801982
0.000113161
0.00800806
0.000115525
0.0001178
0.00796108
-0.000124387
0.00796993
-0.000118403
0.00797821
-0.000112283
0.00798591
-0.000106005
0.00799302
-9.95829e-05
0.00799953
-9.30332e-05
0.00800543
-8.6371e-05
0.00801074
-7.9611e-05
0.00801543
-7.27681e-05
0.0080195
-6.58579e-05
0.00802297
-5.88959e-05
0.00802582
-5.18978e-05
0.00802806
-4.48794e-05
0.0080297
-3.78565e-05
0.00803072
-3.08446e-05
0.00803115
-2.38592e-05
0.00803099
-1.69155e-05
0.00803024
-1.00281e-05
0.00802892
-3.2114e-06
0.00802703
3.52091e-06
0.00802458
1.01558e-05
0.00802159
1.66809e-05
0.00801806
2.30848e-05
0.00801402
2.93567e-05
0.00800947
3.54869e-05
0.00800443
4.14666e-05
0.00799891
4.7288e-05
0.00799293
5.29443e-05
0.0079865
5.84297e-05
0.00797964
6.37395e-05
0.00797237
6.88701e-05
0.0079647
7.38187e-05
0.00795664
7.85839e-05
0.00794821
8.3165e-05
0.00793944
8.75624e-05
0.00793032
9.17776e-05
0.00792089
9.58128e-05
0.00791115
9.96714e-05
0.00790112
0.000103358
0.00789081
0.000106877
0.00788024
0.000110234
0.00786941
0.000113437
0.00785835
0.000116493
0.00784707
0.000119409
0.00783557
0.000122196
0.00782387
0.000124864
0.00781197
0.000127421
0.00012988
0.00778519
-0.000133358
0.00779359
-0.000126802
0.00780141
-0.000120102
0.00780864
-0.000113236
0.00781528
-0.000106219
0.00782131
-9.90682e-05
0.00782674
-9.18006e-05
0.00783156
-8.44316e-05
0.00783577
-7.69776e-05
0.00783937
-6.9455e-05
0.00784236
-6.18807e-05
0.00784473
-5.42717e-05
0.00784649
-4.66449e-05
0.00784766
-3.90171e-05
0.00784822
-3.14053e-05
0.00784818
-2.38261e-05
0.00784756
-1.62956e-05
0.00784636
-8.82976e-06
0.0078446
-1.44383e-06
0.00784227
5.84752e-06
0.0078394
1.30303e-05
0.00783599
2.00915e-05
0.00783205
2.70187e-05
0.00782761
3.38006e-05
0.00782267
4.04268e-05
0.00781725
4.68882e-05
0.00781136
5.31763e-05
0.00780502
5.92841e-05
0.00779824
6.52055e-05
0.00779105
7.09356e-05
0.00778345
7.64706e-05
0.00777546
8.18077e-05
0.00776709
8.69454e-05
0.00775838
9.18831e-05
0.00774932
9.66213e-05
0.00773993
0.000101162
0.00773024
0.000105507
0.00772025
0.000109661
0.00770998
0.000113627
0.00769945
0.000117412
0.00768866
0.000121022
0.00767763
0.000124464
0.00766638
0.000127746
0.00765491
0.000130877
0.00764324
0.000133867
0.00763137
0.000136727
0.00761933
0.000139467
0.000142099
0.00761352
-0.000141865
0.00762145
-0.000134729
0.00762879
-0.000127441
0.00763553
-0.00011998
0.00764168
-0.000112362
0.00764721
-0.000104606
0.00765214
-9.67299e-05
0.00765646
-8.87498e-05
0.00766017
-8.06835e-05
0.00766326
-7.25485e-05
0.00766574
-6.43628e-05
0.00766762
-5.61445e-05
0.00766888
-4.79118e-05
0.00766955
-3.96827e-05
0.00766962
-3.14752e-05
0.0076691
-2.33071e-05
0.007668
-1.51956e-05
0.00766633
-7.1576e-06
0.00766409
7.90539e-07
0.00766131
8.63327e-06
0.00765798
1.63558e-05
0.00765413
2.39442e-05
0.00764976
3.13855e-05
0.00764489
3.86677e-05
0.00763954
4.57799e-05
0.00763372
5.27124e-05
0.00762744
5.94566e-05
0.00762072
6.60048e-05
0.00761357
7.2351e-05
0.00760602
7.84898e-05
0.00759807
8.44175e-05
0.00758975
9.01313e-05
0.00758106
9.56296e-05
0.00757203
0.000100912
0.00756268
0.000105979
0.007553
0.000110833
0.00754304
0.000115476
0.00753278
0.000119913
0.00752226
0.000124147
0.00751149
0.000128186
0.00750047
0.000132037
0.00748923
0.000135706
0.00747778
0.000139202
0.00746612
0.000142536
0.00745427
0.000145717
0.00744224
0.000148757
0.00743004
0.000151668
0.000154462
0.00744587
-0.000149889
0.0074533
-0.000142163
0.00746014
-0.000134279
0.00746637
-0.000126216
0.007472
-0.000117991
0.00747702
-0.000109626
0.00748143
-0.000101137
0.00748523
-9.25443e-05
0.00748841
-8.38644e-05
0.00749097
-7.51169e-05
0.00749293
-6.63206e-05
0.00749428
-5.74947e-05
0.00749503
-4.86586e-05
0.00749518
-3.98315e-05
0.00749474
-3.10325e-05
0.00749371
-2.22804e-05
0.00749211
-1.35935e-05
0.00748994
-4.98987e-06
0.00748722
3.51337e-06
0.00748395
1.18997e-05
0.00748015
2.01536e-05
0.00747584
2.82602e-05
0.00747102
3.62061e-05
0.0074657
4.39785e-05
0.00745992
5.15663e-05
0.00745367
5.8959e-05
0.00744698
6.61478e-05
0.00743986
7.31249e-05
0.00743233
7.98838e-05
0.0074244
8.64193e-05
0.00741609
9.27273e-05
0.00740741
9.88051e-05
0.00739839
0.000104651
0.00738904
0.000110265
0.00737937
0.000115648
0.0073694
0.000120802
0.00735915
0.00012573
0.00734862
0.000130437
0.00733784
0.000134927
0.00732682
0.000139207
0.00731557
0.000143284
0.00730411
0.000147168
0.00729245
0.000150866
0.0072806
0.000154389
0.00726856
0.000157748
0.00725637
0.000160956
0.00724401
0.000164024
0.000166966
0.00728203
-0.000157406
0.00728895
-0.000149082
0.00729526
-0.000140594
0.00730097
-0.000131921
0.00730606
-0.000123085
0.00731054
-0.000114106
0.00731441
-0.000105003
0.00731766
-9.57943e-05
0.00732029
-8.65001e-05
0.00732232
-7.71399e-05
0.00732373
-6.77338e-05
0.00732454
-5.83021e-05
0.00732475
-4.88652e-05
0.00732436
-3.94435e-05
0.00732338
-3.00571e-05
0.00732183
-2.0726e-05
0.0073197
-1.14696e-05
0.00731702
-2.30679e-06
0.00731379
6.74426e-06
0.00731002
1.56662e-05
0.00730573
2.44427e-05
0.00730094
3.30583e-05
0.00729564
4.14988e-05
0.00728987
4.9751e-05
0.00728363
5.78031e-05
0.00727695
6.56446e-05
0.00726983
7.32661e-05
0.0072623
8.06596e-05
0.00725436
8.78185e-05
0.00724604
9.47374e-05
0.00723736
0.000101412
0.00722832
0.000107841
0.00721895
0.000114021
0.00720926
0.000119953
0.00719927
0.000125638
0.007189
0.000131078
0.00717845
0.000136277
0.00716765
0.000141239
0.00715661
0.00014597
0.00714534
0.000150477
0.00713386
0.000154767
0.00712217
0.00015885
0.0071103
0.000162736
0.00709826
0.000166435
0.00708605
0.000169958
0.00707368
0.000173319
0.00706118
0.000176531
0.000179608
0.00712182
-0.000164394
0.0071282
-0.000155464
0.00713397
-0.000146364
0.00713913
-0.000137076
0.00714367
-0.000127623
0.00714759
-0.000118026
0.00715089
-0.000108306
0.00715358
-9.84806e-05
0.00715565
-8.85713e-05
0.00715711
-7.85986e-05
0.00715796
-6.85837e-05
0.0071582
-5.8548e-05
0.00715785
-4.8513e-05
0.00715691
-3.85001e-05
0.00715538
-2.85308e-05
0.00715328
-1.86258e-05
0.00715062
-8.80585e-06
0.0071474
9.09336e-07
0.00714364
1.05006e-05
0.00713936
1.99499e-05
0.00713456
2.92399e-05
0.00712927
3.83546e-05
0.00712349
4.72792e-05
0.00711724
5.6e-05
0.00711054
6.45048e-05
0.0071034
7.27826e-05
0.00709584
8.08239e-05
0.00708788
8.86206e-05
0.00707953
9.61657e-05
0.00707082
0.000103454
0.00706175
0.000110482
0.00705234
0.000117246
0.00704262
0.000123745
0.00703259
0.00012998
0.00702228
0.000135952
0.00701169
0.000141663
0.00700085
0.000147117
0.00698977
0.000152319
0.00697847
0.000157275
0.00696695
0.000161994
0.00695523
0.000166482
0.00694333
0.00017075
0.00693126
0.000174808
0.00691903
0.000178667
0.00690665
0.00018234
0.00689413
0.00018584
0.00688148
0.00018918
0.000192377
0.00696506
-0.000170831
0.00697088
-0.000161287
0.00697609
-0.000151567
0.00698067
-0.000141659
0.00698463
-0.000131585
0.00698797
-0.000121368
0.0069907
-0.000111028
0.0069928
-0.000100585
0.00699429
-9.00601e-05
0.00699517
-7.94754e-05
0.00699544
-6.8853e-05
0.0069951
-5.82154e-05
0.00699417
-4.75851e-05
0.00699266
-3.69849e-05
0.00699057
-2.6437e-05
0.0069879
-1.59637e-05
0.00698468
-5.58635e-06
0.00698092
4.67408e-06
0.00697662
1.47976e-05
0.00697181
2.47653e-05
0.00696649
3.45592e-05
0.00696068
4.41625e-05
0.0069544
5.356e-05
0.00694766
6.27375e-05
0.00694048
7.16823e-05
0.00693288
8.03832e-05
0.00692488
8.88305e-05
0.00691648
9.70159e-05
0.00690771
0.000104933
0.00689859
0.000112575
0.00688914
0.00011994
0.00687936
0.000127024
0.00686928
0.000133826
0.00685891
0.000140348
0.00684827
0.00014659
0.00683738
0.000152555
0.00682625
0.000158248
0.00681489
0.000163674
0.00680333
0.000168839
0.00679157
0.000173753
0.00677963
0.000178423
0.00676752
0.000182859
0.00675525
0.000187073
0.00674285
0.000191076
0.0067303
0.000194882
0.00671764
0.000198505
0.00670486
0.000201959
0.00020526
0.00681157
-0.000176692
0.00681681
-0.000166529
0.00682143
-0.000156185
0.00682542
-0.000145651
0.00682879
-0.000134953
0.00683153
-0.000124114
0.00683366
-0.000113152
0.00683516
-0.000102091
0.00683605
-9.09505e-05
0.00683633
-7.97546e-05
0.006836
-6.85263e-05
0.00683508
-5.7289e-05
0.00683356
-4.60667e-05
0.00683146
-3.48829e-05
0.00682878
-2.37614e-05
0.00682554
-1.27254e-05
0.00682175
-1.79737e-06
0.00681743
9.00074e-06
0.00681258
1.9648e-05
0.00680722
3.01247e-05
0.00680136
4.04121e-05
0.00679503
5.04928e-05
0.00678824
6.0351e-05
0.00678101
6.99722e-05
0.00677335
7.93434e-05
0.00676528
8.84531e-05
0.00675682
9.72914e-05
0.00674798
0.00010585
0.00673879
0.000114122
0.00672927
0.000122102
0.00671942
0.000129787
0.00670927
0.000137174
0.00669883
0.000144262
0.00668813
0.000151053
0.00667717
0.000157547
0.00666597
0.000163749
0.00665456
0.000169663
0.00664294
0.000175295
0.00663112
0.000180653
0.00661913
0.000185743
0.00660698
0.000190577
0.00659467
0.000195165
0.00658223
0.000199518
0.00656966
0.000203649
0.00655697
0.000207571
0.00654417
0.0002113
0.00653128
0.000214851
0.00021824
0.00666117
-0.000181957
0.00666581
-0.00017117
0.00666983
-0.000160196
0.00667321
-0.000149033
0.00667597
-0.00013771
0.0066781
-0.000126246
0.00667961
-0.000114663
0.0066805
-0.000102983
0.00668078
-9.1228e-05
0.00668045
-7.94222e-05
0.00667951
-6.75898e-05
0.00667798
-5.57555e-05
0.00667585
-4.39444e-05
0.00667315
-3.21815e-05
0.00666988
-2.04915e-05
0.00666606
-8.89891e-06
0.00666169
2.57264e-06
0.00665679
1.39003e-05
0.00665137
2.50621e-05
0.00664546
3.60375e-05
0.00663907
4.68071e-05
0.0066322
5.7353e-05
0.0066249
6.76588e-05
0.00661716
7.77097e-05
0.00660901
8.74924e-05
0.00660047
9.69952e-05
0.00659155
0.000106208
0.00658228
0.000115123
0.00657267
0.000123733
0.00656274
0.000132034
0.0065525
0.00014002
0.00654198
0.000147692
0.0065312
0.000155047
0.00652016
0.000162088
0.0065089
0.000168816
0.00649741
0.000175236
0.00648572
0.000181352
0.00647384
0.000187172
0.00646179
0.000192702
0.00644959
0.000197952
0.00643723
0.000202931
0.00642475
0.000207652
0.00641214
0.000212126
0.00639942
0.000216367
0.0063866
0.000220388
0.0063737
0.000224207
0.00636071
0.000227837
0.000231298
0.00651372
-0.000186605
0.00651774
-0.000175191
0.00652113
-0.000163584
0.00652389
-0.000151791
0.00652602
-0.00013984
0.00652752
-0.000127752
0.00652841
-0.000115548
0.00652867
-0.000103249
0.00652832
-9.08804e-05
0.00652737
-7.84662e-05
0.00652581
-6.60319e-05
0.00652366
-5.36035e-05
0.00652092
-4.12074e-05
0.00651761
-2.88699e-05
0.00651374
-1.6617e-05
0.00650931
-4.47446e-06
0.00650435
7.53289e-06
0.00649887
1.93811e-05
0.00649288
3.10474e-05
0.00648641
4.25104e-05
0.00647947
5.37499e-05
0.00647207
6.47476e-05
0.00646425
7.54867e-05
0.006456
8.59519e-05
0.00644737
9.61298e-05
0.00643835
0.000106009
0.00642898
0.000115579
0.00641927
0.000124832
0.00640925
0.000133761
0.00639892
0.000142362
0.00638831
0.000150632
0.00637743
0.000158568
0.00636631
0.000166171
0.00635495
0.000173441
0.00634339
0.000180384
0.00633162
0.000187001
0.00631967
0.0001933
0.00630756
0.000199287
0.00629529
0.00020497
0.00628288
0.000210359
0.00627035
0.000215466
0.0062577
0.000220301
0.00624495
0.000224877
0.0062321
0.00022921
0.00621918
0.000233313
0.00620618
0.000237202
0.00619313
0.000240895
0.00024441
0.00636905
-0.000190617
0.00637244
-0.000178574
0.00637519
-0.000166333
0.0063773
-0.000153909
0.00637879
-0.000141332
0.00637966
-0.00012862
0.00637991
-0.000115794
0.00637954
-0.000102878
0.00637855
-8.98973e-05
0.00637697
-7.68765e-05
0.00637478
-6.38428e-05
0.006372
-5.08235e-05
0.00636864
-3.78464e-05
0.0063647
-2.49393e-05
0.00636022
-1.21296e-05
0.00635519
5.55559e-07
0.00634963
1.30902e-05
0.00634356
2.54492e-05
0.006337
3.7609e-05
0.00632996
4.95472e-05
0.00632247
6.12431e-05
0.00631454
7.26779e-05
0.00630619
8.38343e-05
0.00629745
9.46971e-05
0.00628832
0.000105253
0.00627884
0.000115489
0.00626903
0.000125397
0.00625889
0.000134969
0.00624845
0.000144197
0.00623774
0.000153078
0.00622676
0.000161609
0.00621554
0.000169789
0.00620409
0.000177618
0.00619244
0.000185098
0.00618059
0.000192232
0.00616856
0.000199027
0.00615637
0.000205487
0.00614404
0.000211621
0.00613157
0.000217437
0.00611899
0.000222946
0.00610629
0.000228159
0.00609351
0.000233089
0.00608063
0.000237749
0.00606769
0.000242154
0.00605468
0.00024632
0.00604162
0.000250263
0.00602852
0.000254001
0.000257553
0.00622703
-0.000193977
0.00622976
-0.000181306
0.00623186
-0.00016843
0.00623333
-0.000155377
0.00623417
-0.000142174
0.00623439
-0.000128839
0.00623399
-0.000115394
0.00623297
-0.000101862
0.00623134
-8.82704e-05
0.00622911
-7.46453e-05
0.00622628
-6.10148e-05
0.00622287
-4.74081e-05
0.00621888
-3.38544e-05
0.00621432
-2.03831e-05
0.00620921
-7.02341e-06
0.00620357
6.19639e-06
0.00619742
1.92489e-05
0.00619076
3.21079e-05
0.00618362
4.47488e-05
0.00617602
5.71485e-05
0.00616797
6.92859e-05
0.00615951
8.11415e-05
0.00615065
9.2698e-05
0.0061414
0.00010394
0.0061318
0.000114854
0.00612186
0.000125428
0.00611161
0.000135653
0.00610105
0.000145521
0.00609022
0.000155027
0.00607914
0.000164166
0.00606781
0.000172937
0.00605626
0.000181338
0.00604451
0.00018937
0.00603257
0.000197037
0.00602046
0.000204342
0.00600819
0.000211291
0.00599579
0.000217891
0.00598326
0.00022415
0.00597062
0.000230079
0.00595788
0.000235687
0.00594505
0.000240987
0.00593215
0.000245991
0.00591918
0.000250716
0.00590616
0.000255175
0.0058931
0.000259385
0.00588
0.000263363
0.00586687
0.000267128
0.0002707
0.00608752
-0.00019667
0.00608959
-0.000183374
0.00609102