/*--------------------------------*- C++ -*----------------------------------*\
  =========                 |
  \\      /  F ield         | OpenFOAM: The Open Source CFD Toolbox
   \\    /   O peration     | Website:  https://openfoam.org
    \\  /    A nd           | Version:  7
     \\/     M anipulation  |
\*---------------------------------------------------------------------------*/
FoamFile
{
    version     2.0;
    format      ascii;
    class       surfaceScalarField;
    location    "10";
    object      phi;
}
// * * * * * * * * * * * * * * * * * * * * * * * * * * * * * * * * * * * * * //

dimensions      [0 3 -1 0 0 0 0];

internalField   nonuniform List<scalar> 
11850
(
-5.04694e-05
5.04689e-05
5.10154e-10
-0.000146784
9.63137e-05
1.03308e-09
-0.000271427
0.000124641
1.32228e-09
-0.000416358
0.00014493
1.49553e-09
-0.000579989
0.000163629
1.64203e-09
-0.000763168
0.000183178
1.78361e-09
0.000204434
1.91314e-09
-4.90969e-05
9.95658e-05
-0.000143003
0.00019022
-0.000264254
0.000245893
-0.000404544
0.00028522
-0.000561812
0.000320897
-0.000736328
0.000357693
0.000397224
-4.64471e-05
0.000146013
-0.000135661
0.000279434
-0.000250295
0.000360526
-0.000381543
0.000416468
-0.000526457
0.000465811
-0.000684225
0.000515462
0.00056762
-4.26774e-05
0.00018869
-0.000125148
0.000361904
-0.000230248
0.000465626
-0.000348508
0.000534727
-0.000475776
0.00059308
-0.000609792
0.000649478
0.000706517
-3.80096e-05
0.0002267
-0.000112012
0.000435907
-0.000205101
0.000558716
-0.000307053
0.000636679
-0.00041233
0.000698357
-0.000517024
0.000754172
0.00080695
-3.27141e-05
0.000259414
-9.6926e-05
0.000500119
-0.000176059
0.000637848
-0.000259129
0.000719749
-0.000339165
0.000778394
-0.00041058
0.000825586
-0.000467914
0.000864285
0.000891832
-2.70904e-05
0.000286504
-8.06387e-05
0.000553667
-0.000144458
0.000701667
-0.000206873
0.000782164
-0.000259548
0.000831069
-0.000295327
0.000861365
-0.000307152
0.000876109
0.000872094
-2.1446e-05
0.00030795
-6.39241e-05
0.000596145
-0.000111674
0.000749417
-0.000152443
0.000822934
-0.000176688
0.000855315
-0.000175877
0.000860554
-0.000141592
0.000841824
0.000795525
-1.60741e-05
0.000324025
-4.75251e-05
0.000627596
-7.90181e-05
0.00078091
-9.7846e-05
0.000841762
-9.34429e-05
0.000850911
-5.60964e-05
0.000823207
2.3779e-05
0.000761948
0.00066326
-1.12328e-05
0.000335257
-3.2098e-05
0.000648461
-4.76323e-05
0.000796444
-4.47544e-05
0.000838884
-1.20185e-05
0.000818176
6.13748e-05
0.000749814
0.00018617
0.000637153
0.000476019
-7.12546e-06
0.000342383
-1.81568e-05
0.000659492
-1.83826e-05
0.00079667
5.67967e-06
0.000814822
6.63389e-05
0.000757516
0.0001756
0.000640553
0.000345673
0.00046708
0.00023242
-3.88544e-06
0.000346268
-6.00705e-06
0.000661614
8.24418e-06
0.000782419
5.29892e-05
0.000770076
0.000141616
0.000668889
0.000287753
0.000494416
0.000505715
0.000249119
0.000810592
-7.24581e-05
-0.000478976
-1.56868e-06
0.000347837
4.17896e-06
0.000655866
3.22129e-05
0.000754385
9.75667e-05
0.000704723
0.000215267
0.00055119
0.000401338
0.000308344
0.00067302
-2.25636e-05
0.00104817
-0.000447604
-0.000974241
-9.80257e-08
0.000347935
1.25461e-05
0.000643222
5.40076e-05
0.000712923
0.000140739
0.000617991
0.000290294
0.000401635
0.000522064
7.65743e-05
0.00085674
-0.000357239
0.00131396
-0.000904819
-0.00156848
5.89717e-07
0.000347345
1.95869e-05
0.000624225
7.46664e-05
0.000657844
0.00018479
0.000507867
0.000371123
0.000215302
0.000657209
-0.000209512
0.00106648
-0.000766508
0.00161689
-0.00145523
-0.00226572
7.54329e-07
0.000346591
2.59217e-05
0.000599058
9.57229e-05
0.000588043
0.00023284
0.00037075
0.000463169
-1.50269e-05
0.000814294
-0.000560637
0.00130936
-0.00126157
0.00195795
-0.00210383
0.00274853
-0.0030563
-0.00407402
6.68436e-07
0.000345922
3.24041e-05
0.000567322
0.000119124
0.000501323
0.00028858
0.000201293
0.000572069
-0.000298515
0.000999203
-0.000987771
0.00158661
-0.00184898
0.00232655
-0.00284376
0.00318367
-0.00391342
-0.0049927
6.34385e-07
0.000345288
4.00302e-05
0.000527926
0.000147074
0.000394279
0.000355871
-7.50398e-06
0.00070258
-0.000645225
0.00121393
-0.00149912
0.00189087
-0.00252592
0.00270042
-0.00365331
0.0035835
-0.0047965
0.00447291
-0.00588211
-0.00686133
9.45766e-07
0.000344342
4.98549e-05
0.000479017
0.000181837
0.000262297
0.000438197
-0.000263863
0.000857274
-0.0010643
0.00145458
-0.00209642
0.00220575
-0.0032771
0.00305044
-0.004498
0.00391473
-0.00566079
0.00473466
-0.00670205
-0.00759711
1.91061e-06
0.000342432
6.2908e-05
0.00041802
0.000225521
9.96838e-05
0.000538042
-0.000576384
0.0010352
-0.00156146
0.00171059
-0.00277181
0.00250878
-0.00407529
0.00334881
-0.00533803
0.00415656
-0.00646854
0.00488421
-0.0074297
0.00551393
-0.00822682
-0.00889037
4.02275e-06
0.000338409
8.02193e-05
0.000341823
0.00027968
-9.97769e-05
0.00065562
-0.000952324
0.00122992
-0.00213576
0.00196444
-0.00350632
0.00277512
-0.00488598
0.00357435
-0.00613725
0.0043017
-0.0071959
0.00493139
-0.00805939
0.00546514
-0.00876058
-0.00934515
7.15847e-06
0.000331251
0.000102309
0.000246673
0.000345644
-0.000343112
0.000790255
-0.00139694
0.00143339
-0.00277889
0.00220064
-0.00427358
0.00299052
-0.00567586
0.00372399
-0.00687072
0.00436216
-0.00783407
0.00490019
-0.00859742
0.00535351
-0.0092139
0.00574476
-0.00973641
-0.0102063
1.16969e-05
0.000319554
0.000129937
0.000128432
0.000423628
-0.000636803
0.000937243
-0.00191055
0.00163224
-0.00347389
0.00240237
-0.0050437
0.00314462
-0.00641811
0.00379937
-0.00752547
0.00435025
-0.00838495
0.00480851
-0.00905567
0.00519711
-0.0096025
0.00553961
-0.0100789
-0.0105215
1.77545e-05
0.000301799
0.000163513
-1.73261e-05
0.000512743
-0.000986033
0.00108965
-0.00248746
0.00181359
-0.00419783
0.00255924
-0.00578936
0.00323668
-0.00709554
0.00380987
-0.00809866
0.00428156
-0.00885664
0.00467333
-0.00944745
0.00501082
-0.00993999
0.00531555
-0.0103836
0.0056025
-0.0108084
-0.0112304
2.54114e-05
0.000276388
0.000203227
-0.000195142
0.000610705
-0.00139351
0.00123887
-0.00311562
0.00196684
-0.0049258
0.00266707
-0.00648959
0.0032717
-0.00770017
0.00376719
-0.00859416
0.00417032
-0.00925977
0.00450795
-0.00978507
0.004805
-0.010237
0.0050796
-0.0106582
0.00534296
-0.0110718
0.00560114
-0.0114885
-0.0119118
3.4744e-05
0.000241644
0.000248968
-0.000409366
0.00071382
-0.00185836
0.00137613
-0.00377793
0.00208533
-0.005635
0.00272678
-0.00713104
0.0032576
-0.00823099
0.00368285
-0.00901941
0.00402824
-0.00960516
0.00432204
-0.0100789
0.00458651
-0.0105015
0.00483599
-0.0109077
0.00507851
-0.0113143
0.00531806
-0.0117281
0.00555696
-0.0121507
-0.0125828
4.58576e-05
0.000195786
0.000300171
-0.00066368
0.000817293
-0.00237548
0.00149404
-0.00445467
0.00216648
-0.00630744
0.00274263
-0.00770719
0.00320314
-0.0086915
0.00356694
-0.00938321
0.00386435
-0.00990257
0.0041224
-0.0103369
0.00435976
-0.0107389
0.00458727
-0.0111352
0.00481043
-0.0115375
0.0050319
-0.0119496
0.0052532
-0.012372
0.00547519
-0.0128048
-0.0132458
5.89047e-05
0.000136881
0.000355698
-0.000960473
0.000915846
-0.00293563
0.00158761
-0.00512643
0.002211
-0.00693083
0.00272047
-0.00821666
0.00311665
-0.00908767
0.00342773
-0.00969429
0.00368532
-0.0101602
0.00391361
-0.0105652
0.00412752
-0.0109528
0.00433491
-0.0113426
0.00453948
-0.0117421
0.004743
-0.0121531
0.00494661
-0.0125756
0.00515103
-0.0130092
0.00535807
-0.0134529
-0.0139099
7.4062e-05
6.28194e-05
0.000413837
-0.00130025
0.00100445
-0.00352625
0.00165446
-0.00577644
0.0022217
-0.00749807
0.00266661
-0.00866157
0.00300543
-0.00942649
0.00327171
-0.00996058
0.00349594
-0.0103844
0.00369872
-0.010768
0.00389151
-0.0111456
0.00407983
-0.0115309
0.00426615
-0.0119284
0.00445169
-0.0123386
0.00463733
-0.0127613
0.00482388
-0.0131958
0.00501269
-0.0136417
0.00520369
-0.0141009
0.00540197
-0.0145646
-0.0150692
9.14439e-05
-2.86245e-05
0.000472455
-0.00168126
0.00107904
-0.00413283
0.00169443
-0.00639183
0.00220255
-0.00800619
0.00258705
-0.00904607
0.00287556
-0.009715
0.00310377
-0.0101888
0.00329954
-0.0105802
0.00347973
-0.0109482
0.00365282
-0.0113187
0.00382263
-0.0117007
0.00399079
-0.0120965
0.00415822
-0.0125061
0.00432566
-0.0129287
0.00449388
-0.013364
0.00466405
-0.0138118
0.00483639
-0.0142732
0.00501471
-0.0147429
-0.0152476
0.00519306
0.000110977
-0.000139601
0.000529203
-0.00209949
0.00113692
-0.00474055
0.00170888
-0.00696379
0.0021579
-0.00845521
0.00248718
-0.00937535
0.00273191
-0.00995973
0.00292754
-0.0103844
0.00309845
-0.0107511
0.00325795
-0.0111077
0.00341218
-0.0114729
0.00356372
-0.0118523
0.00371371
-0.0122465
0.00386287
-0.0126552
0.00401185
-0.0130777
0.0041614
-0.0135136
0.00431249
-0.0139629
0.00446551
-0.0144263
0.00462351
-0.014901
-0.0154056
0.00478154
0.000132303
-0.000271904
0.000581714
-0.0025489
0.00117688
-0.00533572
0.0017001
-0.00748701
0.00209205
-0.00884716
0.00237159
-0.0096549
0.0025783
-0.0101664
0.00274564
-0.0105518
0.00289422
-0.0108996
0.00303426
-0.0112477
0.0031701
-0.0116087
0.00330347
-0.0119856
0.00343521
-0.0123783
0.00356592
-0.0127859
0.00369621
-0.013208
0.00382676
-0.0136441
0.00395838
-0.0140945
0.00409162
-0.0145595
0.00422871
-0.015038
-0.0155428
0.00436589
0.000154781
-0.000426685
0.000627775
-0.00302189
0.00119896
-0.0059069
0.00167081
-0.00795886
0.00200894
-0.00918528
0.0022441
-0.00989006
0.00241763
-0.01034
0.00255996
-0.0106941
0.00268797
-0.0110277
0.00280929
-0.011369
0.00292696
-0.0117264
0.00304218
-0.0121009
0.00315558
-0.0124917
0.00326769
-0.012898
0.00337906
-0.0133193
0.00349033
-0.0137554
0.00360217
-0.0142064
0.00371515
-0.0146725
0.00383098
-0.0151539
-0.0156585
0.00394672
0.000177586
-0.000604271
0.000665525
-0.00350983
0.00120401
-0.00644539
0.00162389
-0.00837873
0.00191207
-0.00947347
0.0021078
-0.0100858
0.00225212
-0.0104843
0.00237185
-0.0108138
0.00248044
-0.0111363
0.0025835
-0.0114721
0.00268312
-0.011826
0.00278016
-0.0121979
0.00287513
-0.0125867
0.0029685
-0.0129914
0.00306078
-0.0134116
0.00315253
-0.0138471
0.0032443
-0.0142981
0.00333668
-0.0147649
0.00343089
-0.0152481
-0.0157524
0.00352476
0.000199848
-0.000804119
0.000693635
-0.00400362
0.00119343
-0.00694519
0.00156211
-0.00874741
0.00180446
-0.00971583
0.00196513
-0.0102465
0.00208341
-0.0106026
0.00218227
-0.0109127
0.00227222
-0.0112262
0.00235727
-0.0115571
0.00243889
-0.0119076
0.00251771
-0.0122767
0.00259417
-0.0126631
0.00266869
-0.0130659
0.00274173
-0.0134846
0.00281375
-0.0139192
0.00288524
-0.0143696
0.00295674
-0.0148363
0.00302907
-0.0153204
-0.0158239
0.00310064
0.000220749
-0.00102487
0.000711402
-0.00449427
0.00116884
-0.00740263
0.00148807
-0.00906664
0.00168864
-0.00991639
0.00181803
-0.0103759
0.00191273
-0.0106973
0.00199195
-0.0109919
0.00206374
-0.011298
0.00213093
-0.0116243
0.00219456
-0.0119713
0.00225513
-0.0123373
0.00231303
-0.012721
0.00236862
-0.0131215
0.00242229
-0.0135383
0.00247446
-0.0139713
0.0025255
-0.0144207
0.00257589
-0.0148867
0.00262617
-0.0153707
-0.0158729
0.00267516
0.000239548
-0.00126442
0.000718723
-0.00497345
0.00113196
-0.00781587
0.00140414
-0.00933881
0.00156671
-0.010079
0.00166799
-0.0104771
0.00174098
-0.0107702
0.00180143
-0.0110524
0.00185535
-0.0113519
0.00190477
-0.0116738
0.00195043
-0.0120169
0.00199274
-0.0123796
0.00203203
-0.0127603
0.00206863
-0.0131581
0.00210287
-0.0135726
0.00213508
-0.0140035
0.00216556
-0.0144512
0.00219472
-0.0149159
0.00222281
-0.0153988
-0.0158991
0.00224899
0.000255587
-0.00152
0.000715977
-0.00543384
0.00108449
-0.00818439
0.00131236
-0.00956667
0.0014404
-0.010207
0.00151618
-0.0105529
0.00156886
-0.0108229
0.00161111
-0.0110946
0.00164738
-0.0113882
0.00167908
-0.0117055
0.00170679
-0.0120446
0.00173083
-0.0124036
0.00175152
-0.012781
0.00176911
-0.0131757
0.00178388
-0.0135873
0.00179608
-0.0140157
0.00180595
-0.014461
0.00181379
-0.0149237
0.00181967
-0.0154047
-0.0159023
0.00182292
0.000268289
-0.00178829
0.000703873
-0.00586942
0.00102806
-0.00850858
0.00121452
-0.00975313
0.00131112
-0.0103036
0.00136349
-0.0106053
0.0013969
-0.0108563
0.00142136
-0.0111191
0.00144011
-0.0114069
0.00145415
-0.0117195
0.00146393
-0.0120544
0.00146974
-0.0124094
0.00147183
-0.0127831
0.00147042
-0.0131743
0.00146572
-0.0135826
0.00145791
-0.0140079
0.00144716
-0.0144503
0.00143368
-0.0149103
0.00141739
-0.0153884
-0.0158826
0.00139768
0.000277195
-0.00206549
0.000683366
-0.00627559
0.000964189
-0.0087894
0.00111215
-0.00990109
0.00118
-0.0103715
0.00121062
-0.0106359
0.00122553
-0.0108713
0.00123248
-0.011126
0.0012338
-0.0114082
0.00123024
-0.0117159
0.00122215
-0.0120463
0.00120976
-0.0123971
0.0011933
-0.0127666
0.00117294
-0.013154
0.00114881
-0.0135585
0.00112104
-0.0139802
0.00108971
-0.014419
0.00105496
-0.0148755
0.00101656
-0.01535
-0.0158401
0.000974035
0.000280397
-0.00234588
0.000652815
-0.00664801
0.000891152
-0.00902774
0.00100339
-0.0100133
0.00104495
-0.010413
0.0010553
-0.0106462
0.00105243
-0.0108684
0.00104221
-0.0111158
0.00102636
-0.0113924
0.00100541
-0.011695
0.000979661
-0.0120206
0.00094931
-0.0123667
0.000914525
-0.0127318
0.000875422
-0.0131149
0.0008321
-0.0135152
0.000784599
-0.0139326
0.000732978
-0.0143673
0.000677227
-0.0148198
0.000616949
-0.0152897
-0.0157752
0.000552041
0.000280767
-0.00262665
0.000618432
-0.00698567
0.000816358
-0.00922566
0.000895573
-0.0100925
0.000912723
-0.0104302
0.000903679
-0.0106372
0.000883261
-0.010848
0.000855895
-0.0110884
0.000822809
-0.0113593
0.00078441
-0.0116566
0.000740933
-0.0119771
0.00069255
-0.0123183
0.000639387
-0.0126787
0.000581509
-0.013057
0.000518924
-0.0134526
0.000451636
-0.0138654
0.000379739
-0.0142954
0.000302999
-0.014743
0.000221107
-0.0152078
-0.0156877
0.00013359
0.000276965
-0.00290362
0.0005787
-0.00728741
0.000737955
-0.00938492
0.000786504
-0.0101411
0.000780886
-0.0104246
0.000753229
-0.0106095
0.000715574
-0.0108103
0.000671194
-0.011044
0.000620973
-0.0113091
0.000565228
-0.0116008
0.000504139
-0.011916
0.000437825
-0.012252
0.000366382
-0.0126072
0.000289952
-0.0129806
0.000208148
-0.0133708
0.00012122
-0.0137784
2.88946e-05
-0.0142031
-6.84297e-05
-0.0146457
-0.000171246
-0.015105
-0.0155778
-0.000281179
0.000269232
-0.00317285
0.000534517
-0.00755269
0.000656912
-0.00950731
0.000676927
-0.0101611
0.00064992
-0.0103975
0.000604268
-0.0105639
0.00054962
-0.0107557
0.000488359
-0.0109828
0.000421124
-0.0112419
0.000348136
-0.0115279
0.000269576
-0.0118375
0.000185445
-0.0121679
9.57742e-05
-0.0125176
3.11872e-07
-0.0128851
-9.98335e-05
-0.0132706
-0.000205985
-0.0136723
-0.000317893
-0.0140912
-0.000435812
-0.0145278
-0.000560421
-0.0149804
-0.0154464
-0.000691737
0.000257916
-0.00343076
0.000486724
-0.0077815
0.000574094
-0.00959468
0.000567472
-0.0101545
0.000520202
-0.0103503
0.000457044
-0.0105007
0.00038561
-0.0106842
0.000307586
-0.0109048
0.000223479
-0.0111577
0.000133316
-0.0114377
3.72771e-05
-0.0117414
-6.43318e-05
-0.0120663
-0.000171729
-0.0124102
-0.000284861
-0.012772
-0.000404335
-0.0131512
-0.000529724
-0.0135469
-0.000661325
-0.0139596
-0.000799533
-0.0143896
-0.000944915
-0.014835
-0.0152938
-0.00109755
0.000243441
-0.00367421
0.000436101
-0.00797416
0.000490246
-0.00964883
0.000458654
-0.0101229
0.00039205
-0.0102837
0.000311789
-0.0104205
0.000223732
-0.0105962
0.000129031
-0.0108101
2.79367e-05
-0.0110567
-7.88669e-05
-0.0113309
-0.000191754
-0.0116285
-0.00031086
-0.0119472
-0.000436071
-0.012285
-0.000567437
-0.0126406
-0.000705298
-0.0130133
-0.000849638
-0.0134026
-0.00100067
-0.0138086
-0.00115881
-0.0142314
-0.00132455
-0.0146693
-0.0151203
-0.00149811
0.000226269
-0.00390047
0.000383355
-0.00813125
0.000406003
-0.00967148
0.0003509
-0.0100678
0.000265734
-0.0101985
0.000168675
-0.0103234
6.39797e-05
-0.0104915
-4.70894e-05
-0.010699
-0.000164235
-0.0109395
-0.000287932
-0.0112072
-0.000417903
-0.0114986
-0.000554248
-0.0118108
-0.000697001
-0.0121422
-0.000846296
-0.0124913
-0.00100234
-0.0128572
-0.00116533
-0.0132396
-0.00133548
-0.0136384
-0.0015132
-0.0140537
-0.00169893
-0.0144835
-0.0149263
-0.00189292
0.000206867
-0.00410734
0.000329128
-0.00825351
0.000321898
-0.00966425
0.000244555
-0.00999045
0.000141452
-0.0100954
2.74729e-05
-0.0102094
-9.29002e-05
-0.0103711
-0.000220012
-0.0105719
-0.00035374
-0.0108058
-0.000494002
-0.0110669
-0.000640765
-0.0113518
-0.000794119
-0.0116575
-0.000954173
-0.0119821
-0.0011211
-0.0123244
-0.0012951
-0.0126832
-0.00147642
-0.0130583
-0.00166536
-0.0134495
-0.0018623
-0.0138568
-0.00206761
-0.0142782
-0.0147123
-0.00228157
0.000185682
-0.00429302
0.000273999
-0.00834182
0.00023839
-0.00962864
0.000139906
-0.00989197
1.87041e-05
-0.0099742
-0.000110355
-0.0100804
-0.000246916
-0.0102345
-0.000390224
-0.0104286
-0.000540158
-0.0106558
-0.000696751
-0.0109103
-0.000860052
-0.0111885
-0.00103018
-0.0114873
-0.00120728
-0.011805
-0.00139156
-0.0121401
-0.00158323
-0.0124916
-0.00178258
-0.0128589
-0.00198993
-0.0132421
-0.00220572
-0.013641
-0.00243022
-0.0140537
-0.0144789
-0.00266365
0.000163135
-0.00445616
0.000218476
-0.00839716
0.000155866
-0.00956603
3.70584e-05
-0.00977316
-0.000100015
-0.00983713
-0.000245689
-0.0099347
-0.000398152
-0.0100821
-0.000557347
-0.0102694
-0.000723239
-0.01049
-0.000895927
-0.0107376
-0.00107551
-0.0110089
-0.00126215
-0.0113007
-0.00145603
-0.0116112
-0.00165736
-0.0119388
-0.0018664
-0.0122825
-0.00208344
-0.0126419
-0.00230886
-0.0130167
-0.00254311
-0.0134067
-0.00278637
-0.0138105
-0.0142264
-0.0030388
0.000139625
-0.00459578
0.000162988
-0.00842053
7.46477e-05
-0.00947769
-6.31652e-05
-0.00963535
-0.000216691
-0.0096836
-0.000378233
-0.00977316
-0.000546346
-0.00991396
-0.00072117
-0.0100945
-0.000902769
-0.0103084
-0.0010913
-0.0105491
-0.0012869
-0.0108133
-0.00148978
-0.0110978
-0.00170014
-0.0114008
-0.00191823
-0.0117207
-0.00214431
-0.0120564
-0.00237869
-0.0124075
-0.00262181
-0.0127736
-0.00287412
-0.0131544
-0.00313573
-0.0135489
-0.0139555
-0.00340667
0.00011555
-0.00471133
0.000107952
-0.00841293
-6.02905e-06
-0.00936371
-0.000161061
-0.00948032
-0.000330729
-0.00951393
-0.000507795
-0.0095961
-0.000691306
-0.00973045
-0.000881503
-0.00990435
-0.00107854
-0.0101113
-0.00128263
-0.010345
-0.00149397
-0.010602
-0.00171279
-0.010879
-0.00193933
-0.0111743
-0.00217386
-0.0114861
-0.00241665
-0.0118137
-0.00266803
-0.0121561
-0.00292846
-0.0125131
-0.00319843
-0.0128844
-0.00347797
-0.0132693
-0.0136665
-0.00376695
9.12621e-05
-0.0048026
5.4063e-05
-0.00837573
-8.23352e-05
-0.00922731
-0.000256474
-0.00930618
-0.000441945
-0.00932846
-0.000634238
-0.0094038
-0.000832869
-0.00953182
-0.00103816
-0.00969906
-0.00125036
-0.00989912
-0.00146972
-0.0101257
-0.0016965
-0.0103752
-0.00193095
-0.0106446
-0.00217335
-0.0109319
-0.00242399
-0.0112355
-0.00268315
-0.0115545
-0.00295115
-0.0118881
-0.00322851
-0.0122358
-0.00351575
-0.0125972
-0.00381279
-0.0129723
-0.01336
-0.0041193
6.69832e-05
-0.00486958
3.889e-06
-0.00831264
-0.000157515
-0.0090659
-0.000349329
-0.00911436
-0.000550217
-0.00912758
-0.000757426
-0.00919659
-0.000970879
-0.00931837
-0.00119097
-0.00947897
-0.00141802
-0.00967208
-0.00165234
-0.00989133
-0.00189423
-0.0101333
-0.002144
-0.0103948
-0.00240193
-0.0106739
-0.00266834
-0.0109691
-0.00294351
-0.0112793
-0.00322779
-0.0116038
-0.0035217
-0.0119419
-0.00382579
-0.0122931
-0.00413988
-0.0126582
-0.0130365
-0.00446341
4.28331e-05
-0.00491241
-5.24205e-05
-0.00821738
-0.000231096
-0.00888723
-0.000439415
-0.00890604
-0.000655397
-0.00891159
-0.000877225
-0.00897477
-0.00110518
-0.00909041
-0.00133976
-0.00924439
-0.00158133
-0.00943051
-0.00183029
-0.00964237
-0.00208697
-0.00987662
-0.0023517
-0.0101301
-0.00262482
-0.0104008
-0.00290664
-0.0106873
-0.00319747
-0.0109885
-0.00349766
-0.0113036
-0.00380775
-0.0116318
-0.00412832
-0.0119725
-0.00445899
-0.0123275
-0.0126965
-0.00479895
1.96647e-05
-0.00493208
-0.000104166
-0.00809355
-0.000302562
-0.00868883
-0.000526666
-0.00868194
-0.000757372
-0.00868089
-0.000993506
-0.00873863
-0.00123564
-0.00884828
-0.00148436
-0.00899567
-0.00174012
-0.00917475
-0.00200336
-0.00937913
-0.00227447
-0.00960551
-0.00255382
-0.00985071
-0.00284176
-0.0101129
-0.00313863
-0.0103904
-0.00344474
-0.0106824
-0.00376047
-0.0109879
-0.00408637
-0.0113059
-0.00442306
-0.0116359
-0.00476996
-0.0119806
-0.0123408
-0.00512564
-1.24703e-06
-0.00493083
-0.000153624
-0.00794118
-0.000371725
-0.00847073
-0.000611042
-0.00844262
-0.000856047
-0.00843588
-0.00110614
-0.00848854
-0.0013621
-0.00859232
-0.0016246
-0.00873317
-0.00189419
-0.00890517
-0.00217135
-0.00910196
-0.00245653
-0.00932034
-0.00275012
-0.00955711
-0.00305251
-0.00981049
-0.00336405
-0.0100789
-0.00368507
-0.0103614
-0.00401595
-0.010657
-0.00435725
-0.0109646
-0.00470958
-0.0112835
-0.00507239
-0.0116178
-0.0119698
-0.00544337
-2.91684e-05
-0.00490166
-0.000201676
-0.00776867
-0.000438346
-0.00823406
-0.00069244
-0.00818853
-0.000951333
-0.00817699
-0.00121502
-0.00822484
-0.00148443
-0.00832292
-0.00176034
-0.00845726
-0.00204337
-0.00862214
-0.00233407
-0.00881126
-0.00263293
-0.00902149
-0.00294038
-0.00924966
-0.00325684
-0.00949403
-0.00358266
-0.00975303
-0.00391822
-0.0100258
-0.00426391
-0.0103113
-0.00462021
-0.0106083
-0.0049876
-0.0109161
-0.00536589
-0.0112395
-0.0115833
-0.00575242
-5.34398e-05
-0.00484822
-0.000248089
-0.00757402
-0.00050234
-0.00797981
-0.000770766
-0.0079201
-0.00104314
-0.00790461
-0.00132003
-0.00794796
-0.00160249
-0.00804046
-0.00189141
-0.00816834
-0.00218749
-0.00832606
-0.00249133
-0.00850742
-0.00280346
-0.00870935
-0.00312437
-0.00892875
-0.00345448
-0.00916392
-0.00379419
-0.00941332
-0.00414393
-0.00967608
-0.00450417
-0.00995111
-0.00487529
-0.0102372
-0.00525758
-0.0105338
-0.00565061
-0.0108465
-0.0111833
-0.00605065
-7.62944e-05
-0.00477193
-0.000292721
-0.00735759
-0.000563691
-0.00770884
-0.000845953
-0.00763784
-0.00113139
-0.00761917
-0.00142106
-0.00765829
-0.00171616
-0.00774535
-0.00201768
-0.00786682
-0.00232638
-0.00801736
-0.00264293
-0.00819086
-0.00296792
-0.00838437
-0.00330186
-0.00859481
-0.0036452
-0.00882058
-0.00399838
-0.00906013
-0.00436191
-0.00931255
-0.00473638
-0.00957664
-0.00512216
-0.00985139
-0.00551942
-0.0101366
-0.00592885
-0.0104371
-0.0107801
-0.00633207
-0.000101294
-0.00467063
-0.000339254
-0.00711963
-0.000625935
-0.00742216
-0.000921259
-0.00734252
-0.00121912
-0.00732131
-0.00152095
-0.00735645
-0.0018281
-0.00743821
-0.00214162
-0.0075533
-0.00246237
-0.00769661
-0.00279108
-0.00786215
-0.00312835
-0.00804709
-0.00347475
-0.00824842
-0.00383075
-0.00846458
-0.00419684
-0.00869404
-0.00457359
-0.0089358
-0.00496161
-0.00918862
-0.00536117
-0.00945182
-0.00577088
-0.00972687
-0.00618837
-0.0100196
-0.0103257
-0.00664268
-0.000121932
-0.0045487
-0.000379885
-0.00686168
-0.000681613
-0.00712043
-0.000989725
-0.0070344
-0.00129976
-0.00701128
-0.0016135
-0.00704272
-0.00193241
-0.0071193
-0.00225765
-0.00722806
-0.00259015
-0.00736412
-0.00293068
-0.00752162
-0.00327992
-0.00769785
-0.00363846
-0.00788989
-0.00400681
-0.00809623
-0.00438551
-0.00831534
-0.00477513
-0.00854618
-0.00517608
-0.00878767
-0.00558811
-0.00903979
-0.00601086
-0.00930413
-0.00644905
-0.00958139
-0.00986268
-0.00691211
-0.000141637
-0.00440706
-0.000418535
-0.00658478
-0.000734543
-0.00680443
-0.0010549
-0.00671405
-0.00137663
-0.00668954
-0.00170179
-0.00671756
-0.00203199
-0.0067891
-0.00236846
-0.00689158
-0.00271222
-0.00702035
-0.00306411
-0.00716973
-0.00342484
-0.00733712
-0.00379503
-0.0075197
-0.00417525
-0.00771601
-0.00456607
-0.00792451
-0.00496807
-0.00814418
-0.0053816
-0.00837415
-0.00580667
-0.00861472
-0.00624418
-0.00886662
-0.00669786
-0.00912771
-0.00939217
-0.00716837
-0.000160371
-0.00424669
-0.000455156
-0.00629
-0.000784671
-0.00647491
-0.00111671
-0.00638201
-0.00144963
-0.00635662
-0.0017857
-0.00638148
-0.00212668
-0.00644812
-0.0024739
-0.00654436
-0.00282843
-0.00666582
-0.00319118
-0.00680698
-0.0035629
-0.00696541
-0.00394424
-0.00713835
-0.00433583
-0.00732442
-0.00473824
-0.0075221
-0.005152
-0.00773043
-0.00557741
-0.00794874
-0.00601486
-0.00817726
-0.0064658
-0.00841568
-0.00693236
-0.00866115
-0.00891106
-0.00741348
-0.000178108
-0.00406859
-0.00048972
-0.00597838
-0.000831973
-0.00613266
-0.00117511
-0.00603887
-0.00151869
-0.00601305
-0.00186516
-0.00603501
-0.0022164
-0.00609688
-0.00257385
-0.00618692
-0.00293864
-0.00630103
-0.00331173
-0.0064339
-0.00369392
-0.00658322
-0.00408591
-0.00674636
-0.00448834
-0.00692199
-0.00490183
-0.00710861
-0.00532688
-0.00730538
-0.00576389
-0.00751173
-0.00621346
-0.00772769
-0.0066768
-0.00795234
-0.00715493
-0.00818302
-0.00841872
-0.00764727
-0.000194816
-0.00387377
-0.000522201
-0.005651
-0.000876426
-0.00577843
-0.00123008
-0.00568522
-0.00158375
-0.00565938
-0.00194007
-0.00567869
-0.00230105
-0.0057359
-0.00266818
-0.00581979
-0.0030427
-0.00592651
-0.00342559
-0.006051
-0.00381772
-0.00619109
-0.00421981
-0.00634427
-0.00463254
-0.00650926
-0.00505652
-0.00668463
-0.00549227
-0.00686963
-0.00594029
-0.00706371
-0.00640127
-0.00726671
-0.00687616
-0.00747745
-0.00736552
-0.00769366
-0.007915
-0.00786923
-0.00021047
-0.0036633
-0.00055258
-0.00530889
-0.000918008
-0.005413
-0.00128156
-0.00532167
-0.00164475
-0.00529618
-0.00201036
-0.00531308
-0.00238052
-0.00536574
-0.00275679
-0.00544352
-0.00314048
-0.00554282
-0.00353263
-0.00565885
-0.00393414
-0.00578958
-0.00434578
-0.00593263
-0.00476825
-0.00608679
-0.00520217
-0.00625071
-0.00564809
-0.00642371
-0.00610658
-0.00660523
-0.0065783
-0.00679499
-0.00706399
-0.00699176
-0.00756412
-0.00719352
-0.00740015
-0.00807898
-0.000225046
-0.00343825
-0.00058084
-0.00495309
-0.000956701
-0.00503714
-0.00132952
-0.00494885
-0.00170165
-0.00492406
-0.00207596
-0.00493877
-0.00245472
-0.00498698
-0.00283956
-0.00505868
-0.00323186
-0.00515052
-0.00363269
-0.00525801
-0.00404301
-0.00537927
-0.00446362
-0.00551202
-0.00489523
-0.00565517
-0.0053385
-0.00580745
-0.005794
-0.0059682
-0.00626232
-0.0061369
-0.00674411
-0.0063132
-0.00723995
-0.00649592
-0.00775032
-0.00668315
-0.00687474
-0.00827573
-0.000238526
-0.00319973
-0.000606966
-0.00458465
-0.000992487
-0.00465162
-0.00137394
-0.0045674
-0.00175438
-0.00454362
-0.0021368
-0.00455634
-0.00252357
-0.00460022
-0.00291639
-0.00466585
-0.00331671
-0.00475021
-0.00372564
-0.00484908
-0.00414418
-0.00496073
-0.00457315
-0.00508305
-0.00501331
-0.00521501
-0.00546532
-0.00535544
-0.00592979
-0.00550373
-0.00640732
-0.00565938
-0.00689851
-0.00582202
-0.00740389
-0.00599054
-0.00792387
-0.00616316
-0.00633956
-0.00845905
-0.00025089
-0.00294884
-0.000630948
-0.00420459
-0.00102535
-0.00425722
-0.00141477
-0.00417798
-0.0018029
-0.00415549
-0.00219282
-0.00416643
-0.00258699
-0.00420604
-0.00298719
-0.00426565
-0.00339492
-0.00434249
-0.00381134
-0.00443265
-0.00423749
-0.00453458
-0.00467422
-0.00464632
-0.00512231
-0.00476693
-0.00558243
-0.00489531
-0.00605523
-0.00503094
-0.0065413
-0.00517331
-0.00704123
-0.00532208
-0.00755552
-0.00547624
-0.00808454
-0.00563415
-0.00579522
-0.00862888
-0.000262169
-0.00268667
-0.000652781
-0.00381398
-0.00105529
-0.00385471
-0.001452
-0.00378127
-0.00184717
-0.00376032
-0.00224394
-0.00376965
-0.0026449
-0.00380509
-0.00305186
-0.00385869
-0.00346638
-0.00392796
-0.00388968
-0.00400936
-0.00432281
-0.00410145
-0.00476666
-0.00420247
-0.00522203
-0.00431155
-0.00568963
-0.00442772
-0.00617009
-0.00455047
-0.00666403
-0.00467937
-0.00717203
-0.00481409
-0.00769459
-0.00495367
-0.00823213
-0.00509661
-0.00524224
-0.0087851
-0.000272398
-0.00241427
-0.000672464
-0.00341392
-0.00108228
-0.0034449
-0.00148559
-0.00337795
-0.00188714
-0.00335878
-0.00229013
-0.00336666
-0.00269723
-0.00339799
-0.00311032
-0.0034456
-0.00353101
-0.00350728
-0.00396053
-0.00357983
-0.0044
-0.00366199
-0.00485032
-0.00375215
-0.00531232
-0.00384956
-0.00578672
-0.00395332
-0.00627418
-0.00406301
-0.00677532
-0.00417823
-0.00729074
-0.00429868
-0.007821
-0.00442341
-0.00836657
-0.00455104
-0.00468207
-0.00892674
-0.000281545
-0.00213273
-0.00068999
-0.00300547
-0.00110631
-0.00302857
-0.00151553
-0.00296873
-0.00192278
-0.00295153
-0.00233133
-0.00295811
-0.00274392
-0.0029854
-0.00316249
-0.00302702
-0.00358869
-0.00308108
-0.0040238
-0.00314472
-0.00446895
-0.00321684
-0.00492507
-0.00329603
-0.00539301
-0.00338161
-0.00587353
-0.0034728
-0.00636729
-0.00356924
-0.00687494
-0.00367058
-0.0073971
-0.00377652
-0.0079343
-0.00388621
-0.00848679
-0.00399855
-0.00411413
-0.00905473
-0.000289589
-0.00184314
-0.000705352
-0.00258971
-0.00112738
-0.00260655
-0.00154178
-0.00255433
-0.00195404
-0.00253927
-0.00236748
-0.00254467
-0.00278491
-0.00256797
-0.00320831
-0.00260363
-0.00363936
-0.00265003
-0.00407939
-0.00270469
-0.00452953
-0.00276669
-0.00499077
-0.00283479
-0.00546397
-0.00290841
-0.00594988
-0.00298689
-0.00644922
-0.00306991
-0.00696263
-0.00315716
-0.00749076
-0.00324839
-0.00803412
-0.00334285
-0.00859298
-0.00343969
-0.00353937
-0.00916774
-0.000296512
-0.00154662
-0.000718545
-0.00216768
-0.00114547
-0.00217962
-0.00156434
-0.00213546
-0.00198091
-0.00212269
-0.00239856
-0.00212702
-0.00282016
-0.00214637
-0.00324771
-0.00217608
-0.00368294
-0.00221479
-0.0041272
-0.00226043
-0.00458167
-0.00231223
-0.00504732
-0.00236914
-0.00552505
-0.00243068
-0.00601564
-0.00249631
-0.0065198
-0.00256574
-0.00703822
-0.00263874
-0.00757154
-0.00271508
-0.00812025
-0.00279414
-0.00868471
-0.00287523
-0.00295867
-0.00926541
-0.000302306
-0.00124432
-0.000729562
-0.00174042
-0.00116057
-0.00174861
-0.00158317
-0.00171287
-0.00200336
-0.0017025
-0.00242453
-0.00170586
-0.0028496
-0.00172129
-0.00328063
-0.00174505
-0.00371937
-0.00177605
-0.00416718
-0.00181263
-0.00462526
-0.00185415
-0.00509461
-0.00189978
-0.00557615
-0.00194915
-0.00607065
-0.0020018
-0.00657888
-0.00205752
-0.00710151
-0.00211611
-0.0076392
-0.00217739
-0.00819246
-0.00224088
-0.00876168
-0.00230601
-0.00237299
-0.00934736
-0.00030696
-0.000937358
-0.000738398
-0.00130898
-0.00117268
-0.00131433
-0.00159827
-0.00128727
-0.00202136
-0.00127942
-0.00244535
-0.00128187
-0.00287322
-0.00129342
-0.00330704
-0.00131124
-0.00374859
-0.00133451
-0.00419924
-0.00136197
-0.00466023
-0.00139316
-0.00513256
-0.00142745
-0.00561715
-0.00146455
-0.00611482
-0.00150413
-0.00662632
-0.00154602