/*--------------------------------*- C++ -*----------------------------------*\
  =========                 |
  \\      /  F ield         | OpenFOAM: The Open Source CFD Toolbox
   \\    /   O peration     | Website:  https://openfoam.org
    \\  /    A nd           | Version:  7
     \\/     M anipulation  |
\*---------------------------------------------------------------------------*/
FoamFile
{
    version     2.0;
    format      ascii;
    class       volVectorField;
    location    "10";
    object      U;
}
// * * * * * * * * * * * * * * * * * * * * * * * * * * * * * * * * * * * * * //

dimensions      [0 1 -1 0 0 0 0];

internalField   nonuniform List<vector> 
6050
(
(-0.00922676 0.00349051 -4.05239e-20)
(-0.0385814 0.00599369 -4.93015e-20)
(-0.0788789 0.00687545 6.19355e-21)
(-0.116345 0.00716669 -1.60925e-20)
(-0.152781 0.00729998 7.91802e-20)
(-0.187377 0.0074541 2.53178e-20)
(-0.22093 0.00766187 -3.58004e-20)
(-0.00951076 0.01037 2.05525e-21)
(-0.0385692 0.01784 -3.11205e-20)
(-0.0780614 0.0204779 -6.57001e-20)
(-0.114505 0.0213404 5.36136e-20)
(-0.14965 0.0217194 3.46291e-20)
(-0.182653 0.0221504 5.41471e-21)
(-0.214242 0.0227333 1.03602e-19)
(-0.0100673 0.0169529 -1.15436e-20)
(-0.0385557 0.0292707 -4.4599e-20)
(-0.0764731 0.0336405 6.43732e-20)
(-0.110912 0.0350413 5.0251e-20)
(-0.143533 0.035606 -1.71491e-19)
(-0.173434 0.0362235 2.26519e-20)
(-0.201217 0.0370657 -1.74036e-19)
(-0.010875 0.0230617 5.80855e-20)
(-0.0385614 0.0400274 2.361e-19)
(-0.0742033 0.0460834 -7.77376e-20)
(-0.105734 0.0479685 -1.6047e-19)
(-0.134704 0.0486241 -9.38644e-20)
(-0.160149 0.0492872 1.32051e-19)
(-0.182516 0.0502095 1.67322e-19)
(-0.0119042 0.0285446 -1.58235e-19)
(-0.0386151 0.0498754 -4.60964e-20)
(-0.0713766 0.0575453 1.39367e-19)
(-0.0992049 0.0598398 7.3413e-20)
(-0.123544 0.0604637 3.64282e-19)
(-0.143387 0.0609932 -3.41967e-19)
(-0.159025 0.061771 -1.94808e-19)
(-0.0131202 0.0332838 1.02974e-19)
(-0.0387507 0.0586133 8.5323e-21)
(-0.0681427 0.0677902 -2.59796e-19)
(-0.0916033 0.0703982 -1.29805e-19)
(-0.110502 0.0708479 -4.29972e-19)
(-0.123835 0.0710415 -1.53587e-20)
(-0.131758 0.0714247 -2.24859e-20)
(-0.134023 0.0718716 -3.88909e-20)
(-0.0144867 0.0372004 -2.63802e-19)
(-0.0390034 0.0660791 -4.74232e-19)
(-0.0646628 0.0766138 1.72715e-19)
(-0.0832308 0.0794179 -4.85724e-20)
(-0.0960584 0.0795388 3.87103e-19)
(-0.102203 0.079186 3.76956e-19)
(-0.101738 0.0789201 -1.31069e-19)
(-0.094377 0.0786374 1.84158e-19)
(-0.0159688 0.0402573 1.95421e-19)
(-0.0394061 0.072156 2.18348e-19)
(-0.0610952 0.0838491 1.52837e-19)
(-0.074382 0.0867089 5.49562e-19)
(-0.0806709 0.0863416 -1.23074e-19)
(-0.0791555 0.0852385 1.88697e-19)
(-0.0698768 0.0840859 2.48732e-19)
(-0.0525644 0.0828221 -3.1637e-19)
(-0.0175365 0.0424586 -9.61218e-20)
(-0.0399842 0.0767745 5.73315e-20)
(-0.0575774 0.0893713 -4.64448e-19)
(-0.0653125 0.0921223 -2.68687e-19)
(-0.0647255 0.0911089 -2.16753e-19)
(-0.0552154 0.0890733 -1.22163e-19)
(-0.0368392 0.0868348 -6.06693e-19)
(-0.00937053 0.0843945 1.10899e-19)
(-0.0191672 0.0438463 3.66862e-19)
(-0.0407508 0.0799135 4.25776e-19)
(-0.0542082 0.0931024 1.12874e-19)
(-0.0562037 0.0955555 4.66983e-19)
(-0.0484747 0.0937468 1.31473e-19)
(-0.0306746 0.0906328 2.96331e-19)
(-0.00289626 0.0871726 3.37246e-19)
(0.0350546 0.0834511 3.15092e-19)
(-0.020847 0.0444941 -2.29897e-19)
(-0.0416996 0.0815977 -3.86684e-19)
(-0.0510278 0.0950149 6.78624e-19)
(-0.0471232 0.0969591 -7.01445e-19)
(-0.0319709 0.0942228 -5.05324e-19)
(-0.00548605 0.0899392 -2.19747e-19)
(0.0322298 0.0852151 -9.6795e-20)
(0.0814014 0.0802439 -5.38068e-19)
(-0.0225706 0.0444997 2.15243e-19)
(-0.0427985 0.0818921 1.71318e-19)
(-0.0479969 0.0951346 -7.87973e-19)
(-0.0379843 0.0963436 -2.66814e-19)
(-0.014995 0.092577 2.85817e-19)
(0.0208439 0.0871117 -1.52737e-19)
(0.0695064 0.0812149 4.16624e-19)
(0.131338 0.0752205 4.02618e-19)
(0.206643 0.0690365 -5.33452e-19)
(-0.0243396 0.0439744 -6.89575e-19)
(-0.0439834 0.0809006 -6.74008e-19)
(-0.0449741 0.0935372 5.04216e-19)
(-0.0285038 0.0937859 3.22144e-19)
(0.00301224 0.0889369 1.72935e-19)
(0.0493483 0.0823908 -1.4254e-19)
(0.110671 0.0755982 -2.58707e-19)
(0.187475 0.0690705 1.32376e-19)
(0.279964 0.0628532 1.84645e-20)
(-0.0261569 0.043032 1.06807e-19)
(-0.0451533 0.0787584 7.07633e-19)
(-0.0416975 0.0903449 -2.23049e-19)
(-0.0181638 0.0894355 -2.88423e-20)
(0.0230046 0.0835342 -2.2504e-19)
(0.0816427 0.0761673 -8.54808e-20)
(0.158172 0.0690065 7.75241e-20)
(0.253023 0.0627545 2.55328e-19)
(0.365641 0.0575534 7.31549e-20)
(-0.0280219 0.0417822 6.0184e-19)
(-0.0461556 0.0756119 -1.75394e-19)
(-0.0377735 0.0857286 -4.51419e-19)
(-0.00618597 0.0835202 6.04155e-19)
(0.0463514 0.0767206 5.37589e-19)
(0.119877 0.0690126 3.90513e-19)
(0.214898 0.0623193 3.62333e-19)
(0.331058 0.0574834 -1.27066e-19)
(0.465725 0.0545747 2.35563e-19)
(-0.0299259 0.0403191 -1.89779e-19)
(-0.0467795 0.0716086 1.05382e-19)
(-0.0326657 0.0799024 2.61814e-19)
(0.00847166 0.0763474 -7.32985e-19)
(0.0748016 0.0689823 -1.25385e-19)
(0.166542 0.0616966 -6.30354e-19)
(0.283623 0.0566404 2.58994e-19)
(0.423432 0.0545949 -6.26154e-19)
(0.579428 0.0551831 2.46002e-19)
(0.741564 0.0569882 -5.93875e-19)
(-0.0318429 0.038712 5.98577e-21)
(-0.0467553 0.0668961 4.6776e-19)
(-0.025694 0.0731098 -1.23857e-19)
(0.0270933 0.0683027 -4.25173e-20)
(0.110371 0.0609502 1.4142e-19)
(0.224108 0.0551845 4.90934e-19)
(0.366196 0.053208 -2.43059e-19)
(0.529604 0.0552846 -2.20343e-19)
(0.70228 0.06006 1.47079e-19)
(0.869866 0.0651251 3.3367e-19)
(-0.0337242 0.037005 -5.06125e-20)
(-0.0457502 0.0616102 -4.5717e-20)
(-0.0160472 0.0656149 5.27941e-19)
(0.0511506 0.0598478 2.74141e-19)
(0.15514 0.0533995 -2.50059e-19)
(0.294478 0.0505842 7.22122e-20)
(0.462623 0.0531829 8.07622e-20)
(0.645911 0.0602367 7.2123e-19)
(0.826659 0.0689826 -6.14337e-19)
(0.988588 0.0761619 -8.78952e-19)
(1.1208 0.0794108 -8.75353e-19)
(-0.0354981 0.0352185 4.32044e-20)
(-0.0433687 0.0558635 -5.90926e-19)
(-0.00280662 0.0576947 1.55943e-19)
(0.0822114 0.0515212 -5.2846e-19)
(0.210949 0.0472368 6.75698e-19)
(0.378322 0.0490138 -4.59543e-19)
(0.570381 0.0573373 1.90214e-20)
(0.765867 0.0693238 -3.8706e-20)
(0.943803 0.0808486 -4.83573e-19)
(1.08996 0.0884492 1.20225e-18)
(1.19881 0.0904011 5.12875e-19)
(-0.0370664 0.0333464 -3.11233e-19)
(-0.0391591 0.0497431 4.07717e-19)
(0.0150213 0.0496403 -3.59587e-19)
(0.121809 0.0439496 -3.96559e-19)
(0.278989 0.0434589 -7.3987e-19)
(0.474444 0.0513736 2.93577e-19)
(0.684405 0.0657625 -2.04873e-19)
(0.881696 0.0816005 -5.99548e-19)
(1.04644 0.0941118 5.25148e-19)
(1.17019 0.100516 -4.28791e-19)
(1.25412 0.10025 6.17219e-19)
(1.3051 0.0941357 7.12687e-19)
(-0.0382949 0.0313525 1.62e-18)
(-0.0326258 0.04332 -4.14416e-19)
(0.0384598 0.041774 3.66906e-19)
(0.171257 0.0378714 4.50906e-19)
(0.359318 0.0430375 6.97719e-19)
(0.579489 0.0580658 -3.71889e-19)
(0.798072 0.0777824 2.20818e-19)
(0.986479 0.0956556 -2.99822e-19)
(1.13056 0.107362 -5.57035e-19)
(1.22949 0.111474 2.88801e-19)
(1.2904 0.10869 -5.24197e-19)
(1.32325 0.100642 -3.33589e-19)
(-0.0390296 0.0291987 -1.13767e-18)
(-0.0232353 0.0366658 4.95962e-19)
(0.0685347 0.0344612 -5.24466e-20)
(0.231419 0.0341077 -2.58e-19)
(0.450435 0.0466701 -7.76667e-19)
(0.688302 0.0687805 5.55677e-19)
(0.904815 0.0921656 -5.08223e-19)
(1.07574 0.110106 2.26734e-19)
(1.19551 0.119681 2.82064e-19)
(1.27059 0.121022 -1.20369e-18)
(1.31215 0.115851 2.32377e-19)
(1.33131 0.106242 4.14632e-20)
(1.33685 0.0940692 5.10438e-19)
(-0.0391015 0.0268435 -8.29583e-20)
(-0.0104203 0.029841 -7.4613e-19)
(0.106226 0.0281316 4.13639e-19)
(0.302437 0.0334799 2.75502e-19)
(0.549259 0.0545481 -2.25394e-19)
(0.795175 0.0826118 -7.03664e-19)
(0.99984 0.107604 4.77724e-19)
(1.14799 0.123987 -1.24091e-19)
(1.24314 0.130693 9.14732e-20)
(1.29726 0.129239 7.5247e-19)
(1.32355 0.122012 -4.0415e-19)
(1.33288 0.111231 -3.73886e-19)
(1.33273 0.0985838 -3.44576e-19)
(-0.0383144 0.0242396 -3.51229e-20)
(0.00641473 0.0229298 4.36734e-19)
(0.152348 0.0233564 -7.74417e-19)
(0.383377 0.036674 1.55078e-19)
(0.651446 0.0662882 5.39453e-19)
(0.895017 0.0984045 1.02746e-19)
(1.08057 0.123066 1.64091e-19)
(1.20391 0.136801 2.99729e-19)
(1.27628 0.140379 -3.39282e-19)
(1.31308 0.13636 -2.54087e-19)
(1.32788 0.127469 4.74296e-19)
(1.33041 0.115851 8.81264e-19)
(1.32664 0.102947 9.77002e-20)
(1.31976 0.0895784 -3.46133e-19)
(-0.0364533 0.02135 8.52387e-20)
(0.0278944 0.0160754 8.19755e-19)
(0.207396 0.0208569 -2.51936e-19)
(0.472089 0.044002 6.95711e-19)
(0.752295 0.0810519 -5.7312e-19)
(0.984293 0.115081 6.82083e-19)
(1.14647 0.137898 -5.59388e-19)
(1.2454 0.148391 3.65065e-19)
(1.29799 0.148899 -2.38498e-19)
(1.32111 0.14266 2.57619e-20)
(1.32759 0.132473 -2.84754e-19)
(1.32556 0.120278 -4.97504e-19)
(1.31952 0.107251 -2.44523e-19)
(1.31162 0.0940328 1.70063e-19)
(1.30276 0.081075 5.71651e-20)
(-0.0332877 0.0181548 -7.71527e-19)
(0.0546608 0.00952838 -7.39434e-19)
(0.27133 0.0214213 5.78515e-19)
(0.565407 0.0552695 -3.5024e-20)
(0.847702 0.0978415 8.17017e-19)
(1.06122 0.13184 -4.96195e-19)
(1.19841 0.151779 2.17389e-19)
(1.27489 0.158811 -2.83317e-19)
(1.31103 0.156485 5.35509e-19)
(1.32374 0.148396 -2.13179e-19)
(1.32435 0.137221 2.10116e-19)
(1.31934 0.124629 -1.40518e-20)
(1.3119 0.111549 1.66577e-19)
(1.30339 0.0984715 -2.23104e-20)
(1.29433 0.0857057 2.51744e-19)
(1.28489 0.0733365 5.25531e-20)
(-0.0285671 0.0146571 1.10806e-18)
(0.0873319 0.00370444 -7.1655e-19)
(0.343364 0.0257135 1.8395e-19)
(0.65969 0.0698627 -7.28257e-19)
(0.93474 0.115765 -5.14384e-19)
(1.12544 0.148181 5.63636e-20)
(1.23799 0.164619 1.01905e-19)
(1.29477 0.168218 -2.86512e-19)
(1.31772 0.163377 5.25238e-20)
(1.32272 0.153777 4.10824e-19)
(1.3193 0.14185 -3.03583e-19)
(1.31235 0.128975 -1.81337e-19)
(1.30405 0.115866 -9.95363e-20)
(1.29519 0.102892 -8.996e-20)
(1.28604 0.090289 -1.14645e-19)
(1.27665 0.0781277 2.15251e-19)
(1.26704 0.0668516 -1.0433e-19)
(-0.0220132 0.0108891 -2.63408e-19)
(0.126413 -0.00077422 6.65339e-19)
(0.4219 0.034055 3.9958e-19)
(0.751486 0.0869868 -4.55479e-19)
(1.01176 0.134155 5.6585e-19)
(1.17758 0.163841 -3.39579e-21)
(1.2671 0.176465 5.13422e-19)
(1.30719 0.176811 3.36735e-19)
(1.31986 0.169791 2.99641e-19)
(1.31928 0.158966 -2.89386e-19)
(1.31314 0.146452 2.02713e-19)
(1.30495 0.133352 2.15029e-19)
(1.29611 0.120208 3.59337e-19)
(1.28705 0.107299 -1.89662e-19)
(1.27786 0.0947936 -4.31767e-22)
(1.26856 0.0828068 -1.80124e-19)
(1.25914 0.0715527 7.43047e-21)
(1.24972 0.0605797 -7.77469e-20)
(-0.0133117 0.00692404 -2.40067e-19)
(0.172165 -0.00310034 -2.68767e-19)
(0.504675 0.0463285 -1.39051e-20)
(0.838032 0.105889 4.31767e-19)
(1.07816 0.152566 -4.23171e-19)
(1.21878 0.178716 -4.63355e-19)
(1.2876 0.187435 1.77536e-19)
(1.31395 0.184788 -2.10455e-19)
(1.31879 0.175905 -1.346e-19)
(1.31427 0.164076 5.30209e-20)
(1.3063 0.15108 -4.58674e-19)
(1.29732 0.137777 4.22975e-19)
(1.28813 0.124573 -4.11306e-20)
(1.27895 0.111677 -9.36023e-20)
(1.26977 0.0992308 8.40481e-20)
(1.26058 0.087321 -1.26949e-19)
(1.25136 0.0761167 -1.12343e-19)
(1.24219 0.0653036 -6.03298e-21)
(1.23286 0.0564025 -8.16664e-20)
(1.2247 0.0450385 1.53064e-19)
(-0.0021138 0.00289458 2.76375e-19)
(0.224467 -0.002399 4.87952e-19)
(0.589096 0.0620724 -6.62391e-19)
(0.917446 0.125969 -2.47302e-19)
(1.13409 0.170725 -1.12595e-19)
(1.25042 0.192806 6.48902e-19)
(1.30119 0.197679 -1.73895e-19)
(1.31649 0.19233 -1.08469e-19)
(1.3155 0.181855 -1.5142e-19)
(1.30822 0.169184 1.8254e-19)
(1.29904 0.155763 6.79167e-20)
(1.28953 0.142251 -7.94499e-20)
(1.28013 0.128951 -2.12644e-19)
(1.27088 0.116024 2.18597e-20)
(1.26174 0.103579 -9.13445e-20)
(1.25267 0.0917065 1.63358e-19)
(1.24366 0.0804826 3.98691e-20)
(1.23475 0.0698001 4.13853e-20)
(1.22581 0.0606487 5.54709e-20)
(1.21781 0.0495835 -1.6146e-19)
(0.0119448 -0.00098628 -5.19804e-19)
(0.282723 0.00208086 -3.06242e-20)
(0.672613 0.0806789 -1.01161e-19)
(0.988664 0.14679 2.92289e-19)
(1.18018 0.188478 -1.0153e-19)
(1.2739 0.206168 -2.85095e-19)
(1.3093 0.207352 -4.02063e-19)
(1.31592 0.199589 2.83325e-19)
(1.31066 0.187741 -3.33468e-19)
(1.30148 0.174332 1.66063e-19)
(1.29149 0.160509 9.80271e-20)
(1.28164 0.146767 -5.13524e-20)
(1.27211 0.13333 1.21477e-19)
(1.26284 0.120325 1.36149e-19)
(1.25376 0.107841 -2.8935e-19)
(1.24482 0.095943 2.15995e-19)
(1.23601 0.0846909 1.83564e-20)
(1.22736 0.0740507 3.67212e-20)
(1.21878 0.0646425 1.76475e-19)
(1.21096 0.0538551 4.36718e-20)
(0.0291993 -0.00440601 1.54621e-19)
(0.345878 0.0107869 -6.33087e-19)
(0.753013 0.101559 5.99454e-19)
(1.05126 0.16805 2.74481e-19)
(1.2173 0.205754 -2.05602e-19)
(1.29054 0.218891 -3.4048e-19)
(1.31316 0.216599 1.18398e-20)
(1.31306 0.206683 -6.74856e-20)
(1.30472 0.193627 5.73482e-19)
(1.29424 0.179542 -2.62357e-19)
(1.28372 0.165314 -3.03104e-20)
(1.27365 0.15131 6.95015e-20)
(1.26404 0.137696 -4.321e-20)
(1.25478 0.124571 -8.86146e-20)
(1.24578 0.112004 2.48815e-19)
(1.237 0.100044 -2.04114e-19)
(1.2284 0.0887254 2.43815e-20)
(1.22 0.0780785 -1.14337e-19)
(1.21175 0.0684223 -1.1976e-19)
(1.20412 0.0578363 -3.83565e-20)
(0.0498986 -0.00695155 -1.11106e-19)
(0.412525 0.0237885 2.64767e-19)
(0.828578 0.124209 -2.4251e-19)
(1.10526 0.189533 -2.52684e-19)
(1.24641 0.222534 4.21258e-19)
(1.30153 0.231076 4.49066e-19)
(1.31369 0.225545 2.18079e-19)
(1.3085 0.213698 -3.65116e-21)
(1.29798 0.199551 -5.63288e-19)
(1.28663 0.184818 4.77054e-20)
(1.27575 0.170167 1.80558e-20)
(1.26555 0.155865 1.22073e-19)
(1.2559 0.142035 1.99919e-19)
(1.24669 0.12875 -1.0753e-20)
(1.2378 0.116063 -4.56538e-20)
(1.22918 0.104001 1.82907e-19)
(1.2208 0.0925975 -1.19359e-19)
(1.21265 0.0818902 1.45539e-19)
(1.20471 0.0719861 -1.29363e-20)
(1.19729 0.061568 1.47485e-19)
(0.0741531 -0.0081357 1.93881e-19)
(0.481067 0.0408351 1.03578e-19)
(0.898117 0.14822 -2.3786e-19)
(1.15095 0.211075 -2.96252e-19)
(1.26851 0.238827 -2.11568e-20)
(1.30789 0.242822 -4.92883e-20)
(1.31166 0.234289 2.43629e-19)
(1.30267 0.220694 1.70495e-19)
(1.29062 0.205528 1.84068e-19)
(1.27869 0.190151 -6.69785e-20)
(1.2676 0.175049 8.8464e-20)
(1.25732 0.160414 -8.15347e-20)
(1.24769 0.14633 -1.65797e-19)
(1.23855 0.132851 2.02173e-20)
(1.22979 0.120009 4.29577e-20)
(1.22135 0.107818 5.09395e-20)
(1.21319 0.0963027 6.76846e-20)
(1.20529 0.0854944 -4.05802e-20)
(1.19764 0.0753572 7.79826e-20)
(1.19044 0.0650613 -1.77761e-19)
(0.101898 -0.00745156 2.55711e-19)
(0.549888 0.0614899 -2.35097e-20)
(0.960917 0.173259 3.34002e-19)
(1.18883 0.232545 2.05027e-19)
(1.28451 0.254663 9.22789e-20)
(1.31046 0.254219 -2.2742e-19)
(1.30761 0.242906 -2.1683e-19)
(1.29585 0.227702 -6.05058e-20)
(1.28276 0.211558 -1.63614e-20)
(1.27046 0.195523 -1.59795e-20)
(1.25925 0.179939 -2.13443e-19)
(1.24896 0.164936 4.68233e-20)
(1.23938 0.150565 8.45395e-20)
(1.23035 0.13686 2.57061e-21)
(1.22175 0.123835 1.01398e-20)
(1.2135 0.111489 -2.62263e-20)
(1.20556 0.0998428 -6.29472e-20)
(1.19791 0.0888997 -5.19046e-20)
(1.19055 0.0785398 -1.07691e-19)
(1.18357 0.0683345 1.6293e-20)
(0.132886 -0.00444331 -1.57079e-19)
(0.617467 0.0852564 9.92342e-20)
(1.01665 0.199056 -4.13991e-20)
(1.21944 0.25383 9.76404e-21)
(1.29527 0.270073 -3.79593e-19)
(1.30994 0.265342 9.4525e-20)
(1.30195 0.251446 6.11146e-20)
(1.28821 0.234732 -4.23417e-20)
(1.27444 0.217628 1.52045e-19)
(1.26193 0.200913 -2.40997e-21)
(1.25068 0.184814 6.68644e-20)
(1.24044 0.16941 7.82515e-20)
(1.23096 0.154722 -5.36298e-20)
(1.22207 0.140765 -6.32173e-20)
(1.21364 0.127532 -3.42027e-20)
(1.2056 0.115011 -3.65517e-20)
(1.1979 0.103215 3.21372e-20)
(1.1905 0.0921113 3.68288e-20)
(1.18343 0.0815468 5.87911e-20)
(1.17666 0.0714011 6.74396e-20)
(0.166704 0.00122961 -7.31589e-20)
(0.682463 0.11165 -1.46964e-20)
(1.06525 0.225391 -1.34527e-19)
(1.24341 0.274838 1.25606e-19)
(1.30151 0.285088 2.7247e-19)
(1.30687 0.276248 1.49581e-19)
(1.29499 0.259935 -6.76802e-20)
(1.27989 0.24178 -3.95915e-20)
(1.26571 0.223713 -9.00426e-20)
(1.25311 0.206292 8.68404e-20)
(1.2419 0.189647 -3.38739e-21)
(1.23175 0.173813 -4.31125e-20)
(1.22241 0.158784 -5.07352e-20)
(1.21369 0.144552 -4.8551e-20)
(1.20547 0.131091 1.00694e-19)
(1.19765 0.118379 -3.41009e-20)
(1.19019 0.106417 -3.67676e-20)
(1.18306 0.0951351 -6.29152e-21)
(1.17626 0.0843829 -6.40293e-21)
(1.16972 0.0742708 -3.75296e-20)
(0.202805 0.00975552 -7.25709e-21)
(0.743757 0.140219 -9.84831e-20)
(1.10686 0.252076 4.59225e-20)
(1.26134 0.295494 -1.64921e-19)
(1.30387 0.299733 -1.15912e-19)
(1.30168 0.286975 1.73489e-20)
(1.28693 0.26838 -1.75437e-21)
(1.27094 0.248825 7.7504e-21)
(1.25656 0.229785 2.44469e-20)
(1.24399 0.21163 4.33386e-20)
(1.23288 0.194411 -5.90479e-20)
(1.22288 0.178123 2.50821e-20)
(1.21373 0.16273 4.38311e-20)
(1.20521 0.148205 -9.579e-21)
(1.19721 0.134502 -4.24408e-20)
(1.18964 0.121587 2.37861e-20)
(1.18244 0.109446 2.70964e-20)
(1.17557 0.0979745 2.73942e-20)
(1.16904 0.0870547 -1.38436e-20)
(1.16272 0.0769535 4.96162e-21)
(0.240552 0.0211704 8.11213e-20)
(0.800467 0.17054 -1.1462e-19)
(1.14173 0.278942 -1.57572e-20)
(1.27383 0.315733 6.7429e-20)
(1.3029 0.31402 1.09435e-19)
(1.29471 0.297538 -3.36936e-20)
(1.27792 0.276769 -9.66109e-20)
(1.26141 0.255838 9.60962e-20)
(1.24701 0.235807 -2.60061e-20)
(1.23455 0.216893 -3.00055e-20)
(1.22362 0.199077 2.73447e-20)
(1.21382 0.182315 -1.358e-20)
(1.20489 0.166541 -3.9941e-21)
(1.19662 0.15171 1.05983e-20)
(1.18888 0.137753 1.52155e-20)
(1.18157 0.124626 1.94839e-20)
(1.17464 0.112297 -3.46566e-20)
(1.16804 0.100633 -8.56224e-21)
(1.16178 0.0895638 -2.10873e-21)
(1.15567 0.0794536 1.02862e-20)
(0.279218 0.0353876 -4.45172e-20)
(0.851937 0.202217 7.96489e-20)
(1.17016 0.305825 -9.97482e-21)
(1.28144 0.335503 -2.16792e-20)
(1.29904 0.327954 -7.12167e-20)
(1.28621 0.307936 3.35375e-20)
(1.26805 0.285079 2.21199e-20)
(1.25132 0.262781 -2.45383e-20)
(1.23704 0.241741 -4.01962e-21)
(1.22479 0.222046 1.1733e-20)
(1.2141 0.203614 -1.27141e-20)
(1.20456 0.186363 6.40727e-21)
(1.19591 0.170197 -1.39084e-20)
(1.18792 0.155049 7.96919e-21)
(1.18045 0.140832 1.64541e-21)
(1.17343 0.127488 -7.2482e-21)
(1.16678 0.114967 4.15875e-21)
(1.16047 0.10311 -6.44004e-21)
(1.15447 0.0919106 2.09526e-21)
(1.14857 0.0817759 7.43713e-21)
(0.317992 0.052232 -3.19426e-20)
(0.897722 0.234867 6.96939e-20)
(1.19249 0.332558 -7.36209e-21)
(1.28466 0.354754 -2.78474e-20)
(1.29267 0.341527 -6.551e-20)
(1.27635 0.318153 3.30272e-20)
(1.25738 0.293273 2.15379e-20)
(1.24068 0.26961 -1.93617e-20)
(1.22664 0.247546 -2.27582e-22)
(1.21469 0.227053 9.15602e-21)
(1.20432 0.207992 -8.09119e-21)
(1.1951 0.190242 -2.21201e-21)
(1.18676 0.173676 -4.85721e-21)
(1.17909 0.158208 2.89196e-21)
(1.17194 0.143727 1.87245e-21)
(1.16522 0.130164 -7.36467e-21)
(1.15887 0.11745 8.18563e-21)
(1.15285 0.105407 -7.85936e-21)
(1.14711 0.0940928 -1.90236e-21)
(1.14143 0.08392 4.89773e-21)
(0.356076 0.0714419 9.24823e-20)
(0.93748 0.268091 -9.3981e-20)
(1.20896 0.358952 -6.8019e-20)
(1.28392 0.373434 8.89531e-20)
(1.28406 0.354724 1.01743e-19)
(1.26527 0.328163 -4.15948e-20)
(1.24595 0.301313 -6.90968e-20)
(1.22949 0.276285 7.5789e-20)
(1.21582 0.253183 -2.11839e-20)
(1.20426 0.231882 -2.47368e-20)
(1.19427 0.212183 1.93642e-20)
(1.18542 0.193928 -3.73442e-21)
(1.17745 0.176959 -9.06889e-21)
(1.17014 0.161171 2.89867e-21)
(1.16333 0.146428 1.39033e-20)
(1.15694 0.132645 1.62284e-20)
(1.1509 0.119738 -2.0289e-20)
(1.1452 0.10752 -5.35397e-21)
(1.13973 0.0961119 -3.46999e-21)
(1.13424 0.0858899 7.36909e-21)
(0.392918 0.0927884 4.11935e-20)
(0.971308 0.301629 -1.49175e-19)
(1.22007 0.384889 4.20062e-20)
(1.27966 0.391504 -1.10256e-19)
(1.2735 0.367508 -1.29062e-19)
(1.25307 0.33791 2.1e-20)
(1.23378 0.309132 8.31061e-21)
(1.21775 0.282741 -8.39904e-21)
(1.20457 0.258598 2.81763e-20)
(1.19348 0.236484 -1.10957e-21)
(1.18394 0.216147 -1.83697e-20)
(1.17554 0.197388 3.74548e-21)
(1.16798 0.180017 3.58972e-20)
(1.16106 0.163914 -3.03043e-21)
(1.15463 0.148916 -1.22182e-20)
(1.14859 0.134918 -7.06164e-21)
(1.14289 0.12182 3.07197e-20)
(1.13752 0.109437 1.31479e-20)
(1.13233 0.0979685 -7.68554e-21)
(1.12702 0.087693 -8.98678e-21)
(0.427879 0.116026 -9.14241e-20)
(0.999192 0.335192 -1.77593e-20)
(1.22612 0.410204 -1.31002e-19)
(1.27221 0.408898 1.47583e-19)
(1.26115 0.379836 1.84292e-19)
(1.23983 0.34734 7.18065e-20)
(1.2209 0.316676 -1.3194e-20)
(1.20546 0.28893 1.50023e-20)
(1.19287 0.263746 -7.64661e-20)
(1.18235 0.240825 5.49326e-20)
(1.17335 0.219853 -1.66747e-20)
(1.16545 0.200598 -1.27463e-20)
(1.15836 0.182833 -3.46877e-20)
(1.15186 0.166417 -1.05517e-20)
(1.14586 0.151176 1.63371e-20)
(1.14019 0.136976 -1.05665e-20)
(1.13484 0.123691 -1.38653e-20)
(1.12982 0.111156 3.99241e-21)
(1.12488 0.0996582 -2.46422e-21)
(1.11979 0.0893211 -2.07477e-20)
(0.460369 0.140886 -1.35099e-19)
(1.02122 0.368507 2.61703e-20)
(1.22747 0.434744 6.33684e-20)
(1.26188 0.425555 -6.97208e-20)
(1.2472 0.39165 -2.52649e-19)
(1.22559 0.356388 2.12224e-20)
(1.2073 0.323878 9.16444e-20)
(1.19261 0.29479 -3.39602e-20)
(1.18075 0.268578 7.33534e-20)
(1.17089 0.24486 -1.94841e-20)
(1.1625 0.223264 4.89019e-20)
(1.15516 0.203526 6.66928e-21)
(1.14858 0.185385 7.71343e-22)
(1.14256 0.168659 -2.89685e-20)
(1.137 0.153183 -1.34441e-20)
(1.13174 0.138805 -6.23589e-21)
(1.12677 0.125342 5.99198e-21)
(1.12209 0.112682 9.75838e-21)
(1.11742 0.101167 1.72207e-20)
(1.11256 0.0907683 2.94014e-20)
(0.489885 0.167083 1.72309e-19)
(1.03754 0.401316 6.44684e-20)
(1.22443 0.458358 2.15008e-19)
(1.24893 0.441399 1.05131e-19)
(1.23176 0.402888 8.2927e-20)
(1.2104 0.364983 -1.08088e-19)
(1.19301 0.330671 -9.68231e-20)
(1.17923 0.300265 -3.26273e-20)
(1.1682 0.273042 -1.82097e-20)
(1.15911 0.24855 -3.95216e-20)
(1.1514 0.22635 -6.07923e-20)
(1.14467 0.206144 -1.07717e-21)
(1.13866 0.187642 2.81527e-20)
(1.13317 0.170632 5.42805e-20)
(1.12806 0.154935 -5.39036e-20)
(1.12324 0.140383 1.16804e-20)
(1.11868 0.126765 -1.50877e-20)
(1.11436 0.114003 -6.07652e-21)
(1.10996 0.102488 -3.37336e-20)
(1.10535 0.0920272 -6.86579e-21)
(0.516005 0.194306 3.78885e-19)
(1.04832 0.433367 -3.58898e-20)
(1.21733 0.480897 -1.68666e-19)
(1.23358 0.45635 -2.3191e-19)
(1.21494 0.413473 -5.03907e-20)
(1.19429 0.373049 -1.5569e-22)
(1.17804 0.336985 1.30414e-19)
(1.16533 0.305296 1.04748e-19)
(1.15526 0.27709 6.99242e-20)
(1.14701 0.251849 -2.84737e-20)
(1.14005 0.229078 2.17221e-20)
(1.134 0.208427 -2.01004e-20)
(1.12861 0.189583 -3.70752e-20)
(1.12368 0.172309 1.39118e-20)
(1.11907 0.156411 -4.66166e-21)
(1.1147 0.141703 1.25073e-20)
(1.11058 0.12795 1.7812e-20)
(1.10662 0.115113 -3.93569e-21)
(1.10252 0.103612 2.18551e-20)
(1.09818 0.0930936 -1.60189e-20)
(0.538396 0.222221 -2.38645e-19)
(1.05377 0.46441 2.8648e-19)
(1.20645 0.502215 -1.2724e-19)
(1.21604 0.470323 -6.05787e-20)
(1.19682 0.42332 1.90569e-19)
(1.17732 0.380503 1.84349e-19)
(1.16245 0.34275 6.20971e-20)
(1.15094 0.30982 -4.80603e-20)
(1.14193 0.280678 -1.01666e-19)
(1.1346 0.254725 -1.69616e-21)
(1.12847 0.231409 1.18877e-20)
(1.12317 0.210344 2.65275e-20)
(1.11844 0.191185 2.41349e-20)
(1.1141 0.173673 -8.28996e-21)
(1.11003 0.157597 1.63981e-20)
(1.10615 0.142749 5.82954e-21)
(1.10247 0.128885 -8.76663e-21)
(1.0989 0.115999 1.35861e-20)
(1.0951 0.104529 1.22218e-20)
(1.09106 0.0939606 6.86566e-21)
(0.556811 0.250476 3.85386e-20)
(1.0541 0.494197 -5.10684e-19)
(1.19207 0.522168 3.18189e-19)
(1.19648 0.483227 1.95427e-19)
(1.17748 0.432333 -1.96573e-20)
(1.15957 0.38726 -1.58706e-19)
(1.14624 0.347896 -1.36009e-20)
(1.13606 0.313788 -3.37363e-20)
(1.12822 0.283755 1.05491e-19)
(1.12191 0.257133 -8.55816e-21)
(1.11668 0.233313 -1.88469e-20)
(1.11217 0.211868 5.80379e-21)
(1.10816 0.192423 -6.35886e-21)
(1.10446 0.174702 -4.47389e-21)
(1.10096 0.158474 1.95997e-20)
(1.0976 0.143512 -2.76062e-20)
(1.09438 0.129563 2.76093e-21)
(1.09122 0.116652 -6.55155e-21)
(1.08773 0.105228 -5.70864e-21)
(1.08401 0.0946232 7.92317e-22)
(0.57109 0.278703 -4.80101e-19)
(1.04956 0.52248 4.90588e-20)
(1.17447 0.540612 -1.07859e-19)
(1.17507 0.49497 1.39977e-19)
(1.15708 0.440428 -2.69592e-20)
(1.14105 0.393227 -1.1073e-19)
(1.12943 0.352361 -1.10434e-19)
(1.12072 0.317137 2.22175e-20)
(1.11416 0.286274 -2.28763e-20)
(1.10895 0.259035 2.05666e-20)
(1.1047 0.234756 2.6592e-20)
(1.10105 0.212971 -1.7969e-20)
(1.0978 0.193278 -2.64349e-21)
(1.09477 0.17538 1.27488e-20)
(1.09187 0.159028 -1.71649e-20)
(1.08905 0.143979 4.5647e-21)
(1.08632 0.129971 6.06567e-21)
(1.08357 0.117062 -1.21723e-21)
(1.08042 0.1057 4.55608e-22)
(1.07704 0.0950742 -1.9922e-21)
(0.58115 0.306536 2.17958e-19)
(1.04038 0.549013 4.62659e-19)
(1.15386 0.557382 -4.57634e-19)
(1.15203 0.505449 2.6266e-20)
(1.13568 0.447524 -1.08327e-19)
(1.12175 0.398326 2.17284e-19)
(1.11205 0.356065 -6.3136e-20)
(1.10496 0.319813 -5.30535e-21)
(1.09978 0.288188 -1.85504e-20)
(1.09576 0.260394 2.20936e-20)
(1.09255 0.235707 -4.89571e-21)
(1.08981 0.213627 -9.0409e-21)
(1.08736 0.193726 8.55995e-22)
(1.08505 0.175686 -4.23556e-21)
(1.08279 0.159243 4.79713e-21)
(1.08053 0.144136 -8.51129e-21)
(1.07831 0.130102 1.83074e-22)
(1.07599 0.117218 -4.85903e-21)
(1.0732 0.105933 -5.14933e-21)
(1.07019 0.0953087 5.73234e-21)
(0.586991 0.333609 -1.69838e-19)
(1.02688 0.573584 -1.63973e-19)
(1.13045 0.572291 7.39956e-20)
(1.12752 0.514556 1.58583e-20)
(1.11333 0.453528 -1.41387e-20)
(1.10177 0.402484 -1.44516e-19)
(1.09416 0.358942 5.00252e-20)
(1.0888 0.321759 -4.00326e-20)
(1.08511 0.289454 3.96842e-21)
(1.08237 0.261172 -9.73159e-21)
(1.08026 0.236135 3.62121e-21)
(1.07848 0.213813 -4.74522e-21)
(1.07688 0.193747 7.43117e-21)
(1.07532 0.175604 2.75053e-21)
(1.07372 0.159104 -8.98536e-22)
(1.07206 0.143972 -5.23117e-21)
(1.07037 0.129943 5.78414e-21)
(1.06849 0.11711 5.43217e-21)
(1.06607 0.105917 1.07988e-20)
(1.06346 0.0953226 7.04624e-21)
(0.588688 0.359559 -3.95739e-19)
(1.00943 0.59603 5.80234e-19)
(1.10449 0.585202 1.90864e-19)
(1.10161 0.522119 -1.34592e-19)
(1.09009 0.458356 1.02119e-19)
(1.08116 0.405624 2.9963e-20)
(1.07581 0.360928 3.18239e-20)
(1.07231 0.322925 -1.47996e-21)
(1.0702 0.29003 7.80396e-21)
(1.0688 0.261336 -4.01888e-21)
(1.06785 0.236015 -3.90771e-21)
(1.06709 0.213504 -1.03289e-20)
(1.06638 0.193322 -3.85676e-20)
(1.0656 0.175118 1.6078e-20)
(1.06469 0.158597 7.69582e-21)
(1.06365 0.143476 1.24112e-20)
(1.0625 0.129486 -1.60782e-20)
(1.06108 0.116727 6.06303e-22)
(1.05906 0.105643 1.48557e-20)
(1.05688 0.0951145 4.3654e-20)
(0.586396 0.384014 8.89236e-19)
(0.988321 0.616156 -4.58999e-19)
(1.07622 0.596021 5.67549e-20)
(1.07441 0.527992 -1.68123e-19)
(1.06608 0.461883 -5.39019e-20)
(1.06 0.407672 -1.50846e-21)
(1.05705 0.361964 -9.11773e-21)
(1.05552 0.323261 -6.02566e-21)
(1.05508 0.289877 -7.64857e-22)
(1.05509 0.260854 -5.46155e-20)
(1.05537 0.235318 3.20589e-20)
(1.05566 0.212679 4.55509e-21)
(1.05587 0.192433 1.76875e-20)
(1.05591 0.174212 -2.66471e-20)
(1.05573 0.157709 3.4264e-20)
(1.05533 0.142637 1.18662e-20)
(1.05474 0.128721 -1.70728e-20)
(1.05379 0.116056 -3.27894e-21)
(1.05219 0.105094 -5.39078e-20)
(1.05047 0.0946826 -2.45824e-20)
(0.580332 0.406644 -4.29371e-19)
(0.963525 0.633549 -4.63218e-19)
(1.04609 0.604756 1.46833e-19)
(1.04617 0.532102 8.3375e-20)
(1.04139 0.464021 7.51995e-20)
(1.03836 0.408557 1.35336e-22)
(1.03794 0.361995 -2.78735e-20)
(1.03849 0.322724 4.74229e-20)
(1.0398 0.288959 -8.39375e-20)
(1.04129 0.259698 2.10682e-20)
(1.04284 0.234022 -3.04621e-20)
(1.04423 0.21132 1.11161e-20)
(1.0454 0.191063 -6.27659e-20)
(1.04628 0.172873 2.50647e-20)
(1.04684 0.15643 -5.0722e-20)
(1.04711 0.141445 2.27409e-20)
(1.04709 0.127638 1.03425e-20)
(1.04663 0.115082 3.16214e-20)
(1.04546 0.104249 4.81272e-20)
(1.04424 0.094017 -6.39755e-21)
(0.570737 0.427313 1.45138e-19)
(0.935148 0.647826 4.61574e-19)
(1.01439 0.611232 -1.15625e-19)
(1.01702 0.534444 1.05851e-19)
(1.01612 0.464689 -2.27476e-20)
(1.01632 0.408213 -3.84269e-20)
(1.01857 0.360972 7.05862e-20)
(1.02129 0.321274 -5.5985e-20)
(1.02441 0.287244 4.13898e-21)
(1.02744 0.25784 1.55118e-20)
(1.0303 0.232106 2.68997e-22)
(1.03282 0.209408 1.14276e-19)
(1.03498 0.1892 5.68044e-20)
(1.03673 0.171089 -2.8418e-20)
(1.03807 0.15475 3.24316e-20)
(1.03901 0.139895 -2.24763e-20)
(1.03957 0.126235 -1.12874e-21)
(1.03961 0.1138 -1.2054e-19)
(1.03891 0.10308 -5.41777e-20)
(1.03819 0.0930919 -4.2691e-20)
(0.557821 0.445883 3.14978e-20)
(0.903751 0.65893 1.3791e-19)
(0.981255 0.615163 -1.03765e-19)
(0.987125 0.534931 -1.29873e-20)
(0.990399 0.463821 -4.69643e-20)
(0.993976 0.406579 -2.78566e-20)
(0.998993 0.35885 -4.81343e-20)
(1.00396 0.318875 -2.96998e-20)
(1.00897 0.284704 -2.99277e-20)
(1.01358 0.255259 6.13681e-20)
(1.01779 0.229551 -5.73468e-20)
(1.02148 0.206929 -1.78384e-19)
(1.02465 0.18683 -4.20448e-20)
(1.02729 0.16885 -2.01058e-20)
(1.02942 0.15266 6.14598e-20)
(1.03105 0.13798 -1.009e-20)
(1.0322 0.124512 1.2346e-20)
(1.03275 0.112214 -2.35212e-20)
(1.03256 0.101589 8.16498e-20)
(1.03239 0.0919001 -5.20725e-20)
(0.541554 0.461945 7.0854e-20)
(0.870091 0.667011 -2.68475e-19)
(0.946967 0.616424 4.24122e-20)
(0.956647 0.533478 -3.83593e-20)
(0.964332 0.461359 2.0086e-20)
(0.971415 0.403606 1.55156e-19)
(0.979296 0.355589 -1.33938e-19)
(0.986577 0.315498 -3.42998e-20)
(0.993526 0.281315 8.46111e-21)
(0.999753 0.251936 -2.23809e-19)
(1.00536 0.226343 3.92271e-20)
(1.01023 0.203871 1.42439e-19)
(1.01444 0.183943 1.39863e-19)
(1.01799 0.166148 3.44581e-20)
(1.02092 0.150151 -5.15318e-20)
(1.02325 0.13569 -1.97925e-20)
(1.02499 0.122459 6.03901e-20)
(1.0261 0.110328 6.08219e-21)
(1.02656 0.0998077 1.00893e-20)
(1.027 0.0905483 8.81289e-20)
(0.522048 0.474909 -3.35893e-19)
(0.834524 0.67187 1.09811e-19)
(0.911736 0.615018 1.74786e-20)
(0.925751 0.530009 1.38541e-21)
(0.938046 0.457251 1.18762e-19)
(0.948738 0.399252 -7.2117e-20)
(0.959559 0.351158 9.57625e-20)
(0.969212 0.311116 -6.57572e-20)
(0.978139 0.277058 -1.07796e-19)
(0.986018 0.247855 3.45339e-19)
(0.99303 0.22247 8.6487e-21)
(0.999111 0.200225 -2.01512e-20)
(1.00437 0.180533 -6.25227e-20)
(1.00884 0.162975 -5.27727e-21)
(1.0126 0.147219 -4.33081e-21)
(1.01562 0.133014 3.96137e-20)
(1.01795 0.12005 -3.33935e-20)
(1.01972 0.1081 -3.11499e-20)
(1.02107 0.0976907 6.68527e-21)
(1.02229 0.0891596 -7.96443e-20)