/*--------------------------------*- C++ -*----------------------------------*\
  =========                 |
  \\      /  F ield         | OpenFOAM: The Open Source CFD Toolbox
   \\    /   O peration     | Website:  https://openfoam.org
    \\  /    A nd           | Version:  7
     \\/     M anipulation  |
\*---------------------------------------------------------------------------*/
FoamFile
{
    version     2.0;
    format      ascii;
    class       volScalarField;
    location    "15";
    object      p;
}
// * * * * * * * * * * * * * * * * * * * * * * * * * * * * * * * * * * * * * //

dimensions      [0 2 -2 0 0 0 0];

internalField   nonuniform List<scalar> 
2625
(
-0.0454178
-0.0445031
-0.0435978
-0.0427012
-0.0418129
-0.0409323
-0.0400589
-0.039192
-0.0383311
-0.0374756
-0.0366249
-0.0357784
-0.0349354
-0.0340954
-0.0332576
-0.0324214
-0.0315862
-0.0307513
-0.029916
-0.0290796
-0.0282416
-0.0274012
-0.0265578
-0.0257107
-0.0248594
-0.0240034
-0.023142
-0.0222749
-0.0214016
-0.020522
-0.0196358
-0.0187429
-0.0178436
-0.016938
-0.0160266
-0.0151101
-0.0141893
-0.0132655
-0.0123399
-0.0114142
-0.0104904
-0.00957057
-0.00865701
-0.00775245
-0.00685902
-0.00598072
-0.0051167
-0.00427805
-0.00344522
-0.00267185
-0.00183415
-0.00122278
-0.000164343
-0.000179111
0.00215024
-0.000691184
0.00768038
-0.0454358
-0.0445206
-0.0436149
-0.0427179
-0.0418292
-0.0409483
-0.0400745
-0.0392072
-0.038346
-0.0374902
-0.0366392
-0.0357924
-0.0349492
-0.0341089
-0.0332709
-0.0324345
-0.0315991
-0.030764
-0.0299285
-0.029092
-0.0282539
-0.0274133
-0.0265698
-0.0257226
-0.0248712
-0.0240151
-0.0231536
-0.0222864
-0.0214131
-0.0205334
-0.0196471
-0.0187542
-0.0178548
-0.0169491
-0.0160376
-0.015121
-0.0142001
-0.0132761
-0.0123503
-0.0114245
-0.0105005
-0.00958043
-0.00866663
-0.00776182
-0.00686812
-0.00598955
-0.00512525
-0.00428631
-0.00345326
-0.00267958
-0.00184185
-0.00122997
-0.000172388
-0.000185151
0.00213911
-0.0006917
0.00765406
-0.0454718
-0.0445558
-0.0436491
-0.0427514
-0.0418619
-0.0409802
-0.0401056
-0.0392378
-0.0383759
-0.0375195
-0.0366679
-0.0358205
-0.0349768
-0.034136
-0.0332975
-0.0324607
-0.0316249
-0.0307895
-0.0299537
-0.0291169
-0.0282784
-0.0274376
-0.0265938
-0.0257465
-0.0248949
-0.0240385
-0.0231769
-0.0223096
-0.0214361
-0.0205562
-0.0196698
-0.0187767
-0.0178771
-0.0169712
-0.0160595
-0.0151427
-0.0142215
-0.0132972
-0.0123711
-0.0114449
-0.0105205
-0.00960002
-0.00868575
-0.00778043
-0.0068862
-0.00600707
-0.00514223
-0.00430273
-0.00346921
-0.00269494
-0.00185715
-0.00124427
-0.000188393
-0.000197157
0.00211691
-0.000692705
0.00760154
-0.0455258
-0.0446085
-0.0437005
-0.0428015
-0.0419108
-0.041028
-0.0401524
-0.0392835
-0.0384206
-0.0375633
-0.0367108
-0.0358626
-0.0350181
-0.0341766
-0.0333374
-0.0325
-0.0316636
-0.0308275
-0.0299912
-0.029154
-0.0283151
-0.0274739
-0.0266298
-0.0257821
-0.0249302
-0.0240736
-0.0232117
-0.0223441
-0.0214704
-0.0205903
-0.0197036
-0.0188102
-0.0179104
-0.0170042
-0.0160922
-0.0151749
-0.0142534
-0.0133286
-0.0124021
-0.0114753
-0.0105503
-0.00962916
-0.00871419
-0.00780811
-0.00691309
-0.00603314
-0.00516749
-0.00432715
-0.00349295
-0.00271781
-0.00187993
-0.00126557
-0.000212253
-0.000215035
0.00208377
-0.000694167
0.00752314
-0.0455979
-0.0446787
-0.043769
-0.0428683
-0.0419761
-0.0410917
-0.0402146
-0.0393443
-0.0384801
-0.0376215
-0.0367679
-0.0359186
-0.035073
-0.0342304
-0.0333903
-0.032552
-0.0317148
-0.030878
-0.030041
-0.0292031
-0.0283637
-0.0275219
-0.0266773
-0.0258291
-0.0249768
-0.0241198
-0.0232576
-0.0223896
-0.0215156
-0.0206352
-0.0197482
-0.0188545
-0.0179542
-0.0170477
-0.0161352
-0.0152175
-0.0142954
-0.0133701
-0.0124429
-0.0115154
-0.0105896
-0.00966758
-0.00875167
-0.0078446
-0.00694855
-0.00606752
-0.00520081
-0.00435936
-0.00352427
-0.00274798
-0.00191002
-0.00129369
-0.000243813
-0.000238648
0.00203987
-0.000696045
0.00741926
-0.0456878
-0.0447663
-0.0438545
-0.0429517
-0.0420574
-0.0411711
-0.0402922
-0.0394201
-0.0385542
-0.037694
-0.0368389
-0.0359881
-0.0351412
-0.0342974
-0.0334561
-0.0326167
-0.0317784
-0.0309407
-0.0301028
-0.0292641
-0.0284238
-0.0275814
-0.0267362
-0.0258874
-0.0250346
-0.0241771
-0.0233143
-0.0224459
-0.0215715
-0.0206906
-0.0198032
-0.0189091
-0.0180083
-0.0171013
-0.0161883
-0.01527
-0.0143472
-0.0134212
-0.0124931
-0.0115648
-0.010638
-0.0097149
-0.00879785
-0.00788956
-0.00699224
-0.00610989
-0.00524189
-0.00439909
-0.00356293
-0.00278522
-0.00194719
-0.00132842
-0.000282872
-0.000267812
0.00198544
-0.00069828
0.00729047
-0.0457956
-0.0448713
-0.0439568
-0.0430515
-0.0421547
-0.0412661
-0.0403849
-0.0395107
-0.0386428
-0.0377807
-0.0369236
-0.0360712
-0.0352226
-0.0343772
-0.0335345
-0.0326937
-0.0318541
-0.0310152
-0.0301762
-0.0293365
-0.0284953
-0.027652
-0.0268059
-0.0259564
-0.0251029
-0.0242448
-0.0233815
-0.0225125
-0.0216375
-0.0207561
-0.0198681
-0.0189735
-0.0180722
-0.0171645
-0.0162509
-0.0153318
-0.0144083
-0.0134814
-0.0125524
-0.011623
-0.010695
-0.00977069
-0.00885229
-0.00794258
-0.00704377
-0.00615987
-0.00529037
-0.00444599
-0.00360859
-0.00282922
-0.00199116
-0.0013695
-0.000329182
-0.000302306
0.00192076
-0.0007008
0.00713747
-0.0459211
-0.0449936
-0.0440759
-0.0431676
-0.0422679
-0.0413765
-0.0404927
-0.0396159
-0.0387456
-0.0378811
-0.0370219
-0.0361673
-0.0353168
-0.0344696
-0.0336251
-0.0327826
-0.0319416
-0.0311012
-0.0302609
-0.0294199
-0.0285776
-0.0277332
-0.0268862
-0.0260358
-0.0251814
-0.0243225
-0.0234585
-0.0225888
-0.0217132
-0.0208311
-0.0199425
-0.0190472
-0.0181452
-0.0172368
-0.0163224
-0.0154025
-0.0144781
-0.0135502
-0.0126201
-0.0116894
-0.0107602
-0.00983442
-0.0089145
-0.00800316
-0.00710268
-0.00621703
-0.00534583
-0.00449966
-0.00366089
-0.00287964
-0.00204162
-0.00141661
-0.000382454
-0.000341865
0.00184616
-0.00070352
0.00696107
-0.0460642
-0.045133
-0.0442116
-0.0432998
-0.0423968
-0.0415021
-0.0406152
-0.0397355
-0.0388623
-0.0379952
-0.0371334
-0.0362764
-0.0354235
-0.0345741
-0.0337276
-0.0328832
-0.0320403
-0.0311983
-0.0303564
-0.0295139
-0.0286702
-0.0278246
-0.0269764
-0.0261249
-0.0252696
-0.0244097
-0.0235448
-0.0226743
-0.0217979
-0.0209151
-0.0200257
-0.0191296
-0.0182268
-0.0173176
-0.0164023
-0.0154815
-0.014556
-0.0136269
-0.0126956
-0.0117636
-0.0108329
-0.00990552
-0.00898392
-0.00807078
-0.00716845
-0.00628087
-0.00540781
-0.00455967
-0.00371942
-0.00293607
-0.0020982
-0.00146941
-0.00044236
-0.000386192
0.00176203
-0.000706343
0.00676218
-0.0462249
-0.0452893
-0.0443638
-0.0434479
-0.0425411
-0.0416428
-0.0407523
-0.0398692
-0.0389928
-0.0381225
-0.0372578
-0.036398
-0.0355424
-0.0346905
-0.0338416
-0.032995
-0.03215
-0.031306
-0.0304622
-0.029618
-0.0287728
-0.0279257
-0.0270761
-0.0262233
-0.0253668
-0.0245058
-0.0236398
-0.0227684
-0.021891
-0.0210073
-0.020117
-0.01922
-0.0183163
-0.0174061
-0.0164898
-0.0155679
-0.0146413
-0.0137109
-0.0127782
-0.0118448
-0.0109124
-0.00998337
-0.00905993
-0.00814485
-0.00724051
-0.00635084
-0.00547578
-0.00462552
-0.00378371
-0.00299809
-0.00216049
-0.0015275
-0.00050854
-0.000434955
0.00166879
-0.000709159
0.00654184
-0.0464028
-0.0454623
-0.0445322
-0.0436118
-0.0427007
-0.0417981
-0.0409037
-0.0400167
-0.0391366
-0.0382629
-0.0373948
-0.0365318
-0.0356732
-0.0348184
-0.0339667
-0.0331175
-0.0322701
-0.0314238
-0.0305779
-0.0297318
-0.0288846
-0.0280358
-0.0271846
-0.0263303
-0.0254724
-0.0246101
-0.023743
-0.0228703
-0.0219918
-0.021107
-0.0202157
-0.0193177
-0.018413
-0.0175017
-0.0165842
-0.0156611
-0.0147332
-0.0138015
-0.0128673
-0.0119323
-0.0109982
-0.0100673
-0.00914188
-0.00822472
-0.00731826
-0.00642637
-0.00554921
-0.00469668
-0.00385327
-0.00306521
-0.00222806
-0.00159046
-0.000580605
-0.000487793
0.00156688
-0.000711846
0.00630115
-0.0465978
-0.0456519
-0.0447166
-0.0437912
-0.0428752
-0.041968
-0.041069
-0.0401778
-0.0392936
-0.0384158
-0.037544
-0.0366773
-0.0358153
-0.0349572
-0.0341025
-0.0332504
-0.0324002
-0.0315513
-0.030703
-0.0298545
-0.0290053
-0.0281544
-0.0273014
-0.0264454
-0.0255858
-0.024722
-0.0238534
-0.0229795
-0.0220997
-0.0212137
-0.0203211
-0.0194219
-0.018516
-0.0176035
-0.0166848
-0.0157604
-0.0148311
-0.0138979
-0.0129621
-0.0120254
-0.0110895
-0.0101566
-0.0092291
-0.00830976
-0.00740107
-0.00650684
-0.00562751
-0.00477261
-0.00392759
-0.00313694
-0.00230047
-0.00165785
-0.000658143
-0.000544317
0.00145679
-0.000714269
0.00604131
-0.0468096
-0.0458578
-0.0449167
-0.0439858
-0.0430644
-0.042152
-0.0412481
-0.040352
-0.0394632
-0.0385811
-0.037705
-0.0368343
-0.0359684
-0.0351067
-0.0342485
-0.0333931
-0.0325398
-0.0316879
-0.0308369
-0.0299858
-0.0291341
-0.028281
-0.0274258
-0.0265678
-0.0257064
-0.0248409
-0.0239706
-0.0230951
-0.0222139
-0.0213264
-0.0204326
-0.019532
-0.0186248
-0.0177109
-0.0167908
-0.015865
-0.0149341
-0.0139994
-0.0130619
-0.0121233
-0.0111854
-0.0102505
-0.00932088
-0.00839926
-0.00748827
-0.00659164
-0.00571008
-0.00485272
-0.00400614
-0.00321277
-0.00237724
-0.00172919
-0.000740724
-0.000604118
0.00133903
-0.000716285
0.00576357
-0.0460797
-0.0451323
-0.0441952
-0.0432679
-0.0423499
-0.0414404
-0.0405391
-0.0396452
-0.0387582
-0.0378774
-0.0370023
-0.0361321
-0.0352663
-0.0344042
-0.0335451
-0.0326883
-0.0318332
-0.030979
-0.030125
-0.0292706
-0.0284149
-0.0275573
-0.026697
-0.0258335
-0.024966
-0.0240938
-0.0232166
-0.0223336
-0.0214446
-0.0205492
-0.0196471
-0.0187384
-0.017823
-0.0169014
-0.015974
-0.0150416
-0.0141051
-0.0131658
-0.0122253
-0.0112854
-0.0103484
-0.00941651
-0.00849255
-0.00757921
-0.0066801
-0.00579631
-0.00493644
-0.00408835
-0.00329216
-0.00245787
-0.001804
-0.000827908
-0.000666767
0.00121412
-0.000717735
0.00546924
-0.0463173
-0.045363
-0.0444192
-0.0434855
-0.0425612
-0.0416458
-0.0407386
-0.0398392
-0.0389468
-0.0380609
-0.0371808
-0.0363059
-0.0354356
-0.0345692
-0.033706
-0.0328454
-0.0319866
-0.0311289
-0.0302716
-0.0294141
-0.0285555
-0.0276951
-0.0268323
-0.0259664
-0.0250966
-0.0242224
-0.0233431
-0.0224583
-0.0215675
-0.0206703
-0.0197665
-0.0188561
-0.0179392
-0.0170159
-0.0160868
-0.0151526
-0.0142143
-0.0132731
-0.0123306
-0.0113887
-0.0104494
-0.00951528
-0.00858892
-0.00767322
-0.0067716
-0.0058856
-0.00502317
-0.00417369
-0.00337456
-0.00254189
-0.00188178
-0.000919246
-0.000731817
0.00108259
-0.000718451
0.00515965
-0.0465702
-0.0456084
-0.0446575
-0.0437168
-0.0427857
-0.0418638
-0.0409503
-0.0400447
-0.0391465
-0.0382549
-0.0373695
-0.0364894
-0.0356142
-0.034743
-0.0338753
-0.0330104
-0.0321475
-0.031286
-0.0304251
-0.0295641
-0.0287022
-0.0278388
-0.0269732
-0.0261045
-0.0252322
-0.0243556
-0.0234741
-0.0225871
-0.0216943
-0.0207951
-0.0198895
-0.0189773
-0.0180585
-0.0171334
-0.0162025
-0.0152664
-0.0143262
-0.0133831
-0.0124385
-0.0114944
-0.0105529
-0.00961649
-0.00868772
-0.00776964
-0.0068655
-0.00597733
-0.00511232
-0.0042616
-0.00345944
-0.0026288
-0.00196202
-0.00101429
-0.00079881
0.000944984
-0.000718251
0.00483616
-0.0468381
-0.0458683
-0.0449096
-0.0439614
-0.043023
-0.042094
-0.0411737
-0.0402615
-0.0393569
-0.0384593
-0.0375679
-0.0366822
-0.0358015
-0.0349252
-0.0340526
-0.0331829
-0.0323156
-0.0314498
-0.0305848
-0.02972
-0.0288546
-0.0279878
-0.0271189
-0.0262473
-0.0253721
-0.0244929
-0.0236088
-0.0227195
-0.0218244
-0.0209231
-0.0200154
-0.0191011
-0.0181804
-0.0172533
-0.0163205
-0.0153824
-0.0144402
-0.013495
-0.0125483
-0.011602
-0.0106582
-0.00971946
-0.00878826
-0.00786783
-0.00696117
-0.00607091
-0.00520331
-0.00435155
-0.00354626
-0.00271813
-0.00204421
-0.00111261
-0.000867277
0.000801829
-0.000716938
0.00450014
-0.0471206
-0.0461423
-0.0451752
-0.0442189
-0.0432727
-0.042336
-0.0414084
-0.0404891
-0.0395777
-0.0386734
-0.0377756
-0.0368838
-0.0359973
-0.0351153
-0.0342373
-0.0333625
-0.0324902
-0.0316198
-0.0307504
-0.0298814
-0.029012
-0.0281415
-0.0272691
-0.0263941
-0.0255158
-0.0246336
-0.0237467
-0.0228547
-0.0219571
-0.0210534
-0.0201434
-0.019227
-0.0183041
-0.0173749
-0.01644
-0.0154999
-0.0145555
-0.0136082
-0.0126593
-0.0117108
-0.0107646
-0.00982355
-0.00888991
-0.00796718
-0.007058
-0.00616577
-0.00529558
-0.00444301
-0.00363448
-0.0028094
-0.00212784
-0.00121377
-0.000936739
0.000653646
-0.000714299
0.00415292
-0.0474173
-0.0464299
-0.0454539
-0.044489
-0.0435344
-0.0425896
-0.0416541
-0.0407272
-0.0398084
-0.038897
-0.0379923
-0.0370939
-0.036201
-0.035313
-0.0344291
-0.0335487
-0.0326711
-0.0317956
-0.0309214
-0.0300478
-0.029174
-0.0282994
-0.0274231
-0.0265444
-0.0256627
-0.0247771
-0.0238872
-0.0229923
-0.0220919
-0.0211856
-0.0202731
-0.0193543
-0.018429
-0.0174976
-0.0165604
-0.0156181
-0.0146715
-0.013722
-0.0127708
-0.01182
-0.0108715
-0.00992815
-0.00899208
-0.0080671
-0.00715544
-0.00626137
-0.00538859
-0.00453549
-0.00372358
-0.00290218
-0.0022124
-0.00131736
-0.00100671
0.000500932
-0.000710103
0.00379584
-0.0477278
-0.0467307
-0.0457453
-0.0447712
-0.0438077
-0.0428543
-0.0419104
-0.0409753
-0.0400486
-0.0391296
-0.0382176
-0.0373121
-0.0364123
-0.0355177
-0.0346276
-0.0337411
-0.0328578
-0.0319767
-0.0310973
-0.0302187
-0.0293402
-0.028461
-0.0275805
-0.0266978
-0.0258122
-0.0249231
-0.0240298
-0.0231317
-0.0222283
-0.0213191
-0.0204039
-0.0194824
-0.0185546
-0.0176208
-0.0166812
-0.0157365
-0.0147877
-0.0138358
-0.0128823
-0.0119292
-0.0109784
-0.0100327
-0.0090942
-0.00816705
-0.00725294
-0.00635719
-0.00548182
-0.00462852
-0.00381308
-0.00299603
-0.0022974
-0.001423
-0.0010767
0.000344156
-0.000704095
0.00343015
-0.0470443
-0.046049
-0.0450652
-0.0440923
-0.0431297
-0.0421769
-0.0412332
-0.0402981
-0.0393709
-0.0384511
-0.037538
-0.0366309
-0.0357293
-0.0348323
-0.0339394
-0.0330499
-0.0321629
-0.0312777
-0.0303937
-0.0295101
-0.0286261
-0.0277409
-0.0268538
-0.0259641
-0.0250711
-0.024174
-0.0232724
-0.0223657
-0.0214534
-0.0205352
-0.0196108
-0.0186804
-0.0177439
-0.0168018
-0.0158547
-0.0149034
-0.0139491
-0.0129933
-0.0120378
-0.0110846
-0.0101366
-0.00919576
-0.00826654
-0.00735
-0.00645276
-0.00557479
-0.00472166
-0.00390249
-0.00309057
-0.00238235
-0.00153034
-0.00114621
0.000183751
-0.000695993
0.00305708
-0.0473703
-0.0463646
-0.0453706
-0.0443878
-0.0434155
-0.0424533
-0.0415004
-0.0405564
-0.0396207
-0.0386925
-0.0377713
-0.0368565
-0.0359473
-0.0350431
-0.0341433
-0.033247
-0.0323537
-0.0314624
-0.0305726
-0.0296834
-0.0287941
-0.0279039
-0.0270121
-0.0261179
-0.0252206
-0.0243195
-0.0234141
-0.0225038
-0.0215881
-0.0206666
-0.0197392
-0.0188058
-0.0178666
-0.0169218
-0.015972
-0.0150182
-0.0140615
-0.0131032
-0.0121454
-0.0111898
-0.0102396
-0.0092963
-0.0083651
-0.00744617
-0.00654766
-0.00566705
-0.00481451
-0.00399135
-0.00318546
-0.00246676
-0.00163906
-0.00121473
2.01e-05
-0.000685484
0.00267773
-0.0477083
-0.0466917
-0.0456871
-0.0446938
-0.0437114
-0.0427392
-0.0417767
-0.0408234
-0.0398785
-0.0389415
-0.0380118
-0.0370886
-0.0361715
-0.0352596
-0.0343524
-0.033449
-0.0325488
-0.0316511
-0.030755
-0.0298598
-0.0289648
-0.0280692
-0.0271723
-0.0262732
-0.0253713
-0.0244659
-0.0235564
-0.0226422
-0.0217228
-0.0207978
-0.0198671
-0.0189306
-0.0179884
-0.0170407
-0.0160882
-0.0151317
-0.0141725
-0.0132117
-0.0122515
-0.0112934
-0.010341
-0.0093954
-0.00846235
-0.00754103
-0.0066415
-0.00575819
-0.00490673
-0.00407925
-0.00328036
-0.00255016
-0.0017489
-0.00128174
-0.000146472
-0.00067221
0.00229315
-0.0480579
-0.0470299
-0.0460141
-0.04501
-0.0440169
-0.0430344
-0.0420618
-0.0410985
-0.0401441
-0.0391978
-0.038259
-0.0373272
-0.0364016
-0.0354816
-0.0345665
-0.0336556
-0.0327481
-0.0318434
-0.0309407
-0.0300391
-0.0291381
-0.0282367
-0.0273342
-0.0264299
-0.0255231
-0.024613
-0.023699
-0.0227806
-0.0218572
-0.0209286
-0.0199943
-0.0190544
-0.018109
-0.0171583
-0.0162029
-0.0152437
-0.0142818
-0.0133184
-0.0123558
-0.0113953
-0.0104407
-0.00949272
-0.00855794
-0.00763423
-0.00673395
-0.00584783
-0.00499799
-0.00416577
-0.00337502
-0.0026321
-0.00185963
-0.00134671
-0.000315705
-0.000655768
0.00190422
-0.0484186
-0.0473788
-0.0463514
-0.045336
-0.0443318
-0.0433384
-0.0423553
-0.0413817
-0.0404172
-0.0394612
-0.038513
-0.0375719
-0.0366374
-0.0357088
-0.0347854
-0.0338665
-0.0329513
-0.0320392
-0.0311294
-0.0302211
-0.0293136
-0.028406
-0.0274977
-0.0265878
-0.0256756
-0.0247605
-0.0238418
-0.0229189
-0.0219913
-0.0210586
-0.0201205
-0.0191771
-0.0182282
-0.0172743
-0.0163159
-0.0153538
-0.0143891
-0.0134231
-0.012458
-0.011495
-0.0105383
-0.00958794
-0.00865158
-0.00772546
-0.00682473
-0.00593564
-0.00508805
-0.00425054
-0.00346922
-0.00271213
-0.0019711
-0.00140909
-0.000487421
-0.00063569
0.00151171
-0.047738
-0.0466987
-0.0456715
-0.0446558
-0.0436512
-0.042657
-0.0416727
-0.0406977
-0.0397314
-0.0387733
-0.0378226
-0.0368788
-0.0359411
-0.035009
-0.0340816
-0.0331584
-0.0322384
-0.0313211
-0.0304056
-0.0294912
-0.0285771
-0.0276625
-0.0267466
-0.0258288
-0.0249084
-0.0239845
-0.0230568
-0.0221247
-0.0211877
-0.0202456
-0.0192983
-0.0183459
-0.0173886
-0.016427
-0.0154618
-0.0144943
-0.0135255
-0.0125579
-0.0115924
-0.0106336
-0.00968083
-0.00874305
-0.00781444
-0.00691361
-0.00602132
-0.0051767
-0.00433322
-0.00356279
-0.00278978
-0.0020832
-0.00146829
-0.000661532
-0.000611435
0.00111621
-0.0481072
-0.0470556
-0.0460162
-0.0449886
-0.0439723
-0.0429667
-0.0419712
-0.0409853
-0.0400084
-0.0390399
-0.0380791
-0.0371255
-0.0361784
-0.0352371
-0.0343009
-0.0333691
-0.0324409
-0.0315157
-0.0305926
-0.0296709
-0.0287498
-0.0278286
-0.0269064
-0.0259826
-0.0250564
-0.0241272
-0.0231944
-0.0222574
-0.0213158
-0.0203695
-0.0194181
-0.0184619
-0.017501
-0.016536
-0.0155676
-0.0145971
-0.0136255
-0.0126553
-0.0116873
-0.0107264
-0.00977121
-0.00883215
-0.00790097
-0.00700042
-0.00610462
-0.00526377
-0.00441346
-0.00365562
-0.00286462
-0.00219592
-0.00152371
-0.000838056
-0.000582374
0.000718132
-0.0484861
-0.0474217
-0.0463698
-0.04533
-0.0443016
-0.0432841
-0.042277
-0.0412798
-0.0402918
-0.0393125
-0.0383413
-0.0373775
-0.0364205
-0.0354696
-0.0345241
-0.0335834
-0.0326466
-0.0317131
-0.030782
-0.0298527
-0.0289242
-0.027996
-0.0270672
-0.026137
-0.0252047
-0.0242698
-0.0233315
-0.0223894
-0.021443
-0.0204921
-0.0195364
-0.0185761
-0.0176114
-0.0166429
-0.0156712
-0.0146976
-0.013723
-0.0127502
-0.0117795
-0.0108166
-0.00985893
-0.00891879
-0.00798487
-0.00708503
-0.00618532
-0.00534917
-0.00449098
-0.00374767
-0.0029362
-0.0023093
-0.00157469
-0.00101713
-0.000547767
0.000317656
-0.0488742
-0.0477968
-0.0467321
-0.0456796
-0.0446388
-0.0436091
-0.0425901
-0.0415811
-0.0405817
-0.0395912
-0.0386091
-0.0376347
-0.0366674
-0.0357065
-0.0347514
-0.0338013
-0.0328555
-0.0319132
-0.0309738
-0.0300364
-0.0291003
-0.0281647
-0.0272288
-0.0262919
-0.0253533
-0.0244123
-0.0234683
-0.0225207
-0.0215692
-0.0206134
-0.0196532
-0.0186887
-0.01772
-0.0167478
-0.0157725
-0.0147957
-0.013818
-0.0128426
-0.0118691
-0.0109043
-0.00994391
-0.00900289
-0.00806602
-0.00716738
-0.00626322
-0.00543284
-0.00456547
-0.00383896
-0.00300405
-0.00242349
-0.0016205
-0.00119904
-0.000506736
-8.52783e-05
-0.0481806
-0.0471028
-0.0460373
-0.0449837
-0.0439415
-0.0429101
-0.0418891
-0.0408778
-0.0398758
-0.0388824
-0.0378971
-0.0369191
-0.0359478
-0.0349826
-0.0340227
-0.0330675
-0.0321162
-0.031168
-0.0302222
-0.0292781
-0.0283347
-0.0273915
-0.0264475
-0.0255022
-0.0245548
-0.0236047
-0.0226514
-0.0216945
-0.0207336
-0.0197686
-0.0187996
-0.0178267
-0.0168505
-0.0158716
-0.0148915
-0.0139105
-0.0129324
-0.011956
-0.0109893
-0.0100261
-0.00908445
-0.00814433
-0.00724746
-0.00633817
-0.00551481
-0.00463665
-0.00392958
-0.0030677
-0.00253873
-0.00166036
-0.00138421
-0.000458216
-0.000491033
-0.0485729
-0.0474816
-0.0464029
-0.0453362
-0.0442811
-0.0432371
-0.0422036
-0.0411802
-0.0401663
-0.0391612
-0.0381645
-0.0371754
-0.0361934
-0.0352178
-0.0342478
-0.0332828
-0.0323221
-0.0313648
-0.0304102
-0.0294576
-0.0285062
-0.0275552
-0.0266039
-0.0256515
-0.0246974
-0.023741
-0.0227817
-0.021819
-0.0208528
-0.0198828
-0.018909
-0.0179316
-0.0169514
-0.0159685
-0.014985
-0.0140006
-0.0130198
-0.0120403
-0.0110717
-0.0101056
-0.00916349
-0.00821974
-0.0073253
-0.00641002
-0.00559514
-0.00470426
-0.00401968
-0.00312663
-0.00265538
-0.0016934
-0.00157326
-0.000400957
-0.000900286
-0.0489733
-0.0478684
-0.0467761
-0.0456961
-0.0446278
-0.0435708
-0.0425246
-0.0414887
-0.0404625
-0.0394455
-0.038437
-0.0374366
-0.0364434
-0.035457
-0.0344766
-0.0335014
-0.0325309
-0.0315641
-0.0306005
-0.0296391
-0.0286792
-0.0277202
-0.0267611
-0.0258014
-0.0248403
-0.0238772
-0.0229116
-0.021943
-0.0209711
-0.0199958
-0.0190171
-0.018035
-0.0170505
-0.0160635
-0.0150764
-0.0140885
-0.0131047
-0.0121221
-0.0111516
-0.0101823
-0.00924011
-0.00829224
-0.007401
-0.00647867
-0.00567396
-0.00476801
-0.00410952
-0.0031803
-0.0027739
-0.00171864
-0.00176699
-0.000333518
-0.00131404
-0.0493817
-0.0482629
-0.0471569
-0.0460632
-0.0449815
-0.0439112
-0.042852
-0.0418033
-0.0407645
-0.0397352
-0.0387147
-0.0377025
-0.0366979
-0.0357004
-0.0347091
-0.0337235
-0.0327428
-0.0317662
-0.0307931
-0.0298226
-0.028854
-0.0278866
-0.0269195
-0.0259521
-0.0249837
-0.0240136
-0.0230414
-0.0220665
-0.0210888
-0.0201079
-0.019124
-0.018137
-0.017148
-0.0161568
-0.0151658
-0.0141741
-0.0131875
-0.0122014
-0.0112293
-0.0102563
-0.00931444
-0.00836184
-0.00747468
-0.00654399
-0.00575147
-0.00482762
-0.00419941
-0.00322813
-0.0028949
-0.00173499
-0.0019664
-0.00025422
-0.00173368
-0.0486651
-0.0475451
-0.0464376
-0.0453422
-0.0442584
-0.0431858
-0.042124
-0.0410723
-0.0400304
-0.0389975
-0.0379733
-0.0369569
-0.0359479
-0.0349455
-0.0339491
-0.0329579
-0.0319712
-0.0309883
-0.0300084
-0.0290307
-0.0280545
-0.0270791
-0.0261037
-0.0251277
-0.0241503
-0.0231712
-0.0221898
-0.0212059
-0.0202192
-0.0192299
-0.0182378
-0.0172441
-0.0162483
-0.0152535
-0.0142578
-0.0132683
-0.0122784
-0.0113047
-0.0103278
-0.0093866
-0.00842851
-0.0075465
-0.00660589
-0.00582789
-0.00488278
-0.00428978
-0.00326947
-0.00301914
-0.00174121
-0.00217277
-0.00016107
-0.00216108
-0.0490745
-0.0479403
-0.0468188
-0.0457094
-0.0446119
-0.0435257
-0.0424505
-0.0413857
-0.0403308
-0.0392853
-0.0382486
-0.0372202
-0.0361994
-0.0351856
-0.034178
-0.033176
-0.0321789
-0.0311859
-0.0301962
-0.0292092
-0.028224
-0.0272399
-0.0262562
-0.0252723
-0.0242875
-0.0233012
-0.022313
-0.0213227
-0.0203299
-0.0193349
-0.0183374
-0.0173389
-0.0163384
-0.0153395
-0.0143396
-0.0133471
-0.0123532
-0.0113781
-0.0103967
-0.00945677
-0.00849226
-0.00761668
-0.00666421
-0.00590352
-0.00493312
-0.00438114
-0.00330352
-0.00314757
-0.00173578
-0.00238775
-5.14493e-05
-0.00259877
-0.0494895
-0.0483412
-0.0472055
-0.0460821
-0.0449706
-0.0438707
-0.0427818
-0.0417037
-0.0406357
-0.0395773
-0.0385281
-0.0374874
-0.0364546
-0.0354291
-0.0344102
-0.0333972
-0.0323894
-0.031386
-0.0303864
-0.0293898
-0.0283953
-0.0274024
-0.0264102
-0.0254181
-0.0244255
-0.0234319
-0.0224367
-0.0214398
-0.0204407
-0.0194398
-0.0184368
-0.0174331
-0.0164276
-0.0154247
-0.0144202
-0.0134247
-0.0124264
-0.01145
-0.0104636
-0.00952546
-0.00855333
-0.00768569
-0.00671892
-0.00597889
-0.00497821
-0.00447423
-0.00332927
-0.00328145
-0.00171669
-0.00261361
7.81846e-05
-0.00305001
-0.0487497
-0.0475999
-0.0464624
-0.0453369
-0.0442232
-0.0431207
-0.0420291
-0.0409478
-0.0398765
-0.0388145
-0.0377613
-0.0367164
-0.035679
-0.0346485
-0.0336242
-0.0326055
-0.0315916
-0.0305818
-0.0295753
-0.0285714
-0.0275693
-0.0265684
-0.0255679
-0.0245672
-0.0235659
-0.0225634
-0.0215596
-0.0205538
-0.0195469
-0.0185378
-0.0175289
-0.016518
-0.0155107
-0.0145013
-0.0135027
-0.0124994
-0.0115219
-0.0105294
-0.00959377
-0.00861248
-0.00775442
-0.00677043
-0.00605479
-0.00501804
-0.00456987
-0.00334616
-0.0034219
-0.00168263
-0.00285188
0.000229967
-0.00351747
-0.0491806
-0.0480158
-0.0468635
-0.0457233
-0.0445949
-0.0434779
-0.042372
-0.0412766
-0.0401914
-0.0391158
-0.0380492
-0.0369912
-0.035941
-0.0348981
-0.0338618
-0.0328313
-0.031806
-0.0307851
-0.0297679
-0.0287537
-0.0277417
-0.0267312
-0.0257216
-0.0247122
-0.0237026
-0.0226921
-0.0216807
-0.0206678
-0.0196542
-0.0186387
-0.017624
-0.0166074
-0.0155954
-0.0145807
-0.0135789
-0.0125703
-0.0115919
-0.0105929
-0.00966052
-0.00866891
-0.00782223
-0.00681863
-0.00613098
-0.00505327
-0.00466794
-0.00335575
-0.00356817
-0.00163643
-0.00309946
0.000397699
-0.00400053
-0.0496191
-0.048438
-0.0472693
-0.0461129
-0.0449683
-0.0438354
-0.0427136
-0.0416026
-0.040502
-0.0394113
-0.03833
-0.0372575
-0.0361932
-0.0351365
-0.0340868
-0.0330433
-0.0320055
-0.0309724
-0.0299436
-0.0289181
-0.0278953
-0.0268745
-0.0258551
-0.0248364
-0.023818
-0.0227992
-0.0217802
-0.02076
-0.0197399
-0.0187182
-0.0176983
-0.0166765
-0.0156607
-0.0146415
-0.0136378
-0.0126247
-0.0116472
-0.0106425
-0.00971578
-0.0087143
-0.00788227
-0.00685828
-0.00620349
-0.00508143
-0.00476681
-0.00335778
-0.0037202
-0.00157904
-0.00335652
0.000580655
-0.00450549
-0.0499093
-0.0487175
-0.0475381
-0.0463708
-0.0452155
-0.0440717
-0.0429393
-0.0418178
-0.0407068
-0.0396058
-0.0385145
-0.0374321
-0.0363583
-0.0352923
-0.0342335
-0.0331813
-0.032135
-0.0310938
-0.0300571
-0.0290241
-0.0279942
-0.0269666
-0.0259408
-0.024916
-0.0238919
-0.0228678
-0.0218438
-0.0208191
-0.0197949
-0.0187693
-0.0177464
-0.0167211
-0.0157038
-0.0146812
-0.0136779
-0.0126607
-0.0116869
-0.0106753
-0.00975869
-0.00874322
-0.0079341
-0.00687973
-0.00627433
-0.00508588
-0.00487577
-0.00332316
-0.00390475
-0.00145725
-0.00368808
0.000887322
-0.00509945
-0.0499673
-0.0487791
-0.0476035
-0.0464402
-0.0452889
-0.0441493
-0.0430212
-0.041904
-0.0407975
-0.039701
-0.0386141
-0.0375362
-0.0364667
-0.0354051
-0.0343505
-0.0333024
-0.03226
-0.0312225
-0.0301892
-0.0291594
-0.0281322
-0.0271069
-0.0260829
-0.0250594
-0.024036
-0.0230119
-0.0219874
-0.020961
-0.0199348
-0.0189057
-0.0178794
-0.0168482
-0.0158263
-0.014795
-0.0137871
-0.0127571
-0.011781
-0.0107501
-0.00983842
-0.00879154
-0.0080048
-0.006895
-0.00634959
-0.00505595
-0.00498393
-0.00322218
-0.00410101
-0.00122814
-0.00407555
0.00137062
-0.00565336
-0.049959
-0.0487728
-0.0475991
-0.0464376
-0.045288
-0.04415
-0.0430234
-0.0419076
-0.0408024
-0.0397071
-0.0386214
-0.0375446
-0.0364762
-0.0354155
-0.0343618
-0.0333145
-0.0322729
-0.0312361
-0.0302035
-0.0291742
-0.0281475
-0.0271227
-0.0260991
-0.0250758
-0.0240527
-0.0230287
-0.0220043
-0.0209779
-0.0199517
-0.0189222
-0.0178958
-0.016864
-0.0158421
-0.0148096
-0.0138022
-0.01277
-0.0117957
-0.0107605
-0.00985361
-0.00879839
-0.00802273
-0.00689591
-0.006375
-0.00504603
-0.00502626
-0.003191
-0.00417863
-0.00115366
-0.00422209
0.00153188
-0.00588737
-0.04999
-0.0488034
-0.047629
-0.0464667
-0.0453161
-0.0441771
-0.0430492
-0.0419322
-0.0408256
-0.039729
-0.0386418
-0.0375635
-0.0364935
-0.0354312
-0.034376
-0.0333272
-0.032284
-0.0312457
-0.0302116
-0.0291809
-0.0281529
-0.0271268
-0.0261019
-0.0250776
-0.0240534
-0.0230285
-0.0220033
-0.0209761
-0.0199495
-0.0189196
-0.0178931
-0.016861
-0.0158396
-0.0148068
-0.0138006
-0.012768
-0.0117962
-0.0107597
-0.00985748
-0.00879834
-0.00803198
-0.0068954
-0.006393
-0.00504158
-0.00505931
-0.00317482
-0.00423881
-0.00110954
-0.0043308
0.00163268
-0.00608639
-0.0500333
-0.0488457
-0.0476702
-0.0465066
-0.0453546
-0.0442141
-0.0430847
-0.041966
-0.0408577
-0.0397593
-0.0386703
-0.0375901
-0.0365183
-0.0354542
-0.0343971
-0.0333464
-0.0323014
-0.0312613
-0.0302255
-0.0291931
-0.0281634
-0.0271357
-0.0261094
-0.0250837
-0.0240583
-0.0230321
-0.0220059
-0.0209778
-0.0199504
-0.0189198
-0.017893
-0.0168604
-0.0158391
-0.014806
-0.0138008
-0.0127675
-0.0117979
-0.0107598
-0.00986206
-0.00879896
-0.00804148
-0.0068953
-0.0064108
-0.00503749
-0.00509162
-0.00315925
-0.00429744
-0.00106692
-0.00443673
0.00173
-0.00628149
-0.0500744
-0.0488861
-0.0477096
-0.046545
-0.0453919
-0.0442501
-0.0431193
-0.0419992
-0.0408893
-0.0397893
-0.0386987
-0.037617
-0.0365435
-0.0354777
-0.034419
-0.0333666
-0.03232
-0.0312783
-0.0302409
-0.0292069
-0.0281758
-0.0271466
-0.026119
-0.0250919
-0.0240653
-0.023038
-0.0220108
-0.0209818
-0.0199537
-0.0189223
-0.0178951
-0.016862
-0.0158408
-0.0148071
-0.0138027
-0.0127686
-0.011801
-0.0107611
-0.00986767
-0.00880021
-0.00805161
-0.00689527
-0.00642894
-0.00503284
-0.00512423
-0.00314239
-0.00435679
-0.00102205
-0.0045447
0.00183136
-0.00647721
-0.0501136
-0.0489246
-0.0477474
-0.0465817
-0.0454275
-0.0442846
-0.0431525
-0.042031
-0.0409198
-0.0398183
-0.0387262
-0.0376428
-0.0365678
-0.0355004
-0.0344401
-0.0333862
-0.0323379
-0.0312947
-0.0302557
-0.0292203
-0.0281877
-0.0271572
-0.0261282
-0.0250999
-0.0240721
-0.0230437
-0.0220156
-0.0209856
-0.0199568
-0.0189248
-0.0178971
-0.0168634
-0.0158424
-0.0148081
-0.0138045
-0.0127696
-0.011804
-0.0107622
-0.0098731
-0.0088013
-0.00806151
-0.00689505
-0.00644679
-0.00502799
-0.00515648
-0.00312538
-0.00441564
-0.000977223
-0.004652
0.00193225
-0.00667114
-0.0501524
-0.0489627
-0.0477847
-0.0466181
-0.0454628
-0.0443187
-0.0431853
-0.0420625
-0.0409498
-0.0398469
-0.0387532
-0.0376683
-0.0365917
-0.0355227
-0.0344608
-0.0334053
-0.0323555
-0.0313107
-0.0302702
-0.0292332
-0.0281992
-0.0271673
-0.026137
-0.0251074
-0.0240785
-0.023049
-0.0220199
-0.020989
-0.0199595
-0.0189267
-0.0178987
-0.0168645
-0.0158435
-0.0148087
-0.0138058
-0.0127701
-0.0118065
-0.010763
-0.00987812
-0.00880209
-0.008071
-0.00689463
-0.00646418
-0.00502311
-0.0051881
-0.00310864
-0.00447349
-0.000933276
-0.00475757
0.00203105
-0.00686233
-0.050191
-0.0490007
-0.0478219
-0.0466543
-0.045498
-0.0443527
-0.043218
-0.0420938
-0.0409797
-0.0398753
-0.0387801
-0.0376937
-0.0366155
-0.0355449
-0.0344814
-0.0334242
-0.0323728
-0.0313265
-0.0302844
-0.029246
-0.0282105
-0.0271772
-0.0261455
-0.0251147
-0.0240846
-0.023054
-0.0220239
-0.0209921
-0.0199619
-0.0189284
-0.0179
-0.0168652
-0.0158442
-0.014809
-0.0138069
-0.0127704
-0.0118087
-0.0107635
-0.00988281
-0.00880264
-0.00808012
-0.00689406
-0.00648112
-0.00501821
-0.00521911
-0.00309215
-0.00453036
-0.000890162
-0.00486147
0.00212788
-0.00705079
-0.0502294
-0.0490384
-0.0478588
-0.0466903
-0.0455329
-0.0443864
-0.0432505
-0.042125
-0.0410094
-0.0399035
-0.0388068
-0.0377188
-0.036639
-0.0355669
-0.00183411
-0.00122274
-0.000164309
-0.000179083
0.00215027
-0.00069117
0.00768038
)
;

boundaryField
{