/*--------------------------------*- C++ -*----------------------------------*\
  =========                 |
  \\      /  F ield         | OpenFOAM: The Open Source CFD Toolbox
   \\    /   O peration     | Website:  https://openfoam.org
    \\  /    A nd           | Version:  7
     \\/     M anipulation  |
\*---------------------------------------------------------------------------*/
FoamFile
{
    version     2.0;
    format      ascii;
    class       surfaceScalarField;
    location    "15";
    object      phi;
}
// * * * * * * * * * * * * * * * * * * * * * * * * * * * * * * * * * * * * * //

dimensions      [0 3 -1 0 0 0 0];

internalField   nonuniform List<scalar> 
5143
(
0.00420683
-2.6028e-05
0.00423262
-2.58151e-05
0.0042582
-2.5605e-05
0.00428358
-2.53984e-05
0.00430875
-2.5196e-05
0.00433373
-2.49985e-05
0.00435852
-2.48067e-05
0.00438313
-2.46215e-05
0.00440756
-2.44437e-05
0.00443183
-2.42745e-05
0.00445594
-2.41149e-05
0.00447991
-2.3966e-05
0.00450375
-2.38292e-05
0.00452747
-2.37056e-05
0.00455108
-2.35968e-05
0.00457461
-2.35042e-05
0.00459807
-2.34295e-05
0.00462148
-2.33742e-05
0.00464487
-2.33402e-05
0.00466826
-2.33292e-05
0.00469167
-2.33431e-05
0.00471512
-2.33838e-05
0.00473866
-2.34533e-05
0.00476231
-2.35535e-05
0.0047861
-2.36862e-05
0.00481007
-2.38532e-05
0.00483425
-2.40562e-05
0.00485869
-2.42967e-05
0.00488341
-2.45759e-05
0.00490847
-2.48947e-05
0.00493389
-2.52537e-05
0.00495973
-2.56529e-05
0.00498601
-2.60917e-05
0.00501278
-2.65689e-05
0.00504008
-2.70824e-05
0.00506792
-2.76291e-05
0.00509635
-2.82052e-05
0.00512539
-2.88052e-05
0.00515504
-2.94228e-05
0.00518533
-3.005e-05
0.00521624
-3.06773e-05
0.00524777
-3.1294e-05
0.00527988
-3.18873e-05
0.00531255
-3.24432e-05
0.00534571
-3.29458e-05
0.00537929
-3.33779e-05
0.00541319
-3.37203e-05
0.00544732
-3.39542e-05
0.00548153
-3.40561e-05
0.00551567
-3.40103e-05
0.00554955
-3.37797e-05
-1.0758e-07
0.00558302
-3.33783e-05
-8.27563e-08
0.00561577
-3.26966e-05
-5.65753e-08
0.00564772
-3.19204e-05
-2.92815e-08
0.00567826
-3.05359e-05
-1.42606e-09
0.0057079
-2.96721e-05
2.66685e-08
-2.66389e-05
5.45306e-08
0.00421615
-5.18281e-05
0.00424174
-5.14064e-05
0.00426713
-5.09908e-05
0.00429231
-5.05824e-05
0.0043173
-5.01825e-05
0.00434209
-4.97929e-05
0.0043667
-4.94149e-05
0.00439113
-4.90504e-05
0.00441539
-4.87012e-05
0.00443948
-4.83694e-05
0.00446342
-4.80572e-05
0.00448723
-4.77669e-05
0.0045109
-4.75009e-05
0.00453445
-4.72621e-05
0.00455791
-4.70531e-05
0.00458128
-4.6877e-05
0.00460459
-4.67369e-05
0.00462785
-4.66363e-05
0.00465109
-4.65785e-05
0.00467433
-4.65673e-05
0.00469759
-4.66062e-05
0.00472091
-4.66991e-05
0.0047443
-4.68497e-05
0.00476781
-4.7062e-05
0.00479147
-4.73395e-05
0.0048153
-4.76858e-05
0.00483935
-4.81041e-05
0.00486365
-4.85974e-05
0.00488824
-4.91679e-05
0.00491316
-4.98175e-05
0.00493846
-5.05471e-05
0.00496416
-5.13566e-05
0.00499031
-5.22447e-05
0.00501695
-5.32088e-05
0.00504411
-5.42446e-05
0.00507183
-5.53458e-05
0.00510013
-5.65044e-05
0.00512903
-5.77096e-05
0.00515856
-5.89483e-05
0.00518871
-6.02046e-05
0.0052195
-6.14594e-05
0.00525089
-6.26908e-05
0.00528288
-6.38735e-05
0.00531542
-6.49792e-05
0.00534845
-6.5976e-05
0.0053819
-6.68298e-05
0.00541568
-6.75021e-05
0.00544968
-6.79554e-05
0.00548377
-6.81425e-05
0.00551779
-6.80328e-05
0.00555156
-6.75521e-05
0.00558491
-6.67284e-05
0.00561756
-6.53434e-05
0.00564941
-6.37691e-05
0.00567985
-6.09789e-05
0.00570941
-5.92286e-05
-5.31477e-05
0.00423469
-7.72282e-05
0.00425988
-7.66046e-05
0.00428488
-7.59899e-05
0.00430969
-7.53861e-05
0.0043343
-7.47953e-05
0.00435873
-7.42197e-05
0.00438297
-7.36618e-05
0.00440705
-7.31242e-05
0.00443096
-7.26096e-05
0.00445471
-7.21212e-05
0.00447831
-7.16622e-05
0.00450178
-7.12361e-05
0.00452513
-7.08467e-05
0.00454836
-7.04979e-05
0.0045715
-7.01939e-05
0.00459457
-6.99394e-05
0.00461757
-6.9739e-05
0.00464053
-6.95977e-05
0.00466347
-6.95207e-05
0.00468642
-6.95134e-05
0.00470939
-6.95813e-05
0.00473242
-6.97301e-05
0.00475554
-6.99655e-05
0.00477877
-7.02931e-05
0.00480215
-7.07185e-05
0.00482571
-7.12467e-05
0.00484949
-7.18828e-05
0.00487352
-7.2631e-05
0.00489785
-7.34948e-05
0.00492251
-7.44767e-05
0.00494754
-7.55781e-05
0.00497298
-7.67989e-05
0.00499887
-7.8137e-05
0.00502525
-7.95885e-05
0.00505216
-8.11469e-05
0.00507961
-8.28029e-05
0.00510765
-8.45441e-05
0.0051363
-8.63545e-05
0.00516556
-8.82143e-05
0.00519546
-9.00997e-05
0.00522598
-9.19822e-05
0.00525712
-9.38288e-05
0.00528885
-9.56017e-05
0.00532113
-9.72583e-05
0.0053539
-9.87511e-05
0.0053871
-0.000100029
0.00542063
-0.000101034
0.00545439
-0.00010171
0.00548823
-0.000101987
0.00552202
-0.00010182
0.00555556
-0.000101095
0.00558869
-9.98575e-05
0.00562113
-9.77786e-05
0.00565278
-9.54166e-05
0.00568303
-9.12342e-05
0.00571241
-8.86081e-05
-7.9506e-05
0.00426224
-0.000102036
0.00428685
-0.00010122
0.00431128
-0.000100416
0.00433552
-9.96262e-05
0.00435958
-9.88539e-05
0.00438346
-9.81018e-05
0.00440717
-9.73732e-05
0.00443072
-9.66715e-05
0.00445411
-9.60005e-05
0.00447735
-9.53642e-05
0.00450045
-9.4767e-05
0.00452343
-9.42136e-05
0.00454629
-9.37088e-05
0.00456905
-9.32581e-05
0.00459173
-9.2867e-05
0.00461433
-9.25415e-05
0.00463688
-9.22879e-05
0.00465939
-9.21129e-05
0.0046819
-9.20232e-05
0.00470441
-9.20262e-05
0.00472696
-9.21291e-05
0.00474957
-9.23395e-05
0.00477227
-9.26648e-05
0.00479509
-9.31126e-05
0.00481806
-9.36901e-05
0.00484121
-9.44044e-05
0.00486459
-9.52618e-05
0.00488823
-9.6268e-05
0.00491216
-9.74276e-05
0.00493643
-9.87441e-05
0.00496107
-0.000100219
0.00498613
-0.000101853
0.00501163
-0.000103642
0.00503762
-0.000105582
0.00506414
-0.000107663
0.00509121
-0.000109874
0.00511887
-0.000112198
0.00514712
-0.000114613
0.005176
-0.000117094
0.00520551
-0.000119609
0.00523565
-0.000122119
0.0052664
-0.000124582
0.00529775
-0.000126946
0.00532964
-0.000129155
0.00536204
-0.000131146
0.00539486
-0.000132851
0.00542802
-0.000134194
0.00546141
-0.000135099
0.0054949
-0.000135473
0.00552833
-0.000135255
0.00556153
-0.000134297
0.00559433
-0.000132658
0.00562645
-0.000129898
0.0056578
-0.000126765
0.00568778
-0.00012121
0.00571689
-0.000117724
-0.00010564
0.0042985
-0.000126067
0.00432235
-0.000125071
0.00434603
-0.00012409
0.00436953
-0.000123127
0.00439286
-0.000122186
0.00441603
-0.000121269
0.00443904
-0.000120382
0.00446189
-0.000119528
0.00448461
-0.000118712
0.00450718
-0.00011794
0.00452963
-0.000117216
0.00455196
-0.000116546
0.00457419
-0.000115936
0.00459633
-0.000115394
0.00461838
-0.000114926
0.00464038
-0.000114539
0.00466234
-0.000114242
0.00468427
-0.000114042
0.00470619
-0.000113949
0.00472813
-0.00011397
0.00475012
-0.000114116
0.00477218
-0.000114395
0.00479433
-0.000114817
0.00481661
-0.000115391
0.00483904
-0.000116127
0.00486167
-0.000117032
0.00488452
-0.000118115
0.00490764
-0.000119383
0.00493105
-0.000120842
0.00495481
-0.000122496
0.00497894
-0.000124348
0.00500348
-0.000126396
0.00502847
-0.000128637
0.00505396
-0.000131066
0.00507997
-0.000133671
0.00510653
-0.000136437
0.00513367
-0.000139344
0.00516143
-0.000142364
0.0051898
-0.000145466
0.0052188
-0.00014861
0.00524843
-0.000151749
0.00527867
-0.000154827
0.00530951
-0.000157784
0.0053409
-0.000160548
0.0053728
-0.000163041
0.00540512
-0.000165177
0.00543779
-0.000166863
0.0054707
-0.000168004
0.00550371
-0.000168484
0.00553668
-0.000168228
0.00556943
-0.00016705
0.0056018
-0.000165023
0.0056335
-0.000161603
0.00566446
-0.000157718
0.00569406
-0.000150817
0.00572283
-0.000146492
-0.000131479
0.00434309
-0.000149147
0.00436601
-0.000147987
0.00438876
-0.000146845
0.00441136
-0.000145724
0.0044338
-0.000144628
0.0044561
-0.000143563
0.00447825
-0.000142531
0.00450026
-0.000141539
0.00452214
-0.000140593
0.0045439
-0.000139698
0.00456554
-0.00013886
0.00458708
-0.000138088
0.00460853
-0.000137387
0.00462991
-0.000136766
0.00465121
-0.000136233
0.00467247
-0.000135797
0.00469369
-0.000135467
0.00471491
-0.000135254
0.00473612
-0.000135166
0.00475737
-0.000135216
0.00477867
-0.000135414
0.00480004
-0.000135771
0.00482153
-0.000136298
0.00484314
-0.000137006
0.00486492
-0.000137906
0.0048869
-0.000139009
0.00490911
-0.000140324
0.00493158
-0.000141859
0.00495436
-0.000143621
0.00497748
-0.000145616
0.00500098
-0.000147846
0.00502489
-0.000150311
0.00504926
-0.000153007
0.00507412
-0.000155925
0.00509951
-0.000159055
0.00512544
-0.000162376
0.00515197
-0.000165865
0.00517909
-0.00016949
0.00520684
-0.000173213
0.00523521
-0.000176985
0.00526422
-0.000180752
0.00529384
-0.000184449
0.00532405
-0.000187999
0.00535483
-0.00019132
0.0053861
-0.000194318
0.00541782
-0.000196892
0.00544988
-0.000198927
0.00548219
-0.000200313
0.00551462
-0.00020091
0.00554702
-0.000200629
0.00557922
-0.000199247
0.00561105
-0.000196854
0.00564224
-0.000192794
0.0056727
-0.000188183
0.00570186
-0.000179969
0.0057302
-0.000174831
-0.000156953
0.00439553
-0.000171117
0.00441736
-0.000169812
0.00443904
-0.000168526
0.00446058
-0.000167264
0.00448198
-0.000166032
0.00450325
-0.000164834
0.00452439
-0.000163675
0.00454542
-0.000162562
0.00456633
-0.000161502
0.00458713
-0.0001605
0.00460783
-0.000159565
0.00462845
-0.000158705
0.00464899
-0.000157928
0.00466947
-0.000157242
0.00468989
-0.000156659
0.00471028
-0.000156187
0.00473066
-0.000155839
0.00475103
-0.000155624
0.00477142
-0.000155556
0.00479185
-0.000155646
0.00481234
-0.000155906
0.00483292
-0.000156351
0.00485361
-0.000156992
0.00487445
-0.000157843
0.00489546
-0.000158916
0.00491667
-0.000160223
0.00493812
-0.000161776
0.00495985
-0.000163583
0.00498188
-0.000165654
0.00500426
-0.000167994
0.00502702
-0.000170605
0.0050502
-0.000173489
0.00507383
-0.00017664
0.00509795
-0.00018005
0.0051226
-0.000183704
0.00514781
-0.00018758
0.00517359
-0.000191651
0.00519998
-0.00019588
0.005227
-0.000200223
0.00525463
-0.000204625
0.0052829
-0.00020902
0.00531179
-0.000213334
0.00534127
-0.00021748
0.00537131
-0.000221362
0.00540186
-0.000224869
0.00543285
-0.000227885
0.00546421
-0.000230278
0.00549581
-0.00023192
0.00552755
-0.000232647
0.00555928
-0.000232357
0.00559082
-0.00023079
0.00562202
-0.000228053
0.0056526
-0.00022338
0.0056825
-0.000218074
0.00571111
-0.000208585
0.00573894
-0.000202664
-0.000181996
0.00445526
-0.000191833
0.00447585
-0.000190401
0.00449631
-0.000188992
0.00451666
-0.00018761
0.00453689
-0.00018626
0.004557
-0.000184949
0.00457701
-0.000183682
0.00459691
-0.000182467
0.00461672
-0.000181311
0.00463644
-0.000180221
0.00465608
-0.000179206
0.00467565
-0.000178276
0.00469516
-0.000177439
0.00471463
-0.000176706
0.00473406
-0.000176087
0.00475347
-0.000175596
0.00477287
-0.000175243
0.00479229
-0.000175042
0.00481174
-0.000175005
0.00483124
-0.000175148
0.00485082
-0.000175484
0.00487049
-0.000176028
0.0048903
-0.000176794
0.00491025
-0.000177797
0.00493039
-0.000179052
0.00495073
-0.000180571
0.00497133
-0.000182369
0.0049922
-0.000184455
0.00501338
-0.000186838
0.00503492
-0.000189527
0.00505683
-0.000192524
0.00507917
-0.000195829
0.00510197
-0.000199437
0.00512526
-0.000203339
0.00514907
-0.000207517
0.00517344
-0.000211948
0.00519839
-0.000216601
0.00522394
-0.000221433
0.00525012
-0.000226395
0.00527692
-0.000231424
0.00530434
-0.000236448
0.00533239
-0.000241381
0.00536103
-0.000246124
0.00539024
-0.000250568
0.00541996
-0.00025459
0.00545013
-0.000258055
0.00548067
-0.000260815
0.00551147
-0.000262723
0.00554242
-0.000263595
0.00557338
-0.000263315
0.00560417
-0.000261584
0.00563465
-0.00025853
0.00566454
-0.000253273
0.00569378
-0.000247308
0.00572178
-0.000236586
0.00574903
-0.000229919
-0.000206548
0.00452164
-0.000211168
0.00454087
-0.000209632
0.00456
-0.00020812
0.00457902
-0.000206639
0.00459796
-0.000205193
0.0046168
-0.00020379
0.00463555
-0.000202436
0.00465422
-0.000201139
0.00467282
-0.000199907
0.00469135
-0.000198749
0.00470982
-0.000197673
0.00472823
-0.000196691
0.00474661
-0.000195813
0.00476495
-0.00019505
0.00478328
-0.000194415
0.0048016
-0.00019392
0.00481994
-0.000193579
0.0048383
-0.000193406
0.00485671
-0.000193417
0.00487519
-0.000193627
0.00489376
-0.000194051
0.00491244
-0.000194706
0.00493125
-0.000195608
0.00495023
-0.000196774
0.0049694
-0.00019822
0.00498879
-0.000199961
0.00500843
-0.00020201
0.00502835
-0.000204381
0.0050486
-0.000207083
0.0050692
-0.000210125
0.00509018
-0.00021351
0.00511159
-0.000217238
0.00513346
-0.000221305
0.00515582
-0.000225699
0.00517871
-0.000230402
0.00520214
-0.000235387
0.00522616
-0.00024062
0.00525079
-0.000246054
0.00527602
-0.000251634
0.00530189
-0.00025729
0.00532838
-0.000262942
0.0053555
-0.000268493
0.00538321
-0.000273835
0.00541148
-0.000278845
0.00544028
-0.000283385
0.00546953
-0.000287307
0.00549916
-0.000290443
0.00552907
-0.000292631
0.00555913
-0.000293663
0.00558923
-0.000293413
0.00561919
-0.000291542
0.00564886
-0.000288201
0.00567798
-0.000282394
0.00570648
-0.000275807
0.0057338
-0.000263902
0.00576041
-0.000256528
-0.00023055
0.00459398
-0.000229013
0.00461174
-0.000227396
0.00462943
-0.000225806
0.00464704
-0.000224248
0.00466457
-0.000222729
0.00468204
-0.000221256
0.00469944
-0.000219837
0.00471678
-0.00021848
0.00473407
-0.000217193
0.00475131
-0.000215988
0.00476851
-0.000214873
0.00478567
-0.000213859
0.00480282
-0.000212959
0.00481995
-0.000212186
0.00483709
-0.000211551
0.00485424
-0.000211071
0.00487142
-0.000210759
0.00488865
-0.000210632
0.00490594
-0.000210705
0.0049233
-0.000210996
0.00494078
-0.000211522
0.00495837
-0.000212302
0.00497612
-0.000213352
0.00499403
-0.000214692
0.00501215
-0.000216339
0.0050305
-0.000218309
0.00504911
-0.000220618
0.00506801
-0.00022328
0.00508723
-0.000226306
0.00510681
-0.000229706
0.00512679
-0.000233482
0.00514718
-0.000237637
0.00516804
-0.000242163
0.00518939
-0.00024705
0.00521127
-0.000252276
0.00523369
-0.000257815
0.0052567
-0.000263626
0.00528031
-0.00026966
0.00530453
-0.000275856
0.00532937
-0.000282137
0.00535485
-0.000288415
0.00538094
-0.000294585
0.00540763
-0.000300526
0.00543489
-0.000306105
0.00546267
-0.000311168
0.00549092
-0.000315554
0.00551955
-0.000319076
0.00554848
-0.000321559
0.00557759
-0.000322768
0.00560674
-0.00032257
0.00563579
-0.000320585
0.00566457
-0.000316987
0.00569285
-0.000310668
0.00572054
-0.000303501
0.00574711
-0.000290467
0.00577301
-0.000282429
-0.000253951
0.00467153
-0.000245282
0.00468774
-0.000243609
0.0047039
-0.000241964
0.00472
-0.000240353
0.00473606
-0.000238784
0.00475207
-0.000237265
0.00476804
-0.000235804
0.00478397
-0.000234409
0.00479986
-0.000233091
0.00481573
-0.000231859
0.00483159
-0.000230726
0.00484743
-0.000229702
0.00486327
-0.000228801
0.00487912
-0.000228036
0.00489499
-0.000227423
0.0049109
-0.000226975
0.00492685
-0.00022671
0.00494286
-0.000226645
0.00495895
-0.000226797
0.00497514
-0.000227185
0.00499145
-0.000227828
0.00500789
-0.000228745
0.0050245
-0.000229956
0.00504128
-0.000231481
0.00505828
-0.000233339
0.00507552
-0.000235548
0.00509303
-0.000238125
0.00511083
-0.000241084
0.00512897
-0.00024444
0.00514746
-0.000248201
0.00516635
-0.000252372
0.00518567
-0.000256953
0.00520544
-0.00026194
0.00522571
-0.000267319
0.00524651
-0.000273068
0.00526785
-0.000279158
0.00528977
-0.000285545
0.00531229
-0.000292177
0.00533541
-0.000298985
0.00535917
-0.00030589
0.00538354
-0.000312792
0.00540854
-0.00031958
0.00543414
-0.000326121
0.0054603
-0.000332271
0.005487
-0.000337863
0.00551416
-0.00034272
0.00554172
-0.000346639
0.00556959
-0.000349429
0.00559766
-0.000350835
0.0056258
-0.000350712
0.00565386
-0.000348641
0.00568169
-0.000344821
0.00570905
-0.000338027
0.00573588
-0.000330328
0.00576163
-0.000316221
0.00578677
-0.000307568
-0.000276702
0.0047535
-0.000259908
0.0047681
-0.000258203
0.00478266
-0.000256528
0.0047972
-0.00025489
0.00481171
-0.000253295
0.0048262
-0.000251754
0.00484067
-0.000250274
0.00485512
-0.000248865
0.00486957
-0.000247537
0.00488401
-0.000246302
0.00489846
-0.000245172
0.00491292
-0.00024416
0.00492739
-0.000243278
0.0049419
-0.000242543
0.00495645
-0.00024197
0.00497105
-0.000241574
0.00498571
-0.000241374
0.00500045
-0.000241389
0.00501529
-0.000241636
0.00503025
-0.000242136
0.00504533
-0.000242911
0.00506056
-0.000243979
0.00507597
-0.000245364
0.00509157
-0.000247085
0.0051074
-0.000249164
0.00512347
-0.000251621
0.00513982
-0.000254472
0.00515647
-0.000257736
0.00517346
-0.000261426
0.00519081
-0.000265552
0.00520856
-0.00027012
0.00522674
-0.000275131
0.00524537
-0.000280578
0.0052645
-0.000286448
0.00528415
-0.000292718
0.00530435
-0.000299356
0.00532512
-0.000306316
0.00534649
-0.000313542
0.00536846
-0.00032096
0.00539105
-0.000328484
0.00541427
-0.000336009
0.0054381
-0.000343413
0.00546254
-0.000350555
0.00548754
-0.000357277
0.00551308
-0.000363401
0.0055391
-0.000368737
0.00556552
-0.000373064
0.00559227
-0.000376177
0.00561923
-0.000377797
0.0056463
-0.000377774
0.0056733
-0.000375645
0.00570012
-0.000371641
0.00572651
-0.000364414
0.00575241
-0.000356232
0.0057773
-0.000341113
0.00580163
-0.000331895
-0.000298763
0.00483907
0.004852
-0.000271136
0.00486493
-0.000269455
0.00487785
-0.000267814
0.00489077
-0.000266218
0.0049037
-0.000264678
0.00491663
-0.000263203
0.00492957
-0.000261804
0.00494252
-0.00026049
0.00495549
-0.000259274
0.00496849
-0.00025817
0.00498152
-0.00025719
0.00499459
-0.00025635
0.00500771
-0.000255664
0.00502089
-0.000255151
0.00503414
-0.000254826
0.00504748
-0.00025471
0.00506091
-0.000254821
0.00507446
-0.000255181
0.00508813
-0.000255809
0.00510195
-0.000256729
0.00511593
-0.000257963
0.0051301
-0.000259533
0.00514448
-0.000261462
0.00515909
-0.000263772
0.00517395
-0.000266484
0.0051891
-0.000269619
0.00520455
-0.000273193
0.00522035
-0.000277221
0.00523651
-0.000281716
0.00525307
-0.000286682
0.00527007
-0.000292122
0.00528752
-0.000298029
0.00530546
-0.000304389
0.00532392
-0.000311177
0.00534292
-0.00031836
0.00536249
-0.000325889
0.00538266
-0.000333704
0.00540342
-0.000341728
0.00542481
-0.000349867
0.00544681
-0.000358011
0.00546943
-0.000366029
0.00549264
-0.00037377
0.00551643
-0.000381067
0.00554076
-0.000387727
0.00556557
-0.000393549
0.0055908
-0.000398294
0.00561637
-0.000401745
0.00564217
-0.000403599
0.0056681
-0.000403702
0.005694
-0.000401546
0.00571975
-0.000397395
0.00574512
-0.000389778
0.00577005
-0.000381164
0.00579403
-0.000365097
0.00581751
-0.000355369
-0.000320098
0.00493862
-0.000282384
0.00494989
-0.000280723
0.00496118
-0.000279102
0.00497249
-0.00027753
0.00498383
-0.000276016
0.00499519
-0.00027457
0.00500659
-0.000273202
0.00501803
-0.000271925
0.00502951
-0.000270752
0.00504103
-0.000269695
0.00505261
-0.000268769
0.00506425
-0.00026799
0.00507596
-0.000267375
0.00508775
-0.000266941
0.00509963
-0.000266706
0.00511161
-0.000266691
0.00512371
-0.000266917
0.00513593
-0.000267404
0.0051483
-0.000268177
0.00516083
-0.000269257
0.00517353
-0.000270669
0.00518643
-0.000272436
0.00519956
-0.000274584
0.00521292
-0.000277134
0.00522654
-0.000280111
0.00524046
-0.000283534
0.00525469
-0.000287424
0.00526926
-0.000291795
0.00528421
-0.00029666
0.00529955
-0.000302027
0.00531533
-0.000307895
0.00533156
-0.00031426
0.00534828
-0.000321107
0.00536551
-0.00032841
0.00538328
-0.000336133
0.00540162
-0.000344226
0.00542054
-0.000352625
0.00544006
-0.000361249
0.00546019
-0.000369999
0.00548094
-0.000378757
0.00550229
-0.000387385
0.00552425
-0.000395725
0.00554678
-0.000403596
0.00556985
-0.000410796
0.00559341
-0.00041711
0.0056174
-0.000422283
0.00564174
-0.000426088
0.00566634
-0.000428195
0.00569108
-0.00042845
0.00571583
-0.000426296
0.00574048
-0.000422039
0.00576478
-0.000414076
0.0057887
-0.000405086
0.00581174
-0.000388136
0.00583433
-0.000377956
-0.000340677
0.00502713
-0.000291946
0.00503674
-0.000290329
0.00504639
-0.000288754
0.00505609
-0.000287228
0.00506583
-0.000285763
0.00507563
-0.000284368
0.00508549
-0.000283056
0.0050954
-0.000281838
0.00510538
-0.000280728
0.00511542
-0.00027974
0.00512554
-0.00027889
0.00513574
-0.000278193
0.00514604
-0.000277667
0.00515643
-0.000277331
0.00516693
-0.000277205
0.00517754
-0.000277309
0.00518829
-0.000277666
0.00519919
-0.000278297
0.00521024
-0.000279228
0.00522146
-0.000280482
0.00523288
-0.000282084
0.0052445
-0.000284061
0.00525636
-0.000286436
0.00526846
-0.000289236
0.00528083
-0.000292484
0.0052935
-0.000296203
0.00530649
-0.000300412
0.00531982
-0.000305129
0.00533353
-0.000310367
0.00534764
-0.000316134
0.00536217
-0.00032243
0.00537716
-0.000329251
0.00539264
-0.00033658
0.00540862
-0.000344393
0.00542514
-0.000352651
0.00544221
-0.000361302
0.00545987
-0.000370278
0.00547811
-0.000379495
0.00549696
-0.000388849
0.00551642
-0.000398216
0.00553649
-0.000407451
0.00555715
-0.000416385
0.00557838
-0.000424832
0.00560016
-0.000432573
0.00562244
-0.000439385
0.00564515
-0.000444996
0.00566823
-0.000449169
0.00569158
-0.000451549
0.00571512
-0.000451982
0.00573868
-0.000449862
0.00576218
-0.000445539
0.00578538
-0.000437276
0.00580827
-0.000427968
0.00583033
-0.000410201
0.00585201
-0.000399631
-0.000360479
0.00511668
-0.000299844
0.00512465
-0.000298294
0.00513268
-0.000296786
0.00514078
-0.00029533
0.00514896
-0.000293936
0.0051572
-0.000292615
0.00516553
-0.00029138
0.00517393
-0.000290242
0.00518242
-0.000289217
0.005191
-0.000288318
0.00519967
-0.000287563
0.00520845
-0.000286967
0.00521733
-0.000286551
0.00522633
-0.000286332
0.00523546
-0.000286331
0.00524472
-0.000286571
0.00525412
-0.000287074
0.00526369
-0.000287864
0.00527343
-0.000288967
0.00528336
-0.000290407
0.00529348
-0.000292212
0.00530383
-0.000294408
0.00531442
-0.000297021
0.00532526
-0.000300078
0.00533638
-0.000303605
0.0053478
-0.000307623
0.00535954
-0.000312156
0.00537164
-0.000317221
0.0053841
-0.000322832
0.00539696
-0.000328997
0.00541025
-0.000335719
0.00542399
-0.000342992
0.00543821
-0.0003508
0.00545294
-0.000359117
0.00546819
-0.000367902
0.00548399
-0.000377103
0.00550036
-0.000386649
0.00551732
-0.000396452
0.00553487
-0.000406402
0.00555303
-0.000416371
0.00557178
-0.000426207
0.00559113
-0.000435732
0.00561105
-0.000444751
0.00563151
-0.000453036
0.00565248
-0.000460351
0.00567389
-0.000466409
0.00569568
-0.000470964
0.00571777
-0.000473636
0.00574006
-0.000474273
0.00576242
-0.000472219
0.00578475
-0.000467873
0.00580683
-0.000459354
0.00582865
-0.000449786
0.00584972
-0.000431272
0.00587046
-0.000420375
-0.000379486
0.00520645
-0.000306116
0.00521281
-0.000304655
0.00521926
-0.000303238
0.00522581
-0.000301873
0.00523244
-0.000300571
0.00523917
-0.000299345
0.005246
-0.000298207
0.00525292
-0.00029717
0.00525996
-0.000296249
0.0052671
-0.000295459
0.00527435
-0.000294817
0.00528173
-0.000294342
0.00528923
-0.000294051
0.00529686
-0.000293966
0.00530464
-0.000294107
0.00531256
-0.000294498
0.00532065
-0.000295163
0.00532892
-0.000296126
0.00533736
-0.000297413
0.00534601
-0.000299052
0.00535486
-0.00030107
0.00536395
-0.000303494
0.00537328
-0.000306354
0.00538288
-0.000309675
0.00539276
-0.000313484
0.00540294
-0.000317807
0.00541345
-0.000322666
0.00542431
-0.00032808
0.00543554
-0.000334063
0.00544717
-0.000340625
0.00545922
-0.000347769
0.00547172
-0.000355489
0.00548469
-0.000363769
0.00549815
-0.000372582
0.00551214
-0.000381888
0.00552666
-0.00039163
0.00554175
-0.000401736
0.00555741
-0.000412114
0.00557366
-0.000422652
0.00559051
-0.000433215
0.00560795
-0.000443644
0.00562597
-0.000453756
0.00564456
-0.000463346
0.0056637
-0.000472174
0.00568335
-0.000479996
0.00570345
-0.000486509
0.00572394
-0.00049146
0.00574475
-0.000494441
0.00576578
-0.000495309
0.00578691
-0.000493351
0.00580806
-0.000489024
0.00582901
-0.000480295
0.00584975
-0.000470529
0.00586981
-0.000451334
0.00588961
-0.000440177
-0.000397689
0.00529562
-0.000310824
0.00530044
-0.000309473
0.00530536
-0.000308165
0.0053104
-0.00030691
0.00531555
-0.000305721
0.00532082
-0.000304609
0.0053262
-0.000303587
0.0053317
-0.000302669
0.00533732
-0.000301871
0.00534307
-0.000301208
0.00534895
-0.000300698
0.00535496
-0.000300359
0.00536112
-0.000300211
0.00536743
-0.000300275
0.0053739
-0.000300574
0.00538053
-0.00030113
0.00538734
-0.00030197
0.00539433
-0.000303118
0.00540152
-0.000304602
0.00540892
-0.000306449
0.00541653
-0.000308689
0.00542439
-0.000311351
0.0054325
-0.000314462
0.00544088
-0.000318053
0.00544954
-0.00032215
0.00545851
-0.00032678
0.00546781
-0.000331965
0.00547746
-0.000337727
0.00548748
-0.000344081
0.00549789
-0.000351037
0.00550872
-0.000358598
0.00551999
-0.000366759
0.00553173
-0.000375503
0.00554395
-0.000384804
0.00555668
-0.00039462
0.00556994
-0.000404893
0.00558376
-0.000415549
0.00559813
-0.000426493
0.00561309
-0.000437608
0.00562863
-0.000448754
0.00564475
-0.000459769
0.00566146
-0.00047046
0.00567873
-0.000480616
0.00569654
-0.000489986
0.00571486
-0.000498318
0.00573365
-0.000505292
0.00575284
-0.000510652
0.00577236
-0.00051396
0.00579213
-0.000515086
0.00581204
-0.000513252
0.005832
-0.000508989
0.0058518
-0.000500093
0.00587146
-0.000490192
0.00589051
-0.000470383
0.00590937
-0.000459037
-0.000415087
0.00538341
-0.000314045
0.00538675
-0.000312821
0.00539023
-0.000311641
0.00539384
-0.000310516
0.00539757
-0.000309457
0.00540144
-0.000308476
0.00540544
-0.000307588
0.00540958
-0.000306807
0.00541385
-0.000306148
0.00541827
-0.000305627
0.00542284
-0.000305264
0.00542756
-0.000305077
0.00543244
-0.000305087
0.00543748
-0.000305315
0.00544269
-0.000305784
0.00544807
-0.000306519
0.00545365
-0.000307544
0.00545942
-0.000308889
0.0054654
-0.000310579
0.00547159
-0.000312645
0.00547802
-0.000315115
0.00548469
-0.00031802
0.00549161
-0.000321389
0.00549881
-0.000325253
0.00550631
-0.000329641
0.0055141
-0.000334579
0.00552223
-0.000340091
0.0055307
-0.0003462
0.00553954
-0.000352921
0.00554877
-0.000360266
0.00555841
-0.000368237
0.00556848
-0.000376831
0.00557901
-0.000386031
0.00559002
-0.00039581
0.00560152
-0.000406125
0.00561354
-0.000416917
0.00562611
-0.00042811
0.00563922
-0.000439606
0.0056529
-0.000451287
0.00566715
-0.000463006
0.00568198
-0.000474596
0.00569738
-0.000485858
0.00571333
-0.000496575
0.00572983
-0.000506484
0.00574684
-0.000515328
0.00576432
-0.000522769
0.00578222
-0.000528549
0.00580046
-0.000532199
0.00581898
-0.000533609
0.00583765
-0.000531928
0.00585644
-0.000527771
0.0058751
-0.000518753
0.00589368
-0.00050878
0.00591172
-0.000488423
0.00592965
-0.000476961
-0.000431682
0.00546906
0.00547103
-0.000314793
0.00547315
-0.000313758
0.00547541
-0.000312777
0.00547782
-0.000311864
0.00548037
-0.000311031
0.00548307
-0.000310292
0.00548593
-0.000309662
0.00548894
-0.000309157
0.00549211
-0.000308794
0.00549543
-0.000308592
0.00549893
-0.000308571
0.00550259
-0.00030875
0.00550643
-0.000309154
0.00551045
-0.000309805
0.00551466
-0.000310729
0.00551907
-0.000311952
0.00552368
-0.000313502
0.00552851
-0.000315407
0.00553356
-0.000317698
0.00553885
-0.000320405
0.00554439
-0.000323558
0.00555019
-0.00032719
0.00555627
-0.00033133
0.00556264
-0.000336009
0.00556931
-0.000341254
0.00557631
-0.000347092
0.00558366
-0.000353544
0.00559136
-0.000360627
0.00559945
-0.000368355
0.00560795
-0.00037673
0.00561686
-0.000385747
0.00562622
-0.000395393
0.00563605
-0.000405637
0.00564636
-0.000416438
0.00565718
-0.000427736
0.00566853
-0.000439453
0.00568041
-0.000451488
0.00569284
-0.00046372
0.00570583
-0.000475999
0.00571939
-0.000488153
0.00573351
-0.000499977
0.00574818
-0.000511247
0.00576339
-0.000521691
0.00577911
-0.000531047
0.0057953
-0.000538958
0.00581192
-0.000545169
0.00582889
-0.000549176
0.00584618
-0.000550893
0.00586364
-0.000549393
0.00588126
-0.000545386
0.00589879
-0.000536286
0.00591632
-0.000526308
0.00593336
-0.000505464
0.00595036
-0.000493962
-0.000447486
0.00555257
-0.000315495
0.00555343
-0.000314618
0.00555445
-0.000313797
0.00555563
-0.000313043
0.00555697
-0.000312371
0.00555847
-0.000311795
0.00556014
-0.000311329
0.00556197
-0.000310991
0.00556398
-0.000310798
0.00556616
-0.000310769
0.00556851
-0.000310925
0.00557104
-0.000311286
0.00557377
-0.000311876
0.00557668
-0.000312719
0.00557979
-0.000313841
0.00558311
-0.00031527
0.00558664
-0.000317032
0.00559039
-0.000319159
0.00559437
-0.000321681
0.0055986
-0.000324628
0.00560307
-0.000328034
0.00560781
-0.00033193
0.00561283
-0.000336347
0.00561814
-0.000341317
0.00562375
-0.000346868
0.00562969
-0.000353028
0.00563596
-0.000359818
0.00564259
-0.000367258
0.0056496
-0.00037536
0.005657
-0.000384128
0.00566481
-0.000393559
0.00567306
-0.000403638
0.00568175
-0.000414335
0.00569092
-0.000425609
0.00570059
-0.000437398
0.00571075
-0.000449622
0.00572145
-0.000462181
0.00573268
-0.000474949
0.00574445
-0.000487773
0.00575678
-0.000500478
0.00576965
-0.000512852
0.00578307
-0.000524666
0.00579702
-0.000535639
0.00581148
-0.000545505
0.00582641
-0.000553888
0.00584178
-0.00056054
0.00585752
-0.000564916
0.00587359
-0.000566965
0.00588987
-0.00056567
0.00590634
-0.000561857
0.00592276
-0.000552713
0.00593925
-0.000542797
0.00595532
-0.000521526
0.00597142
-0.000510065
-0.000462515
0.00563073
-0.000315046
0.00563045
-0.00031434
0.00563034
-0.000313689
0.00563041
-0.000313107
0.00563064
-0.000312607
0.00563105
-0.000312205
0.00563164
-0.000311914
0.0056324
-0.000311754
0.00563334
-0.000311741
0.00563447
-0.000311895
0.00563578
-0.000312237
0.00563729
-0.000312788
0.00563898
-0.000313573
0.00564088
-0.000314617
0.00564298
-0.000315944
0.0056453
-0.000317584
0.00564783
-0.000319566
0.00565059
-0.000321919
0.00565359
-0.000324675
0.00565682
-0.000327867
0.00566032
-0.000331526
0.00566407
-0.000335687
0.00566811
-0.00034038
0.00567243
-0.000345639
0.00567705
-0.000351493
0.005682
-0.000357969
0.00568727
-0.000365092
0.00569289
-0.00037288
0.00569888
-0.000381347
0.00570525
-0.000390498
0.00571202
-0.000400331
0.00571921
-0.000410829
0.00572684
-0.000421964
0.00573493
-0.000433694
0.00574348
-0.000445957
0.00575254
-0.000458673
0.00576209
-0.000471738
0.00577217
-0.000485025
0.00578277
-0.000498378
0.00579392
-0.000511619
0.00580559
-0.00052453
0.00581781
-0.000536878
0.00583054
-0.000548372
0.00584378
-0.000558745
0.00585749
-0.000567601
0.00587165
-0.0005747
0.00588619
-0.000579456
0.00590108
-0.000581859
0.00591621
-0.000580791
0.00593157
-0.000577216
0.00594692
-0.000568063