/*--------------------------------*- C++ -*----------------------------------*\
  =========                 |
  \\      /  F ield         | OpenFOAM: The Open Source CFD Toolbox
   \\    /   O peration     | Website:  https://openfoam.org
    \\  /    A nd           | Version:  7
     \\/     M anipulation  |
\*---------------------------------------------------------------------------*/
FoamFile
{
    version     2.0;
    format      ascii;
    class       volVectorField;
    location    "15";
    object      U;
}
// * * * * * * * * * * * * * * * * * * * * * * * * * * * * * * * * * * * * * //

dimensions      [0 1 -1 0 0 0 0];

internalField   nonuniform List<vector> 
2625
(
(0.627481 -0.00153508 4.3326e-24)
(0.631903 -0.00150672 -1.10086e-22)
(0.63631 -0.00147904 -4.98855e-23)
(0.640702 -0.00145207 -5.34591e-24)
(0.645079 -0.00142582 5.61389e-25)
(0.649442 -0.00140031 6.83852e-23)
(0.653793 -0.00137556 -2.77075e-23)
(0.658133 -0.00135159 6.7546e-23)
(0.662464 -0.00132842 -3.84111e-23)
(0.666786 -0.00130607 -3.55896e-23)
(0.671101 -0.00128457 4.74014e-23)
(0.675412 -0.00126395 -4.31271e-23)
(0.679721 -0.00124423 1.7532e-23)
(0.684029 -0.00122544 -2.30971e-23)
(0.688339 -0.00120761 3.08994e-23)
(0.692655 -0.00119077 -5.99109e-23)
(0.696979 -0.00117497 1.88932e-24)
(0.701314 -0.00116022 5.49134e-23)
(0.705664 -0.00114658 -4.03263e-23)
(0.710032 -0.00113406 -6.41313e-24)
(0.714424 -0.0011227 1.19846e-23)
(0.718843 -0.00111255 1.42612e-23)
(0.723295 -0.00110362 -1.53943e-23)
(0.727784 -0.00109595 2.00396e-24)
(0.732315 -0.00108955 -1.70357e-23)
(0.736895 -0.00108446 -4.51554e-24)
(0.74153 -0.00108068 3.10619e-23)
(0.746226 -0.00107822 6.08855e-24)
(0.750989 -0.00107706 5.4309e-25)
(0.755827 -0.00107721 -1.94516e-23)
(0.760746 -0.00107862 2.76153e-24)
(0.765753 -0.00108124 -2.9029e-24)
(0.770855 -0.00108502 8.66577e-24)
(0.776059 -0.00108988 -4.0503e-24)
(0.781373 -0.0010957 7.04921e-24)
(0.786801 -0.00110235 -1.80531e-24)
(0.79235 -0.00110968 1.07793e-23)
(0.798026 -0.0011175 1.10206e-23)
(0.803831 -0.0011256 -6.26385e-24)
(0.80977 -0.00113373 5.61763e-24)
(0.815844 -0.00114161 -3.99262e-24)
(0.822054 -0.00114893 6.48587e-24)
(0.828397 -0.00115537 -7.78062e-24)
(0.834871 -0.00116054 -2.01679e-24)
(0.841468 -0.00116407 -4.0574e-25)
(0.84818 -0.00116554 9.70302e-25)
(0.854997 -0.00116451 -1.64844e-25)
(0.861899 -0.00116059 2.20972e-24)
(0.868881 -0.00115325 1.43099e-25)
(0.87589 -0.00114223 -6.9953e-25)
(0.882973 -0.00112673 1.10629e-26)
(0.889935 -0.00110725 -6.20978e-25)
(0.897123 -0.00108128 -1.79148e-27)
(0.90364 -0.00105351 -4.72401e-26)
(0.91137 -0.00101192 1.01834e-24)
(0.916032 -0.000983098 2.82007e-25)
(0.92677 -0.000905443 1.94988e-24)
(0.62916 -0.00458958 -2.06387e-22)
(0.633551 -0.00450503 6.39368e-23)
(0.637926 -0.0044226 -1.44536e-22)
(0.642286 -0.00434233 6.01331e-23)
(0.646633 -0.00426426 2.33855e-22)
(0.650966 -0.00418846 -7.09577e-23)
(0.655288 -0.00411498 4.34011e-23)
(0.659598 -0.00404389 -1.58336e-22)
(0.6639 -0.00397524 1.616e-22)
(0.668193 -0.00390912 -7.65324e-23)
(0.672481 -0.00384559 -7.04346e-23)
(0.676764 -0.00378473 3.18108e-24)
(0.681045 -0.00372664 7.28183e-25)
(0.685326 -0.00367139 -3.81346e-23)
(0.68961 -0.00361908 1.28596e-22)
(0.6939 -0.00356981 -3.21245e-23)
(0.698198 -0.00352366 -1.07324e-22)
(0.702507 -0.00348074 1.64407e-23)
(0.706832 -0.00344115 1.53743e-22)
(0.711176 -0.00340499 5.98758e-24)
(0.715543 -0.00337235 -4.80931e-23)
(0.719937 -0.00334333 -7.27333e-23)
(0.724365 -0.00331801 1.66338e-23)
(0.728829 -0.00329646 -4.4284e-23)
(0.733337 -0.00327876 2.89747e-23)
(0.737894 -0.00326495 2.28727e-23)
(0.742505 -0.00325505 -4.36294e-23)
(0.747177 -0.00324907 2.48342e-23)
(0.751917 -0.00324698 -4.74038e-24)
(0.756731 -0.00324872 -2.20191e-23)
(0.761626 -0.00325417 2.31747e-24)
(0.76661 -0.0032632 2.74612e-23)
(0.771689 -0.00327558 1.19202e-23)
(0.77687 -0.00329106 2.65123e-23)
(0.782159 -0.00330929 -2.48986e-23)
(0.787563 -0.00332987 -3.16079e-24)
(0.793089 -0.00335231 -8.52536e-24)
(0.79874 -0.00337604 1.55496e-23)
(0.804521 -0.0034004 -2.89287e-23)
(0.810435 -0.00342464 6.93468e-24)
(0.816485 -0.00344791 1.8445e-23)
(0.822669 -0.00346928 -2.24154e-23)
(0.828987 -0.00348774 2.1857e-24)
(0.835435 -0.00350219 9.2898e-24)
(0.842007 -0.00351145 3.85862e-24)
(0.848693 -0.0035143 5.41245e-25)
(0.855484 -0.00350945 -1.05845e-24)
(0.86236 -0.00349569 8.5992e-25)
(0.869316 -0.00347152 3.95989e-25)
(0.876299 -0.00343614 1.02374e-24)
(0.883356 -0.00338719 -9.50607e-25)
(0.890293 -0.00332622 1.70279e-25)
(0.897456 -0.00324572 1.07026e-25)
(0.90395 -0.00315978 -2.24824e-27)
(0.911654 -0.00303245 -8.17602e-25)
(0.916299 -0.00294346 -2.29129e-25)
(0.927001 -0.00270823 -7.03424e-24)
(0.632505 -0.00761363 1.41128e-22)
(0.636832 -0.00747378 9.63745e-23)
(0.641145 -0.00733744 1.73042e-22)
(0.645443 -0.00720468 1.13716e-22)
(0.649729 -0.0070756 -4.02748e-22)
(0.654002 -0.00695028 2.18931e-22)
(0.658264 -0.00682882 -2.77622e-22)
(0.662517 -0.00671132 4.17742e-22)
(0.666761 -0.00659791 -1.9672e-22)
(0.670998 -0.00648868 -5.67994e-23)
(0.67523 -0.00638378 1.50969e-22)
(0.679458 -0.00628333 5.28185e-23)
(0.683685 -0.00618747 -1.63164e-22)
(0.687912 -0.00609635 -2.977e-22)
(0.692144 -0.00601012 2.40163e-23)
(0.696381 -0.00592893 2.53879e-22)
(0.700627 -0.00585295 -2.12404e-22)
(0.704886 -0.00578235 -4.95265e-23)
(0.70916 -0.00571728 6.17922e-23)
(0.713454 -0.0056579 6.81983e-23)
(0.717772 -0.00560439 1.75361e-23)
(0.722118 -0.00555689 8.44358e-23)
(0.726497 -0.00551553 8.50929e-24)
(0.730914 -0.00548045 -9.75355e-23)
(0.735374 -0.00545175 -1.41527e-23)
(0.739884 -0.00542951 -2.96247e-23)
(0.744448 -0.00541376 -4.4441e-23)
(0.749073 -0.0054045 5.76781e-23)
(0.753766 -0.00540169 3.59728e-23)
(0.758534 -0.00540522 -6.50281e-23)
(0.763383 -0.0054149 8.59539e-23)
(0.768319 -0.00543047 -6.26578e-23)
(0.773351 -0.0054516 4.31155e-23)
(0.778485 -0.00547782 -2.78365e-23)
(0.783727 -0.00550857 3.1038e-23)
(0.789084 -0.00554317 3.60607e-23)
(0.794561 -0.00558081 -2.9248e-23)
(0.800164 -0.00562053 -6.61993e-24)
(0.805897 -0.00566122 -9.64518e-25)
(0.811762 -0.00570163 2.58364e-23)
(0.817762 -0.00574037 -2.17768e-23)
(0.823896 -0.00577588 3.2541e-23)
(0.830164 -0.00580646 -1.16673e-23)
(0.836561 -0.00583029 1.19349e-23)
(0.843081 -0.0058454 -1.32045e-23)
(0.849716 -0.0058498 -9.09764e-25)
(0.856456 -0.0058413 -1.15395e-24)
(0.86328 -0.00581792 -1.37544e-23)
(0.870184 -0.00577714 1.16785e-24)
(0.877116 -0.00571769 -6.55566e-24)
(0.884121 -0.00563559 -6.06416e-25)
(0.891008 -0.00553349 9.69085e-25)
(0.89812 -0.00539887 -5.97232e-25)
(0.904568 -0.00525521 1.44501e-25)
(0.912219 -0.00504268 -3.0335e-24)
(0.916831 -0.00489396 1.73769e-25)
(0.927463 -0.00450214 5.91902e-24)
(0.637488 -0.0105873 5.55468e-22)
(0.641721 -0.0103936 -1.82781e-24)
(0.64594 -0.0102048 -5.01059e-22)
(0.650147 -0.0100209 2.84253e-22)
(0.654342 -0.0098421 -1.64634e-22)
(0.658526 -0.00966854 -1.53599e-23)
(0.662701 -0.00950034 2.73481e-22)
(0.666867 -0.00933764 -2.53854e-22)
(0.671025 -0.00918061 1.65618e-22)
(0.675178 -0.00902941 9.77697e-23)
(0.679327 -0.00888421 -2.66973e-22)
(0.683473 -0.0087452 2.3205e-22)
(0.68762 -0.00861258 8.86554e-23)
(0.691768 -0.00848654 -1.91241e-22)
(0.69592 -0.00836731 8.15814e-24)
(0.70008 -0.0082551 2.31278e-22)
(0.70425 -0.00815013 -3.3222e-22)
(0.708433 -0.00805263 1.989e-23)
(0.712633 -0.00796284 2.68328e-22)
(0.716853 -0.00788098 2.01519e-23)
(0.721098 -0.00780726 2.36443e-24)
(0.725371 -0.00774192 -7.27952e-23)
(0.729678 -0.00768513 -6.10254e-24)
(0.734024 -0.00763707 7.64947e-24)
(0.738414 -0.00759788 5.29587e-23)
(0.742853 -0.00756768 1.56028e-23)
(0.747347 -0.00754651 1.10475e-22)
(0.751902 -0.00753437 -1.18541e-22)
(0.756526 -0.0075312 -1.97047e-23)
(0.761224 -0.00753683 -3.98077e-23)
(0.766003 -0.00755102 1.02076e-22)
(0.77087 -0.0075734 -4.62386e-23)
(0.775832 -0.00760349 -7.96746e-23)
(0.780896 -0.00764065 3.90514e-23)
(0.786068 -0.0076841 -8.25065e-23)
(0.791354 -0.00773288 5.36637e-23)
(0.79676 -0.00778585 9.84625e-24)
(0.80229 -0.00784168 -4.49403e-23)
(0.80795 -0.00789883 1.81119e-23)
(0.813742 -0.00795555 -3.02718e-23)
(0.819668 -0.00800988 1.21206e-23)
(0.825728 -0.00805966 -4.2694e-23)
(0.83192 -0.00810252 6.02908e-24)
(0.838241 -0.0081359 -1.23081e-23)
(0.844685 -0.00815709 2.37062e-23)
(0.851243 -0.00816328 -1.42976e-23)
(0.857905 -0.00815142 1.24748e-24)
(0.864653 -0.00811875 2.89692e-24)
(0.871479 -0.00806177 9.39625e-25)
(0.878334 -0.0079787 4.40701e-25)
(0.885264 -0.00786398 -2.75128e-24)
(0.892076 -0.00772134 -9.51783e-25)
(0.899112 -0.00753327 4.77443e-25)
(0.905491 -0.00733263 -1.77182e-25)
(0.913063 -0.00703579 5.5574e-24)
(0.917626 -0.00682809 -8.28582e-25)
(0.928152 -0.00628132 1.23479e-23)
(0.644069 -0.0134915 6.0169e-22)
(0.648177 -0.0132458 -9.3203e-22)
(0.652274 -0.0130064 2.49945e-22)
(0.65636 -0.0127732 -3.34093e-22)
(0.660436 -0.0125466 3.35041e-22)
(0.664503 -0.0123265 -7.7221e-23)
(0.668562 -0.0121133 3.35477e-22)
(0.672614 -0.011907 -2.69095e-22)
(0.67666 -0.011708 -1.48139e-23)
(0.680702 -0.0115163 -2.43501e-23)
(0.684742 -0.0113323 4.51376e-22)
(0.688781 -0.0111562 -1.10094e-22)
(0.692821 -0.0109882 -2.68123e-22)
(0.696864 -0.0108286 2.79711e-22)
(0.700913 -0.0106776 -2.28041e-22)
(0.704971 -0.0105356 1.3924e-22)
(0.70904 -0.0104028 1.08397e-22)
(0.713123 -0.0102795 -1.38735e-22)
(0.717225 -0.010166 -4.94141e-23)
(0.721348 -0.0100627 3.66869e-22)
(0.725496 -0.00996969 -3.52019e-22)
(0.729674 -0.00988737 3.13687e-22)
(0.733886 -0.00981597 -1.00371e-22)
(0.738138 -0.00975569 -1.1849e-22)
(0.742434 -0.00970673 -1.34747e-22)
(0.74678 -0.00966921 1.24575e-22)
(0.751182 -0.00964322 1.13808e-22)
(0.755646 -0.00962874 -1.7567e-22)
(0.760178 -0.0096257 4.74211e-23)
(0.764784 -0.00963389 -2.81926e-24)
(0.769471 -0.00965298 9.99682e-24)
(0.774247 -0.00968252 5.58386e-23)
(0.779116 -0.00972188 -8.56222e-23)
(0.784087 -0.00977025 1.21276e-22)
(0.789166 -0.00982663 -1.75387e-22)
(0.794358 -0.0098898 8.89209e-23)
(0.79967 -0.00995829 -3.95413e-23)
(0.805105 -0.0100304 -2.23973e-24)
(0.810669 -0.0101042 -9.50139e-25)
(0.816364 -0.0101774 3.18585e-24)
(0.822192 -0.0102475 2.81426e-23)
(0.828153 -0.0103117 -2.18121e-23)
(0.834246 -0.0103671 -4.2223e-24)
(0.840467 -0.0104103 2.25854e-23)
(0.84681 -0.0104378 -3.00923e-23)
(0.853266 -0.0104461 6.24032e-24)
(0.859826 -0.0104313 -1.16227e-24)
(0.866471 -0.0103898 7.65438e-24)
(0.873195 -0.0103172 5.97128e-24)
(0.879949 -0.0102111 2.60845e-24)
(0.886777 -0.0100645 -1.2308e-24)
(0.89349 -0.00988218 9.601e-25)
(0.900426 -0.00964157 -3.83161e-25)
(0.906714 -0.00938498 -8.13164e-25)
(0.914182 -0.00900509 -6.54663e-24)
(0.918679 -0.00873942 2.5414e-24)
(0.929064 -0.00803997 -1.8169e-23)
(0.652193 -0.0163075 -7.46196e-22)
(0.656149 -0.0160125 1.16369e-21)
(0.660096 -0.0157248 -8.73147e-22)
(0.664034 -0.0154448 9.29597e-22)
(0.667963 -0.0151725 3.2585e-22)
(0.671886 -0.0149082 -3.09848e-22)
(0.675803 -0.014652 -6.13378e-22)
(0.679715 -0.0144043 4.99237e-22)
(0.683623 -0.0141653 -4.82609e-22)
(0.687529 -0.0139351 7.35418e-23)
(0.691434 -0.0137142 -5.6203e-22)
(0.695341 -0.0135027 8.58283e-22)
(0.69925 -0.0133011 -3.73579e-22)
(0.703164 -0.0131095 -4.09485e-22)
(0.707086 -0.0129284 6.71546e-22)
(0.711018 -0.0127581 -5.75057e-22)
(0.714963 -0.012599 -3.5597e-22)
(0.718924 -0.0124513 4.78674e-22)
(0.722904 -0.0123154 6.52097e-24)
(0.726907 -0.0121918 -4.44263e-24)
(0.730936 -0.0120808 2.29531e-23)
(0.734997 -0.0119826 -3.4233e-22)
(0.739093 -0.0118976 4.25835e-22)
(0.743229 -0.011826 -3.8191e-23)
(0.74741 -0.0117682 -2.31321e-23)
(0.751641 -0.0117242 1.21461e-22)
(0.755929 -0.0116941 -1.7151e-22)
(0.760279 -0.011678 1.51589e-22)
(0.764698 -0.0116757 -1.51125e-24)
(0.769191 -0.011687 -9.70633e-23)
(0.773765 -0.0117115 -5.271e-23)
(0.778427 -0.0117486 9.48861e-23)
(0.783182 -0.0117976 -7.74138e-23)
(0.788039 -0.0118575 4.04598e-23)
(0.793003 -0.0119272 1.19012e-22)
(0.798079 -0.012005 -3.95331e-23)
(0.803274 -0.0120892 8.29182e-23)
(0.808592 -0.0121779 -4.52517e-23)
(0.814037 -0.0122685 1.20923e-22)
(0.819612 -0.0123583 1.36171e-23)
(0.825319 -0.0124444 -7.14338e-23)
(0.831158 -0.0125233 5.79103e-24)
(0.837128 -0.0125914 1.61084e-23)
(0.843224 -0.0126448 -3.9813e-23)
(0.849442 -0.012679 3.66708e-23)
(0.855773 -0.0126899 1.31835e-27)
(0.862206 -0.0126727 -1.69116e-23)
(0.868725 -0.012623 -1.42855e-23)
(0.875323 -0.0125354 -2.17563e-23)
(0.881951 -0.0124071 1.8998e-24)
(0.888653 -0.0122295 1.31787e-24)
(0.895243 -0.0120085 6.87948e-25)
(0.902056 -0.0117166 1.11984e-24)
(0.90823 -0.0114053 8.43099e-25)
(0.91557 -0.010944 1.40935e-24)
(0.919986 -0.0106217 2.49176e-25)
(0.930196 -0.00977243 6.66325e-24)
(0.661796 -0.019018 -3.33701e-22)
(0.665573 -0.0186765 3.07459e-22)
(0.669343 -0.0183436 -4.52831e-22)
(0.673106 -0.0180194 3.1113e-22)
(0.676865 -0.0177043 -6.54637e-22)
(0.680618 -0.0173983 1.22867e-21)
(0.684368 -0.0171018 -4.43777e-22)
(0.688115 -0.0168151 2.09954e-22)
(0.691861 -0.0165385 -2.3414e-22)
(0.695607 -0.0162721 -1.53539e-22)
(0.699354 -0.0160165 1.59601e-22)
(0.703105 -0.0157719 1.27905e-23)
(0.70686 -0.0155386 3.97975e-22)
(0.710623 -0.0153172 1.18679e-22)
(0.714395 -0.0151078 4.09321e-24)
(0.718179 -0.0149111 3.33603e-23)
(0.721978 -0.0147272 -2.92385e-22)
(0.725794 -0.0145568 -8.62347e-23)
(0.729631 -0.0144002 2.54044e-22)
(0.733493 -0.0142578 -1.67743e-22)
(0.737382 -0.01413 -2.1204e-22)
(0.741304 -0.0140173 5.21863e-22)
(0.745262 -0.01392 -6.86534e-22)
(0.749262 -0.0138383 8.86113e-24)
(0.753307 -0.0137726 5.80342e-22)
(0.757404 -0.0137231 -1.7571e-23)
(0.761557 -0.0136899 -2.14995e-22)
(0.765773 -0.0136729 2.66401e-22)
(0.770058 -0.0136721 -1.27998e-22)
(0.774417 -0.0136871 9.38081e-23)
(0.778857 -0.0137176 2.08638e-23)
(0.783384 -0.0137628 -7.5577e-23)
(0.788006 -0.0138219 6.05866e-24)
(0.792727 -0.0138938 1.76289e-23)
(0.797555 -0.013977 6.36257e-23)
(0.802494 -0.0140698 -7.4433e-23)
(0.807551 -0.0141701 -5.31382e-23)
(0.812729 -0.0142755 -1.51428e-23)
(0.818034 -0.0143831 -1.2125e-23)
(0.823467 -0.0144899 1.61503e-23)
(0.829031 -0.0145922 -9.9308e-23)
(0.834726 -0.0146861 7.91903e-23)
(0.840549 -0.0147673 -4.80508e-23)
(0.846498 -0.0148311 3.01684e-23)
(0.852568 -0.0148726 -5.87432e-23)
(0.858749 -0.0148865 2.98155e-23)
(0.865033 -0.0148674 6.84576e-24)
(0.871402 -0.0148102 6.75722e-25)
(0.877849 -0.0147085 2.45373e-23)
(0.884328 -0.0145591 -5.19263e-25)
(0.890882 -0.0143516 1.02053e-23)
(0.897327 -0.0140932 2.2651e-24)
(0.903992 -0.0137513 1.41742e-24)
(0.910032 -0.013387 2.00104e-25)
(0.917218 -0.0128461 -1.69451e-24)
(0.921538 -0.0124687 -1.9568e-24)
(0.931542 -0.0114731 3.72353e-24)
(0.6728 -0.0216068 9.32136e-22)
(0.676373 -0.0212223 -4.96358e-22)
(0.679943 -0.0208474 1.54379e-22)
(0.683508 -0.0204823 2.37003e-22)
(0.687071 -0.0201273 -4.27516e-22)
(0.690632 -0.0197828 2.36131e-22)
(0.694192 -0.0194489 -7.03589e-22)
(0.697752 -0.019126 6.89943e-23)
(0.701313 -0.0188145 4.57608e-22)
(0.704876 -0.0185146 -3.49148e-22)
(0.708444 -0.0182268 -3.42657e-22)
(0.712017 -0.0179515 2.64811e-22)
(0.715597 -0.017689 -1.60777e-22)
(0.719187 -0.0174399 4.80116e-22)
(0.722788 -0.0172045 2.19058e-23)
(0.726403 -0.0169834 -5.03699e-22)
(0.730035 -0.0167769 2.64487e-22)
(0.733687 -0.0165856 -4.71081e-22)
(0.737361 -0.01641 -8.24108e-23)
(0.741061 -0.0162505 3.37706e-22)
(0.74479 -0.0161077 -2.82969e-22)
(0.748553 -0.0159819 1.96247e-22)
(0.752354 -0.0158736 3.78815e-22)
(0.756197 -0.0157831 -6.14617e-22)
(0.760087 -0.0157108 3.19968e-22)
(0.764029 -0.0156569 6.71381e-23)
(0.768029 -0.0156215 -1.97672e-22)
(0.772092 -0.0156046 -2.43814e-23)
(0.776223 -0.0156061 -3.74564e-22)
(0.780429 -0.0156256 2.07161e-22)
(0.784716 -0.0156627 -1.8976e-22)
(0.789089 -0.0157167 2.70357e-22)
(0.793556 -0.0157864 -1.24123e-22)
(0.798122 -0.0158707 -1.5145e-23)
(0.802794 -0.0159679 7.78905e-23)
(0.807576 -0.016076 -1.73283e-22)
(0.812475 -0.0161926 5.03276e-23)
(0.817494 -0.016315 -9.28179e-23)
(0.822637 -0.01644 -5.10703e-25)
(0.827907 -0.016564 5.86289e-23)
(0.833306 -0.0166828 2.51438e-23)
(0.838835 -0.016792 2.86916e-23)
(0.844491 -0.0168866 5.32534e-23)
(0.850271 -0.0169613 -4.66663e-23)
(0.85617 -0.0170104 2.64022e-23)
(0.86218 -0.0170281 -5.02285e-23)
(0.868291 -0.0170078 5.88583e-24)
(0.874487 -0.016944 6.38341e-24)
(0.880762 -0.0168291 -1.03845e-24)
(0.887069 -0.0166596 -7.80426e-24)
(0.893451 -0.0164234 -3.2698e-24)
(0.899729 -0.0161292 9.58435e-25)
(0.906225 -0.015739 -5.38652e-25)
(0.91211 -0.0153235 1.1954e-24)
(0.91912 -0.0147053 3.30693e-24)
(0.923329 -0.0142746 1.86839e-24)
(0.933094 -0.0131367 -3.46784e-23)
(0.685119 -0.0240592 1.02763e-21)
(0.688467 -0.0236353 1.66933e-21)
(0.691813 -0.0232221 -2.02716e-21)
(0.695159 -0.0228197 2.76055e-22)
(0.698505 -0.0224284 -7.23265e-22)
(0.701852 -0.0220485 1.7289e-21)
(0.705201 -0.0216805 1.72917e-22)
(0.708553 -0.0213246 -1.85135e-21)
(0.711908 -0.0209812 7.2779e-22)
(0.715269 -0.0206508 1.2021e-21)
(0.718636 -0.0203337 -7.82915e-22)
(0.722012 -0.0200304 7.30747e-23)
(0.725397 -0.0197413 1.04304e-22)
(0.728795 -0.0194671 6.08256e-22)
(0.732206 -0.019208 6.94856e-23)
(0.735633 -0.0189648 -8.93653e-22)
(0.739079 -0.0187379 1.0261e-21)
(0.742547 -0.0185279 -6.02899e-22)
(0.746039 -0.0183353 2.06157e-22)
(0.749559 -0.0181606 6.29667e-22)
(0.75311 -0.0180045 -6.08418e-23)
(0.756696 -0.0178673 1.91015e-22)
(0.760322 -0.0177496 -9.56654e-23)
(0.76399 -0.0176518 -5.1948e-22)
(0.767707 -0.0175742 3.824e-22)
(0.771477 -0.0175171 -4.38391e-24)
(0.775304 -0.0174806 2.97047e-22)
(0.779195 -0.0174648 -2.2824e-22)
(0.783155 -0.0174696 -2.71666e-22)
(0.78719 -0.0174944 -2.32476e-23)
(0.791305 -0.0175389 3.29636e-23)
(0.795506 -0.0176022 1.35804e-22)
(0.7998 -0.0176832 -7.09471e-23)
(0.804193 -0.0177803 1.02391e-22)
(0.80869 -0.0178919 1.38831e-22)
(0.813296 -0.0180156 -4.14234e-23)
(0.818016 -0.018149 4.39589e-23)
(0.822856 -0.0182887 -2.41597e-23)
(0.827818 -0.0184314 -3.21852e-24)
(0.832906 -0.0185728 2.42404e-23)
(0.838121 -0.0187085 -2.45358e-23)
(0.843462 -0.0188333 -5.11803e-23)
(0.84893 -0.0189417 1.70164e-23)
(0.85452 -0.0190278 -3.63899e-23)
(0.860228 -0.0190851 1.34197e-23)
(0.866045 -0.0191071 3.92238e-23)
(0.871963 -0.0190865 -4.73059e-23)
(0.877964 -0.0190169 -7.42946e-24)
(0.884045 -0.0188899 -1.27518e-23)
(0.890159 -0.0187016 1.38029e-23)
(0.896348 -0.0184383 -6.17094e-24)
(0.902438 -0.0181098 5.22731e-24)
(0.908742 -0.0176732 3.53747e-25)
(0.914454 -0.0172085 4.73799e-25)
(0.921265 -0.0165154 -3.86768e-24)
(0.925349 -0.0160337 1.0932e-25)
(0.934845 -0.014758 -1.05746e-24)
(0.698657 -0.0263618 1.7396e-22)
(0.701759 -0.0259028 1.30895e-21)
(0.704863 -0.0254551 -1.6891e-21)
(0.70797 -0.0250192 -1.07819e-21)
(0.71108 -0.0245954 1.43786e-21)
(0.714195 -0.0241839 -4.10872e-22)
(0.717314 -0.0237852 4.10999e-23)
(0.720439 -0.0233997 -2.66903e-22)
(0.72357 -0.0230278 1.57732e-22)
(0.72671 -0.0226699 1.57521e-21)
(0.72986 -0.0223266 -1.62693e-21)
(0.73302 -0.0219983 -3.65369e-23)
(0.736192 -0.0216856 6.92318e-22)
(0.73938 -0.0213889 -1.41953e-22)
(0.742583 -0.0211089 9.74682e-22)
(0.745805 -0.0208461 -1.05214e-21)
(0.749048 -0.0206012 -1.61553e-22)
(0.752315 -0.0203747 2.16152e-22)
(0.755609 -0.0201672 -3.67382e-22)
(0.758932 -0.0199794 -1.28383e-24)
(0.762288 -0.0198119 2.67997e-22)
(0.76568 -0.0196651 -7.01995e-22)
(0.769113 -0.0195397 1.83501e-22)
(0.772591 -0.0194361 -2.67432e-22)
(0.776117 -0.0193547 1.96405e-22)
(0.779698 -0.0192958 3.25629e-22)
(0.783337 -0.0192595 -7.28955e-23)
(0.787039 -0.0192459 -5.1491e-23)
(0.790811 -0.0192549 -5.69553e-23)
(0.794658 -0.019286 -4.62646e-23)
(0.798584 -0.0193386 1.88008e-22)
(0.802597 -0.0194119 -1.43416e-22)
(0.806701 -0.0195047 6.0676e-23)
(0.810902 -0.0196153 -4.21789e-23)
(0.815207 -0.0197417 -1.92182e-23)
(0.819619 -0.0198815 -1.15167e-22)
(0.824144 -0.0200318 2.0661e-22)
(0.828786 -0.0201893 9.55019e-23)
(0.833549 -0.0203498 -4.00503e-23)
(0.838436 -0.020509 4.55272e-23)
(0.843447 -0.0206619 1.26623e-23)
(0.848583 -0.0208027 5.04528e-23)
(0.853842 -0.0209253 2.39855e-24)
(0.859223 -0.0210233 6.08213e-23)
(0.864719 -0.0210894 -5.30045e-23)
(0.870323 -0.0211164 5.95155e-23)
(0.876027 -0.0210963 1.68392e-23)
(0.881815 -0.021022 -1.82665e-23)
(0.887681 -0.0208841 1.32586e-23)
(0.893581 -0.0206784 -3.89866e-24)
(0.899557 -0.0203895 1.40483e-23)
(0.905438 -0.0200287 6.71726e-25)
(0.911532 -0.0195476 -3.35038e-25)
(0.917051 -0.0190361 -3.96288e-24)
(0.923641 -0.018271 8.10486e-25)
(0.927588 -0.0177405 -4.03927e-25)
(0.936786 -0.016332 8.53686e-23)
(0.71331 -0.0285033 5.06096e-22)
(0.716149 -0.0280133 1.95803e-22)
(0.718995 -0.0275356 6.92003e-22)
(0.721846 -0.0270702 6.48921e-22)
(0.724704 -0.0266178 -6.85123e-22)
(0.727569 -0.0261785 4.8193e-22)
(0.730442 -0.025753 -1.00676e-21)
(0.733324 -0.0253415 1.43765e-21)
(0.736216 -0.0249446 -1.26497e-21)
(0.739119 -0.0245627 -4.95663e-22)
(0.742034 -0.0241964 3.36305e-22)
(0.744963 -0.0238463 9.79073e-23)
(0.747908 -0.0235128 -1.66531e-22)
(0.750869 -0.0231967 8.13035e-22)
(0.75385 -0.0228985 -2.19387e-22)
(0.756851 -0.0226189 -5.89163e-22)
(0.759876 -0.0223584 2.89743e-22)
(0.762927 -0.0221179 4.67467e-22)
(0.766006 -0.0218979 -8.39274e-22)
(0.769117 -0.0216992 8.02736e-22)
(0.772263 -0.0215223 -1.4354e-22)
(0.775447 -0.0213679 -2.70294e-22)
(0.778673 -0.0212366 6.50715e-22)
(0.781944 -0.0211288 -6.6361e-22)
(0.785266 -0.0210451 3.74525e-22)
(0.788642 -0.0209858 -1.68173e-23)
(0.792077 -0.020951 -1.57944e-22)
(0.795576 -0.0209408 -4.33952e-22)
(0.799145 -0.020955 7.45782e-22)
(0.802788 -0.0209933 -3.96314e-23)
(0.80651 -0.0210549 -3.70154e-22)
(0.810318 -0.021139 3.05158e-22)
(0.814216 -0.0212441 1.86451e-22)
(0.818211 -0.0213687 -3.38439e-22)
(0.822307 -0.0215104 -8.35636e-24)
(0.826509 -0.0216667 7.34369e-23)
(0.830822 -0.0218344 5.79234e-24)
(0.83525 -0.0220098 -2.92077e-23)
(0.839797 -0.0221886 -4.71169e-23)
(0.844465 -0.0223659 -2.46813e-22)
(0.849254 -0.0225362 6.24196e-23)
(0.854167 -0.0226934 -2.29418e-24)
(0.859201 -0.0228308 -7.06373e-23)
(0.864354 -0.0229411 -8.08184e-24)
(0.86962 -0.0230166 2.69243e-23)
(0.874993 -0.0230495 -9.03781e-24)
(0.880464 -0.0230308 3.96091e-23)
(0.886018 -0.0229529 -7.39549e-24)
(0.89165 -0.0228053 -7.7439e-24)
(0.897318 -0.0225837 -1.51404e-23)
(0.903062 -0.0222709 -1.10413e-24)
(0.908716 -0.0218797 -3.81155e-24)
(0.914579 -0.0213565 -7.0369e-24)
(0.919888 -0.0208007 7.02584e-25)
(0.926239 -0.0199666 5.25438e-24)
(0.930036 -0.0193898 3.67068e-24)
(0.938907 -0.0178541 -1.10988e-22)
(0.728967 -0.0304737 1.7521e-21)
(0.731531 -0.0299575 -4.49878e-22)
(0.734103 -0.029454 7.23984e-22)
(0.736685 -0.0289635 -4.49097e-22)
(0.739276 -0.0284866 5.15522e-22)
(0.741878 -0.0280237 -1.08233e-21)
(0.744491 -0.0275751 5.39475e-22)
(0.747117 -0.0271415 -7.87672e-22)
(0.749755 -0.0267232 4.68474e-22)
(0.752408 -0.0263209 -8.22902e-22)
(0.755076 -0.0259351 1.26436e-21)
(0.75776 -0.0255664 -7.61011e-22)
(0.760463 -0.0252155 -2.998e-22)
(0.763185 -0.0248829 2.11995e-21)
(0.765929 -0.0245694 -1.07575e-21)
(0.768697 -0.0242757 -5.41694e-23)
(0.771491 -0.0240025 -5.22259e-22)
(0.774312 -0.0237504 1.27613e-21)
(0.777164 -0.0235203 -1.33287e-21)
(0.78005 -0.0233129 8.93422e-22)
(0.782972 -0.0231288 -7.569e-22)
(0.785934 -0.0229688 2.53863e-22)
(0.78894 -0.0228334 -1.58941e-23)
(0.791992 -0.0227233 4.40982e-22)
(0.795095 -0.0226389 -4.01537e-22)
(0.798254 -0.0225806 3.59278e-23)
(0.801472 -0.0225486 2.47547e-22)
(0.804754 -0.022543 -4.51719e-22)
(0.808106 -0.0225636 3.70782e-22)
(0.811531 -0.02261 -5.22671e-22)
(0.815036 -0.0226815 2.50181e-22)
(0.818625 -0.022777 -2.55725e-22)
(0.822304 -0.0228953 1.72503e-23)
(0.826077 -0.0230343 1.23148e-22)
(0.82995 -0.0231918 -1.87718e-22)
(0.833927 -0.023365 1.66914e-22)
(0.838013 -0.0235504 -8.14147e-23)
(0.842212 -0.0237442 1.61604e-22)
(0.846527 -0.0239415 -9.18343e-23)
(0.85096 -0.0241372 1.07226e-22)
(0.855513 -0.0243253 -1.31089e-22)
(0.860185 -0.0244992 1.29317e-22)
(0.864977 -0.0246517 4.45605e-23)
(0.869885 -0.0247749 3.98481e-23)
(0.874904 -0.0248606 -2.81106e-23)
(0.880028 -0.0249 -7.26926e-24)
(0.885249 -0.0248837 -1.7537e-23)
(0.890552 -0.0248033 6.60452e-24)
(0.895933 -0.0246475 -2.39333e-23)
(0.901351 -0.0244116 4.32319e-23)
(0.906845 -0.0240767 -5.97004e-25)
(0.912254 -0.0236574 9.91696e-24)
(0.917869 -0.0230944 6.80438e-24)
(0.922953 -0.022497 -1.82982e-24)
(0.929043 -0.0215971 6.03685e-24)
(0.932679 -0.0209768 -1.28155e-24)
(0.941199 -0.0193196 2.12227e-23)
(0.745515 -0.0322654 -1.97956e-21)
(0.74779 -0.0317275 6.47135e-22)
(0.750078 -0.0312028 8.70776e-22)
(0.752379 -0.0306916 -1.02301e-21)
(0.754693 -0.0301946 7.74873e-22)
(0.757021 -0.029712 7.4513e-22)
(0.759364 -0.0292445 -2.04759e-21)
(0.761721 -0.0287926 -8.16913e-23)
(0.764095 -0.0283568 -2.14251e-22)
(0.766486 -0.0279377 1.22569e-21)
(0.768896 -0.0275359 -1.06685e-21)
(0.771325 -0.027152 5.7372e-22)
(0.773775 -0.0267869 1.83564e-22)
(0.776247 -0.026441 3.23665e-22)
(0.778744 -0.0261153 -2.74045e-23)
(0.781266 -0.0258104 -1.67347e-22)
(0.783817 -0.0255271 6.90399e-22)
(0.786398 -0.0252662 -6.1861e-22)
(0.789012 -0.0250284 6.31501e-22)
(0.791662 -0.0248146 -4.30312e-22)
(0.794349 -0.0246256 -2.56593e-22)
(0.797078 -0.0244619 -6.36207e-22)
(0.799852 -0.0243245 3.11537e-22)
(0.802673 -0.0242138 6.74414e-23)
(0.805547 -0.0241303 6.93269e-22)
(0.808476 -0.0240746 -4.8308e-22)
(0.811465 -0.0240468 2.47074e-22)
(0.814519 -0.024047 7.68241e-23)
(0.817641 -0.0240751 -3.36183e-22)
(0.820838 -0.0241305 4.36498e-22)
(0.824112 -0.0242127 2.72272e-23)
(0.82747 -0.0243205 5.84407e-23)
(0.830916 -0.0244524 -1.62087e-22)
(0.834456 -0.0246065 -1.01684e-22)
(0.838093 -0.0247803 1.45644e-22)
(0.841832 -0.0249707 -6.70194e-23)
(0.845677 -0.0251742 7.52576e-23)
(0.849633 -0.0253866 -1.92016e-22)
(0.853702 -0.0256027 2.04058e-22)
(0.857886 -0.0258171 -5.65813e-23)
(0.862187 -0.0260233 -1.14768e-22)
(0.866605 -0.0262143 7.58916e-23)
(0.87114 -0.0263823 8.3695e-23)
(0.875787 -0.0265191 -1.36289e-22)
(0.880544 -0.0266155 -3.59926e-23)
(0.885403 -0.0266624 4.82369e-23)
(0.890358 -0.0266494 -2.28036e-23)
(0.895394 -0.0265678 2.95565e-23)
(0.900508 -0.0264051 -4.49342e-23)
(0.905659 -0.0261567 -2.23006e-24)
(0.910886 -0.0258017 2.53901e-23)
(0.916036 -0.0253564 -1.64494e-23)
(0.921386 -0.0247561 -4.40799e-24)
(0.926229 -0.0241201 2.4441e-24)
(0.932042 -0.0231578 -1.77119e-23)
(0.935506 -0.022497 4.16525e-25)
(0.943649 -0.0207246 4.65957e-23)
(0.764813 -0.0333175 -4.7552e-23)
(0.766808 -0.0327761 2.35548e-21)
(0.76882 -0.0322488 -1.19815e-21)
(0.770849 -0.0317359 1.21087e-22)
(0.772894 -0.031238 2.04583e-25)
(0.774957 -0.0307556 3.07776e-23)
(0.777039 -0.0302894 -1.46539e-22)
(0.77914 -0.0298398 -8.31354e-22)
(0.781261 -0.0294076 1.39968e-21)
(0.783403 -0.0289934 -7.67924e-22)
(0.785568 -0.0285979 1.35364e-21)
(0.787756 -0.0282218 -1.07223e-21)
(0.78997 -0.0278659 5.35625e-22)
(0.79221 -0.0275309 -9.14346e-22)
(0.794479 -0.0272177 4.03933e-22)
(0.796778 -0.0269271 -2.9405e-22)
(0.79911 -0.02666 2.24392e-22)
(0.801476 -0.0264171 -6.17758e-23)
(0.80388 -0.0261993 3.27715e-22)
(0.806324 -0.0260075 -6.0708e-22)
(0.80881 -0.0258424 5.78119e-22)
(0.811342 -0.0257048 1.74353e-22)
(0.813924 -0.0255953 -9.97052e-22)
(0.816558 -0.0255145 9.13447e-22)
(0.819248 -0.0254628 -8.76737e-22)
(0.821999 -0.0254405 8.70323e-22)
(0.824814 -0.0254478 -6.65466e-23)
(0.827697 -0.0254844 9.09893e-23)
(0.830654 -0.02555 2.61792e-24)
(0.833688 -0.0256437 -4.08933e-22)
(0.836804 -0.0257645 3.64946e-22)
(0.840006 -0.0259107 -1.57069e-22)
(0.8433 -0.0260803 1.57278e-22)
(0.84669 -0.0262708 2.2349e-22)
(0.85018 -0.0264789 -1.56713e-22)
(0.853773 -0.0267008 4.01825e-23)
(0.857473 -0.026932 1.0518e-22)
(0.861284 -0.0271672 -1.11089e-22)
(0.865207 -0.0274005 -6.14656e-24)
(0.869243 -0.0276251 -5.72637e-23)
(0.873394 -0.0278336 4.3909e-23)
(0.877657 -0.0280176 -1.88966e-23)
(0.882031 -0.0281684 4.93953e-23)
(0.886511 -0.0282762 -1.21952e-23)
(0.891092 -0.0283313 -1.44806e-23)
(0.895766 -0.0283228 2.52085e-23)
(0.90052 -0.0282412 9.76588e-24)
(0.905351 -0.0280731 1.92143e-23)
(0.910221 -0.027814 -2.41714e-23)
(0.915167 -0.0274408 -2.71741e-23)
(0.920042 -0.0269721 2.31947e-23)
(0.925112 -0.0263371 1.06489e-23)
(0.9297 -0.0256654 5.0455e-24)
(0.93522 -0.0246443 7.53997e-24)
(0.938503 -0.0239462 -8.07207e-25)
(0.946248 -0.022065 3.00583e-23)
(0.782479 -0.0347235 2.50016e-21)
(0.784178 -0.0341701 -1.33006e-21)
(0.785895 -0.0336309 9.87343e-22)
(0.787632 -0.0331066 -1.39818e-21)
(0.78939 -0.0325975 -1.90409e-22)
(0.791168 -0.0321044 1.06784e-21)
(0.792967 -0.0316277 4.40523e-22)
(0.794789 -0.0311683 -1.05458e-21)
(0.796634 -0.0307267 -6.40292e-22)
(0.798503 -0.0303036 1.27157e-21)
(0.800398 -0.0298998 -8.60147e-23)
(0.802318 -0.0295162 -5.57411e-22)
(0.804267 -0.0291533 4.1279e-22)
(0.806244 -0.0288122 6.03531e-22)
(0.808252 -0.0284937 -6.66834e-22)
(0.810293 -0.0281986 1.41619e-22)
(0.812369 -0.0279278 5.41701e-22)
(0.814481 -0.0276823 -9.64558e-22)
(0.816632 -0.027463 3.35739e-22)
(0.818824 -0.0272706 -1.54385e-22)
(0.821061 -0.0271061 5.54874e-22)
(0.823344 -0.0269702 -4.96158e-22)
(0.825678 -0.0268637 -4.95018e-22)
(0.828065 -0.0267872 -3.93522e-25)
(0.830508 -0.0267411 -1.06671e-22)
(0.833012 -0.0267258 1.43331e-22)
(0.83558 -0.0267413 1.46766e-22)
(0.838216 -0.0267876 4.87076e-22)
(0.840924 -0.0268641 -5.41824e-22)
(0.843709 -0.0269702 -2.80181e-22)
(0.846574 -0.0271046 1.0869e-22)
(0.849524 -0.0272658 -2.75503e-22)
(0.852564 -0.0274515 -3.02936e-23)
(0.855696 -0.027659 -2.86325e-22)
(0.858926 -0.0278851 -4.26713e-23)
(0.862257 -0.0281256 8.40587e-23)
(0.865691 -0.0283759 1.86819e-23)
(0.869233 -0.0286305 -1.58542e-22)
(0.872883 -0.0288829 1.64756e-22)
(0.876644 -0.0291262 1.1084e-23)
(0.880515 -0.0293525 4.65691e-23)
(0.884496 -0.0295529 -9.35297e-23)
(0.888583 -0.0297182 -1.00366e-22)
(0.892775 -0.0298381 -8.26138e-24)
(0.897064 -0.0299024 1.29895e-22)
(0.901445 -0.0298992 3.40964e-23)
(0.905904 -0.0298189 -3.12773e-23)
(0.91044 -0.0296469 -4.24003e-23)
(0.915015 -0.0293789 1.73217e-23)
(0.919666 -0.0289896 2.65592e-24)
(0.924253 -0.0285 4.00134e-24)
(0.929029 -0.027833 -5.05323e-24)
(0.933352 -0.027129 -4.08955e-24)
(0.938563 -0.0260527 5.08636e-24)