/*--------------------------------*- C++ -*----------------------------------*\
  =========                 |
  \\      /  F ield         | OpenFOAM: The Open Source CFD Toolbox
   \\    /   O peration     | Website:  https://openfoam.org
    \\  /    A nd           | Version:  7
     \\/     M anipulation  |
\*---------------------------------------------------------------------------*/
FoamFile
{
    version     2.0;
    format      ascii;
    class       volScalarField;
    location    "20";
    object      p;
}
// * * * * * * * * * * * * * * * * * * * * * * * * * * * * * * * * * * * * * //

dimensions      [0 2 -2 0 0 0 0];

internalField   nonuniform List<scalar> 
24200
(
-0.30215
-0.305058
-0.30577
-0.306815
-0.307502
-0.308174
-0.308782
-0.309361
-0.309904
-0.310409
-0.310868
-0.311275
-0.311624
-0.311912
-0.302222
-0.305117
-0.305826
-0.306867
-0.307551
-0.308221
-0.308827
-0.309405
-0.309947
-0.31045
-0.310909
-0.311315
-0.311664
-0.311951
-0.302364
-0.305234
-0.305937
-0.306971
-0.307649
-0.308315
-0.308917
-0.309492
-0.310032
-0.310533
-0.31099
-0.311395
-0.311743
-0.31203
-0.302576
-0.30541
-0.306104
-0.307125
-0.307796
-0.308454
-0.309051
-0.309621
-0.310157
-0.310656
-0.31111
-0.311513
-0.31186
-0.312145
-0.302857
-0.305642
-0.306324
-0.307328
-0.307989
-0.308638
-0.309228
-0.309792
-0.310323
-0.310817
-0.311268
-0.311668
-0.312012
-0.312296
-0.303204
-0.305929
-0.306597
-0.30758
-0.308227
-0.308865
-0.309445
-0.310001
-0.310525
-0.311014
-0.31146
-0.311856
-0.312197
-0.312479
-0.312696
-0.303616
-0.30627
-0.30692
-0.307879
-0.30851
-0.309132
-0.309701
-0.310246
-0.310762
-0.311244
-0.311684
-0.312075
-0.312412
-0.31269
-0.312905
-0.304088
-0.306662
-0.307292
-0.308221
-0.308833
-0.309438
-0.309992
-0.310526
-0.311031
-0.311504
-0.311936
-0.312321
-0.312653
-0.312926
-0.313136
-0.30462
-0.307104
-0.30771
-0.308606
-0.309195
-0.30978
-0.310317
-0.310836
-0.311329
-0.31179
-0.312213
-0.31259
-0.312914
-0.313181
-0.313387
-0.305206
-0.307592
-0.308172
-0.30903
-0.309594
-0.310155
-0.310672
-0.311173
-0.311651
-0.312099
-0.31251
-0.312877
-0.313192
-0.313452
-0.31365
-0.305845
-0.308125
-0.308675
-0.309492
-0.310025
-0.310559
-0.311053
-0.311534
-0.311993
-0.312426
-0.312824
-0.313178
-0.313482
-0.313732
-0.313922
-0.306531
-0.3087
-0.309217
-0.309987
-0.310488
-0.31099
-0.311457
-0.311914
-0.312353
-0.312767
-0.313148
-0.313487
-0.313779
-0.314016
-0.314196
-0.307262
-0.309313
-0.309794
-0.310514
-0.310977
-0.311444
-0.311881
-0.31231
-0.312725
-0.313117
-0.313478
-0.313801
-0.314076
-0.314299
-0.314466
-0.308034
-0.309963
-0.310405
-0.31107
-0.311491
-0.311919
-0.31232
-0.312718
-0.313104
-0.313472
-0.313811
-0.314112
-0.314369
-0.314576
-0.314726
-0.308843
-0.310646
-0.311045
-0.311651
-0.312026
-0.312409
-0.312771
-0.313134
-0.313488
-0.313827
-0.31414
-0.314418
-0.314653
-0.31484
-0.314972
-0.309686
-0.311361
-0.311713
-0.312255
-0.312579
-0.312913
-0.313231
-0.313554
-0.313872
-0.314178
-0.314461
-0.314712
-0.314923
-0.315087
-0.315198
-0.315253
-0.310559
-0.312103
-0.312406
-0.31288
-0.313147
-0.313428
-0.313696
-0.313974
-0.314251
-0.31452
-0.31477
-0.314991
-0.315174
-0.315312
-0.315399
-0.315431
-0.31146
-0.312872
-0.313122
-0.313522
-0.313729
-0.313949
-0.314163
-0.31439
-0.314622
-0.31485
-0.315062
-0.315249
-0.315401
-0.31551
-0.31557
-0.315577
-0.312384
-0.313666
-0.313858
-0.314181
-0.31432
-0.314475
-0.314629
-0.314801
-0.314982
-0.315164
-0.315335
-0.315484
-0.315601
-0.315678
-0.315708
-0.315687
-0.313331
-0.314482
-0.314613
-0.314853
-0.31492
-0.315004
-0.315092
-0.315202
-0.315328
-0.31546
-0.315585
-0.315692
-0.31577
-0.315812
-0.31581
-0.315756
-0.314299
-0.315319
-0.315386
-0.315538
-0.315527
-0.315533
-0.315548
-0.315592
-0.315657
-0.315733
-0.315808
-0.31587
-0.315907
-0.31591
-0.315871
-0.315784
-0.315285
-0.316176
-0.316175
-0.316234
-0.316138
-0.31606
-0.315997
-0.315969
-0.315968
-0.315984
-0.316004
-0.316016
-0.316008
-0.315969
-0.315892
-0.315767
-0.315589
-0.316288
-0.317054
-0.316979
-0.31694
-0.316753
-0.316585
-0.316437
-0.316331
-0.316258
-0.316209
-0.316171
-0.31613
-0.316073
-0.315989
-0.315869
-0.315704
-0.315486
-0.31731
-0.317951
-0.317799
-0.317657
-0.317372
-0.317107
-0.316868
-0.316677
-0.316527
-0.316409
-0.316308
-0.316209
-0.316101
-0.315969
-0.315804
-0.315595
-0.315333
-0.318349
-0.318867
-0.318633
-0.318382
-0.317994
-0.317625
-0.317289
-0.317007
-0.316775
-0.316583
-0.316415
-0.316256
-0.316092
-0.315909
-0.315695
-0.315439
-0.315129
-0.319407
-0.319805
-0.319484
-0.319118
-0.318619
-0.31814
-0.3177
-0.317323
-0.317003
-0.316732
-0.316493
-0.31627
-0.316047
-0.31581
-0.315544
-0.315236
-0.314873
-0.314443
-0.320486
-0.320764
-0.320351
-0.319866
-0.319248
-0.318653
-0.318103
-0.317624
-0.317212
-0.316857
-0.316544
-0.316253
-0.315969
-0.315674
-0.315351
-0.314987
-0.314564
-0.314069
-0.321587
-0.321746
-0.321237
-0.320625
-0.319884
-0.319165
-0.318499
-0.317912
-0.317404
-0.316962
-0.31657
-0.316208
-0.315859
-0.315502
-0.315119
-0.314691
-0.314202
-0.313632
-0.322714
-0.322754
-0.322143
-0.321398
-0.320527
-0.319678
-0.31889
-0.318191
-0.317581
-0.317048
-0.316574
-0.316138
-0.31572
-0.315296
-0.314847
-0.31435
-0.313784
-0.313127
-0.312358
-0.32387
-0.323791
-0.323071
-0.322188
-0.32118
-0.320194
-0.319279
-0.318463
-0.317747
-0.317119
-0.31656
-0.316046
-0.315555
-0.31506
-0.314537
-0.313962
-0.313308
-0.31255
-0.311663
-0.325059
-0.324859
-0.324025
-0.322997
-0.321845
-0.320718
-0.31967
-0.318732
-0.317907
-0.31718
-0.316532
-0.315937
-0.315367
-0.314795
-0.314191
-0.313525
-0.312769
-0.311893
-0.310869
-0.326287
-0.325959
-0.32501
-0.323829
-0.322527
-0.321252
-0.320066
-0.319003
-0.318063
-0.317235
-0.316494
-0.315813
-0.31516
-0.314502
-0.313806
-0.313038
-0.312163
-0.311149
-0.309967
-0.30859
-0.327558
-0.327099
-0.326027
-0.324686
-0.323229
-0.3218
-0.320472
-0.319279
-0.318223
-0.317289
-0.316452
-0.315679
-0.314936
-0.314184
-0.313384
-0.312496
-0.311484
-0.31031
-0.308946
-0.307366
-0.328879
-0.328282
-0.327081
-0.325573
-0.323954
-0.322368
-0.320893
-0.319566
-0.31839
-0.317347
-0.316409
-0.31554
-0.314698
-0.313839
-0.31292
-0.311895
-0.310723
-0.309367
-0.307797
-0.305992
-0.330256
-0.329514
-0.328175
-0.326495
-0.324709
-0.322959
-0.321334
-0.319871
-0.318571
-0.317415
-0.316371
-0.315397
-0.314446
-0.313468
-0.312411
-0.311228
-0.309873
-0.308311
-0.306513
-0.304464
-0.30216
-0.331697
-0.330796
-0.329317
-0.327455
-0.325497
-0.323579
-0.321801
-0.320197
-0.31877
-0.317498
-0.316342
-0.315254
-0.314181
-0.313066
-0.311852
-0.310488
-0.308926
-0.307133
-0.305086
-0.302777
-0.300212
-0.333209
-0.332137
-0.330509
-0.32846
-0.326323
-0.324235
-0.322299
-0.320553
-0.318995
-0.3176
-0.316325
-0.315112
-0.313903
-0.312632
-0.311238
-0.309667
-0.307873
-0.305828
-0.303514
-0.300935
-0.298105
-0.295051
-0.334795
-0.333542
-0.331758
-0.329514
-0.327195
-0.324931
-0.322835
-0.320943
-0.319251
-0.317728
-0.316322
-0.314972
-0.313608
-0.312159
-0.310561
-0.308758
-0.306709
-0.30439
-0.301797
-0.298941
-0.295848
-0.292554
-0.336466
-0.335016
-0.333069
-0.330623
-0.328117
-0.325674
-0.323416
-0.321374
-0.319542
-0.317883
-0.316338
-0.314834
-0.313294
-0.311644
-0.309815
-0.307754
-0.305427
-0.302819
-0.299937
-0.296804
-0.293455
-0.289933
-0.286283
-0.338234
-0.336566
-0.334448
-0.331791
-0.329093
-0.326467
-0.324043
-0.321847
-0.31987
-0.318066
-0.316366
-0.314689
-0.312952
-0.311074
-0.308988
-0.306646
-0.304022
-0.301114
-0.29794
-0.294534
-0.29094
-0.287205
-0.283378
-0.340116
-0.338201
-0.335899
-0.33302
-0.330122
-0.327308
-0.324713
-0.322359
-0.320229
-0.318268
-0.316398
-0.314529
-0.312569
-0.310437
-0.308069
-0.305425
-0.30249
-0.299276
-0.295812
-0.292142
-0.288317
-0.284387
-0.2804
-0.276395
-0.34209
-0.339918
-0.337431
-0.334325
-0.331226
-0.328223
-0.325455
-0.322938
-0.320647
-0.318515
-0.316456
-0.314369
-0.312159
-0.309745
-0.307069
-0.304102
-0.300844
-0.297319
-0.29357
-0.289647
-0.285605
-0.281497
-0.277366
-0.273249
-0.344174
-0.341725
-0.339048
-0.335709
-0.332406
-0.32921
-0.326265
-0.323578
-0.321114
-0.318796
-0.316525
-0.314193
-0.311704
-0.30898
-0.305973
-0.302668
-0.29908
-0.295247
-0.29122
-0.287058
-0.282816
-0.278545
-0.274286
-0.270071
-0.265923
-0.346379
-0.343631
-0.340756
-0.337176
-0.333665
-0.330272
-0.327145
-0.324279
-0.321629
-0.319105
-0.316597
-0.313993
-0.311196
-0.308135
-0.304778
-0.301124
-0.297204
-0.293068
-0.288776
-0.284389
-0.279963
-0.275544
-0.27117
-0.266868
-0.262654
-0.25854
-0.348713
-0.34564
-0.342561
-0.338732
-0.335008
-0.331414
-0.328098
-0.325044
-0.322192
-0.31944
-0.316669
-0.313761
-0.310626
-0.307206
-0.303481
-0.299472
-0.295222
-0.290792
-0.286247
-0.281651
-0.277055
-0.272503
-0.268025
-0.263644
-0.259372
-0.255215
-0.351181
-0.347758
-0.344468
-0.340381
-0.33644
-0.33264
-0.329129
-0.325873
-0.322801
-0.319796
-0.316731
-0.31349
-0.309989
-0.306187
-0.302084
-0.297715
-0.29314
-0.288427
-0.283645
-0.278854
-0.274103
-0.269428
-0.264857
-0.260404
-0.256078
-0.251882
-0.247818
-0.353791
-0.34999
-0.346482
-0.342131
-0.337968
-0.333956
-0.33024
-0.326768
-0.323454
-0.320167
-0.316776
-0.313169
-0.309277
-0.305075
-0.300585
-0.295859
-0.290968
-0.285985
-0.280978
-0.276006
-0.271112
-0.266326
-0.261667
-0.257148
-0.252772
-0.248541
-0.24445
-0.240497
-0.356546
-0.352342
-0.34861
-0.343985
-0.339596
-0.335365
-0.331433
-0.327727
-0.324145
-0.320546
-0.316796
-0.312793
-0.308484
-0.303869
-0.298988
-0.293909
-0.288712
-0.283472
-0.278255
-0.273115
-0.268088
-0.263198
-0.258459
-0.253878
-0.249456
-0.245189
-0.241074
-0.237105
-0.233275
-0.359453
-0.354817
-0.350856
-0.345949
-0.341329
-0.336871
-0.332708
-0.328748
-0.324869
-0.320924
-0.31678
-0.312351
-0.307606
-0.302567
-0.297295
-0.291871
-0.286379
-0.280895
-0.275482
-0.270185
-0.265034
-0.260047
-0.255233
-0.250594
-0.246127
-0.241827
-0.237688
-0.233703
-0.229865
-0.226166
-0.362516
-0.357421
-0.353224
-0.348028
-0.343171
-0.338475
-0.334066
-0.329826
-0.325619
-0.321291
-0.31672
-0.311838
-0.306639
-0.30117
-0.29551
-0.28975
-0.283976
-0.278262
-0.272664
-0.26722
-0.261953
-0.256875
-0.251989
-0.247294
-0.242784
-0.238452
-0.23429
-0.23029
-0.226444
-0.222743
-0.36574
-0.360158
-0.35572
-0.350226
-0.345125
-0.34018
-0.335504
-0.330956
-0.326385
-0.321638
-0.316605
-0.311245
-0.30558
-0.299679
-0.293637
-0.287552
-0.281509
-0.275577
-0.269804
-0.264221
-0.258844
-0.253679
-0.248725
-0.243976
-0.239425
-0.235062
-0.230878
-0.226864
-0.22301
-0.219308
-0.21575
-0.369126
-0.363031
-0.358347
-0.352547
-0.347194
-0.341985
-0.33702
-0.332132
-0.327159
-0.321953
-0.316428
-0.310569
-0.304427
-0.298095
-0.291679
-0.28528
-0.278981
-0.272842
-0.266904
-0.26119
-0.255709
-0.250461
-0.245441
-0.24064
-0.236048
-0.231655
-0.22745
-0.223421
-0.21956
-0.215858
-0.212305
-0.208894
-0.372679
-0.366043
-0.36111
-0.354996
-0.349381
-0.34389
-0.338609
-0.333344
-0.327928
-0.322226
-0.316178
-0.309802
-0.303179
-0.29642
-0.28964
-0.28294
-0.276396
-0.270061
-0.263966
-0.258127
-0.252546
-0.247218
-0.242134
-0.237283
-0.232652
-0.228229
-0.224003
-0.219961
-0.216094
-0.212391
-0.208844
-0.205443
-0.202182
-0.376399
-0.369198
-0.364012
-0.357574
-0.351686
-0.345894
-0.340265
-0.334583
-0.328682
-0.322446
-0.315847
-0.308941
-0.301835
-0.294656
-0.287523
-0.280533
-0.273756
-0.267234
-0.26099
-0.255031
-0.249353
-0.243948
-0.238802
-0.233902
-0.229233
-0.224782
-0.220536
-0.216482
-0.212608
-0.208906
-0.205364
-0.201975
-0.19873
-0.195622
-0.192642
-0.380288
-0.372497
-0.367055
-0.360284
-0.35411
-0.347991
-0.341979
-0.335837
-0.329407
-0.3226
-0.315428
-0.307982
-0.300395
-0.292804
-0.285329
-0.278062
-0.271062
-0.264361
-0.257974
-0.2519
-0.246129
-0.240649
-0.235443
-0.230495
-0.22579
-0.221311
-0.217046
-0.21298
-0.209102
-0.2054
-0.201865
-0.198487
-0.195258
-0.19217
-0.189216
-0.186394
-0.384346
-0.375942
-0.370241
-0.363128
-0.35665
-0.350177
-0.343741
-0.337093
-0.33009
-0.322679
-0.314914
-0.306923
-0.298858
-0.290865
-0.283061
-0.275528
-0.268314
-0.261443
-0.254918
-0.248732
-0.242872
-0.237318
-0.232054
-0.22706
-0.222319
-0.217815
-0.213531
-0.209454
-0.205572
-0.201872
-0.198344
-0.194977
-0.191765
-0.188698
-0.185769
-0.182975
-0.1803
-0.388571
-0.379534
-0.373572
-0.366104
-0.359305
-0.352444
-0.345541
-0.338338
-0.330717
-0.322671
-0.314299
-0.30576
-0.297224
-0.28884
-0.280719
-0.27293
-0.265512
-0.258476
-0.251819
-0.245526
-0.239578
-0.233954
-0.228633
-0.223595
-0.21882
-0.21429
-0.209989
-0.205903
-0.202017
-0.198319
-0.194799
-0.191445
-0.188249
-0.185203
-0.182298
-0.179533
-0.176891
-0.174394
-0.392961
-0.383271
-0.377046
-0.369212
-0.362069
-0.354783
-0.347364
-0.339556
-0.331276
-0.322567
-0.313576
-0.30449
-0.295493
-0.28673
-0.278303
-0.270269
-0.262654
-0.25546
-0.248675
-0.242277
-0.236245
-0.230553
-0.225177
-0.220096
-0.215288
-0.210735
-0.206419
-0.202324
-0.198435
-0.194741
-0.191228
-0.187887
-0.184709
-0.181683
-0.178804
-0.176066
-0.173456
-0.170992
-0.168609
-0.166462
-0.397513
-0.387154
-0.380664
-0.372449
-0.364935
-0.357182
-0.349196
-0.34073
-0.331751
-0.322358
-0.312741
-0.303113
-0.293664
-0.284534
-0.275812
-0.267543
-0.259739
-0.252392
-0.245483
-0.238985
-0.23287
-0.227112
-0.221684
-0.216562
-0.211723
-0.207148
-0.202817
-0.198715
-0.194825
-0.191135
-0.187631
-0.184304
-0.181142
-0.178139
-0.175284
-0.172573
-0.169995
-0.167563
-0.165218
-0.163107
-0.402222
-0.39118
-0.384423
-0.375811
-0.367896
-0.359629
-0.351019
-0.341846
-0.332131
-0.322035
-0.311788
-0.301625
-0.291736
-0.282251
-0.273246
-0.26475
-0.256763
-0.249269
-0.24224
-0.235644
-0.229451
-0.223629
-0.218151
-0.21299
-0.208122
-0.203526
-0.199183
-0.195074
-0.191184
-0.187499
-0.184006
-0.180692
-0.177549
-0.174567
-0.171736
-0.169053
-0.166506
-0.164106
-0.161797
-0.159721
-0.407081
-0.395344
-0.388317
-0.37929
-0.370939
-0.362107
-0.352817
-0.342885
-0.332402
-0.321588
-0.310713
-0.300024
-0.289707
-0.27988
-0.270601
-0.261887
-0.253725
-0.246088
-0.238943
-0.232253
-0.225984
-0.220102
-0.214575
-0.209377
-0.204483
-0.199868
-0.195514
-0.1914
-0.187512
-0.183833
-0.18035
-0.177052
-0.173927
-0.170966
-0.168161
-0.165505
-0.162988
-0.160619
-0.158346
-0.156303
-0.412082
-0.399641
-0.392342
-0.382878
-0.374051
-0.364598
-0.354568
-0.343831
-0.332552
-0.321012
-0.309511
-0.298307
-0.287575
-0.277418
-0.267876
-0.258951
-0.25062
-0.242846
-0.235589
-0.228809
-0.222467
-0.216526
-0.210955
-0.205722
-0.200803
-0.196172
-0.191808
-0.187692
-0.183806
-0.180135
-0.176664
-0.173381
-0.170275
-0.167337
-0.164556
-0.161927
-0.15944
-0.157101
-0.154864
-0.152854
-0.417216
-0.404065
-0.396489
-0.386565
-0.377217
-0.367084
-0.356254
-0.344668
-0.332569
-0.320297
-0.308179
-0.296471
-0.285338
-0.274862
-0.265067
-0.25594
-0.247445
-0.239539
-0.232175
-0.225308
-0.218896
-0.2129
-0.207286
-0.202022
-0.19708
-0.192435
-0.188064
-0.183947
-0.180065
-0.176403
-0.172945
-0.169679
-0.166593
-0.163677
-0.160922
-0.15832
-0.155862
-0.153553
-0.151351
-0.149371
-0.42247
-0.408607
-0.400749
-0.390337
-0.380419
-0.369542
-0.357854
-0.345378
-0.332442
-0.319437
-0.306711
-0.294514
-0.282992
-0.272209
-0.262171
-0.252849
-0.244196
-0.236163
-0.228696
-0.221747
-0.215269
-0.209221
-0.203568
-0.198275
-0.193314
-0.188657
-0.18428
-0.180164
-0.176288
-0.172636
-0.169193
-0.165944
-0.162879
-0.159986
-0.157256
-0.154681
-0.152253
-0.149973
-0.147805
-0.145854
-0.427833
-0.413257
-0.405109
-0.394177
-0.383635
-0.37195
-0.359347
-0.345946
-0.332159
-0.318425
-0.305102
-0.29243
-0.280534
-0.269457
-0.259184
-0.249674
-0.240871
-0.232716
-0.225151
-0.218122
-0.211582
-0.205487
-0.199798
-0.194479
-0.189501
-0.184834
-0.180455
-0.176342
-0.172474
-0.168834
-0.165406
-0.162176
-0.159132
-0.156263
-0.153559
-0.151011
-0.148612
-0.146361
-0.144226
-0.142304
-0.433287
-0.418001
-0.409556
-0.398069
-0.386844
-0.374283
-0.360712
-0.346356
-0.331711
-0.317255
-0.303349
-0.290217
-0.277961
-0.266599
-0.256102
-0.246412
-0.237464
-0.229193
-0.221534
-0.214432
-0.207834
-0.201695
-0.195973
-0.190632
-0.185639
-0.180966
-0.176587
-0.172479
-0.168621
-0.164994
-0.161584
-0.158374
-0.155352
-0.152508
-0.14983
-0.147309
-0.14494
-0.142717
-0.140615
-0.138721
-0.438815
-0.422827
-0.414071
-0.401992
-0.39002
-0.376517
-0.361928
-0.346592
-0.331086
-0.315918
-0.301446
-0.28787
-0.275267
-0.263633
-0.25292
-0.243058
-0.233973
-0.225591
-0.217844
-0.210673
-0.204022
-0.197842
-0.192092
-0.186732
-0.181728
-0.177052
-0.172675
-0.168574
-0.164728
-0.161117
-0.157725
-0.154537
-0.151539
-0.148719
-0.146068
-0.143576
-0.141235
-0.139041
-0.136971
-0.135103
-0.444398
-0.427715
-0.418636
-0.405921
-0.393136
-0.378626
-0.362974
-0.346641
-0.330276
-0.31441
-0.299388
-0.285384
-0.272448
-0.260554
-0.249635
-0.239609
-0.230392
-0.221906
-0.214077
-0.206842
-0.200142
-0.193927
-0.188152
-0.182776
-0.177766
-0.173089
-0.168717
-0.164627
-0.160794
-0.157201
-0.15383
-0.150664
-0.147691
-0.144897
-0.142273
-0.139809
-0.137498
-0.135332
-0.133295
-0.131452
-0.450014
-0.432649
-0.423229
-0.409831
-0.396164
-0.380583
-0.36383
-0.346487
-0.329271
-0.312722
-0.297169
-0.282754
-0.2695
-0.257357
-0.246241
-0.236059
-0.226719
-0.218135
-0.21023
-0.202936
-0.196192
-0.189947
-0.184151
-0.178765
-0.173751
-0.169077
-0.164713
-0.160635
-0.156819
-0.153246
-0.149897
-0.146755
-0.143808
-0.141042
-0.138446
-0.136011
-0.133729
-0.131592
-0.129586
-0.127768
-0.455637
-0.437606
-0.427826
-0.413695
-0.399075
-0.382364
-0.364476
-0.346118
-0.328061
-0.310849
-0.294783
-0.279975
-0.266418
-0.254037
-0.242735
-0.232406
-0.222949
-0.214274
-0.206299
-0.198953
-0.192171
-0.185899
-0.180088
-0.174695
-0.169681
-0.165013
-0.160661
-0.156599
-0.152802
-0.149251
-0.145925
-0.14281
-0.13989
-0.137152
-0.134586
-0.13218
-0.129927
-0.127819
-0.125844
-0.124051
-0.461243
-0.442563
-0.432399
-0.417481
-0.401837
-0.38394
-0.364893
-0.34552
-0.326638
-0.308783
-0.292226
-0.277042
-0.263195
-0.25059
-0.239111
-0.228644
-0.219079
-0.210321
-0.202283
-0.19489
-0.188076
-0.181783
-0.175961
-0.170565
-0.165556
-0.160898
-0.156561
-0.152517
-0.148742
-0.145215
-0.141916
-0.138828
-0.135937
-0.133229
-0.130692
-0.128317
-0.126094
-0.124015
-0.122072
-0.120301
-0.466801
-0.447494
-0.43692
-0.421157
-0.404418
-0.385287
-0.365062
-0.344681
-0.324993
-0.306518
-0.28949
-0.273949
-0.259827
-0.24701
-0.235366
-0.22477
-0.215106
-0.206272
-0.198177
-0.190744
-0.183904
-0.177596
-0.171769
-0.166375
-0.161374
-0.15673
-0.152411
-0.148389
-0.144638
-0.141138
-0.137867
-0.13481
-0.131949
-0.129272
-0.126766
-0.124422
-0.12223
-0.12018
-0.118268
-0.116521
-0.472282
-0.452371
-0.441357
-0.424691
-0.406789
-0.386381
-0.364966
-0.343588
-0.323117
-0.304047
-0.28657
-0.270689
-0.256309
-0.243292
-0.231494
-0.220779
-0.211025
-0.202123
-0.19398
-0.186514
-0.179654
-0.173337
-0.167509
-0.162122
-0.157134
-0.152508
-0.148211
-0.144213
-0.140491
-0.13702
-0.13378
-0.130754
-0.127926
-0.125281
-0.122808
-0.120496
-0.118335
-0.116315
-0.114434
-0.11271
-0.477653
-0.457163
-0.445676
-0.428045
-0.408915
-0.387195
-0.364588
-0.342231
-0.321002
-0.301362
-0.283459
-0.267259
-0.252636
-0.239433
-0.227492
-0.216669
-0.206834
-0.197873
-0.189689
-0.182198
-0.175324
-0.169004
-0.163181
-0.157806
-0.152835
-0.148231
-0.14396
-0.139991
-0.136299
-0.13286
-0.129654
-0.126662
-0.123868
-0.121257
-0.118818
-0.116538
-0.11441
-0.112421
-0.110571
-0.108869
-0.482879
-0.46184
-0.449842
-0.431184
-0.410766
-0.387707
-0.363912
-0.340598
-0.318639
-0.298457
-0.280152
-0.263651
-0.248801
-0.235426
-0.223356
-0.212435
-0.202528
-0.193518
-0.185302
-0.177792
-0.170912
-0.164595
-0.158783
-0.153425
-0.148477
-0.143899
-0.139658
-0.135721
-0.132063
-0.128659
-0.125489
-0.122533
-0.119775
-0.1172
-0.114796
-0.112551
-0.110455
-0.108498
-0.10668
-0.105
-0.487923
-0.466365
-0.453817
-0.434071
-0.412311
-0.387894
-0.362922
-0.338677
-0.316021
-0.295324
-0.276642
-0.259861
-0.244801
-0.231269
-0.219081
-0.208074
-0.198107
-0.189056
-0.180816
-0.173296
-0.166417
-0.160109
-0.154314
-0.148979
-0.144059
-0.139512
-0.135304
-0.131403
-0.127783
-0.124417
-0.121285
-0.118368
-0.115648
-0.113111
-0.110744
-0.108534
-0.106472
-0.104548
-0.102761
-0.101104
-0.492748
-0.470705
-0.457563
-0.43667
-0.41352
-0.387735
-0.361603
-0.336459
-0.313138
-0.291957
-0.272922
-0.255882
-0.24063
-0.226955
-0.214663
-0.203583
-0.193565
-0.184484
-0.17623
-0.168707
-0.161836
-0.155546
-0.149774
-0.144468
-0.139579
-0.135069
-0.130899
-0.127038
-0.123458
-0.120133
-0.117043
-0.114167
-0.111488
-0.10899
-0.106661
-0.104488
-0.102462
-0.100571
-0.0988164
-0.0971818
-0.497316
-0.474824
-0.461043
-0.438945
-0.414364
-0.387208
-0.359941
-0.333934
-0.309983
-0.288349
-0.268987
-0.251708
-0.236283
-0.222481
-0.2101
-0.198958
-0.188902
-0.179801
-0.171541
-0.164025
-0.15717
-0.150903
-0.145161
-0.139889
-0.135039
-0.130569
-0.126441
-0.122624
-0.119088
-0.115809
-0.112763
-0.10993
-0.107294
-0.104838
-0.102549
-0.100415
-0.0984246
-0.0965688
-0.094847
-0.0932355
-0.501588
-0.478686
-0.464216
-0.440859
-0.414816
-0.386296
-0.357925
-0.331093
-0.306549
-0.284495
-0.264832
-0.247337
-0.231756
-0.217845
-0.205387
-0.194197
-0.184114
-0.175004
-0.166748
-0.159248
-0.152417
-0.146181
-0.140475
-0.135244
-0.130437
-0.126013
-0.121932
-0.118163
-0.114675
-0.111444
-0.108445
-0.105659
-0.103068
-0.100656
-0.0984091
-0.0963152
-0.0943625
-0.0925428
-0.0908543
-0.0892664
-0.505495
-0.482225
-0.46702
-0.44236
-0.414839
-0.384977
-0.355542
-0.32793
-0.302833
-0.280391
-0.260454
-0.242765
-0.227047
-0.213043
-0.200524
-0.189299
-0.179202
-0.170093
-0.161851
-0.154376
-0.147577
-0.141379
-0.135717
-0.130532
-0.125774
-0.1214
-0.117372
-0.113655
-0.110219
-0.107039
-0.104091
-0.101354
-0.0988107
-0.0964447
-0.094242
-0.0921899
-0.0902765
-0.0884943
-0.0868398
-0.0852762
-0.508937
-0.48535
-0.469377
-0.443392
-0.414398
-0.38323
-0.35278
-0.324435
-0.298828
-0.276031
-0.255848
-0.237988
-0.222154
-0.208072
-0.195509
-0.184262
-0.174163
-0.165066
-0.156849
-0.149407
-0.142649
-0.136498
-0.130885
-0.125753
-0.12105
-0.116732
-0.11276
-0.1091
-0.10572
-0.102595
-0.0997002
-0.0970157
-0.0945229
-0.0922053
-0.0900487
-0.0880403
-0.0861678
-0.0844246
-0.0828048
-0.0812667
-0.512044
-0.488172
-0.471368
-0.444007
-0.41352
-0.381065
-0.349638
-0.320603
-0.294523
-0.271405
-0.251004
-0.232997
-0.217067
-0.202927
-0.190335
-0.179082
-0.168993
-0.159921
-0.151739
-0.14434
-0.137632
-0.131534
-0.125979
-0.120907
-0.116265
-0.112008
-0.108098
-0.104498
-0.101178
-0.0981115
-0.0952742
-0.092645
-0.0902054
-0.0879386
-0.0858305
-0.0838677
-0.0820379
-0.0803351
-0.078751
-0.0772396
-0.514717
-0.490588
-0.472898
-0.444129
-0.412153
-0.378451
-0.346097
-0.316423
-0.289913
-0.266509
-0.245919
-0.22779
-0.211785
-0.197606
-0.185001
-0.173756
-0.163692
-0.154657
-0.146521
-0.139175
-0.132525
-0.12649
-0.120999
-0.115993
-0.111418
-0.107229
-0.103384
-0.09985
-0.0965945
-0.0935904
-0.0908137
-0.0882429
-0.0858593
-0.083646
-0.0815885
-0.0796735
-0.0778882
-0.0762277
-0.0746807
-0.0731958
-0.516891
-0.492539
-0.473916
-0.443722
-0.410275
-0.375372
-0.342149
-0.311887
-0.284992
-0.261339
-0.240589
-0.222363
-0.206305
-0.192106
-0.179506
-0.168285
-0.158259
-0.149272
-0.141194
-0.133911
-0.127329
-0.121364
-0.115946
-0.111013
-0.106511
-0.102394
-0.0986214
-0.0951572
-0.0919701
-0.0890324
-0.0863196
-0.0838105
-0.0814858
-0.0793286
-0.0773243
-0.075459
-0.0737203
-0.0721045
-0.0705967
-0.0691357
-0.518528
-0.493987
-0.474388
-0.442759
-0.407868
-0.371819
-0.337786
-0.30699
-0.279755
-0.255888
-0.23501
-0.216713
-0.200625
-0.186426
-0.173848
-0.162666
-0.152692
-0.143767
-0.135758
-0.128549
-0.122044
-0.116158
-0.11082
-0.105966
-0.101544
-0.0975053
-0.0938094
-0.0904201
-0.0873058
-0.0844384
-0.0817932
-0.0793489
-0.0770862
-0.0749879
-0.0730392
-0.0712258
-0.0695357
-0.067967
-0.0664999
-0.0650637
-0.51959
-0.494898
-0.474278
-0.441214
-0.404915
-0.36778
-0.333
-0.301726
-0.274196
-0.250155
-0.229179
-0.210838
-0.194742
-0.180563
-0.168026
-0.156899
-0.146992
-0.138142
-0.130213
-0.123088
-0.116669
-0.110871
-0.10562
-0.100854
-0.0965175
-0.0925632
-0.0889494
-0.0856397
-0.0826025
-0.0798094
-0.0772359
-0.0748597
-0.0726618
-0.0706253
-0.0687348
-0.0669757
-0.0653368
-0.063817
-0.0623883
-0.0609849
-0.520041
-0.495232
-0.473555
-0.439065
-0.401402
-0.363246
-0.327785
-0.29609
-0.268313
-0.244134
-0.223093
-0.204734
-0.188655
-0.174517
-0.162039
-0.150984
-0.141158
-0.132396
-0.124559
-0.11753
-0.111207
-0.105505
-0.100349
-0.0956772
-0.0914329
-0.0875686
-0.0840423
-0.0808174
-0.0778616
-0.0751464
-0.0726492
-0.0703442
-0.0682143
-0.0662422
-0.0644125
-0.0627102
-0.061125
-0.0596555
-0.0582669
-0.0568986
-0.519846
-0.494953
-0.472187
-0.436289
-0.397315
-0.35821
-0.322136
-0.290078
-0.262101
-0.237824
-0.21675
-0.198401
-0.182363
-0.168287
-0.155886
-0.144921
-0.135191
-0.12653
-0.118798
-0.111873
-0.105656
-0.100059
-0.0950073
-0.0904365
-0.0862913
-0.0825229
-0.0790892
-0.0759546
-0.0730846
-0.0704522
-0.0680332
-0.0658037
-0.0637451
-0.0618403
-0.060074
-0.058431
-0.0569017
-0.0554846
-0.0541382
-0.0528064
-0.518969
-0.494028
-0.470144
-0.432868
-0.392644
-0.352665
-0.316048
-0.283687
-0.255557
-0.231222
-0.210148
-0.191838
-0.175865
-0.161873
-0.149569
-0.138709
-0.129091
-0.120545
-0.112929
-0.106121
-0.100019
-0.0945359
-0.0895956
-0.0851332
-0.0810942
-0.0774275
-0.0740923
-0.0710518
-0.0682727
-0.0657271
-0.0633904
-0.0612396
-0.0592556
-0.0574212
-0.055721
-0.0541399
-0.0526689
-0.0513064
-0.0500041
-0.0487103
-0.517379
-0.492422
-0.467402
-0.428784
-0.387379
-0.346606
-0.309519
-0.276915
-0.248681
-0.224327
-0.203286
-0.185043
-0.169161
-0.155275
-0.143087
-0.13235
-0.122858
-0.114441
-0.106953
-0.100273
-0.0942967
-0.0889362
-0.0841158
-0.0797694
-0.0758421
-0.0722836
-0.0690523
-0.0661112
-0.0634274
-0.0609728
-0.0587223
-0.0566537
-0.0547475
-0.0529866
-0.0513553
-0.0498386
-0.0484285
-0.0471229
-0.0458664
-0.0446125
-0.515046
-0.490106
-0.463936
-0.424025
-0.381513
-0.340029
-0.302546
-0.269759
-0.241471
-0.217137
-0.196164
-0.178018
-0.16225
-0.148492
-0.13644
-0.125844
-0.116494
-0.108219
-0.100872
-0.0943311
-0.0884906
-0.0832617
-0.0785689
-0.074346
-0.0705372
-0.0670929
-0.0639709
-0.0611343
-0.0585504
-0.0561908
-0.0540307
-0.0520478
-0.0502226
-0.0485382
-0.0469786
-0.045529
-0.0441823
-0.0429359
-0.0417269
-0.0405152
-0.511942
-0.487052
-0.459726
-0.418577
-0.375041
-0.332932
-0.295128
-0.262219
-0.233925
-0.209653
-0.188782
-0.170761
-0.155135
-0.141527
-0.129631
-0.119192
-0.110001
-0.101882
-0.0946889
-0.0882971
-0.0826019
-0.0775139
-0.0729568
-0.0688646
-0.0651811
-0.061857
-0.0588499
-0.0561228
-0.0536433
-0.0513831
-0.0493172
-0.0474235
-0.0456827
-0.0440778
-0.0425929
-0.041213
-0.0399323
-0.0387474
-0.0375877
-0.0364206
-0.508043
-0.483233
-0.454755
-0.412432
-0.36796
-0.325314
-0.287264
-0.254295
-0.226045
-0.201876
-0.18114
-0.163276
-0.147816
-0.134381
-0.12266
-0.112396
-0.10338
-0.095431
-0.0884035
-0.0821726
-0.0766329
-0.0716947
-0.0672814
-0.0633273
-0.0597758
-0.0565779
-0.0536912
-0.0510787
-0.0487082
-0.0465514
-0.0445836
-0.0427828
-0.0411296
-0.0396073
-0.0381999
-0.0368925
-0.0356805
-0.0345594
-0.0334508
-0.0323307
-0.503327
-0.478627
-0.449008
-0.405584
-0.360266
-0.317174
-0.278956
-0.245987
-0.217832
-0.193806
-0.173241
-0.155562
-0.140294
-0.127056
-0.115531
-0.105461
-0.0966331
-0.0888681
-0.0820188
-0.0759598
-0.0705856
-0.0658061
-0.0615448
-0.0577361
-0.0543232
-0.0512575
-0.0484966
-0.0460038
-0.0437468
-0.0416978
-0.0398319
-0.0381275
-0.0365653
-0.0351287
-0.0338015
-0.0325694
-0.0314288
-0.0303737
-0.0293181
-0.0282478
-0.497773
-0.473214
-0.442474
-0.398027
-0.351961
-0.308516
-0.270205
-0.237299
-0.209287
-0.185446
-0.165086
-0.147621
-0.132571
-0.119557
-0.108245
-0.0983859
-0.0897625
-0.0821957
-0.075537
-0.0696612
-0.0644623
-0.0598505
-0.0557493
-0.0520931
-0.0488256
-0.045898
-0.0432684
-0.0409002
-0.0387614
-0.0368242
-0.0350641
-0.0334596
-0.0319918
-0.0306439
-0.0293999
-0.0282457
-0.0271791
-0.0261925
-0.0251916
-0.024174
-0.491366
-0.466978
-0.435144
-0.389761
-0.343047
-0.299341
-0.261014
-0.228232
-0.200413
-0.176798
-0.156678
-0.139459
-0.124657
-0.111881
-0.100806
-0.0911747
-0.0827715
-0.0754166
-0.068961
-0.0632793
-0.0582656
-0.0538304
-0.0498973
-0.0464009
-0.0432852
-0.0405017
-0.0380088
-0.0357701
-0.0337539
-0.0319327
-0.0302823
-0.0287812
-0.027411
-0.0261549
-0.0249969
-0.0239234
-0.0229336
-0.0220175
-0.0210735
-0.0201112
-0.484092
-0.459905
-0.427013
-0.380786
-0.333527
-0.289654
-0.251388
-0.218792
-0.191214
-0.167865
-0.148021
-0.131079
-0.116547
-0.104034
-0.0932156
-0.0838306
-0.0756633
-0.068534
-0.0622937
-0.056817
-0.0519984
-0.0477486
-0.0439914
-0.040662
-0.0377045
-0.035071
-0.0327201
-0.0306158
-0.0287267
-0.0270256
-0.0254886
-0.0240945
-0.022825
-0.0216638
-0.0205947
-0.0196046
-0.0186941
-0.0178509
-0.0169657
-0.0160616
-0.475941
-0.451984
-0.418079
-0.371106
-0.323406
-0.279461
-0.241332
-0.208981
-0.181693
-0.158653
-0.139121
-0.122483
-0.108249
-0.0960217
-0.0854787
-0.0763572
-0.0684412
-0.0615513
-0.0555383
-0.0502775
-0.0456637
-0.0416079
-0.0380345
-0.034879
-0.0320862
-0.0296085
-0.0274048
-0.0254397
-0.0236821
-0.0221051
-0.0206852
-0.0194015
-0.0182361
-0.0171726
-0.0161952
-0.0152913
-0.0144627
-0.0136946
-0.0128703
-0.0120273
-0.466906
-0.44321
-0.408344
-0.360725
-0.312692
-0.268769
-0.230851
-0.198803
-0.171859
-0.149169
-0.12998
-0.113677
-0.0997651
-0.0878471
-0.0775992
-0.0687586
-0.0611091
-0.054472
-0.0486984
-0.0436642
-0.0392646
-0.0354114
-0.0320294
-0.0290549
-0.026433
-0.0241167
-0.0220655
-0.0202442
-0.0186225
-0.0171736
-0.0158744
-0.0147046
-0.0136463
-0.0126836
-0.0118006
-0.0109855
-0.0102415
-0.00955062
-0.00878921
-0.00801025
-0.456983
-0.433577
-0.39781
-0.349651
-0.301394
-0.257585
-0.219952
-0.188263
-0.161724
-0.139415
-0.120604
-0.104665
-0.091102
-0.0795153
-0.0695819
-0.0610391
-0.0536713
-0.0473002
-0.0417778
-0.0369806
-0.0328047
-0.0291624
-0.0259795
-0.0231927
-0.0207478
-0.0185985
-0.0167048
-0.0150321
-0.0135504
-0.0122335
-0.0110587
-0.010006
-0.00905795
-0.00819891
-0.00741307
-0.00668949
-0.00603247
-0.00542095
-0.0047245
-0.00401248