/*--------------------------------*- C++ -*----------------------------------*\
  =========                 |
  \\      /  F ield         | OpenFOAM: The Open Source CFD Toolbox
   \\    /   O peration     | Website:  https://openfoam.org
    \\  /    A nd           | Version:  7
     \\/     M anipulation  |
\*---------------------------------------------------------------------------*/
FoamFile
{
    version     2.0;
    format      ascii;
    class       surfaceScalarField;
    location    "20";
    object      phi;
}
// * * * * * * * * * * * * * * * * * * * * * * * * * * * * * * * * * * * * * //

dimensions      [0 3 -1 0 0 0 0];

internalField   nonuniform List<scalar> 
47900
(
-4.55073e-06
4.54985e-06
8.8367e-10
-1.52167e-05
1.0664e-05
1.94067e-09
-3.02656e-05
1.50464e-05
2.54557e-09
-4.84202e-05
1.81517e-05
2.83918e-09
-6.88071e-05
2.0384e-05
2.93472e-09
-9.082e-05
2.201e-05
2.90929e-09
-0.000114053
2.32297e-05
2.81279e-09
-0.000138239
2.41838e-05
2.6726e-09
-0.000163212
2.49707e-05
2.49996e-09
-0.000188872
2.56574e-05
2.29552e-09
-0.000215162
2.6288e-05
2.05377e-09
-0.000242054
2.68906e-05
1.76613e-09
-0.000269538
2.74825e-05
1.42286e-09
2.80737e-05
1.01384e-09
-4.52756e-06
9.07741e-06
-1.51449e-05
2.12814e-05
-3.01269e-05
3.00283e-05
-4.81994e-05
3.62242e-05
-6.84902e-05
4.06748e-05
-9.03922e-05
4.3912e-05
-0.000113498
4.63353e-05
-0.000137539
4.82252e-05
-0.000162347
4.97784e-05
-0.000187818
5.11283e-05
-0.000213893
5.23631e-05
-0.000240541
5.35386e-05
-0.000267747
5.46891e-05
5.58345e-05
-4.48292e-06
1.35603e-05
-1.50046e-05
3.1803e-05
-2.98536e-05
4.48774e-05
-4.77631e-05
5.41337e-05
-6.78624e-05
6.07741e-05
-8.95434e-05
6.5593e-05
-0.000112396
6.91876e-05
-0.000136148
7.19771e-05
-0.000160625
7.42556e-05
-0.000185719
7.62226e-05
-0.000211365
7.80092e-05
-0.000237526
7.9699e-05
-0.000264179
8.13427e-05
8.29693e-05
-4.41728e-06
1.79776e-05
-1.47971e-05
4.21829e-05
-2.94486e-05
5.95289e-05
-4.71153e-05
7.18003e-05
-6.6929e-05
8.05877e-05
-8.82802e-05
8.69442e-05
-0.000110754
9.16617e-05
-0.000134074
9.52966e-05
-0.000158058
9.82393e-05
-0.000182589
0.000100754
-0.000207595
0.000103015
-0.000233027
0.000105131
-0.000258855
0.000107171
0.00010917
-4.33143e-06
2.2309e-05
-1.45247e-05
5.23761e-05
-2.89158e-05
7.392e-05
-4.62616e-05
8.91462e-05
-6.56974e-05
0.000100024
-8.66118e-05
0.000107859
-0.000108585
0.000113635
-0.000131331
0.000118043
-0.000154661
0.000121569
-0.000178446
0.00012454
-0.000202602
0.000127171
-0.00022707
0.000129599
-0.000251804
0.000131905
0.000134132
-4.22636e-06
2.65354e-05
-1.41903e-05
6.23401e-05
-2.82601e-05
8.79898e-05
-4.52094e-05
0.000106095
-6.41775e-05
0.000118992
-8.45506e-05
0.000128232
-0.000105902
0.000134986
-0.000127938
0.000140079
-0.000150455
0.000144086
-0.000173315
0.000147399
-0.000196417
0.000150274
-0.000219688
0.00015287
-0.000243065
0.000155282
-0.000266494
0.000157561
0.000159728
-4.10331e-06
3.06387e-05
-1.37974e-05
7.20341e-05
-2.7488e-05
0.00010168
-4.39681e-05
0.000122576
-6.23815e-05
0.000137405
-8.21118e-05
0.000147962
-0.000102725
0.000155599
-0.000123914
0.000161268
-0.000145466
0.000165638
-0.000167225
0.000169158
-0.000189074
0.000172123
-0.000210921
0.000174717
-0.000232686
0.000177046
-0.000254291
0.000179166
0.000181098
-3.96372e-06
3.46024e-05
-1.33501e-05
8.14205e-05
-2.66068e-05
0.000114937
-4.25482e-05
0.000138517
-6.03234e-05
0.00015518
-7.93129e-05
0.000166951
-9.90735e-05
0.00017536
-0.000119287
0.000181482
-0.000139723
0.000186074
-0.00016021
0.000189644
-0.000180612
0.000192525
-0.000200815
0.000194921
-0.000220718
0.000196949
-0.00024022
0.000198669
0.000200097
-3.80925e-06
3.84117e-05
-1.28532e-05
9.04644e-05
-2.56248e-05
0.000127709
-4.0962e-05
0.000153854
-5.80195e-05
0.000172238
-7.61742e-05
0.000185106
-9.49731e-05
0.000194159
-0.000114084
0.000200593
-0.00013326
0.000205249
-0.000152308
0.000208693
-0.000171074
0.000211291
-0.000189421
0.000213267
-0.000207221
0.000214749
-0.000224347
0.000215795
0.000216421
-3.6417e-06
4.20534e-05
-1.23117e-05
9.91344e-05
-2.45512e-05
0.000139948
-3.92229e-05
0.000168526
-5.54873e-05
0.000188502
-7.27174e-05
0.000202336
-9.04496e-05
0.000211891
-0.000108336
0.00021848
-0.000126111
0.000223024
-0.000143562
0.000226144
-0.00016051
0.000228238
-0.000176792
0.00022955
-0.000192254
0.000230212
-0.000206742
0.000230283
0.000229773
-3.46302e-06
4.55164e-05
-1.17313e-05
0.000107403
-2.33959e-05
0.000151613
-3.73453e-05
0.000182475
-5.27459e-05
0.000203903
-6.89665e-05
0.000218557
-8.55315e-05
0.000228456
-0.000102077
0.000235025
-0.000118317
0.000239264
-0.000134015
0.000241842
-0.000148967
0.00024319
-0.000162984
0.000243566
-0.000175881
0.000243109
-0.000187474
0.000241876
0.000239865
-3.27528e-06
4.87917e-05
-1.11178e-05
0.000115245
-2.21694e-05
0.000162664
-3.53445e-05
0.00019565
-4.98155e-05
0.000218374
-6.49463e-05
0.000233688
-8.02487e-05
0.000243758
-9.5341e-05
0.000250117
-0.000109915
0.000253838
-0.000123711
0.000255638
-0.000136496
0.000255975
-0.000148052
0.000255123
-0.000158164
0.000253221
-0.000166611
0.000250322
0.000246417
-3.08061e-06
5.18723e-05
-1.04774e-05
0.000122642
-2.08825e-05
0.00017307
-3.32365e-05
0.000208004
-4.67171e-05
0.000231854
-6.06828e-05
0.000247653
-7.46319e-05
0.000257707
-8.81638e-05
0.000263649
-0.000100947
0.000266622
-0.000112695
0.000267386
-0.000123147
0.000266427
-0.000132051
0.000264027
-0.000139159
0.000260329
-0.000144214
0.000255377
0.00024915
-2.8812e-06
5.47535e-05
-9.8163e-06
0.000129577
-1.95465e-05
0.0001828
-3.10375e-05
0.000219495
-4.3472e-05
0.000244289
-5.62023e-05
0.000260384
-6.87123e-05
0.000270217
-8.05811e-05
0.000275518
-9.14528e-05
0.000277493
-0.000101012
0.000276946
-0.000108966
0.000274381
-0.000115031
0.000270092
-0.00011892
0.000264218
-0.000120338
0.000256795
0.000247785
-2.67926e-06
5.74327e-05
-9.14077e-06
0.000136039
-1.81725e-05
0.000191831
-2.87639e-05
0.000230087
-4.01017e-05
0.000255627
-5.1531e-05
0.000271813
-6.25204e-05
0.000281207
-7.26276e-05
0.000285625
-8.147e-05
0.000286336
-8.87024e-05
0.000284178
-9.39982e-05
0.000279677
-9.70363e-05
0.00027313
-9.74908e-05
0.000264673
-9.50239e-05
0.000254328
0.000242041
-2.47696e-06
5.99097e-05
-8.45704e-06
0.000142019
-1.67715e-05
0.000200146
-2.64318e-05
0.000239747
-3.66271e-05
0.000265822
-4.66945e-05
0.00028188
-5.60861e-05
0.000290598
-6.43363e-05
0.000293875
-7.10346e-05
0.000293034
-7.58032e-05
0.000288946
-7.82792e-05
0.000282153
-7.81018e-05
0.000272953
-7.49025e-05
0.000261473
-6.82975e-05
0.000247723
-5.78825e-05
0.000231626
0.00021305
-2.27643e-06
6.21861e-05
-7.77116e-06
0.000147514
-1.53544e-05
0.000207729
-2.40567e-05
0.000248449
-3.30684e-05
0.000274834
-4.17172e-05
0.000290529
-4.94369e-05
0.000298318
-5.57374e-05
0.000300176
-6.0178e-05
0.000297475
-6.23457e-05
0.000291114
-6.18386e-05
0.000281646
-5.82527e-05
0.000269367
-5.11729e-05
0.000254393
-4.01655e-05
0.000236716
-2.47733e-05
0.000216234
0.000192789
-2.07969e-06
6.42658e-05
-7.08886e-06
0.000152523
-1.39313e-05
0.000214572
-2.16534e-05
0.000256171
-2.94445e-05
0.000282625
-3.66213e-05
0.000297706
-4.25978e-05
0.000304294
-4.68574e-05
0.000304436
-4.89264e-05
0.000299544
-4.83539e-05
0.000290542
-4.46953e-05
0.000277987
-3.74998e-05
0.000262171
-2.63014e-05
0.000243195
-1.06117e-05
0.000221026
1.00845e-05
0.000195538
0.000166541
-1.88863e-06
6.61545e-05
-6.4155e-06
0.00015705
-1.25117e-05
0.000220668
-1.92352e-05
0.000262895
-2.57725e-05
0.000289162
-3.14267e-05
0.00030336
-3.55903e-05
0.000308458
-3.77174e-05
0.000306563
-3.72988e-05
0.000299125
-3.3842e-05
0.000287085
-2.68559e-05
0.000271001
-1.5838e-05
0.000251153
-2.66567e-07
0.000227624
2.04067e-05
0.000200353
4.67599e-05
0.000169185
0.000133896
-1.70497e-06
6.78594e-05
-5.75588e-06
0.0001611
-1.11038e-05
0.000226016
-1.68142e-05
0.000268605
-2.20669e-05
0.000294415
-2.61498e-05
0.000307443
-2.84311e-05
0.000310739
-2.83326e-05
0.000306464
-2.5306e-05
0.000296098
-1.88134e-05
0.000280592
-8.3121e-06
0.0002605
6.75685e-06
0.000236084
2.69768e-05
0.000207404
5.29613e-05
0.000174368
8.53572e-05
0.000136789
9.44074e-05
-1.53024e-06
6.93897e-05
-5.11421e-06
0.000164684
-9.71507e-06
0.000230617
-1.44001e-05
0.00027329
-1.83398e-05
0.000298354
-2.08033e-05
0.000309906
-2.11314e-05
0.000311067
-1.87104e-05
0.000304043
-1.29487e-05
0.000290337
-3.258e-06
0.000270902
1.09612e-05
0.00024628
3.03304e-05
0.000216715
5.55004e-05
0.000182234
8.71559e-05
0.000142713
0.000126017
9.79275e-05
4.75845e-05
-1.3657e-06
7.07554e-05
-4.49393e-06
0.000167813
-8.35113e-06
0.000234474
-1.20007e-05
0.00027694
-1.45995e-05
0.000300953
-1.53948e-05
0.000310702
-1.3696e-05
0.000309369
-8.84976e-06
0.000299197
-2.16185e-07
0.000281703
1.28491e-05
0.000257836
3.10083e-05
0.000228121
5.49518e-05
0.000192772
8.54041e-05
0.000151781
0.000123127
0.00010499
0.000168917
5.21368e-05
0.000223607
-7.1053e-06
-7.30966e-05
-1.21238e-06
7.19677e-05
-3.89764e-06
0.000170498
-7.01618e-06
0.000237592
-9.62094e-06
0.000279545
-1.08508e-05
0.000302183
-9.92651e-06
0.000309777
-6.12222e-06
0.000305564
1.26061e-06
0.000291814
1.29157e-05
0.000270048
2.95495e-05
0.000241203
5.1894e-05
0.000205777
8.07151e-05
0.000163951
0.000116817
0.00011568
0.000161042
6.07653e-05
0.000214268
-1.08886e-06
0.000277398
-7.02358e-05
-0.00014705
-1.07096e-06
7.30387e-05
-3.327e-06
0.000172754
-5.71251e-06
0.000239978
-7.26286e-06
0.000281095
-7.09369e-06
0.000302014
-4.3946e-06
0.000307078
1.60118e-06
0.000299569
1.16429e-05
0.000281772
2.64848e-05
0.000255206
4.69026e-05
0.000220785
7.3705e-05
0.000178974
0.00010774
0.000129916
0.000149896
7.35232e-05
0.0002011
9.56141e-06
0.000262307
-6.22953e-05
0.000334485
-0.000142414
-0.000231165
-9.41817e-07
7.39805e-05
-2.78265e-06
0.000174595
-4.44042e-06
0.000241636
-4.92523e-06
0.00028158
-3.32367e-06
0.000300412
1.21167e-06
0.000302543
9.49445e-06
0.000291286
2.23315e-05
0.000268935
4.05449e-05
0.000236993
6.4987e-05
0.000196343
9.65505e-05
0.000147411
0.000136171
9.02948e-05
0.000184826
2.48683e-05
0.000243524
-4.91363e-05
0.00031329
-0.000132061
0.000395143
-0.000224268
-0.000326089
-8.24984e-07
7.48055e-05
-2.2641e-06
0.000176034
-3.19801e-06
0.00024257
-2.60324e-06
0.000280985
4.6919e-07
0.00029734
6.91028e-06
0.000296102
1.75877e-05
0.000280608
3.33735e-05
0.000253149
5.51652e-05
0.000215201
8.39002e-05
0.000167608
0.000120562
0.000110749
0.000166177
4.4679e-05
0.000221812
-3.07666e-05
0.000288551
-0.000115875
0.000367475
-0.000210985
0.000459628
-0.00031642
0.000565972
-0.000432434
-0.00055916
-7.20113e-07
7.55256e-05
-1.7697e-06
0.000177083
-1.9811e-06
0.000242781
-2.87279e-07
0.000279291
4.30029e-06
0.000292752
1.2727e-05
0.000287675
2.59214e-05
0.000267414
4.4829e-05
0.000234242
7.04316e-05
0.000189598
0.000103759
0.000134281
0.000145889
6.86189e-05
0.000197945
-7.37666e-06
0.000261074
-9.38954e-05
0.000336424
-0.000191225
0.000425106
-0.000299667
0.000528148
-0.000419462
0.00064644
-0.000550726
-0.000693391
-6.26477e-07
7.61521e-05
-1.29655e-06
0.000177754
-7.83257e-07
0.000242268
2.03167e-06
0.000276476
8.19074e-06
0.000286593
1.86957e-05
0.00027717
3.45467e-05
0.000251563
5.67717e-05
0.000212017
8.64454e-05
0.000159925
0.000124696
9.60301e-05
0.000172701
2.06135e-05
0.000231674
-6.63494e-05
0.000302834
-0.000165055
0.000387368
-0.000275759
0.000486381
-0.00039868
0.000600832
-0.000533913
0.000731463
-0.000681358
-0.000840659
-5.42957e-07
7.6695e-05
-8.4049e-07
0.000178051
4.04632e-07
0.000241023
4.37332e-06
0.000272507
1.21677e-05
0.000278799
2.48581e-05
0.00026448
4.35248e-05
0.000232896
6.92878e-05
0.000186254
0.000103322
0.00012589
0.00014686
5.24923e-05
0.000201178
-3.37041e-05
0.000267569
-0.000132741
0.000347306
-0.000244792
0.000441579
-0.000370033
0.000551434
-0.000508535
0.000677689
-0.000660168
0.000820854
-0.000824523
0.00098105
-0.00100085
-0.00118805
-4.6803e-07
7.71631e-05
-3.95657e-07
0.000177979
1.59402e-06
0.000239033
6.75701e-06
0.000267345
1.6264e-05
0.000269292
3.1264e-05
0.00024948
5.29274e-05
0.000211233
8.24752e-05
0.000156706
0.00012119
8.71756e-05
0.000170409
3.27302e-06
0.000231502
-9.47968e-05
0.000305827
-0.000207066
0.000394675
-0.000333639
0.000499192
-0.00047455
0.000620295
-0.000629638
0.000758575
-0.000798448
0.000914207
-0.000980156
0.00108687
-0.00117352
-0.00137687
-3.99868e-07
7.75629e-05
4.83302e-08
0.000177531
2.79864e-06
0.000236283
9.20682e-06
0.000260936
2.05181e-05
0.000257981
3.79705e-05
0.000232027
6.28348e-05
0.000186369
9.64417e-05
0.000123099
0.000140186
4.34318e-05
0.000195507
-5.20485e-05
0.000263855
-0.000163144
0.000346624
-0.000289836
0.00044508
-0.000432095
0.000560259
-0.000589728
0.000692861
-0.000762241
0.000843153
-0.000948739
0.00101086
-0.00114787
0.00119513
-0.00135779
-0.0015762
-3.36636e-07
7.78996e-05
4.81589e-07
0.000176712
4.03389e-06
0.00023273
1.17506e-05
0.00025322
2.49736e-05
0.000244758
4.50414e-05
0.00021196
7.33354e-05
0.000158075
0.000111303
8.51319e-05
0.000160451
-5.71602e-06
0.000222314
-0.000113912
0.0002984
-0.00023923
0.0003901
-0.000381536
0.000498592
-0.000540587
0.000624719
-0.000715855
0.00076887
-0.000906391
0.00093087
-0.00111074
0.0011099
-0.0013269
0.00130447
-0.00155235
0.00151242
-0.00178416
-0.00201907
-2.75495e-07
7.81751e-05
9.31684e-07
0.000175505
5.31851e-06
0.000228343
1.44194e-05
0.000244119
2.96787e-05
0.000229498
5.25463e-05
0.000189092
8.45231e-05
0.000126098
0.000127177
4.24775e-05
0.000182126
-6.06644e-05
0.000250982
-0.000182769
0.000335275
-0.000323523
0.000436341
-0.000482602
0.000555191
-0.000659438
0.000692379
-0.000853043
0.000847869
-0.00106188
0.00102094
-0.00128381
0.00121013
-0.00151609
0.00141327
-0.00175549
0.00162753
-0.00199842
-0.00224116
-2.13887e-07
7.8389e-05
1.40255e-06
0.000173889
6.67229e-06
0.000223074
1.72472e-05
0.000233544
3.46853e-05
0.00021206
6.05587e-05
0.000163219
9.64954e-05
9.01611e-05
0.000144186
-5.21282e-06
0.000205345
-0.000121824
0.00028164
-0.000259063
0.000374575
-0.000416458
0.000485358
-0.000593384
0.000614743
-0.000788823
0.000762884
-0.00100118
0.000929208
-0.00122821
0.00111235
-0.00146695
0.00131014
-0.00171389
0.00151971
-0.00196506
0.00173765
-0.00221635
-0.00246373
-1.4852e-07
7.85375e-05
1.9041e-06
0.000171836
8.11652e-06
0.000216861
2.02702e-05
0.00022139
4.00483e-05
0.000192282
6.91549e-05
0.000134112
0.00010935
4.99657e-05
0.000162443
-5.83054e-05
0.000230229
-0.00018961
0.000314388
-0.000343222
0.000416339
-0.00051841
0.000537076
-0.000714121
0.000676987
-0.000928735
0.000835712
-0.00115991
0.00101204
-0.00140453
0.00120387
-0.00165878
0.00140833
-0.00191834
0.0016219
-0.00217863
0.00184068
-0.00243514
0.0020607
-0.00268375
-0.00292101
-7.39492e-08
7.86114e-05
2.44728e-06
0.000169315
9.67367e-06
0.000209635
2.35262e-05
0.000207538
4.58241e-05
0.000169984
7.84118e-05
0.000101524
0.000123183
5.19411e-06
0.000182055
-0.000117177
0.000256874
-0.000264429
0.000349283
-0.000435631
0.000460537
-0.000629664
0.000591313
-0.000844896
0.00074152
-0.00107894
0.000910168
-0.00132856
0.00109531
-0.00158968
0.00129412
-0.00185759
0.001503
-0.00212723
0.00171793
-0.00239356
0.00193471
-0.00265192
0.00214935
-0.00289838
-0.00312998
1.60741e-08
7.85954e-05
3.04337e-06
0.000166288
1.13669e-05
0.000201311
2.70539e-05
0.000191851
5.20694e-05
0.000144969
8.84043e-05
6.51894e-05
0.000138083
-4.44849e-05
0.000203111
-0.000182204
0.000285347
-0.000346666
0.000386329
-0.000536612
0.000507055
-0.000750391
0.000647771
-0.000985612
0.000807789
-0.00123896
0.000985393
-0.00150616
0.00117786
-0.00178214
0.00138161
-0.00206134
0.00159248
-0.0023381
0.00180608
-0.00260715
0.00201814
-0.00286398
0.00222489
-0.00310513
0.0024233
-0.00332839
-0.00353277
1.10627e-07
7.84847e-05
3.70341e-06
0.000162695
1.32198e-05
0.000191795
3.08918e-05
0.000174179
5.88397e-05
0.000117021
9.92034e-05
2.48257e-05
0.000154129
-9.94104e-05
0.000225681
-0.000253757
0.000315678
-0.000436663
0.000425469
-0.000646403
0.000555688
-0.00088061
0.000706031
-0.00113595
0.000875102
-0.00140803
0.00106039
-0.00169145
0.00125838
-0.00198014
0.00146484
-0.0022678
0.00167518
-0.00254843
0.00188485
-0.00281682
0.00208976
-0.0030689
0.00228661
-0.00330198
0.002473
-0.00351478
-0.00370733
2.2511e-07
7.82596e-05
4.43925e-06
0.000158481
1.52555e-05
0.000180979
3.50776e-05
0.000154357
6.61877e-05
8.59106e-05
0.000110873
-1.98599e-05
0.000171385
-0.000159922
0.000249807
-0.000332179
0.000347849
-0.000534704
0.000466573
-0.000765128
0.000606132
-0.00102017
0.000765554
-0.00129538
0.000942643
-0.00158512
0.00113406
-0.00188287
0.00133556
-0.00218164
0.00154238
-0.00247462
0.0017497
-0.00275576
0.00195309
-0.00302021
0.00214886
-0.00326467
0.00233433
-0.00348744
0.00250788
-0.00368833
0.00266893
-0.00386839
-0.00402962
3.60667e-07
7.7899e-05
5.26198e-06
0.000153579
1.74965e-05
0.000168744
3.96471e-05
0.000132206
7.41617e-05
5.13961e-05
0.000123468
-6.91667e-05
0.000189896
-0.000226349
0.000275498
-0.000417781
0.000381788
-0.000640994
0.000509434
-0.000892774
0.000657984
-0.00116872
0.000825687
-0.00146308
0.0010095
-0.00176893
0.00120526
-0.00207863
0.00140811
-0.00238449
0.00161295
-0.00267946
0.00181496
-0.00295777
0.00201007
-0.00321531
0.00219518
-0.00344978
0.00236837
-0.00366063
0.00252884
-0.0038488
0.00267676
-0.00401631
-0.00416592
5.82732e-07
7.73162e-05
6.26744e-06
0.000147895
2.00392e-05
0.000154972
4.46732e-05
0.000107572
8.2789e-05
1.32803e-05
0.000136946
-0.000123324
0.000209517
-0.000298921
0.000302461
-0.000510725
0.000417001
-0.000755534
0.000553293
-0.00102907
0.000710162
-0.00132559
0.000885002
-0.00163792
0.0010739
-0.00195782
0.00127197
-0.0022767
0.00147389
-0.00258641
0.00167446
-0.00288003
0.00186912
-0.00315243
0.00205433
-0.00340052
0.00222777
-0.00362322
0.00238832
-0.00382118
0.00253596
-0.00399644
0.00267151
-0.00415187
0.00279639
-0.0042908
-0.00441663
7.70828e-07
7.65454e-05
7.29399e-06
0.000141371
2.27464e-05
0.00013952
5.00924e-05
8.0226e-05
9.21136e-05
-2.87408e-05
0.000151475
-0.000182685
0.000230544
-0.00037799
0.0003311
-0.000611281
0.000453963
-0.000878396
0.000598648
-0.00117375
0.00076315
-0.00149009
0.000943954
-0.00181872
0.00113631
-0.00215018
0.00133474
-0.00247514
0.00153368
-0.00278535
0.00172807
-0.00307441
0.00191381
-0.00333817
0.00208809
-0.0035748
0.0022494
-0.00378453
0.00239745
-0.00396924
0.00253291
-0.0041319
0.00265713
-0.00427608
0.00277185
-0.00440552
-0.00452373
9.9191e-07
7.55535e-05
8.44128e-06
0.000133922
2.57208e-05
0.00012224
5.59852e-05
4.99616e-05
0.000102169
-7.49242e-05
0.000167011
-0.000247528
0.000252814
-0.000463793
0.000361081
-0.000719548
0.00049211
-0.00100942
0.000644653
-0.00132629
0.000815792
-0.00166123
0.0010011
-0.00200403
0.00119508
-0.00234416
0.00139186
-0.00267192
0.00158586
-0.00297934
0.00177237
-0.00326093
0.00194799
-0.0035138
0.00211072
-0.00373753
0.00225988
-0.00393369
0.00239593
-0.00410528
0.00252011
-0.00425607
0.00263415
-0.00439012
0.00273998
-0.00451135
0.00283952
-0.00462327
-0.00472884
1.24845e-06
7.4305e-05
9.71762e-06
0.000125453
2.89777e-05
0.00010298
6.23716e-05
1.65677e-05
0.00011297
-0.000125523
0.000183548
-0.000318106
0.000276266
-0.000556511
0.000392244
-0.000835526
0.000531131
-0.00114831
0.000690809
-0.00148597
0.000867397
-0.00183782
0.0010556
-0.00219223
0.00124934
-0.0025379
0.00144254
-0.00286512
0.00162987
-0.00316667
0.00180721
-0.00343826
0.00197193
-0.00367852
0.00212291
-0.0038885
0.00226026
-0.00407104
0.00238506
-0.00423009
0.00249901
-0.00437002
0.00260406
-0.00449518
0.00270222
-0.00460951
0.00279532
-0.00471637
0.00288494
-0.00481846
-0.00491787
1.54271e-06
7.27623e-05
1.11303e-05
0.000115865
3.25299e-05
8.15808e-05
6.92659e-05
-2.01683e-05
0.000124523
-0.00018078
0.000201059
-0.000394642
0.000300804
-0.000656256
0.00042438
-0.000959102
0.000570659
-0.00129459
0.000736566
-0.00165188
0.000917252
-0.0020185
0.00110665
-0.00238163
0.00129831
-0.00272956
0.0014862
-0.00305301
0.00166544
-0.00334591
0.00183267
-0.00360549
0.00198613
-0.00383199
0.00212552
-0.00402789
0.00225167
-0.00419719
0.00236617
-0.00434458
0.00247099
-0.00447484
0.00256822
-0.0045924
0.00265979
-0.00470109
0.00274742
-0.004804
0.00283249
-0.00490354
-0.00500148
1.87671e-06
7.08856e-05
1.26855e-05
0.000105057
3.63871e-05
5.78791e-05
7.66763e-05
-6.04575e-05
0.00013682
-0.000240924
0.000219495
-0.000477317
0.000326303
-0.000763064
0.000457237
-0.00109004
0.00061028
-0.00144763
0.000781343
-0.00182294
0.000964655
-0.00220182
0.00115354
-0.00257052
0.00134138
-0.0029174
0.00152246
-0.00323409
0.00169253
-0.00351599
0.0018491
-0.00376206
0.00199128
-0.00397417
0.00211954
-0.00415616
0.0022353
-0.00431295
0.00234051
-0.00444979
0.0024373
-0.00457163
0.00252775
-0.00468285
0.00261368
-0.00478702
0.00269663
-0.00488695
0.00277779
-0.00498469
0.00285804
-0.00508173
-0.00517907
2.25209e-06
6.86335e-05
1.4388e-05
9.29207e-05
4.05559e-05
3.17112e-05
8.46041e-05
-0.000104506
0.000149841
-0.000306161
0.000238787
-0.000566263
0.0003526
-0.000876877
0.00049052
-0.00122796
0.000649543
-0.00160666
0.000824548
-0.00199795
0.00100894
-0.00238621
0.00119565
-0.00275722
0.00137812
-0.00309987
0.00155115
-0.00340712
0.00171132
-0.00367616
0.00185702
-0.00390775
0.0019882
-0.00410535
0.002106
-0.00427396
0.00221228
-0.00441923
0.00230922
-0.00454673
0.002399
-0.00466141
0.00248361
-0.00476745
0.0025647
-0.00486812
0.00264361
-0.00496586
0.00272133
-0.00506241
0.00279858
-0.00515898
0.00287586
-0.00525635
-0.00535501
2.67021e-06
6.59633e-05
1.62414e-05
7.93495e-05
4.50395e-05
2.91308e-06
9.30432e-05
-0.000152509
0.000163553
-0.000376671
0.000258841
-0.000661551
0.000379503
-0.000997539
0.000523902
-0.00137235
0.000687973
-0.00177073
0.000865602
-0.00217558
0.00104953
-0.00257014
0.00123248
-0.00294018
0.00140824
-0.00327563
0.00157232
-0.0035712
0.00172218
-0.00382601
0.00185709
-0.00404267
0.00197777
-0.00422604
0.00208591
-0.00438209
0.00218366
-0.00451699
0.00227332
-0.00463638
0.00235701
-0.00474511
0.00243657
-0.00484702
0.00251347
-0.00494502
0.00258884
-0.00504122
0.00266349
-0.00513706
0.00273798
-0.00523347
0.0028127
-0.00533107
0.0028879
-0.00543021
-0.00553112
3.13209e-06
6.28312e-05
1.82478e-05
6.42338e-05
4.98375e-05
-2.86767e-05
0.00010198
-0.000204652
0.000177906
-0.000452597
0.000279542
-0.000763186
0.00040679
-0.00112479
0.000557025
-0.00152259
0.00072509
-0.00193879
0.000903961
-0.00235445
0.00108589
-0.00275207
0.00126369
-0.00311797
0.00143167
-0.00344361
0.00158618
-0.0037257
0.0017256
-0.00396543
0.00185005
-0.00416712
0.00196091
-0.00433689
0.00206024
-0.00448143
0.0021504
-0.00460715
0.00223368
-0.00471966
0.00231208
-0.00482351
0.00238726
-0.00492219
0.00246048
-0.00501825
0.00253268
-0.00511343
0.00260452
-0.00520889
0.00267642
-0.00530537
0.00274868
-0.00540333
0.00282149
-0.00550302
0.00289498
-0.00560461
-0.00570816
3.63845e-06
5.91928e-05
2.0408e-05
4.74643e-05
5.49462e-05
-6.32149e-05
0.000111394
-0.0002611
0.00019284
-0.000534043
0.000300751
-0.000871097
0.000434212
-0.00125825
0.000589516
-0.00167789
0.000760423
-0.0021097
0.000939133
-0.00253316
0.00111765
-0.00293059
0.00128908
-0.0032894
0.00144847
-0.00360299
0.00159307
-0.0038703
0.00172218
-0.00409455
0.00183669
-0.00428163
0.00193847
-0.00443867
0.00202988
-0.00457283
0.00211332
-0.0046906
0.00219102
-0.00479735
0.00226481
-0.0048973
0.00233614
-0.00499353
0.00240609
-0.00508819
0.00247541
-0.00518274
0.00254461
-0.00527809
0.00261403
-0.0053748
0.0026839
-0.0054732
0.00275435
-0.00557347
0.00282547
-0.00567573
-0.00578003
4.18976e-06
5.5003e-05
2.27216e-05
2.89324e-05
6.03578e-05
-0.000100851
0.000121256
-0.000321999
0.000208279
-0.000621065
0.000322313
-0.000985131
0.0004615
-0.00139743
0.000620994
-0.00183739
0.000793527
-0.00228223
0.000970702
-0.00271033
0.00114451
-0.0031044
0.00130859
-0.00345348
0.00145883
-0.00375323
0.00159344
-0.00400492
0.00171259
-0.0042137
0.00181778
-0.00438682
0.00191129
-0.00453217
0.00199561
-0.00465715
0.00207315
-0.00476813
0.00214596
-0.00487016
0.0022157
-0.00496704
0.0022836
-0.00506144
0.00235057
-0.00515516
0.0024172
-0.00524938
0.0024839
-0.00534479
0.00255092
-0.00544182
0.00261842
-0.0055407
0.00268652
-0.00564157
0.00275528
-0.00574449
0.00282476
-0.00584951
-0.00595665
4.78617e-06
5.02168e-05
2.51866e-05
8.532e-06
6.60611e-05
-0.000141726
0.000131529
-0.000387467
0.000224132
-0.000713668
0.00034405
-0.00110505
0.000488371
-0.00154176
0.000651083
-0.0020001
0.000823997
-0.00245515
0.000998332
-0.00288467
0.00116631
-0.00327238
0.00132228
-0.00360944
0.00146307
-0.00389402
0.00158783
-0.00412968
0.00169749
-0.00432336
0.00179407
-0.00448341
0.0018801
-0.0046182
0.00195813
-0.00473519
0.00203046
-0.00484046
0.00209897
-0.00493867
0.00216511
-0.00503317
0.00222992
-0.00512625
0.00229413
-0.00521937
0.00235822
-0.00531346
0.00242249
-0.00540906
0.00248715
-0.00550647
0.0025523
-0.00560586
0.00261805
-0.00570731
0.00268443
-0.00581088
0.00275151
-0.00591659
0.00281932
-0.00602446
-0.0061345
5.42761e-06
4.47892e-05
2.77998e-05
-1.38402e-05
7.2041e-05
-0.000185967
0.000142168
-0.000457593
0.000240296
-0.000811796
0.000365771
-0.00123052
0.000514535
-0.00169052
0.000679424
-0.00216499
0.000851482
-0.00262721
0.00102178
-0.00305496
0.001183
-0.0034336
0.00133033
-0.00375677
0.00146158
-0.00402528
0.0015768
-0.0042449
0.00167756
-0.00442411
0.00176626
-0.00457211
0.00184558
-0.00469752
0.00191803
-0.00480764
0.00198576
-0.00490819
0.00205045
-0.00500336
0.00211335
-0.00509607
0.00217531
-0.00518821
0.00223692
-0.00528099
0.00229856
-0.0053751
0.00236046
-0.00547096
0.00242277
-0.00556878
0.00248558
-0.00566867
0.00254896
-0.00577069
0.00261296
-0.00587487
0.00267761
-0.00598124
0.00274296
-0.0060898
0.00280904
-0.00620058
-0.0063136
6.11374e-06
3.86755e-05
3.05566e-05
-3.8283e-05
7.82786e-05
-0.000233689
0.00015312
-0.000532434
0.000256656
-0.000915332
0.000387272
-0.00136114
0.000539699
-0.00184295
0.000705685
-0.00233097
0.000875697
-0.00279722
0.0010409
-0.00322016
0.00119462
-0.00358733
0.001333
-0.00389515
0.00145483
-0.0041471
0.00156093
-0.00435101
0.00165342
-0.0045166
0.00173497
-0.00465366
0.0018083
-0.00477084
0.0018758
-0.00487515
0.00193945
-0.00497183
0.00200071
-0.00506462
0.00206063
-0.00515599
0.00211993
-0.00524751
0.00217906
-0.00534012
0.00223831
-0.00543436
0.00229786
-0.00553052
0.00235784
-0.00562875
0.0024183
-0.00572913
0.0024793
-0.00583169
0.00254089
-0.00593646
0.0026031
-0.00604345
0.00266596
-0.00615267
0.00272953
-0.00626415
0.00279382
-0.0063779
0.00285888
-0.00649394
-0.0066123
6.84395e-06
3.18315e-05
3.34509e-05
-6.489e-05
8.47512e-05
-0.000284989
0.000164324
-0.000612008
0.000273085
-0.00102409
0.000408342
-0.0014964
0.000563581
-0.00199819
0.000729573
-0.00249697
0.000896423
-0.00296407
0.00105562
-0.00337936
0.00120131
-0.00373301
0.00133062
-0.00402447
0.00144328
-0.00425976
0.00154079
-0.00444852
0.00162568
-0.00460149
0.00170078
-0.00472876
0.00176875
-0.00483882
0.00183185
-0.00493825
0.00189184
-0.00503181
0.00194997
-0.00512276
0.00200713
-0.00521315
0.00206389
-0.00530427
0.00212061
-0.00539684
0.00217752
-0.00549126
0.00223474
-0.00558774
0.00229238
-0.00568638
0.00235047
-0.00578723
0.00240909
-0.0058903
0.00246825
-0.00599562
0.00252799
-0.0061032
0.00258836
-0.00621304
0.00264938
-0.00632517
0.00271109
-0.00643961
0.00277353
-0.00655638
0.00283673
-0.0066755
-0.00679701
7.61738e-06
2.42142e-05
3.64754e-05
-9.3748e-05
9.14322e-05
-0.000339946
0.000175714
-0.000696289
0.000289449
-0.00113783
0.000428767
-0.00163572
0.000585916
-0.00215533
0.000750839
-0.00266189
0.000913515
-0.00312674
0.00106597
-0.00353181
0.00120327
-0.00387032
0.00132357
-0.00414477
0.00142743
-0.00436361
0.00151693
-0.00453802
0.00159488
-0.00467945
0.00166417
-0.00479805
0.00172736
-0.00490201
0.00178652
-0.0049974
0.00184318
-0.00508848
0.00189843
-0.00517801
0.00195299
-0.00526771
0.0020073
-0.00535859
0.00206166
-0.0054512
0.00211624
-0.00554584
0.00217114
-0.00564264
0.00222643
-0.00574167
0.00228215
-0.00584295
0.00233835
-0.00594651
0.00239507
-0.00605234
0.00245233
-0.00616046
0.00251018
-0.00627088
0.00256863
-0.00638362
0.00262774
-0.00649871
0.00268753
-0.00661617
0.00274803
-0.00673601
0.00280928
-0.00685826
-0.00698284
8.43289e-06
1.57813e-05
3.9621e-05
-0.000124936
9.82908e-05
-0.000398616
0.000187213
-0.000785211
0.000305604
-0.00125622
0.000448334
-0.00177845
0.000606461
-0.00231346
0.000769286
-0.00282471
0.000926898
-0.00328436
0.00107204
-0.00367695
0.00120079
-0.00399907
0.00131226
-0.00425624
0.00140776
-0.00445911
0.00148985
-0.00462011
0.0015615
-0.0047511
0.00162557
-0.00486212
0.00168447
-0.00496091
0.00174006
-0.00505299
0.00179368
-0.00514209
0.00184623
-0.00523055
0.00189829
-0.00531977
0.00195023
-0.00541052
0.00200226
-0.00550323
0.00205452
-0.00559809
0.00210708
-0.0056952
0.00216001
-0.0057946
0.00221335
-0.00589629
0.00226713
-0.00600029
0.00232139
-0.00610659
0.00237615
-0.00621522
0.00243145
-0.00632618
0.00248732
-0.0064395
0.00254379
-0.00655519
0.00260091
-0.00667329
0.00265869
-0.00679379
0.00271717
-0.00691674
0.00277638
-0.00704205
-0.00717002
9.28903e-06
6.49224e-06
4.28774e-05
-0.000158525
0.000105293
-0.000461031
0.000198741
-0.000878659
0.000321404
-0.00137888
0.000466837
-0.00192388
0.000625003
-0.00247163
0.000784769
-0.00298448
0.000936561
-0.00343615
0.00107398
-0.00381438
0.00119415
-0.00411924
0.00129709
-0.00435918
0.00138475
-0.00454677
0.00146001
-0.00469538
0.00152596
-0.00481705
0.00158534
-0.0049215
0.00164037
-0.00501594
0.0016927
-0.00510533
0.00174349
-0.00519288
0.00179347
-0.00528054
0.00184312
-0.00536942
0.00189272
-0.00546012
0.00194244
-0.00555295
0.00199238
-0.00564803
0.00204261
-0.00574543
0.00209317
-0.00584516
0.0021441
-0.00594723
0.00219544
-0.00605163
0.00224722
-0.00615837
0.00229946
-0.00626746
0.0023522
-0.00637892
0.00240546
-0.00649276
0.00245929
-0.00660902
0.00251371
-0.0067277
0.00256875
-0.00684883
0.00262442
-0.00697241
0.00268077
-0.0070984
0.00273776
-0.00722701
0.00279562
-0.00735719
-0.007494
1.0184e-05
-3.69177e-06
4.62327e-05
-0.000194573
0.0001124
-0.000527199
0.000210211
-0.00097647
0.000336699
-0.00150537
0.000484086
-0.00207127
0.000641363
-0.0026289
0.000797197
-0.00314031
0.000942555
-0.00358151
0.00107201
-0.00394383
0.0011837
-0.00423093
0.00127847
-0.00445395
0.00135882
-0.00462711