/*--------------------------------*- C++ -*----------------------------------*\
  =========                 |
  \\      /  F ield         | OpenFOAM: The Open Source CFD Toolbox
   \\    /   O peration     | Website:  https://openfoam.org
    \\  /    A nd           | Version:  7
     \\/     M anipulation  |
\*---------------------------------------------------------------------------*/
FoamFile
{
    version     2.0;
    format      ascii;
    class       volVectorField;
    location    "20";
    object      U;
}
// * * * * * * * * * * * * * * * * * * * * * * * * * * * * * * * * * * * * * //

dimensions      [0 1 -1 0 0 0 0];

internalField   nonuniform List<vector> 
24200
(
(-0.00122055 0.000645905 2.76685e-21)
(-0.0079123 0.00143686 5.78154e-21)
(-0.0193499 0.0019091 1.21976e-22)
(-0.0318886 0.00217456 4.8095e-21)
(-0.0451694 0.00230093 -1.34958e-22)
(-0.0582858 0.002339 -4.29075e-22)
(-0.0709689 0.00232189 -3.9288e-21)
(-0.0830148 0.00227252 -3.77882e-22)
(-0.0943617 0.00220577 9.69127e-22)
(-0.105001 0.00213117 -2.52065e-21)
(-0.11496 0.0020545 9.98595e-22)
(-0.124283 0.00197911 -1.42597e-21)
(-0.133019 0.00190675 -2.34646e-21)
(-0.141218 0.0018382 -4.40458e-21)
(-0.00126514 0.00193411 -1.11392e-20)
(-0.00799083 0.00430388 -1.14302e-20)
(-0.0194196 0.00571944 3.4875e-21)
(-0.0319287 0.0065153 -6.26935e-21)
(-0.0451636 0.00689431 -3.7044e-21)
(-0.0582236 0.0070085 -1.38034e-21)
(-0.0708421 0.00695721 9.15675e-21)
(-0.0828165 0.00680909 -5.43173e-21)
(-0.0940854 0.00660875 -4.62546e-21)
(-0.10464 0.00638476 2.94077e-21)
(-0.114509 0.00615448 6.69498e-21)
(-0.123734 0.00592794 1.25382e-20)
(-0.132365 0.00571042 1.02528e-21)
(-0.140451 0.00550423 1.24826e-20)
(-0.00135385 0.00321073 2.25926e-20)
(-0.00814722 0.00714841 2.02323e-20)
(-0.0195587 0.00950246 -9.97554e-21)
(-0.0320084 0.0108267 2.04795e-20)
(-0.045152 0.0114578 1.37537e-21)
(-0.0580996 0.0116483 -3.80255e-21)
(-0.0705891 0.0115631 -1.27679e-20)
(-0.0824205 0.0113164 -8.80488e-22)
(-0.0935338 0.0109825 8.5283e-21)
(-0.10392 0.010609 -1.25665e-21)
(-0.113608 0.0102247 -1.34175e-20)
(-0.122637 0.00984636 -4.41958e-21)
(-0.131059 0.00948281 -4.13936e-21)
(-0.138919 0.00913794 -1.79533e-20)
(-0.0014858 0.0044686 -2.36705e-20)
(-0.00838017 0.00995605 -7.30451e-22)
(-0.019766 0.0132404 2.05986e-20)
(-0.0321275 0.0150896 -8.54406e-21)
(-0.0451347 0.0159719 -1.36014e-21)
(-0.0579142 0.0162386 1.52209e-20)
(-0.0702106 0.0161199 1.58969e-20)
(-0.0818281 0.0157751 -2.89694e-21)
(-0.0927083 0.0153077 -9.57336e-21)
(-0.102843 0.0147843 -8.07714e-21)
(-0.112258 0.0142453 1.69815e-21)
(-0.120996 0.0137142 -1.71764e-20)
(-0.129103 0.0132032 3.09716e-20)
(-0.136626 0.0127179 2.03004e-20)
(-0.0016597 0.0057007 1.04987e-20)
(-0.00868781 0.0127127 -3.03407e-20)
(-0.0200402 0.0169158 -1.60091e-20)
(-0.0322852 0.019285 -1.11625e-20)
(-0.0451116 0.020417 4.88541e-21)
(-0.0576681 0.02076 2.192e-20)
(-0.069708 0.0206084 -2.28859e-20)
(-0.0810411 0.0201657 5.45713e-21)
(-0.0916112 0.019565 9.97022e-21)
(-0.101411 0.0188913 -7.29966e-21)
(-0.110465 0.0181968 9.03472e-21)
(-0.118814 0.0175114 8.25629e-21)
(-0.126503 0.0168512 -2.12289e-20)
(-0.133577 0.0162231 -1.62631e-20)
(-0.00187389 0.00690033 -1.03519e-22)
(-0.00906768 0.0154047 1.22798e-20)
(-0.0203795 0.0205116 1.30817e-20)
(-0.0324805 0.0233943 -8.1018e-21)
(-0.0450828 0.024774 -1.57377e-20)
(-0.0573622 0.0251932 -4.86512e-20)
(-0.0690828 0.0250092 -7.61746e-21)
(-0.0800618 0.0244692 -1.01241e-21)
(-0.0902456 0.0237352 -4.89717e-21)
(-0.099627 0.0229108 3.55337e-20)
(-0.108231 0.0220595 7.60552e-21)
(-0.116096 0.0212182 -4.64692e-21)
(-0.123265 0.0204063 -2.24455e-20)
(-0.129779 0.0196325 4.39033e-21)
(-0.135678 0.0188991 -1.42295e-20)
(-0.00212638 0.00806117 2.02537e-20)
(-0.00951677 0.0180192 7.85958e-21)
(-0.0207817 0.0240116 -1.1531e-20)
(-0.0327122 0.0273995 2.28504e-20)
(-0.0450482 0.029024 1.19993e-20)
(-0.0569974 0.0295192 -9.88223e-21)
(-0.0683371 0.0293032 4.78161e-20)
(-0.0788928 0.0286665 2.55787e-20)
(-0.0886146 0.0277991 1.01335e-21)
(-0.0974963 0.0268234 -2.1038e-20)
(-0.105562 0.0258141 -1.36563e-20)
(-0.112848 0.0248148 1.26776e-20)
(-0.119394 0.0238486 -2.09469e-20)
(-0.125241 0.0229258 2.9658e-20)
(-0.130422 0.0220492 -1.39793e-20)
(-0.00241484 0.00917737 1.70793e-20)
(-0.0100316 0.0205438 -4.63955e-21)
(-0.0212439 0.0274 3.9092e-20)
(-0.0329788 0.0312831 -4.46682e-20)
(-0.0450076 0.0331489 1.86208e-20)
(-0.0565747 0.0337191 1.90995e-20)
(-0.0674726 0.0334716 7.77705e-21)
(-0.077537 0.0327386 -4.7562e-20)
(-0.086722 0.031738 1.66562e-20)
(-0.0950227 0.0306103 -2.02407e-20)
(-0.102462 0.0294416 1.66982e-20)
(-0.109075 0.0282821 1.15936e-20)
(-0.114898 0.0271586 2.70046e-20)
(-0.119968 0.0260831 -4.89109e-20)
(-0.124316 0.0250589 2.32972e-20)
(-0.00273671 0.0102436 -7.28702e-20)
(-0.0106083 0.0229672 1.69259e-20)
(-0.0217632 0.030662 -2.43639e-20)
(-0.0332785 0.0350283 4.80556e-20)
(-0.0449606 0.0371307 -3.07169e-20)
(-0.056095 0.0377748 3.81888e-21)
(-0.0664915 0.0374959 -2.6867e-20)
(-0.0759972 0.036667 7.23593e-21)
(-0.0845714 0.0355331 3.11321e-21)
(-0.0922104 0.0342527 7.00151e-20)
(-0.0989368 0.032923 1.50273e-20)
(-0.104783 0.0316009 -7.00238e-22)
(-0.109783 0.0303169 1.16549e-20)
(-0.113969 0.0290849 -3.01496e-20)
(-0.117369 0.0279085 -2.14699e-20)
(-0.00308918 0.0112551 4.17383e-20)
(-0.0112426 0.025279 -4.28008e-20)
(-0.0223361 0.0337839 6.57782e-21)
(-0.0336093 0.0386193 -4.83295e-20)
(-0.0449066 0.0409524 1.29118e-22)
(-0.055559 0.0416684 1.49117e-20)
(-0.0653954 0.0413579 -9.05255e-21)
(-0.0742762 0.0404333 -1.70475e-20)
(-0.082166 0.0391661 -8.78727e-21)
(-0.0890635 0.0377321 4.42663e-21)
(-0.0949903 0.0362398 -4.8118e-21)
(-0.0999763 0.0347528 -6.95839e-20)
(-0.104053 0.0333051 4.46356e-20)
(-0.107248 0.0319125 -2.76345e-21)
(-0.109588 0.0305794 -6.92183e-21)
(-0.00346929 0.0122079 -2.58512e-20)
(-0.0119298 0.0274699 -4.13376e-20)
(-0.0229588 0.0367528 -3.43463e-20)
(-0.0339686 0.042041 3.4135e-20)
(-0.0448447 0.0445975 -3.17743e-20)
(-0.0549671 0.0453827 6.57221e-21)
(-0.0641859 0.0450399 -3.46807e-23)
(-0.0723761 0.0440195 2.37545e-20)
(-0.0795089 0.0426187 2.33125e-20)
(-0.085585 0.0410304 -2.32918e-20)
(-0.0906259 0.039374 -2.94003e-20)
(-0.0946589 0.0377196 2.17333e-20)
(-0.0977122 0.0361051 -1.94343e-20)
(-0.0998105 0.0345481 1.66635e-22)
(-0.100974 0.0330537 6.66551e-20)
(-0.00387398 0.0130984 3.17609e-20)
(-0.012665 0.0295316 3.56816e-20)
(-0.0236273 0.039557 6.86132e-22)
(-0.0343538 0.0452793 -4.66141e-20)
(-0.0447737 0.0480504 5.95421e-20)
(-0.0543192 0.0489009 2.96696e-20)
(-0.0628639 0.0485246 7.6368e-20)
(-0.0702986 0.047408 6.78225e-20)
(-0.0766017 0.0458733 -5.7199e-20)
(-0.081777 0.0441298 5.93813e-22)
(-0.0858454 0.0423077 -1.28898e-20)
(-0.088832 0.0404838 3.94813e-20)
(-0.0907614 0.0386996 4.97809e-21)
(-0.0916541 0.0369747 -7.81313e-21)
(-0.0915256 0.0353149 1.23768e-20)
(-0.00430009 0.013924 -2.63914e-21)
(-0.0134432 0.0314571 4.22218e-20)
(-0.024337 0.0421861 5.16647e-20)
(-0.0347616 0.0483212 4.53019e-20)
(-0.0446915 0.0512962 -7.61758e-20)
(-0.0536146 0.0522071 -7.51127e-20)
(-0.0614294 0.0517954 -1.00306e-20)
(-0.068044 0.0505819 -7.51523e-20)
(-0.0734451 0.0489126 9.98529e-21)
(-0.0776396 0.0470132 -8.34964e-20)
(-0.0806482 0.0450241 6.57838e-20)
(-0.0824936 0.0430285 2.55265e-22)
(-0.0831969 0.0410721 1.86178e-20)
(-0.0827742 0.0391762 -2.2493e-20)
(-0.0812361 0.0373477 -4.90312e-20)
(-0.00474448 0.0146827 2.83158e-20)
(-0.0142592 0.0332405 -7.56895e-20)
(-0.0250835 0.0446307 -1.77539e-20)
(-0.0351883 0.0511548 4.23227e-20)
(-0.0445957 0.0543211 7.73372e-20)
(-0.0528516 0.0552862 1.64179e-20)
(-0.0598813 0.0548361 -8.83423e-20)
(-0.0656115 0.0535245 6.19087e-21)
(-0.0700377 0.05172 1.98016e-21)
(-0.0731706 0.0496638 7.18751e-20)
(-0.0750305 0.0475066 -7.62743e-20)
(-0.0756382 0.0453379 -3.15778e-20)
(-0.0750104 0.0432072 -1.94325e-20)
(-0.0731589 0.0411381 3.06405e-20)
(-0.0700892 0.0391384 3.01989e-20)
(-0.00520406 0.0153731 -6.37583e-20)
(-0.0151076 0.0348771 -5.2657e-21)
(-0.0258615 0.0468831 4.26076e-20)
(-0.0356298 0.0537694 1.30783e-20)
(-0.0444831 0.0571124 7.78705e-21)
(-0.0520277 0.0581238 -2.64173e-20)
(-0.0582173 0.0576316 7.60557e-20)
(-0.0629982 0.05622 -6.53112e-21)
(-0.0663758 0.0542795 -7.42664e-22)
(-0.0683646 0.0520658 -5.32751e-20)
(-0.068985 0.0497396 7.06017e-20)
(-0.0682549 0.0473968 7.28498e-20)
(-0.0661875 0.0450907 -3.37079e-20)
(-0.0627891 0.0428472 -9.13017e-20)
(-0.0580597 0.0406751 -3.06051e-20)
(-0.00567584 0.0159948 -3.09063e-20)
(-0.0159832 0.0363635 4.58439e-20)
(-0.0266659 0.0489364 -3.96328e-20)
(-0.0360811 0.0561556 -2.67637e-20)
(-0.0443493 0.0596582 2.78921e-21)
(-0.0511387 0.0607066 9.7966e-20)
(-0.0564329 0.0601674 -2.05333e-20)
(-0.060199 0.0586535 2.26639e-20)
(-0.0624526 0.0565758 -4.74837e-21)
(-0.0632124 0.0542042 6.28999e-20)
(-0.0624989 0.0517087 4.96147e-20)
(-0.0603272 0.0491916 -9.58462e-20)
(-0.0567057 0.04671 1.00756e-19)
(-0.0516356 0.0442922 3.6381e-20)
(-0.0451108 0.0419485 1.04779e-19)
(-0.0371187 0.0396785 2.85735e-20)
(-0.00615697 0.0165478 -1.03788e-20)
(-0.0168806 0.0376975 7.07039e-20)
(-0.027491 0.0507855 2.69858e-20)
(-0.0365368 0.0583051 -7.35672e-20)
(-0.0441889 0.0619482 -6.48913e-20)
(-0.0501791 0.0630224 -1.01352e-19)
(-0.0545218 0.0624302 -5.52381e-20)
(-0.0572059 0.060811 7.27345e-20)
(-0.0582576 0.0585948 6.81242e-21)
(-0.0577002 0.056065 -4.93057e-20)
(-0.0555538 0.0534006 -1.03351e-19)
(-0.0518305 0.0507099 -1.35937e-20)
(-0.0465337 0.0480541 -5.10519e-20)
(-0.0396585 0.0454641 5.28844e-20)
(-0.0311921 0.0429518 -9.09493e-20)
(-0.0211154 0.0405178 6.45395e-20)
(-0.00664479 0.0170328 5.99964e-20)
(-0.0177945 0.0388782 -2.59805e-20)
(-0.0283308 0.0524264 -1.07221e-19)
(-0.0369905 0.0602112 -1.0225e-21)
(-0.0439952 0.0639729 5.83883e-20)
(-0.0491411 0.0650601 3.98204e-20)
(-0.0524747 0.0644076 2.35752e-20)
(-0.0540073 0.0626796 -4.20157e-20)
(-0.053776 0.0603236 4.5432e-20)
(-0.0518084 0.0576357 -8.78996e-20)
(-0.0481243 0.0548036 -1.15717e-20)
(-0.0427319 0.0519415 8.81606e-20)
(-0.0356292 0.0491147 1.82867e-20)
(-0.0268044 0.0463568 2.16451e-20)
(-0.0162376 0.0436818 2.63885e-20)
(-0.00390241 0.0410915 -8.53835e-20)
(-0.00713686 0.0174513 -1.12593e-21)
(-0.0187199 0.0399055 1.13424e-20)
(-0.0291791 0.0538563 1.19948e-19)
(-0.037435 0.0618682 6.06758e-20)
(-0.0437598 0.0657245 -2.22418e-20)
(-0.048015 0.0668098 -2.6236e-20)
(-0.0502796 0.0660888 -8.03602e-20)
(-0.0505876 0.0642478 -2.73207e-21)
(-0.0489875 0.0617508 -3.08354e-20)
(-0.0455109 0.0589054 1.23229e-19)
(-0.0401764 0.0559079 3.82045e-20)
(-0.0329881 0.0528783 -1.1203e-19)
(-0.0239375 0.0498859 -2.56023e-20)
(-0.0130054 0.0469675 -2.11246e-20)
(-0.000163989 0.0441393 -1.63953e-20)
(0.0146208 0.0414051 -2.01085e-20)
(-0.00763099 0.0178052 -7.92968e-20)
(-0.0196515 0.0407807 -1.14737e-20)
(-0.0300291 0.055074 -2.00386e-20)
(-0.0378618 0.0632722 -1.48232e-20)
(-0.0434726 0.0671965 -5.47153e-20)
(-0.0467881 0.0682634 1.529e-19)
(-0.0479204 0.0674643 1.67432e-19)
(-0.0469266 0.0655056 -4.41504e-20)
(-0.0438659 0.0628664 -1.18899e-19)
(-0.0387736 0.0598653 -4.35744e-20)
(-0.0316667 0.0567063 2.27429e-20)
(-0.022544 0.0535151 -7.25738e-20)
(-0.0113899 0.0503656 -6.96034e-21)
(0.00182321 0.0472978 -8.52025e-20)
(0.0171313 0.0443306 8.74301e-20)
(0.0345763 0.0414702 1.07444e-20)
(-0.00812528 0.0180969 1.41376e-19)
(-0.0205844 0.0415057 5.70251e-20)
(-0.0308735 0.0560793 -3.70852e-20)
(-0.0382613 0.0644203 -1.22972e-20)
(-0.0431213 0.0683837 1.30386e-19)
(-0.0454447 0.0694139 -4.64758e-20)
(-0.0453772 0.0685262 -7.95695e-21)
(-0.0429982 0.066445 8.10284e-20)
(-0.0383777 0.0636631 1.06508e-19)
(-0.0315538 0.0605089 -2.27332e-20)
(-0.0225408 0.0571941 -5.34107e-20)
(-0.0113315 0.0538503 8.77543e-20)
(0.00209802 0.0505558 3.65749e-20)
(0.017784 0.0473542 1.59115e-19)
(0.0357711 0.0442678 -6.54964e-21)
(0.0561082 0.0413056 4.11692e-20)
(-0.00861809 0.0183291 3.70453e-20)
(-0.0215136 0.0420836 -7.15604e-20)
(-0.0317045 0.0568731 1.48258e-19)
(-0.0386226 0.0653111 7.69872e-20)
(-0.0426913 0.0692827 -1.61676e-20)
(-0.0439658 0.0702564 -5.52723e-20)
(-0.042625 0.0692687 -9.12613e-20)
(-0.0387705 0.0670601 -7.11916e-20)
(-0.0324817 0.0641355 -7.58693e-20)
(-0.0237989 0.0608327 8.16348e-20)
(-0.0127324 0.0573706 -9.44979e-21)
(0.000732097 0.0538864 1.14397e-19)
(0.0166273 0.0504634 -4.15693e-20)
(0.0349986 0.0471494 -4.85595e-20)
(0.0558986 0.0439704 1.11125e-20)
(0.079382 0.0409389 5.97948e-20)
(0.1055 0.0380596 3.29257e-20)
(-0.00910805 0.0185052 -1.56718e-19)
(-0.0224342 0.0425181 -3.43227e-20)
(-0.0325135 0.0574576 -1.77859e-19)
(-0.0389329 0.0659446 -3.04351e-21)
(-0.0421651 0.0698915 -6.01506e-20)
(-0.0423283 0.0707876 -1.38851e-20)
(-0.0396336 0.0696881 7.45824e-20)
(-0.0342041 0.0673474 -1.22621e-19)
(-0.0261276 0.0642815 -5.33629e-21)
(-0.0154449 0.0608367 7.06646e-20)
(-0.00216159 0.0572387 6.82618e-20)
(0.0137449 0.0536309 -9.55732e-20)
(0.0323167 0.0501015 2.83502e-21)
(0.0536079 0.0467033 -6.45025e-20)
(0.0776775 0.0434663 5.5977e-21)
(0.104583 0.0404072 -9.07633e-20)
(0.134371 0.0375345 -2.86068e-20)
(-0.00959405 0.0186283 1.53808e-19)
(-0.0233411 0.0428134 6.64299e-20)
(-0.0332912 0.0578359 3.45873e-20)
(-0.0391778 0.0663222 7.77876e-20)
(-0.0415224 0.0702098 -6.707e-21)
(-0.0405046 0.0710062 1.16813e-19)
(-0.0363668 0.0697828 -7.99294e-20)
(-0.0292521 0.0673062 1.01186e-19)
(-0.0192554 0.0641021 -1.33405e-20)
(-0.00641641 0.0605246 -1.52597e-19)
(0.00926546 0.0568065 9.41571e-21)
(0.0278216 0.0530971 -7.10969e-20)
(0.0493031 0.0494902 -2.70435e-20)
(0.0737715 0.0460439 -1.74723e-21)
(0.101289 0.0427931 -4.77978e-20)
(0.13191 0.0397589 7.66096e-20)
(0.16567 0.0369538 4.47882e-20)
(-0.0100752 0.0187022 -3.87271e-20)
(-0.0242293 0.0429744 -1.85738e-19)
(-0.0340271 0.0580119 -1.77167e-19)
(-0.0393409 0.0664464 -1.13455e-19)
(-0.0407396 0.0702392 2.35917e-20)
(-0.0384624 0.0709132 -2.44163e-19)
(-0.032782 0.0695542 1.37994e-19)
(-0.0238593 0.0669391 3.16562e-20)
(-0.0117944 0.0636022 5.17923e-20)
(0.00337521 0.0599053 7.24174e-20)
(0.0216575 0.0560876 2.01261e-20)
(0.0430929 0.052305 6.98267e-20)
(0.0677404 0.0486575 7.22098e-20)
(0.0956657 0.0452085 -2.83153e-20)
(0.126929 0.0419987 3.45722e-20)
(0.161572 0.0390538 -4.72147e-20)
(0.199608 0.0363898 -7.114e-20)
(-0.0105509 0.0187303 -6.4615e-20)
(-0.0250935 0.0430063 -2.9022e-20)
(-0.03471 0.0579905 2.33953e-19)
(-0.0394033 0.0663211 -1.79811e-19)
(-0.0397893 0.0699828 9.30315e-20)
(-0.0361644 0.0705119 1.08969e-19)
(-0.0288293 0.0690063 -8.18886e-20)
(-0.017961 0.066252 -3.00302e-20)
(-0.00366287 0.0627911 1.32514e-19)
(0.0140316 0.0589924 -3.19304e-20)
(0.0351384 0.055102 -5.05597e-20)
(0.0597059 0.0512824 -7.08337e-20)
(0.0877984 0.04764 -7.08875e-20)
(0.11948 0.0442448 1.63833e-20)
(0.1548 0.0411427 -6.55786e-20)
(0.193775 0.0383639 4.0186e-20)
(0.23638 0.0359274 6.83363e-20)
(0.282527 0.0338436 -5.07585e-20)
(-0.0110205 0.0187164 1.64432e-19)
(-0.0259281 0.0429145 6.79257e-21)
(-0.0353269 0.0577772 -2.19749e-19)
(-0.0393437 0.0659513 1.92681e-19)
(-0.0386402 0.0694459 -2.96371e-19)
(-0.0335672 0.0698078 1.12849e-19)
(-0.0244514 0.0681463 2.65754e-20)
(-0.0114832 0.0652549 -1.67131e-20)
(0.00523256 0.0616829 -1.89781e-19)
(0.0256678 0.0578057 5.49579e-20)
(0.0498461 0.0538766 -4.53152e-20)
(0.0778219 0.0500651 4.94906e-20)
(0.109659 0.0464845 -4.30086e-20)
(0.145412 0.0432111 3.21337e-20)
(0.185105 0.040296 1.92302e-21)
(0.228714 0.0377729 -3.98053e-20)
(0.27615 0.0356622 -1.47942e-20)
(0.32724 0.0339722 3.88936e-20)
(-0.0114836 0.0186638 -1.46008e-19)
(-0.026727 0.0427043 2.85874e-19)
(-0.035864 0.057378 2.55884e-19)
(-0.0391381 0.0653436 3.98298e-20)
(-0.0372568 0.0686352 1.57072e-19)
(-0.0306217 0.0688091 -2.17577e-19)
(-0.0195832 0.0669848 7.40362e-20)
(-0.00434222 0.0639622 1.15056e-19)
(0.0149969 0.060297 1.73682e-19)
(0.0384118 0.0563717 1.36163e-20)
(0.0659323 0.0524464 5.12028e-20)
(0.0976139 0.0486982 9.14866e-21)
(0.133512 0.0452475 8.55779e-20)
(0.173659 0.0421765 7.86828e-20)
(0.218035 0.0395405 -1.61413e-20)
(0.266552 0.0373749 9.75638e-20)
(0.319028 0.0356981 -1.4091e-20)
(0.375174 0.0345124 -4.36792e-20)
(-0.0119398 0.0185758 -1.24783e-20)
(-0.0274835 0.0423813 -4.40804e-20)
(-0.0363052 0.0567995 -7.09777e-20)
(-0.0387599 0.0645054 -1.31042e-19)
(-0.035599 0.0675594 1.34348e-19)
(-0.0272727 0.0675269 1.16625e-19)
(-0.0141512 0.0655361 -4.73259e-20)
(0.00355586 0.0623927 -7.12016e-21)
(0.0257465 0.0586587 -1.4879e-19)
(0.0524035 0.0547234 -6.22962e-20)
(0.0835592 0.0508544 -3.2513e-21)
(0.119263 0.0472362 3.74733e-20)
(0.159549 0.0439959 -7.7268e-20)
(0.204408 0.0412208 -3.70963e-20)
(0.253755 0.0389683 3.93111e-20)
(0.307404 0.037272 -5.40837e-20)
(0.365051 0.0361436 5.25007e-20)
(0.42625 0.0355739 -2.30217e-20)
(0.490413 0.0355319 7.91222e-20)
(-0.0123886 0.0184553 -1.57384e-19)
(-0.0281902 0.0419503 -4.45057e-20)
(-0.0366334 0.056049 -5.44862e-20)
(-0.038179 0.0634452 1.9581e-20)
(-0.0336223 0.0662292 -1.08017e-19)
(-0.0234582 0.0659747 8.80566e-20)
(-0.0080742 0.0638181 -1.268e-19)
(0.0123144 0.0605703 -1.54916e-19)
(0.0376082 0.0567994 6.28702e-20)
(0.0677929 0.0529017 -5.80993e-20)
(0.102897 0.0491523 -9.2803e-20)
(0.142952 0.045743 3.64409e-20)
(0.187954 0.0428066 2.62219e-20)
(0.237826 0.0404332 1.59161e-20)
(0.292387 0.0386789 3.47839e-21)
(0.35132 0.0375704 -2.87838e-20)
(0.414156 0.0371065 -1.14615e-19)
(0.480259 0.0372581 -5.43915e-20)
(0.548832 0.0379689 -1.36946e-19)
(-0.0128293 0.0183048 2.12562e-19)
(-0.0288384 0.0414158 -8.06794e-20)
(-0.036829 0.0551341 1.74188e-19)
(-0.0373623 0.0621725 9.58972e-20)
(-0.0312772 0.0646573 -3.34233e-20)
(-0.0191103 0.0641693 -2.0723e-19)
(-0.00126283 0.061853 1.72694e-19)
(0.0220457 0.058524 1.64086e-19)
(0.0507178 0.0547569 6.29247e-20)
(0.0847373 0.0509548 -6.76703e-20)
(0.124119 0.0474005 2.43272e-20)
(0.168859 0.0442918 6.5173e-21)
(0.218891 0.0417652 -4.67516e-20)
(0.274042 0.0399103 -6.64324e-20)
(0.333994 0.0387763 6.91992e-21)
(0.398259 0.0383761 9.11573e-20)
(0.466164 0.0386868 -3.90428e-20)
(0.536847 0.0396507 2.57925e-20)
(0.609282 0.0411768 -3.52652e-20)
(-0.0132612 0.0181263 -1.76657e-19)
(-0.0294192 0.0407835 5.31619e-20)
(-0.0368699 0.0540615 -9.22974e-20)
(-0.0362732 0.0606976 4.31565e-20)
(-0.0285095 0.0628581 -4.55489e-20)
(-0.0141545 0.0621302 5.67526e-20)
(0.00637968 0.0596667 -1.14451e-19)
(0.03287 0.0562881 2.55124e-20)
(0.0652183 0.0525755 7.01947e-20)
(0.103398 0.0489389 2.48739e-19)
(0.147395 0.0456675 -7.07293e-20)
(0.197149 0.0429638 -8.02417e-20)
(0.252498 0.0409646 1.00153e-19)
(0.313134 0.039753 7.25069e-20)
(0.378561 0.0393642 -3.97847e-20)
(0.448076 0.039788 -3.76968e-20)
(0.520763 0.0409697 2.26312e-19)
(0.595509 0.0428128 2.40048e-19)
(0.671051 0.0451833 -1.94062e-20)
(0.746029 0.0479174 -2.01941e-20)
(-0.013683 0.0179219 5.85666e-20)
(-0.029923 0.0400578 -1.53933e-19)
(-0.0367318 0.0528378 -6.81011e-20)
(-0.0348714 0.0590319 -1.78756e-19)
(-0.0252602 0.0608479 -1.4891e-20)
(-0.00851043 0.05988 8.06698e-20)
(0.0149568 0.0572896 3.3834e-20)
(0.0449142 0.0539025 -3.19783e-20)
(0.0812568 0.0503061 -1.52656e-20)
(0.123936 0.0469171 -1.78103e-19)
(0.172886 0.0440296 1.6463e-19)
(0.227961 0.0418474 7.30395e-20)
(0.288866 0.0405021 -1.78342e-19)
(0.355112 0.0400628 8.75986e-20)
(0.425979 0.0405409 8.66606e-20)
(0.500505 0.0418918 -8.56004e-20)
(0.5775 0.0440178 -2.05924e-19)
(0.655592 0.0467739 -2.16788e-19)
(0.733292 0.0499763 1.61713e-19)
(0.809084 0.0534159 -1.43396e-19)
(-0.014093 0.0176926 2.13139e-19)
(-0.0303376 0.0392415 1.95783e-19)
(-0.0363891 0.051471 1.39252e-19)
(-0.0331134 0.0571879 -6.51342e-20)
(-0.0214657 0.058645 -4.99641e-20)
(-0.00209232 0.0574442 6.31452e-21)
(0.0245775 0.0547563 -1.02568e-19)
(0.0583092 0.0514123 -9.19273e-20)
(0.0989813 0.0480061 -1.11608e-19)
(0.146504 0.0449596 1.20321e-19)
(0.200736 0.0425694 -3.49938e-20)
(0.261403 0.0410354 1.4121e-20)
(0.328033 0.0404763 -1.66625e-20)
(0.399907 0.0409371 -7.68952e-20)
(0.476031 0.0423931 -5.98846e-20)
(0.55515 0.0447527 -3.02096e-20)
(0.635787 0.0478642 8.03976e-20)
(0.716316 0.0515258 -1.43222e-20)
(0.795066 0.0555014 -2.12358e-20)
(0.87043 0.0595392 -1.78521e-20)
(-0.0144891 0.017439 -2.59645e-19)
(-0.0306496 0.0383372 -1.53459e-19)
(-0.0358133 0.049969 -1.9714e-19)
(-0.0309523 0.0551786 2.91208e-19)
(-0.0170582 0.0562695 1.13493e-20)
(0.00519041 0.0548513 -2.39505e-20)
(0.0353552 0.0521052 2.07656e-19)
(0.0731878 0.0488677 4.08641e-20)
(0.118536 0.0457384 1.23603e-19)
(0.171245 0.0431425 6.20351e-20)
(0.231059 0.0413744 -6.39199e-20)
(0.297533 0.0406228 1.21514e-20)
(0.369964 0.0409832 4.62585e-20)
(0.447351 0.0424637 5.46764e-21)
(0.528385 0.0449894 -2.05623e-20)
(0.611493 0.0484091 2.68993e-19)
(0.694914 0.052507 -5.14755e-21)
(0.776809 0.0570206 8.29473e-20)
(0.855391 0.0616636 -2.9062e-20)
(0.929052 0.0661507 -4.44315e-20)
(0.996477 0.0702216 -5.15931e-20)
(-0.0148683 0.0171608 2.61483e-19)
(-0.0308445 0.0373474 1.15039e-19)
(-0.0349733 0.0483391 1.72971e-19)
(-0.0283379 0.0530178 -1.50433e-19)
(-0.0119659 0.0537431 1.87866e-20)
(0.0134321 0.0521327 -5.53074e-21)
(0.0474055 0.0493791 -1.20559e-19)
(0.0896817 0.046324 -1.098e-19)
(0.140057 0.0435716 -1.44846e-19)
(0.198279 0.0415465 -9.0716e-20)
(0.263934 0.0405345 4.21718e-20)
(0.336352 0.0407031 1.25494e-20)
(0.414545 0.0421112 8.61569e-21)
(0.497176 0.0447149 -2.36784e-20)
(0.582592 0.0483746 6.29441e-20)
(0.668899 0.0528672 -1.32885e-19)
(0.754082 0.0579069 -2.14668e-19)
(0.836153 0.0631716 -3.07605e-20)
(0.913304 0.0683337 5.78318e-20)
(0.984037 0.0730891 1.31442e-19)
(1.04726 0.0771831 -1.10585e-20)
(-0.0152264 0.0168569 -3.07744e-19)
(-0.0309064 0.0362747 6.14578e-20)
(-0.0338356 0.0465888 -8.67543e-20)
(-0.0252169 0.0507203 1.34443e-19)
(-0.00611385 0.0510896 3.38256e-20)
(0.0227297 0.0493228 -4.6628e-20)
(0.0608443 0.0466243 -1.74156e-20)
(0.107917 0.0438408 1.47823e-19)
(0.163667 0.0415781 9.01821e-21)
(0.2277 0.0402552 -5.91563e-20)
(0.299394 0.0401396 9.00784e-21)
(0.377795 0.0413645 -6.73971e-20)
(0.46157 0.0439364 1.16434e-19)
(0.549009 0.0477427 1.03396e-19)
(0.638098 0.0525644 3.54386e-20)
(0.726643 0.0580984 6.8128e-20)
(0.812438 0.0639878 9.26012e-20)
(0.893441 0.0698589 7.54426e-20)
(0.967931 0.0753578 -5.84998e-20)
(1.03463 0.0801822 -1.57039e-19)
(1.09277 0.0841035 1.90473e-19)
(1.14207 0.0869774 1.52335e-20)
(-0.0155594 0.0165273 2.66406e-19)
(-0.0308167 0.03512 -1.93476e-19)
(-0.0323645 0.0447253 -1.76321e-20)
(-0.0215331 0.0483013 -2.08419e-20)
(0.000575816 0.0483341 1.65329e-19)
(0.0331817 0.0464582 4.02661e-20)
(0.0757856 0.0438906 1.77948e-19)
(0.128013 0.0414812 -4.3704e-20)
(0.189467 0.0398336 3.65175e-20)
(0.259567 0.0393528 1.00137e-19)
(0.337417 0.040276 -1.08819e-19)
(0.421718 0.0426856 -7.32201e-20)
(0.510741 0.0465174 -2.10812e-20)
(0.602375 0.051573 -2.90138e-20)
(0.694255 0.0575427 4.05115e-20)
(0.783943 0.0640391 -4.30814e-21)
(0.869129 0.0706409 -1.47019e-19)
(0.947831 0.0769377 1.81856e-19)
(1.01854 0.0825706 -8.58163e-21)
(1.08029 0.0872615 1.18752e-19)
(1.13272 0.0908287 -1.13642e-19)
(1.17594 0.0931886 9.73706e-20)
(-0.0158634 0.0161717 -1.93664e-19)
(-0.0305551 0.0338837 6.72011e-21)
(-0.0305216 0.042756 1.56533e-19)
(-0.017228 0.0457768 -9.97249e-20)
(0.00818286 0.0455033 -2.09669e-19)
(0.0448865 0.0435779 -1.18315e-19)
(0.0923387 0.0412304 -1.64256e-19)
(0.150074 0.039311 3.31036e-20)
(0.217535 0.0384148 6.00635e-20)
(0.293894 0.038922 -1.09609e-19)
(0.377917 0.0410233 4.80548e-20)
(0.467897 0.0447311 1.00716e-19)
(0.561667 0.049891 -3.40266e-20)
(0.656712 0.0562033 -1.8585e-20)
(0.750357 0.0632602 -1.28211e-19)
(0.840001 0.0705939 -7.50996e-20)
(0.923348 0.0777324 1.67766e-19)
(0.9986 0.0842504 -2.34133e-19)
(1.06457 0.0898083 9.05167e-20)
(1.1207 0.0941753 -1.63187e-19)
(1.16705 0.0972342 2.32516e-20)
(1.20415 0.0989717 -5.59712e-21)
(1.2329 0.0994589 1.58497e-19)
(-0.0161314 0.0157868 8.9155e-21)
(-0.0301001 0.0325656 -1.41779e-20)
(-0.0282667 0.0406885 -2.38472e-19)
(-0.0122413 0.0431642 -3.98556e-20)
(0.016787 0.0426266 1.19294e-19)
(0.0579391 0.0407247 1.95883e-19)
(0.110604 0.0387005 3.45142e-20)
(0.174186 0.0374 -4.06301e-20)
(0.247915 0.0374009 2.15359e-20)
(0.330646 0.0390437 -3.26054e-20)
(0.42074 0.0424533 1.536e-19)
(0.516024 0.0475504 -2.06619e-19)
(0.613873 0.0540711 6.17424e-20)
(0.711391 0.0616029 2.0411e-20)
(0.805665 0.0696391 -8.5654e-20)
(0.894045 0.0776436 -4.433e-20)
(0.974381 0.085115 -3.05816e-20)
(1.04518 0.0916391 -2.27764e-20)
(1.10567 0.0969216 -9.20781e-20)
(1.15576 0.100799 -5.96901e-20)
(1.19594 0.103231 -5.17525e-20)
(1.2271 0.104277 -2.46776e-20)
(1.25044 0.104073 -4.53047e-20)
(-0.0163503 0.0153645 2.24097e-19)
(-0.0294253 0.0311641 2.32578e-19)
(-0.0255578 0.0385315 2.02027e-19)
(-0.00651387 0.0404848 9.84759e-20)
(0.0264635 0.0397394 -1.89745e-19)
(0.0724252 0.0379493 -1.67786e-19)
(0.130663 0.0363662 -1.13734e-20)
(0.200406 0.0358258 1.12806e-20)
(0.280604 0.0368756 -7.09791e-20)
(0.369724 0.0397982 6.14407e-20)
(0.46565 0.0446299 -1.07057e-19)
(0.565705 0.0511769 1.76397e-19)
(0.666807 0.0590488 -4.84987e-20)
(0.765735 0.0677148 -1.4777e-20)
(0.859446 0.0765778 6.95189e-20)
(0.945374 0.0850532 2.13815e-19)
(1.02165 0.092638 1.40717e-20)
(1.08719 0.0989573 8.34079e-21)
(1.14171 0.103785 1.04658e-19)
(1.18558 0.10704 4.81133e-20)
(1.21972 0.108764 6.21353e-20)
(1.24532 0.10909 4.29699e-20)
(1.26378 0.108206 3.55491e-20)
(1.27645 0.106324 1.24344e-20)
(-0.0165112 0.0149042 -1.85949e-20)
(-0.0285046 0.0296828 -2.25216e-19)
(-0.0223505 0.0362966 -1.40802e-19)
(1.70502e-05 0.0377608 7.3645e-20)
(0.0372904 0.0368766 2.36992e-19)
(0.0884287 0.0353 9.24369e-20)
(0.152589 0.0342889 1.79182e-19)
(0.228767 0.0346584 -2.13749e-20)
(0.315559 0.0369102 -3.52599e-20)
(0.410966 0.0412462 9.35391e-20)
(0.512337 0.0475888 -7.07338e-20)
(0.616468 0.055608 -7.81092e-20)
(0.719856 0.0647752 -6.5168e-20)
(0.819047 0.0744441 -9.02818e-20)
(0.911 0.0839445 1.49238e-19)
(0.993376 0.0926712 -1.25251e-19)
(1.0647 0.10015 -1.46041e-19)
(1.12441 0.106072 6.80705e-20)
(1.17271 0.110298 1.20571e-19)
(1.21043 0.112838 1.08834e-19)
(1.23884 0.113814 -1.53564e-19)
(1.25939 0.113423 1.07367e-20)
(1.27357 0.111896 -7.79652e-20)
(1.28278 0.109469 -7.63717e-20)
(-0.016611 0.0144094 -4.0787e-20)
(-0.0273134 0.0281251 2.08958e-19)
(-0.0185985 0.033993 1.02849e-20)
(0.00741744 0.0350104 8.49147e-21)
(0.0493482 0.0340682 -1.86556e-19)
(0.106033 0.0328194 -1.36248e-20)
(0.176447 0.0325222 -1.78335e-19)
(0.259283 0.0339578 5.58807e-20)
(0.352705 0.0375614 9.99068e-20)
(0.454173 0.0434285 -1.12305e-19)
(0.560452 0.0513409 1.2599e-19)
(0.667819 0.0608134 4.84136e-20)
(0.772422 0.0711751 1.41358e-20)
(0.870696 0.0816763 1.22601e-19)
(0.959751 0.0916 -5.34149e-20)
(1.03762 0.100352 2.83609e-21)
(1.10332 0.107519 1.16004e-19)
(1.15684 0.112879 2.33565e-20)
(1.19889 0.116394 -1.35191e-19)
(1.23072 0.118164 -9.44908e-20)
(1.25386 0.118387 1.72634e-19)
(1.26992 0.11731 -6.92369e-20)
(1.28045 0.115195 -4.79815e-21)
(1.2868 0.112289 -6.97475e-20)
(1.29013 0.108808 5.90685e-20)
(-0.0166409 0.0138784 -1.34879e-19)
(-0.0258239 0.0264922 -5.44232e-20)
(-0.0142554 0.0316305 1.253e-19)
(0.0157503 0.0322552 -1.43557e-19)
(0.0627095 0.0313494 -7.53178e-20)
(0.125305 0.0305568 5.66298e-20)
(0.202273 0.0311263 3.34049e-20)
(0.291927 0.0337884 -5.43165e-20)
(0.391911 0.0388868 7.57146e-21)
(0.499074 0.0463806 -4.36425e-20)
(0.609576 0.0558859 -2.23255e-20)
(0.719215 0.066749 -6.08924e-21)
(0.823893 0.0781612 8.10815e-20)
(0.920088 0.0892922 -1.26665e-19)
(1.00521 0.0994109 -1.05683e-19)
(1.07779 0.10797 -2.71734e-20)
(1.13742 0.114641 -5.90471e-21)
(1.18462 0.11931 5.37552e-20)
(1.2206 0.122041 -5.79652e-20)
(1.24693 0.123022 6.98829e-21)
(1.26533 0.122513 -1.46235e-19)
(1.27751 0.120801 3.80403e-21)
(1.28498 0.118162 8.05063e-20)
(1.28902 0.114844 2.35381e-20)
(1.29067 0.111052 -9.97862e-20)
(1.29069 0.10695 4.23708e-21)
(-0.0165896 0.0133081 -4.71634e-20)
(-0.0240068 0.0247855 7.56022e-20)
(-0.00927414 0.0292205 6.92827e-20)
(0.0250766 0.0295195 1.21316e-19)
(0.0774401 0.0287589 3.35499e-22)
(0.146298 0.0285641 -1.86341e-19)
(0.230079 0.0301627 1.39108e-20)
(0.32663 0.0342121 -3.18895e-20)
(0.432992 0.0409345 1.69692e-20)
(0.545344 0.0501222 2.27921e-19)
(0.659245 0.0612023 -1.77069e-20)
(0.770095 0.073348 -4.89542e-20)
(0.87369 0.0856287 -1.35136e-19)
(0.966712 0.0971647 7.44408e-20)
(1.04702 0.107248 3.28865e-20)
(1.11373 0.115411 1.22123e-19)
(1.16704 0.121435 2.98784e-20)
(1.20801 0.12532 2.992e-20)
(1.23824 0.127231 7.07585e-20)
(1.25955 0.127433 1.0444e-19)
(1.27381 0.126236 1.34113e-19)
(1.28269 0.123949 -3.3818e-20)
(1.28766 0.120854 -6.22549e-20)
(1.28986 0.117189 1.92259e-20)
(1.29022 0.113143 -3.69711e-21)
(1.28936 0.10886 7.59019e-20)
(-0.0164458 0.0126961 2.57462e-19)
(-0.0218313 0.0230073 -2.7361e-20)
(-0.00360738 0.0267759 -2.37038e-19)
(0.0354556 0.0268291 -7.97388e-20)
(0.0935993 0.026337 1.72136e-19)
(0.16905 0.0268945 1.45687e-19)
(0.25985 0.029691 9.03449e-20)
(0.363286 0.0352836 -9.32559e-21)
(0.475712 0.0437396 -1.30129e-19)
(0.592606 0.0546532 -6.96725e-20)
(0.708966 0.0672462 2.98389e-20)
(0.819908 0.0805241 -6.27454e-21)
(0.921288 0.0934613 7.60788e-20)
(1.01016 0.105167 -8.20216e-21)
(1.08495 0.114995 -2.71369e-21)
(1.14542 0.122586 -1.16726e-19)
(1.19237 0.127845 -1.49712e-19)
(1.22735 0.130889 -1.89997e-19)
(1.25226 0.131976 1.88789e-20)
(1.26912 0.131433 3.33901e-20)
(1.2798 0.129604 -1.10093e-19)
(1.28595 0.12681 1.27707e-19)
(1.28889 0.123326 2.62487e-21)
(1.28967 0.119373 -6.24072e-20)
(1.28905 0.115121 2.65113e-20)
(1.28755 0.110695 -8.03674e-20)
(1.28555 0.10618 -6.37529e-22)
(-0.0161971 0.0120406 -2.403e-19)
(-0.0192659 0.0211611 -1.58359e-20)
(0.00279228 0.0243111 8.42987e-20)
(0.0469435 0.0242122 4.989e-20)
(0.111238 0.0241259 -9.92559e-20)
(0.193582 0.0256012 -1.8814e-19)
(0.291542 0.0297677 -2.20497e-20)
(0.401746 0.0370495 1.036e-19)
(0.519791 0.0473225 -4.1851e-20)
(0.640449 0.0599542 1.66625e-21)
(0.758235 0.0739539 -5.92905e-20)
(0.868136 0.0881769 8.27169e-20)
(0.966243 0.101539 -6.66565e-20)
(1.05013 0.113181 7.75104e-20)
(1.11889 0.122554 -3.14835e-20)
(1.17295 0.129428 -1.20877e-19)