/*--------------------------------*- C++ -*----------------------------------*\
  =========                 |
  \\      /  F ield         | OpenFOAM: The Open Source CFD Toolbox
   \\    /   O peration     | Website:  https://openfoam.org
    \\  /    A nd           | Version:  7
     \\/     M anipulation  |
\*---------------------------------------------------------------------------*/
FoamFile
{
    version     2.0;
    format      ascii;
    class       volVectorField;
    location    "95";
    object      U;
}
// * * * * * * * * * * * * * * * * * * * * * * * * * * * * * * * * * * * * * //

dimensions      [0 1 -1 0 0 0 0];

internalField   nonuniform List<vector> 
42000
(
(-0.000304711 0.000116182 1.81294e-21)
(-0.00135463 0.00018223 -1.49298e-21)
(-0.00261663 0.000144725 1.14577e-22)
(-0.00324519 3.6167e-05 8.70604e-22)
(-0.00303912 -0.000118616 -2.24347e-21)
(-0.00177815 -0.000302758 -1.75818e-21)
(0.000608705 -0.000504068 3.62907e-21)
(0.00415002 -0.000713898 1.96956e-22)
(0.00882832 -0.000925934 2.1857e-21)
(0.0146014 -0.00113541 7.68221e-23)
(0.021408 -0.00133847 3.85801e-22)
(0.0291732 -0.00153167 -8.91711e-23)
(0.0378092 -0.00171154 1.17437e-22)
(0.0472153 -0.00187422 1.84391e-21)
(0.0572748 -0.00201523 1.16235e-21)
(0.067853 -0.00212924 -2.40434e-22)
(0.0787874 -0.00221012 4.31142e-22)
(0.0899119 -0.00225134 -1.71563e-21)
(0.100946 -0.00224375 -1.61888e-22)
(0.111852 -0.00219731 1.96244e-21)
(-0.000312137 0.000347295 3.57013e-21)
(-0.0013554 0.000543934 -3.18182e-21)
(-0.00259113 0.000430648 -3.85542e-22)
(-0.0031816 0.000104619 -3.3379e-21)
(-0.00292779 -0.000359732 7.07733e-21)
(-0.00161232 -0.000911914 -7.77632e-21)
(0.000834249 -0.00151541 -8.13499e-21)
(0.00443917 -0.00214433 1.35183e-21)
(0.00918408 -0.00277976 -3.60252e-21)
(0.0150261 -0.00340745 -1.66711e-21)
(0.0219036 -0.00401585 5.26732e-21)
(0.0297411 -0.00459464 -4.39965e-21)
(0.0384509 -0.00513342 2.12152e-21)
(0.0479319 -0.00562067 1.12412e-21)
(0.0580672 -0.00604293 -7.36644e-21)
(0.0687221 -0.00638425 -3.80534e-21)
(0.0797335 -0.00662617 -1.20043e-21)
(0.0909361 -0.00674907 -6.57116e-21)
(0.102041 -0.00672561 4.41879e-21)
(0.113044 -0.00658461 -7.52366e-22)
(-0.000326806 0.000574742 5.01775e-21)
(-0.00135652 0.000897419 9.59303e-21)
(-0.00253958 0.000705906 -6.69942e-21)
(-0.00305382 0.000161279 -4.75046e-21)
(-0.0027045 -0.000612708 -1.72419e-21)
(-0.00128001 -0.00153225 1.09138e-21)
(0.00128595 -0.00253666 1.31145e-20)
(0.00501802 -0.00358299 -1.32129e-21)
(0.00989607 -0.00463983 6.08313e-21)
(0.0158759 -0.00568351 -1.32922e-21)
(0.0228949 -0.00669488 6.50263e-21)
(0.0308771 -0.00765683 2.56815e-21)
(0.0397342 -0.00855209 5.58074e-21)
(0.0493647 -0.00936154 3.97418e-21)
(0.0596517 -0.0100628 1.74258e-20)
(0.0704596 -0.0106292 -1.45647e-22)
(0.0816249 -0.01103 -4.54506e-21)
(0.0929832 -0.0112323 -2.55262e-21)
(0.104229 -0.0111909 -6.27689e-21)
(0.115427 -0.0109503 1.51208e-20)
(-0.000348366 0.000796152 -7.52646e-22)
(-0.00135717 0.00123728 1.48001e-21)
(-0.00246089 0.00096343 4.51501e-21)
(-0.00286061 0.000198313 1.1665e-20)
(-0.00236795 -0.000885436 -7.50745e-21)
(-0.000779959 -0.0021712 6.51471e-21)
(0.00196501 -0.00357445 -1.65321e-20)
(0.00588767 -0.00503539 1.31979e-21)
(0.0109653 -0.0065103 -1.52065e-20)
(0.0171516 -0.00796628 -9.89123e-21)
(0.0243827 -0.0093767 -1.70242e-20)
(0.0325816 -0.0107178 -2.09511e-21)
(0.0416592 -0.0119654 -1.65498e-20)
(0.0515136 -0.0130931 -1.15057e-21)
(0.0620274 -0.0140695 2.50186e-21)
(0.0730646 -0.0148573 -8.80814e-24)
(0.0844599 -0.0154135 1.10799e-20)
(0.0960513 -0.0156913 6.70023e-21)
(0.107509 -0.0156285 -1.16011e-20)
(0.118997 -0.0152798 -4.86443e-21)
(-0.000376292 0.00100919 -6.63716e-21)
(-0.00135615 0.00155817 -5.60534e-21)
(-0.00235347 0.00119627 -4.06776e-21)
(-0.00260011 0.000208032 -8.89523e-21)
(-0.00191622 -0.00118565 5.92469e-21)
(-0.000110237 -0.00283605 3.26829e-21)
(0.00287325 -0.0046352 5.03439e-21)
(0.00704977 -0.00650683 -9.72068e-21)
(0.012393 -0.00839517 2.30443e-20)
(0.0188543 -0.0102583 2.46739e-20)
(0.0263676 -0.0120622 2.70615e-21)
(0.0348547 -0.0137767 5.25994e-21)
(0.0442257 -0.0153711 -1.00225e-20)
(0.054378 -0.0168115 1.39338e-20)
(0.0651933 -0.0180576 -3.12406e-21)
(0.0765351 -0.0190618 -7.72675e-21)
(0.0882362 -0.0197683 -4.93827e-21)
(0.100137 -0.0201163 1.1101e-20)
(0.111875 -0.0200273 5.87253e-21)
(0.123749 -0.0195589 -1.18956e-20)
(-0.000409892 0.00121155 6.62475e-21)
(-0.00135184 0.00185489 1.10141e-20)
(-0.00221516 0.00139763 -8.62019e-22)
(-0.00226989 0.000182926 -1.64788e-20)
(-0.00134673 -0.00152088 5.33302e-22)
(0.000731689 -0.00353386 -2.71681e-21)
(0.00401308 -0.00572515 -3.68192e-21)
(0.00850651 -0.00800242 1.3547e-21)
(0.0141813 -0.0102982 5.78246e-21)
(0.0209854 -0.0125618 -1.01413e-20)
(0.0288508 -0.0147522 -2.6265e-20)
(0.0376973 -0.0168328 2.40143e-20)
(0.0474338 -0.0187667 1.48829e-20)
(0.057957 -0.0205125 -1.84032e-20)
(0.0691479 -0.0220216 -1.75787e-20)
(0.080869 -0.0232355 -8.20559e-22)
(0.0929505 -0.024086 7.12863e-21)
(0.105237 -0.0244975 -5.72445e-21)
(0.117323 -0.0243761 1.3605e-21)
(0.129676 -0.023773 1.96341e-20)
(-0.00044831 0.001401 -1.71642e-20)
(-0.00134226 0.00212234 -6.47255e-21)
(-0.00204331 0.00156091 2.07814e-20)
(-0.00186692 0.000115709 3.03436e-20)
(-0.000656312 -0.00189843 -1.3605e-20)
(0.00174897 -0.00427145 -1.54058e-20)
(0.00538748 -0.00685025 -3.71821e-21)
(0.0102606 -0.00952701 1.77387e-20)
(0.0163324 -0.0122229 5.25593e-22)
(0.023547 -0.0148789 6.56104e-22)
(0.0318334 -0.0174471 1.20196e-20)
(0.0411098 -0.0198849 -5.8896e-21)
(0.0512834 -0.0221493 1.80347e-20)
(0.0622499 -0.0241919 4.54202e-21)
(0.0738893 -0.0259555 -1.83859e-20)
(0.0860631 -0.0273712 1.99231e-20)
(0.0985986 -0.0283579 5.05161e-21)
(0.111344 -0.0288246 2.20755e-20)
(0.123845 -0.0286637 1.19973e-20)
(0.136769 -0.0279076 -3.57273e-20)
(-0.00049053 0.00157538 2.65521e-22)
(-0.00132503 0.00235562 1.26924e-20)
(-0.00183476 0.00167974 -3.81913e-21)
(-0.00138758 -6.31307e-07 -3.01123e-20)
(0.000158812 -0.00232527 2.89454e-20)
(0.00294535 -0.00505531 -3.26069e-22)
(0.007 -0.00801616 2.35749e-20)
(0.0123152 -0.0110851 -1.64774e-20)
(0.0188491 -0.0141725 -2.6537e-21)
(0.0265411 -0.0172112 5.59494e-21)
(0.0353172 -0.0201471 9.2638e-21)
(0.045093 -0.0229316 -2.09136e-20)
(0.0557743 -0.0255159 -6.61012e-21)
(0.0672553 -0.0278449 1.44667e-20)
(0.0794151 -0.0298532 2.82834e-20)
(0.092114 -0.0314612 -7.92e-21)
(0.105176 -0.0325752 -1.37294e-20)
(0.118453 -0.0330874 -5.30978e-20)
(0.131434 -0.0328785 -7.06858e-21)
(0.145019 -0.0319483 4.68473e-21)
(-0.000535381 0.0017326 5.65877e-22)
(-0.00129744 0.00255002 -3.58733e-21)
(-0.00158586 0.00174801 -1.19375e-20)
(-0.0008277 -0.000172787 2.07094e-20)
(0.001103 -0.00280806 -4.13957e-20)
(0.00432515 -0.00589158 2.14512e-20)
(0.00885472 -0.00922815 -2.55887e-20)
(0.0146741 -0.0126809 -1.72015e-20)
(0.0217345 -0.0161498 -3.58181e-20)
(0.0299703 -0.0195602 3.31538e-21)
(0.0393037 -0.0228519 -1.62152e-20)
(0.0496477 -0.0259709 8.92049e-21)
(0.0609062 -0.0288629 -2.21603e-20)
(0.0729719 -0.0314665 2.65168e-20)
(0.0857227 -0.033708 1.6595e-21)
(0.0990173 -0.0354975 -3.67591e-20)
(0.112676 -0.0367284 -2.04012e-20)
(0.126556 -0.0372754 2.45986e-21)
(0.14008 -0.0370092 -2.07883e-20)
(0.154411 -0.0358804 -5.70447e-21)
(-0.000581544 0.00187068 -2.44191e-21)
(-0.0012564 0.00270106 1.03403e-20)
(-0.0012925 0.00175993 -9.64901e-21)
(-0.000182585 -0.00040708 -2.5167e-20)
(0.00218119 -0.00335303 3.49761e-20)
(0.00589323 -0.00678599 -2.18809e-20)
(0.0109562 -0.0104911 1.12248e-20)
(0.0173413 -0.014318 4.48692e-20)
(0.0249922 -0.0181573 1.58072e-20)
(0.0338374 -0.0219268 1.63915e-20)
(0.043795 -0.0255609 3.76987e-20)
(0.0547749 -0.0290007 -1.56132e-20)
(0.0666789 -0.0321867 1.28327e-20)
(0.079398 -0.0350512 -4.94295e-20)
(0.0928087 -0.037513 1.38599e-20)
(0.106768 -0.0394719 5.51934e-21)
(0.121092 -0.0408082 5.11152e-20)
(0.135645 -0.0413779 3.00631e-20)
(0.149773 -0.0410439 2.81299e-21)
(0.164934 -0.0396896 9.99763e-21)
(-0.000627558 0.00198774 1.49156e-20)
(-0.00119849 0.0028045 -6.94728e-20)
(-0.000950114 0.00171007 4.42512e-20)
(0.00055298 -0.000709419 -1.30426e-20)
(0.00339882 -0.00396598 -2.40594e-20)
(0.007655 -0.00774376 3.95608e-20)
(0.0133096 -0.0118093 1.91988e-21)
(0.0203216 -0.0159998 -1.72515e-20)
(0.0286261 -0.0201967 1.1657e-20)
(0.0381454 -0.0243115 -2.39996e-20)
(0.048793 -0.0282731 -7.15453e-20)
(0.0604754 -0.0320183 -1.84987e-20)
(0.0730918 -0.0354827 -8.76968e-21)
(0.0865316 -0.0385931 2.71649e-20)
(0.100669 -0.0412608 -4.19378e-20)
(0.115361 -0.0433756 1.01787e-20)
(0.130416 -0.0448046 -1.50613e-21)
(0.145708 -0.0453836 -1.73025e-20)
(0.160498 -0.0449709 1.16343e-20)
(0.17657 -0.0433614 -2.7644e-20)
(-0.000671825 0.00208203 -5.59988e-22)
(-0.00111999 0.00285639 5.05159e-20)
(-0.000553717 0.00159338 -2.41429e-20)
(0.0013847 -0.00108527 -9.25323e-23)
(0.00476185 -0.00465221 1.29722e-20)
(0.00961634 -0.00876963 -6.88286e-20)
(0.0159205 -0.0131866 2.34644e-20)
(0.0236198 -0.017729 -1.00911e-20)
(0.0326404 -0.0222696 -1.77568e-20)
(0.0428976 -0.0267142 5.75053e-20)
(0.0542999 -0.0309869 2.62071e-20)
(0.06675 -0.0350204 5.78474e-20)
(0.0801444 -0.0387461 1.4687e-20)
(0.0943703 -0.0420858 -2.05354e-20)
(0.1093 -0.0449435 2.56615e-20)
(0.124789 -0.0471992 2.32045e-20)
(0.14064 -0.048707 -1.00104e-21)
(0.156734 -0.0492813 -1.5271e-20)
(0.172243 -0.0487781 3.97332e-20)
(0.189301 -0.0468812 1.18472e-20)
(-0.000712626 0.0021519 2.04778e-20)
(-0.00101686 0.00285306 -4.0233e-20)
(-9.79199e-05 0.00140523 -2.33445e-20)
(0.00231872 -0.0015396 6.47986e-20)
(0.00627672 -0.00541649 -2.58252e-21)
(0.0117836 -0.00986777 5.75331e-20)
(0.0187947 -0.0146263 -2.96611e-20)
(0.0272413 -0.0195076 8.99881e-21)
(0.0370396 -0.0243768 7.0742e-20)
(0.0480975 -0.0291342 -5.84836e-20)
(0.0603179 -0.0337 1.87548e-20)
(0.0735995 -0.0380032 -4.68513e-20)
(0.0878357 -0.0419716 3.02989e-20)
(0.102911 -0.0455222 -2.51765e-20)
(0.118697 -0.0485526 -3.25878e-20)
(0.135045 -0.0509331 -1.0633e-20)
(0.151753 -0.0525049 -3.07561e-20)
(0.168712 -0.0530591 3.1537e-20)
(0.184992 -0.0524532 -8.23399e-20)
(0.203107 -0.0502348 3.24247e-20)
(-0.000748125 0.00219587 -2.57441e-20)
(-0.000884796 0.0027912 6.1891e-20)
(0.000423057 0.0011414 2.64703e-20)
(0.00336163 -0.00207685 -5.24241e-20)
(0.00795031 -0.00626298 1.30082e-21)
(0.0141636 -0.0110417 7.91486e-21)
(0.0219387 -0.0161311 -1.45934e-21)
(0.0311918 -0.0213372 -5.3022e-20)
(0.0418285 -0.0265185 -8.40523e-20)
(0.0537488 -0.0315704 2.55352e-20)
(0.0668494 -0.0364097 3.52568e-20)
(0.0810247 -0.0409625 1.57546e-20)
(0.0961647 -0.0451533 -4.8309e-20)
(0.112152 -0.0488949 1.69008e-20)
(0.128854 -0.0520791 2.48035e-20)
(0.146121 -0.0545668 -2.52267e-20)
(0.163745 -0.0561866 -6.37628e-21)
(0.181626 -0.0567049 2.43369e-20)
(0.198728 -0.0559839 5.71868e-20)
(0.217967 -0.0534077 -2.49802e-20)
(-0.000776367 0.00221258 -1.64199e-20)
(-0.000719245 0.00266787 -1.09325e-21)
(0.00101532 0.000798143 -4.23962e-20)
(0.0045204 -0.00270091 6.10482e-20)
(0.00978989 -0.00719526 1.15658e-20)
(0.0167634 -0.0122944 -3.23612e-20)
(0.0253592 -0.0177029 3.81916e-20)
(0.0354772 -0.0232186 2.48486e-20)
(0.0470121 -0.0286941 5.16671e-21)
(0.059855 -0.0340209 -8.87189e-21)
(0.0738966 -0.0391127 -3.64981e-21)
(0.0890262 -0.0438932 2.57988e-20)
(0.10513 -0.0482844 6.6234e-20)
(0.122087 -0.0521956 5.30519e-20)
(0.139764 -0.0555133 -4.95101e-20)
(0.158008 -0.0580895 -3.48034e-20)
(0.176603 -0.0597405 3.26986e-20)
(0.195462 -0.0602061 -5.20229e-20)
(0.213431 -0.0593575 1.01432e-21)
(0.233857 -0.0563859 -2.22922e-20)
(-0.000795288 0.0022008 4.24443e-20)
(-0.000515403 0.00248045 -3.49833e-20)
(0.0016853 0.00037228 2.19697e-20)
(0.00580238 -0.00341503 -3.45063e-20)
(0.0118031 -0.00821622 -2.60801e-20)
(0.0195905 -0.013628 2.23086e-20)
(0.0290631 -0.019343 -6.48701e-20)
(0.0401038 -0.0251521 4.77753e-20)
(0.0525954 -0.0309028 -2.7349e-20)
(0.0664201 -0.0364832 -9.50025e-22)
(0.0814617 -0.041805 -2.73603e-20)
(0.0976042 -0.0467898 -2.92421e-20)
(0.11473 -0.0513578 -6.63927e-20)
(0.132715 -0.0554156 -4.45477e-20)
(0.151422 -0.0588449 6.29473e-20)
(0.170696 -0.0614897 1.50053e-20)
(0.190315 -0.0631541 1.40559e-20)
(0.210202 -0.0635498 3.81888e-20)
(0.229081 -0.0625611 1.22884e-20)
(0.25075 -0.0591552 -1.29127e-20)
(-0.000802738 0.00215952 -2.50197e-20)
(-0.000268243 0.00222668 2.14765e-20)
(0.00243968 -0.000138874 1.93846e-20)
(0.0072152 -0.00422187 3.18647e-22)
(0.0139979 -0.00932807 6.61713e-20)
(0.0226528 -0.015044 -1.07206e-20)
(0.0330578 -0.0210519 1.71322e-20)
(0.0450778 -0.0271369 2.37813e-20)
(0.0585836 -0.0331424 -3.37907e-21)
(0.0734478 -0.0389541 3.75087e-20)
(0.0895468 -0.0444817 1.18562e-22)
(0.106759 -0.049646 -4.57456e-20)
(0.124962 -0.0543657 -1.64003e-20)
(0.144028 -0.0585455 4.05068e-20)
(0.163818 -0.0620631 -2.33086e-20)
(0.184174 -0.0647551 1.88315e-20)
(0.204865 -0.0664143 1.72564e-20)
(0.225827 -0.0667224 -4.77007e-20)
(0.245655 -0.0655816 1.44684e-20)
(0.268618 -0.0617018 8.57248e-20)
(-0.000796508 0.00208787 1.93036e-20)
(2.74469e-05 0.00190471 -1.33497e-22)
(0.00328544 -0.000737454 -7.22302e-21)
(0.0087668 -0.00512342 1.30175e-21)
(0.0163825 -0.0105323 6.1077e-21)
(0.0259583 -0.0165432 -2.95127e-20)
(0.0373505 -0.0228294 -9.03224e-21)
(0.0504058 -0.0291719 -6.58227e-20)
(0.0649821 -0.0354106 6.68526e-20)
(0.0809417 -0.0414296 -1.02603e-20)
(0.0981537 -0.0471376 1.02579e-20)
(0.11649 -0.0524549 1.05632e-20)
(0.135824 -0.0572996 6.29239e-21)
(0.156023 -0.0615751 -6.37581e-20)
(0.176945 -0.0651562 -3.67051e-20)
(0.19843 -0.0678729 4.95274e-20)
(0.220237 -0.0695076 -6.81306e-20)
(0.242318 -0.06971 1.17645e-20)
(0.26313 -0.0684058 -7.47798e-20)
(0.287431 -0.0640121 -5.73917e-20)
(-0.000774309 0.00198516 2.88237e-20)
(0.000377029 0.00151311 -1.69486e-20)
(0.00422974 -0.00142502 -3.37235e-20)
(0.0104653 -0.00612098 1.26371e-20)
(0.0189654 -0.0118297 -1.2516e-19)
(0.0295153 -0.0181255 6.93155e-20)
(0.041949 -0.0246745 8.77984e-20)
(0.0560943 -0.0312547 5.30978e-20)
(0.0717959 -0.0377038 2.51036e-20)
(0.0889056 -0.0439049 1.534e-20)
(0.107284 -0.0497666 -2.06643e-20)
(0.126797 -0.0552089 -1.11753e-20)
(0.147312 -0.0601503 -6.2731e-20)
(0.168693 -0.0644937 8.46502e-20)
(0.190794 -0.0681121 3.06393e-20)
(0.21345 -0.0708298 -6.68315e-20)
(0.236414 -0.0724197 1.51309e-20)
(0.259652 -0.0724982 2.36199e-20)
(0.281478 -0.07102 6.45823e-20)
(0.307157 -0.0660725 9.7314e-21)
(-0.000733791 0.00185084 -6.59907e-20)
(0.000786006 0.0010509 -5.24489e-20)
(0.00527995 -0.00220255 -6.34614e-20)
(0.0123192 -0.00721515 2.03522e-20)
(0.0217552 -0.0132201 4.42258e-20)
(0.033332 -0.0197899 4.13112e-21)
(0.0468608 -0.0265853 -8.92293e-20)
(0.06215 -0.0333824 -5.59363e-20)
(0.0790302 -0.0400179 -8.69298e-20)
(0.0973426 -0.0463748 -4.44272e-20)
(0.116939 -0.0523617 2.4317e-20)
(0.137679 -0.0578997 5.12212e-20)
(0.159423 -0.0629081 9.27108e-20)
(0.182032 -0.0672901 -3.65274e-20)
(0.205353 -0.0709181 4.21888e-20)
(0.229221 -0.0736117 -3.44061e-20)
(0.253377 -0.0751359 -1.9643e-21)
(0.277806 -0.0750723 -1.87934e-20)
(0.300672 -0.0734105 6.05904e-21)
(0.327761 -0.0678701 2.25861e-20)
(-0.000672557 0.00168456 3.69925e-20)
(0.00126 0.000517485 5.9625e-20)
(0.00644357 -0.0030704 2.85042e-20)
(0.0143368 -0.00840582 -1.89548e-20)
(0.0247607 -0.0147028 4.64742e-20)
(0.0374169 -0.0215349 1.74219e-20)
(0.0520937 -0.0285591 -5.56135e-21)
(0.0685792 -0.0355513 1.75105e-20)
(0.08669 -0.042348 5.72179e-20)
(0.106256 -0.0488328 -2.35855e-20)
(0.12712 -0.0549155 -4.44141e-20)
(0.149134 -0.0605185 -5.88683e-20)
(0.172152 -0.0655625 -7.57362e-20)
(0.19603 -0.0699524 3.73425e-20)
(0.220611 -0.0735606 8.80497e-21)
(0.245726 -0.0762039 4.3895e-20)
(0.271106 -0.0776407 4.1685e-20)
(0.296754 -0.0774166 -5.7048e-20)
(0.320683 -0.0755632 -1.09026e-20)
(0.349207 -0.069392 7.07031e-20)
(-0.000588171 0.00148614 1.47344e-20)
(0.0018047 -8.72515e-05 -9.18418e-21)
(0.00772817 -0.00402832 7.65303e-20)
(0.0165267 -0.00969212 -1.08552e-19)
(0.0279906 -0.016276 -7.43244e-20)
(0.0417786 -0.0233578 -5.99985e-20)
(0.0576552 -0.0305922 3.12307e-20)
(0.0753884 -0.0377566 2.77787e-20)
(0.0947801 -0.0446882 -4.1814e-21)
(0.115648 -0.0512721 1.67485e-20)
(0.137827 -0.0574197 4.56061e-20)
(0.16116 -0.0630556 1.12088e-19)
(0.185495 -0.0681027 2.1654e-20)
(0.210681 -0.0724681 -2.5111e-20)
(0.236556 -0.076026 6.53498e-21)
(0.262948 -0.0785913 3.31277e-20)
(0.289579 -0.0799183 4.95729e-20)
(0.31647 -0.0795155 4.81368e-20)
(0.341478 -0.077464 2.94478e-20)
(0.371455 -0.0706259 -1.26821e-20)
(-0.000478172 0.00125562 -1.33444e-20)
(0.00242587 -0.000762997 -9.50943e-20)
(0.00914143 -0.00507544 -1.22783e-19)
(0.0188977 -0.0110724 9.95371e-20)
(0.0314539 -0.0179374 2.49354e-20)
(0.0464255 -0.0252552 1.06905e-19)
(0.063553 -0.0326803 -6.46312e-20)
(0.0825836 -0.0399929 -3.44268e-20)
(0.103305 -0.0470319 -1.55915e-20)
(0.125522 -0.0536848 -6.63637e-21)
(0.14906 -0.0598655 -9.81962e-21)
(0.173753 -0.0655009 -1.13514e-19)
(0.199444 -0.0705171 9.08171e-21)
(0.225973 -0.0748244 -1.48023e-20)
(0.253174 -0.0782997 -5.79086e-21)
(0.28087 -0.0807581 -2.25447e-20)
(0.308773 -0.081952 -8.19549e-20)
(0.336925 -0.0813525 2.08659e-20)
(0.363023 -0.0790983 -5.86623e-20)
(0.394465 -0.0715595 -2.45533e-21)
(-0.000340086 0.000993167 5.34348e-20)
(0.0031293 -0.00150899 9.84264e-20)
(0.010691 -0.00621023 1.3261e-19)
(0.0214584 -0.0125444 -8.89371e-20)
(0.0351594 -0.0196836 -2.53847e-20)
(0.0513658 -0.0272227 -1.21738e-19)
(0.0697942 -0.034818 1.29697e-19)
(0.0901708 -0.0422536 1.01944e-20)
(0.112268 -0.0493717 1.43072e-20)
(0.135879 -0.0560625 -1.48512e-20)
(0.160818 -0.0622431 -4.35869e-20)
(0.186911 -0.0678436 1.26038e-19)
(0.213992 -0.0727938 -8.03635e-20)
(0.241896 -0.077008 4.43294e-20)
(0.270449 -0.0803671 2.98665e-20)
(0.299471 -0.0826884 -2.21127e-20)
(0.328662 -0.0837249 1.13106e-20)
(0.358087 -0.0829108 -2.13569e-20)
(0.385283 -0.0804514 5.61168e-20)
(0.418196 -0.0721813 -1.2527e-20)
(-0.000171431 0.000699176 8.29954e-21)
(0.00392076 -0.00232399 -6.7338e-20)
(0.0123846 -0.00743056 -1.54581e-20)
(0.0242173 -0.0141048 1.73879e-19)
(0.0391156 -0.0215103 -2.94676e-20)
(0.0566077 -0.0292552 5.73414e-20)
(0.076386 -0.036999 -1.23877e-19)
(0.0981555 -0.0445316 1.65531e-20)
(0.121673 -0.0516992 -2.23083e-20)
(0.14672 -0.0583959 4.09603e-20)
(0.1731 -0.0645424 5.01888e-20)
(0.200629 -0.0700726 -1.47058e-19)
(0.229133 -0.0749205 2.04287e-20)
(0.258439 -0.0790053 8.47905e-20)
(0.288367 -0.0822133 -3.99265e-20)
(0.31873 -0.0843657 1.34963e-20)
(0.349221 -0.0852198 7.96516e-20)
(0.379924 -0.0841731 -2.77659e-20)
(0.40822 -0.0815083 -5.56322e-20)
(0.442601 -0.0724799 -4.92026e-20)
(3.02667e-05 0.000374207 3.16402e-20)
(0.00480604 -0.00320635 3.0128e-20)
(0.0142298 -0.00873361 -6.38434e-20)
(0.0271829 -0.0157499 -9.78809e-20)
(0.0433312 -0.0234127 1.15343e-19)
(0.0621591 -0.0313465 2.18254e-20)
(0.083335 -0.0392162 -4.31559e-20)
(0.106543 -0.0468187 3.52439e-22)
(0.131524 -0.0540053 8.2098e-20)
(0.158046 -0.060675 1.00453e-19)
(0.185902 -0.0667525 -7.81546e-20)
(0.2149 -0.0721761 4.22104e-20)
(0.244855 -0.0768846 1.81566e-20)
(0.275587 -0.0808026 7.88855e-21)
(0.306907 -0.0838233 -6.10796e-20)
(0.338624 -0.0857737 -7.90426e-20)
(0.37042 -0.0864188 1.66474e-20)
(0.402402 -0.0851216 -1.72958e-20)
(0.431795 -0.0822536 2.06484e-20)
(0.467635 -0.0724444 4.93154e-20)
(0.000267467 1.90067e-05 -3.15176e-20)
(0.00579082 -0.00415392 2.6876e-20)
(0.0162341 -0.010116 1.26882e-20)
(0.0303635 -0.0174748 1.02869e-19)
(0.0478143 -0.0253847 -1.09185e-19)
(0.0680277 -0.0334896 -9.0356e-20)
(0.0906476 -0.0414614 1.74244e-20)
(0.115337 -0.0491059 -3.88324e-20)
(0.141821 -0.0562803 1.21023e-20)
(0.169856 -0.0628891 -1.59599e-19)
(0.199222 -0.068862 5.30854e-20)
(0.229717 -0.074142 1.89596e-20)
(0.261149 -0.0786731 9.33363e-20)
(0.293326 -0.0823861 -3.62387e-20)
(0.326053 -0.085182 -1.56834e-20)
(0.35913 -0.0868958 1.03535e-19)
(0.392231 -0.0873042 -1.13845e-19)
(0.425484 -0.0857383 9.1545e-21)
(0.455967 -0.0826717 2.45478e-20)
(0.493251 -0.072064 5.31398e-20)
(0.000542601 -0.000365498 -5.75794e-20)
(0.00688073 -0.00516413 2.11182e-20)
(0.0184049 -0.0115735 -1.25897e-20)
(0.0337673 -0.0192741 -1.76007e-19)
(0.0525731 -0.0274198 6.59796e-20)
(0.0742205 -0.0356768 3.43929e-20)
(0.0983296 -0.0437259 -2.23191e-20)
(0.124542 -0.0513833 7.78237e-20)
(0.152568 -0.0585133 -7.84309e-20)
(0.182149 -0.0650268 1.63724e-19)
(0.213055 -0.0708589 -1.05584e-19)
(0.245074 -0.0759579 -1.37367e-19)
(0.278002 -0.0802731 -3.73491e-20)
(0.31164 -0.0837422 6.06104e-21)
(0.345782 -0.0862749 9.17496e-20)
(0.380222 -0.087716 -9.69273e-20)
(0.414622 -0.0878582 5.86864e-20)
(0.449132 -0.0860047 1.97608e-21)
(0.480695 -0.0827463 2.11646e-20)
(0.519397 -0.0713281 -1.56681e-19)
(0.000858065 -0.000778201 9.64775e-20)
(0.00808129 -0.00623394 -7.38666e-20)
(0.0207493 -0.0131016 6.50433e-20)
(0.037402 -0.0211417 1.08181e-19)
(0.0576151 -0.0295103 -6.53919e-20)
(0.0807444 -0.0378991 6.27687e-20)
(0.106386 -0.0459998 4.77015e-20)
(0.134161 -0.0536403 -6.08275e-20)
(0.163764 -0.0606931 -4.76604e-20)
(0.194922 -0.0670763 -9.09782e-20)
(0.227395 -0.0727309 1.62049e-19)
(0.260959 -0.0776109 1.58667e-19)
(0.295401 -0.0816716 -6.11805e-20)
(0.330511 -0.0848575 5.28736e-20)
(0.366073 -0.0870877 3.52846e-20)
(0.401872 -0.0882188 4.96075e-20)
(0.43756 -0.0880632 -3.07325e-20)
(0.473309 -0.0859021 2.07198e-20)
(0.505935 -0.0824604 7.26558e-20)
(0.546024 -0.0702259 -4.47718e-21)
(0.00121621 -0.00121782 -1.08719e-19)
(0.00939786 -0.00735989 2.32937e-20)
(0.0232743 -0.0146948 -3.08158e-20)
(0.0412753 -0.0230705 -1.61423e-20)
(0.0629476 -0.0316479 1.05672e-20)
(0.0876055 -0.0401471 -2.53877e-20)
(0.114822 -0.0482725 -6.46904e-20)
(0.144197 -0.0558653 9.64154e-20)
(0.175409 -0.0628073 1.1688e-19)
(0.208172 -0.0690247 8.65699e-20)
(0.242235 -0.0744651 -1.37301e-19)
(0.277363 -0.0790884 -1.17149e-19)
(0.313331 -0.0828558 -2.08173e-20)
(0.349919 -0.0857191 -4.07396e-20)
(0.386901 -0.0876071 5.27634e-20)
(0.424051 -0.0883895 -3.52658e-20)
(0.461013 -0.0879024 2.30908e-20)
(0.497973 -0.0854117 1.98196e-20)
(0.531644 -0.0817961 -1.30192e-19)
(0.573078 -0.0687464 1.0942e-20)
(0.00161933 -0.00168291 -2.05927e-20)
(0.0108357 -0.00853807 1.43588e-19)
(0.0259866 -0.0163473 1.84518e-20)
(0.0453941 -0.0250529 -5.05066e-20)
(0.0685773 -0.0338233 -7.84057e-20)
(0.0948096 -0.0424102 1.87615e-20)
(0.123641 -0.0505325 8.71471e-20)
(0.154651 -0.058046 -3.16661e-20)
(0.187502 -0.0648433 -8.46387e-20)
(0.221895 -0.0708591 -3.35687e-20)
(0.257567 -0.0760483 9.67995e-20)
(0.294272 -0.0803772 -3.47159e-20)
(0.331774 -0.083813 4.5558e-21)
(0.369843 -0.0863148 -7.56847e-20)
(0.408241 -0.0878209 2.4278e-20)
(0.44673 -0.0882149 8.04038e-20)
(0.484946 -0.0873598 4.43001e-20)
(0.523083 -0.0845151 -7.75332e-20)
(0.557779 -0.0807339 -4.41682e-20)
(0.600505 -0.0668776 1.89926e-20)
(0.00206967 -0.00217185 -1.10744e-20)
(0.0123997 -0.00976415 -1.78099e-19)
(0.0288924 -0.0180524 1.1965e-20)
(0.0497653 -0.0270805 -4.91793e-20)
(0.0745104 -0.0360267 -3.26372e-20)
(0.102361 -0.0446773 -4.95823e-20)
(0.132846 -0.0527675 5.39227e-20)
(0.165523 -0.0601695 -4.81593e-21)
(0.20004 -0.0667874 -4.75384e-20)
(0.236085 -0.0725657 -3.47487e-21)
(0.273381 -0.077467 1.01598e-19)
(0.311672 -0.0814642 1.6844e-20)
(0.350713 -0.0845311 6.89125e-20)
(0.39026 -0.0866331 9.13062e-20)
(0.430064 -0.087718 -3.38076e-20)
(0.469876 -0.0876837 -5.82051e-20)
(0.509323 -0.0864212 -1.91357e-20)
(0.548598 -0.0831943 -6.93912e-20)
(0.584299 -0.0792524 5.28085e-21)
(0.628248 -0.064606 3.00666e-20)
(0.00256938 -0.00268286 -1.88219e-20)
(0.0140948 -0.0110334 5.36416e-20)
(0.0319978 -0.0198031 -6.92806e-20)
(0.0543951 -0.0291441 6.64188e-20)
(0.0807524 -0.0382472 1.18134e-19)
(0.110265 -0.0469363 1.30859e-19)
(0.142439 -0.0549645 -2.81513e-20)
(0.176813 -0.0622221 5.64085e-20)
(0.21302 -0.0686257 -6.63459e-20)
(0.250733 -0.0741305 -4.6671e-20)
(0.289665 -0.0787074 -5.07619e-20)
(0.329548 -0.0823366 1.02016e-19)
(0.370125 -0.084998 -2.87684e-20)
(0.411143 -0.0866637 -6.97302e-20)
(0.452341 -0.0872894 6.58241e-20)
(0.493457 -0.0867867 -8.14492e-20)
(0.534108 -0.0850748 -4.38814e-20)
(0.574477 -0.0814326 1.25462e-19)
(0.611166 -0.0773269 3.03131e-20)
(0.656247 -0.0619155 -4.39057e-20)
(0.00312056 -0.003214 1.11043e-19)
(0.0159254 -0.0123407 5.53053e-20)
(0.0353085 -0.0215917 8.931e-20)
(0.0592891 -0.0312339 1.25911e-20)
(0.0873084 -0.0404736 3.07134e-20)
(0.118525 -0.0491745 -3.12488e-20)
(0.152422 -0.0571098 -3.44551e-20)
(0.18852 -0.0641893 -8.07864e-20)
(0.226437 -0.0703434 -1.86474e-20)
(0.265832 -0.0755388 -2.16624e-20)
(0.306406 -0.0797555 6.45136e-21)
(0.34788 -0.0829814 -4.12538e-20)
(0.389988 -0.0852026 -1.00131e-19)
(0.432464 -0.0863972 2.63108e-20)
(0.475039 -0.0865281 -6.98786e-20)
(0.517435 -0.0855183 -7.92227e-21)
(0.559263 -0.0833123 8.73158e-20)
(0.600681 -0.079216 -1.70219e-20)
(0.638345 -0.0749283 6.32777e-21)
(0.68444 -0.0587858 -2.89998e-20)
(0.00372519 -0.00376318 -3.71217e-20)
(0.0178959 -0.0136804 -1.94003e-20)
(0.0388295 -0.02341 -4.57425e-20)
(0.0644525 -0.0333396 7.48186e-20)
(0.0941824 -0.0426935 -6.22176e-20)
(0.127142 -0.0513783 4.0002e-20)
(0.162795 -0.059189 -1.66565e-21)
(0.200641 -0.0660561 -1.29539e-19)
(0.240284 -0.0719253 5.29081e-20)
(0.28137 -0.0767757 2.89137e-20)
(0.323588 -0.0805972 -4.74376e-20)
(0.366649 -0.0833856 -3.39568e-20)
(0.410276 -0.0851339 1.67421e-19)
(0.454194 -0.0858257 -4.20483e-21)
(0.498123 -0.0854292 3.42202e-20)
(0.541773 -0.0838764 5.18683e-20)
(0.584752 -0.0811304 -2.34968e-20)
(0.627172 -0.0765352 -8.73635e-20)
(0.665815 -0.0720223 1.18125e-19)
(0.712761 -0.0551935 1.05281e-20)
(0.00438516 -0.00432815 1.03227e-19)
(0.0200102 -0.0150467 9.57321e-21)
(0.0425656 -0.0252491 5.04472e-20)
(0.0698897 -0.0354502 -5.58303e-20)
(0.101378 -0.0448943 -4.29758e-20)
(0.136119 -0.0535338 -4.08588e-20)
(0.173556 -0.061187 -5.36679e-20)
(0.213172 -0.0678071 4.70026e-20)
(0.254554 -0.0733559 7.2654e-20)
(0.297336 -0.0778259 -1.92977e-20)
(0.341196 -0.081218 4.24393e-21)
(0.385833 -0.0835368 8.8124e-20)
(0.430961 -0.0847819 -1.6186e-19)
(0.476298 -0.0849425 3.5024e-20)
(0.521554 -0.0839905 6.127e-20)
(0.566431 -0.0818634 -4.94224e-20)
(0.610535 -0.0785325 2.00589e-20)
(0.653915 -0.0733887 5.81357e-20)
(0.693565 -0.0685708 -1.09547e-19)
(0.741145 -0.0511145 7.53133e-20)
(0.00510225 -0.00490654 -1.60045e-19)
(0.0222719 -0.0164332 -3.93071e-20)
(0.0465207 -0.0270999 2.9086e-20)
(0.0756044 -0.037554 -4.79567e-20)
(0.108897 -0.0470626 5.45409e-20)
(0.145456 -0.0556261 -1.4143e-20)
(0.184704 -0.0630883 3.60819e-20)
(0.226107 -0.0694261 6.62484e-20)
(0.269237 -0.0746189 -1.38966e-19)
(0.313716 -0.078674 1.01733e-19)
(0.35921 -0.0816037 -3.61685e-21)
(0.405407 -0.0834222 -6.54035e-20)
(0.452013 -0.0841369 1.65944e-19)
(0.498739 -0.0837421 -3.27767e-20)
(0.545291 -0.0822124 -6.68105e-21)
(0.591364 -0.0794869 4.28331e-20)
(0.63657 -0.0755312 4.08164e-20)
(0.680879 -0.0697876 -2.33262e-21)
(0.721599 -0.0645281 6.56652e-20)
(0.769519 -0.0464973 3.64912e-20)
(0.00587824 -0.00549599 -2.50953e-20)
(0.0246844 -0.0178337 -4.23513e-20)
(0.0506988 -0.0289529 -4.73411e-20)
(0.0815999 -0.0396392 1.05099e-19)
(0.116742 -0.0491845 1.4557e-20)
(0.155152 -0.0576401 3.72909e-20)
(0.196236 -0.0648768 6.20129e-20)
(0.23944 -0.0708968 -3.2309e-20)
(0.284324 -0.0756983 4.78986e-21)
(0.330495 -0.0793043 -9.11315e-20)
(0.377609 -0.0817399 -1.53525e-20)
(0.425345 -0.0830297 3.30545e-20)
(0.4734 -0.0831897 -6.49112e-20)
(0.52148 -0.0822202 4.15562e-20)
(0.569288 -0.0800979 3.72323e-20)
(0.616522 -0.0767599 2.19158e-20)
(0.662811 -0.0721512 -1.1632e-20)
(0.708036 -0.0657625 -9.77675e-20)
(0.74993 -0.0598207 -6.79598e-20)
(0.797743 -0.0411815 -3.87334e-20)
(0.00671497 -0.00609424 1.05111e-19)
(0.0272509 -0.0192415 4.77768e-20)
(0.0551032 -0.0307984 8.3128e-20)
(0.0878789 -0.0416935 -9.58425e-20)
(0.124915 -0.0512461 -4.4773e-21)
(0.165208 -0.0595606 -4.85765e-20)
(0.208148 -0.0665364 -3.5937e-20)
(0.253164 -0.0722027 9.59493e-20)
(0.299801 -0.0765778 2.2112e-19)
(0.347656 -0.0797013 -2.30749e-20)
(0.396372 -0.0816124 2.0095e-20)
(0.445618 -0.0823473 -6.5567e-20)
(0.495086 -0.0819317 -3.01982e-20)
(0.544476 -0.0803732 -8.09104e-20)
(0.593495 -0.0776516 -4.84435e-20)
(0.641849 -0.0737008 -2.3951e-20)
(0.689205 -0.0684334 8.71951e-22)
(0.735373 -0.0613734 -1.67262e-19)
(0.778627 -0.0543545 1.05598e-19)
(0.825615 -0.034991 -8.25501e-21)
(0.00761307 -0.00669787 -1.40226e-20)
(0.029973 -0.0206487 -8.79406e-20)
(0.0597353 -0.0326251 -1.32656e-19)
(0.0944419 -0.0437032 -3.51103e-20)
(0.133413 -0.0532317 -5.02034e-20)
(0.175619 -0.0613706 3.08875e-20)
(0.220433 -0.0680494 2.0142e-20)
(0.267268 -0.073326 -3.10896e-20)
(0.315656 -0.0772398 -1.82774e-19)
(0.36518 -0.0798484 1.90638e-19)
(0.415473 -0.0812062 5.66622e-20)
(0.466196 -0.0813623 -8.91396e-20)
(0.517032 -0.0803537 1.00596e-19)
(0.567681 -0.0781972 8.07123e-20)
(0.617856 -0.0748785 -2.54388e-21)
(0.667281 -0.0703315 -2.23209e-21)
(0.715683 -0.0644367 1.00597e-20)
(0.762886 -0.05673 7.85944e-20)
(0.807958 -0.0482245 -7.38467e-20)
(0.853694 -0.0286319 -1.01912e-19)
(0.00856892 -0.00729943 -1.0282e-19)
(0.0328472 -0.0220429 6.64048e-20)
(0.0645913 -0.0344167 1.95479e-20)
(0.101284 -0.0456492 5.07021e-20)
(0.14223 -0.0551203 3.05871e-20)
(0.186376 -0.0630479 -1.8154e-20)
(0.233078 -0.0693933 -4.39607e-20)
(0.281736 -0.0742442 -1.06023e-19)
(0.331866 -0.0776625 4.67369e-20)
(0.383042 -0.0797252 -2.07932e-19)
(0.434883 -0.0805026 -7.81726e-20)
(0.487041 -0.0800587 2.03821e-19)
(0.539195 -0.0784433 -9.73795e-20)
(0.591043 -0.0756851 -7.43511e-20)
(0.642307 -0.0717803 1.06302e-20)
(0.692736 -0.0666714 -4.5054e-21)
(0.742139 -0.0602251 5.27918e-21)
(0.790453 -0.0520105 4.50571e-20)
(0.838081 -0.0421082 -1.58818e-20)
(0.885495 -0.0244562 -2.70954e-20)
(0.00958249 -0.00789522 2.34453e-20)
(0.035874 -0.0234153 8.43244e-20)
(0.069671 -0.0361613 3.84151e-20)
(0.108403 -0.0475169 -1.7685e-20)
(0.151362 -0.0568957 -8.24629e-21)
(0.197472 -0.0645753 -5.49885e-20)
(0.246074 -0.0705504 3.86762e-20)
(0.296553 -0.0749398 7.31671e-20)
(0.348414 -0.0778291 -6.07257e-20)
(0.401217 -0.0793157 1.79772e-19)
(0.45457 -0.0794878 9.73074e-20)
(0.508118 -0.0784248 -3.77721e-20)