/*--------------------------------*- C++ -*----------------------------------*\
  =========                 |
  \\      /  F ield         | OpenFOAM: The Open Source CFD Toolbox
   \\    /   O peration     | Website:  https://openfoam.org
    \\  /    A nd           | Version:  7
     \\/     M anipulation  |
\*---------------------------------------------------------------------------*/
FoamFile
{
    version     2.0;
    format      ascii;
    class       surfaceScalarField;
    location    "15";
    object      phi;
}
// * * * * * * * * * * * * * * * * * * * * * * * * * * * * * * * * * * * * * //

dimensions      [0 3 -1 0 0 0 0];

internalField   nonuniform List<scalar> 
5132
(
-0.0299124
-0.00188316
-0.0296475
-0.00201514
-0.00187201
-0.0293742
-0.00214537
-0.0290925
-0.00227386
-0.0288028
-0.00240063
-0.0285053
-0.0025257
-0.0282
-0.00264908
-0.0278873
-0.0027708
-0.0275672
-0.00289089
-0.0272399
-0.00300936
-0.0269055
-0.00312623
-0.00324153
0.00150293
-0.00363819
0.0014553
-0.0035305
0.00140915
-0.00342131
0.00136449
-0.00331061
0.00132134
-0.00319839
0.00127974
-0.00308462
0.00123968
-0.00296931
0.00120121
-0.00285241
0.00116433
-0.00273393
0.00112908
-0.00261382
0.00109547
-0.00249208
0.00106352
-0.00236868
0.00103326
-0.0022436
0.00100471
-0.00211682
0.000977895
-0.00198833
-0.0018581
0.00151338
-0.00358875
0.0014654
-0.00348253
0.00141891
-0.00337482
0.00137393
-0.00326563
0.00133047
-0.00315493
0.00128856
-0.00304272
0.00124822
-0.00292897
0.00120947
-0.00281366
0.00117233
-0.00269679
0.00113683
-0.00257832
0.00110298
-0.00245823
0.0010708
-0.00233651
0.00104033
-0.00221313
0.00101158
-0.00208807
0.000984576
-0.00196133
-0.00183287
0.00157372
-0.00364223
0.00152391
-0.00353894
0.00147558
-0.0034342
0.00142875
-0.00332799
0.00138344
-0.00322032
0.00133967
-0.00311116
0.00129746
-0.0030005
0.00125683
-0.00288834
0.0012178
-0.00277464
0.00118039
-0.00265938
0.00114463
-0.00254256
0.00111054
-0.00242414
0.00107814
-0.00230411
0.00104745
-0.00218244
0.0010185
-0.00205912
0.000991304
-0.00193413
-0.00180746
0.00158473
-0.00359058
0.00153455
-0.00348876
0.00148586
-0.00338551
0.00143868
-0.00328081
0.00139304
-0.00317467
0.00134895
-0.00306707
0.00130643
-0.00295798
0.0012655
-0.00284741
0.00122619
-0.00273533
0.00118852
-0.00262171
0.0011525
-0.00250654
0.00111817
-0.00238981
0.00108554
-0.00227147
0.00105463
-0.00215153
0.00102547
-0.00202996
0.000998083
-0.00190674
-0.00178187
0.00159584
-0.00353854
0.00154528
-0.00343821
0.00149623
-0.00333646
0.00144871
-0.00323329
0.00140272
-0.00312869
0.00135831
-0.00302265
0.00131548
-0.00291515
0.00127426
-0.00280619
0.00123466
-0.00269573
0.00119672
-0.00258376
0.00116044
-0.00247027
0.00112586
-0.00235522
0.00109299
-0.00223861
0.00106186
-0.0021204
0.0010325
-0.00200059
0.00100492
-0.00187916
-0.0017561
0.00165949
-0.00358356
0.00160706
-0.00348611
0.00155612
-0.00338727
0.0015067
-0.00328704
0.00145882
-0.00318541
0.0014125
-0.00308237
0.00136776
-0.00297791
0.00132461
-0.00287201
0.00128309
-0.00276466
0.0012432
-0.00265585
0.00120498
-0.00254554
0.00116844
-0.00243373
0.00113361
-0.00232039
0.00110051
-0.0022055
0.00106916
-0.00208905
0.00103958
-0.00197102
0.0010118
-0.00185138
-0.00173014
0.00167121
-0.00352924
0.00161838
-0.00343328
0.00156706
-0.00333595
0.00151727
-0.00323725
0.00146903
-0.00313717
0.00142236
-0.0030357
0.00137729
-0.00293283
0.00133382
-0.00282855
0.00129199
-0.00272283
0.00125182
-0.00261567
0.00121332
-0.00250704
0.00117651
-0.00239693
0.00114143
-0.00228531
0.00110809
-0.00217216
0.00107651
-0.00205747
0.00104672
-0.00194123
0.00101874
-0.0018234
-0.001704
0.00173778
-0.00356761
0.00168304
-0.0034745
0.00162981
-0.00338004
0.0015781
-0.00328424
0.00152793
-0.00318708
0.00147933
-0.00308857
0.00143231
-0.00298868
0.0013869
-0.00288742
0.00134312
-0.00278476
0.00130098
-0.00268069
0.00126051
-0.0025752
0.00122172
-0.00246826
0.00118465
-0.00235985
0.00114931
-0.00224997
0.00111572
-0.00213858
0.00108392
-0.00202567
0.00105391
-0.00191122
0.00102573
-0.00179522
-0.00167767
0.00175013
-0.00351095
0.00169497
-0.00341934
0.00164133
-0.0033264
0.00158923
-0.00323213
0.00153868
-0.00313654
0.00148972
-0.0030396
0.00144235
-0.00294131
0.0013966
-0.00284167
0.00135249
-0.00274065
0.00131004
-0.00263824
0.00126927
-0.00253443
0.0012302
-0.00242919
0.00119285
-0.00232251
0.00115725
-0.00221437
0.00112342
-0.00210475
0.00109138
-0.00199363
0.00106116
-0.00188099
0.00103277
-0.00176684
-0.00165115
0.00181968
-0.00354264
0.00176259
-0.00345386
0.00170701
-0.00336376
0.00165296
-0.00327235
0.00160046
-0.00317964
0.00154953
-0.00308561
0.0015002
-0.00299026
0.00145247
-0.00289359
0.00140638
-0.00279558
0.00136194
-0.00269621
0.00131917
-0.00259548
0.0012781
-0.00249336
0.00123874
-0.00238983
0.00120112
-0.00228489
0.00116526
-0.00217851
0.00113119
-0.00207067
0.00109891
-0.00196135
0.00106847
-0.00185055
0.00103987
-0.00173825
-0.00162443
0.00183268
-0.00348361
0.00177515
-0.00339632
0.00171914
-0.00330775
0.00166468
-0.00321789
0.00161178
-0.00312674
0.00156047
-0.0030343
0.00151076
-0.00294056
0.00146268
-0.00284551
0.00141624
-0.00274914
0.00137147
-0.00265144
0.00132839
-0.00255239
0.00128701
-0.00245198
0.00124736
-0.00235019
0.00120946
-0.00224699
0.00117334
-0.00214238
0.00113901
-0.00203634
0.0011065
-0.00192884
0.00107583
-0.00181988
0.00104703
-0.00170944
-0.00159752
0.00190528
-0.0035086
0.00184579
-0.00342412
0.00178781
-0.00333835
0.00173138
-0.00325132
0.0016765
-0.00316301
0.0016232
-0.00307344
0.0015715
-0.00298259
0.00152142
-0.00289047
0.00147297
-0.00279706
0.00142619
-0.00270235
0.00138108
-0.00260633
0.00133768
-0.00250898
0.00129599
-0.00241029
0.00125605
-0.00231024
0.00121787
-0.00220881
0.00118148
-0.00210599
0.00114689
-0.00200176
0.00111414
-0.00189609
0.00108325
-0.00178899
0.00105424
-0.00168043
-0.00157041
0.00191894
-0.00344715
0.001859
-0.00336417
0.00180058
-0.00327994
0.00174371
-0.00319445
0.00168842
-0.00310772
0.00163472
-0.00301974
0.00158262
-0.0029305
0.00153216
-0.00284001
0.00148335
-0.00274825
0.00143622
-0.00265522
0.00139077
-0.00256089
0.00134704
-0.00246525
0.00130504
-0.0023683
0.0012648
-0.00227
0.00122634
-0.00217035
0.00118968
-0.00206933
0.00115484
-0.00196692
0.00112185
-0.0018631
0.00109073
-0.00175787
0.0010615
-0.00165121
-0.00154311
0.00199463
-0.00346541
0.00193271
-0.00338522
0.00187231
-0.00330377
0.00181344
-0.00322108
0.00175615
-0.00313715
0.00170043
-0.003052
0.00164632
-0.00296563
0.00159384
-0.00287802
0.001543
-0.00278917
0.00149382
-0.00269908
0.00144633
-0.00260772
0.00140054
-0.0025151
0.00135648
-0.0024212
0.00131417
-0.00232599
0.00127363
-0.00222946
0.00123488
-0.0021316
0.00119795
-0.00203239
0.00116285
-0.00193182
0.00112962
-0.00182987
0.00109827
-0.00172652
0.00106883
-0.00162176
-0.0015156
0.00200897
-0.00340151
0.00194658
-0.00332283
0.00188572
-0.0032429
0.00182641
-0.00316177
0.00176868
-0.00307942
0.00171254
-0.00299587
0.00165802
-0.00291111
0.00160514
-0.00282513
0.00155391
-0.00273794
0.00150437
-0.00264953
0.00145652
-0.00255988
0.00141039
-0.00246897
0.001366
-0.00237681
0.00132337
-0.00228336
0.00128253
-0.00218862
0.00124349
-0.00209257
0.00120629
-0.00199519
0.00117093
-0.00189646
0.00113745
-0.00179638
0.00110586
-0.00169493
0.0010762
-0.0015921
-0.00148789
0.0020878
-0.0034131
0.00202341
-0.00333712
0.00196055
-0.00325996
0.00189923
-0.00318158
0.00183947
-0.00310201
0.0017813
-0.00302125
0.00172474
-0.00293931
0.00166981
-0.00285618
0.00161653
-0.00277185
0.00156492
-0.00268633
0.001515
-0.00259961
0.00146679
-0.00251167
0.00142032
-0.0024225
0.0013756
-0.00233209
0.00133265
-0.00224042
0.0012915
-0.00214747
0.00125217
-0.00205324
0.00121469
-0.0019577
0.00117907
-0.00186084
0.00114533
-0.00176265
0.00111352
-0.00166312
0.00108364
-0.00156222
-0.00145997
0.00210282
-0.00334672
0.00203795
-0.00327225
0.00197462
-0.00319663
0.00191284
-0.0031198
0.00185263
-0.00304181
0.00179403
-0.00296265
0.00173704
-0.00288232
0.0016817
-0.00280083
0.00162801
-0.00271817
0.00157601
-0.00263433
0.00152572
-0.00254931
0.00147715
-0.0024631
0.00143032
-0.00237567
0.00138527
-0.00228703
0.001342
-0.00219715
0.00130054
-0.00210601
0.00126092
-0.00201362
0.00122315
-0.00191993
0.00118727
-0.00182496
0.00115328
-0.00172867
0.00112123
-0.00163106
0.00109113
-0.00153212
-0.00143185
0.00218482
-0.00335151
0.00211795
-0.00327986
0.0020526
-0.0032069
0.00198879
-0.00313282
0.00192654
-0.00305756
0.00186589
-0.00298115
0.00180684
-0.0029036
0.00174943
-0.00282491
0.00169367
-0.00274507
0.00163958
-0.00266408
0.00158719
-0.00258194
0.00153652
-0.00249864
0.00148759
-0.00241416
0.00144041
-0.0023285
0.00139502
-0.00224163
0.00135142
-0.00215356
0.00130966
-0.00206425
0.00126974
-0.0019737
0.00123169
-0.00188188
0.00119553
-0.0017888
0.0011613
-0.00169443
0.001129
-0.00159877
0.00109868
-0.0015018
-0.00140352
0.0022694
-0.00335193
0.00220054
-0.00328265
0.00213318
-0.00321249
0.00206734
-0.00314107
0.00200306
-0.00306853
0.00194035
-0.00299485
0.00187924
-0.00292005
0.00181975
-0.00284412
0.00176191
-0.00276707
0.00170573
-0.00268889
0.00165124
-0.00260959
0.00159846
-0.00252916
0.00154741
-0.00244759
0.0014981
-0.00236486
0.00145058
-0.00228097
0.00140484
-0.0021959
0.00136092
-0.00210964
0.00131884
-0.00202217
0.00127862
-0.00193348
0.00124029
-0.00184355
0.00120386
-0.00175238
0.00116937
-0.00165994
0.00113683
-0.00156623
0.00110628
-0.00147124
-0.00137497
0.00228573
-0.00328108
0.00221637
-0.00321329
0.00214851
-0.00314463
0.00208219
-0.00307474
0.00201743
-0.00300377
0.00195425
-0.00293168
0.00189269
-0.00285848
0.00183276
-0.00278419
0.00177448
-0.00270879
0.00171789
-0.0026323
0.00166299
-0.0025547
0.00160981
-0.00247598
0.00155838
-0.00239615
0.0015087
-0.00231519
0.00146082
-0.00223308
0.00141474
-0.00214982
0.00137049
-0.00206539
0.0013281
-0.00197977
0.00128758
-0.00189296
0.00124896
-0.00180493
0.00121226
-0.00171568
0.00117751
-0.00162519
0.00114473
-0.00153345
0.00111395
-0.00144046
-0.00134621
0.00237355
-0.00327413
-0.00244635
0.00230218
-0.0032097
0.0022323
-0.00314342
0.00216394
-0.00307627
0.00209713
-0.00300793
0.00203189
-0.00293853
0.00196825
-0.00286804
0.00190623
-0.00279646
0.00184586
-0.00272381
0.00178715
-0.00265008
0.00173013
-0.00257528
0.00167482
-0.00249939
0.00162125
-0.00242241
0.00156943
-0.00234433
0.00151939
-0.00226515
0.00147114
-0.00218484
0.00142472
-0.0021034
0.00138014
-0.00202081
0.00133743
-0.00193706
0.0012966
-0.00185213
0.00125769
-0.00176602
0.00122072
-0.0016787
0.0011857
-0.00159018
0.00115268
-0.00150043
0.00112167
-0.00140945
-0.00131724
0.00239062
-0.0032008
-0.00246395
0.00231872
-0.0031378
0.00224834
-0.00307303
0.00217948
-0.00300741
0.00211218
-0.00294063
0.00204646
-0.00287282
0.00198235
-0.00280393
0.00191987
-0.00273398
0.00185905
-0.00266299
0.00179991
-0.00259094
0.00174247
-0.00251783
0.00168675
-0.00244367
0.00163277
-0.00236844
0.00158057
-0.00229213
0.00153015
-0.00221473
0.00148154
-0.00213623
0.00143477
-0.00205663
0.00138986
-0.00197589
0.00134683
-0.00189402
0.00130569
-0.001811
0.00126649
-0.00172682
0.00122924
-0.00164145
0.00119397
-0.0015549
0.00116069
-0.00146715
0.00112945
-0.0013782
-0.00128805
0.0024078
-0.00312693
-0.00248167
0.00233538
-0.00306538
0.00226448
-0.00300214
0.00219512
-0.00293805
0.00212733
-0.00287284
0.00206113
-0.00280662
0.00199655
-0.00273935
0.00193361
-0.00267105
0.00187234
-0.00260172
0.00181276
-0.00253136
0.00175489
-0.00245997
0.00169876
-0.00238754
0.00164438
-0.00231406
0.00159179
-0.00223953
0.00154099
-0.00216394
0.00149203
-0.00208726
0.0014449
-0.00200951
0.00139965
-0.00193064
0.0013563
-0.00185067
0.00131486
-0.00176956
0.00127536
-0.00168732
0.00123783
-0.00160392
0.00120229
-0.00151936
0.00116877
-0.00143363
0.00113729
-0.00134672
-0.00125864
0.00242509
-0.00305253
-0.00249949
0.00235214
-0.00299243
0.00228073
-0.00293073
0.00221086
-0.00286819
0.00214257
-0.00280455
0.00207589
-0.00273993
0.00201084
-0.00267429
0.00194744
-0.00260765
0.00188572
-0.00254
0.0018257
-0.00247134
0.00176741
-0.00240167
0.00171086
-0.00233099
0.00165608
-0.00225928
0.00160309
-0.00218654
0.00155192
-0.00211276
0.00150259
-0.00203793
0.00145511
-0.00196203
0.00140952
-0.00188506
0.00136584
-0.00180699
0.00132409
-0.00172781
0.0012843
-0.00164753
0.00124649
-0.00156611
0.00121068
-0.00148355
0.0011769
-0.00139986
0.00114519
-0.00131501
-0.001229
0.00244248
-0.00297758
-0.00251743
0.00236901
-0.00291896
0.00229708
-0.0028588
0.0022267
-0.00279781
0.00215792
-0.00273577
0.00209076
-0.00267277
0.00202523
-0.00260877
0.00196137
-0.00254379
0.00189919
-0.00247782
0.00183873
-0.00241088
0.00178001
-0.00234295
0.00172304
-0.00227402
0.00166786
-0.0022041
0.00161448
-0.00213316
0.00156293
-0.00206121
0.00151323
-0.00198823
0.0014654
-0.0019142
0.00141947
-0.00183913
0.00137546
-0.00176298
0.0013334
-0.00168575
0.0012933
-0.00160743
0.00125521
-0.00152801
0.00121913
-0.00144748
0.0011851
-0.00136583
0.00115314
-0.00128305
-0.00119915
0.00245999
-0.00290209
-0.00253548
0.00238598
-0.00284495
0.00231353
-0.00278635
0.00224265
-0.00272693
0.00217337
-0.00266649
0.00210572
-0.00260511
0.00203972
-0.00254276
0.00197539
-0.00247946
0.00191276
-0.0024152
0.00185186
-0.00234998
0.0017927
-0.00228379
0.00173532
-0.00221664
0.00167973
-0.00214851
0.00162595
-0.00207939
0.00157402
-0.00200928
0.00152394
-0.00193816
0.00147576
-0.00186602
0.00142949
-0.00179285
0.00138515
-0.00171864
0.00134277
-0.00164337
0.00130238
-0.00156704
0.00126399
-0.00148963
0.00122765
-0.00141113
0.00119336
-0.00133154
0.00116116
-0.00125085
-0.00116906
0.0024776
-0.00282605
-0.00255363
0.00240306
-0.00277042
0.00233009
-0.00271338
0.0022587
-0.00265554
0.00218892
-0.00259672
0.00212078
-0.00253697
0.0020543
-0.00247628
0.00198951
-0.00241467
0.00192643
-0.00235211
0.00186508
-0.00228863
0.00180549
-0.0022242
0.00174768
-0.00215883
0.00169168
-0.0020925
0.00163751
-0.00202522
0.00158519
-0.00195696
0.00153474
-0.00188771
0.0014862
-0.00181748
0.00143958
-0.00174623
0.00139491
-0.00167397
0.00135221
-0.00160068
0.00131152
-0.00152634
0.00127285
-0.00145096
0.00123622
-0.00137451
0.00120168
-0.001297
0.00116924
-0.00121841
-0.00113876
0.00249532
-0.00274947
-0.0025719
0.00242025
-0.00269535
0.00234676
-0.00263989
0.00227486
-0.00258364
0.00220458
-0.00252644
0.00213595
-0.00246834
0.00206899
-0.00240932
0.00200372
-0.0023494
0.00194018
-0.00228857
0.00187839
-0.00222683
0.00181836
-0.00216418
0.00176013
-0.0021006
0.00170372
-0.00203609
0.00164915
-0.00197064
0.00159644
-0.00190425
0.00154562
-0.0018369
0.00149672
-0.00176857
0.00144975
-0.00169927
0.00140475
-0.00162897
0.00136173
-0.00155766
0.00132073
-0.00148534
0.00128177
-0.00141199
0.00124487
-0.00133761
0.00121006
-0.00126219
0.00117738
-0.00118573
-0.00110822
0.00251315
-0.00267234
-0.00259028
0.00243755
-0.00261974
0.00236353
-0.00256587
0.00229112
-0.00251123
0.00222033
-0.00245565
0.00215121
-0.00239921
0.00208377
-0.00234188
0.00201803
-0.00228367
0.00195403
-0.00222457
0.00189179
-0.00216459
0.00183133
-0.00210371
0.00177267
-0.00204194
0.00171584
-0.00197926
0.00166087
-0.00191567
0.00160777
-0.00185115
0.00155658
-0.0017857
0.00150731
-0.00171931
0.00145999
-0.00165195
0.00141465
-0.00158363
0.00137132
-0.00151432
0.00133001
-0.00144403
0.00129075
-0.00137274
0.00125358
-0.00130044
0.00121851
-0.00122713
0.00118558
-0.0011528
-0.00107745
0.0025311
-0.00259466
-0.00260878
0.00245496
-0.0025436
0.00238041
-0.00249133
0.00230748
-0.00243829
0.00223619
-0.00238437
0.00216657
-0.00232959
0.00209865
-0.00227396
0.00203244
-0.00221746
0.00196798
-0.00216011
0.00190528
-0.00210189
0.00184438
-0.00204281
0.0017853
-0.00198286
0.00172805
-0.00192202
0.00167268
-0.00186029
0.00161919
-0.00179767
0.00156762
-0.00173413
0.00151798
-0.00166967
0.00147031
-0.00160428
0.00142464
-0.00153795
0.00138097
-0.00147066
0.00133936
-0.00140241
0.00129981
-0.00133319
0.00126235
-0.00126298
0.00122702
-0.00119179
0.00119384
-0.00111962
-0.00104645
0.00254915
-0.00251643
-0.00262738
0.00247247
-0.00246691
0.0023974
-0.00241626
0.00232395
-0.00236484
0.00225215
-0.00231257
0.00218204
-0.00225948
0.00211362
-0.00220554
0.00204694
-0.00215078
0.00198202
-0.00209518
0.00191887
-0.00203875
0.00185753
-0.00198147
0.00179801
-0.00192334
0.00174035
-0.00186436
0.00168457
-0.00180451
0.00163069
-0.00174379
0.00157873
-0.00168218
0.00152873
-0.00161967
0.00148071
-0.00155626
0.00143469
-0.00149193
0.0013907
-0.00142667
0.00134877
-0.00136048
0.00130893
-0.00129334
0.00127119
-0.00122525
0.00123559
-0.0011562
0.00120216
-0.00108619
-0.00101521
0.00256732
-0.00243764
-0.0026461
0.0024901
-0.00238969
0.00241449
-0.00234065
0.00234052
-0.00229087
0.00226822
-0.00224027
0.0021976
-0.00218886
0.0021287
-0.00213664
0.00206154
-0.00208362
0.00199615
-0.00202979
0.00193255
-0.00197515
0.00187076
-0.00191968
0.00181082
-0.0018634
0.00175273
-0.00180628
0.00169654
-0.00174832
0.00164227
-0.00168951
0.00158993
-0.00162984
0.00153956
-0.0015693
0.00149118
-0.00150788
0.00144482
-0.00144557
0.0014005
-0.00138236
0.00135826
-0.00131823
0.00131811
-0.00125319
0.00128009
-0.00118723
0.00124423
-0.00112033
0.00121054
-0.0010525
-0.000983741
0.0025856
-0.0023583
-0.00266494
0.00250783
-0.00231193
0.00243169
-0.00226451
0.0023572
-0.00221638
0.00228439
-0.00216745
0.00221327
-0.00211774
0.00214388
-0.00206726
0.00207624
-0.00201598
0.00201038
-0.00196393
0.00194632
-0.00191109
0.00188409
-0.00185745
0.00182371
-0.00180302
0.00176521
-0.00174777
0.0017086
-0.00169172
0.00165393
-0.00163483
0.00160121
-0.00157712
0.00155047
-0.00151856
0.00150173
-0.00145914
0.00145502
-0.00139886
0.00141038
-0.00133771
0.00136782
-0.00127567
0.00132737
-0.00121275
0.00128906
-0.00114892
0.00125293
-0.0010842
0.00121899
-0.00101857
0.00260399
-0.0022784
-0.00268388
0.00252567
-0.00223361
0.002449
-0.00218784
0.00237399
-0.00214137
0.00230066
-0.00209412
0.00222904
-0.00204613
0.00215916
-0.00199737
0.00209104
-0.00194787
0.00202471
-0.0018976
0.00196019
-0.00184657
0.00189751
-0.00179477
0.00183669
-0.0017422
0.00177776
-0.00168885
0.00172075
-0.0016347
0.00166568
-0.00157976
0.00161257
-0.00152401
0.00156145
-0.00146744
0.00151235
-0.00141005
0.0014653
-0.00135181
0.00142032
-0.00129273
0.00137744
-0.0012328
0.00133669
-0.001172
0.0012981
-0.00111033
0.00126169
-0.00104779
-0.000984372
0.00262249
-0.00219795
-0.00270294
0.00254363
-0.00215476
0.00246642
-0.00211063
0.00239088
-0.00206583
0.00231704
-0.00202028
0.00224491
-0.001974
0.00217454
-0.001927
0.00210593
-0.00187926
0.00203913
-0.00183079
0.00197415
-0.00178159
0.00191102
-0.00173164
0.00184976
-0.00168094
0.00179041
-0.00162949
0.00173298
-0.00157727
0.0016775
-0.00152428
0.00162401
-0.00147051
0.00157251
-0.00141595
0.00152305
-0.00136059
0.00147565
-0.00130441
0.00143034
-0.00124742
0.00138714
-0.0011896
0.00134608
-0.00113094
0.0013072
-0.00107145
0.00127052
-0.00101111
-0.00094992
0.0026411
-0.00211693
-0.00272212
0.0025617
-0.00207535
0.00248395
-0.00203289
0.00240788
-0.00198976
0.00233352
-0.00194591
0.00226089
-0.00190137
0.00219002
-0.00185613
0.00212093
-0.00181017
0.00205365
-0.00176352
0.0019882
-0.00171614
0.00192462
-0.00166806
0.00186293
-0.00161925
0.00180314
-0.00156971
0.0017453
-0.00151943
0.00168942
-0.0014684
0.00163553
-0.00141662
0.00158365
-0.00136408
0.00153383
-0.00131076
0.00148608
-0.00125666
0.00144043
-0.00120177
0.00139691
-0.00114608
0.00135554
-0.00108958
0.00131637
-0.00103227
0.00127941
-0.000974148
-0.000915208
0.00265983
-0.00203535
-0.00274141
0.00257988
-0.00199539
0.00250159
-0.0019546
0.00242499
-0.00191316
0.00235011
-0.00187103
0.00227697
-0.00182823
0.0022056
-0.00178476
0.00213602
-0.0017406
0.00206826
-0.00169576
0.00200235
-0.00165024
0.00193832
-0.00160402
0.00187618
-0.00155711
0.00181596
-0.00150949
0.0017577
-0.00146116
0.00170141
-0.00141212
0.00164713
-0.00136234
0.00159487
-0.00131183
0.00154468
-0.00126057
0.00149658
-0.00120855
0.00145059
-0.00115578
0.00140674
-0.00110223
0.00136507
-0.00104791
0.0013256
-0.000992802
0.00128837
-0.000936912
-0.000880235
0.00267868
-0.00195321
-0.00276082
0.00259817
-0.00191489
0.00251934
-0.00187577
0.00244221
-0.00183603
0.0023668
-0.00179563
0.00229315
-0.00175458
0.00222128
-0.00171288
0.00215121
-0.00167053
0.00208298
-0.00162752
0.0020166
-0.00158386
0.0019521
-0.00153952
0.00188952
-0.00149452
0.00182887
-0.00144884
0.00177018
-0.00140248
0.00171349
-0.00135542
0.00165881
-0.00130766
0.00160617
-0.00125919
0.00155561
-0.00121001
0.00150715
-0.00116009
0.00146082
-0.00110945
0.00141665
-0.00105806
0.00137467
-0.00100593
0.00133491
-0.000953039
0.00129739
-0.000899397
-0.000844999
0.00269764
-0.00187051
-0.00278034
0.00261657
-0.00183382
0.0025372
-0.00179639
0.00245953
-0.00175836
0.0023836
-0.0017197
0.00230944
-0.00168042
0.00223706
-0.00164051
0.0021665
-0.00159997
0.00209779
-0.00155881
0.00203094
-0.00151701
0.00196598
-0.00147457
0.00190295
-0.00143149
0.00184187
-0.00138776
0.00178276
-0.00134337
0.00172565
-0.00129831
0.00167057
-0.00125258
0.00161755
-0.00120617
0.00156662
-0.00115907
0.0015178
-0.00111128
0.00147113
-0.00106278
0.00142663
-0.00101356
0.00138434
-0.000963631
0.00134427
-0.000912978
0.00130648
-0.000861601
-0.000809498
0.00271671
-0.00178723
-0.00279998
0.00263509
-0.0017522
0.00255517
-0.00171647
0.00247697
-0.00168016
0.00240051
-0.00164325
0.00232583
-0.00160574
0.00225295
-0.00156763
0.0021819
-0.00152892
0.0021127
-0.00148961
0.00204537
-0.00144969
0.00197996
-0.00140916
0.00191648
-0.00136801
0.00185495
-0.00132623
0.00179542
-0.00128383
0.0017379
-0.00124079
0.00168242
-0.00119711
0.00162901
-0.00115277
0.0015777
-0.00110777
0.00152853
-0.0010621
0.00148151
-0.00101576
0.00143668
-0.000968733
0.00139407
-0.000921021
0.00135371
-0.000872618
0.00131563
-0.000823521
-0.00077373
0.0027359
-0.00170339
-0.00281974
0.00265372
-0.00167003
0.00257325
-0.001636
0.00249451
-0.00160142
0.00241753
-0.00156626
0.00234233
-0.00153054
0.00226894
-0.00149424
0.00219739
-0.00145737
0.0021277
-0.00141992
0.00205991
-0.00138189
0.00199403
-0.00134328
0.00193009
-0.00130407
0.00186813
-0.00126427
0.00180816
-0.00122387
0.00175022
-0.00118285
0.00169434
-0.00114122
0.00164055
-0.00109897
0.00158887
-0.00105609
0.00153933
-0.00101256
0.00149196
-0.000968392
0.0014468
-0.000923572
0.00140388
-0.000878095
0.00136321
-0.000831957
0.00132485
-0.000785157
-0.000737694
0.00275521
-0.00161898
-0.00283962
0.00267247
-0.00158729
0.00259145
-0.00155498
0.00251217
-0.00152214
0.00243465
-0.00148875
0.00235893
-0.00145482
0.00228504
-0.00142034
0.00221298
-0.00138532
0.00214281
-0.00134974
0.00207453
-0.00131361
0.00200819
-0.00127693
0.0019438
-0.00123968
0.00188139
-0.00120186
0.00182099
-0.00116347
0.00176264
-0.0011245
0.00170635
-0.00108494
0.00165217
-0.00104478
0.00160011
-0.00100403
0.0015502
-0.00096266
0.00150249
-0.000920679
0.00145699
-0.000878077
0.00141375
-0.00083485
0.00137279
-0.000790994
0.00133414
-0.000746507
-0.000701388
0.00277463
-0.00153399
-0.00285961
0.00269133
-0.00150399
0.00260976
-0.0014734
0.00252993
-0.00144231
0.00245189
-0.0014107
0.00237564
-0.00137858
0.00230123
-0.00134593
0.00222868
-0.00131276
0.00215801
-0.00127907
0.00208926
-0.00124486
0.00202244
-0.00121011
0.00195759
-0.00117483
0.00189474
-0.00113901
0.00183391
-0.00110264
0.00177514
-0.00106572
0.00171844
-0.00102825
0.00166386
-0.000990201
0.00161142
-0.000951586
0.00156115
-0.000912392
0.00151309
-0.000872614
0.00146726
-0.000832246
0.00142369
-0.000791284
0.00138243
-0.000749726
0.00134349
-0.000707567
-0.00066481
0.00279417
-0.00144843
-0.00287973
0.00271031
-0.00142013
0.00262818
-0.00139128
0.00254781
-0.00136194
0.00246923
-0.00133212
0.00239246
-0.00130181
0.00231754
-0.001271
0.00224448
-0.00123971
0.00217332
-0.00120791
0.00210408
-0.00117562
0.00203679
-0.00114283
0.00197148
-0.00110952
0.00190818
-0.00107571
0.00184692
-0.00104138
0.00178772
-0.00100653
0.00173062
-0.000971142
0.00167564
-0.000935224
0.00162282
-0.000898764
0.00157218
-0.000861756
0.00152376
-0.000824196
0.0014776
-0.000786077
0.00143371
-0.000747397
0.00139213
-0.000708151
0.0013529
-0.000668338
-0.000627959
0.00281382
-0.0013623
-0.00289996
0.0027294
-0.0013357
0.00264671
-0.00130859
0.0025658
-0.00128103
0.00248668
-0.001253
0.00240938
-0.00122451
0.00233394
-0.00119556
0.00226038
-0.00116614
0.00218872
-0.00113625
0.00211899
-0.0011059
0.00205123
-0.00107506
0.00198546
-0.00104375
0.00192171
-0.00101196
0.00186001
-0.000979677
0.00180039
-0.000946902
0.00174287
-0.000913627
0.0016875
-0.000879848
0.00163429
-0.000845558
0.00158328
-0.000810751
0.00153451
-0.000775423
0.001488
-0.000739569
0.00144379
-0.000703185
0.00140191
-0.000666269
0.00136239
-0.000628818
-0.000590832
0.0028336
-0.00127559
-0.00292031
0.00274861
-0.00125071
0.00266536
-0.00122535
0.0025839
-0.00119956
0.00250424
-0.00117334
0.00242642
-0.00114669
0.00235045
-0.0011196
0.00227638
-0.00109207
0.00220422
-0.0010641
0.00213401
-0.00103568
0.00206577
-0.00100683
0.00199954
-0.000977518
0.00193533
-0.000947756
0.00187319
-0.000917535
0.00181314
-0.000886851
0.00175521
-0.000855698
0.00169943
-0.000824071
0.00164584
-0.000791965
0.00159446
-0.000759374
0.00154533
-0.000726294
0.00149848
-0.000692719
0.00145395
-0.000658648
0.00141175
-0.000624076
0.00137194
-0.000589004
-0.00055343
0.00285349
-0.0011883
-0.00294078
0.00276793
-0.00116514
0.00268413
-0.00114155
0.00260211
-0.00111755
0.00252191
-0.00109314
0.00244355
-0.00106833
0.00236707
-0.00104311
0.00229248
-0.00101748
0.00221982
-0.000991439
0.00214912
-0.000964982
0.0020804
-0.000938109
0.0020137
-0.000910815
0.00194904
-0.000883097
0.00188646
-0.00085495
0.00182597
-0.00082637
0.00176763
-0.000797353
0.00171145
-0.000767892
0.00165747
-0.000737984
0.00160572
-0.000707623
0.00155623
-0.000676805
0.00150904
-0.000645526
0.00146417
-0.000613783
0.00142167
-0.000581573
0.00138156
-0.000548895
-0.000515749
0.00287351
-0.00110043
-0.00296138
0.00278737
-0.00107901
0.00270301
-0.00105718
0.00262044
-0.00103498
0.00253969
-0.0010124
0.0024608
-0.00098944
0.00238379
-0.000966101
0.00230869
-0.00094238
0.00223552
-0.000918275
0.00216433
-0.000893786
0.00209513
-0.000868909
0.00202796
-0.000843641
0.00196284
-0.00081798
0.00189981
-0.00079192
0.0018389
-0.000765458
0.00178013
-0.000738589
0.00172355
-0.000711309
0.00166918
-0.000683613
0.00161705
-0.000655497
0.0015672
-0.000626956
0.00151966
-0.000597988
0.00147447
-0.000568588
0.00143165
-0.000538756
0.00139125
-0.00050849
-0.00047779
0.00289364
-0.00101197
-0.00298209
0.00280693
-0.000992301
0.002722
-0.000972252
0.00263888
-0.000951855
0.00255758
-0.000931108
0.00247815
-0.000910011
0.00240062
-0.000888562
0.002325
-0.00086676
0.00225133
-0.000844605
0.00217963
-0.000822094
0.00210995
-0.000799225
0.0020423
-0.000775995
0.00197673
-0.000752402
0.00191325
-0.000728442
0.0018519
-0.00070411
0.00179272
-0.000679404
0.00173573
-0.000654318
0.00168096
-0.000628849
0.00162846
-0.000602992
0.00157825
-0.000576744
0.00153036
-0.000550102
0.00148483
-0.000523063
0.0014417
-0.000495625
0.001401
-0.000467787
-0.000439549
0.00291389
-0.000922938
-0.00300293
0.00282661
-0.000905018
0.00274111
-0.000886755
0.00265743
-0.000868172
0.00257559
-0.000849268
0.00249562
-0.000830041
0.00241755
-0.000810493
0.00234141
-0.000790621
0.00226723
-0.000770425
0.00219504
-0.000749903
0.00212487
-0.000729054
0.00205674
-0.000707874
0.0019907
-0.000686362
0.00192678
-0.000664514
0.00186499
-0.000642326
0.00180538
-0.000619795
0.00174798
-0.000596918
0.00169283
-0.00057369
0.00163994
-0.000550108
0.00158936
-0.000526168
0.00154113
-0.000501868
0.00149527
-0.000477205
0.00145182
-0.000452177
0.00141082
-0.000426784
-0.000401026
0.00293426
-0.000833317
-0.00302388
0.0028464
-0.000817157
0.00276033
-0.000800688
0.00267609
-0.000783928
0.0025937
-0.000766875
0.00251318
-0.000749529
0.00243458
-0.00073189
0.00235792
-0.000713959
0.00228323
-0.000695733
0.00221054
-0.000677211
0.00213987
-0.000658393
0.00207128
-0.000639276
0.00200477
-0.000619857
0.00194039
-0.000600133
0.00187817
-0.000580103
0.00181813
-0.000559762
0.00176032
-0.000539107
0.00170477
-0.000518135
0.0016515
-0.000496842
0.00160056
-0.000475226
0.00155197
-0.000453283
0.00150578
-0.000431012
0.00146202
-0.000408412
0.00142071
-0.000385481
-0.00036222
0.00295475
-0.000743107
-0.00304496
0.00286631
-0.000728718
0.00277967
-0.00071405
0.00269487
-0.00069912
0.00261192
-0.000683927
0.00253086
-0.000668471
0.00245172
-0.000652752
0.00237453
-0.00063677
0.00229933
-0.000620525
0.00222613
-0.000604015
0.00215498
-0.00058724
0.0020859
-0.000570197
0.00201893
-0.000552884
0.00195409
-0.000535299
0.00189143
-0.000517439
0.00183096
-0.000499301
0.00177274
-0.000480883
0.00171679
-0.000462181
0.00166314
-0.000443193
0.00161183
-0.000423915
0.00156289
-0.000404346
0.00151636
-0.000384484
0.00147228
-0.000364327
0.00143067
-0.000343875
-0.000323128
0.00297536
-0.000652309
-0.00306616
0.00288634
-0.000639696
0.00279913
-0.000626838
0.00271376
-0.000613746
0.00263025
-0.000600421
0.00254864
-0.000586864
0.00246897
-0.000573075
0.00239125
-0.000559053
0.00231552
-0.0005448
0.00224182
-0.000530313
0.00217017
-0.000515592
0.00210061
-0.000500635
0.00203317
-0.000485441
0.00196788
-0.000470007
0.00190477
-0.000454331
0.00184388
-0.000438411
0.00178524
-0.000422244
0.00172889
-0.000405827
0.00167485
-0.000389158
0.00162317
-0.000372235
0.00157388
-0.000355056
0.00152701
-0.000337618
0.00148261
-0.000319922
0.0014407
-0.000301966
-0.00028375
0.0029961
-0.000560919
-0.00308749
0.00290649
-0.00055009
0.0028187
-0.000539049
0.00273276
-0.000527803
0.00264869
-0.000516355
0.00256653
-0.000504706
0.00248631
-0.000492856
0.00240806
-0.000480805
0.00233182
-0.000468553
0.00225761
-0.000456101
0.00218546
-0.000443446
0.00211541
-0.000430588
0.0020475
-0.000417525
0.00198175
-0.000404256
0.0019182
-0.000390778
0.00185687
-0.000377089
0.00179782
-0.000363188
0.00174106
-0.000349071
0.00168664
-0.000334737
0.00163459
-0.000320184
0.00158494
-0.00030541
0.00153774
-0.000290414
0.00149301
-0.000275194
0.0014508
-0.000259752
-0.000244085
0.00301695
-0.000468935
-0.00310893
0.00292675
-0.000459898
0.00283838
-0.000450679
0.00275187
-0.000441288
0.00266724
-0.000431725