0.3536 	0.3536 	0 	0.0350254 	-0.020605 	-2.31932e-19
0.390196 	0.390196 	0 	0.0287425 	-0.017733 	1.77964e-19
0.466318 	0.466318 	8.67362e-18 	0.126407 	-0.054449 	1.65509e-19
0.548534 	0.548534 	2.25514e-17 	0.249455 	-0.0704684 	5.86964e-21
0.637332 	0.637332 	3.19189e-17 	0.379127 	-0.0813587 	-2.80329e-19
