/*--------------------------------*- C++ -*----------------------------------*\
  =========                 |
  \\      /  F ield         | OpenFOAM: The Open Source CFD Toolbox
   \\    /   O peration     | Website:  https://openfoam.org
    \\  /    A nd           | Version:  7
     \\/     M anipulation  |
\*---------------------------------------------------------------------------*/
FoamFile
{
    version     2.0;
    format      ascii;
    class       surfaceScalarField;
    location    "5";
    object      phi;
}
// * * * * * * * * * * * * * * * * * * * * * * * * * * * * * * * * * * * * * //

dimensions      [0 3 -1 0 0 0 0];

internalField   nonuniform List<scalar> 
5033
(
6.86349e-10
-5.09512e-05
-8.56451e-09
-2.03968e-08
-5.09512e-05
5.09426e-05
-0.000170809
0.000119837
-0.000342676
0.000171838
-0.000552004
0.000209293
0.000237072
-5.08994e-05
0.000101842
-0.000170654
0.000239592
-0.000342395
0.000343579
-0.000551593
0.000418491
0.000474059
-5.07958e-05
0.000152638
-0.000170344
0.000359139
-0.000341833
0.000515068
-0.000550772
0.00062743
0.000710796
-5.06405e-05
0.000203278
-0.000169878
0.000478378
-0.000340989
0.000686179
-0.000549539
0.00083598
0.000947157
-5.04336e-05
0.000253712
-0.000169259
0.000597203
-0.000339866
0.000856786
-0.000547897
0.00104401
0.00118302
-5.01756e-05
0.000303887
-0.000168486
0.000715513
-0.000338463
0.00102676
-0.000545846
0.00125139
0.00141826
-4.98665e-05
0.000353754
-0.000167559
0.000833206
-0.000336783
0.00119599
-0.000543387
0.001458
-0.000777874
0.00165274
0.00179891
-4.9507e-05
0.000403261
-0.000166481
0.00095018
-0.000334825
0.00136433
-0.000540523
0.0016637
-0.000774135
0.00188635
0.00205355
-4.90973e-05
0.000452358
-0.000165252
0.00106633
-0.000332593
0.00153167
-0.000537255
0.00186836
-0.000769868
0.00211897
0.00230725
-4.8638e-05
0.000500996
-0.000163873
0.00118157
-0.000330087
0.00169789
-0.000533585
0.00207186
-0.000765074
0.00235046
0.00255989
-4.81298e-05
0.000549126
-0.000162346
0.00129579
-0.000327309
0.00186285
-0.000529516
0.00227406
-0.000759756
0.0025807
0.00281135
-4.75732e-05
0.000596699
-0.000160672
0.00140888
-0.000324263
0.00202644
-0.00052505
0.00247485
-0.000753917
0.00280956
0.00306152
-4.69688e-05
0.000643668
-0.000158852
0.00152077
-0.00032095
0.00218854
-0.00052019
0.00267409
-0.00074756
0.00303693
0.00331027
-4.63176e-05
0.000689986
-0.00015689
0.00163134
-0.000317374
0.00234902
-0.000514939
0.00287165
-0.000740689
0.00326268
0.0035575
-4.56203e-05
0.000735606
-0.000154787
0.00174051
-0.000313536
0.00250777
-0.000509301
0.00306742
-0.000733306
0.00348669
0.00380308
-4.48778e-05
0.000780484
-0.000152544
0.00184817
-0.000309441
0.00266467
-0.00050328
0.00326126
-0.000725417
0.00370883
0.0040469
-4.4091e-05
0.000824575
-0.000150165
0.00195425
-0.000305092
0.0028196
-0.00049688
0.00345305
-0.000717025
0.00392897
0.00428883
-4.32609e-05
0.000867836
-0.000147651
0.00205864
-0.000300492
0.00297244
-0.000490105
0.00364266
-0.000708135
0.004147
0.00452877
-4.23886e-05
0.000910224
-0.000145006
0.00216125
-0.000295646
0.00312308
-0.000482959
0.00382997
-0.000698752
0.0043628
0.00476659
-4.14752e-05
0.000951699
-0.000142232
0.00226201
-0.000290557
0.0032714
-0.000475448
0.00401486
-0.000688882
0.00457623
0.00500218
-4.05218e-05
0.000992221
-0.000139333
0.00236082
-0.00028523
0.0034173
-0.000467577
0.00419721
-0.000678528
0.00478718
0.00523542
-3.95297e-05
0.00103175
-0.00013631
0.0024576
-0.00027967
0.00356066
-0.000459351
0.00437689
-0.000667698
0.00499553
0.0054662
-3.85002e-05
0.00107025
-0.000133168
0.00255227
-0.00027388
0.00370137
-0.000450777
0.00455379
-0.000656398
0.00520115
0.00569439
-3.74345e-05
0.00110769
-0.000129909
0.00264475
-0.000267868
0.00383933
-0.000441859
0.00472778
-0.000644635
0.00540392
-0.000870123
0.00591987
0.00634654
-3.63341e-05
0.00114402
-0.000126538
0.00273495
-0.000261637
0.00397443
-0.000432606
0.00489875
-0.000632414
0.00560373
-0.000855085
0.00614255
0.00658815
-3.52003e-05
0.00117922
-0.000123058
0.00282281
-0.000255193
0.00410656
-0.000423022
0.00506658
-0.000619743
0.00580045
-0.000839481
0.00636228
0.00682696
-3.40347e-05
0.00121325
-0.000119472
0.00290824
-0.000248543
0.00423563
-0.000413117
0.00523115
-0.00060663
0.00599397
-0.000823317
0.00657897
0.00706287
-3.28387e-05
0.00124609
-0.000115785
0.00299119
-0.000241691
0.00436154
-0.000402896
0.00539236
-0.000593083
0.00618416
-0.000806603
0.00679249
0.00729577
-3.1614e-05
0.00127771
-0.000112
0.00307158
-0.000234645
0.00448418
-0.000392367
0.00555008
-0.00057911
0.0063709
-0.000789346
0.00700272
0.00752555
-3.03621e-05
0.00130807
-0.000108122
0.00314934
-0.000227411
0.00460347
-0.000381539
0.00570421
-0.00056472
0.00655408
-0.000771555
0.00720956
0.00775208
-2.90846e-05
0.00133715
-0.000104156
0.00322441
-0.000219996
0.00471931
-0.00037042
0.00585463
-0.000549921
0.00673358
-0.00075324
0.00741288
0.00797528
-2.77833e-05
0.00136494
-0.000100105
0.00329673
-0.000212406
0.00483162
-0.000359018
0.00600124
-0.000534724
0.00690929
-0.00073441
0.00761256
0.00819501
-2.64599e-05
0.0013914
-9.5974e-05
0.00336624
-0.00020465
0.00494029
-0.000347342
0.00614393
-0.000519137
0.00708108
-0.000715074
0.0078085
-0.000931235
0.00841117
0.00894398
-2.51161e-05
0.00141651
-9.1768e-05
0.0034329
-0.000196733
0.00504526
-0.000335403
0.0062826
-0.000503171
0.00724885
-0.000695244
0.00800057
-0.000907723
0.00862365
0.00917396
-2.37536e-05
0.00144027
-8.74917e-05
0.00349663
-0.000188665
0.00514643
-0.000323209
0.00641715
-0.000486838
0.00741248
-0.00067493
0.00818867
-0.000883615
0.00883233
0.00940029
-2.23744e-05
0.00146264
-8.315e-05
0.00355741
-0.000180453
0.00524373
-0.00031077
0.00654746
-0.000470146
0.00757186
-0.000654143
0.00837266
-0.000858922
0.00903711
0.00962286
-2.09803e-05
0.00148362
-7.8748e-05
0.00361518
-0.000172104
0.00533709
-0.000298097
0.00667346
-0.00045311
0.00772687
-0.000632895
0.00855245
-0.000833655
0.00923787
0.00984156
-1.95731e-05
0.00150319
-7.42906e-05
0.00366989
-0.000163629
0.00542643
-0.0002852
0.00679503
-0.000435739
0.00787741
-0.000611198
0.00872791
-0.000807827
0.0094345
0.0100563
-1.81547e-05
0.00152135
-6.97834e-05
0.00372152
-0.000155034
0.00551168
-0.000272091
0.00691209
-0.000418046
0.00802336
-0.000589065
0.00889893
-0.000781451
0.00962689
-0.000992105
0.0102669
0.0108794
-1.67271e-05
0.00153808
-6.52314e-05
0.00377003
-0.000146329
0.00559277
-0.000258781
0.00702454
-0.000400045
0.00816463
-0.000566509
0.00906539
-0.000754538
0.00981492
-0.000961007
0.0104734
0.0111022
-1.53129e-05
0.00155339
-6.0673e-05
0.00381539
-0.000137562
0.00566966
-0.000245321
0.0071323
-0.000381786
0.00830109
-0.000543577
0.00922718
-0.000727132
0.00999847
-0.000929303
0.0106756
0.0113208
-1.38729e-05
0.00156726
-5.60487e-05
0.00385756
-0.000128665
0.00574228
-0.000231646
0.00723528
-0.000363208
0.00843265
-0.000520217
0.00938419
-0.000699189
0.0101774
-0.000896959
0.0108734
0.011535
-1.24296e-05
0.00157969
-5.13964e-05
0.00389653
-0.000119686
0.00581057
-0.000217805
0.0073334
-0.000344363
0.00855921
-0.000496476
0.0095363
-0.000670752
0.0103517
-0.000864013
0.0110666
0.0117449
-1.09849e-05
0.00159068
-4.67218e-05
0.00393227
-0.000110634
0.00587448
-0.000203812
0.00742658
-0.000325264
0.00868066
-0.00047237
0.00968341
-0.000641836
0.0105212
-0.000830479
0.0112553
-0.00103585
0.0119503
0.0126473
-9.54084e-06
0.00160022
-4.20306e-05
0.00396476
-0.000101519
0.00593397
-0.000189681
0.00751474
-0.000305927
0.00879691
-0.000447915
0.0098254
-0.000612456
0.0106857
-0.000796372
0.0114392
-0.000997138
0.012151
0.0128633
-8.09938e-06
0.00160832
-3.73286e-05
0.00399399
-9.23516e-05
0.00598899
-0.000175424
0.00759781
-0.000286368
0.00890785
-0.000423126
0.00996216
-0.000582629
0.0108452
-0.000761708
0.0116183
-0.000957766
0.0123471
0.0130747
-6.66248e-06
0.00161498
-3.26216e-05
0.00401995
-8.31415e-05
0.00603951
-0.000161055
0.00767572
-0.000266603
0.0090134
-0.000398022
0.0100936
-0.000552372
0.0109996
-0.000726503
0.0117924
-0.000917749
0.0125383
0.0132813
-5.23213e-06
0.00162021
-2.79156e-05
0.00404263
-7.38991e-05
0.0060855
-0.00014659
0.00774841
-0.000246649
0.00911346
-0.000372619
0.0102195
-0.000521702
0.0111487
-0.000690774
0.0119615
-0.000877105
0.0127247
-0.00107884
0.013483
0.0142721
-3.8103e-06
0.00162402
-2.32163e-05
0.00406203
-6.4635e-05
0.00612691
-0.000132041
0.00781582
-0.000226522
0.00920794
-0.000346936
0.01034
-0.000490638
0.0112924
-0.000654538
0.0121254
-0.000835849
0.012906
-0.00103262
0.0136798
0.0144833
-2.39903e-06
0.00162642
-1.85298e-05
0.00407817
-5.53599e-05
0.00616374
-0.000117424
0.00787788
-0.00020624
0.00929676
-0.000320992
0.0104547
-0.000459198
0.0114306
-0.000617814
0.012284
-0.000794
0.0130822
-0.000985705
0.0138715
0.0146894
-1.00095e-06
0.00162742
-1.3862e-05
0.00409103
-4.60844e-05
0.00619597
-0.000102754
0.00793455
-0.000185822
0.00937983
-0.000294806
0.0105637
-0.000427402
0.0115632
-0.000580621
0.0124372
-0.000751575
0.0132531
-0.00093812
0.014058
-0.00113904
0.0148903
0.015772
3.82872e-07
0.00162704
-9.21881e-06
0.00410063
-3.68195e-05
0.00622357
-8.80471e-05
0.00798578
-0.000165286
0.00945707
-0.000268398
0.0106668
-0.00039527
0.01169
-0.000542978
0.0125849
-0.000708592
0.0134187
-0.000889878
0.0142393
-0.00108551
0.0150859
0.0159815
1.75566e-06
0.00162528
-4.60611e-06
0.00410699
-2.75761e-05
0.00624654
-7.33179e-05
0.00803152
-0.000144651
0.0095284
-0.000241791
0.0107639
-0.000362825
0.0118111
-0.000504905
0.012727
-0.000665072
0.0135789
-0.000840998
0.0144153
-0.00103125
0.0152762
0.0161856
3.10694e-06
0.00162218
-2.43549e-08
0.00411012
-1.83653e-05
0.00626488
-5.8583e-05
0.00807174
-0.000123937
0.00959375
-0.000215004
0.010855
-0.000330086
0.0119262
-0.000466425
0.0128633
-0.000621033
0.0137335
-0.0007915
0.0145857
-0.000976282
0.015461
-0.00117477
0.0163841
0.0173715
4.43812e-06
0.00161774
4.50388e-06
0.00411006
-9.19853e-06
0.00627858
-4.38585e-05
0.0081064
-0.000103163
0.00965306
-0.000188061
0.0109399
-0.000297078
0.0120352
-0.000427558
0.0129938
-0.000576498
0.0138825
-0.000741404
0.0147506
-0.00092062
0.0156402
-0.00111344
0.0165769
0.0175781
5.74785e-06
0.00161199
8.98974e-06
0.00410681
-7.24201e-08
0.00628764
-2.91607e-05
0.00813549
-8.2352e-05
0.00970625
-0.000160984
0.0110185
-0.000263824
0.012138
-0.000388329
0.0131183
-0.000531488
0.0140256
-0.000690729
0.0149099
-0.000864286
0.0158138
-0.00105135
0.016764
-0.00125192
0.0177786
0.0188671
7.03443e-06
0.00160496
1.34213e-05
0.00410043
8.95937e-06
0.00629211
-1.4507e-05
0.00815896
-6.15234e-05
0.00975327
-0.000133798
0.0110908
-0.000230349
0.0122346
-0.00034876
0.0132367
-0.000486025
0.0141629
-0.000639497
0.0150633
-0.0008073
0.0159816
-0.000988519
0.0169452
-0.00118307
0.0179732
0.0190756
8.29614e-06
0.00159666
1.77932e-05
0.00409093
1.79276e-05
0.00629197
8.63042e-08
0.0081768
-4.06992e-05
0.00979405
-0.000106526
0.0111566
-0.000196677
0.0123247
-0.000308877
0.0133489
-0.000440133
0.0142941
-0.00058773
0.0152109
-0.000749682
0.0161435
-0.000924966
0.0171205
-0.00111341
0.0181616
0.0192777
9.53134e-06
0.00158713
2.20997e-05
0.00407836
2.68071e-05
0.00628726
1.4602e-05
0.008189
-1.99015e-05
0.00982855
-7.91942e-05
0.0112159
-0.000162836
0.0124084
-0.000268706
0.0134548
-0.000393836
0.0144193
-0.000535451
0.0153526
-0.000691455
0.0162995
-0.000860712
0.0172897
-0.00104296
0.0183439
-0.00123864
0.0194734
0.0206856
1.07384e-05
0.00157639
2.63354e-05
0.00406276
3.55866e-05
0.00627801
2.90226e-05
0.00819557
8.5128e-07
0.00985673
-5.18281e-05
0.0112686
-0.000128853
0.0124854
-0.000228274
0.0135542
-0.000347161
0.0145382
-0.000482684
0.0154881
-0.000632641
0.0164495
-0.00079578
0.0174529
-0.000971737
0.0185198
-0.00116091
0.0196625
-0.00136423
0.0208889
0.0222035
1.19159e-05
0.00156447
3.04946e-05
0.00404419
4.42549e-05
0.00626425
4.33307e-05
0.00819649
2.15242e-05
0.00987853
-2.44546e-05
0.0113146
-9.47551e-05
0.0125557
-0.000187608
0.0136471
-0.000300133
0.0146507
-0.000429455
0.0156174
-0.000573264
0.0165933
-0.000730192
0.0176098
-0.000899774
0.0186894
-0.00108234
0.0198451
-0.00127878
0.0210853
0.0224153
1.30623e-05
0.00155141
3.4572e-05
0.00402268
5.28009e-05
0.00624602
5.75089e-05
0.00819178
4.21058e-05
0.00989394
2.89881e-06
0.0113538
-6.05725e-05
0.0126192
-0.000146738
0.0137332
-0.000252781
0.0147567
-0.000375787
0.0157404
-0.000513347
0.0167308
-0.000663971
0.0177604
-0.000827089
0.0188525
-0.00100295
0.020021
-0.00119242
0.0212748
-0.00139687
0.0226197
0.0240609
1.41761e-05
0.00153724
3.85625e-05
0.00399829
6.12136e-05
0.00622337
7.15395e-05
0.00818146
6.25685e-05
0.00990291
3.02047e-05
0.0113862
-2.63354e-05
0.0126757
-0.000105694
0.0138126
-0.000205133
0.0148562
-0.00032171
0.015857
-0.000452916
0.016862
-0.000597141
0.0179047
-0.000753704
0.0190091
-0.000922774
0.02019
-0.00110516
0.0214572
-0.00130224
0.0228168
0.0242744
1.52562e-05
0.00152198
4.24609e-05
0.00397109
6.94821e-05
0.00619635
8.54048e-05
0.00816553
8.28882e-05
0.00990542
5.74337e-05
0.0114116
7.92514e-06
0.0127252
-6.45079e-05
0.013885
-0.00015722
0.0149489
-0.000267251
0.015967
-0.000391998
0.0169868
-0.000529728
0.0180424
-0.000679644
0.019159
-0.00084183
0.0203522
-0.00101704
0.0216324
-0.00120663
0.0230064
-0.00141231
0.0244801
0.0260599
1.6301e-05
0.00150568
4.62623e-05
0.00394112
7.75958e-05
0.00616502
9.90871e-05
0.00814404
0.000103041
0.00990147
8.45565e-05
0.0114301
4.21765e-05
0.0127676
-2.32121e-05
0.0139504
-0.000109073
0.0150347
-0.000212439
0.0160704
-0.000330619
0.017105
-0.000461757
0.0181735
-0.000604935
0.0193022
-0.000760142
0.0205074
-0.000928072
0.0218003
-0.00111005
0.0231884
-0.0013078
0.0246778
-0.00152373
0.0262758
0.0279852
1.73096e-05
0.00148837
4.99619e-05
0.00390847
8.55438e-05
0.00612943
0.000112569
0.00811702
0.000123001
0.00989104
0.000111543
0.0114416
7.63857e-05
0.0128027
1.81591e-05
0.0140086
-6.07256e-05
0.0151136
-0.000157306
0.016167
-0.000268809
0.0172165
-0.000393255
0.018298
-0.000529602
0.0194385
-0.000677736
0.0206555
-0.000838285
0.0219609
-0.00101254
0.0233626
-0.0012022
0.0248675
-0.00140972
0.0264833
-0.00163724
0.0282127
0.0300767
1.82807e-05
0.00147009
5.35552e-05
0.0038732
9.3316e-05
0.00608967
0.000125832
0.0080845
0.000142745
0.00987413
0.000138362
0.0114459
0.000110518
0.0128306
5.95704e-05
0.0140596
-1.22114e-05
0.0151854
-0.000101883
0.0162566
-0.000206597
0.0173212
-0.00032425
0.0184156
-0.000453671
0.0195679
-0.000594639
0.0207965
-0.000747704
0.0221139
-0.000914113
0.023529
-0.00109555
0.0250489
-0.00129447
0.0266822
-0.0015131
0.0284314
0.030319
1.92133e-05
0.00145088
5.70377e-05
0.00383537
0.000100902
0.00604581
0.00013886
0.00804654
0.000162246
0.00985074
0.000164983
0.0114432
0.000144539
0.012851
0.000100985
0.0141031
3.64334e-05
0.01525
-4.62051e-05
0.0163393
-0.000144014
0.017419
-0.000254772
0.0185264
-0.000377172
0.0196903
-0.000510879
0.0209302
-0.000656356
0.0222594
-0.0008148
0.0236875
-0.000987874
0.025222
-0.00117801
0.0268723
-0.00138753
0.0286409
0.0305518
2.01065e-05
0.00143077
6.04053e-05
0.00379507
0.000108292
0.00599792
0.000151635
0.0080032
0.00018148
0.00982089
0.000191373
0.0114333
0.000178411
0.012864
0.000142365
0.0141392
8.51714e-05
0.0153071
9.69279e-06
0.0164148
-8.10948e-05
0.0175098
-0.000184852
0.0186301
-0.000300134
0.0198056
-0.000426483
0.0210566
-0.000564271
0.0223972
-0.000714629
0.0238378
-0.00087919
0.0253865
-0.00106036
0.0270535
-0.00126054
0.028841
0.0307747
2.09593e-05
0.00140981
6.36539e-05
0.00375238
0.000115477
0.0059461
0.000164139
0.00795454
0.000200422
0.00978461
0.0002175
0.0114162
0.000212097
0.0128694
0.000183671
0.0141676
0.000133963
0.0153569
6.57753e-05
0.0164829
-1.78717e-05
0.0175934
-0.00011452
0.0187268
-0.000222587
0.0199137
-0.000341483
0.0211755
-0.000471478
0.0225272
-0.00061363
0.02398
-0.00076953
0.0255424
-0.000941559
0.0272256
-0.00113215
0.0290316
0.0309876
2.1771e-05
0.00138804
6.67798e-05
0.00370737
0.000122447
0.00589043
0.000176357
0.00790063
0.000219046
0.00974192
0.00024333
0.011392
0.000245559
0.0128672
0.000224861
0.0141883
0.000182769
0.0153989
0.000122002
0.0165437
4.56187e-05
0.0176698
-4.38114e-05
0.0188162
-0.000144563
0.0200144
-0.00025591
0.0212868
-0.000378009
0.0226493
-0.000511835
0.0241138
-0.000658927
0.0256895
-0.000821622
0.0273882
-0.00100238
0.0292124
2.25409e-05
0.0013655
6.97796e-05
0.00366013
0.000129193
0.00583102
0.00018827
0.00784155
0.000237327
0.00969286
0.000268832
0.0113604
0.000278757
0.0128572
0.000265894
0.0142012
0.000231545
0.0154333
0.000178332
0.0165969
0.000109339
0.0177388
2.72392e-05
0.0188983
-6.60953e-05
0.0201078
-0.000169795
0.0213905
-0.000283896
0.0227634
-0.000409278
0.0242392
-0.000547414
0.0258277
-0.000700587
0.0275414
0.0293831
2.32683e-05
0.00134223
7.26499e-05
0.00361075
0.000135707
0.00576796
0.000199864
0.00777739
0.000255239
0.00963749
0.00029397
0.0113217
0.000311651
0.0128396
0.000306725
0.0142061
0.000280247
0.0154598
0.000234724
0.0166424
0.000173249
0.0178003
9.85956e-05
0.018973
1.27801e-05
0.0201936
-8.31753e-05
0.0214865
-0.000189175
0.0228694
-0.000305995
0.024356
-0.000435029
0.0259567
-0.000578491
0.0276849
0.0295434
2.39528e-05
0.00131828
7.53876e-05
0.00355932
0.00014198
0.00570137
0.000211121
0.00770825
0.000272758
0.00957585
0.00031871
0.0112758
0.0003442
0.0128141
0.000347309
0.014203
0.00032883
0.0154783
0.000291133
0.0166801
0.000237307
0.0178541
0.000170218
0.0190401
9.20285e-05
0.0202718
3.91042e-06
0.0215746
-9.38827e-05
0.0229672
-0.000202023
0.0244642
-0.000321811
0.0260765
-0.000455375
0.0278184
0.0296932
2.45939e-05
0.00129368
7.79902e-05
0.00350592
0.000148004
0.00563136
0.000222027
0.00763423
0.000289857
0.00950802
0.000343019
0.0112226
0.000376361
0.0127807
0.0003876
0.0141917
0.000377245
0.0154886
0.000347513
0.0167099
0.000301469
0.0179002
0.000242067
0.0190995
0.00017161
0.0203422
9.14386e-05
0.0216548
1.94145e-06
0.0230567
-9.74036e-05
0.0245635
-0.000207802
0.0261869
-0.000331284
0.0279419
0.0298322
2.51912e-05
0.00126849
8.0455e-05
0.00345066
0.000153773
0.00555804
0.000232566
0.00755544
0.000306514
0.00943407
0.000366861
0.0111623
0.000408092
0.0127395
0.000427549
0.0141723
0.000425442
0.0154907
0.000403814
0.0167315
0.000365691
0.0179383
0.000314099
0.019151
0.000251485
0.0204049
0.000179355
0.0217269
9.82633e-05
0.0231378
7.81415e-06
0.0246539
-9.30475e-05
0.0262878
-0.000206266
0.0280551
0.0299601
2.57446e-05
0.00124275
8.27799e-05
0.00339362
0.000159279
0.00548154
0.000242725
0.00747199
0.000322703
0.0093541
0.000390202
0.0110948
0.000439349
0.0126903
0.000467107
0.0141445
0.00047337
0.0154845
0.000459985
0.0167449
0.000429923
0.0179683
0.000386269
0.0191947
0.00033161
0.0204595
0.000267624
0.0217909
0.000195035
0.0232104
0.00011361
0.0247354
2.24046e-05
0.026379
-8.03784e-05
0.0281579
0.0300767
2.62538e-05
0.00121649
8.4963e-05
0.00333491
0.000164517
0.00540198
0.000252488
0.00738402
0.0003384
0.00926818
0.000413007
0.0110202
0.000470089
0.0126333
0.000506223
0.0141084
0.000520974
0.0154697
0.000515973
0.0167499
0.000494114
0.0179902
0.000458531
0.0192303
0.000411943
0.0205061
0.000356202
0.0218466
0.000292214
0.0232744
0.000219913
0.0248077
0.000138501
0.0264604
4.63283e-05
0.0282501
0.0301817
2.67188e-05
0.00118977
8.70026e-05
0.00327463
0.000169479
0.00531951
0.000261843
0.00729166
0.000353583
0.00917644
0.000435242
0.0109385
0.000500265
0.0125682
0.000544844
0.0140638
0.000568198
0.0154463
0.000571722
0.0167464
0.000558212
0.0180037
0.000530834
0.0192577
0.000492435
0.0205445
0.000445044
0.021894
0.000389754
0.0233297
0.00032668
0.0248707
0.00025519
0.0265319
0.000173799
0.0283315
0.030275
2.71397e-05
0.00116263
8.88975e-05
0.00321287
0.000174162
0.00523424
0.000270777
0.00719504
0.000368228
0.00907899
0.000456873
0.0108498
0.000529834
0.0124953
0.000582917
0.0140107
0.000614985
0.0154143
0.000627174
0.0167342
0.00062216
0.0180087
0.000603126
0.0192767
0.000573038
0.0205746
0.000534102
0.0219329
0.000487608
0.0233762
0.000433862
0.0249245
0.000372412
0.0265933
0.000301951
0.028402
0.0303563
2.75102e-05
0.00113512
9.06319e-05
0.00314975
0.000178534
0.00514634
0.000279242
0.00709433
0.000382263
0.00897597
0.0004778
0.0107543
0.00055867
0.0124144
0.000620295
0.0139491
0.000661167
0.0153734
0.000682144
0.0167132
0.000685762
0.0180051
0.0006752
0.0192873
0.000653533
0.0205963
0.000623143
0.0219633
0.000585523
0.0234138
0.000541183
0.0249688
0.000489868
0.0266446
0.00043046
0.0284614
0.0304254
2.78433e-05
0.00110728
9.22348e-05
0.00308536
0.000182643
0.00505593
0.0002873
0.00698968
0.000395769
0.0088675
0.000498121
0.010652
0.000586886
0.0123256
0.000657108
0.0138789
0.000706897
0.0153236
0.000736815
0.0166833
0.00074923
0.0179927
0.000747301
0.0192892
0.000734199
0.0206094
0.000712482
0.021985
0.00068385
0.0234424
0.000649029
0.0250037
0.000607974
0.0266857
0.000559778
0.0285096
0.0304821
2.81329e-05
0.00107915
9.36909e-05
0.0030198
0.00018646
0.00496316
0.000294905
0.00688123
0.000408673
0.00875373
0.000517736
0.0105429
0.000614357
0.012229
0.000693205
0.0138
0.000752005
0.0152648
0.000790997
0.0166443
0.000812362
0.0179713
0.000819217
0.0192823
0.000814814
0.0206138
0.000801881
0.021998
0.000782333
0.023462
0.000757121
0.0250289
0.000726427
0.0267164
0.000689564
0.0285464
0.0305262
2.83793e-05
0.00105077
9.49999e-05
0.00295318
0.00018998
0.00486818
0.000302046
0.00676917
0.000420957
0.00863482
0.000536614
0.0104272
0.000641037
0.0121246
0.00072853
0.0137125
0.000796423
0.0151969
0.000844622
0.0165961
0.000875091
0.0179409
0.000890882
0.0192665
0.000895315
0.0206093
0.000891283
0.022002
0.000880915
0.0234723
0.000865398
0.0250444
0.000845155
0.0267366
0.000819738
0.0285718
0.0305576
2.85831e-05
0.00102219
9.61622e-05
0.0028856
0.000193203
0.00477114
0.000308716
0.00665365
0.000432601
0.00851094
0.000554724
0.0103051
0.00066688
0.0120124
0.000763024
0.0136164
0.000840086
0.0151199
0.000897617
0.0165386
0.000937344
0.0179011
0.000962228
0.0192417
0.00097564
0.0205959
0.000980626
0.021997
0.000979535
0.0234734
0.000973797
0.0250501
0.00096409
0.0267463
0.000950217
0.0285857
0.0305762
2.87448e-05
0.000993441
9.71782e-05
0.00281716
0.000196127
0.00467219
0.000314906
0.00653487
0.000443589
0.00838226
0.000572034
0.0101767
0.000691842
0.0118926
0.000796629
0.0135116
0.000882923
0.0150336
0.000949908
0.0164716
0.000999047
0.017852
0.00103318
0.0192075
0.00105572
0.0205734
0.00106985
0.0219829
0.00107813
0.0234651
0.00108225
0.025046
0.00108316
0.0267454
0.00108091
0.028588
0.0305818
2.8865e-05
0.000964576
9.80486e-05
0.00274798
0.00019875
0.00457149
0.000320611
0.00641301
0.000453905
0.00824896
0.000588515
0.0100421
0.000715876
0.0117653
0.000829283
0.0133982
0.000924864
0.014938
0.00100142
0.016395
0.00106012
0.0177933
0.00110367
0.019164
0.00113549
0.0205416
0.00115888
0.0219595
0.00117664
0.0234474
0.00119069
0.0250319
0.00120228
0.0267338
0.00121173
0.0285785
0.0305743
2.89444e-05
0.000935631
9.87746e-05
0.00267815
0.000201071
0.0044692
0.000325825
0.00628826
0.000463534
0.00811125
0.00060414
0.00990145
0.000738941
0.0116305
0.000860929
0.0132762
0.000965837
0.0148331
0.00105207
0.0163088
0.00112048
0.0177249
0.00117362
0.0191108
0.00121486
0.0205003
0.00124765
0.0219267
0.00127498
0.02342
0.00129905
0.0250079
0.00132138
0.0267115
0.00134259
0.0285573
0.0305537
2.89837e-05
0.000906648
9.93575e-05
0.00260778
0.000203091
0.00436546
0.000330544
0.00616081
0.000472461
0.00796934
0.00061888
0.00975504
0.000760991
0.0114884
0.000891507
0.0131457
0.00100577
0.0147188
0.00110177
0.0162128
0.00118005
0.0176466
0.00124293
0.0190479
0.00129376
0.0204495
0.00133609
0.0218844
0.0013731
0.023383
0.00140726
0.0249737
0.00144037
0.0266784
0.00147339
0.0285243
0.0305198
2.89839e-05
0.000877664
9.97989e-05
0.00253696
0.000204812
0.00426045
0.000334763
0.00603085
0.000480677
0.00782342
0.000632712
0.009603
0.000781987
0.0113391
0.000920958
0.0130067
0.00104459
0.0145952
0.00115045
0.0161069
0.00123873
0.0175583
0.00131152
0.0189752
0.00137211
0.0203889
0.00142412
0.0218324
0.00147091
0.0233362
0.00151523
0.0249294
0.00155918
0.0266344
0.00160403
0.0284794
0.00165108
0.0304728
0.0326582
2.89458e-05
0.000848718
0.000100101
0.00246581
0.000206233
0.00415432
0.000338482
0.0058986
0.000488169
0.00767374
0.000645612
0.00944556
0.000801886
0.0111828
0.000949222
0.0128594
0.00108221
0.0144622
0.00119801
0.0159911
0.00129643
0.0174599
0.00137931
0.0188923
0.00144982
0.0203184
0.00151165
0.0217706
0.00156834
0.0232795
0.00162289
0.0248749
0.00167772
0.0265796
0.00173441
0.0284227
0.00179469
0.0304125
0.0325945
2.88704e-05
0.000819848
0.000100265
0.00239441
0.000207358
0.00404723
0.000341698
0.00576426
0.000494929
0.00752051
0.000657556
0.00928293
0.000820651
0.0110197
0.000976242
0.0127038
0.00111857
0.0143199
0.00124437
0.0158653
0.00135305
0.0173512
0.00144618
0.0187992
0.00152679
0.0202378
0.00159859
0.0216988
0.0016653
0.0232128
0.00173016
0.02481
0.0017959
0.0265139
0.00186444
0.0283542
0.00193792
0.030339
0.032516
2.87587e-05
0.000791089
0.000100294
0.00232288
0.000208188
0.00393933
0.000344412
0.00562804
0.000500949
0.00736397
0.000668527
0.00911535
0.000838243
0.01085
0.00100196
0.0125401
0.00115358
0.0141683
0.00128943
0.0157295
0.0014085
0.0172321
0.00151204
0.0186956
0.00160293
0.0201469
0.00168486
0.0216168
0.0017617
0.023136
0.00183694
0.0247348
0.00191363
0.0264372
0.00199401
0.0282738
0.00208066
0.0302524
0.0324229
2.86117e-05
0.000762477
0.000100191
0.0022513
0.000208728
0.0038308
0.000346624
0.00549014
0.000506225
0.00720437
0.000678505
0.00894307
0.000854628
0.0106739
0.00102632
0.0123684
0.00118718
0.0140074
0.00133311
0.0155835
0.00146267
0.0171026
0.00157679
0.0185815
0.00167812
0.0200456
0.00177036
0.0215246
0.00185746
0.0230489
0.00194316
0.0246491
0.00203082
0.0263495
0.00212303
0.0281816
0.00222277
0.0301526
0.032315
2.84305e-05
0.000734047
9.99584e-05
0.00217977
0.00020898
0.00372177
0.000348337
0.00535079
0.000510751
0.00704195
0.000687476
0.00876635
0.000869773
0.0104916
0.00104927
0.0121889
0.00121928
0.0138374
0.0013753
0.0154275
0.00151546
0.0169624
0.0016403
0.0184567
0.00175227
0.0199336
0.00185497
0.0214219
0.00195247
0.0229514
0.00204872
0.0245528
0.00214738
0.0262509
0.00225139
0.0280776
0.00236414
0.0300399
0.0321927
2.82163e-05
0.00070583
9.95989e-05
0.00210839
0.000208949
0.00361242
0.000349554
0.00521018
0.000514526
0.00687698
0.000695424
0.00858545
0.000883647
0.0103034
0.00107076
0.0120018
0.00124981
0.0136583
0.00141591
0.0152614
0.00156675
0.0168116
0.00170247
0.0183209
0.00182525
0.0198108
0.00193859
0.0213085
0.00204663
0.0228433
0.00215352
0.0244459
0.0022632
0.0261412
0.00237898
0.0279618
0.00250464
0.0299142
0.032056
2.79703e-05
0.00067786
9.91159e-05
0.00203724
0.000208641
0.0035029
0.00035028
0.00506854
0.000517549
0.00670971
0.000702341
0.00840066
0.000896222
0.0101095
0.00109074
0.0118073
0.00127871
0.0134704
0.00145486
0.0150853
0.00161643
0.01665
0.00176317
0.0181742
0.00189694
0.019677
0.00202111
0.0211844
0.00213984
0.0227246
0.00225746
0.0243283
0.00237819
0.0260205
0.0025057
0.0278343
0.00264415
0.0297758
0.0319051
2.76935e-05
0.000650166
9.85128e-05
0.00196642
0.00020806
0.00339335
0.000350519
0.00492608
0.000519822
0.00654041
0.000708216
0.00821226
0.000907473
0.00991022
0.00110915
0.0116056
0.00130588
0.0132736
0.00149203
0.0148991
0.0016644
0.0164776
0.00182228
0.0180163
0.00196721
0.0195321
0.00210239
0.0210492
0.00223197
0.022595
0.00236043
0.0241998
0.00249225
0.0258886
0.00263145
0.0276951
0.00278255
0.0296246
0.0317403
0.00294743
2.73872e-05
0.000622779
9.77931e-05
0.00189602
0.000207211
0.00328393
0.000350277
0.00478302
0.000521347
0.00636934
0.000713044
0.00802057
0.000917379
0.00970589
0.00112596
0.011397
0.00133127
0.0130683
0.00152734
0.0147031
0.00171052
0.0162945
0.00187966
0.0178472
0.00203593
0.0193758
0.00218232
0.0209028
0.0023229
0.0224545
0.00246232
0.0240604
0.00260526
0.0257457
0.00275611
0.0275443
0.00291973
0.029461
0.0315616
0.00309842
2.70526e-05
0.000595727
9.69604e-05
0.00182611
0.000206103
0.00317479
0.000349563
0.00463956
0.000522129
0.00619677
0.000716822
0.00782587
0.000925919
0.00949679
0.00114113
0.0111818
0.00135481
0.0128547
0.00156069
0.0144972
0.00175468
0.0161005
0.00193519
0.0176667
0.00210297
0.0192081
0.00226074
0.020745
0.00241251
0.0223027
0.00256301
0.0239099
0.00271711
0.0255916
0.00287958
0.0273818
0.00305557
0.029285
0.0313693
0.00324785
2.6691e-05
0.000569036
9.60186e-05
0.00175678
0.00020474
0.00306607
0.000348385
0.00449591
0.000522175
0.00602298
0.000719547
0.0076285
0.000933079
0.00928326
0.00115461
0.0109602
0.00137643
0.0126328
0.00159198
0.0142816
0.00179678
0.0158957
0.00198872
0.0174747
0.00216816
0.0190286
0.00233752
0.0205757
0.00250066
0.0221395
0.00266237
0.0237482
0.00282769
0.0254263
0.00300175
0.0272077
0.00318995
0.0290968
0.0311636
0.00339561
2.63035e-05
0.000542732
9.49713e-05
0.00168811
0.00020313
0.00295791
0.00034675
0.00435229
0.000521493
0.00584824
0.000721223
0.00742877
0.000938847
0.00906563
0.00116638
0.0107327
0.00139607
0.0124031
0.00162113
0.0140566
0.00183667
0.0156801
0.00204012
0.0172713
0.00223137
0.0188374
0.0024125
0.0203945
0.0025872
0.0219648
0.00276027
0.0235751
0.00293688
0.0252497
0.0031225
0.0270221
0.00332275
0.0288966
0.0309448
0.00354158
2.58915e-05
0.000516841
9.38226e-05
0.00162018
0.00020128
0.00285045
0.000344671
0.0042089
0.000520092
0.00567282
0.000721853
0.00722701
0.000943213
0.00884427
0.0011764
0.0104995
0.00141368
0.0121659
0.00164805
0.0138222
0.00187425
0.0154539
0.00208924
0.0170563
0.00229243
0.0186342
0.00248552
0.0202014
0.00267197
0.0217784
0.00285656
0.0233905
0.00304453
0.0250617
0.00324171
0.0268249
0.00345385
0.0286845
0.030713
0.00368563
2.5456e-05
0.000491385
9.25765e-05
0.00155306
0.000199199
0.00274383
0.000342156
0.00406594
0.000517985
0.00549699
0.000721444
0.00702355
0.000946175
0.00861954
0.00118466
0.010261
0.0014292
0.0119213
0.00167265
0.0135787
0.0019094
0.0152172
0.00213593
0.0168298
0.00235117
0.0184189
0.00255641
0.0199962
0.00275481
0.02158
0.00295109
0.0231942
0.00315051
0.0248623
0.00335926
0.0266162
0.00358313
0.0284606
0.0304685
0.00382765
2.49984e-05
0.000466386
9.1237e-05
0.00148682
0.000196893
0.00263818
0.000339219
0.00392362
0.000515184
0.00532102
0.000720007
0.00681873
0.00094773
0.00839182
0.00119112
0.0100176