/*--------------------------------*- C++ -*----------------------------------*\
  =========                 |
  \\      /  F ield         | OpenFOAM: The Open Source CFD Toolbox
   \\    /   O peration     | Website:  https://openfoam.org
    \\  /    A nd           | Version:  7
     \\/     M anipulation  |
\*---------------------------------------------------------------------------*/
FoamFile
{
    version     2.0;
    format      ascii;
    class       surfaceScalarField;
    location    "5";
    object      phi;
}
// * * * * * * * * * * * * * * * * * * * * * * * * * * * * * * * * * * * * * //

dimensions      [0 3 -1 0 0 0 0];

internalField   nonuniform List<scalar> 
5141
(
0.00264139
-0.00125394
0.0026317
-0.00126611
0.00262225
-0.00127547
0.00261306
-0.00128181
0.00260416
-0.00128494
0.00259557
-0.00128469
0.00258731
-0.00128088
0.0025794
-0.00127339
0.00257185
-0.0012621
0.0025647
-0.00124694
0.00255794
-0.00122789
0.00255161
-0.00120497
0.0025457
-0.00117824
0.00254022
-0.00114784
-0.00111395
0.00315443
-0.000127401
-0.00316496
0.00314242
-0.000167854
0.00312929
-0.000208582
0.00311527
-0.000250341
0.00310069
-0.000292087
0.00308584
-0.000333354
0.00307089
-0.000373967
0.00305598
-0.000413861
0.00304118
-0.000453045
0.00302654
-0.00049156
0.00301209
-0.000529458
0.00299785
-0.00056679
0.00298382
-0.000603603
0.00297001
-0.000639939
0.0029564
-0.000675828
0.00294299
-0.000711293
0.00292978
-0.000746344
0.00291674
-0.000780982
0.00290388
-0.000815194
0.00289117
-0.000848954
0.00287861
-0.000882225
0.00286618
-0.000914956
0.00285389
-0.000947081
0.00284171
-0.000978522
0.00282966
-0.00100919
0.00281772
-0.00103896
0.00280589
-0.00106774
0.00279419
-0.00109538
0.0027826
-0.00112174
0.00277115
-0.00114665
0.00275983
-0.00116996
0.00274867
-0.00119147
0.00273767
-0.001211
0.00272685
-0.00122836
0.00271624
-0.00124333
0.00270585
-0.00125572
0.0026957
-0.00126532
0.00268583
-0.00127193
0.00267624
-0.00127535
0.00266696
-0.00127541
0.00265803
-0.00127194
0.00264945
-0.00126481
0.00264126
-0.0012539
0.00263346
-0.00123915
0.00262609
-0.00122052
0.00261915
-0.00119803
0.00261266
-0.00117175
0.00260663
-0.00114181
-0.00110838
0.00324453
-0.000117085
-0.00325485
0.0032329
-0.00015622
0.00322021
-0.000195891
0.00320658
-0.000236717
0.00319231
-0.000277814
0.00317763
-0.000318678
0.00316274
-0.000359079
0.00314778
-0.000398899
0.00313284
-0.000438105
0.00311799
-0.000476706
0.00310326
-0.00051473
0.00308868
-0.000552214
0.00307428
-0.000589194
0.00306004
-0.000625702
0.00304598
-0.000661765
0.00303208
-0.0006974
0.00301836
-0.000732616
0.00300478
-0.000767411
0.00299136
-0.00080177
0.00297808
-0.00083567
0.00296492
-0.000869071
0.00295189
-0.000901923
0.00293897
-0.000934163
0.00292616
-0.000965713
0.00291346
-0.000996483
0.00290086
-0.00102637
0.00288837
-0.00105525
0.00287599
-0.001083
0.00286372
-0.00110947
0.00285157
-0.00113451
0.00283955
-0.00115794
0.00282768
-0.0011796
0.00281598
-0.00119929
0.00280445
-0.00121683
0.00279312
-0.001232
0.00278201
-0.00124461
0.00277115
-0.00125446
0.00276056
-0.00126134
0.00275027
-0.00126506
0.00274029
-0.00126544
0.00273066
-0.00126231
0.0027214
-0.00125555
0.00271254
-0.00124504
0.00270409
-0.0012307
0.00269607
-0.00121251
0.00268851
-0.00119047
0.00268142
-0.00116466
0.00267481
-0.00113519
-0.00110225
0.00333611
-0.000106968
-0.00334623
0.00332482
-0.000144928
0.00331254
-0.000183609
0.00329932
-0.000223495
0.00328538
-0.000263872
0.00327093
-0.000304232
0.00325616
-0.000344313
0.00324122
-0.000383957
0.00322621
-0.000423092
0.0032112
-0.000461697
0.00319625
-0.000499778
0.00318139
-0.000537353
0.00316664
-0.000574448
0.00315202
-0.000611084
0.00313754
-0.000647281
0.00312319
-0.000683052
0.00310897
-0.000718401
0.00309489
-0.000753325
0.00308093
-0.000787808
0.00306708
-0.000821824
0.00305334
-0.000855335
0.00303971
-0.000888291
0.00302618
-0.00092063
0.00301274
-0.000952274
0.00299939
-0.000983135
0.00298614
-0.00101311
0.00297297
-0.00104209
0.00295991
-0.00106993
0.00294695
-0.00109651
0.0029341
-0.00112166
0.00292137
-0.00114522
0.00290879
-0.00116702
0.00289636
-0.00118687
0.00288411
-0.00120458
0.00287206
-0.00121995
0.00286022
-0.00123278
0.00284863
-0.00124287
0.00283731
-0.00125002
0.00282629
-0.00125403
0.00281559
-0.00125474
0.00280525
-0.00125197
0.00279529
-0.00124559
0.00278573
-0.00123548
0.00277661
-0.00122157
0.00276793
-0.00120383
0.00275973
-0.00118226
0.00275201
-0.00115694
0.0027448
-0.00112798
-0.00109555
0.00342919
-9.70428e-05
-0.00343912
0.00341822
-0.000133953
0.00340632
-0.00017171
0.00339349
-0.00021067
0.0033799
-0.00025028
0.00336572
-0.000290056
0.00335113
-0.000329722
0.00333627
-0.000369093
0.00332124
-0.000408066
0.00330614
-0.000446593
0.00329102
-0.000484657
0.00327593
-0.00052226
0.00326089
-0.000559412
0.00324593
-0.000596125
0.00323106
-0.000632412
0.00321629
-0.00066828
0.00320162
-0.000703728
0.00318704
-0.00073875
0.00317256
-0.000773328
0.00315817
-0.000807435
0.00314387
-0.000841033
0.00312965
-0.000874072
0.00311551
-0.000906489
0.00310145
-0.00093821
0.00308746
-0.000969147
0.00307355
-0.000999199
0.00305971
-0.00102825
0.00304597
-0.00105618
0.00303231
-0.00108285
0.00301876
-0.0011081
0.00300532
-0.00113178
0.00299201
-0.00115371
0.00297886
-0.00117371
0.00296587
-0.00119159
0.00295307
-0.00120715
0.0029405
-0.0012202
0.00292816
-0.00123053
0.0029161
-0.00123795
0.00290434
-0.00124227
0.00289291
-0.00124331
0.00288183
-0.0012409
0.00287115
-0.00123491
0.00286088
-0.00122522
0.00285106
-0.00121175
0.0028417
-0.00119447
0.00283284
-0.0011734
0.00282447
-0.00114858
0.00281664
-0.00112014
-0.00108824
0.00352377
-8.73123e-05
-0.0035335
0.00351309
-0.000123279
0.00350156
-0.000160173
0.00348912
-0.000198231
0.00347588
-0.000237049
0.00346201
-0.00027618
0.00344764
-0.00031535
0.0034329
-0.00035436
0.00341792
-0.000393084
0.00340278
-0.000431451
0.00338754
-0.000469423
0.00337227
-0.000506985
0.00335699
-0.000544134
0.00334174
-0.000580871
0.00332652
-0.000617199
0.00331136
-0.00065312
0.00329626
-0.000688628
0.00328123
-0.000723713
0.00326625
-0.000758354
0.00325134
-0.000792524
0.00323649
-0.000826182
0.0032217
-0.00085928
0.00320696
-0.000891754
0.00319228
-0.000923531
0.00317766
-0.000954525
0.0031631
-0.000984636
0.0031486
-0.00101375
0.00313417
-0.00104175
0.00311982
-0.0010685
0.00310556
-0.00109384
0.00309141
-0.00111763
0.00307737
-0.00113968
0.00306348
-0.00115982
0.00304975
-0.00117786
0.0030362
-0.00119361
0.00302287
-0.00120687
0.00300978
-0.00121744
0.00299696
-0.00122514
0.00298445
-0.00122976
0.00297226
-0.00123113
0.00296045
-0.00122908
0.00294902
-0.00122348
0.00293803
-0.00121422
0.00292749
-0.00120121
0.00291743
-0.00118442
0.00290788
-0.00116384
0.00289885
-0.00113955
0.00289037
-0.00111166
-0.00108032
0.00361985
-7.77845e-05
-0.00362938
0.00360946
-0.000112895
0.00359827
-0.000148978
0.00358621
-0.000186167
0.00357334
-0.000224181
0.00355978
-0.000262623
0.00354566
-0.000301231
0.0035311
-0.000339802
0.00351622
-0.000378196
0.00350109
-0.000416323
0.00348579
-0.000454128
0.00347039
-0.00049158
0.00345492
-0.000528662
0.00343941
-0.000565365
0.0034239
-0.000601683
0.00340839
-0.00063761
0.00339289
-0.000673135
0.00337742
-0.000708244
0.00336198
-0.000742914
0.00334657
-0.000777114
0.0033312
-0.000810804
0.00331585
-0.000843933
0.00330054
-0.00087644
0.00328525
-0.00090825
0.00327001
-0.00093928
0.0032548
-0.000969431
0.00323964
-0.000998594
0.00322454
-0.00102665
0.00320949
-0.00105346
0.00319453
-0.00107888
0.00317965
-0.00110275
0.00316489
-0.00112491
0.00315025
-0.00114518
0.00313577
-0.00116338
0.00312147
-0.00117931
0.00310738
-0.00119278
0.00309352
-0.00120359
0.00307993
-0.00121155
0.00306665
-0.00121647
0.0030537
-0.00121818
0.00304112
-0.0012165
0.00302894
-0.00121131
0.0030172
-0.00120248
0.00300593
-0.00118994
0.00299515
-0.00117364
0.0029849
-0.00115359
0.00297519
-0.00112985
0.00296604
-0.00110251
-0.00107175
0.00371744
-6.84724e-05
-0.00372675
0.00370734
-0.000102797
0.00369647
-0.000138114
0.00368477
-0.000174467
0.00367227
-0.000211676
0.00365904
-0.000249398
0.0036452
-0.00028739
0.00363086
-0.000325455
0.00361611
-0.000363445
0.00360104
-0.000401258
0.00358574
-0.000438823
0.00357025
-0.000476095
0.00355464
-0.000513046
0.00353893
-0.000549655
0.00352315
-0.000585907
0.00350733
-0.00062179
0.00349148
-0.000657286
0.00347561
-0.000692378
0.00345974
-0.000727037
0.00344386
-0.000761233
0.00342797
-0.000794922
0.00341209
-0.000828053
0.00339622
-0.000860564
0.00338035
-0.000892383
0.0033645
-0.000923424
0.00334866
-0.000953593
0.00333285
-0.000982782
0.00331707
-0.00101087
0.00330134
-0.00103773
0.00328567
-0.00106321
0.00327007
-0.00108716
0.00325457
-0.00110942
0.0032392
-0.0011298
0.00322396
-0.00114814
0.0032089
-0.00116424
0.00319403
-0.00117791
0.0031794
-0.00118896
0.00316504
-0.00119718
0.00315097
-0.00120241
0.00313725
-0.00120445
0.00312389
-0.00120315
0.00311094
-0.00119836
0.00309844
-0.00118998
0.00308642
-0.00117791
0.0030749
-0.00116212
0.00306393
-0.00114261
0.00305352
-0.00111943
0.00304369
-0.00109269
-0.00106253
0.00381653
-5.93925e-05
-0.00382561
0.00380672
-9.29859e-05
0.00379618
-0.000127571
0.00378483
-0.000163121
0.00377269
-0.00019953
0.0037598
-0.000236513
0.00374626
-0.000273848
0.00373216
-0.000311351
0.00371758
-0.000348871
0.00370262
-0.000386298
0.00368735
-0.000423553
0.00367183
-0.000460577
0.00365612
-0.000497331
0.00364025
-0.000533785
0.00362426
-0.000569915
0.00360817
-0.0006057
0.003592
-0.00064112
0.00357577
-0.000676148
0.00355949
-0.000710757
0.00354317
-0.000744909
0.00352681
-0.000778562
0.00351042
-0.000811662
0.003494
-0.000844148
0.00347757
-0.000875947
0.00346112
-0.000906975
0.00344466
-0.000937138
0.00342821
-0.000966329
0.00341177
-0.000994431
0.00339536
-0.00102131
0.00337899
-0.00104684
0.00336268
-0.00107085
0.00334645
-0.00109319
0.00333033
-0.00111368
0.00331434
-0.00113215
0.00329851
-0.00114841
0.00328287
-0.00116227
0.00326745
-0.00117354
0.0032523
-0.00118203
0.00323745
-0.00118755
0.00322293
-0.00118993
0.00320879
-0.001189
0.00319506
-0.00118463
0.00318178
-0.0011767
0.003169
-0.00116512
0.00315673
-0.00114986
0.00314501
-0.0011309
0.00313388
-0.0011083
0.00312336
-0.00108216
-0.00105264
0.00391714
-5.05638e-05
-0.00392597
0.00390762
-8.34654e-05
0.00389739
-0.000117346
0.00388639
-0.00015212
0.0038746
-0.000187741
0.00386206
-0.000223972
0.00384883
-0.000260619
0.00383499
-0.000297511
0.00382063
-0.000334504
0.00380581
-0.000371483
0.00379062
-0.00040836
0.00377511
-0.000445071
0.00375934
-0.000481563
0.00374336
-0.0005178
0.00372719
-0.00055375
0.00371088
-0.000589384
0.00369443
-0.000624675
0.00367788
-0.000659594
0.00366123
-0.000694107
0.00364449
-0.000728175
0.00362768
-0.000761754
0.00361081
-0.000794788
0.00359388
-0.000827216
0.0035769
-0.000858964
0.00355987
-0.00088995
0.00354281
-0.00092008
0.00352573
-0.000949249
0.00350864
-0.000977341
0.00349156
-0.00100423
0.0034745
-0.00102978
0.00345748
-0.00105383
0.00344052
-0.00107623
0.00342366
-0.00109682
0.00340691
-0.00111541
0.00339031
-0.00113182
0.0033739
-0.00114586
0.0033577
-0.00115735
0.00334176
-0.00116609
0.00332611
-0.0011719
0.00331079
-0.00117462
0.00329585
-0.00117407
0.00328133
-0.00117011
0.00326727
-0.00116263
0.0032537
-0.00115155
0.00324066
-0.00113682
0.0032282
-0.00111843
0.00321633
-0.00109644
0.00320509
-0.00107092
-0.00104204
0.00401925
-4.20065e-05
-0.00402781
0.00401003
-7.4244e-05
0.00400012
-0.000107439
0.00398946
-0.000141461
0.00397802
-0.000176303
0.00396583
-0.000211776
0.00395292
-0.000247712
0.00393937
-0.000283956
0.00392523
-0.000320371
0.00391059
-0.000356844
0.00389552
-0.000393283
0.00388006
-0.000429616
0.00386428
-0.000465785
0.00384823
-0.000501744
0.00383193
-0.000537454
0.00381543
-0.000572881
0.00379875
-0.000607992
0.0037819
-0.000642751
0.00376492
-0.000677123
0.00374781
-0.000711064
0.00373058
-0.000744528
0.00371325
-0.000777459
0.00369583
-0.000809793
0.00367832
-0.000841458
0.00366075
-0.00087237
0.0036431
-0.000902438
0.00362541
-0.000931558
0.00360769
-0.000959616
0.00358995
-0.000986486
0.0035722
-0.00101203
0.00355448
-0.00103611
0.00353681
-0.00105856
0.00351921
-0.00107922
0.00350171
-0.00109791
0.00348434
-0.00111445
0.00346715
-0.00112866
0.00345016
-0.00114036
0.00343342
-0.00114935
0.00341697
-0.00115545
0.00340085
-0.0011585
0.00338511
-0.00115832
0.00336978
-0.00115478
0.00335492
-0.00114777
0.00334056
-0.00113719
0.00332674
-0.00112301
0.00331351
-0.0011052
0.00330089
-0.00108382
0.00328892
-0.00105895
-0.00103074
0.00412287
-3.37423e-05
-0.00413113
0.00411396
-6.53327e-05
0.00410437
-9.78526e-05
0.00409405
-0.00013114
0.00408296
-0.000165215
0.00407111
-0.000199927
0.00405854
-0.000235134
0.00404528
-0.000270699
0.0040314
-0.000306494
0.00401697
-0.00034241
0.00400204
-0.000378354
0.00398667
-0.000414251
0.00397092
-0.000450036
0.00395484
-0.000485658
0.00393845
-0.00052107
0.00392181
-0.000556234
0.00390492
-0.00059111
0.00388783
-0.00062566
0.00387055
-0.000659841
0.0038531
-0.000693611
0.00383549
-0.000726918
0.00381773
-0.000759705
0.00379985
-0.000791908
0.00378184
-0.000823454
0.00376373
-0.00085426
0.00374553
-0.000884235
0.00372725
-0.000913277
0.00370891
-0.000941273
0.00369052
-0.000968099
0.00367211
-0.000993622
0.0036537
-0.0010177
0.00363531
-0.00104017
0.00361698
-0.00106088
0.00359873
-0.00107966
0.00358061
-0.00109632
0.00356264
-0.00111069
0.00354486
-0.00112259
0.00352733
-0.00113181
0.00351007
-0.0011382
0.00349314
-0.00114157
0.00347659
-0.00114176
0.00346045
-0.00113865
0.00344478
-0.0011321
0.00342962
-0.00112203
0.00341501
-0.0011084
0.00340099
-0.00109119
0.00338761
-0.00107043
0.00337489
-0.00104623
-0.00101871
0.004228
-2.57927e-05
-0.00423595
0.00421941
-5.67441e-05
0.00421015
-8.85934e-05
0.00420017
-0.000121159
0.00418943
-0.000154474
0.00417793
-0.000188425
0.00416568
-0.000222891
0.00415273
-0.00025775
0.00413913
-0.000292889
0.00412492
-0.000328204
0.00411017
-0.000363603
0.00409493
-0.000399008
0.00407925
-0.000434352
0.00406317
-0.000469579
0.00404674
-0.000504638
0.00402998
-0.000539482
0.00401294
-0.00057407
0.00399564
-0.000608358
0.0039781
-0.000642301
0.00396034
-0.000675851
0.00394238
-0.000708957
0.00392423
-0.000741558
0.00390592
-0.000773591
0.00388744
-0.00080498
0.00386883
-0.000835645
0.00385009
-0.000865494
0.00383124
-0.000894427
0.00381229
-0.00092233
0.00379328
-0.000949085
0.00377422
-0.000974559
0.00375513
-0.00099861
0.00373605
-0.00102109
0.00371699
-0.00104183
0.00369801
-0.00106067
0.00367912
-0.00107744
0.00366038
-0.00109195
0.00364182
-0.00110403
0.00362349
-0.00111348
0.00360543
-0.00112014
0.00358769
-0.00112383
0.00357032
-0.00112439
0.00355336
-0.00112169
0.00353688
-0.00111561
0.00352091
-0.00110606
0.00350549
-0.00109299
0.00349069
-0.00107638
0.00347653
-0.00105627
0.00346305
-0.00103275
-0.00100594
0.00433464
-1.81795e-05
-0.00434225
0.00432639
-4.84925e-05
0.00431747
-7.967e-05
0.00430783
-0.00011152
0.00429743
-0.000144082
0.00428628
-0.000177271
0.00427437
-0.000210984
0.00426174
-0.000245119
0.00424843
-0.000279572
0.00423447
-0.000314246
0.00421992
-0.000349054
0.00420483
-0.000383917
0.00418924
-0.000418768
0.00417321
-0.000453544
0.00415676
-0.000488193
0.00413995
-0.000522664
0.00412279
-0.00055691
0.00410531
-0.000590884
0.00408755
-0.000624538
0.00406952
-0.000657822
0.00405124
-0.00069068
0.00403274
-0.000723053
0.00401402
-0.000754873
0.00399511
-0.000786067
0.00397602
-0.000816554
0.00395676
-0.000846242
0.00393737
-0.000875031
0.00391785
-0.000902811
0.00389823
-0.000929465
0.00387853
-0.000954861
0.00385878
-0.000978861
0.00383901
-0.00100132
0.00381925
-0.00102207
0.00379954
-0.00104096
0.00377991
-0.00105781
0.0037604
-0.00107244
0.00374106
-0.00108469
0.00372193
-0.00109435
0.00370307
-0.00110127
0.00368451
-0.00110528
0.00366633
-0.0011062
0.00364855
-0.00110392
0.00363125
-0.00109831
0.00361446
-0.00108927
0.00359824
-0.00107677
0.00358263
-0.00106077
0.00356768
-0.00104132
0.00355343
-0.00101849
-0.000992416
0.0044428
-1.09236e-05
-0.00445006
0.0044349
-4.05931e-05
0.00442633
-7.10927e-05
0.00441704
-0.000102229
0.00440699
-0.000134041
0.00439619
-0.000166466
0.00438462
-0.000199419
0.00437232
-0.000232812
0.0043593
-0.000266553
0.0043456
-0.000300553
0.00433128
-0.000334729
0.00431637
-0.000369005
0.00430091
-0.000403311
0.00428495
-0.000437586
0.00426853
-0.000471772
0.00425168
-0.000505816
0.00423444
-0.000539668
0.00421683
-0.000573276
0.00419888
-0.000606591
0.00418062
-0.000639559
0.00416206
-0.000672123
0.00414323
-0.000704222
0.00412415
-0.000735788
0.00410483
-0.000766746
0.00408529
-0.000797015
0.00406555
-0.000826504
0.00404564
-0.000855115
0.00402556
-0.00088274
0.00400536
-0.00090926
0.00398505
-0.000934549
0.00396466
-0.000958471
0.00394422
-0.000980879
0.00392376
-0.00100162
0.00390333
-0.00102053
0.00388296
-0.00103744
0.0038627
-0.00105218
0.00384259
-0.00106457
0.00382267
-0.00107444
0.00380301
-0.00108161
0.00378365
-0.00108591
0.00376464
-0.0010872
0.00374605
-0.00108533
0.00372792
-0.00108018
0.00371031
-0.00107166
0.00369327
-0.00105973
0.00367686
-0.00104436
0.00366111
-0.00102558
0.00364607
-0.00100346
-0.000978127
0.0045525
-4.04514e-06
-0.00455938
0.00454497
-3.3061e-05
0.00453675
-6.28729e-05
0.00452781
-9.32919e-05
0.00451812
-0.000124354
0.00450767
-0.000156012
0.00449645
-0.000188197
0.00448447
-0.000220834
0.00447176
-0.00025384
0.00445834
-0.000287137
0.00444426
-0.000320645
0.00442955
-0.000354292
0.00441424
-0.000388009
0.00439839
-0.000421733
0.00438203
-0.000455406
0.00436518
-0.000488972
0.00434789
-0.000522378
0.00433019
-0.00055557
0.00431209
-0.000588496
0.00429363
-0.000621099
0.00427483
-0.000653322
0.00425571
-0.000685102
0.00423629
-0.000716368
0.00421659
-0.000747048
0.00419664
-0.000777059
0.00417644
-0.000806312
0.00415604
-0.000834708
0.00413544
-0.000862141
0.00411467
-0.000888495
0.00409377
-0.000913646
0.00407276
-0.000937458
0.00405167
-0.00095979
0.00403054
-0.000980489
0.00400941
-0.000999397
0.00398832
-0.00101635
0.00396731
-0.00103117
0.00394643
-0.0010437
0.00392574
-0.00105375
0.00390528
-0.00106115
0.00388511
-0.00106575
0.00386529
-0.00106738
0.00384588
-0.00106591
0.00382692
-0.00106122
0.00380849
-0.00105323
0.00379063
-0.00104187
0.0037734
-0.00102713
0.00375685
-0.00100902
0.00374103
-0.00098763
-0.000963063
0.00466374
2.437e-06
-0.00467022
0.00465659
-2.59115e-05
0.00464874
-5.50227e-05
0.00464017
-8.47179e-05
0.00463084
-0.000115026
0.00462074
-0.000145914
0.00460987
-0.000177323
0.00459822
-0.00020919
0.00458582
-0.000241443
0.0045727
-0.00027401
0.00455887
-0.000306818
0.00454438
-0.000339799
0.00452925
-0.000372885
0.00451353
-0.000406013
0.00449725
-0.000439125
0.00448044
-0.000472164
0.00446314
-0.000505074
0.00444537
-0.0005378
0.00442716
-0.000570287
0.00440854
-0.000602478
0.00438953
-0.000634312
0.00437015
-0.000665726
0.00435043
-0.000696649
0.00433039
-0.000727008
0.00431005
-0.000756719
0.00428944
-0.000785695
0.00426857
-0.000813838
0.00424747
-0.000841043
0.00422617
-0.000867196
0.0042047
-0.000892175
0.00418309
-0.000915847
0.00416137
-0.000938072
0.00413958
-0.000958703
0.00411777
-0.000977582
0.00409597
-0.000994549
0.00407423
-0.00100943
0.0040526
-0.00102207
0.00403114
-0.00103228
0.0040099
-0.00103991
0.00398893
-0.00104478
0.0039683
-0.00104675
0.00394807
-0.00104568
0.00392829
-0.00104145
0.00390904
-0.00103397
0.00389036
-0.00102319
0.00387231
-0.00100908
0.00385495
-0.000991664
0.00383832
-0.000971004
-0.000947216
0.00477655
8.50563e-06
-0.00478262
0.0047698
-1.91591e-05
0.00476233
-4.75543e-05
0.00475412
-7.65157e-05
0.00474516
-0.000106063
0.00473542
-0.000136174
0.0047249
-0.0001668
0.00471359
-0.000197884
0.00470152
-0.000229367
0.00468869
-0.000261181
0.00467513
-0.000293261
0.00466087
-0.000325541
0.00464595
-0.000357958
0.00463038
-0.000390449
0.00461421
-0.000422956
0.00459747
-0.000455421
0.00458018
-0.000487787
0.00456238
-0.000519999
0.00454409
-0.000551999
0.00452534
-0.000583729
0.00450616
-0.000615127
0.00448656
-0.000646129
0.00446658
-0.000676664
0.00444623
-0.000706657
0.00442553
-0.000736027
0.00440452
-0.000764685
0.00438322
-0.000792536
0.00436165
-0.000819475
0.00433985
-0.000845391
0.00431784
-0.000870163
0.00429565
-0.000893661
0.00427333
-0.000915749
0.0042509
-0.000936281
0.00422843
-0.000955104
0.00420594
-0.000972059
0.00418348
-0.000986982
0.00416112
-0.000999707
0.0041389
-0.00101006
0.00411688
-0.00101789
0.00409513
-0.00102303
0.0040737
-0.00102532
0.00405265
-0.00102463
0.00403206
-0.00102086
0.00401198
-0.00101389
0.00399248
-0.00100369
0.00397361
-0.000990215
0.00395544
-0.00097349
0.00393801
-0.000953575
-0.000930579
0.00489095
1.41455e-05
-0.00489659
0.00488461
-1.28171e-05
0.00487753
-4.04794e-05
0.00486971
-6.86945e-05
0.00486112
-9.74731e-05
0.00485175
-0.000126799
0.00484158
-0.000156631
0.00483062
-0.000186922
0.00481887
-0.000217617
0.00480634
-0.000248658
0.00479307
-0.000279984
0.00477906
-0.000311534
0.00476435
-0.000343246
0.00474896
-0.000375061
0.00473292
-0.000406921
0.00471627
-0.000438768
0.00469903
-0.000470546
0.00468123
-0.000502196
0.00466289
-0.000533663
0.00464405
-0.000564885
0.00462472
-0.0005958
0.00460494
-0.000626344
0.00458472
-0.000656446
0.00456409
-0.000686029
0.00454308
-0.000715015
0.00452171
-0.000743314
0.0045
-0.000770832
0.00447799
-0.000797466
0.00445571
-0.000823107
0.00443318
-0.000847636
0.00441045
-0.000870927
0.00438755
-0.000892844
0.00436451
-0.000913246
0.00434139
-0.000931983
0.00431823
-0.000948899
0.00429508
-0.000963834
0.004272
-0.000976624
0.00424904
-0.000987104
0.00422626
-0.000995113
0.00420373
-0.00100049
0.0041815
-0.00100309
0.00415965
-0.00100278
0.00413825
-0.000999449
0.00411735
-0.000992997
0.00409703
-0.000983365
0.00407734
-0.000970529
0.00405835
-0.000954502
0.00404012
-0.00093534
-0.000913146
0.00500698
1.93434e-05
-0.00501218
0.00500106
-6.89764e-06
0.00499439
-3.38092e-05
0.00498696
-6.12634e-05
0.00497875
-8.92621e-05
0.00496974
-0.000117793
0.00495993
-0.000146822
0.00494932
-0.000176307
0.0049379
-0.0002062
0.00492569
-0.000236448
0.0049127
-0.000266996
0.00489896
-0.000297787
0.00488447
-0.000328763
0.00486928
-0.000359867
0.0048534
-0.000391042
0.00483686
-0.00042223
0.00481969
-0.000453376
0.00480192
-0.000484421
0.00478356
-0.000515308
0.00476465
-0.000545977
0.00474522
-0.000576364
0.00472528
-0.000606404
0.00470486
-0.000636027
0.00468399
-0.000665158
0.00466269
-0.000693715
0.00464099
-0.000721613
0.00461891
-0.000748757
0.0045965
-0.000775047
0.00457376
-0.000800375
0.00455075
-0.000824624
0.0045275
-0.000847671
0.00450404
-0.000869384
0.00448041
-0.000889623
0.00445667
-0.000908243
0.00443286
-0.000925091
0.00440904
-0.000940009
0.00438526
-0.000952839
0.00436157
-0.000963419
0.00433805
-0.000971588
0.00431475
-0.000977194
0.00429174
-0.000980089
0.0042691
-0.000980142
0.00424689
-0.000977238
0.00422518
-0.000971287
0.00420404
-0.000962226
0.00418354
-0.000950027
0.00416373
-0.000934699
0.00414469
-0.000916296
-0.000894916
0.00512468
2.40886e-05
-0.00512942
0.00511919
-1.41087e-06
0.00511293
-2.75534e-05
0.0051059
-5.42309e-05
0.00509808
-8.14373e-05
0.00508945
-0.000109163
0.00508
-0.000137377
0.00506974
-0.000166044
0.00505866
-0.000195119
0.00504677
-0.000224557
0.00503407
-0.000254306
0.0050206
-0.000284313
0.00500636
-0.000314523
0.00499138
-0.000344883
0.00497567
-0.000375336
0.00495927
-0.000405827
0.00494219
-0.0004363
0.00492447
-0.000466698
0.00490612
-0.000496962
0.00488718
-0.000527033
0.00486766
-0.000556848
0.0048476
-0.000586341
0.00482701
-0.000615441
0.00480593
-0.000644074
0.00478437
-0.000672161
0.00476238
-0.000699614
0.00473996
-0.000726344
0.00471716
-0.000752249
0.00469401
-0.000777224
0.00467055
-0.000801156
0.0046468
-0.000823922
0.00462281
-0.000845395
0.00459862
-0.000865438
0.00457429
-0.000883908
0.00454985
-0.000900657
0.00452538
-0.000915531
0.00450091
-0.000928374
0.00447652
-0.000939027
0.00445227
-0.000947335
0.00442822
-0.000953146
0.00440445
-0.000956317
0.00438102
-0.000956716
0.00435802
-0.000954232
0.0043355
-0.000948773
0.00431355
-0.000940276
0.00429224
-0.000928711
0.00427162
-0.000914085
0.00425177
-0.000896446
-0.000875886
0.00524409
2.8373e-05
-0.00524838
0.00523905
3.63502e-06
0.00523321
-2.17202e-05
0.00522659
-4.76046e-05
0.00521916
-7.4005e-05
0.00521091
-0.000100912
0.00520183
-0.0001283
0.00519192
-0.000156135
0.00518118
-0.000184379
0.00516961
-0.000212989
0.00515722
-0.000241918
0.00514403
-0.000271118
0.00513004
-0.000300536
0.00511528
-0.000330121
0.00509976
-0.00035982
0.00508351
-0.000389578
0.00506655
-0.00041934
0.00504891
-0.00044905
0.00503059
-0.000478651
0.00501164
-0.000508082
0.00499208
-0.000537281
0.00497192
-0.000566182
0.00495119
-0.000594716
0.00492993
-0.000622808
0.00490815
-0.000650381
0.00488588
-0.000677349
0.00486316
-0.000703622
0.00484001
-0.000729102
0.00481647
-0.000753685
0.00479258
-0.00077726
0.00476836
-0.000799709
0.00474388
-0.000820906
0.00471916
-0.000840718
0.00469425
-0.000859005
0.00466922
-0.000875623
0.00464411
-0.000890422
0.00461898
-0.000903249
0.00459391
-0.00091395
0.00456894
-0.000922372
0.00454416
-0.000928366
0.00451964
-0.000931793
0.00449545
-0.000932522
0.00447166
-0.000930443
0.00444835
-0.000925465
0.0044256
-0.000917525
0.00440348
-0.000906589
0.00438205
-0.000892663
0.0043614
-0.00087579
-0.000856057
0.00536529
3.21912e-05
-0.00536911
0.00536069
8.23415e-06
0.00535528
-1.63159e-05
0.00534907
-4.13905e-05
0.00534204
-6.69705e-05
0.00533417
-9.30465e-05
0.00532546
-0.000119595
0.00531592
-0.000146586
0.00530552
-0.000173983
0.00529428
-0.000201749
0.0052822
-0.000229839
0.00526929
-0.000258209
0.00525557
-0.00028681
0.00524104
-0.000315593
0.00522572
-0.000344506
0.00520964
-0.000373497
0.00519282
-0.000402513
0.00517526
-0.000431498
0.00515701
-0.000460395
0.00513807
-0.000489145
0.00511848
-0.000517687
0.00509825
-0.000545955
0.00507742
-0.00057388
0.005056
-0.00060139
0.00503402
-0.000628407
0.00501152
-0.000654847
0.00498852
-0.000680622
0.00496506
-0.000705636
0.00494116
-0.000729787
0.00491687
-0.000752967
0.00489222
-0.000775061
0.00486726
-0.000795944
0.00484203
-0.000815489
0.00481658
-0.00083356
0.00479097
-0.000850014
0.00476526
-0.000864707
0.0047395
-0.000877488
0.00471376
-0.000888209
0.0046881
-0.000896719
0.00466261
-0.000902873
0.00463735
-0.000906534
0.0046124
-0.000907575
0.00458784
-0.000905885
0.00456375
-0.000901375
0.00454021
-0.000893981
0.00451729
-0.000883669
0.00449507
-0.00087044
0.00447361
-0.000854333
-0.000835431
0.00548833
3.55409e-05
-0.00549168
0.00548418
1.23832e-05
0.00547921
-1.13447e-05
0.00547341
-3.5593e-05
0.00546678
-6.0338e-05
0.0054593
-8.55692e-05
0.00545097
-0.000111265
0.00544178
-0.000137398
0.00543173
-0.000163934
0.00542082
-0.00019084
0.00540906
-0.000218073
0.00539644
-0.000245593
0.00538298
-0.000273353
0.0053687
-0.000301307
0.0053536
-0.000329406
0.0053377
-0.000357599
0.00532102
-0.000385835
0.00530358
-0.000414059
0.0052854
-0.000442216
0.0052665
-0.000470246
0.00524691
-0.000498091
0.00522664
-0.000525685
0.00520572
-0.000552961
0.00518417
-0.000579847
0.00516203
-0.000606266
0.00513932
-0.000632137
0.00511608
-0.000657373
0.00509232
-0.000681881
0.00506809
-0.00070556
0.00504343
-0.000728306
0.00501838
-0.000750005
0.00499297
-0.000770539
0.00496726
-0.000789781
0.0049413
-0.000807599
0.00491514
-0.000823856
0.00488885
-0.00083841
0.00486247
-0.000851115
0.00483609
-0.000861827
0.00480977
-0.000870398
0.00478358
-0.000876687
0.00475761
-0.000880559
0.00473192
-0.000881891
0.00470661
-0.000880573
0.00468175
-0.000876516
0.00465743
-0.000869657
0.00463372
-0.00085996
0.0046107
-0.000847422
0.00458845
-0.000832081
-0.000814012
0.00561329
3.84225e-05
-0.00561617
0.00560959
1.60814e-05
0.00560506
-6.80844e-06
0.00559968
-3.02146e-05
0.00559345
-5.411e-05
0.00558636
-7.84826e-05
0.00557841
-0.000103312
0.00556959
-0.000128573
0.00555989
-0.000154235
0.00554931
-0.000180263
0.00553786
-0.000206623
0.00552554
-0.000233272
0.00551236
-0.00026017
0.00549832
-0.000287271
0.00548344
-0.000314529
0.00546774
-0.000341895
0.00545122
-0.000369319
0.00543391
-0.000396748
0.00541582
-0.000424129
0.00539698
-0.000451404
0.0053774
-0.000478513
0.00535711
-0.000505395
0.00533613
-0.000531981
0.00531449
-0.000558203
0.00529221
-0.000583984
0.00526932
-0.000609246
0.00524585
-0.000633903
0.00522183
-0.000657864
0.0051973
-0.000681032
0.0051723
-0.000703305
0.00514687
-0.000724572
0.00512105
-0.000744717
0.00509488
-0.000763619
0.00506844
-0.00078115
0.00504175
-0.000797175
0.0050149
-0.000811557
0.00498794
-0.000824155
0.00496094
-0.000834827
0.00493397
-0.00084343
0.00490712
-0.000849828
0.00488044
-0.000853888
0.00485404
-0.000855489
0.00482799
-0.000854523
0.00480238
-0.000850904
0.00477729
-0.000844566
0.0047528
-0.000835473
0.004729
-0.000823621
0.00470596
-0.000809041
-0.000791805
0.00574027
4.08396e-05
-0.00574268
0.00573702
1.93309e-05
0.00573291
-2.70641e-06
0.00572796
-2.52554e-05
0.00572213
-4.82871e-05
0.00571544
-7.17875e-05
0.00570786
-9.57378e-05
0.0056994
-0.000120113
0.00569005
-0.000144885
0.00567981
-0.000170022
0.00566868
-0.00019549
0.00565666
-0.000221251
0.00564375
-0.000247265
0.00562997
-0.00027349
0.00561532
-0.000299881
0.00559982
-0.000326393
0.00558348
-0.000352975
0.00556631
-0.000379579
0.00554833
-0.00040615
0.00552956
-0.000432634
0.00551002
-0.000458973
0.00548973
-0.000485104
0.00546871
-0.000510963
0.00544699
-0.000536481
0.00542459
-0.000561586
0.00540154
-0.000586199
0.00537788
-0.000610237
0.00535362
-0.000633612
0.00532882
-0.00065623
0.00530351
-0.00067799
0.00527772
-0.000698787
0.00525151
-0.000718507
0.00522493
-0.000737033
0.00519802
-0.000754239
0.00517084
-0.000769998
0.00514346
-0.000784174
0.00511593
-0.000796632
0.00508834
-0.000807233
0.00506075
-0.000815841
0.00503324
-0.000822319
0.00500589
-0.000826541
0.00497879
-0.000828388
0.00495202
-0.000827754
0.00492567
-0.000824554
0.00489983
-0.000818722
0.00487458
-0.000810221
0.00485
-0.000799045
0.00482618
-0.000785222
-0.000768817
0.00586935
4.27987e-05
-0.00587131
0.00586655
2.21364e-05
0.00586288
9.64685e-07
0.00585833
-2.07134e-05
0.00585291
-4.28678e-05
0.00584661
-6.54829e-05
0.00583941