/*--------------------------------*- C++ -*----------------------------------*\
  =========                 |
  \\      /  F ield         | OpenFOAM: The Open Source CFD Toolbox
   \\    /   O peration     | Website:  https://openfoam.org
    \\  /    A nd           | Version:  7
     \\/     M anipulation  |
\*---------------------------------------------------------------------------*/
FoamFile
{
    version     2.0;
    format      ascii;
    class       volScalarField;
    location    "15";
    object      p;
}
// * * * * * * * * * * * * * * * * * * * * * * * * * * * * * * * * * * * * * //

dimensions      [0 2 -2 0 0 0 0];

internalField   nonuniform List<scalar> 
10500
(
-0.39248
-0.391192
-0.380912
-0.366792
-0.34976
-0.330883
-0.311256
-0.291096
-0.272854
-0.252344
-0.393537
-0.391873
-0.381482
-0.367224
-0.350105
-0.331149
-0.311456
-0.291202
-0.272991
-0.251978
-0.395642
-0.39323
-0.382616
-0.368083
-0.350791
-0.331678
-0.311854
-0.291411
-0.273263
-0.25125
-0.398775
-0.395249
-0.384303
-0.369362
-0.351812
-0.332464
-0.312445
-0.291721
-0.273668
-0.250162
-0.402911
-0.397915
-0.386528
-0.371047
-0.353154
-0.333499
-0.313222
-0.292126
-0.274203
-0.248723
-0.408014
-0.401202
-0.389273
-0.373122
-0.354807
-0.33477
-0.314178
-0.292623
-0.274863
-0.246944
-0.414047
-0.405082
-0.392511
-0.375568
-0.356752
-0.336266
-0.315302
-0.293205
-0.275641
-0.244843
-0.42096
-0.409519
-0.396214
-0.378362
-0.358973
-0.337972
-0.316583
-0.293867
-0.276525
-0.242438
-0.428679
-0.414491
-0.400352
-0.381479
-0.361448
-0.339874
-0.318011
-0.294607
-0.277503
-0.239756
-0.437157
-0.419946
-0.404889
-0.384894
-0.364156
-0.341953
-0.319571
-0.29542
-0.278554
-0.23683
-0.446326
-0.425839
-0.409789
-0.388578
-0.367074
-0.344196
-0.321251
-0.296307
-0.279656
-0.2337
-0.456113
-0.432125
-0.415013
-0.3925
-0.370179
-0.346583
-0.323038
-0.297271
-0.280776
-0.230416
-0.466441
-0.438753
-0.420519
-0.396632
-0.373448
-0.349098
-0.324917
-0.298318
-0.281873
-0.227037
-0.47723
-0.445673
-0.426265
-0.400939
-0.376854
-0.351725
-0.326874
-0.299461
-0.282897
-0.22365
-0.488395
-0.452828
-0.432207
-0.405391
-0.380374
-0.354444
-0.328894
-0.300716
-0.283794
-0.220394
-0.499847
-0.460163
-0.438299
-0.409953
-0.383979
-0.357236
-0.330964
-0.30211
-0.284508
-0.217489
-0.511498
-0.467618
-0.444492
-0.414589
-0.387642
-0.36008
-0.333067
-0.303675
-0.284919
-0.215026
-0.523255
-0.475137
-0.450741
-0.419265
-0.391333
-0.362952
-0.335201
-0.30546
-0.284766
-0.21277
-0.535023
-0.482658
-0.456997
-0.423941
-0.39502
-0.365823
-0.337369
-0.307555
-0.284047
-0.21224
-0.546665
-0.490086
-0.463176
-0.428551
-0.39864
-0.368635
-0.339537
-0.309977
-0.284104
-0.223573
-0.55799
-0.497263
-0.469144
-0.432982
-0.402094
-0.371288
-0.341572
-0.312389
-0.286084
-0.262093
-0.569125
-0.504339
-0.475032
-0.437341
-0.405456
-0.373807
-0.343405
-0.314395
-0.286187
-0.275271
-0.579893
-0.511161
-0.480705
-0.441512
-0.408616
-0.376078
-0.344893
-0.315714
-0.285096
-0.278585
-0.590143
-0.517613
-0.486059
-0.445402
-0.411485
-0.37801
-0.345954
-0.316306
-0.283697
-0.278671
-0.599756
-0.523612
-0.49102
-0.448943
-0.413994
-0.379529
-0.34652
-0.316146
-0.281933
-0.276485
-0.608615
-0.529073
-0.495509
-0.452061
-0.416067
-0.380557
-0.346518
-0.315195
-0.279609
-0.272404
-0.616594
-0.533902
-0.499438
-0.454673
-0.417619
-0.381008
-0.345867
-0.313414
-0.276628
-0.266862
-0.623564
-0.538001
-0.502713
-0.456691
-0.418561
-0.380794
-0.344485
-0.310771
-0.272927
-0.26019
-0.629391
-0.541266
-0.505235
-0.458017
-0.418797
-0.379826
-0.342294
-0.307231
-0.268449
-0.252601
-0.633939
-0.543591
-0.506898
-0.458553
-0.418229
-0.378012
-0.339216
-0.302759
-0.263145
-0.244227
-0.637069
-0.544864
-0.507593
-0.458191
-0.416754
-0.375262
-0.335176
-0.29732
-0.256976
-0.235148
-0.638641
-0.544971
-0.507208
-0.456824
-0.41427
-0.371485
-0.330104
-0.29088
-0.249906
-0.225405
-0.638513
-0.543795
-0.505626
-0.454341
-0.410673
-0.366594
-0.323936
-0.283406
-0.241909
-0.215016
-0.636546
-0.541218
-0.502729
-0.450631
-0.405862
-0.360507
-0.316611
-0.27487
-0.232964
-0.20398
-0.6326
-0.537123
-0.498401
-0.445583
-0.39974
-0.353147
-0.308079
-0.265246
-0.223057
-0.192293
-0.626539
-0.531393
-0.492526
-0.439091
-0.392213
-0.344443
-0.298293
-0.254515
-0.212178
-0.179942
-0.618234
-0.523915
-0.484991
-0.431052
-0.383198
-0.334335
-0.28722
-0.242664
-0.200326
-0.166919
-0.607575
-0.514592
-0.475698
-0.421377
-0.372619
-0.322772
-0.274834
-0.229686
-0.187507
-0.153219
-0.59445
-0.503329
-0.464551
-0.40998
-0.360413
-0.309715
-0.261119
-0.215584
-0.173732
-0.138839
-0.578617
-0.489942
-0.451399
-0.396746
-0.346501
-0.295122
-0.246062
-0.200364
-0.159018
-0.123786
-0.559678
-0.474138
-0.43603
-0.381527
-0.330791
-0.278948
-0.229655
-0.184036
-0.143386
-0.108071
-0.538466
-0.456421
-0.418757
-0.364519
-0.313409
-0.261279
-0.21196
-0.166648
-0.126874
-0.0917124
-0.514638
-0.436521
-0.399382
-0.345585
-0.294277
-0.242084
-0.19298
-0.14822
-0.109511
-0.0747319
-0.48802
-0.414309
-0.377814
-0.32467
-0.273374
-0.221371
-0.172741
-0.128786
-0.0913323
-0.057157
-0.458603
-0.389765
-0.35404
-0.301775
-0.250722
-0.199177
-0.151291
-0.108396
-0.0723815
-0.0390158
-0.426404
-0.362895
-0.328066
-0.276919
-0.226356
-0.175551
-0.128685
-0.0871016
-0.0527153
-0.0203362
-0.391456
-0.33371
-0.299914
-0.250135
-0.200325
-0.150553
-0.104981
-0.0649381
-0.0324143
-0.00118111
-0.35381
-0.302243
-0.269621
-0.221473
-0.172694
-0.124255
-0.0802479
-0.0419394
-0.0115
0.018345
-0.313542
-0.268545
-0.237247
-0.191003
-0.143544
-0.09674
-0.054575
-0.0183642
0.0100822
0.0382465
-0.270754
-0.232692
-0.202872
-0.158812
-0.112968
-0.0681023
-0.0280444
0.0058818
0.0321244
0.0584643
-0.22557
-0.194776
-0.166596
-0.125004
-0.081074
-0.0384458
-0.00075249
0.0306971
0.0545803
0.0789316
-0.17814
-0.154913
-0.12854
-0.0897005
-0.0479821
-0.00788458
0.0271985
0.0559818
0.0773929
0.0995775
-0.128633
-0.113241
-0.0888414
-0.0530361
-0.0138275
0.0234601
0.0557017
0.081644
0.100492
0.120323
-0.07722
-0.0699314
-0.0476544
-0.0151676
0.0212474
0.0554588
0.0846442
0.107589
0.123803
0.141078
-0.0240874
-0.0251816
-0.00516188
0.0237444
0.0570893
0.0879751
0.113908
0.133717
0.147249
0.161737
0.0303813
0.0209353
0.0384519
0.0635227
0.0935364
0.120868
0.143371
0.159926
0.170753
0.182184
0.0860771
0.0681016
0.082979
0.103978
0.13042
0.15399
0.172908
0.186114
0.194254
0.202274
0.142704
0.116083
0.128194
0.14491
0.167563
0.187191
0.202388
0.212189
0.217718
0.221779
0.199969
0.164642
0.173866
0.186113
0.204786
0.220319
0.231683
0.238054
0.241024
0.240326
0.257836
0.21367
0.219831
0.22741
0.241922
0.253224
0.260664
0.263592
0.263742
0.25728
0.316522
0.263192
0.265985
0.268654
0.278815
0.285762
0.289215
0.28867
0.285352
0.271897
0.374112
0.312097
0.31164
0.309418
0.315193
0.317757
0.31722
0.313209
0.307021
0.290455
0.430834
0.360428
0.356713
0.349569
0.350911
0.349074
0.344556
0.337072
0.328049
0.309667
0.486614
0.40803
0.401013
0.388921
0.385802
0.379567
0.371101
0.360163
0.348186
0.328189
0.541133
0.454611
0.444278
0.427256
0.419687
0.409094
0.396739
0.382399
0.367456
0.345812
0.594058
0.49988
0.486252
0.46436
0.452391
0.437517
0.421357
0.403696
0.38585
0.362569
0.645081
0.543563
0.52669
0.500027
0.483749
0.464701
0.44485
0.423971
0.403315
0.37844
0.693901
0.585395
0.565354
0.534061
0.513599
0.490521
0.467118
0.443148
0.419799
0.393373
0.74023
0.625117
0.602015
0.566272
0.541789
0.514854
0.488065
0.461154
0.43525
0.407328
0.783786
0.662484
0.636456
0.596479
0.568173
0.537588
0.507603
0.477921
0.449619
0.420267
0.824305
0.697261
0.66847
0.624514
0.592616
0.558614
0.525648
0.493384
0.462858
0.432157
0.861536
0.729229
0.697865
0.650218
0.614991
0.577833
0.542121
0.507484
0.47492
0.442964
0.89525
0.758185
0.724463
0.673446
0.635183
0.595155
0.556952
0.520164
0.485763
0.452658
0.925234
0.783944
0.748103
0.694068
0.653086
0.610497
0.570075
0.531375
0.495344
0.461208
0.951302
0.806341
0.76864
0.711966
0.668609
0.623786
0.581433
0.54107
0.503629
0.46859
0.973288
0.825231
0.78595
0.727039
0.681669
0.634958
0.590975
0.549212
0.510584
0.474779
0.991052
0.840492
0.799927
0.7392
0.692199
0.64396
0.59866
0.555765
0.516181
0.479754
1.00448
0.852024
0.810484
0.748381
0.700143
0.650748
0.604452
0.560703
0.520398
0.4835
1.01349
0.859754
0.817558
0.754529
0.705461
0.65529
0.608327
0.564005
0.523218
0.486004
1.01802
0.863636
0.821107
0.757612
0.708126
0.657566
0.610268
0.565659
0.524631
0.487257
1.01802
0.863636
0.821107
0.757612
0.708126
0.657566
0.610268
0.565659
0.524631
0.487257
1.01349
0.859754
0.817558
0.754529
0.705461
0.65529
0.608327
0.564005
0.523218
0.486004
1.00448
0.852024
0.810484
0.748381
0.700143
0.650748
0.604452
0.560703
0.520398
0.4835
0.991052
0.840492
0.799927
0.7392
0.692199
0.64396
0.59866
0.555765
0.516181
0.479754
0.973288
0.825231
0.78595
0.727039
0.681669
0.634958
0.590975
0.549212
0.510584
0.474779
0.951302
0.806341
0.76864
0.711966
0.668609
0.623786
0.581433
0.54107
0.503629
0.46859
0.925234
0.783944
0.748103
0.694068
0.653086
0.610497
0.570075
0.531375
0.495344
0.461208
0.89525
0.758185
0.724463
0.673446
0.635183
0.595155
0.556952
0.520164
0.485763
0.452658
0.861536
0.729229
0.697865
0.650218
0.614991
0.577833
0.542121
0.507484
0.47492
0.442964
0.824305
0.697261
0.66847
0.624514
0.592616
0.558614
0.525648
0.493384
0.462858
0.432157
0.783786
0.662484
0.636456
0.596479
0.568173
0.537588
0.507603
0.477921
0.449619
0.420267
0.74023
0.625117
0.602015
0.566272
0.541789
0.514854
0.488065
0.461154
0.43525
0.407328
0.693901
0.585395
0.565354
0.534061
0.513599
0.490521
0.467118
0.443148
0.419799
0.393373
0.645081
0.543563
0.52669
0.500027
0.483749
0.464701
0.44485
0.423971
0.403315
0.37844
0.594058
0.49988
0.486252
0.46436
0.452391
0.437517
0.421357
0.403696
0.38585
0.362569
0.541133
0.454611
0.444278
0.427256
0.419687
0.409094
0.396739
0.382399
0.367456
0.345812
0.486614
0.40803
0.401013
0.388921
0.385802
0.379567
0.371101
0.360163
0.348186
0.328189
0.430834
0.360428
0.356713
0.349569
0.350911
0.349074
0.344556
0.337072
0.328049
0.309667
0.374112
0.312097
0.31164
0.309418
0.315193
0.317757
0.31722
0.313209
0.307021
0.290455
0.316522
0.263192
0.265985
0.268654
0.278815
0.285762
0.289215
0.28867
0.285352
0.271897
0.257836
0.21367
0.219831
0.22741
0.241922
0.253224
0.260664
0.263592
0.263742
0.25728
0.199969
0.164642
0.173866
0.186113
0.204786
0.220319
0.231683
0.238054
0.241024
0.240326
0.142704
0.116083
0.128194
0.14491
0.167563
0.187191
0.202388
0.212189
0.217718
0.221779
0.0860771
0.0681015
0.082979
0.103978
0.13042
0.15399
0.172908
0.186114
0.194254
0.202274
0.0303813
0.0209353
0.0384519
0.0635227
0.0935364
0.120868
0.143371
0.159926
0.170753
0.182184
-0.0240874
-0.0251816
-0.00516188
0.0237444
0.0570893
0.0879751
0.113908
0.133717
0.147249
0.161737
-0.07722
-0.0699314
-0.0476544
-0.0151676
0.0212474
0.0554588
0.0846442
0.107589
0.123803
0.141078
-0.128633
-0.113241
-0.0888414
-0.0530361
-0.0138275
0.0234601
0.0557017
0.081644
0.100492
0.120323
-0.17814
-0.154913
-0.12854
-0.0897005
-0.0479821
-0.00788458
0.0271985
0.0559818
0.0773929
0.0995775
-0.22557
-0.194776
-0.166596
-0.125004
-0.081074
-0.0384458
-0.000752493
0.0306971
0.0545803
0.0789316
-0.270754
-0.232692
-0.202872
-0.158812
-0.112968
-0.0681023
-0.0280444
0.0058818
0.0321244
0.0584643
-0.313542
-0.268545
-0.237247
-0.191003
-0.143544
-0.09674
-0.054575
-0.0183642
0.0100822
0.0382465
-0.35381
-0.302243
-0.269621
-0.221473
-0.172694
-0.124255
-0.0802479
-0.0419394
-0.0115
0.018345
-0.391456
-0.33371
-0.299914
-0.250135
-0.200325
-0.150553
-0.104981
-0.0649382
-0.0324143
-0.00118112
-0.426404
-0.362895
-0.328066
-0.276919
-0.226356
-0.175551
-0.128685
-0.0871016
-0.0527153
-0.0203362
-0.458603
-0.389765
-0.35404
-0.301775
-0.250722
-0.199177
-0.151291
-0.108396
-0.0723815
-0.0390158
-0.488021
-0.414309
-0.377814
-0.32467
-0.273374
-0.221371
-0.172741
-0.128786
-0.0913323
-0.057157
-0.514638
-0.436521
-0.399382
-0.345585
-0.294277
-0.242084
-0.19298
-0.14822
-0.109511
-0.0747319
-0.538466
-0.456421
-0.418757
-0.364519
-0.313409
-0.261279
-0.21196
-0.166648
-0.126874
-0.0917124
-0.559678
-0.474138
-0.43603
-0.381527
-0.330791
-0.278948
-0.229655
-0.184036
-0.143386
-0.108071
-0.578617
-0.489942
-0.451399
-0.396746
-0.346501
-0.295122
-0.246062
-0.200364
-0.159018
-0.123786
-0.59445
-0.503329
-0.464551
-0.40998
-0.360413
-0.309715
-0.261119
-0.215584
-0.173732
-0.138839
-0.607575
-0.514592
-0.475698
-0.421377
-0.372619
-0.322772
-0.274834
-0.229686
-0.187507
-0.153219
-0.618234
-0.523915
-0.484991
-0.431052
-0.383198
-0.334335
-0.28722
-0.242664
-0.200326
-0.166919
-0.626539
-0.531393
-0.492526
-0.439091
-0.392213
-0.344443
-0.298293
-0.254515
-0.212178
-0.179942
-0.6326
-0.537123
-0.498402
-0.445583
-0.39974
-0.353147
-0.308079
-0.265246
-0.223057
-0.192293
-0.636546
-0.541218
-0.502729
-0.450631
-0.405862
-0.360507
-0.316611
-0.27487
-0.232964
-0.20398
-0.638513
-0.543795
-0.505626
-0.454341
-0.410673
-0.366594
-0.323936
-0.283406
-0.241909
-0.215016
-0.638641
-0.544971
-0.507208
-0.456824
-0.41427
-0.371485
-0.330104
-0.29088
-0.249906
-0.225405
-0.637069
-0.544864
-0.507593
-0.458191
-0.416754
-0.375262
-0.335176
-0.29732
-0.256976
-0.235148
-0.633939
-0.543591
-0.506898
-0.458553
-0.418229
-0.378012
-0.339216
-0.302759
-0.263145
-0.244227
-0.629391
-0.541266
-0.505235
-0.458017
-0.418797
-0.379826
-0.342294
-0.307231
-0.268449
-0.252601
-0.623564
-0.538001
-0.502713
-0.456691
-0.418561
-0.380794
-0.344485
-0.310771
-0.272927
-0.26019
-0.616594
-0.533902
-0.499438
-0.454673
-0.417619
-0.381008
-0.345867
-0.313414
-0.276628
-0.266862
-0.608615
-0.529073
-0.495509
-0.452061
-0.416067
-0.380557
-0.346518
-0.315195
-0.279609
-0.272404
-0.599756
-0.523612
-0.49102
-0.448943
-0.413994
-0.379529
-0.34652
-0.316146
-0.281933
-0.276485
-0.590143
-0.517613
-0.486059
-0.445402
-0.411485
-0.37801
-0.345954
-0.316306
-0.283697
-0.278671
-0.579893
-0.511161
-0.480705
-0.441512
-0.408616
-0.376078
-0.344893
-0.315714
-0.285096
-0.278585
-0.569125
-0.504339
-0.475032
-0.437341
-0.405456
-0.373807
-0.343405
-0.314395
-0.286187
-0.275271
-0.55799
-0.497263
-0.469144
-0.432982
-0.402094
-0.371288
-0.341572
-0.312389
-0.286084
-0.262093
-0.546665
-0.490086
-0.463176
-0.428551
-0.39864
-0.368635
-0.339537
-0.309977
-0.284104
-0.223573
-0.535023
-0.482658
-0.456997
-0.423941
-0.39502
-0.365823
-0.337369
-0.307555
-0.284047
-0.21224
-0.523255
-0.475137
-0.450741
-0.419265
-0.391333
-0.362952
-0.335201
-0.30546
-0.284766
-0.21277
-0.511498
-0.467618
-0.444492
-0.414589
-0.387642
-0.36008
-0.333067
-0.303675
-0.284919
-0.215026
-0.499847
-0.460163
-0.438299
-0.409953
-0.383979
-0.357236
-0.330964
-0.30211
-0.284508
-0.217489
-0.488395
-0.452828
-0.432207
-0.405391
-0.380374
-0.354444
-0.328894
-0.300716
-0.283794
-0.220394
-0.47723
-0.445673
-0.426265
-0.400939
-0.376854
-0.351725
-0.326874
-0.299461
-0.282897
-0.22365
-0.466442
-0.438753
-0.420519
-0.396632
-0.373448
-0.349098
-0.324917
-0.298318
-0.281873
-0.227037
-0.456113
-0.432125
-0.415013
-0.3925
-0.370179
-0.346583
-0.323038
-0.297271
-0.280776
-0.230416
-0.446326
-0.425839
-0.409789
-0.388578
-0.367074
-0.344196
-0.321251
-0.296307
-0.279656
-0.2337
-0.437157
-0.419946
-0.404889
-0.384894
-0.364156
-0.341953
-0.319571
-0.29542
-0.278554
-0.23683
-0.428679
-0.414491
-0.400352
-0.381479
-0.361448
-0.339874
-0.318011
-0.294607
-0.277503
-0.239756
-0.42096
-0.409519
-0.396214
-0.378362
-0.358973
-0.337972
-0.316583
-0.293867
-0.276525
-0.242438
-0.414047
-0.405082
-0.392511
-0.375568
-0.356752
-0.336266
-0.315302
-0.293205
-0.275641
-0.244843
-0.408014
-0.401202
-0.389273
-0.373122
-0.354807
-0.33477
-0.314178
-0.292623
-0.274863
-0.246944
-0.402911
-0.397915
-0.386528
-0.371047
-0.353154
-0.333499
-0.313222
-0.292126
-0.274203
-0.248723
-0.398775
-0.395249
-0.384303
-0.369362
-0.351812
-0.332464
-0.312445
-0.291721
-0.273668
-0.250162
-0.395642
-0.39323
-0.382616
-0.368083
-0.350791
-0.331678
-0.311854
-0.291411
-0.273263
-0.25125
-0.393537
-0.391873
-0.381482
-0.367224
-0.350105
-0.331149
-0.311456
-0.291202
-0.272991
-0.251978
-0.39248
-0.391192
-0.380912
-0.366792
-0.34976
-0.330883
-0.311256
-0.291096
-0.272854
-0.252344
-0.242635
-0.234114
-0.225102
-0.216068
-0.206915
-0.19769
-0.188465
-0.179289
-0.17021
-0.161273
-0.152518
-0.143981
-0.13569
-0.127672
-0.119945
-0.112524
-0.105419
-0.0986365
-0.0921787
-0.0860445
-0.0802303
-0.0747299
-0.0695351
-0.0646361
-0.0600218
-0.05568
-0.0515975
-0.0477607
-0.0441555
-0.0407676
-0.0375826
-0.0345861
-0.0317643
-0.0291023
-0.0265886
-0.024205
-0.0219494
-0.0197867
-0.0177506
-0.0157385
-0.0139152
-0.0119339
-0.010411
-0.008181
-0.00732401
-0.0040906
-0.00506157
0.00128206
-0.00490344
0.0104185
-0.243201
-0.234552
-0.225415
-0.216339
-0.207151
-0.197896
-0.188648
-0.179454
-0.170361
-0.161412
-0.152647
-0.144101
-0.135803
-0.127777
-0.120044
-0.112618
-0.105507
-0.0987199
-0.092257
-0.086118
-0.0802991
-0.0747941
-0.069595
-0.0646918
-0.0600736
-0.0557279
-0.0516418
-0.0478016
-0.0441932
-0.0408023
-0.0376145
-0.0346154
-0.0317912
-0.0291269
-0.0266112
-0.0242256
-0.0219683
-0.0198039
-0.0177663
-0.0157529
-0.0139284
-0.0119461
-0.010422
-0.00819176
-0.00733273
-0.00410145
-0.00506645
0.00126662
-0.00489838
0.010384
-0.244323
-0.235424
-0.226036
-0.216877
-0.207621
-0.198305
-0.189012
-0.179782
-0.170659
-0.161687
-0.152902
-0.144339
-0.136027
-0.127988
-0.120243
-0.112805
-0.105684
-0.0988862
-0.0924134
-0.0862647
-0.0804364
-0.0749224
-0.0697146
-0.0648031
-0.0601769
-0.0558236
-0.0517303
-0.0478833
-0.0442685
-0.0408716
-0.0376783
-0.0346739
-0.0318448
-0.029176
-0.0266562
-0.0242668
-0.0220059
-0.0198384
-0.0177979
-0.0157818
-0.0139548
-0.0119705
-0.010444
-0.00821321
-0.00735013
-0.0041231
-0.00507617
0.00123583
-0.00488829
0.0103153
-0.245986
-0.236719
-0.226958
-0.217677
-0.208318
-0.198913
-0.189551
-0.180268
-0.171102
-0.162095
-0.153281
-0.144693
-0.136359
-0.128302
-0.120539
-0.113084
-0.105948
-0.0991344
-0.0926469
-0.0864839
-0.0806417
-0.0751143
-0.0698935
-0.0649696
-0.0603315
-0.0559669
-0.0518628
-0.0480057
-0.0443813
-0.0409754
-0.0377736
-0.0347615
-0.0319251
-0.0292496
-0.0267235
-0.0243283
-0.0220622
-0.0198898
-0.017845
-0.0158249
-0.0139942
-0.012007
-0.0104768
-0.00824527
-0.0073761
-0.00415544
-0.00509066
0.00118987
-0.00487324
0.0102129
-0.248161
-0.23842
-0.228171
-0.218729
-0.209233
-0.199709
-0.190258
-0.180905
-0.171683
-0.16263
-0.153779
-0.14516
-0.136798
-0.128716
-0.12093
-0.113454
-0.106297
-0.0994635
-0.0929566
-0.0867748
-0.0809144
-0.0753693
-0.0701313
-0.065191
-0.060537
-0.0561574
-0.0520391
-0.0481684
-0.0445313
-0.0411134
-0.0379005
-0.0348779
-0.0320319
-0.0293473
-0.026813
-0.0244102
-0.0221371
-0.0199582
-0.0179075
-0.0158821
-0.0140465
-0.0120554
-0.0105204
-0.00828778
-0.0074105
-0.00419831
-0.00510984
0.00112899
-0.00485331
0.0100777
-0.250813
-0.240507
-0.229659
-0.220019
-0.210355
-0.200685
-0.191123
-0.181685
-0.172395
-0.163287
-0.154391
-0.145734
-0.137339
-0.129227
-0.121413
-0.113911
-0.106729
-0.0998719
-0.0933414
-0.0871365
-0.0812536
-0.0756865
-0.0704274
-0.0654666
-0.0607931
-0.0563948
-0.0522587
-0.0483711
-0.0447182
-0.0412854
-0.0380586
-0.035023
-0.0321648
-0.0294691
-0.0269244
-0.024512
-0.0222302
-0.0200433
-0.0179853
-0.0159532
-0.0141115
-0.0121154
-0.0105744
-0.00834055
-0.00745315
-0.00425152
-0.00513359
0.00105353
-0.00482865
0.00991055
-0.253894
-0.242948
-0.231402
-0.221529
-0.211668
-0.201825
-0.192135
-0.182597
-0.173228
-0.164058
-0.15511
-0.14641
-0.137977
-0.129831
-0.121986
-0.114454
-0.107243
-0.100358
-0.0937996
-0.0875676
-0.0816581
-0.0760652
-0.070781
-0.065796
-0.0610991
-0.0566785
-0.0525212
-0.0486136
-0.0449416
-0.0414911
-0.0382475
-0.0351963
-0.0323237
-0.0296145
-0.0270574
-0.0246336
-0.0223413
-0.0201447
-0.018078
-0.016038
-0.014189
-0.012187
-0.0106387
-0.00840336
-0.00750383
-0.0043148
-0.00516174
0.000963923
-0.0047994
0.00971284
-0.257342
-0.245704
-0.233373
-0.223238
-0.213152
-0.203114
-0.193278
-0.183628
-0.174172
-0.164932
-0.155929
-0.147181
-0.138707
-0.130524
-0.122645
-0.115079
-0.107836
-0.100919
-0.0943294
-0.0880666
-0.0821269
-0.0765043
-0.0711912
-0.0661782
-0.0614544
-0.057008
-0.0528261
-0.0488951
-0.0452012
-0.0417299
-0.0384669
-0.0353976
-0.0325082
-0.0297833
-0.0272117
-0.0247746
-0.0224701
-0.0202623
-0.0181854
-0.0161361
-0.0142785
-0.0122697
-0.010713
-0.00847593
-0.00756227
-0.00438788
-0.00519415
0.000860643
-0.00476576
0.00948601
-0.261086
-0.248725
-0.235539
-0.225118
-0.214784
-0.20453
-0.194535
-0.184764
-0.175214
-0.165901
-0.156838
-0.14804
-0.139523
-0.131301
-0.123384
-0.115783
-0.108505
-0.101553
-0.094929
-0.0886319
-0.0826583
-0.0770025
-0.0716569
-0.0666124
-0.0618582
-0.0573826
-0.0531728
-0.0492153
-0.0454963
-0.0420014
-0.0387164
-0.0356264
-0.0327177
-0.029975
-0.027387
-0.0249346
-0.0226162
-0.0203955
-0.0183071
-0.0162473
-0.0143799
-0.0123633
-0.0107969
-0.00855796
-0.0076282
-0.00447041
-0.00523063
0.000744245
-0.00472793
0.00923171
-0.265039
-0.251947
-0.237858
-0.227134
-0.216534
-0.20605
-0.195887
-0.185989
-0.176341
-0.166952
-0.157828
-0.14898
-0.140419
-0.132156
-0.124201
-0.116562
-0.109246
-0.102257
-0.0955958
-0.0892615
-0.0832508
-0.0775584
-0.072177
-0.0670975
-0.0623095
-0.0578014
-0.0535605
-0.0495734
-0.0458264
-0.0423051
-0.0389953
-0.0358822
-0.0329519
-0.0301892
-0.0275827
-0.0251132
-0.0227792
-0.0205442
-0.0184427
-0.0163711
-0.0144927
-0.0124674
-0.0108902
-0.00864912
-0.00770128
-0.00456205
-0.00527097
0.000615335
-0.00468615
0.00895177
-0.269097
-0.255293
-0.240279
-0.229244
-0.218367
-0.207646
-0.197311
-0.187284
-0.177539
-0.168075
-0.158891
-0.149993
-0.141388
-0.133084
-0.12509
-0.117412
-0.110057
-0.103029
-0.0963275
-0.0899532
-0.0839025
-0.0781705
-0.07275
-0.0676324
-0.0628073
-0.0582635
-0.0539883
-0.0499687
-0.0461908
-0.0426403
-0.0393031
-0.0361643
-0.0332102
-0.0304253
-0.0277984
-0.02531
-0.0229586
-0.0207076
-0.0185917
-0.016507
-0.0146165
-0.0125816
-0.0109923
-0.00874904
-0.0077812
-0.0046624
-0.00531497
0.000474572
-0.00464071
0.00864814
-0.273141
-0.258667
-0.242739
-0.231397
-0.220244
-0.209288
-0.198783
-0.188632
-0.178792
-0.169256
-0.160016
-0.15107
-0.142422
-0.134079
-0.126045
-0.118329
-0.110934
-0.103864
-0.0971214
-0.0907047
-0.0846115
-0.078837
-0.0733745
-0.0682157
-0.0633505
-0.0587679
-0.0544555
-0.0504003
-0.0465886
-0.0430063
-0.0396391
-0.0364723
-0.0334921
-0.0306829
-0.0280335
-0.0255243
-0.023154
-0.0208856
-0.0187538
-0.0166548
-0.0147509
-0.0127056
-0.011103
-0.00885735
-0.00786758
-0.00477105
-0.00536242
0.00032265
-0.00459187
0.00832287
-0.277032
-0.261954
-0.245163
-0.233534
-0.222116
-0.210939
-0.200278
-0.19001
-0.180086
-0.170484
-0.161192
-0.152203
-0.143516
-0.135135
-0.127063
-0.119308
-0.111873
-0.104761
-0.0979748
-0.0915139
-0.0853758
-0.0795563
-0.074049
-0.0688461
-0.0639379
-0.0593135
-0.054961
-0.0508674
-0.0470192
-0.0434024
-0.0400027
-0.0368055
-0.0337969
-0.0309613
-0.0282875
-0.0257558
-0.0233648
-0.0210774
-0.0189284
-0.0168139
-0.0148954
-0.0128389
-0.0112218
-0.00897365
-0.00796007
-0.00488757
-0.00541311
0.000160298
-0.00453996
0.0079781
-0.280615
-0.265022
-0.247469
-0.235585
-0.223931
-0.212564
-0.201766
-0.1914
-0.181403
-0.171747
-0.162411
-0.153384
-0.144662
-0.136246
-0.128139
-0.120345
-0.11287
-0.105716
-0.0988852
-0.0923784
-0.0861935
-0.0803266
-0.0747722
-0.0695225
-0.0645685
-0.0598995
-0.055504
-0.0513693
-0.0474819
-0.0438279
-0.0403933
-0.0371632
-0.034124
-0.03126
-0.0285598
-0.0260038
-0.0235906
-0.0212827
-0.0191151
-0.0169839
-0.0150497
-0.0129811
-0.0113483
-0.00909755
-0.00805831
-0.00501151
-0.00546683
-1.17278e-05
-0.00448531
0.00761601
-0.283718
-0.267708
-0.24955
-0.237459
-0.225619
-0.21411
-0.203211
-0.192773
-0.182722
-0.173026
-0.163658
-0.154601
-0.14585
-0.137404
-0.129264
-0.121434
-0.113919
-0.106723
-0.0998477
-0.093294
-0.0870607
-0.0811447
-0.0755408
-0.070242
-0.0652397
-0.0605237
-0.0560826
-0.051904
-0.0479749
-0.0442813
-0.0408094
-0.0375443
-0.0344724
-0.0315779
-0.0288495
-0.0262675
-0.0238304
-0.0215007
-0.0193132
-0.0171642
-0.015213
-0.0131316
-0.0114819
-0.00922855
-0.00816185
-0.00514237
-0.00552335
-0.000192618
-0.00442831
0.00723884
-0.286065
-0.269747
-0.251243
-0.23903
-0.227089
-0.215516
-0.204568
-0.194093
-0.184017
-0.1743
-0.164913
-0.155837
-0.147065
-0.138594
-0.130425
-0.122563
-0.115011
-0.107773
-0.100853
-0.0942524
-0.0879699
-0.0820035
-0.0763486
-0.0709989
-0.0659463
-0.061181
-0.0566922
-0.0524678
-0.0484947
-0.0447595
-0.0412481
-0.0379461
-0.0348396
-0.0319129
-0.0291548
-0.0265452
-0.024083
-0.0217301
-0.0195215
-0.0173536
-0.0153845
-0.0132897
-0.011622
-0.00936608
-0.00827022
-0.00527961
-0.00558245
-0.00038156
-0.00436936
0.0068488
-0.287202
-0.270863
-0.252462
-0.240254
-0.228328
-0.216788
-0.205851
-0.195379
-0.185304
-0.175585
-0.166192
-0.157107
-0.14832
-0.139829
-0.131634
-0.12374
-0.116152
-0.108873
-0.101908
-0.0952591
-0.0889261
-0.0829074
-0.0771995
-0.0717967
-0.0666913
-0.0618744
-0.0573354
-0.0530626
-0.0490432
-0.0452639
-0.041711
-0.0383698
-0.0352268
-0.032266
-0.0294764
-0.0268377
-0.0243487
-0.0219713
-0.0197404
-0.0175527
-0.0155645
-0.0134555
-0.0117688
-0.00951015
-0.00838341
-0.0054231
-0.00564412
-0.000578082
-0.00430864
0.00644766
-0.287356
-0.271344
-0.253428
-0.241254
-0.229437
-0.218025
-0.207158
-0.196729
-0.186681
-0.176975
-0.167586
-0.158495
-0.149696
-0.141185
-0.132964
-0.125037
-0.117409
-0.110086
-0.103072
-0.09637
-0.0899814
-0.0839052
-0.0781388
-0.0726771
-0.0675134
-0.0626391
-0.0580443
-0.0537175
-0.0496466
-0.0458183
-0.0422189
-0.0388341
-0.0356503
-0.0326516
-0.0298268
-0.0271556
-0.0246368
-0.0222322
-0.0199764
-0.0177665
-0.0157572
-0.0136324
-0.0119246
-0.0096626
-0.00850271
-0.00557359
-0.00570882
-0.000782276
-0.0042459
0.00603669
-0.287476
-0.270503
-0.253327
-0.24124
-0.229743
-0.21868
-0.208046
-0.197781
-0.187849
-0.178225
-0.16889
-0.159836
-0.151056
-0.142551
-0.134324
-0.126381
-0.118727
-0.111369
-0.104313
-0.0975631
-0.0911215
-0.0849887
-0.079163
-0.0736406
-0.0684156
-0.0634802
-0.0588253
-0.05444
-0.0503125
-0.04643
-0.0427792
-0.0393458
-0.0361163
-0.0330749
-0.0302105
-0.0275027
-0.0249503
-0.0225148
-0.0202309
-0.017996
-0.0159629
-0.0138203
-0.0120891
-0.00982257
-0.00862721
-0.00572964
-0.00577602
-0.000991878
-0.00418251
0.00562013
-0.277142
-0.262238
-0.249177
-0.237963
-0.227421
-0.217153
-0.207071
-0.197218
-0.1876
-0.178217
-0.169072
-0.160166
-0.151504
-0.143091
-0.134934
-0.127043
-0.119425
-0.11209
-0.105044
-0.0982946
-0.0918444
-0.0856957
-0.0798484
-0.0742996
-0.0690448
-0.0640773
-0.0593885
-0.0549687
-0.0508064
-0.0468895
-0.043205
-0.0397391
-0.0364785
-0.0334076
-0.0305155
-0.0277816
-0.0252051
-0.0227475
-0.0204429
-0.0181902
-0.0161389
-0.0139843
-0.012234
-0.00996796
-0.00874007
-0.00587758
-0.00583903
-0.00119497
-0.0041275
0.00521217
-0.231587
-0.25146
-0.24731
-0.236793
-0.226779
-0.216763
-0.206782
-0.196981
-0.187387
-0.17801
-0.168863
-0.159949
-0.151278
-0.142855
-0.134691
-0.126793
-0.119173
-0.111838
-0.104796
-0.0980525
-0.0916115
-0.0854745
-0.0796407
-0.0741072
-0.0688688
-0.0639186
-0.0592477
-0.0548459
-0.0507018
-0.0468027
-0.0431357
-0.0396866
-0.0364422
-0.0333866
-0.030509
-0.0277887
-0.0252247
-0.0227789
-0.0204845
-0.0182424
-0.0161979
-0.0140547
-0.0123041
-0.0100566
-0.00881006
-0.00599353
-0.0058846
-0.00137148
-0.00408999
0.00484595
-0.216956
-0.240701
-0.240306
-0.231291
-0.222529
-0.213402
-0.204052
-0.194737
-0.185532
-0.176477
-0.167598
-0.158913
-0.150438
-0.142186
-0.134169
-0.1264
-0.11889
-0.111651
-0.10469
-0.0980156
-0.0916324
-0.0855432
-0.0797481
-0.0742454
-0.0690308
-0.0640983
-0.0594398
-0.055046
-0.050906
-0.047008
-0.0433394
-0.0398866
-0.0366369
-0.0335748
-0.0306897
-0.0279615
-0.0253888
-0.022935
-0.0206314
-0.0183825
-0.0163273
-0.0141818
-0.0124152
-0.0101779
-0.0088973
-0.00612665
-0.00592765
-0.00156221
-0.00402582
0.0044707
-0.212446
-0.231696
-0.2323
-0.224563
-0.216947
-0.208772
-0.200165
-0.191451
-0.182745
-0.17411
-0.165591
-0.15722
-0.14902
-0.14101
-0.133207
-0.125626
-0.118282
-0.111188
-0.104354
-0.097789
-0.0914992
-0.0854889
-0.0797598
-0.0743112
-0.0691404
-0.0642422
-0.05961
-0.0552353
-0.0511083
-0.0472181
-0.0435529
-0.0401
-0.0368471
-0.0337796
-0.0308871
-0.0281506
-0.0255683
-0.0231051
-0.0207903
-0.0185334
-0.0164649
-0.0143168
-0.0125303
-0.0103056
-0.008984
-0.00626779
-0.00596412
-0.00176947
-0.00394162
0.00406519
-0.209092
-0.223705
-0.224789
-0.218075
-0.211329
-0.203981
-0.196076
-0.187949
-0.179743
-0.171538
-0.163391
-0.155346
-0.147433
-0.139677
-0.132099
-0.124718
-0.117551
-0.110613
-0.103915
-0.0974693
-0.0912822
-0.0853598
-0.0797051
-0.0743186
-0.0691988
-0.0643418
-0.059742
-0.0553921
-0.0512832
-0.0474053
-0.0437477
-0.0402982
-0.0370453
-0.0339752
-0.0310778
-0.0283349
-0.0257446
-0.0232736
-0.0209487
-0.0186851
-0.0166037
-0.0144542
-0.0126474
-0.0104373
-0.00907275
-0.00641505
-0.00600091
-0.00198699
-0.00385208
0.00363769
-0.205707
-0.216198
-0.217488
-0.211652
-0.205614
-0.199006
-0.191775
-0.184235
-0.17654
-0.168781
-0.161026
-0.153326
-0.145717
-0.138231
-0.130893
-0.123726
-0.116748
-0.109976
-0.103425
-0.0971065
-0.0910299
-0.0852023
-0.0796279
-0.0743089
-0.0692447
-0.064433
-0.0598691
-0.0555469
-0.0514586
-0.0475951
-0.0439466
-0.0405018
-0.03725
-0.034178
-0.0312761
-0.0285274
-0.0259291
-0.0234505
-0.0211152
-0.0188448
-0.0167501
-0.0145993
-0.0127714
-0.0105764
-0.00916695
-0.00657006
-0.00604068
-0.0022146
-0.00375982
0.00318935
-0.201859
-0.208946
-0.210152
-0.205086
-0.199671
-0.193744
-0.187172
-0.180225
-0.17306
-0.165772
-0.158435
-0.151105
-0.143826
-0.136634
-0.129558
-0.122623
-0.115852
-0.109262
-0.102871
-0.096693
-0.0907378
-0.0850145
-0.079529
-0.0742845
-0.0692822
-0.0645208
-0.0599971
-0.0557061
-0.0516412
-0.0477942
-0.0441564
-0.0407175
-0.0374674
-0.0343938
-0.0314876
-0.0287327
-0.0261262
-0.0236393
-0.0212931
-0.0190153
-0.0169064
-0.0147538
-0.0129035
-0.0107237
-0.0092673
-0.00673301
-0.00608378
-0.00245204
-0.00366508
0.00272142
-0.197281
-0.201748
-0.202699
-0.198321
-0.193482
-0.188187
-0.182257
-0.175906
-0.169286
-0.162491
-0.155596