/*--------------------------------*- C++ -*----------------------------------*\
  =========                 |
  \\      /  F ield         | OpenFOAM: The Open Source CFD Toolbox
   \\    /   O peration     | Website:  https://openfoam.org
    \\  /    A nd           | Version:  7
     \\/     M anipulation  |
\*---------------------------------------------------------------------------*/
FoamFile
{
    version     2.0;
    format      ascii;
    class       surfaceScalarField;
    location    "15";
    object      phi;
}
// * * * * * * * * * * * * * * * * * * * * * * * * * * * * * * * * * * * * * //

dimensions      [0 3 -1 0 0 0 0];

internalField   nonuniform List<scalar> 
20715
(
-6.09386e-06
6.09386e-06
7.97376e-13
-9.74794e-06
3.65409e-06
1.06143e-12
-3.50078e-06
-6.24716e-06
7.78275e-13
1.90641e-05
-2.25649e-05
-5.01659e-14
6.28946e-05
-4.38305e-05
-1.22588e-12
0.000132343
-6.94484e-05
-2.81876e-12
0.000230958
-9.86153e-05
-5.0111e-12
0.000361179
-0.00013022
-7.88439e-12
0.000522273
-0.000161095
-1.16858e-11
-0.000191601
-1.64096e-11
0.000713874
-5.8467e-06
1.19406e-05
-8.87607e-06
6.68346e-06
-1.63213e-06
-1.34911e-05
2.2316e-05
-4.6513e-05
6.7957e-05
-8.94714e-05
0.000139703
-0.000141194
0.000241189
-0.000200102
0.00037497
-0.000264001
0.000540442
-0.000326567
-0.000388478
0.00073732
-5.35557e-06
1.72961e-05
-7.14014e-06
8.46803e-06
2.08966e-06
-2.27209e-05
2.87943e-05
-7.32176e-05
7.804e-05
-0.000138717
0.000154357
-0.000217511
0.00026155
-0.000307295
0.000402401
-0.000404852
0.000576561
-0.000500727
-0.000595813
0.000783896
-4.62517e-06
2.19213e-05
-4.55592e-06
8.39878e-06
7.63101e-06
-3.49078e-05
3.84395e-05
-0.000104026
9.30481e-05
-0.000193326
0.000176158
-0.000300621
0.00029182
-0.000422957
0.000443146
-0.000556178
0.000630169
-0.000687751
-0.000818598
0.000852955
-3.66249e-06
2.55838e-05
-1.14593e-06
5.88223e-06
1.4943e-05
-5.09968e-05
5.11642e-05
-0.000140247
0.00011284
-0.000255001
0.000204887
-0.000392668
0.000331671
-0.000549741
0.000496721
-0.000721228
0.000700581
-0.00089161
-0.00106155
0.00094353
-2.47667e-06
2.80605e-05
3.05676e-06
3.48792e-07
2.39608e-05
-7.19008e-05
6.68538e-05
-0.00018314
0.000137229
-0.000325377
0.000240258
-0.000495697
0.000380672
-0.000690154
0.00056249
-0.000903047
0.000786888
-0.00111601
-0.001329
0.00105434
-1.07553e-06
2.9136e-05
8.01928e-06
-8.74602e-06
3.46056e-05
-9.84871e-05
8.53681e-05
-0.000233903
0.000165989
-0.000405998
0.000281921
-0.000611629
0.000438295
-0.000846528
0.00063967
-0.00110442
0.000887973
-0.00136431
-0.00162484
0.00118381
5.3763e-07
2.85984e-05
1.36981e-05
-2.19065e-05
4.67858e-05
-0.000131575
0.000106544
-0.000293661
0.000198855
-0.00049831
0.000329464
-0.000742238
0.000503922
-0.00102099
0.000727341
-0.00132784
0.00100251
-0.00163948
-0.00195239
0.00133006
2.31757e-06
2.62808e-05
2.00444e-05
-3.96333e-05
6.03982e-05
-0.000171929
0.000130195
-0.000363457
0.000235525
-0.000603639
0.000382422
-0.000889135
0.00057685
-0.00121541
0.000824458
-0.00157545
0.001129
-0.00194403
-0.00231434
0.00149095
4.27804e-06
2.20027e-05
2.70076e-05
-6.23629e-05
7.53288e-05
-0.00022025
0.000156118
-0.000444246
0.000275663
-0.000723185
0.000440276
-0.00105375
0.000656301
-0.00143144
0.000929862
-0.00184901
0.00126576
-0.00227992
-0.00271265
0.00166407
6.39681e-06
1.56059e-05
3.45319e-05
-9.0498e-05
9.14548e-05
-0.000277173
0.000184088
-0.00053688
0.000318907
-0.000858004
0.000502464
-0.0012373
0.000741427
-0.0016704
0.00104229
-0.00214988
0.00141095
-0.00264858
-0.00314848
0.00184679
8.65742e-06
6.94852e-06
4.25586e-05
-0.000124399
0.000108645
-0.000343259
0.000213867
-0.000642102
0.000364861
-0.001009
0.000568377
-0.00144082
0.000831321
-0.00193335
0.00116041
-0.00247897
0.00156264
-0.00305081
-0.0036221
0.00203626
1.10434e-05
-4.0949e-06
5.10261e-05
-0.000164382
0.00012676
-0.000418993
0.000245199
-0.000760541
0.000413105
-0.0011769
0.000637366
-0.00166508
0.000925018
-0.002221
0.00128281
-0.00283676
0.00171877
-0.00348677
-0.00413284
0.0022295
1.35382e-05
-1.76331e-05
5.98711e-05
-0.000210715
0.000145655
-0.000504777
0.000277815
-0.0008927
0.000463193
-0.00136228
0.000708744
-0.00191063
0.00102151
-0.00253376
0.00140804
-0.0032233
0.00187726
-0.00395598
-0.004679
0.00242342
1.6125e-05
-3.37581e-05
6.90279e-05
-0.000263618
0.000165179
-0.000600928
0.00031143
-0.00103895
0.000514651
-0.0015655
0.000781782
-0.00217776
0.00111973
-0.00287171
0.00153464
-0.00363821
0.002036
-0.00445734
-0.00525789
0.00261488
1.87871e-05
-5.25452e-05
7.84295e-05
-0.00032326
0.000185173
-0.000707671
0.000345746
-0.00119953
0.000566979
-0.00178674
0.000855709
-0.00246649
0.00121857
-0.00323457
0.00166112
-0.00408076
0.00219295
-0.00498917
-0.00586583
0.00280089
2.15076e-05
-7.40527e-05
8.8007e-05
-0.00038976
0.000205473
-0.000825138
0.000380452
-0.0013745
0.00061965
-0.00202593
0.000929708
-0.00277655
0.00131687
-0.00362173
0.001786
-0.00454988
0.00234612
-0.00554929
-0.00649849
0.00297878
2.42695e-05
-9.83223e-05
9.76901e-05
-0.00046318
0.000225913
-0.000953361
0.000415223
-0.00156381
0.000672109
-0.00228282
0.00100292
-0.00310736
0.00141342
-0.00403224
0.00190787
-0.00504433
0.00249356
-0.00613499
-0.00715147
0.00314654
2.70556e-05
-0.000125378
0.000107407
-0.000543531
0.000246317
-0.00109227
0.000449721
-0.00176722
0.000723775
-0.00255687
0.00107441
-0.00345799
0.00150693
-0.00446476
0.00202543
-0.00556283
0.00263387
-0.00674344
-0.0078227
0.0033051
2.9848e-05
-0.000155226
0.000117084
-0.000630767
0.00026651
-0.0012417
0.000483601
-0.00198431
0.00077404
-0.00284731
0.00114319
-0.00382714
0.0015959
-0.00491747
0.00213698
-0.00610391
0.00276973
-0.00737619
-0.0085124
0.00345942
3.24076e-05
-0.000187634
0.000126166
-0.000724525
0.000285564
-0.00140109
0.000515507
-0.00221425
0.000821043
-0.00315285
0.00120676
-0.00421286
0.00167678
-0.00538748
0.00223638
-0.00666351
0.0029003
-0.00804011
-0.00939972
0.00378762
3.5126e-05
-0.000222759
0.000135478
-0.000824877
0.000304703
-0.00157032
0.000546982
-0.00245653
0.000866521
-0.00347239
0.00126682
-0.00461317
0.0017507
-0.00587135
0.00232219
-0.007235
0.00299021
-0.00870814
-0.010225
0.00381548
3.77951e-05
-0.000260555
0.000144522
-0.000931604
0.000323084
-0.00174888
0.000576787
-0.00271023
0.000908782
-0.00380438
0.00132118
-0.00502556
0.00181487
-0.00636505
0.00239094
-0.00781107
0.00304881
-0.009366
-0.0109961
0.0038199
4.03959e-05
-0.00030095
0.000153224
-0.00104443
0.000340533
-0.00193619
0.000604596
-0.0029743
0.000947305
-0.00414709
0.0013691
-0.00544736
0.00186857
-0.00686452
0.00244328
-0.00838578
0.00308541
-0.0100081
-0.0117167
0.00380605
4.29096e-05
-0.00034386
0.00016151
-0.00116303
0.000356877
-0.00213156
0.000630101
-0.00324752
0.000981621
-0.00449861
0.00141
-0.00587573
0.00191135
-0.00736587
0.00247975
-0.00895418
0.00310242
-0.0106308
-0.0123912
0.00377691
4.53175e-05
-0.000389177
0.000169306
-0.00128702
0.000371951
-0.0023342
0.000653008
-0.00352858
0.0010113
-0.00485691
0.00144337
-0.0063078
0.00194284
-0.00786534
0.00250061
-0.00951195
0.00310069
-0.0112309
-0.0130226
0.00373213
4.76007e-05
-0.000436778
0.000176538
-0.00141596
0.000385592
-0.00254326
0.000673043
-0.00381603
0.00103597
-0.00521983
0.0014688
-0.00674063
0.00196277
-0.00835931
0.00250603
-0.0100552
0.00308072
-0.0118056
-0.0136128
0.00367092
4.97398e-05
-0.000486518
0.000183134
-0.00154935
0.000397643
-0.00275776
0.000689951
-0.00410834
0.00105528
-0.00558516
0.00148594
-0.00717129
0.00197092
-0.00884429
0.00249617
-0.0105805
0.00304288
-0.0123523
-0.0141626
0.00359266
5.17153e-05
-0.000538233
0.000189022
-0.00168666
0.000407955
-0.0029767
0.000703494
-0.00440388
0.00106895
-0.00595061
0.00149452
-0.00759687
0.00196719
-0.00931696
0.0024712
-0.0110845
0.00298756
-0.0128686
-0.0146722
0.0034971
5.35072e-05
-0.000591741
0.000194131
-0.00182728
0.000416386
-0.00319895
0.000713461
-0.00470095
0.00107671
-0.00631386
0.00149434
-0.0080145
0.00195156
-0.00977418
0.0024314
-0.0115643
0.00291525
-0.0133525
-0.0151413
0.00338438
5.50955e-05
-0.000646836
0.000198394
-0.00197058
0.000422804
-0.00342336
0.000719663
-0.00499781
0.00107838
-0.00667258
0.00148528
-0.0084214
0.00192412
-0.010213
0.00237716
-0.0120173
0.0028266
-0.0138019
-0.0155697
0.00325499
5.64603e-05
-0.000703296
0.000201744
-0.00211587
0.000427086
-0.00364871
0.000721939
-0.00529266
0.00107381
-0.00702445
0.00146731
-0.0088149
0.00188504
-0.0106307
0.00230896
-0.0124413
0.00272241
-0.0142154
-0.015957
0.00310976
5.75818e-05
-0.000760878
0.00020412
-0.0022624
0.000429125
-0.00387371
0.000720158
-0.0055837
0.00106291
-0.0073672
0.00144048
-0.00919247
0.00183463
-0.0110249
0.00222744
-0.0128341
0.00260362
-0.0145915
-0.0163032
0.00294973
5.84412e-05
-0.000819319
0.000205464
-0.00240943
0.000428827
-0.00409707
0.000714224
-0.00586909
0.00104564
-0.00769862
0.00140491
-0.00955174
0.00177329
-0.0113933
0.00213331
-0.0131941
0.00247127
-0.0149295
-0.016608
0.0027761
5.90204e-05
-0.00087834
0.000205726
-0.00255613
0.000426115
-0.00431746
0.000704075
-0.00614705
0.00102204
-0.00801658
0.00136081
-0.00989052
0.00170149
-0.011734
0.00202738
-0.01352
0.00232651
-0.0152286
-0.0168717
0.0025902
5.93026e-05
-0.000937642
0.00020486
-0.00270169
0.000420931
-0.00453353
0.000689684
-0.00641581
0.000992176
-0.00831907
0.00130848
-0.0102068
0.00161981
-0.0120453
0.00191054
-0.0138107
0.00217051
-0.0154886
-0.0170946
0.00239339
5.92726e-05
-0.000996915
0.00020283
-0.00284525
0.000413237
-0.00474394
0.000671064
-0.00667363
0.000956203
-0.00860421
0.00124826
-0.0104989
0.00152888
-0.0123259
0.00178372
-0.0140656
0.00200449
-0.0157094
-0.0172771
0.00218706
5.89167e-05
-0.00105583
0.000199605
-0.00298593
0.000403013
-0.00494735
0.000648264
-0.00691888
0.000914308
-0.00887025
0.00118057
-0.0107651
0.0014294
-0.0125747
0.0016479
-0.0142841
0.00182966
-0.0158911
-0.01742
0.00197256
5.82227e-05
-0.00111405
0.000195167
-0.00312288
0.000390263
-0.00514245
0.000621369
-0.00714999
0.000866734
-0.00911562
0.00110588
-0.0110043
0.0013221
-0.0127909
0.00150407
-0.014466
0.0016472
-0.0160343
-0.0175241
0.00175123
5.71815e-05
-0.00117124
0.000189503
-0.0032552
0.000375014
-0.00532796
0.000590501
-0.00736548
0.000813771
-0.00933889
0.00102471
-0.0112152
0.00120773
-0.012974
0.0013532
-0.0146115
0.00145827
-0.0161393
-0.0175901
0.00152432
5.49845e-05
-0.00122622
0.000181182
-0.0033814
0.000355405
-0.00550218
0.000553578
-0.00756365
0.000753302
-0.00953861
0.000935059
-0.011397
0.00108455
-0.0131235
0.00119383
-0.0147208
0.00126169
-0.0162072
-0.0176193
0.00129089
5.31795e-05
-0.0012794
0.000173007
-0.00350123
0.00033524
-0.00566441
0.000515186
-0.0077436
0.000690511
-0.00971394
0.000842523
-0.011549
0.000958355
-0.0132393
0.00103177
-0.0147942
0.0010631
-0.0162385
-0.0176125
0.00105626
5.09973e-05
-0.0013304
0.000163621
-0.00361385
0.000312765
-0.00581356
0.000473365
-0.0079042
0.0006234
-0.00986397
0.000745206
-0.0116708
0.000827437
-0.0133215
0.000865531
-0.0148323
0.000861201
-0.0162342
-0.0175706
0.000819352
4.84417e-05
-0.00137884
0.000153058
-0.00371847
0.000288092
-0.00594859
0.000428359
-0.00804446
0.000552389
-0.009988
0.000643713
-0.0117621
0.000692562
-0.0133704
0.00069598
-0.0148357
0.000656924
-0.0161951
-0.0174948
0.000581083
4.55193e-05
-0.00142436
0.000141362
-0.00381431
0.00026135
-0.00606858
0.00038043
-0.00816354
0.000477908
-0.0100855
0.000538649
-0.0118229
0.00055448
-0.0133862
0.000523957
-0.0148052
0.000451129
-0.0161223
-0.0173859
0.000342297
4.22403e-05
-0.0014666
0.000128588
-0.00390066
0.000232682
-0.00617267
0.000329857
-0.00826072
0.000400397
-0.010156
0.000430611
-0.0118531
0.000413912
-0.0133695
0.000350259
-0.0147415
0.000244619
-0.0160167
-0.017245
0.000103713
3.86184e-05
-0.00150522
0.000114797
-0.00397683
0.000202245
-0.00626012
0.000276932
-0.0083354
0.000320304
-0.0101994
0.00032019
-0.011853
0.000271547
-0.0133209
0.000175647
-0.0146456
3.82917e-05
-0.0158793
-0.0170729
-0.000133809
3.46704e-05
-0.00153989
0.00010006
-0.00404222
0.000170208
-0.00633027
0.000221956
-0.00838715
0.000238073
-0.0102155
0.000207966
-0.0118229
0.000128046
-0.0132409
3.28579e-07
-0.0145179
-0.000167643
-0.0157114
-0.0168709
-0.000369687
3.04159e-05
-0.0015703
8.44564e-05
-0.00409627
0.000136749
-0.00638256
0.000165236
-0.00841564
0.00015415
-0.0102044
9.44967e-05
-0.0117632
-1.59e-05
-0.0131305
-0.000173676
-0.0143601
-0.000372064
-0.015513
-0.0166395
-0.000603415
2.5877e-05
-0.00159618
6.80691e-05
-0.00413846
0.000102052
-0.00641654
0.000107082
-0.00842067
6.89689e-05
-0.0101663
-1.96769e-05
-0.0116746
-0.000159737
-0.0129905
-0.000347082
-0.0141728
-0.000574531
-0.0152855
-0.0163796
-0.000834424
2.10784e-05
-0.00161726
5.0988e-05
-0.00416837
6.63081e-05
-0.00643186
4.78038e-05
-0.00840216
-1.70436e-05
-0.0101015
-0.00013404
-0.0115576
-0.000302882
-0.0128216
-0.000518823
-0.0139568
-0.000774485
-0.0150299
-0.0160919
-0.00106222
1.60469e-05
-0.00163331
3.33072e-05
-0.00418563
2.9711e-05
-0.00642827
-1.22905e-05
-0.00836016
-0.000103479
-0.0100103
-0.000248099
-0.011413
-0.000444788
-0.0126249
-0.000688344
-0.0137133
-0.000971386
-0.0147468
-0.0157769
-0.00128635
1.0812e-05
-0.00164412
1.51236e-05
-0.00418994
-7.54248e-06
-0.0064056
-7.29053e-05
-0.0082948
-0.000189938
-0.00989324
-0.000361385
-0.0112415
-0.000584939
-0.0124014
-0.000855106
-0.0134431
-0.00116471
-0.0144372
-0.0154353
-0.00150638
5.40631e-06
-0.00164952
-3.46261e-06
-0.00418107
-4.5271e-05
-0.00636379
-0.000133742
-0.00820633
-0.000276041
-0.00975094
-0.000473457
-0.0110441
-0.000722851
-0.012152
-0.00101859
-0.0131474
-0.00135396
-0.0141018
-0.0150673
-0.0017219
-2.51907e-07
-0.00164927
-2.23585e-05
-0.00415896
-8.32675e-05
-0.00630289
-0.00019452
-0.00809508
-0.000361432
-0.00958403
-0.000583904
-0.0108216
-0.000858071
-0.0118778
-0.0011783
-0.0128272
-0.00153859
-0.0137415
-0.0146734
-0.00193249
-5.83079e-06
-0.00164344
-4.14472e-05
-0.00412335
-0.00012135
-0.00622298
-0.000254965
-0.00796146
-0.000445773
-0.00939322
-0.000692346
-0.010575
-0.00099018
-0.01158
-0.00133376
-0.0124836
-0.00171809
-0.0133572
-0.0142538
-0.00213774
-1.15749e-05
-0.00163187
-6.06392e-05
-0.00407428
-0.000159336
-0.00612429
-0.000314821
-0.00780598
-0.00052875
-0.00917929
-0.000798433
-0.0103054
-0.0011188
-0.0112596
-0.00148451
-0.0121179
-0.0018919
-0.0129498
-0.0138085
-0.00233723
-1.73641e-05
-0.0016145
-7.98343e-05
-0.00401181
-0.000197048
-0.00600707
-0.000373843
-0.00762918
-0.000610071
-0.00894307
-0.000901853
-0.0100136
-0.00124359
-0.0109179
-0.00163015
-0.0117313
-0.0020595
-0.0125205
-0.0133375
-0.00253045
-2.31652e-05
-0.00159134
-9.89347e-05
-0.00393604
-0.000234319
-0.00587169
-0.000431798
-0.0074317
-0.000689469
-0.0086854
-0.00100232
-0.00970072
-0.00136425
-0.010556
-0.00177029
-0.0113253
-0.00222005
-0.0120707
-0.0128414
-0.00271614
-2.89439e-05
-0.00156239
-0.000117845
-0.00384714
-0.000270984
-0.00571855
-0.000488471
-0.00721421
-0.000766699
-0.00840717
-0.0010996
-0.00936782
-0.00148057
-0.010175
-0.00190461
-0.0109012
-0.00237221
-0.0116031
-0.0123181
-0.0028955
-3.60476e-05
-0.00152635
-0.00013875
-0.00374444
-0.000309682
-0.00554762
-0.000546699
-0.0069772
-0.000844636
-0.00810923
-0.00119651
-0.00901595
-0.00159534
-0.00977617
-0.00203584
-0.0104607
-0.002514
-0.011125
-0.0118037
-0.0030284
-4.16897e-05
-0.00148466
-0.000156979
-0.00362915
-0.000344611
-0.00535998
-0.000600113
-0.0067217
-0.000916755
-0.00779259
-0.00128666
-0.00864604
-0.0017025
-0.00936033
-0.00215891
-0.0100043
-0.00265228
-0.0106316
-0.0112769
-0.00317912
-4.725e-05
-0.00143741
-0.000174781
-0.00350162
-0.000378505
-0.00515626
-0.000651676
-0.00644852
-0.000986078
-0.00745819
-0.00137303
-0.00825909
-0.00180494
-0.00892841
-0.00227646
-0.0095328
-0.00278441
-0.0101236
-0.0107357
-0.00332557
-5.26936e-05
-0.00138471
-0.00019207
-0.00336224
-0.000411229
-0.0049371
-0.000701221
-0.00615853
-0.00105243
-0.00710698
-0.00145544
-0.00785608
-0.00190249
-0.00848136
-0.00238828
-0.00904701
-0.00290982
-0.00960208
-0.0101805
-0.00346499
-5.79893e-05
-0.00132672
-0.000208765
-0.00321147
-0.000442659
-0.00470321
-0.000748596
-0.0058526
-0.00111564
-0.00673994
-0.00153375
-0.00743797
-0.001995
-0.00802011
-0.00249421
-0.0085478
-0.00302863
-0.00906766
-0.00961225
-0.00359693
-6.31069e-05
-0.00126362
-0.00022479
-0.00304978
-0.000472678
-0.00445532
-0.00079366
-0.00553161
-0.00117558
-0.00635802
-0.0016078
-0.00700574
-0.00208234
-0.00754558
-0.00259415
-0.00803599
-0.00314077
-0.00852104
-0.00903149
-0.00372153
-6.80176e-05
-0.0011956
-0.000240074
-0.00287773
-0.000501177
-0.00419422
-0.000836284
-0.00519651
-0.0012321
-0.00596221
-0.00167749
-0.00656035
-0.00216442
-0.00705865
-0.00268802
-0.00751238
-0.00324616
-0.00796291
-0.00843895
-0.0038387
-7.26939e-05
-0.0011229
-0.000254549
-0.00269587
-0.000528057
-0.00392071
-0.000876348
-0.00484821
-0.00128508
-0.00555347
-0.00174269
-0.00610274
-0.00224112
-0.00656022
-0.00277573
-0.00697777
-0.00334469
-0.00739395
-0.00783529
-0.00394835
-7.71105e-05
-0.00104579
-0.000268154
-0.00250483
-0.000553224
-0.00363564
-0.000913744
-0.00448769
-0.00133442
-0.0051328
-0.0018033
-0.00563386
-0.00231235
-0.00605117
-0.00285717
-0.00643295
-0.00343625
-0.00681487
-0.00722119
-0.00405035
-8.12438e-05
-0.00096455
-0.00028083
-0.00230524
-0.000576593
-0.00333987
-0.000948371
-0.00411592
-0.00138
-0.00470117
-0.00185922
-0.00515465
-0.00237803
-0.00553235
-0.00293227
-0.00587872
-0.00352075
-0.00622639
-0.00659734
-0.0041446
-8.50721e-05
-0.000879478
-0.000292525
-0.00209779
-0.000598088
-0.00303431
-0.00098014
-0.00373386
-0.00142174
-0.00425957
-0.00191036
-0.00466603
-0.00243806
-0.00500465
-0.00300092
-0.00531586
-0.00359806
-0.00562925
-0.00596447
-0.00423093
-8.85759e-05
-0.000790902
-0.000303191
-0.00188318
-0.000617636
-0.00271987
-0.00100897
-0.00334253
-0.00145956
-0.00380898
-0.00195664
-0.00416895
-0.00249236
-0.00446892
-0.00306303
-0.0047452
-0.00366807
-0.00502421
-0.00532333
-0.0043092
-9.17376e-05
-0.000699164
-0.000312785
-0.00166213
-0.000635177
-0.00239747
-0.00103478
-0.00294292
-0.00149337
-0.00335039
-0.00199798
-0.00366434
-0.00254086
-0.00392604
-0.00311851
-0.00416754
-0.00373065
-0.00441207
-0.00467473
-0.00437925
-9.45413e-05
-0.000604623
-0.000321269
-0.0014354
-0.000650654
-0.00206809
-0.00105752
-0.00253605
-0.00152311
-0.0028848
-0.00203432
-0.00315314
-0.00258347
-0.00337689
-0.00316728
-0.00358373
-0.0037857
-0.00379365
-0.0040195
-0.00444093
-9.69736e-05
-0.00050765
-0.00032861
-0.00120376
-0.000664018
-0.00173268
-0.00107713
-0.00212295
-0.00154873
-0.00241319
-0.00206559
-0.00263628
-0.00262014
-0.00282234
-0.00320925
-0.00299462
-0.00383311
-0.0031698
-0.00335853
-0.00449408
-9.90227e-05
-0.000408627
-0.000334779
-0.000968009
-0.000675228
-0.00139223
-0.00109355
-0.00170463
-0.00157016
-0.00193658
-0.00209175
-0.00211469
-0.0026508
-0.0022633
-0.00324436
-0.00240106
-0.00387278
-0.00254137
-0.00269271
-0.0045386
-0.000100679
-0.000307948
-0.000339752
-0.000728936
-0.00068425
-0.00104773
-0.00110674
-0.00128213
-0.00158737
-0.00145595
-0.00211274
-0.00158933
-0.0026754
-0.00170064
-0.00327253
-0.00180393
-0.00390463
-0.00190927
-0.00202298
-0.00457436
-0.000101935
-0.000206012
-0.000343511
-0.000487361
-0.000691055
-0.000700189
-0.00111669
-0.000856502
-0.00160033
-0.000972307
-0.00212853
-0.00106113
-0.0026939
-0.00113526
-0.00329372
-0.00120412
-0.00392859
-0.00127439
-0.0013503
-0.00460127
-0.000102786
-0.000103227
-0.000346041
-0.000244106
-0.000695623
-0.000350607
-0.00112335
-0.000428776
-0.001609
-0.000486656
-0.00213909
-0.000531036
-0.00270627
-0.000568084
-0.00330788
-0.000602506
-0.00394461
-0.000637659
-0.000675643
-0.00461927
-0.000103227
2.81762e-13
-0.000347332
8.43697e-13
-0.000697939
1.39666e-12
-0.00112671
1.80892e-12
-0.00161337
2.14262e-12
-0.00214441
2.51215e-12
-0.00271249
3.00106e-12
-0.003315
3.61001e-12
-0.00395265
4.26557e-12
4.83978e-12
-0.0046283
-0.000103227
0.000103227
-0.000347332
0.000244106
-0.000697939
0.000350607
-0.00112671
0.000428776
-0.00161337
0.000486656
-0.00214441
0.000531036
-0.00271249
0.000568084
-0.003315
0.000602506
-0.00395265
0.000637659
0.000675643
-0.0046283
-0.000102786
0.000206012
-0.000346041
0.000487361
-0.000695623
0.000700189
-0.00112335
0.000856502
-0.001609
0.000972307
-0.00213909
0.00106113
-0.00270627
0.00113526
-0.00330788
0.00120412
-0.00394461
0.00127439
0.0013503
-0.00461927
-0.000101935
0.000307948
-0.000343511
0.000728936
-0.000691055
0.00104773
-0.00111669
0.00128213
-0.00160033
0.00145595
-0.00212853
0.00158933
-0.0026939
0.00170064
-0.00329372
0.00180393
-0.00392859
0.00190927
0.00202298
-0.00460127
-0.000100679
0.000408627
-0.000339752
0.000968009
-0.00068425
0.00139223
-0.00110674
0.00170463
-0.00158737
0.00193658
-0.00211274
0.00211469
-0.0026754
0.0022633
-0.00327253
0.00240106
-0.00390463
0.00254137
0.00269271
-0.00457436
-9.90227e-05
0.00050765
-0.000334779
0.00120376
-0.000675228
0.00173268
-0.00109355
0.00212295
-0.00157016
0.00241319
-0.00209175
0.00263628
-0.0026508
0.00282234
-0.00324436
0.00299462
-0.00387278
0.0031698
0.00335853
-0.0045386
-9.69736e-05
0.000604623
-0.00032861
0.0014354
-0.000664018
0.00206809
-0.00107713
0.00253605
-0.00154873
0.0028848
-0.00206559
0.00315314
-0.00262014
0.00337689
-0.00320925
0.00358373
-0.00383311
0.00379365
0.0040195
-0.00449408
-9.45413e-05
0.000699164
-0.000321269
0.00166213
-0.000650654
0.00239747
-0.00105752
0.00294292
-0.00152311
0.00335039
-0.00203432
0.00366434
-0.00258347
0.00392604
-0.00316728
0.00416754
-0.0037857
0.00441207
0.00467473
-0.00444093
-9.17376e-05
0.000790902
-0.000312785
0.00188318
-0.000635177
0.00271987
-0.00103478
0.00334253
-0.00149337
0.00380898
-0.00199798
0.00416895
-0.00254086
0.00446892
-0.00311851
0.0047452
-0.00373065
0.00502421
0.00532333
-0.00437925
-8.85759e-05
0.000879478
-0.000303191
0.00209779
-0.000617636
0.00303431
-0.00100897
0.00373386
-0.00145956
0.00425957
-0.00195664
0.00466603
-0.00249236
0.00500465
-0.00306303
0.00531586
-0.00366807
0.00562925
0.00596447
-0.0043092
-8.50721e-05
0.00096455
-0.000292525
0.00230524
-0.000598088
0.00333987
-0.00098014
0.00411592
-0.00142174
0.00470117
-0.00191036
0.00515465
-0.00243806
0.00553235
-0.00300092
0.00587872
-0.00359806
0.00622639
0.00659734
-0.00423093
-8.12438e-05
0.00104579
-0.00028083
0.00250483
-0.000576593
0.00363564
-0.000948371
0.00448769
-0.00138
0.0051328
-0.00185922
0.00563386
-0.00237803
0.00605117
-0.00293227
0.00643295
-0.00352075
0.00681487
0.00722119
-0.0041446
-7.71105e-05
0.0011229
-0.000268154
0.00269587
-0.000553224
0.00392071
-0.000913744
0.00484821
-0.00133442
0.00555347
-0.0018033
0.00610274
-0.00231235
0.00656022
-0.00285717
0.00697777
-0.00343625
0.00739395
0.00783529
-0.00405035
-7.26939e-05
0.0011956
-0.000254549
0.00287773
-0.000528057
0.00419422
-0.000876348
0.00519651
-0.00128508
0.00596221
-0.00174269
0.00656035
-0.00224112
0.00705865
-0.00277573
0.00751238
-0.00334469
0.00796291
0.00843895
-0.00394835
-6.80176e-05
0.00126362
-0.000240074
0.00304978
-0.000501177
0.00445532
-0.000836284
0.00553161
-0.0012321
0.00635802
-0.00167749
0.00700574
-0.00216442
0.00754558
-0.00268802
0.00803599
-0.00324616
0.00852104
0.00903149
-0.0038387
-6.31069e-05
0.00132672
-0.00022479
0.00321147
-0.000472678
0.00470321
-0.00079366
0.0058526
-0.00117558
0.00673994
-0.0016078
0.00743797
-0.00208234
0.00802011
-0.00259415
0.0085478
-0.00314077
0.00906766
0.00961225
-0.00372153
-5.79893e-05
0.00138471
-0.000208765
0.00336224
-0.000442659
0.0049371
-0.000748596
0.00615853
-0.00111564
0.00710698
-0.00153375
0.00785608
-0.001995
0.00848136
-0.00249421
0.00904701
-0.00302863
0.00960208
0.0101805
-0.00359693
-5.26936e-05
0.00143741
-0.00019207
0.00350162
-0.000411229
0.00515626
-0.000701221
0.00644852
-0.00105243
0.00745819
-0.00145544
0.00825909
-0.00190249
0.00892841
-0.00238828
0.0095328
-0.00290982
0.0101236
0.0107357
-0.00346499
-4.725e-05
0.00148466
-0.000174781
0.00362915
-0.000378505
0.00535998
-0.000651676
0.0067217
-0.000986078
0.00779259
-0.00137303
0.00864604
-0.00180494
0.00936033
-0.00227646
0.0100043
-0.00278441
0.0106316
0.0112769
-0.00332557
-4.16897e-05
0.00152635
-0.000156979
0.00374444
-0.000344611
0.00554762
-0.000600113
0.0069772
-0.000916755
0.00810923
-0.00128666
0.00901595
-0.0017025
0.00977617
-0.00215891
0.0104607
-0.00265228
0.011125
0.0118037
-0.00317912
-3.60476e-05
0.00156239
-0.00013875
0.00384714
-0.000309682
0.00571855
-0.000546699
0.00721421
-0.000844636
0.00840717
-0.00119651
0.00936782
-0.00159534
0.010175
-0.00203584
0.0109012
-0.002514
0.0116031
0.0123181
-0.0030284
-2.89439e-05
0.00159134
-0.000117845
0.00393604
-0.000270984
0.00587169
-0.000488471
0.0074317
-0.000766699
0.0086854
-0.0010996
0.00970072
-0.00148057
0.010556
-0.00190461
0.0113253
-0.00237221
0.0120707
0.0128414
-0.0028955
-2.31652e-05
0.0016145
-9.89347e-05
0.00401181
-0.000234319
0.00600707
-0.000431798
0.00762918
-0.000689469
0.00894307
-0.00100232
0.0100136
-0.00136425
0.0109179
-0.00177029
0.0117313
-0.00222005
0.0125205
0.0133375
-0.00271614
-1.73641e-05
0.00163187
-7.98343e-05
0.00407428
-0.000197048
0.00612429
-0.000373843
0.00780598
-0.000610071
0.00917929
-0.000901853
0.0103054
-0.00124359
0.0112596
-0.00163015
0.0121179
-0.0020595
0.0129498
0.0138085
-0.00253045
-1.15749e-05
0.00164344
-6.06392e-05
0.00412335
-0.000159336
0.00622298
-0.000314821
0.00796146
-0.00052875
0.00939322
-0.000798433
0.010575
-0.0011188
0.01158
-0.00148451
0.0124836
-0.0018919
0.0133572
0.0142538
-0.00233723
-5.83079e-06
0.00164927
-4.14472e-05
0.00415896
-0.00012135
0.00630289
-0.000254965
0.00809508
-0.000445773
0.00958403
-0.000692346
0.0108216
-0.00099018
0.0118778
-0.00133376
0.0128272
-0.00171809
0.0137415
0.0146734
-0.00213774
-2.51907e-07
0.00164952
-2.23585e-05
0.00418107
-8.32675e-05
0.00636379
-0.00019452
0.00820633
-0.000361432
0.00975094
-0.000583904
0.0110441
-0.000858071
0.012152
-0.0011783
0.0131474
-0.00153859
0.0141018
0.0150673
-0.00193249
5.40631e-06
0.00164412
-3.46261e-06
0.00418994
-4.5271e-05
0.0064056
-0.000133742
0.0082948
-0.000276041
0.00989324
-0.000473457
0.0112415
-0.000722851
0.0124014
-0.00101859
0.0134431
-0.00135396
0.0144372
0.0154353
-0.0017219
1.0812e-05
0.00163331
1.51236e-05
0.00418563
-7.54248e-06
0.00642827
-7.29053e-05
0.00836016
-0.000189938
0.0100103
-0.000361385
0.011413
-0.000584939
0.0126249
-0.000855106
0.0137133
-0.00116471
0.0147468
0.0157769
-0.00150638
1.60469e-05
0.00161726
3.33072e-05
0.00416837
2.9711e-05
0.00643186
-1.22905e-05
0.00840216
-0.000103479
0.0101015
-0.000248099
0.0115576
-0.000444788
0.0128216
-0.000688344
0.0139568
-0.000971386
0.0150299
0.0160919
-0.00128635
2.10784e-05
0.00159618
5.0988e-05
0.00413846
6.63081e-05
0.00641654
4.78038e-05
0.00842067
-1.70436e-05
0.0101663
-0.00013404
0.0116746
-0.000302882
0.0129905
-0.000518823
0.0141728
-0.000774485
0.0152855
0.0163796
-0.00106222
2.5877e-05
0.0015703
6.80691e-05
0.00409627
0.000102052
0.00638256
0.000107082
0.00841564
6.89688e-05
0.0102044
-1.9677e-05
0.0117632
-0.000159737
0.0131305
-0.000347082
0.0143601
-0.000574531
0.015513
0.0166395
-0.000834424
3.04159e-05
0.00153989
8.44564e-05
0.00404222
0.000136749
0.00633027
0.000165236
0.00838715
0.00015415
0.0102155
9.44967e-05
0.0118229
-1.59e-05
0.0132409
-0.000173676
0.0145179
-0.000372064
0.0157114
0.0168709
-0.000603415
3.46704e-05
0.00150522
0.00010006
0.00397683
0.000170208
0.00626012
0.000221956
0.0083354
0.000238073
0.0101994
0.000207966
0.011853
0.000128046
0.0133209
3.28574e-07
0.0146456
-0.000167643
0.0158793
0.0170729
-0.000369687
3.86184e-05
0.0014666
0.000114797
0.00390066
0.000202245
0.00617267
0.000276932
0.00826072
0.000320304
0.010156
0.00032019
0.0118531
0.000271547
0.0133695
0.000175647
0.0147415
3.82917e-05
0.0160167
0.017245
-0.000133809
4.22403e-05
0.00142436
0.000128588
0.00381431
0.000232682
0.00606858
0.000329857
0.00816354
0.000400397
0.0100855
0.000430611
0.0118229
0.000413912
0.0133862
0.000350259
0.0148052
0.000244619
0.0161223
0.0173859
0.000103713
4.55193e-05
0.00137884
0.000141362
0.00371847
0.00026135
0.00594859
0.00038043
0.00804446
0.000477908
0.009988
0.000538649
0.0117621
0.00055448
0.0133704
0.000523957
0.0148357
0.000451129
0.0161951
0.0174948
0.000342297
4.84417e-05
0.0013304
0.000153058
0.00361385
0.000288092
0.00581356
0.000428359
0.0079042
0.000552389
0.00986397
0.000643713
0.0116708
0.000692562
0.0133215
0.00069598
0.0148323
0.000656924
0.0162342
0.0175706
0.000581083
5.09973e-05
0.0012794
0.000163621
0.00350123
0.000312765
0.00566441
0.000473365
0.0077436
0.0006234
0.00971394
0.000745206
0.011549
0.000827437
0.0132393
0.000865531
0.0147942
0.000861201
0.0162385
0.0176125
0.000819352
5.31795e-05
0.00122622
0.000173007
0.0033814
0.00033524
0.00550218
0.000515186
0.00756365
0.000690511
0.00953861
0.000842523
0.011397
0.000958355
0.0131235
0.00103177
0.0147208
0.0010631
0.0162072
0.0176193
0.00105626
5.49845e-05
0.00117124
0.000181182
0.0032552
0.000355405
0.00532796
0.000553578
0.00736548
0.000753302
0.00933889
0.000935059
0.0112152
0.00108455
0.012974
0.00119383
0.0146115
0.00126169
0.0161393
0.0175901
0.00129089
5.71815e-05
0.00111405
0.000189503
0.00312288
0.000375014
0.00514245
0.000590501
0.00714999
0.000813771
0.00911562
0.00102471
0.0110043
0.00120773
0.0127909
0.0013532
0.014466
0.00145827
0.0160343
0.0175241
0.00152432
5.82227e-05
0.00105583
0.000195167
0.00298593
0.000390263
0.00494735
0.000621369
0.00691888
0.000866734
0.00887025
0.00110588
0.0107651
0.0013221
0.0125747
0.00150407
0.0142841
0.0016472
0.0158911
0.01742
0.00175123
5.89167e-05
0.000996915
0.000199605
0.00284525
0.000403013
0.00474394
0.000648264
0.00667363
0.000914308
0.00860421
0.00118057
0.0104989
0.0014294
0.0123259
0.0016479
0.0140656
0.00182966
0.0157094
0.0172771
0.00197256
5.92726e-05
0.000937642
0.00020283
0.00270169
0.000413237
0.00453353
0.000671064
0.00641581
0.000956203
0.00831907
0.00124826
0.0102068
0.00152888
0.0120453
0.00178372
0.0138107
0.00200449
0.0154886
0.0170946
0.00218706
5.93026e-05
0.00087834
0.00020486
0.00255613
0.000420931
0.00431746
0.000689684
0.00614705
0.000992176
0.00801658
0.00130848
0.00989052
0.00161981
0.011734
0.00191054
0.01352
0.00217051
0.0152286
0.0168717
0.00239339
5.90204e-05
0.000819319
0.000205726