/*--------------------------------*- C++ -*----------------------------------*\
  =========                 |
  \\      /  F ield         | OpenFOAM: The Open Source CFD Toolbox
   \\    /   O peration     | Website:  https://openfoam.org
    \\  /    A nd           | Version:  7
     \\/     M anipulation  |
\*---------------------------------------------------------------------------*/
FoamFile
{
    version     2.0;
    format      ascii;
    class       volVectorField;
    location    "15";
    object      U;
}
// * * * * * * * * * * * * * * * * * * * * * * * * * * * * * * * * * * * * * //

dimensions      [0 1 -1 0 0 0 0];

internalField   nonuniform List<vector> 
10500
(
(-0.00172021 0.000412115 -3.04972e-21)
(-0.00400345 0.000175929 5.82946e-21)
(-0.00358429 -0.000445747 -2.4157e-20)
(0.0014708 -0.00125373 -1.32096e-20)
(0.0111546 -0.00209775 -2.86778e-20)
(0.0251789 -0.00291051 -6.94405e-21)
(0.0429498 -0.00363719 -1.11933e-20)
(0.0638932 -0.0042258 -2.80041e-20)
(0.0864327 -0.00458084 7.37607e-21)
(0.110861 -0.00473758 3.02582e-21)
(-0.00174986 0.00121859 -5.29999e-22)
(-0.00383135 0.000496965 -8.70747e-21)
(-0.00301884 -0.00136763 -1.5409e-20)
(0.00251159 -0.00378503 3.0974e-20)
(0.0127316 -0.00630652 3.80542e-20)
(0.0273276 -0.0087322 1.28935e-21)
(0.0456942 -0.0108989 1.35656e-21)
(0.0672626 -0.0126508 3.33796e-20)
(0.0903827 -0.0137049 -1.66693e-20)
(0.115624 -0.0141487 -5.44064e-20)
(-0.00180405 0.00197221 3.40554e-20)
(-0.00347766 0.000725809 -7.30758e-20)
(-0.00187779 -0.00238083 2.66077e-21)
(0.00460219 -0.00638835 3.68203e-21)
(0.0158921 -0.0105557 -1.57437e-20)
(0.0316276 -0.0145566 -4.36354e-20)
(0.0511809 -0.0181233 9.87716e-20)
(0.0739929 -0.0209967 -1.12891e-20)
(0.0982664 -0.0227173 9.08898e-21)
(0.125124 -0.0233689 -8.5735e-21)
(-0.00187271 0.00263917 -7.77065e-20)
(-0.00292363 0.000803389 1.49187e-19)
(-0.00014112 -0.00354345 -7.81674e-20)
(0.00776042 -0.00910896 2.52763e-20)
(0.0206487 -0.0148697 -8.34163e-20)
(0.0380843 -0.0203829 1.71232e-19)
(0.059405 -0.0252831 -3.26274e-20)
(0.0840663 -0.0292086 2.61328e-20)
(0.110051 -0.0315421 8.90875e-20)
(0.139302 -0.0322702 -4.4402e-20)
(-0.00194102 0.00318768 7.99417e-20)
(-0.00214157 0.00067444 -9.74582e-20)
(0.00222077 -0.00490904 -7.93311e-20)
(0.0120125 -0.0119873 -5.20374e-20)
(0.0270199 -0.0192678 2.76868e-20)
(0.0467048 -0.0262057 -2.30868e-19)
(0.0703588 -0.0323465 -1.56259e-19)
(0.097456 -0.0372273 -5.88149e-20)
(0.125687 -0.0401011 -1.14567e-19)
(0.158073 -0.0407233 6.79423e-20)
(-0.0019897 0.00358866 1.18958e-19)
(-0.00109541 0.000289045 1.42539e-20)
(0.00524646 -0.00652502 1.30356e-19)
(0.0173924 -0.0150572 -5.8506e-21)
(0.0350296 -0.023763 2.21718e-19)
(0.0574978 -0.0320132 1.18407e-19)
(0.0840312 -0.0392758 -1.31034e-19)
(0.114124 -0.0449884 2.2188e-19)
(0.145107 -0.0483124 1.21359e-19)
(0.181318 -0.0485984 4.30339e-20)
(-0.00199528 0.003816 -1.1807e-19)
(0.000258491 -0.000395903 1.316e-19)
(0.0089826 -0.00843099 -1.25231e-19)
(0.0239412 -0.0183443 -2.4416e-19)
(0.0447058 -0.0283603 -4.01291e-19)
(0.0704727 -0.037786 -7.99454e-20)
(0.100406 -0.0460258 1.78057e-19)
(0.134022 -0.0524207 -1.37201e-20)
(0.168226 -0.0560898 -2.74273e-19)
(0.208887 -0.0557645 6.29359e-20)
(-0.00193029 0.00384711 -1.00272e-19)
(0.00197063 -0.00141538 -1.66708e-19)
(0.0134829 -0.0106572 5.48954e-21)
(0.0317056 -0.0218647 2.04713e-19)
(0.0560798 -0.0330551 4.4235e-19)
(0.085638 -0.0434953 2.45021e-19)
(0.119463 -0.0525429 -2.22949e-20)
(0.157088 -0.0594453 -4.6992e-19)
(0.194937 -0.0633417 1.77861e-19)
(0.240593 -0.0620907 -1.8348e-19)
(-0.00176429 0.00366532 -1.2736e-19)
(0.00409786 -0.00279661 6.22868e-20)
(0.0188068 -0.0132234 2.92462e-19)
(0.040737 -0.0256231 -3.07162e-20)
(0.0691847 -0.0378319 -1.45768e-19)
(0.103 -0.0491024 9.45075e-20)
(0.141172 -0.0587637 1.50612e-19)
(0.183245 -0.0659746 3.23825e-19)
(0.225116 -0.0699702 9.42336e-21)
(0.276212 -0.067447 1.84299e-19)
(-0.00146499 0.00325893 6.95498e-20)
(0.00670134 -0.00455736 -1.46279e-19)
(0.0250188 -0.0161377 -3.64891e-20)
(0.0510897 -0.0296124 2.0312e-19)
(0.0840539 -0.0426633 2.11107e-19)
(0.122562 -0.0545574 -4.92527e-19)
(0.165497 -0.0646145 -2.44045e-19)
(0.212401 -0.0719123 -8.30559e-20)
(0.258614 -0.0758704 3.13925e-20)
(0.315479 -0.0717053 5.69028e-20)
(-0.000997641 0.00262016 3.50612e-20)
(0.00984543 -0.00670382 -1.28217e-19)
(0.0321861 -0.0193956 -1.80035e-19)
(0.0628194 -0.0338117 -1.24723e-19)
(0.100719 -0.0475093 -3.85579e-19)
(0.14432 -0.0597988 3.44173e-19)
(0.192388 -0.0700115 2.75533e-19)
(0.244442 -0.0771535 -3.45917e-19)
(0.295262 -0.0809299 -2.03476e-21)
(0.358087 -0.0747412 -8.27127e-21)
(-0.000326126 0.00174689 -7.0348e-20)
(0.0135967 -0.00923126 2.25293e-19)
(0.0403772 -0.0229791 8.33367e-20)
(0.0759807 -0.0381868 -4.84861e-21)
(0.119207 -0.0523167 2.48553e-19)
(0.168262 -0.0647538 -4.13621e-19)
(0.221784 -0.0748607 2.59554e-19)
(0.279238 -0.0815857 2.42716e-19)
(0.334866 -0.0850277 1.11457e-19)
(0.403686 -0.0764355 -9.56195e-20)
(0.000586264 0.000642762 -2.09067e-19)
(0.0180225 -0.0121237 -2.24233e-19)
(0.0496599 -0.0268566 -5.04447e-20)
(0.0906255 -0.0426889 3.58004e-19)
(0.139539 -0.0570195 -1.15179e-19)
(0.194367 -0.0693385 4.66105e-19)
(0.253607 -0.0790597 -1.34143e-19)
(0.316633 -0.0850909 -1.02373e-19)
(0.37721 -0.0880341 -8.98388e-20)
(0.451878 -0.0766761 5.64896e-19)
(0.0017762 -0.000682949 7.2987e-19)
(0.0231891 -0.0153536 3.78044e-19)
(0.0600994 -0.0309825 -2.84996e-19)
(0.1068 -0.047255 -2.95158e-19)
(0.161728 -0.0615385 2.11555e-19)
(0.222598 -0.0734594 -3.60601e-19)
(0.287762 -0.0824991 5.20457e-20)
(0.356448 -0.0875493 1.11454e-19)
(0.422055 -0.0898098 4.07654e-20)
(0.502218 -0.0753607 -1.66363e-19)
(0.00327966 -0.0022154 -7.73834e-19)
(0.0291606 -0.0188818 1.53617e-20)
(0.0717561 -0.0352975 1.14694e-20)
(0.124543 -0.0518084 -5.48277e-20)
(0.185773 -0.0657826 -4.68438e-19)
(0.252902 -0.0770147 -2.12218e-20)
(0.324129 -0.0850664 -1.03415e-19)
(0.398479 -0.0888439 1.96791e-19)
(0.469147 -0.0902071 -3.02662e-19)
(0.554217 -0.0724066 -4.34161e-20)
(0.00513121 -0.00393428 3.84535e-19)
(0.035997 -0.0226577 -2.63729e-21)
(0.0846836 -0.0397286 2.21665e-19)
(0.143882 -0.0562587 7.77491e-20)
(0.211659 -0.0696499 -3.76068e-19)
(0.285206 -0.0798964 4.69286e-19)
(0.362568 -0.0866488 -4.19441e-19)
(0.442499 -0.0888673 1.626e-19)
(0.518215 -0.0890738 2.65086e-19)
(0.607347 -0.0677652 -2.08708e-19)
(0.00736337 -0.00581403 -2.14622e-19)
(0.0437526 -0.02662 -6.75915e-20)
(0.0989262 -0.0441899 -4.03777e-19)
(0.164832 -0.0605032 -2.2815e-19)
(0.239352 -0.073029 4.08108e-19)
(0.319415 -0.0819929 -7.64798e-19)
(0.402908 -0.087139 3.54926e-19)
(0.488252 -0.0875307 -4.59006e-19)
(0.568971 -0.086246 -6.10249e-19)
(0.66103 -0.0613824 2.71686e-19)
(0.0100062 -0.00782446 3.5611e-19)
(0.0524749 -0.0306973 -4.04859e-19)
(0.114517 -0.0485842 1.00224e-19)
(0.187391 -0.0644285 4.42941e-19)
(0.268798 -0.0758013 2.43439e-19)
(0.355406 -0.0831921 -5.34483e-21)
(0.444949 -0.0864417 -1.05614e-19)
(0.535465 -0.0847738 1.34233e-19)
(0.621098 -0.0815097 5.46862e-19)
(0.714537 -0.0530726 -5.75215e-19)
(0.0130869 -0.00993131 1.98409e-19)
(0.0622033 -0.0348095 1.28263e-19)
(0.131477 -0.0528042 4.34424e-19)
(0.211542 -0.0679123 -1.71788e-19)
(0.299921 -0.0778432 -5.5597e-19)
(0.393029 -0.0833848 2.2023e-19)
(0.488458 -0.0844828 -2.9256e-19)
(0.583865 -0.0805787 2.04797e-19)
(0.674329 -0.0746101 -3.40199e-19)
(0.767029 -0.0427972 6.40713e-19)
(0.0166266 -0.0120938 2.08212e-19)
(0.0729648 -0.0388657 2.82702e-19)
(0.14981 -0.0567309 -8.20056e-20)
(0.237244 -0.0708223 6.79382e-20)
(0.332614 -0.0790252 6.63393e-19)
(0.432098 -0.0824639 -1.43284e-19)
(0.53316 -0.0812137 6.19606e-19)
(0.633179 -0.0749874 -3.26256e-19)
(0.728631 -0.065573 -2.9715e-19)
(0.818961 -0.0323849 -4.04593e-19)
(0.0206324 -0.0142587 -6.74907e-19)
(0.0847647 -0.0427582 1.71815e-19)
(0.169492 -0.0602284 -4.14742e-19)
(0.264423 -0.073012 2.38876e-20)
(0.366739 -0.0792085 -6.76553e-19)
(0.472383 -0.0803205 8.73152e-20)
(0.578712 -0.0765979 -1.3833e-19)
(0.682963 -0.0681126 2.82282e-19)
(0.783702 -0.055267 3.33882e-19)
(0.875509 -0.0262479 5.29344e-19)
(0.0251131 -0.0163772 4.02888e-19)
(0.097602 -0.0463816 -8.27348e-20)
(0.190487 -0.0631652 3.93249e-19)
(0.29299 -0.0743411 -8.8822e-20)
(0.402128 -0.0782631 3.81723e-19)
(0.513625 -0.0768539 4.79827e-19)
(0.624712 -0.0705947 -2.52895e-19)
(0.732483 -0.0600911 -1.52186e-19)
(0.836899 -0.0452302 3.66229e-19)
(0.929235 -0.0254063 -3.37644e-19)
(0.0300852 -0.0184106 -4.67457e-19)
(0.111479 -0.0496419 4.8001e-19)
(0.212757 -0.0654202 -5.56807e-19)
(0.322849 -0.0746818 4.03258e-19)
(0.43861 -0.0760729 -3.96992e-19)
(0.555554 -0.0719734 -5.29696e-19)
(0.670768 -0.0631418 2.32619e-19)
(0.781158 -0.0507882 8.33962e-20)
(0.887169 -0.0345276 1.60909e-19)
(0.978437 -0.0212481 2.57246e-19)
(0.0355517 -0.0203101 2.35765e-19)
(0.126374 -0.0524321 -4.88305e-19)
(0.236235 -0.0668619 4.58973e-19)
(0.353869 -0.0738993 -6.03032e-19)
(0.475981 -0.072519 4.35394e-19)
(0.597885 -0.0655873 5.82816e-19)
(0.716502 -0.0541667 1.38102e-19)
(0.828554 -0.0400346 -3.36246e-19)
(0.934376 -0.0225857 -3.82003e-19)
(1.02328 -0.0131608 1.52693e-19)
(0.0415068 -0.0220229 1.23366e-19)
(0.142249 -0.0546417 -5.5689e-19)
(0.260833 -0.067358 3.37893e-19)
(0.385899 -0.0718629 2.40138e-19)
(0.514015 -0.0674923 4.7639e-19)
(0.640318 -0.0576186 -5.91601e-19)
(0.761559 -0.0436215 -3.98603e-20)
(0.874319 -0.0277638 -1.06563e-19)
(0.978574 -0.00930886 4.14432e-20)
(1.06426 -0.00200908 -3.17421e-19)
(0.0479384 -0.0234959 -3.33896e-19)
(0.15905 -0.0561613 4.99391e-19)
(0.286439 -0.0667817 -4.63111e-19)
(0.418763 -0.0684527 1.40931e-19)
(0.55247 -0.0609002 -1.09716e-18)
(0.682551 -0.0480138 -3.24613e-20)
(0.805606 -0.0314932 1.6301e-19)
(0.918144 -0.0139935 1.96114e-19)
(1.01974 0.00525527 2.5923e-19)
(1.10154 0.0115428 1.46626e-19)
(0.0548284 -0.0246764 -3.05804e-19)
(0.176709 -0.0568849 -4.19175e-19)
(0.312927 -0.0650142 3.18288e-19)
(0.452268 -0.0635624 -1.18078e-19)
(0.591089 -0.05267 1.78229e-19)
(0.724278 -0.0367457 3.48723e-19)
(0.848325 -0.0178036 2.34287e-20)
(0.959754 0.00120265 2.50507e-19)
(1.05782 0.0209962 -3.92315e-19)
(1.13516 0.0269211 9.43392e-20)
(0.0621517 -0.0255124 6.29617e-19)
(0.195143 -0.0567112 3.11837e-19)
(0.340149 -0.0619471 7.90266e-22)
(0.486203 -0.0571026 8.88369e-20)
(0.629604 -0.0427519 4.0294e-19)
(0.765194 -0.0238154 -4.30273e-19)
(0.889415 -0.00260728 -3.59468e-19)
(0.998905 0.0177093 -3.18243e-19)
(1.09273 0.0377564 3.88361e-19)
(1.16513 0.0436082 -5.6254e-19)
(0.0698762 -0.0259536 1.32161e-19)
(0.214252 -0.0555457 3.16067e-19)
(0.36794 -0.057485 -1.39226e-19)
(0.52034 -0.0490028 -5.35502e-20)
(0.667738 -0.0311202 -2.03611e-19)
(0.805001 -0.00925221 -1.37654e-19)
(0.928596 0.0140108 1.54698e-19)
(1.03538 0.0353801 -1.60902e-19)
(1.12439 0.0553507 -2.07064e-19)
(1.19149 0.0611573 2.12847e-19)
(0.077963 -0.0259523 -4.41278e-19)
(0.233925 -0.0533025 1.80299e-19)
(0.396119 -0.0515474 -2.81515e-19)
(0.554439 -0.039214 1.02339e-19)
(0.705212 -0.0177757 4.77613e-19)
(0.843407 0.00688636 2.17882e-19)
(0.965611 0.0319388 -2.13457e-19)
(1.06901 0.0540476 2.92526e-19)
(1.15276 0.0735828 3.11945e-21)
(1.21429 0.0791943 4.16562e-21)
(0.0863664 -0.025464 1.85383e-19)
(0.254034 -0.0499062 -3.61636e-19)
(0.424492 -0.0440715 5.71696e-19)
(0.58825 -0.0277104 -2.97669e-19)
(0.741744 -0.00274525 -1.95019e-19)
(0.880136 0.0245164 2.25645e-19)
(1.00023 0.0510428 5.29894e-20)
(1.09965 0.0735317 -2.43664e-19)
(1.17783 0.0922559 -8.07522e-20)
(1.23364 0.0974118 1.82359e-19)
(0.0950341 -0.0244482 1.63042e-19)
(0.274442 -0.0452932 -7.30485e-20)
(0.452852 -0.0350135 -1.34075e-19)
(0.621519 -0.0144904 9.65627e-20)
(0.77706 0.0139177 1.33746e-19)
(0.914929 0.0435296 2.28309e-19)
(1.03226 0.0711701 6.72582e-20)
(1.12719 0.0936458 4.41694e-19)
(1.19959 0.111179 -7.69171e-20)
(1.24965 0.11556 -2.93155e-19)
(0.103907 -0.0228692 -5.92817e-19)
(0.294998 -0.039414 2.73849e-20)
(0.480982 -0.0243503 5.04756e-21)
(0.653985 0.000422554 8.91551e-20)
(0.810891 0.0321344 -5.12913e-19)
(0.947548 0.0637959 -2.14432e-19)
(1.06152 0.0921544 1.19022e-19)
(1.15157 0.114202 -1.97811e-19)
(1.21809 0.130172 -1.94969e-19)
(1.26247 0.133439 2.35511e-19)
(0.112922 -0.0206972 1.83161e-19)
(0.315542 -0.0322336 4.18257e-20)
(0.508658 -0.0120803 -7.78816e-20)
(0.685393 0.0169799 -8.24539e-20)
(0.842984 0.0518016 1.02497e-19)
(0.97778 0.0851666 5.37636e-20)
(1.08788 0.11382 6.161e-20)
(1.17275 0.135016 1.2566e-20)
(1.23339 0.149067 2.28547e-19)
(1.27226 0.15089 -6.07918e-20)
(0.122008 -0.0179085 1.06149e-21)
(0.335908 -0.0237337 -2.68958e-20)
(0.535656 0.00177554 3.62811e-20)
(0.71549 0.0351085 5.64314e-20)
(0.873099 0.0727941 1.04744e-19)
(1.00544 0.107477 1.73071e-19)
(1.11124 0.135984 -1.37953e-19)
(1.19073 0.155909 8.4938e-20)
(1.24559 0.167713 -7.86848e-20)
(1.27919 0.167788 2.82425e-20)
(0.131091 -0.0144864 2.19026e-19)
(0.355922 -0.0139127 -1.17759e-20)
(0.561747 0.0171733 9.50804e-20)
(0.744033 0.054711 7.22038e-20)
(0.901019 0.0949664 -2.82016e-20)
(1.03037 0.130552 -7.02804e-20)
(1.13154 0.158464 3.9656e-20)
(1.20555 0.17671 -1.0075e-19)
(1.25481 0.185973 9.29077e-20)
(1.28346 0.184035 -6.35031e-20)
(0.140093 -0.010422 -1.69777e-19)
(0.375409 -0.00278746 -7.737e-20)
(0.586707 0.0340464 -1.38439e-19)
(0.770791 0.0756677 -5.67951e-20)
(0.926547 0.118156 1.30575e-19)
(1.05245 0.154204 -7.61829e-20)
(1.14874 0.181076 1.37579e-19)
(1.21728 0.197261 6.57395e-20)
(1.26118 0.203726 -4.93279e-20)
(1.28525 0.199558 8.88209e-20)
(0.148935 -0.00571504 1.78754e-19)
(0.39419 0.0096068 1.76007e-19)
(0.610319 0.0523056 1.08665e-19)
(0.795549 0.0978375 -1.07596e-19)
(0.949514 0.142183 -8.65084e-20)
(1.07158 0.178242 -1.0146e-19)
(1.16283 0.203639 -6.64883e-20)
(1.22598 0.217411 -5.92508e-20)
(1.26485 0.220864 -2.89711e-20)
(1.28475 0.214297 -5.17096e-20)
(0.157536 -0.000373826 -7.54312e-20)
(0.412092 0.023216 -6.09492e-20)
(0.632374 0.0718401 -4.09822e-20)
(0.818111 0.121061 6.97349e-20)
(0.969776 0.16686 7.43769e-20)
(1.08769 0.202473 8.7217e-20)
(1.17384 0.225979 -2.03955e-20)
(1.23177 0.237024 -2.47513e-20)
(1.26597 0.237295 9.02263e-21)
(1.28214 0.22821 3.07086e-20)
(0.165804 0.00558456 2.26306e-21)
(0.428935 0.0379681 -8.38093e-21)
(0.65267 0.0925196 -2.60086e-20)
(0.838298 0.145161 1.35266e-20)
(0.987213 0.191987 -6.03136e-21)
(1.10075 0.226701 -2.26565e-20)
(1.18183 0.24793 -1.5265e-20)
(1.23478 0.255975 1.67025e-20)
(1.26471 0.252938 -2.79562e-21)
(1.27761 0.241262 -7.05581e-22)
(0.1736 0.0121315 4.26705e-21)
(0.444511 0.0537696 -6.953e-21)
(0.670996 0.114192 -2.89033e-20)
(0.855937 0.169946 1.89029e-20)
(1.00172 0.217358 -1.05195e-20)
(1.11075 0.250732 -2.40158e-20)
(1.18684 0.26933 -8.97628e-21)
(1.23512 0.274148 1.68689e-20)
(1.26123 0.267723 -3.80567e-21)
(1.27132 0.253427 -1.20996e-21)
(0.180836 0.0192222 -6.84966e-20)
(0.458654 0.0704979 -4.76996e-20)
(0.687178 0.136679 -3.30892e-20)
(0.870893 0.195203 5.14035e-20)
(1.01325 0.242755 6.54245e-20)
(1.11769 0.274373 6.88747e-20)
(1.18898 0.290028 -1.32652e-20)
(1.23294 0.29144 -1.95335e-20)
(1.25569 0.28159 3.59303e-21)
(1.26344 0.264684 1.85792e-20)
(0.187484 0.0268091 1.57533e-19)
(0.471264 0.0880258 1.37125e-19)
(0.701108 0.159798 8.47709e-20)
(0.883093 0.220722 -6.49784e-20)
(1.02176 0.267969 -6.04241e-20)
(1.12165 0.297442 -1.11164e-19)
(1.18836 0.309885 -2.16941e-20)
(1.22839 0.307758 -3.36186e-20)
(1.24826 0.294487 -7.86841e-21)
(1.25412 0.275014 -3.57195e-20)
(0.193477 0.0348378 -1.61174e-19)
(0.482214 0.106215 -3.7735e-20)
(0.712668 0.183356 -1.30788e-19)
(0.892466 0.246285 -1.08612e-20)
(1.02728 0.292794 6.23667e-20)
(1.12267 0.319766 -2.02664e-20)
(1.18511 0.328772 8.08421e-20)
(1.22163 0.323021 3.29304e-20)
(1.2391 0.306368 -2.42321e-20)
(1.2435 0.284401 3.78036e-20)
(0.19874 0.0432454 1.18929e-19)
(0.491383 0.124911 -5.77657e-21)
(0.721755 0.207147 8.6615e-20)
(0.898962 0.271672 2.7166e-20)
(1.02981 0.317025 -2.25085e-20)
(1.12086 0.341177 1.87943e-20)
(1.17935 0.346572 -1.12907e-20)
(1.21282 0.337156 -3.46182e-20)
(1.22835 0.317196 2.48047e-20)
(1.23173 0.292832 -9.68623e-21)
(0.203203 0.0519608 -4.39505e-20)
(0.498668 0.143951 -1.68892e-21)
(0.728293 0.230959 4.99047e-20)
(0.902561 0.29666 -1.25797e-20)
(1.0294 0.340462 5.89154e-20)
(1.11631 0.36152 9.75601e-20)
(1.17123 0.363174 -5.20033e-20)
(1.2021 0.350098 4.79852e-20)
(1.21617 0.326935 -2.19398e-20)
(1.21892 0.300289 -6.68762e-21)
(0.20681 0.0609062 1.02824e-19)
(0.503988 0.163158 6.25617e-20)
(0.732229 0.254574 -3.68041e-20)
(0.903268 0.321027 -5.71677e-20)
(1.02612 0.362912 1.35514e-20)
(1.10915 0.380645 3.21268e-20)
(1.1609 0.37848 9.05051e-21)
(1.18962 0.361787 7.275e-21)
(1.20269 0.33556 2.98678e-20)
(1.2052 0.306755 -7.01455e-22)
(0.209511 0.0699973 -2.76371e-19)
(0.507278 0.18235 -3.97756e-20)
(0.733538 0.277769 -1.77645e-20)
(0.901117 0.344554 7.5908e-20)
(1.02006 0.384191 -1.96201e-19)
(1.0995 0.398417 -9.88479e-20)
(1.1485 0.392401 1.37469e-20)
(1.17553 0.372168 -8.72699e-21)
(1.18806 0.343046 -1.41116e-20)
(1.19067 0.312218 -2.47228e-20)
(0.211266 0.0791442 1.02812e-19)
(0.508497 0.201339 -2.74014e-20)
(0.73222 0.300322 -9.12437e-20)
(0.896163 0.367028 3.15096e-20)
(1.01134 0.404122 6.88595e-20)
(1.08753 0.414711 5.5502e-20)
(1.1342 0.404862 1.19435e-20)
(1.16 0.381197 1.30602e-20)
(1.17237 0.349357 4.33071e-21)
(1.17544 0.31667 6.54707e-20)
(0.212043 0.088253 9.64954e-20)
(0.507624 0.219932 -1.35519e-19)
(0.7283 0.322013 1.8014e-19)
(0.888487 0.388244 -6.58943e-20)
(1.00008 0.422543 -4.1966e-20)
(1.07337 0.429411 1.57051e-20)
(1.11816 0.41579 -5.96382e-21)
(1.14317 0.388846 -7.26895e-21)
(1.15575 0.354475 1.51765e-20)
(1.1596 0.32009 -5.41782e-20)
(0.211824 0.0972264 -1.2942e-19)
(0.504659 0.237935 8.65313e-20)
(0.721828 0.342625 -1.30225e-19)
(0.878195 0.408003 6.8644e-20)
(0.986424 0.4393 8.43923e-20)
(1.05719 0.442415 -7.83047e-21)
(1.10054 0.425123 -6.41316e-21)
(1.12517 0.39508 -5.19468e-20)
(1.13831 0.35839 1.12717e-20)
(1.14325 0.322458 -6.33351e-21)
(0.210601 0.105965 6.66952e-20)
(0.499625 0.255156 6.96421e-20)
(0.712879 0.361948 -1.81045e-20)
(0.865409 0.426122 -5.68806e-21)
(0.970534 0.454254 -3.82421e-20)
(1.03918 0.453631 -2.94491e-20)
(1.08151 0.432809 -2.1967e-20)
(1.10614 0.399873 2.55978e-20)
(1.12015 0.361088 4.81486e-20)
(1.12645 0.323758 -5.58592e-20)
(0.208377 0.11437 1.17111e-19)
(0.492566 0.271405 4.09502e-20)
(0.701549 0.379783 1.0599e-20)
(0.850273 0.442425 -5.51164e-21)
(0.952581 0.467278 2.30496e-21)
(1.0195 0.46298 3.119e-20)
(1.06122 0.438807 5.96375e-20)
(1.08622 0.403205 7.93095e-20)
(1.10138 0.362559 -1.86105e-19)
(1.10929 0.323973 3.32433e-19)
(0.205165 0.122342 -6.93085e-20)
(0.483548 0.2865 -7.27499e-20)
(0.687959 0.395937 3.03448e-20)
(0.83295 0.456755 -8.57742e-21)
(0.93275 0.47826 -4.3009e-20)
(0.998344 0.470394 -5.61992e-20)
(1.03984 0.443084 2.88796e-20)
(1.06554 0.405065 -5.77561e-20)
(1.08207 0.362798 1.25081e-19)
(1.09181 0.323082 -6.86024e-20)
(0.200987 0.12978 -1.10144e-20)
(0.472664 0.300268 8.71703e-22)
(0.672249 0.410234 6.63103e-22)
(0.813618 0.468965 -6.25178e-21)
(0.911232 0.487101 1.26848e-19)
(0.975892 0.475817 -2.45698e-20)
(1.01754 0.445613 -3.06291e-20)
(1.04422 0.405447 -1.01383e-19)
(1.06232 0.361806 -1.5992e-19)
(1.07409 0.321065 -1.69412e-20)
(0.195887 0.136591 -3.92708e-21)
(0.460015 0.312536 1.3855e-21)
(0.654576 0.42251 -2.64502e-21)
(0.792468 0.478927 -5.84742e-20)
(0.88823 0.493717 -7.41173e-20)
(0.952337 0.479204 1.69133e-19)
(0.994484 0.44638 2.99086e-20)
(1.0224 0.404353 1.23969e-19)
(1.04219 0.359589 -9.70539e-20)
(1.05616 0.317901 1.69599e-19)
(0.189918 0.14269 -4.95173e-20)
(0.44572 0.32315 8.67893e-20)
(0.635118 0.432618 -9.39548e-20)
(0.769703 0.486529 1.15893e-19)
(0.863949 0.498039 -7.98567e-20)
(0.92787 0.480522 -3.22754e-19)
(0.970833 0.445375 -3.03242e-20)
(1.00021 0.401791 1.10845e-19)
(1.02176 0.356161 3.07928e-19)
(1.03805 0.313566 -1.19337e-19)
(0.183137 0.147996 1.12685e-19)
(0.429925 0.331972 -7.20016e-20)
(0.614067 0.440426 1.08948e-19)
(0.74554 0.491674 -9.55028e-20)
(0.838602 0.500012 9.35302e-20)
(0.902684 0.479749 2.88745e-19)
(0.946757 0.442599 -6.89516e-20)
(0.977777 0.397778 -1.70803e-19)
(1.0011 0.351538 -1.2668e-20)
(1.01978 0.308031 -1.40981e-19)
(0.175616 0.152433 -1.51665e-19)
(0.412792 0.33888 5.72565e-20)
(0.591631 0.445824 -1.90342e-19)
(0.720201 0.494288 9.12476e-20)
(0.812405 0.499597 -3.04795e-19)
(0.876972 0.476873 -2.56201e-19)
(0.922421 0.438059 2.12833e-19)
(0.955242 0.392337 4.88571e-20)
(0.980279 0.345742 -2.17091e-19)
(1.00141 0.301238 2.4588e-19)
(0.167422 0.155921 3.47477e-19)
(0.394483 0.343755 -5.96295e-20)
(0.568019 0.448715 1.90299e-19)
(0.693913 0.494309 1.01342e-20)
(0.785572 0.496768 3.96392e-19)
(0.850925 0.471894 -1.20238e-19)
(0.897991 0.431769 1.64739e-19)
(0.932746 0.385504 -2.41289e-19)
(0.95947 0.338858 -3.82457e-19)
(0.982906 0.293348 -4.53861e-19)
(0.158577 0.158331 3.12337e-20)
(0.375142 0.34646 -2.37813e-19)
(0.543437 0.448999 4.65796e-21)
(0.666898 0.491683 4.73029e-20)
(0.758316 0.491509 -4.75521e-19)
(0.824732 0.464817 4.58514e-20)
(0.87363 0.423747 -5.87602e-19)
(0.910457 0.377305 2.14455e-19)
(0.939015 0.331038 4.70904e-19)
(0.964226 0.284959 4.88984e-19)
(0.149187 0.1596 -7.35511e-20)
(0.354979 0.346904 -9.13106e-20)
(0.518125 0.446616 -3.68971e-19)
(0.639396 0.486385 2.37889e-19)
(0.730852 0.483823 2.8118e-19)
(0.798574 0.455663 -5.6083e-20)
(0.849487 0.414015 8.52841e-20)
(0.888547 0.367716 3.21873e-21)
(0.919275 0.322166 3.001e-19)
(0.946901 0.277174 -9.6018e-19)
(0.139423 0.159754 -4.0162e-19)
(0.334247 0.345082 3.18161e-19)
(0.492351 0.441566 -9.58943e-21)
(0.611659 0.47843 -3.67112e-19)
(0.7034 0.47374 -3.50892e-19)
(0.772633 0.444465 2.9766e-20)
(0.825706 0.402601 2.2762e-19)
(0.867103 0.356756 -3.53347e-19)
(0.90009 0.312118 -6.75173e-19)
(0.929772 0.268758 9.13621e-19)
(0.129395 0.158773 1.82701e-19)
(0.313159 0.340971 3.69103e-20)
(0.466358 0.433846 3.61934e-19)
(0.583926 0.467839 2.31806e-19)
(0.67617 0.461294 -3.33825e-19)
(0.747082 0.431262 5.89319e-19)
(0.802423 0.389542 -4.65048e-19)
(0.846216 0.344464 7.19674e-19)
(0.881493 0.300952 6.17848e-19)
(0.913087 0.259358 -4.85534e-19)
(0.119207 0.156634 -4.8082e-19)
(0.29192 0.334558 -5.80628e-21)
(0.440385 0.423469 -1.40158e-19)
(0.556428 0.454646 -2.1533e-19)
(0.649365 0.446533 4.9401e-19)
(0.72209 0.416107 -6.29537e-19)
(0.77977 0.374885 5.09499e-19)
(0.82599 0.33088 -2.30958e-19)
(0.863567 0.288732 -2.58864e-19)
(0.89701 0.248997 3.91974e-19)
(0.108965 0.153326 9.54591e-19)
(0.270742 0.325855 -7.89693e-20)
(0.414671 0.410472 1.00092e-20)
(0.529393 0.438907 1.41954e-19)
(0.623182 0.429521 4.57854e-19)
(0.697817 0.399059 -1.40783e-19)
(0.757878 0.358681 2.03535e-19)
(0.806523 0.316045 -2.69917e-19)
(0.846384 0.275494 3.60231e-19)
(0.881623 0.23773 2.16958e-19)
(0.0987791 0.148856 -1.03132e-18)
(0.249834 0.314891 -4.03495e-19)
(0.389448 0.394911 3.34523e-19)
(0.503042 0.420694 3.44793e-19)
(0.597812 0.410333 -1.99716e-19)
(0.67442 0.38019 4.26324e-19)
(0.736867 0.340991 4.30991e-20)
(0.78791 0.300003 -3.46869e-19)
(0.830014 0.261268 2.40215e-20)
(0.866993 0.225588 1.54079e-19)
(0.0887592 0.143238 3.55429e-19)
(0.229405 0.30172 3.53254e-19)
(0.364946 0.376863 -6.09585e-20)
(0.477589 0.400095 -3.81325e-19)
(0.573436 0.389057 -5.13229e-20)
(0.652045 0.359579 -5.50598e-19)
(0.716853 0.32188 2.03289e-19)
(0.770242 0.282806 1.11166e-19)
(0.814524 0.246093 3.10831e-19)
(0.85318 0.212599 -9.33633e-19)
(0.0790142 0.136502 2.39199e-19)
(0.209656 0.286413 -3.46749e-19)
(0.341386 0.356425 -1.59635e-19)
(0.453239 0.377215 -7.16256e-20)
(0.550227 0.365796 -2.68475e-19)
(0.63083 0.337314 6.21613e-19)
(0.697947 0.301422 -3.84589e-19)
(0.753603 0.264512 -3.39151e-19)
(0.799977 0.230012 -3.16559e-19)
(0.840238 0.198801 3.36165e-19)
(0.0696504 0.128688 -1.4001e-19)
(0.190783 0.269061 2.39617e-19)
(0.318978 0.333711 1.66678e-19)
(0.430187 0.352177 2.72138e-19)
(0.528349 0.34066 5.8706e-19)
(0.610908 0.313494 -5.41678e-19)
(0.680248 0.279697 -3.25135e-19)
(0.738072 0.245184 4.46989e-19)
(0.786431 0.213074 1.748e-20)
(0.828215 0.184238 2.21649e-21)
(0.0607702 0.119847 -2.02911e-19)
(0.172973 0.249773 2.97373e-19)
(0.297922 0.308856 -1.56779e-20)
(0.408614 0.325115 -3.31915e-19)
(0.507954 0.313775 -2.67843e-19)
(0.592398 0.288223 6.70016e-19)
(0.663852 0.256791 5.51592e-19)
(0.723719 0.224891 2.27813e-19)
(0.773942 0.195335 -1.32636e-19)
(0.817156 0.168961 -1.04908e-19)
(0.0524712 0.11004 2.1119e-19)
(0.156401 0.228677 -5.42289e-20)
(0.278405 0.282008 -6.56071e-19)
(0.388692 0.296178 2.10295e-19)
(0.489182 0.285274 2.07943e-19)
(0.575412 0.261616 -8.75087e-20)
(0.648844 0.232797 -2.79666e-19)
(0.710611 0.203708 -5.44972e-19)
(0.76256 0.176855 -1.40533e-19)
(0.807097 0.153023 -1.27049e-19)
(0.0448448 0.0993391 1.36692e-19)
(0.141232 0.205915 4.34352e-19)
(0.260599 0.253334 -2.40328e-21)
(0.370574 0.265527 -5.00896e-19)
(0.472163 0.255299 -7.98155e-19)
(0.560052 0.233792 -4.0265e-19)
(0.635304 0.207813 2.57318e-19)
(0.698809 0.181714 6.44203e-19)
(0.752328 0.157698 -4.00299e-19)
(0.798074 0.136483 4.86467e-19)
(0.037975 0.0878257 2.71468e-19)
(0.127613 0.181645 -3.43101e-19)
(0.244661 0.223012 2.90916e-19)
(0.354403 0.233337 3.88301e-19)
(0.457011 0.224005 7.91721e-19)
(0.546409 0.204879 8.76374e-20)
(0.623301 0.181943 -3.48277e-19)
(0.688364 0.158994 7.39505e-20)
(0.743287 0.137934 4.8387e-19)
(0.790114 0.119404 -1.39668e-19)
(0.0319378 0.0755894 -3.03689e-19)
(0.11568 0.156039 -1.29669e-20)
(0.230731 0.191236 -3.29206e-19)
(0.340304 0.199791 4.90974e-20)
(0.44383 0.191549 -3.62946e-19)
(0.534564 0.17501 -1.83637e-19)
(0.612897 0.155294 1.52064e-19)
(0.679324 0.135635 -5.22143e-19)
(0.735472 0.117637 -1.76402e-19)
(0.783245 0.101851 6.64874e-20)
(0.0268003 0.0627274 -2.32588e-19)
(0.105551 0.129281 1.99561e-19)
(0.218932 0.158209 1.72895e-19)
(0.328386 0.165081 8.06255e-20)
(0.432708 0.158099 -5.06262e-20)
(0.524585 0.144322 4.70411e-19)
(0.604145 0.12798 1.78489e-19)
(0.67173 0.11173 1.8649e-19)
(0.728913 0.0968818 1.60639e-19)
(0.777487 0.0838931 -1.16354e-19)
(0.0226193 0.0493435 2.46161e-19)
(0.0973241 0.101565 -3.17333e-19)
(0.209366 0.124144 1.40424e-19)
(0.318739 0.129409 -9.56973e-20)
(0.423721 0.123828 2.33376e-19)
(0.516533 0.112959 -3.93922e-19)
(0.597089 0.100116 7.56604e-20)
(0.665613 0.0873742 -2.39787e-20)
(0.723636 0.0757489 -1.16705e-19)
(0.772859 0.0656005 8.3447e-21)
(0.0194417 0.0355469 -8.42752e-20)
(0.0910817 0.0730939 1.64479e-19)
(0.202118 0.089264 -1.44073e-20)
(0.311439 0.0929799 1.76422e-21)
(0.416927 0.0889123 -3.43133e-20)
(0.510452 0.0810658 1.79463e-19)
(0.591767 0.0718211 -2.47038e-19)
(0.661003 0.0626647 6.19926e-20)
(0.719661 0.0543198 -1.00493e-19)
(0.769376 0.047046 7.88812e-20)
(0.017303 0.0214509 5.55337e-21)
(0.0868851 0.0440779 8.88425e-21)
(0.197251 0.0537959 3.03225e-20)
(0.306541 0.0560074 -4.91213e-20)
(0.412373 0.053534 -8.3687e-20)
(0.506378 0.0487928 -2.61007e-20)
(0.588203 0.0432173 2.40376e-20)
(0.657918 0.0377012 -6.59468e-20)
(0.717002 0.0326778 9.69557e-21)
(0.767047 0.0283034 1.04722e-19)
(0.0162274 0.00717159 3.88784e-21)
(0.0847762 0.0147306 -1.45753e-20)
(0.194806 0.0179721 4.86412e-20)
(0.304083 0.0187063 3.62891e-20)
(0.410088 0.0178762 5.90742e-20)
(0.504336 0.0162902 8.23723e-21)
(0.586417 0.0144269 2.52558e-20)
(0.656372 0.0125845 4.50895e-20)
(0.71567 0.0109072 -9.03583e-21)
(0.765882 0.00944737 -2.47681e-21)
(0.0162274 -0.00717159 7.86053e-21)
(0.0847762 -0.0147306 -1.28745e-20)
(0.194806 -0.0179721 5.18714e-20)
(0.304083 -0.0187063 2.71712e-20)
(0.410088 -0.0178762 5.79982e-20)
(0.504336 -0.0162902 1.38052e-20)
(0.586417 -0.0144269 2.19224e-20)
(0.656372 -0.0125845 5.43821e-20)
(0.71567 -0.0109072 -1.41981e-20)
(0.765882 -0.00944737 -5.81079e-21)
(0.017303 -0.0214509 1.32904e-21)
(0.0868851 -0.0440779 1.91566e-20)
(0.197251 -0.0537959 3.22556e-20)
(0.306541 -0.0560074 -6.37128e-20)
(0.412373 -0.053534 -7.67502e-20)
(0.506378 -0.0487928 -2.65033e-21)
(0.588203 -0.0432173 -2.90417e-21)
(0.657918 -0.0377012 -6.47388e-20)
(0.717002 -0.0326778 3.20101e-20)
(0.767047 -0.0283034 1.04424e-19)
(0.0194417 -0.0355469 -8.52777e-20)
(0.0910817 -0.0730939 1.57435e-19)
(0.202118 -0.089264 -6.65112e-21)
(0.311439 -0.0929799 -7.29577e-21)
(0.416927 -0.0889123 3.16075e-20)
(0.510452 -0.0810658 8.47994e-20)
(0.591767 -0.0718211 -1.90563e-19)
(0.661003 -0.0626647 2.1718e-20)
(0.719661 -0.0543198 -1.6912e-20)
(0.769376 -0.047046 1.63185e-20)
(0.0226193 -0.0493435 1.93442e-19)
(0.0973241 -0.101565 -3.1487e-19)
(0.209366 -0.124144 1.60096e-19)
(0.318739 -0.129409 -4.98155e-20)
(0.423721 -0.123828 1.62755e-19)
(0.516533 -0.112959 -3.30633e-19)
(0.597089 -0.100116 6.44507e-20)
(0.665613 -0.0873742 -4.98727e-20)
(0.723636 -0.0757489 -1.66971e-19)
(0.772859 -0.0656005 8.37234e-20)
(0.0268003 -0.0627274 -1.94253e-19)
(0.105551 -0.129281 2.02914e-19)
(0.218932 -0.158209 1.53738e-19)
(0.328386 -0.165081 1.02658e-19)
(0.432708 -0.158099 -5.6691e-20)
(0.524585 -0.144322 4.39546e-19)
(0.604145 -0.12798 2.94785e-19)
(0.67173 -0.11173 1.09523e-19)
(0.728913 -0.0968818 2.15173e-19)
(0.777487 -0.0838931 -1.30158e-19)
(0.0319378 -0.0755894 -2.69164e-19)
(0.11568 -0.156039 -3.05487e-20)
(0.230731 -0.191236 -2.64385e-19)
(0.340304 -0.199791 9.66408e-21)
(0.44383 -0.191549 -4.15626e-19)
(0.534564 -0.17501 -2.2323e-19)
(0.612897 -0.155294 2.3797e-19)
(0.679324 -0.135635 -4.08849e-19)
(0.735472 -0.117637 -2.20353e-19)
(0.783245 -0.101851 -7.96249e-20)
(0.037975 -0.0878257 2.74721e-19)
(0.127613 -0.181645 -2.47833e-19)
(0.244661 -0.223012 2.30688e-19)
(0.354403 -0.233337 4.41479e-19)
(0.457011 -0.224005 7.31267e-19)
(0.546409 -0.204879 1.42986e-19)
(0.623301 -0.181943 -3.25672e-19)
(0.688364 -0.158994 3.14482e-20)
(0.743287 -0.137934 4.92354e-19)
(0.790114 -0.119404 -1.18831e-19)
(0.0448448 -0.0993391 2.09304e-19)
(0.141232 -0.205915 3.08248e-19)
(0.260599 -0.253334 -2.36547e-20)
(0.370574 -0.265527 -3.75694e-19)
(0.472163 -0.255299 -7.84627e-19)
(0.560052 -0.233792 -4.29002e-19)
(0.635304 -0.207813 3.72784e-20)
(0.698809 -0.181714 8.29384e-19)
(0.752328 -0.157698 -3.13627e-19)
(0.798074 -0.136483 3.42935e-19)