/*--------------------------------*- C++ -*----------------------------------*\
  =========                 |
  \\      /  F ield         | OpenFOAM: The Open Source CFD Toolbox
   \\    /   O peration     | Website:  https://openfoam.org
    \\  /    A nd           | Version:  7
     \\/     M anipulation  |
\*---------------------------------------------------------------------------*/
FoamFile
{
    version     2.0;
    format      ascii;
    class       volScalarField;
    location    "5";
    object      p;
}
// * * * * * * * * * * * * * * * * * * * * * * * * * * * * * * * * * * * * * //

dimensions      [0 2 -2 0 0 0 0];

internalField   nonuniform List<scalar> 
657
(
0.0733921
0.112649
0.0992273
0.0857912
0.0723749
0.0590119
0.124512
0.111418
0.0982945
0.0851721
0.0720813
0.0590528
0.134409
0.121824
0.109182
0.0965139
0.0838465
0.0712076
0.0586259
0.143487
0.131412
0.119274
0.107083
0.0948671
0.0826511
0.0704596
0.0583189
0.151927
0.140279
0.128615
0.116903
0.105143
0.0933602
0.0815765
0.0698143
0.0580976
0.159121
0.148355
0.137126
0.125874
0.114587
0.103253
0.0918974
0.0805394
0.0691992
0.057899
0.166167
0.155178
0.14482
0.134023
0.123183
0.112317
0.101407
0.0904739
0.0795357
0.0686112
0.0577209
0.174722
0.162015
0.151319
0.141357
0.130993
0.120564
0.110115
0.099622
0.0891036
0.0785773
0.0680601
0.0575711
0.1698
0.157925
0.147559
0.137981
0.12805
0.118028
0.107987
0.0979042
0.0877921
0.0776684
0.0675491
0.0574519
0.165004
0.153911
0.143909
0.134702
0.125197
0.115579
0.105939
0.0962568
0.0865417
0.0768106
0.0670789
0.0573633
0.160357
0.149989
0.140377
0.131532
0.122443
0.113223
0.103974
0.0946827
0.0853543
0.0760052
0.0666503
0.0573054
0.155876
0.146176
0.136971
0.128481
0.119793
0.110964
0.102096
0.0931845
0.0842317
0.0752531
0.0662634
0.0572778
0.151574
0.142488
0.1337
0.125555
0.117255
0.108806
0.100308
0.0917642
0.0831749
0.0745547
0.065918
0.0572796
0.147461
0.138939
0.130568
0.122762
0.114833
0.106752
0.0986128
0.090423
0.0821843
0.0739095
0.065613
0.0573094
0.143547
0.135541
0.127583
0.120107
0.112531
0.104805
0.0970108
0.0891615
0.0812595
0.0733167
0.0653471
0.0573651
0.139839
0.132306
0.12475
0.117593
0.110354
0.102967
0.0955034
0.0879799
0.0804001
0.072775
0.0651184
0.0574443
0.136341
0.129242
0.122072
0.115225
0.108303
0.101239
0.0940907
0.0868776
0.0796048
0.0722826
0.0649244
0.0575442
0.133061
0.126358
0.119555
0.113004
0.106382
0.0996223
0.0927726
0.0858537
0.0788719
0.071837
0.0647623
0.0576615
0.13
0.123659
0.117202
0.110932
0.10459
0.0981164
0.0915483
0.0849068
0.0781992
0.0714357
0.0646288
0.0577922
0.127164
0.121151
0.115016
0.10901
0.102929
0.0967213
0.0904165
0.0840347
0.0775843
0.0710753
0.0645201
0.0579323
0.124553
0.118838
0.112998
0.107237
0.101398
0.0954361
0.0893756
0.0832351
0.077024
0.0707522
0.064432
0.0580767
0.122172
0.116723
0.111151
0.105616
0.099997
0.0942597
0.0884235
0.0825052
0.0765148
0.0704623
0.0643597
0.0582202
0.120021
0.114808
0.109475
0.104144
0.0987249
0.0931905
0.0875577
0.0818418
0.0760527
0.0702008
0.0642979
0.118104
0.113096
0.107974
0.102824
0.0975807
0.0922269
0.0867758
0.0812414
0.0756336
0.0699628
0.0642407
0.116424
0.11159
0.106647
0.101654
0.096564
0.0913671
0.0860751
0.0807002
0.0752526
0.0697426
0.0641816
0.114985
0.110294
0.105499
0.100636
0.0956743
0.0906098
0.0854528
0.0802145
0.0749048
0.0695339
0.0641132
0.113796
0.109215
0.104534
0.0997727
0.0949129
0.0899544
0.0849068
0.0797804
0.0745849
0.0693303
0.0640277
0.112867
0.108361
0.103759
0.0990702
0.0942838
0.0894034
0.084438
0.079397
0.07429
0.0691268
0.0639183
0.112213
0.107741
0.103181
0.0985299
0.0937847
0.0889507
0.0840367
0.0790515
0.0740043
0.068905
0.0637643
0.11186
0.107379
0.102814
0.09816
0.0934168
0.0885914
0.0836924
0.0787287
0.0737092
0.0686435
0.0635417
0.192972
0.178154
0.224354
0.224438
0.224631
0.2248
0.224861
0.224656
0.223976
0.222633
0.22029
0.216854
0.211793
0.205551
0.196781
0.188256
0.173897
0.223918
0.223946
0.224004
0.223978
0.223778
0.223248
0.222184
0.220405
0.217594
0.213671
0.208163
0.201484
0.192496
0.18361
0.169711
0.22346
0.223429
0.223348
0.223119
0.22265
0.221789
0.220336
0.218118
0.214846
0.210448
0.204516
0.19743
0.188257
0.179054
0.165605
0.22298
0.222888
0.222662
0.222225
0.221481
0.220281
0.218435
0.215781
0.212053
0.207195
0.200864
0.193402
0.184075
0.174605
0.161591
0.222478
0.222323
0.221948
0.221297
0.220271
0.218728
0.216487
0.213399
0.209227
0.203927
0.197222
0.189419
0.179965
0.17028
0.157681
0.221956
0.221735
0.221208
0.220337
0.219023
0.217134
0.214499
0.210982
0.206378
0.200656
0.193603
0.185496
0.17594
0.166092
0.153886
0.221413
0.221126
0.220441
0.219347
0.217743
0.215506
0.212478
0.20854
0.203518
0.197398
0.190025
0.18165
0.172016
0.162056
0.150219
0.220853
0.220497
0.219653
0.218332
0.216434
0.213849
0.210434
0.206085
0.200663
0.194168
0.186503
0.177897
0.168208
0.158183
0.146695
0.220277
0.219851
0.218845
0.217294
0.215103
0.212172
0.208376
0.20363
0.197826
0.190984
0.183056
0.174255
0.164532
0.154485
0.143324
0.219688
0.219191
0.218022
0.216241
0.213758
0.210486
0.206318
0.201189
0.195026
0.187863
0.179701
0.170739
0.161002
0.150972
0.14012
0.219089
0.218521
0.217189
0.215179
0.212407
0.2088
0.204273
0.19878
0.192279
0.184825
0.176457
0.167367
0.157635
0.147653
0.137093
0.218485
0.217846
0.216353
0.214116
0.21106
0.207129
0.202256
0.196418
0.189605
0.181888
0.173343
0.164156
0.154446
0.144539
0.134254
0.217882
0.217172
0.21552
0.213061
0.209731
0.205487
0.200285
0.194125
0.187025
0.179075
0.170379
0.161123
0.15145
0.141637
0.131612
0.217286
0.216507
0.214701
0.212027
0.208432
0.203891
0.19838
0.191922
0.184562
0.176408
0.167586
0.158284
0.148661
0.138958
0.129176
0.216706
0.21586
0.213906
0.211026
0.207181
0.202359
0.196563
0.189832
0.182239
0.173908
0.164986
0.155658
0.146095
0.136511
0.126956
0.216149
0.215239
0.213147
0.210073
0.205994
0.200915
0.194856
0.187881
0.180083
0.171602
0.1626
0.153263
0.143768
0.134305
0.124959
0.215628
0.214658
0.212438
0.209186
0.204894
0.19958
0.193287
0.186096
0.178121
0.169516
0.160453
0.151121
0.141695
0.132352
0.123196
0.215153
0.21413
0.211796
0.208384
0.203902
0.198383
0.191885
0.184509
0.176385
0.167679
0.158572
0.149253
0.139896
0.130666
0.121677
0.21474
0.21367
0.211237
0.207689
0.203045
0.197351
0.190683
0.183153
0.174908
0.166124
0.156986
0.147685
0.138392
0.129263
0.120416
0.214404
0.213295
0.210784
0.207124
0.202351
0.196519
0.189715
0.182066
0.173729
0.164886
0.155729
0.146446
0.137208
0.128163
0.11943
0.214161
0.213024
0.210457
0.206718
0.201852
0.195922
0.189023
0.181291
0.17289
0.164008
0.15484
0.145572
0.136375
0.127392
0.118741
0.214032
0.212877
0.210281
0.206499
0.201584
0.195601
0.188652
0.180875
0.172441
0.16354
0.154366
0.145109
0.135934
0.126986
0.118379
)
;

boundaryField
{
    inlet
    {
        type            zeroGradient;
    }
    outlet
    {
        type            fixedValue;
        value           nonuniform 0();
    }
    cylinder
    {
        type            zeroGradient;
    }
    top
    {
        type            symmetryPlane;
    }
    bottom
    {
        type            symmetryPlane;
    }
    defaultFaces
    {
        type            empty;
    }
    procBoundary12to8
    {
        type            processor;
        value           nonuniform List<scalar> 
34
(
0.0881161
0.0881161
0.102803
0.117403
0.126021
0.126021
0.137542
0.137542
0.146916
0.146916
0.155541
0.155541
0.163111
0.163111
0.170369
0.170369
0.179742
0.179742
0.197737
0.182473
0.224769
0.224907
0.225229
0.225585
0.225899
0.226011
0.225709
0.224798
0.222926
0.219986
0.215393
0.209613
0.201098
0.201098
)
;
    }
    procBoundary12to9
    {
        type            processor;
        value           nonuniform List<scalar> 8(0.0586788 0.0586788 0.0568817 0.0457354 0.0461175 0.0461302 0.0462558 0.0464511);
    }
    procBoundary12to13
    {
        type            processor;
        value           nonuniform List<scalar> 
26
(
0.0466618
0.0468863
0.0471307
0.0473961
0.0476821
0.0479881
0.0483131
0.0486558
0.0490141
0.0493857
0.0497676
0.0501566
0.0505489
0.0509402
0.0513257
0.0517
0.0520572
0.0583567
0.0583567
0.0584798
0.0585819
0.0586547
0.0586888
0.0586758
0.058593
0.0584145
)
;
    }
}


// ************************************************************************* //
