/*--------------------------------*- C++ -*----------------------------------*\
  =========                 |
  \\      /  F ield         | OpenFOAM: The Open Source CFD Toolbox
   \\    /   O peration     | Website:  https://openfoam.org
    \\  /    A nd           | Version:  7
     \\/     M anipulation  |
\*---------------------------------------------------------------------------*/
FoamFile
{
    version     2.0;
    format      ascii;
    class       volScalarField;
    location    "15";
    object      p;
}
// * * * * * * * * * * * * * * * * * * * * * * * * * * * * * * * * * * * * * //

dimensions      [0 2 -2 0 0 0 0];

internalField   nonuniform List<scalar> 
10500
(
-0.409681
-0.397785
-0.379078
-0.353077
-0.326916
-0.298829
-0.272481
-0.245419
-0.224459
-0.198552
-0.410695
-0.398305
-0.379543
-0.353404
-0.327202
-0.299061
-0.272697
-0.245526
-0.224688
-0.198103
-0.412714
-0.39934
-0.380468
-0.354054
-0.327771
-0.299522
-0.273124
-0.245739
-0.225142
-0.197218
-0.415717
-0.40088
-0.381842
-0.355017
-0.328612
-0.300204
-0.273753
-0.246054
-0.225812
-0.195925
-0.419676
-0.402908
-0.383648
-0.35628
-0.329713
-0.301094
-0.274572
-0.246464
-0.226683
-0.194267
-0.424559
-0.405401
-0.385868
-0.357827
-0.331057
-0.302177
-0.275565
-0.246964
-0.227733
-0.192297
-0.430322
-0.40833
-0.388478
-0.359638
-0.332625
-0.303436
-0.276711
-0.247545
-0.228934
-0.190079
-0.436888
-0.411687
-0.391449
-0.361692
-0.334394
-0.304852
-0.277988
-0.248201
-0.23025
-0.187684
-0.444208
-0.415431
-0.394753
-0.363965
-0.336342
-0.306402
-0.279369
-0.248921
-0.231637
-0.185191
-0.452228
-0.41952
-0.398356
-0.366431
-0.338442
-0.308064
-0.280827
-0.249699
-0.233042
-0.18268
-0.460873
-0.423919
-0.402225
-0.369064
-0.340668
-0.309815
-0.28233
-0.250525
-0.234406
-0.180232
-0.470068
-0.428592
-0.406325
-0.371838
-0.342995
-0.31163
-0.283846
-0.251391
-0.235661
-0.17792
-0.479734
-0.433498
-0.410619
-0.374725
-0.345393
-0.313485
-0.285342
-0.252285
-0.236733
-0.175812
-0.489789
-0.438595
-0.415071
-0.377698
-0.347836
-0.315352
-0.286784
-0.253196
-0.237544
-0.173972
-0.500148
-0.443842
-0.419643
-0.380729
-0.350295
-0.317204
-0.288134
-0.254113
-0.238014
-0.172478
-0.510725
-0.449193
-0.424296
-0.383789
-0.35274
-0.31901
-0.289357
-0.25502
-0.238067
-0.171422
-0.52143
-0.454605
-0.42899
-0.386848
-0.355139
-0.320736
-0.290416
-0.2559
-0.237593
-0.170743
-0.532175
-0.460033
-0.433686
-0.389874
-0.357459
-0.322344
-0.29128
-0.256746
-0.236419
-0.170126
-0.54287
-0.465432
-0.438341
-0.392832
-0.359661
-0.323791
-0.291922
-0.257554
-0.23449
-0.170407
-0.553383
-0.470726
-0.44289
-0.395671
-0.361696
-0.325022
-0.292304
-0.258257
-0.232332
-0.177296
-0.563535
-0.475796
-0.44724
-0.398321
-0.3635
-0.325972
-0.292365
-0.258624
-0.230529
-0.198145
-0.573437
-0.480754
-0.45145
-0.400805
-0.365061
-0.326594
-0.292039
-0.258432
-0.227996
-0.204891
-0.582921
-0.485484
-0.45542
-0.40304
-0.366301
-0.326813
-0.291256
-0.257528
-0.224938
-0.205776
-0.591845
-0.489889
-0.459066
-0.404954
-0.367149
-0.326558
-0.289953
-0.25587
-0.221633
-0.204483
-0.600099
-0.493902
-0.462317
-0.406481
-0.367535
-0.32576
-0.288071
-0.25344
-0.217979
-0.201541
-0.607573
-0.497451
-0.465099
-0.407547
-0.367385
-0.324351
-0.28555
-0.250225
-0.213864
-0.197201
-0.61415
-0.500458
-0.46733
-0.408077
-0.366621
-0.322262
-0.282332
-0.246214
-0.209216
-0.19176
-0.61971
-0.502839
-0.468922
-0.407985
-0.365162
-0.319426
-0.278363
-0.2414
-0.203981
-0.185437
-0.624132
-0.504505
-0.46978
-0.407184
-0.362927
-0.315781
-0.273597
-0.23578
-0.198119
-0.178379
-0.627289
-0.505363
-0.469807
-0.405586
-0.359837
-0.311266
-0.267993
-0.229354
-0.191601
-0.170679
-0.629057
-0.505315
-0.468901
-0.403097
-0.355812
-0.305828
-0.261519
-0.222121
-0.18441
-0.162398
-0.629308
-0.504262
-0.46696
-0.399626
-0.350777
-0.299418
-0.254148
-0.214087
-0.17654
-0.153573
-0.627916
-0.502101
-0.463879
-0.395085
-0.344665
-0.291996
-0.245863
-0.205258
-0.167991
-0.144229
-0.624759
-0.498728
-0.459553
-0.389385
-0.337411
-0.283528
-0.236653
-0.195646
-0.158772
-0.134384
-0.619713
-0.494041
-0.45388
-0.382445
-0.328962
-0.273989
-0.226517
-0.185263
-0.148897
-0.124051
-0.612662
-0.487936
-0.446764
-0.374191
-0.31927
-0.263363
-0.215456
-0.174128
-0.138384
-0.113244
-0.603498
-0.480316
-0.438113
-0.364554
-0.308299
-0.251642
-0.203482
-0.16226
-0.127256
-0.101977
-0.592129
-0.471095
-0.427845
-0.35348
-0.296024
-0.238826
-0.190612
-0.149684
-0.115537
-0.0902664
-0.578467
-0.460188
-0.415888
-0.34092
-0.28243
-0.224923
-0.176867
-0.136427
-0.103255
-0.0781319
-0.562309
-0.447455
-0.402146
-0.326828
-0.267507
-0.209951
-0.162275
-0.122517
-0.0904394
-0.0655945
-0.54333
-0.4327
-0.386513
-0.311159
-0.251255
-0.193933
-0.146868
-0.107987
-0.0771199
-0.052679
-0.522209
-0.41622
-0.369122
-0.293976
-0.233718
-0.176908
-0.130684
-0.0928728
-0.0633305
-0.0394159
-0.498669
-0.397836
-0.349882
-0.275252
-0.214913
-0.158911
-0.113765
-0.0772123
-0.0491061
-0.0258332
-0.472574
-0.37746
-0.328759
-0.254993
-0.194874
-0.139989
-0.0961543
-0.0610463
-0.0344916
-0.0119556
-0.443925
-0.355077
-0.305765
-0.233231
-0.17365
-0.120192
-0.0779008
-0.0444164
-0.0195333
0.00218554
-0.412751
-0.330694
-0.280926
-0.210011
-0.151298
-0.0995776
-0.0590562
-0.0273646
-0.00421267
0.0165055
-0.379091
-0.304328
-0.254286
-0.18539
-0.127885
-0.0782091
-0.0396757
-0.00994654
0.0113914
0.0310077
-0.343
-0.276014
-0.225902
-0.159437
-0.103485
-0.0561535
-0.0198172
0.00779761
0.0272364
0.0456491
-0.304557
-0.245801
-0.195849
-0.132234
-0.0781795
-0.0334833
0.000459369
0.0258175
0.0432847
0.0603855
-0.26386
-0.213762
-0.16422
-0.103872
-0.0520578
-0.0102736
0.0210904
0.0440609
0.0594953
0.0751733
-0.221028
-0.179985
-0.13112
-0.0744536
-0.0252147
0.0133961
0.0420105
0.0624744
0.0758259
0.0899671
-0.176201
-0.14458
-0.0966643
-0.044094
0.00224936
0.0374434
0.0631521
0.081003
0.0922336
0.104719
-0.129539
-0.107676
-0.0609861
-0.0129118
0.030229
0.0617829
0.084446
0.0995908
0.108675
0.119378
-0.0812142
-0.0693914
-0.0242557
0.018965
0.0586147
0.0863269
0.105821
0.11818
0.125108
0.133888
-0.0314239
-0.0299056
0.0133864
0.0514011
0.0872934
0.110986
0.127204
0.136714
0.141485
0.148186
0.0196078
0.0106218
0.0517707
0.0842554
0.116149
0.135669
0.148523
0.155131
0.157763
0.162203
0.0716609
0.0519975
0.0907169
0.117382
0.145065
0.160283
0.169701
0.173375
0.173908
0.17587
0.124473
0.094013
0.130036
0.150632
0.17392
0.184737
0.190663
0.191393
0.18991
0.189094
0.177785
0.136458
0.169537
0.183852
0.202595
0.208936
0.211334
0.209132
0.205702
0.201641
0.23154
0.179195
0.209048
0.216896
0.230971
0.232789
0.231641
0.226528
0.221003
0.213009
0.285873
0.222151
0.248418
0.24962
0.258928
0.256202
0.251515
0.243512
0.23553
0.22278
0.339258
0.264641
0.287291
0.281832
0.286343
0.27909
0.270891
0.260032
0.24987
0.234751
0.391831
0.306601
0.325525
0.313395
0.313102
0.301362
0.2897
0.276021
0.263695
0.247076
0.443497
0.347864
0.362943
0.344163
0.339091
0.322932
0.307874
0.29143
0.276897
0.258956
0.493962
0.388187
0.399346
0.37399
0.364199
0.343716
0.325349
0.306211
0.289491
0.270258
0.542922
0.427327
0.434538
0.402729
0.388317
0.363633
0.34206
0.320316
0.301469
0.280995
0.590095
0.465054
0.46833
0.430244
0.41134
0.382605
0.357949
0.3337
0.312805
0.291147
0.635208
0.501145
0.500543
0.456399
0.43317
0.400558
0.372958
0.34632
0.323471
0.300683
0.677997
0.535382
0.531001
0.481069
0.453711
0.417421
0.387035
0.358136
0.33344
0.309573
0.718207
0.56756
0.559542
0.504133
0.472873
0.433127
0.400128
0.369109
0.342687
0.317798
0.755598
0.597483
0.58601
0.525478
0.490574
0.447614
0.41219
0.379205
0.351186
0.325338
0.789943
0.624968
0.610262
0.544999
0.506735
0.460824
0.423176
0.388391
0.358913
0.332177
0.821032
0.649846
0.632165
0.562601
0.521285
0.472705
0.433048
0.396636
0.365844
0.338298
0.848675
0.671963
0.6516
0.578198
0.53416
0.483208
0.441768
0.403913
0.371958
0.343687
0.8727
0.691183
0.668461
0.591711
0.545304
0.49229
0.449303
0.410197
0.377237
0.348332
0.892959
0.707386
0.682656
0.603076
0.554667
0.499917
0.455627
0.415467
0.381663
0.352221
0.909324
0.720471
0.694105
0.612235
0.562207
0.506055
0.460715
0.419706
0.385221
0.355344
0.921692
0.730355
0.702747
0.619144
0.567892
0.510681
0.464547
0.422898
0.387901
0.357694
0.929986
0.736978
0.708535
0.623767
0.571695
0.513775
0.467111
0.425032
0.389693
0.359265
0.934155
0.740302
0.711437
0.626085
0.5736
0.515325
0.468395
0.426101
0.390591
0.360051
0.934155
0.740302
0.711437
0.626085
0.5736
0.515325
0.468395
0.426101
0.390591
0.360051
0.929986
0.736978
0.708535
0.623767
0.571695
0.513775
0.467111
0.425032
0.389693
0.359265
0.921692
0.730355
0.702747
0.619144
0.567892
0.510681
0.464547
0.422898
0.387901
0.357694
0.909324
0.720471
0.694105
0.612235
0.562207
0.506055
0.460715
0.419706
0.385221
0.355344
0.892959
0.707386
0.682656
0.603076
0.554667
0.499917
0.455627
0.415467
0.381663
0.352221
0.8727
0.691183
0.668461
0.591711
0.545304
0.49229
0.449303
0.410197
0.377237
0.348332
0.848675
0.671963
0.6516
0.578198
0.53416
0.483208
0.441768
0.403913
0.371958
0.343687
0.821032
0.649846
0.632165
0.562601
0.521285
0.472705
0.433048
0.396636
0.365844
0.338298
0.789943
0.624968
0.610262
0.544999
0.506735
0.460824
0.423176
0.388391
0.358913
0.332177
0.755598
0.597483
0.58601
0.525478
0.490574
0.447614
0.41219
0.379205
0.351186
0.325338
0.718207
0.56756
0.559542
0.504133
0.472873
0.433127
0.400128
0.369109
0.342687
0.317798
0.677997
0.535382
0.531001
0.481069
0.453711
0.417421
0.387035
0.358136
0.33344
0.309573
0.635208
0.501145
0.500543
0.456399
0.43317
0.400558
0.372958
0.34632
0.323471
0.300683
0.590095
0.465054
0.46833
0.430244
0.41134
0.382605
0.357949
0.3337
0.312805
0.291147
0.542922
0.427327
0.434538
0.402729
0.388317
0.363633
0.34206
0.320316
0.301469
0.280995
0.493962
0.388187
0.399346
0.37399
0.364199
0.343716
0.325349
0.306211
0.289491
0.270258
0.443497
0.347864
0.362943
0.344163
0.339091
0.322932
0.307874
0.29143
0.276897
0.258957
0.391831
0.306601
0.325525
0.313395
0.313102
0.301362
0.2897
0.276021
0.263695
0.247076
0.339258
0.264641
0.287291
0.281832
0.286343
0.27909
0.270891
0.260032
0.24987
0.234751
0.285873
0.222151
0.248418
0.24962
0.258928
0.256202
0.251515
0.243512
0.23553
0.22278
0.23154
0.179195
0.209048
0.216896
0.230971
0.232789
0.231641
0.226528
0.221003
0.213009
0.177785
0.136458
0.169537
0.183852
0.202595
0.208936
0.211334
0.209132
0.205702
0.201641
0.124473
0.094013
0.130036
0.150632
0.17392
0.184737
0.190663
0.191393
0.18991
0.189094
0.0716609
0.0519975
0.0907169
0.117382
0.145065
0.160283
0.169701
0.173375
0.173908
0.17587
0.0196079
0.0106218
0.0517707
0.0842554
0.116149
0.135669
0.148523
0.155131
0.157763
0.162203
-0.0314239
-0.0299056
0.0133864
0.0514011
0.0872934
0.110986
0.127204
0.136714
0.141485
0.148186
-0.0812142
-0.0693914
-0.0242557
0.018965
0.0586147
0.0863269
0.105821
0.11818
0.125108
0.133888
-0.129539
-0.107676
-0.0609861
-0.0129118
0.030229
0.0617829
0.084446
0.0995908
0.108675
0.119378
-0.176201
-0.14458
-0.0966643
-0.044094
0.00224937
0.0374435
0.0631522
0.0810031
0.0922336
0.104719
-0.221028
-0.179985
-0.13112
-0.0744536
-0.0252147
0.0133961
0.0420105
0.0624744
0.0758259
0.0899671
-0.26386
-0.213762
-0.16422
-0.103872
-0.0520578
-0.0102736
0.0210904
0.044061
0.0594953
0.0751733
-0.304557
-0.245801
-0.195849
-0.132234
-0.0781795
-0.0334833
0.000459376
0.0258176
0.0432847
0.0603855
-0.343
-0.276014
-0.225902
-0.159437
-0.103485
-0.0561535
-0.0198172
0.00779762
0.0272364
0.0456491
-0.379091
-0.304328
-0.254286
-0.18539
-0.127885
-0.0782091
-0.0396757
-0.00994653
0.0113914
0.0310077
-0.412751
-0.330694
-0.280926
-0.210011
-0.151298
-0.0995776
-0.0590562
-0.0273646
-0.00421266
0.0165055
-0.443925
-0.355077
-0.305765
-0.233231
-0.17365
-0.120192
-0.0779008
-0.0444164
-0.0195332
0.00218554
-0.472574
-0.37746
-0.328759
-0.254993
-0.194874
-0.139989
-0.0961543
-0.0610463
-0.0344916
-0.0119556
-0.498669
-0.397836
-0.349882
-0.275252
-0.214913
-0.158911
-0.113765
-0.0772123
-0.0491061
-0.0258332
-0.522209
-0.41622
-0.369122
-0.293976
-0.233718
-0.176908
-0.130684
-0.0928728
-0.0633305
-0.0394159
-0.54333
-0.4327
-0.386513
-0.311159
-0.251255
-0.193933
-0.146868
-0.107987
-0.0771199
-0.052679
-0.562309
-0.447455
-0.402146
-0.326828
-0.267507
-0.209951
-0.162275
-0.122517
-0.0904394
-0.0655945
-0.578467
-0.460188
-0.415888
-0.34092
-0.28243
-0.224923
-0.176867
-0.136427
-0.103255
-0.0781319
-0.592129
-0.471095
-0.427845
-0.35348
-0.296024
-0.238826
-0.190612
-0.149684
-0.115537
-0.0902664
-0.603498
-0.480316
-0.438113
-0.364554
-0.308299
-0.251642
-0.203482
-0.16226
-0.127256
-0.101977
-0.612662
-0.487936
-0.446764
-0.374191
-0.31927
-0.263363
-0.215456
-0.174128
-0.138384
-0.113244
-0.619713
-0.494041
-0.45388
-0.382445
-0.328962
-0.273989
-0.226517
-0.185263
-0.148897
-0.124051
-0.624759
-0.498728
-0.459553
-0.389385
-0.337411
-0.283528
-0.236653
-0.195646
-0.158772
-0.134384
-0.627916
-0.502101
-0.463879
-0.395085
-0.344665
-0.291996
-0.245863
-0.205258
-0.167991
-0.144229
-0.629308
-0.504262
-0.46696
-0.399626
-0.350777
-0.299418
-0.254148
-0.214087
-0.17654
-0.153573
-0.629057
-0.505315
-0.468901
-0.403097
-0.355812
-0.305828
-0.261519
-0.222121
-0.18441
-0.162398
-0.627289
-0.505363
-0.469807
-0.405586
-0.359837
-0.311266
-0.267993
-0.229354
-0.191601
-0.170679
-0.624132
-0.504505
-0.46978
-0.407184
-0.362927
-0.315781
-0.273597
-0.23578
-0.198119
-0.178379
-0.61971
-0.502839
-0.468922
-0.407985
-0.365162
-0.319426
-0.278363
-0.2414
-0.203981
-0.185437
-0.61415
-0.500458
-0.46733
-0.408077
-0.366621
-0.322262
-0.282332
-0.246214
-0.209216
-0.19176
-0.607573
-0.497451
-0.465099
-0.407547
-0.367385
-0.324351
-0.28555
-0.250225
-0.213864
-0.197201
-0.600099
-0.493902
-0.462317
-0.406481
-0.367535
-0.32576
-0.288071
-0.25344
-0.217979
-0.201541
-0.591845
-0.489889
-0.459066
-0.404954
-0.367149
-0.326558
-0.289953
-0.25587
-0.221633
-0.204483
-0.582921
-0.485484
-0.45542
-0.40304
-0.366301
-0.326813
-0.291256
-0.257528
-0.224938
-0.205776
-0.573437
-0.480754
-0.45145
-0.400805
-0.365061
-0.326594
-0.292039
-0.258432
-0.227996
-0.204891
-0.563535
-0.475796
-0.44724
-0.398321
-0.3635
-0.325972
-0.292365
-0.258624
-0.230529
-0.198145
-0.553383
-0.470726
-0.44289
-0.395671
-0.361696
-0.325022
-0.292304
-0.258257
-0.232332
-0.177296
-0.54287
-0.465432
-0.438341
-0.392832
-0.359661
-0.323791
-0.291922
-0.257554
-0.23449
-0.170407
-0.532175
-0.460033
-0.433686
-0.389874
-0.357459
-0.322344
-0.29128
-0.256746
-0.236419
-0.170126
-0.52143
-0.454605
-0.42899
-0.386848
-0.355139
-0.320736
-0.290416
-0.2559
-0.237593
-0.170743
-0.510725
-0.449193
-0.424296
-0.383789
-0.35274
-0.31901
-0.289357
-0.25502
-0.238067
-0.171422
-0.500148
-0.443842
-0.419643
-0.380729
-0.350295
-0.317204
-0.288134
-0.254113
-0.238014
-0.172478
-0.489789
-0.438595
-0.415071
-0.377698
-0.347836
-0.315352
-0.286784
-0.253197
-0.237544
-0.173972
-0.479734
-0.433498
-0.410619
-0.374725
-0.345393
-0.313485
-0.285342
-0.252285
-0.236733
-0.175812
-0.470068
-0.428592
-0.406325
-0.371838
-0.342995
-0.31163
-0.283846
-0.251391
-0.235661
-0.17792
-0.460873
-0.423919
-0.402225
-0.369064
-0.340668
-0.309815
-0.28233
-0.250525
-0.234406
-0.180232
-0.452228
-0.41952
-0.398356
-0.366431
-0.338442
-0.308064
-0.280827
-0.249699
-0.233042
-0.18268
-0.444208
-0.415431
-0.394753
-0.363965
-0.336342
-0.306402
-0.279369
-0.248921
-0.231637
-0.185191
-0.436888
-0.411687
-0.391449
-0.361692
-0.334394
-0.304852
-0.277988
-0.248201
-0.23025
-0.187684
-0.430322
-0.40833
-0.388478
-0.359638
-0.332625
-0.303436
-0.276711
-0.247545
-0.228934
-0.190079
-0.424559
-0.405401
-0.385868
-0.357827
-0.331057
-0.302177
-0.275565
-0.246964
-0.227733
-0.192297
-0.419676
-0.402908
-0.383648
-0.35628
-0.329713
-0.301094
-0.274572
-0.246464
-0.226683
-0.194267
-0.415717
-0.40088
-0.381842
-0.355017
-0.328612
-0.300204
-0.273753
-0.246054
-0.225812
-0.195925
-0.412714
-0.39934
-0.380468
-0.354054
-0.327771
-0.299522
-0.273124
-0.245739
-0.225142
-0.197218
-0.410695
-0.398305
-0.379543
-0.353404
-0.327202
-0.299061
-0.272697
-0.245526
-0.224688
-0.198103
-0.409681
-0.397785
-0.379078
-0.353077
-0.326916
-0.298829
-0.272481
-0.245419
-0.224459
-0.198552
-0.190342
-0.182489
-0.174309
-0.16646
-0.158729
-0.151142
-0.143751
-0.136573
-0.129625
-0.122921
-0.11647
-0.110281
-0.104358
-0.0987033
-0.0933165
-0.0881948
-0.0833335
-0.0787259
-0.0743637
-0.0702371
-0.0663353
-0.0626466
-0.0591586
-0.0558583
-0.0527326
-0.0497678
-0.0469506
-0.0442674
-0.0417048
-0.0392496
-0.0368889
-0.0346092
-0.032399
-0.0302435
-0.0281354
-0.0260534
-0.0240055
-0.021945
-0.0199322
-0.0178324
-0.0158748
-0.0136387
-0.0118726
-0.00927607
-0.00813214
-0.00455381
-0.00520932
0.00113054
-0.00442991
0.00969163
-0.190928
-0.182907
-0.174584
-0.166693
-0.15893
-0.151314
-0.143903
-0.13671
-0.12975
-0.123035
-0.116576
-0.110379
-0.104449
-0.0987888
-0.0933966
-0.0882699
-0.083404
-0.078792
-0.0744255
-0.070295
-0.0663895
-0.0626973
-0.059206
-0.0559026
-0.0527738
-0.0498063
-0.0469865
-0.044301
-0.0417363
-0.0392791
-0.0369165
-0.0346352
-0.0324236
-0.0302668
-0.0281576
-0.0260746
-0.0240258
-0.0219645
-0.019951
-0.0178507
-0.0158923
-0.0136558
-0.0118886
-0.00929225
-0.00814546
-0.00457023
-0.00521743
0.00110948
-0.00442565
0.00965079
-0.192087
-0.183738
-0.175132
-0.167159
-0.159329
-0.151658
-0.144206
-0.136983
-0.129997
-0.123262
-0.116786
-0.110575
-0.104632
-0.0989595
-0.0935566
-0.0884199
-0.0835447
-0.0789239
-0.0745492
-0.0704108
-0.0664979
-0.0627987
-0.0593006
-0.0559909
-0.0528563
-0.0498833
-0.0470584
-0.044368
-0.041799
-0.0393378
-0.0369716
-0.0346871
-0.0324725
-0.0303132
-0.0282017
-0.0261167
-0.0240662
-0.0220034
-0.0199885
-0.0178869
-0.0159271
-0.0136897
-0.0119202
-0.00932441
-0.00817193
-0.00460289
-0.00523352
0.00106754
-0.00441713
0.00956946
-0.193791
-0.184969
-0.175947
-0.167853
-0.159926
-0.152171
-0.144659
-0.13739
-0.130367
-0.123602
-0.1171
-0.110867
-0.104905
-0.0992148
-0.0937959
-0.0886445
-0.0837554
-0.0791216
-0.0747345
-0.0705844
-0.0666603
-0.0629505
-0.0594425
-0.0561234
-0.0529799
-0.0499986
-0.0471659
-0.0444685
-0.0418928
-0.0394256
-0.037054
-0.0347645
-0.0325456
-0.0303823
-0.0282675
-0.0261795
-0.0241263
-0.0220612
-0.0200442
-0.0179407
-0.0159788
-0.0137401
-0.0119671
-0.00937217
-0.00821121
-0.00465145
-0.00525738
0.00100511
-0.00440437
0.00944831
-0.195994
-0.186581
-0.177023
-0.16877
-0.160713
-0.152849
-0.145258
-0.137928
-0.130857
-0.124051
-0.117516
-0.111254
-0.105266
-0.0995534
-0.0941136
-0.0889428
-0.0840355
-0.0793845
-0.0749811
-0.0708155
-0.0668766
-0.0631528
-0.0596314
-0.0562997
-0.0531444
-0.050152
-0.047309
-0.044602
-0.0420175
-0.0395422
-0.0371633
-0.0348672
-0.0326423
-0.0304738
-0.0283544
-0.0262623
-0.0242056
-0.0221373
-0.0201175
-0.0180115
-0.0160467
-0.0138063
-0.0120287
-0.00943494
-0.00826278
-0.00471537
-0.00528866
0.000922741
-0.00438736
0.00928834
-0.198634
-0.188544
-0.178345
-0.169899
-0.161685
-0.153686
-0.145997
-0.138592
-0.131461
-0.124606
-0.11803
-0.111733
-0.105714
-0.0999738
-0.0945084
-0.0893139
-0.0843842
-0.079712
-0.0752884
-0.0711035
-0.0671463
-0.063405
-0.0598671
-0.0565197
-0.0533495
-0.0503432
-0.0474873
-0.0447682
-0.0421726
-0.0396871
-0.037299
-0.0349945
-0.0327622
-0.030587
-0.0284617
-0.0263644
-0.0243033
-0.022231
-0.0202076
-0.0180984
-0.0161301
-0.0138875
-0.0121043
-0.00951199
-0.00832601
-0.00479397
-0.00532693
0.000821148
-0.00436612
0.00909086
-0.201628
-0.190816
-0.179894
-0.171227
-0.16283
-0.154673
-0.14687
-0.139376
-0.132175
-0.125264
-0.11864
-0.112301
-0.106247
-0.100474
-0.0949788
-0.0897564
-0.0848005
-0.0801033
-0.0756558
-0.0714481
-0.0674691
-0.0637069
-0.0601491
-0.0567828
-0.0535949
-0.0505718
-0.0477003
-0.0449666
-0.0423576
-0.0398598
-0.0374604
-0.0351458
-0.0329044
-0.0307211
-0.0285887
-0.0264851
-0.0244185
-0.0223413
-0.0203135
-0.0182005
-0.0162279
-0.0139829
-0.0121929
-0.00960243
-0.0084001
-0.00488644
-0.00537167
0.000701212
-0.00434068
0.00885749
-0.204881
-0.193342
-0.181643
-0.172733
-0.164132
-0.155798
-0.147866
-0.140273
-0.132993
-0.126017
-0.11934
-0.112955
-0.106861
-0.101051
-0.0955227
-0.0902689
-0.0852831
-0.0805574
-0.0760826
-0.0718485
-0.0678442
-0.0640578
-0.060477
-0.0570888
-0.05388
-0.0508374
-0.0479475
-0.0451968
-0.042572
-0.0400597
-0.037647
-0.0353204
-0.0330683
-0.0308753
-0.0287345
-0.0266234
-0.0245503
-0.0224672
-0.0204343
-0.0183168
-0.0163392
-0.0140912
-0.0122935
-0.00970524
-0.00848416
-0.00499183
-0.0054223
0.000563947
-0.00431108
0.00859009
-0.208275
-0.19605
-0.183557
-0.174391
-0.165572
-0.157047
-0.148974
-0.141272
-0.133905
-0.12686
-0.120125
-0.113691
-0.107552
-0.101703
-0.0961379
-0.0908494
-0.0858306
-0.0810731
-0.0765676
-0.072304
-0.0682711
-0.0644573
-0.0608502
-0.0574369
-0.0542044
-0.0511394
-0.0482284
-0.0454581
-0.0428151
-0.040286
-0.037858
-0.0355175
-0.0332528
-0.0310487
-0.028898
-0.0267781
-0.0246975
-0.0226076
-0.0205687
-0.018446
-0.0164627
-0.0142114
-0.0124049
-0.00981932
-0.00857722
-0.00510912
-0.00547816
0.000410488
-0.00427739
0.00829078
-0.21168
-0.198852
-0.185588
-0.176167
-0.167123
-0.158399
-0.150177
-0.142362
-0.134904
-0.127785
-0.120988
-0.114502
-0.108318
-0.102427
-0.0968218
-0.0914959
-0.0864412
-0.0816489
-0.0771098
-0.0728135
-0.068749
-0.0649046
-0.0612681
-0.0578268
-0.0545675
-0.0514772
-0.0485425
-0.0457499
-0.0430862
-0.0405381
-0.0380926
-0.0357362
-0.0334573
-0.0312403
-0.0290783
-0.0269484
-0.024859
-0.0227613
-0.0207156
-0.0185869
-0.0165971
-0.0143422
-0.0125261
-0.00994347
-0.00867823
-0.00523719
-0.00553857
0.000242068
-0.0042397
0.00796189
-0.214954
-0.201645
-0.187678
-0.178019
-0.168752
-0.159829
-0.151459
-0.143527
-0.135976
-0.128783
-0.121924
-0.115384
-0.109152
-0.103217
-0.0975712
-0.0922059
-0.0871129
-0.0822833
-0.0777077
-0.0733758
-0.0692767
-0.0653988
-0.0617299
-0.0582575
-0.0549686
-0.0518502
-0.0488889
-0.0460714
-0.0433846
-0.0408151
-0.03835
-0.0359757
-0.0336806
-0.0314492
-0.0292743
-0.0271329
-0.0250336
-0.0229271
-0.0208736
-0.0187382
-0.0167412
-0.0144823
-0.0126556
-0.0100765
-0.00878612
-0.00537487
-0.00560284
6.00023e-05
-0.00419813
0.00760592
-0.21795
-0.204313
-0.189757
-0.179892
-0.170418
-0.161309
-0.152796
-0.144751
-0.13711
-0.129843
-0.122923
-0.116331
-0.11005
-0.104071
-0.0983829
-0.0929766
-0.0878434
-0.0829744
-0.0783599
-0.0739898
-0.0698533
-0.065939
-0.0622348
-0.0587284
-0.0554069
-0.0522575
-0.0492669
-0.046422
-0.0437095
-0.0411162
-0.0386293
-0.036235
-0.0339219
-0.0316742
-0.0294849
-0.0273307
-0.0252202
-0.0231038
-0.0210415
-0.0188987
-0.0168937
-0.0146305
-0.0127924
-0.0102171
-0.00889982
-0.00552097
-0.00567025
-0.000134342
-0.00415284
0.00722551
-0.220523
-0.20673
-0.191744
-0.181725
-0.172076
-0.162803
-0.154163
-0.146015
-0.138291
-0.130956
-0.123978
-0.117334
-0.111008
-0.104984
-0.0992533
-0.0938052
-0.0886305
-0.0837203
-0.0790648
-0.0746541
-0.0704776
-0.0665241
-0.0627819
-0.0592386
-0.0558818
-0.0526986
-0.049676
-0.0468009
-0.0440602
-0.0414407
-0.0389297
-0.0365133
-0.0341802
-0.0319144
-0.0297091
-0.0275406
-0.0254176
-0.0232901
-0.0212182
-0.0190671
-0.0170534
-0.0147854
-0.0129351
-0.0103642
-0.00901824
-0.0056743
-0.0057401
-0.000339561
-0.00410403
0.00682343
-0.222535
-0.208766
-0.193552
-0.183449
-0.173671
-0.164275
-0.155532
-0.147299
-0.139504
-0.132109
-0.125079
-0.118388
-0.112018
-0.105952
-0.100179
-0.0946887
-0.0894717
-0.0845189
-0.0798207
-0.0753673
-0.0711485
-0.0671533
-0.0633703
-0.0597874
-0.0563924
-0.0531726
-0.0501153
-0.0472074
-0.044436
-0.0417879
-0.0392504
-0.0368098
-0.0344547
-0.032169
-0.0299459
-0.0277615
-0.0256248
-0.023485
-0.0214023
-0.0192421
-0.017219
-0.0149459
-0.0130825
-0.0105164
-0.00914032
-0.00583365
-0.00581173
-0.000554226
-0.00405195
0.00640251
-0.223873
-0.210298
-0.19508
-0.184979
-0.175138
-0.165675
-0.156867
-0.148574
-0.140726
-0.133285
-0.126212
-0.119481
-0.113071
-0.106966
-0.101153
-0.0956214
-0.0903621
-0.085366
-0.0806239
-0.0761263
-0.0718632
-0.067824
-0.0639978
-0.0603728
-0.056937
-0.0536781
-0.0505834
-0.0476401
-0.0448355
-0.0421564
-0.0395902
-0.0371232
-0.0347441
-0.0324367
-0.0301942
-0.0279925
-0.0258405
-0.0236873
-0.0215929
-0.0194227
-0.0173893
-0.0151107
-0.0132335
-0.0106726
-0.00926508
-0.00599784
-0.00588451
-0.000776859
-0.00399694
0.00596569
-0.224398
-0.21116
-0.196197
-0.186209
-0.176398
-0.166944
-0.158123
-0.149807
-0.141933
-0.134463
-0.127361
-0.120599
-0.114156
-0.108015
-0.102165
-0.0965945
-0.0912939
-0.0862548
-0.0814683
-0.0769254
-0.0726166
-0.0685319
-0.0646605
-0.0609912
-0.0575124
-0.0542121
-0.0510777
-0.0480968
-0.0452567
-0.0425445
-0.0399476
-0.0374523
-0.0350473
-0.0327164
-0.030453
-0.0282324
-0.026064
-0.0238962
-0.0217889
-0.0196081
-0.0175635
-0.0152792
-0.0133874
-0.010832
-0.00939179
-0.00616588
-0.00595799
-0.00100603
-0.00393945
0.00551591
-0.223856
-0.211187
-0.196826
-0.187099
-0.177441
-0.168087
-0.159313
-0.151013
-0.143139
-0.135658
-0.128539
-0.121754
-0.115284
-0.109112
-0.103227
-0.0976181
-0.0922762
-0.0871933
-0.0823612
-0.0777714
-0.073415
-0.0692824
-0.0653634
-0.0616473
-0.0581229
-0.0547783
-0.0516017
-0.0485805
-0.0457024
-0.0429545
-0.0403245
-0.0377986
-0.0353657
-0.0330094
-0.0307232
-0.0284821
-0.0262957
-0.024112
-0.0219907
-0.0197982
-0.0177416
-0.0154509
-0.0135438
-0.0109942
-0.00951997
-0.00633718
-0.00603174
-0.00124085
-0.00387952
0.0050556
-0.222521
-0.210634
-0.197115
-0.187738
-0.178341
-0.169178
-0.160509
-0.152265
-0.144417
-0.136943
-0.129816
-0.123013
-0.116518
-0.110315
-0.104394
-0.0987441
-0.0933578
-0.0882274
-0.0833454
-0.078704
-0.0742949
-0.0701092
-0.0661373
-0.0623689
-0.0587934
-0.0553993
-0.0521751
-0.0491085
-0.0461875
-0.0433993
-0.0407317
-0.038171
-0.0357062
-0.0333208
-0.0310084
-0.0287438
-0.0265367
-0.0243346
-0.0221973
-0.0199915
-0.0179214
-0.0156237
-0.0137002
-0.0111569
-0.00964759
-0.00651048
-0.00610449
-0.00148129
-0.00381598
0.00458612
-0.221899
-0.209406
-0.196485
-0.187451
-0.178476
-0.169682
-0.161266
-0.153194
-0.145461
-0.138061
-0.130978
-0.124199
-0.11771
-0.111501
-0.105563
-0.099887
-0.0944677
-0.0892982
-0.0843721
-0.0796827
-0.0752228
-0.0709843
-0.0669585
-0.063136
-0.0595067
-0.0560598
-0.0527843
-0.0496684
-0.0467003
-0.0438676
-0.0411583
-0.0385587
-0.0360581
-0.0336399
-0.0312979
-0.0290066
-0.026776
-0.0245531
-0.0223978
-0.0201773
-0.0180927
-0.015788
-0.013848
-0.0113126
-0.00976851
-0.00668024
-0.00617349
-0.00172356
-0.00375007
0.004112
-0.216304
-0.204156
-0.192878
-0.18459
-0.176406
-0.168289
-0.160385
-0.1527
-0.145262
-0.138085
-0.131173
-0.124524
-0.118134
-0.111999
-0.106114
-0.100476
-0.0950789
-0.0899203
-0.0849952
-0.0802987
-0.075825
-0.0715674
-0.0675185
-0.0636698
-0.0600122
-0.0565359
-0.0532304
-0.0500845
-0.047087
-0.0442259
-0.0414895
-0.0388644
-0.0363402
-0.0339
-0.0315383
-0.029229
-0.0269826
-0.0247457
-0.022578
-0.0203472
-0.0182522
-0.0159423
-0.0139888
-0.0114601
-0.0098852
-0.00684015
-0.00624292
-0.0019496
-0.00370024
0.00365396
-0.18882
-0.200807
-0.192515
-0.184524
-0.176488
-0.168397
-0.16048
-0.152772
-0.14531
-0.138111
-0.13118
-0.124514
-0.118111
-0.111966
-0.106074
-0.100431
-0.095033
-0.0898751
-0.0849529
-0.0802611
-0.0757938
-0.0715441
-0.0675042
-0.0636655
-0.0600188
-0.056554
-0.0532604
-0.0501269
-0.0471421
-0.0442938
-0.0415704
-0.0389582
-0.0364468
-0.034019
-0.0316694
-0.029371
-0.0271349
-0.0249057
-0.0227447
-0.0205166
-0.0184219
-0.0161092
-0.0141457
-0.0116131
-0.0100104
-0.00697857
-0.00631619
-0.00210364
-0.00369422
0.00332799
-0.178216
-0.195872
-0.189056
-0.181911
-0.174499
-0.166828
-0.159232
-0.15178
-0.144524
-0.137493
-0.1307
-0.124151
-0.117844
-0.11178
-0.105956
-0.10037
-0.0950183
-0.0898989
-0.0850079
-0.0803411
-0.0758933
-0.0716583
-0.0676291
-0.0637977
-0.0601554
-0.0566927
-0.0533994
-0.0502648
-0.0472777
-0.0444263
-0.0416993
-0.0390832
-0.0365678
-0.034136
-0.0317827
-0.0294805
-0.027241
-0.0250086
-0.022844
-0.0206134
-0.0185139
-0.0162003
-0.0142278
-0.0117009
-0.010076
-0.00707243
-0.00635058
-0.00223465
-0.00365951
0.00306191
-0.174139
-0.19058
-0.184667
-0.178382
-0.171686
-0.164553
-0.157385
-0.150281
-0.143311
-0.136518
-0.129925
-0.123543
-0.117378
-0.111434
-0.105711
-0.100209
-0.0949293
-0.0898689
-0.0850262
-0.0803982
-0.0759807
-0.0717688
-0.0677563
-0.0639364
-0.0603009
-0.0568411
-0.0535477
-0.0504103
-0.0474186
-0.044561
-0.0418269
-0.039203
-0.0366796
-0.0342397
-0.0318784
-0.0295689
-0.0273222
-0.0250841
-0.0229135
-0.02068
-0.0185746
-0.0162634
-0.0142813
-0.0117684
-0.0101194
-0.00715976
-0.00636823
-0.00237901
-0.00360162
0.00276827
-0.171244
-0.185535
-0.180499
-0.17489
-0.168829
-0.162212
-0.155464
-0.148708
-0.142028
-0.135478
-0.129089
-0.12288
-0.116862
-0.111043
-0.105426
-0.100014
-0.0948098
-0.0898122
-0.0850212
-0.080435
-0.0760507
-0.0718644
-0.067871
-0.0640644
-0.0604374
-0.0569821
-0.0536897
-0.0505507
-0.0475552
-0.0446924
-0.0419517
-0.0393205
-0.0367893
-0.0343417
-0.0319726
-0.0296559
-0.0274022
-0.0251587
-0.0229819
-0.0207459
-0.0186342
-0.016326
-0.0143338
-0.0118364
-0.0101615
-0.00724928
-0.0063836
-0.0025295
-0.00353798
0.00245837
-0.168641
-0.180608
-0.176448
-0.171398
-0.165912
-0.159795
-0.153465
-0.147062
-0.14068
-0.134381
-0.128204
-0.122176
-0.116312
-0.110624
-0.105118
-0.0998012
-0.0946759
-0.0897446
-0.0850082
-0.0804663
-0.0761174
-0.0719585
-0.0679856
-0.0641935
-0.060576
-0.057126
-0.0538354
-0.0506953
-0.0476964
-0.0448284
-0.0420814
-0.0394431
-0.0369043
-0.0344489
-0.032072
-0.0297481
-0.0274873
-0.0252381
-0.023055
-0.0208162
-0.0186979
-0.0163927
-0.0143894
-0.0119078
-0.0102054
-0.00734247
-0.00639894
-0.00268567
-0.00347076
0.00213312
-0.166168
-0.175731
-0.172357
-0.167809
-0.162857
-0.157237
-0.151333
-0.145296
-0.139226
-0.133194
-0.127244
-0.12141
-0.115711
-0.110164
-0.104779
-0.0995636
-0.0945241
-0.0896645
-0.0849873
-0.0804935
-0.076183
-0.0720539
-0.0681035
-0.0643274
-0.0607205
-0.0572765
-0.053988
-0.0508469
-0.0478447
-0.0449715
-0.0422178
-0.0395719
-0.0370249
-0.0345613
-0.032176
-0.0298444
-0.0275759
-0.0253206
-0.0231305
-0.0208888
-0.0187632
-0.016461
-0.0144458
-0.0119809
-0.0102493
-0.00743832
-0.00641291
-0.00284794
-0.00339856
0.00179171